A-SYNC WITH FASUDIL
35315
  121NASP     N    1   6.368   0.274   1.875 -0.0912  0.4041  0.4740
  121NASP    H1    2   6.440   0.206   1.895 -1.7169 -2.2802 -2.0067
  121NASP    H2    3   6.402   0.361   1.836  1.7082 -1.6562 -2.9999
  121NASP    H3    4   6.304   0.246   1.802 -1.0359 -0.9416  1.7503
  121NASP    CA    5   6.294   0.302   2.001  0.8292  0.3808  0.2271
  121NASP    HA    6   6.246   0.210   2.032 -1.9813  1.5887 -0.2060
  121NASP    CB    7   6.382   0.361   2.114 -0.7376  1.1082 -0.0688
  121NASP   HB1    8   6.445   0.283   2.159 -2.7125  0.5130  1.8394
  121NASP   HB2    9   6.321   0.399   2.196  0.7069  1.3984  0.9103
  121NASP    CG   10   6.487   0.469   2.066  0.4807 -0.0323  0.6595
  121NASP   OD1   11   6.560   0.532   2.148 -0.3714  1.3210 -0.4095
  121NASP   OD2   12   6.497   0.489   1.942  0.0574  0.1329 -0.9754
  121NASP     C   13   6.171   0.393   1.973 -0.1382  0.0081  0.5657
  121NASP     O   14   6.161   0.441   1.860  0.3938 -0.2048  0.3781
  122ASN      N   15   6.078   0.400   2.073  0.0744  0.6191 -0.4073
  122ASN      H   16   6.090   0.348   2.159  0.7832  1.0722 -0.2286
  122ASN     CA   17   5.958   0.484   2.053 -0.8338 -0.3708 -0.0050
  122ASN     HA   18   5.942   0.507   1.947  0.3038  1.2338  0.1315
  122ASN     CB   19   5.841   0.403   2.100 -0.6064  0.1559 -0.1179
  122ASN    HB1   20   5.762   0.475   2.082 -0.1361  1.0702  1.3013
  122ASN    HB2   21   5.851   0.378   2.206  2.3331 -0.9151 -0.5434
  122ASN     CG   22   5.817   0.274   2.024  0.2190  0.1833 -0.5819
  122ASN    OD1   23   5.865   0.265   1.910 -0.2585  0.3586  0.1939
  122ASN    ND2   24   5.746   0.179   2.078 -0.5695  0.6084  0.0314
  122ASN   HD21   25   5.733   0.099   2.017 -1.5004  1.3619 -0.7869
  122ASN   HD22   26   5.714   0.179   2.174 -0.1005  2.2877  0.2171
  122ASN      C   27   5.970   0.611   2.140 -0.6556 -0.4685  0.9981
  122ASN      O   28   6.013   0.607   2.252 -0.3607 -0.2911  0.0178
  123GLU      N   29   5.924   0.723   2.084  0.0428  0.4964 -0.1401
  123GLU      H   30   5.869   0.724   2.000 -1.7524  0.5043  0.9918
  123GLU     CA   31   5.973   0.851   2.127  0.9080  0.0512 -0.6629
  123GLU     HA   32   6.080   0.837   2.133  0.5157 -2.6873  1.3588
  123GLU     CB   33   5.944   0.958   2.013 -0.0374 -0.1528 -0.0323
  123GLU    HB1   34   5.987   1.053   2.044 -0.0037  0.3646 -1.6193
  123GLU    HB2   35   5.836   0.968   2.006  0.0039 -0.7831 -2.5880
  123GLU     CG   36   6.020   0.919   1.889  0.3439  0.2021  0.0556
  123GLU    HG1   37   5.973   0.835   1.838  1.1323  0.2411 -0.7556
  123GLU    HG2   38   6.124   0.896   1.910  0.5306  1.0131  0.0561
  123GLU     CD   39   6.018   1.028   1.788  0.3550 -0.3594  0.0205
  123GLU    OE1   40   6.054   0.995   1.674  0.4655 -0.2251 -0.3658
  123GLU    OE2   41   5.959   1.134   1.807 -0.1226  0.0250  0.4805
  123GLU      C   42   5.932   0.908   2.263 -0.1311  0.5187 -0.2423
  123GLU      O   43   5.832   0.862   2.313  0.1634  0.3829  0.2095
  124ALA      N   44   6.018   0.989   2.321 -0.4815 -0.1246 -0.3994
  124ALA      H   45   6.101   1.020   2.271  1.7429 -1.1076  2.4009
  124ALA     CA   46   6.025   1.007   2.462  0.2930 -1.2769  0.6775
  124ALA     HA   47   6.007   0.912   2.511 -2.9901  0.4222  3.1855
  124ALA     CB   48   6.166   1.048   2.509  0.0242  0.2781  0.1115
  124ALA    HB1   49   6.186   1.145   2.465 -0.8454 -0.3933 -1.8848
  124ALA    HB2   50   6.242   0.978   2.473 -1.0035 -0.6258 -0.3640
  124ALA    HB3   51   6.168   1.051   2.617 -1.9573 -0.4886  0.2077
  124ALA      C   52   5.913   1.102   2.507  0.2023 -1.0643  0.4831
  124ALA      O   53   5.885   1.204   2.436  0.5561  0.3417  0.7148
  125TYR      N   54   5.868   1.079   2.632 -0.0448 -0.0141  0.1806
  125TYR      H   55   5.918   1.009   2.685  0.8123  1.0180  0.7696
  125TYR     CA   56   5.765   1.158   2.699  0.1608  0.0038 -0.2712
  125TYR     HA   57   5.700   1.209   2.627 -1.6822 -1.0848  0.5467
  125TYR     CB   58   5.674   1.075   2.791  0.1902  0.3466  0.0542
  125TYR    HB1   59   5.622   1.141   2.861 -1.5243 -1.2135  0.3465
  125TYR    HB2   60   5.733   1.000   2.843  0.9507  1.1459  0.3565
  125TYR     CG   61   5.564   1.005   2.703 -0.2367 -0.0377 -0.4124
  125TYR    CD1   62   5.432   1.049   2.707 -0.1383 -0.0977  0.3847
  125TYR    HD1   63   5.406   1.134   2.769 -0.4228  0.5311 -0.5675
  125TYR    CE1   64   5.337   0.979   2.628 -0.0404  0.6737 -0.1983
  125TYR    HE1   65   5.232   1.000   2.641 -0.0707 -0.2880  1.4438
  125TYR     CZ   66   5.371   0.873   2.542 -0.3178  0.0903  0.8311
  125TYR     OH   67   5.285   0.809   2.462 -0.0490 -0.2869  0.3166
  125TYR     HH   68   5.196   0.846   2.468  0.0112  0.3263 -1.7769
  125TYR    CE2   69   5.508   0.830   2.537  0.1084  0.3466 -0.1214
  125TYR    HE2   70   5.540   0.756   2.466 -0.9869  0.1533 -0.4277
  125TYR    CD2   71   5.606   0.898   2.616 -0.0365  0.4735  0.1381
  125TYR    HD2   72   5.708   0.861   2.615 -0.8195 -1.8752 -0.1710
  125TYR      C   73   5.838   1.266   2.778  0.0946  0.1126 -1.0082
  125TYR      O   74   5.937   1.235   2.842 -0.4274 -0.1036 -0.1720
  126GLU      N   75   5.795   1.388   2.773  0.4603  0.4960 -0.6897
  126GLU      H   76   5.702   1.401   2.734 -1.1094 -0.3889  2.3972
  126GLU     CA   77   5.846   1.503   2.851  0.4665  0.6686  0.1732
  126GLU     HA   78   5.901   1.458   2.934  0.0690 -1.0113 -0.4136
  126GLU     CB   79   5.947   1.578   2.761  0.0157  0.7628  0.1363
  126GLU    HB1   80   6.036   1.516   2.750  0.9085  1.3393  3.1526
  126GLU    HB2   81   5.989   1.656   2.825 -0.2206  0.3650  0.7845
  126GLU     CG   82   5.898   1.620   2.621  0.3167 -0.3867 -0.2824
  126GLU    HG1   83   5.798   1.663   2.633  0.4788  0.5151 -1.8475
  126GLU    HG2   84   5.891   1.540   2.548  0.3823 -0.1566 -0.5431
  126GLU     CD   85   5.992   1.729   2.568 -0.7308 -0.0664  0.4272
  126GLU    OE1   86   6.100   1.694   2.514  0.2360 -0.4115 -0.0562
  126GLU    OE2   87   5.972   1.851   2.597 -0.1795  0.1273 -0.5404
  126GLU      C   88   5.737   1.590   2.898 -0.3742 -0.1835  0.0737
  126GLU      O   89   5.627   1.583   2.851 -0.0968  0.1657 -0.1922
  127MET      N   90   5.762   1.664   3.005 -0.0904  0.3283 -0.2699
  127MET      H   91   5.844   1.643   3.058 -0.0248 -0.5087 -0.6851
  127MET     CA   92   5.655   1.739   3.073 -0.2385 -0.7467 -0.5698
  127MET     HA   93   5.569   1.672   3.074 -0.7814 -0.1796  2.5645
  127MET     CB   94   5.693   1.778   3.220  0.1628 -0.6853  0.2077
  127MET    HB1   95   5.605   1.830   3.258  0.9321 -0.2836  1.4861
  127MET    HB2   96   5.776   1.849   3.223  1.1979 -1.7579 -1.3809
  127MET     CG   97   5.719   1.653   3.305  0.0999 -0.5018  0.3427
  127MET    HG1   98   5.820   1.624   3.279  0.1360  0.2931 -0.4570
  127MET    HG2   99   5.647   1.575   3.281  0.3339 -1.1540  1.6820
  127MET     SD  100   5.719   1.675   3.484 -0.0741  0.1847 -0.1092
  127MET     CE  101   5.788   1.842   3.501  0.0149  0.4023 -0.0650
  127MET    HE1  102   5.709   1.906   3.462 -1.6736 -2.4180 -1.5896
  127MET    HE2  103   5.883   1.858   3.451  0.7900 -0.5178  1.0844
  127MET    HE3  104   5.794   1.861   3.608 -0.8457  0.0145  0.0611
  127MET      C  105   5.615   1.861   2.990  0.8258  0.0371  0.2612
  127MET      O  106   5.707   1.933   2.940 -0.0820  0.7535  0.0524
  128PRO      N  107   5.484   1.899   2.988  0.1162  0.7808 -0.0180
  128PRO     CD  108   5.377   1.827   3.056 -0.0303  0.3051 -1.4101
  128PRO    HD1  109   5.397   1.835   3.163 -3.1343  0.1371 -0.7471
  128PRO    HD2  110   5.361   1.724   3.026 -0.0182 -0.4338  0.9263
  128PRO     CG  111   5.248   1.900   3.024  0.2917 -0.1775 -0.5630
  128PRO    HG1  112   5.189   1.909   3.115  0.9086 -1.5366 -0.0053
  128PRO    HG2  113   5.188   1.853   2.946  0.1834  0.3837 -0.8258
  128PRO     CB  114   5.292   2.034   2.997 -1.2091 -0.0010 -0.0280
  128PRO    HB1  115   5.217   2.067   2.926 -1.0657  1.0341  0.2766
  128PRO    HB2  116   5.278   2.099   3.084 -3.0164 -0.1152 -0.1978
  128PRO     CA  117   5.437   2.030   2.938  0.5338 -0.1416 -0.1415
  128PRO     HA  118   5.442   2.020   2.830 -2.1637  2.7633 -0.6610
  128PRO      C  119   5.519   2.141   3.005 -0.0375 -0.5599 -0.6747
  128PRO      O  120   5.554   2.137   3.123  0.1795 -0.2233 -0.0699
  129SER      N  121   5.551   2.248   2.930  0.0398 -0.4358  0.3428
  129SER      H  122   5.539   2.239   2.830 -0.8535  3.4147 -0.0579
  129SER     CA  123   5.629   2.360   2.977 -0.4637 -1.0985 -0.2326
  129SER     HA  124   5.704   2.324   3.048 -0.5616  1.1649  1.0973
  129SER     CB  125   5.700   2.411   2.854  0.0376  0.2234 -0.0549
  129SER    HB1  126   5.759   2.327   2.817 -0.6109 -0.5106  0.5402
  129SER    HB2  127   5.773   2.486   2.885 -0.0859  0.4821 -0.3898
  129SER     OG  128   5.604   2.477   2.770  0.4614 -0.1075  0.3376
  129SER    HG1  129   5.634   2.464   2.680 -1.3808  1.6265 -0.6174
  129SER      C  130   5.539   2.470   3.047  0.0659 -0.3021 -0.4614
  129SER      O  131   5.596   2.567   3.099 -0.0143  0.6687  0.0820
  130GLU      N  132   5.408   2.467   3.040  0.3577  0.3429 -0.4278
  130GLU      H  133   5.372   2.382   3.001  1.0367 -0.2964  0.2902
  130GLU     CA  134   5.320   2.568   3.095  0.2807 -0.4781 -0.1469
  130GLU     HA  135   5.368   2.643   3.157 -2.6587  1.8648 -0.4511
  130GLU     CB  136   5.251   2.651   2.985 -0.4083 -0.0233  0.0858
  130GLU    HB1  137   5.184   2.722   3.034 -0.5517  0.2198 -0.4632
  130GLU    HB2  138   5.187   2.582   2.929 -0.1944  0.7061 -1.0896
  130GLU     CG  139   5.346   2.740   2.906 -0.2801  0.6953 -0.3944
  130GLU    HG1  140   5.416   2.671   2.859  0.2383  1.0964 -0.2307
  130GLU    HG2  141   5.393   2.810   2.976 -0.5781 -1.0347  1.6551
  130GLU     CD  142   5.287   2.814   2.787  0.3807  0.4858  0.0561
  130GLU    OE1  143   5.363   2.840   2.689  0.2788  0.0776  0.2380
  130GLU    OE2  144   5.166   2.845   2.788  0.2373 -0.1238  0.5082
  130GLU      C  145   5.218   2.496   3.187 -0.5922 -0.5903  0.5356
  130GLU      O  146   5.179   2.383   3.161  0.3925  0.0847 -0.5095
  131GLU      N  147   5.169   2.570   3.283 -0.5607  0.0371 -0.0735
  131GLU      H  148   5.213   2.660   3.298 -1.2944  0.4064 -0.1114
  131GLU     CA  149   5.030   2.548   3.337 -0.2748 -0.1252  0.0653
  131GLU     HA  150   5.002   2.443   3.349  1.4348 -0.6905 -0.5817
  131GLU     CB  151   5.024   2.610   3.475 -0.9090  0.3446 -0.3946
  131GLU    HB1  152   4.925   2.586   3.515 -0.3572 -2.0622 -0.2780
  131GLU    HB2  153   5.047   2.716   3.467  0.3482  0.0824 -0.3923
  131GLU     CG  154   5.128   2.547   3.573  0.3713 -0.4381 -0.3563
  131GLU    HG1  155   5.230   2.561   3.538  1.1668 -0.7751  1.6450
  131GLU    HG2  156   5.114   2.439   3.587  0.8667 -0.5414 -0.6638
  131GLU     CD  157   5.129   2.617   3.708  0.2981  0.6350  0.5683
  131GLU    OE1  158   5.237   2.650   3.762 -0.8289 -0.3665 -0.3359
  131GLU    OE2  159   5.020   2.634   3.768  0.2532  0.4137 -0.5660
  131GLU      C  160   4.916   2.602   3.251 -0.4470 -0.1495 -0.0539
  131GLU      O  161   4.944   2.692   3.170 -0.1197  0.2274 -0.0339
  132GLY      N  162   4.797   2.563   3.288 -0.2431  0.0059 -0.2880
  132GLY      H  163   4.793   2.493   3.361  1.7200 -1.1213 -1.1919
  132GLY     CA  164   4.687   2.594   3.205  0.2476  0.4821  0.2457
  132GLY    HA1  165   4.626   2.504   3.205 -0.7899  1.1687  1.1436
  132GLY    HA2  166   4.721   2.610   3.102 -1.5199 -2.1168 -0.8431
  132GLY      C  167   4.614   2.719   3.252  0.1536 -0.2664 -0.3910
  132GLY      O  168   4.683   2.828   3.283  0.0504  0.1769  0.4209
  133TYR      N  169   4.490   2.702   3.284  0.2407  0.3311  0.2207
  133TYR      H  170   4.447   2.613   3.267  1.5503 -0.1814 -0.5316
  133TYR     CA  171   4.395   2.811   3.311  0.6738  0.8277  0.4992
  133TYR     HA  172   4.430   2.912   3.290 -0.8382  1.2133 -0.3177
  133TYR     CB  173   4.271   2.788   3.219 -0.5502 -0.3503 -0.2379
  133TYR    HB1  174   4.230   2.689   3.237 -0.5824 -0.2422  0.2975
  133TYR    HB2  175   4.315   2.775   3.120  0.7345  0.3269  0.2145
  133TYR     CG  176   4.175   2.909   3.221 -0.1723  0.1970  0.3651
  133TYR    CD1  177   4.219   3.031   3.172  0.4057 -0.1548  0.0322
  133TYR    HD1  178   4.309   3.037   3.114  1.0246  1.2615  1.0712
  133TYR    CE1  179   4.140   3.145   3.184 -0.3736 -0.5095 -0.0690
  133TYR    HE1  180   4.161   3.238   3.134  0.3942  0.8651  2.6152
  133TYR     CZ  181   4.023   3.139   3.258 -0.2704 -0.3051 -0.0712
  133TYR     OH  182   3.949   3.250   3.275  0.4169 -0.6109  0.1313
  133TYR     HH  183   3.967   3.324   3.216 -1.1733 -1.3992 -1.4451
  133TYR    CE2  184   3.985   3.019   3.319 -0.3837  0.0105 -0.1398
  133TYR    HE2  185   3.894   3.011   3.377  0.7951  0.9146  1.9432
  133TYR    CD2  186   4.059   2.902   3.295 -0.0759 -0.2450 -0.0384
  133TYR    HD2  187   4.025   2.810   3.339  2.2294 -0.7543  0.7952
  133TYR      C  188   4.353   2.815   3.455  0.6090 -0.1103  0.6051
  133TYR      O  189   4.345   2.712   3.527 -0.4138  0.1690  0.2737
  134GLN      N  190   4.317   2.931   3.510 -0.2147 -0.1716  0.0565
  134GLN      H  191   4.324   3.012   3.450  0.3854  0.4217  0.8962
  134GLN     CA  192   4.255   2.941   3.644  0.8636 -0.2188  0.0762
  134GLN     HA  193   4.209   2.846   3.668  3.9607 -2.0096 -0.6420
  134GLN     CB  194   4.359   2.972   3.748  0.2940  0.3493 -0.7659
  134GLN    HB1  195   4.307   3.012   3.835 -0.4705 -0.6566 -0.7410
  134GLN    HB2  196   4.437   3.044   3.724  1.4410 -0.5869  0.0742
  134GLN     CG  197   4.442   2.850   3.790 -0.1200  0.2018  0.0802
  134GLN    HG1  198   4.499   2.820   3.702 -0.8495 -0.6506 -0.1125
  134GLN    HG2  199   4.379   2.769   3.827 -0.3363 -0.3102 -1.3416
  134GLN     CD  200   4.536   2.873   3.907  0.4108 -0.3024  0.0260
  134GLN    OE1  201   4.655   2.898   3.887  0.0343  0.1832  0.3878
  134GLN    NE2  202   4.489   2.887   4.026  0.1202  0.0339  0.5277
  134GLN   HE21  203   4.551   2.932   4.092  0.0688  1.3388 -0.2872
  134GLN   HE22  204   4.391   2.875   4.047  0.2924 -2.7311  0.1654
  134GLN      C  205   4.144   3.041   3.635 -0.5624  0.0849 -0.7580
  134GLN      O  206   4.152   3.144   3.573  0.9863 -0.3227  0.0646
  135ASP      N  207   4.033   3.004   3.698 -0.4912  0.6356  0.8506
  135ASP      H  208   4.037   2.910   3.734  1.9968 -0.2704 -1.4129
  135ASP     CA  209   3.906   3.072   3.682  0.3403  0.0915 -0.4605
  135ASP     HA  210   3.897   3.118   3.584 -1.7366  1.9683  0.5401
  135ASP     CB  211   3.786   2.972   3.692  0.0258  0.9012  0.0498
  135ASP    HB1  212   3.797   2.907   3.605  1.4069  1.5488 -0.2875
  135ASP    HB2  213   3.687   3.016   3.687  0.3845  1.6094 -1.9064
  135ASP     CG  214   3.794   2.864   3.804 -0.2821 -0.7128  0.0485
  135ASP    OD1  215   3.893   2.856   3.881  0.2439  0.4622  0.1101
  135ASP    OD2  216   3.702   2.787   3.810 -0.0507  0.4953  0.0976
  135ASP      C  217   3.887   3.188   3.782  0.1014  0.0433  0.1188
  135ASP      O  218   3.785   3.195   3.850  0.0546  0.3874  0.5276
  136TYR      N  219   3.983   3.274   3.787 -0.2343 -0.2384 -0.1812
  136TYR      H  220   4.071   3.257   3.740 -1.1360 -3.7464 -0.8518
  136TYR     CA  221   3.989   3.385   3.873  0.3722 -0.6178 -0.1283
  136TYR     HA  222   3.996   3.343   3.973  4.0145 -0.9970 -0.4023
  136TYR     CB  223   4.120   3.464   3.853  0.1167  0.0810  0.0578
  136TYR    HB1  224   4.113   3.544   3.926 -0.5676 -1.2380  1.4957
  136TYR    HB2  225   4.127   3.507   3.753  1.9024  1.1218  0.5876
  136TYR     CG  226   4.244   3.385   3.890 -0.1650  0.3485 -0.2792
  136TYR    CD1  227   4.351   3.364   3.797  0.1546 -0.3634 -0.0455
  136TYR    HD1  228   4.351   3.397   3.694  1.1861 -0.4420 -0.0893
  136TYR    CE1  229   4.474   3.300   3.831  0.5455 -0.2695 -0.6665
  136TYR    HE1  230   4.556   3.291   3.762 -0.4921 -1.7167 -1.7977
  136TYR     CZ  231   4.489   3.270   3.969 -0.0664 -0.1823  0.3819
  136TYR     OH  232   4.603   3.196   3.993 -0.3398 -0.3498  0.5018
  136TYR     HH  233   4.647   3.180   3.909 -0.5285  1.2160  0.0741
  136TYR    CE2  234   4.388   3.297   4.064  0.5246  0.6068  0.2587
  136TYR    HE2  235   4.406   3.254   4.162 -0.6946  1.2564  0.7884
  136TYR    CD2  236   4.260   3.350   4.027 -0.0352  0.7396 -0.0740
  136TYR    HD2  237   4.181   3.362   4.099  0.6842 -0.2542  0.9104
  136TYR      C  238   3.869   3.480   3.858 -0.4908  0.3065 -0.0835
  136TYR      O  239   3.842   3.526   3.745  0.3275  0.4349 -0.0305
  137GLU      N  240   3.809   3.511   3.972  0.0058  0.1476 -0.3099
  137GLU      H  241   3.855   3.490   4.059  0.1898  0.6682 -0.2779
  137GLU     CA  242   3.702   3.605   3.992 -0.7002 -1.2759 -0.2829
  137GLU     HA  243   3.609   3.566   3.950 -1.6018 -0.5214  0.9636
  137GLU     CB  244   3.673   3.623   4.144  0.5858  0.2627 -0.5684
  137GLU    HB1  245   3.602   3.701   4.171 -0.2197 -0.1892 -1.3268
  137GLU    HB2  246   3.763   3.647   4.201  0.3500 -1.4250  0.5931
  137GLU     CG  247   3.612   3.500   4.208  0.7868  0.0742  0.3582
  137GLU    HG1  248   3.524   3.470   4.152  0.4106  1.2992  0.2699
  137GLU    HG2  249   3.569   3.539   4.301  0.8411  0.0160  0.4080
  137GLU     CD  250   3.713   3.396   4.234 -0.0894  0.3132 -0.4049
  137GLU    OE1  251   3.836   3.426   4.245  0.1795 -0.0316 -0.1311
  137GLU    OE2  252   3.682   3.279   4.249  0.0525 -0.3273 -0.4096
  137GLU      C  253   3.736   3.748   3.939  1.0287 -0.3733  0.7540
  137GLU      O  254   3.856   3.781   3.937  0.1693 -0.0746 -0.5180
  138PRO      N  255   3.636   3.832   3.909 -0.2535  0.6696 -0.4736
  138PRO     CD  256   3.495   3.793   3.890  0.2102  0.0523  0.1138
  138PRO    HD1  257   3.465   3.746   3.984  2.3544 -2.8279 -0.5032
  138PRO    HD2  258   3.477   3.735   3.799  1.1931  1.0349 -0.7356
  138PRO     CG  259   3.407   3.918   3.882  0.0113  0.0464 -0.1156
  138PRO    HG1  260   3.375   3.951   3.981 -3.8094  0.1993 -1.2269
  138PRO    HG2  261   3.311   3.908   3.831 -1.1846  0.1584  2.0095
  138PRO     CB  262   3.512   4.018   3.825 -0.4394 -0.3281 -0.0763
  138PRO    HB1  263   3.524   4.009   3.717 -1.9551  0.7089 -0.3596
  138PRO    HB2  264   3.492   4.123   3.848  1.0422 -0.0766  0.1932
  138PRO     CA  265   3.654   3.974   3.883  0.4151  0.0609  0.7789
  138PRO     HA  266   3.725   3.990   3.802 -0.6304 -1.3398 -0.4764
  138PRO      C  267   3.691   4.052   4.012  0.0801  0.4557 -0.0128
  138PRO      O  268   3.617   4.048   4.111 -0.0309  0.0087  0.2258
  139GLU      N  269   3.812   4.112   4.016 -0.2963  0.0813  0.5631
  139GLU      H  270   3.871   4.106   3.934 -0.0400  0.4095  0.7247
  139GLU     CA  271   3.867   4.196   4.138 -0.3049  0.1697 -0.3372
  139GLU     HA  272   3.882   4.136   4.227  1.1063  1.5749  0.4320
  139GLU     CB  273   4.001   4.266   4.096 -0.1642 -0.0861 -0.4882
  139GLU    HB1  274   4.050   4.316   4.180 -0.4105  0.5318 -0.7030
  139GLU    HB2  275   3.982   4.346   4.024 -1.9272 -0.1423 -0.1148
  139GLU     CG  276   4.103   4.175   4.029 -0.0758  0.3686 -0.4868
  139GLU    HG1  277   4.056   4.126   3.944 -3.1303 -1.9959  2.2912
  139GLU    HG2  278   4.115   4.093   4.100  3.2491  0.8226 -0.3495
  139GLU     CD  279   4.232   4.250   4.002  0.2630 -0.1260 -0.3160
  139GLU    OE1  280   4.291   4.219   3.899 -0.1411 -0.2229  0.3393
  139GLU    OE2  281   4.276   4.341   4.074 -0.1795  0.2593  0.1958
  139GLU      C  282   3.763   4.299   4.185  0.4985  0.0732  0.9955
  139GLU      O  283   3.707   4.369   4.097  0.0425  0.0729  0.1732
  140CALA     N  284   3.732   4.305   4.312 -0.4038 -0.0976  0.5885
  140CALA     H  285   3.780   4.236   4.368  0.5722 -1.5144 -1.8248
  140CALA    CA  286   3.653   4.410   4.370 -0.1424 -0.3455  0.6856
  140CALA    HA  287   3.576   4.427   4.295  0.0467 -1.4305  0.2161
  140CALA    CB  288   3.579   4.362   4.486 -0.0896 -0.0521 -0.5580
  140CALA   HB1  289   3.533   4.451   4.529  2.8462  1.7815 -0.9506
  140CALA   HB2  290   3.632   4.303   4.560  1.1867 -0.9604 -2.1351
  140CALA   HB3  291   3.495   4.299   4.459  0.4057 -1.7307  1.5424
  140CALA     C  292   3.725   4.545   4.383 -0.4065 -0.6348 -0.3977
  140CALA   OC1  293   3.848   4.549   4.403  0.5311  0.4078  0.3136
  140CALA   OC2  294   3.651   4.645   4.356  0.6580 -0.1097  0.4507
  141FAS      C  295   2.699   3.512   3.404 -0.8259 -0.2852 -0.3141
  141FAS     C1  296   2.614   3.446   3.292 -0.3043 -1.1939 -0.3187
  141FAS      N  297   2.593   3.294   3.308  0.6888 -0.4913  0.2945
  141FAS     C2  298   2.493   3.273   3.423 -0.0865 -0.1044  0.1918
  141FAS     C3  299   2.528   3.323   3.572  0.2714  0.1956 -0.3506
  141FAS     N1  300   2.516   3.473   3.572  0.9294  0.0695  0.4341
  141FAS     C4  301   2.635   3.549   3.535  1.0479  0.5020  0.1089
  141FAS      S  302   2.417   3.540   3.684 -0.0167  0.4964 -0.1389
  141FAS      O  303   2.280   3.485   3.658 -0.5101  0.2361  0.0514
  141FAS     O1  304   2.491   3.526   3.808 -0.9101 -0.6585  0.3221
  141FAS     C5  305   2.406   3.714   3.656 -0.6347  0.8033 -0.1712
  141FAS     C6  306   2.474   3.797   3.752 -0.0137  0.3000 -0.2390
  141FAS     C7  307   2.490   3.933   3.731 -0.2632  0.1598 -0.0297
  141FAS     C8  308   2.439   3.994   3.612  0.5919 -0.4808  0.0658
  141FAS     C9  309   2.371   3.912   3.519  0.1734 -0.2010 -0.0628
  141FAS    C10  310   2.355   3.777   3.539  0.1618 -0.8616 -0.5297
  141FAS    C11  311   2.284   3.700   3.447  0.3519  0.2575 -0.2821
  141FAS    C12  312   2.222   3.765   3.338 -0.4463  0.1805  0.4299
  141FAS     N2  313   2.247   3.896   3.301  0.2052  0.3975 -0.1632
  141FAS    C13  314   2.320   3.963   3.398  0.0090 -0.1679 -0.2062
  141FAS      H  315   2.745   3.600   3.357  0.4344  0.3790  2.0121
  141FAS     H1  316   2.782   3.445   3.431 -0.1121  0.4108 -0.7047
  141FAS     H2  317   2.653   3.468   3.192 -1.1879 -1.3522 -0.7078
  141FAS     H3  318   2.513   3.488   3.292 -0.4528 -1.5040  1.3600
  141FAS     H4  319   2.548   3.257   3.223 -0.8439  1.7839  0.0351
  141FAS     H5  320   2.483   3.164   3.428 -0.4785 -0.1558 -1.2660
  141FAS     H6  321   2.394   3.307   3.394 -0.1056 -0.3885 -0.0850
  141FAS     H7  322   2.629   3.289   3.600  0.5607  0.9654 -0.4315
  141FAS     H8  323   2.464   3.271   3.644  1.4665  0.3226  0.8432
  141FAS     H9  324   2.714   3.540   3.611  1.8221  0.0581 -0.7325
  141FAS    H10  325   2.599   3.651   3.521 -3.8845 -1.0411 -0.4721
  141FAS    H11  326   2.523   3.757   3.840 -0.4319 -0.8751 -0.5144
  141FAS    H12  327   2.553   3.996   3.794 -0.1352  2.1755 -2.0216
  141FAS    H13  328   2.457   4.100   3.596 -0.6269 -0.1601  0.6261
  141FAS    H14  329   2.255   3.596   3.460 -0.3275  0.4074 -0.5709
  141FAS    H15  330   2.166   3.705   3.266  0.3079  0.0108 -0.0293
  141FAS    H16  331   2.332   4.070   3.378 -2.6528  0.1246 -0.5752
  141FAS    H17  332   2.683   3.246   3.322  1.4499  0.1960 -1.8092
  142SOL     OW  333   2.405   3.596   0.352 -0.3968  0.1070  0.0621
  142SOL    HW2  334   2.336   3.644   0.306 -0.3864  0.6582  0.6008
  142SOL    HW3  335   2.385   3.610   0.445 -0.7964 -1.5234  0.2378
  142SOL    MW4  336   2.393   3.605   0.358  0.4161  0.4334  0.2618
  143SOL     OW  337   6.139   4.790   2.586 -0.2266 -0.0789 -0.3437
  143SOL    HW2  338   6.179   4.719   2.535 -1.1905 -0.1553 -1.0247
  143SOL    HW3  339   6.114   4.749   2.669 -0.0467 -0.3382 -0.4174
  143SOL    MW4  340   6.141   4.775   2.590 -0.4490 -0.5567 -0.5204
  144SOL     OW  341   2.735   1.681   5.433 -0.5470  0.3475 -0.1351
  144SOL    HW2  342   2.813   1.727   5.463 -0.9070  0.2709  0.9725
  144SOL    HW3  343   2.765   1.627   5.360  0.6678 -0.4423  0.9115
  144SOL    MW4  344   2.749   1.680   5.428  0.3184  0.3282 -0.2736
  145SOL     OW  345   0.255   0.569   1.767  0.1375 -0.2024  0.1913
  145SOL    HW2  346   0.189   0.559   1.836  1.1352  1.9117  1.5948
  145SOL    HW3  347   0.270   0.664   1.763  0.9869 -0.3765 -2.1530
  145SOL    MW4  348   0.248   0.580   1.776 -0.2970 -0.1572 -0.2791
  146SOL     OW  349   3.376   0.049   1.274 -0.1029 -0.2794 -0.0290
  146SOL    HW2  350   3.470   0.034   1.288  0.1016  0.7380 -0.2623
  146SOL    HW3  351   3.335   0.021   1.356  0.6030  1.0343  0.8025
  146SOL    MW4  352   3.383   0.043   1.287  0.0728  0.3073  0.0690
  147SOL     OW  353   2.386   5.856   3.143 -0.1505  0.8242 -0.4535
  147SOL    HW2  354   2.415   5.944   3.169 -3.0685  1.3708  1.3549
  147SOL    HW3  355   2.340   5.823   3.220  1.3069 -2.5866 -0.8876
  147SOL    MW4  356   2.384   5.864   3.157 -0.2696  0.4444 -0.1646
  148SOL     OW  357   4.704   2.332   2.063  0.7893 -0.6533 -0.5429
  148SOL    HW2  358   4.624   2.336   2.011  1.1038  1.1779 -0.9328
  148SOL    HW3  359   4.738   2.244   2.046 -0.4827 -1.0266 -1.3339
  148SOL    MW4  360   4.698   2.321   2.054  0.2347  0.2618  0.2506
  149SOL     OW  361   5.335   0.069   5.799  0.1098 -0.4142 -0.0576
  149SOL    HW2  362   5.257   0.108   5.838  2.0496  0.6590  3.1998
  149SOL    HW3  363   5.362   0.132   5.732 -2.0368 -1.1195 -1.7014
  149SOL    MW4  364   5.328   0.083   5.795  0.4658  0.1355 -0.0533
  150SOL     OW  365   5.105   2.660   0.783 -0.3906  0.8332  0.1585
  150SOL    HW2  366   5.082   2.569   0.801 -0.1693  1.1690  2.3735
  150SOL    HW3  367   5.174   2.654   0.717 -0.8922 -0.5485 -0.2850
  150SOL    MW4  368   5.111   2.647   0.777  0.9223  0.0861  0.0892
  151SOL     OW  369   1.652   0.083   0.602  0.0016 -0.0106  0.0926
  151SOL    HW2  370   1.613   0.070   0.688  0.4742 -0.1991  0.2871
  151SOL    HW3  371   1.605   0.022   0.545  1.7706 -2.2829  0.8765
  151SOL    MW4  372   1.641   0.073   0.606  0.3448 -0.3444  0.1243
  152SOL     OW  373   2.425   5.474   5.708 -0.8793 -0.2069  0.3000
  152SOL    HW2  374   2.453   5.536   5.775  0.4565  0.5873 -0.9181
  152SOL    HW3  375   2.343   5.510   5.675  0.6199  1.8707 -1.4376
  152SOL    MW4  376   2.418   5.487   5.712 -0.0140  0.0172 -0.6270
  153SOL     OW  377   1.752   3.294   0.790 -0.6292 -0.4894 -0.5497
  153SOL    HW2  378   1.803   3.240   0.730 -2.1671  0.4283 -2.7857
  153SOL    HW3  379   1.668   3.308   0.746 -0.6838  2.9144  0.3512
  153SOL    MW4  380   1.748   3.288   0.776  0.2653 -0.2254  0.0216
  154SOL     OW  381   2.760   2.218   3.927  0.2668  0.2859  0.5728
  154SOL    HW2  382   2.707   2.182   3.856  1.7045  0.1471 -0.4638
  154SOL    HW3  383   2.697   2.238   3.996 -1.0517 -0.4360 -0.3836
  154SOL    MW4  384   2.745   2.216   3.927 -0.1525 -0.4300 -0.0348
  155SOL     OW  385   5.648   5.480   3.547 -0.4099  0.3301  0.6912
  155SOL    HW2  386   5.695   5.555   3.583 -0.1879  0.7324 -0.3962
  155SOL    HW3  387   5.717   5.418   3.522 -0.5267  0.3055  0.4283
  155SOL    MW4  388   5.663   5.481   3.549 -0.6434 -0.0279  0.6267
  156SOL     OW  389   0.679   5.327   3.813 -0.1800  0.1718  0.1789
  156SOL    HW2  390   0.729   5.357   3.737 -2.7910 -1.5795 -2.4515
  156SOL    HW3  391   0.626   5.402   3.839  1.3218  1.0311  0.8880
  156SOL    MW4  392   0.679   5.341   3.806 -0.2599  0.3957 -0.2506
  157SOL     OW  393   6.197   2.484   0.230  0.2756 -0.3575  0.2868
  157SOL    HW2  394   6.101   2.481   0.236  0.0433  3.1655  0.7085
  157SOL    HW3  395   6.215   2.528   0.147  1.7194 -3.0696 -0.9557
  157SOL    MW4  396   6.186   2.489   0.220 -0.2390 -0.2183 -0.3347
  158SOL     OW  397   2.984   1.788   4.838  0.1313  0.5599  0.4669
  158SOL    HW2  398   2.948   1.781   4.926  0.6431 -0.7824  0.5849
  158SOL    HW3  399   2.908   1.806   4.782 -0.4242 -0.2018  0.9697
  158SOL    MW4  400   2.969   1.790   4.842 -0.3460  0.3308  0.1293
  159SOL     OW  401   3.914   6.357   2.352 -0.1236  0.4601  0.1724
  159SOL    HW2  402   3.945   6.296   2.285  1.0419  0.6410  0.5055
  159SOL    HW3  403   3.819   6.354   2.347 -0.0738 -0.9101 -0.2411
  159SOL    MW4  404   3.906   6.349   2.343  0.6503  0.3415 -0.6802
  160SOL     OW  405   4.064   0.284   5.977  0.1682  0.0178  0.1510
  160SOL    HW2  406   4.145   0.303   5.930  1.0491 -0.2472  1.4866
  160SOL    HW3  407   4.027   0.370   5.997  0.3085  0.1504 -0.1573
  160SOL    MW4  408   4.069   0.298   5.974  0.1347  0.5793 -0.1745
  161SOL     OW  409   3.946   5.978   3.253  0.3343  0.1461 -0.7012
  161SOL    HW2  410   3.939   6.035   3.177 -2.2542  0.1570 -0.5418
  161SOL    HW3  411   3.949   6.038   3.328 -1.0314  0.1283 -0.6110
  161SOL    MW4  412   3.946   5.993   3.253  0.1960 -1.2623 -0.2688
  162SOL     OW  413   5.001   1.427   1.160  0.1156  0.8297 -0.1451
  162SOL    HW2  414   4.990   1.336   1.185 -0.3655  1.1864  0.9974
  162SOL    HW3  415   5.087   1.431   1.120  0.0828 -0.1458 -0.3315
  162SOL    MW4  416   5.011   1.416   1.158 -0.0760 -0.6985  0.1643
  163SOL     OW  417   1.088   5.258   3.636 -0.0467  0.0888 -0.0520
  163SOL    HW2  418   1.126   5.314   3.568 -0.0964  0.1169 -0.0568
  163SOL    HW3  419   1.139   5.277   3.715  0.7839 -0.7980 -0.3495
  163SOL    MW4  420   1.099   5.268   3.637 -0.5229  0.1258 -0.9318
  164SOL     OW  421   1.296   3.422   6.162 -0.1053 -0.3009 -0.2600
  164SOL    HW2  422   1.248   3.430   6.245 -1.1685 -0.3557 -0.8422
  164SOL    HW3  423   1.258   3.491   6.106  0.3571 -0.4797 -0.8061
  164SOL    MW4  424   1.285   3.432   6.165  0.0588 -0.2211 -0.3265
  165SOL     OW  425   4.754   2.896   1.783 -0.1433  0.0344 -0.5293
  165SOL    HW2  426   4.754   2.801   1.775 -0.8452  0.0821 -1.2395
  165SOL    HW3  427   4.834   2.916   1.831  0.1697 -0.8920 -0.6395
  165SOL    MW4  428   4.765   2.886   1.788  0.3186 -0.1677 -0.1372
  166SOL     OW  429   0.694   5.629   3.014 -0.6782  0.0608 -0.0600
  166SOL    HW2  430   0.652   5.713   2.999 -1.6169 -0.4820 -0.5930
  166SOL    HW3  431   0.644   5.588   3.084 -0.4116 -0.1738 -0.0022
  166SOL    MW4  432   0.682   5.635   3.021  0.3574  0.0061 -0.2334
  167SOL     OW  433   5.440   0.041   1.642 -0.0647  0.1881 -0.5684
  167SOL    HW2  434   5.439   0.095   1.722  0.4383 -0.0945 -0.3690
  167SOL    HW3  435   5.500  -0.030   1.662  0.8309  0.6497 -1.5482
  167SOL    MW4  436   5.447   0.039   1.655  0.3839  0.0749 -0.5280
  168SOL     OW  437   2.654   1.981   1.780  0.1269  0.2926  0.3672
  168SOL    HW2  438   2.592   2.028   1.835 -0.6156  1.8888 -1.7186
  168SOL    HW3  439   2.686   2.046   1.718  1.0392 -1.3815 -1.0273
  168SOL    MW4  440   2.650   1.996   1.779 -0.1028  0.0773  0.4394
  169SOL     OW  441   3.188   2.189   2.293 -0.1355 -0.2842 -0.8414
  169SOL    HW2  442   3.134   2.155   2.364 -0.9293 -0.6210 -1.5858
  169SOL    HW3  443   3.129   2.193   2.218  0.9792 -1.1293 -1.8168
  169SOL    MW4  444   3.174   2.185   2.293 -0.6227 -0.5842 -0.0144
  170SOL     OW  445   2.653   2.665   1.505  0.5534  0.2695  0.1912
  170SOL    HW2  446   2.682   2.698   1.590  1.3280 -0.0012  0.0383
  170SOL    HW3  447   2.561   2.692   1.499  0.2244 -0.4520  1.4850
  170SOL    MW4  448   2.644   2.673   1.516  0.4088  0.2977 -0.1589
  171SOL     OW  449   0.019   4.836   4.945 -0.1724 -0.2671 -0.1243
  171SOL    HW2  450  -0.031   4.794   4.874 -0.2784 -0.4315  0.0477
  171SOL    HW3  451   0.020   4.929   4.921 -1.9876  0.0172  0.6837
  171SOL    MW4  452   0.012   4.843   4.932 -0.5092 -0.9618  0.0782
  172SOL     OW  453   1.490   3.142   5.111  0.5860 -0.3371  0.0744
  172SOL    HW2  454   1.468   3.061   5.158 -0.2348  1.0382  2.1809
  172SOL    HW3  455   1.411   3.162   5.060 -1.0832  1.4405  3.0683
  172SOL    MW4  456   1.476   3.134   5.111 -0.2983 -0.0417 -0.0177
  173SOL     OW  457   4.899   3.645   1.323  0.4409 -0.1665  0.0683
  173SOL    HW2  458   4.914   3.733   1.358  0.6957 -0.9393  1.9783
  173SOL    HW3  459   4.805   3.631   1.332  0.2216  0.2933 -1.2558
  173SOL    MW4  460   4.888   3.655   1.329 -0.0231 -0.0793  0.1856
  174SOL     OW  461   4.483   6.160   2.277 -0.4890  0.4278 -0.0223
  174SOL    HW2  462   4.464   6.071   2.248 -0.8225  1.4916 -3.4629
  174SOL    HW3  463   4.577   6.170   2.266  0.1787 -0.3978  3.5652
  174SOL    MW4  464   4.493   6.150   2.272 -0.4271 -0.4903  0.0614
  175SOL     OW  465   0.317   6.131   2.040  0.2350  0.3263  0.1905
  175SOL    HW2  466   0.284   6.132   2.130  0.2688  2.8140  0.2413
  175SOL    HW3  467   0.410   6.152   2.048  0.1195  1.1363 -0.4312
  175SOL    MW4  468   0.325   6.134   2.053  0.5844 -0.2823 -0.5542
  176SOL     OW  469   3.321   0.742   4.189 -0.1486 -0.0518 -0.2936
  176SOL    HW2  470   3.411   0.721   4.164  0.0668  1.9298 -1.3935
  176SOL    HW3  471   3.272   0.662   4.169  1.3394 -1.1737  0.3233
  176SOL    MW4  472   3.326   0.729   4.183  0.4468  0.2718 -0.3619
  177SOL     OW  473   4.038   0.053   4.626 -0.8472  0.0626 -0.2242
  177SOL    HW2  474   3.978  -0.001   4.676  0.3646 -0.6798  0.4725
  177SOL    HW3  475   4.116  -0.001   4.616 -0.5107  0.7628 -1.6463
  177SOL    MW4  476   4.040   0.039   4.631 -0.0328  0.0748 -0.1488
  178SOL     OW  477   5.888   5.611   4.422 -0.2959  0.0069 -0.2382
  178SOL    HW2  478   5.835   5.591   4.345 -3.1900  0.2660  1.5374
  178SOL    HW3  479   5.879   5.706   4.433  1.1233  0.1613 -0.2611
  178SOL    MW4  480   5.880   5.621   4.414  0.3653 -0.2782 -0.4929
  179SOL     OW  481   2.908   4.724   1.202  0.0927 -0.2658 -0.2344
  179SOL    HW2  482   2.820   4.730   1.238 -0.0626  1.7207 -0.8607
  179SOL    HW3  483   2.952   4.659   1.257 -0.5923  1.5199  2.6129
  179SOL    MW4  484   2.902   4.716   1.214 -0.8909  0.1732  0.5539
  180SOL     OW  485   5.768   3.732   6.245 -0.3236  0.3715  0.0276
  180SOL    HW2  486   5.803   3.811   6.288  0.3860  0.4524 -0.6792
  180SOL    HW3  487   5.723   3.685   6.315  1.3585  0.1737  1.0437
  180SOL    MW4  488   5.767   3.736   6.260  0.6022 -0.0493  0.2982
  181SOL     OW  489   2.667   3.577   5.715  0.3414  0.4037 -0.3738
  181SOL    HW2  490   2.747   3.599   5.668  0.7398  1.2321  0.6284
  181SOL    HW3  491   2.600   3.570   5.648  0.6350  2.7279 -0.9964
  181SOL    MW4  492   2.669   3.579   5.700  0.1100 -0.1378  0.2960
  182SOL     OW  493   2.522   6.283   4.127 -0.4675  0.2350 -0.6941
  182SOL    HW2  494   2.494   6.237   4.206 -0.9472 -0.3778 -1.2125
  182SOL    HW3  495   2.616   6.264   4.120 -0.6307 -0.5584 -0.8246
  182SOL    MW4  496   2.531   6.275   4.137  0.1460 -0.0657  0.2465
  183SOL     OW  497   5.246   2.952   2.440 -0.0290  0.5818 -0.2509
  183SOL    HW2  498   5.259   2.939   2.534 -0.2477  1.4863 -0.0890
  183SOL    HW3  499   5.151   2.967   2.431 -0.2889 -1.1531 -0.8263
  183SOL    MW4  500   5.235   2.952   2.451 -0.0438  0.2409  0.4462
  184SOL     OW  501   4.971   2.799   6.420  0.2120  0.5717  0.1807
  184SOL    HW2  502   4.962   2.865   6.489  2.0305 -0.0049  1.0296
  184SOL    HW3  503   4.902   2.735   6.440 -0.4119  1.2948  0.4020
  184SOL    MW4  504   4.961   2.799   6.432  0.1116  0.1008  0.2082
  185SOL     OW  505   2.663   5.631   0.922 -0.1449  0.5303 -0.3309
  185SOL    HW2  506   2.630   5.713   0.885 -0.4866  1.5929  2.0977
  185SOL    HW3  507   2.650   5.567   0.853 -0.5628  2.3639 -2.0604
  185SOL    MW4  508   2.657   5.634   0.908 -0.2946 -0.2315 -0.1174
  186SOL     OW  509   3.198   5.967   3.812 -0.0858  0.3461  0.0197
  186SOL    HW2  510   3.251   5.908   3.759  0.0545  0.8280 -0.3864
  186SOL    HW3  511   3.160   6.029   3.749  1.1772  1.7841  0.5920
  186SOL    MW4  512   3.200   5.968   3.797 -0.1517  0.4101  0.2128
  187SOL     OW  513   0.668   6.019   0.035  0.3610  0.9480 -0.5210
  187SOL    HW2  514   0.596   6.041   0.095  1.1657  1.8315  0.1530
  187SOL    HW3  515   0.644   6.059  -0.048 -0.1750  0.7663 -0.4605
  187SOL    MW4  516   0.655   6.027   0.032  0.0045 -0.0581 -0.9286
  188SOL     OW  517   4.474   0.104   5.087 -0.1003 -0.8143 -0.1901
  188SOL    HW2  518   4.479   0.010   5.069 -0.5562 -0.7232 -0.8147
  188SOL    HW3  519   4.542   0.142   5.033 -1.7161 -0.4991 -2.0965
  188SOL    MW4  520   4.484   0.096   5.078 -0.4627  0.5676 -0.8682
  189SOL     OW  521   3.293   4.910   4.468  0.0651 -0.5090 -0.1122
  189SOL    HW2  522   3.272   4.925   4.376  0.1789 -2.2507 -0.4564
  189SOL    HW3  523   3.329   4.822   4.471  1.7269  0.1514  1.3622
  189SOL    MW4  524   3.295   4.901   4.456 -0.5884  0.5916  0.2790
  190SOL     OW  525   5.002   0.775   0.074  0.4383  0.0900  0.0377
  190SOL    HW2  526   5.001   0.807   0.164  1.0831  1.6280 -0.4778
  190SOL    HW3  527   4.921   0.808   0.035 -0.1011 -1.0155  0.1769
  190SOL    MW4  528   4.991   0.783   0.080 -1.0081  0.6207  0.5037
  191SOL     OW  529   2.279   1.629   2.570 -0.1607  0.3497 -0.2308
  191SOL    HW2  530   2.327   1.570   2.627  0.2245  0.5625 -0.3288
  191SOL    HW3  531   2.324   1.623   2.486 -0.4504  0.3754 -0.3888
  191SOL    MW4  532   2.291   1.621   2.566 -0.5467  0.3724  0.5327
  192SOL     OW  533   5.130   3.814   5.594  0.4057  0.1005 -0.4079
  192SOL    HW2  534   5.107   3.880   5.659 -0.1692 -0.4105 -0.0846
  192SOL    HW3  535   5.144   3.863   5.513  0.2013  0.6342 -0.1211
  192SOL    MW4  536   5.129   3.829   5.592 -0.4232 -0.0946 -0.9938
  193SOL     OW  537   2.428   3.823   0.046 -0.3703 -0.0609  0.2981
  193SOL    HW2  538   2.501   3.797   0.101  0.6807 -0.1780 -1.0791
  193SOL    HW3  539   2.448   3.784  -0.040 -2.2134 -0.3471 -0.0252
  193SOL    MW4  540   2.441   3.815   0.042  0.0943 -0.5989  0.4548
  194SOL     OW  541   0.893   0.718   5.099 -0.0467 -1.0466 -0.4891
  194SOL    HW2  542   0.974   0.683   5.062  0.6203  0.3979 -0.4817
  194SOL    HW3  543   0.838   0.738   5.023  0.1777 -0.7260 -0.5698
  194SOL    MW4  544   0.897   0.716   5.084 -0.2340  0.0840 -0.3232
  195SOL     OW  545   3.966   3.273   6.170 -0.0203  0.0427  0.0055
  195SOL    HW2  546   3.928   3.271   6.257 -1.3655  0.8600 -0.5280
  195SOL    HW3  547   4.002   3.185   6.156  1.2480  0.2354  1.7991
  195SOL    MW4  548   3.966   3.261   6.179  0.3174 -0.2725  0.3086
  196SOL     OW  549   3.397   4.917   3.585 -0.0686  0.0333  0.1372
  196SOL    HW2  550   3.400   4.847   3.519  1.5404  1.1875 -1.0938
  196SOL    HW3  551   3.423   4.874   3.666 -2.8845 -1.6095  0.3078
  196SOL    MW4  552   3.401   4.902   3.587  0.2891 -0.3586 -0.5117
  197SOL     OW  553   2.988   4.210   2.651  0.5956 -0.1791 -0.5289
  197SOL    HW2  554   3.040   4.201   2.730  0.3937 -1.6843 -0.5413
  197SOL    HW3  555   2.902   4.173   2.674 -0.1141  1.1987 -0.8585
  197SOL    MW4  556   2.983   4.204   2.664  0.4260 -0.2503  0.1330
  198SOL     OW  557   2.989   1.179   5.281 -0.1110  0.9935  0.0368
  198SOL    HW2  558   3.010   1.095   5.240 -1.2318  0.5385  0.3561
  198SOL    HW3  559   3.045   1.181   5.359 -1.0850 -0.1198  0.7951
  198SOL    MW4  560   2.999   1.168   5.286  0.1764  0.7777 -0.3208
  199SOL     OW  561   1.065   4.606   3.948 -0.0840 -0.1337 -0.5670
  199SOL    HW2  562   1.067   4.517   3.982  0.5611 -1.3835 -3.5968
  199SOL    HW3  563   1.147   4.645   3.977 -0.3996 -0.4454  0.8345
  199SOL    MW4  564   1.076   4.600   3.956 -0.3796  0.3670 -0.3196
  200SOL     OW  565   5.303   2.445   1.484  0.8477  0.1602 -0.2000
  200SOL    HW2  566   5.285   2.485   1.569 -2.1643 -0.3314 -0.4686
  200SOL    HW3  567   5.310   2.519   1.424  2.0622  0.4753  0.3118
  200SOL    MW4  568   5.301   2.460   1.487 -0.0597  0.0470  0.2390
  201SOL     OW  569   5.683   4.869   4.156  0.1011  0.5740  0.1499
  201SOL    HW2  570   5.760   4.869   4.211  0.5242  4.1554 -0.2057
  201SOL    HW3  571   5.629   4.797   4.189  2.3243 -0.2688  2.1854
  201SOL    MW4  572   5.686   4.859   4.167  0.5704  0.1119  0.4126
  202SOL     OW  573   0.312   5.362   3.610  0.1596 -0.6585  0.3769
  202SOL    HW2  574   0.272   5.327   3.530  0.5021 -1.2910  0.4750
  202SOL    HW3  575   0.262   5.322   3.681 -0.4139  0.2224  0.4938
  202SOL    MW4  576   0.300   5.352   3.609  0.3829  0.4430 -0.1253
  203SOL     OW  577   2.981   2.733   0.237  0.3657 -0.9271  0.6854
  203SOL    HW2  578   2.887   2.716   0.247  0.4888 -2.0986 -0.0685
  203SOL    HW3  579   2.995   2.738   0.143  0.7237  1.3556  0.7989
  203SOL    MW4  580   2.970   2.732   0.226 -0.1488  0.5595  0.4019
  204SOL     OW  581   6.390   4.096   2.176  0.2051 -0.1372 -0.2531
  204SOL    HW2  582   6.457   4.029   2.177  0.4837  0.1267 -0.8191
  204SOL    HW3  583   6.386   4.125   2.085 -0.7169 -0.1938 -0.2406
  204SOL    MW4  584   6.398   4.091   2.164 -0.9247 -0.3050 -0.5388
  205SOL     OW  585   2.460   5.349   4.974  0.0359  0.0077  0.0035
  205SOL    HW2  586   2.478   5.403   4.897  1.9657  0.3403  0.6367
  205SOL    HW3  587   2.403   5.403   5.029 -0.1390  0.3535 -0.5081
  205SOL    MW4  588   2.455   5.363   4.971 -0.0119  0.0140  0.3903
  206SOL     OW  589   0.451   0.130   0.787 -0.2943 -0.5375  1.0099
  206SOL    HW2  590   0.476   0.038   0.777 -0.0843 -0.5436  1.5802
  206SOL    HW3  591   0.482   0.154   0.874 -1.6460 -0.3454  1.4618
  206SOL    MW4  592   0.458   0.121   0.797 -0.0445 -0.2057 -0.2183
  207SOL     OW  593   1.765   2.609   0.163  0.0806  0.0393 -0.0159
  207SOL    HW2  594   1.698   2.608   0.095  0.7369  2.1335 -0.7824
  207SOL    HW3  595   1.840   2.651   0.121  1.9596 -2.3254  0.7698
  207SOL    MW4  596   1.766   2.615   0.149 -0.7292 -0.3245  0.0263
  208SOL     OW  597   5.704   4.472   4.297  0.0212  0.0683 -0.1884
  208SOL    HW2  598   5.724   4.497   4.207  0.9099 -0.6548 -0.2049
  208SOL    HW3  599   5.627   4.523   4.320  0.5181  1.1798 -0.9405
  208SOL    MW4  600   5.697   4.482   4.288  0.2405  0.3791 -0.4586
  209SOL     OW  601   5.818   1.325   1.677  0.2990  0.2856 -0.2583
  209SOL    HW2  602   5.826   1.377   1.757  1.6062 -0.0963 -0.1100
  209SOL    HW3  603   5.861   1.242   1.698 -2.9235 -1.4740 -0.0149
  209SOL    MW4  604   5.825   1.321   1.690 -0.2951 -0.1341 -0.5497
  210SOL     OW  605   6.160   4.216   4.741  0.5757  0.4724 -0.4461
  210SOL    HW2  606   6.184   4.292   4.687 -0.3980  1.3689  0.3492
  210SOL    HW3  607   6.111   4.253   4.814  0.0352 -0.9417 -0.0680
  210SOL    MW4  608   6.157   4.231   4.743  0.0904 -0.0108 -0.7956
  211SOL     OW  609   2.739   3.369   4.106  0.0538  0.1565  0.2635
  211SOL    HW2  610   2.834   3.385   4.107  0.2795 -0.9021  2.7244
  211SOL    HW3  611   2.715   3.364   4.199 -2.1900 -0.9246 -0.3198
  211SOL    MW4  612   2.749   3.370   4.119 -0.5847 -0.4310 -0.0697
  212SOL     OW  613   1.252   5.988   2.651  0.3186 -0.2738  0.1985
  212SOL    HW2  614   1.336   6.006   2.693  0.1106  1.4848 -0.0541
  212SOL    HW3  615   1.189   5.986   2.722  0.4179 -0.4844  0.2802
  212SOL    MW4  616   1.255   5.990   2.666  0.8873 -0.0715  0.8912
  213SOL     OW  617   6.416   5.789   4.132 -0.1056 -0.1560  0.2101
  213SOL    HW2  618   6.429   5.704   4.091  0.8027  0.9788 -2.0277
  213SOL    HW3  619   6.323   5.789   4.157 -0.7316 -0.9829 -1.8646
  213SOL    MW4  620   6.405   5.778   4.130  0.0039  0.2503  0.5094
  214SOL     OW  621   6.294   3.627   0.243  0.1437 -0.2447 -0.4651
  214SOL    HW2  622   6.350   3.698   0.271 -0.9991  0.9480 -1.0712
  214SOL    HW3  623   6.241   3.605   0.320  1.0366 -1.0133 -0.0483
  214SOL    MW4  624   6.294   3.633   0.257  0.4300  0.2028  0.0395
  215SOL     OW  625   0.143   5.148   6.356 -0.0961 -0.7883  0.1463
  215SOL    HW2  626   0.127   5.175   6.446 -3.1997 -1.3621 -0.1475
  215SOL    HW3  627   0.140   5.230   6.306  0.4043 -0.6203  0.3745
  215SOL    MW4  628   0.141   5.163   6.361  0.2390 -0.4019  0.1786
  216SOL     OW  629   1.176   3.434   6.414 -0.0408  0.1694  0.2069
  216SOL    HW2  630   1.231   3.504   6.450 -0.0922  0.1234  0.3758
  216SOL    HW3  631   1.088   3.471   6.413 -0.0994  0.0388  0.4792
  216SOL    MW4  632   1.172   3.448   6.418 -0.3520  0.1446  0.2876
  217SOL     OW  633   2.546   0.876   2.229  0.0092  0.7988  0.5046
  217SOL    HW2  634   2.469   0.906   2.180  0.5613  0.6116 -0.5222
  217SOL    HW3  635   2.621   0.906   2.176  0.6346  0.4798  1.1835
  217SOL    MW4  636   2.546   0.884   2.215  0.0487 -0.0316 -0.2443
  218SOL     OW  637   4.792   5.711   4.816  0.0501 -0.4056 -0.1097
  218SOL    HW2  638   4.848   5.778   4.856 -0.1626 -0.0014 -0.4837
  218SOL    HW3  639   4.837   5.687   4.735 -1.2676  1.3901 -1.4784
  218SOL    MW4  640   4.805   5.717   4.811  0.3337 -0.1427  0.2454
  219SOL     OW  641   3.000   4.722   2.016 -0.0618 -0.0267 -0.8526
  219SOL    HW2  642   3.072   4.674   2.058  0.9941  0.1084 -2.4336
  219SOL    HW3  643   3.030   4.813   2.014 -0.6146  0.1595 -0.8458
  219SOL    MW4  644   3.013   4.728   2.022  0.2523 -0.8895 -0.1960
  220SOL     OW  645   3.008   2.144   0.909 -0.2121  0.4460  0.0580
  220SOL    HW2  646   3.081   2.118   0.964  0.3884 -0.1200 -0.9880
  220SOL    HW3  647   2.949   2.068   0.909 -1.1886  1.1659  1.4962
  220SOL    MW4  648   3.010   2.130   0.916  0.6037 -0.4399 -0.2722
  221SOL     OW  649   3.548   3.409   1.118 -0.2045  0.0783  0.3396
  221SOL    HW2  650   3.562   3.488   1.171  2.4777 -0.2671  0.2838
  221SOL    HW3  651   3.547   3.338   1.183 -1.7429  0.0323  0.3053
  221SOL    MW4  652   3.549   3.410   1.134 -0.2489  0.2658  0.2866
  222SOL     OW  653   3.202   2.527   0.068 -0.4629  0.4626 -0.2378
  222SOL    HW2  654   3.258   2.477   0.008 -1.4972 -1.3978  0.2896
  222SOL    HW3  655   3.114   2.491   0.054 -0.9901  1.1300  1.2378
  222SOL    MW4  656   3.198   2.516   0.058 -0.2942  0.3269 -0.1397
  223SOL     OW  657   0.084   0.876   5.899 -0.0470 -0.5124 -0.5427
  223SOL    HW2  658   0.128   0.858   5.982 -0.3995  0.1426 -0.2104
  223SOL    HW3  659   0.152   0.916   5.844 -0.3489  1.0116  0.1597
  223SOL    MW4  660   0.099   0.879   5.902 -0.0252  0.0423 -0.1905
  224SOL     OW  661   5.348   1.589   0.301 -0.3064 -0.2568 -0.1347
  224SOL    HW2  662   5.297   1.660   0.341 -0.5306 -1.5759  2.1367
  224SOL    HW3  663   5.285   1.517   0.292  0.0900 -0.4423 -1.7016
  224SOL    MW4  664   5.333   1.589   0.305 -0.7203  0.9114 -0.2487
  225SOL     OW  665   5.948   0.153   3.909 -0.5725  0.0878 -0.0993
  225SOL    HW2  666   5.936   0.108   3.825 -0.8089 -0.2202  0.0994
  225SOL    HW3  667   5.961   0.083   3.972  3.3507  0.3070 -0.3757
  225SOL    MW4  668   5.948   0.138   3.906 -0.0889  0.0701  0.4293
  226SOL     OW  669   4.573   1.455   2.178  0.2331 -0.1917  0.7626
  226SOL    HW2  670   4.541   1.456   2.268  0.3344 -0.9841  0.8143
  226SOL    HW3  671   4.566   1.363   2.151  1.3156 -0.1688  0.3680
  226SOL    MW4  672   4.568   1.443   2.186 -0.1912 -0.0523 -0.2420
  227SOL     OW  673   3.412   6.368   3.059  0.0252 -0.4004  0.0570
  227SOL    HW2  674   3.320   6.357   3.035  0.1234  0.1645 -0.6176
  227SOL    HW3  675   3.455   6.396   2.978  0.7123 -0.2290  0.4684
  227SOL    MW4  676   3.406   6.370   3.045 -0.1303 -0.5432 -0.5731
  228SOL     OW  677   6.192   2.097   5.386 -0.9031  0.8842 -0.1385
  228SOL    HW2  678   6.161   2.030   5.325  3.0206 -1.9944  0.6242
  228SOL    HW3  679   6.241   2.048   5.452  1.6418  4.4485  0.9139
  228SOL    MW4  680   6.194   2.082   5.387 -0.1743 -0.0956  0.0040
  229SOL     OW  681   2.974   6.360   3.739  0.3392  0.0015  0.0533
  229SOL    HW2  682   2.883   6.336   3.722  0.4914  0.3759 -1.4278
  229SOL    HW3  683   3.025   6.286   3.709  0.5219 -0.5030  1.5253
  229SOL    MW4  684   2.969   6.347   3.733  0.0996 -0.5746  0.6991
  230SOL     OW  685   1.215   4.385   5.696 -0.1720  0.9038 -0.2417
  230SOL    HW2  686   1.274   4.324   5.741  0.2447  3.0493  2.2928
  230SOL    HW3  687   1.251   4.391   5.607  0.5186 -1.4704 -0.1970
  230SOL    MW4  688   1.228   4.378   5.690 -0.0674 -0.4385  0.0104
  231SOL     OW  689   1.585   3.836   3.994  0.1916 -0.9192  0.3461
  231SOL    HW2  690   1.677   3.831   3.971  0.0012 -2.5711 -0.1709
  231SOL    HW3  691   1.546   3.758   3.954 -1.2768 -0.6559  1.2029
  231SOL    MW4  692   1.592   3.825   3.986 -0.0948 -0.1034 -0.0857
  232SOL     OW  693   5.139   3.943   1.623 -0.0664  0.4321  0.3357
  232SOL    HW2  694   5.216   3.927   1.568  0.0910  0.9802  0.3942
  232SOL    HW3  695   5.107   3.855   1.646 -0.5421  0.1771 -1.1846
  232SOL    MW4  696   5.145   3.929   1.619 -0.6411  0.3498 -0.3487
  233SOL     OW  697   6.309   4.336   3.180 -0.1127  0.4621 -0.1907
  233SOL    HW2  698   6.309   4.292   3.266  0.7140  0.5955 -0.1126
  233SOL    HW3  699   6.217   4.357   3.165 -0.3054  0.2266  0.5573
  233SOL    MW4  700   6.296   4.333   3.190 -0.0994 -0.0360  0.5011
  234SOL     OW  701   4.229   1.170   1.448  0.4230  0.0457 -0.0672
  234SOL    HW2  702   4.192   1.086   1.475  0.7221 -1.1149 -2.8541
  234SOL    HW3  703   4.163   1.208   1.390  0.4861  1.5668  0.8120
  234SOL    MW4  704   4.215   1.164   1.444  0.4652 -0.2198  0.2367
  235SOL     OW  705   2.271   0.466   6.324  0.0185 -0.2119  0.0128
  235SOL    HW2  706   2.199   0.495   6.380 -0.5870  0.2134 -0.9584
  235SOL    HW3  707   2.238   0.388   6.280  0.8644 -1.1598  0.9738
  235SOL    MW4  708   2.257   0.460   6.326 -0.4334  0.3167 -0.4024
  236SOL     OW  709   3.302   2.356   2.576  0.3552 -0.6302 -0.2672
  236SOL    HW2  710   3.300   2.306   2.657 -2.6914 -1.1256 -0.5515
  236SOL    HW3  711   3.386   2.332   2.536  0.5512 -2.8215  1.2504
  236SOL    MW4  712   3.313   2.346   2.581 -0.2013 -0.3130 -0.0203
  237SOL     OW  713   2.794   4.968   1.642 -0.0638 -0.6672 -0.1185
  237SOL    HW2  714   2.830   4.881   1.655  0.4171 -0.3366  0.8849
  237SOL    HW3  715   2.713   4.954   1.591 -0.5623 -1.7948  0.9411
  237SOL    MW4  716   2.788   4.955   1.637  0.0706  0.0374 -0.4118
  238SOL     OW  717   1.913   0.542   2.472  0.3750 -0.4768 -0.0315
  238SOL    HW2  718   1.898   0.636   2.480  1.0087 -0.4099  0.3967
  238SOL    HW3  719   1.999   0.534   2.432 -0.1141 -0.8735 -1.0400
  238SOL    MW4  720   1.923   0.553   2.468  1.4919  0.0510  0.2646
  239SOL     OW  721   6.303   0.744   4.374 -0.2191  0.0491  0.2176
  239SOL    HW2  722   6.355   0.806   4.323  0.8549  0.3828  1.6274
  239SOL    HW3  723   6.349   0.660   4.364 -1.1167 -0.3340 -0.8985
  239SOL    MW4  724   6.316   0.741   4.366 -0.6258  0.1249 -0.1468
  240SOL     OW  725   5.712   1.656   2.240  0.1734 -0.1152 -0.0538
  240SOL    HW2  726   5.807   1.653   2.255  0.0431  0.4750  0.9963
  240SOL    HW3  727   5.696   1.743   2.204  0.1564 -0.6282 -1.3455
  240SOL    MW4  728   5.722   1.667   2.237  0.7043 -0.8612 -0.0496
  241SOL     OW  729   2.692   3.278   2.791  0.4707 -0.6430 -0.3711
  241SOL    HW2  730   2.727   3.281   2.880  0.7289  1.6600 -0.4878
  241SOL    HW3  731   2.758   3.322   2.738 -0.2702 -0.8330 -1.4750
  241SOL    MW4  732   2.706   3.284   2.796 -0.0805  0.4706 -0.2455
  242SOL     OW  733   4.645   2.667   4.326  0.7518 -0.1839 -0.1182
  242SOL    HW2  734   4.563   2.713   4.347  0.0892 -0.7037 -1.4521
  242SOL    HW3  735   4.648   2.596   4.390  0.3747  0.0954  0.2188
  242SOL    MW4  736   4.634   2.663   4.337 -0.6490  0.0462 -0.5576
  243SOL     OW  737   5.737   6.159   0.645  0.4205 -0.2784 -0.4847
  243SOL    HW2  738   5.829   6.175   0.625  0.6635 -0.3315  0.5310
  243SOL    HW3  739   5.694   6.242   0.626  0.8692  0.0969  0.1036
  243SOL    MW4  740   5.743   6.172   0.640 -0.3529  0.2252  0.1625
  244SOL     OW  741   5.982   2.088   0.391  0.1266  0.0955 -0.6408
  244SOL    HW2  742   6.008   2.128   0.474  1.6984 -0.3023 -0.8959
  244SOL    HW3  743   6.036   2.132   0.326  0.1790 -0.7937 -1.2182
  244SOL    MW4  744   5.993   2.099   0.394  0.1750 -0.5865 -0.9253
  245SOL     OW  745   4.552   2.185   4.077 -0.5829 -0.8229 -0.1317
  245SOL    HW2  746   4.551   2.281   4.087 -1.6639 -0.6233 -1.7688
  245SOL    HW3  747   4.520   2.152   4.161  0.2495  0.2149  0.6244
  245SOL    MW4  748   4.548   2.194   4.089 -0.0033 -0.0831  0.4847
  246SOL     OW  749   1.524   2.143   2.187 -0.2371  0.1812 -0.0059
  246SOL    HW2  750   1.506   2.233   2.161  1.0395  0.8132  1.1992
  246SOL    HW3  751   1.456   2.123   2.252 -0.1400  0.5000  0.1953
  246SOL    MW4  752   1.512   2.152   2.192  0.3633  0.0696 -0.4599
  247SOL     OW  753   4.155   2.319   4.487 -0.1799  0.0328 -0.4988
  247SOL    HW2  754   4.130   2.340   4.577 -1.1922 -0.5294 -0.6256
  247SOL    HW3  755   4.214   2.389   4.460 -1.8151  1.5799 -0.2259
  247SOL    MW4  756   4.159   2.331   4.495 -0.1706  0.6116 -0.5993
  248SOL     OW  757   3.587   0.847   6.129 -0.2519 -0.2872 -0.2386
  248SOL    HW2  758   3.630   0.900   6.061  0.4059 -0.0209  0.3774
  248SOL    HW3  759   3.593   0.757   6.096  2.3829 -0.5053  0.6168
  248SOL    MW4  760   3.593   0.842   6.116 -0.1378 -0.2139 -0.2876
  249SOL     OW  761   0.734   3.143   3.723 -0.0511 -0.2492  0.1798
  249SOL    HW2  762   0.651   3.103   3.696  0.2769 -0.5087 -0.4742
  249SOL    HW3  763   0.752   3.105   3.809  0.2905 -1.6016 -0.4523
  249SOL    MW4  764   0.725   3.132   3.731  0.5327  0.1639  0.4254
  250SOL     OW  765   1.125   6.220   2.247  0.3560  0.3864 -0.0035
  250SOL    HW2  766   1.201   6.248   2.197 -0.4285  1.8315 -0.4512
  250SOL    HW3  767   1.156   6.146   2.299  1.7895  0.3172 -0.9094
  250SOL    MW4  768   1.139   6.214   2.248 -0.1381  0.1314 -0.2198
  251SOL     OW  769   2.970   5.909   0.701  0.7029 -0.2244 -0.5173
  251SOL    HW2  770   3.001   5.990   0.742 -0.4228 -0.7805  1.5519
  251SOL    HW3  771   2.887   5.932   0.661  0.4078 -0.3247  0.0271
  251SOL    MW4  772   2.963   5.923   0.701  0.2930  0.0079 -0.4156
  252SOL     OW  773   2.280   2.258   2.247 -0.2670 -0.5130 -0.0457
  252SOL    HW2  774   2.375   2.245   2.250  0.0238  1.4649  0.3429
  252SOL    HW3  775   2.261   2.272   2.154 -0.0247  0.0842 -0.0073
  252SOL    MW4  776   2.290   2.258   2.235 -0.1458 -0.2187 -0.8828
  253SOL     OW  777   5.826   5.607   3.083 -0.1170  0.2068 -0.5640
  253SOL    HW2  778   5.774   5.629   3.160 -0.7996  0.6181 -1.1223
  253SOL    HW3  779   5.871   5.526   3.106  1.7439  1.6567  1.2037
  253SOL    MW4  780   5.825   5.599   3.096  0.2540 -0.2719 -0.1742
  254SOL     OW  781   1.376   0.671   4.957 -0.3149 -0.3421  0.2197
  254SOL    HW2  782   1.459   0.625   4.968 -0.1004  0.0538  0.3008
  254SOL    HW3  783   1.382   0.745   5.018 -1.2313 -0.9954  1.1127
  254SOL    MW4  784   1.388   0.675   4.966 -0.3362 -0.8243 -0.0181
  255SOL     OW  785   3.150   2.293   0.240 -0.5738 -0.0014 -0.1741
  255SOL    HW2  786   3.060   2.271   0.263 -0.7845 -0.0446 -1.0216
  255SOL    HW3  787   3.201   2.267   0.317 -1.2954  0.1568  0.3727
  255SOL    MW4  788   3.145   2.287   0.253  0.8758  0.2116 -0.3052
  256SOL     OW  789   0.311   0.718   2.104  0.4406 -0.4351 -0.7303
  256SOL    HW2  790   0.259   0.637   2.105  1.8069 -1.3532 -0.2073
  256SOL    HW3  791   0.385   0.697   2.047 -0.6258  1.4706 -2.9884
  256SOL    MW4  792   0.314   0.704   2.096 -0.5922 -0.5190 -0.3105
  257SOL     OW  793   0.862   2.349   5.070 -0.0430 -0.8262  0.3323
  257SOL    HW2  794   0.851   2.420   5.134 -0.0886 -0.3217 -0.2303
  257SOL    HW3  795   0.943   2.371   5.024 -0.5719 -0.6106 -0.5100
  257SOL    MW4  796   0.871   2.361   5.073 -0.3009 -0.2592 -0.7073
  258SOL     OW  797   0.071   1.178   1.788  0.0882  0.0479  0.2114
  258SOL    HW2  798   0.078   1.149   1.879  0.0697  1.6052  0.7263
  258SOL    HW3  799  -0.018   1.152   1.761  0.8582 -2.4959 -0.1577
  258SOL    MW4  800   0.060   1.171   1.796  0.2399 -0.4035  0.1173
  259SOL     OW  801   3.667   3.318   3.344  0.1192  0.5036 -0.4952
  259SOL    HW2  802   3.628   3.328   3.431 -0.9209 -1.0853 -0.7361
  259SOL    HW3  803   3.761   3.311   3.361 -0.0688  0.1829  0.5208
  259SOL    MW4  804   3.675   3.318   3.358 -0.1757  0.0064 -0.0002
  260SOL     OW  805   5.523   2.291   6.359 -0.3622  0.2082 -0.0719
  260SOL    HW2  806   5.429   2.274   6.365 -0.3512  0.5049  1.1412
  260SOL    HW3  807   5.563   2.205   6.356 -0.7146  0.0772 -1.5969
  260SOL    MW4  808   5.516   2.278   6.359  0.2886  0.2159 -0.2536
  261SOL     OW  809   5.241   2.644   5.955 -0.1781  0.0355 -0.4738
  261SOL    HW2  810   5.331   2.620   5.935 -0.8388 -1.1490 -2.2836
  261SOL    HW3  811   5.211   2.692   5.878 -0.6318  1.8711  0.7899
  261SOL    MW4  812   5.249   2.647   5.942  0.1277  0.3586  0.7400
  262SOL     OW  813   3.050   0.577   0.789 -0.7207  0.2569 -0.0719
  262SOL    HW2  814   3.094   0.523   0.855 -0.5481 -0.1395 -0.5034
  262SOL    HW3  815   3.122   0.616   0.739 -0.7705  2.3123  1.3110
  262SOL    MW4  816   3.065   0.575   0.791  0.1593 -0.0683 -0.2568
  263SOL     OW  817   0.718   1.084   4.685  0.1366  0.2100  0.1141
  263SOL    HW2  818   0.720   1.085   4.781  0.0979  0.6386  0.1112
  263SOL    HW3  819   0.643   1.138   4.661 -0.7640 -1.1125 -0.1409
  263SOL    MW4  820   0.709   1.091   4.695 -0.2266 -0.4168  0.3027
  264SOL     OW  821   2.228   1.427   5.747 -0.5432 -0.1471  0.6227
  264SOL    HW2  822   2.233   1.461   5.836  0.6022  0.5055  0.3344
  264SOL    HW3  823   2.185   1.342   5.756  0.0171 -0.3285  1.8709
  264SOL    MW4  824   2.223   1.420   5.760 -0.7598 -0.1408  0.3262
  265SOL     OW  825   5.320   4.383   4.517  0.3711  0.4705  0.0384
  265SOL    HW2  826   5.297   4.352   4.429 -0.0029 -0.2808  0.3878
  265SOL    HW3  827   5.378   4.314   4.551 -0.7079 -0.0176  0.9427
  265SOL    MW4  828   5.325   4.370   4.510  0.2120 -0.9360 -0.0962
  266SOL     OW  829   4.715   0.579   5.699  0.4382  0.1819 -0.3283
  266SOL    HW2  830   4.746   0.622   5.620 -1.6453  0.0884 -1.2865
  266SOL    HW3  831   4.707   0.486   5.674  0.1882  0.0804  0.1125
  266SOL    MW4  832   4.718   0.572   5.685 -0.3318 -0.0063  0.1764
  267SOL     OW  833   2.626   2.351   1.337  0.7647 -0.0734 -0.4077
  267SOL    HW2  834   2.606   2.257   1.340  0.3610  0.0251  0.1638
  267SOL    HW3  835   2.716   2.358   1.370  0.5115 -0.1877  0.3297
  267SOL    MW4  836   2.635   2.340   1.342  0.4706 -0.5795 -0.0733
  268SOL     OW  837   1.344   5.775   6.324  0.2048  0.5022 -0.2784
  268SOL    HW2  838   1.376   5.814   6.406 -0.8623  0.8930 -0.0324
  268SOL    HW3  839   1.394   5.819   6.256  0.1524  1.1705  0.0954
  268SOL    MW4  840   1.355   5.786   6.326  0.3883  0.4624  0.0882
  269SOL     OW  841   2.592   3.075   5.766 -0.2833 -0.5523  0.7535
  269SOL    HW2  842   2.658   3.041   5.707 -1.4291  0.3529 -1.1651
  269SOL    HW3  843   2.559   2.998   5.813 -0.4023 -1.5936 -0.9384
  269SOL    MW4  844   2.596   3.060   5.764  0.2490  0.0877 -0.6858
  270SOL     OW  845   3.607   4.112   2.456  1.0493  0.4864  0.4618
  270SOL    HW2  846   3.589   4.195   2.410  1.1095 -0.0726 -0.6063
  270SOL    HW3  847   3.697   4.091   2.432  0.2613 -1.1304 -1.3324
  270SOL    MW4  848   3.616   4.120   2.447  0.1579 -0.0405 -0.0391
  271SOL     OW  849   3.944   2.745   1.517 -0.6389 -0.1408  0.9946
  271SOL    HW2  850   3.862   2.745   1.566 -0.5179  0.4324  1.2035
  271SOL    HW3  851   3.921   2.785   1.433 -0.6999 -0.5078  0.8371
  271SOL    MW4  852   3.930   2.751   1.512  0.4276  0.1120 -0.2947
  272SOL     OW  853   3.650   3.414   2.107  0.0968 -0.5031 -0.3784
  272SOL    HW2  854   3.663   3.476   2.035  2.1128 -0.6609 -0.2049
  272SOL    HW3  855   3.612   3.467   2.177 -0.7001 -0.0695 -1.1115
  272SOL    MW4  856   3.647   3.429   2.107 -0.0189 -0.2645  0.2828
  273SOL     OW  857   4.109   3.083   1.499  0.2119  0.4709 -0.0262
  273SOL    HW2  858   4.166   3.145   1.544  0.1987  0.8690 -0.5453
  273SOL    HW3  859   4.110   3.111   1.408 -0.3140  0.1007 -0.1541
  273SOL    MW4  860   4.117   3.095   1.493  0.2929 -0.3062  0.5351
  274SOL     OW  861   1.038   3.478   1.228  0.3717  0.4720 -0.4401
  274SOL    HW2  862   0.994   3.402   1.266 -0.5435  1.0158 -0.3859
  274SOL    HW3  863   1.125   3.478   1.269 -0.2574  0.4969  0.9563
  274SOL    MW4  864   1.044   3.468   1.239  0.2473 -0.3507  0.6917
  275SOL     OW  865   0.867   6.270   4.479 -0.2133 -0.1470  0.4466
  275SOL    HW2  866   0.870   6.361   4.449  0.6751  0.0440  1.0822
  275SOL    HW3  867   0.808   6.227   4.417  0.5028  0.5305 -0.7440
  275SOL    MW4  868   0.859   6.277   4.467  0.3516 -0.5757  1.2566
  276SOL     OW  869   4.781   4.383   5.165  0.4194 -0.5019 -0.5268
  276SOL    HW2  870   4.730   4.449   5.118  0.0619  0.3424  0.9712
  276SOL    HW3  871   4.872   4.402   5.142  0.4034  1.1178  0.5319
  276SOL    MW4  872   4.786   4.395   5.156 -0.0898  0.0589  0.4877
  277SOL     OW  873   4.353   3.068   1.897 -0.9618  0.1982 -0.2594
  277SOL    HW2  874   4.422   3.002   1.908 -1.0316 -0.4794 -3.2050
  277SOL    HW3  875   4.272   3.017   1.886 -1.3273  0.8541 -0.6652
  277SOL    MW4  876   4.351   3.053   1.897 -0.1080 -0.4207 -0.2217
  278SOL     OW  877   2.880   2.366   4.229 -0.2496 -0.4603  0.0591
  278SOL    HW2  878   2.963   2.328   4.260 -0.0698  0.4185  0.6941
  278SOL    HW3  879   2.897   2.460   4.226 -1.3953 -0.2149  0.7552
  278SOL    MW4  880   2.893   2.373   4.233 -0.3321 -0.7949  0.6434
  279SOL     OW  881   6.376   3.414   3.858  0.2936  0.4700  1.0639
  279SOL    HW2  882   6.408   3.468   3.785  1.3453  0.7557  1.7180
  279SOL    HW3  883   6.281   3.418   3.850  0.3464  2.1543  0.8707
  279SOL    MW4  884   6.368   3.422   3.848 -0.0393 -0.6177  0.6456
  280SOL     OW  885   2.163   3.769   4.253  0.0473  0.4810 -0.2478
  280SOL    HW2  886   2.243   3.752   4.304 -0.3150  2.7409  1.2331
  280SOL    HW3  887   2.118   3.685   4.250  0.3596  0.0613  2.8398
  280SOL    MW4  888   2.168   3.756   4.260  0.6617  0.3240 -0.3996
  281SOL     OW  889   3.895   0.870   5.282 -0.2208  0.5468  0.1634
  281SOL    HW2  890   3.971   0.898   5.230 -0.4861  1.0603  0.0504
  281SOL    HW3  891   3.862   0.950   5.321  0.0609  0.1464  1.2491
  281SOL    MW4  892   3.901   0.884   5.280 -0.1623  0.2774 -0.3550
  282SOL     OW  893   0.446   1.561   5.467  0.3971  0.4103  0.0056
  282SOL    HW2  894   0.417   1.549   5.557  1.4446 -2.3620  0.0962
  282SOL    HW3  895   0.374   1.525   5.414  1.3407 -1.6113 -0.0051
  282SOL    MW4  896   0.432   1.554   5.472  0.2293 -0.0192 -0.0430
  283SOL     OW  897   2.041   0.948   1.514 -0.2386 -0.4282 -0.6002
  283SOL    HW2  898   2.003   1.032   1.539 -0.3038 -0.6809  0.1942
  283SOL    HW3  899   2.130   0.968   1.486 -0.4535 -0.0217 -0.9898
  283SOL    MW4  900   2.047   0.962   1.514  0.0923 -0.3472  0.5387
  284SOL     OW  901   0.451   1.227   4.631 -0.6015  0.0217  0.3913
  284SOL    HW2  902   0.360   1.249   4.616 -0.1853  1.9249  0.3767
  284SOL    HW3  903   0.488   1.306   4.672  0.9592 -0.8093  0.6464
  284SOL    MW4  904   0.444   1.240   4.635 -0.1414  0.4791 -0.7019
  285SOL     OW  905   1.693   3.359   3.971 -0.2213  0.0051 -0.5407
  285SOL    HW2  906   1.764   3.389   3.914 -2.3369  1.0373 -2.8159
  285SOL    HW3  907   1.693   3.264   3.961 -1.3613  0.2073 -3.5056
  285SOL    MW4  908   1.703   3.351   3.962 -0.0727  0.0992  0.4121
  286SOL     OW  909   4.499   1.488   4.830 -0.4537 -0.1024 -0.1595
  286SOL    HW2  910   4.527   1.480   4.738 -0.2138  0.2513 -0.1170
  286SOL    HW3  911   4.559   1.551   4.868 -0.9276  0.2069  0.0902
  286SOL    MW4  912   4.510   1.495   4.823  0.3212 -0.5376 -0.0387
  287SOL     OW  913   2.951   0.461   3.750  0.3167 -0.0111  0.6769
  287SOL    HW2  914   3.017   0.496   3.811  2.2158 -0.8151 -0.8283
  287SOL    HW3  915   2.908   0.539   3.715  1.0603  0.5835  1.0457
  287SOL    MW4  916   2.954   0.476   3.754  0.3605 -0.2785  0.5248
  288SOL     OW  917   1.194   2.699   0.894  0.5881 -0.0151 -0.7102
  288SOL    HW2  918   1.244   2.619   0.877  0.2788 -0.5144  0.6225
  288SOL    HW3  919   1.207   2.716   0.987 -3.3742 -1.3705  0.2845
  288SOL    MW4  920   1.203   2.691   0.904  0.3456 -0.3478  0.1894
  289SOL     OW  921   3.390   2.414   2.246 -0.2925 -0.0833  0.7203
  289SOL    HW2  922   3.297   2.394   2.261 -0.4602  1.3200  1.7549
  289SOL    HW3  923   3.399   2.505   2.272  1.1752  0.1152 -0.3975
  289SOL    MW4  924   3.379   2.423   2.252 -0.3393 -0.0643  0.0748
  290SOL     OW  925   3.511   5.474   0.294 -0.1122 -0.0783 -0.8647
  290SOL    HW2  926   3.457   5.527   0.352  0.7151 -1.2165  1.0402
  290SOL    HW3  927   3.599   5.481   0.330  0.4803 -0.6522 -2.1383
  290SOL    MW4  928   3.515   5.482   0.306  0.0236  0.3669 -0.1044
  291SOL     OW  929   0.035   1.353   2.551  0.5656 -0.4805 -0.1598
  291SOL    HW2  930  -0.056   1.377   2.532 -0.6654 -4.4022 -0.1443
  291SOL    HW3  931   0.084   1.381   2.474 -0.8991  0.4515 -0.7904
  291SOL    MW4  932   0.029   1.360   2.538 -0.0669 -0.1617 -0.0618
  292SOL     OW  933   0.960   0.795   4.680  0.2451 -0.1235 -0.4439
  292SOL    HW2  934   0.923   0.810   4.593 -0.3610 -0.4602 -0.2514
  292SOL    HW3  935   1.053   0.818   4.671  0.2823 -0.5578 -1.2831
  292SOL    MW4  936   0.967   0.800   4.667 -0.1541 -0.3963  0.0457
  293SOL     OW  937   0.230   5.232   5.034  0.1515  0.2067  0.0967
  293SOL    HW2  938   0.316   5.265   5.010  0.5862 -1.4859 -0.8094
  293SOL    HW3  939   0.244   5.189   5.119 -0.0097  0.7542  0.4011
  293SOL    MW4  940   0.243   5.230   5.042  0.3419 -0.0668 -0.7512
  294SOL     OW  941   3.919   1.473   5.626 -0.2402 -0.0742 -0.0801
  294SOL    HW2  942   3.849   1.461   5.563 -2.8312 -1.1764  2.7627
  294SOL    HW3  943   3.935   1.386   5.662  1.7358  0.3727  0.2874
  294SOL    MW4  944   3.912   1.460   5.623  0.1368  0.3049 -0.2961
  295SOL     OW  945   3.240   0.430   6.018  0.5706  0.3600  0.1607
  295SOL    HW2  946   3.248   0.519   5.981 -2.8280  0.8958  0.3946
  295SOL    HW3  947   3.249   0.372   5.942  2.7330  0.8178 -0.0100
  295SOL    MW4  948   3.243   0.434   6.003  0.5589  0.5476  0.6733
  296SOL     OW  949   3.488   1.075   5.731 -0.0671  0.4607 -0.2912
  296SOL    HW2  950   3.565   1.070   5.787 -0.3526 -1.3283 -0.0173
  296SOL    HW3  951   3.414   1.055   5.789 -0.5296  0.1754 -0.9599
  296SOL    MW4  952   3.488   1.072   5.746 -0.4885  0.0792  0.3831
  297SOL     OW  953   2.297   2.660   0.180  0.5220 -0.1217 -0.5033
  297SOL    HW2  954   2.279   2.566   0.188 -1.7851  0.3526  0.7719
  297SOL    HW3  955   2.327   2.671   0.090  0.0003 -1.9558 -0.9559
  297SOL    MW4  956   2.299   2.649   0.169  0.0265 -0.1676 -0.0543
  298SOL     OW  957   1.928   5.586   1.645  0.1739  0.3500  0.4910
  298SOL    HW2  958   1.899   5.654   1.583  0.6302  1.4757  1.4832
  298SOL    HW3  959   1.968   5.634   1.717  1.3294 -1.0240  0.8102
  298SOL    MW4  960   1.930   5.601   1.646 -0.5541 -0.3761  0.4924
  299SOL     OW  961   3.927   2.581   5.687  0.1515  0.2011  0.3470
  299SOL    HW2  962   3.902   2.603   5.776  0.7086  1.2616  0.2563
  299SOL    HW3  963   3.965   2.493   5.693  0.2170  0.2807  1.1532
  299SOL    MW4  964   3.929   2.572   5.699  0.4330  0.8451  0.1124
  300SOL     OW  965   2.397   5.797   5.748  0.1493  0.7589  0.4372
  300SOL    HW2  966   2.358   5.885   5.743 -0.9058  0.5137  3.0015
  300SOL    HW3  967   2.435   5.793   5.836  2.8103 -0.3615 -0.6824
  300SOL    MW4  968   2.397   5.808   5.759 -0.0181 -0.2773 -0.4980
  301SOL     OW  969   2.933   3.065   2.925  0.2673  0.0123  0.2258
  301SOL    HW2  970   2.985   3.065   2.845 -0.3315  0.0057 -0.1772
  301SOL    HW3  971   2.989   3.104   2.991  1.2724 -1.2443  0.1433
  301SOL    MW4  972   2.947   3.070   2.923 -0.3485  0.1493  0.3262
  302SOL     OW  973   1.513   5.469   1.046 -0.0556  0.0512 -0.0245
  302SOL    HW2  974   1.489   5.452   1.137  0.9651 -1.3090  0.0324
  302SOL    HW3  975   1.451   5.535   1.017 -0.3896  0.5448  1.6643
  302SOL    MW4  976   1.502   5.475   1.054 -0.1048  0.0144 -0.5999
  303SOL     OW  977   6.046   0.416   3.890  0.3099  0.2112  0.2996
  303SOL    HW2  978   6.014   0.331   3.923  2.4589 -1.0569 -0.6812
  303SOL    HW3  979   5.970   0.474   3.896 -1.4273 -1.9455  0.4048
  303SOL    MW4  980   6.032   0.412   3.895  0.2960  0.4335 -0.1519
  304SOL     OW  981   2.102   0.870   3.669  0.4905 -0.1859 -0.0031
  304SOL    HW2  982   2.144   0.820   3.599 -0.1060  0.3980 -0.7944
  304SOL    HW3  983   2.054   0.805   3.720  1.2125 -0.6664  0.0805
  304SOL    MW4  984   2.102   0.855   3.666 -0.1402  0.6080 -0.0480
  305SOL     OW  985   1.497   2.150   5.265 -0.5356 -0.0864 -0.1035
  305SOL    HW2  986   1.443   2.091   5.212 -1.7200  1.3514 -0.5664
  305SOL    HW3  987   1.465   2.138   5.355  0.0149 -0.9631 -0.0137
  305SOL    MW4  988   1.485   2.140   5.270  0.3114 -0.1841 -0.2484
  306SOL     OW  989   3.965   1.139   5.636  0.1735 -0.7830 -0.5108
  306SOL    HW2  990   4.040   1.105   5.589  0.9930  0.1636  0.0764
  306SOL    HW3  991   3.970   1.100   5.723  1.0810  0.7019  0.1444
  306SOL    MW4  992   3.975   1.129   5.641 -0.0856 -0.0241  0.3637
  307SOL     OW  993   1.559   5.108   5.892 -0.1703 -0.1295  0.1795
  307SOL    HW2  994   1.485   5.140   5.944 -1.2684 -0.7027 -0.9809
  307SOL    HW3  995   1.519   5.051   5.826  1.4366 -1.5081  0.3343
  307SOL    MW4  996   1.544   5.104   5.890  0.5252  0.0991 -0.4515
  308SOL     OW  997   6.005   1.738   1.033  0.0175 -0.0514 -0.3749
  308SOL    HW2  998   6.056   1.728   1.113  0.3327  0.2539 -0.5324
  308SOL    HW3  999   5.980   1.649   1.009  0.7994 -0.2399 -0.5011
  308SOL    MW4 1000   6.008   1.725   1.040 -0.0642 -0.1608 -0.5965
  309SOL     OW 1001   2.076   6.139   4.074 -0.5130 -0.0517  0.4491
  309SOL    HW2 1002   2.061   6.089   4.154 -1.1729  0.3381  0.5761
  309SOL    HW3 1003   2.035   6.224   4.091 -0.6230  0.0441 -0.2893
  309SOL    MW4 1004   2.069   6.143   4.087 -0.6572 -0.3152  0.2913
  310SOL     OW 1005   1.576   2.693   4.814  0.1066  0.0903  0.5009
  310SOL    HW2 1006   1.637   2.761   4.784  0.1345 -0.9380 -2.0192
  310SOL    HW3 1007   1.628   2.637   4.870  0.7836  0.6739  0.4762
  310SOL    MW4 1008   1.591   2.695   4.817  0.0517 -0.2139 -0.1727
  311SOL     OW 1009   4.788   4.142   0.154  0.1443  0.4179 -0.1500
  311SOL    HW2 1010   4.724   4.210   0.176  0.3824  0.4378  0.4978
  311SOL    HW3 1011   4.865   4.163   0.208 -0.2706 -1.1645  1.1058
  311SOL    MW4 1012   4.790   4.154   0.164 -0.4437  0.7049 -0.2680
  312SOL     OW 1013   0.705   1.768   2.784  0.3846  0.1725  0.0795
  312SOL    HW2 1014   0.692   1.726   2.699 -2.5889  0.2092  0.4235
  312SOL    HW3 1015   0.703   1.696   2.847  1.4286  0.2592  0.2234
  312SOL    MW4 1016   0.703   1.753   2.781 -0.2312 -0.0979  0.6834
  313SOL     OW 1017   0.758   1.353   4.296 -0.4468  0.1044 -0.0526
  313SOL    HW2 1018   0.760   1.258   4.286  3.1558 -0.0359  0.6124
  313SOL    HW3 1019   0.789   1.387   4.212  0.2741  0.5419  0.3748
  313SOL    MW4 1020   0.763   1.345   4.284  0.2063 -0.2500 -0.5742
  314SOL     OW 1021   3.319   4.606   2.960  0.5918 -0.0215 -0.1367
  314SOL    HW2 1022   3.238   4.633   3.003 -0.3911 -0.7611 -1.4358
  314SOL    HW3 1023   3.367   4.557   3.027 -0.3426 -0.1278  0.4662
  314SOL    MW4 1024   3.315   4.603   2.974 -0.0758 -0.4747  0.3355
  315SOL     OW 1025   5.287   2.885   4.383 -0.4682 -0.7633 -0.1953
  315SOL    HW2 1026   5.277   2.794   4.412 -0.4718 -0.8775 -0.5578
  315SOL    HW3 1027   5.224   2.895   4.312 -1.1720 -0.1856  0.4906
  315SOL    MW4 1028   5.278   2.874   4.377  0.0858 -0.6772 -0.1525
  316SOL     OW 1029   0.123   4.918   1.133  0.2749 -0.1087  0.7944
  316SOL    HW2 1030   0.182   4.927   1.208  1.1978 -0.5484  0.1310
  316SOL    HW3 1031   0.078   5.003   1.128  1.7828  0.7080  0.5367
  316SOL    MW4 1032   0.125   4.930   1.143  0.0115  0.0436 -0.3758
  317SOL     OW 1033   4.362   2.636   1.936  0.1090  0.4915  0.0619
  317SOL    HW2 1034   4.276   2.630   1.895 -1.2644 -0.5456  2.8540
  317SOL    HW3 1035   4.402   2.551   1.918 -0.2622  0.2386  0.4229
  317SOL    MW4 1036   4.356   2.624   1.928 -0.1347 -0.1318 -0.4510
  318SOL     OW 1037   6.303   3.924   1.103  0.3146 -0.0664  0.0403
  318SOL    HW2 1038   6.275   3.973   1.180 -0.6171  0.3899 -0.5786
  318SOL    HW3 1039   6.239   3.853   1.095 -1.4683  1.6447 -2.0509
  318SOL    MW4 1040   6.291   3.921   1.112  0.3202  0.2490  0.3177
  319SOL     OW 1041   3.944   4.521   4.825 -0.3897 -0.1540  0.3118
  319SOL    HW2 1042   4.039   4.517   4.836 -0.3548 -0.0735  0.0472
  319SOL    HW3 1043   3.928   4.474   4.744 -0.8391 -2.4796  1.6702
  319SOL    MW4 1044   3.955   4.515   4.816  0.1224  0.0013 -0.0813
  320SOL     OW 1045   0.289   2.590   2.073 -0.5391  0.2680  0.0349
  320SOL    HW2 1046   0.335   2.669   2.045  0.5373 -0.1930  0.4280
  320SOL    HW3 1047   0.358   2.523   2.077 -1.1794 -0.3488  1.0328
  320SOL    MW4 1048   0.304   2.591   2.070  0.1511 -0.1961 -0.2991
  321SOL     OW 1049   2.531   2.687   2.081 -0.1937 -0.6931  0.0447
  321SOL    HW2 1050   2.538   2.627   2.007 -0.3384  0.5328 -0.9816
  321SOL    HW3 1051   2.601   2.660   2.140  0.5167 -1.0960 -0.9625
  321SOL    MW4 1052   2.541   2.675   2.079  0.5548  0.3732 -0.0784
  322SOL     OW 1053   3.880   2.675   5.942 -0.5432 -0.2463 -0.3906
  322SOL    HW2 1054   3.934   2.648   6.017 -1.9855 -1.5628  0.2233
  322SOL    HW3 1055   3.898   2.768   5.933  0.5641 -0.2990  0.8525
  322SOL    MW4 1056   3.890   2.683   5.951  0.5036 -0.3965  0.2675
  323SOL     OW 1057   0.307   0.914   4.515 -0.1579  0.3584  0.1294
  323SOL    HW2 1058   0.347   0.902   4.428  1.6662 -0.3498  1.0095
  323SOL    HW3 1059   0.228   0.861   4.512  1.9303 -3.0892  0.1560
  323SOL    MW4 1060   0.302   0.905   4.503  0.0805 -0.0306  0.1210
  324SOL     OW 1061   1.499   0.667   3.739 -0.0496 -0.4565 -0.4104
  324SOL    HW2 1062   1.411   0.650   3.772 -0.1569  0.1314 -0.3896
  324SOL    HW3 1063   1.546   0.584   3.753 -0.8623 -1.1037 -1.3325
  324SOL    MW4 1064   1.494   0.653   3.745 -0.1153 -0.3250  0.0528
  325SOL     OW 1065   2.755   2.736   4.085  0.3077 -0.4083 -0.4428
  325SOL    HW2 1066   2.842   2.696   4.095  0.4620 -0.1478 -0.7275
  325SOL    HW3 1067   2.706   2.672   4.033 -0.1694 -1.2819  1.0429
  325SOL    MW4 1068   2.760   2.722   4.079  0.0173  0.1946  0.1432
  326SOL     OW 1069   3.150   3.816   4.873 -0.3908  0.0714  0.5577
  326SOL    HW2 1070   3.189   3.814   4.960  0.9272 -1.0916 -0.0268
  326SOL    HW3 1071   3.055   3.815   4.889 -0.1945  0.9855  1.9761
  326SOL    MW4 1072   3.142   3.816   4.887  0.1658 -0.0633 -0.0572
  327SOL     OW 1073   2.826   4.734   4.362 -0.9336  0.6446 -0.4440
  327SOL    HW2 1074   2.804   4.798   4.294 -0.1249  0.3567 -0.9985
  327SOL    HW3 1075   2.885   4.673   4.319 -1.0695 -0.0275  0.2990
  327SOL    MW4 1076   2.831   4.735   4.348 -0.3269  0.2893 -0.3696
  328SOL     OW 1077   4.403   4.089   3.593  0.4627  0.4431  0.4242
  328SOL    HW2 1078   4.475   4.124   3.644 -0.0106  0.8450  0.8320
  328SOL    HW3 1079   4.373   4.013   3.644  1.1718 -0.2745 -0.2074
  328SOL    MW4 1080   4.408   4.083   3.607 -0.1612  0.2790  0.3145
  329SOL     OW 1081   4.376   3.615   2.078  0.5023  0.1084  0.2199
  329SOL    HW2 1082   4.349   3.660   2.158 -0.3246  0.2671 -0.1315
  329SOL    HW3 1083   4.374   3.683   2.010 -0.5293 -0.3856 -0.2701
  329SOL    MW4 1084   4.372   3.630   2.080  0.1848 -0.4120  0.1097
  330SOL     OW 1085   0.950   1.218   1.195 -0.1706  0.1512  0.6592
  330SOL    HW2 1086   0.930   1.125   1.199 -2.7910  0.6420  0.4206
  330SOL    HW3 1087   0.951   1.246   1.287 -1.6536  0.2789  0.6603
  330SOL    MW4 1088   0.948   1.210   1.208 -0.0061 -0.8011 -0.1964
  331SOL     OW 1089   6.102   1.973   2.388  0.0359 -0.2925  0.2042
  331SOL    HW2 1090   6.053   1.936   2.462 -0.2809 -1.3762 -0.5288
  331SOL    HW3 1091   6.146   2.051   2.425 -2.6918  1.1098  0.7610
  331SOL    MW4 1092   6.101   1.979   2.403 -0.0990  0.3828 -0.3863
  332SOL     OW 1093   3.968   5.962   5.231  0.4490  0.1744 -0.0602
  332SOL    HW2 1094   4.013   6.040   5.198 -0.6519  0.0313 -2.0502
  332SOL    HW3 1095   3.941   5.985   5.320  0.3794  1.9766 -0.5211
  332SOL    MW4 1096   3.970   5.975   5.239 -0.4594 -0.3972 -0.0921
  333SOL     OW 1097   6.006   0.615   3.102 -0.1206  0.0503  0.1926
  333SOL    HW2 1098   6.055   0.640   3.181  2.2339 -1.3398 -0.7292
  333SOL    HW3 1099   5.968   0.697   3.071 -1.7437  0.5316  3.1114
  333SOL    MW4 1100   6.008   0.629   3.109 -0.2939  0.2190  0.7608
  334SOL     OW 1101   5.733   3.175   3.150  0.2613 -0.2819 -0.5675
  334SOL    HW2 1102   5.764   3.102   3.097 -0.9159 -2.2921  1.3563
  334SOL    HW3 1103   5.650   3.201   3.109  0.1451 -0.7520 -0.6326
  334SOL    MW4 1104   5.726   3.169   3.137  0.1666  0.4601 -0.0937
  335SOL     OW 1105   0.295   5.630   5.465  0.0373 -0.0949 -0.2236
  335SOL    HW2 1106   0.259   5.599   5.382  0.7049 -0.7545 -0.2819
  335SOL    HW3 1107   0.246   5.710   5.484 -0.4579 -0.1974 -1.0055
  335SOL    MW4 1108   0.284   5.636   5.456  0.1925 -0.0625 -0.3697
  336SOL     OW 1109   3.373   3.997   3.517 -0.2967  0.1424  0.4419
  336SOL    HW2 1110   3.351   4.021   3.427 -0.0468  2.3223  0.9059
  336SOL    HW3 1111   3.463   3.966   3.513  0.4367  2.1440  0.1670
  336SOL    MW4 1112   3.382   3.996   3.505 -0.4161  0.1773  0.6308
  337SOL     OW 1113   1.684   2.617   6.083  0.5788  0.4870 -0.3321
  337SOL    HW2 1114   1.739   2.542   6.059 -0.2261 -0.0367 -0.5814
  337SOL    HW3 1115   1.666   2.605   6.176 -0.3271 -0.1658 -0.5746
  337SOL    MW4 1116   1.689   2.605   6.092  0.3022 -0.1288  0.4497
  338SOL     OW 1117   0.127   5.465   4.304  0.0851 -0.1620 -0.2398
  338SOL    HW2 1118   0.108   5.488   4.395 -0.5429  3.8328 -1.1957
  338SOL    HW3 1119   0.047   5.421   4.274 -0.3081 -0.1154  0.6940
  338SOL    MW4 1120   0.114   5.462   4.312 -0.7115  0.1240  0.4335
  339SOL     OW 1121   2.758   5.282   0.446 -0.3558  0.7921 -0.8531
  339SOL    HW2 1122   2.733   5.345   0.379  0.9953  1.0550 -1.1347
  339SOL    HW3 1123   2.803   5.213   0.398 -0.4092  0.3984 -0.3486
  339SOL    MW4 1124   2.761   5.281   0.431 -0.7372 -0.5084 -0.3007
  340SOL     OW 1125   5.669   3.772   2.803 -0.1426  0.3655 -0.3299
  340SOL    HW2 1126   5.692   3.841   2.741 -0.3386  1.0028  0.2924
  340SOL    HW3 1127   5.601   3.721   2.759 -0.5664  1.0523 -0.4896
  340SOL    MW4 1128   5.663   3.774   2.789 -0.5268 -0.0901 -0.2740
  341SOL     OW 1129   2.071   2.086   6.154  0.4165 -0.8809  0.1714
  341SOL    HW2 1130   2.118   2.006   6.130 -0.6255 -0.8664 -2.1041
  341SOL    HW3 1131   1.984   2.056   6.179  0.9496 -0.7100  2.4879
  341SOL    MW4 1132   2.066   2.072   6.154 -0.4866  0.1331  0.1572
  342SOL     OW 1133   0.072   3.357   4.339  0.2089 -0.2965  0.8370
  342SOL    HW2 1134   0.163   3.333   4.358  0.7522  1.2480  0.3742
  342SOL    HW3 1135   0.074   3.388   4.248 -0.7696 -0.1486  0.8531
  342SOL    MW4 1136   0.084   3.358   4.329  0.3251  0.2131  0.8607
  343SOL     OW 1137   4.290   4.319   3.255  0.1577  0.0429 -0.1879
  343SOL    HW2 1138   4.374   4.272   3.255  0.8906  1.2974 -0.3262
  343SOL    HW3 1139   4.308   4.399   3.206 -0.8501  0.8141  0.6698
  343SOL    MW4 1140   4.304   4.323   3.248  0.1567  0.4209  0.1631
  344SOL     OW 1141   5.340   6.203   0.592  0.1618  0.0887 -0.8507
  344SOL    HW2 1142   5.283   6.160   0.529 -2.1723  1.6772  0.0755
  344SOL    HW3 1143   5.281   6.239   0.658  2.2364  1.7794  0.2104
  344SOL    MW4 1144   5.325   6.202   0.593 -0.4106 -0.4101  0.2320
  345SOL     OW 1145   0.149   3.675   4.260 -0.2642 -0.3151 -0.0813
  345SOL    HW2 1146   0.133   3.601   4.202 -1.2554 -0.1040 -0.0956
  345SOL    HW3 1147   0.090   3.744   4.229 -1.5242 -0.5114  1.7361
  345SOL    MW4 1148   0.139   3.675   4.248  0.1919 -0.3114 -0.2574
  346SOL     OW 1149   0.238   4.027   4.763 -0.3283 -0.3658  0.1430
  346SOL    HW2 1150   0.333   4.023   4.763 -0.3395 -1.3706  1.3550
  346SOL    HW3 1151   0.212   3.977   4.685  0.1206 -2.7491  1.4151
  346SOL    MW4 1152   0.247   4.020   4.753  0.4637 -0.1857  0.1737
  347SOL     OW 1153   5.266   4.075   1.919 -0.1062  0.2328 -0.2354
  347SOL    HW2 1154   5.170   4.072   1.922 -0.1344  1.3556  0.3235
  347SOL    HW3 1155   5.292   4.074   2.011  0.5347 -2.2258 -0.3625
  347SOL    MW4 1156   5.257   4.074   1.932  0.0951  0.3054  0.6497
  348SOL     OW 1157   4.312   2.692   1.050 -0.4118  0.1271 -0.0973
  348SOL    HW2 1158   4.374   2.724   0.984 -0.5462 -1.9268 -1.2974
  348SOL    HW3 1159   4.358   2.621   1.094 -1.2848 -0.2744  0.1970
  348SOL    MW4 1160   4.326   2.687   1.047 -0.5851 -0.6369  0.2216
  349SOL     OW 1161   1.935   2.114   4.973  0.1739  0.6541  0.2926
  349SOL    HW2 1162   2.007   2.107   5.035 -1.0974  0.5553  1.8035
  349SOL    HW3 1163   1.977   2.141   4.891  1.8878  0.8110  1.1775
  349SOL    MW4 1164   1.950   2.117   4.970  0.3909 -0.3288 -0.1053
  350SOL     OW 1165   0.214   5.784   3.893  0.8216  0.1735 -0.3385
  350SOL    HW2 1166   0.261   5.718   3.841  1.9501  0.7879 -0.1177
  350SOL    HW3 1167   0.183   5.736   3.970 -0.0118 -0.5169 -1.0686
  350SOL    MW4 1168   0.216   5.769   3.896 -0.0834  0.0309 -0.1053
  351SOL     OW 1169   4.162   3.259   5.432  0.5298  0.0939 -0.6534
  351SOL    HW2 1170   4.257   3.249   5.427  0.4973  0.4957 -3.7220
  351SOL    HW3 1171   4.130   3.172   5.456  1.6516  0.0139  0.6565
  351SOL    MW4 1172   4.170   3.246   5.434 -0.1660 -0.8541 -0.6413
  352SOL     OW 1173   5.942   1.801   4.422  0.0615 -0.0501  0.2074
  352SOL    HW2 1174   5.924   1.860   4.495 -0.9665 -2.6499  2.2370
  352SOL    HW3 1175   5.869   1.814   4.361 -0.2623  0.6095  0.7332
  352SOL    MW4 1176   5.930   1.810   4.423 -0.2265 -0.2892 -0.3796
  353SOL     OW 1177   1.277   6.134   5.370 -0.0047 -0.4573  0.3559
  353SOL    HW2 1178   1.366   6.165   5.382 -0.2152  0.8652 -1.2361
  353SOL    HW3 1179   1.225   6.185   5.432  0.5319 -2.8718  3.0579
  353SOL    MW4 1180   1.282   6.145   5.380  0.3622  0.1114 -0.3536
  354SOL     OW 1181   2.288   2.347   4.303  0.4393 -0.1252  0.1947
  354SOL    HW2 1182   2.310   2.422   4.248  0.2168  2.2250  3.0718
  354SOL    HW3 1183   2.198   2.363   4.330  0.5207 -1.2472  1.1850
  354SOL    MW4 1184   2.279   2.359   4.299 -0.2094  0.2304 -0.1412
  355SOL     OW 1185   3.134   4.163   2.425 -0.1871 -0.1713 -0.1352
  355SOL    HW2 1186   3.171   4.245   2.392  0.2370 -1.1364 -2.2149
  355SOL    HW3 1187   3.100   4.185   2.512  1.2142  1.8427 -0.0321
  355SOL    MW4 1188   3.134   4.176   2.432 -0.0477 -1.2370  0.2210
  356SOL     OW 1189   2.402   4.967   2.180 -0.7566 -0.2911  0.0464
  356SOL    HW2 1190   2.398   5.020   2.100 -2.0675 -2.5248 -1.5064
  356SOL    HW3 1191   2.329   4.998   2.233 -0.0139  1.0621  0.3207
  356SOL    MW4 1192   2.392   4.978   2.176 -0.0974 -0.0978 -0.0668
  357SOL     OW 1193   2.062   3.276   3.173 -0.9063 -0.3301  0.2090
  357SOL    HW2 1194   2.024   3.223   3.103  0.7704 -1.3887  0.0397
  357SOL    HW3 1195   2.118   3.215   3.222 -0.4653  0.8407  1.2263
  357SOL    MW4 1196   2.065   3.261   3.170 -0.4556 -0.1038  0.1421
  358SOL     OW 1197   0.527   0.065   4.384 -0.4140  0.0162 -0.3543
  358SOL    HW2 1198   0.502  -0.023   4.411 -0.1627  0.0370 -0.0425
  358SOL    HW3 1199   0.576   0.052   4.302 -1.1260 -0.0512 -0.7751
  358SOL    MW4 1200   0.530   0.052   4.376 -0.1266  0.1772 -0.2135
  359SOL     OW 1201   3.008   3.249   0.151 -0.5891 -0.2601  0.2535
  359SOL    HW2 1202   3.075   3.181   0.164 -0.4174 -0.0176  0.6452
  359SOL    HW3 1203   3.058   3.327   0.127 -0.5806  0.3569  2.1132
  359SOL    MW4 1204   3.024   3.250   0.150 -0.1010 -0.1279 -0.0358
  360SOL     OW 1205   0.656   5.241   1.245 -0.3629 -0.4455 -0.8415
  360SOL    HW2 1206   0.708   5.170   1.285 -1.9380 -0.7106  0.8495
  360SOL    HW3 1207   0.590   5.196   1.193 -2.4039 -0.4037  1.5199
  360SOL    MW4 1208   0.654   5.225   1.244 -0.3267  0.4646 -0.4353
  361SOL     OW 1209   0.718   5.445   5.200  0.0042  0.1692  0.4674
  361SOL    HW2 1210   0.766   5.417   5.122 -1.6946  0.5087 -0.7594
  361SOL    HW3 1211   0.770   5.411   5.273  0.1792 -2.7281 -0.8313
  361SOL    MW4 1212   0.731   5.437   5.199 -0.1493 -0.0354  0.3237
  362SOL     OW 1213   2.848   6.397   5.134  0.0251 -0.1307  0.2575
  362SOL    HW2 1214   2.776   6.398   5.197 -0.9579  0.1852 -0.8440
  362SOL    HW3 1215   2.893   6.480   5.148  2.1773 -1.5621  3.0962
  362SOL    MW4 1216   2.844   6.408   5.144  0.1664 -0.1819 -0.5649
  363SOL     OW 1217   1.686   1.420   0.449 -0.5791  0.1564  0.0094
  363SOL    HW2 1218   1.753   1.408   0.516 -0.8519  0.4337  0.3402
  363SOL    HW3 1219   1.661   1.332   0.424 -1.1616  0.0235  0.9813
  363SOL    MW4 1220   1.692   1.407   0.455  0.6482  0.0253 -0.7157
  364SOL     OW 1221   4.061   6.285   4.357  0.0846 -0.2669  0.0606
  364SOL    HW2 1222   4.098   6.368   4.325 -1.2539 -0.1340 -1.2783
  364SOL    HW3 1223   4.119   6.259   4.428  2.0277  0.5402 -1.1165
  364SOL    MW4 1224   4.074   6.292   4.362 -0.4857 -0.3126 -0.0708
  365SOL     OW 1225   4.749   4.559   2.315  0.3203  0.3856  0.2520
  365SOL    HW2 1226   4.830   4.533   2.358 -0.4371  0.3460  1.7059
  365SOL    HW3 1227   4.759   4.653   2.298  1.4447  0.0279 -1.4167
  365SOL    MW4 1228   4.761   4.568   2.318  0.0212  0.2393 -0.1521
  366SOL     OW 1229   4.695   5.445   1.780 -0.6365 -0.7318 -0.1434
  366SOL    HW2 1230   4.634   5.505   1.823  0.9309  0.1163  1.0119
  366SOL    HW3 1231   4.754   5.418   1.850  1.9851  0.6355 -1.6845
  366SOL    MW4 1232   4.694   5.449   1.795 -0.3242  0.3114 -0.1274
  367SOL     OW 1233   0.944   1.509   5.948  0.2681  0.5530 -0.2037
  367SOL    HW2 1234   0.886   1.489   5.875 -0.3864 -3.2024  1.1040
  367SOL    HW3 1235   1.029   1.474   5.921  0.6398  1.3579 -0.0980
  367SOL    MW4 1236   0.948   1.502   5.935 -0.4082 -0.0027 -0.1092
  368SOL     OW 1237   2.549   3.439   5.111 -0.5818 -0.0537 -0.1032
  368SOL    HW2 1238   2.491   3.374   5.153 -0.0172 -0.3027  0.3070
  368SOL    HW3 1239   2.576   3.496   5.183  0.4595 -0.5306 -0.0945
  368SOL    MW4 1240   2.545   3.438   5.126 -0.6009 -0.0474 -0.2129
  369SOL     OW 1241   0.539   5.442   3.179 -0.3347 -0.0941  0.2733
  369SOL    HW2 1242   0.574   5.428   3.267  0.6927 -2.4185 -0.4127
  369SOL    HW3 1243   0.532   5.354   3.142 -2.1929  0.6963 -1.4551
  369SOL    MW4 1244   0.543   5.428   3.186 -0.6578  0.9567 -0.1247
  370SOL     OW 1245   6.200   0.386   0.770 -0.3301  0.2109 -0.3486
  370SOL    HW2 1246   6.260   0.364   0.699  0.0103  0.6449 -0.2008
  370SOL    HW3 1247   6.243   0.354   0.850  0.9103  2.6500  0.0675
  370SOL    MW4 1248   6.214   0.379   0.772 -0.1275  0.3183 -0.2307
  371SOL     OW 1249   0.089   3.276   4.791  0.4551  0.2751  0.2167
  371SOL    HW2 1250   0.173   3.242   4.821 -0.4145 -1.6637  0.5622
  371SOL    HW3 1251   0.049   3.312   4.870 -0.8277 -2.7192  1.0628
  371SOL    MW4 1252   0.095   3.277   4.805 -0.1622 -0.0494 -0.1744
  372SOL     OW 1253   4.500   1.583   5.773  0.0655  0.0954  0.4174
  372SOL    HW2 1254   4.414   1.622   5.789 -0.7878 -0.9286 -1.3479
  372SOL    HW3 1255   4.523   1.539   5.855 -1.5740 -0.4832  0.5916
  372SOL    MW4 1256   4.492   1.583   5.786  0.1272  0.2590  1.1101
  373SOL     OW 1257   2.636   0.081   4.542  0.3806  0.7972 -0.0918
  373SOL    HW2 1258   2.664  -0.003   4.577  2.6186  1.3425 -0.3524
  373SOL    HW3 1259   2.600   0.061   4.456 -3.7972 -0.3795  1.7113
  373SOL    MW4 1260   2.635   0.067   4.535 -0.4930  0.4683 -0.0837
  374SOL     OW 1261   3.077   3.255   3.073  0.6235 -0.8763 -0.0538
  374SOL    HW2 1262   3.151   3.296   3.028  0.7917 -1.8111 -0.6710
  374SOL    HW3 1263   3.078   3.292   3.161 -0.7665  2.3829 -1.2489
  374SOL    MW4 1264   3.086   3.265   3.079 -0.4188  0.0183  0.0807
  375SOL     OW 1265   3.271   5.410   1.890 -0.1448 -0.0223  0.0871
  375SOL    HW2 1266   3.219   5.336   1.858  0.4717  0.0312 -1.0953
  375SOL    HW3 1267   3.346   5.413   1.831 -1.2357  2.8992 -1.3616
  375SOL    MW4 1268   3.274   5.400   1.878  0.1599 -0.0538  0.4795
  376SOL     OW 1269   3.751   1.405   5.892 -0.8050 -0.3026  0.2561
  376SOL    HW2 1270   3.664   1.409   5.852 -0.7317  0.7915  0.1948
  376SOL    HW3 1271   3.741   1.446   5.978 -0.3804 -0.3193  0.3168
  376SOL    MW4 1272   3.738   1.411   5.898 -0.5703  0.2190 -0.2377
  377SOL     OW 1273   3.166   5.578   0.987 -0.4116 -0.4690  0.0054
  377SOL    HW2 1274   3.080   5.619   0.977 -0.2429 -0.0199  0.3462
  377SOL    HW3 1275   3.171   5.516   0.915 -0.4969  0.4273 -0.7961
  377SOL    MW4 1276   3.155   5.575   0.977 -0.4366 -0.4798  0.1086
  378SOL     OW 1277   6.135   0.802   0.365  0.7934 -0.4221 -0.0119
  378SOL    HW2 1278   6.065   0.863   0.340 -0.7114 -1.8495  0.5193
  378SOL    HW3 1279   6.205   0.819   0.302 -0.5125  0.2281 -1.3495
  378SOL    MW4 1280   6.135   0.813   0.353 -0.2463  0.1307  0.0508
  379SOL     OW 1281   3.989   4.898   6.152 -0.0385  0.1256 -0.4421
  379SOL    HW2 1282   3.941   4.961   6.205 -0.5757 -0.7866  0.2037
  379SOL    HW3 1283   4.025   4.836   6.216  0.1622 -0.4314 -1.0782
  379SOL    MW4 1284   3.988   4.898   6.168 -0.5045  0.1859 -0.1418
  380SOL     OW 1285   1.004   0.564   0.943  0.1898  0.3526  0.0932
  380SOL    HW2 1286   1.045   0.578   1.028 -0.6386  0.6913  0.4356
  380SOL    HW3 1287   0.928   0.510   0.961  0.0568  0.3510 -0.4482
  380SOL    MW4 1288   1.000   0.559   0.956 -0.0928 -0.1099 -0.5272
  381SOL     OW 1289   1.206   1.155   1.725  0.0582  0.1351  0.1432
  381SOL    HW2 1290   1.228   1.073   1.680 -1.0468 -1.8310  2.9439
  381SOL    HW3 1291   1.114   1.170   1.705 -0.2369 -0.3431  1.1032
  381SOL    MW4 1292   1.197   1.146   1.716 -0.4855 -0.0414  0.4396
  382SOL     OW 1293   0.304   5.635   3.367  1.0674 -0.0266  0.6480
  382SOL    HW2 1294   0.214   5.605   3.361  1.3518 -0.6299 -1.6404
  382SOL    HW3 1295   0.321   5.642   3.461 -1.6594  1.1443  1.1507
  382SOL    MW4 1296   0.295   5.632   3.378 -0.2550  0.7325  0.5348
  383SOL     OW 1297   0.007   2.635   1.395 -0.3852  0.0914 -0.4626
  383SOL    HW2 1298   0.068   2.681   1.337 -1.0885  2.2252  0.3744
  383SOL    HW3 1299   0.063   2.587   1.456  0.3901 -0.1518 -1.3392
  383SOL    MW4 1300   0.022   2.635   1.395 -0.0305 -0.3477  0.1364
  384SOL     OW 1301   0.546   0.121   0.510 -0.5111  0.2891 -0.1460
  384SOL    HW2 1302   0.578   0.035   0.538 -0.7976 -0.0210 -0.7417
  384SOL    HW3 1303   0.500   0.155   0.587 -1.5296 -0.6698 -0.2931
  384SOL    MW4 1304   0.544   0.114   0.524 -0.9581  0.2462  0.2185
  385SOL     OW 1305   1.646   2.944   2.914 -0.1496 -0.0168 -0.3250
  385SOL    HW2 1306   1.555   2.946   2.944 -0.6837 -2.2840 -1.5451
  385SOL    HW3 1307   1.640   2.920   2.821  1.7150 -1.4299 -0.1377
  385SOL    MW4 1308   1.633   2.941   2.906  0.1248  0.0043 -0.0329
  386SOL     OW 1309   0.965   2.690   3.036  0.4367  0.2736  0.1448
  386SOL    HW2 1310   0.880   2.683   3.081 -0.3142  0.8969 -1.1186
  386SOL    HW3 1311   0.994   2.599   3.027 -0.3213  0.0146  0.2010
  386SOL    MW4 1312   0.957   2.677   3.040 -0.0504  0.3276 -0.1330
  387SOL     OW 1313   0.366   3.327   2.667  0.1801 -0.5750 -0.1326
  387SOL    HW2 1314   0.433   3.371   2.720 -0.6402  0.4972  0.0497
  387SOL    HW3 1315   0.347   3.246   2.714  1.0479 -0.6957  0.0325
  387SOL    MW4 1316   0.373   3.322   2.680  0.0714 -0.2255 -0.1586
  388SOL     OW 1317   5.005   3.179   5.299 -0.4059  0.1410 -0.1247
  388SOL    HW2 1318   5.003   3.120   5.375 -0.1149 -0.5704 -0.6622
  388SOL    HW3 1319   4.922   3.228   5.306  0.0019  0.7137  1.1213
  388SOL    MW4 1320   4.994   3.178   5.310 -0.1399  0.3873 -0.0958
  389SOL     OW 1321   5.281   3.588   4.091 -0.2513 -0.5993 -0.3498
  389SOL    HW2 1322   5.315   3.624   4.173 -2.2922  0.5685  0.0356
  389SOL    HW3 1323   5.304   3.654   4.025  0.7372 -1.1906 -0.6183
  389SOL    MW4 1324   5.289   3.602   4.093  0.2971 -0.3044  0.1623
  390SOL     OW 1325   1.923   0.486   2.158  0.8486  0.6677 -0.3931
  390SOL    HW2 1326   2.006   0.502   2.202  1.6801 -0.6930 -1.3571
  390SOL    HW3 1327   1.874   0.567   2.168  2.3399  1.5512  0.1046
  390SOL    MW4 1328   1.928   0.498   2.165 -0.3703  0.0129  0.4648
  391SOL     OW 1329   3.992   4.437   1.604  0.2279 -0.0306  0.1147
  391SOL    HW2 1330   3.912   4.475   1.640 -0.0856 -0.4410 -0.1283
  391SOL    HW3 1331   4.057   4.446   1.674  0.4191  1.7330 -0.2514
  391SOL    MW4 1332   3.990   4.443   1.618 -0.4581 -0.9321  0.3939
  392SOL     OW 1333   4.358   4.334   2.332  0.7905 -0.4811 -0.0349
  392SOL    HW2 1334   4.308   4.259   2.300  0.3568 -0.5578  0.8058
  392SOL    HW3 1335   4.449   4.310   2.319  0.6434 -0.1869 -1.9606
  392SOL    MW4 1336   4.363   4.321   2.326  0.2941 -0.0276  0.1616
  393SOL     OW 1337   2.571   4.583   1.996 -0.3410  0.2761  0.7184
  393SOL    HW2 1338   2.557   4.506   2.051 -1.1200 -1.3281 -1.5734
  393SOL    HW3 1339   2.489   4.595   1.949  0.4930  1.1025 -0.6158
  393SOL    MW4 1340   2.559   4.574   1.997  0.1775  0.0257 -0.7657
  394SOL     OW 1341   1.720   5.825   2.208 -0.0544  0.2758 -0.1547
  394SOL    HW2 1342   1.625   5.829   2.219  0.1198  0.4452  1.5590
  394SOL    HW3 1343   1.746   5.914   2.186  0.1147  1.4702  3.9209
  394SOL    MW4 1344   1.711   5.837   2.207  0.2208 -0.0370 -0.4739
  395SOL     OW 1345   1.288   0.799   2.782  0.4406 -0.3632 -0.1817
  395SOL    HW2 1346   1.232   0.835   2.713 -2.3842 -1.6030  1.3034
  395SOL    HW3 1347   1.355   0.866   2.796  1.0699  0.0029 -3.9347
  395SOL    MW4 1348   1.290   0.812   2.775  0.4604  0.2920 -0.3511
  396SOL     OW 1349   4.875   1.571   3.343  0.3003  0.6966 -0.0533
  396SOL    HW2 1350   4.829   1.611   3.269 -0.6855  1.9192  1.1704
  396SOL    HW3 1351   4.828   1.489   3.360  0.3465  0.5595 -0.5664
  396SOL    MW4 1352   4.863   1.565   3.336 -0.2668  0.1090 -0.1275
  397SOL     OW 1353   1.072   2.048   5.299  0.3768  0.9068  0.3963
  397SOL    HW2 1354   1.007   1.988   5.263  1.5479 -0.3003  0.2429
  397SOL    HW3 1355   1.084   2.114   5.232  1.0800 -0.2256 -0.6334
  397SOL    MW4 1356   1.065   2.049   5.286  0.3138 -0.4820 -0.7186
  398SOL     OW 1357   4.471   4.696   3.337  0.0769  0.1874 -0.6442
  398SOL    HW2 1358   4.445   4.625   3.396 -4.1613  2.8419  1.2051
  398SOL    HW3 1359   4.538   4.744   3.386  1.7769 -1.4921 -1.2158
  398SOL    MW4 1360   4.476   4.693   3.351  0.1831 -0.0421  0.7073
  399SOL     OW 1361   3.478   3.075   2.819  0.0554  0.0361  0.5082
  399SOL    HW2 1362   3.511   3.163   2.837  0.9402 -0.1306 -0.2389
  399SOL    HW3 1363   3.453   3.077   2.726 -1.1988 -0.1134  0.8262
  399SOL    MW4 1364   3.479   3.087   2.809  0.2731 -0.1719 -0.0192
  400SOL     OW 1365   0.991   1.842   1.645  0.0452 -0.9668  0.5200
  400SOL    HW2 1366   0.933   1.914   1.669  0.2172 -1.0386  1.1462
  400SOL    HW3 1367   1.074   1.862   1.686  0.9804 -0.0620 -1.6445
  400SOL    MW4 1368   0.994   1.854   1.653  0.1666 -0.8240  0.3909
  401SOL     OW 1369   0.567   2.726   5.091 -0.5234 -0.4507  0.5468
  401SOL    HW2 1370   0.484   2.751   5.049 -1.5855 -3.9251  0.2524
  401SOL    HW3 1371   0.630   2.724   5.020 -0.7239 -0.0265  0.3487
  401SOL    MW4 1372   0.564   2.729   5.076  0.0790  0.1833 -0.4473
  402SOL     OW 1373   1.321   0.777   0.878 -0.1679 -0.0044 -0.2124
  402SOL    HW2 1374   1.394   0.838   0.870  0.2582 -0.6687 -1.9071
  402SOL    HW3 1375   1.253   0.813   0.820 -0.0860 -0.8633 -0.8654
  402SOL    MW4 1376   1.322   0.789   0.869  0.0290 -0.1882 -0.2131
  403SOL     OW 1377   0.416   4.491   5.036  0.1778  0.0837 -0.4659
  403SOL    HW2 1378   0.337   4.516   4.988 -0.0882  1.2129  0.4924
  403SOL    HW3 1379   0.384   4.467   5.123  0.8878  0.5806 -0.0626
  403SOL    MW4 1380   0.401   4.491   5.041  0.2817  0.7619 -0.0826
  404SOL     OW 1381   0.278   0.803   1.559  0.3151  0.0819 -0.5126
  404SOL    HW2 1382   0.203   0.755   1.524 -0.4940  1.2012 -0.3537
  404SOL    HW3 1383   0.248   0.893   1.565  1.8082  0.6258 -0.8117
  404SOL    MW4 1384   0.265   0.808   1.555  0.4358  0.0956 -0.6398
  405SOL     OW 1385   0.817   5.037   1.341 -0.0067  0.0590  0.0556
  405SOL    HW2 1386   0.765   5.045   1.420 -1.3307 -2.1090 -0.5053
  405SOL    HW3 1387   0.908   5.043   1.371 -0.5128  1.5847  1.3774
  405SOL    MW4 1388   0.822   5.039   1.355  0.1069 -0.5701  0.0381
  406SOL     OW 1389   5.494   4.013   5.575  0.5916 -0.0637 -0.3271
  406SOL    HW2 1390   5.561   4.006   5.643  0.2986 -0.6211 -0.0940
  406SOL    HW3 1391   5.419   4.053   5.619  0.7010  0.3948 -0.5452
  406SOL    MW4 1392   5.493   4.017   5.590  0.3674  0.3942  0.3836
  407SOL     OW 1393   5.758   4.464   5.744 -0.4489  0.2446  0.4359
  407SOL    HW2 1394   5.817   4.409   5.796 -0.0709 -0.9074 -1.1393
  407SOL    HW3 1395   5.802   4.549   5.739  1.7926 -0.9249 -1.7377
  407SOL    MW4 1396   5.772   4.468   5.750 -0.2522 -0.1747  0.3695
  408SOL     OW 1397   0.524   6.035   5.310  0.1093 -0.4863  0.1046
  408SOL    HW2 1398   0.594   5.980   5.275  0.2288 -1.0813  1.2347
  408SOL    HW3 1399   0.543   6.041   5.403 -1.7044 -1.2063  0.5564
  408SOL    MW4 1400   0.536   6.029   5.317  0.0623 -0.3620  0.2621
  409SOL     OW 1401   0.474   2.973   4.191 -0.0272  0.3599  0.4405
  409SOL    HW2 1402   0.508   3.052   4.233  0.7681  0.3205 -0.1067
  409SOL    HW3 1403   0.404   2.943   4.249  0.1421  1.0631  1.0229
  409SOL    MW4 1404   0.469   2.980   4.204 -0.6814 -0.2135 -0.9507
  410SOL     OW 1405   2.103   1.966   4.508  0.4083  0.0312 -0.2326
  410SOL    HW2 1406   2.070   2.009   4.429  0.4344  0.0556 -0.2303
  410SOL    HW3 1407   2.097   1.872   4.489  1.1011  0.0480 -0.5448
  410SOL    MW4 1408   2.098   1.959   4.495 -0.2102 -0.8037  0.8396
  411SOL     OW 1409   0.977   0.142   3.800  0.0941  0.2466  0.2679
  411SOL    HW2 1410   1.033   0.073   3.767  0.5201  0.3900  0.6860
  411SOL    HW3 1411   0.890   0.102   3.806  0.1952 -0.0424 -0.1446
  411SOL    MW4 1412   0.973   0.128   3.796 -0.7968  0.4645 -0.3724
  412SOL     OW 1413   3.918   0.829   1.566  0.2291  0.5515 -0.3195
  412SOL    HW2 1414   3.873   0.878   1.497  0.2834 -0.3832 -1.0390
  412SOL    HW3 1415   3.884   0.866   1.647 -0.1250  1.4126 -0.8468
  412SOL    MW4 1416   3.907   0.840   1.567  0.0748 -0.3683  0.2006
  413SOL     OW 1417   1.218   1.508   3.993 -0.2766 -0.0390 -0.1005
  413SOL    HW2 1418   1.177   1.466   4.068 -0.6598  0.8220  0.1812
  413SOL    HW3 1419   1.188   1.457   3.918  0.9562 -1.5790  0.3871
  413SOL    MW4 1420   1.209   1.496   3.993 -0.7548  0.1576  0.1794
  414SOL     OW 1421   2.617   3.992   5.846  1.0649  0.3204 -0.3571
  414SOL    HW2 1422   2.699   3.945   5.836  1.1970  0.0894  1.4717
  414SOL    HW3 1423   2.643   4.083   5.863  0.8755  0.5889 -1.4254
  414SOL    MW4 1424   2.631   3.998   5.847 -0.2650 -0.7717  0.5619
  415SOL     OW 1425   3.247   3.035   2.947 -0.4443  0.1911  0.5790
  415SOL    HW2 1426   3.326   3.062   2.900 -1.5240  1.1966 -0.7344
  415SOL    HW3 1427   3.250   3.085   3.028 -0.6032  1.6351 -0.2585
  415SOL    MW4 1428   3.258   3.045   2.951 -0.0488  0.3308 -0.5108
  416SOL     OW 1429   2.214   5.255   4.240 -0.5959  0.1905 -0.2825
  416SOL    HW2 1430   2.185   5.210   4.319 -0.5864  0.9045  0.1313
  416SOL    HW3 1431   2.144   5.240   4.176  0.7741 -3.0866 -1.2136
  416SOL    MW4 1432   2.201   5.247   4.242  0.0312 -0.2198 -0.2328
  417SOL     OW 1433   1.564   4.449   5.583 -0.3394 -0.2669  0.2125
  417SOL    HW2 1434   1.651   4.456   5.544 -0.1390 -0.8600  0.5538
  417SOL    HW3 1435   1.527   4.537   5.573 -0.2685 -0.3716 -1.2472
  417SOL    MW4 1436   1.571   4.462   5.577  0.1976  0.3641  0.1338
  418SOL     OW 1437   1.079   4.988   5.347  0.0357  0.0778 -0.3242
  418SOL    HW2 1438   1.162   5.014   5.307  0.0423 -0.0695 -0.4060
  418SOL    HW3 1439   1.092   5.002   5.441 -0.1314  0.8502 -0.4091
  418SOL    MW4 1440   1.092   4.994   5.354  0.1435  0.1571 -0.7415
  419SOL     OW 1441   4.720   4.665   1.520  0.3655  0.3671 -0.0134
  419SOL    HW2 1442   4.748   4.636   1.433  3.3238 -0.2282  1.0329
  419SOL    HW3 1443   4.679   4.750   1.505 -0.4850 -0.3519 -2.1192
  419SOL    MW4 1444   4.718   4.672   1.507 -0.3994  0.1327  0.7012
  420SOL     OW 1445   5.480   5.948   0.350  0.8077 -0.6087  0.1475
  420SOL    HW2 1446   5.529   5.898   0.416  0.5268 -0.6722  0.3114
  420SOL    HW3 1447   5.525   6.032   0.346  0.3944 -0.3308  0.9667
  420SOL    MW4 1448   5.493   5.952   0.358 -0.3097 -0.2997 -0.0976
  421SOL     OW 1449   0.211   2.501   5.009  0.5436  0.3563  0.3006
  421SOL    HW2 1450   0.296   2.467   5.039 -0.0731 -0.5643  1.0659
  421SOL    HW3 1451   0.234   2.572   4.950  1.8690  2.2266  2.8534
  421SOL    MW4 1452   0.225   2.506   5.005 -0.0959  0.7395 -0.3335
  422SOL     OW 1453   5.319   0.845   5.203  0.2297  0.0280  0.1963
  422SOL    HW2 1454   5.301   0.899   5.126  0.4079  0.1701  0.2510
  422SOL    HW3 1455   5.302   0.755   5.175  2.6024 -0.1951 -0.7523
  422SOL    MW4 1456   5.314   0.840   5.189 -0.0634  0.3188  0.2145
  423SOL     OW 1457   0.412   3.891   3.464  0.0276  0.0605 -0.2486
  423SOL    HW2 1458   0.494   3.845   3.445 -0.7027 -2.0881  1.3530
  423SOL    HW3 1459   0.344   3.835   3.427 -0.8035  2.0380 -1.9669
  423SOL    MW4 1460   0.414   3.878   3.457  0.3551 -0.3584  0.5214
  424SOL     OW 1461   2.853   4.148   4.453  1.1951 -0.3891  1.0120
  424SOL    HW2 1462   2.929   4.202   4.430 -0.4401  1.7140  0.2418
  424SOL    HW3 1463   2.794   4.209   4.497 -0.3974 -1.7750  0.8615
  424SOL    MW4 1464   2.855   4.163   4.456 -0.5831  1.0565  0.2383
  425SOL     OW 1465   5.346   0.176   0.321 -0.5767 -0.1955 -0.4232
  425SOL    HW2 1466   5.319   0.167   0.412 -0.5108 -0.5216 -0.4343
  425SOL    HW3 1467   5.441   0.165   0.323 -0.6388 -0.7762 -0.6032
  425SOL    MW4 1468   5.355   0.173   0.333  0.0438 -0.9554  0.0768
  426SOL     OW 1469   3.085   2.619   4.795 -0.7167  0.1617 -0.4835
  426SOL    HW2 1470   3.166   2.645   4.840 -0.9143 -2.0075  1.2939
  426SOL    HW3 1471   3.099   2.645   4.704  1.4318  1.0034  0.0135
  426SOL    MW4 1472   3.097   2.626   4.789  0.6001 -0.1898  0.0967
  427SOL     OW 1473   4.129   1.823   5.189  0.6228 -0.0537  0.0135
  427SOL    HW2 1474   4.129   1.779   5.273 -1.0841 -2.8775 -1.2985
  427SOL    HW3 1475   4.191   1.774   5.135  2.0124  1.9600 -0.3448
  427SOL    MW4 1476   4.137   1.811   5.193 -0.7155  0.1792  0.4592
  428SOL     OW 1477   5.687   1.405   3.729 -0.3997 -0.4293  0.3954
  428SOL    HW2 1478   5.631   1.343   3.776 -0.0584 -0.4058  0.8374
  428SOL    HW3 1479   5.628   1.451   3.670 -1.1289  0.6491  1.9119
  428SOL    MW4 1480   5.672   1.403   3.727  0.2722 -0.2254 -0.0992
  429SOL     OW 1481   5.796   0.535   6.305 -0.1950  0.1494  0.6159
  429SOL    HW2 1482   5.713   0.566   6.342  0.2061  2.8232 -0.4965
  429SOL    HW3 1483   5.847   0.506   6.381 -1.2520  0.7033  1.5702
  429SOL    MW4 1484   5.792   0.535   6.320  0.5883  0.3436 -0.1921
  430SOL     OW 1485   2.601   1.544   4.803 -0.7053 -0.0354 -0.3249
  430SOL    HW2 1486   2.665   1.599   4.759  0.5704  0.1762  1.6829
  430SOL    HW3 1487   2.599   1.577   4.893 -1.4282 -1.9573  0.4103
  430SOL    MW4 1488   2.609   1.556   4.810 -0.2111  0.1239 -1.0106
  431SOL     OW 1489   3.173   3.823   6.191 -0.0282  0.0525 -0.5784
  431SOL    HW2 1490   3.214   3.750   6.144  1.6374  0.8239 -0.3777
  431SOL    HW3 1491   3.166   3.792   6.281 -1.8605 -0.8639 -0.9875
  431SOL    MW4 1492   3.178   3.809   6.197  0.6205  0.2114  0.0023
  432SOL     OW 1493   1.289   4.904   1.093  0.0515 -0.4920  0.1146
  432SOL    HW2 1494   1.250   4.919   1.007  1.6720 -4.0728 -1.4310
  432SOL    HW3 1495   1.367   4.959   1.095 -1.7278  2.2159  0.8483
  432SOL    MW4 1496   1.294   4.914   1.082 -0.3054 -0.1114 -1.0075
  433SOL     OW 1497   1.360   0.318   4.223 -0.0653  0.4872 -0.0640
  433SOL    HW2 1498   1.353   0.280   4.135  1.2105  0.5152 -0.1917
  433SOL    HW3 1499   1.359   0.242   4.282  0.1155  0.4037 -0.1685
  433SOL    MW4 1500   1.359   0.303   4.219  0.1780  0.1885  0.3823
  434SOL     OW 1501   0.238   4.633   0.482  0.0053 -0.0706  0.3190
  434SOL    HW2 1502   0.180   4.557   0.482 -1.1301  0.7070 -1.5642
  434SOL    HW3 1503   0.303   4.615   0.550 -1.0278 -2.0839  0.8314
  434SOL    MW4 1504   0.239   4.620   0.491  0.4173 -0.2104  0.0529
  435SOL     OW 1505   5.241   1.059   5.013  0.3337  0.1085 -0.0832
  435SOL    HW2 1506   5.183   1.020   4.948 -1.4984  0.3032  1.3731
  435SOL    HW3 1507   5.273   1.139   4.971 -0.2065 -0.1426 -1.0088
  435SOL    MW4 1508   5.238   1.064   4.999  0.3070 -0.0791  0.4903
  436SOL     OW 1509   2.334   2.292   3.621  0.1458  0.0128  0.4392
  436SOL    HW2 1510   2.362   2.313   3.532  0.7226 -1.0585  0.3480
  436SOL    HW3 1511   2.415   2.285   3.671  0.0409 -2.2713  0.3752
  436SOL    MW4 1512   2.348   2.294   3.616 -0.0123 -0.2026  0.4207
  437SOL     OW 1513   2.444   0.084   0.177  0.1669 -0.0362  0.2084
  437SOL    HW2 1514   2.390   0.151   0.217 -0.0669 -1.7445  3.0261
  437SOL    HW3 1515   2.393   0.054   0.102 -0.6494  1.4780  0.1139
  437SOL    MW4 1516   2.431   0.089   0.172 -0.1534  0.3870  0.3098
  438SOL     OW 1517   6.300   1.437   2.971 -0.0020 -0.2173 -0.3014
  438SOL    HW2 1518   6.261   1.523   2.956  3.8577  1.8830  0.5450
  438SOL    HW3 1519   6.280   1.388   2.891 -0.2299  2.3487 -1.9250
  438SOL    MW4 1520   6.292   1.442   2.958  0.2826 -0.0291  0.7818
  439SOL     OW 1521   4.640   3.494   2.924 -0.3457 -0.3461 -0.2618
  439SOL    HW2 1522   4.660   3.408   2.888  0.9497 -0.9383  1.7303
  439SOL    HW3 1523   4.558   3.481   2.972 -1.4230  0.1610 -1.8523
  439SOL    MW4 1524   4.631   3.481   2.925 -0.7631 -0.3073 -0.3973
  440SOL     OW 1525   3.613   2.038   2.576  0.0588  0.0135 -0.2345
  440SOL    HW2 1526   3.573   2.112   2.531 -0.7117  0.0685  0.5376
  440SOL    HW3 1527   3.541   1.977   2.592  0.7637 -1.1824 -1.3470
  440SOL    MW4 1528   3.598   2.040   2.572 -0.2053  0.0712 -0.2871
  441SOL     OW 1529   1.547   5.058   4.781 -0.1168 -0.0061  0.4097
  441SOL    HW2 1530   1.457   5.058   4.814 -0.2273  0.6251  0.1300
  441SOL    HW3 1531   1.579   5.147   4.798  0.2714 -0.0677  0.0317
  441SOL    MW4 1532   1.539   5.070   4.787 -0.4713  0.3627  0.0159
  442SOL     OW 1533   4.685   3.732   0.879  0.5393  0.3105 -0.9156
  442SOL    HW2 1534   4.641   3.674   0.941  0.2670  0.8279 -0.6172
  442SOL    HW3 1535   4.765   3.686   0.855  1.6218  0.8988  1.2845
  442SOL    MW4 1536   4.690   3.718   0.884  0.2200  0.4181  0.0958
  443SOL     OW 1537   3.648   0.744   3.541  0.1339 -0.2009  0.5649
  443SOL    HW2 1538   3.597   0.825   3.538  2.4473  1.3401  0.6556
  443SOL    HW3 1539   3.684   0.741   3.630 -0.5704 -1.8027  0.8392
  443SOL    MW4 1540   3.646   0.754   3.553 -0.2982  0.4054  0.1075
  444SOL     OW 1541   1.268   1.125   2.648 -0.0010 -0.1136 -0.2174
  444SOL    HW2 1542   1.215   1.053   2.613  2.0911 -2.7697  1.6190
  444SOL    HW3 1543   1.220   1.153   2.726  1.0470 -2.5080  1.4421
  444SOL    MW4 1544   1.255   1.119   2.654  0.7800  0.4579 -0.6621
  445SOL     OW 1545   4.756   3.222   0.669  0.1067  0.0488  0.3457
  445SOL    HW2 1546   4.798   3.242   0.753  3.0274 -0.2417 -0.9342
  445SOL    HW3 1547   4.738   3.128   0.674 -0.3458  0.1521  0.8556
  445SOL    MW4 1548   4.759   3.212   0.681  0.6696  0.3950  0.6034
  446SOL     OW 1549   2.677   1.575   1.233 -0.6190 -0.5348  0.1029
  446SOL    HW2 1550   2.653   1.583   1.141 -1.1322 -1.1557  0.1798
  446SOL    HW3 1551   2.740   1.502   1.235  0.9117  0.7161 -0.0178
  446SOL    MW4 1552   2.682   1.567   1.221 -0.3083  0.0009  0.8136
  447SOL     OW 1553   4.228   1.475   1.792  0.2899  0.3593 -0.2286
  447SOL    HW2 1554   4.229   1.513   1.704 -0.7133 -0.2502 -0.5196
  447SOL    HW3 1555   4.225   1.381   1.778  0.0557  0.2582  0.4560
  447SOL    MW4 1556   4.227   1.468   1.779 -0.1657  0.3837 -0.0710
  448SOL     OW 1557   4.389   5.303   0.824  0.5623 -0.0177  0.3056
  448SOL    HW2 1558   4.448   5.228   0.816 -0.2553 -0.4752 -2.6364
  448SOL    HW3 1559   4.323   5.275   0.888  2.6878 -0.0094  2.6122
  448SOL    MW4 1560   4.388   5.289   0.831  0.6110 -0.7542  0.0180
  449SOL     OW 1561   0.444   5.930   4.898  0.0292  0.2814 -0.4835
  449SOL    HW2 1562   0.436   5.868   4.970  0.2536 -1.6196 -2.0006
  449SOL    HW3 1563   0.405   6.011   4.931 -1.1667 -0.9332  1.2671
  449SOL    MW4 1564   0.438   5.932   4.912 -0.1486  0.1726  0.1983
  450SOL     OW 1565   2.074   1.340   1.395  0.4465  0.2555  0.7341
  450SOL    HW2 1566   2.001   1.285   1.424  0.0325  0.3106 -0.1943
  450SOL    HW3 1567   2.044   1.429   1.410  0.3115  0.2790  0.3212
  450SOL    MW4 1568   2.060   1.344   1.401 -0.4849  0.0430  0.2426
  451SOL     OW 1569   0.318   5.006   4.405 -0.6359 -0.1526 -0.1329
  451SOL    HW2 1570   0.402   4.975   4.372 -1.4898 -2.1596 -0.6083
  451SOL    HW3 1571   0.296   4.946   4.476 -1.4119  0.6978  0.3753
  451SOL    MW4 1572   0.326   4.994   4.410 -0.9390  0.0992 -0.1112
  452SOL     OW 1573   5.942   2.979   5.713  0.2872  0.0932  0.0739
  452SOL    HW2 1574   5.997   3.047   5.752 -0.1622  0.5827 -0.1292
  452SOL    HW3 1575   5.904   2.933   5.788  0.5901  0.0697  0.2125
  452SOL    MW4 1576   5.944   2.982   5.728  0.3215 -0.3747  0.1370
  453SOL     OW 1577   4.537   0.725   4.764  0.4510 -0.0550 -0.2676
  453SOL    HW2 1578   4.585   0.733   4.847  0.5821  0.2536 -0.3711
  453SOL    HW3 1579   4.502   0.813   4.748  1.4729  0.2071 -1.1634
  453SOL    MW4 1580   4.539   0.738   4.773 -0.4850 -0.5515 -0.3925
  454SOL     OW 1581   0.760   1.763   4.584  0.1619  0.3787 -0.3116
  454SOL    HW2 1582   0.666   1.774   4.568  0.3052 -0.4063 -1.8814
  454SOL    HW3 1583   0.781   1.678   4.545  1.2291 -0.2130  1.4407
  454SOL    MW4 1584   0.750   1.753   4.577 -0.0562  0.1547 -0.1518
  455SOL     OW 1585   5.288   4.439   3.816 -1.1731  0.2508 -0.1599
  455SOL    HW2 1586   5.317   4.524   3.782 -0.0829  0.0771  0.2952
  455SOL    HW3 1587   5.316   4.376   3.751  1.5976 -0.1684  1.3019
  455SOL    MW4 1588   5.295   4.442   3.803 -0.1671 -0.0655  0.3631
  456SOL     OW 1589   3.677   4.374   6.039  0.0106  0.5578  0.2233
  456SOL    HW2 1590   3.687   4.428   6.117 -0.1314  0.0007  0.6366
  456SOL    HW3 1591   3.626   4.299   6.069  3.4176 -1.8407  0.6990
  456SOL    MW4 1592   3.672   4.371   6.053 -0.1659  0.5046  0.2159
  457SOL     OW 1593   1.085   4.216   0.038 -0.1714 -0.2519  0.2966
  457SOL    HW2 1594   1.025   4.290   0.024 -1.7499 -1.3310  1.0356
  457SOL    HW3 1595   1.171   4.250   0.015 -1.2833  0.7965 -2.8940
  457SOL    MW4 1596   1.088   4.230   0.033 -0.6955  0.6986 -0.1246
  458SOL     OW 1597   2.884   2.505   4.496 -0.0291 -0.2689 -0.1159
  458SOL    HW2 1598   2.866   2.579   4.438  2.1547 -0.0219 -0.5858
  458SOL    HW3 1599   2.819   2.439   4.472 -1.1225  0.9682 -0.6679
  458SOL    MW4 1600   2.873   2.506   4.485  0.1092  0.0443  0.0059
  459SOL     OW 1601   4.509   6.083   4.408  0.1178  0.3879 -0.4478
  459SOL    HW2 1602   4.562   6.054   4.334  1.6229  1.8832 -0.0137
  459SOL    HW3 1603   4.419   6.074   4.377  0.6044 -1.4142 -1.5133
  459SOL    MW4 1604   4.504   6.078   4.394  0.1552  0.5640 -0.1671
  460SOL     OW 1605   2.630   6.276   2.104  0.3497  0.0430  0.2332
  460SOL    HW2 1606   2.717   6.263   2.066  1.5709 -0.8233  3.1182
  460SOL    HW3 1607   2.625   6.370   2.121  0.5042  0.1711 -0.4046
  460SOL    MW4 1608   2.641   6.286   2.101  0.2885  0.0423  0.2288
  461SOL     OW 1609   0.840   0.876   5.995 -0.2884  0.1367 -0.3140
  461SOL    HW2 1610   0.755   0.850   6.028  0.8988 -1.5702  1.6719
  461SOL    HW3 1611   0.900   0.864   6.069  1.9906 -0.5614 -2.1268
  461SOL    MW4 1612   0.837   0.871   6.009 -0.3736  0.3899 -0.9697
  462SOL     OW 1613   2.841   4.895   2.308 -0.0255  0.2455 -0.2395
  462SOL    HW2 1614   2.772   4.960   2.294  0.0579  0.6149  0.9482
  462SOL    HW3 1615   2.810   4.817   2.262 -1.7351  0.0698  1.1111
  462SOL    MW4 1616   2.828   4.893   2.300 -0.4280  0.2906  0.5837
  463SOL     OW 1617   4.017   6.414   0.471 -0.5119 -0.6563 -0.8970
  463SOL    HW2 1618   3.925   6.399   0.494 -0.2254 -0.7403  0.2563
  463SOL    HW3 1619   4.019   6.505   0.440 -1.0409 -0.7571 -1.2346
  463SOL    MW4 1620   4.005   6.424   0.470  0.0137 -0.1014 -0.0657
  464SOL     OW 1621   4.541   5.280   5.514  0.3814 -0.2474 -0.4822
  464SOL    HW2 1622   4.509   5.259   5.426 -0.0409 -1.6070 -0.0309
  464SOL    HW3 1623   4.462   5.282   5.568  0.6508  0.4686 -0.1074
  464SOL    MW4 1624   4.526   5.277   5.510 -0.5676 -0.1081 -0.5703
  465SOL     OW 1625   5.662   3.676   4.001 -0.2384  0.0730  0.0050
  465SOL    HW2 1626   5.623   3.608   3.946 -3.5176  2.1572 -0.5889
  465SOL    HW3 1627   5.591   3.739   4.014  2.0100  2.4089  2.1486
  465SOL    MW4 1628   5.647   3.675   3.996  0.0922  0.3104 -0.1574
  466SOL     OW 1629   4.974   5.127   1.129  0.3611 -0.1368  0.0587
  466SOL    HW2 1630   5.003   5.189   1.197 -4.0840  1.2731  0.9850
  466SOL    HW3 1631   4.951   5.048   1.178  0.4671 -0.4118 -0.3328
  466SOL    MW4 1632   4.975   5.125   1.145  0.1050 -0.2504  0.7030
  467SOL     OW 1633   5.635   0.216   4.896 -0.8725  0.3202  0.0556
  467SOL    HW2 1634   5.559   0.254   4.940 -0.0480  0.2369  1.6273
  467SOL    HW3 1635   5.697   0.198   4.967  0.0979 -0.8211 -1.0374
  467SOL    MW4 1636   5.633   0.218   4.911 -0.1410 -0.0545  0.2365
  468SOL     OW 1637   2.701   4.997   1.910  0.1195  0.5356  0.6432
  468SOL    HW2 1638   2.738   5.072   1.956  0.9599  1.1040 -0.8967
  468SOL    HW3 1639   2.746   4.996   1.826  1.0798 -2.4726  1.0747
  468SOL    MW4 1640   2.712   5.007   1.905  0.0612  0.3170  0.2027
  469SOL     OW 1641   4.958   5.331   0.306  0.4230  0.1346 -0.0730
  469SOL    HW2 1642   4.902   5.391   0.257  0.0008 -0.3384 -0.1808
  469SOL    HW3 1643   4.897   5.275   0.354  0.7904 -0.5754 -0.4148
  469SOL    MW4 1644   4.943   5.332   0.306 -0.3934  0.6519 -0.0179
  470SOL     OW 1645   0.448   5.107   2.079  0.1673 -0.2115 -0.0646
  470SOL    HW2 1646   0.424   5.190   2.039 -1.8177 -0.1346  1.1504
  470SOL    HW3 1647   0.530   5.082   2.036 -0.4202  1.1874 -2.1415
  470SOL    MW4 1648   0.456   5.114   2.068  0.0243  0.3722  0.3656
  471SOL     OW 1649   2.808   0.969   3.872  0.3974  0.1153 -0.0429
  471SOL    HW2 1650   2.889   0.930   3.906  0.1038  0.8148  1.5436
  471SOL    HW3 1651   2.829   0.991   3.781  1.2370 -1.7989 -0.3776
  471SOL    MW4 1652   2.822   0.967   3.864  0.3327 -0.7176  0.1158
  472SOL     OW 1653   4.834   2.946   5.346  0.0177 -0.2235  0.3439
  472SOL    HW2 1654   4.910   2.912   5.393 -0.1738  0.2950  1.0476
  472SOL    HW3 1655   4.783   2.992   5.413 -0.2915  0.4921 -0.3630
  472SOL    MW4 1656   4.837   2.948   5.361 -0.2233  0.7744 -0.4088
  473SOL     OW 1657   1.730   5.094   2.326  0.5091 -0.2252 -0.5139
  473SOL    HW2 1658   1.806   5.036   2.330  1.0889  0.5899  2.1371
  473SOL    HW3 1659   1.727   5.123   2.235  1.8097 -2.2690 -1.2793
  473SOL    MW4 1660   1.740   5.090   2.315  0.1723 -0.0421 -0.3923
  474SOL     OW 1661   5.629   0.172   2.350 -0.5174 -0.2643 -0.0892
  474SOL    HW2 1662   5.626   0.079   2.371  0.3408 -0.3479 -0.2701
  474SOL    HW3 1663   5.544   0.206   2.377 -1.1679 -1.2616 -0.7989
  474SOL    MW4 1664   5.618   0.164   2.356  0.2246 -0.6444 -0.5289
  475SOL     OW 1665   4.122   5.612   4.788  0.2051  0.3543  0.4598
  475SOL    HW2 1666   4.093   5.696   4.824  1.9579  1.0490  0.3482
  475SOL    HW3 1667   4.207   5.597   4.828  0.5350 -0.6897 -0.5840
  475SOL    MW4 1668   4.129   5.622   4.798 -0.4516 -0.1228  0.3126
  476SOL     OW 1669   2.189   3.101   4.008  0.4113 -0.4267 -0.4699
  476SOL    HW2 1670   2.245   3.177   4.023 -0.7477  0.2076  0.8812
  476SOL    HW3 1671   2.162   3.073   4.096 -0.4378 -1.4353 -1.0257
  476SOL    MW4 1672   2.193   3.107   4.022  0.1911 -0.2374 -0.3411
  477SOL     OW 1673   2.066   0.590   3.947 -0.3672 -0.2310 -0.2547
  477SOL    HW2 1674   2.039   0.508   3.904  0.4806 -1.6020  1.6688
  477SOL    HW3 1675   2.157   0.601   3.921 -0.2467 -0.3293  0.1324
  477SOL    MW4 1676   2.074   0.580   3.938  0.2232  0.0698 -0.5912
  478SOL     OW 1677   5.390   2.100   0.965 -0.0707  0.0714 -0.3205
  478SOL    HW2 1678   5.317   2.156   0.992 -0.8507 -1.0842  0.0276
  478SOL    HW3 1679   5.354   2.048   0.893  1.7454  2.5828 -3.2726
  478SOL    MW4 1680   5.375   2.100   0.959  0.1089  0.4122  0.2276
  479SOL     OW 1681   1.549   5.424   1.706  0.1550  0.5121 -0.4439
  479SOL    HW2 1682   1.540   5.479   1.629 -1.1411  0.1123 -0.6062
  479SOL    HW3 1683   1.468   5.372   1.708  0.5546 -0.1054  0.6900
  479SOL    MW4 1684   1.537   5.424   1.696  0.1216  0.5711 -0.0388
  480SOL     OW 1685   3.187   1.458   4.185 -0.7503  0.1292 -0.3375
  480SOL    HW2 1686   3.159   1.432   4.273  0.8847 -0.5590  0.0163
  480SOL    HW3 1687   3.173   1.379   4.132  0.6769 -0.3140 -0.0975
  480SOL    MW4 1688   3.182   1.444   4.189 -0.2779 -0.2566  0.2324
  481SOL     OW 1689   0.204   5.562   6.034  0.5735  0.0769 -0.1036
  481SOL    HW2 1690   0.163   5.520   6.109 -1.0389  0.3901 -0.7651
  481SOL    HW3 1691   0.132   5.606   5.989  0.9850 -2.0588 -3.1677
  481SOL    MW4 1692   0.189   5.562   6.038 -0.6583  0.1059 -0.3192
  482SOL     OW 1693   4.078   0.237   0.367  0.1847 -0.0900 -0.4332
  482SOL    HW2 1694   4.100   0.309   0.425 -0.2492  1.1421 -1.7227
  482SOL    HW3 1695   4.018   0.276   0.303  1.3063 -1.1325 -2.2186
  482SOL    MW4 1696   4.073   0.252   0.366 -0.1072  0.2760  0.2530
  483SOL     OW 1697   4.939   1.930   2.665 -0.5216  0.4018 -0.2645
  483SOL    HW2 1698   5.034   1.936   2.681 -0.5544  0.0940  0.0475
  483SOL    HW3 1699   4.899   1.940   2.751 -0.6519 -2.4608  0.0873
  483SOL    MW4 1700   4.947   1.932   2.678 -0.1034  0.1615 -0.2370
  484SOL     OW 1701   6.162   1.534   3.792 -0.1109 -0.7821 -0.7362
  484SOL    HW2 1702   6.122   1.573   3.870  1.5816 -0.6364  0.1036
  484SOL    HW3 1703   6.094   1.476   3.757 -0.7831 -1.1393  1.0500
  484SOL    MW4 1704   6.148   1.532   3.798  0.1056  0.0453 -0.4178
  485SOL     OW 1705   3.682   0.134   2.466 -0.3331  0.1752 -0.3889
  485SOL    HW2 1706   3.730   0.191   2.405  2.0419 -0.8063  0.4507
  485SOL    HW3 1707   3.653   0.193   2.535 -2.0492  1.1029 -1.8147
  485SOL    MW4 1708   3.684   0.150   2.467  0.0957  0.1785  0.1425
  486SOL     OW 1709   3.824   3.141   6.415 -0.1790 -0.5020  0.4476
  486SOL    HW2 1710   3.804   3.072   6.351 -0.8527  0.2267 -0.1433
  486SOL    HW3 1711   3.738   3.172   6.444  0.1179  0.2204  0.5693
  486SOL    MW4 1712   3.810   3.136   6.411  0.0554  0.1855 -0.2335
  487SOL     OW 1713   3.660   4.365   3.193  0.0375  0.3053  0.4401
  487SOL    HW2 1714   3.684   4.336   3.105  0.9198 -0.2803  0.8608
  487SOL    HW3 1715   3.738   4.409   3.226  0.4525 -1.2606  1.6734
  487SOL    MW4 1716   3.674   4.367   3.186 -0.2133 -0.2829 -0.1775
  488SOL     OW 1717   5.748   3.062   5.197 -0.4851  0.1682 -0.0647
  488SOL    HW2 1718   5.762   3.034   5.107 -1.9448  0.7661 -0.5103
  488SOL    HW3 1719   5.666   3.019   5.223  0.1107 -0.2988  1.1209
  488SOL    MW4 1720   5.739   3.052   5.189  0.4122 -0.2321  0.7512
  489SOL     OW 1721   1.981   0.074   6.363  0.7919  0.0398  0.0277
  489SOL    HW2 1722   1.985  -0.008   6.315 -1.0304 -0.2726  0.3442
  489SOL    HW3 1723   1.930   0.054   6.441  1.8066  1.0744  0.9893
  489SOL    MW4 1724   1.975   0.061   6.367 -0.2170  0.3827 -0.4089
  490SOL     OW 1725   2.376   6.101   4.990 -0.2430 -0.2997 -0.3683
  490SOL    HW2 1726   2.281   6.094   4.980 -0.3385 -0.1839  0.4397
  490SOL    HW3 1727   2.388   6.174   5.051  0.2553 -2.0938  1.7724
  490SOL    MW4 1728   2.365   6.110   4.997 -0.3023 -0.3617  0.2625
  491SOL     OW 1729   0.934   0.357   1.357 -0.9786  0.1528  0.3062
  491SOL    HW2 1730   0.894   0.315   1.433 -1.9579  3.6902  2.0016
  491SOL    HW3 1731   1.028   0.358   1.378 -1.2531  1.2831  1.7028
  491SOL    MW4 1732   0.941   0.352   1.370  0.0602 -0.1828 -0.9113
  492SOL     OW 1733   2.670   6.165   1.015  0.2133 -0.4225 -0.3232
  492SOL    HW2 1734   2.581   6.140   1.038 -0.0121  1.6026  1.2472
  492SOL    HW3 1735   2.723   6.090   1.042 -0.7856 -0.7500  0.8304
  492SOL    MW4 1736   2.665   6.152   1.022 -0.3652 -0.6078  0.1908
  493SOL     OW 1737   4.335   2.013   3.665  0.5821 -0.2181  0.4826
  493SOL    HW2 1738   4.333   2.068   3.743 -0.7286  1.3878 -0.6012
  493SOL    HW3 1739   4.428   2.006   3.643  0.8859  0.2408  1.5456
  493SOL    MW4 1740   4.347   2.019   3.672  0.5414 -0.2440  0.3698
  494SOL     OW 1741   6.270   5.253   3.054  0.4791 -0.6410 -0.4721
  494SOL    HW2 1742   6.193   5.197   3.070  1.1442 -1.6797 -0.8416
  494SOL    HW3 1743   6.333   5.227   3.121  0.7897 -0.3130 -0.6322
  494SOL    MW4 1744   6.268   5.242   3.065 -0.3226  0.2430 -0.4099
  495SOL     OW 1745   3.589   4.121   3.277  0.5714 -0.5203  0.0929
  495SOL    HW2 1746   3.639   4.120   3.359  0.1512  0.5973  0.3857
  495SOL    HW3 1747   3.599   4.210   3.244 -0.1087 -0.6704 -0.5510
  495SOL    MW4 1748   3.597   4.132   3.283 -0.3567 -0.1454  0.2590
  496SOL     OW 1749   2.405   5.116   4.797 -0.1483 -0.0157 -0.8596
  496SOL    HW2 1750   2.451   5.111   4.713  4.3857  1.6160  1.2175
  496SOL    HW3 1751   2.429   5.201   4.833 -1.8821 -0.6602  2.1598
  496SOL    MW4 1752   2.414   5.126   4.791  0.1525 -0.7027  0.6180
  497SOL     OW 1753   4.710   5.560   1.528 -0.3623  0.2489  0.3615
  497SOL    HW2 1754   4.633   5.541   1.474  0.7658 -1.9211 -0.6256
  497SOL    HW3 1755   4.696   5.509   1.608  0.3182 -0.6909 -0.1024
  497SOL    MW4 1756   4.698   5.551   1.531 -0.1019  0.4256 -0.0268
  498SOL     OW 1757   0.649   5.484   1.626 -0.0170  0.3491 -0.3984
  498SOL    HW2 1758   0.585   5.543   1.666 -0.9293 -0.9029  0.0734
  498SOL    HW3 1759   0.727   5.538   1.613 -0.2309  1.2290  1.6028
  498SOL    MW4 1760   0.651   5.499   1.630  0.4766  0.2122 -0.0127
  499SOL     OW 1761   0.349   3.278   2.085 -0.3472  0.1476  0.6174
  499SOL    HW2 1762   0.289   3.270   2.159 -0.1069  1.1626  0.9367
  499SOL    HW3 1763   0.370   3.371   2.080  1.9056 -0.2647  1.0752
  499SOL    MW4 1764   0.344   3.289   2.094  0.0508  0.0144  0.2336
  500SOL     OW 1765   5.673   6.325   5.120 -1.1112  0.8057  0.1280
  500SOL    HW2 1766   5.741   6.392   5.117 -1.1982  0.8732 -0.6047
  500SOL    HW3 1767   5.634   6.333   5.207  0.4524  0.1180  0.9243
  500SOL    MW4 1768   5.677   6.335   5.131  0.3478 -0.6070 -0.2721
  501SOL     OW 1769   4.680   0.286   0.206 -0.6085 -0.0813 -0.0593
  501SOL    HW2 1770   4.603   0.259   0.256 -1.8004  0.3231 -1.5776
  501SOL    HW3 1771   4.649   0.358   0.151  0.8004 -0.0507 -0.8662
  501SOL    MW4 1772   4.666   0.292   0.205  0.1758  0.3811  0.2890
  502SOL     OW 1773   5.387   4.509   2.520  0.6899 -0.1163 -0.0631
  502SOL    HW2 1774   5.448   4.455   2.471  1.2890 -0.6461  1.2329
  502SOL    HW3 1775   5.441   4.554   2.585 -0.1349  0.2439  0.3909
  502SOL    MW4 1776   5.402   4.508   2.522 -0.2112  0.0308 -0.5373
  503SOL     OW 1777   0.395   1.249   4.327 -0.4013  0.4855 -0.2292
  503SOL    HW2 1778   0.426   1.222   4.414 -0.3794  0.5185 -0.2270
  503SOL    HW3 1779   0.349   1.331   4.342 -0.5526  0.3982 -0.2221
  503SOL    MW4 1780   0.393   1.256   4.341  0.0936  0.5664  0.3779
  504SOL     OW 1781   4.214   0.928   2.161 -0.3602  0.3279  0.6767
  504SOL    HW2 1782   4.222   1.014   2.119  3.5133 -0.1246  0.0360
  504SOL    HW3 1783   4.291   0.923   2.218 -0.5442 -2.6187  0.7898
  504SOL    MW4 1784   4.225   0.939   2.163 -0.0978 -0.5413 -0.2770
  505SOL     OW 1785   1.351   2.233   1.879  0.0463 -0.2793 -0.1971
  505SOL    HW2 1786   1.293   2.275   1.941  1.3060 -0.2542  1.0188
  505SOL    HW3 1787   1.360   2.143   1.910 -0.7401 -0.8132 -1.4149
  505SOL    MW4 1788   1.345   2.227   1.891  0.1786  0.4294 -0.5682
  506SOL     OW 1789   1.618   0.095   3.825  0.1989 -0.4203 -0.5541
  506SOL    HW2 1790   1.561   0.036   3.874  0.4186 -0.3600 -0.2240
  506SOL    HW3 1791   1.668   0.038   3.767  0.6010 -0.5856 -0.0455
  506SOL    MW4 1792   1.617   0.080   3.824 -0.1523  0.1302 -0.0751
  507SOL     OW 1793   4.257   1.190   1.764  0.1508  0.0048  0.3297
  507SOL    HW2 1794   4.227   1.162   1.851  0.2498  2.1158  1.1001
  507SOL    HW3 1795   4.212   1.131   1.703 -0.5596 -0.9959  1.7666
  507SOL    MW4 1796   4.247   1.179   1.768 -0.1170 -0.8110  0.1379
  508SOL     OW 1797   5.851   2.835   5.427  0.1395  0.5195 -0.1791
  508SOL    HW2 1798   5.840   2.779   5.504 -0.2169  2.8720  1.6380
  508SOL    HW3 1799   5.764   2.836   5.387 -0.6248  1.7953  1.3623
  508SOL    MW4 1800   5.838   2.828   5.432 -0.5826  0.6471  0.1873
  509SOL     OW 1801   5.332   0.979   2.164  0.0515 -0.1932 -0.1408
  509SOL    HW2 1802   5.269   1.041   2.127 -1.8111  0.3316  3.4642
  509SOL    HW3 1803   5.367   1.023   2.241  1.0750 -2.4271  0.7719
  509SOL    MW4 1804   5.329   0.993   2.169  0.0995  0.0304 -0.1241
  510SOL     OW 1805   0.505   2.946   6.276  0.3603 -0.4110  0.1856
  510SOL    HW2 1806   0.517   2.937   6.370  1.7173 -0.3967  0.0398
  510SOL    HW3 1807   0.410   2.941   6.262  0.2192 -1.5072  1.4255
  510SOL    MW4 1808   0.494   2.944   6.286 -0.0495  0.1539 -0.0265
  511SOL     OW 1809   4.551   1.082   1.365  0.3644 -0.1549  0.0523
  511SOL    HW2 1810   4.539   1.095   1.459  1.7724  1.3826  0.0526
  511SOL    HW3 1811   4.617   1.012   1.359  0.2387 -0.2872  0.1890
  511SOL    MW4 1812   4.558   1.074   1.377  0.4599 -0.1389 -0.3540
  512SOL     OW 1813   1.531   0.784   4.731  0.0953 -0.1180  0.1281
  512SOL    HW2 1814   1.526   0.695   4.697  0.4385 -0.1121  0.0560
  512SOL    HW3 1815   1.492   0.779   4.818  0.0116 -0.3153  0.0798
  512SOL    MW4 1816   1.526   0.771   4.738  0.3361  0.2466  0.1614
  513SOL     OW 1817   1.325   5.177   4.581 -0.5138  0.2244  0.1239
  513SOL    HW2 1818   1.342   5.102   4.638 -0.3814 -0.5510 -0.9045
  513SOL    HW3 1819   1.411   5.217   4.568 -0.2432 -0.6337 -0.9034
  513SOL    MW4 1820   1.339   5.173   4.587 -0.5121 -0.1592 -0.9448
  514SOL     OW 1821   0.274   1.091   4.838  0.8425 -0.0401 -0.6044
  514SOL    HW2 1822   0.266   1.183   4.863  0.4369  0.2146 -1.6294
  514SOL    HW3 1823   0.318   1.092   4.754 -0.3262 -0.7001 -1.2550
  514SOL    MW4 1824   0.278   1.103   4.831  0.0885 -0.2770 -0.5077
  515SOL     OW 1825   5.829   5.271   5.851  0.3678  0.4158  0.5500
  515SOL    HW2 1826   5.904   5.281   5.909 -0.1661  1.7707  1.0653
  515SOL    HW3 1827   5.754   5.264   5.910 -0.0495  0.4968  0.0428
  515SOL    MW4 1828   5.829   5.272   5.866  0.1165  0.2290  0.7506
  516SOL     OW 1829   2.611   5.475   3.299 -0.6097  0.0606  0.1748
  516SOL    HW2 1830   2.648   5.400   3.252  0.5906  0.1988  0.8501
  516SOL    HW3 1831   2.589   5.538   3.231 -3.9720 -1.7706 -0.6855
  516SOL    MW4 1832   2.613   5.473   3.284  0.5954  0.0458  0.5318
  517SOL     OW 1833   5.707   3.339   4.368  0.1232  0.4405 -0.5703
  517SOL    HW2 1834   5.612   3.327   4.368  0.2455 -0.7905  0.2638
  517SOL    HW3 1835   5.727   3.383   4.285 -1.2900  1.8764 -0.1942
  517SOL    MW4 1836   5.697   3.343   4.357 -0.4320 -0.2075  0.2635
  518SOL     OW 1837   2.212   6.187   2.578  0.2762 -0.0437  0.3909
  518SOL    HW2 1838   2.252   6.274   2.579  0.0967  0.0627 -0.6364
  518SOL    HW3 1839   2.128   6.199   2.621  0.7453  0.0235  1.3261
  518SOL    MW4 1840   2.206   6.200   2.584 -0.2128 -0.3858 -0.0342
  519SOL     OW 1841   4.174   0.207   4.953  0.1385 -0.4369 -0.3736
  519SOL    HW2 1842   4.149   0.224   5.044  0.8456  0.5063 -0.3468
  519SOL    HW3 1843   4.190   0.112   4.951  0.4410 -0.4239  0.5788
  519SOL    MW4 1844   4.173   0.197   4.965 -1.0305 -0.4497 -0.4613
  520SOL     OW 1845   0.050   4.364   1.486 -0.6893  0.0284  0.0030
  520SOL    HW2 1846   0.074   4.456   1.497 -1.4091  0.0424  1.7529
  520SOL    HW3 1847   0.021   4.357   1.395 -0.6357  1.5341 -0.1442
  520SOL    MW4 1848   0.049   4.375   1.476 -0.0100  0.3076  0.2253
  521SOL     OW 1849   6.203   5.738   5.610  0.2248  0.4048  0.0458
  521SOL    HW2 1850   6.226   5.692   5.690  1.4867 -0.1263 -0.5933
  521SOL    HW3 1851   6.171   5.824   5.639 -0.9195 -0.3731  1.1815
  521SOL    MW4 1852   6.201   5.743   5.624  0.7510  0.0227 -0.7970
  522SOL     OW 1853   5.781   2.977   0.397 -0.0912 -0.4088  0.4694
  522SOL    HW2 1854   5.833   2.973   0.316 -0.8949 -0.3623 -0.0658
  522SOL    HW3 1855   5.696   3.009   0.368 -0.4710 -0.6477  1.3043
  522SOL    MW4 1856   5.777   2.981   0.382  0.6179  0.2662  0.0042
  523SOL     OW 1857   0.013   4.003   4.569 -0.0213 -0.6874 -0.3350
  523SOL    HW2 1858  -0.081   4.005   4.550 -0.3480 -0.0331  1.2623
  523SOL    HW3 1859   0.041   3.916   4.538 -1.2723 -1.1538 -0.2369
  523SOL    MW4 1860   0.004   3.992   4.562  0.0258 -0.4431  0.0313
  524SOL     OW 1861   0.711   1.449   5.429 -0.3177 -0.2900 -0.6916
  524SOL    HW2 1862   0.626   1.492   5.431 -0.2623 -0.1729 -0.8364
  524SOL    HW3 1863   0.690   1.355   5.431 -0.5716 -0.3536 -3.0485
  524SOL    MW4 1864   0.697   1.442   5.429 -0.1860  0.0143 -0.3123
  525SOL     OW 1865   1.010   1.248   2.415 -0.2533 -0.2617  0.1262
  525SOL    HW2 1866   1.094   1.273   2.453 -0.9249  1.2929  0.6794
  525SOL    HW3 1867   1.031   1.218   2.326  0.6919  2.5620 -0.7224
  525SOL    MW4 1868   1.024   1.247   2.408  0.4837  0.3142  0.1740
  526SOL     OW 1869   3.119   3.655   3.061 -0.4853 -0.0111 -0.1553
  526SOL    HW2 1870   3.156   3.635   2.975 -1.6878 -0.4944 -0.5810
  526SOL    HW3 1871   3.192   3.694   3.110  0.7494 -1.5096 -0.7305
  526SOL    MW4 1872   3.134   3.658   3.056  0.3161  0.1397  0.7431
  527SOL     OW 1873   5.754   5.006   3.344 -0.3447  0.3007  0.5976
  527SOL    HW2 1874   5.752   5.094   3.307  0.0631  0.0733  0.0191
  527SOL    HW3 1875   5.696   5.010   3.421  1.3173  1.6201  1.8311
  527SOL    MW4 1876   5.746   5.018   3.350  0.3027  0.1819 -0.4181
  528SOL     OW 1877   6.363   2.875   1.833 -0.3113 -0.4057  0.3174
  528SOL    HW2 1878   6.284   2.878   1.887  0.0185 -2.1485  0.9809
  528SOL    HW3 1879   6.336   2.829   1.753  0.1435 -1.6037  0.8250
  528SOL    MW4 1880   6.349   2.869   1.829  0.6317  0.5364 -0.1705
  529SOL     OW 1881   1.870   4.126   1.602  0.9948 -0.0243  0.2801
  529SOL    HW2 1882   1.820   4.048   1.625  1.4996 -0.1847  0.8744
  529SOL    HW3 1883   1.961   4.095   1.597  1.0691  0.3008 -0.5776
  529SOL    MW4 1884   1.876   4.112   1.604  0.2023 -0.1680  0.0783
  530SOL     OW 1885   2.589   2.095   1.422  0.0990  0.0738  0.2711
  530SOL    HW2 1886   2.592   2.004   1.394 -0.5518  0.7361 -2.2759
  530SOL    HW3 1887   2.659   2.104   1.486  2.4992 -1.4589 -1.9426
  530SOL    MW4 1888   2.598   2.084   1.427  0.2709 -0.6781  0.3812
  531SOL     OW 1889   1.783   4.656   4.741  0.7997 -0.1558  0.1827
  531SOL    HW2 1890   1.777   4.751   4.732  0.2026 -0.3672 -2.5583
  531SOL    HW3 1891   1.703   4.632   4.787 -0.0743  0.5311 -0.9175
  531SOL    MW4 1892   1.771   4.666   4.745 -0.4665 -0.5470  0.0749
  532SOL     OW 1893   3.000   2.193   3.423 -0.7050  0.1926  0.2338
  532SOL    HW2 1894   3.089   2.184   3.387 -1.2611 -2.9467 -0.6510
  532SOL    HW3 1895   2.948   2.226   3.350 -0.5250  0.7877  0.3681
  532SOL    MW4 1896   3.005   2.197   3.409 -0.0186  0.1704  0.1825
  533SOL     OW 1897   3.053   5.688   3.200 -0.0594 -0.5593  0.0752
  533SOL    HW2 1898   3.103   5.749   3.146  1.0920 -1.8430 -0.3684
  533SOL    HW3 1899   3.066   5.719   3.289  0.6127 -0.2314 -0.1340
  533SOL    MW4 1900   3.061   5.700   3.205 -1.0922 -0.1170  0.0326
  534SOL     OW 1901   2.129   4.534   2.500 -0.5763  0.3758  0.6232
  534SOL    HW2 1902   2.175   4.618   2.496  0.1012 -0.0343 -1.2486
  534SOL    HW3 1903   2.192   4.473   2.538 -1.0187  0.6495  1.8468
  534SOL    MW4 1904   2.143   4.537   2.505 -0.0934 -0.1301  0.7245
  535SOL     OW 1905   4.726   2.715   2.126  0.3874 -0.3962 -0.6897
  535SOL    HW2 1906   4.782   2.651   2.082 -1.5678 -3.0410  0.3355
  535SOL    HW3 1907   4.699   2.671   2.207  1.7720  3.2225  2.0322
  535SOL    MW4 1908   4.730   2.700   2.131 -0.0541 -0.2982 -1.1508
  536SOL     OW 1909   1.246   5.434   3.768  0.6502 -0.0880 -0.1551
  536SOL    HW2 1910   1.205   5.483   3.838  0.9915  1.8341 -1.2122
  536SOL    HW3 1911   1.240   5.492   3.692 -1.1679 -2.7026 -2.1921
  536SOL    MW4 1912   1.240   5.448   3.767  0.0206  0.2186  0.3521
  537SOL     OW 1913   0.140   1.191   6.311 -0.4217 -0.1150 -0.0589
  537SOL    HW2 1914   0.066   1.203   6.252  0.0566  2.1940 -0.2905
  537SOL    HW3 1915   0.158   1.278   6.345  0.3727 -1.1081  2.2697
  537SOL    MW4 1916   0.133   1.204   6.307  0.0114  0.7817 -0.2808
  538SOL     OW 1917   4.994   5.430   0.709  0.6245  0.4649 -0.3108
  538SOL    HW2 1918   4.969   5.456   0.797 -1.2750  0.4354 -0.7927
  538SOL    HW3 1919   5.036   5.344   0.720 -0.3084  0.1009  0.4901
  538SOL    MW4 1920   4.997   5.422   0.722  0.1452  0.1355  0.3120
  539SOL     OW 1921   6.370   5.410   5.860 -0.1174 -0.2010 -0.1214
  539SOL    HW2 1922   6.442   5.362   5.901 -1.0093 -3.3565 -1.8912
  539SOL    HW3 1923   6.406   5.441   5.777 -0.9614 -3.0288 -1.6971
  539SOL    MW4 1924   6.384   5.408   5.854 -0.2560 -0.1898  0.2884
  540SOL     OW 1925   6.156   2.432   5.018 -0.4099 -0.1537 -0.2785
  540SOL    HW2 1926   6.106   2.514   5.015 -1.7587 -0.9269  0.2247
  540SOL    HW3 1927   6.210   2.434   4.939 -2.1993  0.1329 -1.5577
  540SOL    MW4 1928   6.156   2.443   5.007  0.1156 -0.0924 -0.0784
  541SOL     OW 1929   1.239   3.399   4.657 -0.2472 -0.5820  0.2899
  541SOL    HW2 1930   1.289   3.470   4.698 -0.4953 -0.7164  0.8366
  541SOL    HW3 1931   1.237   3.421   4.564  0.6033 -0.4395  0.3045
  541SOL    MW4 1932   1.245   3.411   4.650  0.2198  0.3572  0.4388
  542SOL     OW 1933   3.909   6.375   6.141 -0.5748  0.1265 -0.0370
  542SOL    HW2 1934   3.840   6.312   6.122 -0.6805  0.1291  0.3215
  542SOL    HW3 1935   3.990   6.324   6.133 -0.7126 -0.3922  1.4352
  542SOL    MW4 1936   3.911   6.360   6.138  0.4487 -0.0046  0.2337
  543SOL     OW 1937   6.189   5.740   4.520  0.0440 -0.0102 -0.4652
  543SOL    HW2 1938   6.281   5.761   4.539 -0.2839  0.3135  0.8907
  543SOL    HW3 1939   6.140   5.785   4.589 -0.9907 -1.7522 -0.0099
  543SOL    MW4 1940   6.195   5.749   4.532  0.3997 -0.0883 -0.0187
  544SOL     OW 1941   3.286   2.103   5.244  0.0849 -0.0135  0.3340
  544SOL    HW2 1942   3.379   2.113   5.266  0.0712  0.1175  0.3304
  544SOL    HW3 1943   3.286   2.087   5.150  0.1422 -0.5540  0.4226
  544SOL    MW4 1944   3.299   2.102   5.235  0.1239 -1.2057  0.0639
  545SOL     OW 1945   1.049   2.914   0.808 -0.0323  0.5830  0.5290
  545SOL    HW2 1946   1.100   2.838   0.836 -0.8653 -0.0554  0.3545
  545SOL    HW3 1947   1.097   2.949   0.733 -0.0802 -0.2700  0.0847
  545SOL    MW4 1948   1.062   2.909   0.802 -0.5828  0.0217  0.0877
  546SOL     OW 1949   5.475   4.491   2.825  0.1198 -0.8104  0.1154
  546SOL    HW2 1950   5.567   4.491   2.799 -0.2219 -2.2406 -1.2538
  546SOL    HW3 1951   5.475   4.525   2.914  1.7816  0.7256 -0.4078
  546SOL    MW4 1952   5.487   4.496   2.833 -0.5623  0.1474  0.0924
  547SOL     OW 1953   4.328   4.124   2.606  0.5423  0.5340  0.1745
  547SOL    HW2 1954   4.312   4.125   2.700  1.4850  1.9518  0.3536
  547SOL    HW3 1955   4.378   4.204   2.589  1.4282 -0.2936 -1.3488
  547SOL    MW4 1956   4.332   4.135   2.616 -0.3770 -0.1904  0.2855
  548SOL     OW 1957   3.433   1.706   3.624  0.1720  0.2972 -0.2019
  548SOL    HW2 1958   3.498   1.665   3.681 -0.6624 -0.1201  0.4653
  548SOL    HW3 1959   3.352   1.657   3.640 -0.3861  1.0058 -0.7859
  548SOL    MW4 1960   3.431   1.694   3.634  0.7900 -0.2301 -0.0242
  549SOL     OW 1961   5.029   3.443   1.083 -0.0082 -0.0016  0.1992
  549SOL    HW2 1962   5.045   3.521   1.030 -1.0244  0.4577  0.5397
  549SOL    HW3 1963   5.106   3.389   1.070 -0.1582  0.1797 -1.6013
  549SOL    MW4 1964   5.041   3.447   1.074  0.5711 -1.0506  0.1603
  550SOL     OW 1965   2.378   3.910   2.877 -0.2860 -0.2111  0.2713
  550SOL    HW2 1966   2.412   3.895   2.965  0.5566 -0.9844 -0.1750
  550SOL    HW3 1967   2.362   4.005   2.874  1.5153  0.1500  0.6277
  550SOL    MW4 1968   2.380   3.921   2.888  0.1700  0.4518  0.1592
  551SOL     OW 1969   5.381   1.549   2.022  0.5737 -0.1020 -0.2564
  551SOL    HW2 1970   5.454   1.549   1.961  0.9644 -1.2246  0.1784
  551SOL    HW3 1971   5.351   1.640   2.024  0.5250 -0.0260 -2.1353
  551SOL    MW4 1972   5.386   1.561   2.014  0.7822 -0.3133  0.4367
  552SOL     OW 1973   1.300   2.192   0.674  0.1823 -0.2246  0.1037
  552SOL    HW2 1974   1.386   2.223   0.644 -0.0630 -0.8603 -1.3240
  552SOL    HW3 1975   1.318   2.107   0.713  0.1687 -0.5014 -0.4834
  552SOL    MW4 1976   1.314   2.185   0.675 -0.7498  0.2555 -0.1650
  553SOL     OW 1977   4.528   0.950   0.446  0.2678 -0.5975 -0.3217
  553SOL    HW2 1978   4.569   0.887   0.506  0.3165 -0.5593 -0.3147
  553SOL    HW3 1979   4.601   0.987   0.396  0.7349  1.8839  1.9298
  553SOL    MW4 1980   4.543   0.947   0.448 -0.1020  0.4859  0.1066
  554SOL     OW 1981   1.139   3.126   1.330  0.7424 -0.8597  0.5801
  554SOL    HW2 1982   1.136   3.110   1.236  0.2230 -0.9126  0.6029
  554SOL    HW3 1983   1.059   3.176   1.349  1.7238  0.7568  0.7015
  554SOL    MW4 1984   1.128   3.131   1.320 -0.5478 -0.0127  0.1189
  555SOL     OW 1985   6.123   5.472   3.566  0.1384 -0.1050 -0.1801
  555SOL    HW2 1986   6.060   5.477   3.638 -1.2286 -1.5650 -1.2007
  555SOL    HW3 1987   6.086   5.530   3.499 -0.0163 -0.8239 -0.7170
  555SOL    MW4 1988   6.110   5.481   3.567 -0.3469  0.0055 -0.6327
  556SOL     OW 1989   3.500   4.938   0.516 -0.4149  0.0952  0.3748
  556SOL    HW2 1990   3.596   4.936   0.514 -0.3725  0.9730  0.7933
  556SOL    HW3 1991   3.473   4.878   0.447  0.4490  0.6122 -0.4442
  556SOL    MW4 1992   3.509   4.930   0.507 -0.2148 -0.2372  0.1221
  557SOL     OW 1993   3.622   3.790   2.396  0.1002 -0.1107 -0.9203
  557SOL    HW2 1994   3.609   3.857   2.329  0.9008 -0.9566 -1.9715
  557SOL    HW3 1995   3.717   3.780   2.402  0.0299 -0.1696  0.2331
  557SOL    MW4 1996   3.633   3.797   2.388 -0.1148 -0.5586 -0.1779
  558SOL     OW 1997   2.030   2.683   4.496 -0.6860 -0.0764 -0.2518
  558SOL    HW2 1998   2.030   2.774   4.524 -0.6666  0.0878 -0.7731
  558SOL    HW3 1999   1.940   2.653   4.509 -0.0653 -0.9171  2.8301
  558SOL    MW4 2000   2.019   2.691   4.501 -0.3484  0.1460 -0.5756
  559SOL     OW 2001   3.520   5.540   0.021  0.7252 -0.2826 -0.6008
  559SOL    HW2 2002   3.531   5.510   0.111 -0.2985 -1.4645 -0.8347
  559SOL    HW3 2003   3.505   5.634   0.028  2.2082 -0.0891  0.3269
  559SOL    MW4 2004   3.519   5.548   0.034  0.0207 -0.0765  0.0224
  560SOL     OW 2005   1.929   5.323   1.776  0.1083 -0.0060  0.5314
  560SOL    HW2 2006   1.952   5.402   1.727 -2.4034  0.1553 -0.5514
  560SOL    HW3 2007   1.858   5.351   1.834  0.7727 -0.9676  1.8491
  560SOL    MW4 2008   1.922   5.337   1.777 -0.0772 -0.0709 -0.1959
  561SOL     OW 2009   0.139   2.007   0.172  0.2368  0.4653  0.2397
  561SOL    HW2 2010   0.060   2.014   0.224  0.8437 -1.0723  1.4373
  561SOL    HW3 2011   0.107   2.001   0.081 -0.9226  1.2161  0.5744
  561SOL    MW4 2012   0.124   2.007   0.167 -0.2973 -0.1937 -0.6849
  562SOL     OW 2013   2.827   3.856   0.946  0.7183  0.0981 -0.4444
  562SOL    HW2 2014   2.825   3.800   1.024 -1.7246 -0.6608 -0.9786
  562SOL    HW3 2015   2.876   3.804   0.881  0.5083 -0.3927 -0.2121
  562SOL    MW4 2016   2.833   3.841   0.948  0.0007 -0.1289  0.0182
  563SOL     OW 2017   1.478   3.742   3.260 -0.1258  0.0313 -0.0481
  563SOL    HW2 2018   1.572   3.730   3.272 -0.2404 -2.1728 -0.9378
  563SOL    HW3 2019   1.439   3.702   3.337 -0.3629  0.0842 -0.1414
  563SOL    MW4 2020   1.485   3.735   3.272  0.3903 -0.5066  0.3077
  564SOL     OW 2021   1.794   2.555   3.624 -0.3783 -0.4447 -0.0351
  564SOL    HW2 2022   1.789   2.485   3.558 -0.3268 -1.1637  0.7189
  564SOL    HW3 2023   1.724   2.615   3.599 -0.1765 -0.5592 -0.9169
  564SOL    MW4 2024   1.784   2.554   3.612 -0.4766  0.0503  0.3341
  565SOL     OW 2025   2.963   3.351   5.532  0.5008  0.1383 -0.0767
  565SOL    HW2 2026   3.012   3.353   5.450 -0.6399  1.4574 -0.7699
  565SOL    HW3 2027   2.909   3.272   5.526  0.8430 -0.0785 -0.3321
  565SOL    MW4 2028   2.963   3.341   5.520 -0.1592 -0.2899  0.0555
  566SOL     OW 2029   4.882   1.491   4.431 -0.1683 -0.2047  0.4936
  566SOL    HW2 2030   4.898   1.490   4.337  0.0855  0.0699  0.5333
  566SOL    HW3 2031   4.966   1.469   4.470 -0.6306 -1.9133  0.6183
  566SOL    MW4 2032   4.895   1.488   4.424 -0.6960  0.0505 -0.0895
  567SOL     OW 2033   5.521   2.384   3.488  0.5007 -0.6310  0.3163
  567SOL    HW2 2034   5.586   2.449   3.463  0.9490 -1.0781  0.2982
  567SOL    HW3 2035   5.572   2.313   3.528 -0.0178 -0.7890  0.7112
  567SOL    MW4 2036   5.536   2.383   3.490  0.1510 -0.1058  0.5436
  568SOL     OW 2037   3.782   6.285   2.064 -0.0246 -0.1821  0.4023
  568SOL    HW2 2038   3.713   6.227   2.095 -0.8081 -1.1815 -2.7988
  568SOL    HW3 2039   3.863   6.245   2.095 -0.6590 -2.0796 -0.2514
  568SOL    MW4 2040   3.784   6.272   2.072  0.5621 -0.1164 -0.2070
  569SOL     OW 2041   4.499   1.116   1.631 -0.7667 -0.4852  0.0230
  569SOL    HW2 2042   4.430   1.150   1.689 -0.6285  2.2687 -1.2312
  569SOL    HW3 2043   4.580   1.133   1.679 -0.7570  0.0997 -0.1904
  569SOL    MW4 2044   4.501   1.123   1.645 -0.8475  0.0418  0.4805
  570SOL     OW 2045   5.215   3.123   4.500 -0.5686  0.0612  0.1119
  570SOL    HW2 2046   5.271   3.180   4.448 -1.2337  0.9516  0.3593
  570SOL    HW3 2047   5.244   3.034   4.478  2.6953  0.4767  2.1325
  570SOL    MW4 2048   5.226   3.119   4.490 -0.0741 -0.2391  0.8136
  571SOL     OW 2049   2.882   5.543   1.369  0.2546 -0.3439  0.8950
  571SOL    HW2 2050   2.977   5.553   1.362  0.0452  1.1046 -0.5890
  571SOL    HW3 2051   2.858   5.600   1.442  0.1916  2.4628 -1.1476
  571SOL    MW4 2052   2.891   5.552   1.378  0.0287 -0.1113 -0.3621
  572SOL     OW 2053   2.685   5.748   5.309  0.2015 -0.5547 -0.0223
  572SOL    HW2 2054   2.695   5.654   5.295  1.1402 -0.8969  2.3472
  572SOL    HW3 2055   2.767   5.786   5.276  0.6919 -0.8502  0.8112
  572SOL    MW4 2056   2.697   5.741   5.303  0.5120 -0.0527 -0.0992
  573SOL     OW 2057   5.387   4.764   3.410 -0.1541 -0.4210  0.3013
  573SOL    HW2 2058   5.350   4.852   3.424  0.9970  0.0965  0.2251
  573SOL    HW3 2059   5.320   4.718   3.359 -0.8801  0.3349  0.5459
  573SOL    MW4 2060   5.373   4.770   3.405  0.1150  0.0495  0.1527
  574SOL     OW 2061   0.350   4.558   3.482 -0.0476  0.2987  0.3544
  574SOL    HW2 2062   0.315   4.551   3.393  1.1953  2.3559 -0.3941
  574SOL    HW3 2063   0.294   4.622   3.525  0.7868  1.1812  0.1873
  574SOL    MW4 2064   0.338   4.565   3.476 -0.6630 -0.1393 -0.1128
  575SOL     OW 2065   5.447   0.714   2.981 -0.2466  0.2145 -0.0989
  575SOL    HW2 2066   5.538   0.685   2.979 -0.6817 -1.2063 -1.3506
  575SOL    HW3 2067   5.405   0.656   3.046 -0.5961 -0.2544 -0.7364
  575SOL    MW4 2068   5.453   0.702   2.990  0.1726 -0.2263  0.6158
  576SOL     OW 2069   1.795   6.301   3.757 -0.4625  0.3692 -0.3213
  576SOL    HW2 2070   1.852   6.376   3.773 -0.6596  0.5921 -0.6436
  576SOL    HW3 2071   1.821   6.236   3.822 -1.3913  1.3159  1.0286
  576SOL    MW4 2072   1.806   6.302   3.767 -0.4194 -0.5763 -0.2946
  577SOL     OW 2073   0.109   2.598   0.476 -0.3735 -0.1786  0.5891
  577SOL    HW2 2074   0.015   2.610   0.493 -0.2472  0.5609  0.8300
  577SOL    HW3 2075   0.128   2.510   0.508 -1.0225 -0.4098  0.3680
  577SOL    MW4 2076   0.099   2.588   0.482 -1.0594  0.0116  0.2682
  578SOL     OW 2077   1.510   4.399   1.449 -0.0175  0.4276 -0.1911
  578SOL    HW2 2078   1.552   4.462   1.508  0.7815  0.0715 -0.3718
  578SOL    HW3 2079   1.445   4.451   1.402 -0.2629  0.8448  0.5829
  578SOL    MW4 2080   1.507   4.414   1.451 -0.4111 -0.1847 -0.5533
  579SOL     OW 2081   6.097   1.566   4.200 -0.7219 -0.2534  0.5953
  579SOL    HW2 2082   6.110   1.477   4.166  0.7235  0.2772 -0.3553
  579SOL    HW3 2083   6.162   1.574   4.269 -0.2789  0.3291  0.1194
  579SOL    MW4 2084   6.107   1.555   4.205  0.2998  0.1301 -0.3016
  580SOL     OW 2085   1.592   0.421   3.936  0.4203 -0.1754 -0.2733
  580SOL    HW2 2086   1.625   0.379   3.857  2.4037 -0.2407  0.5279
  580SOL    HW3 2087   1.523   0.363   3.967  1.1958 -1.3754 -0.7169
  580SOL    MW4 2088   1.588   0.408   3.930  0.0880  0.1100 -0.0671
  581SOL     OW 2089   2.452   3.314   0.275  0.2143 -0.1745  0.0294
  581SOL    HW2 2090   2.428   3.404   0.297 -0.1250 -0.6954  2.0282
  581SOL    HW3 2091   2.548   3.312   0.285  0.5343  0.4604 -2.2385
  581SOL    MW4 2092   2.462   3.326   0.279  0.0790 -0.1359 -0.4370
  582SOL     OW 2093   3.228   4.175   6.019  0.4704 -0.6857  0.6194
  582SOL    HW2 2094   3.323   4.165   6.018  0.5640 -0.0907  1.8737
  582SOL    HW3 2095   3.196   4.108   5.958  1.8074  0.6772 -1.7207
  582SOL    MW4 2096   3.236   4.165   6.011  0.3035 -0.3275  0.1647
  583SOL     OW 2097   3.972   6.142   3.463 -0.1577 -0.1504  0.4494
  583SOL    HW2 2098   3.972   6.232   3.432  1.4553 -0.0819  0.5889
  583SOL    HW3 2099   3.990   6.148   3.556 -0.2045 -0.6209  0.4931
  583SOL    MW4 2100   3.974   6.154   3.471  0.2186  0.1144 -0.2388
  584SOL     OW 2101   3.562   4.707   1.612  0.3609  0.1713 -0.0138
  584SOL    HW2 2102   3.513   4.737   1.688 -0.5944 -0.1292 -0.4937
  584SOL    HW3 2103   3.585   4.787   1.565  0.3033  0.3151  0.2018
  584SOL    MW4 2104   3.558   4.722   1.616 -0.2936  0.0324 -0.0196
  585SOL     OW 2105   4.205   6.016   2.962  0.2296  0.2133 -0.2056
  585SOL    HW2 2106   4.226   6.063   2.881  0.0529 -0.6663 -0.7833
  585SOL    HW3 2107   4.222   5.924   2.941  2.7085  0.1807  1.5757
  585SOL    MW4 2108   4.210   6.010   2.949  0.4936 -0.2097 -0.3162
  586SOL     OW 2109   0.991   3.040   3.642 -0.6132  0.5449  0.0012
  586SOL    HW2 2110   0.899   3.060   3.627 -0.8601 -0.3745  0.2022
  586SOL    HW3 2111   1.032   3.124   3.661 -0.7563  1.4704 -3.1902
  586SOL    MW4 2112   0.985   3.053   3.643 -0.4545 -0.0795  0.0074
  587SOL     OW 2113   5.130   5.207   5.963  0.0161 -0.2820  0.1889
  587SOL    HW2 2114   5.177   5.272   5.909  2.1114 -1.1565  0.8638
  587SOL    HW3 2115   5.041   5.205   5.926  0.6304  1.0820 -1.4969
  587SOL    MW4 2116   5.124   5.216   5.951 -0.1032 -0.3042 -0.4007
  588SOL     OW 2117   4.885   4.091   5.328  0.5382 -0.0118  0.2406
  588SOL    HW2 2118   4.869   4.087   5.233 -1.4797 -1.6024  0.6021
  588SOL    HW3 2119   4.906   4.183   5.344  1.9174  0.1194 -1.8693
  588SOL    MW4 2120   4.886   4.103   5.317 -0.3953  0.4921 -0.4509
  589SOL     OW 2121   4.199   0.798   5.339  0.6059  0.2915  0.6624
  589SOL    HW2 2122   4.183   0.878   5.389 -2.1600  0.2916 -0.0527
  589SOL    HW3 2123   4.191   0.825   5.247  0.7755 -0.5985  0.3770
  589SOL    MW4 2124   4.196   0.812   5.333  0.4195 -0.5532 -0.1183
  590SOL     OW 2125   0.404   3.330   3.538  0.0815 -0.2746 -0.1937
  590SOL    HW2 2126   0.368   3.364   3.620 -0.0007  2.0921 -1.1354
  590SOL    HW3 2127   0.499   3.334   3.550  0.0763 -0.8675  0.1121
  590SOL    MW4 2128   0.411   3.335   3.551 -0.0931 -0.1153  0.0827
  591SOL     OW 2129   4.159   5.210   4.989  0.6066 -0.7235 -0.1073
  591SOL    HW2 2130   4.114   5.258   4.920 -0.2866  0.2248  1.0821
  591SOL    HW3 2131   4.222   5.155   4.943  0.1718  0.0104 -1.6517
  591SOL    MW4 2132   4.162   5.209   4.974  0.2091  0.1541 -0.4248
  592SOL     OW 2133   5.374   4.596   0.866 -0.1305  0.3807  0.7020
  592SOL    HW2 2134   5.378   4.689   0.890  0.3301  0.0368  2.0317
  592SOL    HW3 2135   5.324   4.595   0.784 -1.0047  1.6998  1.1788
  592SOL    MW4 2136   5.368   4.608   0.858  0.0397 -0.4864  0.4623
  593SOL     OW 2137   6.022   5.114   3.079 -0.0181  0.2698 -0.1124
  593SOL    HW2 2138   5.955   5.164   3.125 -0.3703 -1.0840  0.9046
  593SOL    HW3 2139   6.002   5.126   2.987  0.2260  2.4050  0.0674
  593SOL    MW4 2140   6.011   5.122   3.073  0.6047  0.2057 -0.4904
  594SOL     OW 2141   2.264   1.735   4.745  0.3919  0.7212  0.5858
  594SOL    HW2 2142   2.291   1.826   4.757 -0.5548  0.9385  1.1076
  594SOL    HW3 2143   2.283   1.693   4.830 -0.6371  0.8110  0.8667
  594SOL    MW4 2144   2.270   1.741   4.758  0.6719 -0.2103  0.0108
  595SOL     OW 2145   3.994   5.148   5.295 -0.1237  0.0528 -0.8705
  595SOL    HW2 2146   3.914   5.103   5.269  0.1101 -0.2300 -1.1120
  595SOL    HW3 2147   4.056   5.129   5.225  0.3452 -0.2456 -0.3824
  595SOL    MW4 2148   3.992   5.140   5.282 -0.1294 -0.2564 -0.3451
  596SOL     OW 2149   0.765   4.216   3.416 -0.5635 -0.7134 -0.5015
  596SOL    HW2 2150   0.803   4.154   3.478 -2.0402 -0.4511  0.7300
  596SOL    HW3 2151   0.692   4.256   3.464  0.2336  1.8847 -1.2772
  596SOL    MW4 2152   0.760   4.213   3.431 -0.6484 -0.3175  0.3801
  597SOL     OW 2153   2.445   5.067   4.081  0.1359 -0.2358 -0.4285
  597SOL    HW2 2154   2.407   5.076   3.994 -2.0715  0.5016  0.5201
  597SOL    HW3 2155   2.383   5.011   4.128  0.6711  0.3096  0.9862
  597SOL    MW4 2156   2.431   5.061   4.076 -0.3843 -0.4159 -0.8742
  598SOL     OW 2157   2.573   5.908   3.731 -0.3187  0.6693  0.0967
  598SOL    HW2 2158   2.565   5.822   3.689 -0.0872  0.4512  0.4920
  598SOL    HW3 2159   2.665   5.932   3.719  0.6805 -0.9145  3.3231
  598SOL    MW4 2160   2.584   5.900   3.724 -0.7153 -0.9515 -0.0655
  599SOL     OW 2161   0.580   1.976   0.120  0.0388  0.1453 -0.2361
  599SOL    HW2 2162   0.511   1.909   0.126 -0.2490  0.1319 -2.7051
  599SOL    HW3 2163   0.657   1.927   0.092  0.4178  0.5396  0.1149
  599SOL    MW4 2164   0.581   1.961   0.117  0.1473  0.3214 -0.0577
  600SOL     OW 2165   2.232   2.569   1.894 -0.5843 -0.0929 -0.3568
  600SOL    HW2 2166   2.326   2.583   1.883 -0.0066 -1.4210  2.0925
  600SOL    HW3 2167   2.218   2.576   1.988 -2.9980  0.2310 -0.6771
  600SOL    MW4 2168   2.243   2.571   1.905 -0.2979  0.2952 -0.3401
  601SOL     OW 2169   0.527   3.188   0.951  0.0822 -0.1543  0.5581
  601SOL    HW2 2170   0.611   3.228   0.930 -0.0530 -0.7713 -1.4022
  601SOL    HW3 2171   0.497   3.151   0.868 -2.5993  0.9032  0.9500
  601SOL    MW4 2172   0.534   3.188   0.937  0.1409 -0.2667  0.2435
  602SOL     OW 2173   6.059   1.725   3.108  0.1782  0.1549  0.3519
  602SOL    HW2 2174   6.114   1.717   3.185 -0.0665 -1.8920  0.3848
  602SOL    HW3 2175   6.120   1.726   3.034  0.4096  2.0963  0.5210
  602SOL    MW4 2176   6.074   1.724   3.108 -0.4990  0.1539  0.0885
  603SOL     OW 2177   2.499   5.308   4.285  0.0561  0.2462 -0.5146
  603SOL    HW2 2178   2.551   5.229   4.271  0.3603  0.0883  1.2662
  603SOL    HW3 2179   2.411   5.284   4.256  0.3689 -0.3992 -0.9593
  603SOL    MW4 2180   2.495   5.294   4.279 -0.5681  0.1056  0.6478
  604SOL     OW 2181   5.095   0.775   2.231  0.3364 -0.1784  0.0490
  604SOL    HW2 2182   5.173   0.830   2.230  1.1657 -1.3135 -0.8946
  604SOL    HW3 2183   5.050   0.798   2.312  1.2492  1.0490  0.2342
  604SOL    MW4 2184   5.099   0.785   2.242 -1.2526 -0.2377 -0.5188
  605SOL     OW 2185   0.364   5.484   2.590  0.5929 -0.0799 -0.6718
  605SOL    HW2 2186   0.316   5.411   2.628  1.1454 -0.8194 -1.3563
  605SOL    HW3 2187   0.450   5.448   2.570  0.3327  0.2597 -2.6000
  605SOL    MW4 2188   0.369   5.470   2.592 -0.4087 -0.1097  0.0169
  606SOL     OW 2189   5.657   0.761   3.767 -0.4798  0.2531  0.3356
  606SOL    HW2 2190   5.729   0.711   3.729  0.1948  1.5018 -0.0786
  606SOL    HW3 2191   5.581   0.738   3.713  0.4983  2.1435 -2.0185
  606SOL    MW4 2192   5.657   0.751   3.755 -0.7200  0.1711  0.1590
  607SOL     OW 2193   6.306   0.113   0.773  0.5961  0.2787 -0.9063
  607SOL    HW2 2194   6.307   0.024   0.809  1.8431  1.7156  3.1752
  607SOL    HW3 2195   6.399   0.136   0.764  0.3418  1.7803 -0.0159
  607SOL    MW4 2196   6.319   0.104   0.777 -0.2556 -0.3076  0.4484
  608SOL     OW 2197   1.621   0.270   2.675 -0.1892 -0.5135  0.2649
  608SOL    HW2 2198   1.645   0.201   2.612 -0.6025 -0.4509  0.0364
  608SOL    HW3 2199   1.567   0.225   2.740  1.6738 -0.9796  1.5947
  608SOL    MW4 2200   1.617   0.255   2.675  0.4987  0.7956 -0.2333
  609SOL     OW 2201   3.782   3.437   5.015 -0.2643 -0.1458 -0.0741
  609SOL    HW2 2202   3.823   3.393   5.090  1.5683 -0.4677 -1.2051
  609SOL    HW3 2203   3.722   3.372   4.978  2.9629 -2.1722 -2.1841
  609SOL    MW4 2204   3.779   3.423   5.020  0.2688  0.0201 -0.2412
  610SOL     OW 2205   3.058   2.374   3.041 -0.0489 -0.0842 -0.1631
  610SOL    HW2 2206   3.013   2.445   2.994 -0.8789 -0.5336 -0.0570
  610SOL    HW3 2207   3.133   2.417   3.082  0.8576  0.2894 -2.0778
  610SOL    MW4 2208   3.062   2.389   3.040 -0.1711  0.1778 -0.4581
  611SOL     OW 2209   0.089   2.369   1.189  0.0554 -0.3642 -0.3399
  611SOL    HW2 2210   0.039   2.450   1.178 -0.5827 -0.8657 -1.1950
  611SOL    HW3 2211   0.044   2.305   1.135  1.1986 -1.0248 -0.5463
  611SOL    MW4 2212   0.076   2.372   1.181 -0.6222 -0.5228  0.0635
  612SOL     OW 2213   4.233   1.116   6.161 -0.6485 -0.0895 -0.1441
  612SOL    HW2 2214   4.240   1.058   6.237  0.3368  0.3698  0.1334
  612SOL    HW3 2215   4.167   1.181   6.187  0.9605  1.1485  1.0945
  612SOL    MW4 2216   4.225   1.117   6.174  0.3525 -0.1663  0.2227
  613SOL     OW 2217   2.672   1.207   3.898  0.3575  0.0366 -0.7223
  613SOL    HW2 2218   2.709   1.119   3.890  0.3721 -0.2267  1.4179
  613SOL    HW3 2219   2.730   1.263   3.847  1.1388 -1.0067 -1.0161
  613SOL    MW4 2220   2.684   1.203   3.891 -0.7042  0.3656  0.3582
  614SOL     OW 2221   0.590   0.706   2.957 -0.2097 -0.4630  0.0448
  614SOL    HW2 2222   0.512   0.661   2.922  0.2540  0.0341 -1.7586
  614SOL    HW3 2223   0.659   0.686   2.893  0.6862  0.6084  0.6503
  614SOL    MW4 2224   0.589   0.697   2.944 -0.3107 -0.0379 -0.3116
  615SOL     OW 2225   0.613   4.542   2.038  0.2240  0.4621 -0.4362
  615SOL    HW2 2226   0.685   4.601   2.017 -0.9645  1.7100 -1.1481
  615SOL    HW3 2227   0.655   4.464   2.072  1.9077  3.2527  5.1042
  615SOL    MW4 2228   0.628   4.540   2.040 -0.0679  0.2506 -0.2143
  616SOL     OW 2229   5.231   2.768   1.914 -0.2475  0.2280  0.1146
  616SOL    HW2 2230   5.223   2.698   1.849 -1.8945  0.4779  0.0205
  616SOL    HW3 2231   5.288   2.730   1.982 -0.2362 -0.8008 -0.4456
  616SOL    MW4 2232   5.238   2.753   1.914  0.3128 -0.2615  0.5962
  617SOL     OW 2233   1.041   1.056   5.886 -0.4427  0.2732 -0.0778
  617SOL    HW2 2234   1.054   1.131   5.945 -1.8051  1.3719 -1.0999
  617SOL    HW3 2235   0.965   1.011   5.922 -0.8271  0.5269 -0.5561
  617SOL    MW4 2236   1.033   1.060   5.899  0.0950  0.1343  0.1481
  618SOL     OW 2237   5.263   4.503   0.093 -0.9315 -0.0259 -0.0971
  618SOL    HW2 2238   5.288   4.426   0.042  1.3971 -0.1653  1.0909
  618SOL    HW3 2239   5.251   4.572   0.029 -0.4489 -0.7542 -0.9948
  618SOL    MW4 2240   5.265   4.502   0.078  0.4115  0.6108 -0.4319
  619SOL     OW 2241   3.351   3.094   5.222 -0.4393 -0.1997  0.0900
  619SOL    HW2 2242   3.406   3.033   5.174 -0.7291  1.0781 -2.0090
  619SOL    HW3 2243   3.300   3.139   5.154  0.4691  3.0511  1.3718
  619SOL    MW4 2244   3.351   3.092   5.206  0.0230  0.0491  0.8409
  620SOL     OW 2245   1.198   1.312   0.714 -1.0803  0.5875 -0.4577
  620SOL    HW2 2246   1.208   1.257   0.637 -0.0037  0.0731  0.0229
  620SOL    HW3 2247   1.125   1.273   0.763 -0.6401 -0.1355 -0.3615
  620SOL    MW4 2248   1.190   1.300   0.711 -0.0863  0.5074  0.2135
  621SOL     OW 2249   3.436   5.404   4.323  0.0538  0.2465 -0.1034
  621SOL    HW2 2250   3.423   5.486   4.274  0.5540 -0.6709 -1.8507
  621SOL    HW3 2251   3.359   5.398   4.379  0.6485  2.5785  1.1111
  621SOL    MW4 2252   3.424   5.414   4.324  0.0039  0.2893  0.2590
  622SOL     OW 2253   1.271   3.624   1.877  0.0989  0.0334  0.5579
  622SOL    HW2 2254   1.256   3.685   1.949 -2.3871 -0.4388  0.5376
  622SOL    HW3 2255   1.323   3.553   1.916 -0.6819  0.0858  1.7380
  622SOL    MW4 2256   1.276   3.622   1.891  0.1029  0.2906 -0.7542
  623SOL     OW 2257   0.689   1.209   3.505 -0.0715  0.1026  0.5519
  623SOL    HW2 2258   0.613   1.266   3.513 -0.7136 -0.7737  0.8999
  623SOL    HW3 2259   0.758   1.264   3.469 -0.4493  1.2914  1.5979
  623SOL    MW4 2260   0.688   1.223   3.502 -0.2777  0.4412 -0.4725
  624SOL     OW 2261   4.633   1.409   0.684  0.3214  0.0366 -0.0450
  624SOL    HW2 2262   4.639   1.407   0.780  1.0614 -0.7228 -0.0984
  624SOL    HW3 2263   4.545   1.375   0.665  0.4306 -0.4577  0.3376
  624SOL    MW4 2264   4.622   1.405   0.694  0.1660 -0.5121 -0.6005
  625SOL     OW 2265   2.928   4.750   5.542 -0.1849 -0.6452 -0.2466
  625SOL    HW2 2266   2.958   4.663   5.517  1.4005 -0.5152  1.0213
  625SOL    HW3 2267   2.866   4.735   5.614 -0.3825 -0.7422 -0.4358
  625SOL    MW4 2268   2.923   4.737   5.548 -0.1675  0.2058  0.4085
  626SOL     OW 2269   0.458   6.120   3.305  0.5595  0.6542  0.2713
  626SOL    HW2 2270   0.513   6.103   3.229 -0.5564  0.6718 -0.5775
  626SOL    HW3 2271   0.500   6.074   3.377  1.5636  0.5165 -0.3939
  626SOL    MW4 2272   0.471   6.112   3.305  0.2025 -0.1160 -0.3752
  627SOL     OW 2273   4.223   1.316   2.572  0.3933 -0.3445  0.3120
  627SOL    HW2 2274   4.207   1.263   2.494 -0.1856  0.2119  0.0386
  627SOL    HW3 2275   4.256   1.255   2.637  0.0154 -0.9852 -0.0920
  627SOL    MW4 2276   4.225   1.301   2.570 -0.7775 -0.3559  0.7153
  628SOL     OW 2277   3.888   1.361   3.807 -0.1612  0.3853 -0.0728
  628SOL    HW2 2278   3.898   1.456   3.811 -0.1600  0.3457  1.6566
  628SOL    HW3 2279   3.905   1.332   3.897 -2.2464 -1.0321 -0.0751
  628SOL    MW4 2280   3.892   1.370   3.820  0.3765 -0.3130  0.6385
  629SOL     OW 2281   5.266   4.715   6.353 -0.6602 -0.0638 -0.2664
  629SOL    HW2 2282   5.174   4.741   6.359 -0.4741  0.9641 -1.3684
  629SOL    HW3 2283   5.315   4.795   6.373  0.0854 -1.0506  2.3421
  629SOL    MW4 2284   5.261   4.729   6.356 -0.2440 -0.1220 -0.1009
  630SOL     OW 2285   5.847   2.685   0.075 -0.1799 -0.3424  0.1717
  630SOL    HW2 2286   5.752   2.688   0.086 -0.1178 -2.2460  1.7347
  630SOL    HW3 2287   5.874   2.777   0.080 -1.8809  0.2113  0.1018
  630SOL    MW4 2288   5.838   2.698   0.077  0.2090 -0.5597  0.0849
  631SOL     OW 2289   1.452   1.261   3.446  0.1661  0.1328 -0.0184
  631SOL    HW2 2290   1.410   1.298   3.369  0.9152  3.1525  0.8645
  631SOL    HW3 2291   1.394   1.284   3.519  0.6916 -0.4550  0.6009
  631SOL    MW4 2292   1.439   1.269   3.445  0.7074 -0.0413 -0.2586
  632SOL     OW 2293   5.939   4.619   1.620  0.3578  0.2560 -0.3372
  632SOL    HW2 2294   5.993   4.593   1.695 -0.8668  0.1553  0.5433
  632SOL    HW3 2295   5.881   4.544   1.606 -0.6923  1.0122 -0.1611
  632SOL    MW4 2296   5.939   4.605   1.628 -0.2453 -0.2848 -0.3931
  633SOL     OW 2297   1.769   4.100   3.824 -0.1448  0.2289  0.2989
  633SOL    HW2 2298   1.852   4.056   3.843 -0.5122 -0.1794  0.9948
  633SOL    HW3 2299   1.706   4.029   3.813 -0.6338  0.5620  0.9046
  633SOL    MW4 2300   1.772   4.085   3.825  0.0945  0.6576  0.1981
  634SOL     OW 2301   1.917   5.283   5.516  0.4108 -0.8838 -0.3588
  634SOL    HW2 2302   1.908   5.240   5.601  0.7830  0.9107  0.6528
  634SOL    HW3 2303   2.005   5.263   5.487  1.4243  0.9314  1.1977
  634SOL    MW4 2304   1.927   5.275   5.524  0.3417  0.0878 -0.1633
  635SOL     OW 2305   5.520   4.206   2.766  0.0866  0.5664  0.2668
  635SOL    HW2 2306   5.494   4.131   2.820 -0.1412  0.5100  0.0807
  635SOL    HW3 2307   5.479   4.281   2.808 -0.2740  0.4951  0.0518
  635SOL    MW4 2308   5.511   4.206   2.779 -0.3769  0.3403  0.1859
  636SOL     OW 2309   1.261   3.435   5.301  0.3616  0.0327  0.0618
  636SOL    HW2 2310   1.269   3.443   5.206  3.0718  0.0074  0.2074
  636SOL    HW3 2311   1.204   3.359   5.314 -1.6340  1.1572 -1.4619
  636SOL    MW4 2312   1.254   3.426   5.290 -0.1651 -0.1904  0.0321
  637SOL     OW 2313   3.422   4.665   4.473  0.2363  0.1877  0.3524
  637SOL    HW2 2314   3.433   4.662   4.568  1.3954 -1.7493  0.2151
  637SOL    HW3 2315   3.511   4.654   4.438  0.3121  3.8920 -1.0453
  637SOL    MW4 2316   3.435   4.663   4.481  0.3096  0.7612 -0.3685
  638SOL     OW 2317   3.685   0.930   4.246 -0.2794 -0.8481 -0.1179
  638SOL    HW2 2318   3.682   0.850   4.195  1.1493 -0.3047 -1.1427
  638SOL    HW3 2319   3.601   0.934   4.291 -0.5134 -2.7212 -0.3162
  638SOL    MW4 2320   3.674   0.920   4.245 -0.6829  0.6989  0.5200
  639SOL     OW 2321   6.414   1.227   4.163 -0.4050 -0.2658  1.1377
  639SOL    HW2 2322   6.428   1.295   4.097  0.1237 -1.4688 -0.0329
  639SOL    HW3 2323   6.354   1.165   4.121  0.6842 -1.5376  1.3946
  639SOL    MW4 2324   6.408   1.227   4.149  0.1866  0.2017 -0.0136
  640SOL     OW 2325   2.126   5.914   3.515 -0.5447 -0.0661  0.2392
  640SOL    HW2 2326   2.115   5.996   3.467  1.1093 -0.1116 -0.2507
  640SOL    HW3 2327   2.047   5.908   3.570  0.3681  3.0673  2.1570
  640SOL    MW4 2328   2.114   5.924   3.516  0.4604  0.4279 -0.1158
  641SOL     OW 2329   0.798   0.562   5.304  0.1217 -0.0459 -0.7748
  641SOL    HW2 2330   0.799   0.622   5.378  0.7065 -1.2000  0.2004
  641SOL    HW3 2331   0.832   0.613   5.231  0.4297  0.8561 -0.0259
  641SOL    MW4 2332   0.803   0.577   5.304  0.2967  0.0254  0.3677
  642SOL     OW 2333   1.833   0.832   4.710 -0.1911  0.1432  0.2804
  642SOL    HW2 2334   1.841   0.752   4.659 -0.7927 -0.2078  0.7337
  642SOL    HW3 2335   1.742   0.834   4.739 -1.0165  2.4241 -2.0512
  642SOL    MW4 2336   1.822   0.822   4.707 -0.1626  0.0576  0.0106
  643SOL     OW 2337   4.770   0.327   1.406 -0.2680  0.6257  0.1256
  643SOL    HW2 2338   4.783   0.384   1.330  0.4592  0.1238 -0.1304
  643SOL    HW3 2339   4.841   0.350   1.465 -1.1367  1.3887  0.8972
  643SOL    MW4 2340   4.781   0.338   1.403 -0.5309 -0.2918  0.5444
  644SOL     OW 2341   2.198   1.871   6.040 -0.5834 -0.0037 -0.0048
  644SOL    HW2 2342   2.264   1.918   5.988 -0.2880  0.7579  1.0245
  644SOL    HW3 2343   2.121   1.868   5.983 -0.2681  0.8156 -0.5013
  644SOL    MW4 2344   2.196   1.877   6.025 -0.2987  0.0389  0.1177
  645SOL     OW 2345   4.003   4.570   5.556  0.2189  0.5342 -1.0065
  645SOL    HW2 2346   3.916   4.606   5.569  0.3306 -0.0081  1.9367
  645SOL    HW3 2347   3.993   4.476   5.571  1.5149  0.6657  1.0622
  645SOL    MW4 2348   3.990   4.562   5.560 -0.3872  0.2204  0.0647
  646SOL     OW 2349   4.752   0.225   1.773  0.5721 -0.4021 -0.0298
  646SOL    HW2 2350   4.702   0.286   1.827 -1.1038 -3.2516  1.9207
  646SOL    HW3 2351   4.690   0.197   1.705  0.6126 -1.4023  0.3282
  646SOL    MW4 2352   4.737   0.229   1.771 -0.2087  0.0664  0.0474
  647SOL     OW 2353   3.247   0.590   4.806 -0.1970  0.0252  0.3703
  647SOL    HW2 2354   3.162   0.546   4.814  0.6957 -1.7153  0.8204
  647SOL    HW3 2355   3.251   0.616   4.714 -0.3909 -1.7140 -0.1669
  647SOL    MW4 2356   3.236   0.587   4.795 -0.0439  0.1197  0.0861
  648SOL     OW 2357   2.330   3.128   0.923  0.0956 -0.3492 -0.2901
  648SOL    HW2 2358   2.380   3.047   0.933  0.0830 -0.2930  0.3049
  648SOL    HW3 2359   2.272   3.113   0.848  0.3818 -0.7370 -0.4329
  648SOL    MW4 2360   2.329   3.115   0.915 -0.0349 -0.3819 -0.1469
  649SOL     OW 2361   3.394   1.046   4.715 -0.1663  0.3300 -0.1832
  649SOL    HW2 2362   3.430   1.130   4.745 -0.3536  0.3944 -0.1375
  649SOL    HW3 2363   3.349   1.067   4.634 -1.1258  0.4793  0.3675
  649SOL    MW4 2364   3.393   1.060   4.708 -0.0058 -0.1929 -0.1606
  650SOL     OW 2365   2.942   4.181   4.823  0.4553  0.0195  0.3339
  650SOL    HW2 2366   2.929   4.104   4.769  0.3973  0.4021 -0.2038
  650SOL    HW3 2367   2.898   4.252   4.776  0.8642  0.4652  0.6092
  650SOL    MW4 2368   2.934   4.180   4.810 -0.0516  0.5525  0.8506
  651SOL     OW 2369   4.145   4.176   3.468  0.5545  0.4256  0.9150
  651SOL    HW2 2370   4.192   4.207   3.390 -0.1402 -1.8691 -0.5080
  651SOL    HW3 2371   4.215   4.153   3.529  1.2438 -0.2221 -0.0692
  651SOL    MW4 2372   4.161   4.177   3.465 -0.5188 -0.0156  0.1263
  652SOL     OW 2373   5.689   5.884   3.105 -1.1029  0.3974  0.4260
  652SOL    HW2 2374   5.711   5.823   3.176  1.2302 -0.2853 -0.7655
  652SOL    HW3 2375   5.622   5.941   3.142 -0.5517 -0.4410  2.9041
  652SOL    MW4 2376   5.683   5.883   3.119  0.1428  0.4328  0.1008
  653SOL     OW 2377   3.396   4.803   4.089  0.4387 -0.3111 -0.6846
  653SOL    HW2 2378   3.357   4.732   4.140  1.5862  0.6961  1.7652
  653SOL    HW3 2379   3.490   4.793   4.102  0.6840  0.8884 -1.4128
  653SOL    MW4 2380   3.403   4.792   4.097  1.0051  0.0989 -0.1218
  654SOL     OW 2381   1.744   3.105   1.692 -0.1628 -0.4195  0.0468
  654SOL    HW2 2382   1.650   3.092   1.679 -0.6252  2.2452  0.1748
  654SOL    HW3 2383   1.773   3.151   1.613  0.4808  1.0323  1.0923
  654SOL    MW4 2384   1.735   3.109   1.680  0.0692  0.4554 -0.7133
  655SOL     OW 2385   2.391   0.043   2.904 -0.1341  0.2697  0.2968
  655SOL    HW2 2386   2.353   0.076   2.986  0.0148 -1.8728  1.2973
  655SOL    HW3 2387   2.485   0.060   2.913 -0.1534  0.3078  0.4401
  655SOL    MW4 2388   2.398   0.050   2.916  0.0216  0.1624 -0.0159
  656SOL     OW 2389   2.689   0.098   0.598  0.6907  0.3381 -0.7757
  656SOL    HW2 2390   2.745   0.054   0.662 -0.0553 -0.1544 -0.4463
  656SOL    HW3 2391   2.726   0.075   0.513  0.5665 -0.5694 -0.5902
  656SOL    MW4 2392   2.701   0.089   0.595 -0.5626  0.2192 -0.2318
  657SOL     OW 2393   3.460   0.708   1.363 -0.2640  0.2133  0.4646
  657SOL    HW2 2394   3.432   0.799   1.350 -0.0648  0.3166  0.7372
  657SOL    HW3 2395   3.534   0.715   1.424  0.5612 -0.0296 -0.4765
  657SOL    MW4 2396   3.466   0.721   1.370 -0.1728 -0.3761 -0.2170
  658SOL     OW 2397   6.224   2.002   0.867 -0.3687  0.1435 -0.1276
  658SOL    HW2 2398   6.299   1.959   0.909  0.2036  1.8829  0.7270
  658SOL    HW3 2399   6.148   1.951   0.894  0.4693 -1.6420 -0.9856
  658SOL    MW4 2400   6.224   1.990   0.876  0.4350  0.2867  0.0941
  659SOL     OW 2401   5.999   4.674   5.756 -0.6019 -0.1311 -0.2767
  659SOL    HW2 2402   6.046   4.684   5.839 -0.6613  1.7664 -0.4214
  659SOL    HW3 2403   6.067   4.671   5.690 -0.6057 -0.0656 -0.2832
  659SOL    MW4 2404   6.014   4.675   5.758  0.2090  0.2903  0.3011
  660SOL     OW 2405   0.582   0.183   6.229  0.0125 -0.1282 -0.8232
  660SOL    HW2 2406   0.552   0.123   6.297 -1.7947  1.3717 -0.2057
  660SOL    HW3 2407   0.559   0.270   6.262  1.5342  0.8382 -2.1782
  660SOL    MW4 2408   0.575   0.187   6.242 -0.2877 -0.0853  0.2378
  661SOL     OW 2409   2.081   0.743   3.146  0.0735  0.4448 -0.5159
  661SOL    HW2 2410   2.061   0.818   3.091  0.1936 -0.1314 -1.3748
  661SOL    HW3 2411   2.009   0.682   3.131  1.3306 -0.7654 -2.0207
  661SOL    MW4 2412   2.069   0.745   3.137 -0.2783 -0.3424  0.1244
  662SOL     OW 2413   5.136   0.380   1.857 -0.0058  0.0913  0.4094
  662SOL    HW2 2414   5.082   0.384   1.778  0.0395  0.4136  0.3909
  662SOL    HW3 2415   5.225   0.368   1.823  0.0459  0.4880  0.3966
  662SOL    MW4 2416   5.141   0.379   1.842 -0.0664  0.5179  0.0002
  663SOL     OW 2417   0.552   2.595   5.736  0.2195 -0.0908  0.0620
  663SOL    HW2 2418   0.599   2.514   5.757 -0.4074 -0.5713 -0.3831
  663SOL    HW3 2419   0.601   2.633   5.663  0.9790  0.3482  0.7795
  663SOL    MW4 2420   0.565   2.590   5.729 -0.1560 -0.3969 -0.1759
  664SOL     OW 2421   4.840   5.443   5.805 -0.1406  0.3378  0.1919
  664SOL    HW2 2422   4.771   5.457   5.740  0.1856 -0.1239 -0.2636
  664SOL    HW3 2423   4.813   5.494   5.881 -1.3682 -0.4265  0.2967
  664SOL    MW4 2424   4.827   5.451   5.807  0.5961 -0.1269 -0.3361
  665SOL     OW 2425   2.567   4.046   4.668  0.3793  0.0572 -0.8383
  665SOL    HW2 2426   2.503   4.082   4.730  0.1819 -0.3281 -0.8119
  665SOL    HW3 2427   2.514   4.010   4.597  0.5280 -0.7669 -0.5489
  665SOL    MW4 2428   2.552   4.046   4.667  0.2112  0.0272  0.2960
  666SOL     OW 2429   2.996   0.321   4.400 -0.3385  0.3558  0.6053
  666SOL    HW2 2430   3.074   0.298   4.451 -0.3359 -1.8126 -0.2413
  666SOL    HW3 2431   3.013   0.410   4.369  0.4344  1.0553  2.8716
  666SOL    MW4 2432   3.009   0.329   4.402  0.5229  0.3849  0.2259
  667SOL     OW 2433   3.311   2.054   4.979 -0.0131  0.3807  0.5423
  667SOL    HW2 2434   3.242   2.061   4.913 -0.8288 -2.8605  0.8844
  667SOL    HW3 2435   3.384   2.103   4.942 -1.7719  2.1469 -0.8203
  667SOL    MW4 2436   3.311   2.061   4.965  0.1924 -0.5153  0.0592
  668SOL     OW 2437   4.209   1.047   5.495  0.4791 -0.1369 -0.3456
  668SOL    HW2 2438   4.274   1.053   5.565 -0.6804 -0.8811  0.8217
  668SOL    HW3 2439   4.213   1.133   5.452  2.9022 -0.4704 -0.9583
  668SOL    MW4 2440   4.218   1.059   5.498  0.3359 -0.1348  0.6861
  669SOL     OW 2441   3.818   1.762   3.589 -0.6722 -0.1808  0.2033
  669SOL    HW2 2442   3.898   1.808   3.565 -1.4402  0.4020 -1.3701
  669SOL    HW3 2443   3.768   1.825   3.641 -1.6529  0.7954 -1.8155
  669SOL    MW4 2444   3.822   1.776   3.593  0.2473 -0.2310 -0.2662
  670SOL     OW 2445   1.220   5.893   3.171  0.5922 -0.0474 -0.1653
  670SOL    HW2 2446   1.306   5.876   3.133  0.6206  0.9828 -0.5995
  670SOL    HW3 2447   1.185   5.966   3.119  0.8563  1.8231  2.0959
  670SOL    MW4 2448   1.227   5.900   3.159  0.0778 -0.2475  0.1187
  671SOL     OW 2449   2.096   6.385   5.991  0.1732 -0.0163  0.0496
  671SOL    HW2 2450   2.115   6.312   5.932 -0.3328  2.2938 -3.2442
  671SOL    HW3 2451   2.165   6.448   5.972 -0.2618  0.9925  1.7047
  671SOL    MW4 2452   2.108   6.383   5.980  0.3522 -0.1554  0.0815
  672SOL     OW 2453   0.989   2.027   6.252 -0.2821 -0.3858 -0.5715
  672SOL    HW2 2454   0.960   2.070   6.332  1.1704 -0.5254  0.0747
  672SOL    HW3 2455   0.925   2.051   6.186 -0.9648  0.5457  0.4066
  672SOL    MW4 2456   0.977   2.036   6.254 -0.0074 -0.3431 -0.2542
  673SOL     OW 2457   1.022   2.461   0.070 -0.2107 -0.2797 -0.2029
  673SOL    HW2 2458   0.964   2.471   0.146  0.8042 -1.4303  0.7782
  673SOL    HW3 2459   1.027   2.549   0.032 -0.1220  0.5065  1.5302
  673SOL    MW4 2460   1.015   2.474   0.075 -0.1466 -0.1505 -0.1076
  674SOL     OW 2461   3.396   3.301   5.648 -0.4722 -0.1790  0.3193
  674SOL    HW2 2462   3.445   3.280   5.568  2.3500  1.3452  1.4790
  674SOL    HW3 2463   3.457   3.281   5.719 -1.8498  1.1132  1.9399
  674SOL    MW4 2464   3.411   3.296   5.647 -0.5948  0.4333 -0.2349
  675SOL     OW 2465   0.822   1.367   0.727 -0.1008  0.3704  0.2489
  675SOL    HW2 2466   0.791   1.343   0.639 -1.5329 -1.8712  1.2996
  675SOL    HW3 2467   0.759   1.431   0.758  0.3038  1.0276 -0.2437
  675SOL    MW4 2468   0.810   1.372   0.719 -0.2988  0.0078 -0.5198
  676SOL     OW 2469   6.178   1.176   5.045 -0.8943  0.0167  0.3632
  676SOL    HW2 2470   6.192   1.215   5.131 -1.2400 -0.9800  0.8884
  676SOL    HW3 2471   6.264   1.141   5.020 -0.3489  1.9229 -0.5477
  676SOL    MW4 2472   6.191   1.176   5.053  0.1258 -0.0575 -0.4133
  677SOL     OW 2473   4.255   2.742   2.863 -0.7520 -0.4133  0.0209
  677SOL    HW2 2474   4.230   2.783   2.781 -0.0472  0.1347  0.0673
  677SOL    HW3 2475   4.174   2.733   2.912 -1.0077  0.3000 -0.2743
  677SOL    MW4 2476   4.241   2.746   2.859  0.1758 -0.5815  0.1329
  678SOL     OW 2477   4.042   1.514   1.253  0.0116  0.1321 -0.1971
  678SOL    HW2 2478   4.015   1.576   1.186 -2.0699  0.8996  1.2599
  678SOL    HW3 2479   3.964   1.501   1.307  0.9094 -2.3262  0.6576
  678SOL    MW4 2480   4.028   1.520   1.252  0.8232  0.7166 -0.3397
  679SOL     OW 2481   4.946   1.799   3.120 -0.4053  0.3304 -0.7180
  679SOL    HW2 2482   4.923   1.860   3.050  0.7739 -0.2022 -1.6028
  679SOL    HW3 2483   5.001   1.733   3.078  3.3099  1.8277  1.2605
  679SOL    MW4 2484   4.950   1.799   3.105 -0.0996  0.2426 -0.2332
  680SOL     OW 2485   5.208   6.302   3.723  0.1363  0.0823 -0.1024
  680SOL    HW2 2486   5.235   6.221   3.680 -1.2409 -0.8678  0.7612
  680SOL    HW3 2487   5.272   6.367   3.694  0.6312 -1.0607 -1.6676
  680SOL    MW4 2488   5.220   6.300   3.714  0.2239 -0.2692  0.5791
  681SOL     OW 2489   5.186   5.982   1.292 -0.0672 -0.6604  0.1923
  681SOL    HW2 2490   5.266   6.012   1.249 -0.5403 -0.0077 -0.2691
  681SOL    HW3 2491   5.208   5.977   1.385  0.3613  0.0182  0.1320
  681SOL    MW4 2492   5.199   5.985   1.299 -0.3733 -0.0856 -0.6092
  682SOL     OW 2493   0.153   4.195   0.619 -0.7657 -0.2060  0.0003
  682SOL    HW2 2494   0.106   4.139   0.558 -0.2851 -0.4786 -0.1287
  682SOL    HW3 2495   0.168   4.140   0.696 -3.7093  0.9097  1.5260
  682SOL    MW4 2496   0.149   4.181   0.621 -0.6238 -0.3386 -0.3188
  683SOL     OW 2497   3.750   5.543   4.553 -0.5338  0.3679 -0.3614
  683SOL    HW2 2498   3.734   5.489   4.630  0.6455 -2.1863 -1.7829
  683SOL    HW3 2499   3.717   5.491   4.480  0.6184  1.6087 -1.8326
  683SOL    MW4 2500   3.743   5.529   4.553 -0.0802 -0.4708 -0.2753
  684SOL     OW 2501   3.410   1.606   4.274 -0.4180 -0.0525  0.6879
  684SOL    HW2 2502   3.333   1.562   4.238 -0.5845  0.1671  0.7757
  684SOL    HW3 2503   3.478   1.593   4.208 -1.3598  2.4684 -0.9306
  684SOL    MW4 2504   3.409   1.599   4.261  0.4485  0.1108 -0.3101
  685SOL     OW 2505   3.097   2.491   5.428 -0.2772 -0.2825  0.0158
  685SOL    HW2 2506   3.115   2.549   5.503 -2.8558  0.4733  0.1324
  685SOL    HW3 2507   3.183   2.480   5.386  0.8178  1.2419  1.6853
  685SOL    MW4 2508   3.111   2.497   5.432 -0.0351 -0.2124  0.2707
  686SOL     OW 2509   0.210   3.443   0.426 -0.3233  0.2156  0.1191
  686SOL    HW2 2510   0.250   3.368   0.470  1.0118  0.0611 -1.2799
  686SOL    HW3 2511   0.119   3.418   0.414  0.1935 -1.4040 -0.7351
  686SOL    MW4 2512   0.204   3.430   0.430  0.7094 -0.4325 -0.4164
  687SOL     OW 2513   1.109   5.490   1.597  0.0048  0.0653 -0.7112
  687SOL    HW2 2514   1.166   5.428   1.643 -0.4940 -0.7266 -1.1589
  687SOL    HW3 2515   1.100   5.454   1.509 -0.1827  0.8473 -1.0156
  687SOL    MW4 2516   1.115   5.477   1.592 -0.0418 -0.6745 -0.5239
  688SOL     OW 2517   3.074   1.179   2.209  0.2903  0.2905  0.2980
  688SOL    HW2 2518   3.001   1.157   2.266  0.0558  1.0967  0.3264
  688SOL    HW3 2519   3.146   1.124   2.239 -0.1610 -0.1326  0.6058
  688SOL    MW4 2520   3.074   1.169   2.220 -0.3385  0.1573  0.2348
  689SOL     OW 2521   6.049   3.596   4.219  0.3426 -0.0548  0.1120
  689SOL    HW2 2522   5.958   3.623   4.204  0.8874  0.8571 -1.9486
  689SOL    HW3 2523   6.046   3.501   4.224 -0.5823 -0.1325 -1.3467
  689SOL    MW4 2524   6.037   3.587   4.218  0.4500 -0.6535 -0.1330
  690SOL     OW 2525   1.432   1.691   1.468 -0.2963 -0.4120 -0.1149
  690SOL    HW2 2526   1.360   1.632   1.445 -0.5684  0.0344 -0.4421
  690SOL    HW3 2527   1.391   1.778   1.472  0.0574 -0.2741  0.5560
  690SOL    MW4 2528   1.417   1.695   1.465 -0.0254  0.7291  0.6494
  691SOL     OW 2529   6.031   3.437   1.455  0.1062 -0.6495 -0.0518
  691SOL    HW2 2530   5.945   3.444   1.495  0.3268 -0.7042  0.4414
  691SOL    HW3 2531   6.014   3.422   1.362 -0.4174 -1.8378  0.2262
  691SOL    MW4 2532   6.018   3.436   1.448  0.0511  0.0914 -0.1590
  692SOL     OW 2533   1.012   0.962   3.680 -0.5516  0.6128 -0.0924
  692SOL    HW2 2534   1.003   1.051   3.716 -1.7365  0.8010 -0.8084
  692SOL    HW3 2535   0.996   0.973   3.586  0.2987 -0.2170 -0.3504
  692SOL    MW4 2536   1.009   0.975   3.672  0.4263 -0.4354 -0.2124
  693SOL     OW 2537   1.862   4.759   0.753 -0.3943 -0.0803  0.6840
  693SOL    HW2 2538   1.892   4.683   0.803  1.1488  2.5296  4.2165
  693SOL    HW3 2539   1.795   4.799   0.809 -1.7438  0.7473 -1.4268
  693SOL    MW4 2540   1.857   4.755   0.767 -0.2136 -0.5500 -0.0123
  694SOL     OW 2541   0.209   5.752   0.364  0.0349 -0.0808  0.1201
  694SOL    HW2 2542   0.206   5.822   0.430 -1.2854 -0.5738  0.5966
  694SOL    HW3 2543   0.139   5.774   0.303  0.3699 -0.3758 -0.3766
  694SOL    MW4 2544   0.200   5.764   0.365  0.0991  0.3466  0.4351
  695SOL     OW 2545   2.363   0.273   1.436 -0.4970 -0.0413 -0.3816
  695SOL    HW2 2546   2.435   0.327   1.469 -0.2995 -0.4618 -0.1268
  695SOL    HW3 2547   2.359   0.294   1.342  0.2756 -0.3835 -0.4930
  695SOL    MW4 2548   2.372   0.283   1.428 -0.5265  0.7627  0.0489
  696SOL     OW 2549   0.282   3.454   3.304  0.1414  0.3521  0.0529
  696SOL    HW2 2550   0.318   3.428   3.389  0.4526  0.5044 -0.0286
  696SOL    HW3 2551   0.255   3.545   3.316 -1.1053 -0.0481  0.3858
  696SOL    MW4 2552   0.283   3.463   3.317 -0.1414  0.1216  0.3578
  697SOL     OW 2553   0.369   2.339   1.199  0.0594 -0.2577  0.1025
  697SOL    HW2 2554   0.289   2.345   1.147 -0.0378  0.4222  0.3159
  697SOL    HW3 2555   0.339   2.325   1.288  0.1389  0.7574  0.3009
  697SOL    MW4 2556   0.354   2.338   1.204  0.0157 -0.4551  0.5922
  698SOL     OW 2557   4.754   0.906   1.336  0.2403 -0.0529 -0.5611
  698SOL    HW2 2558   4.817   0.853   1.385  0.6749  0.8198 -0.1507
  698SOL    HW3 2559   4.716   0.845   1.272  1.4222 -0.6220 -0.7549
  698SOL    MW4 2560   4.757   0.891   1.334 -0.3410  0.1176 -0.3453
  699SOL     OW 2561   2.235   2.717   4.000  0.2943 -0.4173  0.3360
  699SOL    HW2 2562   2.192   2.663   3.934 -0.6212  1.2884 -0.5079
  699SOL    HW3 2563   2.173   2.720   4.073  0.7121 -1.1674  0.7356
  699SOL    MW4 2564   2.221   2.710   4.001  0.2866  0.1386  0.2690
  700SOL     OW 2565   3.740   2.795   2.231  0.8884 -0.0863 -0.0653
  700SOL    HW2 2566   3.649   2.809   2.202  0.5083  0.0800  1.1424
  700SOL    HW3 2567   3.740   2.824   2.322  1.7797 -1.5301  0.4284
  700SOL    MW4 2568   3.728   2.801   2.239  0.0537  0.0124  0.3726
  701SOL     OW 2569   0.824   3.238   1.743  0.2063 -0.1878  0.4322
  701SOL    HW2 2570   0.902   3.293   1.749 -0.4645  0.6216  2.2351
  701SOL    HW3 2571   0.761   3.277   1.803 -0.8765 -1.9998  0.5712
  701SOL    MW4 2572   0.826   3.250   1.752  0.0242  0.0648 -0.0635
  702SOL     OW 2573   5.270   3.299   4.936 -0.3793 -0.3335  0.2630
  702SOL    HW2 2574   5.296   3.232   4.874 -0.9460 -1.8058  1.5468
  702SOL    HW3 2575   5.327   3.285   5.012 -0.8087  0.3505  0.7264
  702SOL    MW4 2576   5.281   3.288   4.938 -0.2195  0.3770 -0.0572
  703SOL     OW 2577   5.095   3.964   4.050  0.1798 -0.0300 -0.0428
  703SOL    HW2 2578   5.046   4.030   4.002  1.2374  0.4890 -0.4318
  703SOL    HW3 2579   5.156   3.927   3.986  0.2310 -0.7378  0.3993
  703SOL    MW4 2580   5.097   3.968   4.036  0.3225 -0.2927 -0.1707
  704SOL     OW 2581   5.597   1.713   5.183 -0.2424 -0.0680 -0.2717
  704SOL    HW2 2582   5.545   1.792   5.197  1.6575  1.4120 -1.2090
  704SOL    HW3 2583   5.635   1.693   5.268 -1.0694 -0.2488  0.0628
  704SOL    MW4 2584   5.595   1.721   5.196  0.4361 -0.1939  0.0465
  705SOL     OW 2585   0.574   4.157   4.485  0.0018 -0.0099  0.0115
  705SOL    HW2 2586   0.655   4.110   4.464  0.7219  1.5662 -0.9113
  705SOL    HW3 2587   0.547   4.120   4.569  1.4865 -0.8283  0.1720
  705SOL    MW4 2588   0.581   4.146   4.494 -0.2910 -0.0936 -0.7511
  706SOL     OW 2589   4.729   4.483   5.699  0.3215 -0.0306 -0.1547
  706SOL    HW2 2590   4.750   4.440   5.782 -0.7560 -0.4777 -0.0915
  706SOL    HW3 2591   4.634   4.474   5.692  0.2990  0.7879 -1.0110
  706SOL    MW4 2592   4.719   4.476   5.709  0.1689 -0.0869  0.2812
  707SOL     OW 2593   5.063   2.428   5.906 -0.0234  0.1710 -0.0264
  707SOL    HW2 2594   5.106   2.373   5.842  0.7197 -2.3119  2.4057
  707SOL    HW3 2595   5.121   2.503   5.917  1.3376 -0.8214 -0.1840
  707SOL    MW4 2596   5.076   2.431   5.899 -0.0560  0.3335  0.1875
  708SOL     OW 2597   2.745   0.277   3.726 -0.2739  0.6059 -0.1287
  708SOL    HW2 2598   2.745   0.189   3.764 -1.7750  0.7825  0.3692
  708SOL    HW3 2599   2.826   0.317   3.757 -0.7999  0.2752  1.7990
  708SOL    MW4 2600   2.755   0.271   3.735  0.3805  0.6840  0.1038
  709SOL     OW 2601   4.330   0.620   5.509  0.2013 -0.0025  0.1008
  709SOL    HW2 2602   4.301   0.695   5.457 -0.1625 -0.9341 -1.0794
  709SOL    HW3 2603   4.250   0.569   5.524  0.5634 -0.5311  0.2598
  709SOL    MW4 2604   4.316   0.623   5.504  0.2092  0.3987 -0.7026
  710SOL     OW 2605   2.553   0.805   1.780  0.0768 -0.4991 -0.0933
  710SOL    HW2 2606   2.504   0.886   1.770 -2.2524 -1.5877  1.4656
  710SOL    HW3 2607   2.601   0.815   1.862 -2.1641 -1.5063  1.4360
  710SOL    MW4 2608   2.553   0.817   1.789 -0.3225 -0.0262  0.2632
  711SOL     OW 2609   6.273   4.448   1.667  0.0769 -0.3810  0.2007
  711SOL    HW2 2610   6.342   4.399   1.623 -0.3820 -1.3539  0.5420
  711SOL    HW3 2611   6.251   4.518   1.606  0.7424 -0.5909 -0.2945
  711SOL    MW4 2612   6.279   4.451   1.653 -0.5772  0.1284  0.4034
  712SOL     OW 2613   1.700   5.579   4.106 -0.4875 -0.1260 -0.2136
  712SOL    HW2 2614   1.735   5.511   4.048  0.7546  0.1560  0.1662
  712SOL    HW3 2615   1.763   5.651   4.098  0.5678 -0.6415  2.6115
  712SOL    MW4 2616   1.713   5.579   4.097  0.0680 -0.5731 -0.6323
  713SOL     OW 2617   6.350   2.180   3.140 -0.0247 -0.1833  0.2024
  713SOL    HW2 2618   6.306   2.142   3.063  0.9731 -1.2463  0.1276
  713SOL    HW3 2619   6.285   2.173   3.210 -0.6053 -0.0773 -0.3094
  713SOL    MW4 2620   6.335   2.174   3.139 -0.2188  0.7717  0.6911
  714SOL     OW 2621   3.841   4.119   4.517 -0.5110 -0.0572  0.1435
  714SOL    HW2 2622   3.797   4.077   4.591 -0.7880  1.3949  0.8538
  714SOL    HW3 2623   3.888   4.193   4.556 -0.7732  0.8247 -1.1378
  714SOL    MW4 2624   3.841   4.123   4.532  0.5663 -0.5598  0.2302
  715SOL     OW 2625   1.986   6.250   6.227 -0.0894  0.8187  0.5937
  715SOL    HW2 2626   2.022   6.169   6.263 -0.8510  0.5656  0.8079
  715SOL    HW3 2627   2.037   6.266   6.147  1.9031  1.6050  1.9340
  715SOL    MW4 2628   1.998   6.241   6.221 -0.1457 -0.3317 -0.1398
  716SOL     OW 2629   0.339   4.637   5.552  0.3464 -0.1318  0.9047
  716SOL    HW2 2630   0.406   4.586   5.598  1.2275  0.3645  0.2019
  716SOL    HW3 2631   0.384   4.717   5.525 -1.0314  1.1154  2.0978
  716SOL    MW4 2632   0.354   4.640   5.555 -0.2432  0.5856  1.0493
  717SOL     OW 2633   5.264   5.811   5.803  0.0072 -0.2808 -0.1633
  717SOL    HW2 2634   5.266   5.743   5.870 -0.3924 -1.0443 -0.9015
  717SOL    HW3 2635   5.258   5.893   5.851 -0.7741 -0.8419  0.7126
  717SOL    MW4 2636   5.264   5.813   5.818 -0.2972  0.2137  0.2304
  718SOL     OW 2637   1.286   5.942   0.322 -0.3366 -0.6946 -0.0584
  718SOL    HW2 2638   1.316   6.004   0.389 -0.7388  0.5994 -1.0316
  718SOL    HW3 2639   1.359   5.883   0.310  1.1127  1.1776 -0.9458
  718SOL    MW4 2640   1.299   5.943   0.329 -0.1479  0.1443 -0.1660
  719SOL     OW 2641   2.585   4.306   2.665 -0.1043 -0.1866  0.6293
  719SOL    HW2 2642   2.635   4.380   2.700  0.3774  0.0445 -0.5093
  719SOL    HW3 2643   2.600   4.309   2.570 -0.1385 -1.7013  0.5505
  719SOL    MW4 2644   2.593   4.316   2.657  0.1574 -0.3912 -0.2569
  720SOL     OW 2645   5.771   3.980   0.197 -0.3375 -0.1580 -0.1335
  720SOL    HW2 2646   5.794   3.888   0.210 -0.3866 -0.0018  1.2139
  720SOL    HW3 2647   5.856   4.025   0.190 -0.2917 -0.1563  0.4037
  720SOL    MW4 2648   5.786   3.974   0.198  0.2329  0.2805  0.1220
  721SOL     OW 2649   5.464   3.860   0.726  0.2778  0.3217 -0.1487
  721SOL    HW2 2650   5.456   3.866   0.631 -1.3090 -0.9122 -0.1381
  721SOL    HW3 2651   5.435   3.946   0.757 -0.9731  0.1431 -0.7404
  721SOL    MW4 2652   5.459   3.872   0.718 -0.2793  0.6414 -0.7453
  722SOL     OW 2653   1.434   0.855   0.089 -0.2939  0.1037 -0.2369
  722SOL    HW2 2654   1.359   0.852   0.148 -0.6834  0.0604 -0.7251
  722SOL    HW3 2655   1.508   0.830   0.143 -0.6698 -0.0983  0.1914
  722SOL    MW4 2656   1.434   0.851   0.104 -0.6571 -0.4596  0.9286
  723SOL     OW 2657   3.101   4.715   3.118  0.1275 -0.2179 -0.2533
  723SOL    HW2 2658   3.023   4.667   3.144  1.3580 -1.8394  0.5855
  723SOL    HW3 2659   3.094   4.799   3.163 -1.3611 -0.1228 -0.6109
  723SOL    MW4 2660   3.089   4.720   3.127  0.4246  0.2449 -0.5021
  724SOL     OW 2661   3.312   4.876   6.247  0.0372 -0.1425  0.5037
  724SOL    HW2 2662   3.360   4.807   6.293  1.0996 -0.5161 -1.0903
  724SOL    HW3 2663   3.302   4.843   6.158 -0.8774  1.0893  0.1228
  724SOL    MW4 2664   3.317   4.863   6.242 -0.1057 -0.1121 -0.5424
  725SOL     OW 2665   4.729   5.000   0.146 -0.1330 -0.5569 -0.6570
  725SOL    HW2 2666   4.698   5.065   0.210 -0.1632 -1.4136  0.2255
  725SOL    HW3 2667   4.649   4.960   0.112 -0.0968 -0.5267 -0.7774
  725SOL    MW4 2668   4.714   5.004   0.150  0.1149 -0.4346 -0.4583
  726SOL     OW 2669   4.220   3.925   3.223  0.0037  0.0039 -0.3749
  726SOL    HW2 2670   4.133   3.898   3.192  0.5094 -1.5663 -0.5269
  726SOL    HW3 2671   4.280   3.888   3.159  0.9195 -1.0396  1.0367
  726SOL    MW4 2672   4.216   3.917   3.211  0.0361 -0.1357  0.2592
  727SOL     OW 2673   2.772   1.230   6.055  0.2232 -0.5834 -0.0426
  727SOL    HW2 2674   2.706   1.252   6.121  1.5086  0.2088  1.0174
  727SOL    HW3 2675   2.853   1.271   6.086  1.0219 -0.7349 -1.7919
  727SOL    MW4 2676   2.774   1.238   6.068  1.0055  0.7961 -0.6834
  728SOL     OW 2677   2.918   1.545   1.987  0.0840  0.0262 -0.3001
  728SOL    HW2 2678   2.826   1.519   1.991  0.4611 -1.5437 -1.1321
  728SOL    HW3 2679   2.935   1.560   1.894  0.5110  0.9835 -0.0828
  728SOL    MW4 2680   2.908   1.543   1.975 -0.1199 -0.4396 -0.3968
  729SOL     OW 2681   2.541   1.968   6.256  0.5119 -0.0602  0.1704
  729SOL    HW2 2682   2.448   1.952   6.271  0.7683 -1.8163 -0.0017
  729SOL    HW3 2683   2.568   2.020   6.332 -0.3035 -0.6786  0.9052
  729SOL    MW4 2684   2.532   1.973   6.268  0.4070  0.2760  0.0477
  730SOL     OW 2685   5.157   5.928   1.578  0.2513 -0.3901  0.2330
  730SOL    HW2 2686   5.182   5.836   1.581 -1.3244 -0.8391  1.5657
  730SOL    HW3 2687   5.222   5.973   1.632  1.1591 -0.6664 -0.6107
  730SOL    MW4 2688   5.169   5.922   1.586 -0.1108 -0.5919  0.0987
  731SOL     OW 2689   3.471   0.456   3.818 -0.3505  0.3788 -0.1028
  731SOL    HW2 2690   3.453   0.437   3.726  0.3238  0.8287 -0.3307
  731SOL    HW3 2691   3.554   0.413   3.836 -1.4719 -1.5374  0.8989
  731SOL    MW4 2692   3.479   0.448   3.809  0.2460  0.4769 -0.2723
  732SOL     OW 2693   3.752   1.038   3.608  0.2263 -0.4792 -0.7756
  732SOL    HW2 2694   3.804   1.014   3.685 -0.5872 -0.2291 -0.1268
  732SOL    HW3 2695   3.737   1.132   3.618  0.2845 -0.4078 -1.3484
  732SOL    MW4 2696   3.757   1.047   3.619  0.0050 -0.2695  0.0737
  733SOL     OW 2697   3.185   3.717   0.014 -0.1119  0.2153 -0.8216
  733SOL    HW2 2698   3.121   3.748   0.077 -1.2592 -0.4801 -1.6074
  733SOL    HW3 2699   3.178   3.621   0.018  1.5637  0.0885 -0.2456
  733SOL    MW4 2700   3.176   3.708   0.023  0.3363  0.3570  0.3160
  734SOL     OW 2701   2.730   5.082   6.400 -0.3488  0.2881  0.0315
  734SOL    HW2 2702   2.671   5.109   6.470 -1.0906  1.1027 -0.8846
  734SOL    HW3 2703   2.680   5.096   6.319  0.0870 -1.6446 -0.6352
  734SOL    MW4 2704   2.716   5.087   6.398  0.6667  0.4751  0.0488
  735SOL     OW 2705   4.163   1.003   4.273  0.5472  0.2198 -0.4721
  735SOL    HW2 2706   4.071   1.025   4.256  0.1406 -0.2207  1.0308
  735SOL    HW3 2707   4.207   1.088   4.278  0.1809  0.4456 -0.8967
  735SOL    MW4 2708   4.156   1.017   4.271  0.0363 -0.1783  0.0964
  736SOL     OW 2709   3.755   5.850   0.811 -0.5863  0.0343  0.1776
  736SOL    HW2 2710   3.731   5.884   0.897 -0.3489  1.2552 -0.2124
  736SOL    HW3 2711   3.691   5.888   0.751 -0.4131 -0.3492 -0.2548
  736SOL    MW4 2712   3.744   5.859   0.814 -0.0646  0.4722 -0.2824
  737SOL     OW 2713   0.322   3.282   4.956  0.2368 -0.2505 -0.2664
  737SOL    HW2 2714   0.279   3.229   5.023  1.6860 -0.1815  0.7371
  737SOL    HW3 2715   0.399   3.231   4.931  1.0961  0.8953 -0.0190
  737SOL    MW4 2716   0.326   3.268   4.961  0.5312  0.1680 -0.3395
  738SOL     OW 2717   5.649   2.073   4.039  0.0174  0.6930 -0.0444
  738SOL    HW2 2718   5.660   2.123   3.958  0.6945 -0.1732 -0.5039
  738SOL    HW3 2719   5.624   1.985   4.010 -0.9515  0.6911  0.7402
  738SOL    MW4 2720   5.647   2.068   4.025 -0.2470 -0.2023  0.1712
  739SOL     OW 2721   1.823   2.777   3.273 -0.2409 -0.1853  0.1982
  739SOL    HW2 2722   1.837   2.836   3.199  0.5896 -0.1912  0.3394
  739SOL    HW3 2723   1.728   2.776   3.286 -0.5538 -1.2454 -1.7558
  739SOL    MW4 2724   1.812   2.784   3.265  0.2086 -0.1136  0.5227
  740SOL     OW 2725   0.694   5.691   2.599 -0.2087  0.7176 -0.2705
  740SOL    HW2 2726   0.661   5.604   2.574 -0.4701  0.4846  0.8384
  740SOL    HW3 2727   0.789   5.680   2.603 -0.0838  0.9565 -1.8365
  740SOL    MW4 2728   0.702   5.678   2.596  0.0172  0.3945 -0.6321
  741SOL     OW 2729   3.188   5.523   4.604 -0.5655  0.3127 -0.1145
  741SOL    HW2 2730   3.203   5.446   4.659 -0.9502  0.1369 -0.2546
  741SOL    HW3 2731   3.166   5.488   4.518  2.2802  0.5603 -1.0733
  741SOL    MW4 2732   3.187   5.508   4.600  0.4315 -0.2607 -0.8483
  742SOL     OW 2733   3.698   1.847   6.316  0.0042  0.1534  0.2681
  742SOL    HW2 2734   3.751   1.865   6.393  1.5863 -2.2562 -0.1298
  742SOL    HW3 2735   3.615   1.815   6.351 -0.3131  1.6511  0.9252
  742SOL    MW4 2736   3.694   1.845   6.331 -0.4201 -0.4786 -0.1250
  743SOL     OW 2737   0.051   2.715   4.580 -0.2406 -0.3743  0.8896
  743SOL    HW2 2738  -0.041   2.690   4.586  0.0967 -2.8074 -1.8794
  743SOL    HW3 2739   0.100   2.636   4.602  1.1420  0.2614  0.2840
  743SOL    MW4 2740   0.046   2.701   4.584  0.3530 -0.5307  0.2174
  744SOL     OW 2741   0.081   4.520   6.209 -0.0197  0.1649  0.3256
  744SOL    HW2 2742   0.011   4.581   6.233 -2.7050 -2.4870 -0.2054
  744SOL    HW3 2743   0.086   4.528   6.113 -0.7056 -0.7077  0.2055
  744SOL    MW4 2744   0.072   4.529   6.199  0.1624  0.1348 -0.7543
  745SOL     OW 2745   1.056   6.287   0.401  0.1743 -0.3811 -0.0011
  745SOL    HW2 2746   1.145   6.278   0.366 -1.0526 -0.6713 -3.3465
  745SOL    HW3 2747   1.051   6.378   0.430  1.1944 -0.0293 -0.8582
  745SOL    MW4 2748   1.067   6.298   0.400  1.1946 -0.6074 -0.2223
  746SOL     OW 2749   5.091   0.178   5.890  0.7778  0.2416  0.2625
  746SOL    HW2 2750   5.018   0.121   5.867  0.2251  0.7184  0.7925
  746SOL    HW3 2751   5.070   0.209   5.978  0.5320  2.0957 -0.4130
  746SOL    MW4 2752   5.079   0.174   5.899 -1.1655 -0.0134  0.0785
  747SOL     OW 2753   0.438   0.171   3.510 -0.2950 -0.5250  0.2445
  747SOL    HW2 2754   0.380   0.127   3.447  0.5929 -0.3691 -0.6994
  747SOL    HW3 2755   0.453   0.257   3.473 -0.9515  0.1244  1.4308
  747SOL    MW4 2756   0.432   0.176   3.497 -0.6639  0.2738 -0.5595
  748SOL     OW 2757   4.228   1.873   4.105 -0.2683 -0.4266  0.2440
  748SOL    HW2 2758   4.211   1.805   4.170  2.0965 -2.8437 -1.4604
  748SOL    HW3 2759   4.316   1.855   4.073 -0.3079  2.2692 -1.7483
  748SOL    MW4 2760   4.237   1.861   4.109  0.4994  0.3860 -0.7293
  749SOL     OW 2761   5.487   2.254   4.174 -0.8340  0.0225 -0.2488
  749SOL    HW2 2762   5.551   2.197   4.131 -0.8379 -0.7952  0.7753
  749SOL    HW3 2763   5.455   2.312   4.105  0.7099  0.1819 -0.8749
  749SOL    MW4 2764   5.491   2.254   4.159  0.4242  0.6722 -0.0675
  750SOL     OW 2765   1.253   1.602   0.727 -0.4818 -0.1027 -0.5586
  750SOL    HW2 2766   1.172   1.615   0.776 -0.7792  0.1225 -1.1091
  750SOL    HW3 2767   1.265   1.507   0.723 -0.3199 -0.1208  0.1647
  750SOL    MW4 2768   1.244   1.591   0.733  0.0965  0.0258 -0.5072
  751SOL     OW 2769   5.365   6.339   2.832  0.3016 -0.3699  0.3331
  751SOL    HW2 2770   5.424   6.280   2.880  1.5517  1.1270  0.7441
  751SOL    HW3 2771   5.329   6.397   2.899 -0.1817 -0.0908 -0.1598
  751SOL    MW4 2772   5.368   6.339   2.847  0.1434 -0.0902 -0.4925
  752SOL     OW 2773   0.659   5.820   2.321  0.7606  0.3803 -0.2491
  752SOL    HW2 2774   0.701   5.905   2.325  0.3713  0.5404  0.5659
  752SOL    HW3 2775   0.677   5.780   2.406  0.0184  0.1012 -0.2188
  752SOL    MW4 2776   0.667   5.826   2.333 -0.0216 -0.1819 -0.1197
  753SOL     OW 2777   3.977   1.484   4.271  0.6112 -0.0231  0.2976
  753SOL    HW2 2778   4.002   1.452   4.358 -0.6206 -0.1513  0.6368
  753SOL    HW3 2779   3.889   1.520   4.284  0.9993  1.2958 -0.6003
  753SOL    MW4 2780   3.968   1.484   4.284 -0.0628 -0.0697  0.2017
  754SOL     OW 2781   2.177   5.051   2.321  0.0620 -0.3057  0.0861
  754SOL    HW2 2782   2.088   5.020   2.339  0.1411 -0.4531  0.2200
  754SOL    HW3 2783   2.167   5.105   2.242 -0.3222  0.5481  0.7027
  754SOL    MW4 2784   2.164   5.054   2.313 -0.1334  0.7231 -0.7263
  755SOL     OW 2785   5.461   4.871   5.258 -0.3820 -0.2170 -1.1585
  755SOL    HW2 2786   5.432   4.921   5.334 -0.3641 -0.2357 -1.1392
  755SOL    HW3 2787   5.418   4.913   5.184  0.8185  0.7907 -1.3252
  755SOL    MW4 2788   5.452   4.883   5.258  0.3674 -0.1222 -0.2912
  756SOL     OW 2789   0.377   2.425   4.081 -0.0803 -0.1850 -0.3602
  756SOL    HW2 2790   0.441   2.371   4.127  0.4372  1.7542  1.3746
  756SOL    HW3 2791   0.323   2.462   4.150 -1.3994  0.3011 -1.6000
  756SOL    MW4 2792   0.378   2.423   4.096  0.1310 -0.6900 -0.5231
  757SOL     OW 2793   4.513   6.270   1.319  0.1771  0.1881  0.2438
  757SOL    HW2 2794   4.594   6.220   1.312  1.0217  1.6342 -0.5918
  757SOL    HW3 2795   4.518   6.313   1.404  0.0958 -0.0258  0.3582
  757SOL    MW4 2796   4.524   6.269   1.329 -0.3347 -0.6722 -0.3014
  758SOL     OW 2797   4.162   4.236   1.962  0.1317  0.0791 -0.3148
  758SOL    HW2 2798   4.159   4.162   1.902  0.3099  1.4989 -2.1678
  758SOL    HW3 2799   4.252   4.238   1.993 -0.0478 -0.8705  0.2927
  758SOL    MW4 2800   4.173   4.227   1.958  0.4237  0.4995  0.3639
  759SOL     OW 2801   1.722   5.618   0.087 -0.3286 -0.3730 -0.0661
  759SOL    HW2 2802   1.750   5.703   0.053 -0.4717  0.5164  1.9201
  759SOL    HW3 2803   1.755   5.554   0.023  0.0726  1.1296 -1.4228
  759SOL    MW4 2804   1.730   5.621   0.074 -0.2141  0.0126 -0.7268
  760SOL     OW 2805   1.472   2.773   4.370  0.3503  0.0502 -0.0170
  760SOL    HW2 2806   1.562   2.742   4.372 -0.0578 -1.2606 -0.6736
  760SOL    HW3 2807   1.472   2.850   4.427  1.5377 -0.8537  1.2751
  760SOL    MW4 2808   1.484   2.779   4.378 -0.3018  0.8114  0.2208
  761SOL     OW 2809   3.327   1.481   5.472  0.4331  0.5109 -0.2528
  761SOL    HW2 2810   3.241   1.452   5.502 -0.1757  0.0640 -2.3291
  761SOL    HW3 2811   3.337   1.568   5.511 -1.2898  0.8915 -0.5926
  761SOL    MW4 2812   3.317   1.489   5.481  0.2375 -0.2983  0.5442
  762SOL     OW 2813   4.060   0.358   1.659 -0.1191  0.4691  0.5122
  762SOL    HW2 2814   4.066   0.283   1.718  2.7457  1.2511  1.3956
  762SOL    HW3 2815   4.070   0.321   1.572  1.1262 -0.2252  0.9277
  762SOL    MW4 2816   4.062   0.343   1.656  0.1105 -0.4492 -0.2629
  763SOL     OW 2817   4.059   3.259   2.128 -0.2878  0.1823 -0.0668
  763SOL    HW2 2818   4.032   3.228   2.042  1.5030  0.1556 -0.6615
  763SOL    HW3 2819   4.152   3.278   2.119 -0.4353  1.9562  1.3584
  763SOL    MW4 2820   4.067   3.258   2.115 -0.2019  0.1520  0.3349
  764SOL     OW 2821   4.125   4.056   0.202 -0.2446 -0.6264 -0.8904
  764SOL    HW2 2822   4.040   4.065   0.159 -1.2601  1.3947  1.3164
  764SOL    HW3 2823   4.105   4.057   0.295  2.2383  0.3799 -0.2794
  764SOL    MW4 2824   4.111   4.057   0.208  0.2363  0.2675  0.1959
  765SOL     OW 2825   5.579   1.040   6.055  0.7682  0.4672  0.0196
  765SOL    HW2 2826   5.595   0.961   6.003 -0.2813  0.4791 -0.3412
  765SOL    HW3 2827   5.587   1.111   5.992  1.2508  0.6240  0.2517
  765SOL    MW4 2828   5.582   1.039   6.040 -0.2772 -0.4321  0.4029
  766SOL     OW 2829   2.780   1.329   4.751  0.1058  0.1555  0.1097
  766SOL    HW2 2830   2.700   1.376   4.773 -0.2950 -0.4517 -0.0240
  766SOL    HW3 2831   2.851   1.391   4.771 -0.2708  0.0179  2.1140
  766SOL    MW4 2832   2.779   1.344   4.757  0.5539 -0.0607 -0.4309
  767SOL     OW 2833   0.225   1.917   4.911  0.6307 -0.5590 -0.2546
  767SOL    HW2 2834   0.185   1.841   4.953  0.9737 -0.0811  0.9626
  767SOL    HW3 2835   0.317   1.913   4.936  1.1015 -0.9115 -1.9447
  767SOL    MW4 2836   0.232   1.906   4.920 -0.0120 -0.0935  0.3539
  768SOL     OW 2837   3.296   0.859   6.157  0.3884  0.2337 -0.3372
  768SOL    HW2 2838   3.388   0.851   6.131  0.8990  2.0510  0.6696
  768SOL    HW3 2839   3.294   0.832   6.249  0.5511  2.8422  0.5266
  768SOL    MW4 2840   3.308   0.854   6.166  0.2570 -0.1964 -0.0149
  769SOL     OW 2841   1.374   0.898   5.107 -0.1215 -0.1676 -0.8765
  769SOL    HW2 2842   1.395   0.988   5.081 -1.2188  0.6178  0.7377
  769SOL    HW3 2843   1.283   0.902   5.136  0.0978 -1.5778  0.1333
  769SOL    MW4 2844   1.365   0.911   5.108 -0.2816  0.1818 -0.1128
  770SOL     OW 2845   1.744   5.266   1.514  0.3608 -1.0133  0.0449
  770SOL    HW2 2846   1.812   5.314   1.466  1.1624 -1.7373  0.4161
  770SOL    HW3 2847   1.731   5.317   1.594  0.4045 -0.8190 -0.0704
  770SOL    MW4 2848   1.752   5.279   1.518  0.0597 -0.1226 -0.3891
  771SOL     OW 2849   1.104   5.502   0.823 -0.0961  0.1373 -0.2269
  771SOL    HW2 2850   1.139   5.422   0.784  0.1906  0.1150  0.0745
  771SOL    HW3 2851   1.047   5.470   0.894  2.9237  0.2064  2.4447
  771SOL    MW4 2852   1.101   5.487   0.827 -0.0247  0.2408  0.2963
  772SOL     OW 2853   4.116   3.565   2.025  0.2671 -0.5122 -0.5130
  772SOL    HW2 2854   4.120   3.534   1.934  0.2355 -2.3658  0.0886
  772SOL    HW3 2855   4.204   3.550   2.059 -0.5398 -3.0834  0.7189
  772SOL    MW4 2856   4.128   3.559   2.017  0.4359  0.7192  0.1808
  773SOL     OW 2857   1.870   4.841   3.572  0.1129 -0.1421 -0.2060
  773SOL    HW2 2858   1.808   4.892   3.520  1.7477  0.7559 -1.3380
  773SOL    HW3 2859   1.827   4.756   3.583 -2.8112  1.4257  1.9575
  773SOL    MW4 2860   1.856   4.836   3.567  0.5646 -0.0537  0.1792
  774SOL     OW 2861   3.779   0.513   4.012 -0.0364  0.0587 -0.0759
  774SOL    HW2 2862   3.787   0.561   3.930 -0.2584 -1.0842 -0.7823
  774SOL    HW3 2863   3.849   0.549   4.067  1.1885 -0.3059 -1.3406
  774SOL    MW4 2864   3.789   0.524   4.008  0.1768 -0.4152  0.1015
  775SOL     OW 2865   2.135   0.635   0.910 -0.1635 -0.4161 -0.0264
  775SOL    HW2 2866   2.099   0.563   0.961 -0.8134  0.0867  0.2400
  775SOL    HW3 2867   2.059   0.685   0.881  0.3153  1.1509  1.2522
  775SOL    MW4 2868   2.121   0.632   0.913 -0.4244  0.1436 -0.0815
  776SOL     OW 2869   5.678   6.293   4.016 -0.6665  0.2780 -0.1319
  776SOL    HW2 2870   5.589   6.261   4.008 -0.4374 -1.0764  1.9403
  776SOL    HW3 2871   5.686   6.319   4.108  0.5076  2.2430 -0.7175
  776SOL    MW4 2872   5.668   6.292   4.027 -0.2885 -0.1735  0.7028
  777SOL     OW 2873   0.203   3.233   2.312 -0.0467 -0.0825 -0.7402
  777SOL    HW2 2874   0.137   3.298   2.336  1.1520  0.9779 -0.2266
  777SOL    HW3 2875   0.205   3.172   2.386 -0.2861  0.0053 -0.6598
  777SOL    MW4 2876   0.195   3.233   2.325  0.1661  0.3310 -0.4321
  778SOL     OW 2877   2.435   2.856   1.740  0.6079 -0.4613  0.8161
  778SOL    HW2 2878   2.519   2.857   1.784  0.5524  1.8413  0.9873
  778SOL    HW3 2879   2.443   2.922   1.670 -0.3703 -1.7077 -0.5386
  778SOL    MW4 2880   2.447   2.865   1.736 -0.1508  0.5503  0.2821
  779SOL     OW 2881   0.137   1.795   0.481  0.3226 -0.2709  0.1554
  779SOL    HW2 2882   0.122   1.859   0.551 -2.2732  0.1216 -0.6543
  779SOL    HW3 2883   0.069   1.730   0.493  2.5113 -2.6365  0.5546
  779SOL    MW4 2884   0.126   1.795   0.492  0.5434 -0.2132  0.0637
  780SOL     OW 2885   1.841   4.284   0.180  0.1565  0.0901 -0.0912
  780SOL    HW2 2886   1.851   4.379   0.170  0.7698 -0.0774 -1.3413
  780SOL    HW3 2887   1.758   4.264   0.137  2.0371 -0.4239 -3.9065
  780SOL    MW4 2888   1.832   4.294   0.173 -0.4320 -0.3189  0.3445
  781SOL     OW 2889   0.409   4.583   4.380 -0.1116  0.4524  0.8291
  781SOL    HW2 2890   0.314   4.592   4.392  0.0401  0.9450  1.7168
  781SOL    HW3 2891   0.438   4.672   4.357 -0.0111  0.0795 -0.5946
  781SOL    MW4 2892   0.400   4.596   4.378  0.1038  0.3030  0.4036
  782SOL     OW 2893   1.148   5.836   4.532 -0.2178 -0.0974 -0.4651
  782SOL    HW2 2894   1.135   5.745   4.508 -2.0072  0.4119 -1.6860
  782SOL    HW3 2895   1.066   5.879   4.508  0.8661  1.9900 -0.7176
  782SOL    MW4 2896   1.136   5.830   4.525 -0.4072 -0.0577  0.0662
  783SOL     OW 2897   3.270   6.356   5.184  0.1357 -0.2964  0.0124
  783SOL    HW2 2898   3.362   6.381   5.183  0.2533 -0.7344 -0.0198
  783SOL    HW3 2899   3.244   6.360   5.091 -0.0369  0.4060  0.0846
  783SOL    MW4 2900   3.278   6.360   5.171 -0.3092  0.2921  1.1433
  784SOL     OW 2901   0.226   2.982   6.233 -0.7221 -0.3472 -0.2892
  784SOL    HW2 2902   0.226   2.984   6.137 -1.4410 -1.0299 -0.3142
  784SOL    HW3 2903   0.146   3.030   6.258  0.0828  0.8780  0.0122
  784SOL    MW4 2904   0.215   2.988   6.224  0.0729  0.0372 -0.0195
  785SOL     OW 2905   1.252   4.125   0.867  0.7153 -0.0304  0.0858
  785SOL    HW2 2906   1.278   4.041   0.829  1.1283  0.0077  0.2764
  785SOL    HW3 2907   1.316   4.187   0.833  0.8209  0.0839  0.4896
  785SOL    MW4 2908   1.264   4.122   0.857 -0.2351 -0.1396 -0.7006
  786SOL     OW 2909   6.217   5.236   5.621  0.1250  0.4741 -0.2558
  786SOL    HW2 2910   6.149   5.172   5.599  0.2767 -0.3452  1.4696
  786SOL    HW3 2911   6.172   5.320   5.622 -0.1055  0.4414 -2.4616
  786SOL    MW4 2912   6.202   5.239   5.618  0.4280 -0.1753  0.4314
  787SOL     OW 2913   1.799   0.157   4.026  0.3174 -0.5415 -0.1888
  787SOL    HW2 2914   1.739   0.128   3.958  1.6187  0.7210 -1.9773
  787SOL    HW3 2915   1.832   0.076   4.066  0.3594 -1.3638 -1.8247
  787SOL    MW4 2916   1.795   0.143   4.023 -0.7720  0.2977 -0.4807
  788SOL     OW 2917   6.097   1.184   0.369 -0.3357 -0.5862  0.2312
  788SOL    HW2 2918   6.019   1.128   0.361  0.2077 -1.0830 -2.6681
  788SOL    HW3 2919   6.063   1.268   0.399 -1.4604 -1.7647  2.5134
  788SOL    MW4 2920   6.082   1.187   0.372 -0.0906  0.1263 -0.2641
  789SOL     OW 2921   6.318   6.396   1.043  0.8439 -0.2783 -0.5735
  789SOL    HW2 2922   6.413   6.391   1.055  0.7607 -0.1728  0.2043
  789SOL    HW3 2923   6.282   6.372   1.128  0.1496 -1.0234 -1.0609
  789SOL    MW4 2924   6.326   6.393   1.056  0.2180  0.1357 -0.0803
  790SOL     OW 2925   0.426   5.010   3.386 -0.0214  0.3606 -0.0620
  790SOL    HW2 2926   0.469   4.927   3.405 -0.0682  0.0252 -1.3821
  790SOL    HW3 2927   0.334   4.995   3.406  0.0224  0.2128  0.0332
  790SOL    MW4 2928   0.420   4.997   3.391 -0.1589  0.3568 -0.2404
  791SOL     OW 2929   3.831   0.628   0.947  0.0671 -0.4736 -0.1499
  791SOL    HW2 2930   3.872   0.664   1.026 -0.8560  1.2211 -0.4110
  791SOL    HW3 2931   3.882   0.665   0.875 -1.1745  0.7158 -0.4386
  791SOL    MW4 2932   3.843   0.638   0.948 -0.5337 -0.0333  0.2229
  792SOL     OW 2933   5.659   0.212   3.296  0.0114  0.0035  0.0625
  792SOL    HW2 2934   5.735   0.260   3.264 -1.5545  1.4939 -1.6358
  792SOL    HW3 2935   5.687   0.178   3.381  2.0587  1.7545  0.1907
  792SOL    MW4 2936   5.673   0.214   3.303 -0.1127  0.5418  0.6637
  793SOL     OW 2937   5.445   2.956   3.293  0.6946 -0.1983  0.2820
  793SOL    HW2 2938   5.352   2.968   3.278  0.7762 -0.2802 -0.3301
  793SOL    HW3 2939   5.452   2.867   3.328  0.4958 -0.0034  0.8201
  793SOL    MW4 2940   5.434   2.946   3.295  0.7415 -0.5774  0.5883
  794SOL     OW 2941   0.672   0.429   3.832  0.6941  0.0750 -0.4379
  794SOL    HW2 2942   0.693   0.356   3.773 -1.1251 -0.1234 -0.8965
  794SOL    HW3 2943   0.605   0.479   3.785  2.5035  2.6435 -0.5656
  794SOL    MW4 2944   0.666   0.426   3.818  0.1988  0.6044  0.1713
  795SOL     OW 2945   1.770   1.416   1.255 -0.5170  0.6425 -0.6622
  795SOL    HW2 2946   1.679   1.436   1.278 -0.8483  2.1125 -2.9803
  795SOL    HW3 2947   1.821   1.484   1.298 -0.6927  0.8842 -0.8355
  795SOL    MW4 2948   1.764   1.428   1.264 -0.1776  0.4975 -0.2686
  796SOL     OW 2949   0.143   3.744   4.520 -0.2392 -0.6193  0.1870
  796SOL    HW2 2950   0.154   3.732   4.426  2.2316 -1.1078  0.4741
  796SOL    HW3 2951   0.140   3.655   4.555  1.9485 -0.5068  0.8047
  796SOL    MW4 2952   0.144   3.730   4.512 -0.3279  0.4419 -0.3542
  797SOL     OW 2953   2.383   5.216   5.570 -0.3961 -0.2697 -0.4165
  797SOL    HW2 2954   2.343   5.148   5.624  0.8059 -0.9137 -0.3007
  797SOL    HW3 2955   2.396   5.289   5.629 -1.6368  0.0658 -0.5240
  797SOL    MW4 2956   2.379   5.216   5.585  0.1856  0.3691 -0.0678
  798SOL     OW 2957   2.432   3.441   2.336  0.1337 -0.8665 -0.3933
  798SOL    HW2 2958   2.355   3.428   2.282 -0.2622 -0.3520  0.0362
  798SOL    HW3 2959   2.410   3.516   2.392  1.3831  0.0301 -1.0721
  798SOL    MW4 2960   2.419   3.449   2.337  0.0218  0.0032 -0.0171
  799SOL     OW 2961   4.914   0.435   2.568  0.4735 -0.1928  0.3023
  799SOL    HW2 2962   4.991   0.402   2.523  0.5684  0.7491 -0.2530
  799SOL    HW3 2963   4.867   0.357   2.596  1.8383 -0.7833  1.0403
  799SOL    MW4 2964   4.918   0.421   2.566  0.1779 -0.0708 -0.6434
  800SOL     OW 2965   1.251   0.857   0.272  0.2838 -0.0995 -0.0903
  800SOL    HW2 2966   1.214   0.798   0.338  2.2889 -1.0607  0.2533
  800SOL    HW3 2967   1.175   0.891   0.225 -1.0661 -1.2223  1.1695
  800SOL    MW4 2968   1.236   0.854   0.275  0.6873 -0.1915 -0.7969
  801SOL     OW 2969   1.318   1.527   0.443  0.3766 -0.2390  0.0551
  801SOL    HW2 2970   1.322   1.471   0.365  2.2391  0.4417 -0.4150
  801SOL    HW3 2971   1.225   1.534   0.463 -0.0690 -1.4206 -1.3920
  801SOL    MW4 2972   1.306   1.521   0.435 -0.2921 -0.5678 -0.4205
  802SOL     OW 2973   2.286   5.346   3.724 -0.2081 -0.1831  0.3005
  802SOL    HW2 2974   2.325   5.355   3.637  0.0301 -1.3054  0.2767
  802SOL    HW3 2975   2.318   5.261   3.756 -1.7096 -0.6177  0.7452
  802SOL    MW4 2976   2.295   5.336   3.717 -0.0639  0.3205 -0.1485
  803SOL     OW 2977   1.280   1.259   4.871  0.0832  0.1989 -0.0593
  803SOL    HW2 2978   1.280   1.237   4.778  1.6435 -0.2812  0.0319
  803SOL    HW3 2979   1.360   1.221   4.905 -0.6553  0.0154  1.5882
  803SOL    MW4 2980   1.290   1.252   4.863 -0.2041  0.2381  0.1447
  804SOL     OW 2981   4.030   1.594   0.086 -0.8486  0.2118 -0.1929
  804SOL    HW2 2982   4.065   1.676   0.120 -0.6395  0.0040  0.0951
  804SOL    HW3 2983   4.094   1.567   0.020 -1.6144  0.9826 -1.2930
  804SOL    MW4 2984   4.043   1.601   0.081 -0.4797 -0.7608 -0.3852
  805SOL     OW 2985   0.599   3.138   2.129  0.2360  0.4858  0.6628
  805SOL    HW2 2986   0.662   3.143   2.057  0.0463 -1.7402  0.2803
  805SOL    HW3 2987   0.515   3.163   2.090 -0.2000 -2.2913 -0.4404
  805SOL    MW4 2988   0.596   3.142   2.114 -0.4802 -0.4007  0.0990
  806SOL     OW 2989   5.163   4.992   3.088  0.1300  0.4720 -0.2429
  806SOL    HW2 2990   5.248   4.975   3.128 -0.8113  1.1082  2.2559
  806SOL    HW3 2991   5.165   4.945   3.005  2.3226 -0.8175  0.4601
  806SOL    MW4 2992   5.174   4.984   3.083  0.1347  0.5088 -0.1101
  807SOL     OW 2993   6.374   5.843   0.734 -0.2056  0.3103 -0.2800
  807SOL    HW2 2994   6.421   5.830   0.816 -0.9493  1.9140  0.4351
  807SOL    HW3 2995   6.427   5.907   0.686 -0.5574  0.5179 -0.3910
  807SOL    MW4 2996   6.387   5.850   0.738 -0.3605  0.4605  0.2471
  808SOL     OW 2997   5.298   1.849   4.263 -0.1297  0.1488 -0.1492
  808SOL    HW2 2998   5.347   1.922   4.301  0.6751  0.1498 -1.1451
  808SOL    HW3 2999   5.356   1.773   4.274  0.7003  0.3706 -2.4377
  808SOL    MW4 3000   5.312   1.848   4.270 -0.0025 -0.0523 -0.4285
  809SOL     OW 3001   0.852   0.272   6.202 -0.0744 -0.4108 -0.1203
  809SOL    HW2 3002   0.760   0.248   6.215 -0.0995 -0.4461 -0.3552
  809SOL    HW3 3003   0.868   0.256   6.109 -0.7608  2.6708 -0.8825
  809SOL    MW4 3004   0.842   0.267   6.191  0.1704  0.4976 -0.1198
  810SOL     OW 3005   5.402   4.595   5.247  0.0095  0.5063  0.0009
  810SOL    HW2 3006   5.421   4.689   5.249 -1.6551  0.8950 -0.5297
  810SOL    HW3 3007   5.411   4.570   5.155  1.0127  0.0072  0.2262
  810SOL    MW4 3008   5.405   4.604   5.235  0.4351  0.6238 -0.1546
  811SOL     OW 3009   0.117   0.703   0.306 -0.2609 -0.0639 -0.7395
  811SOL    HW2 3010   0.171   0.769   0.349  0.2583 -1.1000  0.2444
  811SOL    HW3 3011   0.150   0.700   0.217  0.5722  0.1048 -0.4504
  811SOL    MW4 3012   0.128   0.712   0.300  0.3146  0.4913  0.0195
  812SOL     OW 3013   0.007   2.904   0.981  0.1166  0.2184  0.0065
  812SOL    HW2 3014   0.092   2.924   0.942  0.6379  0.6091  1.3023
  812SOL    HW3 3015  -0.028   2.833   0.927  1.5941 -0.4602 -0.1024
  812SOL    MW4 3016   0.014   2.897   0.969 -0.1918  0.0171  0.2115
  813SOL     OW 3017   3.379   1.608   1.105 -0.3298  0.1264 -0.0108
  813SOL    HW2 3018   3.370   1.683   1.046 -2.8586 -0.8904 -1.0524
  813SOL    HW3 3019   3.318   1.543   1.070 -1.0659 -0.9834  3.0542
  813SOL    MW4 3020   3.370   1.610   1.093  0.0674 -0.0912  0.5925
  814SOL     OW 3021   3.219   4.821   5.948  0.0742  0.1182 -0.1702
  814SOL    HW2 3022   3.180   4.802   5.863  0.8574 -3.9231  0.1994
  814SOL    HW3 3023   3.303   4.863   5.927  0.7299 -1.7476 -1.4895
  814SOL    MW4 3024   3.225   4.824   5.934  0.0504  0.0264 -0.2281
  815SOL     OW 3025   0.089   3.760   1.020 -0.1000 -0.1128 -0.4405
  815SOL    HW2 3026   0.058   3.834   1.073 -0.3378 -1.0305  0.7634
  815SOL    HW3 3027   0.035   3.762   0.942 -1.3373 -0.0580  0.3879
  815SOL    MW4 3028   0.078   3.770   1.017 -0.5664 -0.2406 -0.0207
  816SOL     OW 3029   3.115   2.740   1.740 -0.0621  0.6031  0.2818
  816SOL    HW2 3030   3.060   2.777   1.810 -0.0386 -0.0616  0.6591
  816SOL    HW3 3031   3.089   2.788   1.661 -1.1411  0.3421  0.4684
  816SOL    MW4 3032   3.104   2.751   1.739 -0.0462  0.1209 -0.2969
  817SOL     OW 3033   1.244   5.670   4.154 -0.0010  0.0466 -0.1785
  817SOL    HW2 3034   1.233   5.621   4.236  0.0519 -1.8508 -1.2271
  817SOL    HW3 3035   1.325   5.636   4.117 -0.3181  0.4522 -1.2737
  817SOL    MW4 3036   1.253   5.659   4.160 -0.7869  0.0118  0.6198
  818SOL     OW 3037   4.968   5.303   3.401  0.2940  0.5665 -0.1803
  818SOL    HW2 3038   4.948   5.219   3.362  2.7046 -0.2766  0.2084
  818SOL    HW3 3039   5.026   5.282   3.475 -2.7527  2.1905  2.9656
  818SOL    MW4 3040   4.973   5.289   3.406 -0.0895  0.5119 -0.4829
  819SOL     OW 3041   5.150   3.631   0.406  0.6183 -0.6152 -0.9865
  819SOL    HW2 3042   5.087   3.569   0.370  0.5152 -1.8811  1.2191
  819SOL    HW3 3043   5.160   3.605   0.498  4.0463 -0.1996 -1.1190
  819SOL    MW4 3044   5.143   3.620   0.414 -0.3504  0.1027  0.1477
  820SOL     OW 3045   0.721   6.244   4.091  0.1503 -0.2341  0.1299
  820SOL    HW2 3046   0.674   6.326   4.073 -0.1493 -0.1976  1.0348
  820SOL    HW3 3047   0.782   6.235   4.018 -1.3493 -0.3460 -1.1514
  820SOL    MW4 3048   0.723   6.254   4.079 -0.7916 -0.6837  0.4476
  821SOL     OW 3049   4.378   0.616   3.731  0.2394  0.0748 -0.5695
  821SOL    HW2 3050   4.465   0.583   3.754 -0.3930 -1.2892 -0.0033
  821SOL    HW3 3051   4.394   0.704   3.695  1.9116 -0.4380 -1.1861
  821SOL    MW4 3052   4.392   0.623   3.729 -0.1068 -0.6328 -0.5124
  822SOL     OW 3053   1.949   3.130   2.046  0.4061  0.1276 -0.2054
  822SOL    HW2 3054   1.943   3.152   2.139  0.3193 -0.0038 -0.1803
  822SOL    HW3 3055   1.902   3.201   2.001 -1.7059 -1.0775  0.0059
  822SOL    MW4 3056   1.942   3.143   2.052 -0.1471  0.2321  0.2004
  823SOL     OW 3057   5.730   3.059   3.776 -0.1330  0.0135 -0.0784
  823SOL    HW2 3058   5.669   3.131   3.790 -0.3049 -0.2845  0.7756
  823SOL    HW3 3059   5.675   2.988   3.741  0.1118  0.4257 -1.3170
  823SOL    MW4 3060   5.715   3.059   3.773  0.1286 -0.4451  0.2994
  824SOL     OW 3061   4.358   1.304   0.659 -0.1581  0.0747 -0.0420
  824SOL    HW2 3062   4.309   1.297   0.741 -0.3188  0.2478 -0.1245
  824SOL    HW3 3063   4.294   1.290   0.591 -0.1234  0.4408 -0.1544
  824SOL    MW4 3064   4.343   1.301   0.661 -0.0340 -0.3012  0.3661
  825SOL     OW 3065   5.572   1.562   6.112 -0.1798  0.3170  0.3584
  825SOL    HW2 3066   5.534   1.486   6.156  0.6314  0.8025  1.9888
  825SOL    HW3 3067   5.637   1.595   6.174  1.6639  0.5448 -1.6174
  825SOL    MW4 3068   5.575   1.556   6.126  0.6894 -0.1003  1.1976
  826SOL     OW 3069   2.080   0.628   0.032 -0.5567  0.4797 -0.2491
  826SOL    HW2 3070   2.127   0.600   0.111  0.3548 -1.5214 -1.4102
  826SOL    HW3 3071   2.009   0.564   0.022 -1.4688  1.4843 -0.3642
  826SOL    MW4 3072   2.077   0.616   0.041  0.5784 -0.0742 -0.7369
  827SOL     OW 3073   0.899   4.141   0.757 -0.0659 -0.5044  0.0916
  827SOL    HW2 3074   0.925   4.146   0.849 -2.2294  2.0289  0.6901
  827SOL    HW3 3075   0.890   4.232   0.729 -1.1791 -1.2088 -2.1304
  827SOL    MW4 3076   0.902   4.153   0.765 -0.3415 -0.1721 -0.0561
  828SOL     OW 3077   5.062   2.352   1.658 -0.4182 -0.6057  0.4198
  828SOL    HW2 3078   5.049   2.359   1.752 -0.8182 -0.1550  0.3413
  828SOL    HW3 3079   5.135   2.292   1.647  0.0719 -0.1309  1.0404
  828SOL    MW4 3080   5.070   2.345   1.669  0.0307 -0.0134 -0.4614
  829SOL     OW 3081   1.952   5.682   5.205 -0.1774  0.4704 -0.0937
  829SOL    HW2 3082   1.943   5.732   5.124 -0.8246 -0.9266 -0.9121
  829SOL    HW3 3083   2.007   5.607   5.181 -2.5747 -1.4280  0.0173
  829SOL    MW4 3084   1.958   5.679   5.191 -0.5296  0.0463  0.6081
  830SOL     OW 3085   4.614   3.016   5.856 -0.0733  0.0277  0.0680
  830SOL    HW2 3086   4.557   3.089   5.834  1.3047  1.0817 -0.1686
  830SOL    HW3 3087   4.601   2.953   5.786 -0.1212  0.7449 -0.5760
  830SOL    MW4 3088   4.605   3.017   5.844  0.2709 -0.7093 -0.5578
  831SOL     OW 3089   1.857   1.174   2.285  0.2873  0.1901  0.0131
  831SOL    HW2 3090   1.800   1.101   2.309  1.8695 -1.0841  0.1362
  831SOL    HW3 3091   1.801   1.251   2.286 -1.8723 -1.2342 -1.7552
  831SOL    MW4 3092   1.842   1.174   2.288 -0.6224 -0.1005 -0.1751
  832SOL     OW 3093   5.601   1.088   1.660 -0.1315  0.3810  0.5875
  832SOL    HW2 3094   5.539   1.092   1.588  0.0744 -1.0071  0.3018
  832SOL    HW3 3095   5.684   1.065   1.619  0.0059 -0.3614  1.2618
  832SOL    MW4 3096   5.604   1.086   1.645 -0.1967  0.4280  0.0963
  833SOL     OW 3097   5.313   4.355   2.226 -0.3254  0.2054  0.5482
  833SOL    HW2 3098   5.338   4.304   2.303  0.2609 -1.2504 -0.5426
  833SOL    HW3 3099   5.393   4.401   2.201 -0.0414 -0.6231 -0.1199
  833SOL    MW4 3100   5.327   4.354   2.233 -0.3648 -0.5919  0.9116
  834SOL     OW 3101   5.986   5.827   3.023  0.6312 -0.4734 -0.1286
  834SOL    HW2 3102   5.934   5.906   3.016  1.5734  0.3295  1.4794
  834SOL    HW3 3103   5.923   5.757   3.040 -0.5509 -0.6724 -4.2623
  834SOL    MW4 3104   5.971   5.828   3.024 -0.4239  0.3069 -0.4638
  835SOL     OW 3105   2.847   1.434   4.487 -0.2413 -0.4654  0.2074
  835SOL    HW2 3106   2.778   1.413   4.423 -0.2642 -0.6610  0.2940
  835SOL    HW3 3107   2.807   1.415   4.572 -0.3815  0.2769  0.3133
  835SOL    MW4 3108   2.833   1.429   4.490  0.2719  0.2203 -0.3546
  836SOL     OW 3109   0.916   0.727   0.132 -0.2161 -0.4241  0.6303
  836SOL    HW2 3110   0.985   0.661   0.147  1.1503  1.0536  1.1567
  836SOL    HW3 3111   0.964   0.807   0.109 -1.8636  0.2127 -0.8072
  836SOL    MW4 3112   0.932   0.729   0.131 -0.2022 -0.3709 -0.2505
  837SOL     OW 3113   0.369   5.797   6.149 -0.4675  0.1193  0.0977
  837SOL    HW2 3114   0.341   5.709   6.125 -0.1865 -0.6713  2.3938
  837SOL    HW3 3115   0.307   5.855   6.105 -0.3598 -1.1609 -1.8650
  837SOL    MW4 3116   0.357   5.793   6.140 -0.0581 -0.2201 -0.0474
  838SOL     OW 3117   2.639   3.146   3.973 -0.0743 -0.4326  0.0518
  838SOL    HW2 3118   2.664   3.218   4.031  0.3291 -0.1129 -0.5082
  838SOL    HW3 3119   2.598   3.082   4.031 -1.3143  0.6445  0.4322
  838SOL    MW4 3120   2.637   3.147   3.988 -0.3302  0.5091 -0.5019
  839SOL     OW 3121   1.756   4.336   3.171  0.6915  0.3179 -0.4096
  839SOL    HW2 3122   1.743   4.430   3.162  0.8830  0.1279 -4.2202
  839SOL    HW3 3123   1.675   4.297   3.138  1.4255 -0.8295 -0.9122
  839SOL    MW4 3124   1.744   4.343   3.165 -0.1028  0.0431  0.5214
  840SOL     OW 3125   1.893   2.877   1.860 -0.0424 -0.1165  0.0880
  840SOL    HW2 3126   1.987   2.863   1.866  0.0906  1.1202  1.5830
  840SOL    HW3 3127   1.885   2.966   1.825 -0.6329 -0.0645  0.3487
  840SOL    MW4 3128   1.904   2.887   1.856 -0.3670 -0.0507 -0.6469
  841SOL     OW 3129   0.323   5.136   0.826  0.2489  0.1443  0.5056
  841SOL    HW2 3130   0.367   5.127   0.742 -0.5407  0.1037  0.0802
  841SOL    HW3 3131   0.284   5.050   0.841 -1.0440  0.6286  0.0713
  841SOL    MW4 3132   0.323   5.123   0.817  0.2585 -0.5070  0.5059
  842SOL     OW 3133   5.638   1.258   5.063  0.1752  0.1335  0.0451
  842SOL    HW2 3134   5.622   1.200   5.137 -1.3891 -0.1633 -0.4899
  842SOL    HW3 3135   5.700   1.211   5.008 -1.0898 -1.0897 -0.3944
  842SOL    MW4 3136   5.644   1.244   5.066  0.7131  0.3100 -0.2571
  843SOL     OW 3137   2.471   6.109   3.219  0.2559  0.1249 -0.5855
  843SOL    HW2 3138   2.475   6.087   3.312 -0.4599  0.7978 -0.3834
  843SOL    HW3 3139   2.497   6.201   3.214  1.3495 -0.2052 -1.1914
  843SOL    MW4 3140   2.475   6.118   3.230  0.0140 -1.0656  0.0119
  844SOL     OW 3141   2.400   3.607   0.645 -0.4782  0.6599 -0.1150
  844SOL    HW2 3142   2.369   3.537   0.702 -1.4516 -0.5166 -2.0063
  844SOL    HW3 3143   2.487   3.630   0.680 -0.0453 -1.6124  0.4458
  844SOL    MW4 3144   2.408   3.601   0.658 -0.9377  0.3373 -0.3832
  845SOL     OW 3145   2.223   3.171   5.891  0.3655  0.1816  0.7339
  845SOL    HW2 3146   2.224   3.108   5.963 -2.0880 -2.0666 -1.0244
  845SOL    HW3 3147   2.295   3.232   5.911  0.4780 -0.9573  4.4434
  845SOL    MW4 3148   2.233   3.171   5.903 -0.1624 -0.3924  0.1968
  846SOL     OW 3149   5.143   2.879   3.230  0.4282 -0.4079  0.1399
  846SOL    HW2 3150   5.117   2.923   3.310  1.0045  0.0091  0.1040
  846SOL    HW3 3151   5.064   2.834   3.200 -0.2297  0.7505  0.0798
  846SOL    MW4 3152   5.129   2.878   3.236 -0.2572  0.0694 -0.2405
  847SOL     OW 3153   2.090   2.142   4.729  0.2902 -0.2444  0.1617
  847SOL    HW2 3154   2.089   2.232   4.695 -0.5439 -0.5460 -0.6879
  847SOL    HW3 3155   2.092   2.087   4.650  1.9436 -0.9815  0.6896
  847SOL    MW4 3156   2.090   2.147   4.714 -0.3804 -0.3254 -0.0490
  848SOL     OW 3157   3.104   5.998   6.419  0.1878  0.4315  0.0977
  848SOL    HW2 3158   3.127   6.075   6.471  0.7228  0.1883  0.2342
  848SOL    HW3 3159   3.023   6.022   6.374 -0.4137  0.5750  1.2098
  848SOL    MW4 3160   3.096   6.011   6.420 -0.4814  0.5128 -0.0327
  849SOL     OW 3161   3.432   4.551   3.203  0.1903  0.0824  0.0043
  849SOL    HW2 3162   3.501   4.490   3.179  1.0868  0.9075  0.4292
  849SOL    HW3 3163   3.355   4.495   3.217  0.4324 -0.7255 -1.6569
  849SOL    MW4 3164   3.431   4.535   3.201 -0.5209 -0.2020 -0.4204
  850SOL     OW 3165   0.131   4.948   3.373 -0.7477  0.4501  0.3523
  850SOL    HW2 3166   0.071   4.877   3.350 -0.5976  0.5821 -0.4770
  850SOL    HW3 3167   0.097   5.024   3.328  0.8436  0.2179 -1.3771
  850SOL    MW4 3168   0.119   4.948   3.364  0.0958  0.0035 -0.2970
  851SOL     OW 3169   3.113   5.308   6.310  0.0551 -0.4335  0.5407
  851SOL    HW2 3170   3.162   5.376   6.357  2.5214 -1.8559  0.2313
  851SOL    HW3 3171   3.179   5.265   6.255 -2.1224 -0.7269 -2.0885
  851SOL    MW4 3172   3.128   5.311   6.309  0.2248 -0.2916  0.4007
  852SOL     OW 3173   1.183   1.801   5.121 -0.2567  0.0454  0.3242
  852SOL    HW2 3174   1.217   1.758   5.199  0.0722 -0.7466 -0.2448
  852SOL    HW3 3175   1.088   1.802   5.134 -0.1086  2.7941  2.1935
  852SOL    MW4 3176   1.175   1.796   5.133 -0.0535  0.3482  0.2237
  853SOL     OW 3177   0.506   1.799   4.496  0.1579 -0.4860 -0.0626
  853SOL    HW2 3178   0.503   1.889   4.465  1.1592 -0.3546  0.1881
  853SOL    HW3 3179   0.529   1.747   4.419 -0.2070 -0.5041 -0.1600
  853SOL    MW4 3180   0.509   1.804   4.482 -0.3932  0.1317 -1.0441
  854SOL     OW 3181   4.237   2.394   2.908  0.6466 -0.1653 -0.3421
  854SOL    HW2 3182   4.146   2.424   2.900  0.3734 -0.6996  0.6123
  854SOL    HW3 3183   4.289   2.467   2.874 -0.1938 -0.6391 -2.8410
  854SOL    MW4 3184   4.232   2.407   2.903  0.2621 -0.2938  0.0930
  855SOL     OW 3185   3.446   1.493   3.412 -0.2639  0.6663  0.6418
  855SOL    HW2 3186   3.455   1.491   3.508 -0.4354 -1.1462  0.6626
  855SOL    HW3 3187   3.529   1.531   3.382  1.3193 -1.8764  1.4314
  855SOL    MW4 3188   3.458   1.497   3.421  0.3741 -0.6465 -0.8005
  856SOL     OW 3189   3.450   5.529   2.313 -0.6674  0.1880 -1.1001
  856SOL    HW2 3190   3.438   5.525   2.408 -0.2639 -0.7378 -1.0705
  856SOL    HW3 3191   3.387   5.594   2.283 -1.9426 -0.6693 -0.3753
  856SOL    MW4 3192   3.440   5.537   2.322  0.4650 -0.2179  0.7479
  857SOL     OW 3193   0.478   1.838   2.196 -0.1105  0.2793  0.8527
  857SOL    HW2 3194   0.416   1.855   2.267 -1.1024 -3.4079  1.0728
  857SOL    HW3 3195   0.559   1.812   2.240 -1.1284 -3.3532  0.8471
  857SOL    MW4 3196   0.480   1.837   2.211 -0.5690  0.8519  0.2616
  858SOL     OW 3197   5.512   3.768   4.714  0.2867  0.0268 -0.3865
  858SOL    HW2 3198   5.548   3.747   4.800  1.4565  0.0934 -0.8376
  858SOL    HW3 3199   5.497   3.683   4.673 -1.6532 -0.0564  0.3934
  858SOL    MW4 3200   5.515   3.754   4.720  0.5239 -0.0095  0.6930
  859SOL     OW 3201   0.224   5.909   3.319 -0.1714 -0.1258  0.2094
  859SOL    HW2 3202   0.311   5.932   3.286  1.1120 -1.1887  2.5853
  859SOL    HW3 3203   0.235   5.822   3.357 -2.2983 -0.2871  0.5833
  859SOL    MW4 3204   0.237   5.901   3.320  0.5780 -0.6869  0.0541
  860SOL     OW 3205   4.902   0.689   5.491  0.5602 -0.3771  0.6286
  860SOL    HW2 3206   4.963   0.762   5.481 -0.3715  0.2172 -1.1625
  860SOL    HW3 3207   4.951   0.613   5.460 -0.3832  0.5492 -3.8506
  860SOL    MW4 3208   4.916   0.689   5.485  0.0354 -0.2307 -0.1092
  861SOL     OW 3209   2.382   0.191   0.914 -0.4384 -0.3698 -0.1344
  861SOL    HW2 3210   2.383   0.148   0.829 -1.6537  0.1189 -0.4194
  861SOL    HW3 3211   2.290   0.214   0.928  0.2273  3.0164 -0.4792
  861SOL    MW4 3212   2.370   0.188   0.905 -0.0537 -0.0960 -0.1927
  862SOL     OW 3213   3.926   2.954   5.862  0.0768 -0.3255  0.4509
  862SOL    HW2 3214   3.981   3.015   5.812 -0.4390 -0.8591 -0.8312
  862SOL    HW3 3215   3.838   2.990   5.855 -0.2311 -1.1920 -0.3214
  862SOL    MW4 3216   3.922   2.967   5.854  0.9389 -0.2735 -0.0112
  863SOL     OW 3217   3.282   3.932   2.358  0.2935  0.2984  0.1371
  863SOL    HW2 3218   3.216   3.875   2.318  1.4501 -0.3559 -0.9371
  863SOL    HW3 3219   3.242   4.019   2.360 -0.3572  0.0450 -1.0888
  863SOL    MW4 3220   3.268   3.936   2.353 -0.4123 -0.2981  0.0962
  864SOL     OW 3221   3.399   4.035   4.562 -0.4696  0.1076  0.2642
  864SOL    HW2 3222   3.483   4.040   4.608 -0.2875 -1.7007  0.2023
  864SOL    HW3 3223   3.418   3.981   4.485 -1.6443 -0.0983  0.1092
  864SOL    MW4 3224   3.413   4.029   4.558 -0.4453 -0.1200 -0.4644
  865SOL     OW 3225   1.329   2.654   2.072 -0.0096 -0.1940  0.1613
  865SOL    HW2 3226   1.247   2.637   2.024 -0.0673 -1.6784  0.7385
  865SOL    HW3 3227   1.368   2.568   2.084  1.4193  0.4513  0.3268
  865SOL    MW4 3228   1.323   2.640   2.067  0.2160  0.7796 -0.3095
  866SOL     OW 3229   1.527   0.873   5.327 -0.1976 -0.6029 -0.0153
  866SOL    HW2 3230   1.500   0.789   5.364 -1.7923  0.6308  1.8100
  866SOL    HW3 3231   1.492   0.873   5.239 -0.5573 -1.6830  0.1155
  866SOL    MW4 3232   1.519   0.862   5.321 -0.0989 -0.6381 -0.3377
  867SOL     OW 3233   0.273   1.234   3.379 -0.3537  0.4053 -0.6389
  867SOL    HW2 3234   0.212   1.217   3.307 -0.8455 -0.3047 -0.0722
  867SOL    HW3 3235   0.254   1.165   3.443  0.5399  0.6184 -0.1265
  867SOL    MW4 3236   0.263   1.222   3.378 -0.6126 -0.0996 -0.7451
  868SOL     OW 3237   1.010   5.901   4.843  0.2635 -0.1390 -0.4168
  868SOL    HW2 3238   0.945   5.969   4.855 -0.9786 -1.3134 -0.2256
  868SOL    HW3 3239   1.080   5.943   4.793  0.1973  1.6353  0.8856
  868SOL    MW4 3240   1.011   5.915   4.838  0.4688 -0.0240 -0.3331
  869SOL     OW 3241   3.472   3.537   0.506  0.0108 -0.1662  0.4678
  869SOL    HW2 3242   3.454   3.518   0.598 -2.0303  2.0077  0.6000
  869SOL    HW3 3243   3.502   3.628   0.505 -3.2538  1.0541 -1.2192
  869SOL    MW4 3244   3.474   3.546   0.518 -0.5077 -0.5507  0.0520
  870SOL     OW 3245   5.306   3.075   4.765  0.0151  0.6834 -0.0476
  870SOL    HW2 3246   5.246   3.012   4.805  1.1431  0.3552  1.2348
  870SOL    HW3 3247   5.276   3.084   4.675 -0.0392 -1.8822 -0.3457
  870SOL    MW4 3248   5.294   3.068   4.759 -0.6416 -0.1200  0.2338
  871SOL     OW 3249   2.387   4.714   5.817  0.2078 -0.0542 -0.4334
  871SOL    HW2 3250   2.388   4.749   5.907  0.7265 -0.4011 -0.3023
  871SOL    HW3 3251   2.432   4.781   5.765  2.6343 -1.1829  0.0813
  871SOL    MW4 3252   2.393   4.728   5.822 -0.3604 -0.5869  0.0878
  872SOL     OW 3253   3.634   2.149   0.659 -0.0693  0.0468 -0.2275
  872SOL    HW2 3254   3.683   2.195   0.728 -0.1753  0.6517 -0.5444
  872SOL    HW3 3255   3.629   2.059   0.690 -0.7330  0.4452  0.9181
  872SOL    MW4 3256   3.640   2.143   0.672  0.3641  0.3603 -0.1720
  873SOL     OW 3257   3.435   6.177   3.883 -0.9144 -0.0471  0.3233
  873SOL    HW2 3258   3.378   6.110   3.844 -1.6089 -0.9329  2.6354
  873SOL    HW3 3259   3.486   6.129   3.949 -0.3293  1.4320  0.9882
  873SOL    MW4 3260   3.434   6.162   3.887  0.0847  0.1154  0.3424
  874SOL     OW 3261   2.578   0.447   1.510 -0.0419 -0.1409  0.0056
  874SOL    HW2 3262   2.574   0.541   1.526 -0.6392 -0.1701  0.0390
  874SOL    HW3 3263   2.653   0.417   1.562 -2.2421 -0.3262  3.3068
  874SOL    MW4 3264   2.588   0.456   1.519  0.0760 -0.2666  0.4403
  875SOL     OW 3265   0.639   3.377   1.892  0.3218 -0.2377 -0.0485
  875SOL    HW2 3266   0.584   3.423   1.828 -1.0299 -1.8639 -0.1290
  875SOL    HW3 3267   0.667   3.445   1.953 -1.2131  0.7729 -0.4236
  875SOL    MW4 3268   0.635   3.392   1.891  0.1646 -0.0529  0.0497
  876SOL     OW 3269   4.397   4.909   1.178 -0.4679  0.5582 -0.2907
  876SOL    HW2 3270   4.492   4.908   1.163 -0.4348  0.8935 -0.0979
  876SOL    HW3 3271   4.376   4.818   1.201 -0.0639  0.6611  0.4959
  876SOL    MW4 3272   4.407   4.897   1.179 -0.3824 -0.3439  0.4379
  877SOL     OW 3273   5.999   2.845   2.087 -0.4562  0.1222 -0.0064
  877SOL    HW2 3274   5.999   2.776   2.021 -0.7244 -1.5812  1.6840
  877SOL    HW3 3275   5.909   2.851   2.117 -0.7201  2.1704 -0.9924
  877SOL    MW4 3276   5.987   2.837   2.082 -0.1576 -0.2694  0.2019
  878SOL     OW 3277   1.180   5.282   0.694 -0.5115  0.6510  0.1221
  878SOL    HW2 3278   1.208   5.258   0.606 -1.4916 -0.0225 -0.0236
  878SOL    HW3 3279   1.242   5.238   0.752  1.2954  2.5948 -0.2101
  878SOL    MW4 3280   1.192   5.273   0.690  0.1498  0.4445 -0.2233
  879SOL     OW 3281   0.627   6.275   5.147  0.2008  0.5991 -0.4673
  879SOL    HW2 3282   0.632   6.202   5.209 -0.1627 -0.3715 -1.5492
  879SOL    HW3 3283   0.652   6.352   5.199  2.0433 -0.4788  0.3707
  879SOL    MW4 3284   0.631   6.276   5.162 -0.7780 -0.1542  0.0420
  880SOL     OW 3285   6.120   5.612   0.892 -0.0574  0.0071 -0.3860
  880SOL    HW2 3286   6.155   5.666   0.963 -0.4983 -0.5242  0.2384
  880SOL    HW3 3287   6.142   5.661   0.812  1.5913 -0.0325  0.0203
  880SOL    MW4 3288   6.127   5.626   0.891  0.6170  0.1505  0.4110
  881SOL     OW 3289   3.300   5.145   0.142 -0.3108  0.3037  0.1218
  881SOL    HW2 3290   3.337   5.159   0.229  1.7980  0.0104 -0.6589
  881SOL    HW3 3291   3.244   5.068   0.151  1.5632 -1.0556  0.8008
  881SOL    MW4 3292   3.298   5.137   0.155 -0.3465 -0.3789  0.2229
  882SOL     OW 3293   3.605   5.474   3.722 -0.4094 -0.3608 -0.2923
  882SOL    HW2 3294   3.534   5.409   3.720 -0.9547  0.2031  0.1315
  882SOL    HW3 3295   3.632   5.477   3.814  0.9869 -1.4252 -0.6447
  882SOL    MW4 3296   3.599   5.466   3.734  0.9107 -0.3020  0.4802
  883SOL     OW 3297   2.384   4.312   1.775  0.0094 -0.0795  0.3978
  883SOL    HW2 3298   2.358   4.403   1.789 -0.9544 -0.2105 -0.4259
  883SOL    HW3 3299   2.386   4.273   1.862 -2.3627  0.0161  0.5467
  883SOL    MW4 3300   2.381   4.319   1.788 -0.5957  0.2615  0.1752
  884SOL     OW 3301   3.027   5.039   5.070  0.2653  0.4422  0.0467
  884SOL    HW2 3302   3.081   5.000   5.001 -1.0608  0.7008 -1.1873
  884SOL    HW3 3303   3.076   5.116   5.098 -0.4215  2.0204 -2.6928
  884SOL    MW4 3304   3.041   5.044   5.064  0.1865 -0.0768 -0.1601
  885SOL     OW 3305   2.311   0.665   4.285 -0.2623  0.0168 -0.0359
  885SOL    HW2 3306   2.337   0.715   4.363  0.7170 -0.6431  0.0793
  885SOL    HW3 3307   2.345   0.577   4.301  1.2717  0.2198 -1.8608
  885SOL    MW4 3308   2.319   0.660   4.298 -0.1319 -0.1102 -0.0052
  886SOL     OW 3309   2.410   6.117   2.102 -0.2255 -0.6313 -0.1349
  886SOL    HW2 3310   2.383   6.165   2.181 -2.9629 -0.0139 -1.3118
  886SOL    HW3 3311   2.499   6.147   2.084 -0.3728  0.9242  1.4583
  886SOL    MW4 3312   2.418   6.127   2.110 -0.1365 -0.1592  0.3911
  887SOL     OW 3313   5.402   4.520   4.975  0.1371 -0.1892  0.1263
  887SOL    HW2 3314   5.342   4.569   4.920 -0.6729  1.5911  2.4098
  887SOL    HW3 3315   5.489   4.537   4.938 -0.2316  2.1970  0.2040
  887SOL    MW4 3316   5.406   4.528   4.963  0.7692  0.0183 -0.3684
  888SOL     OW 3317   1.606   1.669   6.311  0.3400  0.5121  0.2654
  888SOL    HW2 3318   1.513   1.650   6.303  0.6971 -1.0507 -0.6564
  888SOL    HW3 3319   1.643   1.591   6.353  1.0372  1.7403  2.0620
  888SOL    MW4 3320   1.599   1.656   6.316  0.0772 -0.2356 -0.1679
  889SOL     OW 3321   3.667   2.597   2.681  0.1597  0.0724  0.2696
  889SOL    HW2 3322   3.610   2.529   2.717  0.3503 -0.0111  0.4167
  889SOL    HW3 3323   3.673   2.663   2.751 -0.2279  0.3652  0.0346
  889SOL    MW4 3324   3.661   2.597   2.695  0.9250  0.2513  0.5751
  890SOL     OW 3325   1.232   1.929   4.246 -0.3817 -0.5460 -0.2225
  890SOL    HW2 3326   1.146   1.959   4.275 -0.7446 -0.7758 -1.0366
  890SOL    HW3 3327   1.215   1.880   4.166  0.5526 -0.2601 -0.6136
  890SOL    MW4 3328   1.219   1.927   4.240 -0.0005  0.4219  0.7271
  891SOL     OW 3329   2.798   2.790   2.996  0.7480 -0.3940  0.4294
  891SOL    HW2 3330   2.815   2.699   2.971 -3.8102 -1.2427 -0.4043
  891SOL    HW3 3331   2.885   2.831   2.997  2.8787 -4.3902 -0.3741
  891SOL    MW4 3332   2.812   2.784   2.993 -1.0424  0.4285  0.2507
  892SOL     OW 3333   0.884   0.979   1.643  0.4254 -0.1029  0.3848
  892SOL    HW2 3334   0.866   0.917   1.713  0.8904  0.1144  0.7027
  892SOL    HW3 3335   0.904   1.061   1.688 -2.7537  1.0285 -0.0574
  892SOL    MW4 3336   0.884   0.982   1.658 -0.4474 -0.2749  0.4801
  893SOL     OW 3337   0.262   2.556   0.933  0.0475  0.4531 -0.4829
  893SOL    HW2 3338   0.343   2.553   0.983 -0.1992  0.3631 -0.0889
  893SOL    HW3 3339   0.262   2.473   0.884 -0.7349 -0.4627  0.9866
  893SOL    MW4 3340   0.273   2.544   0.933  0.1760 -0.0201 -0.6658
  894SOL     OW 3341   6.143   2.200   0.147  0.2302 -0.5907 -0.9044
  894SOL    HW2 3342   6.201   2.275   0.160 -1.6373  0.7201  0.2941
  894SOL    HW3 3343   6.069   2.235   0.097 -1.0238 -1.4413  0.2923
  894SOL    MW4 3344   6.141   2.215   0.142  0.5762  0.4137 -0.1533
  895SOL     OW 3345   3.898   4.699   5.941 -0.2324  0.1022 -0.1037
  895SOL    HW2 3346   3.953   4.738   5.872 -0.6532  1.0655  0.0890
  895SOL    HW3 3347   3.909   4.757   6.016  0.0665 -0.8320  0.5970
  895SOL    MW4 3348   3.907   4.712   5.942  0.3176  0.3012  0.1527
  896SOL     OW 3349   1.085   5.126   1.400 -0.3783 -0.2225 -0.2153
  896SOL    HW2 3350   1.083   5.135   1.495 -1.9597 -0.4947 -0.2069
  896SOL    HW3 3351   1.077   5.216   1.367 -2.0042 -0.2925 -0.0768
  896SOL    MW4 3352   1.084   5.139   1.408  0.4775  0.1552  0.2016
  897SOL     OW 3353   4.992   1.542   0.699  0.2505 -0.4560  0.2961
  897SOL    HW2 3354   4.926   1.535   0.768  0.1564  0.3308  0.2997
  897SOL    HW3 3355   4.991   1.635   0.675  0.9253 -0.5555 -0.1318
  897SOL    MW4 3356   4.983   1.553   0.705  0.1947 -0.6494  0.0828
  898SOL     OW 3357   5.471   1.391   3.093  0.2947 -0.5153 -0.0432
  898SOL    HW2 3358   5.434   1.425   3.174  1.3451 -0.4607  0.4314
  898SOL    HW3 3359   5.452   1.297   3.095 -0.6308 -0.3392 -0.2661
  898SOL    MW4 3360   5.464   1.383   3.104 -0.0222  0.1911 -0.1419
  899SOL     OW 3361   5.331   4.563   0.571 -0.1811 -0.3981  0.0061
  899SOL    HW2 3362   5.307   4.470   0.570 -1.6560 -0.0789  0.9715
  899SOL    HW3 3363   5.294   4.599   0.490  0.4654 -0.6726 -0.4084
  899SOL    MW4 3364   5.323   4.556   0.560 -0.3544 -0.1402 -0.2021
  900SOL     OW 3365   2.561   2.571   5.032  0.2076  0.1367  0.2399
  900SOL    HW2 3366   2.505   2.644   5.006  1.2086  0.9990  0.4771
  900SOL    HW3 3367   2.550   2.507   4.961 -3.1722 -0.9611  1.5288
  900SOL    MW4 3368   2.552   2.572   5.019 -0.8039 -0.0707 -0.0735
  901SOL     OW 3369   5.684   2.266   5.646 -0.2606 -0.2665  0.3935
  901SOL    HW2 3370   5.626   2.342   5.644 -1.5457 -1.2345 -0.4124
  901SOL    HW3 3371   5.650   2.212   5.718 -0.1173 -0.6552  0.1707
  901SOL    MW4 3372   5.672   2.269   5.655  0.2733 -0.2115 -0.1290
  902SOL     OW 3373   2.619   2.872   3.382  0.2625 -0.0954  0.5989
  902SOL    HW2 3374   2.616   2.888   3.476  1.3208 -1.5247  0.9122
  902SOL    HW3 3375   2.712   2.883   3.359  0.1497 -0.5442 -0.1087
  902SOL    MW4 3376   2.631   2.876   3.391 -0.2168 -0.1330  0.1095
  903SOL     OW 3377   3.576   1.357   2.158 -0.1945 -0.0512  0.2260
  903SOL    HW2 3378   3.525   1.420   2.106  1.7087  1.2521 -0.1446
  903SOL    HW3 3379   3.603   1.406   2.235  1.0800 -0.4619  0.0646
  903SOL    MW4 3380   3.573   1.372   2.161  0.4728 -0.3484 -0.1712
  904SOL     OW 3381   2.672   5.945   5.677  0.2025 -0.4138 -0.3083
  904SOL    HW2 3382   2.658   5.901   5.761  0.9168  0.7426  0.4510
  904SOL    HW3 3383   2.631   6.031   5.688  0.4232 -0.1958 -1.1123
  904SOL    MW4 3384   2.664   5.951   5.690  0.1614 -0.0779 -0.5187
  905SOL     OW 3385   2.120   4.052   4.283 -0.5650  0.3469 -0.4988
  905SOL    HW2 3386   2.201   4.076   4.327 -0.1016 -0.1747 -1.0511
  905SOL    HW3 3387   2.111   3.958   4.299 -1.9366  0.6829  0.9547
  905SOL    MW4 3388   2.130   4.043   4.291  0.5655 -0.1643 -0.5507
  906SOL     OW 3389   3.695   6.128   4.408 -0.6241  0.1546  0.1519
  906SOL    HW2 3390   3.713   6.221   4.399  1.6430 -0.2702 -0.3569
  906SOL    HW3 3391   3.602   6.119   4.386 -0.8348  2.2408 -0.0155
  906SOL    MW4 3392   3.685   6.139   4.404  0.6200  0.1406  0.5460
  907SOL     OW 3393   2.115   5.490   5.068 -0.2103  0.4002 -0.1979
  907SOL    HW2 3394   2.069   5.407   5.053  0.4464 -0.0970  0.5005
  907SOL    HW3 3395   2.155   5.511   4.983 -1.9461  1.0071 -0.9201
  907SOL    MW4 3396   2.114   5.482   5.055  0.0045  0.2014  0.4287
  908SOL     OW 3397   3.659   3.407   2.561 -0.3157 -0.0547 -0.6247
  908SOL    HW2 3398   3.637   3.452   2.479 -2.1094 -1.1915 -0.8211
  908SOL    HW3 3399   3.588   3.430   2.621  0.7024  0.3380  0.4605
  908SOL    MW4 3400   3.646   3.416   2.558 -0.2087  0.3458  0.2776
  909SOL     OW 3401   4.895   4.771   5.759  0.1915  0.5267  0.1528
  909SOL    HW2 3402   4.822   4.792   5.701 -0.1429  0.4276  0.5317
  909SOL    HW3 3403   4.966   4.829   5.731  0.2080  0.1067 -0.6951
  909SOL    MW4 3404   4.895   4.782   5.748  0.5388  0.1027  0.2796
  910SOL     OW 3405   3.688   2.638   2.991  0.0997 -0.1317 -0.3433
  910SOL    HW2 3406   3.712   2.605   3.078 -0.6918 -0.0549 -0.0871
  910SOL    HW3 3407   3.680   2.733   3.003 -2.7560 -0.3453  0.2270
  910SOL    MW4 3408   3.690   2.646   3.004  0.0597  0.1088 -0.1606
  911SOL     OW 3409   0.604   3.966   1.601  0.7673  0.7134  0.3320
  911SOL    HW2 3410   0.682   3.917   1.626  0.1722  1.3130  3.9253
  911SOL    HW3 3411   0.628   4.058   1.613 -0.1406  0.9593  0.3498
  911SOL    MW4 3412   0.618   3.971   1.606 -0.1281 -0.0214  0.1244
  912SOL     OW 3413   1.905   0.269   2.428 -0.2697  0.3031 -0.3466
  912SOL    HW2 3414   1.897   0.363   2.444 -1.2134 -0.0233  1.3230
  912SOL    HW3 3415   1.998   0.251   2.439 -0.3942  0.6721  1.8074
  912SOL    MW4 3416   1.916   0.279   2.431  0.0031 -0.1487  0.1091
  913SOL     OW 3417   0.351   2.567   2.602  0.0820 -0.3125 -0.1270
  913SOL    HW2 3418   0.286   2.562   2.532  1.6136  0.4091 -1.6496
  913SOL    HW3 3419   0.427   2.520   2.570 -0.8416 -4.7421  3.2146
  913SOL    MW4 3420   0.352   2.560   2.589  0.1495 -0.1685  0.2308
  914SOL     OW 3421   1.789   2.039   1.707  0.3441 -0.1835 -0.2561
  914SOL    HW2 3422   1.729   1.986   1.760  1.3353 -1.0053  0.0787
  914SOL    HW3 3423   1.853   2.072   1.770  1.2240 -0.7241 -0.8473
  914SOL    MW4 3424   1.789   2.036   1.722 -0.0482  0.2327  0.0036
  915SOL     OW 3425   5.315   1.437   3.321 -0.4259  0.1351  0.5095
  915SOL    HW2 3426   5.231   1.422   3.278  0.5199 -0.0818 -1.3757
  915SOL    HW3 3427   5.338   1.353   3.361 -1.3063  0.3304  1.4581
  915SOL    MW4 3428   5.307   1.424   3.321 -0.3553  0.2677  0.5385
  916SOL     OW 3429   1.880   5.591   3.200  0.2305  0.2992  0.5272
  916SOL    HW2 3430   1.971   5.566   3.185  0.1871 -0.8068  1.9009
  916SOL    HW3 3431   1.833   5.507   3.204 -0.7064  0.8198  0.7003
  916SOL    MW4 3432   1.886   5.576   3.198 -0.4774 -0.1204 -0.0479
  917SOL     OW 3433   3.335   6.411   0.993  0.1714 -0.2462  0.1020
  917SOL    HW2 3434   3.320   6.455   1.076  0.5413  2.2172 -1.0438
  917SOL    HW3 3435   3.430   6.400   0.987  0.2320  0.4355 -0.3611
  917SOL    MW4 3436   3.345   6.415   1.003  0.5019 -0.5023  0.3029
  918SOL     OW 3437   3.695   0.032   5.448  0.0549  0.0148  0.0991
  918SOL    HW2 3438   3.745  -0.047   5.428 -1.2148 -0.8189  0.1223
  918SOL    HW3 3439   3.761   0.102   5.452  1.0061 -0.7563 -1.4292
  918SOL    MW4 3440   3.710   0.031   5.446 -0.4302  0.2566  0.0119
  919SOL     OW 3441   5.034   5.158   4.802 -0.0577 -0.0112  0.1760
  919SOL    HW2 3442   5.024   5.203   4.887 -0.6101  0.1879  0.0083
  919SOL    HW3 3443   4.945   5.146   4.770  0.1270 -0.5015 -0.1691
  919SOL    MW4 3444   5.021   5.163   4.809  0.0863 -0.6825  0.0060
  920SOL     OW 3445   0.381   5.881   1.905 -1.0990 -0.2771 -0.2188
  920SOL    HW2 3446   0.364   5.942   1.976 -0.0416  0.0419 -0.2176
  920SOL    HW3 3447   0.400   5.798   1.949 -0.6684 -0.1338 -0.1214
  920SOL    MW4 3448   0.382   5.878   1.920  0.1294 -0.0033  0.4312
  921SOL     OW 3449   4.364   4.999   0.474  0.1792  0.3227 -0.5225
  921SOL    HW2 3450   4.409   4.951   0.544 -3.2571 -0.6039  1.2973
  921SOL    HW3 3451   4.333   4.930   0.415 -0.7781  0.6931 -0.4656
  921SOL    MW4 3452   4.366   4.983   0.476 -0.2443  0.2700 -0.1033
  922SOL     OW 3453   1.952   0.348   5.122  0.2522  0.2675  0.4513
  922SOL    HW2 3454   1.990   0.374   5.038 -0.1387 -2.6156 -0.7359
  922SOL    HW3 3455   1.859   0.338   5.104  0.1956 -0.6223  1.1560
  922SOL    MW4 3456   1.945   0.350   5.109  0.3440 -0.3927 -0.1084
  923SOL     OW 3457   3.596   5.789   5.042 -0.2763 -0.2804  0.2338
  923SOL    HW2 3458   3.575   5.794   5.135  1.7000 -1.0358  0.7528
  923SOL    HW3 3459   3.542   5.717   5.010 -2.0673  0.9011  0.4204
  923SOL    MW4 3460   3.586   5.780   5.050 -0.6520 -0.5026 -0.5942
  924SOL     OW 3461   4.269   5.547   3.885 -0.2273 -0.3678 -0.3428
  924SOL    HW2 3462   4.297   5.459   3.860 -0.8052 -0.4687 -0.6497
  924SOL    HW3 3463   4.210   5.574   3.814 -0.5398  0.0215  0.0615
  924SOL    MW4 3464   4.265   5.539   3.872  0.5944  1.1621 -0.0553
  925SOL     OW 3465   4.077   6.361   2.905 -0.8068 -0.0005  0.1046
  925SOL    HW2 3466   4.040   6.275   2.926  1.0971 -0.7757  0.4405
  925SOL    HW3 3467   4.078   6.363   2.809  0.3610 -0.9316  0.0792
  925SOL    MW4 3468   4.072   6.350   2.895 -0.1643 -0.2462  0.3558
  926SOL     OW 3469   2.185   1.595   0.451 -0.2243  0.3837 -0.1111
  926SOL    HW2 3470   2.196   1.508   0.489 -0.3387  0.7892  0.8965
  926SOL    HW3 3471   2.271   1.636   0.459 -0.1031  0.2738 -0.8226
  926SOL    MW4 3472   2.198   1.589   0.457  0.0085 -0.1754  0.5561
  927SOL     OW 3473   1.691   0.100   2.451 -0.3772 -0.2720  0.6044
  927SOL    HW2 3474   1.619   0.111   2.389 -1.0728  0.3862  1.4955
  927SOL    HW3 3475   1.754   0.168   2.427 -0.0840 -0.7887 -0.1193
  927SOL    MW4 3476   1.690   0.110   2.440 -0.0015 -0.2476 -0.1595
  928SOL     OW 3477   2.837   5.840   4.157  0.3482 -0.3785  0.2175
  928SOL    HW2 3478   2.793   5.886   4.228  1.8521  1.8704 -0.2083
  928SOL    HW3 3479   2.768   5.821   4.093 -0.2494  2.1178  0.0357
  928SOL    MW4 3480   2.822   5.843   4.158 -0.1682  0.3756 -0.1814
  929SOL     OW 3481   3.059   1.439   2.532 -0.0246  0.1432  0.0866
  929SOL    HW2 3482   3.084   1.521   2.575  2.1426 -0.0168 -0.7392
  929SOL    HW3 3483   3.102   1.443   2.447 -1.1051 -1.2327 -0.5660
  929SOL    MW4 3484   3.068   1.451   2.527 -0.2079  0.1144  0.1557
  930SOL     OW 3485   2.060   1.284   1.109 -0.1646  0.4675 -0.2401
  930SOL    HW2 3486   2.070   1.326   1.194  0.0747 -1.0082  0.4999
  930SOL    HW3 3487   2.113   1.336   1.049  0.4394  0.9671  0.7192
  930SOL    MW4 3488   2.068   1.296   1.112 -0.0437 -0.2494 -0.2146
  931SOL     OW 3489   6.107   0.779   0.831 -0.0248 -0.2960  0.0938
  931SOL    HW2 3490   6.055   0.700   0.819  0.5695 -0.8931  1.2624
  931SOL    HW3 3491   6.163   0.760   0.907 -1.5663  2.1144  1.9905
  931SOL    MW4 3492   6.108   0.766   0.839  0.3554 -0.8184  0.1487
  932SOL     OW 3493   2.556   4.021   0.544  0.1566  0.5593 -0.5161
  932SOL    HW2 3494   2.508   4.004   0.625  0.1209 -1.0356 -0.8559
  932SOL    HW3 3495   2.648   4.006   0.566  0.3344  1.7499 -0.3650
  932SOL    MW4 3496   2.562   4.017   0.557  0.1861 -0.1691 -0.1981
  933SOL     OW 3497   4.522   3.945   4.424 -0.8510  0.4113 -1.3711
  933SOL    HW2 3498   4.550   3.858   4.451 -3.2615  0.3291  1.2377
  933SOL    HW3 3499   4.571   3.962   4.343  1.3288 -2.4046 -0.7801
  933SOL    MW4 3500   4.532   3.936   4.417  0.6115 -0.0954  0.0961
  934SOL     OW 3501   1.695   5.585   5.125 -0.7345 -0.3893 -0.0634
  934SOL    HW2 3502   1.781   5.597   5.164  0.2782 -0.8764 -2.0385
  934SOL    HW3 3503   1.652   5.519   5.180  0.4702 -0.7699  0.4412
  934SOL    MW4 3504   1.700   5.578   5.137 -0.0337 -0.7314 -0.6301
  935SOL     OW 3505   1.258   4.535   0.255  0.2213 -0.2644  0.2152
  935SOL    HW2 3506   1.164   4.549   0.265  0.4416  1.6544 -0.0003
  935SOL    HW3 3507   1.273   4.447   0.289 -1.7639 -0.9461 -0.5517
  935SOL    MW4 3508   1.248   4.525   0.261 -0.8402 -0.2795  0.5177
  936SOL     OW 3509   6.110   0.523   5.952  0.0556  0.7726  0.3579
  936SOL    HW2 3510   6.065   0.490   6.030 -3.0362  1.9161 -0.7857
  936SOL    HW3 3511   6.082   0.614   5.944 -0.0944  0.5914 -2.2862
  936SOL    MW4 3512   6.101   0.531   5.961  0.2154  0.6411 -0.9520
  937SOL     OW 3513   2.307   0.138   5.980  0.3138 -0.3590 -0.4928
  937SOL    HW2 3514   2.382   0.120   6.037 -0.3339 -0.5712  0.3183
  937SOL    HW3 3515   2.329   0.220   5.936  1.4812 -0.9583 -1.0849
  937SOL    MW4 3516   2.320   0.146   5.982  0.5790  0.3117  0.6119
  938SOL     OW 3517   3.575   3.072   0.919  0.4680 -0.7574  0.1595
  938SOL    HW2 3518   3.670   3.074   0.932  1.0289 -2.6586 -2.7370
  938SOL    HW3 3519   3.564   3.036   0.832 -2.9478  0.2880  0.0341
  938SOL    MW4 3520   3.586   3.067   0.910 -0.3911  0.1603  0.0238
  939SOL     OW 3521   6.310   2.070   6.375  0.0910  0.1298  0.4466
  939SOL    HW2 3522   6.305   2.134   6.304  1.4701  1.3474  1.3612
  939SOL    HW3 3523   6.245   2.101   6.439  1.2547  1.1376  1.2147
  939SOL    MW4 3524   6.301   2.083   6.374 -0.4815 -0.6030  0.1947
  940SOL     OW 3525   4.639   2.017   6.236 -0.0125 -0.2386  0.2240
  940SOL    HW2 3526   4.694   1.955   6.284  0.0270 -0.8827 -0.6358
  940SOL    HW3 3527   4.573   1.963   6.192 -0.3864  0.3861 -0.0018
  940SOL    MW4 3528   4.638   2.002   6.237  0.1532 -0.1802 -0.6849
  941SOL     OW 3529   3.951   5.087   5.842 -0.0246  0.5364  0.1739
  941SOL    HW2 3530   3.988   5.113   5.926 -1.4635  1.5823  0.5241
  941SOL    HW3 3531   3.859   5.113   5.847  0.3945  3.1782 -2.7172
  941SOL    MW4 3532   3.944   5.094   5.854  0.2814  0.4348  0.7345
  942SOL     OW 3533   1.247   2.756   1.164  0.0621  0.0328  0.5506
  942SOL    HW2 3534   1.283   2.671   1.188 -0.5227 -1.0786 -2.1390
  942SOL    HW3 3535   1.310   2.820   1.199  1.3777 -1.5643  1.2049
  942SOL    MW4 3536   1.260   2.753   1.171  0.0748  0.1182 -0.4553
  943SOL     OW 3537   1.140   5.217   5.114  0.4924 -0.5898  0.4799
  943SOL    HW2 3538   1.148   5.127   5.081 -0.2363  0.0470 -1.6187
  943SOL    HW3 3539   1.046   5.235   5.109  0.6381  0.3069  0.8362
  943SOL    MW4 3540   1.128   5.207   5.109 -0.3163 -0.0910 -0.0053
  944SOL     OW 3541   3.787   0.169   4.913 -0.5379 -0.6162 -0.4182
  944SOL    HW2 3542   3.860   0.209   4.866 -0.7256  1.2997  0.8052
  944SOL    HW3 3543   3.735   0.127   4.845 -0.3443  1.3018 -1.8188
  944SOL    MW4 3544   3.790   0.168   4.898  0.5916  0.5500  0.3725
  945SOL     OW 3545   4.130   1.924   6.303  0.3990  0.5016  0.2818
  945SOL    HW2 3546   4.179   2.001   6.334 -1.2013  1.0079  1.7102
  945SOL    HW3 3547   4.086   1.891   6.381  1.3651 -2.1818 -0.1982
  945SOL    MW4 3548   4.131   1.930   6.318  1.0872  0.3499  0.0277
  946SOL     OW 3549   2.842   2.960   3.935 -0.7092  0.6470  0.2550
  946SOL    HW2 3550   2.775   3.023   3.963 -2.6342 -1.0302 -0.3162
  946SOL    HW3 3551   2.842   2.894   4.004 -1.8698 -0.9113 -1.1489
  946SOL    MW4 3552   2.833   2.960   3.948 -0.3435  0.0106  0.6543
  947SOL     OW 3553   3.990   2.624   0.285  0.1711  0.7279 -0.2359
  947SOL    HW2 3554   4.001   2.572   0.205  2.6332  0.8457 -0.0475
  947SOL    HW3 3555   3.918   2.683   0.265 -0.2303 -0.2431 -1.8323
  947SOL    MW4 3556   3.982   2.625   0.272  0.1995 -0.1714 -0.1594
  948SOL     OW 3557   4.008   4.702   4.569 -0.0839  0.4498 -0.3451
  948SOL    HW2 3558   4.052   4.630   4.614 -1.4790  0.2201  0.7247
  948SOL    HW3 3559   3.929   4.663   4.533  1.3483  0.4261 -3.8533
  948SOL    MW4 3560   4.003   4.687   4.570 -0.4000 -0.0514 -0.1828
  949SOL     OW 3561   3.993   2.697   3.021  0.0084  0.9750  0.2877
  949SOL    HW2 3562   3.995   2.792   3.013 -1.5857  0.9629 -0.8301
  949SOL    HW3 3563   3.922   2.681   3.084 -0.0872  0.5214  0.0658
  949SOL    MW4 3564   3.984   2.707   3.028  0.0764 -0.2532 -0.1422
  950SOL     OW 3565   0.560   2.123   4.791 -0.4208 -0.2113 -0.3186
  950SOL    HW2 3566   0.468   2.117   4.765 -0.4736  1.2332 -0.5332
  950SOL    HW3 3567   0.574   2.045   4.844 -1.9118 -0.2279  0.1192
  950SOL    MW4 3568   0.549   2.112   4.795  0.2454 -0.6731  0.4625
  951SOL     OW 3569   5.524   2.515   5.644  0.1881  0.2292  0.6175
  951SOL    HW2 3570   5.453   2.560   5.599  1.1322  2.8053  1.5718
  951SOL    HW3 3571   5.499   2.517   5.737  0.7323 -0.3314  0.7822
  951SOL    MW4 3572   5.511   2.521   5.650 -0.7666 -0.5297  0.2579
  952SOL     OW 3573   6.232   4.082   1.324  0.7358 -0.2207  0.2932
  952SOL    HW2 3574   6.275   4.037   1.397  0.1479  0.0824  0.8396
  952SOL    HW3 3575   6.140   4.057   1.332  0.0830  2.2937  1.5908
  952SOL    MW4 3576   6.226   4.073   1.335 -0.4458  0.0669  0.0058
  953SOL     OW 3577   6.167   6.167   2.152 -0.6729  0.2554 -0.2152
  953SOL    HW2 3578   6.195   6.126   2.070 -0.2969  2.0664 -1.0421
  953SOL    HW3 3579   6.247   6.204   2.190 -0.9036 -0.2561  0.8030
  953SOL    MW4 3580   6.181   6.167   2.146  0.4146 -0.1123 -0.6339
  954SOL     OW 3581   1.916   3.330   5.978  0.7636 -0.2337  0.2651
  954SOL    HW2 3582   2.008   3.341   6.005  1.8011 -0.7936 -2.6992
  954SOL    HW3 3583   1.906   3.236   5.966 -0.3940 -0.2261  0.9982
  954SOL    MW4 3584   1.927   3.319   5.980  0.4011  0.3619 -0.4555
  955SOL     OW 3585   4.119   0.127   1.836  0.1549 -0.0188  0.2159
  955SOL    HW2 3586   4.214   0.129   1.826  0.1468 -1.0757 -0.1963
  955SOL    HW3 3587   4.105   0.119   1.930  0.4754 -0.1650  0.2517
  955SOL    MW4 3588   4.130   0.126   1.847  0.5665 -0.5702  0.3783
  956SOL     OW 3589   3.250   5.996   5.447 -1.3344 -0.5392  0.7423
  956SOL    HW2 3590   3.177   5.934   5.442 -0.2384 -1.8170  0.1687
  956SOL    HW3 3591   3.314   5.953   5.503 -0.1186 -0.4002 -0.5054
  956SOL    MW4 3592   3.249   5.982   5.454  0.5246 -0.3426 -0.2019
  957SOL     OW 3593   2.149   6.066   5.392  0.0667  0.2911  0.1566
  957SOL    HW2 3594   2.129   6.120   5.468  0.3283 -1.4170  1.5065
  957SOL    HW3 3595   2.185   6.127   5.327  0.3231  1.7185  1.5921
  957SOL    MW4 3596   2.151   6.081   5.393  0.0808  0.2953  0.1849
  958SOL     OW 3597   1.840   4.417   4.898  0.2529 -0.1597 -0.1826
  958SOL    HW2 3598   1.816   4.432   4.990 -0.8449 -2.7583  0.0284
  958SOL    HW3 3599   1.846   4.505   4.861 -1.4931  0.9197  1.8459
  958SOL    MW4 3600   1.838   4.431   4.906 -0.0037 -0.2609 -0.1429
  959SOL     OW 3601   3.909   0.896   0.582 -0.2979  0.0178 -0.2467
  959SOL    HW2 3602   3.862   0.979   0.577 -1.8868 -0.8178  0.1852
  959SOL    HW3 3603   3.847   0.835   0.622  0.7499 -1.4513 -0.7592
  959SOL    MW4 3604   3.895   0.899   0.587  0.1015 -0.8117 -0.3100
  960SOL     OW 3605   5.202   4.856   1.854 -0.0464  0.0869  0.6257
  960SOL    HW2 3606   5.108   4.844   1.843 -0.0381 -0.1459  0.8192
  960SOL    HW3 3607   5.228   4.791   1.919  0.5118 -0.8800 -0.5148
  960SOL    MW4 3608   5.193   4.846   1.861  0.2391 -0.0317 -0.2500
  961SOL     OW 3609   6.378   4.603   2.177 -0.9633  0.0789  0.5495
  961SOL    HW2 3610   6.290   4.639   2.186 -1.1904 -0.6825  1.5894
  961SOL    HW3 3611   6.371   4.514   2.212  0.1727 -0.0478  0.4878
  961SOL    MW4 3612   6.365   4.596   2.183  0.1951  0.4044  0.2511
  962SOL     OW 3613   1.130   6.358   6.009  0.1182  0.0789 -0.6874
  962SOL    HW2 3614   1.175   6.275   5.992  0.7037  0.2547 -0.0604
  962SOL    HW3 3615   1.192   6.425   5.979  0.1563  0.3157 -0.0863
  962SOL    MW4 3616   1.144   6.356   6.003 -0.0606 -0.3483  0.2971
  963SOL     OW 3617   3.753   1.744   5.011  0.0801 -0.3650  0.0394
  963SOL    HW2 3618   3.708   1.803   4.950  3.7712  1.0284 -1.6565
  963SOL    HW3 3619   3.762   1.795   5.091  0.2544  0.1044 -0.2704
  963SOL    MW4 3620   3.748   1.759   5.013 -0.3065 -0.0958  0.1748
  964SOL     OW 3621   1.720   0.962   4.433  0.5700  0.1999  0.1509
  964SOL    HW2 3622   1.761   0.910   4.365 -0.0235  0.2216 -0.2318
  964SOL    HW3 3623   1.748   0.922   4.515 -0.7541 -1.4261 -0.1433
  964SOL    MW4 3624   1.729   0.950   4.435  0.4511 -0.1879  0.4051
  965SOL     OW 3625   2.106   1.641   5.603 -0.1413  0.4781 -0.1735
  965SOL    HW2 3626   2.188   1.669   5.563  0.3805  1.3151  1.3893
  965SOL    HW3 3627   2.132   1.572   5.665 -0.6939  0.3532 -0.0714
  965SOL    MW4 3628   2.120   1.635   5.606  0.3082 -0.5027 -0.3807
  966SOL     OW 3629   2.345   5.026   6.380 -0.1936 -0.4082  0.0848
  966SOL    HW2 3630   2.341   4.933   6.400 -0.1936 -0.4352 -0.0410
  966SOL    HW3 3631   2.402   5.063   6.448 -1.2687 -0.2769  0.9656
  966SOL    MW4 3632   2.352   5.019   6.392  0.1173  0.2400 -0.2174
  967SOL     OW 3633   1.549   3.904   6.186 -0.0055 -0.3127 -0.5405
  967SOL    HW2 3634   1.581   3.899   6.276 -0.3290 -1.4745 -0.4625
  967SOL    HW3 3635   1.533   3.812   6.162  2.0018 -0.2356 -2.4991
  967SOL    MW4 3636   1.551   3.891   6.195  0.6406  0.0169  0.1053
  968SOL     OW 3637   0.845   5.254   3.348  0.0765  0.4156  0.2765
  968SOL    HW2 3638   0.866   5.341   3.314  0.7070  0.6211  1.1822
  968SOL    HW3 3639   0.811   5.269   3.436 -2.1892 -0.0670 -0.4558
  968SOL    MW4 3640   0.843   5.267   3.355  0.4080  0.0243 -0.0780
  969SOL     OW 3641   2.008   5.870   5.582 -0.1228 -0.3618 -0.2228
  969SOL    HW2 3642   1.933   5.835   5.534 -0.7604  1.1665 -0.4147
  969SOL    HW3 3643   2.057   5.921   5.517  0.3321 -0.2344  0.2051
  969SOL    MW4 3644   2.005   5.872   5.567 -0.0270  0.0380  0.9016
  970SOL     OW 3645   0.361   4.241   5.618 -0.2556  0.1225 -0.1560
  970SOL    HW2 3646   0.273   4.263   5.649 -0.7135  0.3014 -1.5329
  970SOL    HW3 3647   0.408   4.324   5.619  0.7842 -0.3536  3.1046
  970SOL    MW4 3648   0.355   4.255   5.622  0.0974  0.5010  0.1044
  971SOL     OW 3649   1.383   2.781   6.290 -0.3734 -0.0082  0.8713
  971SOL    HW2 3650   1.291   2.763   6.306 -1.2054  0.5595 -2.5048
  971SOL    HW3 3651   1.395   2.873   6.314 -0.7323 -0.0261  1.1195
  971SOL    MW4 3652   1.373   2.790   6.295 -0.1198  0.2805  0.0573
  972SOL     OW 3653   6.421   4.418   4.290  0.3890 -0.1465 -0.3704
  972SOL    HW2 3654   6.328   4.412   4.309  0.4073  0.0846 -0.2008
  972SOL    HW3 3655   6.452   4.327   4.292  0.5048 -0.1084  1.3167
  972SOL    MW4 3656   6.413   4.405   4.293  0.0905 -0.1596  0.7087
  973SOL     OW 3657   5.729   5.804   6.384  0.4250  0.1234  0.2619
  973SOL    HW2 3658   5.658   5.752   6.421 -0.1081 -0.1217 -1.0512
  973SOL    HW3 3659   5.687   5.863   6.322  1.3633 -0.0803 -0.6020
  973SOL    MW4 3660   5.714   5.805   6.381 -0.2820 -0.0451  0.7986
  974SOL     OW 3661   5.976   0.908   0.056 -0.0157 -0.1261  0.0233
  974SOL    HW2 3662   5.900   0.889   0.001  0.7954 -1.7432 -0.6221
  974SOL    HW3 3663   5.985   0.831   0.112  2.4964 -1.1308 -1.5753
  974SOL    MW4 3664   5.967   0.895   0.056 -0.4489 -0.2079 -0.1292
  975SOL     OW 3665   4.979   1.733   4.754  0.1316  0.2441 -0.1874
  975SOL    HW2 3666   4.980   1.639   4.769 -0.2016  0.2145 -0.3472
  975SOL    HW3 3667   5.052   1.749   4.695  1.8155  0.4326  1.8546
  975SOL    MW4 3668   4.989   1.723   4.748 -0.0947  0.2609  0.5035
  976SOL     OW 3669   1.078   1.940   2.512 -0.8058 -0.2048 -0.3388
  976SOL    HW2 3670   1.056   2.028   2.479 -0.5991 -0.4603 -1.1767
  976SOL    HW3 3671   1.010   1.883   2.476 -1.1350 -0.3441  0.4851
  976SOL    MW4 3672   1.067   1.944   2.503 -0.1001 -0.3389  0.6879
  977SOL     OW 3673   2.157   1.409   6.250  0.3421  0.4796 -0.4055
  977SOL    HW2 3674   2.097   1.479   6.276 -0.4193 -0.1624 -0.3812
  977SOL    HW3 3675   2.111   1.328   6.274  1.0410 -0.0382 -0.7727
  977SOL    MW4 3676   2.143   1.407   6.256 -0.3475 -0.8553  0.3672
  978SOL     OW 3677   6.200   0.486   0.367  0.0180  0.2431  0.1635
  978SOL    HW2 3678   6.119   0.439   0.389  0.5623 -0.6454  0.3143
  978SOL    HW3 3679   6.177   0.579   0.377 -1.6043  0.1417 -1.9363
  978SOL    MW4 3680   6.186   0.492   0.371 -0.7423 -0.2190  0.1119
  979SOL     OW 3681   5.042   0.981   5.825 -0.2545  0.1941 -0.5361
  979SOL    HW2 3682   5.103   1.055   5.824 -1.7952  1.5097 -0.5157
  979SOL    HW3 3683   5.082   0.916   5.767  1.0701  1.0807 -0.6517
  979SOL    MW4 3684   5.055   0.982   5.818 -0.2865 -0.1347  0.1939
  980SOL     OW 3685   5.204   4.632   0.336  0.3355 -0.1963  0.1622
  980SOL    HW2 3686   5.262   4.705   0.311  1.7526  0.2760  4.0852
  980SOL    HW3 3687   5.232   4.559   0.280  2.1026  1.0471 -0.6723
  980SOL    MW4 3688   5.216   4.632   0.325 -0.1123  0.0505 -0.2006
  981SOL     OW 3689   0.153   6.352   0.576  0.0624 -0.2145  0.5696
  981SOL    HW2 3690   0.094   6.310   0.639 -0.5173 -0.0638  0.1376
  981SOL    HW3 3691   0.133   6.310   0.493  0.0451  0.3491  0.2810
  981SOL    MW4 3692   0.142   6.341   0.574  0.3021 -0.1033 -0.4259
  982SOL     OW 3693   4.377   2.118   1.851 -0.4653  0.1166  0.4638
  982SOL    HW2 3694   4.415   2.201   1.824  0.3341 -0.3882 -0.0162
  982SOL    HW3 3695   4.447   2.073   1.898 -0.7736 -0.4241  0.4257
  982SOL    MW4 3696   4.391   2.123   1.854  0.3611 -0.6584 -0.2823
  983SOL     OW 3697   5.267   1.340   2.586  0.2771 -0.2845 -0.0238
  983SOL    HW2 3698   5.343   1.358   2.642 -0.3014  0.4005  0.5607
  983SOL    HW3 3699   5.302   1.286   2.515  2.2696  3.3582 -2.1271
  983SOL    MW4 3700   5.282   1.335   2.584 -0.1400  0.1734 -0.2731
  984SOL     OW 3701   5.710   6.385   3.738 -0.2757  0.1084 -0.5808
  984SOL    HW2 3702   5.669   6.308   3.699  1.6994 -0.9172 -0.7641
  984SOL    HW3 3703   5.719   6.362   3.831  0.9851 -0.2265 -0.7701
  984SOL    MW4 3704   5.706   6.371   3.746  0.4437 -0.0834 -0.4467
  985SOL     OW 3705   0.214   4.565   4.884 -0.5135  0.4244  0.6499
  985SOL    HW2 3706   0.256   4.636   4.836  1.6748 -1.8515 -1.0447
  985SOL    HW3 3707   0.128   4.556   4.843  0.7823 -0.5773 -2.0636
  985SOL    MW4 3708   0.208   4.574   4.873  0.0972  0.4858 -0.2924
  986SOL     OW 3709   6.220   4.966   4.612  0.7172 -0.3479  0.0738
  986SOL    HW2 3710   6.286   5.035   4.625 -0.3539  0.4269  1.7167
  986SOL    HW3 3711   6.156   5.006   4.553 -0.0678  0.2288  1.2768
  986SOL    MW4 3712   6.220   4.981   4.606  0.0768 -0.4080  0.6606
  987SOL     OW 3713   3.410   6.297   1.940 -0.3179 -0.3557  0.0518
  987SOL    HW2 3714   3.433   6.386   1.967 -0.1294 -0.4599  0.2372
  987SOL    HW3 3715   3.479   6.271   1.879 -1.2949  0.2668 -1.3718
  987SOL    MW4 3716   3.422   6.305   1.936 -0.6214 -0.1045 -0.0677
  988SOL     OW 3717   4.869   3.891   3.087  0.4632  0.1643 -0.8421
  988SOL    HW2 3718   4.783   3.896   3.129  1.3104  1.5037  0.8202
  988SOL    HW3 3719   4.880   3.799   3.066 -0.2200 -0.5013  1.4784
  988SOL    MW4 3720   4.859   3.880   3.089  0.2519 -0.6399  0.2849
  989SOL     OW 3721   0.187   0.359   6.142  0.3164 -0.0560  1.0222
  989SOL    HW2 3722   0.255   0.298   6.112 -0.9248 -0.8599 -0.2628
  989SOL    HW3 3723   0.215   0.444   6.108 -0.6519 -0.8066 -1.9695
  989SOL    MW4 3724   0.200   0.362   6.134  0.8341  0.3306  0.3828
  990SOL     OW 3725   6.330   1.468   6.387  0.0257 -0.4396  0.3628
  990SOL    HW2 3726   6.418   1.451   6.420  0.0759 -0.9618 -0.0191
  990SOL    HW3 3727   6.331   1.433   6.298 -0.0761  0.9945 -0.2374
  990SOL    MW4 3728   6.342   1.461   6.380 -0.7705 -0.4962 -0.0242
  991SOL     OW 3729   2.515   3.312   1.631 -0.0592  0.3961 -0.0092
  991SOL    HW2 3730   2.493   3.222   1.607 -1.1411  0.6218  0.0899
  991SOL    HW3 3731   2.571   3.304   1.708  2.5625 -0.3051 -1.8203
  991SOL    MW4 3732   2.520   3.299   1.638 -0.4702 -0.7962  0.0433
  992SOL     OW 3733   6.145   0.066   3.649  0.1031 -0.1232 -0.5143
  992SOL    HW2 3734   6.201   0.128   3.695 -2.6198  0.8155  1.7987
  992SOL    HW3 3735   6.105   0.116   3.578 -1.2803  0.5621  0.7024
  992SOL    MW4 3736   6.147   0.080   3.646 -0.6812 -0.0463  0.0178
  993SOL     OW 3737   0.744   2.045   2.172 -0.1892 -0.5120 -0.1289
  993SOL    HW2 3738   0.784   2.021   2.089  1.5204  1.4526  0.0335
  993SOL    HW3 3739   0.778   1.981   2.235 -1.1511 -1.7439 -0.8107
  993SOL    MW4 3740   0.754   2.034   2.170 -0.5526 -0.1013  0.0542
  994SOL     OW 3741   2.705   1.226   5.371  0.1748 -0.7304  0.4845
  994SOL    HW2 3742   2.652   1.236   5.450  0.7517 -2.9791  1.2538
  994SOL    HW3 3743   2.707   1.131   5.355  2.3956 -0.5889 -0.5847
  994SOL    MW4 3744   2.698   1.215   5.379 -0.4512 -0.3980  0.4441
  995SOL     OW 3745   1.043   0.585   6.226  0.0946 -0.4310  0.2056
  995SOL    HW2 3746   1.086   0.524   6.167 -0.5270  0.5831 -1.3506
  995SOL    HW3 3747   0.955   0.595   6.190 -0.1457  0.5806  1.0270
  995SOL    MW4 3748   1.037   0.578   6.214  0.4523  0.0181  0.3142
  996SOL     OW 3749   1.377   4.404   3.613 -0.3625 -0.3911  0.2442
  996SOL    HW2 3750   1.293   4.422   3.569 -0.8272 -1.9745  0.4483
  996SOL    HW3 3751   1.433   4.369   3.544 -0.4180 -0.9189  0.4654
  996SOL    MW4 3752   1.373   4.402   3.598  0.4513 -0.6705 -0.3104
  997SOL     OW 3753   0.975   3.049   5.838 -0.2769  0.0325 -0.8726
  997SOL    HW2 3754   0.942   2.992   5.769  0.0597  0.8532 -1.7426
  997SOL    HW3 3755   0.989   3.133   5.794  0.4930  0.4107  0.0648
  997SOL    MW4 3756   0.972   3.053   5.823  0.2162 -0.1659 -0.0136
  998SOL     OW 3757   6.247   2.868   2.433 -0.2703  0.0093 -0.7024
  998SOL    HW2 3758   6.342   2.872   2.443 -0.3647 -0.8575  0.8219
  998SOL    HW3 3759   6.232   2.796   2.371  0.0198 -1.3642  0.7653
  998SOL    MW4 3760   6.257   2.859   2.426  0.4356 -0.2420 -0.3292
  999SOL     OW 3761   2.981   4.189   5.648 -0.1935 -0.5391  0.0674
  999SOL    HW2 3762   2.938   4.112   5.610  0.0531 -0.3984 -0.4992
  999SOL    HW3 3763   2.917   4.224   5.709 -1.0501 -0.1080 -1.0455
  999SOL    MW4 3764   2.967   4.183   5.651 -0.0975 -1.1061  0.1454
 1000SOL     OW 3765   0.711   1.301   3.784  0.2713  0.6061 -0.8270
 1000SOL    HW2 3766   0.704   1.248   3.704  2.3463 -1.0918  0.0343
 1000SOL    HW3 3767   0.803   1.297   3.807 -0.6496 -2.0948  3.6137
 1000SOL    MW4 3768   0.722   1.293   3.776 -0.0891 -0.1606 -0.1287
 1001SOL     OW 3769   3.300   0.363   4.294 -1.0136  0.3028  0.3866
 1001SOL    HW2 3770   3.278   0.274   4.264  0.5040 -0.4178  1.2970
 1001SOL    HW3 3771   3.286   0.360   4.388 -1.8748  1.3553  0.3135
 1001SOL    MW4 3772   3.295   0.351   4.302 -0.3725 -0.2928  0.2560
 1002SOL     OW 3773   3.296   1.802   5.204 -0.1542 -0.0006 -0.0445
 1002SOL    HW2 3774   3.275   1.896   5.207  0.0029  0.0173  0.7935
 1002SOL    HW3 3775   3.366   1.792   5.269 -2.2162 -1.1964  2.1529
 1002SOL    MW4 3776   3.303   1.813   5.213  0.5184  0.1037 -0.9369
 1003SOL     OW 3777   6.210   2.578   4.595  0.2244 -0.1218  0.0938
 1003SOL    HW2 3778   6.189   2.488   4.619  2.0850 -0.6817 -0.1972
 1003SOL    HW3 3779   6.193   2.629   4.674  0.6372 -0.9889  0.7583
 1003SOL    MW4 3780   6.205   2.573   4.609  0.8881  0.0821 -0.0673
 1004SOL     OW 3781   5.780   3.285   5.952  0.6186  0.0702 -0.5401
 1004SOL    HW2 3782   5.788   3.288   6.047 -1.2482  0.3565 -0.3556
 1004SOL    HW3 3783   5.867   3.309   5.920  1.2762 -0.0000  1.0765
 1004SOL    MW4 3784   5.793   3.288   5.960 -0.2487 -0.2046 -0.1256
 1005SOL     OW 3785   2.370   0.201   5.679 -0.7859 -0.2846  0.6122
 1005SOL    HW2 3786   2.291   0.151   5.699 -0.8576  0.5479  2.6120
 1005SOL    HW3 3787   2.343   0.293   5.688  0.3898  0.0114  1.2640
 1005SOL    MW4 3788   2.356   0.207   5.683 -0.1437  0.3037  0.8815
 1006SOL     OW 3789   0.958   3.764   0.903  0.7084 -0.1750 -0.7502
 1006SOL    HW2 3790   0.912   3.719   0.832 -0.2446  0.7306 -0.7247
 1006SOL    HW3 3791   0.904   3.748   0.981 -0.4864  2.1500 -0.9945
 1006SOL    MW4 3792   0.945   3.756   0.904  0.2306  0.2082  0.2406
 1007SOL     OW 3793   0.241   0.804   0.850  0.7308  0.0403  0.5060
 1007SOL    HW2 3794   0.305   0.733   0.856 -0.0918 -0.6558  1.3581
 1007SOL    HW3 3795   0.225   0.830   0.941  0.4268  0.7702  0.2524
 1007SOL    MW4 3796   0.247   0.798   0.863  0.0255 -0.2658 -0.7409
 1008SOL     OW 3797   0.025   3.587   0.600 -0.2690  0.2351 -0.3430
 1008SOL    HW2 3798   0.052   3.583   0.692 -1.5792  0.7515  0.0853
 1008SOL    HW3 3799   0.107   3.576   0.551  0.9138  2.7525  0.8830
 1008SOL    MW4 3800   0.039   3.585   0.606 -0.1024  0.2267  0.1763
 1009SOL     OW 3801   6.124   4.685   5.025 -0.3112 -0.2736  0.0710
 1009SOL    HW2 3802   6.133   4.697   5.120  3.1266 -1.0915 -0.0227
 1009SOL    HW3 3803   6.080   4.765   4.995  2.6895  2.3061  1.8792
 1009SOL    MW4 3804   6.119   4.698   5.034  0.2759 -0.1393 -0.2228
 1010SOL     OW 3805   4.554   0.117   1.057 -0.0564  0.2696 -0.0083
 1010SOL    HW2 3806   4.475   0.098   1.107 -0.3723  0.4001 -0.4437
 1010SOL    HW3 3807   4.626   0.096   1.116 -0.4189  1.4444  0.8975
 1010SOL    MW4 3808   4.553   0.112   1.071  0.5338 -0.1780 -1.0372
 1011SOL     OW 3809   6.210   1.282   2.750 -0.8252  0.3013  0.5883
 1011SOL    HW2 3810   6.125   1.270   2.792 -0.7658 -1.2090  0.3322
 1011SOL    HW3 3811   6.189   1.329   2.669 -1.2724  0.8873  1.0370
 1011SOL    MW4 3812   6.196   1.287   2.745 -0.1250 -0.2946 -0.1339
 1012SOL     OW 3813   0.450   4.343   1.294  0.1380  0.0145 -0.3857
 1012SOL    HW2 3814   0.366   4.389   1.302 -0.0530 -0.4601  0.5540
 1012SOL    HW3 3815   0.468   4.342   1.200 -2.3244 -2.3225 -0.9798
 1012SOL    MW4 3816   0.441   4.349   1.283  0.1332 -0.0192  0.3550
 1013SOL     OW 3817   4.560   6.271   0.932 -0.2751 -0.1296 -0.1759
 1013SOL    HW2 3818   4.487   6.209   0.935  0.4167 -0.9378  1.3740
 1013SOL    HW3 3819   4.529   6.346   0.983 -0.5210  0.1316 -0.6997
 1013SOL    MW4 3820   4.546   6.272   0.939 -0.0937  0.4078 -0.1660
 1014SOL     OW 3821   5.139   1.454   4.826 -0.1299 -0.1946  0.0819
 1014SOL    HW2 3822   5.075   1.395   4.866 -1.4829 -0.3726 -2.1629
 1014SOL    HW3 3823   5.220   1.402   4.822 -0.7265 -1.1464  0.0451
 1014SOL    MW4 3824   5.141   1.439   4.831  0.7936  0.4015 -0.0210
 1015SOL     OW 3825   0.277   1.426   5.316 -0.0531 -0.0686 -0.8881
 1015SOL    HW2 3826   0.308   1.356   5.373  0.9790 -0.0485 -1.3980
 1015SOL    HW3 3827   0.329   1.417   5.236 -0.2794  0.9485 -1.1731
 1015SOL    MW4 3828   0.288   1.416   5.313  0.2518  0.0643 -0.1657
 1016SOL     OW 3829   1.653   1.506   2.058  0.3596 -0.4316  0.5257
 1016SOL    HW2 3830   1.666   1.480   1.967 -0.5725  0.1129  0.2274
 1016SOL    HW3 3831   1.696   1.592   2.064  0.2029 -0.3544  0.5358
 1016SOL    MW4 3832   1.661   1.514   2.047 -0.1248  0.3645  0.0759
 1017SOL     OW 3833   5.309   4.847   3.913 -0.3620 -0.8229 -0.1473
 1017SOL    HW2 3834   5.306   4.942   3.906  1.4118 -0.6957  0.2410
 1017SOL    HW3 3835   5.302   4.815   3.823 -2.4218 -0.4203 -0.1635
 1017SOL    MW4 3836   5.308   4.855   3.900  0.6950 -0.4095 -0.7157
 1018SOL     OW 3837   2.915   1.201   0.933  0.4440  0.0251 -0.0377
 1018SOL    HW2 3838   2.902   1.123   0.987  1.6331 -0.5312 -0.5269
 1018SOL    HW3 3839   2.829   1.242   0.929 -0.4265 -1.7699 -0.5427
 1018SOL    MW4 3840   2.902   1.196   0.939 -0.4388 -0.4135  0.3750
 1019SOL     OW 3841   6.351   2.381   0.863 -0.0261 -0.5211  0.5601
 1019SOL    HW2 3842   6.305   2.316   0.916  0.2955 -0.7128  0.6095
 1019SOL    HW3 3843   6.443   2.357   0.872  0.0506 -0.3820  0.1486
 1019SOL    MW4 3844   6.357   2.369   0.871 -0.4213 -0.6379  0.1730
 1020SOL     OW 3845   0.157   5.971   4.736 -0.4653  0.2040  0.0274
 1020SOL    HW2 3846   0.106   5.912   4.680 -0.2887 -0.1212  0.2088
 1020SOL    HW3 3847   0.158   5.929   4.822 -1.0658  0.8934  0.3818
 1020SOL    MW4 3848   0.150   5.958   4.740  0.1235 -0.2432  0.4635
 1021SOL     OW 3849   5.200   5.310   2.714  0.2279  0.1137 -0.0821
 1021SOL    HW2 3850   5.277   5.354   2.750  0.9039 -0.9715 -0.1416
 1021SOL    HW3 3851   5.132   5.321   2.781  0.2411  1.5855 -0.2838
 1021SOL    MW4 3852   5.201   5.317   2.728  0.1976  0.3582 -0.5138
 1022SOL     OW 3853   0.324   5.684   2.386  0.0744 -0.2908  0.1992
 1022SOL    HW2 3854   0.236   5.704   2.418  0.4758 -0.3317  1.3787
 1022SOL    HW3 3855   0.355   5.616   2.446 -0.0557 -2.1801 -1.7701
 1022SOL    MW4 3856   0.316   5.677   2.398 -0.5405  0.2171 -0.3222
 1023SOL     OW 3857   4.133   1.288   3.693 -0.6413  0.2406  0.4787
 1023SOL    HW2 3858   4.047   1.303   3.731 -0.1235  0.0962  1.7787
 1023SOL    HW3 3859   4.195   1.315   3.762  0.3306 -0.9665  0.1328
 1023SOL    MW4 3860   4.130   1.293   3.707  0.9259 -0.3305  0.0781
 1024SOL     OW 3861   0.081   1.347   5.106  0.6060 -0.4665 -0.4014
 1024SOL    HW2 3862   0.098   1.254   5.120  2.9162  0.1914  2.1434
 1024SOL    HW3 3863   0.141   1.392   5.166  0.4389  2.7203 -2.3458
 1024SOL    MW4 3864   0.091   1.341   5.115 -0.5469  0.1058 -0.1046
 1025SOL     OW 3865   3.622   4.010   4.704  0.1211 -0.3787 -0.3539
 1025SOL    HW2 3866   3.613   3.924   4.745  3.9184 -0.6655  0.3119
 1025SOL    HW3 3867   3.625   4.071   4.777 -0.5507  0.0712 -0.6976
 1025SOL    MW4 3868   3.621   4.006   4.719 -0.3640 -0.2258 -0.2379
 1026SOL     OW 3869   0.368   5.933   2.498 -0.5005  0.2109 -0.5449
 1026SOL    HW2 3870   0.445   5.930   2.555 -0.4599 -0.9878 -0.6282
 1026SOL    HW3 3871   0.372   5.851   2.448 -1.9561  0.0092 -0.3807
 1026SOL    MW4 3872   0.378   5.922   2.499  0.5566 -0.2440  1.0231
 1027SOL     OW 3873   4.286   2.003   3.186  0.6343 -0.2640 -0.4744
 1027SOL    HW2 3874   4.245   1.928   3.144  1.3157  0.0192 -1.6790
 1027SOL    HW3 3875   4.332   2.049   3.116  0.2903  1.2536  0.2333
 1027SOL    MW4 3876   4.287   1.999   3.171  0.0279 -0.2358 -0.4771
 1028SOL     OW 3877   3.869   0.961   3.856 -0.2844  0.3547  0.2533
 1028SOL    HW2 3878   3.853   0.994   3.944  0.3174  1.9089 -0.1890
 1028SOL    HW3 3879   3.964   0.949   3.850 -0.2084  1.2051 -0.4806
 1028SOL    MW4 3880   3.879   0.964   3.867 -0.5936  0.8644  0.5136
 1029SOL     OW 3881   1.473   1.778   4.897 -0.5885  0.3482  0.0793
 1029SOL    HW2 3882   1.457   1.856   4.951 -0.4427 -0.0277  0.6696
 1029SOL    HW3 3883   1.564   1.756   4.913 -0.5916  0.1288 -0.1925
 1029SOL    MW4 3884   1.483   1.786   4.906 -0.0312 -0.5551  0.8743
 1030SOL     OW 3885   0.667   5.660   4.890 -0.0691  0.1611  0.3613
 1030SOL    HW2 3886   0.589   5.680   4.838  0.3243  0.2108 -0.2121
 1030SOL    HW3 3887   0.666   5.726   4.960 -0.2335  0.5255  0.0227
 1030SOL    MW4 3888   0.657   5.672   4.893  0.3700  0.4607 -0.0002
 1031SOL     OW 3889   4.170   1.277   0.867 -0.0712 -0.2856 -0.0328
 1031SOL    HW2 3890   4.109   1.312   0.802  0.5091 -0.6825 -0.8003
 1031SOL    HW3 3891   4.140   1.188   0.883 -1.2577  0.3483  1.5642
 1031SOL    MW4 3892   4.158   1.270   0.861  0.1704 -0.2249 -0.4339
 1032SOL     OW 3893   6.316   0.684   1.935  0.0149 -0.5119  0.0004
 1032SOL    HW2 3894   6.378   0.614   1.918 -0.7080 -0.8037 -1.5659
 1032SOL    HW3 3895   6.283   0.709   1.849  0.2910  1.8002  0.5058
 1032SOL    MW4 3896   6.320   0.678   1.921 -0.0949  0.4937  0.1136
 1033SOL     OW 3897   3.908   5.376   6.117 -0.0302 -0.6144  0.5201
 1033SOL    HW2 3898   3.846   5.418   6.177  1.9726  1.4560  1.2795
 1033SOL    HW3 3899   3.898   5.424   6.035 -0.1066 -0.9324  0.3418
 1033SOL    MW4 3900   3.898   5.388   6.114  0.3413  0.1045 -0.2911
 1034SOL     OW 3901   0.133   3.003   4.381 -0.1942  0.1262 -0.5435
 1034SOL    HW2 3902   0.093   3.046   4.457 -0.5116 -1.0077 -0.0432
 1034SOL    HW3 3903   0.063   2.951   4.343  0.5559 -1.2090 -0.1645
 1034SOL    MW4 3904   0.119   3.002   4.386 -0.4051  0.0383  0.5339
 1035SOL     OW 3905   2.640   5.904   4.679  0.1153 -0.3273  0.3964
 1035SOL    HW2 3906   2.628   5.818   4.637  1.8901 -0.0263 -0.8508
 1035SOL    HW3 3907   2.708   5.888   4.746  1.2173  0.2745 -0.5452
 1035SOL    MW4 3908   2.648   5.890   4.682 -0.3915 -0.7380  0.7556
 1036SOL     OW 3909   5.637   5.701   2.834  0.6826  0.2231 -0.7221
 1036SOL    HW2 3910   5.676   5.753   2.904 -0.7307  0.3805 -0.0197
 1036SOL    HW3 3911   5.595   5.628   2.878  1.2284 -0.6308 -1.5733
 1036SOL    MW4 3912   5.637   5.698   2.849 -0.1310 -0.9158 -0.6731
 1037SOL     OW 3913   3.979   3.415   0.040 -0.2314 -0.6826  0.0065
 1037SOL    HW2 3914   4.023   3.334   0.067 -0.2334 -1.0406 -1.0234
 1037SOL    HW3 3915   4.047   3.482   0.045 -0.5390 -0.4523  2.1247
 1037SOL    MW4 3916   3.993   3.413   0.045 -0.4189  0.0493 -0.2216
 1038SOL     OW 3917   2.935   3.417   1.229  0.0554  0.6202  0.0778
 1038SOL    HW2 3918   2.971   3.328   1.228  1.2186  1.0137  1.7529
 1038SOL    HW3 3919   2.849   3.409   1.190 -0.0171 -1.3286  0.5337
 1038SOL    MW4 3920   2.929   3.404   1.224  0.0030  0.1719  0.5326
 1039SOL     OW 3921   5.727   4.437   4.578  0.4975 -0.8118 -0.2019
 1039SOL    HW2 3922   5.644   4.395   4.602 -0.9530  1.5335 -0.7977
 1039SOL    HW3 3923   5.724   4.442   4.483  1.2435 -0.5599 -0.2116
 1039SOL    MW4 3924   5.715   4.432   4.569 -0.0335  0.0588  0.2639
 1040SOL     OW 3925   1.698   4.676   2.854 -0.2874 -0.2241  0.6165
 1040SOL    HW2 3926   1.669   4.668   2.945 -2.5516 -0.8674 -0.0968
 1040SOL    HW3 3927   1.770   4.613   2.847  0.7543  0.7047  2.2198
 1040SOL    MW4 3928   1.703   4.666   2.866  0.2846  0.2857 -0.6818
 1041SOL     OW 3929   1.208   1.760   5.972 -0.4279 -0.2132  0.2255
 1041SOL    HW2 3930   1.263   1.837   5.958 -0.0360 -0.4028  0.6759
 1041SOL    HW3 3931   1.191   1.759   6.066 -0.6371 -0.5381  0.1876
 1041SOL    MW4 3932   1.213   1.770   5.982 -0.4195  0.0111 -0.1315
 1042SOL     OW 3933   1.713   1.281   3.530  0.0099  0.0466 -0.3660
 1042SOL    HW2 3934   1.735   1.195   3.566 -2.6051  0.5384  3.0178
 1042SOL    HW3 3935   1.623   1.272   3.500 -0.0799  1.4298 -0.5840
 1042SOL    MW4 3936   1.704   1.269   3.531  0.3580 -0.1084 -0.6856
 1043SOL     OW 3937   1.865   5.527   3.484 -0.0034  0.0835  0.2771
 1043SOL    HW2 3938   1.888   5.569   3.566 -0.8545 -0.4757  0.8154
 1043SOL    HW3 3939   1.885   5.592   3.417  0.6290  0.5680  0.9253
 1043SOL    MW4 3940   1.871   5.541   3.486 -0.2586 -0.0253 -0.7393
 1044SOL     OW 3941   4.117   4.027   0.483 -0.3489 -0.3335 -0.2536
 1044SOL    HW2 3942   4.188   3.965   0.502  1.4365  1.6194 -0.2366
 1044SOL    HW3 3943   4.037   3.978   0.504  1.0757 -1.4912  3.1868
 1044SOL    MW4 3944   4.116   4.012   0.488 -0.2846  0.2427  0.0367
 1045SOL     OW 3945   2.053   6.173   3.667 -0.2310 -0.1033  0.0381
 1045SOL    HW2 3946   2.114   6.225   3.614  0.5898  1.1085  2.0561
 1045SOL    HW3 3947   1.971   6.223   3.664 -0.0630  0.1886  0.2530
 1045SOL    MW4 3948   2.050   6.187   3.659  0.3562 -0.1353  0.0016
 1046SOL     OW 3949   4.181   0.209   5.545  0.1921 -1.0432 -0.0233
 1046SOL    HW2 3950   4.258   0.249   5.585  0.3209 -0.0356 -1.2398
 1046SOL    HW3 3951   4.213   0.131   5.501  0.2492 -1.4713  0.7568
 1046SOL    MW4 3952   4.195   0.204   5.545 -0.2541 -0.4951 -0.4070
 1047SOL     OW 3953   0.977   2.991   3.353 -0.1505 -0.0590  0.1616
 1047SOL    HW2 3954   1.012   3.009   3.266  0.9432 -1.1219  0.3581
 1047SOL    HW3 3955   0.891   3.033   3.354  0.2403  0.8039 -1.0787
 1047SOL    MW4 3956   0.971   2.999   3.342  0.6248  0.1479  0.2250
 1048SOL     OW 3957   3.486   3.863   6.080  0.4731  0.0208 -0.0015
 1048SOL    HW2 3958   3.451   3.910   6.156 -1.2857  0.2053 -0.8853
 1048SOL    HW3 3959   3.428   3.789   6.069  2.0198 -1.2622  0.1133
 1048SOL    MW4 3960   3.474   3.860   6.089  0.0663 -0.8844 -0.5236
 1049SOL     OW 3961   5.992   1.624   2.279  0.7977 -0.4217  0.1446
 1049SOL    HW2 3962   6.028   1.540   2.253  0.6119 -0.1464 -1.0866
 1049SOL    HW3 3963   6.033   1.643   2.363  1.2323 -1.4939  0.1887
 1049SOL    MW4 3964   6.002   1.616   2.287 -0.0981  0.1125  0.4439
 1050SOL     OW 3965   0.332   0.152   6.008  0.1565 -0.3441  0.5480
 1050SOL    HW2 3966   0.295   0.107   5.931  3.0402 -0.7478 -0.7641
 1050SOL    HW3 3967   0.398   0.091   6.041  0.1024  0.5305  2.4019
 1050SOL    MW4 3968   0.336   0.138   6.002  0.7352 -0.0145  0.1815
 1051SOL     OW 3969   2.199   3.947   2.491 -0.2195 -0.6226  0.1230
 1051SOL    HW2 3970   2.260   4.008   2.533 -0.3891 -1.2278  1.2978
 1051SOL    HW3 3971   2.139   3.922   2.561 -0.1976 -2.0823 -0.3514
 1051SOL    MW4 3972   2.199   3.952   2.506 -0.4128  0.1684  0.1466
 1052SOL     OW 3973   2.535   3.988   5.091 -0.4418  0.1964  0.0723
 1052SOL    HW2 3974   2.526   3.963   5.183  1.2549  2.2740  0.8680
 1052SOL    HW3 3975   2.619   4.033   5.086 -1.5215  2.1799 -2.0193
 1052SOL    MW4 3976   2.545   3.991   5.102 -0.2561 -0.0258  0.3374
 1053SOL     OW 3977   4.571   1.199   4.280  0.0656 -0.0845 -0.2563
 1053SOL    HW2 3978   4.613   1.285   4.288 -0.2462  0.1340 -0.9011
 1053SOL    HW3 3979   4.626   1.152   4.217 -0.4676  0.0837 -0.8481
 1053SOL    MW4 3980   4.584   1.204   4.273  0.0427 -0.3811  0.3394
 1054SOL     OW 3981   0.212   1.071   4.224  0.1260 -0.0526 -0.3411
 1054SOL    HW2 3982   0.282   1.135   4.236  0.4641 -0.5318  0.3456
 1054SOL    HW3 3983   0.135   1.123   4.200  0.8785  0.4170 -1.8093
 1054SOL    MW4 3984   0.211   1.086   4.222 -0.6309 -0.2807  0.0155
 1055SOL     OW 3985   0.598   0.827   5.271 -0.0711 -0.3536  0.1402
 1055SOL    HW2 3986   0.539   0.856   5.340 -0.7110  0.0753 -0.5703
 1055SOL    HW3 3987   0.631   0.908   5.232 -0.3082 -0.5777 -0.5440
 1055SOL    MW4 3988   0.595   0.841   5.275 -0.5947 -0.1052  0.3074
 1056SOL     OW 3989   2.327   4.737   6.360 -0.5450  0.0530 -0.0562
 1056SOL    HW2 3990   2.377   4.694   6.429 -0.5184 -1.0274 -0.7326
 1056SOL    HW3 3991   2.239   4.700   6.367 -0.3736 -0.5613 -1.0127
 1056SOL    MW4 3992   2.322   4.727   6.370  0.6586  0.1466 -0.2970
 1057SOL     OW 3993   5.328   0.128   0.625 -0.3067 -0.0463 -0.1181
 1057SOL    HW2 3994   5.350   0.211   0.667  0.6603  1.0530 -2.6300
 1057SOL    HW3 3995   5.238   0.140   0.594  0.5494  1.0002 -2.4084
 1057SOL    MW4 3996   5.319   0.140   0.626 -0.6281  0.2611 -0.0289
 1058SOL     OW 3997   0.665   3.386   3.619  0.2484  0.3032 -0.4324
 1058SOL    HW2 3998   0.706   3.380   3.533 -2.4119 -0.3734 -1.7560
 1058SOL    HW3 3999   0.682   3.301   3.660  0.2613  0.0679 -0.9187
 1058SOL    MW4 4000   0.673   3.374   3.613 -0.3240 -0.5116 -0.3481
 1059SOL     OW 4001   0.629   1.009   0.681 -0.4616  0.4359  0.1913
 1059SOL    HW2 4002   0.602   1.088   0.634  2.3935  0.7167 -1.1400
 1059SOL    HW3 4003   0.599   0.937   0.625  0.9061  0.7242 -0.9640
 1059SOL    MW4 4004   0.621   1.010   0.667 -0.9856  0.6095  0.0983
 1060SOL     OW 4005   5.868   5.817   0.380  0.1388  0.3410 -0.0341
 1060SOL    HW2 4006   5.894   5.729   0.407  0.0823  0.0347 -0.9425
 1060SOL    HW3 4007   5.789   5.835   0.431 -0.5179 -0.6150 -0.6609
 1060SOL    MW4 4008   5.861   5.807   0.390  0.2455  0.1472  0.0277
 1061SOL     OW 4009   2.540   2.917   0.070 -0.2950 -0.1543 -0.5061
 1061SOL    HW2 4010   2.601   2.952   0.006  0.9860 -1.7975 -0.2751
 1061SOL    HW3 4011   2.584   2.928   0.154 -0.2383 -1.4310 -0.3411
 1061SOL    MW4 4012   2.554   2.923   0.073 -0.3682  0.1913  0.0365
 1062SOL     OW 4013   0.520   2.494   4.682 -0.1635 -0.1864 -0.1850
 1062SOL    HW2 4014   0.584   2.564   4.669 -0.4387 -0.1714 -1.6991
 1062SOL    HW3 4015   0.555   2.441   4.753 -0.0412  1.5917  1.1455
 1062SOL    MW4 4016   0.533   2.496   4.690 -0.4651  0.2237 -0.3930
 1063SOL     OW 4017   0.124   1.102   2.678  0.3952 -0.4550 -0.5286
 1063SOL    HW2 4018   0.047   1.045   2.677 -0.5077  0.5970  1.6282
 1063SOL    HW3 4019   0.092   1.186   2.644  1.2287 -0.6319 -1.8437
 1063SOL    MW4 4020   0.110   1.105   2.673 -0.1526  0.2644 -0.1809
 1064SOL     OW 4021   1.123   0.901   4.270 -0.4592 -0.2337  0.1074
 1064SOL    HW2 4022   1.112   0.989   4.305 -1.2548 -1.0459  2.0765
 1064SOL    HW3 4023   1.100   0.909   4.177 -0.6778  1.5821  0.2834
 1064SOL    MW4 4024   1.118   0.913   4.262  0.1157  0.3081  0.4399
 1065SOL     OW 4025   1.862   2.402   1.837 -0.0169 -0.5608 -0.1108
 1065SOL    HW2 4026   1.882   2.476   1.894  0.3068  1.6095 -2.8099
 1065SOL    HW3 4027   1.766   2.394   1.840 -0.0079 -0.4118  0.6182
 1065SOL    MW4 4028   1.852   2.410   1.845  0.6567 -0.7228 -0.1981
 1066SOL     OW 4029   5.405   3.523   6.054  0.2576 -0.0584 -0.2732
 1066SOL    HW2 4030   5.454   3.604   6.042 -0.5559  0.4514 -0.2740
 1066SOL    HW3 4031   5.445   3.461   5.993  0.8306  0.3668 -0.3409
 1066SOL    MW4 4032   5.417   3.525   6.044 -0.3727 -0.4458 -0.5111
 1067SOL     OW 4033   1.807   5.009   1.585 -0.4233  0.7254  0.6075
 1067SOL    HW2 4034   1.790   5.103   1.593 -0.3685  0.6202  2.3808
 1067SOL    HW3 4035   1.757   4.983   1.508 -0.5248  2.1909  0.1341
 1067SOL    MW4 4036   1.798   5.018   1.576  0.4633 -0.4159  0.1942
 1068SOL     OW 4037   3.123   6.383   3.081 -0.2169  0.0920 -0.3806
 1068SOL    HW2 4038   3.030   6.387   3.103 -0.1741 -0.1257 -0.1498
 1068SOL    HW3 4039   3.146   6.473   3.058  0.0903  0.7002  2.0110
 1068SOL    MW4 4040   3.114   6.395   3.081  0.1237  0.1131 -0.2874
 1069SOL     OW 4041   4.618   0.836   6.200  0.3674  0.6785 -0.0251
 1069SOL    HW2 4042   4.635   0.916   6.151  1.4567  0.5240  0.0699
 1069SOL    HW3 4043   4.523   0.828   6.201  0.2560  1.7878 -0.3238
 1069SOL    MW4 4044   4.608   0.846   6.194  0.4522 -0.3132  0.0841
 1070SOL     OW 4045   3.335   2.921   1.633  0.1727  0.0747  0.6306
 1070SOL    HW2 4046   3.282   2.883   1.703 -0.2669 -0.4879  0.0067
 1070SOL    HW3 4047   3.387   2.848   1.600 -0.9169 -0.1074 -0.7975
 1070SOL    MW4 4048   3.335   2.906   1.638 -0.3199  0.7610 -0.4137
 1071SOL     OW 4049   6.120   3.065   6.395  0.2780  0.3181  0.6078
 1071SOL    HW2 4050   6.156   3.153   6.381  1.6203 -0.4014 -0.8453
 1071SOL    HW3 4051   6.149   3.015   6.319  0.2183 -1.5950  1.7614
 1071SOL    MW4 4052   6.129   3.070   6.383 -0.7145  0.2279  0.2310
 1072SOL     OW 4053   2.938   3.380   4.673  0.2847 -0.0129 -0.1562
 1072SOL    HW2 4054   2.908   3.450   4.615  0.6879  0.6101  0.3619
 1072SOL    HW3 4055   3.016   3.345   4.630  0.9829  0.9081  0.3213
 1072SOL    MW4 4056   2.945   3.385   4.660 -0.2391  0.1344 -0.2290
 1073SOL     OW 4057   2.590   0.606   5.302 -0.5331  0.1684 -0.0611
 1073SOL    HW2 4058   2.665   0.649   5.261  0.3216  0.5975  1.8586
 1073SOL    HW3 4059   2.604   0.512   5.286  0.1290  0.2832 -0.1570
 1073SOL    MW4 4060   2.602   0.599   5.295 -0.0370  0.6977  0.7806
 1074SOL     OW 4061   2.373   4.458   4.558 -0.1184  0.4951  0.6484
 1074SOL    HW2 4062   2.299   4.411   4.520  0.4644  0.9572 -1.1558
 1074SOL    HW3 4063   2.390   4.413   4.641  0.1679 -2.2281 -0.7928
 1074SOL    MW4 4064   2.365   4.446   4.564 -0.5583 -0.0700 -0.2367
 1075SOL     OW 4065   4.825   2.635   1.768  0.1478  0.0136 -0.0052
 1075SOL    HW2 4066   4.911   2.651   1.729  0.4185 -1.2981  0.0201
 1075SOL    HW3 4067   4.844   2.595   1.853 -0.4818  0.2718  0.2627
 1075SOL    MW4 4068   4.839   2.632   1.774 -0.1572  0.3452 -0.1574
 1076SOL     OW 4069   6.041   0.440   3.603 -0.0338  0.0618  0.6717
 1076SOL    HW2 4070   6.059   0.368   3.543 -1.1377  0.4258 -0.1299
 1076SOL    HW3 4071   6.036   0.398   3.689 -0.7366 -0.8520  0.2144
 1076SOL    MW4 4072   6.043   0.425   3.607 -0.1954  0.7769  0.2504
 1077SOL     OW 4073   6.160   2.147   4.010  0.5462  0.0835 -0.0004
 1077SOL    HW2 4074   6.211   2.103   3.942 -0.6819 -0.1091 -0.8253
 1077SOL    HW3 4075   6.151   2.237   3.979  1.4165  0.4397  0.7467
 1077SOL    MW4 4076   6.166   2.153   3.997 -0.4696 -0.3087  0.4918
 1078SOL     OW 4077   0.952   5.102   0.737 -0.4996  0.0300 -0.7261
 1078SOL    HW2 4078   0.981   5.192   0.753  0.1463 -0.0204 -1.5174
 1078SOL    HW3 4079   0.872   5.092   0.788 -0.2444  0.8609 -0.1519
 1078SOL    MW4 4080   0.945   5.112   0.746 -0.1002 -0.4337  0.1963
 1079SOL     OW 4081   4.316   3.802   4.023  0.1413 -0.0700 -0.4581
 1079SOL    HW2 4082   4.350   3.728   4.074  0.9207  0.2872 -0.4547
 1079SOL    HW3 4083   4.238   3.830   4.071  0.4273 -0.2345  0.1130
 1079SOL    MW4 4084   4.310   3.796   4.036  0.1406  0.2154 -0.1286
 1080SOL     OW 4085   1.177   1.404   5.667 -0.5198  0.1077  0.2243
 1080SOL    HW2 4086   1.151   1.491   5.697  0.0996  0.1414  0.6787
 1080SOL    HW3 4087   1.184   1.413   5.572 -0.9303  0.4225  0.2177
 1080SOL    MW4 4088   1.174   1.417   5.659  0.2591 -0.2218 -0.3996
 1081SOL     OW 4089   3.395   2.333   1.784 -0.6695  0.3175 -0.4858
 1081SOL    HW2 4090   3.430   2.289   1.862  1.9215  1.1768 -1.0795
 1081SOL    HW3 4091   3.418   2.425   1.796 -1.4698  0.6923 -1.6490
 1081SOL    MW4 4092   3.403   2.339   1.796  0.0476  0.1483 -0.2865
 1082SOL     OW 4093   5.279   2.765   0.385 -0.5323 -0.1347 -0.7259
 1082SOL    HW2 4094   5.299   2.714   0.463 -0.6245  0.4109 -0.3341
 1082SOL    HW3 4095   5.271   2.701   0.315 -0.0686 -0.5977 -0.3598
 1082SOL    MW4 4096   5.280   2.750   0.386  0.0297 -0.2131  0.0240
 1083SOL     OW 4097   4.554   2.496   6.060 -0.0722 -0.0913 -0.0209
 1083SOL    HW2 4098   4.571   2.426   5.997  1.4865  0.0228  0.2396
 1083SOL    HW3 4099   4.637   2.543   6.068 -0.0056 -0.5014  2.6050
 1083SOL    MW4 4100   4.567   2.493   6.053 -0.2052  0.1077  0.2374
 1084SOL     OW 4101   6.124   5.708   0.640  0.1334 -0.1414  0.6080
 1084SOL    HW2 4102   6.067   5.785   0.640  1.0655  0.7695 -2.8588
 1084SOL    HW3 4103   6.213   5.745   0.641  0.6030 -1.2059 -0.0219
 1084SOL    MW4 4104   6.128   5.723   0.640 -0.5615 -0.3399 -0.3180
 1085SOL     OW 4105   0.481   5.046   4.768  0.4325 -0.2678  0.2871
 1085SOL    HW2 4106   0.541   5.099   4.821 -0.6393  0.6064  0.6574
 1085SOL    HW3 4107   0.539   4.998   4.708  1.5634 -0.1239  1.2122
 1085SOL    MW4 4108   0.497   5.047   4.767 -0.2169 -0.3420  0.5269
 1086SOL     OW 4109   1.868   4.724   5.911 -0.3782  0.4603  0.4445
 1086SOL    HW2 4110   1.829   4.811   5.908 -0.3792  0.4503 -0.0756
 1086SOL    HW3 4111   1.937   4.727   5.844  1.1569  0.7738  1.9671
 1086SOL    MW4 4112   1.872   4.736   5.901 -0.2832 -0.1575  0.0521
 1087SOL     OW 4113   6.308   0.822   3.107  0.2003 -0.6516 -0.2298
 1087SOL    HW2 4114   6.277   0.767   3.036  0.6325  0.6780 -1.4952
 1087SOL    HW3 4115   6.228   0.860   3.144  0.0228 -0.7468 -0.5145
 1087SOL    MW4 4116   6.293   0.820   3.103  0.2922 -0.1302  0.3548
 1088SOL     OW 4117   1.635   5.787   0.818 -0.2697 -0.5122 -0.3000
 1088SOL    HW2 4118   1.545   5.756   0.812 -0.3490 -0.0628 -1.9604
 1088SOL    HW3 4119   1.630   5.879   0.792  0.2656  0.4102  2.4935
 1088SOL    MW4 4120   1.623   5.795   0.814  0.3395 -0.1278 -0.3119
 1089SOL     OW 4121   0.857   1.872   0.381  0.4499  0.5163 -0.5065
 1089SOL    HW2 4122   0.830   1.953   0.425 -0.2186  1.2982 -2.2449
 1089SOL    HW3 4123   0.870   1.809   0.452 -2.0094  1.2735  0.7364
 1089SOL    MW4 4124   0.855   1.875   0.396  0.4990 -0.6460 -0.2282
 1090SOL     OW 4125   0.967   5.682   2.610  0.5435  0.4302 -0.2326
 1090SOL    HW2 4126   0.961   5.776   2.625 -0.0983  0.5165 -0.9976
 1090SOL    HW3 4127   0.962   5.644   2.698 -1.3001  1.0096 -0.0450
 1090SOL    MW4 4128   0.966   5.690   2.624  0.2530  0.0750 -0.4356
 1091SOL     OW 4129   0.077   2.685   3.001  0.0060 -0.2784  0.4488
 1091SOL    HW2 4130   0.036   2.599   3.008  1.7762 -1.1350  0.7391
 1091SOL    HW3 4131   0.125   2.696   3.083  0.4189  0.6598  0.0953
 1091SOL    MW4 4132   0.078   2.675   3.013  0.2928 -0.0648  0.2469
 1092SOL     OW 4133   4.297   3.240   1.668  0.6799 -0.0517  0.2194
 1092SOL    HW2 4134   4.375   3.198   1.702  0.3727  0.8348  2.1549
 1092SOL    HW3 4135   4.328   3.294   1.595  1.7871 -0.1158  0.6313
 1092SOL    MW4 4136   4.311   3.241   1.663 -0.4470 -1.0677 -0.0346
 1093SOL     OW 4137   2.917   5.066   0.295 -0.1231 -0.6763 -0.5600
 1093SOL    HW2 4138   2.991   5.067   0.355 -0.1550 -0.8522 -0.5174
 1093SOL    HW3 4139   2.956   5.079   0.209 -0.0186 -1.0141 -0.5642
 1093SOL    MW4 4140   2.932   5.068   0.292 -0.2497  0.1560 -0.3358
 1094SOL     OW 4141   2.888   4.258   5.376  0.1525 -0.3589  0.2405
 1094SOL    HW2 4142   2.971   4.297   5.406 -0.8026  1.8164  0.2965
 1094SOL    HW3 4143   2.862   4.313   5.302 -0.3261 -2.2011 -1.0102
 1094SOL    MW4 4144   2.895   4.271   5.370 -0.3273  0.2475 -0.2757
 1095SOL     OW 4145   1.356   0.221   5.188  0.0683  0.2066  0.2886
 1095SOL    HW2 4146   1.395   0.134   5.196 -1.8333 -0.7660 -0.3856
 1095SOL    HW3 4147   1.384   0.252   5.102 -0.7761 -0.5691 -0.2785
 1095SOL    MW4 4148   1.365   0.213   5.178  0.3935  0.0538  0.2376
 1096SOL     OW 4149   5.523   1.906   1.886  0.1378  0.4160 -0.0628
 1096SOL    HW2 4150   5.534   1.819   1.847 -0.3389  0.5272 -0.4553
 1096SOL    HW3 4151   5.491   1.888   1.974 -0.1198  0.1914 -0.1984
 1096SOL    MW4 4152   5.520   1.892   1.892  0.2623  0.5970  0.0511
 1097SOL     OW 4153   4.660   0.667   2.218  0.4173  0.3092  0.6533
 1097SOL    HW2 4154   4.654   0.727   2.293  1.1956 -0.5260  1.4118
 1097SOL    HW3 4155   4.649   0.580   2.256 -0.9073 -0.0478 -0.4632
 1097SOL    MW4 4156   4.658   0.664   2.233 -0.1237 -0.0996 -0.2308
 1098SOL     OW 4157   1.854   1.534   5.512  0.0951 -0.4401 -0.0361
 1098SOL    HW2 4158   1.833   1.623   5.538  0.6588 -0.5225  0.7204
 1098SOL    HW3 4159   1.950   1.529   5.516  0.2513 -0.3811 -2.3976
 1098SOL    MW4 4160   1.864   1.545   5.516  0.0125  0.2678 -0.2180
 1099SOL     OW 4161   2.438   1.067   1.747 -0.2099 -0.0532  0.1173
 1099SOL    HW2 4162   2.377   1.100   1.681  1.6383  1.9905 -0.6694
 1099SOL    HW3 4163   2.388   1.072   1.829 -0.9150  2.2636 -0.3832
 1099SOL    MW4 4164   2.423   1.072   1.749  0.1389 -0.0555 -0.0483
 1100SOL     OW 4165   0.904   2.590   1.142  0.0246  0.1388 -0.0846
 1100SOL    HW2 4166   0.964   2.519   1.161  0.1233 -0.0008 -0.8951
 1100SOL    HW3 4167   0.941   2.666   1.187 -1.1082 -0.6946  2.4675
 1100SOL    MW4 4168   0.917   2.591   1.150  0.4841  0.4939 -0.2359
 1101SOL     OW 4169   1.636   4.223   6.428 -0.3330 -0.3145  0.2840
 1101SOL    HW2 4170   1.632   4.197   6.337  1.9992  0.8656 -0.2399
 1101SOL    HW3 4171   1.550   4.260   6.447 -1.7864 -3.0432 -0.5549
 1101SOL    MW4 4172   1.624   4.225   6.419  0.5880  0.3353  0.4464
 1102SOL     OW 4173   4.162   3.984   1.850  0.1483 -0.0147  0.3218
 1102SOL    HW2 4174   4.116   3.921   1.906  0.7877  0.5722  1.5636
 1102SOL    HW3 4175   4.135   3.962   1.761 -0.6899 -1.1679  0.8356
 1102SOL    MW4 4176   4.153   3.973   1.846  0.3196 -0.1616 -0.1120
 1103SOL     OW 4177   3.127   4.785   0.483  0.3758 -0.3438 -0.4706
 1103SOL    HW2 4178   3.212   4.744   0.503  0.9341  0.0809 -1.8712
 1103SOL    HW3 4179   3.064   4.714   0.491  0.9586 -0.8352 -0.1399
 1103SOL    MW4 4180   3.130   4.770   0.487  0.1459 -0.5844 -0.6021
 1104SOL     OW 4181   3.968   5.126   3.192  0.2993  0.2090 -0.4512
 1104SOL    HW2 4182   4.021   5.053   3.224 -0.7654 -0.7438 -0.8170
 1104SOL    HW3 4183   3.883   5.115   3.235  0.4396  1.8540  0.3079
 1104SOL    MW4 4184   3.964   5.115   3.202 -0.1910 -0.1983 -0.4230
 1105SOL     OW 4185   2.703   3.821   3.186  0.0257  0.4099 -0.3182
 1105SOL    HW2 4186   2.678   3.839   3.276  0.7658  1.1329 -0.2433
 1105SOL    HW3 4187   2.620   3.800   3.142 -0.6967  2.3045  0.0080
 1105SOL    MW4 4188   2.689   3.821   3.192 -0.0668  0.0878 -0.1054
 1106SOL     OW 4189   6.287   3.066   1.402 -0.1916 -0.3315  0.4244
 1106SOL    HW2 4190   6.211   3.080   1.345  1.1772  1.3109 -1.1430
 1106SOL    HW3 4191   6.260   2.995   1.460 -2.6543 -0.2909 -0.5091
 1106SOL    MW4 4192   6.273   3.058   1.402  0.1544 -0.7086 -0.0588
 1107SOL     OW 4193   2.919   4.876   4.585  0.0258  0.0716  0.8845
 1107SOL    HW2 4194   2.856   4.945   4.602 -0.5696 -0.1399 -0.3495
 1107SOL    HW3 4195   2.894   4.841   4.499  2.1835  0.4197  0.0460
 1107SOL    MW4 4196   2.908   4.881   4.576 -0.3459 -0.1614 -0.0308
 1108SOL     OW 4197   3.564   6.127   2.127 -0.1094  0.3900 -0.1498
 1108SOL    HW2 4198   3.516   6.201   2.090  2.0498  1.6664 -0.5594
 1108SOL    HW3 4199   3.540   6.127   2.220 -1.3613  0.5685 -0.4508
 1108SOL    MW4 4200   3.554   6.136   2.134  0.1616 -0.0927  0.3728
 1109SOL     OW 4201   4.293   1.663   0.905  0.1450 -0.0053  0.3277
 1109SOL    HW2 4202   4.331   1.751   0.898 -1.1100  0.5014 -0.3873
 1109SOL    HW3 4203   4.350   1.618   0.968  1.3802  0.9948 -0.0234
 1109SOL    MW4 4204   4.306   1.669   0.912  0.0789 -0.5107  0.1467
 1110SOL     OW 4205   0.068   3.031   3.275  0.1352 -0.3131  0.5569
 1110SOL    HW2 4206   0.015   3.056   3.350  0.3475 -0.7463  0.8549
 1110SOL    HW3 4207   0.059   2.936   3.269 -0.6603 -0.1890 -0.5567
 1110SOL    MW4 4208   0.060   3.022   3.284 -0.2813  0.3765  0.0790
 1111SOL     OW 4209   0.655   6.336   0.652 -0.0566 -0.0706  0.1088
 1111SOL    HW2 4210   0.607   6.301   0.727  0.0541  0.5387  0.4708
 1111SOL    HW3 4211   0.689   6.258   0.607 -2.4211 -0.6190 -0.8871
 1111SOL    MW4 4212   0.653   6.321   0.656 -0.8242 -0.1517  0.3042
 1112SOL     OW 4213   5.943   2.036   4.571 -0.2812 -0.7465 -0.3121
 1112SOL    HW2 4214   5.886   2.104   4.535 -1.4363 -1.0262  0.9420
 1112SOL    HW3 4215   6.027   2.051   4.527 -1.3428 -0.4886 -2.3991
 1112SOL    MW4 4216   5.947   2.047   4.560  0.2056 -1.2342  0.3219
 1113SOL     OW 4217   6.045   6.406   2.069 -0.1236  0.1884  0.1582
 1113SOL    HW2 4218   6.059   6.453   2.151 -0.7890 -2.2538  1.7838
 1113SOL    HW3 4219   6.061   6.314   2.091 -1.2054 -0.6505 -2.2294
 1113SOL    MW4 4220   6.049   6.400   2.083  0.2960  0.0797 -0.0225
 1114SOL     OW 4221   2.040   1.568   2.446 -0.5268  0.1141  0.2805
 1114SOL    HW2 4222   2.059   1.533   2.358  0.1192  0.6210  0.2052
 1114SOL    HW3 4223   2.126   1.570   2.489 -0.6483  1.0374  0.4878
 1114SOL    MW4 4224   2.054   1.564   2.440  0.4252  0.5962  0.6588
 1115SOL     OW 4225   2.257   2.241   1.106 -0.1336 -0.1322  0.4501
 1115SOL    HW2 4226   2.317   2.222   1.035  1.1185  0.5665  1.2858
 1115SOL    HW3 4227   2.302   2.307   1.159 -0.6993 -1.1541  2.2930
 1115SOL    MW4 4228   2.271   2.247   1.104  0.7263 -0.3374 -0.5812
 1116SOL     OW 4229   4.689   6.330   0.291  0.0939  0.0050  0.6929
 1116SOL    HW2 4230   4.769   6.335   0.343  0.4799 -1.6322  0.3211
 1116SOL    HW3 4231   4.718   6.300   0.205 -0.8628 -0.0555  0.3731
 1116SOL    MW4 4232   4.703   6.327   0.286 -0.3106 -0.0751 -0.2445
 1117SOL     OW 4233   3.049   2.863   2.523 -0.1252  0.1570  0.1467
 1117SOL    HW2 4234   2.961   2.901   2.513 -0.3807 -0.3632  0.3628
 1117SOL    HW3 4235   3.088   2.869   2.436 -0.3720  0.4029  0.0529
 1117SOL    MW4 4236   3.042   2.869   2.510 -0.0947 -0.0839 -0.2346
 1118SOL     OW 4237   3.638   2.566   4.256  0.3383 -0.3322 -0.3118
 1118SOL    HW2 4238   3.690   2.497   4.215  0.1324 -0.3335 -0.5719
 1118SOL    HW3 4239   3.677   2.648   4.225 -0.4162 -0.3290 -1.2866
 1118SOL    MW4 4240   3.650   2.568   4.247 -0.2404  0.5466 -0.6124
 1119SOL     OW 4241   3.935   1.724   5.545  0.1557 -0.0469  0.5995
 1119SOL    HW2 4242   4.028   1.744   5.535 -0.1087  1.0413  0.1695
 1119SOL    HW3 4243   3.933   1.634   5.579  1.3802  0.2356  1.4740
 1119SOL    MW4 4244   3.947   1.715   5.548  0.0715  0.4198 -0.3755
 1120SOL     OW 4245   4.117   2.612   1.758  1.1410 -0.1355  0.2349
 1120SOL    HW2 4246   4.142   2.601   1.667 -0.3406  0.0899 -0.2212
 1120SOL    HW3 4247   4.100   2.523   1.789  0.2367 -0.0956 -0.1351
 1120SOL    MW4 4248   4.118   2.599   1.750 -0.2879  0.1163  0.4039
 1121SOL     OW 4249   4.555   1.970   5.157  0.7896  0.4117 -0.8536
 1121SOL    HW2 4250   4.482   2.007   5.108  1.2338 -0.5792 -2.3530
 1121SOL    HW3 4251   4.570   2.032   5.228 -1.1647  0.8975 -0.7977
 1121SOL    MW4 4252   4.547   1.983   5.160 -0.4274  0.1187 -0.5348
 1122SOL     OW 4253   6.038   2.222   6.132 -1.0984  0.2608 -0.0991
 1122SOL    HW2 4254   6.066   2.132   6.114  0.4819  0.6798  0.1057
 1122SOL    HW3 4255   5.996   2.218   6.218  0.2614 -0.0518  0.5666
 1122SOL    MW4 4256   6.036   2.210   6.141  0.1023 -0.3046 -0.0742
 1123SOL     OW 4257   3.304   0.796   3.694 -0.6409  0.2286 -0.5501
 1123SOL    HW2 4258   3.230   0.849   3.723 -0.3161 -0.3764  1.5456
 1123SOL    HW3 4259   3.359   0.856   3.644 -0.9400  1.5332  0.6500
 1123SOL    MW4 4260   3.302   0.811   3.691  0.1663  0.0631 -0.7616
 1124SOL     OW 4261   4.484   1.776   3.404 -0.6200 -0.0106 -0.1445
 1124SOL    HW2 4262   4.397   1.797   3.369 -0.3271 -0.0494 -0.9139
 1124SOL    HW3 4263   4.515   1.703   3.350 -0.8446 -1.2190  1.2868
 1124SOL    MW4 4264   4.476   1.769   3.392  0.3141 -0.5586 -0.1091
 1125SOL     OW 4265   4.418   5.873   2.241  0.0383 -0.3813 -0.2688
 1125SOL    HW2 4266   4.422   5.905   2.150  0.0544 -0.5148 -0.3148
 1125SOL    HW3 4267   4.509   5.879   2.271 -0.1094  0.5295  0.0369
 1125SOL    MW4 4268   4.431   5.878   2.233  0.1653  0.0034  0.0382
 1126SOL     OW 4269   2.620   5.785   3.963  0.6955  0.0150 -0.5948
 1126SOL    HW2 4270   2.607   5.833   3.882 -2.3642  0.7378  0.1947
 1126SOL    HW3 4271   2.582   5.699   3.947  0.5481 -0.0191 -0.0865
 1126SOL    MW4 4272   2.613   5.780   3.950  0.2291 -0.4980 -0.2167
 1127SOL     OW 4273   5.222   1.648   5.889 -0.4215 -0.5907  0.6779
 1127SOL    HW2 4274   5.129   1.628   5.902 -0.5516 -2.3333 -1.9387
 1127SOL    HW3 4275   5.249   1.587   5.820  2.6882 -0.1178  1.3408
 1127SOL    MW4 4276   5.213   1.637   5.881  0.4303  0.0948  0.8775
 1128SOL     OW 4277   1.777   4.775   5.242 -0.3914  0.5822 -0.2361
 1128SOL    HW2 4278   1.834   4.817   5.307  0.6910  1.8670 -1.9367
 1128SOL    HW3 4279   1.837   4.742   5.175 -1.3800 -1.9327  0.0216
 1128SOL    MW4 4280   1.793   4.776   5.242 -0.4741 -0.4060  0.4241
 1129SOL     OW 4281   4.361   1.621   4.403 -0.0279 -0.1351 -0.2334
 1129SOL    HW2 4282   4.302   1.598   4.332 -2.4903 -1.0653  1.9589
 1129SOL    HW3 4283   4.325   1.577   4.480  2.7091  0.4884  1.5637
 1129SOL    MW4 4284   4.348   1.612   4.404 -0.1817 -0.1878  0.3606
 1130SOL     OW 4285   4.546   4.688   5.793 -0.0058 -0.5661  0.5437
 1130SOL    HW2 4286   4.536   4.753   5.862 -2.3142 -1.0697  0.7571
 1130SOL    HW3 4287   4.634   4.652   5.806  0.0118  0.1022  2.5549
 1130SOL    MW4 4288   4.557   4.692   5.804 -0.1811 -0.1123  0.0278
 1131SOL     OW 4289   0.690   2.269   3.534  0.4273  0.7618  0.0920
 1131SOL    HW2 4290   0.755   2.270   3.463 -0.2170 -0.0765 -0.5288
 1131SOL    HW3 4291   0.737   2.306   3.609  1.9346 -0.6128 -0.1031
 1131SOL    MW4 4292   0.705   2.274   3.534  0.2832 -0.2901 -0.2217
 1132SOL     OW 4293   2.520   0.079   4.294 -0.3117  0.0649 -0.3058
 1132SOL    HW2 4294   2.566   0.156   4.259  1.6144 -0.9523 -0.1509
 1132SOL    HW3 4295   2.526   0.014   4.224  1.4728 -1.1819  0.8901
 1132SOL    MW4 4296   2.527   0.081   4.280  0.7144  0.1247  0.4124
 1133SOL     OW 4297   3.701   5.116   2.226 -0.2492 -0.3937 -0.2742
 1133SOL    HW2 4298   3.627   5.175   2.241 -0.4884 -0.8552  0.4226
 1133SOL    HW3 4299   3.745   5.111   2.311  1.4659  1.0276 -1.0318
 1133SOL    MW4 4300   3.697   5.123   2.240 -0.1294 -0.1458  0.2508
 1134SOL     OW 4301   1.723   2.244   5.068  0.2304  0.5909  0.2544
 1134SOL    HW2 4302   1.800   2.193   5.044  1.4348  0.5581  3.7331
 1134SOL    HW3 4303   1.678   2.191   5.133 -2.0064  1.2661 -0.6420
 1134SOL    MW4 4304   1.727   2.230   5.073 -0.3382 -0.7591  0.5568
 1135SOL     OW 4305   5.020   3.692   5.923  0.0702 -0.5242 -0.5166
 1135SOL    HW2 4306   5.084   3.761   5.905 -0.5211  0.0410 -0.4785
 1135SOL    HW3 4307   5.055   3.647   6.000 -0.0811  0.4267  0.1353
 1135SOL    MW4 4308   5.033   3.695   5.931  0.2374  0.2270  0.4720
 1136SOL     OW 4309   1.213   2.914   3.946 -0.3124 -0.2832  0.8261
 1136SOL    HW2 4310   1.292   2.886   3.992  0.1837  0.5789  0.5177
 1136SOL    HW3 4311   1.244   2.970   3.876 -1.2995  2.1381  2.1755
 1136SOL    MW4 4312   1.227   2.918   3.943 -0.4251 -0.1915 -0.5151
 1137SOL     OW 4313   4.619   3.384   6.070  0.0946 -0.8445 -0.3109
 1137SOL    HW2 4314   4.533   3.410   6.101  0.6359  2.3011 -1.1398
 1137SOL    HW3 4315   4.667   3.359   6.149  0.1542  2.9320  1.0278
 1137SOL    MW4 4316   4.614   3.384   6.084 -0.0846 -0.4320 -0.1390
 1138SOL     OW 4317   0.449   0.080   2.177  0.3557 -0.5216 -0.3997
 1138SOL    HW2 4318   0.431   0.120   2.092  1.3023  2.0514  0.4943
 1138SOL    HW3 4319   0.366   0.086   2.225  0.1034 -1.0210 -0.7626
 1138SOL    MW4 4320   0.436   0.086   2.172  0.1176 -0.1429 -0.1835
 1139SOL     OW 4321   1.010   2.601   5.965  0.3270 -0.1206  0.4262
 1139SOL    HW2 4322   1.028   2.562   5.880  2.0062 -0.5405  0.9442
 1139SOL    HW3 4323   1.026   2.531   6.028 -2.3849 -0.2798  1.0600
 1139SOL    MW4 4324   1.015   2.587   5.962 -0.5217  0.3096  0.0026
 1140SOL     OW 4325   5.497   1.249   3.872 -0.9076  0.1612  0.0212
 1140SOL    HW2 4326   5.428   1.188   3.901 -2.2394  1.4837 -0.2401
 1140SOL    HW3 4327   5.508   1.309   3.945  1.1025 -0.9021  0.6689
 1140SOL    MW4 4328   5.489   1.249   3.885  0.5848 -0.3551 -0.1886
 1141SOL     OW 4329   1.144   4.497   3.471  0.1995 -0.1619  0.0242
 1141SOL    HW2 4330   1.106   4.459   3.391 -0.1793  1.9206 -0.8710
 1141SOL    HW3 4331   1.227   4.535   3.442 -0.3167  1.3177  0.4146
 1141SOL    MW4 4332   1.150   4.497   3.456  0.1723 -0.0932  0.9103
 1142SOL     OW 4333   0.492   1.738   3.799  0.1946  0.3919  0.6493
 1142SOL    HW2 4334   0.467   1.795   3.726  0.2805  0.0123  0.3210
 1142SOL    HW3 4335   0.576   1.701   3.772 -0.4622 -0.8831  0.2846
 1142SOL    MW4 4336   0.500   1.740   3.786 -0.0905  0.1638 -0.0237
 1143SOL     OW 4337   5.776   5.343   1.398  0.5270 -0.1986 -0.6248
 1143SOL    HW2 4338   5.716   5.410   1.365  0.5380  0.0781 -0.1030
 1143SOL    HW3 4339   5.719   5.280   1.444  0.6851  0.4227  0.4611
 1143SOL    MW4 4340   5.760   5.343   1.400 -0.5650  0.2335  0.5869
 1144SOL     OW 4341   6.415   4.907   2.701  0.3569  0.4801 -0.1137
 1144SOL    HW2 4342   6.394   4.979   2.760 -0.6048 -1.9850  2.7995
 1144SOL    HW3 4343   6.332   4.882   2.662  0.5528  0.4202 -0.5010
 1144SOL    MW4 4344   6.402   4.914   2.704  0.1356  0.1794  0.0303
 1145SOL     OW 4345   1.215   3.917   2.371 -0.3900  0.4015  0.4477
 1145SOL    HW2 4346   1.249   3.872   2.448  0.1927 -1.2445 -0.7089
 1145SOL    HW3 4347   1.211   3.849   2.304 -1.7822  1.5762 -0.7137
 1145SOL    MW4 4348   1.219   3.902   2.372 -0.4747  0.4590  0.4452
 1146SOL     OW 4349   5.008   3.013   3.547 -0.0185 -0.0239  0.3952
 1146SOL    HW2 4350   4.925   2.973   3.522 -0.8807  2.1629 -0.4851
 1146SOL    HW3 4351   5.030   2.972   3.631 -1.1127 -1.8350 -0.1436
 1146SOL    MW4 4352   5.000   3.002   3.555  0.4425 -0.3836 -0.7331
 1147SOL     OW 4353   3.116   1.041   5.704  0.0442  0.1260 -0.1783
 1147SOL    HW2 4354   3.158   1.019   5.788 -2.7684 -0.8451  1.1002
 1147SOL    HW3 4355   3.088   0.957   5.669 -1.2001  0.7557 -0.7370
 1147SOL    MW4 4356   3.118   1.027   5.711  0.1184 -0.8000 -0.0461
 1148SOL     OW 4357   3.407   4.650   3.460 -0.1480  0.3418  0.3627
 1148SOL    HW2 4358   3.486   4.631   3.510  0.4957  1.6512 -0.1007
 1148SOL    HW3 4359   3.428   4.626   3.370 -0.4431  0.2372  0.3218
 1148SOL    MW4 4360   3.420   4.645   3.455 -0.2538  0.1589  0.2954
 1149SOL     OW 4361   3.550   3.353   2.854  0.2495 -0.1461 -0.4627
 1149SOL    HW2 4362   3.464   3.381   2.884 -0.0875  0.0984 -1.5947
 1149SOL    HW3 4363   3.595   3.434   2.831  0.6229 -0.2993 -0.2764
 1149SOL    MW4 4364   3.545   3.367   2.855 -0.3505 -0.1819 -0.3379
 1150SOL     OW 4365   0.789   2.040   4.467  0.3755 -0.4923  0.6109
 1150SOL    HW2 4366   0.878   2.055   4.437  0.7183 -1.4034  1.1420
 1150SOL    HW3 4367   0.788   1.949   4.497 -1.8164 -2.0202 -3.3527
 1150SOL    MW4 4368   0.800   2.030   4.467 -0.4939  0.2206  0.3195
 1151SOL     OW 4369   0.061   5.741   2.467  0.2018  0.1109 -0.2167
 1151SOL    HW2 4370  -0.002   5.669   2.469  0.1903  0.1215 -0.2054
 1151SOL    HW3 4371   0.089   5.750   2.558  0.4828 -0.1280 -0.2771
 1151SOL    MW4 4372   0.057   5.733   2.479 -0.1153  0.2578 -0.1601
 1152SOL     OW 4373   0.579   4.389   0.643 -0.3816  0.1229 -0.8143
 1152SOL    HW2 4374   0.631   4.360   0.567  1.6825  0.5483  0.3757
 1152SOL    HW3 4375   0.578   4.313   0.701 -0.7261  0.2728 -0.6218
 1152SOL    MW4 4376   0.585   4.375   0.640 -0.3798 -0.2532 -0.4390
 1153SOL     OW 4377   1.487   4.447   2.914  0.1115  0.7445 -0.6551
 1153SOL    HW2 4378   1.547   4.502   2.864  0.5186  0.4443 -0.5010
 1153SOL    HW3 4379   1.408   4.500   2.923  0.5629  1.3801 -0.3530
 1153SOL    MW4 4380   1.484   4.461   2.909 -0.5091  0.3751 -0.0659
 1154SOL     OW 4381   5.545   2.490   2.227 -0.3987 -0.2603  0.2351
 1154SOL    HW2 4382   5.628   2.443   2.230 -0.4512 -0.3218  0.8805
 1154SOL    HW3 4383   5.479   2.421   2.217 -0.6028 -0.5132  2.6902
 1154SOL    MW4 4384   5.547   2.475   2.226 -0.2869  0.2974 -0.6384
 1155SOL     OW 4385   5.682   1.049   3.800  0.1541 -0.1960 -0.1517
 1155SOL    HW2 4386   5.605   1.105   3.796  0.2490 -0.0914 -0.5742
 1155SOL    HW3 4387   5.652   0.965   3.765  0.5283  0.1912 -1.4331
 1155SOL    MW4 4388   5.668   1.045   3.795  0.2447 -0.7227 -0.8299
 1156SOL     OW 4389   2.814   2.653   1.273 -0.2942  0.1017 -0.1349
 1156SOL    HW2 4390   2.843   2.741   1.248 -0.1843 -0.0215 -0.4341
 1156SOL    HW3 4391   2.756   2.668   1.348 -0.2253  0.4248 -0.1451
 1156SOL    MW4 4392   2.810   2.667   1.280 -0.1898 -0.3045  0.4510
 1157SOL     OW 4393   4.931   4.372   3.627  0.0021  0.1417 -0.0851
 1157SOL    HW2 4394   4.937   4.417   3.711  2.5832  2.0994 -1.1764
 1157SOL    HW3 4395   4.985   4.294   3.638  1.8360  1.3131 -0.3762
 1157SOL    MW4 4396   4.939   4.367   3.640 -0.5533  0.4524  0.4331
 1158SOL     OW 4397   4.318   0.972   0.032 -0.6573 -0.0951 -0.1189
 1158SOL    HW2 4398   4.369   0.896   0.061 -1.4754 -0.8830 -0.6801
 1158SOL    HW3 4399   4.264   0.995   0.108 -2.0286 -1.4964 -0.6037
 1158SOL    MW4 4400   4.318   0.965   0.046 -0.2632  0.1959  0.5520
 1159SOL     OW 4401   3.369   5.140   5.715 -0.6876  0.1040 -0.0896
 1159SOL    HW2 4402   3.378   5.235   5.716  2.5238 -0.0004  3.3401
 1159SOL    HW3 4403   3.427   5.110   5.645  0.0664  0.6554  0.2856
 1159SOL    MW4 4404   3.378   5.149   5.706  0.7051  0.0224  0.0326
 1160SOL     OW 4405   4.303   4.814   0.284  0.2740 -0.0345  0.1786
 1160SOL    HW2 4406   4.216   4.774   0.289  0.9502 -1.4724  0.8196
 1160SOL    HW3 4407   4.360   4.755   0.332  1.4349  1.4437  0.6891
 1160SOL    MW4 4408   4.299   4.801   0.291 -0.3108  0.7039 -0.5141
 1161SOL     OW 4409   2.455   1.029   5.221 -0.8394 -0.4502  0.1704
 1161SOL    HW2 4410   2.400   0.951   5.228 -1.3564 -0.0019  1.3232
 1161SOL    HW3 4411   2.402   1.099   5.258 -0.6573  0.6157 -1.4795
 1161SOL    MW4 4412   2.440   1.028   5.227  0.3771  0.8934 -0.0103
 1162SOL     OW 4413   5.596   4.755   2.028  0.5406  0.1231 -0.9673
 1162SOL    HW2 4414   5.613   4.837   2.074  2.9521 -0.0058 -1.4986
 1162SOL    HW3 4415   5.619   4.773   1.937  2.9435 -1.5391 -0.8004
 1162SOL    MW4 4416   5.601   4.768   2.022  0.2285 -0.3460 -0.1294
 1163SOL     OW 4417   5.390   4.865   0.910 -0.1625  0.4168  0.4398
 1163SOL    HW2 4418   5.482   4.891   0.911 -0.2495  0.9363 -1.4552
 1163SOL    HW3 4419   5.358   4.886   0.997  1.9892 -1.6910  1.8569
 1163SOL    MW4 4420   5.398   4.871   0.921 -0.1588  0.6230 -0.0735
 1164SOL     OW 4421   4.941   0.857   2.871 -0.2507  0.1033 -0.2180
 1164SOL    HW2 4422   4.926   0.777   2.819  0.2384 -0.3816  0.3826
 1164SOL    HW3 4423   4.914   0.833   2.960 -0.6336  0.7868 -0.1418
 1164SOL    MW4 4424   4.935   0.843   2.876  0.1544  0.5279  0.3722
 1165SOL     OW 4425   5.922   0.772   2.729  0.1170 -0.0245  0.0990
 1165SOL    HW2 4426   5.920   0.807   2.818 -0.0612  0.2751 -0.0193
 1165SOL    HW3 4427   6.015   0.768   2.707  0.1470  0.2214  0.1769
 1165SOL    MW4 4428   5.934   0.776   2.738  0.1237 -0.1632 -0.3599
 1166SOL     OW 4429   2.992   3.764   0.232 -0.0489 -0.1221 -0.2186
 1166SOL    HW2 4430   3.015   3.717   0.312  0.0299  0.5374  0.1595
 1166SOL    HW3 4431   2.933   3.834   0.261  1.0605  0.9805 -0.5148
 1166SOL    MW4 4432   2.988   3.767   0.246 -0.2172 -0.4655 -0.0439
 1167SOL     OW 4433   1.306   1.127   4.623  0.2544  0.1847 -0.0202
 1167SOL    HW2 4434   1.282   1.035   4.611  0.1607  0.2702 -0.4906
 1167SOL    HW3 4435   1.265   1.172   4.550  0.1785  0.6243  0.2934
 1167SOL    MW4 4436   1.298   1.121   4.612  0.8863 -0.2482  0.1597
 1168SOL     OW 4437   1.286   6.003   4.729  0.0135 -0.3028 -0.0400
 1168SOL    HW2 4438   1.236   6.083   4.713 -1.1322 -0.8489  0.6970
 1168SOL    HW3 4439   1.243   5.936   4.675 -0.7754 -1.0203  1.4154
 1168SOL    MW4 4440   1.274   6.004   4.719 -0.4948  0.0376 -0.2771
 1169SOL     OW 4441   3.881   5.520   5.868 -0.0794 -0.2515 -0.6549
 1169SOL    HW2 4442   3.911   5.461   5.800  2.1445  0.0530  0.0018
 1169SOL    HW3 4443   3.788   5.535   5.848 -0.1913 -2.3681 -1.9560
 1169SOL    MW4 4444   3.873   5.514   5.857  0.3351 -0.2787  0.2387
 1170SOL     OW 4445   1.141   1.628   1.351 -0.7538  0.4941 -0.7821
 1170SOL    HW2 4446   1.145   1.604   1.259 -1.4845 -1.6682 -0.3043
 1170SOL    HW3 4447   1.048   1.629   1.373 -0.5472 -0.6957  0.2984
 1170SOL    MW4 4448   1.129   1.625   1.342  0.3787  0.6040 -0.2848
 1171SOL     OW 4449   2.678   5.663   1.190 -0.1374  0.0749  0.6089
 1171SOL    HW2 4450   2.680   5.644   1.096 -1.7658 -0.2197  0.6030
 1171SOL    HW3 4451   2.761   5.628   1.223  0.5485  0.3706 -0.7456
 1171SOL    MW4 4452   2.689   5.656   1.182  0.7368 -0.3721 -0.5583
 1172SOL     OW 4453   5.724   2.484   4.238  0.1969  0.2403  0.5511
 1172SOL    HW2 4454   5.742   2.451   4.150  0.7459  3.0493 -0.4695
 1172SOL    HW3 4455   5.802   2.535   4.261  1.1131 -2.2371  3.7000
 1172SOL    MW4 4456   5.737   2.486   4.229  0.4866 -0.1805 -0.5151
 1173SOL     OW 4457   1.396   1.968   1.986  0.0658  0.4711  0.1824
 1173SOL    HW2 4458   1.423   2.023   2.059  1.5942 -2.2954  1.8454
 1173SOL    HW3 4459   1.477   1.950   1.938  0.0395 -2.0331  0.9700
 1173SOL    MW4 4460   1.410   1.973   1.989 -0.3990 -0.0960  0.3598
 1174SOL     OW 4461   1.259   5.573   0.192  0.0738  0.0401  1.1280
 1174SOL    HW2 4462   1.177   5.539   0.155  0.0972  0.6442  0.5097
 1174SOL    HW3 4463   1.257   5.545   0.284  0.0630 -1.5690  0.6675
 1174SOL    MW4 4464   1.248   5.565   0.200  0.0959  0.4631  0.7719
 1175SOL     OW 4465   3.420   2.102   6.169 -0.6992 -0.3154 -0.2581
 1175SOL    HW2 4466   3.502   2.122   6.124  0.5184 -2.4846  0.8819
 1175SOL    HW3 4467   3.436   2.125   6.260 -1.8531  0.4798 -0.2297
 1175SOL    MW4 4468   3.433   2.108   6.175 -0.2113 -0.0794  0.5945
 1176SOL     OW 4469   1.841   5.062   4.436 -0.0612 -0.1859  0.4745
 1176SOL    HW2 4470   1.780   5.134   4.454 -0.8163 -0.2104 -1.6653
 1176SOL    HW3 4471   1.798   4.985   4.473 -0.0036  0.2132  1.3917
 1176SOL    MW4 4472   1.827   5.061   4.443 -0.2540  0.8747  0.1644
 1177SOL     OW 4473   1.317   2.634   1.466 -0.0874 -0.3656  0.2288
 1177SOL    HW2 4474   1.227   2.605   1.479  0.4634 -1.2393  2.7544
 1177SOL    HW3 4475   1.314   2.729   1.479 -0.4723 -0.5666  1.8757
 1177SOL    MW4 4476   1.305   2.643   1.470  0.5975  0.1006 -0.6439
 1178SOL     OW 4477   3.402   3.228   3.504  0.5572  0.7413  0.5681
 1178SOL    HW2 4478   3.354   3.222   3.587  2.8575  0.9082  1.9817
 1178SOL    HW3 4479   3.405   3.137   3.473 -0.2038  0.6544  0.7134
 1178SOL    MW4 4480   3.396   3.215   3.511 -0.0743 -0.4031 -0.2390
 1179SOL     OW 4481   0.385   1.147   6.124 -0.0660  0.3343 -0.2390
 1179SOL    HW2 4482   0.337   1.190   6.194 -1.2579  0.7131 -1.2469
 1179SOL    HW3 4483   0.402   1.058   6.156 -1.6660  0.1158  0.0589
 1179SOL    MW4 4484   0.381   1.141   6.137  0.0803 -0.0936 -0.1371
 1180SOL     OW 4485   3.598   1.805   0.262 -0.0299 -0.0693  0.5684
 1180SOL    HW2 4486   3.575   1.865   0.333  0.2498  0.1386  0.4885
 1180SOL    HW3 4487   3.620   1.723   0.305  0.0302  0.0222  0.7115
 1180SOL    MW4 4488   3.598   1.802   0.277  0.7403 -0.0380 -0.1222
 1181SOL     OW 4489   5.055   6.211   2.231  0.4471 -0.0668 -0.3849
 1181SOL    HW2 4490   5.081   6.203   2.140  2.2573 -0.3307  0.1089
 1181SOL    HW3 4491   5.136   6.199   2.280 -0.3240  0.9365  1.2333
 1181SOL    MW4 4492   5.069   6.209   2.226 -0.1608 -0.2355 -0.6815
 1182SOL     OW 4493   5.829   4.500   2.580  0.4461  0.5404 -0.0529
 1182SOL    HW2 4494   5.906   4.444   2.571  0.1792 -0.2180  1.9235
 1182SOL    HW3 4495   5.758   4.450   2.539  0.1086 -0.9024  2.1019
 1182SOL    MW4 4496   5.829   4.486   2.574  0.6835  0.0128 -0.2652
 1183SOL     OW 4497   0.254   3.869   0.558  0.7197 -0.0872 -0.2148
 1183SOL    HW2 4498   0.293   3.934   0.499 -0.8043  0.0333 -1.1629
 1183SOL    HW3 4499   0.326   3.839   0.613  1.8272  1.0919 -0.9765
 1183SOL    MW4 4500   0.268   3.874   0.557 -0.2518  0.0733  0.6144
 1184SOL     OW 4501   5.651   5.660   1.929 -0.3473  0.9082  0.4221
 1184SOL    HW2 4502   5.693   5.741   1.958  1.4221  0.0661  0.3603
 1184SOL    HW3 4503   5.723   5.608   1.892 -1.7442  0.0481 -1.2135
 1184SOL    MW4 4504   5.666   5.664   1.928  0.4628 -0.5940 -0.1420
 1185SOL     OW 4505   5.637   1.118   3.405  0.4196  0.1787  0.3145
 1185SOL    HW2 4506   5.700   1.045   3.405  1.0339  0.7000 -0.0905
 1185SOL    HW3 4507   5.667   1.175   3.335 -1.3157 -0.2299 -0.8131
 1185SOL    MW4 4508   5.649   1.116   3.396 -0.1081  0.8826  0.3525
 1186SOL     OW 4509   4.699   6.148   0.071 -0.4023  0.1491 -0.2468
 1186SOL    HW2 4510   4.722   6.178  -0.017 -2.9428  0.7792 -0.7819
 1186SOL    HW3 4511   4.633   6.081   0.057 -0.4935 -0.0906  1.1791
 1186SOL    MW4 4512   4.694   6.143   0.058  0.5786 -0.0209 -0.2013
 1187SOL     OW 4513   5.526   2.940   1.514 -0.3925 -0.2043  0.0013
 1187SOL    HW2 4514   5.566   2.855   1.531  0.9143  0.6519  1.4746
 1187SOL    HW3 4515   5.508   2.977   1.600  0.0544  1.4551 -0.5583
 1187SOL    MW4 4516   5.529   2.934   1.527  0.3316  0.0024  0.2377
 1188SOL     OW 4517   2.680   0.856   4.733 -0.1241 -0.0381 -0.3464
 1188SOL    HW2 4518   2.720   0.931   4.688 -3.4933  2.5666  0.5759
 1188SOL    HW3 4519   2.699   0.871   4.825 -0.9861 -0.1941 -0.1397
 1188SOL    MW4 4520   2.688   0.868   4.739 -0.1986 -0.1659 -0.3065
 1189SOL     OW 4521   0.567   4.473   3.911  0.0609  0.0886 -0.2272
 1189SOL    HW2 4522   0.602   4.544   3.858  0.5136  1.3015  1.5680
 1189SOL    HW3 4523   0.472   4.479   3.900  0.1288  0.5700 -0.5744
 1189SOL    MW4 4524   0.559   4.483   3.903  0.5799  0.0747  0.2708
 1190SOL     OW 4525   1.564   5.966   3.835 -0.1503 -0.0486 -0.3954
 1190SOL    HW2 4526   1.573   5.874   3.810  1.8771  0.6882 -2.8579
 1190SOL    HW3 4527   1.646   5.986   3.880 -0.7574  0.4795  0.5020
 1190SOL    MW4 4528   1.576   5.956   3.838 -0.0257 -0.5564 -0.5977
 1191SOL     OW 4529   0.552   1.717   0.900 -0.3722 -0.5552 -0.5328
 1191SOL    HW2 4530   0.458   1.733   0.894 -0.1667  1.1425  0.0286
 1191SOL    HW3 4531   0.566   1.633   0.856 -2.0051 -0.3378 -1.5351
 1191SOL    MW4 4532   0.542   1.708   0.894 -0.4759  0.2809  0.1335
 1192SOL     OW 4533   2.841   3.615   2.075  0.0303  0.3740 -0.4749
 1192SOL    HW2 4534   2.893   3.674   2.129  1.0705  0.2943 -1.3638
 1192SOL    HW3 4535   2.773   3.583   2.134  0.4130  1.2179  0.4502
 1192SOL    MW4 4536   2.839   3.618   2.090 -0.1628 -0.3042 -0.1120
 1193SOL     OW 4537   4.585   3.106   2.142  0.3715  0.1903  0.0759
 1193SOL    HW2 4538   4.547   3.019   2.132  0.2602  0.3185 -0.7342
 1193SOL    HW3 4539   4.602   3.115   2.236 -0.5086 -0.3261  0.2948
 1193SOL    MW4 4540   4.582   3.096   2.153  0.3373  0.6602 -0.2608
 1194SOL     OW 4541   1.539   3.778   0.802 -0.0926  0.0604 -0.1275
 1194SOL    HW2 4542   1.548   3.736   0.887 -1.3360  0.5258  0.2647
 1194SOL    HW3 4543   1.578   3.717   0.740 -0.8782 -1.1741  0.5525
 1194SOL    MW4 4544   1.545   3.765   0.805  0.3474 -0.1584  0.7261
 1195SOL     OW 4545   1.891   4.693   1.084 -0.1920 -0.2265 -0.0111
 1195SOL    HW2 4546   1.798   4.671   1.081 -0.4767  0.9624 -0.5430
 1195SOL    HW3 4547   1.936   4.609   1.088 -1.3012 -0.8112  0.8251
 1195SOL    MW4 4548   1.885   4.679   1.084  0.0317  0.6878 -0.2388
 1196SOL     OW 4549   4.763   1.433   5.576  0.0496  0.0629  0.2825
 1196SOL    HW2 4550   4.735   1.388   5.655  0.1598  1.8845  1.4033
 1196SOL    HW3 4551   4.792   1.520   5.605  1.2641  0.3633 -1.5877
 1196SOL    MW4 4552   4.763   1.439   5.590  0.0717 -0.3832  0.0338
 1197SOL     OW 4553   6.300   4.214   3.439 -0.5605 -0.2015 -0.5350
 1197SOL    HW2 4554   6.228   4.254   3.487 -1.1015 -0.7137 -0.9044
 1197SOL    HW3 4555   6.286   4.120   3.449  0.4803 -0.3146  0.0060
 1197SOL    MW4 4556   6.289   4.207   3.447  0.1900 -0.6796 -0.2506
 1198SOL     OW 4557   3.271   5.774   2.233 -0.3070 -0.5544  0.1676
 1198SOL    HW2 4558   3.184   5.738   2.249 -1.0412 -0.0828 -2.2888
 1198SOL    HW3 4559   3.255   5.853   2.182  1.5191  0.3602  0.9448
 1198SOL    MW4 4560   3.257   5.779   2.228 -0.5672 -0.4964 -0.3277
 1199SOL     OW 4561   1.915   6.174   0.354  0.2197 -0.5188  0.3208
 1199SOL    HW2 4562   1.872   6.092   0.332 -1.0898  0.2546 -0.1713
 1199SOL    HW3 4563   1.867   6.207   0.430 -0.8270  0.8567 -0.8621
 1199SOL    MW4 4564   1.903   6.168   0.361 -0.1129  0.7469  0.0970
 1200SOL     OW 4565   3.709   1.471   5.450 -0.3413 -0.6909 -0.2130
 1200SOL    HW2 4566   3.642   1.409   5.479 -0.0649 -1.5138 -1.2616
 1200SOL    HW3 4567   3.664   1.531   5.391 -0.8577  0.8576  1.6373
 1200SOL    MW4 4568   3.694   1.471   5.446 -0.2804 -0.1018 -0.7971
 1201SOL     OW 4569   5.172   3.981   4.326 -0.1344  0.2946  0.0657
 1201SOL    HW2 4570   5.145   3.968   4.235 -0.8867 -1.8618  0.5211
 1201SOL    HW3 4571   5.266   3.965   4.326 -0.0235  0.9172 -0.4191
 1201SOL    MW4 4572   5.181   3.977   4.314  0.6063  0.2274 -0.1241
 1202SOL     OW 4573   2.732   5.264   3.174  0.6821  0.0954 -0.1742
 1202SOL    HW2 4574   2.752   5.306   3.091  1.1028 -0.2499 -0.2513
 1202SOL    HW3 4575   2.816   5.257   3.219  0.4895  0.1001  0.1934
 1202SOL    MW4 4576   2.746   5.268   3.169 -0.2247 -0.5525 -0.1589
 1203SOL     OW 4577   1.114   5.184   4.349 -0.1736  0.1144 -0.0912
 1203SOL    HW2 4578   1.145   5.266   4.312  3.1501 -1.2317 -0.6412
 1203SOL    HW3 4579   1.182   5.159   4.412 -0.9645 -2.3403 -0.1112
 1203SOL    MW4 4580   1.127   5.192   4.353 -0.0961 -0.4829  0.4135
 1204SOL     OW 4581   3.896   5.507   5.435  0.1027 -0.2456 -0.1440
 1204SOL    HW2 4582   3.973   5.451   5.426 -1.0436 -1.9600  0.1907
 1204SOL    HW3 4583   3.825   5.455   5.398 -1.3935  0.1407  2.0287
 1204SOL    MW4 4584   3.897   5.493   5.429  0.4625 -0.1682 -0.0574
 1205SOL     OW 4585   1.731   5.145   2.051 -0.0411  0.0503  0.1518
 1205SOL    HW2 4586   1.729   5.222   1.994 -0.7107  0.3643  0.5895
 1205SOL    HW3 4587   1.700   5.074   1.995 -0.3527  0.2867  0.0208
 1205SOL    MW4 4588   1.727   5.146   2.036 -0.1494 -0.1144 -0.0329
 1206SOL     OW 4589   0.975   5.351   6.048  0.1294  0.0110 -0.2983
 1206SOL    HW2 4590   0.996   5.329   6.139  1.6453 -1.1429 -0.8813
 1206SOL    HW3 4591   1.061   5.363   6.006 -0.3819 -2.3353 -2.2216
 1206SOL    MW4 4592   0.989   5.349   6.054  0.0423  0.2696 -0.3843
 1207SOL     OW 4593   5.048   4.214   4.841  0.2762  0.9982  0.0438
 1207SOL    HW2 4594   5.100   4.268   4.900 -1.2776  2.6967 -0.0603
 1207SOL    HW3 4595   5.029   4.271   4.766 -0.8446  0.0941 -0.3960
 1207SOL    MW4 4596   5.052   4.229   4.839  0.2231  0.0074  0.5096
 1208SOL     OW 4597   4.439   4.401   6.412  0.0806 -0.6348  0.6647
 1208SOL    HW2 4598   4.505   4.397   6.343 -0.8676 -0.4407 -0.2896
 1208SOL    HW3 4599   4.486   4.381   6.493  1.4188  0.1177  0.0940
 1208SOL    MW4 4600   4.454   4.398   6.414 -0.0112 -1.0379 -0.6345
 1209SOL     OW 4601   0.646   2.212   6.288  0.5002 -0.3294 -0.2867
 1209SOL    HW2 4602   0.568   2.214   6.231 -0.7207  0.2162  1.3259
 1209SOL    HW3 4603   0.677   2.302   6.290  0.1052 -0.2012  0.4535
 1209SOL    MW4 4604   0.640   2.224   6.281  0.5330 -0.3275 -0.2746
 1210SOL     OW 4605   1.312   2.482   2.775 -0.4208 -0.5189  0.0756
 1210SOL    HW2 4606   1.261   2.554   2.813  0.7989  0.3236  0.1899
 1210SOL    HW3 4607   1.260   2.404   2.793 -0.5783  0.0033  2.2769
 1210SOL    MW4 4608   1.299   2.481   2.783 -0.0946 -0.0202 -0.1397
 1211SOL     OW 4609   6.306   0.751   1.021  0.1728 -0.0127 -0.3537
 1211SOL    HW2 4610   6.335   0.832   1.064 -0.7672  0.0414  0.1969
 1211SOL    HW3 4611   6.387   0.705   1.000  0.7095  0.8818 -0.3100
 1211SOL    MW4 4612   6.321   0.756   1.024 -0.2096 -0.4946  0.1030
 1212SOL     OW 4613   6.147   1.608   5.447 -0.0259 -0.1284 -0.1894
 1212SOL    HW2 4614   6.162   1.616   5.353  0.5684  0.3902 -0.0564
 1212SOL    HW3 4615   6.093   1.529   5.456  1.3005 -1.1491 -0.8138
 1212SOL    MW4 4616   6.142   1.599   5.436  0.4304  0.2106 -0.0042
 1213SOL     OW 4617   0.012   4.223   2.565 -0.3775  0.6605 -0.0044
 1213SOL    HW2 4618   0.009   4.130   2.546  3.2579 -0.2124  2.4719
 1213SOL    HW3 4619   0.057   4.262   2.490 -1.8045  0.4698 -0.9906
 1213SOL    MW4 4620   0.018   4.216   2.553 -0.3744 -0.1028 -0.0342
 1214SOL     OW 4621   0.416   4.912   5.809 -0.0761 -0.5389 -0.0927
 1214SOL    HW2 4622   0.349   4.965   5.765 -0.6776 -1.0813  0.1513
 1214SOL    HW3 4623   0.481   4.894   5.741 -0.2323 -0.1003 -0.3628
 1214SOL    MW4 4624   0.415   4.916   5.794 -0.3111 -0.0433  0.2683
 1215SOL     OW 4625   3.060   1.050   3.456 -0.1283  0.3331  0.0783
 1215SOL    HW2 4626   2.966   1.035   3.463 -0.3279  1.1576 -0.6500
 1215SOL    HW3 4627   3.090   0.982   3.396 -0.3569  0.3974 -0.1116
 1215SOL    MW4 4628   3.052   1.039   3.449  0.1718  0.2342 -0.2900
 1216SOL     OW 4629   0.444   0.947   0.294 -0.4052 -0.6303 -0.3326
 1216SOL    HW2 4630   0.484   1.009   0.233 -1.4462 -1.1933 -1.6578
 1216SOL    HW3 4631   0.357   0.983   0.311 -0.6452 -1.2102 -0.3150
 1216SOL    MW4 4632   0.438   0.960   0.288  0.7103 -0.5244  0.0092
 1217SOL     OW 4633   2.300   5.422   4.506 -0.3570  0.0354  0.0473
 1217SOL    HW2 4634   2.360   5.494   4.529  0.7286 -0.9547  0.4510
 1217SOL    HW3 4635   2.319   5.404   4.414  0.8062 -0.9855  0.4477
 1217SOL    MW4 4636   2.311   5.429   4.497  0.0994  0.2171  0.3300
 1218SOL     OW 4637   1.881   1.578   0.779 -0.5272 -0.7784 -0.2333
 1218SOL    HW2 4638   1.922   1.595   0.864 -2.4828  2.0353  0.2735
 1218SOL    HW3 4639   1.943   1.615   0.716  0.1156 -1.3000  0.0737
 1218SOL    MW4 4640   1.895   1.585   0.782 -0.0053 -0.0977 -0.3811
 1219SOL     OW 4641   1.690   0.466   6.240  0.3528 -0.5379 -0.0989
 1219SOL    HW2 4642   1.768   0.489   6.190  1.2811 -1.6851  0.7618
 1219SOL    HW3 4643   1.720   0.456   6.330 -1.2874  1.4646  0.7654
 1219SOL    MW4 4644   1.704   0.467   6.245  0.0803 -0.2485 -0.1744
 1220SOL     OW 4645   6.322   6.005   3.405  0.3460  0.2574  0.4944
 1220SOL    HW2 4646   6.399   5.954   3.378  0.9914  1.8826 -0.9120
 1220SOL    HW3 4647   6.255   5.983   3.340 -0.0809 -0.4065  1.1455
 1220SOL    MW4 4648   6.324   5.996   3.392 -0.2567 -0.2104 -0.1339
 1221SOL     OW 4649   3.794   0.646   5.132  0.1637  0.1073  0.3475
 1221SOL    HW2 4650   3.705   0.663   5.163  0.3882  1.4400  0.3270
 1221SOL    HW3 4651   3.846   0.718   5.167  0.9294  0.2333 -0.9593
 1221SOL    MW4 4652   3.789   0.658   5.140 -0.1572  0.0296 -0.2181
 1222SOL     OW 4653   6.079   0.093   3.110 -0.2113  0.6459 -0.1799
 1222SOL    HW2 4654   6.006   0.055   3.062 -0.7413  1.1149  0.2387
 1222SOL    HW3 4655   6.157   0.063   3.064 -0.5077 -1.9996  0.8484
 1222SOL    MW4 4656   6.080   0.084   3.098 -0.6137  0.3511  0.0517
 1223SOL     OW 4657   1.767   2.886   3.561  0.0702 -0.2729  0.4978
 1223SOL    HW2 4658   1.824   2.959   3.536  1.0510 -0.7322  1.3230
 1223SOL    HW3 4659   1.726   2.859   3.479 -1.0447  1.7903  0.3184
 1223SOL    MW4 4660   1.769   2.892   3.547  0.6280  0.0124 -0.6606
 1224SOL     OW 4661   4.012   1.264   6.264  0.0569 -0.0114  0.0347
 1224SOL    HW2 4662   4.005   1.354   6.232 -0.6714  1.0858  2.9419
 1224SOL    HW3 4663   3.939   1.218   6.221  1.1562  0.3931 -2.4160
 1224SOL    MW4 4664   4.001   1.270   6.254 -0.3886 -0.3004  0.7997
 1225SOL     OW 4665   4.719   1.663   6.075  0.0001  0.0260  0.5587
 1225SOL    HW2 4666   4.711   1.568   6.061 -0.9754 -0.1218  1.9020
 1225SOL    HW3 4667   4.742   1.672   6.167  1.3857  1.0799  0.1449
 1225SOL    MW4 4668   4.721   1.652   6.085 -0.5467  0.3292  0.8068
 1226SOL     OW 4669   2.751   0.941   3.252  0.2848  0.1152  0.0148
 1226SOL    HW2 4670   2.792   0.870   3.203  0.6842  0.0161  0.4745
 1226SOL    HW3 4671   2.798   1.020   3.225 -1.0978  0.4450 -1.5655
 1226SOL    MW4 4672   2.762   0.942   3.242 -0.2707 -0.7059 -0.4027
 1227SOL     OW 4673   2.060   1.493   1.906  0.3934  0.2168  0.4711
 1227SOL    HW2 4674   2.147   1.466   1.876  0.7181  1.1949  0.4917
 1227SOL    HW3 4675   2.075   1.527   1.994  0.3447  2.1063 -0.1901
 1227SOL    MW4 4676   2.073   1.494   1.914  0.1814  0.1501 -0.3023
 1228SOL     OW 4677   2.867   6.137   0.300 -0.0305  0.5514  0.5972
 1228SOL    HW2 4678   2.776   6.109   0.293 -0.0585  0.7061  0.3225
 1228SOL    HW3 4679   2.876   6.168   0.390  0.1655 -0.9063  1.1053
 1228SOL    MW4 4680   2.856   6.137   0.311  0.0136  0.3224  0.4109
 1229SOL     OW 4681   2.332   5.916   0.421  0.3617  0.4615 -0.4611
 1229SOL    HW2 4682   2.240   5.888   0.416  0.5729 -0.1121 -1.7597
 1229SOL    HW3 4683   2.330   5.999   0.468 -0.7881  0.3097 -0.2100
 1229SOL    MW4 4684   2.319   5.923   0.426  0.2576 -0.3756  0.4908
 1230SOL     OW 4685   2.090   0.227   4.583  0.1841 -0.4452  0.1113
 1230SOL    HW2 4686   2.110   0.317   4.610 -0.2409 -0.4893  0.5882
 1230SOL    HW3 4687   2.167   0.199   4.534 -0.1368  0.5746 -1.0166
 1230SOL    MW4 4688   2.102   0.235   4.580 -0.1406  0.7341  0.9475
 1231SOL     OW 4689   4.982   0.082   6.401 -0.1377 -0.1137 -0.3305
 1231SOL    HW2 4690   5.028   0.137   6.464 -0.3075 -0.6604  0.2911
 1231SOL    HW3 4691   5.048   0.020   6.370 -0.4135 -0.8381  0.4908
 1231SOL    MW4 4692   4.996   0.081   6.405  0.8885  0.0010  0.1786
 1232SOL     OW 4693   2.372   1.508   0.723  0.1908  0.3939  0.2784
 1232SOL    HW2 4694   2.309   1.455   0.675 -0.9311  0.6218  1.4450
 1232SOL    HW3 4695   2.451   1.454   0.726  0.3051  0.3808 -1.7713
 1232SOL    MW4 4696   2.374   1.493   0.717  0.5315 -0.1392 -0.2222
 1233SOL     OW 4697   6.010   3.913   4.691 -0.2789 -0.8035 -0.4119
 1233SOL    HW2 4698   5.947   3.866   4.636  0.8709 -0.2605 -2.2969
 1233SOL    HW3 4699   5.958   3.975   4.741 -1.5711 -2.5367  0.4658
 1233SOL    MW4 4700   5.995   3.915   4.690  0.3962  0.4406  0.7758
 1234SOL     OW 4701   4.229   0.038   0.651  0.0100 -0.0381 -0.4197
 1234SOL    HW2 4702   4.291  -0.005   0.592 -0.6419 -4.0211  1.4739
 1234SOL    HW3 4703   4.144   0.023   0.610 -0.0466  2.9332 -1.5889
 1234SOL    MW4 4704   4.226   0.030   0.638 -0.0014 -0.0692 -0.4949
 1235SOL     OW 4705   1.894   4.281   1.022  0.2192  0.3841 -0.0889
 1235SOL    HW2 4706   1.960   4.218   0.994 -0.6178  0.0788 -1.4534
 1235SOL    HW3 4707   1.934   4.326   1.097  1.5151 -0.5530 -0.1885
 1235SOL    MW4 4708   1.908   4.279   1.028 -0.4796 -0.2765 -1.2475
 1236SOL     OW 4709   1.277   0.910   5.946 -0.0187  0.0405 -0.2056
 1236SOL    HW2 4710   1.210   0.959   5.897 -1.4651 -1.3630  0.2696
 1236SOL    HW3 4711   1.323   0.859   5.880  1.5459  1.9979 -0.7160
 1236SOL    MW4 4712   1.274   0.910   5.931 -0.5569 -0.1685  0.0157
 1237SOL     OW 4713   4.565   3.063   1.681 -0.1288  0.3954  0.3139
 1237SOL    HW2 4714   4.488   3.005   1.676 -0.8199  1.1333  1.7736
 1237SOL    HW3 4715   4.635   3.006   1.712 -0.2109 -0.1606 -0.4796
 1237SOL    MW4 4716   4.564   3.048   1.685 -0.0947 -0.1245  0.0082
 1238SOL     OW 4717   1.466   5.798   4.401 -0.4095  0.5699  0.4983
 1238SOL    HW2 4718   1.390   5.818   4.347  0.5095  2.6929 -0.1159
 1238SOL    HW3 4719   1.429   5.757   4.480 -2.0884  0.6616 -0.1956
 1238SOL    MW4 4720   1.451   5.795   4.405  0.3433 -0.5700  0.2946
 1239SOL     OW 4721   1.037   4.728   0.015 -0.5093 -0.2190  0.0152
 1239SOL    HW2 4722   0.985   4.799  -0.022  0.1810  0.3428  0.0937
 1239SOL    HW3 4723   1.114   4.723  -0.042 -0.7701 -1.2265 -0.2683
 1239SOL    MW4 4724   1.041   4.737   0.003 -0.2111  0.1053  0.0395
 1240SOL     OW 4725   3.953   2.225   2.861 -0.5183 -0.7296 -0.0349
 1240SOL    HW2 4726   3.956   2.321   2.852  2.1714 -0.7808 -0.6241
 1240SOL    HW3 4727   3.984   2.208   2.949 -0.1094 -1.0638 -0.2385
 1240SOL    MW4 4728   3.958   2.236   2.871 -0.0295 -0.4742  0.1901
 1241SOL     OW 4729   3.991   0.645   3.594 -0.5163 -0.2233  0.1734
 1241SOL    HW2 4730   4.038   0.619   3.673 -0.6912 -0.4500  0.2057
 1241SOL    HW3 4731   4.039   0.720   3.561 -1.2693  0.7966  1.2917
 1241SOL    MW4 4732   4.003   0.652   3.600 -0.0594  0.2449  0.1641
 1242SOL     OW 4733   4.466   2.468   3.613 -0.5163 -0.2509  0.2343
 1242SOL    HW2 4734   4.481   2.424   3.529  4.8303  2.0243 -0.4142
 1242SOL    HW3 4735   4.419   2.549   3.589 -1.5076 -0.8792 -0.0304
 1242SOL    MW4 4736   4.461   2.473   3.599  0.4772 -0.1594 -0.4480
 1243SOL     OW 4737   1.709   1.985   5.317  0.2823  0.2495 -0.2717
 1243SOL    HW2 4738   1.624   2.027   5.305  0.9989  1.6418 -0.5907
 1243SOL    HW3 4739   1.691   1.891   5.305 -1.2895  0.4684  0.1678
 1243SOL    MW4 4740   1.695   1.978   5.314  0.3312 -0.0909  0.1134
 1244SOL     OW 4741   5.763   3.146   1.090  0.0982 -0.4856 -0.4080
 1244SOL    HW2 4742   5.672   3.128   1.114 -0.0076 -0.3428 -0.6827
 1244SOL    HW3 4743   5.803   3.060   1.080  0.0978 -0.5454  0.0922
 1244SOL    MW4 4744   5.756   3.132   1.092  1.0118 -0.0116 -0.1877
 1245SOL     OW 4745   1.647   4.815   0.480  0.5392 -0.0344  0.3637
 1245SOL    HW2 4746   1.689   4.825   0.566 -2.4471  1.0943  1.8286
 1245SOL    HW3 4747   1.635   4.904   0.448  0.8024 -0.4053 -0.8289
 1245SOL    MW4 4748   1.651   4.828   0.487  0.1998 -0.0951  0.0033
 1246SOL     OW 4749   6.387   4.276   1.211 -0.5430  0.0592  0.0681
 1246SOL    HW2 4750   6.332   4.212   1.256 -1.6526  0.1700 -1.1096
 1246SOL    HW3 4751   6.462   4.225   1.181 -0.8287 -0.4373  0.1857
 1246SOL    MW4 4752   6.390   4.261   1.213 -0.1814 -0.0205  0.1877
 1247SOL     OW 4753   3.804   3.740   3.607  0.1142 -0.2919 -0.0916
 1247SOL    HW2 4754   3.831   3.664   3.659  0.7706  0.5253  0.8069
 1247SOL    HW3 4755   3.884   3.765   3.559  0.0671  0.1974  0.0853
 1247SOL    MW4 4756   3.818   3.733   3.607 -0.2520  0.1836 -0.7692
 1248SOL     OW 4757   1.918   1.362   2.596 -1.0768  0.2705  0.1391
 1248SOL    HW2 4758   1.823   1.378   2.589 -0.9951  0.0651 -3.9761
 1248SOL    HW3 4759   1.958   1.441   2.560  0.3819  0.2686  1.6400
 1248SOL    MW4 4760   1.910   1.375   2.591  0.3471  0.3010  0.3642
 1249SOL     OW 4761   1.933   4.553   3.912  0.7096  0.5315  0.0734
 1249SOL    HW2 4762   1.869   4.522   3.976 -0.1221  2.2961  0.1632
 1249SOL    HW3 4763   1.914   4.504   3.832  0.4147 -0.2181  0.5940
 1249SOL    MW4 4764   1.922   4.543   3.910 -0.3676 -0.3790  0.0964
 1250SOL     OW 4765   3.721   0.956   6.354  0.4145 -0.0646 -0.1127
 1250SOL    HW2 4766   3.749   0.877   6.401 -0.9075  0.1308  1.0796
 1250SOL    HW3 4767   3.684   0.924   6.272  0.1879 -0.6761  0.2186
 1250SOL    MW4 4768   3.720   0.942   6.349  0.3571 -0.0402  0.7295
 1251SOL     OW 4769   6.112   6.338   3.338  0.3013 -0.1926 -0.6031
 1251SOL    HW2 4770   6.099   6.412   3.279  1.3245 -0.2949 -0.9715
 1251SOL    HW3 4771   6.197   6.354   3.378  0.4332 -1.0646 -0.5257
 1251SOL    MW4 4772   6.121   6.350   3.335  0.0550  0.6002 -0.1051
 1252SOL     OW 4773   0.603   5.998   3.528  0.2652 -0.2276  0.4326
 1252SOL    HW2 4774   0.591   5.905   3.507  1.7766 -0.0574 -1.3544
 1252SOL    HW3 4775   0.697   6.007   3.542  0.0517  0.9442  1.2365
 1252SOL    MW4 4776   0.614   5.987   3.527  0.4747 -0.1543 -0.1567
 1253SOL     OW 4777   4.008   2.571   6.158 -0.1656 -0.0782  0.3402
 1253SOL    HW2 4778   4.089   2.559   6.109 -0.5415 -0.2158 -0.2552
 1253SOL    HW3 4779   3.990   2.484   6.195 -0.5450 -0.2886 -0.3230
 1253SOL    MW4 4780   4.016   2.558   6.157  0.0120 -0.6321 -0.5237
 1254SOL     OW 4781   3.681   3.908   3.085 -0.3742 -0.1359 -0.3920
 1254SOL    HW2 4782   3.613   3.859   3.038 -0.1028 -1.1394  0.2269
 1254SOL    HW3 4783   3.633   3.973   3.136 -1.0376 -1.7672  1.1654
 1254SOL    MW4 4784   3.666   3.910   3.085 -0.2105 -0.7148  0.1654
 1255SOL     OW 4785   2.753   0.392   5.176 -0.4359 -0.1029 -0.4998
 1255SOL    HW2 4786   2.826   0.335   5.202 -1.0462 -1.3389 -1.4305
 1255SOL    HW3 4787   2.690   0.334   5.133 -0.9706  1.2997 -1.7217
 1255SOL    MW4 4788   2.755   0.377   5.174 -0.5248  0.4217 -0.2249
 1256SOL     OW 4789   2.023   2.750   5.624  0.0627  0.0155  0.2685
 1256SOL    HW2 4790   2.041   2.822   5.563 -2.6580 -0.2832 -1.0651
 1256SOL    HW3 4791   1.944   2.778   5.670 -0.4129 -1.6390  0.5030
 1256SOL    MW4 4792   2.015   2.764   5.622 -0.1799  0.0830 -0.7687
 1257SOL     OW 4793   2.153   5.485   2.500  0.3106  0.0075 -0.3689
 1257SOL    HW2 4794   2.201   5.403   2.507 -0.0464 -0.1663  0.0534
 1257SOL    HW3 4795   2.102   5.476   2.419  1.7465  0.6041 -1.3847
 1257SOL    MW4 4796   2.152   5.473   2.490  0.0593  0.0544  0.0876
 1258SOL     OW 4797   3.112   3.449   6.044  0.6004  0.1368 -0.2603
 1258SOL    HW2 4798   3.191   3.503   6.045  0.8239 -0.1750 -0.6385
 1258SOL    HW3 4799   3.123   3.392   5.968  0.0626  0.0124 -0.2489
 1258SOL    MW4 4800   3.124   3.449   6.034  0.2551  0.0140  0.2727
 1259SOL     OW 4801   1.023   5.384   1.067 -0.1685 -0.0667  0.7463
 1259SOL    HW2 4802   1.000   5.292   1.074 -0.1613 -0.2388 -0.9894
 1259SOL    HW3 4803   0.939   5.430   1.072 -0.3041 -0.2675  0.4006
 1259SOL    MW4 4804   1.009   5.378   1.068  0.0315  0.8296  0.0632
 1260SOL     OW 4805   0.660   5.175   6.393  0.5556 -0.1059 -0.0324
 1260SOL    HW2 4806   0.568   5.160   6.371  0.3557 -0.4795  0.9866
 1260SOL    HW3 4807   0.661   5.263   6.431  0.2048 -0.9211  1.9933
 1260SOL    MW4 4808   0.648   5.185   6.395 -0.4846  0.1317  0.9008
 1261SOL     OW 4809   2.531   4.099   1.652  0.0935 -0.2957  0.5699
 1261SOL    HW2 4810   2.557   4.133   1.567  0.7575 -1.8176  0.1272
 1261SOL    HW3 4811   2.471   4.165   1.687 -0.0169  0.4675 -0.9681
 1261SOL    MW4 4812   2.527   4.112   1.646  0.3762  0.5526 -0.4017
 1262SOL     OW 4813   6.106   1.066   6.176  0.6063  0.2126 -0.7155
 1262SOL    HW2 4814   6.051   1.054   6.099 -0.4959 -0.1889  0.1218
 1262SOL    HW3 4815   6.048   1.102   6.243  1.1016 -1.0943  0.4715
 1262SOL    MW4 4816   6.091   1.069   6.174 -0.0932 -0.0105  0.5889
 1263SOL     OW 4817   2.167   5.587   5.571  0.2456 -0.1939  0.9486
 1263SOL    HW2 4818   2.115   5.515   5.606 -1.7786  1.0948  0.7703
 1263SOL    HW3 4819   2.127   5.666   5.608  1.1004  0.9377 -0.4205
 1263SOL    MW4 4820   2.155   5.588   5.580  0.1178 -0.1764  0.3892
 1264SOL     OW 4821   1.427   5.866   1.218 -0.6436  0.1051 -0.0648
 1264SOL    HW2 4822   1.431   5.910   1.303  0.5507  1.7190 -0.9160
 1264SOL    HW3 4823   1.339   5.828   1.215 -1.5965  2.1156  0.8602
 1264SOL    MW4 4824   1.416   5.867   1.229  0.1634  0.3478  0.7241
 1265SOL     OW 4825   5.069   2.887   5.482  0.5031  0.1598 -0.1591
 1265SOL    HW2 4826   5.032   2.800   5.470  0.1449 -0.0617  2.1088
 1265SOL    HW3 4827   5.077   2.897   5.577 -0.8211  3.1306 -0.2393
 1265SOL    MW4 4828   5.065   2.877   5.493  0.3583 -0.5464 -0.1375
 1266SOL     OW 4829   1.266   4.281   4.607  0.1744 -0.8387 -0.3477
 1266SOL    HW2 4830   1.302   4.366   4.631  0.2408 -1.1240  0.5967
 1266SOL    HW3 4831   1.314   4.256   4.528 -1.0068  0.7261 -1.6228
 1266SOL    MW4 4832   1.277   4.289   4.600  0.5816 -0.1507  0.3293
 1267SOL     OW 4833   1.874   1.331   0.646  0.0208  0.5598 -0.1406
 1267SOL    HW2 4834   1.886   1.381   0.726  1.0570 -0.3339  0.2828
 1267SOL    HW3 4835   1.879   1.240   0.673  0.0727  0.2352 -1.1805
 1267SOL    MW4 4836   1.876   1.326   0.660 -0.1233 -0.5923  0.1703
 1268SOL     OW 4837   4.509   6.337   6.403 -0.6302 -0.1498  0.1358
 1268SOL    HW2 4838   4.596   6.374   6.385 -1.3000 -0.2488 -5.0834
 1268SOL    HW3 4839   4.526   6.257   6.451  1.9228  0.9659  1.2738
 1268SOL    MW4 4840   4.523   6.331   6.407  0.2445 -0.0603  0.4030
 1269SOL     OW 4841   5.967   0.319   1.492 -0.1891 -0.4476 -0.6390
 1269SOL    HW2 4842   5.947   0.331   1.399  0.6043  0.0043 -0.7648
 1269SOL    HW3 4843   5.884   0.291   1.532 -1.1551  1.6633 -1.0529
 1269SOL    MW4 4844   5.953   0.317   1.485 -0.5321 -0.0459  0.7212
 1270SOL     OW 4845   3.651   1.601   4.566  0.3805  0.2981  0.0731
 1270SOL    HW2 4846   3.595   1.678   4.576 -0.7063 -0.6787  2.2772
 1270SOL    HW3 4847   3.589   1.528   4.554  1.2597 -0.5631  0.6393
 1270SOL    MW4 4848   3.635   1.601   4.566  0.3413 -0.0815  0.4488
 1271SOL     OW 4849   2.491   4.085   3.163 -0.2037  0.0500 -0.1579
 1271SOL    HW2 4850   2.426   4.121   3.103 -1.4966 -1.1165  0.5180
 1271SOL    HW3 4851   2.575   4.100   3.118 -0.8155  2.3237 -0.6617
 1271SOL    MW4 4852   2.494   4.092   3.149  0.4700 -0.0367 -0.4091
 1272SOL     OW 4853   6.159   3.956   2.313 -0.6847 -0.1699 -0.9441
 1272SOL    HW2 4854   6.250   3.987   2.306 -0.3577 -0.8942 -0.0010
 1272SOL    HW3 4855   6.160   3.870   2.272 -0.8003 -0.4651 -0.3273
 1272SOL    MW4 4856   6.172   3.949   2.307 -0.4803 -0.1823 -0.0797
 1273SOL     OW 4857   1.891   3.652   4.142 -0.2391  0.0380 -0.0519
 1273SOL    HW2 4858   1.960   3.603   4.097  0.4898 -0.2868  1.3770
 1273SOL    HW3 4859   1.829   3.585   4.170 -0.6907  0.2396 -0.5535
 1273SOL    MW4 4860   1.892   3.636   4.139  0.5119  0.4580 -0.2136
 1274SOL     OW 4861   0.009   5.983   2.351  0.0741  0.4330  0.2004
 1274SOL    HW2 4862  -0.023   5.970   2.261  0.7115  1.3836 -0.1751
 1274SOL    HW3 4863   0.008   5.895   2.389 -0.4922  0.0568 -0.6333
 1274SOL    MW4 4864   0.005   5.969   2.344  0.2932  0.0907 -0.0011
 1275SOL     OW 4865   4.310   6.102   0.840 -0.0506 -0.0030 -0.7559
 1275SOL    HW2 4866   4.316   6.032   0.905 -4.0086 -0.6512 -0.7988
 1275SOL    HW3 4867   4.337   6.061   0.758 -0.7282 -1.0528 -0.4817
 1275SOL    MW4 4868   4.314   6.087   0.838  0.4008  0.0828 -0.1094
 1276SOL     OW 4869   3.366   2.102   5.581 -0.1394  0.7952  0.3390
 1276SOL    HW2 4870   3.366   2.064   5.494 -0.9752 -1.1331  1.1198
 1276SOL    HW3 4871   3.277   2.136   5.593  0.4851  2.7998 -0.2015
 1276SOL    MW4 4872   3.354   2.102   5.571 -0.5061  0.0830  0.1248
 1277SOL     OW 4873   2.523   1.195   5.564 -0.0988 -0.2662  0.0343
 1277SOL    HW2 4874   2.518   1.101   5.583  0.9672 -0.1920  0.7560
 1277SOL    HW3 4875   2.533   1.236   5.650 -2.6121  0.7051 -0.0675
 1277SOL    MW4 4876   2.524   1.188   5.578  0.2090 -0.4748 -0.1100
 1278SOL     OW 4877   6.417   1.728   5.317 -0.3021  0.4866 -0.5807
 1278SOL    HW2 4878   6.406   1.732   5.412  1.4951  0.5459 -0.3412
 1278SOL    HW3 4879   6.469   1.805   5.296  2.9280 -1.5853 -0.9659
 1278SOL    MW4 4880   6.423   1.739   5.327  0.7825 -0.5090  0.5101
 1279SOL     OW 4881   6.319   1.397   4.417  0.1218 -0.0069  0.4890
 1279SOL    HW2 4882   6.278   1.337   4.479  0.1160 -0.0203  0.4724
 1279SOL    HW3 4883   6.351   1.341   4.347  0.2952 -0.0099  0.5711
 1279SOL    MW4 4884   6.318   1.382   4.416 -0.4812  0.0575 -0.0221
 1280SOL     OW 4885   2.652   4.427   1.786 -0.6293  0.2361 -0.0841
 1280SOL    HW2 4886   2.566   4.391   1.764 -0.5779  0.7423 -1.1521
 1280SOL    HW3 4887   2.634   4.494   1.851 -0.9719 -0.0867  0.1613
 1280SOL    MW4 4888   2.638   4.431   1.792 -0.0554 -0.1217  0.6654
 1281SOL     OW 4889   6.170   0.654   4.576  0.0278  0.4913  0.4036
 1281SOL    HW2 4890   6.206   0.679   4.491 -0.3865  0.9966  0.3716
 1281SOL    HW3 4891   6.193   0.561   4.586 -0.7784  0.1545 -0.7029
 1281SOL    MW4 4892   6.178   0.645   4.566 -0.1560 -0.3362  0.3010
 1282SOL     OW 4893   5.283   0.418   4.638  0.2620 -0.8161 -0.9166
 1282SOL    HW2 4894   5.208   0.383   4.687 -0.1490  1.8319  0.5126
 1282SOL    HW3 4895   5.244   0.467   4.566  0.8281 -2.8308 -2.7149
 1282SOL    MW4 4896   5.268   0.420   4.635  0.3446 -0.2859 -0.2393
 1283SOL     OW 4897   5.253   3.050   1.931 -0.1949  0.2059 -0.2166
 1283SOL    HW2 4898   5.258   2.954   1.933  1.2502  0.2513  2.1569
 1283SOL    HW3 4899   5.328   3.076   1.877 -0.9523  0.0266 -1.3908
 1283SOL    MW4 4900   5.264   3.040   1.924 -0.0753  0.0524  0.2348
 1284SOL     OW 4901   6.102   5.610   1.513 -0.4921 -0.3458  0.2457
 1284SOL    HW2 4902   6.098   5.581   1.421 -1.9351  0.6470 -0.0438
 1284SOL    HW3 4903   6.029   5.565   1.555 -2.2030  2.0194 -0.0093
 1284SOL    MW4 4904   6.092   5.600   1.506  0.4030  0.4750  0.0415
 1285SOL     OW 4905   4.203   5.430   1.431 -0.6307  0.2145  0.2390
 1285SOL    HW2 4906   4.192   5.354   1.489 -1.4836 -0.3237 -0.6023
 1285SOL    HW3 4907   4.287   5.468   1.457 -0.0578 -1.1688  0.5037
 1285SOL    MW4 4908   4.213   5.425   1.442  0.4939 -0.2869  0.1762
 1286SOL     OW 4909   6.417   1.083   4.929  0.0597  0.7183  0.3069
 1286SOL    HW2 4910   6.369   1.112   4.851 -1.2587  0.0498  0.8405
 1286SOL    HW3 4911   6.505   1.063   4.897 -0.6238 -0.1439 -1.1447
 1286SOL    MW4 4912   6.422   1.084   4.914  0.0216 -0.0171 -0.0267
 1287SOL     OW 4913   3.425   4.325   4.067 -0.1487 -0.0072 -0.3873
 1287SOL    HW2 4914   3.520   4.319   4.075 -0.3341 -2.5416  0.6369
 1287SOL    HW3 4915   3.411   4.358   3.978  1.6679 -1.2521 -1.1921
 1287SOL    MW4 4916   3.435   4.329   4.056  0.0878 -0.3488 -0.0515
 1288SOL     OW 4917   4.134   0.432   4.368  0.6545 -0.1781  0.2507
 1288SOL    HW2 4918   4.193   0.357   4.380  0.8152  0.1547  1.6200
 1288SOL    HW3 4919   4.116   0.464   4.456 -0.7817  0.3586 -0.1938
 1288SOL    MW4 4920   4.139   0.426   4.381 -0.1135 -0.1484  0.1107
 1289SOL     OW 4921   3.737   6.031   3.587 -0.2798  0.4637 -0.1437
 1289SOL    HW2 4922   3.819   6.056   3.545 -0.0988  0.1697  0.0275
 1289SOL    HW3 4923   3.692   6.114   3.604 -0.8010  0.5475 -1.7802
 1289SOL    MW4 4924   3.742   6.045   3.584  0.7133  0.1283 -0.2035
 1290SOL     OW 4925   2.574   1.829   0.185 -0.1332  0.5704  0.8292
 1290SOL    HW2 4926   2.656   1.837   0.136 -0.5458  0.9553  0.1832
 1290SOL    HW3 4927   2.522   1.766   0.135  0.3321 -0.8528  2.0501
 1290SOL    MW4 4928   2.578   1.822   0.172  0.2418 -0.1560  0.4293
 1291SOL     OW 4929   5.603   0.656   0.209  0.5623  0.0885 -0.3109
 1291SOL    HW2 4930   5.558   0.688   0.132  0.1639 -1.8498 -0.9381
 1291SOL    HW3 4931   5.620   0.564   0.191  1.2889 -0.1959  1.5362
 1291SOL    MW4 4932   5.599   0.648   0.197 -0.4478 -0.3189 -0.7528
 1292SOL     OW 4933   2.982   3.176   4.360  0.5526 -0.3798  0.4286
 1292SOL    HW2 4934   2.936   3.104   4.404  1.3454 -1.7239 -0.8655
 1292SOL    HW3 4935   3.019   3.136   4.281  0.3880  1.6316 -0.7172
 1292SOL    MW4 4936   2.981   3.161   4.356 -0.5589  0.2340 -0.2094
 1293SOL     OW 4937   3.141   2.161   6.129  0.2538 -0.2151  0.1287
 1293SOL    HW2 4938   3.231   2.131   6.117  0.0770 -0.9545  0.6062
 1293SOL    HW3 4939   3.135   2.184   6.221 -0.6668 -2.3953  0.6824
 1293SOL    MW4 4940   3.152   2.160   6.139 -0.1851  0.0294 -0.0394
 1294SOL     OW 4941   2.415   4.898   5.367  0.5757 -0.1710 -0.0220
 1294SOL    HW2 4942   2.506   4.925   5.353  0.9896 -1.5387 -0.1560
 1294SOL    HW3 4943   2.363   4.962   5.318  1.6407 -0.9200 -2.2955
 1294SOL    MW4 4944   2.420   4.910   5.358 -0.0649 -0.2634 -0.0034
 1295SOL     OW 4945   1.429   2.853   5.200  0.2761 -0.8034 -0.3612
 1295SOL    HW2 4946   1.467   2.861   5.287  0.4453  1.2751 -0.5757
 1295SOL    HW3 4947   1.497   2.812   5.147  0.7182 -0.7143  0.1335
 1295SOL    MW4 4948   1.443   2.848   5.205  0.5643  0.0961  0.4488
 1296SOL     OW 4949   3.182   3.061   5.725 -0.0275  0.2511 -0.6791
 1296SOL    HW2 4950   3.224   2.982   5.759  0.1252  0.6072 -0.0388
 1296SOL    HW3 4951   3.254   3.123   5.712 -0.2259  0.5005 -0.5899
 1296SOL    MW4 4952   3.197   3.059   5.728  0.0747 -0.1635  0.2239
 1297SOL     OW 4953   0.334   0.904   2.323 -0.0914  0.0808 -0.1219
 1297SOL    HW2 4954   0.324   0.843   2.250 -0.6703  0.4056 -0.3151
 1297SOL    HW3 4955   0.293   0.860   2.397  1.7314 -0.8811  0.3945
 1297SOL    MW4 4956   0.328   0.890   2.323 -0.0276 -0.0124 -0.6451
 1298SOL     OW 4957   1.875   5.355   2.707  0.2911 -0.7294  0.0532
 1298SOL    HW2 4958   1.790   5.341   2.748 -1.4848  2.0669 -2.3308
 1298SOL    HW3 4959   1.900   5.444   2.734  0.8614 -0.2885 -1.8012
 1298SOL    MW4 4960   1.867   5.365   2.716 -0.5472  0.5937 -0.2832
 1299SOL     OW 4961   1.054   5.687   6.321 -0.2901 -0.6742  0.4881
 1299SOL    HW2 4962   1.149   5.695   6.310 -0.1684 -0.6538  1.5219
 1299SOL    HW3 4963   1.025   5.773   6.350 -0.7310 -0.4863 -0.4723
 1299SOL    MW4 4964   1.063   5.699   6.323  0.0406  0.2855  0.4373
 1300SOL     OW 4965   2.692   1.948   3.095 -0.0694 -0.5431  0.1835
 1300SOL    HW2 4966   2.627   2.018   3.085  0.4611  0.1325  1.3096
 1300SOL    HW3 4967   2.751   1.959   3.020  1.5304  1.8945  1.6615
 1300SOL    MW4 4968   2.691   1.958   3.084  0.1734 -0.0297  0.6664
 1301SOL     OW 4969   2.474   5.055   3.454 -0.3800  0.5794 -0.0131
 1301SOL    HW2 4970   2.440   5.145   3.451  0.5251  0.9138 -0.7947
 1301SOL    HW3 4971   2.538   5.057   3.525 -0.3581  0.5557 -0.0325
 1301SOL    MW4 4972   2.478   5.067   3.463  0.0085 -0.1199 -0.3275
 1302SOL     OW 4973   4.658   6.141   4.639 -0.4333  0.7119  0.4009
 1302SOL    HW2 4974   4.612   6.080   4.581  1.1387 -0.0532 -0.0856
 1302SOL    HW3 4975   4.750   6.135   4.613 -0.3886  4.9849 -1.2817
 1302SOL    MW4 4976   4.664   6.133   4.628  0.2068  0.1830  0.9213
 1303SOL     OW 4977   5.182   1.152   1.989  0.3414  0.3810  0.3010
 1303SOL    HW2 4978   5.183   1.085   1.920  0.9309  0.2930  0.3973
 1303SOL    HW3 4979   5.221   1.229   1.948  2.3701 -0.1930  1.0595
 1303SOL    MW4 4980   5.187   1.153   1.974 -0.7081 -0.3794 -0.3341
 1304SOL     OW 4981   0.920   0.883   2.983  0.1866  0.2158  0.0898
 1304SOL    HW2 4982   0.848   0.943   3.002  1.3524  1.0808  2.1482
 1304SOL    HW3 4983   0.880   0.812   2.932 -1.7916  1.3645 -0.0485
 1304SOL    MW4 4984   0.905   0.881   2.979  0.3931 -0.3051 -0.6127
 1305SOL     OW 4985   6.412   5.634   0.524  0.5337 -0.3486 -0.1820
 1305SOL    HW2 4986   6.494   5.644   0.477  0.1016  0.1229 -0.8505
 1305SOL    HW3 4987   6.424   5.683   0.605  0.5152  0.6833 -0.7916
 1305SOL    MW4 4988   6.424   5.641   0.528  0.6102 -0.7790  0.4908
 1306SOL     OW 4989   2.502   3.261   5.516 -0.1304 -0.0264 -0.8656
 1306SOL    HW2 4990   2.443   3.202   5.562 -2.2863  2.6377  0.0512
 1306SOL    HW3 4991   2.589   3.236   5.547 -0.9969 -2.2417 -0.0291
 1306SOL    MW4 4992   2.506   3.250   5.526 -0.5982  0.4628  0.0122
 1307SOL     OW 4993   3.479   2.916   5.047  0.0346  0.2252  0.6172
 1307SOL    HW2 4994   3.487   2.823   5.067  0.0612  0.2864  0.8909
 1307SOL    HW3 4995   3.479   2.920   4.951  0.0375 -0.0551  0.6056
 1307SOL    MW4 4996   3.480   2.904   5.037 -0.8798  0.0025  0.1227
 1308SOL     OW 4997   2.093   3.137   2.487  0.3668  0.6225  0.0218
 1308SOL    HW2 4998   2.028   3.088   2.537  0.2329  1.7984  1.0550
 1308SOL    HW3 4999   2.129   3.074   2.425 -1.7525 -0.0619 -0.5888
 1308SOL    MW4 5000   2.089   3.123   2.485 -0.2051 -0.3115  0.0773
 1309SOL     OW 5001   5.993   5.955   0.691 -0.2964  0.2269 -0.5885
 1309SOL    HW2 5002   5.921   5.987   0.746  1.6556 -1.0932  3.1308
 1309SOL    HW3 5003   6.008   6.025   0.628 -1.9630  2.5150  1.3644
 1309SOL    MW4 5004   5.985   5.969   0.690 -0.3595 -0.0746 -0.1826
 1310SOL     OW 5005   1.677   3.974   3.382  0.3491 -0.7260 -0.1051
 1310SOL    HW2 5006   1.641   3.998   3.468  0.2147 -1.6981  0.1182
 1310SOL    HW3 5007   1.609   4.000   3.320  0.6594  0.4603  0.0189
 1310SOL    MW4 5008   1.663   3.981   3.385 -0.5272  0.5981  0.9923
 1311SOL     OW 5009   3.247   3.296   2.532  0.6908 -0.7089  0.0211
 1311SOL    HW2 5010   3.187   3.262   2.599 -0.3910 -0.5598 -0.8446
 1311SOL    HW3 5011   3.190   3.340   2.469  1.8420  0.5187 -0.1915
 1311SOL    MW4 5012   3.231   3.297   2.533 -0.1619  0.2487 -0.1884
 1312SOL     OW 5013   5.261   4.972   4.682 -0.1941  0.4347  0.3104
 1312SOL    HW2 5014   5.193   5.021   4.728 -2.0377 -1.1512 -0.5471
 1312SOL    HW3 5015   5.258   4.885   4.721 -0.0679 -0.2222 -1.0897
 1312SOL    MW4 5016   5.251   4.967   4.693  0.9072  0.7152 -0.5101
 1313SOL     OW 5017   5.858   2.080   1.399 -0.2551 -0.5389  0.1639
 1313SOL    HW2 5018   5.763   2.094   1.407 -0.1074  0.4271  0.4495
 1313SOL    HW3 5019   5.884   2.042   1.482 -0.2945 -0.1266  0.3713
 1313SOL    MW4 5020   5.849   2.077   1.411  0.4027  0.0647  0.2697
 1314SOL     OW 5021   4.101   0.172   3.054 -0.0690  0.2209 -0.1875
 1314SOL    HW2 5022   4.091   0.097   2.996 -1.4333  0.6404 -0.5376
 1314SOL    HW3 5023   4.196   0.184   3.062  0.1538 -0.3524 -1.6686
 1314SOL    MW4 5024   4.112   0.164   3.048 -0.3217  0.4284 -0.0535
 1315SOL     OW 5025   5.043   3.918   0.798 -0.3657  0.4336 -0.2013
 1315SOL    HW2 5026   5.131   3.942   0.827 -0.6817 -1.6209  2.9464
 1315SOL    HW3 5027   4.989   3.995   0.816  0.0948  0.3403  1.7773
 1315SOL    MW4 5028   5.048   3.931   0.804  0.0098 -0.0257  0.1088
 1316SOL     OW 5029   0.343   1.599   3.969  0.7316  0.0916 -0.2484
 1316SOL    HW2 5030   0.387   1.649   3.900  0.4176  0.2999 -0.2996
 1316SOL    HW3 5031   0.404   1.529   3.991  0.7922 -0.0274 -0.7990
 1316SOL    MW4 5032   0.357   1.597   3.963  0.2015 -0.9049  0.1203
 1317SOL     OW 5033   0.993   3.463   1.804 -0.0621 -0.0276  0.4021
 1317SOL    HW2 5034   0.936   3.515   1.748 -0.8450 -1.6767 -0.4071
 1317SOL    HW3 5035   1.081   3.475   1.768 -0.2089  0.8014  0.3127
 1317SOL    MW4 5036   0.997   3.472   1.792 -0.5798 -0.6338  0.3732
 1318SOL     OW 5037   2.850   5.175   2.086  0.1008  0.0292 -0.0544
 1318SOL    HW2 5038   2.845   5.259   2.041  0.8993  0.4763  0.6715
 1318SOL    HW3 5039   2.775   5.174   2.145  0.1322  0.2721 -0.0087
 1318SOL    MW4 5040   2.840   5.186   2.088  0.3641 -0.1328 -0.8058
 1319SOL     OW 5041   4.735   3.337   1.163 -0.8503  0.1521  0.3820
 1319SOL    HW2 5042   4.818   3.366   1.125 -1.4192  1.4189  0.0459
 1319SOL    HW3 5043   4.704   3.269   1.103  0.7237 -1.5987  1.4267
 1319SOL    MW4 5044   4.742   3.332   1.150  0.1836 -0.0017 -0.0376
 1320SOL     OW 5045   3.671   0.046   3.139 -0.4400  0.0470  0.0671
 1320SOL    HW2 5046   3.689  -0.048   3.144 -0.1155  0.0854 -0.3911
 1320SOL    HW3 5047   3.579   0.053   3.167 -0.4815 -0.4095  0.0628
 1320SOL    MW4 5048   3.661   0.034   3.144  0.0516 -0.4414  0.3779
 1321SOL     OW 5049   4.419   6.100   6.169 -0.3057 -0.1355  0.2201
 1321SOL    HW2 5050   4.386   6.026   6.219 -1.0463 -0.3197 -0.5266
 1321SOL    HW3 5051   4.417   6.173   6.231 -0.6199 -0.4952  0.6425
 1321SOL    MW4 5052   4.415   6.100   6.184  0.5858  0.5701 -0.1130
 1322SOL     OW 5053   5.573   0.380   2.921 -0.0732  0.1289  0.2351
 1322SOL    HW2 5054   5.520   0.338   2.989  1.7564 -2.5226  0.2152
 1322SOL    HW3 5055   5.519   0.376   2.842 -1.4639  1.4743  1.0614
 1322SOL    MW4 5056   5.559   0.374   2.920 -0.0660  0.0539 -0.3083
 1323SOL     OW 5057   1.258   1.289   6.265  0.4337  0.3813  0.1439
 1323SOL    HW2 5058   1.317   1.214   6.266 -0.4641 -0.3440  1.3873
 1323SOL    HW3 5059   1.175   1.255   6.297  0.6385  2.4155  3.3372
 1323SOL    MW4 5060   1.255   1.275   6.269  0.0369  0.2230 -0.0757
 1324SOL     OW 5061   2.046   2.335   3.652 -0.2629 -0.2260 -0.0313
 1324SOL    HW2 5062   2.131   2.301   3.626  0.4056  1.9073 -0.8371
 1324SOL    HW3 5063   1.995   2.336   3.570  0.1935  1.8672 -0.3472
 1324SOL    MW4 5064   2.050   2.331   3.637  0.5990  0.7540  0.5352
 1325SOL     OW 5065   3.272   2.220   3.328  0.1620 -0.1905 -0.0012
 1325SOL    HW2 5066   3.264   2.135   3.285 -1.3860 -0.0612 -0.0269
 1325SOL    HW3 5067   3.266   2.283   3.256  1.2041 -0.0375  0.0287
 1325SOL    MW4 5068   3.270   2.217   3.313  0.4398 -0.2085 -0.1168
 1326SOL     OW 5069   4.060   4.941   2.566  0.2476  0.2489 -0.4489
 1326SOL    HW2 5070   4.090   4.970   2.480 -1.4545 -1.6309 -1.7678
 1326SOL    HW3 5071   4.022   5.019   2.606  1.2413  1.2011 -1.2982
 1326SOL    MW4 5072   4.059   4.955   2.560 -0.4132 -0.3327  0.1719
 1327SOL     OW 5073   1.077   4.867   5.815  0.2227 -0.4865 -0.2618
 1327SOL    HW2 5074   1.136   4.796   5.790 -0.6115 -1.4385  0.3241
 1327SOL    HW3 5075   1.023   4.882   5.738 -0.7759 -1.7631  0.1458
 1327SOL    MW4 5076   1.077   4.859   5.802 -0.0872 -0.1475 -0.2050
 1328SOL     OW 5077   3.592   3.524   0.878 -0.2490  0.5722 -0.0112
 1328SOL    HW2 5078   3.605   3.613   0.911 -0.4866  0.8485 -0.6493
 1328SOL    HW3 5079   3.577   3.471   0.957  1.7882  0.7424  0.5403
 1328SOL    MW4 5080   3.592   3.529   0.893  0.3597  0.0714  0.2966
 1329SOL     OW 5081   5.110   1.935   2.276 -0.2463  0.3382 -0.5789
 1329SOL    HW2 5082   5.077   1.992   2.345  0.4861 -0.8537  0.8326
 1329SOL    HW3 5083   5.033   1.891   2.241 -0.8173  2.1741 -1.7036
 1329SOL    MW4 5084   5.096   1.936   2.281 -0.2753  0.0184  0.3143
 1330SOL     OW 5085   2.164   4.253   1.591 -0.2790  0.0738  0.4314
 1330SOL    HW2 5086   2.122   4.339   1.585  1.2214  0.7557 -1.4867
 1330SOL    HW3 5087   2.245   4.269   1.640  0.5959  0.0580 -0.9498
 1330SOL    MW4 5088   2.169   4.266   1.597  0.3881 -0.6096 -0.9000
 1331SOL     OW 5089   3.408   4.375   3.751  0.0165 -0.4820 -0.1103
 1331SOL    HW2 5090   3.344   4.444   3.740  0.1705 -0.2695  0.3236
 1331SOL    HW3 5091   3.372   4.300   3.702 -1.0132 -0.6725  0.9191
 1331SOL    MW4 5092   3.395   4.374   3.743  0.1720 -0.1186 -0.2656
 1332SOL     OW 5093   3.836   3.340   1.085  0.2006  0.2646 -0.2560
 1332SOL    HW2 5094   3.857   3.277   1.154  0.9131  0.4328 -0.3100
 1332SOL    HW3 5095   3.742   3.331   1.072  0.4627 -1.7600 -1.1955
 1332SOL    MW4 5096   3.826   3.330   1.092 -0.7563  0.4053 -0.0124
 1333SOL     OW 5097   3.173   5.142   1.384  0.6993 -0.2611  0.0545
 1333SOL    HW2 5098   3.260   5.159   1.418  0.3088  1.9142  0.1268
 1333SOL    HW3 5099   3.114   5.174   1.452 -0.0985  1.8766 -1.5309
 1333SOL    MW4 5100   3.176   5.148   1.398  0.8071 -0.0926  0.3532
 1334SOL     OW 5101   4.863   2.115   1.044  0.3878  0.3106  0.1054
 1334SOL    HW2 5102   4.837   2.053   1.113  0.4337  2.0917  1.8242
 1334SOL    HW3 5103   4.958   2.117   1.048  0.4724 -0.6462 -1.0393
 1334SOL    MW4 5104   4.872   2.107   1.054  0.4818 -0.1210  0.4578
 1335SOL     OW 5105   2.093   4.477   3.453 -0.3685  0.1257 -0.1399
 1335SOL    HW2 5106   2.171   4.531   3.440 -0.2236  0.0482  0.3839
 1335SOL    HW3 5107   2.122   4.409   3.514 -0.7565 -0.0988 -0.2080
 1335SOL    MW4 5108   2.107   4.475   3.459  0.0772  0.1432  0.0127
 1336SOL     OW 5109   5.597   0.825   4.466 -0.0386  0.1598  0.1518
 1336SOL    HW2 5110   5.600   0.793   4.556  0.2577  1.2655  0.5449
 1336SOL    HW3 5111   5.563   0.914   4.472  2.6301  1.3438 -0.4837
 1336SOL    MW4 5112   5.593   0.833   4.478  0.6924 -0.4666  0.0081
 1337SOL     OW 5113   1.365   2.245   5.935 -0.2474  0.1291  0.3833
 1337SOL    HW2 5114   1.373   2.339   5.950 -0.8682  0.3666 -0.6959
 1337SOL    HW3 5115   1.310   2.214   6.007 -2.0767  1.0161 -0.5849
 1337SOL    MW4 5116   1.359   2.253   5.947 -0.0121  0.2690 -0.1230
 1338SOL     OW 5117   1.705   5.915   5.713  0.6693 -0.1288 -0.3869
 1338SOL    HW2 5118   1.775   5.852   5.731  0.5495 -0.2910 -0.4924
 1338SOL    HW3 5119   1.626   5.874   5.748  0.5650 -0.1049 -0.5909
 1338SOL    MW4 5120   1.704   5.901   5.720 -0.1801 -0.0766 -0.3346
 1339SOL     OW 5121   4.020   0.656   0.701 -0.1337  0.2236  0.0588
 1339SOL    HW2 5122   4.009   0.718   0.629  0.5302  0.0681 -0.1900
 1339SOL    HW3 5123   4.088   0.695   0.756 -0.7996  0.4545  0.7383
 1339SOL    MW4 5124   4.028   0.669   0.699  0.1941  0.3494 -0.5191
 1340SOL     OW 5125   1.222   3.774   2.106 -0.1294  0.3603 -0.0233
 1340SOL    HW2 5126   1.131   3.745   2.102 -0.8554  2.3708  0.8442
 1340SOL    HW3 5127   1.223   3.859   2.063  1.5228  0.0360 -0.7280
 1340SOL    MW4 5128   1.210   3.781   2.100 -0.2133  0.7748  0.2854
 1341SOL     OW 5129   0.503   3.325   0.585  0.2159  0.1733  0.2613
 1341SOL    HW2 5130   0.422   3.301   0.630  0.1484  1.0250  0.6180
 1341SOL    HW3 5131   0.489   3.299   0.494 -1.0352  1.6080  0.0108
 1341SOL    MW4 5132   0.491   3.318   0.579 -0.3750 -0.3081  0.0703
 1342SOL     OW 5133   5.478   5.912   3.894  0.3276 -0.1671  0.6365
 1342SOL    HW2 5134   5.523   5.849   3.950  0.4370 -0.0795  0.6481
 1342SOL    HW3 5135   5.434   5.971   3.955  0.2507 -0.2150  0.6263
 1342SOL    MW4 5136   5.478   5.912   3.909  0.2207 -0.4722 -0.2126
 1343SOL     OW 5137   2.888   1.188   0.456  0.2836 -1.0600  0.3733
 1343SOL    HW2 5138   2.844   1.153   0.379  1.1637 -3.0414  0.7230
 1343SOL    HW3 5139   2.932   1.113   0.496 -1.7355 -0.5538  3.9676
 1343SOL    MW4 5140   2.888   1.174   0.451 -0.3458 -0.2134  0.2915
 1344SOL     OW 5141   1.480   5.733   2.554 -0.1090 -0.5045 -0.2964
 1344SOL    HW2 5142   1.428   5.781   2.619  0.9544  0.2518  0.0229
 1344SOL    HW3 5143   1.565   5.722   2.595  0.0505 -1.5704 -0.8841
 1344SOL    MW4 5144   1.484   5.738   2.568 -0.1997  0.0242 -0.1103
 1345SOL     OW 5145   3.903   3.416   4.544  0.0152  0.7084  0.5086
 1345SOL    HW2 5146   3.976   3.465   4.583  0.8406 -0.2424  0.2002
 1345SOL    HW3 5147   3.893   3.454   4.457 -1.3361  2.3258  1.3129
 1345SOL    MW4 5148   3.911   3.427   4.538 -0.5548  1.1056 -0.1223
 1346SOL     OW 5149   2.789   0.960   3.557 -0.8673  0.4906 -0.1703
 1346SOL    HW2 5150   2.779   0.865   3.570 -0.6493  0.4943  0.0460
 1346SOL    HW3 5151   2.706   0.988   3.520 -0.3967 -0.0379 -1.7169
 1346SOL    MW4 5152   2.777   0.951   3.554 -0.5131  0.0840  0.3546
 1347SOL     OW 5153   4.584   3.108   1.053 -0.1010 -0.1308  0.4583
 1347SOL    HW2 5154   4.532   3.095   1.132 -0.1380 -0.6690  0.3498
 1347SOL    HW3 5155   4.528   3.158   0.994 -0.3816 -0.4473  0.4586
 1347SOL    MW4 5156   4.570   3.113   1.056  0.2430 -0.4000 -0.4101
 1348SOL     OW 5157   3.757   2.245   2.144 -0.1246 -0.1016  0.5076
 1348SOL    HW2 5158   3.791   2.177   2.203  0.0575  1.1340  1.9050
 1348SOL    HW3 5159   3.765   2.208   2.057  1.1252 -1.3900  1.1325
 1348SOL    MW4 5160   3.762   2.231   2.140 -0.0408  0.9531  0.4313
 1349SOL     OW 5161   1.307   5.684   2.091  0.0692 -0.2122 -0.2664
 1349SOL    HW2 5162   1.231   5.631   2.116 -0.6458  0.3021 -1.2867
 1349SOL    HW3 5163   1.362   5.684   2.169 -0.7002 -1.0741  0.3077
 1349SOL    MW4 5164   1.304   5.677   2.104 -0.2562 -0.1529  0.2679
 1350SOL     OW 5165   4.524   0.483   4.609 -0.2358 -0.2537  0.0253
 1350SOL    HW2 5166   4.512   0.576   4.631 -1.3233 -0.0733 -1.1630
 1350SOL    HW3 5167   4.435   0.449   4.601  0.1294 -1.0783 -0.7911
 1350SOL    MW4 5168   4.510   0.491   4.611  0.1232 -0.0419 -0.5219
 1351SOL     OW 5169   5.941   3.610   2.668  0.3127 -0.0035 -0.2089
 1351SOL    HW2 5170   5.973   3.598   2.579  0.0103  0.0318 -0.3242
 1351SOL    HW3 5171   5.977   3.536   2.717  0.4304 -0.0563 -0.3735
 1351SOL    MW4 5172   5.950   3.599   2.663 -0.2297 -0.2773  0.3951
 1352SOL     OW 5173   1.869   3.432   3.781  0.2571  0.1341  0.8589
 1352SOL    HW2 5174   1.941   3.485   3.815  0.7840 -0.0408  0.0166
 1352SOL    HW3 5175   1.909   3.349   3.756  0.1154  0.6625 -1.3044
 1352SOL    MW4 5176   1.884   3.428   3.783 -0.4190 -0.1947  0.0945
 1353SOL     OW 5177   0.555   0.324   4.063 -0.4301 -0.2517 -0.2007
 1353SOL    HW2 5178   0.549   0.371   3.980  0.4162  0.3812  0.0894
 1353SOL    HW3 5179   0.464   0.316   4.093 -0.5385  2.6837  0.5540
 1353SOL    MW4 5180   0.542   0.329   4.056 -0.2416 -0.7178 -0.0354
 1354SOL     OW 5181   0.294   2.022   1.083  0.2970 -0.1318 -0.1813
 1354SOL    HW2 5182   0.302   1.943   1.029  0.3855  0.0619 -0.4526
 1354SOL    HW3 5183   0.373   2.072   1.064 -0.4162  0.6854 -1.1035
 1354SOL    MW4 5184   0.305   2.018   1.073  0.3358  0.0950  0.9814
 1355SOL     OW 5185   0.772   4.912   3.491  0.3818  0.0857  0.2833
 1355SOL    HW2 5186   0.704   4.860   3.448 -0.5318  0.3639  1.3487
 1355SOL    HW3 5187   0.730   4.945   3.570  1.5005  0.9895  0.5182
 1355SOL    MW4 5188   0.758   4.910   3.496 -0.2853  0.3346  0.2533
 1356SOL     OW 5189   3.098   3.979   0.551  0.3011 -0.0970 -0.0589
 1356SOL    HW2 5190   3.127   4.011   0.465  0.8857  0.2357  0.2627
 1356SOL    HW3 5191   3.115   4.052   0.611  0.4258 -0.5390  0.4458
 1356SOL    MW4 5192   3.104   3.993   0.547  0.3154 -0.0741 -0.3059
 1357SOL     OW 5193   4.310   1.986   2.413  0.4759  0.4616  0.7176
 1357SOL    HW2 5194   4.255   1.909   2.397 -0.0140  0.9607 -0.1125
 1357SOL    HW3 5195   4.342   2.010   2.326  0.3322  1.4032  0.9162
 1357SOL    MW4 5196   4.307   1.979   2.399  0.3529  0.2622 -0.1582
 1358SOL     OW 5197   0.129   1.969   5.279 -0.0922 -0.4712  0.1026
 1358SOL    HW2 5198   0.162   2.025   5.349  0.1652 -0.4611 -0.0247
 1358SOL    HW3 5199   0.092   2.030   5.215  2.1141 -0.2722 -1.0600
 1358SOL    MW4 5200   0.128   1.984   5.280 -0.2241 -0.7772 -0.1474
 1359SOL     OW 5201   3.668   4.605   0.477 -0.1434  0.4592 -0.0235
 1359SOL    HW2 5202   3.597   4.561   0.430  1.0440  0.6021 -2.0449
 1359SOL    HW3 5203   3.623   4.655   0.545 -1.9289  0.0002 -0.7989
 1359SOL    MW4 5204   3.653   4.606   0.480  0.2536  0.0569  0.3692
 1360SOL     OW 5205   1.283   5.514   2.669  0.1995 -0.2111  0.4481
 1360SOL    HW2 5206   1.271   5.541   2.578 -1.0375  0.7267  0.8606
 1360SOL    HW3 5207   1.290   5.595   2.718  1.2952 -0.7112  1.1578
 1360SOL    MW4 5208   1.282   5.528   2.663 -0.0814  0.1475  0.2690
 1361SOL     OW 5209   4.683   1.980   3.924 -0.2222 -0.1349  0.3428
 1361SOL    HW2 5210   4.640   2.040   3.985 -1.4927 -0.5283 -0.1367
 1361SOL    HW3 5211   4.648   2.004   3.838  1.1327  0.0522 -0.1738
 1361SOL    MW4 5212   4.673   1.991   3.921  0.4161 -0.4834  0.4570
 1362SOL     OW 5213   6.215   3.341   5.564  0.7817 -0.2173 -0.0705
 1362SOL    HW2 5214   6.308   3.363   5.555  0.2179  1.8956 -1.3984
 1362SOL    HW3 5215   6.171   3.426   5.569 -1.0351 -1.1719  1.3974
 1362SOL    MW4 5216   6.222   3.355   5.564  0.0212  0.2157  0.0682
 1363SOL     OW 5217   1.463   5.581   1.506 -0.0057 -0.1097  0.0150
 1363SOL    HW2 5218   1.378   5.625   1.499  0.7127  1.3933  0.2598
 1363SOL    HW3 5219   1.513   5.615   1.432 -0.1992 -2.4883 -1.3254
 1363SOL    MW4 5220   1.458   5.591   1.495  0.0756 -0.5082  0.5219
 1364SOL     OW 5221   3.396   0.124   1.713 -0.2834 -0.0144  0.2248
 1364SOL    HW2 5222   3.468   0.091   1.767 -0.0672  0.7058  0.3956
 1364SOL    HW3 5223   3.398   0.070   1.634  0.9229  0.4615 -0.0898
 1364SOL    MW4 5224   3.406   0.113   1.710 -0.3788  0.0166  0.1482
 1365SOL     OW 5225   1.894   4.833   3.857  0.5881  0.0545  0.0244
 1365SOL    HW2 5226   1.900   4.829   3.761 -0.7012 -1.2555 -0.0390
 1365SOL    HW3 5227   1.910   4.744   3.886 -0.6049  0.0944  0.9035
 1365SOL    MW4 5228   1.897   4.821   3.848  0.1136 -0.0111 -0.0214
 1366SOL     OW 5229   5.284   2.744   1.370  0.7842 -0.2078  0.0420
 1366SOL    HW2 5230   5.378   2.736   1.380  0.6893 -0.4679  0.8028
 1366SOL    HW3 5231   5.272   2.776   1.281  1.6348  0.7532  0.2572
 1366SOL    MW4 5232   5.295   2.747   1.360 -0.1464 -0.5382  0.0186
 1367SOL     OW 5233   0.482   2.496   5.216 -0.1205 -0.0441  0.1910
 1367SOL    HW2 5234   0.526   2.470   5.297  0.1566 -0.3206 -0.0467
 1367SOL    HW3 5235   0.540   2.561   5.177 -0.8447  1.0076  0.8167
 1367SOL    MW4 5236   0.496   2.501   5.222  0.0026  0.7031  0.4792
 1368SOL     OW 5237   3.863   0.218   3.197 -0.1465  0.3084  0.0230
 1368SOL    HW2 5238   3.805   0.143   3.187 -0.0709  0.1604  0.6817
 1368SOL    HW3 5239   3.942   0.195   3.148 -0.0201 -0.1494  0.4413
 1368SOL    MW4 5240   3.865   0.205   3.189  0.5612 -0.0188 -0.1978
 1369SOL     OW 5241   3.920   5.278   1.727  0.0592 -0.2918  0.5642
 1369SOL    HW2 5242   3.987   5.338   1.760 -1.2530  0.5658  1.7873
 1369SOL    HW3 5243   3.894   5.314   1.642  0.7154 -0.2854  0.3655
 1369SOL    MW4 5244   3.925   5.290   1.720 -0.2327  0.1737  0.1390
 1370SOL     OW 5245   0.103   3.707   2.127  0.4499  0.5534 -0.1667
 1370SOL    HW2 5246   0.010   3.719   2.105 -0.3408 -1.9061  1.3517
 1370SOL    HW3 5247   0.116   3.759   2.206  0.1011  0.2756  0.0820
 1370SOL    MW4 5248   0.092   3.715   2.134 -0.1184  0.0645  0.2504
 1371SOL     OW 5249   5.619   5.816   1.119 -0.4108  0.1710 -0.2213
 1371SOL    HW2 5250   5.650   5.844   1.033 -1.3134 -0.5106 -0.7937
 1371SOL    HW3 5251   5.563   5.740   1.101 -0.4255 -0.1361  0.9895
 1371SOL    MW4 5252   5.615   5.809   1.105  0.0531 -0.1691  0.7826
 1372SOL     OW 5253   2.783   0.540   2.266 -0.0466  0.3434  0.4023
 1372SOL    HW2 5254   2.713   0.573   2.323 -1.3356 -0.8128 -0.4426
 1372SOL    HW3 5255   2.767   0.446   2.260  1.2528  0.1403 -0.2861
 1372SOL    MW4 5256   2.772   0.532   2.272  0.0066  0.0044 -0.1899
 1373SOL     OW 5257   5.372   5.668   0.288  0.2810 -0.0104 -0.1330
 1373SOL    HW2 5258   5.451   5.632   0.328 -0.0552  1.2015  1.7429
 1373SOL    HW3 5259   5.385   5.763   0.290 -0.4749  0.1525 -1.4714
 1373SOL    MW4 5260   5.384   5.676   0.294  0.6945 -0.1431  0.4242
 1374SOL     OW 5261   4.818   6.051   0.414 -0.5401  0.0585  0.2283
 1374SOL    HW2 5262   4.732   6.018   0.385 -0.4297 -0.5488  0.5743
 1374SOL    HW3 5263   4.874   6.042   0.337 -0.4146 -0.9316  0.4281
 1374SOL    MW4 5264   4.814   6.045   0.400 -0.8302  0.6440  0.1064
 1375SOL     OW 5265   2.805   0.293   4.622  0.0798  0.0857  0.1769
 1375SOL    HW2 5266   2.864   0.318   4.551 -0.3437  2.6241  0.6494
 1375SOL    HW3 5267   2.759   0.216   4.588  1.0212  0.2608 -1.6326
 1375SOL    MW4 5268   2.807   0.286   4.608  0.2122 -0.2663  0.1279
 1376SOL     OW 5269   4.670   5.919   3.404 -0.0818 -0.0762  0.5508
 1376SOL    HW2 5270   4.574   5.919   3.407 -0.1588  1.0291 -0.8193
 1376SOL    HW3 5271   4.691   5.983   3.336  1.6006 -1.2599 -0.0939
 1376SOL    MW4 5272   4.660   5.928   3.395 -0.3939  0.0782 -0.1298
 1377SOL     OW 5273   6.340   1.991   0.409 -0.5307 -0.3158  0.0776
 1377SOL    HW2 5274   6.274   1.973   0.476 -1.2078  1.8714  0.0765
 1377SOL    HW3 5275   6.388   2.067   0.442  0.0968 -0.1072 -1.2307
 1377SOL    MW4 5276   6.338   1.999   0.422 -0.0650  0.0600 -0.0787
 1378SOL     OW 5277   5.789   3.568   1.615 -0.0412 -0.3050 -0.5770
 1378SOL    HW2 5278   5.767   3.545   1.705  1.1324  0.3421 -0.1049
 1378SOL    HW3 5279   5.828   3.655   1.622 -0.3125 -0.0751 -1.7654
 1378SOL    MW4 5280   5.791   3.577   1.628 -0.8789 -0.8223  0.0453
 1379SOL     OW 5281   0.111   1.824   3.544  0.4537  0.1244 -0.4622
 1379SOL    HW2 5282   0.083   1.761   3.611 -2.3934  0.1316 -1.5367
 1379SOL    HW3 5283   0.068   1.906   3.568  2.3096  1.1332 -0.3672
 1379SOL    MW4 5284   0.102   1.826   3.556  0.4513 -0.1636  0.3927
 1380SOL     OW 5285   5.623   4.027   2.169 -0.1716  0.3059  1.0305
 1380SOL    HW2 5286   5.632   3.952   2.110 -2.4156 -0.3975  1.4782
 1380SOL    HW3 5287   5.672   4.002   2.247  0.0811 -0.1764  0.7218
 1380SOL    MW4 5288   5.631   4.014   2.171  0.5680 -0.5609 -0.0083
 1381SOL     OW 5289   0.058   0.159   2.556 -0.0097 -0.2704 -0.4714
 1381SOL    HW2 5290   0.021   0.246   2.565 -0.1713 -0.4353  0.6417
 1381SOL    HW3 5291   0.017   0.108   2.626  0.7513 -1.0014 -0.5336
 1381SOL    MW4 5292   0.048   0.163   2.567  0.3409 -0.7220  0.3619
 1382SOL     OW 5293   2.512   1.746   4.055  0.0387  0.1633 -0.3313
 1382SOL    HW2 5294   2.454   1.799   4.109  0.2346 -0.7303  0.7859
 1382SOL    HW3 5295   2.600   1.777   4.077  0.1750 -0.7793  0.5464
 1382SOL    MW4 5296   2.516   1.757   4.065  0.2915  0.9452 -0.1283
 1383SOL     OW 5297   5.465   0.446   1.531 -0.2462  0.1745 -0.3115
 1383SOL    HW2 5298   5.501   0.358   1.522  0.2933  0.5202 -2.0609
 1383SOL    HW3 5299   5.382   0.443   1.482 -0.5394  0.4843  0.1551
 1383SOL    MW4 5300   5.458   0.434   1.523  0.1318 -0.2357 -0.3856
 1384SOL     OW 5301   3.642   6.070   5.082  0.7961  0.2876  0.2088
 1384SOL    HW2 5302   3.553   6.047   5.107  0.6454  0.4045 -0.2131
 1384SOL    HW3 5303   3.691   6.071   5.165  0.7106 -1.0817  0.3000
 1384SOL    MW4 5304   3.637   6.067   5.096  0.0301 -0.0085  0.2361
 1385SOL     OW 5305   1.035   4.985   3.624  0.0822  0.0014  0.5955
 1385SOL    HW2 5306   0.960   4.963   3.569 -1.0184 -1.6416  2.6312
 1385SOL    HW3 5307   1.043   5.080   3.616 -2.0979  0.1893  0.1622
 1385SOL    MW4 5308   1.026   4.995   3.616 -0.8319 -0.1410 -0.0993
 1386SOL     OW 5309   5.304   5.674   5.120  0.7185  0.3072  0.2098
 1386SOL    HW2 5310   5.313   5.666   5.214  0.2919 -1.9096  0.1067
 1386SOL    HW3 5311   5.374   5.620   5.084  0.2972  0.3618 -0.7368
 1386SOL    MW4 5312   5.314   5.666   5.127 -0.3555 -0.6556 -0.0327
 1387SOL     OW 5313   5.135   5.865   2.727  0.1626  0.8036  0.2117
 1387SOL    HW2 5314   5.187   5.834   2.652  0.0948  0.7485  0.1880
 1387SOL    HW3 5315   5.155   5.959   2.731 -0.3680  0.9486 -0.3091
 1387SOL    MW4 5316   5.145   5.874   2.717  0.1860 -0.5636 -0.1666
 1388SOL     OW 5317   5.524   0.858   1.834  0.3878 -0.1511 -0.0809
 1388SOL    HW2 5318   5.573   0.935   1.804 -0.3302  0.6792  0.8210
 1388SOL    HW3 5319   5.539   0.855   1.928  1.6124 -2.0106 -0.2843
 1388SOL    MW4 5320   5.532   0.868   1.842  0.4159 -0.2493 -0.2062
 1389SOL     OW 5321   0.493   2.345   3.825 -1.0362  0.1520  0.4791
 1389SOL    HW2 5322   0.457   2.378   3.907  1.8503  0.8470  1.5911
 1389SOL    HW3 5323   0.551   2.273   3.850  0.8486  1.1484 -0.7321
 1389SOL    MW4 5324   0.496   2.340   3.839  0.1270 -0.1948 -0.0097
 1390SOL     OW 5325   6.387   2.358   0.382  0.3982 -0.2075  0.0645
 1390SOL    HW2 5326   6.457   2.420   0.363  1.0639 -0.9287  0.1133
 1390SOL    HW3 5327   6.306   2.408   0.369  0.8560  0.1015 -2.0080
 1390SOL    MW4 5328   6.385   2.373   0.378  0.4580  0.3802  0.2082
 1391SOL     OW 5329   3.323   1.812   6.145 -0.3502 -0.2432 -0.0440
 1391SOL    HW2 5330   3.228   1.811   6.133 -0.8123 -0.2578  2.8982
 1391SOL    HW3 5331   3.345   1.904   6.156 -0.0710 -0.2697 -0.3683
 1391SOL    MW4 5332   3.313   1.824   6.145 -0.6141 -0.4051  0.1158
 1392SOL     OW 5333   3.037   3.679   4.153  0.0855 -0.0734 -0.7977
 1392SOL    HW2 5334   3.085   3.596   4.160 -0.1259 -0.0739  1.2721
 1392SOL    HW3 5335   2.946   3.655   4.173 -0.2543  0.4182 -1.7050
 1392SOL    MW4 5336   3.031   3.665   4.157 -0.1478  0.0348 -0.1434
 1393SOL     OW 5337   2.540   0.932   5.640 -0.3406 -0.1292  0.1527
 1393SOL    HW2 5338   2.598   0.911   5.713 -0.7948  3.2520  1.6878
 1393SOL    HW3 5339   2.457   0.888   5.661  0.1970 -1.0153  0.4671
 1393SOL    MW4 5340   2.537   0.923   5.653 -0.5729 -0.6948  0.1145
 1394SOL     OW 5341   1.103   0.082   0.578 -0.2649 -0.0593 -0.0822
 1394SOL    HW2 5342   1.098  -0.003   0.622 -2.3663 -0.5236 -1.1362
 1394SOL    HW3 5343   1.017   0.122   0.592  0.2488  1.3420 -0.7257
 1394SOL    MW4 5344   1.091   0.076   0.586  0.4546  0.2128 -0.5674
 1395SOL     OW 5345   6.395   3.876   4.171  0.0054  0.1089  0.2800
 1395SOL    HW2 5346   6.351   3.943   4.120 -0.2256  0.4597  0.9268
 1395SOL    HW3 5347   6.326   3.834   4.221  0.2925  0.1451  0.7184
 1395SOL    MW4 5348   6.380   3.879   4.171  0.1275  0.1522  0.2698
 1396SOL     OW 5349   2.838   1.523   4.054 -0.0054  0.2855  0.0766
 1396SOL    HW2 5350   2.786   1.525   3.974  1.0461  0.6191 -0.6192
 1396SOL    HW3 5351   2.927   1.506   4.024  0.3580  0.1112  1.2089
 1396SOL    MW4 5352   2.843   1.521   4.040  0.1227  0.3044  0.0839
 1397SOL     OW 5353   3.248   3.492   1.381  0.0828  0.1096  0.0720
 1397SOL    HW2 5354   3.205   3.444   1.452  0.3680  0.3247  0.3907
 1397SOL    HW3 5355   3.248   3.430   1.308  1.3162 -0.7559  0.7711
 1397SOL    MW4 5356   3.243   3.477   1.381  0.4432 -0.4633 -0.5139
 1398SOL     OW 5357   6.189   2.678   2.237  0.6669  0.0020  0.2729
 1398SOL    HW2 5358   6.231   2.659   2.154 -0.1433  2.8671 -0.8844
 1398SOL    HW3 5359   6.102   2.711   2.214 -0.2854 -0.7957  2.3740
 1398SOL    MW4 5360   6.183   2.680   2.223 -0.1720  0.8306  0.5749
 1399SOL     OW 5361   0.654   6.319   3.385  0.2949 -0.1133 -0.2269
 1399SOL    HW2 5362   0.624   6.258   3.317  0.6922  0.1489 -0.6484
 1399SOL    HW3 5363   0.600   6.299   3.461  0.0554 -0.6277 -0.5252
 1399SOL    MW4 5364   0.643   6.309   3.386 -0.1148 -0.0683 -0.0018
 1400SOL     OW 5365   2.775   4.264   5.825  0.2149  0.3503  0.1348
 1400SOL    HW2 5366   2.795   4.247   5.917 -0.0428  1.3158  0.3843
 1400SOL    HW3 5367   2.715   4.338   5.827  0.9969  1.0386 -0.8497
 1400SOL    MW4 5368   2.770   4.272   5.838 -0.3007 -0.3383 -0.3634
 1401SOL     OW 5369   5.174   0.763   1.658 -0.0790 -0.0413 -0.0386
 1401SOL    HW2 5370   5.228   0.688   1.683  0.5096  0.5053  0.3653
 1401SOL    HW3 5371   5.084   0.730   1.661  0.0737 -0.3897  1.4635
 1401SOL    MW4 5372   5.169   0.749   1.662  0.0649 -0.1722 -0.5487
 1402SOL     OW 5373   4.772   5.450   1.180 -0.2032 -0.0247  0.1010
 1402SOL    HW2 5374   4.828   5.478   1.108 -0.5768  1.9216  0.4882
 1402SOL    HW3 5375   4.833   5.422   1.248  0.1824 -0.7641 -0.5375
 1402SOL    MW4 5376   4.787   5.450   1.180  0.9141 -0.3198  0.1852
 1403SOL     OW 5377   4.895   6.312   0.477 -0.0323  0.0515  0.5396
 1403SOL    HW2 5378   4.879   6.218   0.472  1.3441 -0.1865  0.2788
 1403SOL    HW3 5379   4.868   6.336   0.566 -1.9336 -0.2480  0.0940
 1403SOL    MW4 5380   4.889   6.303   0.488 -0.4972 -0.3873  0.1116
 1404SOL     OW 5381   1.903   3.151   6.400  0.0941  0.3643 -0.1332
 1404SOL    HW2 5382   1.880   3.115   6.486 -0.2630  0.8341 -0.0316
 1404SOL    HW3 5383   1.965   3.221   6.420 -0.0114  0.4911 -0.2619
 1404SOL    MW4 5384   1.908   3.155   6.414  0.2610  0.2709 -0.0134
 1405SOL     OW 5385   2.456   0.404   2.999  0.2755 -0.7353  0.3349
 1405SOL    HW2 5386   2.365   0.433   2.990  0.3860 -0.6836 -0.8584
 1405SOL    HW3 5387   2.507   0.474   2.957  1.0685  0.2675  2.8149
 1405SOL    MW4 5388   2.451   0.417   2.992  0.4580  0.4725 -0.2588
 1406SOL     OW 5389   6.411   4.879   5.553  0.1047  0.2799  0.0923
 1406SOL    HW2 5390   6.419   4.927   5.635  0.8657 -0.6174  0.5681
 1406SOL    HW3 5391   6.393   4.946   5.487  2.5103  1.4255  0.4986
 1406SOL    MW4 5392   6.410   4.894   5.555 -0.0388 -0.2975 -0.5653
 1407SOL     OW 5393   2.925   5.248   0.667 -0.0051  0.0559  0.1606
 1407SOL    HW2 5394   2.869   5.257   0.590  0.4167  2.3260  0.0479
 1407SOL    HW3 5395   2.867   5.261   0.741 -0.2204 -1.0692  0.2017
 1407SOL    MW4 5396   2.910   5.251   0.666 -0.1309 -0.4866 -0.2136
 1408SOL     OW 5397   5.241   1.705   1.606  0.9354  0.1899  0.2050
 1408SOL    HW2 5398   5.285   1.750   1.534  1.2524 -1.9570 -1.0108
 1408SOL    HW3 5399   5.277   1.617   1.606 -1.5451 -0.9179  0.7655
 1408SOL    MW4 5400   5.251   1.699   1.597 -0.4430  0.1632  0.1430
 1409SOL     OW 5401   4.148   3.896   6.403 -0.4821  0.0825 -0.0232
 1409SOL    HW2 5402   4.147   3.802   6.423 -0.6576 -0.0239 -0.5070
 1409SOL    HW3 5403   4.154   3.939   6.488 -1.5301 -0.3484  0.2780
 1409SOL    MW4 5404   4.149   3.889   6.417 -0.1787  0.2434 -0.5578
 1410SOL     OW 5405   6.089   4.756   4.332 -0.3866  0.1937 -0.0113
 1410SOL    HW2 5406   6.055   4.736   4.245  0.2809  1.2641 -0.5261
 1410SOL    HW3 5407   6.052   4.687   4.388 -0.0710 -1.0490 -1.2889
 1410SOL    MW4 5408   6.080   4.744   4.328  0.3886  0.2037 -0.5369
 1411SOL     OW 5409   1.993   1.756   0.579 -0.0489  0.5433 -0.0524
 1411SOL    HW2 5410   2.040   1.802   0.648  0.4932  1.3857 -0.9669
 1411SOL    HW3 5411   2.058   1.696   0.542 -0.5739 -0.5273  0.7098
 1411SOL    MW4 5412   2.008   1.754   0.583 -0.1306  0.5057  0.0852
 1412SOL     OW 5413   3.206   3.530   0.413  0.3229 -0.0588  0.1924
 1412SOL    HW2 5414   3.290   3.538   0.458 -0.0183 -0.0515  0.8394
 1412SOL    HW3 5415   3.149   3.592   0.458  0.7239  2.1435 -2.0819
 1412SOL    MW4 5416   3.210   3.539   0.425  0.0866  0.2323 -0.8979
 1413SOL     OW 5417   3.095   1.184   2.663  0.4762  0.9506  0.1704
 1413SOL    HW2 5418   3.138   1.207   2.745  0.2156 -1.3316  1.0209
 1413SOL    HW3 5419   3.058   1.266   2.631 -0.7670  1.6655  3.1240
 1413SOL    MW4 5420   3.096   1.198   2.669  0.1715  0.5631  0.3467
 1414SOL     OW 5421   4.655   0.716   2.677  0.0284 -0.0333 -1.1000
 1414SOL    HW2 5422   4.563   0.689   2.681 -0.7520  2.1315  3.5852
 1414SOL    HW3 5423   4.703   0.647   2.723 -0.3840  1.3325  1.6602
 1414SOL    MW4 5424   4.649   0.703   2.684  0.5957  0.3365 -0.0796
 1415SOL     OW 5425   3.832   3.912   1.445 -0.1363  0.3391 -0.3711
 1415SOL    HW2 5426   3.921   3.935   1.472  0.4214 -2.7648  0.8254
 1415SOL    HW3 5427   3.776   3.944   1.516  0.4014 -0.3632  0.3864
 1415SOL    MW4 5428   3.836   3.919   1.458 -0.1608 -0.1187  0.3077
 1416SOL     OW 5429   2.457   0.575   1.155  0.0293  0.4172 -0.2648
 1416SOL    HW2 5430   2.433   0.613   1.070 -1.4158 -1.0210 -0.5560
 1416SOL    HW3 5431   2.552   0.573   1.153  0.0441  0.8314 -1.6692
 1416SOL    MW4 5432   2.466   0.580   1.143  0.1298 -0.2335 -0.1582
 1417SOL     OW 5433   0.556   0.859   0.922 -0.0516 -0.2662  0.3288
 1417SOL    HW2 5434   0.467   0.887   0.945 -1.0126 -0.5115 -2.6511
 1417SOL    HW3 5435   0.581   0.917   0.849  2.4504  0.0856  1.3760
 1417SOL    MW4 5436   0.548   0.870   0.915  0.4659  0.2002  0.0219
 1418SOL     OW 5437   6.407   4.450   0.494 -0.3634 -0.1638 -0.3319
 1418SOL    HW2 5438   6.395   4.358   0.471 -0.3158 -0.2352 -0.0667
 1418SOL    HW3 5439   6.401   4.452   0.589  0.7750 -0.0604 -0.2521
 1418SOL    MW4 5440   6.405   4.438   0.503  0.3532  0.4842  0.0213
 1419SOL     OW 5441   2.562   1.846   0.968 -0.5294  0.4300  0.0152
 1419SOL    HW2 5442   2.505   1.846   0.891 -1.5427 -1.6783  0.7054
 1419SOL    HW3 5443   2.503   1.863   1.041 -0.3242 -1.7115  0.7359
 1419SOL    MW4 5444   2.547   1.849   0.967 -0.5292 -0.7090  0.4597
 1420SOL     OW 5445   3.687   5.977   1.072  0.2274 -0.2153 -0.6090
 1420SOL    HW2 5446   3.745   5.950   1.142 -0.3967  0.3530  0.1514
 1420SOL    HW3 5447   3.604   5.998   1.116  0.0313  0.8105 -1.4171
 1420SOL    MW4 5448   3.684   5.976   1.087 -0.2952  0.0488 -0.1697
 1421SOL     OW 5449   3.797   2.293   0.482  0.2932  0.0902  0.0129
 1421SOL    HW2 5450   3.717   2.335   0.451 -0.0537 -0.2086  0.4855
 1421SOL    HW3 5451   3.770   2.246   0.561  1.0942  0.6227  0.6233
 1421SOL    MW4 5452   3.783   2.293   0.488  0.2595 -0.2267  0.1541
 1422SOL     OW 5453   1.295   3.712   4.510  1.0857 -0.3662 -0.4097
 1422SOL    HW2 5454   1.206   3.701   4.475  0.3668 -1.2559  1.5651
 1422SOL    HW3 5455   1.352   3.703   4.434 -0.4677 -0.6909 -1.5776
 1422SOL    MW4 5456   1.291   3.709   4.495  0.1984 -0.1726 -0.4792
 1423SOL     OW 5457   1.265   3.276   3.826  0.8477  0.4029  0.1718
 1423SOL    HW2 5458   1.297   3.200   3.777  1.9612  0.7567  0.3420
 1423SOL    HW3 5459   1.290   3.351   3.773 -0.8991  0.6598 -0.3720
 1423SOL    MW4 5460   1.272   3.275   3.813  0.1258  0.8163  0.2121
 1424SOL     OW 5461   1.851   0.658   0.870  0.5634  0.4294 -0.3438
 1424SOL    HW2 5462   1.767   0.618   0.891  1.3338 -0.8579  0.4182
 1424SOL    HW3 5463   1.842   0.750   0.896  0.6008 -0.4755  3.3937
 1424SOL    MW4 5464   1.839   0.665   0.876  0.0303 -0.3144  0.2364
 1425SOL     OW 5465   6.372   2.273   5.917 -0.3068  0.0155  0.4432
 1425SOL    HW2 5466   6.463   2.286   5.892  0.0342 -0.5194  1.3678
 1425SOL    HW3 5467   6.324   2.340   5.868  0.7051  1.0001  0.7628
 1425SOL    MW4 5468   6.377   2.283   5.907 -0.2944 -0.0926  0.1287
 1426SOL     OW 5469   4.951   5.585   2.075 -0.2055 -0.1037  0.3842
 1426SOL    HW2 5470   4.947   5.619   1.986  0.2083 -3.4321 -1.0499
 1426SOL    HW3 5471   4.860   5.570   2.099 -0.2735 -0.0984  0.1302
 1426SOL    MW4 5472   4.939   5.588   2.067 -0.0117 -0.5634 -0.4386
 1427SOL     OW 5473   0.838   3.348   3.395 -0.2323 -0.4935 -0.1082
 1427SOL    HW2 5474   0.794   3.270   3.361 -1.5655  0.2203 -0.0469
 1427SOL    HW3 5475   0.853   3.403   3.318 -0.9491 -0.0011  0.1039
 1427SOL    MW4 5476   0.834   3.345   3.380 -0.1815  0.0833 -0.7246
 1428SOL     OW 5477   6.331   1.460   4.855 -0.3146 -0.6165 -0.2164
 1428SOL    HW2 5478   6.294   1.399   4.791 -0.2068 -1.0548  0.1332
 1428SOL    HW3 5479   6.357   1.404   4.929  0.0294 -0.1792 -0.0045
 1428SOL    MW4 5480   6.329   1.444   4.856 -0.4993  0.3982  0.3551
 1429SOL     OW 5481   4.656   2.111   2.373  0.2404 -0.1033  0.6824
 1429SOL    HW2 5482   4.625   2.024   2.400 -0.5321 -0.3427 -0.8318
 1429SOL    HW3 5483   4.687   2.097   2.283  0.0904  1.1896  0.4225
 1429SOL    MW4 5484   4.656   2.097   2.365  0.3177 -0.0410  0.2714
 1430SOL     OW 5485   1.759   2.572   2.266  1.0476 -0.1223 -0.1285
 1430SOL    HW2 5486   1.759   2.649   2.209 -0.1370 -0.4098 -0.5305
 1430SOL    HW3 5487   1.822   2.512   2.226 -0.2782 -0.6139 -1.5574
 1430SOL    MW4 5488   1.767   2.574   2.253 -0.5454 -0.6949 -0.0220
 1431SOL     OW 5489   5.529   6.097   2.497  0.0958 -0.3270  0.2516
 1431SOL    HW2 5490   5.536   6.024   2.435 -1.7413 -0.7949  0.5200
 1431SOL    HW3 5491   5.552   6.058   2.582  1.8959  0.1355  0.0069
 1431SOL    MW4 5492   5.533   6.082   2.500  0.7980  0.3896  0.2749
 1432SOL     OW 5493   4.582   6.248   5.072 -0.4205  0.2230  0.2507
 1432SOL    HW2 5494   4.550   6.164   5.105 -1.9132  0.3724 -0.7291
 1432SOL    HW3 5495   4.670   6.257   5.109 -1.1501 -0.6468  2.3072
 1432SOL    MW4 5496   4.590   6.238   5.081  0.4327 -0.3785  0.1148
 1433SOL     OW 5497   0.265   2.823   1.709  0.4174  0.4330  0.6128
 1433SOL    HW2 5498   0.212   2.877   1.768 -0.6307 -0.3441  0.4145
 1433SOL    HW3 5499   0.277   2.877   1.631  0.1328  0.7159  0.7629
 1433SOL    MW4 5500   0.259   2.837   1.707  0.1513  0.0143 -0.2979
 1434SOL     OW 5501   0.536   6.344   3.624  0.2254 -0.1621  0.2250
 1434SOL    HW2 5502   0.494   6.427   3.601  0.4950  0.3225  1.3972
 1434SOL    HW3 5503   0.463   6.285   3.642  0.0124 -0.5202 -1.6552
 1434SOL    MW4 5504   0.521   6.347   3.623 -0.1783 -0.0883 -0.2046
 1435SOL     OW 5505   2.523   6.036   2.909  0.0356 -0.3336 -0.3411
 1435SOL    HW2 5506   2.517   5.944   2.883  0.5182 -0.0773 -1.4052
 1435SOL    HW3 5507   2.522   6.084   2.827  1.2645  0.5375  0.1317
 1435SOL    MW4 5508   2.522   6.030   2.895 -0.3985 -0.3743 -0.3057
 1436SOL     OW 5509   5.746   4.276   0.788  0.3726 -0.0191  0.1039
 1436SOL    HW2 5510   5.790   4.356   0.815  1.3781 -1.0200  1.6005
 1436SOL    HW3 5511   5.809   4.230   0.733  0.1036 -0.1349 -0.1098
 1436SOL    MW4 5512   5.760   4.280   0.785 -0.3897 -0.0900 -0.0793
 1437SOL     OW 5513   5.872   1.713   3.832 -0.2652 -0.0074 -0.0607
 1437SOL    HW2 5514   5.937   1.734   3.898 -1.0346  0.1579  0.6584
 1437SOL    HW3 5515   5.877   1.618   3.823  0.8805  0.1086 -0.8745
 1437SOL    MW4 5516   5.881   1.703   3.839 -0.1455 -0.4423 -0.1977
 1438SOL     OW 5517   4.264   2.566   4.340  0.3748  0.0653 -0.2991
 1438SOL    HW2 5518   4.181   2.600   4.308  0.0009 -0.0965  0.5025
 1438SOL    HW3 5519   4.330   2.627   4.305 -0.1741  0.8526  0.0232
 1438SOL    MW4 5520   4.262   2.578   4.331 -0.0204  0.2747 -0.2679
 1439SOL     OW 5521   1.617   4.887   1.417 -0.4902 -0.3302  0.0047
 1439SOL    HW2 5522   1.563   4.961   1.444  0.3964  1.0487 -1.7832
 1439SOL    HW3 5523   1.657   4.915   1.335  1.8356 -1.8501  0.5242
 1439SOL    MW4 5524   1.615   4.900   1.409  0.0470 -0.0195 -0.2303
 1440SOL     OW 5525   1.206   3.620   5.968 -0.1045  0.5217  0.2351
 1440SOL    HW2 5526   1.250   3.701   5.943 -0.1055  0.6158  0.5311
 1440SOL    HW3 5527   1.222   3.560   5.895 -0.3818  0.8891 -0.1281
 1440SOL    MW4 5528   1.214   3.623   5.955  0.1105  0.4107  0.4453
 1441SOL     OW 5529   1.901   3.818   0.649  0.1523  0.8054 -0.1580
 1441SOL    HW2 5530   1.860   3.875   0.584 -0.3017  1.0229  0.3123
 1441SOL    HW3 5531   1.834   3.753   0.671  0.2195  0.8712  0.2577
 1441SOL    MW4 5532   1.887   3.817   0.644  0.2211 -0.2943  0.0451
 1442SOL     OW 5533   0.652   1.164   0.957 -0.9440  0.3671 -0.3652
 1442SOL    HW2 5534   0.587   1.171   0.887  0.5462  0.2782 -1.8335
 1442SOL    HW3 5535   0.729   1.125   0.914 -0.5812 -1.4769  1.7597
 1442SOL    MW4 5536   0.654   1.159   0.942 -0.7982 -0.1711  0.2338
 1443SOL     OW 5537   5.632   1.413   0.812 -0.2402 -0.1777 -0.3985
 1443SOL    HW2 5538   5.582   1.399   0.892 -0.4282 -0.6677 -0.5958
 1443SOL    HW3 5539   5.604   1.499   0.781 -0.5174 -0.1884 -0.1833
 1443SOL    MW4 5540   5.622   1.422   0.818  0.3208 -0.3472  0.0550
 1444SOL     OW 5541   2.771   1.931   3.771 -0.1408 -0.2325 -0.0062
 1444SOL    HW2 5542   2.708   1.860   3.756  1.7798 -1.8962 -0.6369
 1444SOL    HW3 5543   2.852   1.887   3.794  0.9496  1.8208  0.3351
 1444SOL    MW4 5544   2.773   1.916   3.772  0.2021 -0.4763  0.0920
 1445SOL     OW 5545   0.028   3.718   4.842 -0.1258  0.0938 -0.2114
 1445SOL    HW2 5546  -0.005   3.715   4.932  0.6282  1.3134  0.1223
 1445SOL    HW3 5547  -0.051   3.731   4.788 -0.4399  0.7317  0.3905
 1445SOL    MW4 5548   0.013   3.719   4.847  0.5599  0.0731  0.3976
 1446SOL     OW 5549   2.073   0.063   0.347 -0.1830  0.4457  0.2386
 1446SOL    HW2 5550   2.135  -0.009   0.353 -1.8627 -1.0801  0.3711
 1446SOL    HW3 5551   2.050   0.083   0.438 -0.1961  0.7199  0.1770
 1446SOL    MW4 5552   2.078   0.056   0.360 -0.5862  0.4167 -0.1099
 1447SOL     OW 5553   2.257   5.084   5.221  0.6233  0.1121 -0.4709
 1447SOL    HW2 5554   2.235   5.164   5.268  0.7475 -1.0009  1.6081
 1447SOL    HW3 5555   2.346   5.098   5.189  0.5458  0.9088 -0.3419
 1447SOL    MW4 5556   2.266   5.096   5.223  0.3175  0.7086 -0.1156
 1448SOL     OW 5557   4.573   2.310   1.188 -0.1334  0.0882 -0.2489
 1448SOL    HW2 5558   4.548   2.223   1.219 -1.5989  0.1224 -1.2144
 1448SOL    HW3 5559   4.570   2.365   1.266 -1.8718 -0.2102 -0.0599
 1448SOL    MW4 5560   4.569   2.306   1.202  0.1137  0.3624  0.2191
 1449SOL     OW 5561   1.052   1.753   3.105  0.1910 -0.5303  0.0198
 1449SOL    HW2 5562   1.057   1.746   3.009 -0.6003  0.3360 -0.0956
 1449SOL    HW3 5563   0.975   1.806   3.121  0.2413 -0.7807  1.1571
 1449SOL    MW4 5564   1.043   1.759   3.094  0.0664 -0.0055 -0.1730
 1450SOL     OW 5565   2.027   4.077   4.015 -0.7835 -0.1958  0.0837
 1450SOL    HW2 5566   2.073   4.067   4.098 -0.5247 -0.4378 -0.0878
 1450SOL    HW3 5567   2.075   4.145   3.968 -0.3218 -0.7717 -0.2858
 1450SOL    MW4 5568   2.039   4.085   4.020  0.4614  0.1599  0.1664
 1451SOL     OW 5569   5.122   0.969   4.400 -0.0272  1.0838  0.3268
 1451SOL    HW2 5570   5.193   0.981   4.463  2.8925 -0.3031 -2.4110
 1451SOL    HW3 5571   5.094   1.058   4.379  2.8209  1.9096 -0.4232
 1451SOL    MW4 5572   5.128   0.982   4.406 -0.1808  0.1611  0.3732
 1452SOL     OW 5573   1.059   2.226   2.479 -1.0546 -0.5984  0.8688
 1452SOL    HW2 5574   1.053   2.256   2.570 -0.3372  0.2694  0.6425
 1452SOL    HW3 5575   0.990   2.274   2.433  0.0607  0.7358  0.5169
 1452SOL    MW4 5576   1.049   2.236   2.485 -0.2568  0.0174  0.2462
 1453SOL     OW 5577   6.286   1.309   5.789  0.5585 -0.3731  1.1513
 1453SOL    HW2 5578   6.297   1.216   5.806 -1.5189 -0.7734  0.5866
 1453SOL    HW3 5579   6.192   1.324   5.799  1.0030  1.9614  2.5778
 1453SOL    MW4 5580   6.275   1.299   5.793 -0.4342 -0.3044 -0.2096
 1454SOL     OW 5581   0.589   1.177   5.408 -0.3438  0.2416 -0.2550
 1454SOL    HW2 5582   0.578   1.153   5.316 -1.5541  2.6943 -0.8149
 1454SOL    HW3 5583   0.666   1.127   5.436 -0.3726 -1.1116 -2.3653
 1454SOL    MW4 5584   0.598   1.167   5.400  0.4565 -0.1018  0.2026
 1455SOL     OW 5585   4.233   1.284   5.832  0.1253  0.0937 -0.5771
 1455SOL    HW2 5586   4.200   1.298   5.743 -2.7921 -0.8815  0.2406
 1455SOL    HW3 5587   4.272   1.196   5.830  0.0216  0.0541 -0.8973
 1455SOL    MW4 5588   4.233   1.274   5.820  0.1550  0.2498 -0.6132
 1456SOL     OW 5589   0.767   0.327   4.986 -0.2212  0.0619 -0.0491
 1456SOL    HW2 5590   0.740   0.412   4.949  2.1756  1.1973  0.6207
 1456SOL    HW3 5591   0.855   0.313   4.953  0.5822 -0.6924  2.2074
 1456SOL    MW4 5592   0.775   0.337   4.977 -0.3379  0.3224 -0.1019
 1457SOL     OW 5593   4.868   0.039   5.788 -0.0031  0.8725 -0.2303
 1457SOL    HW2 5594   4.880  -0.015   5.710  1.4691  0.9265 -0.0684
 1457SOL    HW3 5595   4.834   0.122   5.755  1.0397  1.0585 -0.8903
 1457SOL    MW4 5596   4.865   0.043   5.773  0.0965 -0.1404  0.4745
 1458SOL     OW 5597   2.294   5.345   0.311 -0.9511  0.1913 -0.2772
 1458SOL    HW2 5598   2.209   5.386   0.325 -0.3266  1.5361 -0.3008
 1458SOL    HW3 5599   2.295   5.270   0.371 -3.0928 -1.3673 -2.0107
 1458SOL    MW4 5600   2.283   5.340   0.321  0.4185 -0.1596  0.3046
 1459SOL     OW 5601   3.668   2.947   5.258 -0.4936  0.0970  0.0083
 1459SOL    HW2 5602   3.753   2.952   5.215 -1.0118  0.3351 -1.0128
 1459SOL    HW3 5603   3.605   2.936   5.187 -1.4149  0.9228  0.6693
 1459SOL    MW4 5604   3.671   2.946   5.243  0.5454 -0.0904 -0.3191
 1460SOL     OW 5605   3.044   6.361   5.791  0.0413  0.1041 -0.2244
 1460SOL    HW2 5606   3.116   6.303   5.767  0.6193  0.3720  0.7729
 1460SOL    HW3 5607   3.012   6.397   5.708 -0.0920 -1.3443 -0.8294
 1460SOL    MW4 5608   3.049   6.358   5.777 -0.6470 -0.4426 -0.4929
 1461SOL     OW 5609   4.116   3.209   0.454  0.3886 -0.2387 -0.7379
 1461SOL    HW2 5610   4.210   3.192   0.453  0.3906 -0.2958  0.0659
 1461SOL    HW3 5611   4.090   3.202   0.362  1.1749 -0.1688 -0.9781
 1461SOL    MW4 5612   4.125   3.206   0.442 -0.5043 -0.5165  0.2569
 1462SOL     OW 5613   4.011   1.263   0.615 -0.8068 -0.2354 -0.0235
 1462SOL    HW2 5614   4.038   1.314   0.538 -0.6524 -1.5228 -0.8568
 1462SOL    HW3 5615   3.932   1.216   0.585  0.8276 -2.9456 -0.3943
 1462SOL    MW4 5616   4.004   1.264   0.601  0.0204  0.4072  0.5566
 1463SOL     OW 5617   3.200   0.127   4.199  0.1279 -0.3344  0.1522
 1463SOL    HW2 5618   3.174   0.132   4.107  0.9989 -0.6512 -0.1214
 1463SOL    HW3 5619   3.267   0.059   4.201 -0.2171 -0.6600  1.1071
 1463SOL    MW4 5620   3.205   0.118   4.187 -0.1829 -0.0076 -0.2799
 1464SOL     OW 5621   3.276   2.795   0.827 -0.2412  0.6458 -0.3371
 1464SOL    HW2 5622   3.246   2.781   0.917 -0.1490  1.3473 -0.1931
 1464SOL    HW3 5623   3.262   2.710   0.784 -0.6216  0.4077  0.2384
 1464SOL    MW4 5624   3.270   2.782   0.833 -0.2691  0.7135 -0.6660
 1465SOL     OW 5625   3.360   3.524   1.972 -0.4577 -0.0886  0.2249
 1465SOL    HW2 5626   3.454   3.536   1.965 -0.4862  0.0389  0.0609
 1465SOL    HW3 5627   3.341   3.446   1.920 -0.4119 -0.2551  0.4532
 1465SOL    MW4 5628   3.370   3.515   1.964 -0.3731  0.3295 -0.4686
 1466SOL     OW 5629   0.273   1.281   5.921 -0.2114 -0.2435 -0.1881
 1466SOL    HW2 5630   0.347   1.314   5.869 -0.0326  2.5161  1.6458
 1466SOL    HW3 5631   0.315   1.233   5.993 -0.1975  0.3999  0.2474
 1466SOL    MW4 5632   0.289   1.279   5.924  0.5087  0.6284  0.3499
 1467SOL     OW 5633   1.046   3.351   5.052  0.5276 -0.1130 -0.2325
 1467SOL    HW2 5634   1.102   3.281   5.018 -0.0496  0.4472 -2.5185
 1467SOL    HW3 5635   0.970   3.305   5.090  0.8378 -0.7612 -0.3888
 1467SOL    MW4 5636   1.043   3.335   5.052 -0.0605  0.1947 -0.4522
 1468SOL     OW 5637   0.075   2.464   1.901  0.0629  0.4254  0.2256
 1468SOL    HW2 5638   0.136   2.526   1.941 -0.9608  0.9928  0.9567
 1468SOL    HW3 5639   0.128   2.387   1.881  0.4546 -0.3101  3.5979
 1468SOL    MW4 5640   0.090   2.462   1.903  0.5004 -0.3053 -0.8498
 1469SOL     OW 5641   6.296   3.911   3.492  0.2340  0.3367  0.7457
 1469SOL    HW2 5642   6.232   3.841   3.504 -0.2015 -0.2342 -3.2647
 1469SOL    HW3 5643   6.282   3.970   3.565 -1.8644 -1.9441  2.3508
 1469SOL    MW4 5644   6.286   3.909   3.503 -0.1161  0.0840 -0.3517
 1470SOL     OW 5645   4.860   3.848   5.031  0.1812  0.0179 -0.1223
 1470SOL    HW2 5646   4.891   3.819   5.116 -0.8569  0.1200  0.3054
 1470SOL    HW3 5647   4.847   3.942   5.041  0.0771  0.0358 -0.4090
 1470SOL    MW4 5648   4.863   3.857   5.043 -0.2956  0.2142  0.3171
 1471SOL     OW 5649   0.456   1.849   5.432  0.3143  0.4022  0.1786
 1471SOL    HW2 5650   0.452   1.870   5.339  2.1515 -1.6520 -0.4738
 1471SOL    HW3 5651   0.431   1.756   5.437 -0.5654  0.6840  1.8587
 1471SOL    MW4 5652   0.452   1.839   5.421  0.0492 -0.2436  0.2666
 1472SOL     OW 5653   2.266   1.153   4.455  0.6974 -0.0694  0.3313
 1472SOL    HW2 5654   2.192   1.119   4.404 -1.2582  0.9216  2.3413
 1472SOL    HW3 5655   2.270   1.246   4.430  0.6075  0.0998  0.9307
 1472SOL    MW4 5656   2.257   1.161   4.445 -0.2240  0.5943  0.1000
 1473SOL     OW 5657   1.050   0.149   1.640  0.3062 -0.1928  0.2974
 1473SOL    HW2 5658   1.092   0.063   1.646  0.5108 -0.2056 -1.0299
 1473SOL    HW3 5659   1.035   0.175   1.731 -0.7607 -2.1161  0.7343
 1473SOL    MW4 5660   1.053   0.141   1.653 -0.2598  0.3939 -0.2364
 1474SOL     OW 5661   1.825   0.495   4.811 -1.0038  0.1491 -0.5273
 1474SOL    HW2 5662   1.857   0.404   4.815 -1.8522 -0.1564 -0.5834
 1474SOL    HW3 5663   1.901   0.547   4.836 -0.6560 -0.6068  0.0481
 1474SOL    MW4 5664   1.839   0.490   4.815 -0.4313 -0.7619 -0.2707
 1475SOL     OW 5665   3.029   2.132   2.517  0.4032  0.0189  0.1789
 1475SOL    HW2 5666   2.953   2.084   2.483 -0.6847  1.2926  0.6884
 1475SOL    HW3 5667   2.992   2.214   2.551  1.7690 -0.1066  2.1374
 1475SOL    MW4 5668   3.014   2.137   2.517 -0.4198 -0.2749 -0.2046
 1476SOL     OW 5669   2.833   3.162   3.355 -0.0387  0.4248  0.3365
 1476SOL    HW2 5670   2.915   3.210   3.339 -0.4684  0.2483 -3.2114
 1476SOL    HW3 5671   2.862   3.078   3.392  1.5980 -0.0382 -1.7496
 1476SOL    MW4 5672   2.848   3.157   3.357  0.2103 -0.1115 -0.0200
 1477SOL     OW 5673   2.920   1.701   0.379  0.1642 -0.3182 -0.9873
 1477SOL    HW2 5674   2.827   1.682   0.366  0.2627 -1.0966 -0.6417
 1477SOL    HW3 5675   2.927   1.796   0.371 -0.9506 -0.0397  0.7494
 1477SOL    MW4 5676   2.909   1.711   0.376  0.1731  0.3095 -0.7889
 1478SOL     OW 5677   6.304   6.153   1.902  0.1148  0.3196  0.3777
 1478SOL    HW2 5678   6.263   6.222   1.851  2.3117  1.3942 -0.0588
 1478SOL    HW3 5679   6.396   6.155   1.875  0.8039 -0.8991  2.4129
 1478SOL    MW4 5680   6.311   6.162   1.892  0.1523  0.0563 -0.3643
 1479SOL     OW 5681   2.777   3.621   3.006  0.5562  0.2265  0.1640
 1479SOL    HW2 5682   2.696   3.628   2.956 -0.4987 -0.0749  1.7437
 1479SOL    HW3 5683   2.765   3.680   3.080  1.5974 -0.1356  0.6466
 1479SOL    MW4 5684   2.765   3.629   3.009  0.0972  0.8979  0.2436
 1480SOL     OW 5685   4.743   4.120   2.136 -0.2624  0.2574 -0.2388
 1480SOL    HW2 5686   4.777   4.143   2.049  1.0088 -0.5529  0.0065
 1480SOL    HW3 5687   4.672   4.059   2.119  0.0854 -0.0199 -0.7201
 1480SOL    MW4 5688   4.738   4.115   2.122  0.2692 -0.2890  0.0864
 1481SOL     OW 5689   2.962   6.370   3.410  0.7530  0.5831  0.4948
 1481SOL    HW2 5690   3.056   6.384   3.401  0.7819 -0.1823 -0.5472
 1481SOL    HW3 5691   2.948   6.280   3.381 -0.6333  1.4971 -1.8840
 1481SOL    MW4 5692   2.972   6.360   3.405 -0.3711  0.0618 -0.1949
 1482SOL     OW 5693   2.805   4.283   3.276  0.2997  0.0194 -0.5243
 1482SOL    HW2 5694   2.889   4.256   3.314 -0.2768  0.2160  0.9704
 1482SOL    HW3 5695   2.824   4.369   3.237  0.5638  0.6181  0.8386
 1482SOL    MW4 5696   2.818   4.291   3.276 -0.1523  0.5831  0.0569
 1483SOL     OW 5697   5.385   0.473   3.897 -0.9443 -0.1191  0.3495
 1483SOL    HW2 5698   5.311   0.418   3.870 -1.0515  0.6928 -1.0627
 1483SOL    HW3 5699   5.401   0.446   3.988 -0.8720 -2.5907 -0.3144
 1483SOL    MW4 5700   5.377   0.462   3.906  0.1695 -0.9267  0.4763
 1484SOL     OW 5701   1.863   3.130   0.600  0.3929 -0.3723  0.0263
 1484SOL    HW2 5702   1.879   3.038   0.577  1.0592  0.0764 -1.4191
 1484SOL    HW3 5703   1.796   3.159   0.539 -0.0977  0.0127  0.7320
 1484SOL    MW4 5704   1.856   3.121   0.589 -0.2140 -0.1458 -0.3771
 1485SOL     OW 5705   0.205   6.035   2.737 -0.8123 -0.0868 -0.2922
 1485SOL    HW2 5706   0.273   6.008   2.675 -0.6121  0.2454 -0.2186
 1485SOL    HW3 5707   0.156   5.955   2.755 -0.7861 -0.2152 -0.7753
 1485SOL    MW4 5708   0.207   6.021   2.731  0.5629  0.2353 -0.0764
 1486SOL     OW 5709   2.509   5.126   5.121  0.2587  0.7848 -0.1032
 1486SOL    HW2 5710   2.577   5.136   5.188  0.9700  0.7681 -0.8102
 1486SOL    HW3 5711   2.500   5.214   5.083  1.3598  0.3636 -1.3998
 1486SOL    MW4 5712   2.517   5.139   5.125 -0.4290  0.1454 -0.0691
 1487SOL     OW 5713   4.815   1.172   2.467 -0.2554  0.3892 -0.1032
 1487SOL    HW2 5714   4.897   1.185   2.514  0.1557 -0.3794 -0.5868
 1487SOL    HW3 5715   4.828   1.091   2.417 -0.9245  0.8177 -1.0043
 1487SOL    MW4 5716   4.827   1.163   2.466 -0.3251 -0.2301 -0.4683
 1488SOL     OW 5717   5.565   4.645   2.290  0.7426 -0.2981 -0.3823
 1488SOL    HW2 5718   5.582   4.551   2.297 -0.9563 -0.5830  0.4866
 1488SOL    HW3 5719   5.576   4.665   2.197  1.3683 -1.2973 -0.5322
 1488SOL    MW4 5720   5.569   4.635   2.279  0.6255 -0.1432  0.5503
 1489SOL     OW 5721   4.579   3.825   0.490 -0.1285  0.1011 -0.4448
 1489SOL    HW2 5722   4.673   3.827   0.510 -0.1971 -1.6247  0.1699
 1489SOL    HW3 5723   4.574   3.781   0.405 -0.4583 -1.3461  0.2928
 1489SOL    MW4 5724   4.591   3.819   0.481 -0.1759 -0.0558  0.2367
 1490SOL     OW 5725   0.739   5.278   5.458  0.0156  0.6596  0.6148
 1490SOL    HW2 5726   0.654   5.241   5.434 -0.3913  0.7460  1.8721
 1490SOL    HW3 5727   0.756   5.246   5.546  1.2252  0.7743  0.4397
 1490SOL    MW4 5728   0.730   5.269   5.466  0.0822 -0.2305 -0.2847
 1491SOL     OW 5729   5.534   4.631   1.167 -0.5094 -0.0405  0.4940
 1491SOL    HW2 5730   5.516   4.538   1.176  1.4803 -0.4136  1.0512
 1491SOL    HW3 5731   5.597   4.651   1.237  0.3777  1.3341 -0.6201
 1491SOL    MW4 5732   5.540   4.621   1.178 -0.8672  1.0716  0.3097
 1492SOL     OW 5733   5.042   1.552   2.975  0.2440 -0.0238 -0.0584
 1492SOL    HW2 5734   4.959   1.530   2.934  0.4234  1.2612 -1.1612
 1492SOL    HW3 5735   5.100   1.575   2.902  0.8529  1.3772  0.8151
 1492SOL    MW4 5736   5.039   1.552   2.960  0.2859  0.4289  0.0191
 1493SOL     OW 5737   4.214   2.669   0.471 -0.3897 -0.0676 -0.2832
 1493SOL    HW2 5738   4.159   2.658   0.393  0.9079 -0.9231 -1.1140
 1493SOL    HW3 5739   4.165   2.625   0.541 -1.5842  0.7484 -0.5846
 1493SOL    MW4 5740   4.200   2.662   0.470  0.3912 -0.4022 -0.6978
 1494SOL     OW 5741   6.033   4.455   6.219  0.3937 -0.0452  0.5722
 1494SOL    HW2 5742   6.119   4.414   6.208 -0.9880 -2.9718 -0.0511
 1494SOL    HW3 5743   6.004   4.473   6.130 -0.5908 -1.2723  0.6217
 1494SOL    MW4 5744   6.041   4.452   6.206  0.2283  0.1103 -0.3167
 1495SOL     OW 5745   4.761   0.155   3.574  0.1850 -0.0863 -0.5336
 1495SOL    HW2 5746   4.756   0.166   3.668 -0.4578 -0.0352 -0.5682
 1495SOL    HW3 5747   4.845   0.111   3.559 -0.0608 -0.8137  0.1300
 1495SOL    MW4 5748   4.771   0.150   3.584  0.3074  0.1036  0.3095
 1496SOL     OW 5749   1.995   3.143   4.745  0.1857 -0.4259 -0.5337
 1496SOL    HW2 5750   1.992   3.108   4.834 -0.6302  1.4729  0.2296
 1496SOL    HW3 5751   2.087   3.136   4.720  0.4794 -0.6971  0.5739
 1496SOL    MW4 5752   2.007   3.137   4.754  0.2127 -0.8291 -0.1169
 1497SOL     OW 5753   5.630   2.052   6.332 -0.0284 -0.3731 -0.0155
 1497SOL    HW2 5754   5.618   1.963   6.366 -1.4288 -0.7557 -1.3718
 1497SOL    HW3 5755   5.702   2.043   6.270 -1.2641 -0.9909 -1.4239
 1497SOL    MW4 5756   5.638   2.039   6.328  0.1969  0.0006  0.1734
 1498SOL     OW 5757   2.070   5.444   6.168 -0.2426 -0.3535 -0.2890
 1498SOL    HW2 5758   2.035   5.496   6.096  1.1785 -0.2425 -0.9420
 1498SOL    HW3 5759   2.105   5.507   6.230 -0.6569 -0.4745  0.0716
 1498SOL    MW4 5760   2.070   5.459   6.167  0.2277 -0.4231  0.2043
 1499SOL     OW 5761   3.739   3.439   0.470 -0.2440 -0.5376  0.5030
 1499SOL    HW2 5762   3.659   3.491   0.471  0.4868  0.6306  0.7098
 1499SOL    HW3 5763   3.764   3.432   0.562 -2.4198 -4.7147  1.0094
 1499SOL    MW4 5764   3.732   3.445   0.482 -0.0214 -0.0220 -0.1831
 1500SOL     OW 5765   3.209   1.917   0.366  0.2050 -0.3972  0.3969
 1500SOL    HW2 5766   3.270   1.976   0.322  0.9410 -1.2677  0.2122
 1500SOL    HW3 5767   3.213   1.836   0.314 -2.0046 -0.0957 -0.3220
 1500SOL    MW4 5768   3.218   1.914   0.353  0.6258 -0.1380 -0.1610
 1501SOL     OW 5769   1.791   3.257   4.566 -0.2192  0.8727  0.0564
 1501SOL    HW2 5770   1.856   3.221   4.626 -0.4141 -2.4287 -1.5260
 1501SOL    HW3 5771   1.712   3.207   4.583 -1.2767  2.2201 -0.6881
 1501SOL    MW4 5772   1.789   3.246   4.576  0.4063 -0.2491 -0.2729
 1502SOL     OW 5773   4.295   5.043   4.517 -0.5247  0.1461 -0.3442
 1502SOL    HW2 5774   4.316   5.118   4.572  0.8249 -0.2781 -0.2556
 1502SOL    HW3 5775   4.200   5.033   4.526 -0.5626  1.1251  0.5437
 1502SOL    MW4 5776   4.285   5.052   4.525  0.3416 -0.2011 -0.3252
 1503SOL     OW 5777   1.892   3.018   2.674 -0.1401  0.2522  0.0786
 1503SOL    HW2 5778   1.942   3.063   2.742  0.7400 -2.4789  1.4043
 1503SOL    HW3 5779   1.917   2.926   2.684 -3.3229 -0.8677 -1.0973
 1503SOL    MW4 5780   1.902   3.012   2.684  0.0484  0.0950  0.0100
 1504SOL     OW 5781   5.628   5.271   2.945 -0.1135  0.3628  0.1084
 1504SOL    HW2 5782   5.681   5.258   3.024 -0.5551 -1.1890  0.1810
 1504SOL    HW3 5783   5.582   5.188   2.933 -0.0864  0.5828 -1.7773
 1504SOL    MW4 5784   5.629   5.258   2.954  0.3361  0.2489 -0.1069
 1505SOL     OW 5785   1.871   4.504   4.540 -0.0019  0.6074  0.6907
 1505SOL    HW2 5786   1.950   4.459   4.571 -1.1939 -0.7664  1.8248
 1505SOL    HW3 5787   1.850   4.566   4.611  0.6211  1.7541 -0.0848
 1505SOL    MW4 5788   1.879   4.506   4.554  0.3070  0.3782 -0.1291
 1506SOL     OW 5789   2.633   1.827   1.365 -0.1110 -0.1936  0.0803
 1506SOL    HW2 5790   2.651   1.794   1.453 -0.9011  0.4535  0.5014
 1506SOL    HW3 5791   2.664   1.759   1.306 -0.6697 -1.1667  0.8904
 1506SOL    MW4 5792   2.640   1.814   1.369  0.3457 -0.6469  0.2854
 1507SOL     OW 5793   1.333   2.478   1.195  0.0438 -0.4521 -0.2129
 1507SOL    HW2 5794   1.366   2.439   1.276 -0.8210  0.7633  0.7546
 1507SOL    HW3 5795   1.246   2.440   1.184  0.0614 -0.4267 -0.4390
 1507SOL    MW4 5796   1.326   2.468   1.204 -0.6046  0.4268 -0.5411
 1508SOL     OW 5797   2.814   4.119   0.872 -0.1543 -0.4459 -0.0934
 1508SOL    HW2 5798   2.826   4.029   0.901 -0.4557 -0.5428 -0.2627
 1508SOL    HW3 5799   2.902   4.153   0.859  0.1124  0.2612  2.8870
 1508SOL    MW4 5800   2.827   4.112   0.874  0.1468 -0.3753  0.1850
 1509SOL     OW 5801   3.975   4.482   6.315 -0.3884  0.5721  0.1703
 1509SOL    HW2 5802   3.912   4.449   6.379 -0.6813 -0.1350 -0.4799
 1509SOL    HW3 5803   4.054   4.430   6.330  0.5180  2.2735  1.8223
 1509SOL    MW4 5804   3.977   4.471   6.326 -0.2951  0.3660 -0.3660
 1510SOL     OW 5805   2.383   0.853   4.057 -0.0075  0.5942 -0.5406
 1510SOL    HW2 5806   2.362   0.795   3.984  3.1682 -1.3229 -0.1125
 1510SOL    HW3 5807   2.362   0.802   4.136  0.1196  1.1657 -0.1275
 1510SOL    MW4 5808   2.378   0.839   4.058  0.6543  0.4896 -0.5653
 1511SOL     OW 5809   6.067   4.216   2.917  0.2628 -0.1544 -0.7002
 1511SOL    HW2 5810   5.977   4.222   2.886 -0.1213 -0.9535  0.2065
 1511SOL    HW3 5811   6.065   4.149   2.985  1.3135  0.6648  0.1873
 1511SOL    MW4 5812   6.055   4.208   2.922 -0.0748  0.1230  0.4644
 1512SOL     OW 5813   3.967   3.513   1.785 -0.1338 -0.9433  0.2837
 1512SOL    HW2 5814   3.880   3.521   1.746  0.4705  1.5096 -0.7749
 1512SOL    HW3 5815   4.027   3.539   1.715  1.6066 -3.8042  0.5963
 1512SOL    MW4 5816   3.964   3.518   1.771  0.2489  0.7386  0.3519
 1513SOL     OW 5817   2.168   2.097   1.299  0.2329  0.5437  0.2059
 1513SOL    HW2 5818   2.206   2.136   1.378 -1.7820  0.5060  1.2920
 1513SOL    HW3 5819   2.182   2.162   1.230  1.8479  0.6790  0.6312
 1513SOL    MW4 5820   2.175   2.111   1.301  0.3036 -0.1942  0.3158
 1514SOL     OW 5821   6.029   6.356   1.004 -0.0046 -0.8528 -0.1431
 1514SOL    HW2 5822   6.104   6.384   1.056 -0.3025  0.8108 -0.5454
 1514SOL    HW3 5823   5.964   6.327   1.068  0.3241 -0.6207  0.2932
 1514SOL    MW4 5824   6.030   6.356   1.019  0.5393 -0.2741 -0.4554
 1515SOL     OW 5825   1.189   4.720   6.198 -0.3701 -0.3448  0.2799
 1515SOL    HW2 5826   1.095   4.734   6.188 -0.3782  0.7771  1.5422
 1515SOL    HW3 5827   1.201   4.627   6.181 -1.2626 -0.0262 -2.6390
 1515SOL    MW4 5828   1.178   4.710   6.195  0.3340  0.8364 -0.1436
 1516SOL     OW 5829   5.147   3.827   2.510  0.5982  0.3159 -0.3504
 1516SOL    HW2 5830   5.209   3.801   2.442 -0.7213 -1.1451 -1.0569
 1516SOL    HW3 5831   5.141   3.922   2.501  0.7776  0.2048 -1.9991
 1516SOL    MW4 5832   5.154   3.836   2.500 -0.6616 -0.1442 -0.1337
 1517SOL     OW 5833   0.880   0.042   3.300  0.2906 -0.1496  0.0325
 1517SOL    HW2 5834   0.929  -0.034   3.268  0.4390 -0.5471  1.1547
 1517SOL    HW3 5835   0.802   0.004   3.340  0.2202  0.3204  0.3416
 1517SOL    MW4 5836   0.876   0.027   3.301 -0.5820  0.6791 -0.0122
 1518SOL     OW 5837   3.881   4.320   2.018 -0.2378  0.3464  0.2275
 1518SOL    HW2 5838   3.974   4.316   1.998 -0.0139  0.0762  1.2995
 1518SOL    HW3 5839   3.850   4.230   2.005 -0.3343  0.4121 -0.0131
 1518SOL    MW4 5840   3.889   4.307   2.013  0.4025  0.8061  0.2472
 1519SOL     OW 5841   3.417   1.588   1.616  0.4224 -0.2905  0.5834
 1519SOL    HW2 5842   3.415   1.672   1.663  0.0537 -0.4679  0.8881
 1519SOL    HW3 5843   3.377   1.607   1.532 -0.2957 -0.3164  0.9157
 1519SOL    MW4 5844   3.412   1.602   1.611 -0.0204 -0.5482  0.1005
 1520SOL     OW 5845   3.524   0.683   5.206  0.6673  0.1032  0.1273
 1520SOL    HW2 5846   3.520   0.767   5.162  1.1555 -0.5728 -1.2715
 1520SOL    HW3 5847   3.433   0.651   5.207  0.2851  1.1088  1.6944
 1520SOL    MW4 5848   3.511   0.690   5.201 -0.2335 -0.0214 -0.3923
 1521SOL     OW 5849   1.935   1.875   2.661 -0.1369 -0.2773 -0.0151
 1521SOL    HW2 5850   1.876   1.949   2.647  0.2179  0.0493  0.2026
 1521SOL    HW3 5851   1.961   1.881   2.753  0.1302 -0.4934 -0.0726
 1521SOL    MW4 5852   1.931   1.886   2.671  0.0187 -0.0321  0.3264
 1522SOL     OW 5853   5.810   3.903   3.871 -0.0299 -0.2098 -0.5971
 1522SOL    HW2 5854   5.783   3.813   3.887  1.0864 -0.3999  0.4300
 1522SOL    HW3 5855   5.850   3.931   3.954  0.8338  0.7668 -1.3085
 1522SOL    MW4 5856   5.812   3.895   3.884 -0.3601 -0.2307  0.0372
 1523SOL     OW 5857   2.105   1.891   1.036 -0.0984  0.2506  0.2300
 1523SOL    HW2 5858   2.056   1.970   1.057  1.5705  1.5250 -0.4089
 1523SOL    HW3 5859   2.188   1.900   1.084  0.7102 -0.3674 -0.9900
 1523SOL    MW4 5860   2.110   1.903   1.045  0.1784  0.2944 -0.1108
 1524SOL     OW 5861   5.909   0.970   4.607 -0.0467  0.2223  0.1181
 1524SOL    HW2 5862   5.981   1.016   4.564  0.0263  0.3003  0.3256
 1524SOL    HW3 5863   5.837   1.034   4.608 -0.5205 -0.2445 -1.1783
 1524SOL    MW4 5864   5.909   0.984   4.601  0.7439 -0.3807  0.1860
 1525SOL     OW 5865   4.868   1.538   0.937 -0.6150 -0.2130  0.1155
 1525SOL    HW2 5866   4.862   1.633   0.949 -0.0539 -0.2062  0.3721
 1525SOL    HW3 5867   4.915   1.508   1.015  1.6161 -0.3811 -1.2427
 1525SOL    MW4 5868   4.873   1.547   0.949 -0.6346  1.0367  0.4321
 1526SOL     OW 5869   2.192   2.191   5.925  0.2557 -0.1190 -0.4290
 1526SOL    HW2 5870   2.240   2.116   5.892  2.5628  0.7618  0.7322
 1526SOL    HW3 5871   2.150   2.160   6.005  2.1915  0.0568  0.7116
 1526SOL    MW4 5872   2.193   2.177   5.931  0.1223  0.4707 -0.4320
 1527SOL     OW 5873   4.692   4.182   0.811 -0.5056 -0.0939  0.9704
 1527SOL    HW2 5874   4.731   4.164   0.726  0.2941  2.4809  0.7008
 1527SOL    HW3 5875   4.652   4.100   0.837 -3.2219 -0.3565 -3.1247
 1527SOL    MW4 5876   4.692   4.169   0.803  0.3288  0.4668  0.0465
 1528SOL     OW 5877   0.422   6.171   4.367  0.3813 -0.1515  0.6397
 1528SOL    HW2 5878   0.383   6.154   4.453 -0.6155 -2.5140 -0.1857
 1528SOL    HW3 5879   0.512   6.140   4.375  0.8718  1.3462  1.3122
 1528SOL    MW4 5880   0.429   6.165   4.380  0.2075  0.4535  0.0222
 1529SOL     OW 5881   0.180   5.379   0.773 -0.2928  0.4426  0.2980
 1529SOL    HW2 5882   0.219   5.292   0.785  0.1269  0.5367 -0.3544
 1529SOL    HW3 5883   0.100   5.362   0.722 -1.6396  0.1406  2.3759
 1529SOL    MW4 5884   0.174   5.365   0.768 -0.1716  0.1224  0.6406
 1530SOL     OW 5885   1.454   1.837   2.302  0.4005 -0.6478 -0.1258
 1530SOL    HW2 5886   1.405   1.838   2.384  1.9200 -0.2038  0.8188
 1530SOL    HW3 5887   1.447   1.747   2.270  0.7451 -1.1256  1.1006
 1530SOL    MW4 5888   1.447   1.825   2.309  0.3471 -0.1131  0.1379
 1531SOL     OW 5889   4.831   0.915   4.133 -0.1559  0.3306 -0.6287
 1531SOL    HW2 5890   4.916   0.951   4.160 -0.6051  1.1360 -0.2546
 1531SOL    HW3 5891   4.844   0.888   4.042  0.0011  2.1136 -1.1721
 1531SOL    MW4 5892   4.844   0.916   4.125 -0.0667 -0.1965  0.6973
 1532SOL     OW 5893   3.945   6.082   2.991 -0.5051 -0.3461 -0.0333
 1532SOL    HW2 5894   4.035   6.052   2.993 -0.2929  0.2774  0.1540
 1532SOL    HW3 5895   3.902   6.027   2.926  0.1340 -0.2876 -0.5088
 1532SOL    MW4 5896   3.951   6.071   2.983  0.4554 -0.3543  0.5799
 1533SOL     OW 5897   1.653   2.637   0.497 -0.2436 -0.0763  0.1716
 1533SOL    HW2 5898   1.673   2.550   0.462  1.0005 -0.0373  0.7232
 1533SOL    HW3 5899   1.558   2.638   0.505 -0.3520 -1.0438 -0.7086
 1533SOL    MW4 5900   1.643   2.625   0.493  0.4019 -0.1902  0.2245
 1534SOL     OW 5901   3.087   4.273   4.354 -0.3950  0.1938  0.4742
 1534SOL    HW2 5902   3.157   4.264   4.419  1.1049 -0.2835 -1.1473
 1534SOL    HW3 5903   3.120   4.228   4.277 -2.8209 -0.6714 -0.1218
 1534SOL    MW4 5904   3.101   4.266   4.352 -0.3636 -0.6300 -0.1313
 1535SOL     OW 5905   3.477   2.341   3.968 -0.2558 -0.1744  0.2525
 1535SOL    HW2 5906   3.567   2.324   3.994 -0.7135 -0.7242  1.5337
 1535SOL    HW3 5907   3.480   2.429   3.928  0.6712  0.2176  1.1504
 1535SOL    MW4 5908   3.489   2.351   3.966 -0.2243  0.2138 -0.4820
 1536SOL     OW 5909   0.808   0.676   1.415 -0.1942 -0.2469 -0.2065
 1536SOL    HW2 5910   0.772   0.620   1.346 -0.1700  0.4004 -0.7506
 1536SOL    HW3 5911   0.739   0.740   1.432 -0.6101 -1.0041  1.0985
 1536SOL    MW4 5912   0.794   0.677   1.408  0.3526 -0.1011 -0.6870
 1537SOL     OW 5913   3.639   5.435   4.784  0.1166  0.1358  0.4611
 1537SOL    HW2 5914   3.653   5.341   4.774  1.6866  0.5201 -1.3253
 1537SOL    HW3 5915   3.696   5.460   4.857 -1.6803 -0.5278  2.2016
 1537SOL    MW4 5916   3.648   5.426   4.792  0.0277  0.2256  0.5243
 1538SOL     OW 5917   4.938   5.238   2.832  0.2464 -0.1030 -0.1334
 1538SOL    HW2 5918   4.949   5.146   2.805  0.8213  0.0154 -0.3094
 1538SOL    HW3 5919   4.843   5.247   2.846  0.0415 -0.4290 -1.1920
 1538SOL    MW4 5920   4.927   5.227   2.830  0.5625  0.1001  0.1711
 1539SOL     OW 5921   2.490   3.449   4.427  0.6378 -0.3688  0.6795
 1539SOL    HW2 5922   2.576   3.435   4.389  0.3395 -2.2610  0.6176
 1539SOL    HW3 5923   2.490   3.397   4.507 -0.9181 -1.5930 -0.0633
 1539SOL    MW4 5924   2.501   3.440   4.433 -0.1201 -0.0174 -0.0380
 1540SOL     OW 5925   5.239   5.558   2.221 -0.9223  0.3651 -0.5067
 1540SOL    HW2 5926   5.174   5.624   2.248 -2.4333 -0.4839 -1.9051
 1540SOL    HW3 5927   5.201   5.475   2.249  0.3700 -0.0492  0.1040
 1540SOL    MW4 5928   5.225   5.556   2.229 -0.0534 -0.3651 -0.2461
 1541SOL     OW 5929   1.849   5.683   5.779 -0.1287 -0.1863 -0.3411
 1541SOL    HW2 5930   1.798   5.632   5.842  0.6002 -1.4538 -0.7199
 1541SOL    HW3 5931   1.828   5.643   5.694  0.1419  0.4383 -0.7081
 1541SOL    MW4 5932   1.839   5.671   5.776 -0.3520  0.1458 -0.2087
 1542SOL     OW 5933   2.263   2.815   4.658 -0.7180 -0.2739  0.0464
 1542SOL    HW2 5934   2.265   2.910   4.668 -0.2475 -0.1615 -0.9730
 1542SOL    HW3 5935   2.291   2.800   4.567  2.2041 -1.5166  1.0225
 1542SOL    MW4 5936   2.267   2.825   4.647  0.2704 -0.6570  0.0233
 1543SOL     OW 5937   3.184   4.171   6.306  0.0819  0.4937 -0.2426
 1543SOL    HW2 5938   3.179   4.167   6.210 -1.6550  0.0708 -0.1602
 1543SOL    HW3 5939   3.201   4.264   6.325 -3.2796  1.3859 -0.9164
 1543SOL    MW4 5940   3.186   4.183   6.296  0.1775 -0.0773  0.5798
 1544SOL     OW 5941   4.975   5.578   1.426 -0.1232 -0.3799  0.6367
 1544SOL    HW2 5942   4.960   5.654   1.370 -2.2144 -1.3733 -0.2805
 1544SOL    HW3 5943   4.888   5.557   1.462  0.4228 -2.2076  1.0174
 1544SOL    MW4 5944   4.961   5.585   1.423 -0.5306 -0.1234  0.2976
 1545SOL     OW 5945   4.317   6.012   5.386  0.0066 -0.2245 -0.4924
 1545SOL    HW2 5946   4.407   5.989   5.362  1.6518  1.2981  3.4495
 1545SOL    HW3 5947   4.286   6.065   5.313  3.4893  1.7820 -0.7312
 1545SOL    MW4 5948   4.325   6.016   5.373  0.0621  0.0524 -0.1089
 1546SOL     OW 5949   5.945   3.971   0.946  0.8746 -0.1654  0.0811
 1546SOL    HW2 5950   5.898   3.974   0.862  1.6334  0.2980 -0.3382
 1546SOL    HW3 5951   5.990   3.887   0.945  1.9659  0.3978 -0.5982
 1546SOL    MW4 5952   5.945   3.960   0.935 -0.1751 -0.0593  0.2688
 1547SOL     OW 5953   2.274   3.530   5.851 -1.0747  0.3323  0.1290
 1547SOL    HW2 5954   2.350   3.471   5.844 -0.8682  0.7682 -3.6474
 1547SOL    HW3 5955   2.220   3.508   5.775 -2.5694  2.9138  0.3355
 1547SOL    MW4 5956   2.277   3.520   5.840 -0.3543  0.0049 -0.4012
 1548SOL     OW 5957   1.744   3.258   2.640 -0.6675 -0.2499  0.3631
 1548SOL    HW2 5958   1.775   3.168   2.632 -0.8487 -0.2517 -0.4157
 1548SOL    HW3 5959   1.729   3.286   2.550  0.4312  0.9307  0.5133
 1548SOL    MW4 5960   1.746   3.250   2.627 -0.4812  0.0019  0.1152
 1549SOL     OW 5961   5.944   3.978   6.333  0.1127  0.0709  0.2869
 1549SOL    HW2 5962   6.028   3.943   6.303  0.7691  1.1529  0.8052
 1549SOL    HW3 5963   5.967   4.040   6.402 -0.9142  2.0886 -1.0871
 1549SOL    MW4 5964   5.958   3.982   6.338 -0.1686  0.4838  0.3633
 1550SOL     OW 5965   5.292   5.633   3.777  0.0955  0.3665  0.4472
 1550SOL    HW2 5966   5.330   5.620   3.690 -0.0697  0.6619  0.3252
 1550SOL    HW3 5967   5.273   5.545   3.809 -1.3603  0.2930 -0.5110
 1550SOL    MW4 5968   5.294   5.620   3.770  0.0660 -0.0547  0.4857
 1551SOL     OW 5969   2.248   4.445   0.640 -0.2088 -0.1234 -0.5379
 1551SOL    HW2 5970   2.247   4.539   0.662  0.0944 -0.6282  1.9915
 1551SOL    HW3 5971   2.292   4.404   0.715 -1.3323 -2.4240 -1.0515
 1551SOL    MW4 5972   2.254   4.452   0.653 -0.6397 -0.3963  0.0376
 1552SOL     OW 5973   1.555   5.944   5.464  0.5571  0.1535  0.3106
 1552SOL    HW2 5974   1.557   6.039   5.469 -1.9160  0.2721  0.3537
 1552SOL    HW3 5975   1.602   5.914   5.542  0.0405  1.3542  1.1036
 1552SOL    MW4 5976   1.561   5.952   5.475 -0.1847 -0.5246  0.0951
 1553SOL     OW 5977   1.993   4.923   5.365  0.0075 -0.0499 -0.0456
 1553SOL    HW2 5978   1.994   4.940   5.459 -1.9536  0.8784 -0.1386
 1553SOL    HW3 5979   2.044   4.995   5.327  1.6321 -0.9559  0.3285
 1553SOL    MW4 5980   2.000   4.935   5.372 -0.5400  0.3881 -0.2744
 1554SOL     OW 5981   1.561   3.815   4.877 -0.5870 -0.1322 -0.0888
 1554SOL    HW2 5982   1.579   3.845   4.966 -1.5325 -1.3074  0.5402
 1554SOL    HW3 5983   1.611   3.874   4.821  1.6742 -0.5638  1.2961
 1554SOL    MW4 5984   1.570   3.827   4.882 -0.5347 -0.0097 -0.2458
 1555SOL     OW 5985   1.140   1.433   4.326 -0.1865  0.3840  0.1701
 1555SOL    HW2 5986   1.134   1.469   4.414 -0.1907 -2.1199  1.2779
 1555SOL    HW3 5987   1.224   1.387   4.324 -0.1057  0.5462 -1.1989
 1555SOL    MW4 5988   1.150   1.432   4.337  0.5244  0.2885 -0.6493
 1556SOL     OW 5989   6.008   4.561   4.532 -0.0087 -0.1786  0.3158
 1556SOL    HW2 5990   5.920   4.525   4.522 -1.0191  2.4846 -1.2700
 1556SOL    HW3 5991   6.000   4.622   4.605  0.5071  0.1893  0.0625
 1556SOL    MW4 5992   5.995   4.564   4.540 -0.0238 -0.5032 -0.2826
 1557SOL     OW 5993   2.355   1.992   5.845  0.5609  0.3607 -0.0316
 1557SOL    HW2 5994   2.440   1.949   5.842  1.1463  1.2138  2.0037
 1557SOL    HW3 5995   2.341   2.026   5.757  1.5509 -1.1873 -0.8171
 1557SOL    MW4 5996   2.364   1.991   5.833  0.0437 -0.1999  0.5603
 1558SOL     OW 5997   3.626   4.693   2.563 -0.0983  0.0496 -0.1483
 1558SOL    HW2 5998   3.646   4.600   2.574 -1.2919 -0.2234 -0.1566
 1558SOL    HW3 5999   3.569   4.714   2.637  0.1910  0.7873 -0.1322
 1558SOL    MW4 6000   3.621   4.683   2.574 -0.2836 -0.5836 -0.1934
 1559SOL     OW 6001   4.030   0.490   2.041  0.1237  0.4686 -0.1206
 1559SOL    HW2 6002   4.030   0.578   2.003 -0.8847  0.6885  0.3444
 1559SOL    HW3 6003   3.953   0.448   2.004  1.2541 -0.6751 -1.2803
 1559SOL    MW4 6004   4.020   0.496   2.031  0.2857 -0.1586  0.5597
 1560SOL     OW 6005   3.889   4.254   5.919 -0.2505  0.7033 -0.0701
 1560SOL    HW2 6006   3.808   4.297   5.943 -0.0339  0.2584  1.5488
 1560SOL    HW3 6007   3.954   4.288   5.980  0.2433 -0.7739  0.2644
 1560SOL    MW4 6008   3.887   4.264   5.930  0.2346 -0.2516  0.1938
 1561SOL     OW 6009   2.682   2.145   6.421 -0.4701 -0.7631  0.8098
 1561SOL    HW2 6010   2.748   2.086   6.460  0.1280 -0.5061  0.2039
 1561SOL    HW3 6011   2.671   2.214   6.486 -0.4605 -1.0364  1.1061
 1561SOL    MW4 6012   2.689   2.146   6.435  0.6041 -0.6919 -0.5153
 1562SOL     OW 6013   3.706   0.242   4.317  0.0042 -0.0366  0.0781
 1562SOL    HW2 6014   3.749   0.285   4.392  0.4721  0.3912 -0.4294
 1562SOL    HW3 6015   3.662   0.314   4.272 -0.6391 -0.3635  0.1804
 1562SOL    MW4 6016   3.706   0.257   4.321  0.4393  0.3651 -0.3985
 1563SOL     OW 6017   0.062   2.838   3.808  0.1337  0.0820  0.5608
 1563SOL    HW2 6018   0.114   2.764   3.776  0.9281 -0.4029  2.7981
 1563SOL    HW3 6019   0.090   2.912   3.755  0.6649 -0.8408 -0.4935
 1563SOL    MW4 6020   0.073   2.838   3.797 -0.1285  0.3429  0.6743
 1564SOL     OW 6021   1.403   5.150   0.242 -0.3473 -0.6352 -0.7705
 1564SOL    HW2 6022   1.456   5.106   0.307  0.3763 -0.7245 -1.4048
 1564SOL    HW3 6023   1.322   5.173   0.288 -0.2780 -1.6171 -0.1310
 1564SOL    MW4 6024   1.399   5.147   0.256 -0.5314 -0.6918  0.2243
 1565SOL     OW 6025   6.430   4.492   0.104 -0.1630  0.6561 -0.1263
 1565SOL    HW2 6026   6.372   4.529   0.171  1.7401  1.9029  0.9150
 1565SOL    HW3 6027   6.465   4.569   0.059  2.9650  0.1855  1.2859
 1565SOL    MW4 6028   6.427   4.507   0.107 -0.2251  0.0407  0.5652
 1566SOL     OW 6029   3.057   4.760   2.768 -0.5576 -0.4487  0.4853
 1566SOL    HW2 6030   2.987   4.755   2.702  0.8470 -0.8638 -1.0519
 1566SOL    HW3 6031   3.121   4.820   2.730  0.2078 -0.5503  1.5717
 1566SOL    MW4 6032   3.056   4.767   2.754 -0.1352 -0.2699 -0.1129
 1567SOL     OW 6033   3.481   0.646   3.317 -0.1658  0.3124 -0.1346
 1567SOL    HW2 6034   3.557   0.682   3.363  0.9343  0.8815 -2.2551
 1567SOL    HW3 6035   3.428   0.723   3.294  1.6179  0.7075 -3.6728
 1567SOL    MW4 6036   3.484   0.661   3.320 -0.1312  0.3788  0.3120
 1568SOL     OW 6037   3.798   0.662   3.321  0.0667 -0.3080  0.4377
 1568SOL    HW2 6038   3.810   0.751   3.289  3.3622 -0.1534  1.7249
 1568SOL    HW3 6039   3.780   0.672   3.414 -0.6219 -0.9944  0.3925
 1568SOL    MW4 6040   3.797   0.675   3.329 -0.0567  0.1952 -0.0939
 1569SOL     OW 6041   4.003   4.232   3.183 -0.2348  0.0541 -0.8923
 1569SOL    HW2 6042   4.012   4.139   3.159 -1.2799  0.3963 -2.8090
 1569SOL    HW3 6043   4.092   4.260   3.205 -0.0227 -1.5888  0.5935
 1569SOL    MW4 6044   4.016   4.223   3.183 -0.4344  0.3414  0.5843
 1570SOL     OW 6045   6.013   4.565   0.281  0.3269 -0.1807 -0.2705
 1570SOL    HW2 6046   5.992   4.559   0.188  0.6980  0.7198 -0.4172
 1570SOL    HW3 6047   6.105   4.590   0.283 -0.1155  1.4626  0.3179
 1570SOL    MW4 6048   6.022   4.567   0.269  0.0671  0.4637 -0.1478
 1571SOL     OW 6049   1.314   0.438   0.584  0.2901 -0.4299 -0.0915
 1571SOL    HW2 6050   1.296   0.453   0.676  1.1973 -0.8814  0.1715
 1571SOL    HW3 6051   1.331   0.344   0.578  1.4063 -0.2228 -0.4981
 1571SOL    MW4 6052   1.314   0.427   0.595 -0.2110 -0.2904 -0.3205
 1572SOL     OW 6053   5.015   0.897   2.484  0.1181 -0.3933 -0.1017
 1572SOL    HW2 6054   5.022   0.828   2.550  1.3916 -0.7140 -0.5432
 1572SOL    HW3 6055   5.041   0.977   2.529  0.6870 -0.5613 -0.1245
 1572SOL    MW4 6056   5.019   0.898   2.498 -0.5366  0.2396 -0.0962
 1573SOL     OW 6057   1.944   5.888   4.534  0.0228  0.4941  0.8797
 1573SOL    HW2 6058   1.925   5.805   4.491 -1.3536  0.8403  0.7911
 1573SOL    HW3 6059   2.031   5.875   4.572  0.7455 -0.2586 -0.9021
 1573SOL    MW4 6060   1.953   5.875   4.533 -1.4029  0.1206 -0.2996
 1574SOL     OW 6061   2.231   1.128   2.438  0.0128  0.0829 -0.3880
 1574SOL    HW2 6062   2.295   1.181   2.486  0.0803 -2.1281  2.2001
 1574SOL    HW3 6063   2.153   1.128   2.493 -0.2548 -1.7678 -0.6817
 1574SOL    MW4 6064   2.229   1.135   2.451  0.0464 -0.6432  0.1917
 1575SOL     OW 6065   5.596   0.024   0.301  0.4197 -0.3221 -0.5613
 1575SOL    HW2 6066   5.679   0.069   0.284  0.6164 -0.7165 -0.6825
 1575SOL    HW3 6067   5.605  -0.010   0.390  0.5200 -0.6345 -0.6878
 1575SOL    MW4 6068   5.608   0.025   0.310 -0.0448 -0.3549  0.1217
 1576SOL     OW 6069   6.005   5.685   3.388 -0.2294  0.1256 -0.1018
 1576SOL    HW2 6070   5.974   5.724   3.470 -0.7749  0.0796 -0.2836
 1576SOL    HW3 6071   6.074   5.744   3.359 -0.2066  0.2820  0.2585
 1576SOL    MW4 6072   6.010   5.698   3.395 -0.1503  0.2245 -0.1029
 1577SOL     OW 6073   2.722   4.410   5.544  0.0769  0.1956 -0.6743
 1577SOL    HW2 6074   2.647   4.431   5.489  0.2362 -1.8141 -1.7329
 1577SOL    HW3 6075   2.783   4.363   5.487  0.4685 -1.5290  1.0435
 1577SOL    MW4 6076   2.720   4.406   5.529  0.2840  0.0724  0.4506
 1578SOL     OW 6077   1.799   2.096   5.872  0.4188  0.2103  0.1363
 1578SOL    HW2 6078   1.774   2.084   5.781 -0.9505 -2.4332  0.7589
 1578SOL    HW3 6079   1.849   2.018   5.894 -2.7823 -1.3680  2.6792
 1578SOL    MW4 6080   1.802   2.084   5.863  0.0903 -0.2428 -0.4210
 1579SOL     OW 6081   5.439   3.488   4.575  0.8286 -0.4433  0.5741
 1579SOL    HW2 6082   5.451   3.443   4.659  0.0913 -0.4069  0.7059
 1579SOL    HW3 6083   5.345   3.501   4.568  1.0108  1.1244  0.5633
 1579SOL    MW4 6084   5.428   3.484   4.586 -0.2083  0.0797 -0.4404
 1580SOL     OW 6085   0.712   5.248   4.278 -1.1020 -0.6573  0.2005
 1580SOL    HW2 6086   0.797   5.205   4.265 -1.0763 -0.4491 -0.3532
 1580SOL    HW3 6087   0.651   5.195   4.226 -0.8258  0.7800 -1.6794
 1580SOL    MW4 6088   0.715   5.235   4.269  0.1200 -0.1437 -0.0921
 1581SOL     OW 6089   3.159   6.102   0.420 -0.2581 -0.0042  0.0373
 1581SOL    HW2 6090   3.131   6.121   0.330 -0.4162  0.1267  0.1138
 1581SOL    HW3 6091   3.106   6.160   0.474 -0.3973 -0.3163  0.2398
 1581SOL    MW4 6092   3.148   6.112   0.415  0.2911 -0.2835 -0.1348
 1582SOL     OW 6093   6.081   1.662   6.091  0.3097 -0.7139 -0.2951
 1582SOL    HW2 6094   6.044   1.643   6.005  0.5453  0.0925 -0.5864
 1582SOL    HW3 6095   6.172   1.635   6.085  0.7531  0.7895 -0.8427
 1582SOL    MW4 6096   6.088   1.656   6.079  0.3508 -0.0124  0.7938
 1583SOL     OW 6097   2.910   3.810   1.531  0.0825  0.1209  0.2874
 1583SOL    HW2 6098   2.870   3.885   1.488  0.4574  0.4629  0.5274
 1583SOL    HW3 6099   2.948   3.759   1.459  1.4114  1.1073  0.2495
 1583SOL    MW4 6100   2.910   3.813   1.516  0.7215  0.0975  0.2946
 1584SOL     OW 6101   3.476   5.990   0.781 -0.4831  0.1353 -0.1955
 1584SOL    HW2 6102   3.409   5.947   0.834 -0.1619 -0.7730 -0.4994
 1584SOL    HW3 6103   3.515   6.054   0.839  1.0873 -2.0540  1.3017
 1584SOL    MW4 6104   3.472   5.993   0.796  0.1579  0.7180 -0.0523
 1585SOL     OW 6105   3.765   3.990   4.989  0.7221  0.9530 -0.7697
 1585SOL    HW2 6106   3.676   3.970   5.021  0.7748  0.1104 -1.1213
 1585SOL    HW3 6107   3.809   4.029   5.065  1.2032 -2.0190  0.6243
 1585SOL    MW4 6108   3.759   3.993   5.004 -1.0736  0.4611  0.2249
 1586SOL     OW 6109   0.665   4.947   4.590  0.3826  0.7687 -0.0021
 1586SOL    HW2 6110   0.726   5.019   4.606 -0.4202  1.5347 -0.3335
 1586SOL    HW3 6111   0.721   4.869   4.589  1.0088  1.0800  2.5720
 1586SOL    MW4 6112   0.681   4.946   4.592  0.3125 -0.0776 -0.4114
 1587SOL     OW 6113   0.937   3.862   4.216 -0.3657 -0.0777 -0.2081
 1587SOL    HW2 6114   0.944   3.794   4.283 -1.9205 -0.9635 -0.8941
 1587SOL    HW3 6115   0.866   3.832   4.159 -2.0433  2.7109  0.2176
 1587SOL    MW4 6116   0.929   3.849   4.217 -0.1402  0.3025  0.2859
 1588SOL     OW 6117   0.765   1.729   6.000  0.4702 -0.5833 -0.7174
 1588SOL    HW2 6118   0.827   1.656   6.006 -1.6202 -2.2806  2.6706
 1588SOL    HW3 6119   0.684   1.690   5.968 -0.3007  0.5670 -0.2354
 1588SOL    MW4 6120   0.763   1.714   5.996  0.1768  0.6672 -0.0728
 1589SOL     OW 6121   1.096   3.222   4.457 -0.3401 -0.0537 -0.3454
 1589SOL    HW2 6122   1.131   3.148   4.406 -0.3923  0.2185 -0.7843
 1589SOL    HW3 6123   1.083   3.187   4.545 -0.7933 -0.7008 -0.6598
 1589SOL    MW4 6124   1.099   3.208   4.462 -0.3107 -0.4185 -0.4197
 1590SOL     OW 6125   4.164   1.977   1.248 -0.1085 -0.5508  0.0794
 1590SOL    HW2 6126   4.140   1.914   1.316  0.3764 -0.6710  0.1417
 1590SOL    HW3 6127   4.111   1.953   1.173  0.9239 -1.7807 -0.2829
 1590SOL    MW4 6128   4.154   1.966   1.247  0.4226 -0.4870 -0.3296
 1591SOL     OW 6129   3.497   2.394   5.889 -0.3028 -0.2763 -0.5915
 1591SOL    HW2 6130   3.535   2.459   5.948  0.1722 -2.2199  1.3413
 1591SOL    HW3 6131   3.404   2.416   5.886 -0.3080 -0.0126  0.7597
 1591SOL    MW4 6132   3.490   2.406   5.896  0.0087 -0.1635  0.5258
 1592SOL     OW 6133   1.706   5.402   1.935 -0.0172 -0.6788 -0.6097
 1592SOL    HW2 6134   1.636   5.426   1.874 -1.0072 -2.1304 -0.1130
 1592SOL    HW3 6135   1.745   5.485   1.962 -1.6998  0.1976 -0.7411
 1592SOL    MW4 6136   1.701   5.416   1.931  0.0650 -0.0768 -0.0522
 1593SOL     OW 6137   4.680   0.555   6.167 -0.0787  0.3129  0.2679
 1593SOL    HW2 6138   4.655   0.645   6.190 -0.4910  0.9803 -2.4007
 1593SOL    HW3 6139   4.774   0.560   6.148  0.2322 -0.1970  1.5626
 1593SOL    MW4 6140   4.689   0.567   6.167 -0.3460  0.3766  0.0366
 1594SOL     OW 6141   4.692   2.659   6.428 -0.3458 -0.2920  0.2498
 1594SOL    HW2 6142   4.680   2.751   6.406 -0.5648 -0.4415 -0.2807
 1594SOL    HW3 6143   4.722   2.618   6.347  0.9394 -0.4713  0.7877
 1594SOL    MW4 6144   4.694   2.665   6.414  0.0699 -0.1441 -0.0877
 1595SOL     OW 6145   3.209   3.462   0.146  0.4676 -0.3724  0.2018
 1595SOL    HW2 6146   3.300   3.443   0.123  0.4615 -1.1801  0.8275
 1595SOL    HW3 6147   3.213   3.493   0.236  0.0175 -1.3492  0.5650
 1595SOL    MW4 6148   3.222   3.464   0.155  0.2718 -0.2735  0.0085
 1596SOL     OW 6149   1.597   2.606   1.440  0.4127  0.6498 -0.0383
 1596SOL    HW2 6150   1.505   2.626   1.424 -0.4907 -2.5949  0.2634
 1596SOL    HW3 6151   1.614   2.642   1.527 -0.4234  1.7157 -0.2971
 1596SOL    MW4 6152   1.587   2.613   1.450 -0.0925 -0.3506 -0.5458
 1597SOL     OW 6153   3.091   1.284   0.724  0.3531  0.3448 -0.0333
 1597SOL    HW2 6154   3.069   1.370   0.689  4.2377  1.5704  0.0541
 1597SOL    HW3 6155   3.019   1.262   0.783 -1.9961  2.2881 -2.0014
 1597SOL    MW4 6156   3.079   1.292   0.727  0.0363  0.0524 -0.5459
 1598SOL     OW 6157   4.185   1.346   5.522 -0.6249  0.3459 -0.1205
 1598SOL    HW2 6158   4.255   1.410   5.511 -1.0073  0.4572 -2.5900
 1598SOL    HW3 6159   4.110   1.398   5.551 -0.0638  0.4196  1.2938
 1598SOL    MW4 6160   4.184   1.361   5.524  0.2115  0.6147 -0.2286
 1599SOL     OW 6161   1.210   6.348   1.659  0.3450 -1.6335  0.2313
 1599SOL    HW2 6162   1.277   6.391   1.711  0.7399 -0.1123 -1.4332
 1599SOL    HW3 6163   1.250   6.340   1.572 -1.9119  0.1707 -1.0633
 1599SOL    MW4 6164   1.224   6.352   1.654  0.2816 -0.1470  0.2380
 1600SOL     OW 6165   4.360   0.346   6.343 -0.1663  0.0572  0.6192
 1600SOL    HW2 6166   4.400   0.333   6.257 -1.3966 -0.5472  0.1154
 1600SOL    HW3 6167   4.278   0.296   6.340  0.3764 -1.0613  2.6107
 1600SOL    MW4 6168   4.354   0.338   6.331  0.2496  0.7036  0.0784
 1601SOL     OW 6169   2.563   1.095   3.490 -0.0494 -0.2143  0.1519
 1601SOL    HW2 6170   2.479   1.071   3.449 -0.9654  0.8262  1.3135
 1601SOL    HW3 6171   2.560   1.191   3.492  1.2862 -0.1628  0.0195
 1601SOL    MW4 6172   2.551   1.105   3.485  0.1292 -0.0320  0.1162
 1602SOL     OW 6173   1.519   6.090   1.705  0.3885 -0.0786 -0.0151
 1602SOL    HW2 6174   1.581   6.018   1.716  0.7499  0.2664  0.2663
 1602SOL    HW3 6175   1.574   6.169   1.703 -0.0278  0.2178  0.0485
 1602SOL    MW4 6176   1.535   6.091   1.706 -0.2110 -0.0524  0.1305
 1603SOL     OW 6177   2.652   2.921   4.920  0.0849  0.1493 -0.1269
 1603SOL    HW2 6178   2.590   2.849   4.907  0.0738 -0.6687  3.3536
 1603SOL    HW3 6179   2.723   2.902   4.859 -0.3864 -2.2911 -0.0393
 1603SOL    MW4 6180   2.653   2.909   4.910  0.5168 -0.5486 -0.2720
 1604SOL     OW 6181   4.062   3.759   5.024  0.1707 -0.3841 -0.5121
 1604SOL    HW2 6182   4.012   3.803   4.956  1.6455 -0.2323 -1.5446
 1604SOL    HW3 6183   4.061   3.666   4.999  0.5269 -0.3597 -0.6195
 1604SOL    MW4 6184   4.056   3.752   5.012 -0.0191  0.8368  0.3255
 1605SOL     OW 6185   0.956   1.222   1.725 -0.4466 -0.0191 -0.4854
 1605SOL    HW2 6186   0.964   1.292   1.660 -0.5048 -0.4878 -1.0047
 1605SOL    HW3 6187   0.910   1.263   1.799 -0.8160  0.3901 -0.9348
 1605SOL    MW4 6188   0.951   1.237   1.726  0.4348  0.7239 -1.0143
 1606SOL     OW 6189   1.267   1.700   3.282  0.4919 -0.6119  0.0559
 1606SOL    HW2 6190   1.353   1.711   3.240  0.7734  3.3808  1.2630
 1606SOL    HW3 6191   1.204   1.721   3.213  0.7004  0.2332  0.1092
 1606SOL    MW4 6192   1.270   1.704   3.267  0.6225  0.3893  0.4469
 1607SOL     OW 6193   5.014   5.886   4.440 -0.4721 -0.1140  0.4015
 1607SOL    HW2 6194   5.066   5.946   4.387 -1.0406 -2.4622 -3.1514
 1607SOL    HW3 6195   5.074   5.856   4.508  2.2062 -0.9059 -2.1060
 1607SOL    MW4 6196   5.029   5.890   4.442 -0.1936 -0.1150  0.3323
 1608SOL     OW 6197   5.023   5.224   3.820 -0.0145  0.0655 -0.1736
 1608SOL    HW2 6198   4.970   5.289   3.867  1.0025 -0.8209  2.3901
 1608SOL    HW3 6199   4.975   5.142   3.831 -0.9109  0.1504 -2.7566
 1608SOL    MW4 6200   5.010   5.222   3.828  0.2855  0.9089  0.2076
 1609SOL     OW 6201   0.404   3.663   0.998  0.6689  0.0495  0.2670
 1609SOL    HW2 6202   0.313   3.679   1.022  0.0750 -0.1082 -1.6896
 1609SOL    HW3 6203   0.455   3.705   1.067 -0.8778 -0.0632  1.5291
 1609SOL    MW4 6204   0.398   3.671   1.010 -0.5219 -0.1498 -0.2520
 1610SOL     OW 6205   0.322   0.413   2.318 -0.4814  0.1897 -0.4670
 1610SOL    HW2 6206   0.245   0.451   2.276 -0.2753 -0.6945 -1.6953
 1610SOL    HW3 6207   0.290   0.336   2.364 -0.3259 -0.1943 -1.0018
 1610SOL    MW4 6208   0.308   0.408   2.319 -0.3664 -1.0551  0.3699
 1611SOL     OW 6209   2.957   0.242   1.192  0.0862  0.0013 -0.9409
 1611SOL    HW2 6210   2.903   0.319   1.213  1.0500  0.4816 -0.1651
 1611SOL    HW3 6211   2.931   0.218   1.103 -2.7663 -0.9357  0.0254
 1611SOL    MW4 6212   2.946   0.249   1.183  0.2554  0.2861  0.3702
 1612SOL     OW 6213   2.227   5.120   1.231 -0.5415 -0.2947  0.4863
 1612SOL    HW2 6214   2.165   5.169   1.177  1.5299  0.0618 -1.7209
 1612SOL    HW3 6215   2.217   5.157   1.319  0.9003  4.2548 -1.0068
 1612SOL    MW4 6216   2.218   5.131   1.236  0.6629 -0.4570 -0.1599
 1613SOL     OW 6217   1.880   5.788   4.119 -0.3311  0.8445  0.2213
 1613SOL    HW2 6218   1.930   5.739   4.184 -0.1476 -0.4693 -0.8765
 1613SOL    HW3 6219   1.821   5.843   4.171 -0.5615 -0.5567  1.5136
 1613SOL    MW4 6220   1.879   5.789   4.134  0.0740 -0.6981  0.1419
 1614SOL     OW 6221   1.061   5.518   4.845 -0.0769 -0.2228 -0.4641
 1614SOL    HW2 6222   1.004   5.577   4.795 -0.2434 -1.8905 -2.3921
 1614SOL    HW3 6223   1.118   5.576   4.894 -0.5808  1.5430 -1.8482
 1614SOL    MW4 6224   1.061   5.533   4.845  0.7355  0.4517 -0.1844
 1615SOL     OW 6225   2.025   1.266   0.352 -0.1408 -0.1044  0.1999
 1615SOL    HW2 6226   1.998   1.355   0.329  0.5584  1.0605  3.3465
 1615SOL    HW3 6227   2.106   1.252   0.302  0.3421  1.5046  0.4661
 1615SOL    MW4 6228   2.032   1.276   0.342 -0.6286 -0.1363  0.0418
 1616SOL     OW 6229   2.712   4.750   3.605  0.4157  0.5794 -0.1260
 1616SOL    HW2 6230   2.762   4.708   3.676 -0.6403  0.7698  0.7652
 1616SOL    HW3 6231   2.673   4.677   3.557  0.5551  0.4629 -0.0624
 1616SOL    MW4 6232   2.713   4.734   3.608 -0.1930 -0.6952 -0.2774
 1617SOL     OW 6233   2.766   4.821   2.588 -0.0316  0.0005  0.0890
 1617SOL    HW2 6234   2.682   4.856   2.619 -0.8875  0.3756 -2.4559
 1617SOL    HW3 6235   2.808   4.894   2.543  0.8480 -0.6760 -0.2249
 1617SOL    MW4 6236   2.760   4.835   2.586 -0.0921 -0.1630  0.1238
 1618SOL     OW 6237   3.990   0.769   1.162 -0.7642  0.4262  0.6946
 1618SOL    HW2 6238   3.946   0.706   1.219 -0.6110 -0.2288  0.0994
 1618SOL    HW3 6239   4.083   0.757   1.181 -0.5819 -1.0008 -0.8770
 1618SOL    MW4 6240   3.997   0.759   1.172 -0.0034  0.0531 -0.3273
 1619SOL     OW 6241   0.338   5.454   6.413 -0.6471 -0.1738 -0.2867
 1619SOL    HW2 6242   0.357   5.543   6.443  1.0744 -0.8753  0.8514
 1619SOL    HW3 6243   0.413   5.430   6.359 -1.6976 -0.5004 -1.6530
 1619SOL    MW4 6244   0.350   5.463   6.410 -0.8107  0.4058  0.1030
 1620SOL     OW 6245   3.104   1.361   5.066  0.2715  0.3799 -0.2519
 1620SOL    HW2 6246   3.195   1.360   5.096  0.7087  1.1623 -1.4618
 1620SOL    HW3 6247   3.076   1.270   5.073  1.7361 -0.2242 -1.4659
 1620SOL    MW4 6248   3.112   1.348   5.071  0.2798 -0.2218 -0.2980
 1621SOL     OW 6249   1.939   1.752   0.234 -0.1524 -0.1169 -0.5998
 1621SOL    HW2 6250   1.865   1.772   0.177  1.3461  0.7170 -2.3524
 1621SOL    HW3 6251   1.928   1.812   0.308 -1.8054 -0.8030 -0.2404
 1621SOL    MW4 6252   1.928   1.763   0.236 -0.2320 -0.2024 -0.1296
 1622SOL     OW 6253   4.459   1.867   4.689  0.3013 -0.3150  0.2446
 1622SOL    HW2 6254   4.479   1.813   4.613  1.8328  1.3580 -0.5967
 1622SOL    HW3 6255   4.541   1.871   4.738 -0.1344  0.2612  0.9418
 1622SOL    MW4 6256   4.472   1.860   4.685 -0.2922 -0.0728 -0.2123
 1623SOL     OW 6257   0.726   2.892   4.795  0.1338 -0.4253  0.0217
 1623SOL    HW2 6258   0.684   2.865   4.713 -2.5254 -1.8370  1.6793
 1623SOL    HW3 6259   0.678   2.970   4.822  0.5318 -0.3552  0.5495
 1623SOL    MW4 6260   0.714   2.898   4.788 -0.1920 -0.0913 -0.4263
 1624SOL     OW 6261   4.587   3.053   2.987 -0.1461 -0.2419 -0.1079
 1624SOL    HW2 6262   4.537   2.974   2.969  0.0242 -0.2655 -0.4906
 1624SOL    HW3 6263   4.674   3.035   2.953 -0.7642  1.0524 -2.6707
 1624SOL    MW4 6264   4.592   3.040   2.980  0.3328 -0.2479  0.2100
 1625SOL     OW 6265   2.272   3.579   0.076  0.3121  0.2100 -0.0176
 1625SOL    HW2 6266   2.192   3.605   0.121 -0.6175 -0.6486 -1.1096
 1625SOL    HW3 6267   2.321   3.660   0.064 -1.3524  1.1086 -1.1541
 1625SOL    MW4 6268   2.268   3.593   0.080 -0.0288  0.0269 -0.4316
 1626SOL     OW 6269   0.477   4.611   4.657  0.3251 -0.3227  0.3325
 1626SOL    HW2 6270   0.408   4.596   4.593 -0.0976 -0.1944  0.7489
 1626SOL    HW3 6271   0.453   4.693   4.699  1.4994  0.4566 -0.4841
 1626SOL    MW4 6272   0.465   4.620   4.654 -0.4429 -0.4157 -0.1789
 1627SOL     OW 6273   1.454   2.801   0.393 -0.1340  0.2315 -0.1743
 1627SOL    HW2 6274   1.550   2.793   0.392 -0.2361 -1.2303 -0.1557
 1627SOL    HW3 6275   1.435   2.868   0.327  0.6958 -2.1665 -3.0216
 1627SOL    MW4 6276   1.464   2.809   0.384 -0.0817 -0.0364  0.2719
 1628SOL     OW 6277   5.846   4.352   3.288 -0.0705 -0.4804  0.4781
 1628SOL    HW2 6278   5.768   4.317   3.332  0.1723 -0.4719  0.9266
 1628SOL    HW3 6279   5.852   4.442   3.321  1.1098 -1.0098  1.8073
 1628SOL    MW4 6280   5.837   4.359   3.298  0.2312  0.1151 -0.1629
 1629SOL     OW 6281   3.478   0.652   5.745 -0.8588 -0.2302  0.6073
 1629SOL    HW2 6282   3.398   0.664   5.795 -0.5028 -0.5079  1.2511
 1629SOL    HW3 6283   3.486   0.557   5.736 -1.3904 -0.1708 -0.7578
 1629SOL    MW4 6284   3.468   0.641   5.750 -0.3788  0.1468 -0.0066
 1630SOL     OW 6285   5.155   5.686   0.104  0.0805 -0.8194  0.0370
 1630SOL    HW2 6286   5.221   5.659   0.169  0.7610  2.8341  1.1233
 1630SOL    HW3 6287   5.079   5.711   0.157 -0.3749 -0.3973 -0.8089
 1630SOL    MW4 6288   5.154   5.686   0.120 -0.5130  0.1573  0.1966
 1631SOL     OW 6289   5.434   5.278   5.175 -0.3339 -0.5812  0.1848
 1631SOL    HW2 6290   5.516   5.235   5.196  0.3653  0.3850 -0.4934
 1631SOL    HW3 6291   5.459   5.357   5.127 -1.6311  0.0136  0.4345
 1631SOL    MW4 6292   5.448   5.283   5.171 -0.2759  0.1232  0.1970
 1632SOL     OW 6293   4.916   1.236   1.990 -0.1702 -0.6463 -0.3955
 1632SOL    HW2 6294   4.879   1.246   2.078 -0.0295 -0.0943 -0.3946
 1632SOL    HW3 6295   4.994   1.182   2.003 -1.6475 -2.9387 -0.5802
 1632SOL    MW4 6296   4.921   1.230   2.003  0.1589  0.0938 -0.5350
 1633SOL     OW 6297   1.948   1.127   5.572  0.0757 -0.0928 -0.3494
 1633SOL    HW2 6298   1.853   1.112   5.568  0.2096 -0.8013 -1.2885
 1633SOL    HW3 6299   1.983   1.071   5.502  1.0494  1.3556 -1.0490
 1633SOL    MW4 6300   1.940   1.117   5.562  0.3645 -0.3123  0.3743
 1634SOL     OW 6301   1.548   4.938   5.432  0.2531 -0.4839  0.0695
 1634SOL    HW2 6302   1.507   4.967   5.514  0.9102 -1.3104  0.7195
 1634SOL    HW3 6303   1.587   5.017   5.395  0.0017 -0.1100  0.5921
 1634SOL    MW4 6304   1.548   4.952   5.438 -0.2707  0.2969  0.8488
 1635SOL     OW 6305   2.197   2.867   1.232  0.1545  0.5364 -0.2078
 1635SOL    HW2 6306   2.161   2.781   1.212  2.1780 -0.4839  0.2088
 1635SOL    HW3 6307   2.129   2.911   1.283 -1.0486 -0.6833 -0.7261
 1635SOL    MW4 6308   2.183   2.862   1.236  0.2941  0.3966  0.9256
 1636SOL     OW 6309   4.939   0.721   3.362 -0.3948 -0.9723  0.0776
 1636SOL    HW2 6310   4.951   0.626   3.368  1.6601 -0.6671  2.8067
 1636SOL    HW3 6311   5.026   0.755   3.344 -1.1958  0.4463 -1.3824
 1636SOL    MW4 6312   4.952   0.713   3.360  0.0117 -0.2102 -0.0732
 1637SOL     OW 6313   2.254   4.724   0.732 -0.2157 -0.5242  0.1321
 1637SOL    HW2 6314   2.333   4.721   0.786 -0.0183  0.7128 -0.0648
 1637SOL    HW3 6315   2.281   4.766   0.651 -1.5177  2.0510  0.9134
 1637SOL    MW4 6316   2.268   4.729   0.729  0.5855  0.0555 -0.1826
 1638SOL     OW 6317   2.356   4.171   0.997  0.3533 -0.0588 -0.0953
 1638SOL    HW2 6318   2.373   4.244   0.936  0.8130  0.9786  1.2275
 1638SOL    HW3 6319   2.261   4.163   0.999  0.3379 -0.2596 -1.1106
 1638SOL    MW4 6320   2.346   4.180   0.989 -0.8396 -0.0587  0.4548
 1639SOL     OW 6321   2.877   2.950   3.658 -0.1898  0.2187 -0.1980
 1639SOL    HW2 6322   2.881   2.966   3.752 -3.8930  2.7081 -0.2391
 1639SOL    HW3 6323   2.873   2.855   3.650 -0.3413 -0.0513  2.1987
 1639SOL    MW4 6324   2.877   2.940   3.669 -1.0366 -0.3598 -0.2406
 1640SOL     OW 6325   2.248   5.479   1.684  0.5044  0.1706  0.6077
 1640SOL    HW2 6326   2.221   5.533   1.758 -1.0080  0.2490  0.0397
 1640SOL    HW3 6327   2.293   5.540   1.625 -0.9210  0.7770  0.1090
 1640SOL    MW4 6328   2.251   5.494   1.686 -0.1884 -0.0946  0.2200
 1641SOL     OW 6329   0.171   4.309   0.916  0.1348 -0.4196 -0.6396
 1641SOL    HW2 6330   0.186   4.314   1.010  1.4322 -0.0135 -0.8562
 1641SOL    HW3 6331   0.191   4.219   0.893 -0.4109 -0.5830 -0.5078
 1641SOL    MW4 6332   0.175   4.298   0.925  0.5936  0.2134 -1.1990
 1642SOL     OW 6333   0.471   3.234   6.242  0.0218  0.2113 -0.5909
 1642SOL    HW2 6334   0.393   3.233   6.186 -0.3569 -3.5757 -0.2472
 1642SOL    HW3 6335   0.503   3.144   6.239  1.6479  0.5273  3.0526
 1642SOL    MW4 6336   0.465   3.222   6.234 -0.3941  0.3471  0.1085
 1643SOL     OW 6337   4.845   2.573   4.759  0.1750 -0.3757 -0.2656
 1643SOL    HW2 6338   4.863   2.550   4.849 -0.3764  0.2429  0.0166
 1643SOL    HW3 6339   4.929   2.603   4.724  0.7031 -1.9129 -0.3905
 1643SOL    MW4 6340   4.858   2.574   4.766  0.3203 -0.1786  0.2946
 1644SOL     OW 6341   5.399   2.113   4.402  0.3017 -0.3002  0.3834
 1644SOL    HW2 6342   5.416   2.169   4.326  1.8098 -1.7304 -0.4067
 1644SOL    HW3 6343   5.345   2.167   4.460 -0.5567  0.9947 -1.4981
 1644SOL    MW4 6344   5.394   2.128   4.400 -0.3630  0.6520 -0.0387
 1645SOL     OW 6345   0.562   1.735   1.915 -0.3770  0.4680  0.6952
 1645SOL    HW2 6346   0.505   1.771   1.847 -2.0045 -0.7854  1.3205
 1645SOL    HW3 6347   0.554   1.796   1.988  0.8660  1.4665  0.0477
 1645SOL    MW4 6348   0.554   1.748   1.916  0.6386  0.0676  1.1531
 1646SOL     OW 6349   1.723   1.837   3.437 -0.1502 -0.0224 -0.1808
 1646SOL    HW2 6350   1.718   1.929   3.466  1.0452 -0.0757  0.2512
 1646SOL    HW3 6351   1.805   1.805   3.474 -0.1507 -1.0377 -1.0167
 1646SOL    MW4 6352   1.733   1.845   3.446 -0.3753 -0.1713  0.6679
 1647SOL     OW 6353   0.058   1.706   0.217  0.4765 -0.2834  0.0278
 1647SOL    HW2 6354   0.081   1.784   0.268 -1.4430  0.2333  0.1793
 1647SOL    HW3 6355   0.130   1.645   0.233 -0.0421 -0.2203  3.5181
 1647SOL    MW4 6356   0.071   1.708   0.226  0.0924 -0.2857 -0.2782
 1648SOL     OW 6357   5.163   3.752   3.564 -0.1209 -0.2642 -0.3159
 1648SOL    HW2 6358   5.126   3.822   3.619  0.0686 -2.1541  2.3856
 1648SOL    HW3 6359   5.090   3.727   3.507 -1.5340 -0.5652  1.5066
 1648SOL    MW4 6360   5.148   3.758   3.564  0.0930 -1.0329 -0.4730
 1649SOL     OW 6361   3.970   2.338   0.948  0.2698  0.3901  0.1837
 1649SOL    HW2 6362   4.024   2.400   0.998  1.0107 -0.5092  0.5144
 1649SOL    HW3 6363   4.023   2.259   0.941 -0.7694 -0.3147 -0.0022
 1649SOL    MW4 6364   3.984   2.336   0.954 -0.4774 -0.2895  0.1323
 1650SOL     OW 6365   0.048   4.879   1.459  0.0402 -0.2708 -0.2306
 1650SOL    HW2 6366  -0.006   4.956   1.439  0.1016 -0.3838 -0.8428
 1650SOL    HW3 6367   0.034   4.864   1.553  0.6721  0.9775  0.0845
 1650SOL    MW4 6368   0.039   4.887   1.469  0.0376 -0.0757  0.4262
 1651SOL     OW 6369   5.047   2.903   3.821 -0.4316 -0.0746  0.5911
 1651SOL    HW2 6370   5.138   2.924   3.841 -0.7823  0.5412  1.5932
 1651SOL    HW3 6371   5.046   2.807   3.813  0.1676 -0.1418  1.2700
 1651SOL    MW4 6372   5.059   2.893   3.823  0.5999  0.4834  0.1456
 1652SOL     OW 6373   1.696   1.361   5.670  0.2100  0.2166 -0.3339
 1652SOL    HW2 6374   1.610   1.403   5.666 -0.6243 -1.5405 -1.7591
 1652SOL    HW3 6375   1.744   1.399   5.596  0.0295 -0.1251 -0.6271
 1652SOL    MW4 6376   1.691   1.372   5.660  0.6375  0.1615  0.0314
 1653SOL     OW 6377   5.248   1.213   5.258  0.0910  0.2022  0.1220
 1653SOL    HW2 6378   5.211   1.301   5.262 -0.5162 -0.0280 -0.3653
 1653SOL    HW3 6379   5.216   1.177   5.176  1.1928 -0.0989 -0.1874
 1653SOL    MW4 6380   5.239   1.220   5.248 -0.4837 -0.2134  0.2695
 1654SOL     OW 6381   4.629   5.901   0.769  0.5576  1.1230 -0.4091
 1654SOL    HW2 6382   4.554   5.941   0.725 -0.2084 -0.9075 -1.0946
 1654SOL    HW3 6383   4.608   5.807   0.770  1.2299  0.8758  3.0130
 1654SOL    MW4 6384   4.616   5.894   0.763  0.3305  0.6564 -0.3497
 1655SOL     OW 6385   0.270   5.911   5.806  0.3764  0.4910  0.5628
 1655SOL    HW2 6386   0.365   5.917   5.810  0.2772  1.8442  2.3197
 1655SOL    HW3 6387   0.245   5.884   5.895 -0.9171  1.0366  0.3778
 1655SOL    MW4 6388   0.279   5.908   5.818 -0.2397 -0.6558  0.2405
 1656SOL     OW 6389   0.228   0.219   1.817 -0.4738  0.2005 -0.4728
 1656SOL    HW2 6390   0.253   0.275   1.890  0.6445 -2.8578  1.7059
 1656SOL    HW3 6391   0.274   0.256   1.741  2.0006  0.9796  1.2858
 1656SOL    MW4 6392   0.237   0.231   1.816 -0.5612 -0.1309 -0.0627
 1657SOL     OW 6393   2.248   0.199   1.688  0.2244  0.3293 -0.0266
 1657SOL    HW2 6394   2.291   0.115   1.704  0.9092  0.3112 -1.7506
 1657SOL    HW3 6395   2.267   0.219   1.596 -0.9515  1.7874  0.0034
 1657SOL    MW4 6396   2.256   0.191   1.678  0.7376 -0.0154 -0.7031
 1658SOL     OW 6397   5.329   2.547   5.332  0.2505  0.4818  0.1460
 1658SOL    HW2 6398   5.282   2.589   5.261  0.2682  0.5715  0.1862
 1658SOL    HW3 6399   5.296   2.590   5.411  1.9064  2.0615  0.0482
 1658SOL    MW4 6400   5.319   2.558   5.333  0.2298 -0.8209 -0.2563
 1659SOL     OW 6401   0.764   3.725   4.046  0.2583 -0.2182 -0.4995
 1659SOL    HW2 6402   0.721   3.674   4.115  2.5652 -1.8793 -0.1457
 1659SOL    HW3 6403   0.743   3.677   3.966 -0.2173  0.1548 -0.5991
 1659SOL    MW4 6404   0.755   3.712   4.045  0.5637  0.3624 -0.3303
 1660SOL     OW 6405   5.201   0.275   3.803  0.4295  0.1982 -0.0200
 1660SOL    HW2 6406   5.157   0.223   3.870  0.9117  0.8314  0.8111
 1660SOL    HW3 6407   5.262   0.214   3.762  0.7482  0.0107  0.7136
 1660SOL    MW4 6408   5.204   0.260   3.806 -0.4211  0.2494  0.0232
 1661SOL     OW 6409   3.686   5.306   5.637 -0.7952  0.3386 -0.3601
 1661SOL    HW2 6410   3.782   5.305   5.636 -0.7785  1.3822 -0.5731
 1661SOL    HW3 6411   3.661   5.222   5.598  0.0333  0.0243 -0.2242
 1661SOL    MW4 6412   3.695   5.295   5.632  0.2124 -0.5950 -0.2613
 1662SOL     OW 6413   6.348   4.995   6.274 -0.5516 -0.2773  0.3827
 1662SOL    HW2 6414   6.292   5.070   6.253  0.4203  0.5897  0.8003
 1662SOL    HW3 6415   6.432   5.034   6.299  0.6753 -1.5418 -1.4253
 1662SOL    MW4 6416   6.352   5.010   6.274  0.0066  0.7097 -0.1383
 1663SOL     OW 6417   1.039   3.541   3.516 -0.0990 -0.2648 -0.0899
 1663SOL    HW2 6418   1.028   3.508   3.605 -2.7149 -1.7842 -0.8754
 1663SOL    HW3 6419   1.001   3.473   3.460 -1.1280  1.8792 -2.1755
 1663SOL    MW4 6420   1.033   3.528   3.520  0.0761 -0.6322  0.0153
 1664SOL     OW 6421   0.576   3.966   1.922  0.0060  0.0996 -0.0688
 1664SOL    HW2 6422   0.589   4.058   1.896 -0.2313  0.0606 -0.3374
 1664SOL    HW3 6423   0.490   3.943   1.885  0.6706 -0.6510 -1.2217
 1664SOL    MW4 6424   0.566   3.975   1.914  0.2381 -0.1523  0.0446
 1665SOL     OW 6425   0.264   4.541   3.236  0.3441  0.0420 -0.0069
 1665SOL    HW2 6426   0.234   4.611   3.179 -1.6568 -0.1662  0.7256
 1665SOL    HW3 6427   0.306   4.478   3.177 -0.1140  0.6490 -0.9896
 1665SOL    MW4 6428   0.266   4.542   3.221  0.2206 -0.2298 -0.2843
 1666SOL     OW 6429   0.048   0.034   1.989  0.2890 -0.2323  0.5543
 1666SOL    HW2 6430  -0.008  -0.019   2.046 -1.2650 -1.1271 -1.6605
 1666SOL    HW3 6431   0.076  -0.026   1.920  1.5419  0.9619 -0.0269
 1666SOL    MW4 6432   0.044   0.019   1.987 -0.3138  0.0176  0.0476
 1667SOL     OW 6433   5.884   5.636   6.201  0.4345  0.7016  0.6871
 1667SOL    HW2 6434   5.885   5.672   6.113 -0.0355  1.0149  0.8060
 1667SOL    HW3 6435   5.840   5.703   6.254 -2.1967 -0.8183  0.5610
 1667SOL    MW4 6436   5.879   5.650   6.196 -0.1599 -0.0413  0.9189
 1668SOL     OW 6437   6.055   1.795   5.635 -0.1180  0.0819 -0.4172
 1668SOL    HW2 6438   6.107   1.742   5.575 -1.0991 -2.3106  0.6758
 1668SOL    HW3 6439   6.001   1.850   5.578  2.4570  1.5518 -1.5691
 1668SOL    MW4 6440   6.055   1.795   5.620  0.3108 -0.2183 -0.1563
 1669SOL     OW 6441   1.908   6.179   2.652  0.2567 -0.2205  0.3605
 1669SOL    HW2 6442   1.870   6.257   2.692  1.4478 -0.0782  1.2399
 1669SOL    HW3 6443   1.897   6.193   2.557 -2.0225 -0.2750  0.5515
 1669SOL    MW4 6444   1.901   6.191   2.644  0.0102  0.8263  0.2261
 1670SOL     OW 6445   3.078   2.523   1.131 -0.1664 -0.1787  0.2793
 1670SOL    HW2 6446   3.062   2.603   1.081  1.0141 -0.4123 -0.5245
 1670SOL    HW3 6447   3.010   2.462   1.101 -0.9738  0.4476  0.7801
 1670SOL    MW4 6448   3.067   2.526   1.121  0.2311 -0.0790 -0.0712
 1671SOL     OW 6449   0.434   1.232   2.146 -0.2749  0.0058  0.0375
 1671SOL    HW2 6450   0.412   1.315   2.103 -0.2884 -0.2935 -0.5409
 1671SOL    HW3 6451   0.365   1.220   2.211 -0.0437  0.6522  0.4239
 1671SOL    MW4 6452   0.422   1.242   2.149 -0.3201 -0.6117  0.2607
 1672SOL     OW 6453   5.939   5.507   2.416  0.6032 -0.6951 -0.3465
 1672SOL    HW2 6454   5.874   5.494   2.348  1.2164 -2.4848 -0.6314
 1672SOL    HW3 6455   5.997   5.431   2.410  2.2897  0.4507  0.3926
 1672SOL    MW4 6456   5.938   5.495   2.407 -0.1891 -0.0777 -0.1124
 1673SOL     OW 6457   1.962   1.228   1.844  0.2375  0.2847  0.2003
 1673SOL    HW2 6458   1.999   1.311   1.875 -0.7549  1.0143 -0.5287
 1673SOL    HW3 6459   1.980   1.166   1.915 -0.1594  1.4357  1.3345
 1673SOL    MW4 6460   1.970   1.231   1.858  0.2676  0.1159  0.6101
 1674SOL     OW 6461   3.923   3.002   2.965  0.1093  0.5796 -0.1869
 1674SOL    HW2 6462   3.942   3.095   2.956 -1.9588  0.9568 -1.3226
 1674SOL    HW3 6463   3.844   2.998   3.019  1.1478 -0.6545  1.3210
 1674SOL    MW4 6464   3.915   3.014   2.971 -0.6115  0.1785  0.4231
 1675SOL     OW 6465   0.847   1.465   4.051 -0.1275 -0.0611 -0.3488
 1675SOL    HW2 6466   0.787   1.455   3.977  0.6916  2.2857 -1.4480
 1675SOL    HW3 6467   0.918   1.404   4.033 -2.3388 -3.4315  1.3510
 1675SOL    MW4 6468   0.848   1.456   4.039  0.1302  0.2019 -0.1106
 1676SOL     OW 6469   1.897   1.334   2.884 -0.0507 -0.2908 -0.4051
 1676SOL    HW2 6470   1.914   1.350   2.791  1.5568 -1.5969 -0.3892
 1676SOL    HW3 6471   1.954   1.397   2.929 -0.9663  0.4669 -0.2862
 1676SOL    MW4 6472   1.907   1.345   2.877  0.2852 -0.4762 -0.7320
 1677SOL     OW 6473   1.557   5.106   3.785  0.3600 -0.1140 -0.2052
 1677SOL    HW2 6474   1.518   5.193   3.795  0.1846 -0.3894  1.8556
 1677SOL    HW3 6475   1.650   5.119   3.798  0.4076 -0.1548 -0.4929
 1677SOL    MW4 6476   1.564   5.119   3.788  0.2364 -0.8892  0.3420
 1678SOL     OW 6477   3.188   6.316   4.909 -0.5533 -0.6385  0.1158
 1678SOL    HW2 6478   3.234   6.296   4.828 -1.3832  0.6230 -0.6985
 1678SOL    HW3 6479   3.098   6.336   4.882 -1.1847 -1.4671  1.4913
 1678SOL    MW4 6480   3.182   6.316   4.895  0.0011 -0.2297 -0.0122
 1679SOL     OW 6481   4.627   5.983   4.173 -0.2647  0.5179 -0.0211
 1679SOL    HW2 6482   4.571   5.979   4.096  1.2355  0.0566 -1.1462
 1679SOL    HW3 6483   4.701   6.037   4.146  2.0318 -2.4446 -0.1788
 1679SOL    MW4 6484   4.630   5.990   4.160 -0.2857  0.0711  0.2440
 1680SOL     OW 6485   0.567   5.351   4.709  0.6249 -0.2575 -0.5279
 1680SOL    HW2 6486   0.535   5.404   4.635  1.9890  1.1414 -0.1857
 1680SOL    HW3 6487   0.645   5.307   4.674  2.5841  2.0856  0.5411
 1680SOL    MW4 6488   0.573   5.352   4.694 -0.2641 -0.1929  0.1533
 1681SOL     OW 6489   4.238   2.837   0.174  0.6135 -0.9160  0.3762
 1681SOL    HW2 6490   4.226   2.762   0.116 -1.3563 -0.1374 -0.3110
 1681SOL    HW3 6491   4.272   2.907   0.118  0.2457 -0.6353  0.4958
 1681SOL    MW4 6492   4.241   2.836   0.159  0.4852 -0.3800 -0.2368
 1682SOL     OW 6493   4.245   5.074   5.555  0.1879  0.0065 -0.1003
 1682SOL    HW2 6494   4.323   5.022   5.536 -0.1938 -1.7149  2.6079
 1682SOL    HW3 6495   4.229   5.122   5.473  3.1998 -0.6488 -1.2347
 1682SOL    MW4 6496   4.253   5.074   5.541  0.0567  0.5674 -0.0568
 1683SOL     OW 6497   5.263   0.532   3.117  0.3897 -0.4329 -0.4542
 1683SOL    HW2 6498   5.303   0.449   3.143 -1.3765 -0.4474  2.6503
 1683SOL    HW3 6499   5.181   0.507   3.075  0.0385 -0.2850  0.1357
 1683SOL    MW4 6500   5.258   0.517   3.114  0.7152 -0.0667 -0.6992
 1684SOL     OW 6501   4.649   2.668   2.700 -0.2931  0.0087  0.0982
 1684SOL    HW2 6502   4.629   2.749   2.654  1.3278 -0.5784 -1.7887
 1684SOL    HW3 6503   4.742   2.652   2.681 -0.6725 -2.4873 -0.0086
 1684SOL    MW4 6504   4.659   2.676   2.691  0.0932 -0.3159  0.1391
 1685SOL     OW 6505   3.019   5.250   2.844  0.2191 -0.2932  0.2802
 1685SOL    HW2 6506   3.056   5.171   2.884  1.4962  0.7847  1.3482
 1685SOL    HW3 6507   3.093   5.293   2.803 -0.1953  0.9810  0.8151
 1685SOL    MW4 6508   3.033   5.245   2.844 -0.1146  0.3480  0.3592
 1686SOL     OW 6509   3.068   5.833   1.295 -0.2065 -0.5722  0.7392
 1686SOL    HW2 6510   3.023   5.908   1.334  1.3578  0.1185  1.3184
 1686SOL    HW3 6511   3.096   5.864   1.209  1.2353 -0.1374  1.3354
 1686SOL    MW4 6512   3.066   5.847   1.289 -0.4977 -0.6037 -0.7894
 1687SOL     OW 6513   2.157   1.968   0.173  0.3765  0.0405 -0.1240
 1687SOL    HW2 6514   2.240   1.944   0.214 -0.2637 -0.5948  0.8374
 1687SOL    HW3 6515   2.098   1.896   0.193 -0.6887  0.9185  0.0479
 1687SOL    MW4 6516   2.160   1.956   0.181  0.1144  0.1792 -0.9751
 1688SOL     OW 6517   1.966   0.204   5.575  0.0708  0.0740  0.0553
 1688SOL    HW2 6518   1.966   0.290   5.617 -1.3712 -0.1602  0.6024
 1688SOL    HW3 6519   1.910   0.151   5.631  0.0305 -0.9111 -0.8998
 1688SOL    MW4 6520   1.959   0.209   5.588 -0.2992 -0.0106 -0.1657
 1689SOL     OW 6521   2.195   0.899   2.261 -0.1003 -0.6863 -0.4030
 1689SOL    HW2 6522   2.229   0.963   2.324 -0.1624 -3.2954  2.5478
 1689SOL    HW3 6523   2.131   0.948   2.210  0.9975  1.9619  0.5743
 1689SOL    MW4 6524   2.191   0.914   2.263  0.0600 -0.2717 -0.7205
 1690SOL     OW 6525   3.246   1.138   0.545 -0.0205 -0.1839 -0.0404
 1690SOL    HW2 6526   3.204   1.189   0.615 -0.1567  1.2073 -1.1015
 1690SOL    HW3 6527   3.188   1.063   0.532 -0.2246 -0.2252  1.0190
 1690SOL    MW4 6528   3.233   1.135   0.553  0.1498 -0.1592  0.0508
 1691SOL     OW 6529   3.679   3.137   2.151  0.4558 -0.6103  0.1004
 1691SOL    HW2 6530   3.752   3.108   2.207  0.1316  0.5570  1.1830
 1691SOL    HW3 6531   3.682   3.232   2.157 -0.9327 -0.5379 -0.1390
 1691SOL    MW4 6532   3.689   3.146   2.159  0.1647 -0.1261  0.2584
 1692SOL     OW 6533   5.568   6.077   4.262 -0.2677  0.2766 -0.3174
 1692SOL    HW2 6534   5.539   5.990   4.289  1.4125 -1.2388 -2.9261
 1692SOL    HW3 6535   5.502   6.137   4.297 -1.2769 -1.9615  1.8936
 1692SOL    MW4 6536   5.556   6.074   4.270  0.1797  0.0612  0.0311
 1693SOL     OW 6537   5.087   5.140   1.915  0.1651 -0.1008  0.6067
 1693SOL    HW2 6538   5.178   5.170   1.921  0.8391 -2.0735  0.9843
 1693SOL    HW3 6539   5.094   5.045   1.903 -1.8679 -0.4356  1.6619
 1693SOL    MW4 6540   5.100   5.131   1.914  0.0857 -0.2535  0.5093
 1694SOL     OW 6541   4.566   2.021   3.338  0.0853 -0.0583  0.4912
 1694SOL    HW2 6542   4.539   1.932   3.360 -1.6697  0.0207 -1.0602
 1694SOL    HW3 6543   4.661   2.018   3.335  0.1196 -1.5181  1.8248
 1694SOL    MW4 6544   4.575   2.009   3.340  0.8351 -0.5519 -0.3556
 1695SOL     OW 6545   4.288   4.191   6.072 -0.4903  0.0946  0.2239
 1695SOL    HW2 6546   4.253   4.103   6.083 -1.4505  0.5615  1.0733
 1695SOL    HW3 6547   4.250   4.241   6.143  2.5454  0.4885  1.7597
 1695SOL    MW4 6548   4.279   4.186   6.083  0.0070  0.2524  0.3588
 1696SOL     OW 6549   0.006   5.157   4.623 -0.0165  0.3427  0.4531
 1696SOL    HW2 6550  -0.055   5.230   4.617  1.5134  1.6521 -0.1367
 1696SOL    HW3 6551   0.093   5.198   4.617  0.9184 -1.4718  0.7395
 1696SOL    MW4 6552   0.010   5.172   4.622 -0.1038  0.1580 -0.7946
 1697SOL     OW 6553   5.406   0.348   1.012  0.5752 -0.8702  0.1670
 1697SOL    HW2 6554   5.458   0.267   1.008  0.7126 -0.7823  0.1625
 1697SOL    HW3 6555   5.471   0.418   1.016  0.4675 -0.8007  1.0948
 1697SOL    MW4 6556   5.421   0.346   1.012  0.3783  0.0097  0.0369
 1698SOL     OW 6557   3.482   0.980   0.270 -0.2786  0.6933 -0.0365
 1698SOL    HW2 6558   3.480   0.960   0.364  1.5638 -0.4261 -0.1826
 1698SOL    HW3 6559   3.400   1.027   0.254 -0.9545  0.3251  1.9905
 1698SOL    MW4 6560   3.471   0.984   0.280  0.2561 -0.1422  0.2499
 1699SOL     OW 6561   2.458   2.663   4.779  0.2943  0.0881 -0.4323
 1699SOL    HW2 6562   2.545   2.652   4.741  0.1901  0.5205 -0.8091
 1699SOL    HW3 6563   2.409   2.712   4.713 -0.2813 -0.2843 -0.2879
 1699SOL    MW4 6564   2.463   2.668   4.765  0.3266 -0.0382  0.2426
 1700SOL     OW 6565   5.665   0.278   0.408 -0.1026 -0.9157  0.2192
 1700SOL    HW2 6566   5.593   0.310   0.462  0.4882  1.1376 -0.0947
 1700SOL    HW3 6567   5.721   0.229   0.468 -0.8922 -1.1060  0.8170
 1700SOL    MW4 6568   5.663   0.276   0.423 -0.2287  0.0814 -0.4086
 1701SOL     OW 6569   3.618   0.349   4.675 -0.2104 -0.0713 -0.3503
 1701SOL    HW2 6570   3.606   0.400   4.755  0.3374 -0.1017 -0.2493
 1701SOL    HW3 6571   3.573   0.400   4.607 -2.6281 -1.0976  0.3426
 1701SOL    MW4 6572   3.610   0.362   4.676  0.6805  0.0634 -0.4185
 1702SOL     OW 6573   4.434   1.531   3.060 -0.0102 -0.9575  0.0108
 1702SOL    HW2 6574   4.386   1.613   3.054  0.9564 -0.2869  0.9733
 1702SOL    HW3 6575   4.373   1.470   3.100 -1.0121 -0.9600 -1.4448
 1702SOL    MW4 6576   4.420   1.534   3.064 -0.2772  0.4881 -0.3858
 1703SOL     OW 6577   4.033   3.170   1.205 -0.1947 -0.1438  0.1506
 1703SOL    HW2 6578   4.046   3.083   1.168 -0.2654  0.4529 -1.3699
 1703SOL    HW3 6579   4.061   3.230   1.135  0.7844  1.0570  1.5133
 1703SOL    MW4 6580   4.038   3.166   1.191 -0.5763 -0.3582  0.4235
 1704SOL     OW 6581   3.975   5.122   3.702  0.0451 -0.3701 -0.2993
 1704SOL    HW2 6582   3.987   5.108   3.796 -1.9638 -1.6185 -0.1642
 1704SOL    HW3 6583   3.951   5.036   3.668 -0.7038  0.3660 -1.6946
 1704SOL    MW4 6584   3.973   5.109   3.710 -0.6216 -0.1153  0.2247
 1705SOL     OW 6585   2.819   3.018   2.512 -0.2222  0.7987 -0.1477
 1705SOL    HW2 6586   2.776   3.041   2.595 -1.6533  1.6688 -1.0997
 1705SOL    HW3 6587   2.825   3.100   2.464  1.3739  0.4561 -0.5868
 1705SOL    MW4 6588   2.814   3.032   2.517 -0.1960 -0.5142 -0.0193
 1706SOL     OW 6589   0.824   3.867   1.321 -0.3830  0.0286 -0.3170
 1706SOL    HW2 6590   0.838   3.808   1.247 -1.1179 -0.3124 -0.1898
 1706SOL    HW3 6591   0.752   3.924   1.293 -0.2666  0.2905 -0.0886
 1706SOL    MW4 6592   0.817   3.867   1.307 -0.2725  0.0724  0.4231
 1707SOL     OW 6593   0.569   2.404   5.454  0.0473  0.7110 -0.2160
 1707SOL    HW2 6594   0.506   2.387   5.524  0.2594 -1.1497 -0.4186
 1707SOL    HW3 6595   0.625   2.472   5.489 -0.0245  0.0287  1.3410
 1707SOL    MW4 6596   0.568   2.410   5.468  0.8575 -0.0082 -0.3077
 1708SOL     OW 6597   3.463   4.035   6.350 -0.0179  0.4722  0.1622
 1708SOL    HW2 6598   3.378   4.075   6.335 -0.8500 -1.7345 -1.5486
 1708SOL    HW3 6599   3.444   3.955   6.400  0.6035 -1.4179 -2.4031
 1708SOL    MW4 6600   3.449   4.029   6.355 -0.8061 -0.1587  0.6512
 1709SOL     OW 6601   3.129   0.107   3.916 -0.0056 -0.3157 -0.0020
 1709SOL    HW2 6602   3.057   0.067   3.867 -2.3919  2.8094  0.5929
 1709SOL    HW3 6603   3.199   0.119   3.852 -1.1906 -0.6631 -1.4090
 1709SOL    MW4 6604   3.129   0.103   3.901  0.5331 -0.2940 -0.1490
 1710SOL     OW 6605   1.590   4.003   2.940  0.2757  0.0621  0.1445
 1710SOL    HW2 6606   1.683   4.025   2.932  0.5646 -0.2097  2.0589
 1710SOL    HW3 6607   1.588   3.908   2.936  0.1862  0.0336  0.7056
 1710SOL    MW4 6608   1.602   3.994   2.939  0.4322 -0.1528 -0.4041
 1711SOL     OW 6609   4.464   3.090   2.729 -0.3683  0.4286  0.0647
 1711SOL    HW2 6610   4.496   3.010   2.686 -0.7398 -0.2328  0.9800
 1711SOL    HW3 6611   4.516   3.097   2.809 -1.4262  0.2016  0.7925
 1711SOL    MW4 6612   4.475   3.080   2.734 -0.4379 -0.3032  0.3600
 1712SOL     OW 6613   0.561   2.737   0.486  0.1720  0.3374 -0.5900
 1712SOL    HW2 6614   0.524   2.700   0.406 -1.8150 -0.1963  0.4988
 1712SOL    HW3 6615   0.508   2.815   0.503  0.6088  0.4829  0.1643
 1712SOL    MW4 6616   0.549   2.742   0.478 -0.2397 -0.0419  0.1239
 1713SOL     OW 6617   3.984   4.898   2.943 -0.0762  0.1667 -0.2620
 1713SOL    HW2 6618   3.951   4.846   2.870 -1.8462 -0.2229  0.7470
 1713SOL    HW3 6619   4.080   4.888   2.938 -0.1780 -0.3351 -2.1251
 1713SOL    MW4 6620   3.993   4.890   2.933  0.5002  0.4129  0.3983
 1714SOL     OW 6621   1.353   3.275   4.090  0.4092 -0.7579  0.1382
 1714SOL    HW2 6622   1.321   3.359   4.123 -1.6359 -1.3209 -0.2844
 1714SOL    HW3 6623   1.345   3.281   3.995 -0.2882 -1.6287  0.1321
 1714SOL    MW4 6624   1.348   3.287   4.082  0.0798 -0.6840 -0.6896
 1715SOL     OW 6625   6.337   5.311   4.217 -0.0659 -0.0349  0.4392
 1715SOL    HW2 6626   6.295   5.330   4.133 -0.3588 -0.8290  0.3937
 1715SOL    HW3 6627   6.301   5.376   4.277  0.7958  1.0853 -0.2352
 1715SOL    MW4 6628   6.326   5.322   4.214  0.0077  0.5143  0.2279
 1716SOL     OW 6629   5.179   4.881   0.516  0.5645 -0.4290  0.2335
 1716SOL    HW2 6630   5.189   4.891   0.421  1.3849 -2.2552  0.0758
 1716SOL    HW3 6631   5.258   4.920   0.552 -0.7922  2.3821  0.3952
 1716SOL    MW4 6632   5.191   4.887   0.508  0.3838 -0.0038 -0.3805
 1717SOL     OW 6633   2.954   5.581   3.926 -0.2053 -0.0942  0.3775
 1717SOL    HW2 6634   2.888   5.523   3.889 -0.0855  0.3310 -0.5459
 1717SOL    HW3 6635   2.978   5.639   3.853  1.6694 -0.6794  0.4688
 1717SOL    MW4 6636   2.949   5.581   3.911  0.5375  0.0288 -0.0221
 1718SOL     OW 6637   1.113   0.285   6.323  0.0408 -0.4429  0.1118
 1718SOL    HW2 6638   1.051   0.346   6.285 -2.9257 -1.8348  2.3047
 1718SOL    HW3 6639   1.166   0.338   6.383  1.4296  0.8389 -2.1101
 1718SOL    MW4 6640   1.112   0.300   6.326 -0.4235  0.6957  0.6031
 1719SOL     OW 6641   2.195   1.725   3.302  0.2989  0.4550  0.6810
 1719SOL    HW2 6642   2.209   1.636   3.333 -0.2719  0.0226 -0.2685
 1719SOL    HW3 6643   2.277   1.749   3.259  0.1440  0.0535  0.1559
 1719SOL    MW4 6644   2.208   1.717   3.300  0.3992 -0.1797  0.3061
 1720SOL     OW 6645   2.354   0.476   4.569  0.0265  1.0053 -0.2977
 1720SOL    HW2 6646   2.380   0.562   4.536  1.6541  0.1072 -1.4683
 1720SOL    HW3 6647   2.435   0.437   4.602 -0.0058 -1.2599 -2.6164
 1720SOL    MW4 6648   2.368   0.482   4.569  0.2251  0.4071 -0.3393
 1721SOL     OW 6649   2.391   0.398   5.943  0.3014  0.3957  0.0267
 1721SOL    HW2 6650   2.355   0.487   5.938  1.7000  0.9483 -0.9757
 1721SOL    HW3 6651   2.486   0.411   5.940  0.5197 -1.1630 -0.5594
 1721SOL    MW4 6652   2.399   0.412   5.942 -0.2048  0.1716 -0.1340
 1722SOL     OW 6653   1.096   5.035   3.960  0.1490 -0.3311  0.2986
 1722SOL    HW2 6654   1.030   5.104   3.952  0.4234  0.0583  1.3223
 1722SOL    HW3 6655   1.082   4.999   4.048  1.5852  0.0591  0.6999
 1722SOL    MW4 6656   1.085   5.039   3.970  0.0928 -0.9486 -0.0435
 1723SOL     OW 6657   4.931   3.664   4.423 -0.0063 -0.0304 -0.3198
 1723SOL    HW2 6658   4.953   3.721   4.497  2.2580 -0.6582 -0.4458
 1723SOL    HW3 6659   4.934   3.722   4.347  3.6007 -0.3937 -0.6282
 1723SOL    MW4 6660   4.934   3.679   4.423 -0.4587 -0.0817  0.4427
 1724SOL     OW 6661   6.353   5.950   6.348  0.3013  0.3203 -0.6547
 1724SOL    HW2 6662   6.262   5.974   6.363 -0.4902 -3.0009  0.8960
 1724SOL    HW3 6663   6.352   5.899   6.267  0.7028 -0.0040 -0.4632
 1724SOL    MW4 6664   6.341   5.947   6.339  0.0521  0.0351 -0.3575
 1725SOL     OW 6665   0.899   1.893   4.902 -0.0449  0.2692  0.5018
 1725SOL    HW2 6666   0.893   1.964   4.839  0.3983  0.0222  0.1769
 1725SOL    HW3 6667   0.990   1.895   4.931 -0.4559  0.9907  1.8546
 1725SOL    MW4 6668   0.910   1.903   4.898 -0.2696  0.0811  0.4183
 1726SOL     OW 6669   0.299   4.523   2.329 -0.3658  0.3672 -0.1858
 1726SOL    HW2 6670   0.297   4.534   2.424 -2.1970 -0.1581 -0.1406
 1726SOL    HW3 6671   0.281   4.611   2.294 -0.7426  0.3495 -0.0344
 1726SOL    MW4 6672   0.297   4.536   2.337  0.5348 -0.7331 -0.1187
 1727SOL     OW 6673   1.582   6.159   2.374  0.0271  0.4358  0.0636
 1727SOL    HW2 6674   1.523   6.112   2.314 -0.0150  0.7178 -0.1171
 1727SOL    HW3 6675   1.651   6.096   2.393  0.1513  0.4080 -0.4444
 1727SOL    MW4 6676   1.583   6.144   2.368  0.9528 -0.0653  0.1182
 1728SOL     OW 6677   2.049   6.000   6.315 -0.5884 -0.2145 -0.0988
 1728SOL    HW2 6678   2.090   5.953   6.242 -1.6646 -1.3541  0.0130
 1728SOL    HW3 6679   2.110   5.989   6.388  0.4856  0.9055 -0.7673
 1728SOL    MW4 6680   2.063   5.992   6.315 -0.0303  0.0846 -0.5188
 1729SOL     OW 6681   2.029   3.135   3.783 -0.8407  0.4149  0.2426
 1729SOL    HW2 6682   2.087   3.140   3.859 -1.2462  0.1568  0.5737
 1729SOL    HW3 6683   2.006   3.043   3.776 -0.4201  0.3563 -0.4939
 1729SOL    MW4 6684   2.033   3.124   3.792 -0.0537 -0.2435 -0.4794
 1730SOL     OW 6685   0.883   3.225   2.255  0.8922 -0.4270 -0.4714
 1730SOL    HW2 6686   0.954   3.215   2.318  1.0171 -0.5564 -0.6325
 1730SOL    HW3 6687   0.839   3.140   2.256  1.1682 -0.5770 -0.8892
 1730SOL    MW4 6688   0.887   3.213   2.264  0.1996 -0.0691  0.0091
 1731SOL     OW 6689   4.104   4.404   0.872  0.7082  0.6525 -0.2957
 1731SOL    HW2 6690   4.049   4.464   0.922 -1.2990 -1.0447 -0.3426
 1731SOL    HW3 6691   4.150   4.352   0.939 -0.3267 -0.1537 -0.1823
 1731SOL    MW4 6692   4.103   4.405   0.888 -0.0123  0.6300  0.0815
 1732SOL     OW 6693   4.212   1.329   1.141 -0.3501 -0.2450  0.4473
 1732SOL    HW2 6694   4.158   1.399   1.176 -0.7618 -0.9880  1.3454
 1732SOL    HW3 6695   4.184   1.320   1.050 -0.8353  0.2370  0.5469
 1732SOL    MW4 6696   4.201   1.337   1.134  0.2179  0.3165  0.3577
 1733SOL     OW 6697   3.435   0.917   0.547  0.3543 -0.0022 -0.8519
 1733SOL    HW2 6698   3.367   0.856   0.575 -1.0966  1.2283 -1.5248
 1733SOL    HW3 6699   3.399   1.004   0.565  3.1666  0.7552  1.9427
 1733SOL    MW4 6700   3.422   0.921   0.553 -0.8141 -0.0159  0.4141
 1734SOL     OW 6701   6.290   6.130   0.332 -0.0950  0.1507 -0.6339
 1734SOL    HW2 6702   6.295   6.035   0.328  0.9729  0.2499 -3.3025
 1734SOL    HW3 6703   6.222   6.154   0.269 -0.9043  1.1619  0.5737
 1734SOL    MW4 6704   6.282   6.121   0.324  0.0114  0.0364 -0.2484
 1735SOL     OW 6705   1.495   1.988   4.702  0.0508  0.5771 -0.3661
 1735SOL    HW2 6706   1.575   1.954   4.661 -0.4218 -1.4073  0.2401
 1735SOL    HW3 6707   1.469   1.919   4.763 -1.3020  1.8525  0.5618
 1735SOL    MW4 6708   1.502   1.974   4.705  0.0426 -0.1638  0.6521
 1736SOL     OW 6709   2.711   2.091   3.357  0.1425 -0.5444  0.0973
 1736SOL    HW2 6710   2.629   2.059   3.394 -2.0283  2.3042 -1.7755
 1736SOL    HW3 6711   2.721   2.043   3.275 -1.2501  0.9401 -1.0155
 1736SOL    MW4 6712   2.702   2.080   3.351  0.5823 -0.6537  0.1857
 1737SOL     OW 6713   4.677   5.841   3.017 -0.6211  0.2976 -0.3129
 1737SOL    HW2 6714   4.746   5.824   3.082  1.3417  1.3258 -1.9947
 1737SOL    HW3 6715   4.639   5.924   3.044 -0.2705  0.3943 -0.1082
 1737SOL    MW4 6716   4.681   5.849   3.030 -0.1220  0.2950  0.5635
 1738SOL     OW 6717   3.023   5.758   0.109 -0.1821  0.3375 -0.1907
 1738SOL    HW2 6718   3.017   5.843   0.065 -1.9358  0.5043  0.2671
 1738SOL    HW3 6719   3.046   5.779   0.199 -0.2784  0.3145 -0.1599
 1738SOL    MW4 6720   3.025   5.772   0.115  0.5885  0.1880 -0.6491
 1739SOL     OW 6721   1.299   4.602   3.049  0.2235  0.3229  0.7697
 1739SOL    HW2 6722   1.351   4.585   3.127 -0.3912  1.1878  1.3877
 1739SOL    HW3 6723   1.285   4.697   3.050 -3.3891 -0.0780  1.9656
 1739SOL    MW4 6724   1.304   4.612   3.059  0.0341 -0.0484 -0.6195
 1740SOL     OW 6725   4.269   2.411   1.231  0.1043 -0.1185  0.3102
 1740SOL    HW2 6726   4.225   2.329   1.256 -0.8446  1.2132  3.5464
 1740SOL    HW3 6727   4.357   2.403   1.268  0.3089 -0.0011 -0.1412
 1740SOL    MW4 6728   4.275   2.399   1.239  0.6703  0.3322 -0.2797
 1741SOL     OW 6729   2.021   3.891   6.218 -0.3702  0.4793  0.5548
 1741SOL    HW2 6730   1.963   3.963   6.195 -0.6273 -0.3353 -1.5824
 1741SOL    HW3 6731   1.975   3.812   6.187  0.5054 -0.4735  1.5957
 1741SOL    MW4 6732   2.007   3.890   6.211  0.4228 -0.3092 -0.4451
 1742SOL     OW 6733   2.575   1.692   2.946 -0.0618 -0.2269  0.0654
 1742SOL    HW2 6734   2.575   1.741   3.028  0.2028  0.8464 -0.5579
 1742SOL    HW3 6735   2.668   1.687   2.922 -0.1433 -0.4989 -0.1933
 1742SOL    MW4 6736   2.587   1.698   2.954  0.1802 -0.7629  0.1860
 1743SOL     OW 6737   2.062   1.155   2.683 -0.1081  0.1333 -0.9113
 1743SOL    HW2 6738   2.012   1.094   2.737  1.7591 -0.2423  0.4811
 1743SOL    HW3 6739   2.000   1.223   2.660 -1.7515 -1.2913 -0.8997
 1743SOL    MW4 6740   2.048   1.156   2.687 -0.0186  0.2062  0.5736
 1744SOL     OW 6741   1.846   0.365   4.203  0.0467  0.4612  0.3976
 1744SOL    HW2 6742   1.797   0.447   4.188  0.7236  0.9715  0.9302
 1744SOL    HW3 6743   1.812   0.305   4.137  0.0758  1.4068 -0.5092
 1744SOL    MW4 6744   1.835   0.368   4.192 -0.1196  0.3140  0.3357
 1745SOL     OW 6745   0.403   4.765   2.507 -0.2022  0.0259 -0.2643
 1745SOL    HW2 6746   0.462   4.707   2.459  0.5869 -0.4988  1.2714
 1745SOL    HW3 6747   0.455   4.844   2.522 -0.7884  0.5854 -1.1174
 1745SOL    MW4 6748   0.418   4.768   2.503 -0.1381 -0.8308 -0.3428
 1746SOL     OW 6749   3.222   4.337   3.183 -0.4559  0.1272 -0.1575
 1746SOL    HW2 6750   3.168   4.320   3.105  0.3493 -0.2085 -0.6487
 1746SOL    HW3 6751   3.159   4.337   3.255 -1.0466 -0.8656 -0.6474
 1746SOL    MW4 6752   3.206   4.334   3.182 -0.2779 -0.1129  0.4525
 1747SOL     OW 6753   3.684   3.046   5.789 -0.2367  0.2867  0.1578
 1747SOL    HW2 6754   3.692   2.990   5.712  0.5179 -0.0356  0.4587
 1747SOL    HW3 6755   3.703   3.134   5.757 -0.5694  0.2517 -0.1461
 1747SOL    MW4 6756   3.688   3.050   5.775  0.1116  0.1700  0.1343
 1748SOL     OW 6757   4.431   3.509   2.568 -0.3456 -0.1010  0.3756
 1748SOL    HW2 6758   4.394   3.553   2.645 -0.4262 -0.8977  0.8135
 1748SOL    HW3 6759   4.502   3.455   2.604  0.1318  0.1242 -0.2237
 1748SOL    MW4 6760   4.436   3.507   2.583 -0.5592  0.0671  0.7156
 1749SOL     OW 6761   3.163   5.292   5.198  0.7697 -0.3053  0.2641
 1749SOL    HW2 6762   3.104   5.331   5.262  0.6414  0.5925 -0.3841
 1749SOL    HW3 6763   3.251   5.312   5.231  0.7033 -0.3105  0.4427
 1749SOL    MW4 6764   3.167   5.300   5.211  0.6021 -0.5028  0.3830
 1750SOL     OW 6765   3.151   3.268   4.541  0.3756  0.3804  0.2765
 1750SOL    HW2 6766   3.236   3.286   4.500  1.4568 -0.1202  2.1601
 1750SOL    HW3 6767   3.096   3.238   4.469  2.2159 -0.6334 -0.7985
 1750SOL    MW4 6768   3.155   3.266   4.526  0.1585  0.5174  0.3623
 1751SOL     OW 6769   2.592   4.199   0.038 -0.1380 -0.0598  0.2044
 1751SOL    HW2 6770   2.550   4.171   0.120  0.8113  1.6532  1.3495
 1751SOL    HW3 6771   2.586   4.295   0.041  1.8681  0.1194 -0.6581
 1751SOL    MW4 6772   2.585   4.208   0.049  0.6869  0.1106  0.7368
 1752SOL     OW 6773   5.811   5.906   1.975  0.1454 -0.0963 -0.1083
 1752SOL    HW2 6774   5.855   5.978   1.930  2.4061 -0.9908  0.5166
 1752SOL    HW3 6775   5.883   5.853   2.010 -1.4825 -1.5211  1.2263
 1752SOL    MW4 6776   5.827   5.909   1.974 -0.5151  0.1854 -0.2871
 1753SOL     OW 6777   5.424   3.405   3.105 -0.4195  0.5695  0.0037
 1753SOL    HW2 6778   5.382   3.486   3.076 -0.2690  1.6237  2.4728
 1753SOL    HW3 6779   5.351   3.344   3.119 -0.8176  1.1889  0.7199
 1753SOL    MW4 6780   5.409   3.408   3.103  0.3536  0.5604 -0.3803
 1754SOL     OW 6781   0.069   2.389   0.069 -0.3007 -0.4920  0.2465
 1754SOL    HW2 6782   0.026   2.320   0.119 -0.0369 -0.4437  0.5451
 1754SOL    HW3 6783   0.010   2.406  -0.005 -0.0714 -1.4859 -0.1890
 1754SOL    MW4 6784   0.056   2.382   0.066 -0.2156 -0.0649 -0.3502
 1755SOL     OW 6785   4.446   2.136   4.624  0.3101  0.4016  0.4851
 1755SOL    HW2 6786   4.456   2.043   4.643  0.0665  0.5585  1.4217
 1755SOL    HW3 6787   4.448   2.141   4.528  0.6853 -0.5179  0.4355
 1755SOL    MW4 6788   4.447   2.124   4.614  0.3313 -0.0899  0.1895
 1756SOL     OW 6789   6.012   5.082   3.388 -0.5945 -0.2960 -0.1228
 1756SOL    HW2 6790   6.055   5.018   3.445 -1.0454  1.2861  2.1208
 1756SOL    HW3 6791   5.927   5.044   3.368 -0.3915 -0.9062  0.1668
 1756SOL    MW4 6792   6.007   5.069   3.393 -0.1531  0.0863 -0.1007
 1757SOL     OW 6793   6.407   6.282   1.388 -0.2095  0.0610  0.0105
 1757SOL    HW2 6794   6.339   6.348   1.385  0.9392  1.2637 -0.4812
 1757SOL    HW3 6795   6.362   6.202   1.417 -1.8158  0.7884 -0.3822
 1757SOL    MW4 6796   6.392   6.280   1.391 -0.1326 -0.0214 -0.2236
 1758SOL     OW 6797   5.138   3.303   3.125 -0.8026  0.2212 -0.6628
 1758SOL    HW2 6798   5.127   3.281   3.218 -4.1196 -0.5824 -1.1114
 1758SOL    HW3 6799   5.164   3.220   3.084 -1.3268  0.0571 -0.6808
 1758SOL    MW4 6800   5.140   3.289   3.132 -0.4491  0.0955 -0.2105
 1759SOL     OW 6801   4.230   4.267   5.513 -0.8979 -0.7613 -0.0315
 1759SOL    HW2 6802   4.153   4.292   5.565 -0.6062 -0.4273  0.2498
 1759SOL    HW3 6803   4.210   4.180   5.479 -0.7845 -1.3235  1.2836
 1759SOL    MW4 6804   4.217   4.259   5.515  0.1130 -0.0287 -0.2408
 1760SOL     OW 6805   0.899   0.570   3.249  0.3404  0.1309 -0.0191
 1760SOL    HW2 6806   0.971   0.617   3.291 -0.5187  1.1523  0.3609
 1760SOL    HW3 6807   0.880   0.497   3.308  0.2458  0.5817  0.5103
 1760SOL    MW4 6808   0.906   0.567   3.263  0.0652  0.4418  0.0217
 1761SOL     OW 6809   5.387   2.082   0.132 -0.1621  0.1190  0.1208
 1761SOL    HW2 6810   5.460   2.058   0.190 -0.4791  0.0600  0.4978
 1761SOL    HW3 6811   5.384   2.012   0.067 -0.1424 -0.0944  0.3467
 1761SOL    MW4 6812   5.396   2.070   0.131  0.2475 -0.4605 -0.0465
 1762SOL     OW 6813   5.979   0.249   4.742  0.0382 -0.2744  0.1303
 1762SOL    HW2 6814   5.898   0.265   4.694 -1.0859 -1.1337  1.6313
 1762SOL    HW3 6815   5.980   0.315   4.811  1.2250  0.4553 -0.5531
 1762SOL    MW4 6816   5.968   0.260   4.745  0.5347  0.8550  0.5013
 1763SOL     OW 6817   2.411   5.932   5.375 -0.2509  0.4376 -0.7251
 1763SOL    HW2 6818   2.324   5.963   5.350 -0.7542  1.4142  1.9708
 1763SOL    HW3 6819   2.471   5.996   5.337 -1.0042  2.0708  0.7019
 1763SOL    MW4 6820   2.408   5.944   5.367  0.8912  0.0102 -0.5733
 1764SOL     OW 6821   0.192   1.433   3.653 -0.3074  0.6099  0.1296
 1764SOL    HW2 6822   0.204   1.351   3.606 -0.3654  1.5699 -1.6763
 1764SOL    HW3 6823   0.281   1.464   3.671 -0.2628 -0.6929  2.5006
 1764SOL    MW4 6824   0.205   1.427   3.649 -0.1321  0.0830  0.2743
 1765SOL     OW 6825   0.389   0.895   2.966  0.0481  0.1423  0.7985
 1765SOL    HW2 6826   0.355   0.916   2.879  1.5523  0.3916  0.2470
 1765SOL    HW3 6827   0.467   0.843   2.949 -1.6854 -3.1921  2.0662
 1765SOL    MW4 6828   0.395   0.891   2.952 -0.1613  0.3042 -0.4046
 1766SOL     OW 6829   0.682   3.481   5.747 -0.6089  0.1400  0.0558
 1766SOL    HW2 6830   0.763   3.506   5.792 -0.3774 -0.7315  0.1336
 1766SOL    HW3 6831   0.666   3.553   5.686  2.2461 -1.2984 -2.6696
 1766SOL    MW4 6832   0.691   3.494   5.745 -0.5703 -0.5036  0.2406
 1767SOL     OW 6833   6.239   2.780   2.853  0.6269 -0.5324 -0.2512
 1767SOL    HW2 6834   6.296   2.712   2.817  1.5219 -0.5732  1.1935
 1767SOL    HW3 6835   6.261   2.859   2.804 -0.3448 -1.2086 -1.8707
 1767SOL    MW4 6836   6.249   2.782   2.842 -0.7699 -0.3823  0.7427
 1768SOL     OW 6837   6.359   4.779   3.265  0.1211 -0.3655 -0.7145
 1768SOL    HW2 6838   6.344   4.755   3.174 -0.8748  1.1048 -0.9756
 1768SOL    HW3 6839   6.323   4.706   3.316  1.0560 -1.3836 -1.4811
 1768SOL    MW4 6840   6.353   4.766   3.260 -0.0525 -0.0981  0.7715
 1769SOL     OW 6841   5.561   0.611   1.330  0.1841  0.5502  0.5881
 1769SOL    HW2 6842   5.638   0.663   1.355 -1.1790  1.8674  2.2272
 1769SOL    HW3 6843   5.551   0.547   1.400  1.5408 -1.7441 -1.1658
 1769SOL    MW4 6844   5.570   0.610   1.342  0.0946  0.1785 -0.2597
 1770SOL     OW 6845   6.322   2.771   3.270 -0.6771 -0.0421  0.6000
 1770SOL    HW2 6846   6.284   2.820   3.342 -0.3087 -0.0650  0.8144
 1770SOL    HW3 6847   6.247   2.742   3.218 -1.0489 -1.2588  1.7619
 1770SOL    MW4 6848   6.307   2.774   3.273 -0.2536  0.5833  0.2579
 1771SOL     OW 6849   4.652   1.958   3.640 -0.1663  0.1653 -0.1425
 1771SOL    HW2 6850   4.666   1.865   3.625 -0.2034 -0.4849  3.1133
 1771SOL    HW3 6851   4.740   1.993   3.657 -0.3983  0.0889  1.3598
 1771SOL    MW4 6852   4.666   1.950   3.640  0.0228  0.0282 -0.2904
 1772SOL     OW 6853   4.474   2.053   0.397  0.0913  0.3396  0.3666
 1772SOL    HW2 6854   4.432   2.028   0.314 -1.1773  2.8965  0.1267
 1772SOL    HW3 6855   4.542   2.116   0.372 -0.5515  1.4258  1.2412
 1772SOL    MW4 6856   4.477   2.058   0.383 -0.0396  0.2287 -0.2571
 1773SOL     OW 6857   6.121   2.369   2.972 -0.6639 -0.5321  0.7052
 1773SOL    HW2 6858   6.213   2.385   2.949 -0.3737 -3.3254 -0.5384
 1773SOL    HW3 6859   6.074   2.445   2.936  0.9072 -0.2118 -0.8493
 1773SOL    MW4 6860   6.127   2.381   2.964 -0.6018  0.7177  0.0119
 1774SOL     OW 6861   2.946   3.925   3.997  0.1311 -0.3468  0.0873
 1774SOL    HW2 6862   2.996   3.868   4.056  0.8606 -2.3346 -2.2590
 1774SOL    HW3 6863   3.012   3.981   3.957 -0.1969  0.1930  0.2969
 1774SOL    MW4 6864   2.962   3.925   4.000  0.0439 -0.8933 -0.7317
 1775SOL     OW 6865   4.659   5.826   2.006 -0.2670 -0.2250  0.2608
 1775SOL    HW2 6866   4.612   5.753   1.967  0.7393 -2.0020  2.1540
 1775SOL    HW3 6867   4.662   5.806   2.100 -0.0210  2.3155  0.8788
 1775SOL    MW4 6868   4.653   5.814   2.014  0.7139 -0.8265  0.3239
 1776SOL     OW 6869   3.099   0.504   3.265  0.1060 -0.0644 -0.0015
 1776SOL    HW2 6870   3.047   0.585   3.268 -0.9960 -0.7386 -0.3605
 1776SOL    HW3 6871   3.058   0.452   3.196  1.4192 -0.5260 -0.4511
 1776SOL    MW4 6872   3.087   0.508   3.256  0.1599  0.0235 -0.5341
 1777SOL     OW 6873   0.270   1.678   2.162 -0.6181 -0.1205 -0.1214
 1777SOL    HW2 6874   0.356   1.715   2.183 -0.6109  0.1915 -0.6884
 1777SOL    HW3 6875   0.230   1.741   2.103 -0.9377 -0.6280 -0.4582
 1777SOL    MW4 6876   0.276   1.691   2.157 -0.2843 -0.2381  0.2325
 1778SOL     OW 6877   4.476   0.344   3.604  0.2146 -0.0890 -0.0797
 1778SOL    HW2 6878   4.504   0.302   3.523 -0.2049  1.8067 -1.2698
 1778SOL    HW3 6879   4.403   0.401   3.578  0.2725  0.8150  1.5674
 1778SOL    MW4 6880   4.470   0.346   3.590 -0.0056 -0.6476  0.8102
 1779SOL     OW 6881   4.857   5.325   1.972 -0.0586 -0.1527 -0.2201
 1779SOL    HW2 6882   4.909   5.404   1.990 -0.9460  0.1078  1.2978
 1779SOL    HW3 6883   4.922   5.256   1.962  0.6112  0.0071  2.4350
 1779SOL    MW4 6884   4.873   5.327   1.973  0.0775  0.2471  0.1807
 1780SOL     OW 6885   1.820   5.870   6.419  0.0417 -0.5068 -0.7568
 1780SOL    HW2 6886   1.895   5.921   6.386 -0.2349  0.1595 -0.3625
 1780SOL    HW3 6887   1.743   5.915   6.383 -0.2126 -0.5348 -0.2460
 1780SOL    MW4 6888   1.820   5.883   6.410  0.1195  0.1064 -0.2968
 1781SOL     OW 6889   3.809   5.847   2.867  0.5222 -0.6042  0.2577
 1781SOL    HW2 6890   3.763   5.898   2.800 -0.2166 -0.8486  0.5797
 1781SOL    HW3 6891   3.740   5.806   2.919  1.0704 -2.7844 -0.6236
 1781SOL    MW4 6892   3.794   5.848   2.865  0.3927 -0.3313  0.3602
 1782SOL     OW 6893   0.847   0.335   3.364 -0.3092 -0.3037 -0.5371
 1782SOL    HW2 6894   0.816   0.336   3.454  0.4803  0.7250 -0.2540
 1782SOL    HW3 6895   0.856   0.242   3.343 -0.0501 -0.5547  0.6104
 1782SOL    MW4 6896   0.844   0.323   3.373  0.5879 -0.1878 -0.4336
 1783SOL     OW 6897   1.616   4.322   1.047 -0.2206  0.2539  0.5711
 1783SOL    HW2 6898   1.583   4.259   1.110 -0.9355  0.9675  0.9412
 1783SOL    HW3 6899   1.708   4.300   1.036 -0.1175  0.0165  1.7515
 1783SOL    MW4 6900   1.624   4.311   1.054 -0.0754 -0.2085 -0.0847
 1784SOL     OW 6901   4.457   5.784   1.346 -0.1250  1.0032  0.0587
 1784SOL    HW2 6902   4.536   5.810   1.394  0.8368 -2.8238  0.9091
 1784SOL    HW3 6903   4.491   5.741   1.268 -1.3826  0.2802 -0.1033
 1784SOL    MW4 6904   4.472   5.782   1.342  0.1877  0.0219  1.2701
 1785SOL     OW 6905   0.310   0.382   0.070 -0.2301 -0.1971  0.2489
 1785SOL    HW2 6906   0.354   0.366   0.154  0.1493  0.2014  0.1262
 1785SOL    HW3 6907   0.249   0.309   0.061  1.2856 -1.4634 -0.1783
 1785SOL    MW4 6908   0.308   0.370   0.080 -0.5854  0.1710  0.0029
 1786SOL     OW 6909   5.684   5.474   6.331  0.3468 -0.4312  0.9583
 1786SOL    HW2 6910   5.742   5.521   6.271 -0.0194 -0.7881  0.3111
 1786SOL    HW3 6911   5.597   5.504   6.309  0.1154 -1.3201  0.6118
 1786SOL    MW4 6912   5.680   5.484   6.320 -0.0290  0.1914 -0.2674
 1787SOL     OW 6913   4.995   4.339   5.444  0.5844 -0.0004 -0.1421
 1787SOL    HW2 6914   5.079   4.370   5.412  0.6799  0.2136  0.3018
 1787SOL    HW3 6915   5.007   4.330   5.539  0.7232 -1.8785 -0.2926
 1787SOL    MW4 6916   5.008   4.342   5.453  0.6591  0.1349  0.3023
 1788SOL     OW 6917   5.157   0.920   3.697  0.0877  0.1714  0.1784
 1788SOL    HW2 6918   5.167   0.828   3.675 -0.1466  0.2306 -0.1822
 1788SOL    HW3 6919   5.170   0.967   3.615  1.8911  0.5897  0.6656
 1788SOL    MW4 6920   5.160   0.914   3.683  0.0110 -0.1063 -0.6555
 1789SOL     OW 6921   5.495   5.459   3.269 -0.8962  0.1970 -0.0882
 1789SOL    HW2 6922   5.462   5.495   3.187  1.4796  0.2464 -1.0973
 1789SOL    HW3 6923   5.450   5.375   3.278 -2.0810  0.7278 -0.7951
 1789SOL    MW4 6924   5.485   5.453   3.259 -0.3076 -0.0950 -0.6957
 1790SOL     OW 6925   3.513   4.398   2.050 -0.6014 -0.4983 -0.3935
 1790SOL    HW2 6926   3.577   4.465   2.027 -1.7026  0.9512  0.6491
 1790SOL    HW3 6927   3.457   4.390   1.972 -1.1320  0.6069 -0.1433
 1790SOL    MW4 6928   3.514   4.405   2.036  0.0709 -0.1924  0.2661
 1791SOL     OW 6929   5.866   3.839   1.517 -0.0682 -0.1863  0.2958
 1791SOL    HW2 6930   5.789   3.888   1.488 -0.3146 -1.5454 -1.5307
 1791SOL    HW3 6931   5.908   3.896   1.582 -1.6146  1.3643  0.0070
 1791SOL    MW4 6932   5.861   3.853   1.522 -0.3641 -0.0510  0.4250
 1792SOL     OW 6933   2.588   0.331   0.828  0.0707 -0.2507  0.2197
 1792SOL    HW2 6934   2.595   0.319   0.733  1.1216 -0.9260  0.3698
 1792SOL    HW3 6935   2.512   0.279   0.853  1.0811 -1.9116  0.0227
 1792SOL    MW4 6936   2.579   0.322   0.819 -0.1893  0.5380  0.0305
 1793SOL     OW 6937   6.239   3.778   1.669  0.0122  0.1097 -0.1109
 1793SOL    HW2 6938   6.243   3.689   1.702  1.4334 -0.2892 -1.2942
 1793SOL    HW3 6939   6.192   3.771   1.586 -4.2667  1.2127  1.8929
 1793SOL    MW4 6940   6.233   3.766   1.663  0.1829  0.3735 -0.2187
 1794SOL     OW 6941   6.150   3.598   4.926  1.1263 -0.1735  0.1809
 1794SOL    HW2 6942   6.187   3.585   4.838  0.5840  1.5790 -0.3442
 1794SOL    HW3 6943   6.142   3.693   4.934  0.8125 -0.3310  1.9963
 1794SOL    MW4 6944   6.154   3.608   4.915  0.1904  0.0172 -0.2118
 1795SOL     OW 6945   0.166   1.451   6.138 -0.3072  0.4170  0.0286
 1795SOL    HW2 6946   0.183   1.401   6.058 -1.1562  0.6533 -0.3128
 1795SOL    HW3 6947   0.226   1.525   6.133  1.2540 -0.7506  0.7381
 1795SOL    MW4 6948   0.176   1.454   6.127  0.4283  0.0876 -0.1821
 1796SOL     OW 6949   2.180   5.043   6.047  0.2849 -0.6393 -0.1186
 1796SOL    HW2 6950   2.160   5.082   6.133  2.9107 -0.3114  0.4236
 1796SOL    HW3 6951   2.138   5.102   5.984  2.4322  2.0937  0.7782
 1796SOL    MW4 6952   2.172   5.056   6.050  0.0590 -0.2360 -0.1646
 1797SOL     OW 6953   5.435   1.058   0.652  0.4175  0.5000  0.1122
 1797SOL    HW2 6954   5.440   1.114   0.574 -3.8142  0.6275 -0.2707
 1797SOL    HW3 6955   5.371   1.101   0.708  0.3180 -1.7456  1.8339
 1797SOL    MW4 6956   5.427   1.071   0.649  0.0941  0.0755 -0.3879
 1798SOL     OW 6957   0.148   4.540   4.495  0.6018  0.1807  0.9451
 1798SOL    HW2 6958   0.090   4.504   4.428 -0.3545  1.2992  1.1256
 1798SOL    HW3 6959   0.163   4.468   4.556  1.0710 -0.7032 -0.1869
 1798SOL    MW4 6960   0.142   4.526   4.494  0.1320  0.2038  0.8966
 1799SOL     OW 6961   5.041   1.137   0.623 -0.2675  0.2532  0.0041
 1799SOL    HW2 6962   4.959   1.175   0.593 -0.1276 -0.5977 -1.5422
 1799SOL    HW3 6963   5.096   1.213   0.643 -1.0960  0.8322  0.1381
 1799SOL    MW4 6964   5.038   1.152   0.622  0.2810  0.4180  0.1234
 1800SOL     OW 6965   0.967   3.766   6.035 -0.7559  0.3728 -0.5366
 1800SOL    HW2 6966   1.030   3.703   6.000 -1.1111  0.3958 -1.2322
 1800SOL    HW3 6967   0.952   3.737   6.125 -1.2654 -0.8239 -0.9784
 1800SOL    MW4 6968   0.974   3.754   6.042  0.1906 -0.0603  0.2861
 1801SOL     OW 6969   6.165   4.976   4.100 -0.0566 -0.0940 -0.0610
 1801SOL    HW2 6970   6.152   4.996   4.008  1.8700 -0.7969 -0.5409
 1801SOL    HW3 6971   6.111   4.898   4.116 -0.3255 -0.0235 -0.6187
 1801SOL    MW4 6972   6.156   4.968   4.090  0.0102 -0.3412  0.0669
 1802SOL     OW 6973   2.947   2.475   0.506 -0.3747  0.1689 -0.2188
 1802SOL    HW2 6974   2.891   2.535   0.456 -0.0800 -0.3460 -1.1854
 1802SOL    HW3 6975   3.035   2.510   0.495 -0.4884  1.1749  1.5791
 1802SOL    MW4 6976   2.951   2.488   0.498 -0.9100  0.0473 -0.0554
 1803SOL     OW 6977   2.719   4.370   0.284  0.7823 -0.2109 -0.0493
 1803SOL    HW2 6978   2.749   4.368   0.193  0.7023 -1.2633 -0.0637
 1803SOL    HW3 6979   2.633   4.327   0.282 -1.3437  3.6531 -0.1961
 1803SOL    MW4 6980   2.712   4.364   0.272 -0.0229  0.4945 -0.1105
 1804SOL     OW 6981   0.499   3.282   5.849 -0.2866 -0.1788 -0.1652
 1804SOL    HW2 6982   0.549   3.362   5.864 -1.9997  0.7785  0.7732
 1804SOL    HW3 6983   0.470   3.289   5.758  1.1612 -0.7086 -0.6955
 1804SOL    MW4 6984   0.502   3.294   5.839  0.1643 -0.4679 -0.5915
 1805SOL     OW 6985   2.741   5.860   6.216  0.2118 -0.3506  0.6695
 1805SOL    HW2 6986   2.725   5.935   6.274  0.8768  0.1082  0.2716
 1805SOL    HW3 6987   2.719   5.783   6.270 -2.0566  0.1420  0.5809
 1805SOL    MW4 6988   2.736   5.860   6.231 -0.3680 -0.6345  0.0736
 1806SOL     OW 6989   0.896   2.315   5.687 -0.4034 -0.0143 -0.0972
 1806SOL    HW2 6990   0.925   2.406   5.695 -0.6850  0.1888 -1.2701
 1806SOL    HW3 6991   0.895   2.299   5.593 -2.7600 -0.4476 -0.0346
 1806SOL    MW4 6992   0.900   2.325   5.676 -0.0026 -0.3661  0.0660
 1807SOL     OW 6993   0.677   0.802   2.122  0.2826  0.1612 -0.1354
 1807SOL    HW2 6994   0.709   0.789   2.212 -1.5237 -0.4540  0.4594
 1807SOL    HW3 6995   0.650   0.893   2.119  0.3922  0.1962 -0.0734
 1807SOL    MW4 6996   0.678   0.812   2.134 -0.7225 -0.5023 -0.3861
 1808SOL     OW 6997   2.216   2.526   3.791 -0.1119 -0.0777  0.6529
 1808SOL    HW2 6998   2.308   2.514   3.767 -0.4236 -0.8042 -0.2570
 1808SOL    HW3 6999   2.168   2.478   3.723 -1.1931  0.9371  0.6804
 1808SOL    MW4 7000   2.222   2.518   3.779  0.0531 -0.7841  0.5702
 1809SOL     OW 7001   5.904   6.017   5.832  0.4696  0.0514 -0.0981
 1809SOL    HW2 7002   5.951   6.052   5.908 -1.5355  1.0643  0.7264
 1809SOL    HW3 7003   5.967   6.024   5.760  2.2674 -0.4966  1.3262
 1809SOL    MW4 7004   5.919   6.022   5.832  0.3970 -0.1146 -0.3890
 1810SOL     OW 7005   1.825   6.272   0.595  0.0345  0.7921  0.6893
 1810SOL    HW2 7006   1.774   6.351   0.576 -0.0547  1.0268  1.8644
 1810SOL    HW3 7007   1.760   6.202   0.595 -0.3062  1.0736  2.0509
 1810SOL    MW4 7008   1.810   6.273   0.592 -0.0833  0.2904  0.2455
 1811SOL     OW 7009   0.868   4.385   0.047  0.0382  0.1951  0.7854
 1811SOL    HW2 7010   0.890   4.436   0.126  0.4069 -0.1383  0.9002
 1811SOL    HW3 7011   0.776   4.363   0.059  0.0524  0.2703  1.0577
 1811SOL    MW4 7012   0.859   4.389   0.059 -0.3263 -0.3135 -0.3737
 1812SOL     OW 7013   3.253   3.458   2.248  0.8437 -0.1938 -0.1741
 1812SOL    HW2 7014   3.282   3.493   2.164  0.7133 -2.7172 -1.3716
 1812SOL    HW3 7015   3.222   3.370   2.227 -2.3276  0.2523  1.9739
 1812SOL    MW4 7016   3.253   3.451   2.234  0.0895 -0.1293 -0.0992
 1813SOL     OW 7017   6.116   3.175   5.384  0.0384 -0.1997 -0.4195
 1813SOL    HW2 7018   6.023   3.172   5.404 -0.0501 -1.1025 -0.8956
 1813SOL    HW3 7019   6.153   3.236   5.447 -0.6875 -0.7265  0.5370
 1813SOL    MW4 7020   6.109   3.183   5.395  0.3805  0.3679 -0.5004
 1814SOL     OW 7021   5.216   3.540   0.660 -0.2150  0.1475  0.2785
 1814SOL    HW2 7022   5.210   3.597   0.737  1.1954  0.4708  0.1940
 1814SOL    HW3 7023   5.196   3.453   0.693  0.7936  0.2141  1.1437
 1814SOL    MW4 7024   5.213   3.536   0.675  0.2192  0.1434 -0.4090
 1815SOL     OW 7025   3.399   6.333   0.235  0.4492 -0.3052  0.4579
 1815SOL    HW2 7026   3.455   6.255   0.235 -0.4348 -0.9582  0.2073
 1815SOL    HW3 7027   3.443   6.394   0.177  1.8752 -0.0620  1.7270
 1815SOL    MW4 7028   3.412   6.331   0.228 -0.1072  0.5758  0.0922
 1816SOL     OW 7029   0.238   3.015   5.928  1.4034 -0.5499  0.7215
 1816SOL    HW2 7030   0.326   2.990   5.900  0.9524  0.2437 -1.5887
 1816SOL    HW3 7031   0.243   3.110   5.938  1.1324 -0.6453  1.9832
 1816SOL    MW4 7032   0.250   3.025   5.926 -0.2947  0.1140  0.1248
 1817SOL     OW 7033   6.331   4.131   1.897 -0.2071  0.4483  0.8723
 1817SOL    HW2 7034   6.306   4.166   1.812  0.7566  1.1102  0.8402
 1817SOL    HW3 7035   6.411   4.080   1.880 -1.6624 -1.9886  0.8936
 1817SOL    MW4 7036   6.339   4.129   1.884 -0.3969  0.3589 -0.1905
 1818SOL     OW 7037   4.756   2.270   4.400  0.1251  0.3817  0.1313
 1818SOL    HW2 7038   4.675   2.288   4.447  1.1184  0.0246  2.0834
 1818SOL    HW3 7039   4.741   2.186   4.357 -0.2773 -0.0840  1.1486
 1818SOL    MW4 7040   4.743   2.261   4.401  0.2465  0.4526 -0.1953
 1819SOL     OW 7041   4.739   1.074   1.785  0.0477 -0.7231  0.3780
 1819SOL    HW2 7042   4.702   0.995   1.824 -0.8569 -0.4520  0.0753
 1819SOL    HW3 7043   4.792   1.112   1.854 -0.3296 -1.0552  0.8534
 1819SOL    MW4 7044   4.741   1.068   1.799  0.0864 -0.0499  0.2344
 1820SOL     OW 7045   2.574   2.195   2.194  0.0177 -0.0297 -0.3435
 1820SOL    HW2 7046   2.530   2.176   2.111 -0.0180 -0.5490 -0.2105
 1820SOL    HW3 7047   2.619   2.114   2.216  2.3551  0.9580 -1.2493
 1820SOL    MW4 7048   2.574   2.182   2.186  0.4260 -0.1173  0.4793
 1821SOL     OW 7049   5.808   4.314   3.939  0.1419 -0.2829 -0.1144
 1821SOL    HW2 7050   5.830   4.306   3.846  1.8710 -1.5498  0.3493
 1821SOL    HW3 7051   5.890   4.294   3.984 -0.2575  1.8042  1.6861
 1821SOL    MW4 7052   5.822   4.311   3.932 -0.4144  0.5769 -0.3826
 1822SOL     OW 7053   1.361   3.490   3.681 -0.0583  0.0302 -0.2166
 1822SOL    HW2 7054   1.373   3.554   3.752 -0.0848  0.9232 -1.0022
 1822SOL    HW3 7055   1.448   3.455   3.664 -0.0069  0.0208  0.0619
 1822SOL    MW4 7056   1.374   3.494   3.688 -0.5128  0.2253  0.1639
 1823SOL     OW 7057   5.002   3.157   4.700 -0.2721  0.4380 -0.4467
 1823SOL    HW2 7058   5.073   3.179   4.640 -0.9251 -1.6138 -2.1106
 1823SOL    HW3 7059   5.030   3.075   4.741 -0.3053  1.2791  1.3433
 1823SOL    MW4 7060   5.015   3.149   4.697 -0.6322  0.2118  0.1999
 1824SOL     OW 7061   3.248   5.532   6.406 -0.4722  0.0118  0.2202
 1824SOL    HW2 7062   3.343   5.524   6.403 -0.5638 -1.0848 -0.0980
 1824SOL    HW3 7063   3.222   5.478   6.481 -0.9115 -0.3931 -0.2256
 1824SOL    MW4 7064   3.257   5.524   6.416  0.0361 -0.3246 -0.3922
 1825SOL     OW 7065   3.113   0.374   3.534 -0.1986 -0.4404  0.1140
 1825SOL    HW2 7066   3.068   0.411   3.610  1.1046 -1.5103  1.4662
 1825SOL    HW3 7067   3.073   0.417   3.459 -0.5811  1.6792  1.4608
 1825SOL    MW4 7068   3.102   0.384   3.534  0.2613 -0.5455  0.1908
 1826SOL     OW 7069   1.599   1.461   3.778 -0.0343 -0.2724  0.0078
 1826SOL    HW2 7070   1.577   1.521   3.849  0.4018  0.7647 -0.7059
 1826SOL    HW3 7071   1.649   1.391   3.819  1.0953  0.8419  0.5692
 1826SOL    MW4 7072   1.602   1.459   3.793 -0.0559 -0.6469  0.1029
 1827SOL     OW 7073   6.375   1.284   0.289  0.3574  0.0514  0.2084
 1827SOL    HW2 7074   6.387   1.211   0.229  0.8549  0.0658  0.2860
 1827SOL    HW3 7075   6.356   1.243   0.374 -0.9802  0.0351 -0.0682
 1827SOL    MW4 7076   6.374   1.269   0.292  0.1145  0.1511 -0.0599
 1828SOL     OW 7077   2.956   1.238   3.727  0.2428 -0.3516  0.1924
 1828SOL    HW2 7078   2.891   1.220   3.658 -1.2146 -1.4062  1.7588
 1828SOL    HW3 7079   2.996   1.153   3.745 -0.3958 -0.3841  1.5764
 1828SOL    MW4 7080   2.953   1.224   3.720  0.4470 -0.0464 -0.3231
 1829SOL     OW 7081   0.281   4.562   0.901 -0.1651 -0.1631 -0.7548
 1829SOL    HW2 7082   0.260   4.469   0.895 -0.0331 -0.1703 -1.1427
 1829SOL    HW3 7083   0.224   4.595   0.970 -0.7780 -0.3742 -1.1548
 1829SOL    MW4 7084   0.271   4.554   0.910 -0.2165  0.0096 -0.2224
 1830SOL     OW 7085   4.337   5.788   2.629 -0.2661 -0.2153 -0.4225
 1830SOL    HW2 7086   4.343   5.710   2.574 -1.0570  0.5060 -1.5740
 1830SOL    HW3 7087   4.328   5.753   2.718 -0.2075 -1.4249 -0.8627
 1830SOL    MW4 7088   4.337   5.773   2.633  0.3991 -0.3002  0.3037
 1831SOL     OW 7089   4.538   4.921   2.079 -0.2622 -0.4840  0.3847
 1831SOL    HW2 7090   4.588   4.887   2.153 -2.4744 -0.8110  1.8119
 1831SOL    HW3 7091   4.502   4.843   2.037  0.5260 -0.2649 -0.7616
 1831SOL    MW4 7092   4.540   4.906   2.083 -0.2870  0.0933 -0.8116
 1832SOL     OW 7093   2.714   1.554   0.082 -0.4932  0.4137 -0.4113
 1832SOL    HW2 7094   2.691   1.609   0.007  0.9931  0.7807 -0.6320
 1832SOL    HW3 7095   2.683   1.604   0.158 -0.1214  1.0717 -0.6751
 1832SOL    MW4 7096   2.707   1.568   0.082  0.0072 -0.0506  0.6163
 1833SOL     OW 7097   5.719   1.911   2.640 -0.1206 -0.0365  0.0935
 1833SOL    HW2 7098   5.813   1.895   2.629  0.2325  0.9083  1.4172
 1833SOL    HW3 7099   5.705   1.903   2.735 -1.0795  1.2728  0.0891
 1833SOL    MW4 7100   5.729   1.908   2.651  0.0255 -0.1886 -0.2061
 1834SOL     OW 7101   0.183   4.256   4.940 -0.2243 -0.3596  0.5415
 1834SOL    HW2 7102   0.167   4.177   4.888  1.1699 -0.4420  0.1820
 1834SOL    HW3 7103   0.216   4.320   4.878 -0.3794  0.1772  1.0065
 1834SOL    MW4 7104   0.185   4.254   4.925 -0.1694 -0.3742  0.7463
 1835SOL     OW 7105   0.101   0.514   2.647  0.0586 -0.0368 -0.2446
 1835SOL    HW2 7106   0.013   0.486   2.622 -0.2301  0.1605  0.5200
 1835SOL    HW3 7107   0.137   0.439   2.694  0.2228 -0.0395 -0.3740
 1835SOL    MW4 7108   0.094   0.500   2.650  0.3082 -0.0241 -0.6704
 1836SOL     OW 7109   2.401   4.234   5.778 -0.5028  0.2860 -0.3339
 1836SOL    HW2 7110   2.370   4.166   5.838 -0.9521  0.3193 -0.5211
 1836SOL    HW3 7111   2.457   4.187   5.716  2.9723  0.7788  2.1699
 1836SOL    MW4 7112   2.404   4.219   5.778 -0.5172 -0.4651  0.1849
 1837SOL     OW 7113   3.406   4.403   4.783 -0.1492 -0.5105 -0.2915
 1837SOL    HW2 7114   3.471   4.335   4.800 -0.9291 -0.8753  1.5067
 1837SOL    HW3 7115   3.345   4.363   4.721  1.1141 -0.2788 -1.7382
 1837SOL    MW4 7116   3.407   4.389   4.777 -0.6969  0.3557  0.2928
 1838SOL     OW 7117   4.266   2.412   5.885  0.1827  0.1891 -0.2967
 1838SOL    HW2 7118   4.258   2.483   5.948 -0.9752  1.3418 -1.6683
 1838SOL    HW3 7119   4.259   2.332   5.938  0.2553  1.1041  1.1344
 1838SOL    MW4 7120   4.264   2.411   5.900 -0.2704  0.0207  0.3739
 1839SOL     OW 7121   2.658   3.578   2.296 -0.7002  0.2148 -0.4189
 1839SOL    HW2 7122   2.578   3.528   2.312  0.1615 -1.0713 -0.0088
 1839SOL    HW3 7123   2.678   3.617   2.381  0.1463 -1.0578 -0.0041
 1839SOL    MW4 7124   2.650   3.577   2.310  0.4184  0.2403  0.2023
 1840SOL     OW 7125   5.126   5.169   0.752  0.2595 -0.5827  0.2602
 1840SOL    HW2 7126   5.056   5.117   0.711  0.9551 -1.5991  0.3370
 1840SOL    HW3 7127   5.192   5.178   0.684  0.1375  0.2278  0.2459
 1840SOL    MW4 7128   5.125   5.163   0.737 -0.0615 -0.4528  0.2609
 1841SOL     OW 7129   5.368   6.313   0.140 -0.2792 -0.4143 -0.0804
 1841SOL    HW2 7130   5.406   6.279   0.059 -0.4264  1.2931 -0.8952
 1841SOL    HW3 7131   5.442   6.351   0.187 -0.0354 -2.1418  1.0418
 1841SOL    MW4 7132   5.383   6.313   0.136 -0.4737 -0.4522 -0.1043
 1842SOL     OW 7133   2.212   1.050   1.147 -0.2436 -0.4721 -0.4117
 1842SOL    HW2 7134   2.151   1.121   1.127  0.6424 -0.1668 -2.2172
 1842SOL    HW3 7135   2.160   0.970   1.134 -1.6190 -0.2621  2.8730
 1842SOL    MW4 7136   2.197   1.049   1.143 -0.1088 -0.1925 -0.0976
 1843SOL     OW 7137   1.296   5.939   3.956 -0.1555 -0.7141  0.0970
 1843SOL    HW2 7138   1.305   5.890   4.038  1.3665  0.1413  0.4897
 1843SOL    HW3 7139   1.386   5.955   3.929 -0.6046 -1.9426 -2.3780
 1843SOL    MW4 7140   1.309   5.934   3.964  0.5662 -0.0898  0.5965
 1844SOL     OW 7141   5.482   1.417   4.099 -0.0999 -0.2708  0.2820
 1844SOL    HW2 7142   5.427   1.364   4.157  0.9596 -0.7424  0.9013
 1844SOL    HW3 7143   5.533   1.472   4.158  0.4059 -0.1618 -0.2434
 1844SOL    MW4 7144   5.482   1.417   4.114  0.1954 -0.3935  0.1829
 1845SOL     OW 7145   4.489   5.694   0.197  0.2964  0.5088 -0.3577
 1845SOL    HW2 7146   4.403   5.733   0.182  0.0493 -0.1829 -0.7859
 1845SOL    HW3 7147   4.515   5.726   0.283 -1.1159 -0.5371  0.5061
 1845SOL    MW4 7148   4.481   5.703   0.206 -0.0206 -0.4548  0.1610
 1846SOL     OW 7149   3.249   0.892   0.827 -0.4394 -0.1321 -0.4382
 1846SOL    HW2 7150   3.256   0.830   0.754  1.0075 -0.1488 -0.3127
 1846SOL    HW3 7151   3.307   0.856   0.894 -2.0029 -0.2931  0.8726
 1846SOL    MW4 7152   3.257   0.879   0.826 -0.0160  0.6648 -0.5190
 1847SOL     OW 7153   4.347   5.543   0.945 -0.0819 -0.2708 -0.0652
 1847SOL    HW2 7154   4.375   5.466   0.895  1.6158  0.1379  0.1879
 1847SOL    HW3 7155   4.285   5.508   1.009 -0.6913 -1.1289 -1.0818
 1847SOL    MW4 7156   4.342   5.528   0.947 -0.0478  0.2197  0.1266
 1848SOL     OW 7157   0.876   4.422   0.753 -0.2497  0.3839  0.5343
 1848SOL    HW2 7158   0.782   4.431   0.742 -0.1697 -0.6385 -1.5515
 1848SOL    HW3 7159   0.913   4.489   0.696  0.2666 -0.0204  0.3832
 1848SOL    MW4 7160   0.869   4.432   0.744 -0.1915  0.1729 -0.2417
 1849SOL     OW 7161   1.260   0.830   1.156 -0.4439 -0.2702 -0.5582
 1849SOL    HW2 7162   1.318   0.901   1.183 -0.8435 -0.0144 -0.3692
 1849SOL    HW3 7163   1.264   0.831   1.060  0.6533 -0.9122 -0.5354
 1849SOL    MW4 7164   1.268   0.839   1.147 -0.1261  0.2364  0.0806
 1850SOL     OW 7165   2.792   6.408   2.308 -0.4786 -0.3292  0.2569
 1850SOL    HW2 7166   2.826   6.486   2.265 -0.1906 -1.5649 -1.8809
 1850SOL    HW3 7167   2.867   6.348   2.314 -1.0237 -1.0051  0.5046
 1850SOL    MW4 7168   2.806   6.410   2.303  0.9536  0.3543  0.3973
 1851SOL     OW 7169   0.488   5.406   1.411 -0.8564  0.4950 -0.1710
 1851SOL    HW2 7170   0.543   5.433   1.484 -0.4306 -0.2753 -0.1919
 1851SOL    HW3 7171   0.548   5.361   1.351 -1.1961  1.1258 -1.0018
 1851SOL    MW4 7172   0.503   5.404   1.412  0.4337 -0.5563  0.1705
 1852SOL     OW 7173   0.044   5.431   5.066  0.2076  0.3281 -1.1203
 1852SOL    HW2 7174   0.110   5.478   5.117 -0.2681 -2.5687  2.6214
 1852SOL    HW3 7175   0.095   5.376   5.007  1.0370  0.4192 -0.5214
 1852SOL    MW4 7176   0.060   5.430   5.065  0.2910 -0.1692  0.0838
 1853SOL     OW 7177   3.724   2.873   2.500 -0.1712 -0.1155  0.4345
 1853SOL    HW2 7178   3.743   2.795   2.551  2.0010 -1.9777 -2.8482
 1853SOL    HW3 7179   3.677   2.931   2.561 -1.3550 -3.6318  3.2205
 1853SOL    MW4 7180   3.720   2.871   2.515 -0.2877 -0.0645 -0.3165
 1854SOL     OW 7181   1.736   0.970   2.556  0.0636 -0.4194 -0.6798
 1854SOL    HW2 7182   1.659   1.027   2.559  0.6277  0.4862 -2.3701
 1854SOL    HW3 7183   1.704   0.887   2.522 -0.1099  0.0720 -1.7371
 1854SOL    MW4 7184   1.722   0.967   2.552 -0.4923 -0.1213 -0.4413
 1855SOL     OW 7185   6.014   3.474   0.931  0.1312 -0.1378  0.1358
 1855SOL    HW2 7186   6.079   3.453   0.864  0.5604  0.5556  0.3248
 1855SOL    HW3 7187   5.934   3.429   0.902 -0.4839  2.2791 -2.3163
 1855SOL    MW4 7188   6.012   3.465   0.918 -0.0085 -0.3369  0.3489
 1856SOL     OW 7189   2.710   1.405   0.532 -0.7530 -0.1193  0.2137
 1856SOL    HW2 7190   2.771   1.338   0.503 -1.3897 -1.3512  1.6164
 1856SOL    HW3 7191   2.750   1.442   0.610  0.2921  2.2261 -1.3021
 1856SOL    MW4 7192   2.723   1.401   0.538  0.2348  0.0655 -0.1415
 1857SOL     OW 7193   0.844   4.807   3.155  0.1360  0.8232 -0.5861
 1857SOL    HW2 7194   0.902   4.742   3.116 -0.9974 -0.5715 -0.0345
 1857SOL    HW3 7195   0.888   4.833   3.236  0.1574  0.0126 -0.3325
 1857SOL    MW4 7196   0.857   4.802   3.161  0.5170  0.0314  0.5122
 1858SOL     OW 7197   2.852   0.200   4.857 -0.4215 -0.3199  0.4559
 1858SOL    HW2 7198   2.844   0.235   4.768 -0.5149  0.1469  0.6446
 1858SOL    HW3 7199   2.766   0.164   4.877 -0.5889  0.1490  0.5928
 1858SOL    MW4 7200   2.840   0.200   4.848  0.0240 -0.4221  0.0223
 1859SOL     OW 7201   4.917   4.904   2.058 -0.0419  0.1367  0.3281
 1859SOL    HW2 7202   4.994   4.953   2.086  1.2856 -1.2857 -0.6721
 1859SOL    HW3 7203   4.858   4.970   2.021  1.3344  1.0984 -0.2133
 1859SOL    MW4 7204   4.919   4.919   2.057 -0.3302 -0.0461  0.0230
 1860SOL     OW 7205   0.430   5.742   4.669  0.0410  0.2112  0.1591
 1860SOL    HW2 7206   0.368   5.756   4.598 -1.1979 -3.0934  0.4101
 1860SOL    HW3 7207   0.427   5.823   4.720 -2.2786  1.0441 -1.1644
 1860SOL    MW4 7208   0.421   5.755   4.666 -0.2075  0.1428  0.3197
 1861SOL     OW 7209   4.610   3.335   2.695  0.0235  0.9220 -0.4214
 1861SOL    HW2 7210   4.547   3.263   2.687  0.3456  0.4794  0.7880
 1861SOL    HW3 7211   4.694   3.297   2.669  0.6707  0.0823  2.5533
 1861SOL    MW4 7212   4.613   3.321   2.690 -0.2680 -0.2332  0.0289
 1862SOL     OW 7213   0.026   2.831   5.882  0.5026  0.3452 -0.2496
 1862SOL    HW2 7214   0.113   2.869   5.895  0.3227  0.4101  0.8675
 1862SOL    HW3 7215  -0.006   2.872   5.802  1.2682  0.7603 -0.3528
 1862SOL    MW4 7216   0.033   2.842   5.873  0.0256  0.0222  0.5411
 1863SOL     OW 7217   5.761   4.283   5.039 -0.4191  0.2355 -0.5156
 1863SOL    HW2 7218   5.728   4.200   5.003  0.2074 -0.8535  1.2937
 1863SOL    HW3 7219   5.766   4.268   5.133  0.0806  2.2302 -0.1809
 1863SOL    MW4 7220   5.757   4.270   5.047  0.3666 -0.0577 -0.5236
 1864SOL     OW 7221   1.184   5.754   5.698  0.2114 -0.6345  0.1536
 1864SOL    HW2 7222   1.198   5.779   5.607 -0.4007 -0.3209  0.1360
 1864SOL    HW3 7223   1.130   5.676   5.694 -0.6081 -0.0883  0.2495
 1864SOL    MW4 7224   1.179   5.747   5.686 -0.1212 -0.3015  0.4318
 1865SOL     OW 7225   4.012   6.174   2.168 -0.3428  0.1425  0.1296
 1865SOL    HW2 7226   4.014   6.104   2.233  1.2281  1.3497  1.5008
 1865SOL    HW3 7227   4.103   6.205   2.164 -0.7951  1.4358 -1.1586
 1865SOL    MW4 7228   4.025   6.169   2.176 -0.3735  1.1152 -0.3744
 1866SOL     OW 7229   2.566   4.641   0.424 -0.2898 -0.2902  0.0364
 1866SOL    HW2 7230   2.517   4.703   0.478  0.5633  1.4557 -1.1036
 1866SOL    HW3 7231   2.553   4.556   0.467 -0.5803  0.8290  2.3194
 1866SOL    MW4 7232   2.558   4.638   0.437  0.3770 -0.3909 -0.1616
 1867SOL     OW 7233   0.285   5.665   1.477  0.0820 -0.0114 -0.3852
 1867SOL    HW2 7234   0.203   5.679   1.526 -0.0744 -0.0341 -0.6410
 1867SOL    HW3 7235   0.326   5.752   1.474  0.3249 -0.1008  0.1998
 1867SOL    MW4 7236   0.279   5.678   1.483  0.3540 -0.2709 -0.4566
 1868SOL     OW 7237   6.282   4.648   1.444 -0.0684  0.1603  0.2120
 1868SOL    HW2 7238   6.290   4.601   1.361 -0.4368  0.7476 -0.1607
 1868SOL    HW3 7239   6.333   4.728   1.431 -0.6423  0.5483  0.3321
 1868SOL    MW4 7240   6.290   4.652   1.431 -0.2367  0.1112  0.2668
 1869SOL     OW 7241   4.232   5.804   3.684 -0.1676 -0.1333  0.0995
 1869SOL    HW2 7242   4.225   5.863   3.758  0.5677  0.1561 -0.0509
 1869SOL    HW3 7243   4.142   5.778   3.665 -0.4278  0.3637  0.6291
 1869SOL    MW4 7244   4.219   5.809   3.691  0.0011 -0.3698 -0.4006
 1870SOL     OW 7245   0.352   4.590   1.932  0.2829  0.0599  0.4722
 1870SOL    HW2 7246   0.438   4.568   1.966  0.3926  2.6632  2.1530
 1870SOL    HW3 7247   0.307   4.632   2.005 -2.3468 -0.9295 -0.4425
 1870SOL    MW4 7248   0.357   4.592   1.946  0.2575 -0.3204 -0.3368
 1871SOL     OW 7249   0.382   5.670   2.791  0.3885  0.0460  0.0125
 1871SOL    HW2 7250   0.382   5.600   2.725  1.3777 -0.3786  0.4505
 1871SOL    HW3 7251   0.372   5.624   2.874 -2.3374  0.6770  0.1093
 1871SOL    MW4 7252   0.381   5.655   2.793  0.5556 -0.1053  0.1791
 1872SOL     OW 7253   1.989   5.994   0.608  0.3150 -0.0638  0.2726
 1872SOL    HW2 7254   1.894   5.988   0.598  0.5264 -0.9580 -1.5437
 1872SOL    HW3 7255   2.008   6.087   0.596 -0.2044 -0.0841 -0.8778
 1872SOL    MW4 7256   1.979   6.006   0.605 -0.1293 -0.1287 -0.0654
 1873SOL     OW 7257   2.344   4.838   6.072  0.6420  0.0715 -0.1132
 1873SOL    HW2 7258   2.281   4.910   6.077  0.7691  0.1598  0.2349
 1873SOL    HW3 7259   2.343   4.799   6.160  0.7824 -0.1712 -0.2194
 1873SOL    MW4 7260   2.335   4.842   6.084 -0.2416  0.1773  0.3263
 1874SOL     OW 7261   3.320   2.730   2.003  0.3500 -0.1807  0.5426
 1874SOL    HW2 7262   3.262   2.661   2.035  0.3128 -0.4741 -0.1457
 1874SOL    HW3 7263   3.368   2.759   2.081 -2.7032  2.0602  1.8094
 1874SOL    MW4 7264   3.318   2.725   2.018 -0.5368  0.0650  0.2062
 1875SOL     OW 7265   5.408   3.452   1.596 -0.4473  0.3317 -0.2618
 1875SOL    HW2 7266   5.356   3.399   1.535 -0.7709 -0.7135  0.8713
 1875SOL    HW3 7267   5.447   3.520   1.542  0.0928 -1.1521 -1.8193
 1875SOL    MW4 7268   5.406   3.454   1.581 -0.4365 -0.0978 -0.3805
 1876SOL     OW 7269   4.221   1.424   3.443 -0.3193 -0.2275 -0.3202
 1876SOL    HW2 7270   4.191   1.376   3.520 -2.3582  0.8281 -0.3976
 1876SOL    HW3 7271   4.198   1.369   3.369 -0.8293 -0.0562 -0.2963
 1876SOL    MW4 7272   4.214   1.411   3.443  0.0608 -0.0639 -0.3135
 1877SOL     OW 7273   6.007   5.012   2.368 -0.2205 -0.3164 -0.0582
 1877SOL    HW2 7274   6.052   5.025   2.452 -0.4506  1.6580 -0.1943
 1877SOL    HW3 7275   6.016   4.918   2.351  1.3810 -0.4704  1.2921
 1877SOL    MW4 7276   6.014   5.001   2.377  0.4362 -0.1944 -0.1878
 1878SOL     OW 7277   4.112   0.565   3.837  0.5583  0.5396 -0.1688
 1878SOL    HW2 7278   4.115   0.526   3.924 -2.0045  0.0321 -0.2430
 1878SOL    HW3 7279   4.204   0.579   3.814  1.4903 -2.7411  1.0596
 1878SOL    MW4 7280   4.125   0.562   3.846  0.5907 -0.3589  0.1471
 1879SOL     OW 7281   3.031   4.714   6.154  0.1956  0.4795 -0.3937
 1879SOL    HW2 7282   3.062   4.696   6.243 -0.3021 -1.0453 -0.5167
 1879SOL    HW3 7283   3.103   4.686   6.098 -0.2472 -0.3691 -0.5481
 1879SOL    MW4 7284   3.045   4.708   6.158 -0.2881  0.8638  0.0534
 1880SOL     OW 7285   4.148   3.624   0.071 -0.3465  0.4804 -0.4276
 1880SOL    HW2 7286   4.178   3.633   0.162 -1.2992 -0.0387 -0.0432
 1880SOL    HW3 7287   4.228   3.608   0.021  0.2270  1.0662  0.2732
 1880SOL    MW4 7288   4.162   3.623   0.076  0.0947 -0.1552  0.6065
 1881SOL     OW 7289   4.024   5.534   0.720  0.3135  0.2570 -0.0565
 1881SOL    HW2 7290   4.079   5.475   0.669  0.9451  1.8716 -1.3042
 1881SOL    HW3 7291   3.984   5.477   0.786  1.6793 -1.3733 -0.5502
 1881SOL    MW4 7292   4.026   5.518   0.722  0.5218  0.0621  0.0233
 1882SOL     OW 7293   2.535   5.404   6.280 -0.0097  0.1146  0.0829
 1882SOL    HW2 7294   2.614   5.350   6.283 -0.5200 -0.6469  0.0831
 1882SOL    HW3 7295   2.481   5.365   6.211 -0.0077  1.1784 -0.5426
 1882SOL    MW4 7296   2.538   5.391   6.272  0.0582 -0.1558  0.0364
 1883SOL     OW 7297   2.446   2.690   4.428 -0.2600 -0.1143 -0.4977
 1883SOL    HW2 7298   2.433   2.622   4.494  1.7262 -0.1173 -0.0285
 1883SOL    HW3 7299   2.444   2.643   4.345 -0.4540 -0.4953 -0.2797
 1883SOL    MW4 7300   2.444   2.675   4.426  0.0514 -0.1167  0.1455
 1884SOL     OW 7301   2.737   5.410   3.835  0.2423  0.0500  0.4557
 1884SOL    HW2 7302   2.799   5.410   3.763  1.6609  2.4671  1.5510
 1884SOL    HW3 7303   2.731   5.318   3.862  0.0978 -0.8366 -2.2936
 1884SOL    MW4 7304   2.744   5.398   3.829 -0.6236 -0.1252  0.2909
 1885SOL     OW 7305   1.981   0.561   3.578  0.5768  0.0971 -0.3153
 1885SOL    HW2 7306   1.929   0.613   3.639  1.1555  0.3401 -0.0302
 1885SOL    HW3 7307   1.942   0.580   3.492  0.0254  0.0683 -0.0781
 1885SOL    MW4 7308   1.969   0.570   3.575 -0.2698  0.1184 -0.2042
 1886SOL     OW 7309   1.646   5.496   0.504  0.5942  0.0989 -0.3417
 1886SOL    HW2 7310   1.623   5.428   0.441  0.6145 -0.2308  0.0048
 1886SOL    HW3 7311   1.722   5.461   0.551  0.4300  0.2368  0.0319
 1886SOL    MW4 7312   1.653   5.482   0.502  0.0072 -0.3104 -0.2908
 1887SOL     OW 7313   1.176   1.670   4.883  0.3074  0.1818  0.8478
 1887SOL    HW2 7314   1.106   1.712   4.833  0.5673  0.9544  1.1187
 1887SOL    HW3 7315   1.198   1.733   4.951  1.4649  0.0665  0.5990
 1887SOL    MW4 7316   1.170   1.684   4.885 -0.4687  0.0384  0.2284
 1888SOL     OW 7317   3.556   3.745   4.773  0.4233  0.2290 -0.1480
 1888SOL    HW2 7318   3.596   3.717   4.855 -0.6543 -1.3377 -0.0990
 1888SOL    HW3 7319   3.469   3.704   4.773 -0.8890  2.7856 -0.6241
 1888SOL    MW4 7320   3.550   3.736   4.784 -0.9307  0.4406  0.1760
 1889SOL     OW 7321   5.613   6.183   1.309 -0.0481  0.0096  0.1433
 1889SOL    HW2 7322   5.547   6.247   1.334  0.8193  0.8888  0.2316
 1889SOL    HW3 7323   5.628   6.131   1.388 -1.3481 -0.8705 -0.1530
 1889SOL    MW4 7324   5.606   6.184   1.322 -0.6787  0.2133  0.0109
 1890SOL     OW 7325   0.774   3.673   1.860 -0.4188  0.4039  0.2820
 1890SOL    HW2 7326   0.830   3.709   1.929 -1.0911 -0.5021  1.3381
 1890SOL    HW3 7327   0.801   3.719   1.781  1.9776 -0.1613  0.6977
 1890SOL    MW4 7328   0.785   3.684   1.859 -0.4913  0.3913 -0.2841
 1891SOL     OW 7329   0.625   2.679   1.629 -0.4903 -0.0185 -0.4236
 1891SOL    HW2 7330   0.609   2.744   1.560 -4.0255 -0.2953 -0.0481
 1891SOL    HW3 7331   0.607   2.726   1.711  2.6207  0.0036  0.3836
 1891SOL    MW4 7332   0.621   2.694   1.631  0.4215  0.1700 -0.2576
 1892SOL     OW 7333   0.455   2.499   0.305 -0.3120 -0.3896  0.1428
 1892SOL    HW2 7334   0.370   2.527   0.269  0.8521  1.8316 -1.0897
 1892SOL    HW3 7335   0.483   2.429   0.246 -0.4662  0.1465 -0.5896
 1892SOL    MW4 7336   0.447   2.494   0.293  0.3700  0.6967  0.1425
 1893SOL     OW 7337   0.257   0.517   4.558 -0.3610 -0.0949  0.1456
 1893SOL    HW2 7338   0.204   0.595   4.541  1.3023  0.9108 -0.6506
 1893SOL    HW3 7339   0.210   0.446   4.514 -1.8301  0.4618  0.7692
 1893SOL    MW4 7340   0.244   0.518   4.550  0.2490  0.3803  0.0347
 1894SOL     OW 7341   0.049   5.018   4.290  0.1671  0.7378 -0.0115
 1894SOL    HW2 7342   0.139   5.023   4.324 -0.4530  1.8378  1.5646
 1894SOL    HW3 7343   0.019   5.109   4.289 -0.3170  0.6221 -2.3677
 1894SOL    MW4 7344   0.057   5.031   4.295  0.0497 -0.5743 -0.3615
 1895SOL     OW 7345   5.772   4.024   5.317 -0.4233 -0.5487  0.2536
 1895SOL    HW2 7346   5.738   4.102   5.362 -0.0832  0.0112 -0.4344
 1895SOL    HW3 7347   5.716   4.015   5.240  1.2249  0.6883 -1.1742
 1895SOL    MW4 7348   5.760   4.033   5.312 -0.3521  0.0376 -0.4861
 1896SOL     OW 7349   2.963   4.448   1.755 -0.1257 -0.2910 -0.3545
 1896SOL    HW2 7350   3.010   4.373   1.792 -0.4304  1.3849  3.9808
 1896SOL    HW3 7351   2.874   4.414   1.739  0.8979 -1.9739 -3.2032
 1896SOL    MW4 7352   2.957   4.433   1.758  0.3022  0.3711 -0.2143
 1897SOL     OW 7353   1.398   5.233   0.894 -0.2696 -0.3271 -0.5185
 1897SOL    HW2 7354   1.427   5.175   0.965  0.3191 -0.1065 -0.5710
 1897SOL    HW3 7355   1.410   5.321   0.929  0.1581 -0.2163 -0.9401
 1897SOL    MW4 7356   1.403   5.237   0.908  0.1485 -0.1076  0.4821
 1898SOL     OW 7357   5.462   3.201   0.782 -0.1724 -0.2997 -0.1035
 1898SOL    HW2 7358   5.473   3.295   0.772  1.7591 -0.3025  1.4537
 1898SOL    HW3 7359   5.462   3.167   0.692  0.1728  1.0696 -0.6369
 1898SOL    MW4 7360   5.463   3.209   0.769 -0.0319 -1.0953  0.5582
 1899SOL     OW 7361   2.204   1.917   3.483 -0.2098 -0.7638 -0.3566
 1899SOL    HW2 7362   2.140   1.981   3.452  1.1808 -0.0627 -1.9628
 1899SOL    HW3 7363   2.201   1.847   3.418  0.2417 -0.9749 -0.1558
 1899SOL    MW4 7364   2.195   1.916   3.470 -0.3890  0.0064  0.1475
 1900SOL     OW 7365   5.810   4.308   6.312  0.2166  0.3241  0.4561
 1900SOL    HW2 7366   5.899   4.339   6.292  1.1302 -1.8109  0.9476
 1900SOL    HW3 7367   5.753   4.378   6.282  2.0151  1.3212 -0.8174
 1900SOL    MW4 7368   5.814   4.321   6.306  0.5102 -0.8215 -0.0857
 1901SOL     OW 7369   1.739   5.064   0.677  0.7034  0.0536  0.3122
 1901SOL    HW2 7370   1.828   5.032   0.687  1.7814  2.7293 -0.0863
 1901SOL    HW3 7371   1.729   5.133   0.742 -0.7779  0.4088 -0.2314
 1901SOL    MW4 7372   1.749   5.069   0.687  0.1058 -0.0876  0.2493
 1902SOL     OW 7373   4.664   4.522   4.967 -0.0573  0.0804  0.2002
 1902SOL    HW2 7374   4.581   4.475   4.968 -0.5110  0.7812 -1.3341
 1902SOL    HW3 7375   4.710   4.489   4.890 -0.6051  2.4160 -1.2379
 1902SOL    MW4 7376   4.659   4.511   4.957 -0.0816 -0.4897 -0.1185
 1903SOL     OW 7377   3.881   3.133   0.674  0.1142  0.1640 -0.2023
 1903SOL    HW2 7378   3.909   3.118   0.583 -0.2703  0.9667 -0.4629
 1903SOL    HW3 7379   3.845   3.222   0.673 -2.3647 -0.7687  0.1274
 1903SOL    MW4 7380   3.880   3.143   0.662  0.4461 -0.0158  0.2563
 1904SOL     OW 7381   4.867   1.289   3.838  0.2920 -0.1185 -0.2314
 1904SOL    HW2 7382   4.852   1.383   3.827 -1.9496 -0.3173  0.6279
 1904SOL    HW3 7383   4.947   1.283   3.890 -0.1752  1.3598  0.7199
 1904SOL    MW4 7384   4.876   1.300   3.843  0.1404  0.7360  0.3610
 1905SOL     OW 7385   5.134   2.237   1.361  0.7668 -0.3712 -0.5344
 1905SOL    HW2 7386   5.142   2.186   1.441 -0.5199  0.6386  0.2746
 1905SOL    HW3 7387   5.169   2.323   1.384  1.7006 -0.4633 -1.4983
 1905SOL    MW4 7388   5.140   2.242   1.375 -0.1227  0.3601 -0.6774
 1906SOL     OW 7389   2.910   0.764   4.161  0.2024 -0.2268  0.0657
 1906SOL    HW2 7390   2.953   0.733   4.241  0.0154 -0.9983 -0.1328
 1906SOL    HW3 7391   2.820   0.784   4.188  0.0874 -0.6659  0.0057
 1906SOL    MW4 7392   2.904   0.763   4.175 -0.4648  0.3470 -0.0521
 1907SOL     OW 7393   2.521   2.573   1.822 -0.1425 -0.3089 -0.2268
 1907SOL    HW2 7394   2.539   2.511   1.751  3.1382 -0.1060  0.2956
 1907SOL    HW3 7395   2.599   2.627   1.828 -2.1401  2.7548  0.5886
 1907SOL    MW4 7396   2.533   2.572   1.813  0.1928 -0.2141 -0.2683
 1908SOL     OW 7397   4.895   1.073   5.380  0.4030  0.0615 -0.6542
 1908SOL    HW2 7398   4.942   1.144   5.423  0.2033  0.4316 -1.0459
 1908SOL    HW3 7399   4.909   1.087   5.287  1.4070 -1.1220 -0.7139
 1908SOL    MW4 7400   4.903   1.084   5.373  0.2995 -0.2047 -0.7646
 1909SOL     OW 7401   2.370   2.453   1.258 -0.0295  0.4340  0.1617
 1909SOL    HW2 7402   2.360   2.525   1.320 -0.1631  2.2824 -1.8962
 1909SOL    HW3 7403   2.452   2.410   1.284 -1.6191 -0.9905  3.5581
 1909SOL    MW4 7404   2.379   2.457   1.270 -0.1597 -0.1980  0.2784
 1910SOL     OW 7405   0.260   5.552   5.187  0.8201  0.0713  0.0186
 1910SOL    HW2 7406   0.311   5.632   5.175  0.6387  0.1588 -0.1683
 1910SOL    HW3 7407   0.326   5.485   5.208  0.9951  0.2209 -0.0479
 1910SOL    MW4 7408   0.276   5.553   5.188  0.2513  0.1949 -0.3448
 1911SOL     OW 7409   5.896   3.774   2.237 -0.0042  0.1269  0.7697
 1911SOL    HW2 7410   5.832   3.822   2.290 -1.6418 -0.1326 -0.8731
 1911SOL    HW3 7411   5.889   3.813   2.150  0.8312 -1.0807  0.1288
 1911SOL    MW4 7412   5.887   3.786   2.233  0.3517  0.1681  0.2816
 1912SOL     OW 7413   3.646   2.186   6.042  0.3001  0.3586 -0.1457
 1912SOL    HW2 7414   3.673   2.123   5.976 -0.6162  0.1344 -0.3280
 1912SOL    HW3 7415   3.603   2.256   5.993  0.1614  0.4940  0.1614
 1912SOL    MW4 7416   3.644   2.187   6.027  0.8975 -0.1533 -0.2445
 1913SOL     OW 7417   1.671   2.271   4.095  0.1492 -0.4991 -0.6628
 1913SOL    HW2 7418   1.702   2.188   4.133  1.5974  0.7292  0.9953
 1913SOL    HW3 7419   1.688   2.263   4.001  0.8292 -1.8362 -0.4468
 1913SOL    MW4 7420   1.677   2.259   4.088  0.2480 -0.1561  0.4253
 1914SOL     OW 7421   3.310   3.242   4.174  0.0560 -0.8506 -0.0957
 1914SOL    HW2 7422   3.389   3.220   4.125 -0.4644 -1.6020 -0.6158
 1914SOL    HW3 7423   3.341   3.299   4.245  1.0194 -0.9259 -0.4384
 1914SOL    MW4 7424   3.324   3.247   4.177  0.0712  0.0087  0.5865
 1915SOL     OW 7425   0.028   5.533   4.016  0.2768  0.0147  0.6574
 1915SOL    HW2 7426  -0.008   5.504   3.932 -0.3243  3.1188 -0.3042
 1915SOL    HW3 7427   0.102   5.475   4.032  0.9345 -0.1940 -2.4759
 1915SOL    MW4 7428   0.033   5.522   4.007  0.2339  0.0270 -0.2171
 1916SOL     OW 7429   3.722   6.021   2.656  0.2781 -0.3447 -0.7524
 1916SOL    HW2 7430   3.808   6.034   2.617  0.8300 -0.4392  0.3835
 1916SOL    HW3 7431   3.709   6.098   2.712 -0.9132  0.2679 -1.8343
 1916SOL    MW4 7432   3.731   6.033   2.659  0.0734  0.1264 -0.1769
 1917SOL     OW 7433   4.174   3.451   5.660  0.1884  0.0843 -0.1054
 1917SOL    HW2 7434   4.082   3.446   5.686  0.3008 -0.1692  0.2597
 1917SOL    HW3 7435   4.188   3.373   5.605  0.3388 -0.2229  0.3576
 1917SOL    MW4 7436   4.164   3.440   5.656  0.1859 -0.3000 -0.1897
 1918SOL     OW 7437   4.694   0.147   3.177 -0.3472  0.0882  0.1267
 1918SOL    HW2 7438   4.750   0.105   3.112  1.0587  0.4905  1.0264
 1918SOL    HW3 7439   4.621   0.182   3.127 -0.7294 -1.9659 -0.8685
 1918SOL    MW4 7440   4.692   0.146   3.162  0.1975  0.1211 -0.2763
 1919SOL     OW 7441   6.404   5.663   1.279 -0.6906  0.4313 -0.1020
 1919SOL    HW2 7442   6.456   5.591   1.241  1.0425  1.9666 -0.7764
 1919SOL    HW3 7443   6.396   5.640   1.372  1.1152  0.0495  0.0007
 1919SOL    MW4 7444   6.410   5.650   1.286 -0.2955 -0.0785  0.5325
 1920SOL     OW 7445   6.348   3.175   3.487  0.1511 -0.6028  0.4547
 1920SOL    HW2 7446   6.372   3.267   3.474  0.3976 -0.8343 -0.8102
 1920SOL    HW3 7447   6.397   3.149   3.565  1.3283 -0.0967 -0.0858
 1920SOL    MW4 7448   6.357   3.184   3.496 -0.6450  0.8227  0.6723
 1921SOL     OW 7449   3.616   2.586   0.177  0.0514 -0.6448  0.5347
 1921SOL    HW2 7450   3.606   2.510   0.234 -0.3309 -0.1424  1.1532
 1921SOL    HW3 7451   3.652   2.654   0.234 -0.1446 -0.1961  0.1316
 1921SOL    MW4 7452   3.619   2.585   0.192 -0.3318 -0.1285  0.1668
 1922SOL     OW 7453   1.918   0.926   1.258  0.1132 -0.0762 -0.1092
 1922SOL    HW2 7454   1.952   0.845   1.222 -0.1056  0.4674 -1.6190
 1922SOL    HW3 7455   1.960   0.934   1.344  0.5759 -1.4739 -0.1833
 1922SOL    MW4 7456   1.928   0.917   1.264  0.0383  0.2222  0.0519
 1923SOL     OW 7457   4.726   0.670   1.581 -0.1390 -0.2825  0.3382
 1923SOL    HW2 7458   4.677   0.594   1.550  0.4970  0.1825 -1.9811
 1923SOL    HW3 7459   4.662   0.741   1.586 -0.4867 -0.6432  1.3600
 1923SOL    MW4 7460   4.711   0.669   1.578  0.3483  0.2065 -0.3182
 1924SOL     OW 7461   1.430   4.915   3.581 -0.1486  0.2288  0.1118
 1924SOL    HW2 7462   1.400   4.875   3.663 -0.0874  0.0975  0.0696
 1924SOL    HW3 7463   1.483   4.990   3.609 -0.9133  0.7600  0.1881
 1924SOL    MW4 7464   1.433   4.920   3.596  0.4766 -0.8646  0.2721
 1925SOL     OW 7465   3.813   0.343   1.935  0.8703  0.1247  0.2447
 1925SOL    HW2 7466   3.724   0.365   1.960  0.5283 -1.2681  0.3179
 1925SOL    HW3 7467   3.806   0.311   1.845  1.8216  3.2881 -1.1095
 1925SOL    MW4 7468   3.801   0.342   1.926  0.5439 -0.0591 -0.5123
 1926SOL     OW 7469   0.158   0.190   0.817 -0.2117  0.3366  0.4799
 1926SOL    HW2 7470   0.240   0.140   0.821 -0.8399 -0.6250  2.0291
 1926SOL    HW3 7471   0.185   0.281   0.826  0.7084  0.0520  0.7048
 1926SOL    MW4 7472   0.173   0.195   0.818 -0.1147 -0.4462  0.0515
 1927SOL     OW 7473   0.362   1.261   5.506 -0.4761  0.2210 -0.2512
 1927SOL    HW2 7474   0.447   1.229   5.476 -0.7557  0.3743 -1.2413
 1927SOL    HW3 7475   0.309   1.182   5.518  0.0916  0.0429  1.3655
 1927SOL    MW4 7476   0.366   1.246   5.504 -0.0459 -0.3881  0.4313
 1928SOL     OW 7477   2.215   2.642   5.890  0.1288 -0.1283 -0.4870
 1928SOL    HW2 7478   2.127   2.619   5.862  0.2516 -0.8954 -0.2793
 1928SOL    HW3 7479   2.262   2.559   5.891  0.4224  0.0173  0.9082
 1928SOL    MW4 7480   2.210   2.628   5.887  0.0099 -0.1481  0.2758
 1929SOL     OW 7481   4.696   1.149   4.028 -0.0420  0.9241  0.7106
 1929SOL    HW2 7482   4.772   1.202   4.003  0.5779 -0.2807 -0.0310
 1929SOL    HW3 7483   4.731   1.060   4.036 -1.9237 -0.2983 -2.8309
 1929SOL    MW4 7484   4.711   1.144   4.026  0.2264  0.4025  0.2773
 1930SOL     OW 7485   3.194   3.048   0.126  0.1566 -0.1159 -0.4401
 1930SOL    HW2 7486   3.232   3.067   0.212  0.4051  1.6399 -0.8879
 1930SOL    HW3 7487   3.248   2.977   0.091  1.7590  0.9191 -0.1987
 1930SOL    MW4 7488   3.206   3.041   0.133 -0.2785 -0.0231 -0.1510
 1931SOL     OW 7489   2.391   5.618   5.414  0.4435  0.6094 -0.0574
 1931SOL    HW2 7490   2.351   5.685   5.358  0.6801 -1.0242 -2.3048
 1931SOL    HW3 7491   2.319   5.585   5.467 -0.7130 -0.4404 -2.1524
 1931SOL    MW4 7492   2.376   5.623   5.413  0.0186  0.2652 -0.3589
 1932SOL     OW 7493   3.896   5.950   5.515  0.1092 -0.5972  0.5112
 1932SOL    HW2 7494   3.974   5.905   5.548 -0.1210 -0.6650  0.9695
 1932SOL    HW3 7495   3.871   6.010   5.586 -1.5641 -2.1618  1.3292
 1932SOL    MW4 7496   3.903   5.952   5.529 -0.1714  0.1590  0.4067
 1933SOL     OW 7497   0.494   1.324   5.755 -0.2751 -0.5543  0.0921
 1933SOL    HW2 7498   0.575   1.281   5.781  0.1232 -0.2139 -0.5489
 1933SOL    HW3 7499   0.463   1.273   5.680 -0.3305 -0.3263 -0.0421
 1933SOL    MW4 7500   0.501   1.311   5.749  0.1260 -0.3349  0.0021
 1934SOL     OW 7501   5.653   0.389   0.154  0.6962 -0.2226  0.5196
 1934SOL    HW2 7502   5.695   0.325   0.097  0.2231  0.2316 -0.3442
 1934SOL    HW3 7503   5.650   0.346   0.240  1.3670 -0.9224  0.2036
 1934SOL    MW4 7504   5.658   0.375   0.158  0.1054 -0.0093 -0.1967
 1935SOL     OW 7505   0.079   0.609   5.146  0.0322  0.2165 -0.2566
 1935SOL    HW2 7506   0.033   0.558   5.212 -0.8427  1.1917 -0.0959
 1935SOL    HW3 7507   0.165   0.626   5.185 -0.1122 -0.0823  0.2028
 1935SOL    MW4 7508   0.084   0.605   5.160  0.0851 -0.1772 -0.6225
 1936SOL     OW 7509   4.431   1.059   2.992  0.2938  0.0888 -0.4265
 1936SOL    HW2 7510   4.405   0.992   3.055  1.6897 -0.8778 -0.8250
 1936SOL    HW3 7511   4.513   1.026   2.955  0.2612  1.3380 -1.6814
 1936SOL    MW4 7512   4.438   1.046   2.995 -0.2622 -0.4532  0.2758
 1937SOL     OW 7513   4.883   5.352   4.257 -0.1355 -1.0027  0.2719
 1937SOL    HW2 7514   4.891   5.392   4.343 -1.2081  2.0811 -0.9227
 1937SOL    HW3 7515   4.968   5.313   4.240  1.2504  1.3314  1.3860
 1937SOL    MW4 7516   4.895   5.352   4.266 -0.0023 -0.0464  0.0716
 1938SOL     OW 7517   0.925   4.781   3.777 -0.2301 -0.2705  0.6734
 1938SOL    HW2 7518   0.987   4.836   3.728 -2.6757  1.8215 -0.3376
 1938SOL    HW3 7519   0.974   4.750   3.853  1.7236  2.1477  0.5066
 1938SOL    MW4 7520   0.940   4.784   3.780 -0.3933 -0.5072 -0.2866
 1939SOL     OW 7521   4.139   1.025   0.236  0.4116  0.1839  0.3302
 1939SOL    HW2 7522   4.067   1.085   0.218 -0.1896 -1.0371 -1.6545
 1939SOL    HW3 7523   4.097   0.946   0.270  0.7165 -0.7229 -1.3083
 1939SOL    MW4 7524   4.124   1.023   0.238  0.1950  0.3187 -0.5646
 1940SOL     OW 7525   5.974   4.045   2.512  0.1278 -0.0538 -0.1089
 1940SOL    HW2 7526   6.036   3.992   2.462  0.5618  0.7296 -0.4029
 1940SOL    HW3 7527   5.964   3.997   2.595  0.7890 -0.4083 -0.2262
 1940SOL    MW4 7528   5.981   4.032   2.516 -0.4245 -0.2254  0.2942
 1941SOL     OW 7529   5.311   0.548   3.428  0.2993  0.5204  0.2157
 1941SOL    HW2 7530   5.392   0.498   3.428  0.5492  0.9214  0.6109
 1941SOL    HW3 7531   5.275   0.535   3.341  0.4494 -0.1993  0.2500
 1941SOL    MW4 7532   5.317   0.540   3.417 -0.4873  0.2881  0.2902
 1942SOL     OW 7533   3.371   5.665   3.163  0.1619 -0.5032 -0.3813
 1942SOL    HW2 7534   3.380   5.639   3.254  0.4301  0.6261 -0.0621
 1942SOL    HW3 7535   3.462   5.673   3.132  0.0784 -0.5110 -0.6295
 1942SOL    MW4 7536   3.384   5.663   3.171  0.8908 -0.3929 -0.3594
 1943SOL     OW 7537   5.620   5.328   6.050 -0.0586  0.4377 -0.0785
 1943SOL    HW2 7538   5.535   5.286   6.039  0.5020 -1.0944  1.0962
 1943SOL    HW3 7539   5.654   5.293   6.132  2.6264 -0.6677 -1.5341
 1943SOL    MW4 7540   5.613   5.318   6.059 -0.0121  0.0230 -0.1758
 1944SOL     OW 7541   1.975   2.335   0.900 -0.1432  0.5711  0.2023
 1944SOL    HW2 7542   1.926   2.403   0.947  0.1821 -0.1620  1.6515
 1944SOL    HW3 7543   2.067   2.358   0.912 -0.0556  0.8736 -0.8851
 1944SOL    MW4 7544   1.980   2.347   0.907  0.6555 -0.3069 -0.3498
 1945SOL     OW 7545   6.245   3.063   2.751 -0.3823 -0.1528 -0.2375
 1945SOL    HW2 7546   6.270   3.127   2.818  0.3315 -0.0094 -0.6234
 1945SOL    HW3 7547   6.149   3.063   2.751 -0.3942  1.1716 -0.4681
 1945SOL    MW4 7548   6.236   3.071   2.760 -0.1988 -0.1245  0.5369
 1946SOL     OW 7549   3.466   6.334   0.516  0.0231 -0.0737 -0.0023
 1946SOL    HW2 7550   3.554   6.368   0.533 -0.4677 -0.0162  2.9997
 1946SOL    HW3 7551   3.448   6.357   0.425  3.0970 -0.1264 -0.7293
 1946SOL    MW4 7552   3.475   6.341   0.507 -0.1501  0.5271  0.3876
 1947SOL     OW 7553   4.597   3.498   5.462  0.1845  0.2747 -0.2767
 1947SOL    HW2 7554   4.590   3.586   5.425  1.1724  0.5572  0.1845
 1947SOL    HW3 7555   4.675   3.461   5.423 -0.4638 -0.5715 -0.7938
 1947SOL    MW4 7556   4.606   3.505   5.452 -0.2814  0.0771 -0.4562
 1948SOL     OW 7557   5.441   3.909   1.781 -0.2790  0.2674  0.3618
 1948SOL    HW2 7558   5.499   3.884   1.853 -0.8175  0.2411  0.7964
 1948SOL    HW3 7559   5.385   3.978   1.818  0.7394  1.6834 -0.6193
 1948SOL    MW4 7560   5.441   3.915   1.795 -0.1265 -0.5389  0.3216
 1949SOL     OW 7561   1.935   4.900   2.336 -0.3417  0.2614 -0.6123
 1949SOL    HW2 7562   1.930   4.852   2.253 -1.1504  1.3903 -1.2563
 1949SOL    HW3 7563   1.899   4.840   2.401  1.5950 -1.1734 -0.7891
 1949SOL    MW4 7564   1.930   4.886   2.334 -0.3769  0.7578  0.1527
 1950SOL     OW 7565   4.411   1.210   4.556  0.3899 -1.0042 -0.2836
 1950SOL    HW2 7566   4.337   1.242   4.607 -0.0053  0.2735 -1.5726
 1950SOL    HW3 7567   4.383   1.219   4.465  2.2801 -0.0326 -0.8256
 1950SOL    MW4 7568   4.398   1.216   4.551 -0.1036 -0.7373  0.3276
 1951SOL     OW 7569   4.928   5.631   4.594  0.7472  0.6766  0.1856
 1951SOL    HW2 7570   4.907   5.684   4.516 -0.9688  0.0159  0.1416
 1951SOL    HW3 7571   4.900   5.543   4.570 -1.3004  0.7292  2.0578
 1951SOL    MW4 7572   4.921   5.627   4.580 -0.4099 -0.1921  0.0023
 1952SOL     OW 7573   3.128   0.053   1.788  0.1179  0.5488 -0.2425
 1952SOL    HW2 7574   3.216   0.092   1.783 -0.5359  2.4217  1.4600
 1952SOL    HW3 7575   3.071   0.120   1.750 -0.6130 -0.7021 -1.4386
 1952SOL    MW4 7576   3.132   0.067   1.782 -0.0322  0.4881 -0.1068
 1953SOL     OW 7577   1.487   3.953   2.312  0.1524  0.3762  0.0039
 1953SOL    HW2 7578   1.392   3.945   2.323  0.2673 -0.8258  0.2787
 1953SOL    HW3 7579   1.501   3.947   2.218 -0.0770  1.1619 -0.0925
 1953SOL    MW4 7580   1.476   3.951   2.301 -0.1031 -0.8226 -0.0272
 1954SOL     OW 7581   5.680   3.573   0.049  0.0075 -0.2601 -0.1685
 1954SOL    HW2 7582   5.723   3.502   0.001  1.2848 -0.0400  0.5965
 1954SOL    HW3 7583   5.613   3.530   0.101  0.7995 -0.9226  0.3157
 1954SOL    MW4 7584   5.677   3.558   0.049 -0.2537 -0.4159  0.3085
 1955SOL     OW 7585   5.420   1.402   2.813  0.4614 -0.1971 -0.1861
 1955SOL    HW2 7586   5.503   1.448   2.828  1.5842 -1.6044 -1.7136
 1955SOL    HW3 7587   5.377   1.402   2.899  1.8613  0.8797  0.5640
 1955SOL    MW4 7588   5.425   1.408   2.827 -0.7747  0.0024 -0.0840
 1956SOL     OW 7589   2.287   1.197   5.372 -0.2821  0.1792  0.3386
 1956SOL    HW2 7590   2.342   1.200   5.450  0.1568 -0.8009  0.0857
 1956SOL    HW3 7591   2.209   1.246   5.395 -1.1054 -1.8341  2.1635
 1956SOL    MW4 7592   2.284   1.204   5.385  0.1612 -0.2523 -0.0508
 1957SOL     OW 7593   3.399   4.866   1.836  0.0382  0.1743  0.7633
 1957SOL    HW2 7594   3.429   4.822   1.916 -1.7176  2.1922  2.6780
 1957SOL    HW3 7595   3.432   4.955   1.844 -0.4356  0.4943 -0.6254
 1957SOL    MW4 7596   3.408   4.872   1.848 -0.1110  0.1306  0.7578
 1958SOL     OW 7597   6.224   1.781   0.266 -0.3210  0.6974  0.7625
 1958SOL    HW2 7598   6.248   1.863   0.308  1.0799  1.1866 -0.8452
 1958SOL    HW3 7599   6.308   1.737   0.250 -1.0154 -0.7893  1.0961
 1958SOL    MW4 7600   6.239   1.786   0.269 -0.2877 -0.0564 -0.2317
 1959SOL     OW 7601   2.881   3.761   4.882 -0.5664  0.0506 -0.1786
 1959SOL    HW2 7602   2.841   3.804   4.957 -0.9341  3.0880 -1.9755
 1959SOL    HW3 7603   2.856   3.814   4.807  0.1365 -2.5907 -2.4739
 1959SOL    MW4 7604   2.872   3.773   4.882  0.2115  0.4501  0.7580
 1960SOL     OW 7605   1.835   4.516   5.540  0.1536 -0.3244  0.1865
 1960SOL    HW2 7606   1.818   4.610   5.548  1.7290 -0.1114  1.7792
 1960SOL    HW3 7607   1.918   4.511   5.493 -0.6202 -1.0036 -1.1495
 1960SOL    MW4 7608   1.844   4.528   5.535  0.2389  0.1004 -0.4747
 1961SOL     OW 7609   0.734   6.013   4.891  0.0361  0.0888 -0.0606
 1961SOL    HW2 7610   0.752   6.095   4.844  0.6260  0.1163  0.1994
 1961SOL    HW3 7611   0.640   6.001   4.884  0.0146  0.5243 -0.5426
 1961SOL    MW4 7612   0.724   6.022   4.884 -0.1830  0.0098 -0.7596
 1962SOL     OW 7613   1.814   4.400   4.149  0.1604  0.5245  0.3697
 1962SOL    HW2 7614   1.791   4.463   4.217 -4.1069  0.7687 -0.9993
 1962SOL    HW3 7615   1.773   4.318   4.178 -0.6533  0.3256 -1.2144
 1962SOL    MW4 7616   1.805   4.398   4.161 -0.5203 -0.1015 -0.1558
 1963SOL     OW 7617   4.134   5.483   1.159  0.3443 -0.3043 -0.3734
 1963SOL    HW2 7618   4.156   5.453   1.247  0.0759 -0.3528 -0.3190
 1963SOL    HW3 7619   4.038   5.478   1.156  0.4385 -3.4251 -1.7536
 1963SOL    MW4 7620   4.124   5.478   1.170  0.0141 -0.6454  0.3814
 1964SOL     OW 7621   1.289   5.606   3.548  0.2462  0.6966 -0.2772
 1964SOL    HW2 7622   1.297   5.685   3.602  0.1280  0.2893  0.3485
 1964SOL    HW3 7623   1.322   5.632   3.462 -1.0169  1.8089 -0.4586
 1964SOL    MW4 7624   1.294   5.620   3.544 -0.3898  0.1641 -0.2616
 1965SOL     OW 7625   0.115   1.434   2.828  0.0572  0.2512  0.1436
 1965SOL    HW2 7626   0.035   1.409   2.875  0.3679  0.6148  0.8990
 1965SOL    HW3 7627   0.091   1.432   2.736 -1.4304  2.2990  0.4162
 1965SOL    MW4 7628   0.101   1.430   2.822  0.6469  0.4042  0.2823
 1966SOL     OW 7629   4.722   4.392   4.481 -0.7174 -0.1146 -1.1604
 1966SOL    HW2 7630   4.758   4.314   4.439  1.6632  1.0046 -1.3733
 1966SOL    HW3 7631   4.660   4.427   4.417 -0.2241 -0.6750 -1.9637
 1966SOL    MW4 7632   4.719   4.386   4.467  0.3652  0.6824  0.5213
 1967SOL     OW 7633   6.277   3.759   2.897 -0.2415 -0.2972  0.2304
 1967SOL    HW2 7634   6.275   3.849   2.863  1.3789  0.0924  1.0295
 1967SOL    HW3 7635   6.233   3.765   2.982  0.8920  0.0334  0.8198
 1967SOL    MW4 7636   6.271   3.772   2.904  0.6519 -0.6943 -0.3993
 1968SOL     OW 7637   3.302   5.810   0.894 -0.1665  0.1371 -0.0627
 1968SOL    HW2 7638   3.249   5.740   0.932  1.8560 -0.2989  2.2680
 1968SOL    HW3 7639   3.333   5.774   0.811  0.1962 -1.4776  0.7156
 1968SOL    MW4 7640   3.299   5.796   0.888 -0.0192  0.2535  0.0638
 1969SOL     OW 7641   4.447   0.577   2.071 -0.6259  0.2584  0.6750
 1969SOL    HW2 7642   4.378   0.531   2.119  0.1110  0.2646  1.7842
 1969SOL    HW3 7643   4.509   0.604   2.139 -0.7225  2.3448  0.0008
 1969SOL    MW4 7644   4.446   0.575   2.087 -0.4105 -0.3136  0.9958
 1970SOL     OW 7645   4.942   6.123   4.913  0.5629  0.2325  0.3906
 1970SOL    HW2 7646   4.854   6.098   4.939  0.1353  0.8481 -0.4354
 1970SOL    HW3 7647   4.949   6.094   4.822  1.3934 -0.2500  0.5950
 1970SOL    MW4 7648   4.932   6.116   4.905  0.0039 -0.5456 -0.1220
 1971SOL     OW 7649   3.445   5.173   1.484 -0.3368 -0.9687  0.2971
 1971SOL    HW2 7650   3.488   5.227   1.418  0.0723 -0.1725  1.1886
 1971SOL    HW3 7651   3.454   5.223   1.566 -0.6280 -2.0290  0.9997
 1971SOL    MW4 7652   3.452   5.187   1.486 -0.0737  0.3413  0.3529
 1972SOL     OW 7653   3.757   0.142   2.838 -0.5857 -0.1534  0.1753
 1972SOL    HW2 7654   3.734   0.121   2.929 -1.9942  0.2492 -0.0667
 1972SOL    HW3 7655   3.680   0.187   2.803 -0.1025 -0.3732 -1.2494
 1972SOL    MW4 7656   3.744   0.145   2.845 -0.3004 -0.4693 -0.0175
 1973SOL     OW 7657   1.623   5.658   1.292  0.1055  0.1146  0.0389
 1973SOL    HW2 7658   1.555   5.712   1.251 -3.1315 -2.3863  1.6224
 1973SOL    HW3 7659   1.674   5.625   1.218 -1.3329  0.9389 -1.3997
 1973SOL    MW4 7660   1.621   5.661   1.277 -0.0127  0.1610  0.0736
 1974SOL     OW 7661   2.319   2.209   1.522  0.4289  0.5364  0.3844
 1974SOL    HW2 7662   2.379   2.134   1.517  1.0052  1.0924 -2.4355
 1974SOL    HW3 7663   2.369   2.277   1.567  0.8674  0.0975  0.5678
 1974SOL    MW4 7664   2.333   2.208   1.528 -0.1359 -0.6219 -0.0133
 1975SOL     OW 7665   2.009   3.642   5.204 -0.1883  0.2266 -0.2680
 1975SOL    HW2 7666   1.998   3.716   5.144 -2.1209  0.0482 -0.2094
 1975SOL    HW3 7667   1.920   3.607   5.215  0.5357 -1.4886  0.4897
 1975SOL    MW4 7668   1.996   3.647   5.198 -0.3080  0.1640 -0.1439
 1976SOL     OW 7669   1.110   3.207   2.408 -0.3799  0.1764  0.5197
 1976SOL    HW2 7670   1.092   3.167   2.493 -2.0475 -0.0435  0.0867
 1976SOL    HW3 7671   1.131   3.134   2.350 -0.0846  0.2526  0.5259
 1976SOL    MW4 7672   1.111   3.192   2.411 -0.1639  0.5452  0.0497
 1977SOL     OW 7673   0.746   3.717   2.563 -0.4016  0.2894  0.7161
 1977SOL    HW2 7674   0.728   3.625   2.546 -0.5499  0.6724 -1.4529
 1977SOL    HW3 7675   0.670   3.748   2.613 -0.3986 -0.7247  1.3617
 1977SOL    MW4 7676   0.734   3.709   2.567 -0.2550  0.2589 -0.0451
 1978SOL     OW 7677   3.602   1.474   1.257 -0.1637  0.2687  0.5445
 1978SOL    HW2 7678   3.531   1.440   1.312 -1.8145 -0.7324 -2.0154
 1978SOL    HW3 7679   3.565   1.551   1.214  0.3686 -0.0960 -0.6145
 1978SOL    MW4 7680   3.588   1.479   1.258 -0.2659  0.1101  0.1816
 1979SOL     OW 7681   0.523   1.129   5.149  1.1104 -0.0090  0.3757
 1979SOL    HW2 7682   0.493   1.219   5.140  2.0070  0.5313  2.2137
 1979SOL    HW3 7683   0.448   1.076   5.125  0.3315  1.2352 -0.0333
 1979SOL    MW4 7684   0.509   1.134   5.145 -0.4693  0.0574  0.1569
 1980SOL     OW 7685   4.112   2.226   4.109  0.0083  0.8023 -0.1456
 1980SOL    HW2 7686   4.173   2.190   4.044 -1.4749  0.8584 -1.6546
 1980SOL    HW3 7687   4.034   2.249   4.058 -1.7059 -0.2433  1.8181
 1980SOL    MW4 7688   4.110   2.224   4.094 -0.0192  0.2223  0.4548
 1981SOL     OW 7689   6.234   5.776   1.073  0.1828  0.1532  0.0603
 1981SOL    HW2 7690   6.150   5.791   1.117  1.7772  2.4909  2.6372
 1981SOL    HW3 7691   6.284   5.724   1.137  1.3068  0.3371 -0.6596
 1981SOL    MW4 7692   6.229   5.771   1.087  0.1646 -0.4281  0.1873
 1982SOL     OW 7693   3.288   0.611   2.857 -0.0704  0.4043  0.3388
 1982SOL    HW2 7694   3.340   0.577   2.930 -3.1092  0.5515  2.7996
 1982SOL    HW3 7695   3.258   0.533   2.811 -0.6873  0.1077  1.2138
 1982SOL    MW4 7696   3.291   0.596   2.861  0.0149  0.3319 -0.3967
 1983SOL     OW 7697   6.232   1.166   1.606 -0.2776 -0.2208  0.0120
 1983SOL    HW2 7698   6.166   1.100   1.626  0.7980 -1.5231 -0.5856
 1983SOL    HW3 7699   6.191   1.249   1.631 -1.3551 -1.1657  1.6130
 1983SOL    MW4 7700   6.218   1.168   1.612 -0.3544 -0.1539 -0.1742
 1984SOL     OW 7701   3.142   5.343   4.394 -0.4755 -0.1153  0.3335
 1984SOL    HW2 7702   3.124   5.255   4.428 -0.9891 -0.6208 -1.1767
 1984SOL    HW3 7703   3.082   5.353   4.320 -0.0254  1.2968  0.1320
 1984SOL    MW4 7704   3.131   5.333   4.389 -0.1357  0.1863 -0.1460
 1985SOL     OW 7705   5.267   0.542   1.231  0.0018  0.5260  0.5572
 1985SOL    HW2 7706   5.295   0.621   1.276  1.1556  0.4849 -0.0296
 1985SOL    HW3 7707   5.284   0.560   1.138 -1.9813  0.4803  0.1386
 1985SOL    MW4 7708   5.273   0.555   1.225  0.7754  0.4537 -0.1031
 1986SOL     OW 7709   2.617   5.991   0.305 -0.4870 -0.1922 -0.1600
 1986SOL    HW2 7710   2.524   5.967   0.312 -1.1473  2.0785 -0.2881
 1986SOL    HW3 7711   2.659   5.913   0.270 -1.9732 -1.9902  1.7803
 1986SOL    MW4 7712   2.610   5.978   0.301 -0.1121  0.4832  0.0785
 1987SOL     OW 7713   6.096   2.186   3.493  0.4697 -0.4589  0.3386
 1987SOL    HW2 7714   6.103   2.114   3.431 -2.5606  0.6696 -1.4929
 1987SOL    HW3 7715   6.097   2.265   3.439 -1.6132  0.6080  1.7180
 1987SOL    MW4 7716   6.097   2.187   3.478  0.2034 -0.0461  0.0283
 1988SOL     OW 7717   0.205   2.298   1.452 -0.0067 -0.2577  0.2823
 1988SOL    HW2 7718   0.195   2.381   1.498 -1.4518 -0.3312  0.1430
 1988SOL    HW3 7719   0.154   2.309   1.372  0.6812 -0.9109 -0.2684
 1988SOL    MW4 7720   0.197   2.311   1.447 -0.3308 -0.1834 -0.4922
 1989SOL     OW 7721   0.274   1.810   0.902  0.2208 -0.0939 -0.8259
 1989SOL    HW2 7722   0.211   1.877   0.875  0.9541  0.8132 -0.3616
 1989SOL    HW3 7723   0.224   1.753   0.961  0.1174  1.3619  0.5788
 1989SOL    MW4 7724   0.259   1.812   0.906 -0.0695 -0.7456 -0.0099
 1990SOL     OW 7725   5.405   2.048   2.462 -0.9081  0.0592 -0.0498
 1990SOL    HW2 7726   5.434   1.959   2.483 -0.2690  0.6614  1.7904
 1990SOL    HW3 7727   5.447   2.067   2.378  0.6964 -0.6326  0.5445
 1990SOL    MW4 7728   5.415   2.038   2.454  0.7534 -0.1519  0.2313
 1991SOL     OW 7729   3.186   1.113   4.471 -0.4131 -0.7020  0.2819
 1991SOL    HW2 7730   3.170   1.198   4.431  0.8502 -0.4624  0.2503
 1991SOL    HW3 7731   3.114   1.058   4.439 -1.2485  0.3384  0.3092
 1991SOL    MW4 7732   3.174   1.117   4.461  0.2560 -0.9086  0.2747
 1992SOL     OW 7733   2.922   0.488   2.831 -0.0383  0.4584  0.2794
 1992SOL    HW2 7734   2.877   0.408   2.803 -1.3793  1.4524 -0.5698
 1992SOL    HW3 7735   3.004   0.488   2.782  0.1003 -0.5042  0.4843
 1992SOL    MW4 7736   2.927   0.477   2.821  0.7803  0.0615  0.1248
 1993SOL     OW 7737   0.551   0.862   6.067  0.1054 -0.2280 -0.0287
 1993SOL    HW2 7738   0.586   0.857   6.156 -1.8767  0.8357  0.8789
 1993SOL    HW3 7739   0.491   0.788   6.061 -0.4108  0.1965 -0.1651
 1993SOL    MW4 7740   0.548   0.852   6.078  0.1393  0.0963 -0.0602
 1994SOL     OW 7741   5.246   2.963   5.871 -0.4221  0.6262 -0.3394
 1994SOL    HW2 7742   5.276   2.942   5.959 -0.9832  0.1295 -0.2603
 1994SOL    HW3 7743   5.301   3.036   5.844  0.1314  0.4226  0.2066
 1994SOL    MW4 7744   5.258   2.970   5.879 -0.1935 -0.1173  0.3567
 1995SOL     OW 7745   5.412   2.172   5.039 -0.2172  0.3833 -0.0730
 1995SOL    HW2 7746   5.415   2.228   5.117 -1.3377 -0.3214  0.5030
 1995SOL    HW3 7747   5.497   2.186   4.996  0.3561  0.9114  1.1809
 1995SOL    MW4 7748   5.424   2.182   5.044  0.0159 -0.1782  0.5447
 1996SOL     OW 7749   4.286   2.137   6.380 -0.1147 -0.2695  0.0943
 1996SOL    HW2 7750   4.264   2.150   6.472 -0.0911 -2.5427  0.4978
 1996SOL    HW3 7751   4.364   2.190   6.366 -1.4159  1.9131  0.7183
 1996SOL    MW4 7752   4.294   2.146   6.391  0.1152  0.2957 -0.5788
 1997SOL     OW 7753   2.786   6.128   6.310  0.1251 -0.3781 -0.1952
 1997SOL    HW2 7754   2.823   6.208   6.346  1.4988 -0.5594 -1.1431
 1997SOL    HW3 7755   2.833   6.115   6.227 -0.4995 -1.8364 -0.3461
 1997SOL    MW4 7756   2.797   6.137   6.303  0.5736  0.2959 -0.2691
 1998SOL     OW 7757   0.190   3.911   6.258 -0.4236 -0.1265  0.3045
 1998SOL    HW2 7758   0.120   3.848   6.242 -1.0425  1.0473 -2.0983
 1998SOL    HW3 7759   0.145   3.995   6.261  0.7917  0.6148 -0.9954
 1998SOL    MW4 7760   0.175   3.914   6.256 -0.7711 -0.3818  0.4082
 1999SOL     OW 7761   1.316   1.324   0.252  0.2259  0.3555  0.4339
 1999SOL    HW2 7762   1.263   1.376   0.192 -0.8646  0.9222  1.8468
 1999SOL    HW3 7763   1.393   1.300   0.200 -1.4829 -0.7497 -1.7683
 1999SOL    MW4 7764   1.319   1.328   0.237  0.0312  0.2727  0.0118
 2000SOL     OW 7765   3.927   2.622   5.321 -0.0261  0.2329  0.9409
 2000SOL    HW2 7766   3.941   2.706   5.366 -0.4358  0.2933  0.9588
 2000SOL    HW3 7767   3.927   2.557   5.391  0.0812  0.2425  0.9498
 2000SOL    MW4 7768   3.929   2.625   5.336 -0.4773 -0.0812 -0.1382
 2001SOL     OW 7769   4.994   1.214   3.482  0.5156  0.0974  0.0288
 2001SOL    HW2 7770   5.049   1.272   3.534  1.8621 -0.7244 -0.4174
 2001SOL    HW3 7771   5.053   1.144   3.454 -0.7706 -0.8288 -0.4718
 2001SOL    MW4 7772   5.009   1.212   3.486  0.0021 -0.1569 -0.0860
 2002SOL     OW 7773   0.065   5.492   0.205  0.1265  0.4871  0.2640
 2002SOL    HW2 7774   0.126   5.467   0.275 -0.1248 -0.6877  0.0856
 2002SOL    HW3 7775   0.098   5.575   0.173  0.1891  1.0971  1.8465
 2002SOL    MW4 7776   0.077   5.499   0.210 -0.3099  0.2037 -0.2655
 2003SOL     OW 7777   2.351   4.829   0.509 -0.1187 -0.4124  0.6164
 2003SOL    HW2 7778   2.318   4.917   0.489  0.9128 -0.0474  0.4664
 2003SOL    HW3 7779   2.305   4.772   0.448 -0.5717  0.0642  0.5034
 2003SOL    MW4 7780   2.341   4.833   0.499  0.3081 -0.3768  0.5554
 2004SOL     OW 7781   1.219   2.870   3.518 -0.5728  0.8040 -0.0772
 2004SOL    HW2 7782   1.139   2.923   3.520 -0.6849  0.6123  1.2290
 2004SOL    HW3 7783   1.211   2.812   3.593  0.5985  0.4828 -0.1854
 2004SOL    MW4 7784   1.207   2.870   3.528 -0.1660 -0.1715 -0.2212
 2005SOL     OW 7785   1.988   5.382   3.841  0.0787 -0.2743  0.4006
 2005SOL    HW2 7786   2.076   5.372   3.803  0.6122 -0.7885  1.7210
 2005SOL    HW3 7787   1.953   5.461   3.800  0.5899 -0.8205 -1.2029
 2005SOL    MW4 7788   1.995   5.391   3.830  0.3092  0.0767 -0.4077
 2006SOL     OW 7789   1.894   5.339   2.365 -0.8741 -0.2094 -0.6561
 2006SOL    HW2 7790   1.828   5.270   2.357 -1.5012  0.2337  0.5542
 2006SOL    HW3 7791   1.952   5.324   2.290 -0.1546 -2.9168  0.3143
 2006SOL    MW4 7792   1.893   5.328   2.354  0.5372 -0.4109  0.5683
 2007SOL     OW 7793   2.161   1.931   3.886 -0.0248  0.2935  0.5402
 2007SOL    HW2 7794   2.227   1.995   3.913 -0.4682  0.6477  0.8011
 2007SOL    HW3 7795   2.120   1.903   3.968  0.6904 -0.9118  0.5062
 2007SOL    MW4 7796   2.164   1.935   3.901  0.0628  0.9537  0.3512
 2008SOL     OW 7797   2.947   4.029   2.249 -0.1971 -0.5164  0.8320
 2008SOL    HW2 7798   2.852   4.020   2.247 -0.1774 -0.5768 -0.4117
 2008SOL    HW3 7799   2.964   4.090   2.320 -0.9796 -2.5001  2.8595
 2008SOL    MW4 7800   2.937   4.036   2.258  0.3389 -0.1941  0.3370
 2009SOL     OW 7801   2.171   5.922   2.955 -0.7518 -0.3170  0.1261
 2009SOL    HW2 7802   2.210   6.009   2.963 -0.4903 -0.3967 -0.2140
 2009SOL    HW3 7803   2.229   5.864   3.006  1.8367 -1.1064 -3.2671
 2009SOL    MW4 7804   2.184   5.926   2.962  0.0242 -0.9377 -0.4410
 2010SOL     OW 7805   0.178   1.416   0.021  0.2030 -0.4188  0.5553
 2010SOL    HW2 7806   0.218   1.496  -0.013 -0.4535 -0.5890 -0.6896
 2010SOL    HW3 7807   0.198   1.416   0.114 -0.0739  1.3832  0.6458
 2010SOL    MW4 7808   0.186   1.426   0.028  0.0914 -0.3245  0.1924
 2011SOL     OW 7809   0.998   3.807   2.642 -0.2885 -0.2087 -0.0480
 2011SOL    HW2 7810   0.911   3.772   2.622 -0.1417  0.2885 -1.6636
 2011SOL    HW3 7811   0.997   3.818   2.737 -1.9716 -0.2739 -0.0156
 2011SOL    MW4 7812   0.986   3.803   2.652 -0.6485 -0.1859 -0.1718
 2012SOL     OW 7813   1.581   2.579   2.946 -0.0329 -0.0544  0.3963
 2012SOL    HW2 7814   1.535   2.603   3.027 -1.5504  1.6490 -0.8840
 2012SOL    HW3 7815   1.515   2.591   2.877  1.5423 -0.3580 -1.2274
 2012SOL    MW4 7816   1.566   2.584   2.948  0.1606  0.3122  0.8341
 2013SOL     OW 7817   1.802   6.172   5.747 -0.1336 -0.4294  0.0815
 2013SOL    HW2 7818   1.759   6.199   5.828 -2.9921  1.6409 -1.9187
 2013SOL    HW3 7819   1.769   6.084   5.730  2.0538 -1.7279  2.0459
 2013SOL    MW4 7820   1.792   6.164   5.756 -0.1683 -0.4855  0.2446
 2014SOL     OW 7821   1.271   2.387   3.093  0.0125  0.3138  0.6238
 2014SOL    HW2 7822   1.318   2.335   3.028  0.4071  0.6757  0.6154
 2014SOL    HW3 7823   1.196   2.423   3.045 -1.2630 -1.6143  1.0392
 2014SOL    MW4 7824   1.267   2.385   3.078  0.3984  0.2175 -0.4825
 2015SOL     OW 7825   1.695   0.270   2.135  0.1796  0.1372  0.2596
 2015SOL    HW2 7826   1.764   0.302   2.193  0.3221 -1.1346  0.8399
 2015SOL    HW3 7827   1.725   0.292   2.047  0.0996  1.8384  0.6259
 2015SOL    MW4 7828   1.708   0.277   2.131  0.3286  0.0816 -0.5122
 2016SOL     OW 7829   1.476   2.905   0.880 -0.1464  0.3883 -0.2360
 2016SOL    HW2 7830   1.553   2.950   0.914 -0.3209  1.5469 -1.3121
 2016SOL    HW3 7831   1.484   2.816   0.915  0.9966  0.8230  0.7083
 2016SOL    MW4 7832   1.488   2.899   0.889  0.0935  0.4307 -0.2995
 2017SOL     OW 7833   0.220   1.174   2.328 -0.6093  0.1710 -0.3234
 2017SOL    HW2 7834   0.159   1.178   2.255 -2.7411  0.9937  1.3825
 2017SOL    HW3 7835   0.237   1.081   2.340 -2.5589 -0.2039 -0.1014
 2017SOL    MW4 7836   0.214   1.162   2.320 -0.0835  0.0171  0.8220
 2018SOL     OW 7837   5.580   4.545   0.461 -0.1129 -0.3777 -0.0820
 2018SOL    HW2 7838   5.493   4.565   0.497 -0.7431 -0.5371 -1.4447
 2018SOL    HW3 7839   5.571   4.559   0.367  1.8491  1.3389 -0.0772
 2018SOL    MW4 7840   5.567   4.549   0.454  0.0397 -0.1086  0.5777
 2019SOL     OW 7841   5.131   4.602   5.366  0.1497  0.2983 -0.1423
 2019SOL    HW2 7842   5.106   4.621   5.456  0.4551 -1.1423  0.2707
 2019SOL    HW3 7843   5.226   4.613   5.364  0.3827 -1.4738  0.2077
 2019SOL    MW4 7844   5.140   4.606   5.377 -0.1503  0.0529 -0.1523
 2020SOL     OW 7845   5.490   0.395   0.659  0.2246 -0.0589 -0.3475
 2020SOL    HW2 7846   5.534   0.479   0.645  0.4330  0.0512  0.8519
 2020SOL    HW3 7847   5.547   0.348   0.719  0.5715 -1.4495 -1.7135
 2020SOL    MW4 7848   5.503   0.400   0.665 -0.7720 -0.5148 -0.1651
 2021SOL     OW 7849   5.015   6.211   1.249 -0.0981 -0.2233 -0.0026
 2021SOL    HW2 7850   5.000   6.254   1.334  0.5223 -0.3707  0.1866
 2021SOL    HW3 7851   5.085   6.148   1.266 -0.9887 -1.3222 -0.2833
 2021SOL    MW4 7852   5.022   6.209   1.263  0.6170 -0.4052 -0.3218
 2022SOL     OW 7853   3.939   2.891   0.163  0.1730 -0.5073 -0.6336
 2022SOL    HW2 7854   3.934   2.868   0.070  1.7703  2.6902 -1.6636
 2022SOL    HW3 7855   4.032   2.895   0.182 -0.1080  0.3679  0.6979
 2022SOL    MW4 7856   3.950   2.888   0.153  0.2857 -0.3837 -0.0426
 2023SOL     OW 7857   5.883   3.614   5.803 -0.0016  0.1609 -0.3368
 2023SOL    HW2 7858   5.803   3.589   5.758 -1.5653 -1.6463  3.0923
 2023SOL    HW3 7859   5.866   3.703   5.835 -0.6597 -0.1865  0.3126
 2023SOL    MW4 7860   5.871   3.622   5.801 -0.0723  0.1144 -0.0288
 2024SOL     OW 7861   5.366   4.404   4.068 -0.4504  0.6815  0.4795
 2024SOL    HW2 7862   5.308   4.361   4.130  0.2056 -1.9270 -0.5676
 2024SOL    HW3 7863   5.316   4.407   3.986  0.7185 -1.4683 -0.3936
 2024SOL    MW4 7864   5.352   4.399   4.065 -0.3212  0.0785 -0.4334
 2025SOL     OW 7865   6.282   4.768   0.762 -0.0841 -0.1855  0.0081
 2025SOL    HW2 7866   6.211   4.768   0.698 -0.2279  0.1764  0.1630
 2025SOL    HW3 7867   6.298   4.675   0.780 -0.0923 -0.2893 -0.4932
 2025SOL    MW4 7868   6.275   4.756   0.756  0.3893 -0.3419 -0.0257
 2026SOL     OW 7869   6.365   4.471   1.930  0.5432 -0.1559  0.0272
 2026SOL    HW2 7870   6.307   4.499   1.859 -1.2117 -0.3603  1.2940
 2026SOL    HW3 7871   6.357   4.540   1.996  2.7382  0.4150 -0.2541
 2026SOL    MW4 7872   6.356   4.484   1.929 -0.3104 -0.0795 -0.4684
 2027SOL     OW 7873   3.208   6.058   4.193  0.5845 -0.0880 -0.0044
 2027SOL    HW2 7874   3.223   6.113   4.117 -1.4745  0.0898 -0.3364
 2027SOL    HW3 7875   3.187   5.972   4.157 -0.6795  0.0661  0.3263
 2027SOL    MW4 7876   3.207   6.054   4.178  0.7994 -0.3625  0.2962
 2028SOL     OW 7877   2.487   0.382   3.846  0.8026 -0.6469  0.2368
 2028SOL    HW2 7878   2.583   0.378   3.855  0.7228 -2.0960  0.7485
 2028SOL    HW3 7879   2.466   0.314   3.782  0.2036  0.5582 -0.8815
 2028SOL    MW4 7880   2.497   0.372   3.839  0.4290  0.2626  0.3887
 2029SOL     OW 7881   1.729   6.165   1.399 -0.0572 -0.1355  0.1696
 2029SOL    HW2 7882   1.642   6.131   1.378  0.2010  0.1616 -1.4936
 2029SOL    HW3 7883   1.784   6.139   1.326  0.2088  3.5394 -1.1721
 2029SOL    MW4 7884   1.724   6.157   1.387  0.1023  0.3316 -0.5974
 2030SOL     OW 7885   1.692   0.972   6.235 -0.2229  0.2510  0.3613
 2030SOL    HW2 7886   1.672   0.881   6.211  1.9742  0.1840 -1.4801
 2030SOL    HW3 7887   1.668   1.023   6.158  3.6193  0.4876 -0.8697
 2030SOL    MW4 7888   1.686   0.967   6.222 -0.0059 -0.0976 -0.2028
 2031SOL     OW 7889   2.082   2.312   5.549  0.8234  0.6224  0.5593
 2031SOL    HW2 7890   2.117   2.401   5.543 -1.4024  1.5835  0.6827
 2031SOL    HW3 7891   2.030   2.313   5.630  0.4786 -0.6914  0.3712
 2031SOL    MW4 7892   2.079   2.324   5.559 -0.8416  0.0750  0.2335
 2032SOL     OW 7893   1.429   0.864   2.099 -0.1757  0.0125  0.4789
 2032SOL    HW2 7894   1.369   0.918   2.048 -0.0131 -1.1605 -1.0134
 2032SOL    HW3 7895   1.385   0.853   2.184 -0.4754  1.9543  0.6100
 2032SOL    MW4 7896   1.415   0.869   2.103 -0.1833  0.2957  0.3504
 2033SOL     OW 7897   1.294   2.924   1.508  0.1909 -0.3380 -0.2636
 2033SOL    HW2 7898   1.231   2.993   1.529  0.2793 -0.3305 -0.0254
 2033SOL    HW3 7899   1.331   2.950   1.424  0.4552  0.0661 -0.0208
 2033SOL    MW4 7900   1.291   2.937   1.499 -0.3727  0.1718 -0.3467
 2034SOL     OW 7901   2.041   4.045   0.326 -0.3299 -0.2669  0.6019
 2034SOL    HW2 7902   2.060   4.125   0.375 -0.3240 -0.2893  0.6367
 2034SOL    HW3 7903   2.128   4.010   0.305 -0.3169 -0.8329  1.5156
 2034SOL    MW4 7904   2.055   4.051   0.330  0.2387 -0.1330 -0.5201
 2035SOL     OW 7905   1.528   3.959   4.222  0.4272  0.1844  0.4427
 2035SOL    HW2 7906   1.438   3.933   4.238  0.2301  0.1264 -0.7166
 2035SOL    HW3 7907   1.545   3.936   4.131  1.1686  1.4598  0.2272
 2035SOL    MW4 7908   1.519   3.952   4.212 -0.3039  0.6107  1.0473
 2036SOL     OW 7909   4.907   2.839   5.935 -0.2305 -0.1055  0.3846
 2036SOL    HW2 7910   4.815   2.854   5.913  0.0136  1.6270  0.3819
 2036SOL    HW3 7911   4.916   2.873   6.024  0.7403  1.3437 -0.2247
 2036SOL    MW4 7912   4.896   2.846   5.944  0.4107  0.6199 -0.0991
 2037SOL     OW 7913   5.367   1.701   3.417 -0.3920  0.1068 -0.2123
 2037SOL    HW2 7914   5.374   1.606   3.423 -1.0686  0.1304  3.6138
 2037SOL    HW3 7915   5.281   1.716   3.377  0.9211 -0.7089 -3.6584
 2037SOL    MW4 7916   5.356   1.690   3.413  0.6595  0.1446  0.3819
 2038SOL     OW 7917   4.769   1.652   0.402 -0.0460 -0.0604  0.7313
 2038SOL    HW2 7918   4.825   1.576   0.418 -0.9735 -0.8908  0.1603
 2038SOL    HW3 7919   4.692   1.636   0.457 -1.1240 -0.5452 -0.8595
 2038SOL    MW4 7920   4.766   1.640   0.411  0.4084  0.2571  0.7693
 2039SOL     OW 7921   0.434   2.139   1.538  0.7047 -0.2477 -0.3935
 2039SOL    HW2 7922   0.498   2.153   1.607  1.6476  1.5429 -1.5643
 2039SOL    HW3 7923   0.370   2.210   1.550  0.5394 -0.2926 -1.0047
 2039SOL    MW4 7924   0.434   2.150   1.549  0.4018  0.7628 -0.2183
 2040SOL     OW 7925   1.331   5.506   3.037  0.0978  0.4530  0.7451
 2040SOL    HW2 7926   1.297   5.418   3.023  1.2126  0.3010 -1.6115
 2040SOL    HW3 7927   1.331   5.546   2.950  0.2927  2.5496  1.6335
 2040SOL    MW4 7928   1.327   5.500   3.024  0.4787 -0.6174  0.2624
 2041SOL     OW 7929   6.083   5.188   4.251  0.4319  0.5571 -0.0757
 2041SOL    HW2 7930   6.101   5.101   4.216  1.1655  0.6588  0.0344
 2041SOL    HW3 7931   6.166   5.236   4.241 -0.0647  1.3579 -0.4855
 2041SOL    MW4 7932   6.097   5.183   4.245  0.2076 -0.4333 -0.4050
 2042SOL     OW 7933   2.542   1.428   5.243 -0.3293  0.0476 -0.1639
 2042SOL    HW2 7934   2.481   1.418   5.316  0.7756  4.4575  1.6385
 2042SOL    HW3 7935   2.626   1.401   5.278  0.0938  1.5576  0.0176
 2042SOL    MW4 7936   2.545   1.423   5.257 -0.2221 -0.2923 -0.6332
 2043SOL     OW 7937   0.182   3.448   1.180 -0.0223 -0.2307  0.8508
 2043SOL    HW2 7938   0.135   3.447   1.264  0.4502 -0.0817  1.1218
 2043SOL    HW3 7939   0.272   3.470   1.203  0.0688  0.0189  0.2794
 2043SOL    MW4 7940   0.188   3.451   1.194  0.0106  0.1847  0.1441
 2044SOL     OW 7941   2.389   1.372   6.391 -0.1844  0.1551 -0.3516
 2044SOL    HW2 7942   2.303   1.371   6.350 -0.2919 -0.3623 -0.1189
 2044SOL    HW3 7943   2.409   1.465   6.403 -0.0744  0.3235 -1.6998
 2044SOL    MW4 7944   2.381   1.384   6.387 -0.0722 -0.6299 -0.0986
 2045SOL     OW 7945   0.729   2.357   3.219  1.0143 -0.3471 -0.0480
 2045SOL    HW2 7946   0.741   2.447   3.189  0.9417  0.7704  2.9748
 2045SOL    HW3 7947   0.634   2.343   3.215  1.0672 -0.5183 -1.0063
 2045SOL    MW4 7948   0.718   2.367   3.214 -0.3094 -0.2242  0.2177
 2046SOL     OW 7949   4.359   0.813   1.921 -0.5190 -0.3326 -0.1280
 2046SOL    HW2 7950   4.283   0.839   1.974 -0.5469 -0.7601  0.0466
 2046SOL    HW3 7951   4.391   0.733   1.962  1.5508  1.1303  1.3157
 2046SOL    MW4 7952   4.353   0.806   1.933 -0.2063 -0.9553  0.6236
 2047SOL     OW 7953   3.324   2.658   4.938  0.1593  0.6327 -0.1381
 2047SOL    HW2 7954   3.377   2.592   4.982  0.4898  0.4567 -0.7891
 2047SOL    HW3 7955   3.277   2.703   5.009  0.5771  0.2664  0.3737
 2047SOL    MW4 7956   3.325   2.656   4.953 -0.3638  0.1949  0.6691
 2048SOL     OW 7957   4.025   5.361   2.893 -0.3973 -0.2597  0.2655
 2048SOL    HW2 7958   4.074   5.410   2.827 -0.2144  0.9180  1.2293
 2048SOL    HW3 7959   3.957   5.423   2.922 -1.0481 -1.0842  0.5259
 2048SOL    MW4 7960   4.023   5.376   2.888  0.1464 -0.4793 -0.0662
 2049SOL     OW 7961   3.096   3.369   1.592  0.4308  0.1418  1.0502
 2049SOL    HW2 7962   3.017   3.409   1.554  1.5609  2.5550  1.0180
 2049SOL    HW3 7963   3.109   3.415   1.675  1.3044 -0.8502  1.4842
 2049SOL    MW4 7964   3.087   3.381   1.598 -0.1653  0.0301  0.0956
 2050SOL     OW 7965   5.708   3.628   0.857  0.0585 -0.4330  0.5185
 2050SOL    HW2 7966   5.751   3.702   0.815  0.6511 -0.5978  0.8286
 2050SOL    HW3 7967   5.723   3.642   0.951 -3.1554  1.1553  0.9336
 2050SOL    MW4 7968   5.716   3.640   0.864  0.2702  0.1485  0.0182
 2051SOL     OW 7969   3.554   2.506   0.824 -0.1943 -0.1849  0.8278
 2051SOL    HW2 7970   3.548   2.556   0.905  2.4185 -0.1556  1.0669
 2051SOL    HW3 7971   3.544   2.415   0.852 -0.7058 -0.0957  0.9584
 2051SOL    MW4 7972   3.552   2.501   0.838  0.2482 -0.0575 -0.1049
 2052SOL     OW 7973   2.735   5.929   0.545 -0.0798 -0.4544 -0.0287
 2052SOL    HW2 7974   2.741   5.845   0.500 -1.6119 -0.4625 -0.2697
 2052SOL    HW3 7975   2.683   5.985   0.486 -0.9851 -0.0530  1.0958
 2052SOL    MW4 7976   2.729   5.926   0.531 -0.3217  0.4110 -0.2948
 2053SOL     OW 7977   1.126   2.714   6.369  0.0256  0.0706  0.3090
 2053SOL    HW2 7978   1.061   2.774   6.333 -0.7880 -0.9272  0.0642
 2053SOL    HW3 7979   1.151   2.754   6.453  0.6104  1.4881 -0.4926
 2053SOL    MW4 7980   1.121   2.727   6.376  0.6400 -0.1167  0.0849
 2054SOL     OW 7981   2.017   2.136   0.623  0.2560  0.1655 -0.0665
 2054SOL    HW2 7982   2.019   2.181   0.538 -0.7183  0.5116  0.0745
 2054SOL    HW3 7983   1.924   2.130   0.644  0.3257 -2.1033 -0.1589
 2054SOL    MW4 7984   2.005   2.141   0.614  0.0482 -0.1578 -0.7800
 2055SOL     OW 7985   2.403   0.709   0.611 -0.1217  0.6905 -0.1966
 2055SOL    HW2 7986   2.335   0.649   0.641 -0.0016  1.2590  1.2855
 2055SOL    HW3 7987   2.364   0.754   0.536 -1.7455  1.6365  1.1442
 2055SOL    MW4 7988   2.389   0.707   0.605  0.2943 -0.2758  0.1150
 2056SOL     OW 7989   6.115   5.867   1.607 -0.0341  0.0524 -0.3222
 2056SOL    HW2 7990   6.155   5.879   1.693  0.0718 -0.0325 -0.3593
 2056SOL    HW3 7991   6.136   5.777   1.583 -0.5512 -0.1015 -0.1873
 2056SOL    MW4 7992   6.123   5.857   1.615 -0.7874  0.3155  0.1277
 2057SOL     OW 7993   1.042   1.195   2.148 -0.2405  0.0077  0.7497
 2057SOL    HW2 7994   0.962   1.244   2.133 -0.3362  0.1950  1.7820
 2057SOL    HW3 7995   1.112   1.257   2.126 -0.3741  0.2178  0.9059
 2057SOL    MW4 7996   1.041   1.210   2.143 -0.5901  0.2427  0.3200
 2058SOL     OW 7997   4.245   4.912   6.019  0.5634  0.2534 -0.4680
 2058SOL    HW2 7998   4.160   4.899   6.061  0.9358 -0.9410 -0.0577
 2058SOL    HW3 7999   4.227   4.907   5.925 -0.4160  3.7326 -0.6022
 2058SOL    MW4 8000   4.231   4.910   6.012  0.6033  0.3755 -0.3023
 2059SOL     OW 8001   4.260   4.506   4.295  0.1058  0.5393 -0.6392
 2059SOL    HW2 8002   4.234   4.452   4.220 -2.1684  0.9373 -0.2116
 2059SOL    HW3 8003   4.192   4.573   4.301  0.4965  0.8184  1.4826
 2059SOL    MW4 8004   4.247   4.508   4.286 -0.0395  0.1875  0.2561
 2060SOL     OW 8005   4.942   6.141   3.497  0.1959 -0.0853 -0.0259
 2060SOL    HW2 8006   4.909   6.114   3.583 -0.3889 -0.9395 -0.4932
 2060SOL    HW3 8007   4.952   6.236   3.504 -0.2584 -0.0850  0.8528
 2060SOL    MW4 8008   4.939   6.150   3.509 -0.2465 -0.1689 -0.7889
 2061SOL     OW 8009   6.341   0.507   3.658  0.3018  0.3317  0.1723
 2061SOL    HW2 8010   6.247   0.516   3.642  0.7014  0.2876 -2.7766
 2061SOL    HW3 8011   6.352   0.416   3.685 -0.4554  0.2043  0.0752
 2061SOL    MW4 8012   6.330   0.496   3.659 -0.2516 -0.1398 -0.1383
 2062SOL     OW 8013   5.300   5.771   4.145  0.2896 -0.6328 -0.2196
 2062SOL    HW2 8014   5.218   5.722   4.150 -0.5692  0.8515  0.7571
 2062SOL    HW3 8015   5.332   5.775   4.235 -0.9394  2.6151  0.1993
 2062SOL    MW4 8016   5.293   5.765   4.157 -0.0751 -0.0116 -0.2797
 2063SOL     OW 8017   5.384   5.451   5.518 -0.2183 -0.2780 -0.1545
 2063SOL    HW2 8018   5.408   5.358   5.514 -2.7439 -1.0993  1.2758
 2063SOL    HW3 8019   5.314   5.454   5.584 -0.5162  2.5835 -0.5105
 2063SOL    MW4 8020   5.378   5.439   5.526  0.0900 -0.1000  0.0898
 2064SOL     OW 8021   0.408   5.036   2.818  0.9420  0.3399  0.6844
 2064SOL    HW2 8022   0.379   4.945   2.812  1.4585  0.2233 -0.3882
 2064SOL    HW3 8023   0.469   5.046   2.744  1.2511  1.4217  1.0687
 2064SOL    MW4 8024   0.412   5.025   2.807  0.0338 -0.4775 -0.4948
 2065SOL     OW 8025   3.793   5.942   6.273 -0.4049 -0.3513  0.2212
 2065SOL    HW2 8026   3.762   6.029   6.250 -0.9433 -0.5440  0.1957
 2065SOL    HW3 8027   3.718   5.884   6.256  0.2226 -0.9433 -0.6201
 2065SOL    MW4 8028   3.779   5.946   6.268 -0.1707 -0.4888  0.7086
 2066SOL     OW 8029   1.119   3.683   5.326 -0.1326 -0.4201  0.5985
 2066SOL    HW2 8030   1.040   3.671   5.379 -0.2159 -1.3419  0.2765
 2066SOL    HW3 8031   1.171   3.605   5.342  1.1693  0.5977  1.5420
 2066SOL    MW4 8032   1.115   3.671   5.335  0.6387 -0.7334  0.3225
 2067SOL     OW 8033   6.273   0.034   2.414 -0.0069 -0.0486 -0.0614
 2067SOL    HW2 8034   6.232  -0.018   2.482  1.9689 -2.4363 -0.5610
 2067SOL    HW3 8035   6.333   0.092   2.461 -0.7779  0.3978  0.3864
 2067SOL    MW4 8036   6.276   0.035   2.429 -0.3380 -0.0463  0.1921
 2068SOL     OW 8037   0.805   0.691   3.625  0.6124 -0.8781  0.1374
 2068SOL    HW2 8038   0.715   0.668   3.645 -0.2229  0.9721 -1.1909
 2068SOL    HW3 8039   0.801   0.729   3.537  2.0833  2.2680  1.2954
 2068SOL    MW4 8040   0.793   0.693   3.616  0.6462 -0.0644 -0.2814
 2069SOL     OW 8041   0.626   5.407   0.367 -0.5140  0.0321 -0.2569
 2069SOL    HW2 8042   0.676   5.363   0.435  2.1298  0.4496 -1.8118
 2069SOL    HW3 8043   0.587   5.483   0.411 -0.6899 -0.8628  1.2153
 2069SOL    MW4 8044   0.627   5.411   0.382 -0.2960 -0.4590  0.2262
 2070SOL     OW 8045   5.604   5.860   5.208 -0.3647  0.8014 -0.1750
 2070SOL    HW2 8046   5.546   5.788   5.232 -0.8209  1.1421 -0.2275
 2070SOL    HW3 8047   5.689   5.819   5.193  0.1499  0.6264  2.6737
 2070SOL    MW4 8048   5.608   5.845   5.209 -0.6624 -0.3503 -0.4881
 2071SOL     OW 8049   4.610   1.338   0.262 -0.1070 -0.1158  0.5204
 2071SOL    HW2 8050   4.651   1.293   0.336  1.5111  0.3704 -0.0596
 2071SOL    HW3 8051   4.608   1.273   0.192  1.3970  0.3941 -0.0285
 2071SOL    MW4 8052   4.615   1.323   0.263 -0.0763 -0.1874  0.3841
 2072SOL     OW 8053   2.402   6.345   1.001  0.3485  0.4246  0.1962
 2072SOL    HW2 8054   2.350   6.328   1.080  0.2275 -1.1696 -0.1949
 2072SOL    HW3 8055   2.361   6.422   0.961  0.2917  1.1314  1.5651
 2072SOL    MW4 8056   2.390   6.353   1.006  0.4396 -0.0776  0.6302
 2073SOL     OW 8057   6.323   1.638   0.529  0.3799 -0.0782 -0.2703
 2073SOL    HW2 8058   6.261   1.706   0.553 -0.4819 -1.4853  1.6865
 2073SOL    HW3 8059   6.273   1.576   0.476  0.5548 -0.3550 -0.1181
 2073SOL    MW4 8060   6.308   1.639   0.525  0.0442  0.2218  0.0640
 2074SOL     OW 8061   5.183   6.338   6.353  0.0724  0.7754 -0.3625
 2074SOL    HW2 8062   5.234   6.322   6.432 -0.6782 -0.7034 -0.1403
 2074SOL    HW3 8063   5.141   6.254   6.334  0.7822  0.8785 -2.7432
 2074SOL    MW4 8064   5.184   6.325   6.361 -0.7561 -0.0196  0.1663
 2075SOL     OW 8065   6.266   6.080   3.031  0.5610  0.2509 -0.6694
 2075SOL    HW2 8066   6.200   6.056   3.096  0.0238  0.9017 -0.9599
 2075SOL    HW3 8067   6.345   6.033   3.058  1.0265  2.2351  1.7971
 2075SOL    MW4 8068   6.268   6.070   3.043  0.6027  0.0206  0.5043
 2076SOL     OW 8069   2.106   5.656   1.911  1.1981  0.0096  0.9977
 2076SOL    HW2 8070   2.155   5.736   1.932  0.6907  0.1517  1.7135
 2076SOL    HW3 8071   2.020   5.670   1.952  0.0932  0.3250 -1.2828
 2076SOL    MW4 8072   2.101   5.669   1.919 -0.5045 -0.2659 -0.6800
 2077SOL     OW 8073   1.068   4.892   1.711 -0.0120  0.2352  0.0115
 2077SOL    HW2 8074   1.058   4.911   1.804 -0.2172  0.1493  0.0080
 2077SOL    HW3 8075   0.989   4.843   1.688  0.5216 -0.6688  0.0310
 2077SOL    MW4 8076   1.056   4.888   1.720 -0.2288 -0.0559 -0.5063
 2078SOL     OW 8077   5.276   3.990   6.148 -0.4859  0.1565 -0.5241
 2078SOL    HW2 8078   5.309   3.931   6.216  0.4521 -0.0506 -1.1471
 2078SOL    HW3 8079   5.275   3.937   6.068 -2.1829  0.2119 -0.5739
 2078SOL    MW4 8080   5.280   3.975   6.147 -0.3948  0.7886  0.7519
 2079SOL     OW 8081   5.871   1.099   1.256 -0.0865  0.0149 -0.3298
 2079SOL    HW2 8082   5.861   1.194   1.244 -0.2265 -0.1047 -1.2118
 2079SOL    HW3 8083   5.850   1.085   1.349 -0.9168  0.7385 -0.3925
 2079SOL    MW4 8084   5.867   1.110   1.267  0.1310  0.6457  0.3923
 2080SOL     OW 8085   3.903   3.502   5.627  0.0038  0.7451 -0.1552
 2080SOL    HW2 8086   3.922   3.527   5.536  0.7337 -0.2153 -0.2919
 2080SOL    HW3 8087   3.893   3.585   5.673  0.3746  1.2597 -0.9708
 2080SOL    MW4 8088   3.904   3.516   5.621  0.4171  0.1268  0.3793
 2081SOL     OW 8089   1.617   0.780   0.542 -0.0978  0.1246 -0.2339
 2081SOL    HW2 8090   1.621   0.774   0.447 -0.0944 -2.1584 -0.1553
 2081SOL    HW3 8091   1.705   0.806   0.568  0.1729 -0.1558 -0.8340
 2081SOL    MW4 8092   1.629   0.782   0.533 -0.3006  0.0083  0.4102
 2082SOL     OW 8093   1.538   6.056   0.819  0.3821  0.0278  0.4003
 2082SOL    HW2 8094   1.466   5.995   0.801  0.5200  0.3620 -1.4651
 2082SOL    HW3 8095   1.532   6.073   0.913  0.0876 -2.5143  0.8969
 2082SOL    MW4 8096   1.528   6.050   0.829  0.5801 -0.3996 -0.1010
 2083SOL     OW 8097   5.568   6.197   5.950  0.1886  0.0912  0.1869
 2083SOL    HW2 8098   5.491   6.178   6.002 -0.9191  0.6660 -1.1740
 2083SOL    HW3 8099   5.601   6.111   5.923 -0.7052 -0.1278 -0.2259
 2083SOL    MW4 8100   5.562   6.183   5.953 -0.2940  0.1556  0.2725
 2084SOL     OW 8101   2.327   2.930   5.322  0.0566  0.1020  0.5047
 2084SOL    HW2 8102   2.336   2.967   5.410  0.0534 -0.6989  0.8543
 2084SOL    HW3 8103   2.236   2.900   5.318  0.1579 -0.1886  0.3580
 2084SOL    MW4 8104   2.316   2.931   5.333  0.1596 -0.5919  0.3598
 2085SOL     OW 8105   5.586   4.282   0.561 -0.1911 -0.0141 -0.6339
 2085SOL    HW2 8106   5.581   4.370   0.523 -2.7573 -0.6915 -2.1599
 2085SOL    HW3 8107   5.631   4.294   0.644  1.6451  2.3267 -1.8424
 2085SOL    MW4 8108   5.591   4.295   0.567  0.0283 -0.2157  0.6799
 2086SOL     OW 8109   3.153   5.957   1.066 -0.5014 -0.2429 -0.5780
 2086SOL    HW2 8110   3.185   5.905   0.992  0.5953  0.4418 -0.6042
 2086SOL    HW3 8111   3.101   6.027   1.026  0.2922  0.2675 -0.7175
 2086SOL    MW4 8112   3.150   5.960   1.051 -0.1470 -0.1053  0.4555
 2087SOL     OW 8113   3.785   5.872   0.469 -1.1091 -0.0344 -0.2532
 2087SOL    HW2 8114   3.788   5.960   0.507 -0.1772 -0.1401 -0.0513
 2087SOL    HW3 8115   3.781   5.887   0.374  1.9828  0.2992 -0.4474
 2087SOL    MW4 8116   3.785   5.886   0.461 -0.3524 -0.1436 -0.3440
 2088SOL     OW 8117   4.029   1.204   5.114 -0.1117 -0.0858  0.0160
 2088SOL    HW2 8118   4.105   1.253   5.146  1.1710 -2.0566  0.1326
 2088SOL    HW3 8119   3.960   1.224   5.178  0.1192  2.0654 -0.3224
 2088SOL    MW4 8120   4.030   1.213   5.127 -0.3303  0.1689  0.0769
 2089SOL     OW 8121   4.344   0.292   0.719 -0.4483 -0.2415  0.0953
 2089SOL    HW2 8122   4.425   0.316   0.674 -0.0686 -0.4155  0.6813
 2089SOL    HW3 8123   4.327   0.202   0.692 -1.0888  0.1696 -0.9507
 2089SOL    MW4 8124   4.352   0.283   0.709  0.5828  0.3876 -0.3053
 2090SOL     OW 8125   4.420   4.740   4.525 -0.1292  0.6288  0.5488
 2090SOL    HW2 8126   4.471   4.693   4.592 -0.4971  1.2389  1.2631
 2090SOL    HW3 8127   4.487   4.782   4.470  0.1872 -0.2116  0.2722
 2090SOL    MW4 8128   4.436   4.739   4.526  0.2954  0.2120 -0.4824
 2091SOL     OW 8129   0.695   4.222   1.632 -0.4972 -0.2604  0.2502
 2091SOL    HW2 8130   0.726   4.235   1.543 -1.8625 -2.1273 -0.5630
 2091SOL    HW3 8131   0.641   4.299   1.651  1.7013  1.3336  0.4328
 2091SOL    MW4 8132   0.692   4.234   1.623 -0.6080 -0.8036 -0.1660
 2092SOL     OW 8133   2.141   5.741   0.165  0.5576 -0.2067 -0.6786
 2092SOL    HW2 8134   2.160   5.832   0.140  1.6574  0.0140  0.7993
 2092SOL    HW3 8135   2.101   5.749   0.252 -0.8679 -1.0579 -1.2343
 2092SOL    MW4 8136   2.138   5.754   0.173  0.4654 -0.1192 -0.0405
 2093SOL     OW 8137   2.552   5.173   2.817  0.6396 -0.8485 -0.0182
 2093SOL    HW2 8138   2.462   5.205   2.810 -0.0695 -2.7038  0.0847
 2093SOL    HW3 8139   2.595   5.233   2.878 -0.2422  0.6083 -0.7719
 2093SOL    MW4 8140   2.546   5.185   2.824 -0.1597 -0.6679  0.7553
 2094SOL     OW 8141   5.786   2.653   4.828 -0.0307  0.2280  0.0496
 2094SOL    HW2 8142   5.692   2.673   4.829 -0.0662  0.0517  0.3781
 2094SOL    HW3 8143   5.801   2.613   4.742 -0.0843  1.0630 -0.3575
 2094SOL    MW4 8144   5.776   2.650   4.817  0.3312  0.0561  0.1045
 2095SOL     OW 8145   3.986   1.523   6.179  0.0056 -0.1730  0.5482
 2095SOL    HW2 8146   3.958   1.536   6.088  1.1121  0.5126  0.2837
 2095SOL    HW3 8147   3.909   1.546   6.231 -0.6758 -0.6677 -0.2021
 2095SOL    MW4 8148   3.972   1.528   6.174 -0.4316 -0.0382 -0.5701
 2096SOL     OW 8149   6.271   2.054   4.906 -0.6781 -0.0520 -0.2186
 2096SOL    HW2 8150   6.277   2.096   4.991 -0.4342 -1.3094  0.3993
 2096SOL    HW3 8151   6.297   1.963   4.921 -0.4950 -0.2701 -1.6548
 2096SOL    MW4 8152   6.275   2.048   4.919 -0.2937  0.3032  0.5992
 2097SOL     OW 8153   1.699   5.276   0.852  1.0135  0.2250  0.2733
 2097SOL    HW2 8154   1.732   5.247   0.937 -0.9041 -0.4267  0.8583
 2097SOL    HW3 8155   1.609   5.306   0.871  1.8739  4.0102 -0.8015
 2097SOL    MW4 8156   1.691   5.276   0.866 -0.0955  0.4536 -0.2562
 2098SOL     OW 8157   4.078   2.326   5.709  0.0049  0.1451 -0.2282
 2098SOL    HW2 8158   4.027   2.300   5.785 -0.2011  0.4677 -0.2542
 2098SOL    HW3 8159   4.153   2.374   5.745  1.1697 -1.6896 -0.0829
 2098SOL    MW4 8160   4.082   2.329   5.724 -0.9574  0.3865 -0.8814
 2099SOL     OW 8161   2.054   3.649   0.204  0.3200  0.2460  0.5174
 2099SOL    HW2 8162   2.020   3.720   0.151  1.5385 -0.0499 -0.7018
 2099SOL    HW3 8163   2.049   3.682   0.294 -0.4136  1.3130  0.1061
 2099SOL    MW4 8164   2.049   3.663   0.209 -0.1119 -0.4862 -0.0424
 2100SOL     OW 8165   3.468   5.035   5.257  0.2191  0.1701  0.0131
 2100SOL    HW2 8166   3.450   5.094   5.184  1.5921  0.9252  0.2544
 2100SOL    HW3 8167   3.388   4.984   5.267 -0.4223  0.8949 -1.2323
 2100SOL    MW4 8168   3.455   5.036   5.249 -0.0226  0.4732 -0.0660
 2101SOL     OW 8169   4.128   0.439   0.571  0.0822  0.4487 -0.7975
 2101SOL    HW2 8170   4.117   0.526   0.610 -0.9472  0.2826 -0.6901
 2101SOL    HW3 8171   4.199   0.399   0.622  0.6474  1.2538 -0.9221
 2101SOL    MW4 8172   4.136   0.445   0.583  0.0230  0.2400  0.1641
 2102SOL     OW 8173   5.236   6.075   5.929 -0.0423 -0.1030 -1.0376
 2102SOL    HW2 8174   5.145   6.101   5.941  0.1070  0.1188 -0.3235
 2102SOL    HW3 8175   5.282   6.157   5.913  0.1563 -0.1157 -0.5528
 2102SOL    MW4 8176   5.230   6.089   5.928  0.4932 -0.3106  0.1834
 2103SOL     OW 8177   5.274   0.567   5.194 -0.4598 -0.3422  0.1327
 2103SOL    HW2 8178   5.200   0.563   5.255 -0.6226  2.2725  0.2207
 2103SOL    HW3 8179   5.236   0.542   5.110 -1.0915 -0.4294  0.4346
 2103SOL    MW4 8180   5.259   0.563   5.191 -0.4861  0.2448 -0.2398
 2104SOL     OW 8181   1.571   5.962   3.272  0.4248  0.1710  0.2015
 2104SOL    HW2 8182   1.661   5.974   3.243  0.2971  2.2009  0.5035
 2104SOL    HW3 8183   1.524   5.931   3.195  1.1698  0.1315 -0.2393
 2104SOL    MW4 8184   1.576   5.959   3.258 -0.1542 -0.7935  0.3579
 2105SOL     OW 8185   3.784   4.786   0.319 -0.5058  0.2505 -0.3133
 2105SOL    HW2 8186   3.749   4.713   0.370 -0.8288  0.5873 -0.0466
 2105SOL    HW3 8187   3.874   4.759   0.298  0.9780  1.5433  3.4896
 2105SOL    MW4 8188   3.791   4.773   0.323  0.1139 -0.0055  0.1396
 2106SOL     OW 8189   3.697   0.669   1.906  0.0885  0.3768 -0.2467
 2106SOL    HW2 8190   3.754   0.593   1.889 -2.1373 -1.5362  0.3028
 2106SOL    HW3 8191   3.749   0.725   1.963  1.7677 -0.8344 -0.5048
 2106SOL    MW4 8192   3.711   0.666   1.911  0.2308 -0.0582 -0.0775
 2107SOL     OW 8193   1.854   6.065   3.892  0.1250 -0.2949  0.4460
 2107SOL    HW2 8194   1.895   5.995   3.842 -1.3274 -1.5083  0.8803
 2107SOL    HW3 8195   1.901   6.066   3.975  0.1047 -0.8375  0.4692
 2107SOL    MW4 8196   1.865   6.056   3.896  0.7652  0.3822  0.0693
 2108SOL     OW 8197   5.969   2.671   3.903  0.2914 -0.2999 -0.0232
 2108SOL    HW2 8198   5.902   2.726   3.945  1.8993  1.9084 -0.1683
 2108SOL    HW3 8199   5.950   2.582   3.933 -2.7162  0.2208 -0.1178
 2108SOL    MW4 8200   5.958   2.667   3.912 -0.6219 -0.4802 -0.2010
 2109SOL     OW 8201   0.593   0.007   2.566  0.2515 -0.2803 -0.1270
 2109SOL    HW2 8202   0.572  -0.038   2.484  0.7908 -0.7752  0.0033
 2109SOL    HW3 8203   0.533   0.082   2.567 -0.2466 -0.6570 -0.6314
 2109SOL    MW4 8204   0.582   0.011   2.555 -0.1820  0.7546 -0.3786
 2110SOL     OW 8205   3.637   3.615   1.916 -0.1906  0.7028 -0.4795
 2110SOL    HW2 8206   3.663   3.592   1.827 -2.8240 -1.3101 -0.8343
 2110SOL    HW3 8207   3.642   3.711   1.918  0.8642  0.7416 -2.4687
 2110SOL    MW4 8208   3.641   3.625   1.904 -0.1751  0.1857 -0.3131
 2111SOL     OW 8209   3.746   2.769   0.376  0.4005  0.3177  0.2235
 2111SOL    HW2 8210   3.791   2.851   0.356  2.2038 -0.7777 -0.4478
 2111SOL    HW3 8211   3.770   2.750   0.467  0.5283  0.2113  0.1682
 2111SOL    MW4 8212   3.755   2.777   0.385 -0.0330 -0.2924 -0.3404
 2112SOL     OW 8213   1.041   3.226   5.386  0.4676 -0.1537  0.7183
 2112SOL    HW2 8214   1.043   3.131   5.375 -0.4830 -0.4902  2.9260
 2112SOL    HW3 8215   0.970   3.255   5.328 -1.6116 -1.2754  2.5640
 2112SOL    MW4 8216   1.032   3.217   5.377  0.0701  0.5303 -0.1329
 2113SOL     OW 8217   2.843   3.779   3.799 -0.1896  0.2711  0.0153
 2113SOL    HW2 8218   2.802   3.706   3.845  1.6344 -1.5315 -1.1052
 2113SOL    HW3 8219   2.870   3.839   3.869 -1.3399 -0.2975  0.9810
 2113SOL    MW4 8220   2.841   3.778   3.814  0.5058  0.3419  0.5592
 2114SOL     OW 8221   0.135   3.527   6.018  0.2026 -0.6125  0.5789
 2114SOL    HW2 8222   0.076   3.571   5.957 -0.4584  0.1586  1.7688
 2114SOL    HW3 8223   0.197   3.594   6.045  0.6204 -1.0068  0.6228
 2114SOL    MW4 8224   0.135   3.541   6.013  0.8707 -0.2821  0.2754
 2115SOL     OW 8225   0.736   1.409   1.082 -0.2578 -0.0329  0.1829
 2115SOL    HW2 8226   0.799   1.349   1.122 -0.2047  0.4402  0.8088
 2115SOL    HW3 8227   0.688   1.355   1.019 -0.7545 -0.9288  1.3028
 2115SOL    MW4 8228   0.738   1.394   1.079 -0.2777  0.3418 -0.0465
 2116SOL     OW 8229   4.158   3.337   1.013  0.1379 -0.1427 -0.1407
 2116SOL    HW2 8230   4.231   3.292   0.970 -0.0875 -1.7147  1.0133
 2116SOL    HW3 8231   4.199   3.401   1.071  0.5362  0.0270 -0.6026
 2116SOL    MW4 8232   4.173   3.339   1.015 -0.1277 -0.0739 -0.4732
 2117SOL     OW 8233   4.413   2.803   4.379 -0.4689 -0.4001 -0.2161
 2117SOL    HW2 8234   4.350   2.856   4.330  1.1757  0.3785 -1.6033
 2117SOL    HW3 8235   4.370   2.784   4.462 -2.4266  0.2647 -1.0355
 2117SOL    MW4 8236   4.399   2.807   4.383  0.7657  0.0268  0.1280
 2118SOL     OW 8237   0.010   5.586   2.042 -0.0795  0.1534 -0.1368
 2118SOL    HW2 8238   0.095   5.567   2.081 -1.0973 -0.1153  2.1363
 2118SOL    HW3 8239  -0.044   5.510   2.063 -1.2172  0.8484 -0.4519
 2118SOL    MW4 8240   0.014   5.574   2.050  0.0420 -0.0323 -0.4475
 2119SOL     OW 8241   4.971   0.415   3.344  0.3856  0.5123  0.5488
 2119SOL    HW2 8242   4.982   0.429   3.438 -0.3119 -1.3474  0.9644
 2119SOL    HW3 8243   4.886   0.371   3.337 -0.0048  1.4480 -1.0588
 2119SOL    MW4 8244   4.961   0.411   3.356  0.0050  0.5285 -0.2909
 2120SOL     OW 8245   2.696   3.754   1.171 -0.7174 -0.0820 -0.1261
 2120SOL    HW2 8246   2.652   3.839   1.176  0.4217  0.5483 -0.5512
 2120SOL    HW3 8247   2.631   3.692   1.204 -1.1784  1.0907  1.2963
 2120SOL    MW4 8248   2.682   3.757   1.176 -0.5331 -0.0110  1.1450
 2121SOL     OW 8249   4.194   0.501   2.546 -0.5726  0.1815 -0.0405
 2121SOL    HW2 8250   4.204   0.596   2.558 -1.3298  0.1327  1.0771
 2121SOL    HW3 8251   4.101   0.485   2.559 -0.1564 -0.9800  1.7477
 2121SOL    MW4 8252   4.183   0.512   2.549  0.3689  0.0733 -0.4311
 2122SOL     OW 8253   2.684   1.947   5.010  0.2348 -0.1650  0.3002
 2122SOL    HW2 8254   2.666   1.966   5.102  2.6754 -3.7447  1.7297
 2122SOL    HW3 8255   2.648   1.860   4.996 -0.8727  0.6113 -2.5250
 2122SOL    MW4 8256   2.677   1.938   5.020 -0.1261  0.6194 -0.3935
 2123SOL     OW 8257   0.269   2.862   5.632 -0.2306  0.0558  0.2599
 2123SOL    HW2 8258   0.327   2.901   5.567  0.5136 -1.5735 -0.0917
 2123SOL    HW3 8259   0.323   2.853   5.710 -0.0264 -1.3512 -0.0282
 2123SOL    MW4 8260   0.284   2.866   5.634 -0.4340 -0.1791 -0.4059
 2124SOL     OW 8261   4.785   4.090   0.571  0.4387  0.3412  0.2027
 2124SOL    HW2 8262   4.867   4.140   0.567  0.5535  0.3750  2.2077
 2124SOL    HW3 8263   4.812   3.999   0.563  0.4701  0.4333 -0.9379
 2124SOL    MW4 8264   4.799   4.085   0.569 -0.2482 -0.5362 -0.3720
 2125SOL     OW 8265   2.925   4.754   5.057  0.6622 -0.3500 -0.5462
 2125SOL    HW2 8266   2.975   4.835   5.065 -0.8664  0.8888 -2.4991
 2125SOL    HW3 8267   2.989   4.684   5.073  2.0586  1.2023  1.0231
 2125SOL    MW4 8268   2.940   4.755   5.060 -0.4428  0.5298 -0.6500
 2126SOL     OW 8269   3.681   1.649   2.826  0.0673 -0.7180 -0.1733
 2126SOL    HW2 8270   3.649   1.722   2.879  0.5481 -1.0157  0.5420
 2126SOL    HW3 8271   3.729   1.691   2.754  1.6066 -0.3092  1.0253
 2126SOL    MW4 8272   3.683   1.664   2.824  0.2439 -0.2904 -0.3900
 2127SOL     OW 8273   5.462   3.520   3.364 -0.0128  0.5333 -0.2959
 2127SOL    HW2 8274   5.426   3.463   3.296 -2.0845 -0.6800  1.6596
 2127SOL    HW3 8275   5.396   3.519   3.433  1.8443  1.9345  1.6305
 2127SOL    MW4 8276   5.448   3.513   3.364  0.0895  0.1685 -0.1901
 2128SOL     OW 8277   3.235   6.177   5.667  0.0673 -0.1497  0.2332
 2128SOL    HW2 8278   3.329   6.161   5.678  0.5823  1.1875 -1.7056
 2128SOL    HW3 8279   3.212   6.127   5.589 -0.4748  0.7559 -0.1956
 2128SOL    MW4 8280   3.245   6.168   5.658  0.3759  0.3077  0.6857
 2129SOL     OW 8281   0.208   2.137   3.113 -0.4025  0.7252 -0.0687
 2129SOL    HW2 8282   0.203   2.089   3.195  0.1087  0.3502 -0.2518
 2129SOL    HW3 8283   0.118   2.165   3.096 -0.7335 -0.2689 -0.0262
 2129SOL    MW4 8284   0.195   2.135   3.122 -0.2453 -0.2326 -0.0024
 2130SOL     OW 8285   0.782   5.148   3.102 -0.1381  0.6003  0.4355
 2130SOL    HW2 8286   0.813   5.176   3.188 -0.1543  0.0476  0.6249
 2130SOL    HW3 8287   0.801   5.054   3.099 -0.8679  0.4540  0.1553
 2130SOL    MW4 8288   0.788   5.139   3.113 -0.6990 -0.0223 -0.4805
 2131SOL     OW 8289   1.900   6.358   4.135  0.1012 -0.0960 -0.2367
 2131SOL    HW2 8290   1.949   6.389   4.211  1.5193 -0.1455 -1.0882
 2131SOL    HW3 8291   1.819   6.322   4.171  0.4974  0.3854  1.1882
 2131SOL    MW4 8292   1.896   6.357   4.150  0.3728 -0.3451  0.3155
 2132SOL     OW 8293   0.850   2.946   2.262  0.0787 -0.3002 -0.2908
 2132SOL    HW2 8294   0.784   2.931   2.194 -1.0219 -2.0779  1.0831
 2132SOL    HW3 8295   0.801   2.944   2.344  1.7691 -1.2924  0.7515
 2132SOL    MW4 8296   0.835   2.944   2.263 -0.0932 -0.6106 -1.0860
 2133SOL     OW 8297   0.999   1.956   0.860  0.4462 -0.6163  0.1553
 2133SOL    HW2 8298   0.928   1.947   0.796 -0.5050  0.8768  0.9324
 2133SOL    HW3 8299   1.071   1.995   0.810 -0.3395  0.6833 -0.0264
 2133SOL    MW4 8300   0.999   1.960   0.845  0.0835  0.0284 -0.5981
 2134SOL     OW 8301   0.606   2.647   0.063 -0.2169  0.5726 -0.1444
 2134SOL    HW2 8302   0.671   2.582   0.034  0.9188  2.4176 -2.1040
 2134SOL    HW3 8303   0.523   2.615   0.028 -0.0556 -0.8339  0.6966
 2134SOL    MW4 8304   0.604   2.634   0.054 -0.5005 -0.2359  0.0692
 2135SOL     OW 8305   3.121   5.237   1.121  0.1233  0.3614  0.2202
 2135SOL    HW2 8306   3.105   5.172   1.189 -0.7755  0.5468  0.1969
 2135SOL    HW3 8307   3.038   5.285   1.114 -0.0903 -0.1784 -1.5498
 2135SOL    MW4 8308   3.108   5.235   1.129  0.2047 -0.9061  1.1308
 2136SOL     OW 8309   0.372   2.134   3.646  0.1337  0.1414 -0.1900
 2136SOL    HW2 8310   0.430   2.195   3.692  0.7148  0.0439 -0.7821
 2136SOL    HW3 8311   0.347   2.179   3.566  0.1013 -0.1649 -0.3544
 2136SOL    MW4 8312   0.376   2.148   3.642  0.6200 -0.5482  0.5443
 2137SOL     OW 8313   0.834   5.012   2.556 -0.0166 -0.4597  0.2587
 2137SOL    HW2 8314   0.916   4.978   2.591 -0.1567 -1.2884 -0.1867
 2137SOL    HW3 8315   0.854   5.037   2.466 -0.4510 -1.5832 -0.1821
 2137SOL    MW4 8316   0.847   5.011   2.549  0.3383 -0.5608 -0.3515
 2138SOL     OW 8317   5.407   0.418   4.158 -0.2219 -0.1397  0.2803
 2138SOL    HW2 8318   5.447   0.497   4.195  0.4991  0.0340 -0.8453
 2138SOL    HW3 8319   5.480   0.359   4.141 -0.6291 -0.5546 -0.0775
 2138SOL    MW4 8320   5.422   0.420   4.161  0.2153  0.1100 -0.3362
 2139SOL     OW 8321   4.644   2.275   5.893 -0.4607 -0.1190  0.4975
 2139SOL    HW2 8322   4.697   2.300   5.817  1.4886 -1.0029  1.5082
 2139SOL    HW3 8323   4.594   2.199   5.863  1.3705 -1.3616  0.4644
 2139SOL    MW4 8324   4.644   2.268   5.879  0.4155  0.0439 -0.0080
 2140SOL     OW 8325   4.697   5.218   1.094  0.2290  0.3866  0.1360
 2140SOL    HW2 8326   4.778   5.169   1.112 -0.0483  0.0813  0.5635
 2140SOL    HW3 8327   4.719   5.309   1.115  0.2850  0.2187  0.8386
 2140SOL    MW4 8328   4.711   5.223   1.099  0.7142 -0.1363 -0.0719
 2141SOL     OW 8329   0.958   2.561   2.553 -0.2547  0.1269  0.4835
 2141SOL    HW2 8330   1.001   2.502   2.615  0.4079  1.7482  1.6465
 2141SOL    HW3 8331   1.029   2.603   2.505 -0.5838  1.4467  1.1010
 2141SOL    MW4 8332   0.973   2.559   2.555 -0.0861 -0.2277 -0.1698
 2142SOL     OW 8333   3.130   5.390   0.780 -0.7136  0.0400 -0.2983
 2142SOL    HW2 8334   3.169   5.327   0.841 -1.8826  0.5467  1.0138
 2142SOL    HW3 8335   3.071   5.337   0.726  1.4602 -0.6886 -2.1348
 2142SOL    MW4 8336   3.128   5.374   0.781 -0.2232 -0.3560 -0.3502
 2143SOL     OW 8337   0.751   0.801   4.866  0.5614  0.2263 -0.2365
 2143SOL    HW2 8338   0.696   0.855   4.810  1.7578  0.4557 -1.2390
 2143SOL    HW3 8339   0.838   0.806   4.826  1.3748  0.0895  1.4339
 2143SOL    MW4 8340   0.756   0.809   4.853  0.4476  0.0731 -0.3548
 2144SOL     OW 8341   4.829   0.194   2.681 -0.8376 -0.0669  0.3038
 2144SOL    HW2 8342   4.744   0.226   2.709 -1.2687 -0.3020 -0.6766
 2144SOL    HW3 8343   4.811   0.142   2.603  0.3091  0.6991 -0.5142
 2144SOL    MW4 8344   4.816   0.191   2.674  0.0723 -0.1631 -0.2008
 2145SOL     OW 8345   3.806   1.321   1.695  0.0916 -1.0443  0.0449
 2145SOL    HW2 8346   3.744   1.386   1.727  0.6846 -0.1384 -0.5794
 2145SOL    HW3 8347   3.851   1.289   1.773 -0.3395 -0.8397  0.3782
 2145SOL    MW4 8348   3.804   1.326   1.709  0.2803  0.5634  0.0365
 2146SOL     OW 8349   2.494   5.850   0.039  0.0850  0.4302  0.4101
 2146SOL    HW2 8350   2.513   5.943   0.025  0.4467  0.0540 -2.0822
 2146SOL    HW3 8351   2.457   5.821  -0.044 -0.4139 -1.5743  1.2891
 2146SOL    MW4 8352   2.492   5.859   0.026 -0.3907 -0.3301 -0.0203
 2147SOL     OW 8353   1.379   2.103   3.881 -0.2321 -0.0631  0.2096
 2147SOL    HW2 8354   1.430   2.028   3.911 -0.2497  0.4195  1.4723
 2147SOL    HW3 8355   1.346   2.144   3.961  0.4033  1.7368 -0.4181
 2147SOL    MW4 8356   1.381   2.098   3.895 -0.4889 -0.1829  0.1194
 2148SOL     OW 8357   4.911   2.088   4.010 -0.2181  0.3136 -0.5783
 2148SOL    HW2 8358   4.837   2.057   3.957  0.1203  0.7944 -1.3408
 2148SOL    HW3 8359   4.982   2.028   3.987 -0.1384  0.3746 -0.4862
 2148SOL    MW4 8360   4.910   2.076   4.000 -0.6060  0.4253  0.0584
 2149SOL     OW 8361   4.529   5.037   3.312 -0.2371 -0.3866 -0.4530
 2149SOL    HW2 8362   4.607   5.011   3.361  0.1221  0.7097 -0.4333
 2149SOL    HW3 8363   4.531   5.132   3.312 -1.4341 -0.3516 -0.6924
 2149SOL    MW4 8364   4.540   5.046   3.318 -0.2553 -0.1576  0.0489
 2150SOL     OW 8365   4.317   2.609   1.527  0.5113  0.1565  0.1706
 2150SOL    HW2 8366   4.402   2.592   1.487  0.4777 -0.5940  0.4122
 2150SOL    HW3 8367   4.331   2.687   1.580  1.1769 -0.2406  0.5874
 2150SOL    MW4 8368   4.330   2.617   1.529  0.3087 -0.0173 -0.1348
 2151SOL     OW 8369   0.838   6.329   1.964  0.2279  0.1957  0.0324
 2151SOL    HW2 8370   0.884   6.412   1.977  0.6491  0.1171 -0.9135
 2151SOL    HW3 8371   0.907   6.264   1.957 -0.0312  0.0132 -0.9526
 2151SOL    MW4 8372   0.853   6.331   1.965  0.1009  0.1223 -0.0858
 2152SOL     OW 8373   0.926   3.310   6.168 -0.6108 -0.3902  0.2990
 2152SOL    HW2 8374   1.004   3.259   6.190  0.1735  0.3676 -0.6213
 2152SOL    HW3 8375   0.939   3.395   6.212 -1.1414 -0.4121  0.5110
 2152SOL    MW4 8376   0.938   3.315   6.177 -0.3890  0.3461 -0.4890
 2153SOL     OW 8377   3.679   1.638   3.384  0.0691 -0.0605 -0.6427
 2153SOL    HW2 8378   3.709   1.690   3.458  0.2717 -0.9731 -0.0741
 2153SOL    HW3 8379   3.614   1.693   3.340 -2.1662 -0.5436  1.8149
 2153SOL    MW4 8380   3.674   1.652   3.388 -0.7258  0.3846 -0.2051
 2154SOL     OW 8381   1.345   4.208   1.642 -0.2590 -0.2323 -0.0997
 2154SOL    HW2 8382   1.287   4.153   1.589  0.7489  0.0123 -1.5093
 2154SOL    HW3 8383   1.396   4.259   1.578  0.5485  0.5613  1.1200
 2154SOL    MW4 8384   1.344   4.208   1.626 -0.2163  0.5535  0.0825
 2155SOL     OW 8385   0.921   1.361   1.482  0.2697 -0.1621 -0.0975
 2155SOL    HW2 8386   0.910   1.456   1.478 -1.1326 -0.3638 -3.0589
 2155SOL    HW3 8387   0.835   1.328   1.506  0.2727 -0.7631 -0.8826
 2155SOL    MW4 8388   0.908   1.369   1.485 -0.6134 -0.0315  0.1908
 2156SOL     OW 8389   0.648   3.768   3.368 -0.8715 -0.4697  0.1404
 2156SOL    HW2 8390   0.721   3.746   3.426 -1.6640 -0.8189  1.0324
 2156SOL    HW3 8391   0.680   3.842   3.316  1.5843 -2.9973 -2.3253
 2156SOL    MW4 8392   0.662   3.775   3.368 -0.0939 -0.4663 -0.0398
 2157SOL     OW 8393   4.039   0.184   3.963 -0.1119  0.6068 -0.0485
 2157SOL    HW2 8394   4.054   0.169   3.870 -4.0003 -2.2598 -0.4641
 2157SOL    HW3 8395   4.094   0.120   4.007  0.7182  1.0467 -0.4222
 2157SOL    MW4 8396   4.048   0.174   3.956  0.3935 -0.1950  0.1736
 2158SOL     OW 8397   4.386   4.132   4.892 -0.2078  0.0711 -0.5762
 2158SOL    HW2 8398   4.478   4.104   4.882 -0.3349 -1.1748  1.1652
 2158SOL    HW3 8399   4.337   4.072   4.836 -0.0228  0.2836 -0.9689
 2158SOL    MW4 8400   4.392   4.120   4.883 -0.1303  0.0172  0.1104
 2159SOL     OW 8401   1.813   3.547   2.686 -0.5188  0.0833 -0.1177
 2159SOL    HW2 8402   1.860   3.595   2.617 -3.9444  1.9754 -1.3947
 2159SOL    HW3 8403   1.785   3.466   2.644  0.0413 -0.2237  0.0879
 2159SOL    MW4 8404   1.815   3.543   2.671 -0.1113 -0.2691 -0.2009
 2160SOL     OW 8405   3.836   1.206   2.993  0.1556 -0.0881  0.2644
 2160SOL    HW2 8406   3.775   1.276   3.015 -0.0682  0.2390 -1.2682
 2160SOL    HW3 8407   3.917   1.251   2.967 -0.5784 -0.1977 -2.6064
 2160SOL    MW4 8408   3.839   1.221   2.992 -0.3102  0.3239 -0.3302
 2161SOL     OW 8409   6.368   6.279   3.463 -0.0723  0.0135 -0.3524
 2161SOL    HW2 8410   6.413   6.291   3.380 -0.3010 -1.6369 -0.7458
 2161SOL    HW3 8411   6.335   6.189   3.460 -0.0535 -0.0981  1.5415
 2161SOL    MW4 8412   6.369   6.269   3.452 -0.2158 -0.2930 -0.0949
 2162SOL     OW 8413   0.025   0.651   5.754 -0.4616  0.0395  0.2013
 2162SOL    HW2 8414   0.028   0.738   5.793 -0.3494 -0.2787  0.9132
 2162SOL    HW3 8415  -0.014   0.665   5.668  0.5659  0.9534 -0.1459
 2162SOL    MW4 8416   0.020   0.664   5.748 -0.0803 -0.5488  0.7463
 2163SOL     OW 8417   3.957   1.638   3.798 -0.4525 -0.4081 -0.3429
 2163SOL    HW2 8418   4.033   1.689   3.772 -0.2074  0.0040  1.1254
 2163SOL    HW3 8419   3.892   1.654   3.728  1.1582 -1.7294 -2.2639
 2163SOL    MW4 8420   3.958   1.647   3.785  0.2146  0.6271  0.3452
 2164SOL     OW 8421   4.846   6.006   1.842 -0.6105  0.0695 -0.1148
 2164SOL    HW2 8422   4.758   5.977   1.868 -0.8023 -0.9817 -1.7208
 2164SOL    HW3 8423   4.830   6.082   1.786 -0.4205  0.4442  0.3354
 2164SOL    MW4 8424   4.832   6.012   1.838  0.0134  0.6737  0.3091
 2165SOL     OW 8425   5.294   3.526   5.375 -0.0920 -0.0388  0.4552
 2165SOL    HW2 8426   5.272   3.608   5.330  0.6242 -0.3339 -0.4534
 2165SOL    HW3 8427   5.250   3.458   5.324  0.1472 -0.3154  0.6173
 2165SOL    MW4 8428   5.285   3.528   5.362 -0.0865  0.1232  0.3378
 2166SOL     OW 8429   1.522   4.380   6.061  0.6896  0.0771  0.2184
 2166SOL    HW2 8430   1.592   4.418   6.007  1.9284  1.3852  2.5933
 2166SOL    HW3 8431   1.562   4.302   6.101  0.2783 -0.0345  0.4220
 2166SOL    MW4 8432   1.537   4.375   6.059 -0.7046 -0.4442 -0.1146
 2167SOL     OW 8433   4.691   2.351   2.533  0.2734  0.4728  0.0580
 2167SOL    HW2 8434   4.625   2.378   2.597  0.6228  0.3248  0.4929
 2167SOL    HW3 8435   4.653   2.275   2.490 -0.8575  1.8006 -1.4026
 2167SOL    MW4 8436   4.678   2.345   2.536 -0.1784 -0.1137  0.8495
 2168SOL     OW 8437   2.879   0.989   5.997 -0.4008 -0.5987  0.1908
 2168SOL    HW2 8438   2.841   1.069   6.034  0.6320  0.7375 -1.5193
 2168SOL    HW3 8439   2.909   0.940   6.074 -2.8259 -0.3393  1.4098
 2168SOL    MW4 8440   2.878   0.993   6.012 -0.4882 -0.1547  0.0362
 2169SOL     OW 8441   4.753   0.877   2.434 -0.6578  0.2630  0.1883
 2169SOL    HW2 8442   4.718   0.842   2.516  0.1425  0.2579  0.5280
 2169SOL    HW3 8443   4.848   0.872   2.443 -0.5476  1.2427 -0.3199
 2169SOL    MW4 8444   4.761   0.871   2.446 -0.0683  0.2025  0.2210
 2170SOL     OW 8445   1.198   2.686   2.430 -0.5410 -0.1386 -0.0792
 2170SOL    HW2 8446   1.261   2.618   2.452 -0.5421 -0.3308 -0.6593
 2170SOL    HW3 8447   1.164   2.661   2.345  0.7644  1.5166 -1.1580
 2170SOL    MW4 8448   1.202   2.674   2.422  0.8917  0.9645  0.0873
 2171SOL     OW 8449   4.777   4.385   2.680  0.3379  0.5394  0.1372
 2171SOL    HW2 8450   4.794   4.479   2.680 -0.9474  0.8229  1.6152
 2171SOL    HW3 8451   4.682   4.378   2.669  0.6285 -0.7041 -2.2096
 2171SOL    MW4 8452   4.766   4.397   2.679 -0.5888 -0.0441 -0.3835
 2172SOL     OW 8453   0.684   3.001   5.099 -0.3823  0.0952  0.1565
 2172SOL    HW2 8454   0.617   3.063   5.125 -1.3435 -0.6839 -0.3954
 2172SOL    HW3 8455   0.657   2.918   5.138  0.6096 -0.0934  0.4711
 2172SOL    MW4 8456   0.672   2.998   5.107 -0.3629 -0.4096 -0.1500
 2173SOL     OW 8457   3.379   1.321   2.688 -0.1831 -0.4500  0.0900
 2173SOL    HW2 8458   3.381   1.410   2.722  1.6694 -0.2806 -0.3102
 2173SOL    HW3 8459   3.449   1.276   2.735 -0.3912 -1.3954 -0.4688
 2173SOL    MW4 8460   3.389   1.327   2.698  0.4122  0.1580  0.5217
 2174SOL     OW 8461   2.949   4.279   3.721 -0.0006 -0.2656  0.2482
 2174SOL    HW2 8462   2.980   4.344   3.659  2.9305 -2.0253 -0.3695
 2174SOL    HW3 8463   2.966   4.318   3.807  1.5608 -0.0807 -0.1110
 2174SOL    MW4 8464   2.955   4.293   3.724  0.5626 -0.1000 -0.3644
 2175SOL     OW 8465   5.446   1.953   5.224 -0.1924  0.4304 -0.2510
 2175SOL    HW2 8466   5.453   2.018   5.154  1.0112  0.1438 -0.4249
 2175SOL    HW3 8467   5.501   1.987   5.295  1.3733 -0.8695 -0.7617
 2175SOL    MW4 8468   5.454   1.966   5.224  0.4963 -0.6275  0.2654
 2176SOL     OW 8469   2.634   2.886   5.225  0.2897 -0.8981  0.4959
 2176SOL    HW2 8470   2.549   2.928   5.240 -0.3888 -2.3653  0.9539
 2176SOL    HW3 8471   2.630   2.858   5.134  0.5772 -0.3626  0.3129
 2176SOL    MW4 8472   2.622   2.888   5.215 -0.4117 -0.2207  0.0046
 2177SOL     OW 8473   2.837   4.881   3.236  0.7369 -0.1724  0.1354
 2177SOL    HW2 8474   2.759   4.934   3.221  2.0656  1.9684  0.3937
 2177SOL    HW3 8475   2.909   4.943   3.234  2.2343 -1.6502  2.4750
 2177SOL    MW4 8476   2.836   4.896   3.234  0.0411  0.4065 -0.5152
 2178SOL     OW 8477   1.909   0.140   5.299  0.0829  0.0993  0.2618
 2178SOL    HW2 8478   1.908   0.209   5.233 -0.4804  0.3820  0.5636
 2178SOL    HW3 8479   1.919   0.186   5.382  0.2927 -0.2212  0.4157
 2178SOL    MW4 8480   1.910   0.155   5.301 -0.1632 -0.3212  0.1324
 2179SOL     OW 8481   2.562   5.482   4.755 -0.2837  0.6554  0.0423
 2179SOL    HW2 8482   2.584   5.432   4.676 -0.5700 -2.3399  1.7053
 2179SOL    HW3 8483   2.647   5.504   4.793 -0.0379 -1.2774  0.7735
 2179SOL    MW4 8484   2.576   5.478   4.749  0.2587 -0.1426 -0.0454
 2180SOL     OW 8485   1.875   4.100   6.034  0.4001 -0.1134 -0.2107
 2180SOL    HW2 8486   1.951   4.156   6.048  1.2330 -1.4847  1.1762
 2180SOL    HW3 8487   1.900   4.041   5.963  0.9856 -1.0675  0.7524
 2180SOL    MW4 8488   1.888   4.100   6.027  0.3255 -0.1313  0.1941
 2181SOL     OW 8489   4.340   2.596   2.236  0.2183 -0.7015 -0.1020
 2181SOL    HW2 8490   4.338   2.670   2.297 -2.5125 -1.9066  1.5035
 2181SOL    HW3 8491   4.338   2.637   2.149  0.7034  1.1032  0.6811
 2181SOL    MW4 8492   4.339   2.611   2.233  0.1222 -0.0862 -0.2097
 2182SOL     OW 8493   1.566   1.281   0.136  0.1257  0.1275 -0.2196
 2182SOL    HW2 8494   1.612   1.354   0.095 -2.4815  2.0427  0.0165
 2182SOL    HW3 8495   1.561   1.214   0.067  1.6624  0.5340 -0.7687
 2182SOL    MW4 8496   1.571   1.282   0.121 -0.6958  0.0871  0.1664
 2183SOL     OW 8497   4.552   4.897   1.503  0.9353 -0.6429  0.3724
 2183SOL    HW2 8498   4.506   4.930   1.580  1.2335 -0.6623  0.5615
 2183SOL    HW3 8499   4.513   4.945   1.430  1.1434 -0.0958  0.6101
 2183SOL    MW4 8500   4.541   4.908   1.504 -0.5259  0.0982 -0.2013
 2184SOL     OW 8501   5.876   5.115   2.828  0.0718 -0.3283  0.2753
 2184SOL    HW2 8502   5.942   5.094   2.762  1.0760  1.9004  0.4877
 2184SOL    HW3 8503   5.794   5.119   2.780  0.2285 -1.9702 -0.2016
 2184SOL    MW4 8504   5.874   5.112   2.813  0.0681 -0.5372  0.3454
 2185SOL     OW 8505   4.348   2.810   5.776  0.1362  0.4445  0.3516
 2185SOL    HW2 8506   4.438   2.782   5.759 -0.6462 -1.1103 -1.6072
 2185SOL    HW3 8507   4.297   2.776   5.702 -2.3944 -0.2776  2.2627
 2185SOL    MW4 8508   4.353   2.802   5.764 -0.3617 -0.0520  0.6268
 2186SOL     OW 8509   1.652   2.012   4.229  0.3931  1.2737 -0.3775
 2186SOL    HW2 8510   1.706   1.959   4.170 -0.0948 -1.1448  1.2046
 2186SOL    HW3 8511   1.567   1.968   4.230 -0.2887  2.5334  0.4713
 2186SOL    MW4 8512   1.648   1.999   4.221 -0.0627  0.4921  0.2517
 2187SOL     OW 8513   2.784   0.228   2.810 -0.2548  0.1909  0.2409
 2187SOL    HW2 8514   2.819   0.138   2.818 -0.6438  0.0928  0.9473
 2187SOL    HW3 8515   2.728   0.238   2.887 -1.7016  0.3968 -0.8105
 2187SOL    MW4 8516   2.782   0.217   2.821 -0.3109  0.0378 -0.5994
 2188SOL     OW 8517   5.724   1.315   3.217 -0.0157 -0.3247 -0.4571
 2188SOL    HW2 8518   5.773   1.381   3.264  1.1288 -1.2118 -0.3580
 2188SOL    HW3 8519   5.650   1.362   3.178  1.6636  1.3445 -1.8060
 2188SOL    MW4 8520   5.720   1.330   3.218  0.2971 -0.1914 -0.9085
 2189SOL     OW 8521   1.238   2.730   5.597  0.1827 -0.3032  0.5017
 2189SOL    HW2 8522   1.290   2.801   5.633  1.0815 -0.3172 -0.6910
 2189SOL    HW3 8523   1.219   2.757   5.507 -2.3492 -0.0626  1.0369
 2189SOL    MW4 8524   1.243   2.743   5.590  0.1231  0.0934 -0.4421
 2190SOL     OW 8525   0.432   3.647   2.919 -0.4725 -0.1642 -0.3246
 2190SOL    HW2 8526   0.355   3.591   2.931 -0.2406 -0.1620  1.5481
 2190SOL    HW3 8527   0.486   3.629   2.996  1.1999  0.1627 -1.4000
 2190SOL    MW4 8528   0.429   3.637   2.931 -0.1801 -0.0265 -0.1476
 2191SOL     OW 8529   3.607   6.067   5.370 -0.2883  0.2606  0.1424
 2191SOL    HW2 8530   3.543   6.113   5.315  1.6429  1.3787 -1.2801
 2191SOL    HW3 8531   3.680   6.128   5.378  0.4320 -0.7863  2.1278
 2191SOL    MW4 8532   3.608   6.081   5.363  0.5404  0.0560 -0.2559
 2192SOL     OW 8533   4.998   2.602   1.530  0.3699  0.0835 -0.4321
 2192SOL    HW2 8534   5.032   2.521   1.568 -1.7828  0.1901  1.9044
 2192SOL    HW3 8535   5.073   2.662   1.529  1.1843 -0.8817  0.9412
 2192SOL    MW4 8536   5.013   2.599   1.535  0.1387 -0.0631  0.4199
 2193SOL     OW 8537   4.664   1.376   5.094  0.0524 -0.1748  0.5122
 2193SOL    HW2 8538   4.655   1.312   5.024  0.7401 -0.6819  0.8697
 2193SOL    HW3 8539   4.645   1.460   5.053  0.9589 -0.4014 -0.4130
 2193SOL    MW4 8540   4.661   1.379   5.079 -0.2365 -0.0986 -0.5796
 2194SOL     OW 8541   0.662   1.785   1.394  0.5074 -0.2283 -0.3694
 2194SOL    HW2 8542   0.684   1.753   1.306 -1.0274 -0.5835 -0.6623
 2194SOL    HW3 8543   0.609   1.863   1.377  2.6287  1.4374  0.3123
 2194SOL    MW4 8544   0.658   1.791   1.380  0.1504  0.0642  0.3174
 2195SOL     OW 8545   3.629   4.948   1.465  0.1790 -0.5418 -0.3144
 2195SOL    HW2 8546   3.562   5.015   1.483 -0.9505 -1.8956  0.7939
 2195SOL    HW3 8547   3.710   4.988   1.496 -0.5084  0.2401  0.5797
 2195SOL    MW4 8548   3.631   4.962   1.472 -0.5136 -0.6109  0.0764
 2196SOL     OW 8549   0.799   5.402   4.960  0.2319 -0.3344  0.4455
 2196SOL    HW2 8550   0.731   5.466   4.938 -0.3310 -0.8488  0.6551
 2196SOL    HW3 8551   0.881   5.450   4.953 -0.2436  0.6804  1.5397
 2196SOL    MW4 8552   0.801   5.417   4.956  0.3768 -0.1407 -0.2290
 2197SOL     OW 8553   2.756   6.309   5.508  0.2094  0.8702  0.2405
 2197SOL    HW2 8554   2.811   6.231   5.520 -0.7488 -0.0274 -0.8825
 2197SOL    HW3 8555   2.815   6.382   5.524  1.6704 -0.0534 -0.5850
 2197SOL    MW4 8556   2.771   6.308   5.512 -0.1213 -0.2358 -0.0431
 2198SOL     OW 8557   5.155   5.771   4.671  0.2237  0.1031 -0.2322
 2198SOL    HW2 8558   5.127   5.815   4.751 -0.3032  2.1389 -1.4508
 2198SOL    HW3 8559   5.085   5.710   4.650 -0.5982  1.0299 -0.2115
 2198SOL    MW4 8560   5.142   5.769   4.679 -0.6581 -0.3024 -0.3187
 2199SOL     OW 8561   5.658   4.927   6.195  0.1753 -0.1434  0.5415
 2199SOL    HW2 8562   5.679   4.886   6.279  1.3368 -0.5875  0.0576
 2199SOL    HW3 8563   5.681   5.019   6.207 -0.0681 -0.1208  0.8427
 2199SOL    MW4 8564   5.664   4.934   6.208  0.5875 -0.4356 -0.2535
 2200SOL     OW 8565   3.094   6.275   1.599 -0.2160 -0.2272  0.1648
 2200SOL    HW2 8566   3.095   6.341   1.530  1.2764  0.2085  0.5602
 2200SOL    HW3 8567   3.099   6.326   1.680  0.0301 -0.7851  0.5067
 2200SOL    MW4 8568   3.095   6.290   1.601  0.3307  0.4728 -0.0100
 2201SOL     OW 8569   2.140   3.025   0.312  0.3994  0.0446  0.4259
 2201SOL    HW2 8570   2.191   3.044   0.233 -0.5617 -0.0086 -0.2273
 2201SOL    HW3 8571   2.054   3.062   0.294 -0.1087 -0.8078  1.0701
 2201SOL    MW4 8572   2.135   3.033   0.299  0.4643 -0.0117 -0.2120
 2202SOL     OW 8573   0.050   1.401   0.578  0.0245 -0.4071 -0.1713
 2202SOL    HW2 8574  -0.031   1.349   0.580  0.6281 -1.3580  0.2864
 2202SOL    HW3 8575   0.020   1.492   0.586 -0.9879 -0.7532  0.1497
 2202SOL    MW4 8576   0.035   1.406   0.579  0.0450  0.3597  0.0440
 2203SOL     OW 8577   2.327   4.285   4.107  0.0923 -0.6665 -0.5401
 2203SOL    HW2 8578   2.421   4.300   4.120 -0.2692  0.0388  1.7243
 2203SOL    HW3 8579   2.285   4.357   4.153 -1.5876 -1.7840 -0.2340
 2203SOL    MW4 8580   2.334   4.296   4.115 -0.6823 -0.8847  0.4689
 2204SOL     OW 8581   4.568   5.432   3.703 -0.2833  0.3807 -0.2147
 2204SOL    HW2 8582   4.600   5.396   3.620 -2.2371  0.3592 -1.0011
 2204SOL    HW3 8583   4.562   5.526   3.687  1.1072  0.6290  0.5587
 2204SOL    MW4 8584   4.572   5.439   3.690  0.5630 -0.2836  0.7166
 2205SOL     OW 8585   6.039   1.924   5.231 -0.0819  0.4616 -0.5636
 2205SOL    HW2 8586   6.025   2.008   5.188 -1.9314  1.2152  1.3631
 2205SOL    HW3 8587   5.978   1.924   5.304  0.8662 -1.9918  0.3199
 2205SOL    MW4 8588   6.029   1.935   5.235  0.7684 -0.5955  0.0977
 2206SOL     OW 8589   0.458   3.657   3.855  0.2619 -0.1256 -0.3118
 2206SOL    HW2 8590   0.457   3.668   3.950  0.2862 -2.0119 -0.0589
 2206SOL    HW3 8591   0.551   3.643   3.834 -0.0496 -3.6757 -0.0051
 2206SOL    MW4 8592   0.470   3.657   3.865 -0.2401  0.5177 -0.2819
 2207SOL     OW 8593   1.830   5.821   1.002  0.1337  0.2890  0.2791
 2207SOL    HW2 8594   1.915   5.837   0.960 -0.0260  1.3807  0.3372
 2207SOL    HW3 8595   1.766   5.828   0.931  0.1060 -0.8634  0.1736
 2207SOL    MW4 8596   1.833   5.824   0.987 -0.1385  0.0039  0.0396
 2208SOL     OW 8597   4.344   0.091   0.122 -0.4098  0.3193 -0.0156
 2208SOL    HW2 8598   4.395   0.031   0.067  0.6964 -0.6829  1.9828
 2208SOL    HW3 8599   4.253   0.068   0.103 -0.0254 -1.9324  0.5531
 2208SOL    MW4 8600   4.339   0.080   0.112 -0.3343 -1.2214 -0.0762
 2209SOL     OW 8601   1.181   2.735   3.267  0.7796 -0.3627  0.4660
 2209SOL    HW2 8602   1.189   2.774   3.354 -1.8783 -0.8344  0.9947
 2209SOL    HW3 8603   1.111   2.784   3.225  0.5397 -1.5702 -0.5941
 2209SOL    MW4 8604   1.173   2.747   3.273 -0.2539 -0.2639 -0.1270
 2210SOL     OW 8605   3.381   5.130   4.970  0.3184  0.4315  0.0403
 2210SOL    HW2 8606   3.449   5.182   4.927 -0.3560  0.3580 -1.1640
 2210SOL    HW3 8607   3.412   5.040   4.963  0.1378  0.4041 -0.4531
 2210SOL    MW4 8608   3.394   5.125   4.963  0.0007  0.2416  0.0857
 2211SOL     OW 8609   3.753   4.677   3.166 -0.1069  0.1101 -0.2890
 2211SOL    HW2 8610   3.690   4.741   3.197  0.4448  0.0535  1.0145
 2211SOL    HW3 8611   3.745   4.604   3.227  0.2994 -0.4574 -0.8944
 2211SOL    MW4 8612   3.744   4.676   3.178  0.5293  0.2923  0.4058
 2212SOL     OW 8613   1.829   5.201   1.088  0.1740 -0.2129 -0.0243
 2212SOL    HW2 8614   1.809   5.242   1.172 -0.3952 -2.7579  1.1876
 2212SOL    HW3 8615   1.924   5.195   1.086  0.1444 -2.9640  2.0200
 2212SOL    MW4 8616   1.839   5.206   1.098 -0.2899  0.4071 -0.1058
 2213SOL     OW 8617   3.237   0.698   5.934  0.0926  0.0937  0.5055
 2213SOL    HW2 8618   3.144   0.689   5.917  0.3106  2.6550 -3.4308
 2213SOL    HW3 8619   3.243   0.747   6.016 -2.1111  1.0992  0.1171
 2213SOL    MW4 8620   3.226   0.703   5.942  0.3209 -0.2565 -0.8022
 2214SOL     OW 8621   1.547   1.437   6.080 -0.0805  0.1541 -0.3464
 2214SOL    HW2 8622   1.510   1.497   6.016 -0.5114  1.4489  1.0509
 2214SOL    HW3 8623   1.477   1.426   6.145  0.3450 -1.1174 -0.0768
 2214SOL    MW4 8624   1.533   1.443   6.080 -0.4925  0.1844 -0.0787
 2215SOL     OW 8625   1.843   3.190   1.443 -0.1139 -0.1035 -0.4364
 2215SOL    HW2 8626   1.804   3.128   1.382 -0.8143  1.5505 -1.7448
 2215SOL    HW3 8627   1.936   3.192   1.419 -0.0987 -0.5592 -0.4294
 2215SOL    MW4 8628   1.850   3.182   1.432  0.0756  0.2652  0.5246
 2216SOL     OW 8629   6.377   0.172   4.018 -0.1262  0.5174  0.6825
 2216SOL    HW2 8630   6.444   0.183   4.085 -0.6738  1.4149  1.1086
 2216SOL    HW3 8631   6.324   0.251   4.024 -2.1799 -0.8063  1.4466
 2216SOL    MW4 8632   6.379   0.184   4.028 -0.3959  0.1625  0.6060
 2217SOL     OW 8633   0.381   3.530   4.568 -0.0353  0.4636 -0.2470
 2217SOL    HW2 8634   0.463   3.527   4.618  0.4234  0.0717 -1.0167
 2217SOL    HW3 8635   0.313   3.540   4.635  0.4430 -1.4695  0.5803
 2217SOL    MW4 8636   0.382   3.531   4.584 -0.4897 -0.0799  0.3597
 2218SOL     OW 8637   5.135   3.205   3.376  0.5052 -0.4278  0.0996
 2218SOL    HW2 8638   5.096   3.147   3.441 -0.2504  0.5648  0.5686
 2218SOL    HW3 8639   5.179   3.272   3.428  1.9484 -0.9318 -0.4274
 2218SOL    MW4 8640   5.136   3.206   3.391 -0.6862  0.4910 -0.2786
 2219SOL     OW 8641   2.576   2.910   3.672 -0.8680 -0.9785  0.7364
 2219SOL    HW2 8642   2.531   2.952   3.746 -0.2411 -1.0951  1.1925
 2219SOL    HW3 8643   2.667   2.905   3.700 -0.4554 -0.2367 -0.3954
 2219SOL    MW4 8644   2.582   2.915   3.685  0.4869  0.4005 -0.2458
 2220SOL     OW 8645   0.600   1.674   4.257  0.3033 -0.1141  0.3275
 2220SOL    HW2 8646   0.693   1.685   4.275  0.3527  1.6401 -0.8090
 2220SOL    HW3 8647   0.573   1.755   4.215 -1.6236 -0.8128  0.0896
 2220SOL    MW4 8648   0.609   1.686   4.254  0.3657 -0.2238 -0.3116
 2221SOL     OW 8649   5.246   4.123   5.666  0.0107  0.2339 -0.0856
 2221SOL    HW2 8650   5.160   4.114   5.707  0.5957 -0.7422  1.0226
 2221SOL    HW3 8651   5.257   4.217   5.652 -1.8357  0.2727 -1.6684
 2221SOL    MW4 8652   5.236   4.134   5.670 -0.7135  0.1026 -0.4287
 2222SOL     OW 8653   5.059   3.853   0.007  0.1602 -0.5477  0.5517
 2222SOL    HW2 8654   5.051   3.816  -0.080  1.2331 -0.2217  0.3067
 2222SOL    HW3 8655   4.986   3.815   0.056 -0.4922 -0.6756 -0.4959
 2222SOL    MW4 8656   5.048   3.843   0.002  0.7902 -0.2321  0.1815
 2223SOL     OW 8657   0.563   4.734   3.402  0.0820 -0.1395  0.1854
 2223SOL    HW2 8658   0.588   4.700   3.316  0.3668  1.0225 -0.2106
 2223SOL    HW3 8659   0.493   4.675   3.431 -0.1480 -0.4500 -0.9231
 2223SOL    MW4 8660   0.557   4.721   3.394  0.1160 -0.1609  0.6440
 2224SOL     OW 8661   0.355   1.651   2.603 -0.8807  0.0729 -0.0829
 2224SOL    HW2 8662   0.413   1.715   2.560  0.8301 -0.3636  1.4334
 2224SOL    HW3 8663   0.360   1.573   2.548  1.4174 -0.5386  0.8786
 2224SOL    MW4 8664   0.364   1.649   2.590 -0.6542  0.1230  0.0386
 2225SOL     OW 8665   2.506   5.669   1.801  0.1761  0.0386  0.1279
 2225SOL    HW2 8666   2.588   5.706   1.833  0.5030 -0.5325 -0.0402
 2225SOL    HW3 8667   2.439   5.711   1.855  0.4930  1.2021 -0.3433
 2225SOL    MW4 8668   2.508   5.680   1.812  0.5070 -0.0390 -0.1538
 2226SOL     OW 8669   1.100   1.524   2.660 -0.7805  0.0970  0.0159
 2226SOL    HW2 8670   1.118   1.440   2.703  0.5939  0.6393  0.5523
 2226SOL    HW3 8671   1.129   1.512   2.570 -2.7379 -0.7166 -0.5659
 2226SOL    MW4 8672   1.106   1.511   2.654 -0.1955  0.1349 -0.1181
 2227SOL     OW 8673   1.049   3.379   0.973  0.3345  0.1559  0.7065
 2227SOL    HW2 8674   0.965   3.405   0.937 -0.3022 -0.9756  1.3138
 2227SOL    HW3 8675   1.047   3.410   1.064  0.5163  0.0222  0.7578
 2227SOL    MW4 8676   1.038   3.387   0.980 -0.0492 -0.0706  0.7765
 2228SOL     OW 8677   2.673   5.289   5.795  0.2039  0.1013  0.0044
 2228SOL    HW2 8678   2.598   5.230   5.808  0.7573 -0.7401 -0.5181
 2228SOL    HW3 8679   2.653   5.365   5.849 -0.1189 -0.9296  1.3994
 2228SOL    MW4 8680   2.660   5.291   5.803  0.0066  0.0088  0.7254
 2229SOL     OW 8681   2.491   1.709   3.755 -0.4590  0.3057 -0.1350
 2229SOL    HW2 8682   2.405   1.687   3.720 -0.3206  1.7786 -1.5362
 2229SOL    HW3 8683   2.473   1.761   3.833 -0.8004 -0.7382  0.4990
 2229SOL    MW4 8684   2.478   1.713   3.760  0.2243  0.1980 -0.0438
 2230SOL     OW 8685   4.707   1.761   4.147  0.2474 -0.3795  0.0614
 2230SOL    HW2 8686   4.640   1.776   4.080 -0.7932 -0.0134  1.1530
 2230SOL    HW3 8687   4.719   1.846   4.189  1.8037 -0.3166 -0.4675
 2230SOL    MW4 8688   4.699   1.774   4.144 -0.5964  0.3702 -0.2232
 2231SOL     OW 8689   1.463   2.996   0.588  0.1113 -0.1330 -0.0095
 2231SOL    HW2 8690   1.473   2.934   0.661  1.7849  0.3552  0.1995
 2231SOL    HW3 8691   1.434   2.942   0.515 -1.0836 -0.7151  0.8522
 2231SOL    MW4 8692   1.460   2.981   0.588  0.5061  0.0840  0.5884
 2232SOL     OW 8693   1.126   6.319   3.723  0.3274  0.1268  0.1876
 2232SOL    HW2 8694   1.117   6.262   3.799  1.8382 -2.0155 -1.1400
 2232SOL    HW3 8695   1.083   6.271   3.652 -0.4068  1.7390 -0.5017
 2232SOL    MW4 8696   1.119   6.305   3.723 -0.3730 -0.1946  0.3527
 2233SOL     OW 8697   6.286   5.379   2.157  0.7107 -0.3906  0.1158
 2233SOL    HW2 8698   6.308   5.315   2.089  1.1900  0.5675 -0.6603
 2233SOL    HW3 8699   6.195   5.400   2.141  0.2757 -1.5067  0.9339
 2233SOL    MW4 8700   6.277   5.373   2.146 -1.1261  0.0089  0.5889
 2234SOL     OW 8701   5.310   3.351   0.051 -0.3679  0.4868  0.0870
 2234SOL    HW2 8702   5.376   3.353  -0.018  0.2811  1.2348  0.7100
 2234SOL    HW3 8703   5.245   3.416   0.024 -0.5657  0.1588 -0.2402
 2234SOL    MW4 8704   5.310   3.360   0.039 -0.0005 -0.1979 -0.0959
 2235SOL     OW 8705   5.979   2.539   0.844 -0.3492  0.0712 -0.9344
 2235SOL    HW2 8706   5.895   2.538   0.799 -0.4996 -0.3624 -0.6488
 2235SOL    HW3 8707   5.981   2.623   0.891  0.2545  1.0018 -2.5617
 2235SOL    MW4 8708   5.968   2.550   0.845  0.0496  0.1081 -0.1253
 2236SOL     OW 8709   3.734   5.165   1.072 -0.5587 -0.4462 -0.3527
 2236SOL    HW2 8710   3.670   5.193   1.006  0.9867 -0.3561 -1.8871
 2236SOL    HW3 8711   3.741   5.070   1.058 -0.1256 -0.4049 -0.4182
 2236SOL    MW4 8712   3.726   5.156   1.062  0.2727 -0.4283  0.3500
 2237SOL     OW 8713   0.678   1.239   1.816  0.1052 -0.0277  0.5879
 2237SOL    HW2 8714   0.664   1.334   1.812 -1.6546 -0.2545  0.5727
 2237SOL    HW3 8715   0.637   1.205   1.736  2.5114 -0.6483 -0.4629
 2237SOL    MW4 8716   0.671   1.247   1.805  0.7557  0.4275 -0.0484
 2238SOL     OW 8717   3.666   1.077   1.572 -0.8204 -0.4628  0.0180
 2238SOL    HW2 8718   3.728   1.145   1.598 -0.8076 -1.2431  2.2475
 2238SOL    HW3 8719   3.703   1.041   1.491 -0.6976  1.9418 -1.0711
 2238SOL    MW4 8720   3.679   1.081   1.565  0.9313 -0.0770  0.4306
 2239SOL     OW 8721   3.804   0.293   5.739 -0.1999  0.3281  0.5461
 2239SOL    HW2 8722   3.827   0.386   5.747 -0.3617  0.4016  0.1747
 2239SOL    HW3 8723   3.792   0.263   5.830  0.5280  0.4952  0.7042
 2239SOL    MW4 8724   3.806   0.301   5.752  0.3440 -0.4439  0.0999
 2240SOL     OW 8725   6.142   2.817   5.564 -0.0077  0.5373 -0.1662
 2240SOL    HW2 8726   6.053   2.841   5.591 -0.8654 -2.5683  0.1342
 2240SOL    HW3 8727   6.134   2.796   5.471  0.2162 -0.4267  0.0174
 2240SOL    MW4 8728   6.129   2.817   5.555 -0.1939 -0.0191 -0.2387
 2241SOL     OW 8729   5.615   1.275   0.266  0.2915 -0.5290 -0.3805
 2241SOL    HW2 8730   5.611   1.284   0.361  0.9474 -1.7199 -0.2175
 2241SOL    HW3 8731   5.571   1.192   0.247  2.5879 -1.7334 -0.8049
 2241SOL    MW4 8732   5.609   1.266   0.276 -0.0941  0.0158  0.2239
 2242SOL     OW 8733   3.491   4.831   3.095 -0.7188 -0.3772 -0.0770
 2242SOL    HW2 8734   3.544   4.863   3.022 -1.1342  0.1139 -0.1666
 2242SOL    HW3 8735   3.459   4.746   3.067  0.2180 -0.7989  0.0731
 2242SOL    MW4 8736   3.494   4.824   3.082 -0.3068 -0.2332 -0.0872
 2243SOL     OW 8737   0.893   5.961   2.635  0.6112  0.2763 -0.2081
 2243SOL    HW2 8738   0.798   5.954   2.626  0.2668  1.0352  2.1463
 2243SOL    HW3 8739   0.917   6.032   2.577  0.0109 -0.9740 -2.0722
 2243SOL    MW4 8740   0.883   5.969   2.626  0.2801  0.1412 -0.0028
 2244SOL     OW 8741   5.986   5.571   5.315  0.2539  0.0170 -0.0708
 2244SOL    HW2 8742   6.021   5.563   5.403  0.2987  0.5192 -0.0380
 2244SOL    HW3 8743   6.061   5.552   5.258  0.5714  0.9898 -0.0007
 2244SOL    MW4 8744   6.001   5.568   5.319  0.4936 -0.1961 -0.1076
 2245SOL     OW 8745   5.919   6.125   1.849 -0.2029 -0.2219  0.4579
 2245SOL    HW2 8746   5.883   6.212   1.862 -2.0675 -0.8710  0.0209
 2245SOL    HW3 8747   5.903   6.105   1.757  1.7030 -0.4162  0.1286
 2245SOL    MW4 8748   5.912   6.134   1.839  0.5102  0.2564  0.4772
 2246SOL     OW 8749   5.020   6.275   6.074  0.2749 -0.0212  0.6540
 2246SOL    HW2 8750   4.947   6.261   6.135 -0.2059 -0.0462  0.0918
 2246SOL    HW3 8751   5.036   6.369   6.078 -0.2274  0.0892  0.3148
 2246SOL    MW4 8752   5.012   6.286   6.083  0.1286  0.9173 -0.0904
 2247SOL     OW 8753   3.491   4.612   1.086 -0.1194 -0.5903  0.2357
 2247SOL    HW2 8754   3.559   4.562   1.131  1.0475  1.2137  0.5872
 2247SOL    HW3 8755   3.480   4.691   1.139 -1.4326 -0.1416 -0.6393
 2247SOL    MW4 8756   3.498   4.616   1.099 -0.1222 -0.0056 -0.0846
 2248SOL     OW 8757   2.784   0.831   0.130 -0.3043  0.0308 -0.3042
 2248SOL    HW2 8758   2.767   0.768   0.200  0.3927 -0.0521 -0.2037
 2248SOL    HW3 8759   2.698   0.852   0.095 -0.6412 -0.0555  0.4686
 2248SOL    MW4 8760   2.771   0.825   0.135  0.0076  0.5470 -0.0848
 2249SOL     OW 8761   6.263   0.248   5.500  0.2563 -0.1330  0.0801
 2249SOL    HW2 8762   6.191   0.237   5.438  1.3944  2.6761 -1.9593
 2249SOL    HW3 8763   6.225   0.294   5.574 -0.4514 -0.6061  0.0231
 2249SOL    MW4 8764   6.249   0.252   5.501  0.0984 -0.0486  0.3430
 2250SOL     OW 8765   3.620   3.438   3.629 -0.5374 -0.5247 -0.1639
 2250SOL    HW2 8766   3.548   3.483   3.583 -0.5973 -1.7000 -1.2591
 2250SOL    HW3 8767   3.687   3.506   3.638 -0.2087 -0.3936 -2.6961
 2250SOL    MW4 8768   3.619   3.453   3.624  0.1000 -0.2447  0.1301
 2251SOL     OW 8769   6.029   2.302   3.736  0.5629 -0.3999  0.5562
 2251SOL    HW2 8770   5.978   2.379   3.713 -0.7259 -0.9073  1.5574
 2251SOL    HW3 8771   6.034   2.251   3.655 -1.0065 -0.5890  0.5520
 2251SOL    MW4 8772   6.023   2.305   3.722 -0.2046 -0.0625 -0.0084
 2252SOL     OW 8773   6.265   1.309   5.266 -0.0952  0.5305  0.4109
 2252SOL    HW2 8774   6.331   1.356   5.215 -1.7247  1.2940 -1.1330
 2252SOL    HW3 8775   6.305   1.297   5.352  2.3474  0.1972 -0.6740
 2252SOL    MW4 8776   6.279   1.314   5.271  0.4463  0.1058  0.0511
 2253SOL     OW 8777   0.648   0.044   4.918  0.4856  0.2853  0.0509
 2253SOL    HW2 8778   0.673   0.136   4.905 -0.5775  0.6050  0.1728
 2253SOL    HW3 8779   0.674   0.025   5.009  0.7566  0.4437  0.0092
 2253SOL    MW4 8780   0.655   0.054   4.929  0.4036 -0.6458  0.3776
 2254SOL     OW 8781   2.930   6.100   4.709  0.2108  0.8169 -0.3691
 2254SOL    HW2 8782   2.910   6.070   4.798 -0.7934 -0.5297 -1.0135
 2254SOL    HW3 8783   2.945   6.194   4.718 -1.0133  0.9163  1.0495
 2254SOL    MW4 8784   2.930   6.108   4.722  0.3226  0.0654 -0.5112
 2255SOL     OW 8785   5.899   0.871   3.017  0.2614 -0.1405  0.2296
 2255SOL    HW2 8786   5.807   0.862   3.041  0.4265 -0.0370  0.9450
 2255SOL    HW3 8787   5.921   0.962   3.038  0.0065  0.4606 -1.8800
 2255SOL    MW4 8788   5.890   0.882   3.023  0.4129  1.0490  0.4218
 2256SOL     OW 8789   5.564   0.184   3.841 -0.1219 -0.3539 -0.2479
 2256SOL    HW2 8790   5.589   0.265   3.798 -1.2724  0.6509  0.9077
 2256SOL    HW3 8791   5.626   0.119   3.808  0.7984  0.9739 -1.2192
 2256SOL    MW4 8792   5.575   0.186   3.831  0.4479 -0.6271 -0.1710
 2257SOL     OW 8793   2.191   0.601   6.073 -0.2540  0.2239  0.1069
 2257SOL    HW2 8794   2.248   0.677   6.057 -0.1680 -0.2104 -1.9254
 2257SOL    HW3 8795   2.227   0.560   6.151  0.6900  1.3596  0.3033
 2257SOL    MW4 8796   2.204   0.606   6.081  0.2658 -0.0570  0.4128
 2258SOL     OW 8797   3.022   1.563   5.491  0.1876 -0.5024 -0.4927
 2258SOL    HW2 8798   2.962   1.491   5.509  0.9116 -1.1583 -0.6586
 2258SOL    HW3 8799   3.048   1.551   5.400  0.8680 -0.4544 -0.3114
 2258SOL    MW4 8800   3.018   1.552   5.481 -0.1667  0.0498  0.1310
 2259SOL     OW 8801   5.260   5.329   6.365 -0.2777 -0.7969 -0.6343
 2259SOL    HW2 8802   5.293   5.284   6.288 -0.2153  0.9610 -1.6961
 2259SOL    HW3 8803   5.316   5.300   6.436  1.2139 -0.6713 -1.7041
 2259SOL    MW4 8804   5.271   5.319   6.364 -0.5783 -0.0503 -0.6375
 2260SOL     OW 8805   2.654   1.483   5.600  0.1747  0.8810 -0.1918
 2260SOL    HW2 8806   2.736   1.434   5.609 -0.1365  0.6600  2.0272
 2260SOL    HW3 8807   2.673   1.549   5.533  1.0506 -1.2667 -2.1945
 2260SOL    MW4 8808   2.668   1.485   5.592  0.2597 -0.0491 -0.8637
 2261SOL     OW 8809   5.476   2.909   2.287  0.2549  0.3512 -0.3708
 2261SOL    HW2 8810   5.389   2.939   2.310  0.1029  0.6200 -1.2371
 2261SOL    HW3 8811   5.531   2.934   2.361 -0.2395  1.0030 -0.2119
 2261SOL    MW4 8812   5.472   2.917   2.300 -0.5237  0.0617 -0.2387
 2262SOL     OW 8813   2.153   4.352   3.885 -0.7629 -0.3056 -0.2991
 2262SOL    HW2 8814   2.220   4.319   3.945 -0.4951 -1.5855 -1.2689
 2262SOL    HW3 8815   2.099   4.410   3.939 -0.2111 -1.0018  1.0364
 2262SOL    MW4 8816   2.154   4.355   3.900 -0.5391 -0.2519  0.2180
 2263SOL     OW 8817   1.821   2.582   2.792  0.4922  0.0757  0.2221
 2263SOL    HW2 8818   1.758   2.568   2.863  0.5569 -1.4707  0.0054
 2263SOL    HW3 8819   1.768   2.584   2.712  0.6940 -1.2194  0.0402
 2263SOL    MW4 8820   1.806   2.580   2.791  0.1658  0.0759 -0.3227
 2264SOL     OW 8821   5.981   2.624   4.246  0.0337 -0.2411  0.3311
 2264SOL    HW2 8822   6.048   2.563   4.275 -1.5963 -2.6819 -0.6722
 2264SOL    HW3 8823   6.028   2.690   4.194  1.5943 -2.2651 -0.9602
 2264SOL    MW4 8824   5.996   2.625   4.243  0.3548  0.4457 -0.0675
 2265SOL     OW 8825   0.499   4.463   5.694 -0.2779  0.2892 -0.0184
 2265SOL    HW2 8826   0.489   4.494   5.783  1.4879 -0.4090  0.4714
 2265SOL    HW3 8827   0.589   4.486   5.671  0.2023 -1.9639 -0.6067
 2265SOL    MW4 8828   0.510   4.470   5.702  0.5580  0.0103 -0.5003
 2266SOL     OW 8829   5.501   3.682   1.159 -0.4016  0.3420  0.4207
 2266SOL    HW2 8830   5.416   3.713   1.128  0.2326  0.1562 -1.6573
 2266SOL    HW3 8831   5.507   3.591   1.128  0.7523  0.5135  0.0821
 2266SOL    MW4 8832   5.491   3.674   1.151 -0.2194 -0.1992  0.3320
 2267SOL     OW 8833   0.170   3.178   1.086  0.2466 -0.2924 -0.2565
 2267SOL    HW2 8834   0.203   3.258   1.126 -0.7156 -0.3847  0.7790
 2267SOL    HW3 8835   0.248   3.125   1.069  0.8127  0.4698 -0.0838
 2267SOL    MW4 8836   0.184   3.181   1.089  0.0254 -0.1213 -0.1117
 2268SOL     OW 8837   1.395   0.876   4.290  0.0873  0.0187  0.6774
 2268SOL    HW2 8838   1.299   0.879   4.292  0.0266 -0.6922 -0.4109
 2268SOL    HW3 8839   1.416   0.831   4.208  1.3462 -0.1015  1.0449
 2268SOL    MW4 8840   1.385   0.870   4.280  0.1478  0.4818  0.1009
 2269SOL     OW 8841   6.209   2.052   5.840  0.2013 -0.1178 -0.5033
 2269SOL    HW2 8842   6.247   2.037   5.754  0.4057 -0.4337 -0.3591
 2269SOL    HW3 8843   6.236   2.140   5.864 -0.6105  0.3285 -1.1541
 2269SOL    MW4 8844   6.217   2.062   5.832  0.2506  0.0775 -0.3931
 2270SOL     OW 8845   5.888   3.506   3.689  0.3102 -0.1074 -0.1812
 2270SOL    HW2 8846   5.825   3.578   3.680  0.3162 -0.0565  0.1771
 2270SOL    HW3 8847   5.871   3.449   3.614 -1.0295 -0.7641  0.5864
 2270SOL    MW4 8848   5.878   3.508   3.678 -0.0889 -0.4835  0.7093
 2271SOL     OW 8849   4.558   3.970   0.930 -0.9164  0.0431 -0.4343
 2271SOL    HW2 8850   4.584   3.887   0.891 -1.9323  0.0931 -1.2885
 2271SOL    HW3 8851   4.591   3.967   1.020  0.5505 -0.5381 -0.9684
 2271SOL    MW4 8852   4.566   3.959   0.937 -0.9250 -0.0958  0.4012
 2272SOL     OW 8853   1.656   4.167   1.305 -0.1942  0.2477 -0.0024
 2272SOL    HW2 8854   1.678   4.245   1.356  0.6547 -0.7239  1.1909
 2272SOL    HW3 8855   1.565   4.149   1.328  0.0541  0.0578  0.8657
 2272SOL    MW4 8856   1.647   4.175   1.315  0.1489 -0.2173  0.1287
 2273SOL     OW 8857   5.344   4.135   3.814  0.0236 -0.2083  0.3889
 2273SOL    HW2 8858   5.404   4.120   3.741 -1.0904  0.2958 -0.6596
 2273SOL    HW3 8859   5.402   4.148   3.889  1.2668  0.8639 -0.6969
 2273SOL    MW4 8860   5.360   4.135   3.814 -0.3310 -1.1892  0.5044
 2274SOL     OW 8861   2.772   2.699   1.764  0.0834  0.5576  0.5016
 2274SOL    HW2 8862   2.812   2.619   1.731  0.7984  0.9555  0.3875
 2274SOL    HW3 8863   2.838   2.737   1.822  0.9364  2.5208 -1.6171
 2274SOL    MW4 8864   2.786   2.693   1.767  0.0120 -0.0630 -0.0808
 2275SOL     OW 8865   5.737   5.248   3.210  0.5285 -0.2299 -0.4069
 2275SOL    HW2 8866   5.659   5.295   3.237 -0.4013 -2.1625  0.4260
 2275SOL    HW3 8867   5.807   5.313   3.214 -1.0848  1.7149 -1.7591
 2275SOL    MW4 8868   5.736   5.263   3.214  0.3437 -0.1550  0.2247
 2276SOL     OW 8869   3.323   3.582   0.868  0.2031 -0.5895 -0.2825
 2276SOL    HW2 8870   3.295   3.515   0.806  1.1879 -1.1821 -0.1061
 2276SOL    HW3 8871   3.417   3.567   0.878  0.0399 -0.5965  1.4600
 2276SOL    MW4 8872   3.332   3.571   0.861 -0.2768 -0.0337 -0.0953
 2277SOL     OW 8873   3.894   1.440   0.284  0.0699 -0.3099 -0.2266
 2277SOL    HW2 8874   3.943   1.506   0.235  0.1592  0.0013  0.2744
 2277SOL    HW3 8875   3.952   1.417   0.357 -1.0325  1.0006  1.1166
 2277SOL    MW4 8876   3.908   1.446   0.288  0.3806 -0.3614 -0.0255
 2278SOL     OW 8877   2.174   3.474   5.600  0.3930  0.3309 -0.2608
 2278SOL    HW2 8878   2.104   3.411   5.617  1.4498 -0.5554  1.0540
 2278SOL    HW3 8879   2.131   3.545   5.553 -1.2736 -0.4148  0.0419
 2278SOL    MW4 8880   2.159   3.475   5.596  0.0293  0.0269 -0.1704
 2279SOL     OW 8881   4.719   0.234   0.851  0.2945 -0.2038 -0.1172
 2279SOL    HW2 8882   4.655   0.192   0.909 -1.2112 -0.4636 -1.8765
 2279SOL    HW3 8883   4.761   0.161   0.805  0.3513  0.0630 -0.4917
 2279SOL    MW4 8884   4.716   0.219   0.853  0.5235 -0.3390  0.0445
 2280SOL     OW 8885   3.615   0.724   4.481  0.0880  0.3296  0.3039
 2280SOL    HW2 8886   3.566   0.805   4.464 -1.7253 -0.9272 -0.8039
 2280SOL    HW3 8887   3.691   0.730   4.424 -1.3159  0.1987 -1.6799
 2280SOL    MW4 8888   3.619   0.736   4.472 -0.0455 -0.0763  0.1670
 2281SOL     OW 8889   1.805   5.888   3.479  0.1604 -0.0632  0.3392
 2281SOL    HW2 8890   1.794   5.980   3.504  0.1827 -0.2286  0.9615
 2281SOL    HW3 8891   1.841   5.892   3.390  1.3583  0.5393  0.8358
 2281SOL    MW4 8892   1.808   5.901   3.470  0.3912  0.0120  0.1763
 2282SOL     OW 8893   5.051   2.023   5.499  0.2272  0.8491 -0.0848
 2282SOL    HW2 8894   4.975   2.072   5.467 -0.5210  0.1198  0.5311
 2282SOL    HW3 8895   5.058   2.048   5.591 -0.1786 -0.2044  0.2426
 2282SOL    MW4 8896   5.042   2.033   5.507  0.1592  0.3528  0.0898
 2283SOL     OW 8897   4.158   2.365   1.892  0.3121  0.2216  0.7934
 2283SOL    HW2 8898   4.117   2.291   1.847  0.8069  0.2464  0.2853
 2283SOL    HW3 8899   4.094   2.392   1.957  0.4750 -1.2146  1.5874
 2283SOL    MW4 8900   4.144   2.359   1.895  0.0254  0.4986  0.3088
 2284SOL     OW 8901   4.269   0.768   1.155 -0.5303  0.4474  0.3746
 2284SOL    HW2 8902   4.325   0.727   1.221  0.4251  0.5759 -0.3248
 2284SOL    HW3 8903   4.289   0.862   1.162 -2.0357  0.7288  1.3539
 2284SOL    MW4 8904   4.279   0.775   1.164  0.2734 -0.0640  0.6141
 2285SOL     OW 8905   5.064   0.442   3.620 -0.2046 -0.0798 -0.6098
 2285SOL    HW2 8906   5.040   0.517   3.675 -0.1583  0.1087 -0.8436
 2285SOL    HW3 8907   5.126   0.392   3.673 -0.1626  0.1004 -0.4887
 2285SOL    MW4 8908   5.069   0.446   3.634 -0.7183  0.2270  0.4342
 2286SOL     OW 8909   4.451   1.580   1.948 -0.6559 -0.4563  0.3173
 2286SOL    HW2 8910   4.527   1.522   1.950  1.0175  1.4485 -2.0855
 2286SOL    HW3 8911   4.393   1.542   1.883  0.4869  0.5014 -1.3319
 2286SOL    MW4 8912   4.453   1.567   1.940 -0.0044  0.3254 -0.2233
 2287SOL     OW 8913   1.031   1.986   2.781 -0.0703 -0.0759  0.1004
 2287SOL    HW2 8914   1.041   1.987   2.686  2.9568 -3.0048  0.1946
 2287SOL    HW3 8915   1.027   1.893   2.804 -0.1667  0.5234  2.8984
 2287SOL    MW4 8916   1.032   1.974   2.771  0.4974 -0.2158  0.2950
 2288SOL     OW 8917   0.941   0.141   5.963 -0.1711 -0.1057  0.2409
 2288SOL    HW2 8918   0.997   0.065   5.978 -0.8648 -0.4292  1.3526
 2288SOL    HW3 8919   0.975   0.181   5.883  0.9187 -0.9308  0.2688
 2288SOL    MW4 8920   0.953   0.136   5.954 -1.1625 -0.1867 -0.0443
 2289SOL     OW 8921   4.671   5.624   0.645  0.1422 -0.2196 -0.4313
 2289SOL    HW2 8922   4.597   5.626   0.586 -0.2173 -0.9324 -0.0105
 2289SOL    HW3 8923   4.747   5.640   0.589 -0.3741  1.3459 -0.7555
 2289SOL    MW4 8924   4.671   5.627   0.630 -0.3018  0.5484 -0.1094
 2290SOL     OW 8925   4.935   2.928   2.006  0.6994  0.3895 -0.3475
 2290SOL    HW2 8926   4.863   2.882   2.049  0.5892 -0.1947 -1.1514
 2290SOL    HW3 8927   5.014   2.884   2.038  0.6494  0.3612 -0.2625
 2290SOL    MW4 8928   4.936   2.916   2.016  0.6801 -0.0548 -0.4579
 2291SOL     OW 8929   4.062   0.763   0.343 -0.4423  0.1450  0.1904
 2291SOL    HW2 8930   4.034   0.796   0.428 -0.6058 -0.8647  0.5374
 2291SOL    HW3 8931   4.157   0.754   0.351 -0.5377 -0.6327  0.5187
 2291SOL    MW4 8932   4.071   0.766   0.355 -0.0235  0.2233  0.2571
 2292SOL     OW 8933   0.058   4.620   5.661  0.1552  0.7836 -0.0275
 2292SOL    HW2 8934   0.017   4.703   5.636 -1.6254 -0.5841 -2.0545
 2292SOL    HW3 8935   0.142   4.621   5.615 -0.8449  0.5562 -2.0010
 2292SOL    MW4 8936   0.063   4.631   5.651  0.2713  0.2228 -0.1132
 2293SOL     OW 8937   6.338   1.714   2.681 -0.2548 -0.3371 -0.0717
 2293SOL    HW2 8938   6.376   1.801   2.672  0.2871 -0.4777  0.6650
 2293SOL    HW3 8939   6.249   1.722   2.648 -0.2607  0.5367  0.1354
 2293SOL    MW4 8940   6.331   1.726   2.676 -0.3394  0.2660  0.0402
 2294SOL     OW 8941   3.400   2.281   0.934  0.1380 -0.1000 -0.0440
 2294SOL    HW2 8942   3.362   2.204   0.976  0.6251 -0.0377  0.5186
 2294SOL    HW3 8943   3.354   2.287   0.850 -0.6845 -0.3641  0.3702
 2294SOL    MW4 8944   3.389   2.272   0.928  0.0306 -0.0626  0.3525
 2295SOL     OW 8945   3.710   5.438   3.407  0.6221 -0.1598  0.2026
 2295SOL    HW2 8946   3.775   5.470   3.469  1.4412  1.0095 -1.1982
 2295SOL    HW3 8947   3.760   5.414   3.329 -0.5181 -0.1392 -0.5622
 2295SOL    MW4 8948   3.725   5.439   3.405  1.0988 -0.0973 -0.3067
 2296SOL     OW 8949   3.912   1.972   3.935  0.5558 -0.5958 -0.9266
 2296SOL    HW2 8950   4.006   1.957   3.946  0.6520  1.0368  1.0204
 2296SOL    HW3 8951   3.872   1.886   3.950  1.5796 -0.7952  0.8601
 2296SOL    MW4 8952   3.919   1.959   3.938  0.2476 -0.0123  0.1787
 2297SOL     OW 8953   0.899   1.888   1.125 -0.2406  0.0021  0.0175
 2297SOL    HW2 8954   0.917   1.927   1.039 -1.1172 -1.1814 -0.7354
 2297SOL    HW3 8955   0.840   1.815   1.106 -1.1370  0.2374  1.7335
 2297SOL    MW4 8956   0.893   1.883   1.111 -0.0562  0.2806 -0.6448
 2298SOL     OW 8957   5.698   3.997   1.130 -0.3700 -0.2249 -0.2611
 2298SOL    HW2 8958   5.750   3.954   1.062 -0.4671 -1.6632  0.5307
 2298SOL    HW3 8959   5.714   4.091   1.116  0.7844 -0.5423 -1.3280
 2298SOL    MW4 8960   5.707   4.004   1.119  0.0414 -0.7387 -0.6072
 2299SOL     OW 8961   0.067   5.327   1.669  0.0842  0.2786  0.4497
 2299SOL    HW2 8962   0.132   5.397   1.679  1.7377 -1.1339  0.0263
 2299SOL    HW3 8963   0.023   5.347   1.587  1.9568 -0.2140 -0.7398
 2299SOL    MW4 8964   0.070   5.339   1.660 -0.1597 -0.0314  0.3514
 2300SOL     OW 8965   3.562   1.221   0.412  0.2245  0.3386 -0.2815
 2300SOL    HW2 8966   3.501   1.294   0.401  1.6209  1.6638  0.3310
 2300SOL    HW3 8967   3.533   1.156   0.348 -2.0498  0.7213  0.2550
 2300SOL    MW4 8968   3.550   1.222   0.402  0.2004  0.2337  1.2991
 2301SOL     OW 8969   1.927   3.292   4.324  0.3124 -1.0301  0.3575
 2301SOL    HW2 8970   1.871   3.284   4.401 -0.3319  0.3521  0.0714
 2301SOL    HW3 8971   1.913   3.211   4.275 -0.6074 -1.1710  0.8285
 2301SOL    MW4 8972   1.918   3.280   4.327  0.2561 -0.1025  0.4190
 2302SOL     OW 8973   4.999   6.160   5.187 -0.1167  0.1318  0.4537
 2302SOL    HW2 8974   4.965   6.175   5.099  1.3140 -0.6437 -0.2731
 2302SOL    HW3 8975   4.998   6.246   5.229  2.7213  1.3372 -1.6506
 2302SOL    MW4 8976   4.994   6.173   5.181 -0.5200 -0.0452 -0.1809
 2303SOL     OW 8977   5.010   6.388   1.823 -0.1224 -0.1138  0.0671
 2303SOL    HW2 8978   5.023   6.296   1.845 -1.7472 -0.2936  0.3768
 2303SOL    HW3 8979   4.915   6.401   1.828  0.0160  1.4012 -0.6843
 2303SOL    MW4 8980   4.999   6.378   1.827  0.8508  0.1612  0.3904
 2304SOL     OW 8981   2.329   4.332   2.550  0.6917 -0.1265 -0.0023
 2304SOL    HW2 8982   2.386   4.407   2.565  0.1050  0.9513 -2.6029
 2304SOL    HW3 8983   2.364   4.291   2.470 -0.3871 -1.2364  0.0521
 2304SOL    MW4 8984   2.341   4.336   2.541 -0.2175 -0.1424  0.4129
 2305SOL     OW 8985   4.333   0.884   3.186  0.4757 -0.3218 -0.2926
 2305SOL    HW2 8986   4.283   0.805   3.166 -0.1161 -0.5643  1.8901
 2305SOL    HW3 8987   4.370   0.869   3.273  3.6128  0.2746 -1.3831
 2305SOL    MW4 8988   4.331   0.872   3.195 -0.1479  0.0063 -0.3896
 2306SOL     OW 8989   5.837   1.280   5.624  0.0559  0.9398 -0.2371
 2306SOL    HW2 8990   5.911   1.293   5.564 -1.1671 -0.4593 -2.1441
 2306SOL    HW3 8991   5.843   1.188   5.650 -1.4260  0.5929 -1.0352
 2306SOL    MW4 8992   5.848   1.270   5.620  0.1271  0.1652  0.0585
 2307SOL     OW 8993   3.307   2.872   5.409  0.2321  0.0746 -0.3753
 2307SOL    HW2 8994   3.355   2.954   5.397  2.2562 -1.1653 -1.2947
 2307SOL    HW3 8995   3.347   2.833   5.487 -0.8774  0.0511  0.1942
 2307SOL    MW4 8996   3.319   2.878   5.418  0.1559 -0.0370 -0.5590
 2308SOL     OW 8997   2.875   2.433   1.677  0.4083 -0.1166  0.1624
 2308SOL    HW2 8998   2.967   2.431   1.703  0.5524 -1.1192 -0.3872
 2308SOL    HW3 8999   2.877   2.434   1.581 -0.1468 -1.0991  0.1272
 2308SOL    MW4 9000   2.888   2.433   1.668 -0.1684 -0.9674  0.2932
 2309SOL     OW 9001   1.289   3.800   2.831 -0.3245  0.4635  0.5966
 2309SOL    HW2 9002   1.297   3.792   2.736 -0.1607  0.8368  0.5749
 2309SOL    HW3 9003   1.363   3.750   2.866 -0.9842 -0.5421  0.5612
 2309SOL    MW4 9004   1.300   3.793   2.823  0.2748 -0.0669  0.4988
 2310SOL     OW 9005   2.336   3.893   1.334  0.7158  0.5074 -0.1025
 2310SOL    HW2 9006   2.259   3.866   1.285  0.4029  0.5955  0.3383
 2310SOL    HW3 9007   2.395   3.931   1.269  1.4586 -1.8123 -0.8751
 2310SOL    MW4 9008   2.334   3.894   1.319  0.4680  0.0402  0.3394
 2311SOL     OW 9009   2.567   0.377   4.762  0.2874 -0.7767  0.1108
 2311SOL    HW2 9010   2.556   0.470   4.780  1.3022 -0.5106 -0.5289
 2311SOL    HW3 9011   2.647   0.373   4.708  0.7086 -2.0842  0.7999
 2311SOL    MW4 9012   2.576   0.389   4.757  0.5020 -0.0208  0.3630
 2312SOL     OW 9013   1.396   6.273   3.677 -0.2117 -0.0020  0.3549
 2312SOL    HW2 9014   1.452   6.340   3.639  0.7943 -1.3053 -0.5840
 2312SOL    HW3 9015   1.307   6.307   3.666  0.2533  1.0406 -0.3601
 2312SOL    MW4 9016   1.391   6.286   3.671  0.2942  0.3113 -0.1055
 2313SOL     OW 9017   3.240   2.087   1.068  0.3564  0.1100 -0.4883
 2313SOL    HW2 9018   3.183   2.125   1.135  2.4384  1.3749  0.6581
 2313SOL    HW3 9019   3.304   2.035   1.118  0.6610 -0.6939 -1.6736
 2313SOL    MW4 9020   3.241   2.085   1.083 -0.1210 -0.5874  0.4106
 2314SOL     OW 9021   5.167   4.513   1.056  0.0859 -0.2114 -1.0330
 2314SOL    HW2 9022   5.231   4.525   0.986  1.3293 -0.6782 -0.0031
 2314SOL    HW3 9023   5.197   4.436   1.104 -0.6350  0.2052  0.1316
 2314SOL    MW4 9024   5.179   4.505   1.053 -0.1492 -0.3032 -0.0626
 2315SOL     OW 9025   2.482   6.015   1.489  0.3414 -0.0618 -0.1533
 2315SOL    HW2 9026   2.487   6.006   1.585 -1.9857  0.5897  0.0860
 2315SOL    HW3 9027   2.546   5.951   1.456  2.9428  1.3217  1.8039
 2315SOL    MW4 9028   2.491   6.005   1.498 -0.2752 -0.0994 -0.0431
 2316SOL     OW 9029   0.329   3.317   4.403  0.2469 -0.0915  0.1084
 2316SOL    HW2 9030   0.411   3.275   4.376  1.8183  3.1852 -0.8432
 2316SOL    HW3 9031   0.357   3.393   4.454 -2.2843  0.4863  0.7678
 2316SOL    MW4 9032   0.344   3.322   4.406  0.5897  0.3544 -0.1579
 2317SOL     OW 9033   4.013   5.576   4.522  0.4124 -0.5379  0.1480
 2317SOL    HW2 9034   4.039   5.577   4.614  1.7095 -3.1432 -0.0755
 2317SOL    HW3 9035   3.917   5.566   4.524  0.2566  0.9383  1.1519
 2317SOL    MW4 9036   4.003   5.575   4.534 -0.0270  0.0022  0.5777
 2318SOL     OW 9037   4.062   0.162   3.678  0.2055  0.3262  0.0919
 2318SOL    HW2 9038   4.051   0.227   3.609 -0.7246  0.0691 -0.0143
 2318SOL    HW3 9039   4.157   0.149   3.685  0.2865 -0.1824 -1.6408
 2318SOL    MW4 9040   4.073   0.169   3.670 -0.1547 -0.5276 -0.0115
 2319SOL     OW 9041   3.261   5.515   2.945  0.4359 -0.0870  0.1586
 2319SOL    HW2 9042   3.238   5.471   3.026  1.2194  1.8841  1.5108
 2319SOL    HW3 9043   3.322   5.584   2.970 -1.6211  2.6173 -1.5914
 2319SOL    MW4 9044   3.266   5.518   2.959 -0.8913 -0.2002  0.3486
 2320SOL     OW 9045   6.185   1.427   2.495 -0.2429 -0.1635 -0.7430
 2320SOL    HW2 9046   6.154   1.413   2.406 -0.3028 -1.0478 -0.5921
 2320SOL    HW3 9047   6.186   1.523   2.505 -0.6785 -0.0649 -1.5275
 2320SOL    MW4 9048   6.181   1.438   2.485  0.0156  0.3065  0.1207
 2321SOL     OW 9049   4.954   2.379   0.412 -0.7250  0.2395 -0.7701
 2321SOL    HW2 9050   4.863   2.357   0.433 -1.0020  0.6065 -1.5551
 2321SOL    HW3 9051   4.996   2.296   0.393  0.0913 -0.4351  3.1105
 2321SOL    MW4 9052   4.947   2.365   0.412  0.0848  0.2590 -0.2250
 2322SOL     OW 9053   2.509   0.829   3.300  0.7811  0.2228  0.0135
 2322SOL    HW2 9054   2.599   0.857   3.282  1.0364 -0.4853  0.1595
 2322SOL    HW3 9055   2.458   0.910   3.295  0.8017  0.1857 -3.7736
 2322SOL    MW4 9056   2.514   0.843   3.297 -0.0937  0.0055  0.4387
 2323SOL     OW 9057   4.467   2.101   2.992  0.2794  0.3560  0.0191
 2323SOL    HW2 9058   4.407   2.110   2.917  0.5592  1.9867 -0.0490
 2323SOL    HW3 9059   4.519   2.181   2.991  0.1119  0.5522  2.1345
 2323SOL    MW4 9060   4.466   2.113   2.982 -0.4114 -0.2550  0.1357
 2324SOL     OW 9061   4.883   5.679   3.871 -0.4721 -0.4711 -0.3399
 2324SOL    HW2 9062   4.868   5.585   3.872 -0.7446 -0.4295  0.5359
 2324SOL    HW3 9063   4.821   5.713   3.806 -1.1577 -0.7772  0.1475
 2324SOL    MW4 9064   4.873   5.671   3.863 -0.2468  0.0777 -0.0990
 2325SOL     OW 9065   4.488   1.404   2.445  0.8038  0.6029 -0.1054
 2325SOL    HW2 9066   4.561   1.388   2.504  0.7860  0.1155 -0.2145
 2325SOL    HW3 9067   4.412   1.414   2.502  0.8064  0.2453 -0.0382
 2325SOL    MW4 9068   4.488   1.404   2.460 -0.5504  0.3367 -0.3073
 2326SOL     OW 9069   3.978   4.878   5.395  0.0745 -0.0110  0.3414
 2326SOL    HW2 9070   3.986   4.974   5.392 -1.2107  0.1189 -2.1899
 2326SOL    HW3 9071   4.067   4.847   5.411  0.5960  1.6026  0.7922
 2326SOL    MW4 9072   3.991   4.887   5.396  0.0786  0.3019  0.3793
 2327SOL     OW 9073   0.065   1.054   2.975 -0.2939  0.0693  0.2219
 2327SOL    HW2 9074   0.030   1.055   2.885 -2.2064 -1.5493  0.8632
 2327SOL    HW3 9075   0.022   0.979   3.016  2.2229 -0.5758  1.8734
 2327SOL    MW4 9076   0.055   1.044   2.968 -0.0778  0.6219  0.4346
 2328SOL     OW 9077   1.926   6.341   2.390  0.0475 -0.1643  0.0703
 2328SOL    HW2 9078   1.875   6.421   2.401  1.2587  0.9012 -1.5247
 2328SOL    HW3 9079   1.867   6.281   2.345 -0.2387  0.5788 -0.5740
 2328SOL    MW4 9080   1.911   6.344   2.385  0.4313 -0.2712  0.4894
 2329SOL     OW 9081   1.743   2.986   2.353  0.1632 -0.1928  0.5059
 2329SOL    HW2 9082   1.661   2.971   2.400 -0.8420 -2.2159 -1.6671
 2329SOL    HW3 9083   1.801   2.916   2.382  0.1969 -0.3159  0.1462
 2329SOL    MW4 9084   1.740   2.975   2.363  0.5648  0.2941 -0.2681
 2330SOL     OW 9085   5.862   2.244   5.449 -0.4644  0.8496 -0.0379
 2330SOL    HW2 9086   5.805   2.267   5.523  0.1969  0.4631  0.6042
 2330SOL    HW3 9087   5.950   2.266   5.479 -0.2924  1.7492 -1.1496
 2330SOL    MW4 9088   5.866   2.250   5.463  0.2212  0.1252 -0.7881
 2331SOL     OW 9089   5.846   2.269   4.430  0.1151 -0.3873  0.0003
 2331SOL    HW2 9090   5.838   2.361   4.402  1.3598 -0.1773  0.2758
 2331SOL    HW3 9091   5.870   2.222   4.350  0.0414 -0.3816 -0.0249
 2331SOL    MW4 9092   5.848   2.275   4.416  0.0357  0.1192  0.0019
 2332SOL     OW 9093   0.657   4.171   4.083 -0.6072 -0.0318  0.0713
 2332SOL    HW2 9094   0.721   4.139   4.146 -0.6936  2.3242  1.4887
 2332SOL    HW3 9095   0.573   4.136   4.114 -0.6395  1.0422  1.3077
 2332SOL    MW4 9096   0.654   4.162   4.095  0.0717 -0.1835  0.0895
 2333SOL     OW 9097   5.751   6.399   1.653 -0.2125  0.1723 -0.1492
 2333SOL    HW2 9098   5.769   6.405   1.747 -2.1428 -0.8646  0.3452
 2333SOL    HW3 9099   5.823   6.346   1.619  0.2208  0.0902  0.8458
 2333SOL    MW4 9100   5.763   6.392   1.661 -0.1846  0.1854  0.3207
 2334SOL     OW 9101   5.205   3.572   2.125  0.1087 -0.0719  0.3790
 2334SOL    HW2 9102   5.191   3.483   2.091 -0.5113  0.1351  0.0760
 2334SOL    HW3 9103   5.220   3.626   2.047 -0.9409  0.3363  0.4431
 2334SOL    MW4 9104   5.205   3.567   2.110  0.9626  0.7204  0.4383
 2335SOL     OW 9105   5.173   0.293   4.151 -0.1065  0.1993 -0.3899
 2335SOL    HW2 9106   5.207   0.204   4.146  0.1392  0.1732  1.2513
 2335SOL    HW3 9107   5.247   0.345   4.184 -0.6993  0.7161  0.1631
 2335SOL    MW4 9108   5.187   0.288   4.155  0.3044 -0.0488  0.0491
 2336SOL     OW 9109   2.328   1.433   4.391 -0.3728 -0.3411  0.4156
 2336SOL    HW2 9110   2.380   1.461   4.316 -0.1980  1.7290  1.2609
 2336SOL    HW3 9111   2.392   1.409   4.458 -0.5021  0.4374  0.8265
 2336SOL    MW4 9112   2.343   1.433   4.390 -0.1806 -0.1236  0.0647
 2337SOL     OW 9113   6.031   3.888   5.688 -0.5454 -0.7603  0.2323
 2337SOL    HW2 9114   6.014   3.880   5.594 -0.5036  0.2641  0.1220
 2337SOL    HW3 9115   6.090   3.963   5.695 -1.3582 -0.1746  1.1531
 2337SOL    MW4 9116   6.037   3.897   5.677  0.3094 -0.2834  0.0804
 2338SOL     OW 9117   1.616   2.283   0.854  0.5706  0.0073  0.3277
 2338SOL    HW2 9118   1.659   2.209   0.811 -2.3409 -2.1412  0.8039
 2338SOL    HW3 9119   1.660   2.360   0.820  2.5937 -1.8542 -1.5617
 2338SOL    MW4 9120   1.628   2.283   0.844 -0.0635 -0.7539 -0.1668
 2339SOL     OW 9121   6.349   4.779   4.237 -0.1231 -0.1323 -0.4190
 2339SOL    HW2 9122   6.372   4.867   4.264 -0.4745 -0.1123 -0.1706
 2339SOL    HW3 9123   6.258   4.768   4.265  0.0718 -0.7476  0.0034
 2339SOL    MW4 9124   6.340   4.789   4.244  0.1365 -0.1938  0.0112
 2340SOL     OW 9125   0.352   5.134   2.353  0.0381  0.0265  0.1713
 2340SOL    HW2 9126   0.361   5.104   2.262  2.1877  0.1268  0.3035
 2340SOL    HW3 9127   0.298   5.067   2.395  1.6334 -1.7258 -0.4484
 2340SOL    MW4 9128   0.346   5.121   2.346  0.0932 -0.4910  0.1576
 2341SOL     OW 9129   1.137   1.018   4.889 -0.8258 -0.0605  0.0816
 2341SOL    HW2 9130   1.115   1.009   4.982 -1.3769 -0.9414 -0.1196
 2341SOL    HW3 9131   1.179   1.104   4.882 -2.7273  1.0002  0.7904
 2341SOL    MW4 9132   1.140   1.028   4.900 -0.2738 -0.0464  0.4143
 2342SOL     OW 9133   6.339   3.968   5.357  0.3014 -0.2778 -0.6400
 2342SOL    HW2 9134   6.251   4.001   5.336 -0.0376  0.4821  1.7095
 2342SOL    HW3 9135   6.392   4.047   5.369  1.4161 -0.7326 -2.2783
 2342SOL    MW4 9136   6.334   3.983   5.356  0.4921 -0.3637 -0.1762
 2343SOL     OW 9137   0.533   2.880   4.590  0.9336  0.4972 -0.0609
 2343SOL    HW2 9138   0.527   2.975   4.579 -0.3782  0.9014  3.2301
 2343SOL    HW3 9139   0.472   2.845   4.525  0.1096  2.0215 -0.1655
 2343SOL    MW4 9140   0.524   2.888   4.580 -0.3167 -0.1285  0.2089
 2344SOL     OW 9141   6.117   3.675   5.240  0.1685  0.2347 -0.4639
 2344SOL    HW2 9142   6.131   3.582   5.256  1.3349  0.4936  0.1622
 2344SOL    HW3 9143   6.188   3.700   5.181 -1.4904  0.2564 -2.5327
 2344SOL    MW4 9144   6.129   3.666   5.235 -0.0285 -0.2596 -0.0157
 2345SOL     OW 9145   1.730   4.180   1.871 -0.4701 -0.1035  0.4702
 2345SOL    HW2 9146   1.759   4.234   1.944  1.2242  1.6595 -1.3560
 2345SOL    HW3 9147   1.808   4.172   1.815 -2.4209  1.4137 -2.7487
 2345SOL    MW4 9148   1.744   4.186   1.873  0.6075 -0.2992 -0.0797
 2346SOL     OW 9149   5.772   3.929   0.733 -0.5065  0.1158 -0.3620
 2346SOL    HW2 9150   5.783   3.960   0.643  1.0816  0.2639 -0.1473
 2346SOL    HW3 9151   5.679   3.941   0.751 -0.5292  1.7905 -1.3676
 2346SOL    MW4 9152   5.761   3.935   0.723 -0.3748 -0.0844 -0.1361
 2347SOL     OW 9153   3.543   2.404   2.850 -0.1032  0.4112 -0.2903
 2347SOL    HW2 9154   3.576   2.314   2.854 -1.1030  0.0608  0.5393
 2347SOL    HW3 9155   3.592   2.450   2.918 -1.1530 -0.0784  0.8504
 2347SOL    MW4 9156   3.554   2.398   2.860  0.0258 -0.2530  0.0357
 2348SOL     OW 9157   4.717   4.039   6.022 -0.4564 -0.1314  0.3250
 2348SOL    HW2 9158   4.623   4.023   6.037 -1.3315  2.1979 -2.0178
 2348SOL    HW3 9159   4.743   3.971   5.960 -1.0913  0.3641 -0.4924
 2348SOL    MW4 9160   4.708   4.028   6.016  0.0299  0.1018 -0.1155
 2349SOL     OW 9161   2.344   1.997   4.778 -0.0704  0.3817  0.2910
 2349SOL    HW2 9162   2.407   1.986   4.707  1.4299  2.0910  1.3007
 2349SOL    HW3 9163   2.278   2.057   4.742 -0.0542  0.1780 -0.0908
 2349SOL    MW4 9164   2.343   2.003   4.764  0.4518  0.2359 -0.9355
 2350SOL     OW 9165   5.957   2.530   6.283 -0.8273  0.3343 -0.1532
 2350SOL    HW2 9166   5.927   2.602   6.338 -1.0001  1.9081 -2.1860
 2350SOL    HW3 9167   6.025   2.569   6.228  0.5569 -1.6043  0.0933
 2350SOL    MW4 9168   5.962   2.545   6.283 -0.2788 -0.1262  0.5076
 2351SOL     OW 9169   2.104   5.623   5.893  0.7042  0.4732 -0.2382
 2351SOL    HW2 9170   2.016   5.648   5.863  0.5345 -0.2418 -0.3635
 2351SOL    HW3 9171   2.162   5.690   5.857 -0.0047  2.1439  1.5428
 2351SOL    MW4 9172   2.100   5.635   5.885  0.3799 -0.2881 -0.3514
 2352SOL     OW 9173   4.905   3.030   1.143 -0.0753 -0.3063 -0.0207
 2352SOL    HW2 9174   4.853   3.012   1.221 -0.3128  0.8639  0.1070
 2352SOL    HW3 9175   4.903   2.948   1.094  2.3121 -2.0038  2.4128
 2352SOL    MW4 9176   4.897   3.017   1.147  0.0707 -0.7225 -0.2748
 2353SOL     OW 9177   4.107   2.095   0.873 -0.0329  0.3178 -0.7316
 2353SOL    HW2 9178   4.105   2.116   0.780  2.2880 -3.2010 -1.7955
 2353SOL    HW3 9179   4.199   2.104   0.898 -0.3920 -0.0971  0.8839
 2353SOL    MW4 9180   4.119   2.099   0.864 -0.0822  0.6237  0.2039
 2354SOL     OW 9181   4.507   4.902   0.725  0.3960 -0.4742  0.2013
 2354SOL    HW2 9182   4.451   4.878   0.798  1.1811 -1.3274  0.5469
 2354SOL    HW3 9183   4.548   4.984   0.751  0.4601 -0.6329  0.5972
 2354SOL    MW4 9184   4.505   4.910   0.738  0.3006  0.1571  0.6439
 2355SOL     OW 9185   2.610   5.678   3.103 -0.0844  0.0957 -0.8537
 2355SOL    HW2 9186   2.548   5.748   3.126  0.2147 -0.0462  0.4106
 2355SOL    HW3 9187   2.692   5.724   3.085  0.2035  0.0541  0.3137
 2355SOL    MW4 9188   2.612   5.694   3.103  0.3344 -0.5976  1.0059
 2356SOL     OW 9189   1.191   3.659   0.503  0.2441  0.1295 -0.0858
 2356SOL    HW2 9190   1.174   3.735   0.559 -2.7359  0.3428 -1.1410
 2356SOL    HW3 9191   1.191   3.585   0.564 -1.1237  0.5412  0.4486
 2356SOL    MW4 9192   1.189   3.660   0.519  0.4507 -0.3825 -0.0659
 2357SOL     OW 9193   4.311   0.187   1.400 -0.4131 -0.0432 -0.4877
 2357SOL    HW2 9194   4.306   0.163   1.307  0.8799 -1.0503 -0.3273
 2357SOL    HW3 9195   4.262   0.117   1.445  1.8356 -1.5094 -0.1689
 2357SOL    MW4 9196   4.304   0.174   1.394  0.1996 -0.2548 -0.0574
 2358SOL     OW 9197   5.067   6.137   1.966  0.0666 -0.6869  0.4301
 2358SOL    HW2 9198   5.001   6.072   1.945 -0.4016 -0.1499  0.1978
 2358SOL    HW3 9199   5.151   6.091   1.959 -0.2758 -1.3484  0.6356
 2358SOL    MW4 9200   5.070   6.123   1.962  0.4763  0.1323 -0.0446
 2359SOL     OW 9201   4.316   4.789   0.900  0.1762  0.1737 -0.0457
 2359SOL    HW2 9202   4.347   4.818   0.986 -0.9872  1.7989 -0.1018
 2359SOL    HW3 9203   4.228   4.827   0.894 -0.4810 -1.4476 -1.2211
 2359SOL    MW4 9204   4.308   4.798   0.911  0.8457  0.5378 -0.4082
 2360SOL     OW 9205   5.465   4.161   0.116 -0.3821  0.3166  0.0321
 2360SOL    HW2 9206   5.406   4.133   0.187 -0.6312  1.0418  0.1251
 2360SOL    HW3 9207   5.490   4.080   0.072 -1.5307 -0.0032 -0.0703
 2360SOL    MW4 9208   5.461   4.147   0.120  0.6774 -0.1054 -0.0702
 2361SOL     OW 9209   1.444   3.455   4.968  0.2993 -0.1305 -0.2093
 2361SOL    HW2 9210   1.408   3.526   4.916 -0.5687 -0.0775  0.4532
 2361SOL    HW3 9211   1.477   3.392   4.903 -1.0828 -0.2291 -0.8385
 2361SOL    MW4 9212   1.444   3.456   4.952  0.0265  0.3075  0.0861
 2362SOL     OW 9213   1.553   1.714   3.237  0.1392 -0.6478  0.4439
 2362SOL    HW2 9214   1.596   1.764   3.306 -0.6779 -0.0556  0.5382
 2362SOL    HW3 9215   1.589   1.625   3.245  1.6169 -0.0971  0.2698
 2362SOL    MW4 9216   1.563   1.709   3.247 -0.4361 -0.6219  0.4407
 2363SOL     OW 9217   5.053   1.010   4.789 -0.2644 -0.3097  0.1433
 2363SOL    HW2 9218   5.032   0.923   4.755  0.9925  0.2619 -2.4030
 2363SOL    HW3 9219   4.970   1.058   4.783 -0.5120 -0.7852 -0.3950
 2363SOL    MW4 9220   5.039   1.005   4.784  0.5738  0.5946 -0.4448
 2364SOL     OW 9221   2.878   5.991   2.684 -0.0806  0.2858  0.3840
 2364SOL    HW2 9222   2.888   5.910   2.733  0.6540 -0.7601 -1.4235
 2364SOL    HW3 9223   2.783   6.000   2.671 -0.1846 -0.0971  0.8378
 2364SOL    MW4 9224   2.867   5.982   2.689  0.1386 -0.3891 -0.3112
 2365SOL     OW 9225   2.430   1.008   0.931  0.1642 -0.5270  0.1892
 2365SOL    HW2 9226   2.505   1.002   0.991 -0.3227  0.6150  0.9518
 2365SOL    HW3 9227   2.355   1.021   0.989 -0.3374  0.4443 -0.6485
 2365SOL    MW4 9228   2.430   1.009   0.947  0.0946  1.0018  0.0349
 2366SOL     OW 9229   2.560   4.467   5.845  0.0008  0.0111 -0.3345
 2366SOL    HW2 9230   2.496   4.402   5.817  1.2542 -1.4208 -0.0096
 2366SOL    HW3 9231   2.517   4.552   5.830 -1.9594 -0.8971 -0.0587
 2366SOL    MW4 9232   2.546   4.470   5.839  0.1858 -0.1942  0.1903
 2367SOL     OW 9233   0.181   2.497   5.960 -0.1411  0.0994 -0.3513
 2367SOL    HW2 9234   0.222   2.510   5.874  1.3952 -0.2035  0.3000
 2367SOL    HW3 9235   0.241   2.539   6.022 -1.3983  0.6219  0.5625
 2367SOL    MW4 9236   0.195   2.505   5.957  0.1210  0.0490 -0.2189
 2368SOL     OW 9237   3.814   2.781   0.646  0.8532 -0.4462  0.5395
 2368SOL    HW2 9238   3.890   2.840   0.640  0.9970 -0.6459  0.3797
 2368SOL    HW3 9239   3.853   2.694   0.656  0.6432 -0.5499  0.4506
 2368SOL    MW4 9240   3.829   2.777   0.647  0.1834 -0.5848 -0.1037
 2369SOL     OW 9241   1.917   3.873   3.125 -0.4544  0.3202  0.2596
 2369SOL    HW2 9242   1.963   3.932   3.184  1.4094 -1.1300  0.3843
 2369SOL    HW3 9243   1.877   3.930   3.060  0.9300  1.7430  0.5941
 2369SOL    MW4 9244   1.918   3.888   3.124  0.3522  0.1072 -0.3933
 2370SOL     OW 9245   5.940   2.267   6.399 -0.2119  0.2766  0.2947
 2370SOL    HW2 9246   5.858   2.246   6.442  0.5806 -0.2538  1.6044
 2370SOL    HW3 9247   5.934   2.361   6.380 -0.7223  0.4494  1.2671
 2370SOL    MW4 9248   5.929   2.277   6.402 -0.2037 -0.4975  0.3501
 2371SOL     OW 9249   2.305   3.782   1.002 -0.4540 -0.0288  0.4181
 2371SOL    HW2 9250   2.248   3.801   0.927 -0.9378 -0.8122  0.5702
 2371SOL    HW3 9251   2.263   3.707   1.045  0.0129  0.1832  1.2667
 2371SOL    MW4 9252   2.292   3.774   0.998 -0.6505  0.0285  0.0975
 2372SOL     OW 9253   3.852   4.783   2.377 -0.3936 -0.2539 -0.4194
 2372SOL    HW2 9254   3.764   4.770   2.413  0.5244 -2.3512  1.2095
 2372SOL    HW3 9255   3.903   4.709   2.409  1.5861  0.0044 -2.6970
 2372SOL    MW4 9256   3.847   4.772   2.386  0.3982  0.1021 -0.0934
 2373SOL     OW 9257   1.094   4.994   2.663  0.2335 -0.3526  0.0978
 2373SOL    HW2 9258   1.179   4.950   2.649  0.1920 -0.5294  0.3780
 2373SOL    HW3 9259   1.113   5.087   2.654 -0.1015 -0.4716 -2.7934
 2373SOL    MW4 9260   1.108   5.000   2.660  0.1385  0.4625  0.1073
 2374SOL     OW 9261   2.199   4.851   1.178 -0.2561 -0.5106  0.0559
 2374SOL    HW2 9262   2.200   4.944   1.200 -0.6129 -0.3775 -0.4777
 2374SOL    HW3 9263   2.159   4.847   1.091 -0.2522 -1.1632  0.0787
 2374SOL    MW4 9264   2.193   4.863   1.170  0.5432  0.3548 -0.0655
 2375SOL     OW 9265   1.880   1.111   5.054 -0.3375  0.2729  0.3361
 2375SOL    HW2 9266   1.925   1.028   5.070 -2.2092 -0.7040  0.7044
 2375SOL    HW3 9267   1.819   1.093   4.982 -0.9963  1.2366  0.6314
 2375SOL    MW4 9268   1.878   1.098   5.047 -0.0155  0.4678 -0.2611
 2376SOL     OW 9269   2.292   3.397   2.090  0.4669 -0.0265 -0.2435
 2376SOL    HW2 9270   2.382   3.426   2.074  1.1886 -1.6311  0.7393
 2376SOL    HW3 9271   2.238   3.469   2.056  2.1353  2.1666  1.4442
 2376SOL    MW4 9272   2.297   3.411   2.084 -0.0305  0.3388 -0.6145
 2377SOL     OW 9273   0.581   4.211   3.758 -0.0654 -0.0370 -0.2903
 2377SOL    HW2 9274   0.588   4.266   3.837 -0.7003 -1.3978  0.7488
 2377SOL    HW3 9275   0.654   4.150   3.765 -0.8561 -0.9957 -0.0503
 2377SOL    MW4 9276   0.591   4.210   3.769 -0.0447  0.3755  0.3530
 2378SOL     OW 9277   5.556   2.091   5.451 -0.4025  0.5503 -0.1069
 2378SOL    HW2 9278   5.515   2.024   5.506  0.9232 -0.2080  0.0218
 2378SOL    HW3 9279   5.603   2.148   5.512  2.0100 -0.9434 -0.3982
 2378SOL    MW4 9280   5.557   2.089   5.466 -0.0315 -0.2189  0.0611
 2379SOL     OW 9281   6.153   0.018   0.535 -0.6082  0.0027 -0.0984
 2379SOL    HW2 9282   6.219   0.055   0.476 -0.3886 -2.3370 -1.4264
 2379SOL    HW3 9283   6.189   0.033   0.623  1.6010 -0.9331 -0.7614
 2379SOL    MW4 9284   6.167   0.025   0.539 -0.2510 -0.0913 -0.1361
 2380SOL     OW 9285   4.803   6.211   6.243 -0.1731  0.7360 -0.0437
 2380SOL    HW2 9286   4.742   6.270   6.199 -1.4100 -0.6273 -0.2487
 2380SOL    HW3 9287   4.776   6.124   6.215  0.7373 -0.0128  1.2937
 2380SOL    MW4 9288   4.791   6.207   6.234  0.0602  0.4997 -0.5165
 2381SOL     OW 9289   5.784   5.016   1.257  0.2659 -0.5929 -0.3543
 2381SOL    HW2 9290   5.808   4.948   1.194  1.7971 -0.6431  0.2257
 2381SOL    HW3 9291   5.839   4.998   1.333  0.6061  1.2041 -0.1338
 2381SOL    MW4 9292   5.795   5.004   1.258 -0.4548 -0.4975 -0.5083
 2382SOL     OW 9293   2.939   1.844   5.552  0.1563 -0.5812  0.5521
 2382SOL    HW2 9294   2.962   1.875   5.639  3.1430 -0.8776 -0.0195
 2382SOL    HW3 9295   2.991   1.765   5.540  0.8998  0.2015 -1.9767
 2382SOL    MW4 9296   2.949   1.838   5.562  0.1374 -0.1796  0.6284
 2383SOL     OW 9297   1.714   3.461   4.242 -0.1237 -0.2152 -0.3879
 2383SOL    HW2 9298   1.793   3.410   4.259  0.6160  1.0969  0.3593
 2383SOL    HW3 9299   1.680   3.427   4.159  0.2733 -1.9300  0.1212
 2383SOL    MW4 9300   1.720   3.450   4.233  0.1467  0.0174 -0.2259
 2384SOL     OW 9301   3.566   4.361   2.339 -0.2624 -0.1809 -0.1874
 2384SOL    HW2 9302   3.527   4.357   2.251 -2.2604 -1.5870  0.6754
 2384SOL    HW3 9303   3.660   4.368   2.323 -0.4854 -1.3456 -2.4542
 2384SOL    MW4 9304   3.573   4.361   2.325 -1.1126  0.0298 -0.3892
 2385SOL     OW 9305   5.401   0.604   1.769  0.0307  0.2783 -0.8398
 2385SOL    HW2 9306   5.452   0.571   1.695  0.8628  1.7874 -0.9720
 2385SOL    HW3 9307   5.419   0.697   1.772  0.7033  0.1483  1.8041
 2385SOL    MW4 9308   5.410   0.612   1.760 -0.2021  0.0946  0.0275
 2386SOL     OW 9309   5.890   0.130   0.510  0.4832 -0.1212 -0.3572
 2386SOL    HW2 9310   5.963   0.099   0.563 -0.0920 -0.5693  0.1791
 2386SOL    HW3 9311   5.909   0.098   0.422  0.4955 -0.9676 -0.0498
 2386SOL    MW4 9312   5.902   0.122   0.505  0.5406  0.2072 -0.3897
 2387SOL     OW 9313   5.378   0.802   5.489  0.2243 -0.3479  0.9063
 2387SOL    HW2 9314   5.418   0.889   5.498  0.8813 -0.5199 -0.2488
 2387SOL    HW3 9315   5.302   0.816   5.433  1.1633 -0.7429 -0.5052
 2387SOL    MW4 9316   5.373   0.815   5.483  0.0294  0.4623 -0.1045
 2388SOL     OW 9317   2.771   2.573   2.222 -0.2234 -0.2916 -0.3352
 2388SOL    HW2 9318   2.721   2.512   2.276  1.0264 -1.9000 -0.8894
 2388SOL    HW3 9319   2.846   2.521   2.190  0.0910  1.1112 -2.0705
 2388SOL    MW4 9320   2.775   2.558   2.225 -0.0757 -0.0062 -0.5662
 2389SOL     OW 9321   1.617   4.593   4.001  0.1042  0.7894  0.5286
 2389SOL    HW2 9322   1.582   4.609   3.913 -1.1692 -1.5157  0.5509
 2389SOL    HW3 9323   1.638   4.500   4.002  2.6665  1.2784  1.8522
 2389SOL    MW4 9324   1.616   4.583   3.990  0.1137  0.1184 -0.0604
 2390SOL     OW 9325   0.600   1.655   3.465  0.3721  0.1335  0.0319
 2390SOL    HW2 9326   0.527   1.711   3.490 -1.2175 -1.6926 -0.2214
 2390SOL    HW3 9327   0.627   1.687   3.379 -0.0700  0.9002  0.1768
 2390SOL    MW4 9328   0.594   1.666   3.457  0.4799  0.1121  0.3764
 2391SOL     OW 9329   5.909   2.970   0.116 -0.3769 -0.5027 -0.8580
 2391SOL    HW2 9330   5.829   3.000   0.073 -0.8176 -2.0102 -1.1551
 2391SOL    HW3 9331   5.980   3.005   0.062 -0.7575  1.7925  0.0276
 2391SOL    MW4 9332   5.908   2.978   0.103  0.2945  0.2447  0.2687
 2392SOL     OW 9333   2.335   4.589   1.856 -0.1571 -0.2563 -0.5932
 2392SOL    HW2 9334   2.328   4.653   1.785  1.6767 -0.2521 -0.8169
 2392SOL    HW3 9335   2.288   4.630   1.930 -1.7224 -0.0796 -1.6307
 2392SOL    MW4 9336   2.328   4.603   1.857 -0.0977 -0.1880  0.4529
 2393SOL     OW 9337   4.436   6.030   0.590 -0.1639 -0.0430  0.7326
 2393SOL    HW2 9338   4.422   6.122   0.569  0.6096 -0.3015 -1.0953
 2393SOL    HW3 9339   4.368   5.983   0.542 -0.1142 -0.4745  1.0710
 2393SOL    MW4 9340   4.425   6.036   0.581 -0.0125 -0.3809 -0.0681
 2394SOL     OW 9341   1.673   5.194   5.371 -0.2997 -0.0430 -0.1862
 2394SOL    HW2 9342   1.750   5.212   5.425 -1.1050 -0.0240  1.0034
 2394SOL    HW3 9343   1.622   5.275   5.373 -0.4835 -0.1412 -0.7360
 2394SOL    MW4 9344   1.676   5.207   5.379 -0.0961 -0.1848  0.2646
 2395SOL     OW 9345   5.504   4.065   3.596  0.1435 -0.0773 -0.4540
 2395SOL    HW2 9346   5.481   3.974   3.619 -0.8543  0.6724  1.8205
 2395SOL    HW3 9347   5.444   4.088   3.526  0.2251 -1.0946 -0.8712
 2395SOL    MW4 9348   5.493   4.056   3.590 -0.0469 -0.2662 -0.2919
 2396SOL     OW 9349   2.558   0.539   2.447  0.0986 -0.5757 -0.1678
 2396SOL    HW2 9350   2.534   0.623   2.486  2.9725 -0.1327  0.9434
 2396SOL    HW3 9351   2.626   0.505   2.505 -1.3161 -3.9590 -0.3203
 2396SOL    MW4 9352   2.564   0.546   2.460  0.0935 -0.0645  0.3056
 2397SOL     OW 9353   5.485   3.363   6.269 -0.3512 -0.2364  0.0265
 2397SOL    HW2 9354   5.465   3.428   6.201 -0.4775  0.9458  1.1506
 2397SOL    HW3 9355   5.502   3.282   6.221 -1.4652  0.3088 -1.3391
 2397SOL    MW4 9356   5.485   3.361   6.254 -0.5080  0.0190  0.0993
 2398SOL     OW 9357   6.300   6.279   3.757 -0.4433  0.0113 -0.2934
 2398SOL    HW2 9358   6.278   6.327   3.677 -1.7469 -1.1625 -0.6794
 2398SOL    HW3 9359   6.221   6.287   3.812  0.5398  1.0607  1.0409
 2398SOL    MW4 9360   6.286   6.286   3.754  0.4456 -0.0050  0.2984
 2399SOL     OW 9361   5.716   2.367   5.185  0.1113  0.1494  0.3201
 2399SOL    HW2 9362   5.766   2.362   5.103  0.0105  0.3783  0.2436
 2399SOL    HW3 9363   5.768   2.317   5.248 -0.0468 -0.4305 -0.0021
 2399SOL    MW4 9364   5.730   2.359   5.182  0.8690  0.5082  0.1754
 2400SOL     OW 9365   1.728   0.124   6.224 -0.1081 -0.5360  0.1630
 2400SOL    HW2 9366   1.804   0.102   6.276 -0.2593 -1.4967 -0.0143
 2400SOL    HW3 9367   1.728   0.220   6.221  1.4815 -0.5262 -0.4194
 2400SOL    MW4 9368   1.738   0.134   6.230  0.0186 -0.4472 -0.3586
 2401SOL     OW 9369   6.244   3.140   4.858 -0.0078  0.2621  0.2762
 2401SOL    HW2 9370   6.279   3.205   4.918  0.1063  1.8455 -1.4115
 2401SOL    HW3 9371   6.151   3.161   4.850  0.3985  1.5823 -1.7934
 2401SOL    MW4 9372   6.237   3.151   4.865 -0.1182 -0.3224 -0.4218
 2402SOL     OW 9373   2.613   5.312   4.551  0.1825  0.4420  0.9206
 2402SOL    HW2 9374   2.685   5.368   4.523 -0.3808  0.0246 -1.6487
 2402SOL    HW3 9375   2.554   5.309   4.475 -2.2048  0.1845  2.6502
 2402SOL    MW4 9376   2.614   5.319   4.537  0.2451  0.1968 -0.1249
 2403SOL     OW 9377   5.762   2.837   3.479 -0.2201 -0.0000  0.2915
 2403SOL    HW2 9378   5.746   2.920   3.434  0.8191 -0.3085 -0.7111
 2403SOL    HW3 9379   5.844   2.851   3.526  0.3253 -0.6389 -0.4339
 2403SOL    MW4 9380   5.771   2.850   3.479 -0.2079  0.3908 -0.0428
 2404SOL     OW 9381   6.002   4.278   5.647  0.1216  0.6492 -0.4279
 2404SOL    HW2 9382   6.091   4.247   5.639  0.4460  1.5340 -0.3916
 2404SOL    HW3 9383   5.972   4.290   5.557 -0.3848 -0.7719 -0.4710
 2404SOL    MW4 9384   6.009   4.276   5.634 -0.4196  0.1544 -0.1976
 2405SOL     OW 9385   5.670   2.341   0.438  0.1316  0.3623  0.0006
 2405SOL    HW2 9386   5.601   2.362   0.501 -0.0108 -1.9645  0.7389
 2405SOL    HW3 9387   5.698   2.253   0.463  2.3011  0.6387 -1.2559
 2405SOL    MW4 9388   5.665   2.332   0.449 -0.2714  0.6912  0.0159
 2406SOL     OW 9389   3.516   4.366   0.097 -0.1827 -0.4165  0.6677
 2406SOL    HW2 9390   3.438   4.380   0.043  0.1771 -0.5746  0.0890
 2406SOL    HW3 9391   3.527   4.271   0.099 -0.5186 -0.4392  1.5012
 2406SOL    MW4 9392   3.507   4.355   0.090  0.1244 -0.1113 -0.4030
 2407SOL     OW 9393   3.128   3.005   3.567  0.0087  0.2236  0.2073
 2407SOL    HW2 9394   3.171   3.079   3.611  0.6314 -0.4192  0.7031
 2407SOL    HW3 9395   3.038   3.006   3.600  0.2395  0.2622  0.8349
 2407SOL    MW4 9396   3.122   3.015   3.577 -0.8101 -0.0911 -0.7624
 2408SOL     OW 9397   2.733   6.242   3.061 -0.5489  1.0555  0.0544
 2408SOL    HW2 9398   2.809   6.214   3.011  0.0820  0.8502  1.0930
 2408SOL    HW3 9399   2.677   6.164   3.066  1.3695 -0.3045  3.2519
 2408SOL    MW4 9400   2.735   6.228   3.055 -0.2768  0.1865 -0.1777
 2409SOL     OW 9401   4.665   2.427   5.396 -0.3789 -0.0827 -0.4059
 2409SOL    HW2 9402   4.609   2.379   5.334 -3.0735  1.4804  0.6498
 2409SOL    HW3 9403   4.624   2.513   5.405  0.2014 -0.0131  3.0593
 2409SOL    MW4 9404   4.652   2.432   5.389  0.5152  0.1096  0.1919
 2410SOL     OW 9405   2.980   5.254   3.284  0.3715 -0.0240  0.2577
 2410SOL    HW2 9406   2.969   5.223   3.374 -1.3050  0.1693  0.1428
 2410SOL    HW3 9407   3.038   5.330   3.293 -0.9428  0.9016  1.3832
 2410SOL    MW4 9408   2.986   5.260   3.297  0.7589  0.3664 -0.0798
 2411SOL     OW 9409   1.412   1.942   0.061  0.3108  0.1403  0.2689
 2411SOL    HW2 9410   1.323   1.906   0.067 -0.5633  2.1071 -0.2921
 2411SOL    HW3 9411   1.439   1.923  -0.029 -1.1571  2.9129 -0.8886
 2411SOL    MW4 9412   1.404   1.934   0.050  0.0209 -0.1068  0.5100
 2412SOL     OW 9413   1.973   6.111   5.175 -0.0701 -0.1391  0.0544
 2412SOL    HW2 9414   1.992   6.071   5.260 -0.1944  1.5626  0.9408
 2412SOL    HW3 9415   1.896   6.064   5.143  0.6581 -1.5767  0.3102
 2412SOL    MW4 9416   1.965   6.100   5.182 -0.2870 -0.0301  0.3138
 2413SOL     OW 9417   3.315   1.489   0.056  0.1015 -0.1553 -0.0258
 2413SOL    HW2 9418   3.406   1.459   0.059 -0.1738 -1.4627 -2.4737
 2413SOL    HW3 9419   3.263   1.409   0.051 -1.1762  0.6010  0.6329
 2413SOL    MW4 9420   3.320   1.475   0.056  0.3644 -0.5156 -0.3204
 2414SOL     OW 9421   3.891   2.062   6.201 -0.5866 -0.1029 -0.6493
 2414SOL    HW2 9422   3.974   2.015   6.208 -0.7055 -0.4020 -1.2089
 2414SOL    HW3 9423   3.824   1.994   6.207 -0.7306 -0.4432 -4.3802
 2414SOL    MW4 9424   3.893   2.047   6.203 -0.1129  0.0942 -0.5859
 2415SOL     OW 9425   5.229   0.823   3.218 -0.4699 -0.4190  0.3569
 2415SOL    HW2 9426   5.242   0.730   3.198  0.4058 -0.5436  1.4174
 2415SOL    HW3 9427   5.215   0.864   3.132 -0.6987 -1.4953 -0.1428
 2415SOL    MW4 9428   5.229   0.816   3.204  0.3223 -0.2045 -0.2454
 2416SOL     OW 9429   0.162   4.599   2.629 -0.1880  0.1051  0.7076
 2416SOL    HW2 9430   0.127   4.525   2.678 -0.9124 -0.3523 -0.4536
 2416SOL    HW3 9431   0.086   4.640   2.588  0.3717  0.5521  0.0836
 2416SOL    MW4 9432   0.148   4.594   2.630 -0.5213 -0.4630  0.6763
 2417SOL     OW 9433   4.454   0.748   5.034  0.5068 -0.2035 -0.2611
 2417SOL    HW2 9434   4.438   0.720   4.944  2.0961 -1.7145 -0.1277
 2417SOL    HW3 9435   4.402   0.688   5.088 -2.9469  2.5808 -0.1266
 2417SOL    MW4 9436   4.445   0.736   5.030  0.3414 -0.0631  0.0633
 2418SOL     OW 9437   0.278   2.576   5.705  0.0771 -0.2714 -0.4925
 2418SOL    HW2 9438   0.370   2.602   5.699  0.3674 -0.8198  1.0561
 2418SOL    HW3 9439   0.230   2.648   5.666  1.0628  0.9512  0.4638
 2418SOL    MW4 9440   0.284   2.589   5.699  0.0506  0.2976 -0.1438
 2419SOL     OW 9441   2.842   0.653   0.629  0.1410  0.0712  0.1347
 2419SOL    HW2 9442   2.911   0.598   0.666  0.2337 -0.2442 -0.5013
 2419SOL    HW3 9443   2.765   0.634   0.683  0.1376 -0.7920 -0.1610
 2419SOL    MW4 9444   2.841   0.643   0.641  0.1928  0.0307 -0.2226
 2420SOL     OW 9445   1.759   0.311   1.010 -0.1397  0.5645  0.4608
 2420SOL    HW2 9446   1.828   0.373   1.035 -0.3912  0.7421  0.7175
 2420SOL    HW3 9447   1.708   0.299   1.090 -0.2024  0.1691  0.3614
 2420SOL    MW4 9448   1.762   0.318   1.024  0.1687  0.5793 -0.1163
 2421SOL     OW 9449   6.190   0.057   5.072  0.2749 -0.4649  0.8718
 2421SOL    HW2 9450   6.260  -0.008   5.077  0.3417 -0.3170  2.0633
 2421SOL    HW3 9451   6.235   0.142   5.076  0.1636 -0.3270 -0.3690
 2421SOL    MW4 9452   6.205   0.060   5.073 -0.1928  0.6844 -0.4771
 2422SOL     OW 9453   2.347   1.912   1.180  0.3594  0.7171 -0.1338
 2422SOL    HW2 9454   2.424   1.906   1.237 -0.0521  1.5797  0.5412
 2422SOL    HW3 9455   2.291   1.976   1.223 -0.6139  0.3085 -0.7695
 2422SOL    MW4 9456   2.350   1.920   1.193 -0.3739  0.5705 -0.0771
 2423SOL     OW 9457   0.848   2.749   3.438  0.7993 -0.2669  0.2032
 2423SOL    HW2 9458   0.870   2.840   3.421 -0.0478 -0.3448 -1.5237
 2423SOL    HW3 9459   0.761   2.752   3.479  0.9522 -0.2919  0.5361
 2423SOL    MW4 9460   0.839   2.761   3.441  0.0377 -0.1990  0.6863
 2424SOL     OW 9461   3.232   0.566   5.407 -0.2303  0.1906  0.1318
 2424SOL    HW2 9462   3.222   0.657   5.432 -1.2139  0.2120 -0.3246
 2424SOL    HW3 9463   3.252   0.568   5.314  0.8285 -0.0202  0.3382
 2424SOL    MW4 9464   3.233   0.578   5.398  0.3717 -0.5738 -0.3906
 2425SOL     OW 9465   4.463   4.465   0.973 -0.3665 -0.1695 -0.5789
 2425SOL    HW2 9466   4.528   4.403   1.005 -1.5044 -2.2353 -2.0647
 2425SOL    HW3 9467   4.491   4.487   0.885 -0.0198  1.4696 -0.1090
 2425SOL    MW4 9468   4.475   4.460   0.966  0.2835  0.1775  0.3619
 2426SOL     OW 9469   0.172   4.844   1.742  0.1092  1.0263 -0.5631
 2426SOL    HW2 9470   0.205   4.890   1.665  0.7803  0.1216 -0.8356
 2426SOL    HW3 9471   0.194   4.752   1.726  0.1729  0.8151  0.6707
 2426SOL    MW4 9472   0.179   4.838   1.730 -0.5790 -0.1921  0.5024
 2427SOL     OW 9473   4.499   3.416   2.294  0.2776 -0.1697  0.3441
 2427SOL    HW2 9474   4.470   3.450   2.379  0.1962 -1.3742  0.8270
 2427SOL    HW3 9475   4.586   3.455   2.280 -0.0309  0.6329  0.6048
 2427SOL    MW4 9476   4.507   3.426   2.303  0.5215 -0.2087 -0.3345
 2428SOL     OW 9477   2.202   5.214   1.493 -0.0486  0.0490  0.4618
 2428SOL    HW2 9478   2.146   5.136   1.494 -1.3482  0.9397  0.5057
 2428SOL    HW3 9479   2.264   5.200   1.565 -1.4034 -0.1706  1.6469
 2428SOL    MW4 9480   2.203   5.201   1.503 -0.0095 -0.3909 -0.6128
 2429SOL     OW 9481   4.618   1.813   5.732  0.0015 -0.4285 -0.1665
 2429SOL    HW2 9482   4.606   1.825   5.638  0.3174  2.3575  0.0684
 2429SOL    HW3 9483   4.569   1.733   5.752 -1.0434 -0.4588 -2.4883
 2429SOL    MW4 9484   4.610   1.804   5.722  0.2771 -0.1997  0.5174
 2430SOL     OW 9485   1.224   3.921   4.191  0.4377  0.8116 -0.1182
 2430SOL    HW2 9486   1.208   3.897   4.100 -0.1187  0.2781  0.1147
 2430SOL    HW3 9487   1.145   3.892   4.237  0.8481  0.7991  0.5802
 2430SOL    MW4 9488   1.212   3.914   4.185 -0.4363 -0.1915  0.3424
 2431SOL     OW 9489   6.014   0.705   1.128  0.4353 -0.5910  0.6430
 2431SOL    HW2 9490   6.101   0.665   1.129  1.0636  0.5420 -1.5703
 2431SOL    HW3 9491   5.964   0.653   1.065  0.2881  0.1879  0.0981
 2431SOL    MW4 9492   6.019   0.693   1.119  0.2763  0.1201  0.5513
 2432SOL     OW 9493   2.702   4.690   5.249 -0.3172 -0.4851 -0.4691
 2432SOL    HW2 9494   2.765   4.761   5.236 -1.3011  0.7441  1.0172
 2432SOL    HW3 9495   2.647   4.692   5.171 -0.0684  0.1116 -0.6380
 2432SOL    MW4 9496   2.703   4.700   5.237 -0.3021  0.2115 -0.5485
 2433SOL     OW 9497   0.710   3.176   2.899 -0.6173 -0.4546  0.1897
 2433SOL    HW2 9498   0.688   3.233   2.825 -0.7688 -0.1223  0.4838
 2433SOL    HW3 9499   0.688   3.228   2.976  0.3502 -0.4605  0.4876
 2433SOL    MW4 9500   0.704   3.191   2.900  0.1159  0.0162  0.3979
 2434SOL     OW 9501   3.439   0.931   4.371  0.4210  0.8540 -0.4708
 2434SOL    HW2 9502   3.398   0.848   4.347  1.7119 -0.3048  1.1423
 2434SOL    HW3 9503   3.365   0.990   4.389 -0.5227 -0.4600  0.0576
 2434SOL    MW4 9504   3.424   0.928   4.370  0.0086  0.3205 -0.1093
 2435SOL     OW 9505   5.932   0.291   1.207  0.3741  0.1140 -0.1919
 2435SOL    HW2 9506   5.900   0.366   1.158 -2.0378  0.2716  1.4596
 2435SOL    HW3 9507   5.864   0.225   1.197  1.4148 -1.0632  0.2261
 2435SOL    MW4 9508   5.919   0.292   1.199 -0.2445 -0.7508 -0.0275
 2436SOL     OW 9509   2.642   2.477   6.338  0.0712  0.0847  0.2174
 2436SOL    HW2 9510   2.590   2.405   6.303 -0.4580 -0.8846  2.7660
 2436SOL    HW3 9511   2.581   2.552   6.339  0.5463  0.5752 -2.1905
 2436SOL    MW4 9512   2.627   2.478   6.334 -0.4467 -0.1086 -0.5893
 2437SOL     OW 9513   2.130   0.787   1.141 -0.6422 -0.5053 -0.2182
 2437SOL    HW2 9514   2.143   0.726   1.069  1.2023  1.1417 -1.3703
 2437SOL    HW3 9515   2.195   0.761   1.207 -0.7247 -0.5585 -0.1570
 2437SOL    MW4 9516   2.140   0.775   1.140 -0.4138 -0.3988 -0.3891
 2438SOL     OW 9517   5.729   2.072   0.491  0.2028 -0.5379 -0.3686
 2438SOL    HW2 9518   5.730   2.035   0.579  1.6548  2.0848  0.8313
 2438SOL    HW3 9519   5.820   2.068   0.462 -0.0347 -0.1770 -1.2047
 2438SOL    MW4 9520   5.741   2.066   0.499  0.0944 -0.0871  0.4785
 2439SOL     OW 9521   6.404   3.691   6.266 -0.0617  0.2740  0.9548
 2439SOL    HW2 9522   6.447   3.653   6.343 -0.4684 -1.3217  0.4221
 2439SOL    HW3 9523   6.359   3.618   6.225 -1.6349  1.5185  0.3690
 2439SOL    MW4 9524   6.404   3.676   6.271  0.2486  0.5510  0.2710
 2440SOL     OW 9525   0.412   1.042   1.875 -0.7430  0.7967 -0.5919
 2440SOL    HW2 9526   0.325   1.040   1.916 -0.9875  0.0716 -1.1359
 2440SOL    HW3 9527   0.472   1.058   1.948 -1.1972 -0.1321 -0.0010
 2440SOL    MW4 9528   0.408   1.044   1.890  0.1602 -0.0495 -0.3303
 2441SOL     OW 9529   6.190   1.060   3.903 -0.2516 -0.2426 -0.4090
 2441SOL    HW2 9530   6.130   1.127   3.936  0.1037  0.8362 -1.8284
 2441SOL    HW3 9531   6.203   1.083   3.811  0.2542 -2.0189 -0.8219
 2441SOL    MW4 9532   6.184   1.072   3.895 -0.7390 -0.6217 -0.2836
 2442SOL     OW 9533   3.096   5.062   0.517  0.0967  0.5995  0.5355
 2442SOL    HW2 9534   3.025   5.067   0.582  0.5738 -1.2635  1.2765
 2442SOL    HW3 9535   3.120   4.969   0.516  0.9355  0.7946 -1.4456
 2442SOL    MW4 9536   3.089   5.050   0.525 -0.2067  0.2812  0.5913
 2443SOL     OW 9537   1.153   0.517   4.992  0.4014 -0.3548  0.0802
 2443SOL    HW2 9538   1.224   0.578   4.971  2.1314 -2.4649 -0.6621
 2443SOL    HW3 9539   1.084   0.537   4.928  0.9724  0.7329 -0.2145
 2443SOL    MW4 9540   1.153   0.527   4.981 -0.1427  0.3874  0.0282
 2444SOL     OW 9541   1.704   5.271   5.734 -0.2726 -0.3571 -0.7386
 2444SOL    HW2 9542   1.655   5.212   5.791  0.3733 -0.1336  0.0710
 2444SOL    HW3 9543   1.639   5.304   5.672 -1.2665  0.2740  0.5739
 2444SOL    MW4 9544   1.689   5.268   5.734  0.3982 -0.7077 -0.0933
 2445SOL     OW 9545   5.067   4.132   3.660 -0.7260  0.1479  0.2099
 2445SOL    HW2 9546   5.030   4.046   3.680 -0.5186  0.5079  2.4050
 2445SOL    HW3 9547   5.145   4.139   3.715 -1.2942  2.1006  0.8667
 2445SOL    MW4 9548   5.072   4.121   3.670  0.3174 -0.2735 -0.3717
 2446SOL     OW 9549   2.456   4.055   4.199  0.1767  0.6705  0.1371
 2446SOL    HW2 9550   2.409   4.139   4.192 -0.2863  0.4235  0.2572
 2446SOL    HW3 9551   2.402   3.993   4.149 -0.9916 -0.1833  2.3327
 2446SOL    MW4 9552   2.442   4.058   4.191  0.4355 -0.3604  0.2863
 2447SOL     OW 9553   4.712   5.985   4.925  0.0939  0.0160 -0.5524
 2447SOL    HW2 9554   4.639   5.959   4.981  0.4446  0.1952  0.0016
 2447SOL    HW3 9555   4.677   5.982   4.836 -1.2391  2.0889 -0.1823
 2447SOL    MW4 9556   4.698   5.981   4.920  0.7173  0.0828 -0.1318
 2448SOL     OW 9557   3.352   2.258   3.606 -0.3874  0.0234  0.5971
 2448SOL    HW2 9558   3.333   2.228   3.517 -0.2562  2.4892 -0.3530
 2448SOL    HW3 9559   3.266   2.280   3.643 -0.3354  0.2721  0.5729
 2448SOL    MW4 9560   3.338   2.257   3.599  0.2637  0.0487 -0.5260
 2449SOL     OW 9561   3.004   1.494   4.831 -0.6185 -0.0615 -0.3145
 2449SOL    HW2 9562   3.024   1.580   4.868 -0.8173  0.0780 -0.5277
 2449SOL    HW3 9563   3.020   1.433   4.902  0.2198  0.0831 -0.3696
 2449SOL    MW4 9564   3.009   1.497   4.845 -0.1897 -0.1628 -0.1981
 2450SOL     OW 9565   3.165   0.444   2.657  0.0341 -0.0856  0.1229
 2450SOL    HW2 9566   3.109   0.470   2.584 -0.4769  0.2162  0.6163
 2450SOL    HW3 9567   3.220   0.374   2.622  0.3381  0.5861 -0.7784
 2450SOL    MW4 9568   3.165   0.438   2.643 -0.0202 -0.3192 -0.1562
 2451SOL     OW 9569   6.087   3.710   1.177  0.7036  0.2422  0.1059
 2451SOL    HW2 9570   6.001   3.746   1.153 -0.3679 -1.9112  0.4316
 2451SOL    HW3 9571   6.097   3.731   1.270  0.2708  0.0658  0.1960
 2451SOL    MW4 9572   6.077   3.717   1.186 -0.0123  0.2667 -0.3007
 2452SOL     OW 9573   4.025   3.120   2.561  1.0960  0.3316 -0.5048
 2452SOL    HW2 9574   3.985   3.201   2.592  1.1079  0.7253 -1.4797
 2452SOL    HW3 9575   3.979   3.100   2.479  2.4877  0.4893 -1.3524
 2452SOL    MW4 9576   4.014   3.128   2.554 -0.1663 -0.4806 -0.3241
 2453SOL     OW 9577   5.542   2.936   4.275  0.3748  0.5077 -0.1626
 2453SOL    HW2 9578   5.522   2.997   4.204 -0.5438  0.6779  0.2176
 2453SOL    HW3 9579   5.456   2.913   4.312  0.7957  0.0198  0.5578
 2453SOL    MW4 9580   5.528   2.941   4.271  0.0130  0.0126  0.1246
 2454SOL     OW 9581   0.871   6.379   2.668  0.2680  0.4265 -0.1882
 2454SOL    HW2 9582   0.778   6.387   2.648  0.5249  0.2248 -1.5325
 2454SOL    HW3 9583   0.908   6.465   2.647  0.4161  0.4566  0.1878
 2454SOL    MW4 9584   0.864   6.391   2.663 -0.9922  0.0961 -0.3137
 2455SOL     OW 9585   5.563   5.214   1.998  0.5965  0.0879  0.1547
 2455SOL    HW2 9586   5.624   5.227   1.926 -0.8143 -0.2065 -1.1478
 2455SOL    HW3 9587   5.548   5.301   2.035  0.6765  0.3618 -0.4621
 2455SOL    MW4 9588   5.569   5.227   1.994 -0.4420 -0.9134  0.4978
 2456SOL     OW 9589   6.365   5.628   2.894  0.2166  0.5629  0.1187
 2456SOL    HW2 9590   6.324   5.560   2.841 -0.3124 -0.8047  2.1947
 2456SOL    HW3 9591   6.302   5.700   2.893 -2.0103 -1.1715  2.5230
 2456SOL    MW4 9592   6.351   5.629   2.887  0.1439  0.2544 -0.0555
 2457SOL     OW 9593   4.444   5.536   3.007  0.7738 -0.1660 -0.2374
 2457SOL    HW2 9594   4.524   5.518   2.958  0.4766  0.0707 -0.8246
 2457SOL    HW3 9595   4.390   5.457   2.995 -0.2174  0.7390 -2.1811
 2457SOL    MW4 9596   4.447   5.523   2.999 -0.0496 -0.0222  0.5660
 2458SOL     OW 9597   4.315   3.720   4.684 -0.4542  0.0864  0.4729
 2458SOL    HW2 9598   4.281   3.810   4.691 -1.6145 -0.2899  0.0042
 2458SOL    HW3 9599   4.364   3.707   4.765 -2.2011  0.3918  1.6578
 2458SOL    MW4 9600   4.317   3.730   4.696  0.0858 -0.5334 -0.3023
 2459SOL     OW 9601   0.818   5.786   5.849 -0.2252 -0.2022 -0.2203
 2459SOL    HW2 9602   0.839   5.775   5.756 -0.6521  0.0244 -0.3442
 2459SOL    HW3 9603   0.859   5.711   5.892  1.2098  0.4434 -0.4013
 2459SOL    MW4 9604   0.827   5.774   5.842 -0.2605 -0.1477  0.3392
 2460SOL     OW 9605   5.880   2.091   4.191  0.4735  0.0566 -0.4910
 2460SOL    HW2 9606   5.968   2.095   4.155  0.1888  1.0951 -1.1240
 2460SOL    HW3 9607   5.823   2.077   4.116  0.0730 -0.4574 -0.1063
 2460SOL    MW4 9608   5.884   2.090   4.177  0.1282  0.1249  0.1478
 2461SOL     OW 9609   1.812   5.663   0.346 -0.2695 -0.1627  0.2682
 2461SOL    HW2 9610   1.790   5.626   0.261  1.6457 -1.1077  0.1149
 2461SOL    HW3 9611   1.777   5.600   0.409  0.7134 -0.9485  0.0673
 2461SOL    MW4 9612   1.804   5.650   0.343  0.2764  0.1167  0.6376
 2462SOL     OW 9613   2.239   4.458   2.227  0.0621  0.4183 -0.2446
 2462SOL    HW2 9614   2.199   4.477   2.312  1.3915 -0.8826  0.7287
 2462SOL    HW3 9615   2.165   4.455   2.166 -1.1366 -0.2005  1.1688
 2462SOL    MW4 9616   2.224   4.460   2.230 -0.1241 -0.1925  1.2587
 2463SOL     OW 9617   6.121   1.763   3.635  0.5841  0.0691 -0.0404
 2463SOL    HW2 9618   6.145   1.686   3.687  1.8881  0.0644 -0.6001
 2463SOL    HW3 9619   6.047   1.801   3.681  1.2886 -0.2876  1.4711
 2463SOL    MW4 9620   6.115   1.758   3.648  0.2369 -0.6851 -0.4588
 2464SOL     OW 9621   5.067   5.340   2.257  0.0900  0.3320  0.5026
 2464SOL    HW2 9622   5.010   5.388   2.197  0.9238 -0.9548 -1.3911
 2464SOL    HW3 9623   5.039   5.369   2.344 -1.1454  2.2742 -0.4725
 2464SOL    MW4 9624   5.056   5.350   2.261 -0.0005 -0.1773 -0.6705
 2465SOL     OW 9625   2.586   4.924   4.955  0.0978 -0.4103 -0.0888
 2465SOL    HW2 9626   2.550   4.960   4.874 -0.0637 -0.2098  0.0718
 2465SOL    HW3 9627   2.555   4.983   5.023 -0.6572 -1.1652  0.2395
 2465SOL    MW4 9628   2.577   4.936   4.953  0.3221 -0.3251 -0.4058
 2466SOL     OW 9629   0.087   5.986   4.345 -0.1384  0.3557 -0.0493
 2466SOL    HW2 9630   0.057   5.919   4.283 -0.7404  0.3622  0.2302
 2466SOL    HW3 9631   0.085   6.068   4.294  0.8400  0.1317 -0.4634
 2466SOL    MW4 9632   0.083   5.988   4.330  0.2328 -1.3292 -0.5490
 2467SOL     OW 9633   4.487   2.058   5.792  0.0157  0.6433  0.2838
 2467SOL    HW2 9634   4.405   2.031   5.833  0.5530  0.1896  1.0646
 2467SOL    HW3 9635   4.528   1.976   5.764  0.0226  0.8968 -0.4606
 2467SOL    MW4 9636   4.481   2.044   5.794  0.0143  0.1813  0.1825
 2468SOL     OW 9637   6.208   2.503   4.331 -0.2839  0.0109 -0.2829
 2468SOL    HW2 9638   6.263   2.554   4.272 -0.5045  2.9727  1.8612
 2468SOL    HW3 9639   6.210   2.551   4.413 -3.6930 -1.3693  0.7905
 2468SOL    MW4 9640   6.215   2.516   4.334  0.3067 -0.7852 -0.1557
 2469SOL     OW 9641   2.347   2.122   4.010 -0.4051 -0.2960 -0.2527
 2469SOL    HW2 9642   2.390   2.120   4.095  0.1265 -1.0720 -0.5290
 2469SOL    HW3 9643   2.279   2.188   4.019 -0.3559 -0.3728  0.7739
 2469SOL    MW4 9644   2.344   2.131   4.022 -0.0800 -0.3727 -0.8049
 2470SOL     OW 9645   1.760   6.397   2.700 -0.2632 -0.0914 -0.0236
 2470SOL    HW2 9646   1.747   6.443   2.617 -0.6751  1.4165  0.8284
 2470SOL    HW3 9647   1.841   6.433   2.735 -1.1485  0.8608  1.1701
 2470SOL    MW4 9648   1.769   6.408   2.694 -0.0256  0.3762  0.3569
 2471SOL     OW 9649   1.701   1.699   2.714 -0.4239  0.3237  0.0053
 2471SOL    HW2 9650   1.715   1.637   2.785 -1.8094 -1.9838 -1.5896
 2471SOL    HW3 9651   1.776   1.757   2.718  0.5075 -0.9105  2.1439
 2471SOL    MW4 9652   1.713   1.698   2.724 -0.3483  0.3970 -0.1329
 2472SOL     OW 9653   0.683   5.836   5.195  0.1949 -0.3764  0.5496
 2472SOL    HW2 9654   0.719   5.754   5.228  0.7525 -0.0885  0.6754
 2472SOL    HW3 9655   0.761   5.888   5.171 -0.1604 -0.8216 -1.8493
 2472SOL    MW4 9656   0.698   5.832   5.196  0.4074 -0.8436 -0.5848
 2473SOL     OW 9657   2.484   4.166   0.310 -0.0043 -0.0699  0.5914
 2473SOL    HW2 9658   2.470   4.245   0.362  0.5243  0.0137  0.6162
 2473SOL    HW3 9659   2.526   4.104   0.370  1.2974  0.2860  0.0982
 2473SOL    MW4 9660   2.488   4.168   0.325  0.2163  0.1805  0.3420
 2474SOL     OW 9661   2.162   5.550   3.166  0.0425  0.0373  0.0588
 2474SOL    HW2 9662   2.154   5.468   3.215  0.5806  0.3764  0.7439
 2474SOL    HW3 9663   2.193   5.613   3.231  0.9372  0.4659 -0.7528
 2474SOL    MW4 9664   2.165   5.547   3.181 -0.0977  0.0743  0.0677
 2475SOL     OW 9665   3.206   3.146   0.404  0.4506 -0.4458  1.1476
 2475SOL    HW2 9666   3.162   3.061   0.403  1.1131 -0.7905  0.7401
 2475SOL    HW3 9667   3.140   3.207   0.438 -1.0508 -0.5894 -1.2354
 2475SOL    MW4 9668   3.191   3.143   0.408 -0.0106 -0.0825 -0.2007
 2476SOL     OW 9669   1.738   3.065   0.979  0.4541 -0.7834  0.4938
 2476SOL    HW2 9670   1.825   3.023   0.979 -1.2170 -4.7345 -0.6329
 2476SOL    HW3 9671   1.730   3.104   0.893  1.1821 -0.0796  0.7247
 2476SOL    MW4 9672   1.749   3.064   0.968 -0.0353  0.2384  0.3173
 2477SOL     OW 9673   0.201   3.497   2.988  0.1473 -0.1265  0.0330
 2477SOL    HW2 9674   0.224   3.410   3.021 -1.0971 -0.3723  0.3291
 2477SOL    HW3 9675   0.153   3.538   3.060 -1.6094 -0.2332 -1.0154
 2477SOL    MW4 9676   0.198   3.491   3.002  0.0213 -0.0779 -0.4704
 2478SOL     OW 9677   0.748   0.416   0.955 -0.1311 -0.2160  0.6984
 2478SOL    HW2 9678   0.780   0.325   0.952 -1.2863 -0.6112 -0.0573
 2478SOL    HW3 9679   0.730   0.438   0.864 -0.7450  0.4599  0.9788
 2478SOL    MW4 9680   0.750   0.407   0.943  0.5753 -0.0823 -0.2301
 2479SOL     OW 9681   3.706   5.348   4.346 -0.2748 -0.0060 -0.5696
 2479SOL    HW2 9682   3.732   5.265   4.385 -0.7932 -0.8823 -2.0108
 2479SOL    HW3 9683   3.611   5.341   4.338 -0.3738  0.9212 -0.3150
 2479SOL    MW4 9684   3.697   5.336   4.350 -0.3271  0.3869  0.4501
 2480SOL     OW 9685   3.410   1.371   1.395 -0.0732  0.7325 -0.1349
 2480SOL    HW2 9686   3.341   1.352   1.330  0.0495  0.6812 -0.2512
 2480SOL    HW3 9687   3.418   1.291   1.445 -1.0530  1.1806  0.7746
 2480SOL    MW4 9688   3.402   1.358   1.393 -0.4967  0.2583  0.6246
 2481SOL     OW 9689   0.663   0.474   5.621 -0.2086  0.4130  0.0998
 2481SOL    HW2 9690   0.612   0.401   5.655  0.0233  0.0694 -0.2840
 2481SOL    HW3 9691   0.623   0.494   5.536  0.9278 -0.5612 -0.7149
 2481SOL    MW4 9692   0.651   0.467   5.614 -0.4320 -0.0979 -0.4861
 2482SOL     OW 9693   4.325   4.463   1.404 -0.0939  0.4557  0.1081
 2482SOL    HW2 9694   4.403   4.468   1.460 -0.8280 -0.5835  1.2649
 2482SOL    HW3 9695   4.254   4.496   1.459 -0.8270 -0.5178 -0.2400
 2482SOL    MW4 9696   4.326   4.468   1.419 -0.4269 -0.1905  0.0484
 2483SOL     OW 9697   0.186   1.184   1.289  0.6236  0.0056  0.3034
 2483SOL    HW2 9698   0.105   1.144   1.256 -0.3040 -0.5443  3.0003
 2483SOL    HW3 9699   0.248   1.175   1.217 -1.1597 -1.2616 -1.1798
 2483SOL    MW4 9700   0.183   1.178   1.275 -0.3600 -0.0306  0.5503
 2484SOL     OW 9701   2.001   1.523   3.058  0.0933 -0.3949  0.0305
 2484SOL    HW2 9702   2.047   1.479   3.130 -0.1137 -0.7265 -0.0391
 2484SOL    HW3 9703   1.968   1.604   3.097 -1.1436 -1.1711  0.6778
 2484SOL    MW4 9704   2.002   1.528   3.073 -0.2384  0.2384 -0.3138
 2485SOL     OW 9705   4.569   1.869   1.371  0.3078 -0.4561 -0.4023
 2485SOL    HW2 9706   4.594   1.845   1.460 -1.1621  0.3102  0.2561
 2485SOL    HW3 9707   4.635   1.932   1.343  0.5049 -0.3236  0.3458
 2485SOL    MW4 9708   4.581   1.874   1.379 -0.1741 -0.6403 -0.0597
 2486SOL     OW 9709   3.453   2.683   1.531 -0.6067 -0.2119  0.2687
 2486SOL    HW2 9710   3.455   2.630   1.612 -1.5278 -0.9649 -0.1749
 2486SOL    HW3 9711   3.508   2.634   1.470 -0.9433 -0.3250  0.0542
 2486SOL    MW4 9712   3.460   2.669   1.534 -0.2942  0.4700  0.0498
 2487SOL     OW 9713   5.298   0.791   5.980 -0.5321  0.6391  0.1867
 2487SOL    HW2 9714   5.240   0.771   6.054 -0.2757 -0.3243  0.1513
 2487SOL    HW3 9715   5.385   0.765   6.011 -0.0374  2.3780  0.3607
 2487SOL    MW4 9716   5.302   0.785   5.994 -0.2454 -0.7068 -0.0952
 2488SOL     OW 9717   1.045   2.196   3.866 -0.4903  0.3043 -0.2001
 2488SOL    HW2 9718   1.098   2.200   3.786 -1.0343  1.5064 -0.5207
 2488SOL    HW3 9719   1.033   2.102   3.882  1.1120  0.0112 -0.5198
 2488SOL    MW4 9720   1.051   2.184   3.857  0.2528 -0.3722  0.6488
 2489SOL     OW 9721   2.725   4.836   2.893  0.6407 -0.0966 -0.0782
 2489SOL    HW2 9722   2.641   4.860   2.855 -1.4791 -1.2137  3.3816
 2489SOL    HW3 9723   2.733   4.742   2.878  0.8633 -0.1413  0.2850
 2489SOL    MW4 9724   2.715   4.827   2.886 -0.0264 -0.4820 -0.3476
 2490SOL     OW 9725   1.767   3.722   4.403  0.2563  0.3675 -0.0084
 2490SOL    HW2 9726   1.832   3.785   4.432  0.3495  0.5028 -0.4953
 2490SOL    HW3 9727   1.809   3.675   4.331  0.1294 -0.1398  0.2456
 2490SOL    MW4 9728   1.781   3.724   4.397 -0.4815  0.0956 -0.5452
 2491SOL     OW 9729   5.690   1.012   1.064 -0.0566  0.3784  0.1894
 2491SOL    HW2 9730   5.625   0.977   1.125  0.5693  1.2780  1.4352
 2491SOL    HW3 9731   5.762   1.041   1.121  0.6158  1.1169 -1.0034
 2491SOL    MW4 9732   5.691   1.011   1.080 -0.2369 -0.4840 -0.2640
 2492SOL     OW 9733   0.476   5.319   4.979  0.0002  0.4068 -0.0497
 2492SOL    HW2 9734   0.548   5.284   5.032 -0.6272  0.9972  1.2590
 2492SOL    HW3 9735   0.505   5.310   4.889  1.3275 -0.2031  0.4172
 2492SOL    MW4 9736   0.489   5.313   4.974 -0.2228  0.6301 -0.0273
 2493SOL     OW 9737   6.376   0.272   6.304  0.8784  0.3337  0.8866
 2493SOL    HW2 9738   6.431   0.215   6.357  1.6886 -0.0280 -0.3088
 2493SOL    HW3 9739   6.436   0.313   6.242 -0.1250  0.2531 -0.1717
 2493SOL    MW4 9740   6.391   0.270   6.303 -0.3993  0.1175  0.4129
 2494SOL     OW 9741   2.243   6.393   0.027 -0.2311 -0.0204  0.1798
 2494SOL    HW2 9742   2.295   6.360  -0.046 -0.0842  1.3748 -0.3680
 2494SOL    HW3 9743   2.168   6.434  -0.014 -0.8839 -0.4796  0.8951
 2494SOL    MW4 9744   2.240   6.394   0.012 -0.2513  1.0736  0.5682
 2495SOL     OW 9745   2.266   0.671   2.564  0.0157 -0.2585 -0.1167
 2495SOL    HW2 9746   2.299   0.581   2.560  0.2857 -0.1343 -0.7973
 2495SOL    HW3 9747   2.195   0.673   2.499 -0.8605 -0.3247  0.8115
 2495SOL    MW4 9748   2.261   0.659   2.555 -0.2060 -0.2956  0.2476
 2496SOL     OW 9749   2.551   0.560   2.758 -0.3772  0.5032  0.4392
 2496SOL    HW2 9750   2.489   0.507   2.708 -0.6173  0.5695  0.6629
 2496SOL    HW3 9751   2.509   0.646   2.763  1.1590  1.5059 -2.1663
 2496SOL    MW4 9752   2.537   0.564   2.752 -0.9534 -0.0118 -0.0486
 2497SOL     OW 9753   5.585   0.847   5.210 -0.1417 -0.5429 -0.0572
 2497SOL    HW2 9754   5.491   0.830   5.211 -0.0854 -1.0969 -1.4313
 2497SOL    HW3 9755   5.605   0.870   5.119  0.8081  1.1334  0.5312
 2497SOL    MW4 9756   5.575   0.848   5.198  0.7308 -0.0877 -0.3845
 2498SOL     OW 9757   0.480   5.174   0.571 -0.0674 -0.0134 -0.0463
 2498SOL    HW2 9758   0.465   5.264   0.545  1.1321  0.1985 -0.0486
 2498SOL    HW3 9759   0.415   5.123   0.522  0.6843  0.6093 -1.7578
 2498SOL    MW4 9760   0.470   5.179   0.561 -0.0933 -0.3057  0.8889
 2499SOL     OW 9761   5.086   3.479   5.642  0.4958  0.7684  0.9995
 2499SOL    HW2 9762   5.125   3.559   5.678  1.5754 -0.9004  3.7486
 2499SOL    HW3 9763   5.005   3.468   5.692  0.5130 -0.0466  0.8464
 2499SOL    MW4 9764   5.080   3.488   5.653  0.1044  0.8738  0.0444
 2500SOL     OW 9765   1.871   3.379   5.376  0.3831 -0.0916 -0.5171
 2500SOL    HW2 9766   1.958   3.347   5.355  0.7761  0.9682 -0.6017
 2500SOL    HW3 9767   1.826   3.385   5.292 -0.8635 -3.4536 -0.2496
 2500SOL    MW4 9768   1.876   3.376   5.362  0.1256  0.3116 -0.4594
 2501SOL     OW 9769   0.524   6.346   2.950 -0.1467 -0.5972 -0.3969
 2501SOL    HW2 9770   0.619   6.346   2.948 -0.1315 -1.6873 -0.4572
 2501SOL    HW3 9771   0.498   6.315   2.863 -0.5293 -1.2734 -0.0462
 2501SOL    MW4 9772   0.533   6.342   2.938 -0.5445 -0.9603  0.6288
 2502SOL     OW 9773   1.138   2.767   0.238 -0.1792  0.4689  1.0297
 2502SOL    HW2 9774   1.137   2.862   0.248  1.5048  1.0887 -2.7452
 2502SOL    HW3 9775   1.046   2.743   0.232 -0.6459  2.3724 -0.8278
 2502SOL    MW4 9776   1.126   2.777   0.239  0.4571 -1.0173  0.6630
 2503SOL     OW 9777   6.238   2.095   1.868  0.2592 -0.4328 -0.3594
 2503SOL    HW2 9778   6.247   2.173   1.812  1.8416 -0.6153 -0.4094
 2503SOL    HW3 9779   6.218   2.024   1.807 -2.1461  0.0469 -0.2192
 2503SOL    MW4 9780   6.237   2.096   1.852 -0.1038  0.6658 -0.2474
 2504SOL     OW 9781   1.120   1.747   6.234 -0.4596 -0.3741 -0.2501
 2504SOL    HW2 9782   1.088   1.837   6.242  0.4034 -0.2193  2.0669
 2504SOL    HW3 9783   1.046   1.693   6.262 -0.7386 -0.3695 -0.9544
 2504SOL    MW4 9784   1.106   1.752   6.238  0.1852 -0.0325 -0.3571
 2505SOL     OW 9785   5.036   0.506   2.896  0.5688  0.1212  0.1209
 2505SOL    HW2 9786   5.117   0.550   2.871  1.1657 -0.2211  1.3332
 2505SOL    HW3 9787   5.053   0.413   2.880  0.0448  0.1350 -0.5519
 2505SOL    MW4 9788   5.049   0.500   2.891  0.4324 -0.7043 -0.5287
 2506SOL     OW 9789   0.034   4.669   1.057  0.0973  0.1054 -0.0247
 2506SOL    HW2 9790  -0.044   4.630   1.098 -0.8157  0.9592 -0.9010
 2506SOL    HW3 9791   0.046   4.752   1.104  0.6554 -0.1406  0.2810
 2506SOL    MW4 9792   0.025   4.675   1.069 -0.6665 -0.6279  0.1098
 2507SOL     OW 9793   2.699   1.030   2.548  0.1409  0.0565 -0.9853
 2507SOL    HW2 9794   2.665   0.944   2.524 -1.5923  1.2073 -2.9714
 2507SOL    HW3 9795   2.742   1.062   2.469 -0.0572  1.3893 -0.5876
 2507SOL    MW4 9796   2.700   1.023   2.535  0.3990 -0.2430  0.2995
 2508SOL     OW 9797   1.023   2.177   2.026 -0.0952 -0.1213 -0.3957
 2508SOL    HW2 9798   0.976   2.228   1.961 -1.8242 -0.4686  0.5115
 2508SOL    HW3 9799   0.995   2.086   2.010 -1.1526 -0.1329  1.2339
 2508SOL    MW4 9800   1.013   2.172   2.015  0.0453 -0.2631 -0.8957
 2509SOL     OW 9801   2.980   1.931   5.817  0.6026  0.3364 -0.0740
 2509SOL    HW2 9802   2.928   1.980   5.881  0.0182  1.4778 -1.3872
 2509SOL    HW3 9803   3.067   1.971   5.821  0.2254  1.2667 -0.8779
 2509SOL    MW4 9804   2.985   1.942   5.826  0.3831 -0.9107  0.7950
 2510SOL     OW 9805   3.971   5.362   4.855 -0.3207 -0.4214  0.4748
 2510SOL    HW2 9806   3.907   5.399   4.916  0.0320 -0.1972  0.7152
 2510SOL    HW3 9807   4.020   5.438   4.824  0.0243 -0.6223  0.5224
 2510SOL    MW4 9808   3.969   5.377   4.859  0.1852 -0.8571 -0.2356
 2511SOL     OW 9809   6.191   6.129   4.069  0.0505  0.2428  0.3957
 2511SOL    HW2 9810   6.163   6.102   4.157 -0.8156 -1.1991 -0.2853
 2511SOL    HW3 9811   6.280   6.096   4.061  0.4010  1.0094  0.9718
 2511SOL    MW4 9812   6.199   6.121   4.080 -0.4060 -0.2849 -0.5547
 2512SOL     OW 9813   5.036   0.210   6.171 -0.2096 -0.4957  0.1347
 2512SOL    HW2 9814   5.128   0.232   6.188 -1.2685  3.5223  2.0599
 2512SOL    HW3 9815   5.003   0.178   6.255 -1.2250  1.2720  0.4609
 2512SOL    MW4 9816   5.044   0.209   6.184  0.9088 -0.1239  0.2790
 2513SOL     OW 9817   2.493   5.482   1.335 -0.3936 -0.3643 -0.0329
 2513SOL    HW2 9818   2.533   5.546   1.276  0.5069 -1.1721 -0.3413
 2513SOL    HW3 9819   2.464   5.533   1.410  2.9372  0.1220  1.0928
 2513SOL    MW4 9820   2.495   5.497   1.337  0.3220 -0.3317  0.1069
 2514SOL     OW 9821   3.759   2.419   2.495 -0.2729 -0.5100 -0.1001
 2514SOL    HW2 9822   3.793   2.470   2.421 -1.3119 -1.4028 -1.2173
 2514SOL    HW3 9823   3.751   2.484   2.566  0.4445  0.4266 -0.8368
 2514SOL    MW4 9824   3.763   2.435   2.495  0.2840 -0.2942  0.0028
 2515SOL     OW 9825   5.916   3.509   3.403  0.6854 -0.6044  0.5572
 2515SOL    HW2 9826   5.926   3.601   3.426  0.5936 -0.2810 -0.6534
 2515SOL    HW3 9827   6.006   3.477   3.393  0.7005 -0.4069  0.0601
 2515SOL    MW4 9828   5.929   3.517   3.405  0.2035 -0.0620 -0.7717
 2516SOL     OW 9829   2.415   2.242   4.896 -0.1037 -0.1927 -0.2385
 2516SOL    HW2 9830   2.422   2.150   4.873  0.1347 -0.4201  0.7238
 2516SOL    HW3 9831   2.496   2.282   4.863  0.2005 -0.4987  0.1358
 2516SOL    MW4 9832   2.426   2.235   4.888  0.5014  0.3871 -0.1471
 2517SOL     OW 9833   0.871   5.168   5.239 -0.1160  0.0542 -0.0336
 2517SOL    HW2 9834   0.832   5.194   5.322 -0.5572  1.1567 -0.5718
 2517SOL    HW3 9835   0.947   5.114   5.264 -1.6385 -1.7100  1.0278
 2517SOL    MW4 9836   0.876   5.164   5.254 -0.3314  0.3139 -0.4652
 2518SOL     OW 9837   4.124   5.637   5.092 -0.5377  0.4252  0.0496
 2518SOL    HW2 9838   4.034   5.641   5.058  0.4005  2.0673 -2.5277
 2518SOL    HW3 9839   4.129   5.708   5.156 -1.2805 -0.2456  0.8792
 2518SOL    MW4 9840   4.113   5.647   5.096  0.1541 -0.5130  0.1517
 2519SOL     OW 9841   6.028   5.079   0.266  0.2351 -0.8982 -0.2220
 2519SOL    HW2 9842   5.986   5.110   0.346  0.3826 -1.5545  0.1205
 2519SOL    HW3 9843   6.112   5.044   0.296  0.7863 -0.1129 -0.8200
 2519SOL    MW4 9844   6.034   5.078   0.280 -0.5245 -0.0025 -0.9081
 2520SOL     OW 9845   5.749   1.710   1.289  0.1790  0.7641  0.0276
 2520SOL    HW2 9846   5.701   1.726   1.370 -1.4850 -0.0129 -0.7516
 2520SOL    HW3 9847   5.841   1.719   1.313 -0.1485 -1.1245  2.3933
 2520SOL    MW4 9848   5.755   1.713   1.302 -0.2364 -0.2462  0.1255
 2521SOL     OW 9849   3.959   4.373   4.570 -0.3413 -0.0434  0.4655
 2521SOL    HW2 9850   3.917   4.424   4.500 -0.3962  0.4794  0.8740
 2521SOL    HW3 9851   4.046   4.352   4.535  0.2060  1.5015  0.7998
 2521SOL    MW4 9852   3.965   4.377   4.556  0.5753  0.0790 -0.3166
 2522SOL     OW 9853   4.302   4.856   3.578  0.3777  0.0016 -0.3400
 2522SOL    HW2 9854   4.330   4.766   3.561  1.5435  0.0549  1.1313
 2522SOL    HW3 9855   4.210   4.847   3.604 -0.5810 -0.3616 -3.3919
 2522SOL    MW4 9856   4.293   4.843   3.579 -0.0563  0.1136 -0.4427
 2523SOL     OW 9857   4.435   4.071   3.298 -0.4007 -0.3092 -0.7544
 2523SOL    HW2 9858   4.353   4.031   3.268  0.4493 -1.4516 -1.6681
 2523SOL    HW3 9859   4.425   4.080   3.392 -1.0210 -1.7900 -0.6603
 2523SOL    MW4 9860   4.423   4.067   3.306  0.0138 -0.4807 -0.2853
 2524SOL     OW 9861   5.382   1.218   3.488  0.0307 -0.2990  0.3781
 2524SOL    HW2 9862   5.467   1.190   3.453  0.2177  0.8158 -0.0856
 2524SOL    HW3 9863   5.402   1.296   3.540 -0.7630  0.2226 -0.0818
 2524SOL    MW4 9864   5.396   1.224   3.490 -0.1709  0.8095  0.4496
 2525SOL     OW 9865   1.816   4.985   5.927 -0.1363 -0.1170  0.3983
 2525SOL    HW2 9866   1.721   4.985   5.923 -0.0984  0.3402 -0.9220
 2525SOL    HW3 9867   1.836   4.980   6.021 -1.4631  1.1542  0.7928
 2525SOL    MW4 9868   1.806   4.985   5.939  0.2697  0.0750 -0.2346
 2526SOL     OW 9869   0.101   4.862   4.585 -0.2775 -0.6148 -0.0006
 2526SOL    HW2 9870   0.064   4.797   4.526 -0.6158 -0.5055  0.0922
 2526SOL    HW3 9871   0.050   4.941   4.569 -0.7835 -0.7575  0.8893
 2526SOL    MW4 9872   0.090   4.864   4.575 -0.0694 -0.0676 -0.6154
 2527SOL     OW 9873   1.679   5.359   2.892 -0.6885 -0.0861 -0.0257
 2527SOL    HW2 9874   1.643   5.280   2.934 -1.9788  0.5148  0.0546
 2527SOL    HW3 9875   1.628   5.431   2.930 -0.7799  0.6140 -1.4321
 2527SOL    MW4 9876   1.667   5.358   2.903 -0.0640  0.2657  0.2346
 2528SOL     OW 9877   4.377   0.321   1.755 -0.0270 -0.4006 -0.0637
 2528SOL    HW2 9878   4.414   0.240   1.718 -0.6136 -0.9625  0.5376
 2528SOL    HW3 9879   4.419   0.329   1.841  0.3776  0.1985 -0.3131
 2528SOL    MW4 9880   4.388   0.311   1.762 -0.3284 -0.8588  0.4199
 2529SOL     OW 9881   4.936   5.592   2.755  0.1423  0.1731  0.1359
 2529SOL    HW2 9882   4.953   5.534   2.681 -0.0198 -0.7233  0.7884
 2529SOL    HW3 9883   4.868   5.547   2.805  0.1501  0.8413  0.7548
 2529SOL    MW4 9884   4.929   5.579   2.752  0.0417 -0.6271 -0.2957
 2530SOL     OW 9885   3.394   5.196   0.412 -0.4350 -0.1266 -0.7176
 2530SOL    HW2 9886   3.417   5.266   0.473 -0.2346 -0.7210 -0.0878
 2530SOL    HW3 9887   3.403   5.116   0.464 -1.5947 -0.5535 -1.1393
 2530SOL    MW4 9888   3.398   5.194   0.427  0.0817 -0.3529 -0.0962
 2531SOL     OW 9889   6.333   5.857   6.078 -0.0369  0.6855  0.2943
 2531SOL    HW2 9890   6.387   5.928   6.043 -2.1279  2.4136  0.3585
 2531SOL    HW3 9891   6.300   5.811   6.001 -1.6623  2.1861  0.0272
 2531SOL    MW4 9892   6.335   5.860   6.063  0.5802  0.1627  0.4100
 2532SOL     OW 9893   4.399   0.735   2.898 -0.1330 -0.0883  0.1543
 2532SOL    HW2 9894   4.454   0.712   2.973 -2.3452 -1.4168  1.5201
 2532SOL    HW3 9895   4.426   0.823   2.873  0.4117  0.5913  2.8482
 2532SOL    MW4 9896   4.410   0.744   2.905  0.0512 -0.1882  0.4399
 2533SOL     OW 9897   2.639   0.275   0.131 -0.1075  0.2921  0.1574
 2533SOL    HW2 9898   2.594   0.359   0.117  0.8164  0.6735 -0.6971
 2533SOL    HW3 9899   2.569   0.210   0.129 -0.8108  1.0157  0.5230
 2533SOL    MW4 9900   2.624   0.278   0.129 -0.1194  0.1344 -0.4704
 2534SOL     OW 9901   2.975   1.533   6.045 -0.4958 -0.0639  0.3345
 2534SOL    HW2 9902   2.882   1.551   6.029  0.1319  2.3767 -1.1431
 2534SOL    HW3 9903   3.010   1.511   5.958  0.6759  1.2455  0.4350
 2534SOL    MW4 9904   2.968   1.532   6.031  0.2664  0.0408  0.2767
 2535SOL     OW 9905   0.711   3.427   1.523 -0.8782  0.5014  1.1336
 2535SOL    HW2 9906   0.727   3.348   1.574  0.3006 -1.1251 -1.5057
 2535SOL    HW3 9907   0.635   3.405   1.468 -1.6121  1.8701  1.5680
 2535SOL    MW4 9908   0.703   3.413   1.522 -0.0002  0.3104 -0.0768
 2536SOL     OW 9909   1.313   0.425   1.259 -0.2503  0.1550 -0.6160
 2536SOL    HW2 9910   1.259   0.383   1.327 -0.1990  0.0374 -0.6476
 2536SOL    HW3 9911   1.254   0.488   1.217 -0.1269  0.6327 -0.0893
 2536SOL    MW4 9912   1.298   0.428   1.263  0.1032  0.8187  0.3489
 2537SOL     OW 9913   0.468   1.391   3.106  0.5356  0.2430 -0.2577
 2537SOL    HW2 9914   0.498   1.321   3.164  1.1843 -0.0280 -0.9007
 2537SOL    HW3 9915   0.403   1.350   3.049 -0.7701  0.7227  0.8399
 2537SOL    MW4 9916   0.464   1.377   3.106 -0.1529 -1.1149  0.0683
 2538SOL     OW 9917   1.214   2.159   0.328  0.2269  0.9239  0.2383
 2538SOL    HW2 9918   1.236   2.212   0.251 -0.5375 -0.0457 -0.6735
 2538SOL    HW3 9919   1.134   2.113   0.303  1.7224 -1.9335  0.3304
 2538SOL    MW4 9920   1.206   2.160   0.314 -0.4800  0.1590  0.0112
 2539SOL     OW 9921   5.949   0.437   4.976  0.3011  0.6122  0.0167
 2539SOL    HW2 9922   6.004   0.479   5.042 -0.6336  0.2070  1.0656
 2539SOL    HW3 9923   5.873   0.495   4.968 -0.7787 -0.5842  1.1370
 2539SOL    MW4 9924   5.946   0.451   4.983 -0.4428 -0.0876 -0.1699
 2540SOL     OW 9925   5.079   4.971   4.093 -0.0485  0.9256 -0.6732
 2540SOL    HW2 9926   5.041   4.927   4.169 -1.1029  1.4580 -0.8736
 2540SOL    HW3 9927   5.161   4.924   4.077  0.3614  1.0135  0.9753
 2540SOL    MW4 9928   5.085   4.959   4.101 -0.3787 -0.1666  0.0891
 2541SOL     OW 9929   1.165   2.764   0.567  0.5491 -0.4307  0.3365
 2541SOL    HW2 9930   1.220   2.697   0.607  1.9300  0.6128  0.2407
 2541SOL    HW3 9931   1.206   2.781   0.482 -0.4196 -0.2272 -0.1024
 2541SOL    MW4 9932   1.178   2.757   0.561  0.4598 -0.3258  0.4577
 2542SOL     OW 9933   6.213   4.139   1.662  0.4269  0.1442  0.3609
 2542SOL    HW2 9934   6.269   4.092   1.600  0.3866 -0.1917  0.5759
 2542SOL    HW3 9935   6.203   4.226   1.624 -1.3055 -0.6651 -1.1748
 2542SOL    MW4 9936   6.219   4.144   1.649  0.3610 -0.4406 -0.2612
 2543SOL     OW 9937   3.370   0.403   3.246 -0.2385  0.1816 -0.1297
 2543SOL    HW2 9938   3.279   0.425   3.266  0.0113  0.5350  0.6667
 2543SOL    HW3 9939   3.418   0.485   3.260  0.3189 -0.2007  0.2593
 2543SOL    MW4 9940   3.364   0.417   3.250 -0.3320  0.2592  0.5285
 2544SOL     OW 9941   0.105   2.830   2.405  0.2114  0.5161  0.1689
 2544SOL    HW2 9942   0.092   2.887   2.329 -2.1516 -0.3712 -0.1786
 2544SOL    HW3 9943   0.151   2.754   2.370  1.3795  1.1969  0.1793
 2544SOL    MW4 9944   0.109   2.828   2.390 -0.4265 -0.2044  0.2332
 2545SOL     OW 9945   0.522   3.556   3.206  0.6287 -0.0774  0.0683
 2545SOL    HW2 9946   0.558   3.619   3.269  0.6817  1.5568 -1.4992
 2545SOL    HW3 9947   0.439   3.529   3.245 -0.1095  2.0968  0.1894
 2545SOL    MW4 9948   0.516   3.561   3.220  0.0697 -0.1081 -0.1342
 2546SOL     OW 9949   3.139   0.145   0.874 -0.2589 -0.2752  0.1601
 2546SOL    HW2 9950   3.060   0.103   0.907  0.2048 -0.7995  0.6312
 2546SOL    HW3 9951   3.211   0.089   0.905  0.3798  0.8441  0.7614
 2546SOL    MW4 9952   3.138   0.132   0.882  0.6188  0.0303 -0.9022
 2547SOL     OW 9953   0.665   5.635   6.087  0.1835  0.0097 -0.7925
 2547SOL    HW2 9954   0.736   5.661   6.028 -0.2633 -0.3602 -1.5141
 2547SOL    HW3 9955   0.587   5.631   6.030 -0.1001 -1.1497 -0.3508
 2547SOL    MW4 9956   0.664   5.638   6.071  0.2689  0.3055  0.4578
 2548SOL     OW 9957   0.384   1.628   4.807  0.5392  0.2102  0.2999
 2548SOL    HW2 9958   0.352   1.700   4.752 -0.9804 -0.1594  0.6369
 2548SOL    HW3 9959   0.464   1.598   4.764  0.5328  1.3025 -0.5162
 2548SOL    MW4 9960   0.390   1.633   4.794  0.1511  0.0903 -0.2480
 2549SOL     OW 9961   4.719   5.068   4.253 -0.0956 -0.0077 -0.1613
 2549SOL    HW2 9962   4.774   5.144   4.235 -2.0381  0.8414 -3.3789
 2549SOL    HW3 9963   4.763   4.995   4.210  0.5701 -0.2696  0.9131
 2549SOL    MW4 9964   4.732   5.069   4.245 -0.1860  0.3507 -0.1123
 2550SOL     OW 9965   4.790   1.728   4.525 -0.2540 -0.4379 -0.5070
 2550SOL    HW2 9966   4.843   1.738   4.604  1.2552 -1.1067 -1.3883
 2550SOL    HW3 9967   4.821   1.646   4.485 -0.2622  0.3766 -2.2902
 2550SOL    MW4 9968   4.801   1.718   4.530  0.3588 -0.1886  0.1418
 2551SOL     OW 9969   1.113   0.598   1.197 -0.8458  0.0008  0.0356
 2551SOL    HW2 9970   1.150   0.686   1.192 -1.2342  0.0907 -2.6795
 2551SOL    HW3 9971   1.093   0.586   1.290  0.1364  2.3697  0.6287
 2551SOL    MW4 9972   1.115   0.608   1.208 -0.6816 -0.7257 -0.1129
 2552SOL     OW 9973   0.213   0.328   5.001  0.3099  0.0457  0.3599
 2552SOL    HW2 9974   0.199   0.387   4.927 -0.2865  0.7076  0.9928
 2552SOL    HW3 9975   0.299   0.353   5.035 -0.6726  1.8180  1.7256
 2552SOL    MW4 9976   0.223   0.339   4.996 -0.8092 -0.4141 -0.2616
 2553SOL     OW 9977   1.758   4.295   2.109  0.5290  0.7108 -0.1967
 2553SOL    HW2 9978   1.760   4.232   2.182 -1.0618 -1.3222 -1.7871
 2553SOL    HW3 9979   1.701   4.366   2.140 -2.6390 -1.5387 -0.3788
 2553SOL    MW4 9980   1.751   4.296   2.123  0.6345 -0.7492 -0.4934
 2554SOL     OW 9981   5.824   4.644   1.300 -0.1246  0.4630  0.0241
 2554SOL    HW2 9982   5.898   4.702   1.282 -0.1901  0.7004  0.5071
 2554SOL    HW3 9983   5.840   4.612   1.389  0.3662 -0.9487 -0.5588
 2554SOL    MW4 9984   5.836   4.648   1.310 -0.1696 -0.1916  0.3479
 2555SOL     OW 9985   4.448   2.071   2.197  0.1910 -0.2211  0.4894
 2555SOL    HW2 9986   4.522   2.087   2.257 -1.6238  1.4276  2.4474
 2555SOL    HW3 9987   4.430   2.157   2.159  0.2629 -0.9369 -1.2670
 2555SOL    MW4 9988   4.456   2.085   2.200 -0.1241 -0.0435  0.7713
 2556SOL     OW 9989   2.127   6.181   3.348 -0.2270  0.0497 -0.4009
 2556SOL    HW2 9990   2.099   6.148   3.263  2.1722  0.7535 -1.5200
 2556SOL    HW3 9991   2.046   6.212   3.389 -1.8055 -2.4617 -1.3627
 2556SOL    MW4 9992   2.112   6.180   3.342 -0.5576  0.5834  0.0419
 2557SOL     OW 9993   3.593   3.175   4.033  0.0971 -0.4847  0.3054
 2557SOL    HW2 9994   3.671   3.161   3.979 -0.0013 -1.0835  0.3097
 2557SOL    HW3 9995   3.626   3.220   4.111  0.3294 -0.1306  0.0088
 2557SOL    MW4 9996   3.608   3.179   4.036  0.2417 -0.2817  0.3036
 2558SOL     OW 9997   4.763   5.380   4.882 -0.2722  0.4320 -0.3213
 2558SOL    HW2 9998   4.811   5.431   4.817 -0.3244  0.1116 -0.6119
 2558SOL    HW3 9999   4.702   5.442   4.921 -0.1250  0.6650 -0.4601
 2558SOL    MW410000   4.761   5.395   4.879  0.4897  0.4701  0.4595
 2559SOL     OW10001   2.447   4.584   2.558  0.0400 -0.0728 -0.3560
 2559SOL    HW210002   2.490   4.610   2.640 -0.2868 -1.0568  0.1468
 2559SOL    HW310003   2.508   4.611   2.490 -0.0536  1.5142  0.1448
 2559SOL    MW410004   2.461   4.591   2.560 -0.3180  0.4570  0.0568
 2560SOL     OW10005   6.107   0.242   3.413  0.0284 -0.0643 -0.2618
 2560SOL    HW210006   6.046   0.266   3.343 -0.0562 -0.3994 -0.3057
 2560SOL    HW310007   6.190   0.226   3.367 -0.5696 -2.5868 -0.6356
 2560SOL    MW410008   6.110   0.243   3.397 -0.3360 -0.3464 -0.0077
 2561SOL     OW10009   2.495   3.063   1.533  0.3138  0.3778  0.0506
 2561SOL    HW210010   2.591   3.055   1.530  0.1805 -1.3553 -0.5616
 2561SOL    HW310011   2.470   3.073   1.441 -0.2101 -1.0052  0.0317
 2561SOL    MW410012   2.505   3.063   1.520 -0.2290 -0.5812 -0.4786
 2562SOL     OW10013   2.467   3.650   1.769  0.1000  0.4477  0.5372
 2562SOL    HW210014   2.489   3.702   1.692  3.3077 -0.1469  0.8996
 2562SOL    HW310015   2.376   3.622   1.755 -0.0367  1.9279 -2.0562
 2562SOL    MW410016   2.458   3.653   1.757  0.0026 -0.8806 -0.3185
 2563SOL     OW10017   5.747   5.205   4.576 -0.4234 -0.1365 -0.1245
 2563SOL    HW210018   5.699   5.122   4.579  0.4694 -0.6707 -0.0677
 2563SOL    HW310019   5.748   5.234   4.667 -0.9259  0.0524 -0.1765
 2563SOL    MW410020   5.741   5.198   4.589 -0.7122  0.3642 -0.0600
 2564SOL     OW10021   4.990   3.272   6.022 -0.1504 -0.4867  0.0279
 2564SOL    HW210022   4.924   3.235   6.082  0.9871 -0.1430  1.5569
 2564SOL    HW310023   5.069   3.220   6.038  1.2109  1.8743  1.5206
 2564SOL    MW410024   4.992   3.260   6.032 -0.1734  0.0520 -0.5473
 2565SOL     OW10025   1.861   3.358   0.294  0.1280 -0.2767  0.3923
 2565SOL    HW210026   1.926   3.376   0.363 -0.6038  2.0565  0.5518
 2565SOL    HW310027   1.898   3.399   0.216 -1.4635  1.8270  0.6740
 2565SOL    MW410028   1.875   3.366   0.293 -0.3007 -0.4245  0.0045
 2566SOL     OW10029   3.966   0.527   6.040  0.0451 -0.7546 -0.4126
 2566SOL    HW210030   3.987   0.494   6.127  1.7082 -0.8505 -0.8069
 2566SOL    HW310031   3.934   0.616   6.055  1.0606 -0.4825  0.2693
 2566SOL    MW410032   3.965   0.535   6.054  0.0788 -0.3770  0.3747
 2567SOL     OW10033   3.072   6.127   0.853 -0.1913  0.6993  0.4842
 2567SOL    HW210034   3.149   6.168   0.813  1.0765 -1.5474  0.4975
 2567SOL    HW310035   3.030   6.199   0.901  0.3804  2.5951 -1.6579
 2567SOL    MW410036   3.076   6.142   0.854  0.6604  0.1746 -0.1515
 2568SOL     OW10037   1.467   3.008   1.731  0.6715 -0.0774  0.5914
 2568SOL    HW210038   1.472   2.939   1.797  0.5205  0.9451  1.7025
 2568SOL    HW310039   1.411   2.971   1.663  0.9337 -1.2054  0.9640
 2568SOL    MW410040   1.460   2.994   1.731 -0.4786 -0.1908 -0.5094
 2569SOL     OW10041   4.620   4.067   2.788 -0.1750 -0.1022 -0.4343
 2569SOL    HW210042   4.630   3.974   2.806  1.0048 -0.0859 -0.8716
 2569SOL    HW310043   4.624   4.074   2.692  1.9991  0.5717 -0.3558
 2569SOL    MW410044   4.622   4.056   2.778 -0.2897  0.4744  0.3920
 2570SOL     OW10045   5.602   2.152   2.634 -0.2539  0.0499 -0.0538
 2570SOL    HW210046   5.653   2.072   2.625  0.4320  0.5410 -0.6434
 2570SOL    HW310047   5.533   2.144   2.570 -0.5680 -0.3466  0.3270
 2570SOL    MW410048   5.600   2.141   2.625  0.0348 -0.7526  0.4895
 2571SOL     OW10049   2.545   1.252   5.872 -0.2041 -0.0148 -0.1031
 2571SOL    HW210050   2.632   1.262   5.911 -0.0842 -2.2402  0.3767
 2571SOL    HW310051   2.500   1.334   5.892  1.4487  0.7971  0.4984
 2571SOL    MW410052   2.551   1.264   5.880  0.0088  0.1659  0.1652
 2572SOL     OW10053   1.204   5.731   1.180  0.4926  0.5893  0.7020
 2572SOL    HW210054   1.116   5.710   1.149  0.8890 -1.7123  0.9834
 2572SOL    HW310055   1.202   5.708   1.273  1.4084  0.4567  0.6909
 2572SOL    MW410056   1.192   5.725   1.188 -0.4047  0.7318 -0.0502
 2573SOL     OW10057   4.885   3.826   4.199  0.2338  0.3133  0.1431
 2573SOL    HW210058   4.805   3.878   4.196  0.5996  0.8462 -0.6624
 2573SOL    HW310059   4.945   3.870   4.138 -0.1752 -2.2617 -2.3277
 2573SOL    MW410060   4.883   3.839   4.191  0.0113 -0.3042  0.6597
 2574SOL     OW10061   2.116   2.204   0.350 -0.2470  0.1982  0.8005
 2574SOL    HW210062   2.166   2.127   0.324 -0.9376 -0.4780  1.4343
 2574SOL    HW310063   2.038   2.203   0.296 -0.3039  0.3996  0.8765
 2574SOL    MW410064   2.113   2.194   0.340 -0.0266  0.6671 -0.5269
 2575SOL     OW10065   4.906   3.276   3.550 -0.6490  0.3608  0.0657
 2575SOL    HW210066   4.930   3.298   3.460  0.5234  0.7905  0.4606
 2575SOL    HW310067   4.932   3.185   3.560 -1.7871 -0.0299 -0.3412
 2575SOL    MW410068   4.913   3.267   3.540 -0.2716 -0.2405 -0.1899
 2576SOL     OW10069   4.038   5.948   0.730  0.1882  0.7447 -0.0669
 2576SOL    HW210070   3.954   5.902   0.738 -0.0440  0.8787 -1.5406
 2576SOL    HW310071   4.103   5.879   0.744 -0.1612  0.3986 -0.1094
 2576SOL    MW410072   4.035   5.933   0.733  0.1174 -0.2746  0.0868
 2577SOL     OW10073   2.810   5.076   6.066  0.1284  0.0236 -0.2544
 2577SOL    HW210074   2.729   5.035   6.096 -0.4423  1.6282  0.4831
 2577SOL    HW310075   2.876   5.045   6.127 -0.0987 -0.6011 -0.3218
 2577SOL    MW410076   2.808   5.067   6.078 -0.3388  0.3256 -0.3345
 2578SOL     OW10077   3.770   2.173   5.557  0.8978 -0.2722  0.6960
 2578SOL    HW210078   3.831   2.246   5.541  1.3292 -0.4816  1.3436
 2578SOL    HW310079   3.693   2.215   5.596  0.6594 -0.0169 -0.0393
 2578SOL    MW410080   3.768   2.188   5.560  0.4248 -0.1396  0.1816
 2579SOL     OW10081   5.156   0.298   0.897 -0.1302 -0.3740  0.1387
 2579SOL    HW210082   5.239   0.335   0.928 -0.2066  0.6645 -0.8380
 2579SOL    HW310083   5.134   0.350   0.820 -1.2262 -1.2463 -0.1566
 2579SOL    MW410084   5.164   0.310   0.891  0.1266  0.2494  0.4075
 2580SOL     OW10085   1.187   1.433   3.382  0.0320  0.3174 -0.2071
 2580SOL    HW210086   1.203   1.450   3.475 -0.3178  0.4687 -0.1744
 2580SOL    HW310087   1.220   1.510   3.337 -2.6811  1.7458  0.0268
 2580SOL    MW410088   1.193   1.445   3.388  0.0734 -0.2651 -0.9922
 2581SOL     OW10089   1.589   0.520   0.630  0.4888  0.8458 -0.5159
 2581SOL    HW210090   1.600   0.613   0.609  1.4823  0.9343  0.3042
 2581SOL    HW310091   1.506   0.496   0.590 -0.5515  2.4703  0.5798
 2581SOL    MW410092   1.580   0.529   0.622  0.7536  0.3992  0.1384
 2582SOL     OW10093   3.870   4.437   3.734 -0.0868  0.1345  0.1920
 2582SOL    HW210094   3.873   4.344   3.753 -0.7583 -0.4355 -2.1709
 2582SOL    HW310095   3.947   4.453   3.679  0.5855  1.2316  1.3813
 2582SOL    MW410096   3.881   4.427   3.729  0.6321  0.1715  0.8322
 2583SOL     OW10097   2.860   2.852   4.752  0.2365  0.6353 -0.3557
 2583SOL    HW210098   2.831   2.767   4.719 -0.7000  1.0164 -0.5403
 2583SOL    HW310099   2.840   2.913   4.681 -2.3678  1.5723  1.0730
 2583SOL    MW410100   2.854   2.849   4.738 -0.2279 -0.0497 -0.6236
 2584SOL     OW10101   3.269   2.883   6.241 -0.1246 -0.4321  0.1567
 2584SOL    HW210102   3.175   2.895   6.247 -0.0372  0.4299  0.0197
 2584SOL    HW310103   3.281   2.805   6.188 -0.7519  0.7632 -1.8345
 2584SOL    MW410104   3.258   2.874   6.235  0.4664 -0.3924  0.0039
 2585SOL     OW10105   4.932   0.670   1.765  0.0654  0.0848  0.0196
 2585SOL    HW210106   4.858   0.713   1.722  1.7522  1.8287 -1.3271
 2585SOL    HW310107   4.915   0.681   1.859 -1.5345  0.1149 -0.2474
 2585SOL    MW410108   4.920   0.677   1.772 -0.4357  0.2015 -0.5861
 2586SOL     OW10109   1.201   3.814   0.266  0.0993  0.3932 -0.0676
 2586SOL    HW210110   1.157   3.768   0.338 -0.6471  0.6437 -0.3506
 2586SOL    HW310111   1.249   3.745   0.220 -2.2581 -0.4627 -1.4176
 2586SOL    MW410112   1.201   3.799   0.269  0.0796  0.6903  0.3232
 2587SOL     OW10113   2.463   5.071   1.078  0.1137 -0.0623  0.3046
 2587SOL    HW210114   2.437   5.115   0.996 -1.3946  0.2863  0.9444
 2587SOL    HW310115   2.381   5.053   1.123  0.9251 -0.0775  1.8511
 2587SOL    MW410116   2.449   5.075   1.073  0.3997  0.2525  0.0336
 2588SOL     OW10117   5.763   4.293   1.124  0.1222 -0.1018  0.3293
 2588SOL    HW210118   5.706   4.302   1.201 -0.5871 -3.2275  0.3032
 2588SOL    HW310119   5.758   4.378   1.081 -2.3829  0.6150  1.7868
 2588SOL    MW410120   5.755   4.305   1.129 -0.2115 -0.4260  0.2609
 2589SOL     OW10121   0.747   6.416   3.827  0.0077 -0.4505  0.6075
 2589SOL    HW210122   0.758   6.331   3.783  0.6779 -0.2053  0.2784
 2589SOL    HW310123   0.653   6.428   3.832 -0.0977 -0.6299 -0.5189
 2589SOL    MW410124   0.736   6.406   3.822  0.0319 -0.0604  0.3615
 2590SOL     OW10125   4.686   0.410   4.410 -0.3717 -0.0382 -0.1380
 2590SOL    HW210126   4.763   0.372   4.453 -1.1645 -2.9640 -1.0769
 2590SOL    HW310127   4.636   0.449   4.481  1.6361  1.4016  0.5796
 2590SOL    MW410128   4.690   0.410   4.425 -0.2968  0.0819 -0.7220
 2591SOL     OW10129   4.943   2.756   2.899 -0.0669  0.2400  0.3633
 2591SOL    HW210130   4.945   2.742   2.994  0.6990  0.4351  0.3796
 2591SOL    HW310131   5.028   2.794   2.878 -0.2514  0.2525 -0.3980
 2591SOL    MW410132   4.955   2.759   2.909 -0.5952 -0.4809 -0.4768
 2592SOL     OW10133   0.720   2.751   6.230  0.2147 -0.5618  0.5041
 2592SOL    HW210134   0.707   2.695   6.307  0.0794  0.3751  1.1794
 2592SOL    HW310135   0.642   2.806   6.227  0.5286 -0.1333  0.0912
 2592SOL    MW410136   0.708   2.751   6.240  0.9402  0.5204 -0.5086
 2593SOL     OW10137   1.452   3.033   3.298 -0.2800  0.1825 -0.2754
 2593SOL    HW210138   1.519   3.098   3.320 -0.3863 -0.3870  1.9583
 2593SOL    HW310139   1.373   3.065   3.341 -0.6720 -0.7561 -0.2763
 2593SOL    MW410140   1.451   3.046   3.306  0.2402  0.3705  0.0818
 2594SOL     OW10141   6.013   1.378   5.419 -0.1053 -0.0231 -0.2271
 2594SOL    HW210142   6.089   1.345   5.372  0.3194  0.7152 -0.0641
 2594SOL    HW310143   5.948   1.395   5.350 -0.0116 -0.3204 -0.3939
 2594SOL    MW410144   6.014   1.376   5.404  0.8837 -0.6616 -0.1878
 2595SOL     OW10145   2.493   3.702   4.099  0.5680  0.1629 -0.2038
 2595SOL    HW210146   2.506   3.689   4.193  0.1415 -0.7330 -0.2595
 2595SOL    HW310147   2.564   3.652   4.059 -0.8803 -1.8627 -0.4135
 2595SOL    MW410148   2.504   3.693   4.106  0.0545  0.2083  0.1236
 2596SOL     OW10149   2.359   5.800   1.981  0.1132  0.8399 -0.3470
 2596SOL    HW210150   2.361   5.810   2.077  1.8076  0.7567 -0.3418
 2596SOL    HW310151   2.385   5.886   1.948 -1.6689  1.2444 -0.8014
 2596SOL    MW410152   2.362   5.813   1.990  0.0316  0.0036 -0.4640
 2597SOL     OW10153   3.893   5.052   1.524  0.4122  0.2939  0.4902
 2597SOL    HW210154   3.938   4.980   1.479  0.7108  0.5747  0.3398
 2597SOL    HW310155   3.960   5.090   1.581  0.0382 -0.0631  1.1840
 2597SOL    MW410156   3.908   5.047   1.526 -0.4072 -0.3035  0.5728
 2598SOL     OW10157   2.798   3.913   2.536  0.0368  0.2844  0.4480
 2598SOL    HW210158   2.775   3.942   2.625 -1.7649  0.4793 -0.0315
 2598SOL    HW310159   2.779   3.819   2.536  1.1231  0.0594  0.5831
 2598SOL    MW410160   2.792   3.904   2.548  0.6838 -0.0560  0.5485
 2599SOL     OW10161   0.409   1.838   1.272 -0.4257  0.2869  0.5564
 2599SOL    HW210162   0.374   1.910   1.219 -2.4898 -0.4017  0.8877
 2599SOL    HW310163   0.405   1.761   1.214 -0.1594  0.0535  0.8458
 2599SOL    MW410164   0.403   1.837   1.258  0.1562  0.1732  0.3067
 2600SOL     OW10165   4.208   3.410   3.471  0.0035  0.3319  0.0058
 2600SOL    HW210166   4.121   3.430   3.436  1.0293  0.6846 -2.6193
 2600SOL    HW310167   4.207   3.315   3.487 -0.2139 -0.0968 -2.2300
 2600SOL    MW410168   4.196   3.400   3.468  0.1912  0.1094  0.1978
 2601SOL     OW10169   6.006   2.182   5.088  0.4383 -0.1265  0.0338
 2601SOL    HW210170   6.045   2.269   5.089 -2.3098  1.2283  1.5370
 2601SOL    HW310171   6.002   2.158   4.995 -2.2827  3.2014 -0.9104
 2601SOL    MW410172   6.010   2.190   5.076  0.0042  1.2255  0.1186
 2602SOL     OW10173   4.663   5.616   4.365 -0.0483  0.6075 -0.3275
 2602SOL    HW210174   4.732   5.645   4.306  0.7760  1.8688  1.1773
 2602SOL    HW310175   4.589   5.675   4.345  0.0429  0.6846 -0.4401
 2602SOL    MW410176   4.662   5.628   4.354  0.3874  0.0122  0.4842
 2603SOL     OW10177   1.005   2.028   0.222 -0.2876 -0.0995 -0.3689
 2603SOL    HW210178   0.941   2.066   0.162 -1.0183 -0.9854 -0.1534
 2603SOL    HW310179   0.955   1.967   0.276  0.3382  0.7359  1.2076
 2603SOL    MW410180   0.990   2.025   0.221 -0.2847 -0.1565  0.7720
 2604SOL     OW10181   3.662   3.653   3.233 -0.4381 -0.1812 -0.5434
 2604SOL    HW210182   3.612   3.584   3.190  0.8867 -1.6742  0.1858
 2604SOL    HW310183   3.668   3.723   3.169 -2.4405 -0.4323 -1.0449
 2604SOL    MW410184   3.656   3.653   3.219 -0.0854 -0.8490  0.2035
 2605SOL     OW10185   4.115   1.205   2.341  0.2463 -0.5065 -0.5091
 2605SOL    HW210186   4.051   1.273   2.321 -1.2752 -0.7751  2.7267
 2605SOL    HW310187   4.181   1.213   2.272 -1.9916  1.4100 -2.6317
 2605SOL    MW410188   4.115   1.215   2.329  0.1853  0.1851 -0.0779
 2606SOL     OW10189   2.869   1.788   2.597  0.1546 -0.7119 -0.0595
 2606SOL    HW210190   2.794   1.728   2.600  0.9753 -1.7999 -0.8478
 2606SOL    HW310191   2.944   1.734   2.621  0.4576  0.8969  3.3207
 2606SOL    MW410192   2.869   1.773   2.601 -0.2274  0.3451 -0.0476
 2607SOL     OW10193   2.833   1.984   2.852 -0.5593 -0.7746  1.0950
 2607SOL    HW210194   2.862   1.914   2.793 -0.8812 -0.7367  0.8922
 2607SOL    HW310195   2.899   2.053   2.842  0.0556 -1.2568  1.6951
 2607SOL    MW410196   2.846   1.984   2.843 -0.8457  0.5886 -0.3481
 2608SOL     OW10197   3.396   5.072   3.902 -0.4330  0.3399 -0.0448
 2608SOL    HW210198   3.480   5.039   3.933 -1.0229 -0.3773  0.8355
 2608SOL    HW310199   3.370   5.136   3.968 -0.2010  1.1966 -0.7542
 2608SOL    MW410200   3.404   5.076   3.915  0.3032 -0.0988 -0.1184
 2609SOL     OW10201   3.032   0.618   1.141  0.1885 -0.5366  0.1243
 2609SOL    HW210202   3.101   0.630   1.206  1.9285  0.0672 -1.7412
 2609SOL    HW310203   3.062   0.544   1.087  0.0546  0.5275 -1.4851
 2609SOL    MW410204   3.045   0.610   1.142  0.5360  0.2848  0.4081
 2610SOL     OW10205   5.440   2.376   0.637  0.1215 -0.0175  0.4456
 2610SOL    HW210206   5.489   2.332   0.705 -1.0111 -1.0644  0.6179
 2610SOL    HW310207   5.380   2.310   0.603 -1.2337  1.2159  0.3144
 2610SOL    MW410208   5.438   2.362   0.641 -0.2445  0.7407 -1.0462
 2611SOL     OW10209   3.345   3.314   0.720  0.0801 -0.1138 -0.0960
 2611SOL    HW210210   3.265   3.265   0.741  0.5927 -0.7426  0.4536
 2611SOL    HW310211   3.389   3.259   0.655  1.0422 -0.8018  1.1037
 2611SOL    MW410212   3.340   3.300   0.714 -0.5325  0.6471  0.3438
 2612SOL     OW10213   3.437   4.533   1.429  0.1431  0.1971 -0.5025
 2612SOL    HW210214   3.372   4.579   1.375 -0.2879 -0.2652 -0.3808
 2612SOL    HW310215   3.488   4.603   1.469  0.5419  0.5471 -1.5917
 2612SOL    MW410216   3.435   4.548   1.427 -0.2263  0.3322 -0.8338
 2613SOL     OW10217   1.289   4.551   1.894 -0.0814 -0.3947  0.3369
 2613SOL    HW210218   1.348   4.485   1.930  0.0814 -0.2537  0.3271
 2613SOL    HW310219   1.207   4.538   1.941  0.3177  0.2119  1.2201
 2613SOL    MW410220   1.286   4.540   1.905  0.2682 -0.0197  0.2967
 2614SOL     OW10221   4.569   2.386   2.975 -0.0499 -0.0107 -0.1338
 2614SOL    HW210222   4.544   2.399   2.883  1.8561  1.9191 -0.4499
 2614SOL    HW310223   4.659   2.354   2.970 -0.3395 -1.0923  1.0797
 2614SOL    MW410224   4.578   2.383   2.962  0.2963 -0.5803  0.0902
 2615SOL     OW10225   0.358   3.119   4.617  0.1589  0.4887  0.0994
 2615SOL    HW210226   0.333   3.186   4.553 -0.0547 -0.5553 -0.9491
 2615SOL    HW310227   0.283   3.059   4.620  0.8599 -0.4164  0.0255
 2615SOL    MW410228   0.345   3.120   4.609 -0.1991  0.1752 -0.4942
 2616SOL     OW10229   6.253   2.701   0.506 -0.7246  0.1524  0.4157
 2616SOL    HW210230   6.225   2.786   0.472 -1.2764 -0.8259 -1.8355
 2616SOL    HW310231   6.172   2.649   0.509 -0.1318 -0.8460 -0.1514
 2616SOL    MW410232   6.239   2.705   0.502 -0.3690  0.3405  0.2398
 2617SOL     OW10233   2.878   3.615   5.522 -0.0303 -0.3260 -0.1740
 2617SOL    HW210234   2.913   3.526   5.530  0.6634 -0.0455 -0.0807
 2617SOL    HW310235   2.809   3.607   5.456  1.5674 -0.5070 -1.9104
 2617SOL    MW410236   2.873   3.602   5.514  0.1989 -0.0314  0.1726
 2618SOL     OW10237   2.943   1.505   1.031 -0.2229  0.0938 -0.0832
 2618SOL    HW210238   2.957   1.596   1.056 -0.1096  0.5083 -1.5247
 2618SOL    HW310239   3.031   1.470   1.018 -0.1128 -0.9989  2.8037
 2618SOL    MW410240   2.956   1.512   1.032 -0.1830  0.6728  0.3218
 2619SOL     OW10241   2.097   4.421   4.782 -0.2836  0.1283 -0.5525
 2619SOL    HW210242   2.155   4.494   4.806 -0.7902  1.3163 -2.6446
 2619SOL    HW310243   2.030   4.419   4.850  0.7136  0.4657  0.4650
 2619SOL    MW410244   2.096   4.430   4.794 -0.1548  0.2739  0.0763
 2620SOL     OW10245   1.370   2.965   5.714 -0.0187 -0.2111 -0.0277
 2620SOL    HW210246   1.332   2.933   5.796  0.5202  0.3086  0.4370
 2620SOL    HW310247   1.337   3.055   5.705  0.1143 -0.1831 -0.2569
 2620SOL    MW410248   1.361   2.973   5.724 -0.2618  0.2521 -0.4390
 2621SOL     OW10249   3.117   1.376   4.450  0.1687 -0.3840  0.0378
 2621SOL    HW210250   3.022   1.384   4.438  0.2801  0.3188 -0.4505
 2621SOL    HW310251   3.133   1.407   4.539  0.2136  2.1219 -0.7526
 2621SOL    MW410252   3.107   1.381   4.460  0.2772 -0.2819  0.4729
 2622SOL     OW10253   2.915   0.770   2.207 -0.1141 -0.3796 -0.4210
 2622SOL    HW210254   2.932   0.797   2.297 -0.4246 -0.5699 -0.3044
 2622SOL    HW310255   2.876   0.683   2.215  0.1274 -0.5205 -0.7530
 2622SOL    MW410256   2.912   0.762   2.220 -0.0990  0.0858  0.0585
 2623SOL     OW10257   0.213   2.621   0.212  0.0521  0.3049 -0.3258
 2623SOL    HW210258   0.142   2.570   0.173 -0.3217  0.6960 -0.1637
 2623SOL    HW310259   0.188   2.632   0.304  1.5830 -1.7944  0.4313
 2623SOL    MW410260   0.201   2.616   0.219 -0.1694  0.2034  0.1529
 2624SOL     OW10261   5.137   3.796   4.938 -0.0908  0.6663  0.5630
 2624SOL    HW210262   5.051   3.839   4.942 -1.5597 -2.0192  0.1429
 2624SOL    HW310263   5.166   3.793   5.029 -1.8693 -0.9537  1.1433
 2624SOL    MW410264   5.129   3.802   4.950 -0.2781  0.0651 -0.3814
 2625SOL     OW10265   4.073   4.714   3.970  0.1005  0.1764  0.1897
 2625SOL    HW210266   4.114   4.780   4.027 -1.8335  1.4508  0.1923
 2625SOL    HW310267   4.018   4.663   4.028 -0.6699  0.4747 -0.2619
 2625SOL    MW410268   4.071   4.716   3.985 -0.7450  0.8501  0.0625
 2626SOL     OW10269   2.158   5.832   1.182  0.5158 -0.5195 -0.1932
 2626SOL    HW210270   2.203   5.832   1.098  3.2788 -2.0012  1.1359
 2626SOL    HW310271   2.115   5.746   1.186  0.2870 -0.4035 -0.1377
 2626SOL    MW410272   2.158   5.821   1.172  0.4774 -0.3175  0.0505
 2627SOL     OW10273   6.268   2.303   4.774  0.1709 -0.7757  0.3489
 2627SOL    HW210274   6.265   2.211   4.798 -0.2540 -0.8376  0.0565
 2627SOL    HW310275   6.362   2.325   4.778  0.4445 -1.5968 -0.9846
 2627SOL    MW410276   6.280   2.294   4.778  0.2393  0.3073  0.4484
 2628SOL     OW10277   4.268   2.360   3.782 -0.1284 -0.0180 -1.0212
 2628SOL    HW210278   4.257   2.430   3.845 -2.3782 -0.6026 -0.6854
 2628SOL    HW310279   4.334   2.392   3.721  2.8790  0.2036  2.0610
 2628SOL    MW410280   4.275   2.373   3.782  0.2376  0.1997  0.2502
 2629SOL     OW10281   3.961   3.891   4.795  0.3459  0.8429 -0.0159
 2629SOL    HW210282   3.894   3.946   4.836 -0.1195  0.4913 -0.2815
 2629SOL    HW310283   3.913   3.843   4.727  0.5742 -0.4327  0.6909
 2629SOL    MW410284   3.945   3.892   4.791  0.3221  0.1116  0.6463
 2630SOL     OW10285   4.438   1.829   0.193  0.2153  0.0268  0.3631
 2630SOL    HW210286   4.395   1.778   0.262  1.5055 -0.7328  0.6301
 2630SOL    HW310287   4.524   1.790   0.184  1.0883  1.8782  0.2229
 2630SOL    MW410288   4.443   1.817   0.201 -0.3354  0.4021 -0.1928
 2631SOL     OW10289   6.206   0.321   1.262 -0.6619 -0.4379 -0.0773
 2631SOL    HW210290   6.113   0.305   1.247 -0.5210 -0.0974 -1.5806
 2631SOL    HW310291   6.250   0.279   1.188  0.0333  2.8202 -1.7353
 2631SOL    MW410292   6.200   0.313   1.250 -0.5874  0.8260  0.4648
 2632SOL     OW10293   2.168   3.432   6.097 -0.3735 -0.6044 -0.2259
 2632SOL    HW210294   2.208   3.483   6.027 -0.8450  0.6429  0.3804
 2632SOL    HW310295   2.236   3.425   6.164 -0.7882  0.6555  0.3745
 2632SOL    MW410296   2.182   3.438   6.096 -0.1005  0.1443  0.3860
 2633SOL     OW10297   2.216   1.743   3.694  0.3992 -0.0049  0.2411
 2633SOL    HW210298   2.193   1.807   3.762  0.5542  1.3485 -0.9138
 2633SOL    HW310299   2.227   1.796   3.615 -0.6325 -1.6165 -1.0493
 2633SOL    MW410300   2.214   1.759   3.692  0.3112  0.3305  0.1749
 2634SOL     OW10301   4.585   2.491   0.954 -0.1036  0.3490  0.1648
 2634SOL    HW210302   4.583   2.427   1.025  1.8379 -1.1670 -1.0319
 2634SOL    HW310303   4.645   2.453   0.890 -0.2292  2.6013 -1.3878
 2634SOL    MW410304   4.593   2.477   0.955  0.2332 -0.2605 -0.2883
 2635SOL     OW10305   4.178   1.351   0.392 -0.0753 -0.2036 -0.1401
 2635SOL    HW210306   4.206   1.259   0.393 -0.2561 -0.2957 -1.7766
 2635SOL    HW310307   4.237   1.394   0.331 -1.3872  0.2796 -1.1190
 2635SOL    MW410308   4.189   1.344   0.384 -0.5066  0.1677  0.5917
 2636SOL     OW10309   0.915   0.683   5.755  0.7196  0.0117  0.6241
 2636SOL    HW210310   0.895   0.729   5.673  1.4237 -0.3231  0.2571
 2636SOL    HW310311   0.914   0.752   5.821 -1.9102 -0.0099  0.7020
 2636SOL    MW410312   0.912   0.698   5.753  0.5552 -0.2407  0.0631
 2637SOL     OW10313   1.488   1.377   1.314 -0.9355  0.3672  0.5664
 2637SOL    HW210314   1.451   1.337   1.236 -0.5277  0.7580  0.1716
 2637SOL    HW310315   1.411   1.398   1.369 -1.2940  1.0252 -0.1713
 2637SOL    MW410316   1.473   1.375   1.311  0.1047  0.0389 -0.5565
 2638SOL     OW10317   0.824   0.171   0.737  0.6558  0.0644 -0.4835
 2638SOL    HW210318   0.802   0.258   0.704 -0.0294 -0.8487 -2.5858
 2638SOL    HW310319   0.758   0.113   0.699  1.2608 -1.4187  0.6450
 2638SOL    MW410320   0.813   0.175   0.728 -0.1912 -0.0710  0.3668
 2639SOL     OW10321   4.011   5.058   0.348  1.2014  0.1402 -0.1105
 2639SOL    HW210322   4.033   5.144   0.311 -0.9476  1.6503  1.8584
 2639SOL    HW310323   4.048   5.059   0.436 -0.3846 -0.1559  0.6007
 2639SOL    MW410324   4.018   5.069   0.354 -0.0920  0.4638  0.0435
 2640SOL     OW10325   5.638   4.881   0.272 -0.5515 -0.1963  0.3840
 2640SOL    HW210326   5.717   4.840   0.309  0.4002 -0.1482 -1.4958
 2640SOL    HW310327   5.649   4.974   0.291 -1.1513 -0.3976  1.8500
 2640SOL    MW410328   5.650   4.888   0.279  1.0655 -0.2428  0.1483
 2641SOL     OW10329   5.096   3.173   1.294 -0.2496 -1.0191 -0.0417
 2641SOL    HW210330   5.026   3.133   1.242 -1.1260  0.9732 -0.4946
 2641SOL    HW310331   5.051   3.234   1.352  1.0763 -0.0137 -0.0306
 2641SOL    MW410332   5.081   3.176   1.294  0.2134 -0.4357 -0.4635
 2642SOL     OW10333   3.772   4.886   0.612  0.2974  0.3267  0.2466
 2642SOL    HW210334   3.817   4.883   0.528  1.3641  1.7547  0.7412
 2642SOL    HW310335   3.812   4.959   0.659  0.1632 -0.8219  2.2594
 2642SOL    MW410336   3.783   4.895   0.607 -0.1167  0.0099  0.0462
 2643SOL     OW10337   4.254   6.306   2.219  0.0414 -0.6214  0.1132
 2643SOL    HW210338   4.265   6.391   2.261  0.2819 -0.8428  0.5009
 2643SOL    HW310339   4.339   6.262   2.230  0.1059 -0.6861 -0.5904
 2643SOL    MW410340   4.267   6.311   2.226  0.1266  0.6239 -0.7240
 2644SOL     OW10341   1.023   0.182   2.357 -0.1568 -0.2781 -0.2759
 2644SOL    HW210342   0.965   0.107   2.347 -0.5938 -0.0128  0.1564
 2644SOL    HW310343   1.103   0.147   2.396 -0.4328 -0.4970  0.1048
 2644SOL    MW410344   1.026   0.168   2.361  0.2884  0.2978 -0.1718
 2645SOL     OW10345   0.337   5.835   4.412  0.1940  0.0901 -0.0362
 2645SOL    HW210346   0.315   5.778   4.339 -2.5202 -0.1172  0.8210
 2645SOL    HW310347   0.316   5.923   4.381 -0.0282  0.1056  0.1544
 2645SOL    MW410348   0.331   5.839   4.398 -0.1781  0.4443 -0.2193
 2646SOL     OW10349   1.871   1.620   1.745  0.6159  0.0493 -0.6093
 2646SOL    HW210350   1.933   1.585   1.809  1.8657 -0.1457 -1.8817
 2646SOL    HW310351   1.919   1.689   1.700 -0.2011  0.1135 -1.4074
 2646SOL    MW410352   1.885   1.625   1.748  0.2499  0.1971 -0.4364
 2647SOL     OW10353   0.737   1.599   5.131  0.1380  0.0297 -0.2387
 2647SOL    HW210354   0.739   1.533   5.061 -0.1998  2.4908 -2.7592
 2647SOL    HW310355   0.651   1.639   5.123  0.1363  0.4607  1.5729
 2647SOL    MW410356   0.726   1.596   5.120  0.4273  0.2539  0.3035
 2648SOL     OW10357   4.450   0.230   5.595 -0.0442 -0.4038 -0.3300
 2648SOL    HW210358   4.458   0.237   5.500 -0.5090 -2.4425 -0.5641
 2648SOL    HW310359   4.540   0.241   5.627  0.3062 -0.9129 -1.1065
 2648SOL    MW410360   4.463   0.233   5.587 -0.4288  0.2981 -0.2015
 2649SOL     OW10361   4.510   2.874   1.990  0.4207 -0.2154 -1.0576
 2649SOL    HW210362   4.589   2.825   2.015 -0.5692 -0.8684  1.0499
 2649SOL    HW310363   4.446   2.807   1.968 -0.4502  0.1450  0.2507
 2649SOL    MW410364   4.512   2.859   1.991 -0.2527 -0.0247  0.3197
 2650SOL     OW10365   4.903   5.759   0.224 -0.3472  0.5643 -0.0022
 2650SOL    HW210366   4.895   5.736   0.317 -2.9889  1.7819  0.1615
 2650SOL    HW310367   4.864   5.685   0.178 -1.2593  1.0054  0.0369
 2650SOL    MW410368   4.897   5.746   0.230 -0.1580 -0.4538 -0.3399
 2651SOL     OW10369   2.975   2.699   5.224 -0.1665  0.6605 -0.3169
 2651SOL    HW210370   3.030   2.761   5.175  0.0436 -0.2536 -1.2790
 2651SOL    HW310371   3.032   2.625   5.240 -0.9707 -0.1027 -0.8982
 2651SOL    MW410372   2.990   2.698   5.220 -0.4020 -0.2230  0.4028
 2652SOL     OW10373   4.663   2.509   2.314  0.1485  0.3040  0.5237
 2652SOL    HW210374   4.671   2.444   2.245  2.9832  1.5285 -0.4420
 2652SOL    HW310375   4.697   2.466   2.392  2.5027  0.6906 -0.2216
 2652SOL    MW410376   4.668   2.495   2.315  0.5473  0.0621  0.4436
 2653SOL     OW10377   4.936   2.557   0.186 -0.1851 -0.0271  0.1709
 2653SOL    HW210378   4.905   2.637   0.229  0.0966 -0.0298  0.3766
 2653SOL    HW310379   4.935   2.491   0.256 -0.8502 -0.3194 -0.0975
 2653SOL    MW410380   4.932   2.558   0.201  0.1772  0.1822 -0.6824
 2654SOL     OW10381   5.719   1.047   4.080 -0.3257 -0.1707  0.6068
 2654SOL    HW210382   5.723   1.067   3.986  0.6972 -1.5302  0.3313
 2654SOL    HW310383   5.627   1.060   4.103 -0.6869 -0.2390 -0.6801
 2654SOL    MW410384   5.708   1.051   4.071  0.3895 -0.5781 -0.4462
 2655SOL     OW10385   5.954   4.334   1.739 -0.1016  0.2015  0.3248
 2655SOL    HW210386   6.003   4.341   1.657 -0.8855  1.0002 -0.0987
 2655SOL    HW310387   5.903   4.253   1.730 -1.1928  0.9523 -0.5723
 2655SOL    MW410388   5.954   4.324   1.727 -0.1561  0.8396  0.2084
 2656SOL     OW10389   3.222   0.371   4.566  0.4161 -0.5637 -0.1239
 2656SOL    HW210390   3.240   0.462   4.545  1.9952 -0.8796 -0.2920
 2656SOL    HW310391   3.226   0.366   4.661  0.5901 -0.5018 -0.1282
 2656SOL    MW410392   3.225   0.382   4.576 -0.7312 -0.2861 -0.1450
 2657SOL     OW10393   1.242   4.340   2.819 -0.3142 -0.8914  0.2371
 2657SOL    HW210394   1.236   4.253   2.860  3.8623 -2.0073 -1.0608
 2657SOL    HW310395   1.327   4.374   2.847 -0.8673  1.8568 -1.0890
 2657SOL    MW410396   1.252   4.333   2.828 -0.0443  0.4614 -0.3986
 2658SOL     OW10397   0.282   0.942   3.207 -0.1367  0.2684 -0.5810
 2658SOL    HW210398   0.329   0.941   3.124 -0.2547  1.4400 -0.6843
 2658SOL    HW310399   0.344   0.905   3.271  2.2006  4.3421 -0.1220
 2658SOL    MW410400   0.297   0.937   3.205  1.1124  0.5710 -0.1530
 2659SOL     OW10401   6.376   2.287   4.407  0.1471  0.7053  0.0318
 2659SOL    HW210402   6.310   2.222   4.433  0.6573  0.0188 -0.3479
 2659SOL    HW310403   6.326   2.355   4.361 -0.2216 -0.1436 -0.8530
 2659SOL    MW410404   6.361   2.287   4.404  0.4971  0.0972  0.0963
 2660SOL     OW10405   2.599   4.871   5.987 -0.2159  0.7287 -0.1314
 2660SOL    HW210406   2.511   4.844   6.014  0.1149  0.4509  0.7098
 2660SOL    HW310407   2.591   4.965   5.970 -0.5699  0.8109  0.4370
 2660SOL    MW410408   2.586   4.880   5.989  0.3297  0.3107 -0.2905
 2661SOL     OW10409   6.331   3.515   1.766 -0.2218  0.0578  0.0596
 2661SOL    HW210410   6.273   3.500   1.841  0.6937 -0.8896  0.6027
 2661SOL    HW310411   6.322   3.435   1.714  0.5078 -0.0600  0.1030
 2661SOL    MW410412   6.322   3.503   1.769  0.1403 -0.6515  0.4325
 2662SOL     OW10413   1.776   1.460   4.863 -0.2143  0.2485 -0.6658
 2662SOL    HW210414   1.860   1.465   4.815  0.3401  1.5814  0.3676
 2662SOL    HW310415   1.775   1.540   4.916 -1.1474 -0.8157  0.9904
 2662SOL    MW410416   1.787   1.471   4.863 -0.4078  0.7271  0.1830
 2663SOL     OW10417   0.271   1.906   1.476 -0.0912 -0.1598 -0.0708
 2663SOL    HW210418   0.334   1.977   1.486  0.4427 -0.5895 -0.3837
 2663SOL    HW310419   0.298   1.860   1.396 -0.4138 -0.7402  0.1480
 2663SOL    MW410420   0.283   1.909   1.467  0.1187  0.1934  0.1053
 2664SOL     OW10421   0.831   3.678   5.231  0.3722  0.4448  0.4037
 2664SOL    HW210422   0.853   3.741   5.300 -0.4298  1.5603 -0.3100
 2664SOL    HW310423   0.752   3.715   5.190  0.1050 -0.8424 -0.2892
 2664SOL    MW410424   0.823   3.691   5.235  0.1254  0.2405  0.3808
 2665SOL     OW10425   3.023   1.775   1.054  0.8352  0.4761  0.5584
 2665SOL    HW210426   3.103   1.795   1.005 -0.1114  0.0862 -1.2241
 2665SOL    HW310427   3.043   1.803   1.144  2.1097  2.6436 -0.3079
 2665SOL    MW410428   3.037   1.781   1.059 -0.2432 -0.2216 -0.4943
 2666SOL     OW10429   4.966   3.269   0.479  0.5935  0.0248 -0.2094
 2666SOL    HW210430   4.890   3.284   0.535 -0.1473 -1.2389 -0.8398
 2666SOL    HW310431   4.959   3.336   0.411  0.3679  0.2797  0.0630
 2666SOL    MW410432   4.955   3.280   0.477  0.0555  0.4925  1.0482
 2667SOL     OW10433   2.576   4.467   6.426  0.8273 -0.0341 -0.9408
 2667SOL    HW210434   2.578   4.546   6.480  0.7937 -1.2018  0.8346
 2667SOL    HW310435   2.574   4.500   6.336 -0.7220  2.0108 -0.2339
 2667SOL    MW410436   2.576   4.482   6.421  0.0449 -0.5780  0.5072
 2668SOL     OW10437   0.469   1.682   5.066  0.1128  0.0303  0.0156
 2668SOL    HW210438   0.411   1.660   4.993  0.1298 -0.8060  0.2426
 2668SOL    HW310439   0.432   1.761   5.103 -0.6624 -0.2791 -0.0870
 2668SOL    MW410440   0.457   1.689   5.061  0.7255 -0.0768 -0.4289
 2669SOL     OW10441   3.342   5.797   0.113  0.6296  0.4630 -0.2569
 2669SOL    HW210442   3.269   5.746   0.078 -0.4784  1.7185  0.1682
 2669SOL    HW310443   3.326   5.800   0.207  1.7033  0.0559 -0.0429
 2669SOL    MW410444   3.331   5.790   0.121 -0.6733  0.2017 -0.0078
 2670SOL     OW10445   5.416   0.150   0.028 -1.1153 -1.1567 -0.0848
 2670SOL    HW210446   5.506   0.155   0.060 -0.8183 -1.1078 -0.9007
 2670SOL    HW310447   5.369   0.104   0.098 -0.6515 -0.4479  0.7234
 2670SOL    MW410448   5.422   0.144   0.042 -0.5460 -0.0798  0.1908
 2671SOL     OW10449   2.711   3.470   0.066 -0.1091 -0.2017  0.4156
 2671SOL    HW210450   2.737   3.422   0.145  0.9460 -1.6094 -0.7246
 2671SOL    HW310451   2.793   3.505   0.031 -0.3798 -0.6359 -0.6896
 2671SOL    MW410452   2.725   3.468   0.072  0.2891 -0.1588 -0.2898
 2672SOL     OW10453   3.236   1.999   3.135  0.1433  0.8073 -1.0312
 2672SOL    HW210454   3.151   1.971   3.101 -1.4895  3.1906  0.7144
 2672SOL    HW310455   3.265   1.927   3.190 -1.9061  0.7867  0.1257
 2672SOL    MW410456   3.229   1.986   3.138 -0.2682  0.3687 -0.3282
 2673SOL     OW10457   4.284   0.071   1.125  0.1735 -0.0187  0.0453
 2673SOL    HW210458   4.294  -0.023   1.112  2.2849  0.1640  0.0674
 2673SOL    HW310459   4.235   0.101   1.048  0.2616 -1.0040 -0.4059
 2673SOL    MW410460   4.279   0.063   1.113 -0.2876  0.5022 -0.3026
 2674SOL     OW10461   6.289   1.747   1.285 -0.1293 -0.0324  0.1059
 2674SOL    HW210462   6.311   1.777   1.197  0.5347 -0.1319  0.2328
 2674SOL    HW310463   6.265   1.655   1.274  0.1576 -0.1026  0.0577
 2674SOL    MW410464   6.288   1.739   1.272 -0.0555  0.4530  0.0309
 2675SOL     OW10465   0.803   2.763   2.697  0.7883  0.5590  0.3695
 2675SOL    HW210466   0.862   2.703   2.651  0.5781  0.0218  0.7798
 2675SOL    HW310467   0.784   2.832   2.634  1.1424  0.2592 -0.0693
 2675SOL    MW410468   0.808   2.764   2.683  0.9660  0.0460 -0.1601
 2676SOL     OW10469   4.072   6.223   0.722 -0.6263 -0.1243  0.4806
 2676SOL    HW210470   4.063   6.129   0.736  1.5514 -0.6734 -1.2199
 2676SOL    HW310471   4.165   6.241   0.737 -0.9169  1.7039  0.3875
 2676SOL    MW410472   4.083   6.213   0.726  0.4943 -0.2203  0.6751
 2677SOL     OW10473   0.061   1.963   2.685  0.9459  0.3876  0.3031
 2677SOL    HW210474   0.095   1.947   2.597  2.0584  0.3341  0.7361
 2677SOL    HW310475   0.138   1.966   2.741  0.1827 -0.8450  1.4797
 2677SOL    MW410476   0.076   1.961   2.681 -0.1318 -0.0565  0.0567
 2678SOL     OW10477   2.612   2.325   4.491  0.2411 -0.1624 -0.4129
 2678SOL    HW210478   2.569   2.295   4.411  0.6176  0.3244 -0.8000
 2678SOL    HW310479   2.544   2.375   4.538 -0.3643 -1.4874  0.1913
 2678SOL    MW410480   2.597   2.328   4.487 -0.3576 -0.5574 -0.3198
 2679SOL     OW10481   6.253   4.508   5.917  0.4341  0.0085  0.0441
 2679SOL    HW210482   6.270   4.473   5.830  2.6172 -2.5856  1.3437
 2679SOL    HW310483   6.287   4.597   5.915  0.2336  0.0701 -1.8007
 2679SOL    MW410484   6.260   4.515   5.905  0.1337  0.4371  0.3991
 2680SOL     OW10485   2.999   2.017   1.478 -0.2675 -0.0873 -0.3059
 2680SOL    HW210486   2.996   2.054   1.390  0.6499  1.3772  0.2419
 2680SOL    HW310487   3.078   2.055   1.517 -1.7571  0.9694  1.8684
 2680SOL    MW410488   3.009   2.027   1.472 -0.1231  0.2987 -0.1473
 2681SOL     OW10489   4.416   5.167   5.973 -0.6619 -0.1148 -0.5014
 2681SOL    HW210490   4.463   5.204   6.048  0.3828 -0.2480 -1.0787
 2681SOL    HW310491   4.346   5.114   6.013 -1.1696  1.1455  0.3485
 2681SOL    MW410492   4.413   5.164   5.988  1.0834  0.0260  0.1172
 2682SOL     OW10493   2.726   2.610   4.691 -0.2347  0.4352  0.2743
 2682SOL    HW210494   2.759   2.581   4.777 -2.6179  0.9357  1.4222
 2682SOL    HW310495   2.788   2.572   4.628  1.2175 -0.4917  2.1558
 2682SOL    MW410496   2.739   2.601   4.694  0.1428  0.6280 -0.0652
 2683SOL     OW10497   4.635   5.254   3.099 -0.2934 -0.9208  0.2173
 2683SOL    HW210498   4.703   5.314   3.132 -0.0891 -2.0759  2.0501
 2683SOL    HW310499   4.553   5.299   3.118 -0.1042 -0.1191 -0.7639
 2683SOL    MW410500   4.633   5.268   3.106  0.4384 -0.4783 -0.4619
 2684SOL     OW10501   5.404   4.973   3.199  0.3689  0.4266 -0.6499
 2684SOL    HW210502   5.454   4.994   3.121  1.4611  1.6071  0.3106
 2684SOL    HW310503   5.458   4.911   3.247 -0.2206 -0.1718 -0.7384
 2684SOL    MW410504   5.417   4.968   3.195  0.0277  0.5238  0.2742
 2685SOL     OW10505   0.245   3.953   1.505 -0.1739 -0.5240 -0.2395
 2685SOL    HW210506   0.282   4.035   1.538 -0.8428  0.3809 -1.6284
 2685SOL    HW310507   0.249   3.892   1.579 -1.8998  1.4528  1.5926
 2685SOL    MW410508   0.251   3.956   1.519 -0.6726  0.5718  0.3959
 2686SOL     OW10509   5.578   5.567   5.662 -0.0101 -0.2048  0.1508
 2686SOL    HW210510   5.509   5.523   5.613  1.2979 -1.0089 -1.0511
 2686SOL    HW310511   5.559   5.660   5.653  0.3617 -0.3016 -2.2151
 2686SOL    MW410512   5.566   5.573   5.655 -0.0519 -0.4831  0.2236
 2687SOL     OW10513   6.130   3.176   5.773 -0.0365  0.3691  0.0819
 2687SOL    HW210514   6.180   3.204   5.697 -0.0529  0.7294  0.2016
 2687SOL    HW310515   6.102   3.257   5.815 -1.1348  0.1809 -0.2453
 2687SOL    MW410516   6.133   3.190   5.769  0.3007  0.4477  0.3108
 2688SOL     OW10517   3.084   2.862   4.346 -0.5073 -0.3422 -0.1788
 2688SOL    HW210518   3.167   2.907   4.327 -0.3273  0.1961  1.6302
 2688SOL    HW310519   3.096   2.827   4.434 -0.9487 -3.3643 -1.2286
 2688SOL    MW410520   3.097   2.864   4.355 -0.5760  0.0980  0.0187
 2689SOL     OW10521   2.971   5.348   5.907 -0.1226  0.0938 -0.2315
 2689SOL    HW210522   2.889   5.317   5.945  0.7103 -0.4934  1.1845
 2689SOL    HW310523   3.017   5.268   5.882  1.6332  0.1083  2.5582
 2689SOL    MW410524   2.966   5.333   5.909  0.1243 -0.5449  0.2467
 2690SOL     OW10525   1.441   0.231   5.456 -0.0109  0.4142 -0.1956
 2690SOL    HW210526   1.397   0.244   5.372  0.6944 -1.7459 -0.9728
 2690SOL    HW310527   1.373   0.247   5.521  0.2021  5.5463 -0.8328
 2690SOL    MW410528   1.426   0.235   5.454  0.0137 -0.3446  0.2724
 2691SOL     OW10529   4.011   4.161   0.775  0.0734 -0.1011 -0.4982
 2691SOL    HW210530   4.102   4.191   0.771 -0.3132  1.3787  0.7908
 2691SOL    HW310531   3.961   4.238   0.802 -1.3403 -1.2675  0.4009
 2691SOL    MW410532   4.016   4.175   0.778 -0.2069  0.1752 -0.3740
 2692SOL     OW10533   0.274   5.251   2.729  0.1996 -0.4394  0.0560
 2692SOL    HW210534   0.330   5.176   2.749 -0.4561 -1.5408 -1.8785
 2692SOL    HW310535   0.243   5.281   2.814  1.2993 -1.7208  0.9594
 2692SOL    MW410536   0.277   5.245   2.743  0.5614  0.0121 -0.1500
 2693SOL     OW10537   1.502   0.028   5.629  0.4542 -0.5476  0.2239
 2693SOL    HW210538   1.483   0.079   5.550 -0.7703  1.5676  1.8067
 2693SOL    HW310539   1.585   0.062   5.660  0.1409 -0.2428  0.7283
 2693SOL    MW410540   1.510   0.039   5.623  0.1050  0.1432  0.4717
 2694SOL     OW10541   4.475   4.836   5.209 -0.6511  0.7584 -0.1693
 2694SOL    HW210542   4.394   4.808   5.166 -0.9965  0.8460  0.4127
 2694SOL    HW310543   4.505   4.759   5.256  0.2480  0.3755 -1.3193
 2694SOL    MW410544   4.468   4.822   5.210 -0.2319  0.5845 -0.3602
 2695SOL     OW10545   3.448   2.948   3.484 -0.1012 -0.4669 -0.4359
 2695SOL    HW210546   3.436   2.932   3.578 -0.6951  1.7407 -0.0892
 2695SOL    HW310547   3.375   2.901   3.442 -0.7542 -0.1885  0.3563
 2695SOL    MW410548   3.437   2.940   3.491  0.0123  0.2807 -0.0994
 2696SOL     OW10549   4.802   1.979   5.867  0.3417  0.0951 -0.3687
 2696SOL    HW210550   4.754   1.903   5.834  1.5045 -1.0143  0.4238
 2696SOL    HW310551   4.738   2.023   5.924 -0.4670 -0.0554 -1.1362
 2696SOL    MW410552   4.787   1.975   5.870 -0.4956  0.4140  0.8433
 2697SOL     OW10553   2.240   4.151   6.356 -0.5821 -0.6901 -0.1562
 2697SOL    HW210554   2.252   4.058   6.337  2.3305 -0.3095 -0.6565
 2697SOL    HW310555   2.146   4.162   6.361 -1.0463 -3.5390 -0.7343
 2697SOL    MW410556   2.229   4.140   6.354  0.0695 -0.0844  0.4875
 2698SOL     OW10557   5.125   1.804   3.352 -0.4011 -0.3578  0.3417
 2698SOL    HW210558   5.092   1.859   3.424 -0.2903  0.1852 -0.0132
 2698SOL    HW310559   5.053   1.803   3.288  0.2754  0.9139 -0.4799
 2698SOL    MW410560   5.111   1.811   3.353 -0.2332  0.4950  0.0163
 2699SOL     OW10561   3.926   0.808   3.062  0.2681 -0.9707  0.2571
 2699SOL    HW210562   3.845   0.850   3.091  2.0295  1.2596  2.3620
 2699SOL    HW310563   3.915   0.797   2.968 -2.5901 -1.1229  0.5188
 2699SOL    MW410564   3.914   0.812   3.054  0.8756  0.6246  0.2087
 2700SOL     OW10565   1.264   5.350   3.404  0.0020  0.0786  0.7033
 2700SOL    HW210566   1.195   5.350   3.338  1.2283 -1.0449 -0.6672
 2700SOL    HW310567   1.269   5.440   3.435  0.6327  1.1021 -2.1278
 2700SOL    MW410568   1.256   5.362   3.400 -0.0174 -0.0473 -0.0905
 2701SOL     OW10569   3.985   1.432   4.551  0.2120 -0.0494  0.0033
 2701SOL    HW210570   3.932   1.511   4.558  1.2129  0.6609 -0.1184
 2701SOL    HW310571   3.922   1.361   4.540 -0.8244  0.4534  2.1858
 2701SOL    MW410572   3.970   1.433   4.550 -0.5199 -0.5235  0.0599
 2702SOL     OW10573   3.209   0.959   4.033 -0.0538 -0.3658  0.3566
 2702SOL    HW210574   3.142   0.914   3.982 -0.0204  0.9389 -0.8828
 2702SOL    HW310575   3.246   0.891   4.089 -3.2507 -0.9168  2.0592
 2702SOL    MW410576   3.205   0.944   4.034  0.5173  0.0582 -0.2684
 2703SOL     OW10577   3.041   1.528   0.584  0.2218  0.5236  0.0416
 2703SOL    HW210578   3.003   1.593   0.525 -3.4888  1.4423  3.0205
 2703SOL    HW310579   3.127   1.564   0.607  0.4040  1.7130 -2.2032
 2703SOL    MW410580   3.048   1.541   0.579  0.3407  0.4046 -0.1072
 2704SOL     OW10581   0.703   2.005   2.908  0.7185 -0.1531 -0.4526
 2704SOL    HW210582   0.739   1.995   2.996  0.0306  0.8143 -0.0431
 2704SOL    HW310583   0.710   1.918   2.869  0.5431 -0.7233  0.7520
 2704SOL    MW410584   0.709   1.992   2.914 -0.6957 -0.5984  0.2453
 2705SOL     OW10585   2.669   3.289   1.851 -0.9142 -0.3721  0.0425
 2705SOL    HW210586   2.618   3.226   1.902 -1.0727  0.5617  1.0888
 2705SOL    HW310587   2.757   3.253   1.849 -1.0472 -0.7332  0.4582
 2705SOL    MW410588   2.674   3.276   1.857 -0.5324  0.1373 -0.2965
 2706SOL     OW10589   4.231   5.349   3.060  0.2306  0.4628 -0.1522
 2706SOL    HW210590   4.262   5.261   3.041 -0.4056 -0.3070  2.0203
 2706SOL    HW310591   4.156   5.361   3.002 -0.0344 -0.6702 -0.0666
 2706SOL    MW410592   4.225   5.339   3.050  0.0223  0.4241 -0.2861
 2707SOL     OW10593   1.501   0.546   4.305  0.3616  0.4251  0.1706
 2707SOL    HW210594   1.463   0.461   4.281  0.7382  0.1237  0.6257
 2707SOL    HW310595   1.557   0.527   4.380 -0.5290  1.3084  1.0714
 2707SOL    MW410596   1.503   0.532   4.312  0.1774  0.5143 -0.2705
 2708SOL     OW10597   6.230   1.246   4.640 -0.2255 -0.6317 -0.3491
 2708SOL    HW210598   6.219   1.166   4.588 -1.1348  0.4429 -1.9020
 2708SOL    HW310599   6.142   1.282   4.649  0.2171  0.4576 -0.1308
 2708SOL    MW410600   6.217   1.240   4.634 -0.1151  0.6008  0.2267
 2709SOL     OW10601   3.500   5.362   1.704  0.1041  0.3529 -0.0332
 2709SOL    HW210602   3.548   5.288   1.741  0.9173  0.1896 -1.3390
 2709SOL    HW310603   3.563   5.433   1.702 -0.2748  0.6925 -0.0249
 2709SOL    MW410604   3.515   5.361   1.709 -0.7898 -0.6114  0.0283
 2710SOL     OW10605   4.074   4.167   1.577  0.8099  0.0378 -0.0046
 2710SOL    HW210606   4.089   4.166   1.483 -0.8178 -1.1050 -0.2903
 2710SOL    HW310607   4.026   4.248   1.594  1.2018  0.2984 -0.1189
 2710SOL    MW410608   4.070   4.177   1.567 -0.5424 -0.1429 -0.2818
 2711SOL     OW10609   5.127   3.638   1.676  0.1035  0.0634 -0.2000
 2711SOL    HW210610   5.181   3.660   1.600 -0.4369  2.3522  0.0204
 2711SOL    HW310611   5.150   3.547   1.696  0.0949 -0.7250 -3.2354
 2711SOL    MW410612   5.137   3.629   1.668  0.4173 -0.0428  0.1001
 2712SOL     OW10613   5.452   1.061   4.203 -0.1535 -0.0935  0.3296
 2712SOL    HW210614   5.502   1.064   4.285 -0.7187 -0.1014  0.6821
 2712SOL    HW310615   5.409   0.975   4.205 -0.6003  0.1263  0.2893
 2712SOL    MW410616   5.453   1.050   4.214 -0.3858  0.1732 -0.3507
 2713SOL     OW10617   4.478   5.627   1.876 -0.0469  0.0652 -0.0347
 2713SOL    HW210618   4.410   5.686   1.843  0.7413  1.0589  0.0751
 2713SOL    HW310619   4.430   5.562   1.927 -1.0389 -0.0393 -1.0698
 2713SOL    MW410620   4.462   5.626   1.878 -0.4198 -0.7488  0.5383
 2714SOL     OW10621   0.643   3.687   5.565 -0.1984 -0.4920 -0.3992
 2714SOL    HW210622   0.559   3.721   5.535  0.0920  0.4390 -0.1643
 2714SOL    HW310623   0.674   3.751   5.628 -0.1314 -1.7157  0.8463
 2714SOL    MW410624   0.636   3.700   5.569  0.1468 -0.8520  0.0770
 2715SOL     OW10625   3.918   2.822   6.285  0.1698 -0.9014  0.1862
 2715SOL    HW210626   3.838   2.785   6.322 -0.1183 -1.2492 -0.7603
 2715SOL    HW310627   3.961   2.748   6.243 -0.3803 -0.2354 -1.6755
 2715SOL    MW410628   3.913   2.807   6.285  0.5152 -0.4007 -0.2321
 2716SOL     OW10629   5.356   2.673   2.149  0.4339  0.0085  0.1374
 2716SOL    HW210630   5.419   2.611   2.185  1.1020  0.1322 -0.7585
 2716SOL    HW310631   5.381   2.757   2.187 -0.1701 -0.1817  0.9776
 2716SOL    MW410632   5.368   2.676   2.158 -0.5291 -0.0315  0.2380
 2717SOL     OW10633   1.088   4.505   4.764  0.4533  0.1449 -0.2633
 2717SOL    HW210634   1.177   4.519   4.730  0.2361 -0.4658 -1.1256
 2717SOL    HW310635   1.050   4.440   4.705 -0.3080 -0.1812  0.5574
 2717SOL    MW410636   1.095   4.498   4.752  0.2940 -0.5230 -0.1254
 2718SOL     OW10637   5.943   1.808   0.334  0.2706  0.4385 -0.1119
 2718SOL    HW210638   6.017   1.780   0.280 -0.6504 -0.2633 -1.0424
 2718SOL    HW310639   5.962   1.900   0.354  0.5856  0.7594 -1.7440
 2718SOL    MW410640   5.956   1.817   0.330 -0.0100 -0.0545  0.0593
 2719SOL     OW10641   1.769   5.190   5.109 -0.0380  0.0956 -0.0420
 2719SOL    HW210642   1.754   5.198   5.203  0.6001 -0.2903  0.1033
 2719SOL    HW310643   1.864   5.181   5.102 -0.0063  0.8745 -0.7825
 2719SOL    MW410644   1.780   5.190   5.121  0.2247 -0.2430 -0.7120
 2720SOL     OW10645   0.745   2.005   2.612 -0.3199  0.0451  0.3630
 2720SOL    HW210646   0.736   2.100   2.617  0.8959  0.1874  0.2288
 2720SOL    HW310647   0.761   1.978   2.703 -2.1058 -0.2183  0.6232
 2720SOL    MW410648   0.746   2.014   2.625  0.0714  0.1623 -0.3220
 2721SOL     OW10649   0.698   4.791   5.861  0.0049 -0.2662 -0.4526
 2721SOL    HW210650   0.723   4.742   5.783 -1.3824 -2.2808  0.2907
 2721SOL    HW310651   0.774   4.784   5.919 -0.0895 -1.4253 -0.4422
 2721SOL    MW410652   0.712   4.784   5.858  0.1817 -0.8177  0.7713
 2722SOL     OW10653   5.629   1.450   5.563  0.3231  0.4283  0.2151
 2722SOL    HW210654   5.696   1.382   5.553 -1.8308 -2.1775  2.0799
 2722SOL    HW310655   5.634   1.476   5.655 -0.0481  1.5694 -0.0644
 2722SOL    MW410656   5.639   1.444   5.574 -0.1991  0.0705 -0.4979
 2723SOL     OW10657   0.044   0.252   5.889  0.6092 -0.1608 -0.2278
 2723SOL    HW210658   0.108   0.231   5.957  0.9736 -0.6636 -0.7151
 2723SOL    HW310659  -0.003   0.328   5.923  0.3373 -0.8116  0.8697
 2723SOL    MW410660   0.046   0.259   5.903  0.6226  0.6801 -0.3053
 2724SOL     OW10661   1.720   3.992   2.633 -0.2054  0.3243 -0.5344
 2724SOL    HW210662   1.649   4.050   2.661 -0.1299  0.2075 -0.0941
 2724SOL    HW310663   1.798   4.048   2.636 -0.2107  0.3350 -0.5941
 2724SOL    MW410664   1.721   4.007   2.637  0.1650  0.1128 -0.0808
 2725SOL     OW10665   6.385   6.107   4.995 -0.3061  0.3320 -0.1747
 2725SOL    HW210666   6.295   6.121   4.964  0.4555  1.5545 -1.9788
 2725SOL    HW310667   6.376   6.041   5.064 -2.2723 -1.6589 -2.1662
 2725SOL    MW410668   6.372   6.100   5.000 -0.0764  0.3132 -0.0540
 2726SOL     OW10669   3.446   4.340   0.606  0.5102 -0.1533 -0.4578
 2726SOL    HW210670   3.459   4.392   0.685 -0.4211 -0.5407 -0.0261
 2726SOL    HW310671   3.369   4.380   0.564 -1.0133 -1.8909  0.5324
 2726SOL    MW410672   3.437   4.353   0.611 -0.0660 -0.3772 -0.1824
 2727SOL     OW10673   3.831   5.903   1.959  0.0634 -0.7336 -0.2670
 2727SOL    HW210674   3.819   5.848   1.882 -1.9895  0.7980 -1.1309
 2727SOL    HW310675   3.774   5.978   1.944  1.5698  0.8994  1.5662
 2727SOL    MW410676   3.822   5.906   1.947 -0.5789 -0.0669  0.9537
 2728SOL     OW10677   2.972   3.471   4.936 -0.2720 -0.2959 -0.6521
 2728SOL    HW210678   2.928   3.556   4.928  0.0308  0.2079  2.1021
 2728SOL    HW310679   2.963   3.431   4.849 -0.7310  2.3801 -1.9345
 2728SOL    MW410680   2.965   3.477   4.923  0.0949 -0.6916 -0.2918
 2729SOL     OW10681   2.021   6.021   5.812  0.0401  0.4855  0.1029
 2729SOL    HW210682   2.021   5.992   5.721  0.4642  4.1755 -1.2442
 2729SOL    HW310683   1.950   6.086   5.817 -0.0875  0.2689  2.4904
 2729SOL    MW410684   2.011   6.026   5.801  0.0208  0.3804 -0.0210
 2730SOL     OW10685   1.067   6.250   2.831  0.2470 -0.7428 -0.8483
 2730SOL    HW210686   1.152   6.268   2.790  0.8276 -1.1360  0.1340
 2730SOL    HW310687   1.005   6.301   2.780  1.0041 -0.8424 -1.9019
 2730SOL    MW410688   1.070   6.259   2.819  0.5950 -0.3094  0.3240
 2731SOL     OW10689   3.913   4.487   1.345 -0.1809 -0.0565 -0.4602
 2731SOL    HW210690   3.819   4.474   1.336 -0.2875 -0.2756  0.7591
 2731SOL    HW310691   3.934   4.451   1.431  1.0307 -0.0668 -0.7435
 2731SOL    MW410692   3.903   4.481   1.355  0.0349  0.1823 -0.1193
 2732SOL     OW10693   0.770   2.054   5.152  0.1641 -0.1928  0.2717
 2732SOL    HW210694   0.724   2.019   5.076  1.0635  1.0180 -0.8805
 2732SOL    HW310695   0.806   2.137   5.122  2.9795 -0.9765  1.0980
 2732SOL    MW410696   0.769   2.060   5.138 -0.1427  0.3433  0.4413
 2733SOL     OW10697   4.156   1.085   3.476  0.5002  0.3012  0.0575
 2733SOL    HW210698   4.251   1.099   3.468  0.6351 -0.1075  0.7886
 2733SOL    HW310699   4.132   1.131   3.556  0.4036 -0.9715  0.7998
 2733SOL    MW410700   4.166   1.093   3.485 -0.1918  0.0655 -0.3346
 2734SOL     OW10701   3.103   0.048   2.292 -0.3804 -0.6219 -0.2522
 2734SOL    HW210702   3.184   0.007   2.322  0.2199  1.5112  1.2413
 2734SOL    HW310703   3.131   0.111   2.226 -0.9033 -0.4130 -0.2782
 2734SOL    MW410704   3.117   0.051   2.288 -0.1816 -0.4803  0.5622
 2735SOL     OW10705   0.691   5.097   5.692  0.1630  0.4700 -0.9028
 2735SOL    HW210706   0.731   5.095   5.779 -0.4429  2.0693 -0.5501
 2735SOL    HW310707   0.613   5.042   5.700  0.8168 -0.4822 -0.8422
 2735SOL    MW410708   0.686   5.089   5.705 -0.2011  0.4607 -0.0675
 2736SOL     OW10709   0.191   0.259   4.151 -0.7377 -0.0886  0.4465
 2736SOL    HW210710   0.164   0.282   4.240  1.0135  0.6553  0.8146
 2736SOL    HW310711   0.203   0.344   4.108 -0.7439 -0.4370 -0.2448
 2736SOL    MW410712   0.189   0.273   4.157 -0.2485  0.0772 -0.0140
 2737SOL     OW10713   3.457   1.011   2.430 -1.0609  0.3326 -0.4553
 2737SOL    HW210714   3.482   0.999   2.338 -2.0993 -0.2633 -0.6816
 2737SOL    HW310715   3.535   0.988   2.480 -1.2954 -2.1598 -1.0912
 2737SOL    MW410716   3.471   1.007   2.424  0.0810 -0.4322 -0.4839
 2738SOL     OW10717   1.210   1.404   2.086 -0.0845  0.1440 -0.7226
 2738SOL    HW210718   1.200   1.488   2.041  1.8304  2.0573  2.1207
 2738SOL    HW310719   1.282   1.361   2.040  0.6492  1.2407 -0.6205
 2738SOL    MW410720   1.218   1.410   2.074  0.4683 -0.2772  0.3338
 2739SOL     OW10721   3.974   2.324   6.308 -0.1729 -0.0260 -0.0554
 2739SOL    HW210722   3.955   2.236   6.276 -0.2735 -0.2539  0.6046
 2739SOL    HW310723   3.889   2.357   6.337 -0.1457  0.3141 -0.3701
 2739SOL    MW410724   3.960   2.316   6.308 -0.1729 -0.4723  0.1051
 2740SOL     OW10725   4.583   6.366   4.456  0.3680  0.1929 -0.2874
 2740SOL    HW210726   4.544   6.279   4.464 -0.1651  0.5154  0.8192
 2740SOL    HW310727   4.665   6.352   4.409 -0.9743 -0.5439 -2.6207
 2740SOL    MW410728   4.588   6.353   4.451  0.5174 -0.0757  0.4272
 2741SOL     OW10729   5.448   0.724   3.589  1.2869 -0.4541 -0.5751
 2741SOL    HW210730   5.402   0.647   3.556 -2.1616  1.1368  0.0924
 2741SOL    HW310731   5.472   0.773   3.511  0.2091 -0.4885 -0.9449
 2741SOL    MW410732   5.445   0.720   3.575  0.1675 -0.5270 -0.3938
 2742SOL     OW10733   2.117   5.115   4.477  0.1840  0.2358  0.1448
 2742SOL    HW210734   2.022   5.113   4.474  0.1779  0.5564 -0.0038
 2742SOL    HW310735   2.140   5.094   4.567  0.1004 -3.0481 -0.4939
 2742SOL    MW410736   2.108   5.112   4.488 -0.3670 -0.4742 -0.1763
 2743SOL     OW10737   3.394   2.038   2.919 -0.2301  0.3647 -0.2665
 2743SOL    HW210738   3.381   2.122   2.874 -0.0683 -0.0181 -1.0551
 2743SOL    HW310739   3.339   2.043   2.997 -0.5352  1.0483 -0.5226
 2743SOL    MW410740   3.385   2.049   2.923 -0.2317  0.5888 -0.3677
 2744SOL     OW10741   0.095   1.740   1.883 -0.2318  0.3582 -0.2959
 2744SOL    HW210742   0.102   1.675   1.813 -0.0783  0.1344 -0.0782
 2744SOL    HW310743   0.087   1.824   1.838 -0.4894  0.1837 -0.5832
 2744SOL    MW410744   0.095   1.742   1.868 -0.3034 -0.0739  0.4052
 2745SOL     OW10745   1.770   1.938   3.978 -0.6980 -0.3371 -0.1204
 2745SOL    HW210746   1.676   1.922   3.964 -1.1446  1.2901  0.7512
 2745SOL    HW310747   1.795   2.000   3.910 -0.2781 -0.6625 -0.2685
 2745SOL    MW410748   1.761   1.944   3.967  0.3978 -0.1551  0.1127
 2746SOL     OW10749   3.725   2.250   0.897 -0.5610  0.1192  0.5310
 2746SOL    HW210750   3.815   2.275   0.918 -0.8473  0.2721  1.6782
 2746SOL    HW310751   3.716   2.161   0.930 -1.3413  0.7461  2.1266
 2746SOL    MW410752   3.736   2.242   0.904  0.2933  0.2948  0.5011
 2747SOL     OW10753   3.261   1.310   6.055  0.6506 -0.1798  0.3288
 2747SOL    HW210754   3.184   1.312   6.112  0.0356 -1.3761 -0.4302
 2747SOL    HW310755   3.311   1.387   6.081 -1.3630  1.3025  0.0466
 2747SOL    MW410756   3.258   1.320   6.066 -0.1437  0.1800  0.7666
 2748SOL     OW10757   6.000   6.181   0.261 -0.4773 -0.1281 -0.0043
 2748SOL    HW210758   6.015   6.230   0.180 -1.3543 -0.4413 -0.3655
 2748SOL    HW310759   5.962   6.098   0.232  0.1477 -0.6652  0.6623
 2748SOL    MW410760   5.997   6.176   0.246 -0.3123  0.5028  0.3692
 2749SOL     OW10761   2.261   3.399   0.821 -0.3432  0.0194  0.1983
 2749SOL    HW210762   2.170   3.387   0.795 -1.2007  1.5097  2.2514
 2749SOL    HW310763   2.286   3.316   0.862 -0.8799 -0.2892 -0.0910
 2749SOL    MW410764   2.252   3.387   0.823  0.5337  0.1467 -0.1320
 2750SOL     OW10765   5.137   3.269   0.710  0.2849  0.1318  0.0468
 2750SOL    HW210766   5.060   3.255   0.764  0.5948  0.8795  0.7114
 2750SOL    HW310767   5.106   3.262   0.620 -0.6208  0.7515  0.3056
 2750SOL    MW410768   5.123   3.266   0.705 -0.8043  0.5821 -0.3045
 2751SOL     OW10769   0.459   5.385   5.291  0.1598  0.3103  0.1578
 2751SOL    HW210770   0.540   5.430   5.269  0.2221 -0.4299 -1.1758
 2751SOL    HW310771   0.464   5.301   5.246 -1.0564 -0.0246  0.5967
 2751SOL    MW410772   0.470   5.380   5.282 -0.0216 -0.1163 -0.0619
 2752SOL     OW10773   0.904   6.026   5.222  0.1230 -0.0147  0.8563
 2752SOL    HW210774   0.979   5.973   5.193 -1.3186 -0.9581 -1.3610
 2752SOL    HW310775   0.914   6.109   5.176 -0.6403 -0.4809 -0.1958
 2752SOL    MW410776   0.915   6.030   5.212  0.1996  0.1145 -0.0247
 2753SOL     OW10777   5.642   5.008   5.904  0.0120 -0.1684  0.3105
 2753SOL    HW210778   5.719   4.965   5.865 -1.1868 -2.0889 -0.0732
 2753SOL    HW310779   5.594   4.936   5.946 -3.0511  0.4305 -1.8949
 2753SOL    MW410780   5.646   4.993   5.905 -0.4424 -0.3347  0.0694
 2754SOL     OW10781   0.680   0.120   5.522 -0.9076  0.3255  0.5046
 2754SOL    HW210782   0.603   0.066   5.503  1.0182 -2.0121 -1.2543
 2754SOL    HW310783   0.684   0.182   5.449 -0.1026 -0.8341 -0.4694
 2754SOL    MW410784   0.670   0.121   5.510 -0.7044  0.2062 -0.0274
 2755SOL     OW10785   2.723   6.214   3.673 -0.3566  0.0529 -0.4061
 2755SOL    HW210786   2.666   6.214   3.596 -0.5222 -0.6420 -0.2849
 2755SOL    HW310787   2.663   6.209   3.747 -0.1649  0.0604 -0.2501
 2755SOL    MW410788   2.707   6.213   3.672 -0.0261  0.3258  0.3154
 2756SOL     OW10789   0.504   3.100   4.855 -0.0387  0.1731  0.3044
 2756SOL    HW210790   0.463   3.030   4.906  1.3883 -1.9236 -1.2558
 2756SOL    HW310791   0.459   3.097   4.771  0.9092  0.2371 -0.2122
 2756SOL    MW410792   0.493   3.090   4.851  0.0243 -0.6069  0.3844
 2757SOL     OW10793   1.762   3.880   1.716 -0.1411 -0.4959  0.0755
 2757SOL    HW210794   1.689   3.823   1.738  0.7515 -0.6840  2.9061
 2757SOL    HW310795   1.806   3.836   1.643 -0.2904 -2.7338  1.2641
 2757SOL    MW410796   1.759   3.867   1.709 -0.6899 -0.2068 -0.5620
 2758SOL     OW10797   0.132   2.091   5.541 -0.4131  0.2178  0.0274
 2758SOL    HW210798   0.198   2.034   5.580 -1.0774 -1.3600 -1.0658
 2758SOL    HW310799   0.164   2.180   5.558  0.6902 -0.4534  1.7068
 2758SOL    MW410800   0.145   2.095   5.548 -0.0651  0.1137 -0.4784
 2759SOL     OW10801   0.044   2.990   2.179  0.2693 -0.2229 -0.6245
 2759SOL    HW210802   0.095   3.011   2.101 -0.4915  1.7277 -0.6671
 2759SOL    HW310803   0.042   3.073   2.228 -0.0964 -1.1471  0.9856
 2759SOL    MW410804   0.051   3.004   2.175 -0.2300  0.2167  0.6838
 2760SOL     OW10805   2.656   2.347   0.188  0.2216  0.2076  0.6194
 2760SOL    HW210806   2.569   2.344   0.229 -1.7375 -1.9210 -3.1681
 2760SOL    HW310807   2.645   2.405   0.113  1.7140 -1.0473 -0.6368
 2760SOL    MW410808   2.643   2.354   0.184  0.0067 -0.1190  0.6964
 2761SOL     OW10809   2.434   3.858   5.327  0.6877 -0.0956  0.7144
 2761SOL    HW210810   2.342   3.885   5.333  1.3720  2.0505  3.9135
 2761SOL    HW310811   2.469   3.871   5.415  4.7324  1.6792 -0.9089
 2761SOL    MW410812   2.426   3.863   5.339 -0.1731 -0.1994  0.5150
 2762SOL     OW10813   2.819   0.670   5.713 -0.0575  0.1070 -0.2444
 2762SOL    HW210814   2.845   0.611   5.642  0.1571  0.4528 -0.4563
 2762SOL    HW310815   2.870   0.641   5.788 -0.2134 -0.2000 -0.2566
 2762SOL    MW410816   2.830   0.658   5.713  0.3071 -0.2896  0.4069
 2763SOL     OW10817   5.569   1.938   6.020 -0.5463 -0.0986  0.5214
 2763SOL    HW210818   5.523   1.855   6.034  0.2300 -0.4122  1.3278
 2763SOL    HW310819   5.652   1.927   6.066  1.1570 -0.2167 -2.3802
 2763SOL    MW410820   5.574   1.925   6.028  0.4393 -0.7674  0.5601
 2764SOL     OW10821   5.044   6.409   3.150  0.6333 -0.0927 -0.1976
 2764SOL    HW210822   4.982   6.406   3.077 -0.1046  2.6107  0.2108
 2764SOL    HW310823   5.076   6.319   3.158 -0.1902 -0.7376 -3.0293
 2764SOL    MW410824   5.040   6.397   3.141 -0.1006 -0.1223 -0.0254
 2765SOL     OW10825   3.040   0.757   3.904 -0.4785 -0.5278  0.2101
 2765SOL    HW210826   3.103   0.687   3.889  0.7643  0.0400  2.2720
 2765SOL    HW310827   3.004   0.739   3.991  0.1538  1.5030  0.9745
 2765SOL    MW410828   3.044   0.746   3.914  0.2292 -0.1835 -0.1381
 2766SOL     OW10829   1.906   0.861   3.412  0.3859 -0.3045 -0.3193
 2766SOL    HW210830   1.887   0.912   3.491 -1.4892  0.0698 -0.9616
 2766SOL    HW310831   2.001   0.867   3.403  0.3375  2.5615  0.0133
 2766SOL    MW410832   1.916   0.869   3.421 -0.5321 -0.2155  0.9827
 2767SOL     OW10833   0.868   3.406   4.445  0.0121  0.2332  0.0945
 2767SOL    HW210834   0.819   3.378   4.522  2.1089  1.3947  1.9896
 2767SOL    HW310835   0.930   3.334   4.428  0.2241  0.4005  0.1467
 2767SOL    MW410836   0.870   3.393   4.453  0.8220  0.1154  0.3346
 2768SOL     OW10837   1.544   3.628   5.164  0.8180  0.4141 -0.2895
 2768SOL    HW210838   1.584   3.545   5.190 -0.0895  0.2370  0.5585
 2768SOL    HW310839   1.487   3.606   5.091 -0.7390 -0.0323  1.0198
 2768SOL    MW410840   1.542   3.614   5.157  0.2438  0.1376  0.5447
 2769SOL     OW10841   4.345   0.746   1.485  0.3801  0.5389  0.0063
 2769SOL    HW210842   4.308   0.677   1.541  0.6858  0.6545  0.3479
 2769SOL    HW310843   4.408   0.791   1.541 -0.5477  1.7561  0.1186
 2769SOL    MW410844   4.348   0.743   1.500  0.1372  0.6611  0.2469
 2770SOL     OW10845   2.357   5.216   2.026  0.8667  0.3603  0.2020
 2770SOL    HW210846   2.416   5.265   1.969 -2.1340  2.8293 -1.0893
 2770SOL    HW310847   2.373   5.252   2.114  0.1772  2.2480 -0.4034
 2770SOL    MW410848   2.367   5.228   2.030 -0.2340 -0.1066 -0.3027
 2771SOL     OW10849   6.217   1.320   0.640 -0.1991  0.3027  0.2410
 2771SOL    HW210850   6.179   1.232   0.639  0.4259  0.0248  0.2095
 2771SOL    HW310851   6.144   1.377   0.663 -1.1500  0.0519 -1.9314
 2771SOL    MW410852   6.202   1.316   0.643 -0.0849 -0.1781 -0.1277
 2772SOL     OW10853   1.170   1.793   0.454  0.1191  0.0058  0.3816
 2772SOL    HW210854   1.258   1.761   0.477  0.4302  0.5120 -0.0813
 2772SOL    HW310855   1.162   1.876   0.501 -1.3076 -1.4183  2.8844
 2772SOL    MW410856   1.181   1.800   0.463  0.0246  0.3345 -0.2406
 2773SOL     OW10857   4.243   3.569   6.094  0.4853  0.0404  0.0613
 2773SOL    HW210858   4.161   3.616   6.108  0.4402 -0.2387  0.7757
 2773SOL    HW310859   4.286   3.615   6.022 -0.0918  0.4578 -0.0185
 2773SOL    MW410860   4.238   3.581   6.087  0.5059 -0.6781 -0.2274
 2774SOL     OW10861   2.851   1.437   3.105 -0.9770  0.6388 -0.0385
 2774SOL    HW210862   2.870   1.352   3.146 -0.5011 -0.0516 -1.6251
 2774SOL    HW310863   2.793   1.480   3.167  0.4765  0.0622  1.8342
 2774SOL    MW410864   2.846   1.431   3.119 -0.7084  0.0257  0.1361
 2775SOL     OW10865   2.094   2.199   2.536 -0.4471 -0.2681  0.1996
 2775SOL    HW210866   2.012   2.155   2.514 -0.6235 -0.7581  1.7706
 2775SOL    HW310867   2.072   2.258   2.608  0.8018 -1.3535  1.5335
 2775SOL    MW410868   2.080   2.201   2.542  0.0857  0.3335 -0.8164
 2776SOL     OW10869   2.164   3.459   4.503 -0.2686 -0.3311 -0.4801
 2776SOL    HW210870   2.074   3.485   4.523  0.6665  2.3267  0.7872
 2776SOL    HW310871   2.209   3.460   4.588  0.8720 -2.2357 -0.9925
 2776SOL    MW410872   2.158   3.463   4.517  0.4701  0.3709 -0.6516
 2777SOL     OW10873   5.439   5.325   3.676  0.3693 -0.3556  0.2688
 2777SOL    HW210874   5.479   5.328   3.763 -0.4673  0.5419  0.6510
 2777SOL    HW310875   5.498   5.375   3.620  1.6004 -2.0541 -0.0048
 2777SOL    MW410876   5.452   5.332   3.680  0.3288 -0.1697  0.1971
 2778SOL     OW10877   0.792   5.152   5.946  0.2535  0.2615  0.0683
 2778SOL    HW210878   0.763   5.096   6.018 -0.8322 -0.0615 -0.5890
 2778SOL    HW310879   0.848   5.218   5.988  0.5681 -0.5820  1.0295
 2778SOL    MW410880   0.795   5.153   5.961  0.4651  0.0654  0.8521
 2779SOL     OW10881   2.843   1.702   4.436  0.1552 -0.5285 -0.6634
 2779SOL    HW210882   2.846   1.609   4.458  0.5772 -0.4723 -0.4536
 2779SOL    HW310883   2.933   1.724   4.411  0.4847  0.2173  1.0204
 2779SOL    MW410884   2.856   1.693   4.436 -0.2053  0.1925  0.3172
 2780SOL     OW10885   4.215   4.571   4.735 -0.1267  0.0315 -0.0408
 2780SOL    HW210886   4.265   4.645   4.768 -0.4303 -0.3924  1.4695
 2780SOL    HW310887   4.277   4.498   4.734  0.0127  0.1533 -0.9306
 2780SOL    MW410888   4.230   4.571   4.740 -1.0266 -0.0871 -0.2134
 2781SOL     OW10889   6.314   2.070   2.883  0.3988  0.0221 -0.1322
 2781SOL    HW210890   6.378   2.041   2.818 -0.6728 -1.0173 -0.7703
 2781SOL    HW310891   6.232   2.078   2.833 -0.3143 -0.2161  0.9692
 2781SOL    MW410892   6.312   2.067   2.868  0.0381 -0.1885 -0.5091
 2782SOL     OW10893   3.904   1.599   0.749  0.2558  0.3821 -0.1959
 2782SOL    HW210894   3.996   1.582   0.729  0.1914  0.5262 -0.6060
 2782SOL    HW310895   3.906   1.635   0.838  0.2651 -3.3696  1.4947
 2782SOL    MW410896   3.916   1.601   0.758 -0.0907 -0.5387  0.4167
 2783SOL     OW10897   4.371   2.421   3.202 -0.4842 -0.0833  0.1451
 2783SOL    HW210898   4.275   2.420   3.207 -0.5483  2.5547  1.0753
 2783SOL    HW310899   4.390   2.420   3.108 -1.5211  0.8323 -0.1024
 2783SOL    MW410900   4.361   2.421   3.190  1.0686 -0.0022 -0.3739
 2784SOL     OW10901   0.044   3.605   2.780 -0.1861  0.0213  0.5275
 2784SOL    HW210902  -0.028   3.650   2.825  1.1268  1.7656  1.0106
 2784SOL    HW310903   0.098   3.570   2.851 -0.0382 -0.4102  0.2028
 2784SOL    MW410904   0.042   3.606   2.795 -0.0333 -0.1961 -0.3330
 2785SOL     OW10905   4.219   1.526   4.180 -0.5564 -0.3496  0.7479
 2785SOL    HW210906   4.225   1.489   4.092 -0.9108  1.3203 -0.0265
 2785SOL    HW310907   4.127   1.512   4.206 -0.5595 -0.4540  0.6825
 2785SOL    MW410908   4.208   1.519   4.172 -0.0262 -0.2372  0.0093
 2786SOL     OW10909   1.179   0.579   5.776  0.1497 -0.3580 -0.1402
 2786SOL    HW210910   1.164   0.529   5.857  0.3416 -0.8954 -0.4283
 2786SOL    HW310911   1.095   0.619   5.757  0.4206  0.8158  1.0094
 2786SOL    MW410912   1.166   0.578   5.784  0.0680  0.6554 -0.1689
 2787SOL     OW10913   4.616   3.263   1.878 -0.1730  0.3813 -0.2924
 2787SOL    HW210914   4.587   3.208   1.805 -1.7773  1.8552 -0.8216
 2787SOL    HW310915   4.595   3.213   1.957 -1.6068  0.2090 -0.7652
 2787SOL    MW410916   4.610   3.249   1.879  0.1845 -0.0941 -0.2258
 2788SOL     OW10917   1.639   4.732   4.422 -0.5432 -0.0402 -0.1176
 2788SOL    HW210918   1.594   4.649   4.439  0.7101 -0.3957  1.7688
 2788SOL    HW310919   1.650   4.771   4.509  1.5167  0.6973 -0.6613
 2788SOL    MW410920   1.634   4.726   4.436 -0.2911  0.0933  0.1174
 2789SOL     OW10921   1.947   3.655   6.092  0.4323 -0.2681  0.1560
 2789SOL    HW210922   1.893   3.605   6.154  0.1658 -0.3799 -0.1694
 2789SOL    HW310923   2.022   3.598   6.075  0.7782 -0.0167  0.7878
 2789SOL    MW410924   1.950   3.641   6.098  0.3253  0.2225  0.1737
 2790SOL     OW10925   5.319   5.848   2.515 -0.2354  0.2610  0.4838
 2790SOL    HW210926   5.353   5.768   2.475 -0.7341  0.0315  0.5143
 2790SOL    HW310927   5.390   5.878   2.573 -0.4364 -0.7181  1.2600
 2790SOL    MW410928   5.333   5.842   2.517  0.6933  0.2062  0.5890
 2791SOL     OW10929   5.831   5.686   3.647 -0.4658 -0.4980 -0.2406
 2791SOL    HW210930   5.870   5.649   3.726 -0.7006  0.1039  0.1635
 2791SOL    HW310931   5.773   5.755   3.679  0.6179  0.8142 -1.0109
 2791SOL    MW410932   5.828   5.690   3.662  0.3419 -0.8648 -0.2514
 2792SOL     OW10933   3.601   0.942   1.170  0.4895 -0.3539  0.4552
 2792SOL    HW210934   3.612   1.034   1.145  4.1070 -1.1003 -1.5049
 2792SOL    HW310935   3.513   0.936   1.206  0.0387  3.8009  0.4321
 2792SOL    MW410936   3.591   0.953   1.171  0.1107 -0.1450  0.2474
 2793SOL     OW10937   2.126   2.423   0.121 -0.0906 -0.3377  0.2005
 2793SOL    HW210938   2.167   2.352   0.072 -1.0813 -1.2031  0.5853
 2793SOL    HW310939   2.036   2.425   0.089 -0.1409  0.5884  0.3783
 2793SOL    MW410940   2.119   2.414   0.111  0.9372 -0.1450 -0.1706
 2794SOL     OW10941   5.146   6.211   0.345  0.1936 -0.5214  0.2105
 2794SOL    HW210942   5.224   6.220   0.290  1.0116  1.1421  1.5558
 2794SOL    HW310943   5.076   6.254   0.295 -0.2237 -2.9259 -1.4851
 2794SOL    MW410944   5.147   6.218   0.331 -0.3500 -0.1070  0.1704
 2795SOL     OW10945   1.774   1.792   5.591  0.2131 -0.1785 -0.0106
 2795SOL    HW210946   1.795   1.885   5.590  1.0132 -0.3561 -0.5112
 2795SOL    HW310947   1.709   1.783   5.662  1.3751  0.4975  1.1868
 2795SOL    MW410948   1.768   1.803   5.601  0.0218 -0.3776  0.3576
 2796SOL     OW10949   4.839   4.124   1.294  1.3927 -0.3540  0.2755
 2796SOL    HW210950   4.840   4.148   1.201 -0.0163 -0.3718  0.2265
 2796SOL    HW310951   4.847   4.208   1.340  0.1072 -0.1197  0.1118
 2796SOL    MW410952   4.840   4.138   1.288 -0.0548 -0.1394 -0.9349
 2797SOL     OW10953   3.988   3.528   0.872 -0.2884 -0.1697  0.7314
 2797SOL    HW210954   4.070   3.569   0.843 -1.0644 -1.4703 -4.1546
 2797SOL    HW310955   4.015   3.450   0.920  1.4483 -0.7192 -1.0108
 2797SOL    MW410956   4.002   3.523   0.875  0.2860 -0.2649  0.0760
 2798SOL     OW10957   6.375   6.170   0.660 -0.1134  0.0151  0.1803
 2798SOL    HW210958   6.300   6.161   0.718 -0.1022 -0.4590  0.1235
 2798SOL    HW310959   6.336   6.181   0.573 -0.1275 -1.8385 -0.0891
 2798SOL    MW410960   6.360   6.170   0.656  0.4397 -0.3252  0.9350
 2799SOL     OW10961   3.433   5.716   2.799  0.0315 -0.0367  0.2336
 2799SOL    HW210962   3.520   5.723   2.837  0.4004  0.8923 -0.7280
 2799SOL    HW310963   3.448   5.713   2.705 -0.8321 -2.6337  0.0951
 2799SOL    MW410964   3.446   5.716   2.792  0.3410  0.1450  0.5192
 2800SOL     OW10965   4.295   0.355   0.233 -0.4180  0.1802 -0.0492
 2800SOL    HW210966   4.234   0.293   0.275  0.3537 -0.4950  0.1013
 2800SOL    HW310967   4.310   0.318   0.146 -0.4249  0.4930 -0.1838
 2800SOL    MW410968   4.289   0.342   0.227 -0.4458 -0.0906  0.0952
 2801SOL     OW10969   0.980   1.189   5.655  0.5793 -0.0869  0.6951
 2801SOL    HW210970   1.036   1.264   5.633 -1.1346  1.5909  1.7026
 2801SOL    HW310971   1.025   1.145   5.727  1.3819  0.2547  0.4149
 2801SOL    MW410972   0.993   1.193   5.661  0.5857  0.0356 -0.4066
 2802SOL     OW10973   2.027   5.612   4.303  0.3988  0.3289  0.5692
 2802SOL    HW210974   2.052   5.523   4.276 -0.4829  0.6421 -1.4413
 2802SOL    HW310975   2.098   5.668   4.272  0.6031  0.4196  1.1900
 2802SOL    MW410976   2.039   5.607   4.296 -0.3418  0.0869 -0.0190
 2803SOL     OW10977   4.885   0.179   4.190 -0.1734  0.5445  0.1953
 2803SOL    HW210978   4.892   0.274   4.189 -1.6803  0.6826 -0.4652
 2803SOL    HW310979   4.905   0.152   4.100  1.6983  0.0671  0.7061
 2803SOL    MW410980   4.888   0.188   4.178 -0.3435 -0.1949  0.0155
 2804SOL     OW10981   5.696   0.579   2.626  0.1254 -0.1315  0.2773
 2804SOL    HW210982   5.732   0.585   2.537  1.6533 -1.3904  0.7658
 2804SOL    HW310983   5.722   0.661   2.668  0.8517 -0.2351  0.0502
 2804SOL    MW410984   5.704   0.591   2.620  0.2747 -0.5016 -0.3427
 2805SOL     OW10985   6.021   5.429   2.096 -0.5574  0.2348  0.9054
 2805SOL    HW210986   5.932   5.402   2.116 -0.5813  0.4584  1.1078
 2805SOL    HW310987   6.036   5.398   2.007 -1.3125  1.3705  0.3600
 2805SOL    MW410988   6.012   5.421   2.087  0.0615 -0.1141  0.0925
 2806SOL     OW10989   0.917   5.899   0.724 -0.4118  0.3022 -0.1012
 2806SOL    HW210990   0.958   5.942   0.650  0.0457  0.0335 -0.0091
 2806SOL    HW310991   0.904   5.808   0.695  1.2131 -0.2219  0.6727
 2806SOL    MW410992   0.921   5.892   0.711 -0.0191 -0.0361  0.3540
 2807SOL     OW10993   2.516   0.657   4.861 -0.0303  0.8343 -0.4615
 2807SOL    HW210994   2.574   0.640   4.935 -0.3989 -1.4541 -0.6224
 2807SOL    HW310995   2.549   0.738   4.822  1.0713  1.2883  1.3059
 2807SOL    MW410996   2.528   0.665   4.866  0.0204  0.1033 -0.1393
 2808SOL     OW10997   1.745   5.670   2.715 -0.0156  0.5322  0.2084
 2808SOL    HW210998   1.839   5.662   2.703  0.3019  0.1240  2.5347
 2808SOL    HW310999   1.709   5.586   2.687  0.5166  0.0749  0.8745
 2808SOL    MW411000   1.753   5.658   2.709 -0.4080 -0.1538  0.1774
 2809SOL     OW11001   0.651   2.330   1.431  0.1062  0.2842  0.0951
 2809SOL    HW211002   0.599   2.250   1.419  2.6044 -1.6326  1.1650
 2809SOL    HW311003   0.669   2.332   1.525  1.1044  1.4563 -0.0998
 2809SOL    MW411004   0.646   2.320   1.442  0.0290  0.0244 -0.3263
 2810SOL     OW11005   2.079   3.131   1.112 -0.3597 -0.2130  0.8789
 2810SOL    HW211006   2.173   3.134   1.099 -0.6299 -0.2002 -1.5488
 2810SOL    HW311007   2.051   3.050   1.070 -1.4871 -0.0029  1.1750
 2810SOL    MW411008   2.088   3.121   1.105 -0.0778  0.1594  0.0282
 2811SOL     OW11009   5.889   6.305   5.824  0.3337 -0.2645  0.2343
 2811SOL    HW211010   5.964   6.284   5.880  2.4323  1.9321 -1.5454
 2811SOL    HW311011   5.855   6.219   5.796  0.2650 -1.3741  3.3772
 2811SOL    MW411012   5.894   6.291   5.828 -0.6655 -0.2463 -0.2432
 2812SOL     OW11013   0.596   4.855   5.158  0.1310  0.8008 -0.0412
 2812SOL    HW211014   0.654   4.791   5.117 -0.5362  0.0052  0.2507
 2812SOL    HW311015   0.508   4.829   5.132 -0.2308  0.9252  1.0009
 2812SOL    MW411016   0.592   4.843   5.149 -0.0118  0.2265 -0.1794
 2813SOL     OW11017   5.162   2.049   5.941 -0.5311  0.4929  0.3663
 2813SOL    HW211018   5.234   2.076   5.999  1.8156 -0.7095 -1.8025
 2813SOL    HW311019   5.114   1.983   5.992  1.6940 -0.8137  0.8877
 2813SOL    MW411020   5.165   2.044   5.956  0.2289  0.2468  0.0964
 2814SOL     OW11021   0.398   5.367   1.965 -0.1417  0.1981  0.4456
 2814SOL    HW211022   0.336   5.411   2.025  0.3176  0.5610  0.6566
 2814SOL    HW311023   0.484   5.394   1.996  0.0914  2.6630 -2.0814
 2814SOL    MW411024   0.401   5.376   1.977  0.1826 -0.1720 -0.4106
 2815SOL     OW11025   3.616   4.243   1.734  0.0917 -0.4808  0.0560
 2815SOL    HW211026   3.543   4.289   1.775  0.4940 -0.9542  1.3587
 2815SOL    HW311027   3.684   4.309   1.722 -0.0478 -0.3286  0.1140
 2815SOL    MW411028   3.616   4.258   1.738  0.0228 -0.0734  0.2238
 2816SOL     OW11029   0.875   5.894   3.581  0.0826 -0.6684 -0.6350
 2816SOL    HW211030   0.950   5.923   3.529 -0.4677 -0.1700 -1.1558
 2816SOL    HW311031   0.904   5.905   3.672 -0.5363  2.9287 -0.7125
 2816SOL    MW411032   0.889   5.900   3.586 -0.0393 -0.0860 -0.1141
 2817SOL     OW11033   6.357   5.437   3.746  0.0971 -0.8130 -0.3795
 2817SOL    HW211034   6.400   5.366   3.698 -1.9743 -2.5572  0.2042
 2817SOL    HW311035   6.280   5.458   3.693 -0.4087 -0.4140  0.4993
 2817SOL    MW411036   6.352   5.431   3.733 -0.6079 -0.5490  0.0122
 2818SOL     OW11037   5.728   1.164   4.663 -0.1195 -0.1287  0.3022
 2818SOL    HW211038   5.661   1.223   4.697 -0.3192  1.7286 -2.9006
 2818SOL    HW311039   5.807   1.218   4.656 -0.1146 -0.3527 -2.0685
 2818SOL    MW411040   5.730   1.179   4.667  0.4777  0.4560  0.4217
 2819SOL     OW11041   0.095   4.043   5.901  0.4931 -0.3404 -0.5456
 2819SOL    HW211042   0.187   4.030   5.925  0.9817  0.9785 -1.5472
 2819SOL    HW311043   0.097   4.115   5.838 -1.4212  1.0409  0.8564
 2819SOL    MW411044   0.107   4.051   5.896 -0.0664 -0.3734  0.1659
 2820SOL     OW11045   3.430   5.467   3.374 -0.0725  0.4558  0.1563
 2820SOL    HW211046   3.525   5.466   3.387 -0.2111 -1.2266  1.3703
 2820SOL    HW311047   3.394   5.464   3.463 -1.2139 -1.3704 -0.3052
 2820SOL    MW411048   3.438   5.466   3.388 -0.1951  0.3062  0.4829
 2821SOL     OW11049   1.198   2.357   2.069  0.7007  0.0767 -0.1254
 2821SOL    HW211050   1.246   2.333   2.148  2.0339 -2.0226 -1.5088
 2821SOL    HW311051   1.135   2.286   2.056 -1.6639  1.8842  0.6389
 2821SOL    MW411052   1.196   2.345   2.078 -0.6879  0.2117  0.1725
 2822SOL     OW11053   1.343   1.587   6.293  0.4860 -0.6015 -0.7387
 2822SOL    HW211054   1.270   1.646   6.274  1.5685  1.0860  0.0964
 2822SOL    HW311055   1.302   1.500   6.301 -1.3248  0.1853 -0.9120
 2822SOL    MW411056   1.328   1.583   6.292 -0.3838 -0.4794  0.4725
 2823SOL     OW11057   5.937   5.005   1.883 -0.1235 -0.5940 -0.1730
 2823SOL    HW211058   5.891   4.922   1.895  0.4189 -0.7064  1.3511
 2823SOL    HW311059   5.970   5.028   1.970 -0.0114  1.0825 -0.6097
 2823SOL    MW411060   5.936   4.997   1.896  0.5162  0.1139 -0.2223
 2824SOL     OW11061   5.196   5.275   5.296  0.1127  0.7952  0.0847
 2824SOL    HW211062   5.288   5.264   5.272  0.2613  1.3732  0.3603
 2824SOL    HW311063   5.186   5.369   5.310 -1.3623  1.2727 -3.3065
 2824SOL    MW411064   5.207   5.286   5.295  0.2543  0.2550  0.4182
 2825SOL     OW11065   3.285   2.673   6.066 -0.6164  0.2949 -0.4675
 2825SOL    HW211066   3.339   2.717   6.001 -1.7770  1.4077 -0.7185
 2825SOL    HW311067   3.195   2.691   6.039 -1.1197  0.0636  0.9730
 2825SOL    MW411068   3.281   2.681   6.054 -1.0827 -0.0436  0.9000
 2826SOL     OW11069   3.579   6.041   3.253 -0.1633  0.1260 -0.0692
 2826SOL    HW211070   3.654   6.099   3.241  0.1430  0.0051  1.1877
 2826SOL    HW311071   3.618   5.953   3.256 -0.8032 -0.5182 -4.3607
 2826SOL    MW411072   3.594   6.037   3.251 -0.0613  0.7614  0.6495
 2827SOL     OW11073   2.584   2.333   3.474  0.8252  0.3909  0.5607
 2827SOL    HW211074   2.570   2.411   3.420 -0.5566 -1.0560 -1.2988
 2827SOL    HW311075   2.610   2.265   3.413 -1.1687 -1.4325  1.5827
 2827SOL    MW411076   2.586   2.335   3.459 -0.5442 -0.5021 -0.5037
 2828SOL     OW11077   3.953   2.605   3.790  0.1856  0.2813 -0.5607
 2828SOL    HW211078   4.004   2.615   3.709 -0.4545 -0.5012 -1.0642
 2828SOL    HW311079   3.922   2.694   3.809  0.2640  0.4575 -1.2264
 2828SOL    MW411080   3.956   2.618   3.781 -0.5565  0.0840 -0.0974
 2829SOL     OW11081   3.366   6.343   1.531 -0.6479 -0.0019  0.7061
 2829SOL    HW211082   3.392   6.273   1.471 -1.4941  1.4207 -1.4594
 2829SOL    HW311083   3.291   6.307   1.579 -0.3402 -0.9806  0.4654
 2829SOL    MW411084   3.359   6.329   1.530  0.2136 -0.1802  0.0672
 2830SOL     OW11085   4.076   2.604   3.539 -0.0881 -0.0413 -0.1756
 2830SOL    HW211086   4.169   2.614   3.518  0.0091 -1.3504 -0.4682
 2830SOL    HW311087   4.039   2.557   3.464 -0.8021 -0.3231  0.3395
 2830SOL    MW411088   4.083   2.599   3.527 -0.0085 -0.9336  0.4553
 2831SOL     OW11089   1.487   3.626   6.114 -0.4049 -0.6609 -1.2131
 2831SOL    HW211090   1.573   3.589   6.097  0.8637  0.2693  2.2687
 2831SOL    HW311091   1.437   3.555   6.154  1.5474  0.4873  4.0892
 2831SOL    MW411092   1.492   3.612   6.117  0.3785 -0.1812 -0.1952
 2832SOL     OW11093   2.067   0.030   1.962 -0.1067 -0.2689 -0.6437
 2832SOL    HW211094   2.118   0.019   2.043  1.8639 -0.5059 -1.8410
 2832SOL    HW311095   2.067   0.125   1.947 -1.0163 -0.1650 -0.0685
 2832SOL    MW411096   2.074   0.041   1.971  0.0137  0.3191  0.0123
 2833SOL     OW11097   0.632   1.906   4.941  0.0110 -0.1615  0.3500
 2833SOL    HW211098   0.716   1.882   4.901 -0.9986  1.9272 -3.5501
 2833SOL    HW311099   0.591   1.823   4.964  1.4433 -1.4641 -1.5719
 2833SOL    MW411100   0.638   1.892   4.939  0.4065 -0.4163  0.3963
 2834SOL     OW11101   4.264   2.471   5.465  0.1111 -0.1198 -0.5674
 2834SOL    HW211102   4.322   2.400   5.493  0.5512 -0.8154 -3.0093
 2834SOL    HW311103   4.259   2.462   5.370 -0.9657  2.2872 -0.8131
 2834SOL    MW411104   4.271   2.460   5.456 -0.5897  0.0990 -0.2962
 2835SOL     OW11105   5.335   5.087   2.654  0.2478  0.3202  0.1829
 2835SOL    HW211106   5.278   5.022   2.611  0.7880 -0.1652  0.1871
 2835SOL    HW311107   5.278   5.163   2.668  0.3599  0.9857 -2.5278
 2835SOL    MW411108   5.320   5.088   2.650  0.3847 -0.0371  0.5950
 2836SOL     OW11109   5.719   4.458   1.528  0.0566  0.2771  0.1783
 2836SOL    HW211110   5.666   4.537   1.517 -0.5077  0.0884  1.4242
 2836SOL    HW311111   5.671   4.405   1.590  1.2428 -0.3300  0.6145
 2836SOL    MW411112   5.706   4.462   1.535  0.5628 -0.7503 -0.2196
 2837SOL     OW11113   1.620   3.783   2.490 -0.1779  0.3436  0.2947
 2837SOL    HW211114   1.682   3.836   2.542  0.8440  0.1878 -0.7221
 2837SOL    HW311115   1.581   3.845   2.429  1.5380 -0.1357 -1.3734
 2837SOL    MW411116   1.623   3.798   2.489 -0.0836 -0.2715 -0.2613
 2838SOL     OW11117   4.570   2.530   1.405 -0.1241 -0.5475 -0.0403
 2838SOL    HW211118   4.595   2.621   1.387 -0.3218 -0.5390 -0.2829
 2838SOL    HW311119   4.605   2.512   1.492 -0.5789 -0.0550  0.2496
 2838SOL    MW411120   4.578   2.540   1.414 -0.2860  0.4260  0.2812
 2839SOL     OW11121   1.650   4.727   0.200 -0.0328 -0.0592  0.7620
 2839SOL    HW211122   1.570   4.700   0.155  0.8167  0.3273 -1.0451
 2839SOL    HW311123   1.625   4.731   0.293 -2.2214  0.4779  0.1997
 2839SOL    MW411124   1.636   4.724   0.207 -0.0254 -0.0056 -0.1870
 2840SOL     OW11125   1.315   0.100   4.718 -0.2037 -0.2083 -0.0596
 2840SOL    HW211126   1.225   0.070   4.733 -0.1203 -1.2438 -1.3994
 2840SOL    HW311127   1.325   0.175   4.777 -1.3021 -1.2147  1.4913
 2840SOL    MW411128   1.304   0.106   4.728  0.6134  0.4918  0.2476
 2841SOL     OW11129   4.142   1.829   0.182  0.6648 -0.3369 -0.0186
 2841SOL    HW211130   4.188   1.913   0.195  0.1849 -0.3073  1.6861
 2841SOL    HW311131   4.086   1.821   0.259 -1.3322 -0.9435 -1.4781
 2841SOL    MW411132   4.141   1.839   0.194 -0.1211  0.2545  0.1663
 2842SOL     OW11133   3.544   6.193   5.677 -0.2443  0.0379 -0.1122
 2842SOL    HW211134   3.582   6.261   5.621 -0.7567 -0.3738 -0.9688
 2842SOL    HW311135   3.561   6.111   5.630  0.3674 -0.4436  0.9110
 2842SOL    MW411136   3.551   6.191   5.664  0.0429  0.4303 -0.2369
 2843SOL     OW11137   5.652   4.758   4.593 -0.3299 -0.1438 -0.1234
 2843SOL    HW211138   5.598   4.837   4.584  0.5619  0.3036 -2.0734
 2843SOL    HW311139   5.609   4.693   4.538  1.5300  0.5073 -2.5076
 2843SOL    MW411140   5.639   4.760   4.585  0.2129 -0.1013 -0.3461
 2844SOL     OW11141   6.108   6.156   5.451 -0.0718  0.0931  0.1006
 2844SOL    HW211142   6.018   6.167   5.420 -0.0785  0.4498  0.2381
 2844SOL    HW311143   6.126   6.236   5.500 -0.4730 -0.9766  2.1013
 2844SOL    MW411144   6.099   6.168   5.453 -0.0321 -0.1095  0.0421
 2845SOL     OW11145   3.209   3.829   0.930 -0.1732  0.0464  0.3405
 2845SOL    HW211146   3.256   3.878   0.997 -1.0464  0.5319  0.6206
 2845SOL    HW311147   3.258   3.748   0.919  0.6145  0.4630  0.7449
 2845SOL    MW411148   3.222   3.825   0.937 -0.0241  0.0197  1.0534
 2846SOL     OW11149   2.755   2.054   5.952 -0.2425 -0.3376  0.5915
 2846SOL    HW211150   2.780   2.130   5.899 -1.2109 -0.3142  0.1440
 2846SOL    HW311151   2.785   2.075   6.040 -2.3585  1.5735  0.9689
 2846SOL    MW411152   2.762   2.067   5.957  0.0276  0.3173  0.1423
 2847SOL     OW11153   4.725   6.411   2.514  0.8386  0.2351  0.3951
 2847SOL    HW211154   4.691   6.359   2.588 -0.1076 -0.2547 -0.3603
 2847SOL    HW311155   4.647   6.444   2.470  1.3785  0.3257 -0.5253
 2847SOL    MW411156   4.710   6.408   2.518  0.7127 -0.4733 -0.1555
 2848SOL     OW11157   5.370   2.117   6.125 -0.2148  0.1978 -0.4076
 2848SOL    HW211158   5.397   2.026   6.119 -0.0914  0.1743  0.4259
 2848SOL    HW311159   5.449   2.164   6.151 -0.5092  0.4011  0.1277
 2848SOL    MW411160   5.384   2.111   6.127 -0.4374 -0.4749  0.0315
 2849SOL     OW11161   1.272   2.852   2.649  0.1836 -0.6131 -0.4102
 2849SOL    HW211162   1.247   2.798   2.574 -2.5521  0.7891 -0.5947
 2849SOL    HW311163   1.235   2.806   2.725 -2.6631  1.1179 -0.6189
 2849SOL    MW411164   1.264   2.839   2.649  0.3901 -0.0552  0.2954
 2850SOL     OW11165   3.844   5.738   5.089  0.2606  0.1617 -0.6463
 2850SOL    HW211166   3.756   5.771   5.068 -0.0618 -0.7432 -0.7408
 2850SOL    HW311167   3.874   5.795   5.160 -1.6200 -1.3581  1.4930
 2850SOL    MW411168   3.836   5.750   5.095  0.0040 -0.4418  0.1673
 2851SOL     OW11169   1.523   4.908   2.405  0.2418  0.1591  0.1749
 2851SOL    HW211170   1.574   4.840   2.449 -0.6740 -0.9063 -0.3680
 2851SOL    HW311171   1.584   4.981   2.395  1.4434 -0.8211  0.1618
 2851SOL    MW411172   1.537   4.909   2.409  0.0321 -0.3273 -0.4663
 2852SOL     OW11173   0.225   1.918   6.084 -0.4055 -0.1948  0.1631
 2852SOL    HW211174   0.130   1.930   6.080 -0.8059 -1.9910  2.3253
 2852SOL    HW311175   0.252   1.972   6.158  0.4335  0.9300 -0.9234
 2852SOL    MW411176   0.216   1.927   6.093 -0.1643 -0.0739 -0.2264
 2853SOL     OW11177   0.213   4.749   2.161  0.0369 -0.0917  0.2511
 2853SOL    HW211178   0.219   4.818   2.095 -1.0578 -0.5564 -0.3584
 2853SOL    HW311179   0.125   4.714   2.151 -0.0771 -0.3280  1.8175
 2853SOL    MW411180   0.202   4.754   2.151  0.4288 -0.2070  0.2727
 2854SOL     OW11181   0.526   2.200   5.110  0.0240  0.7987  0.1139
 2854SOL    HW211182   0.606   2.156   5.138 -0.3368  0.7461  1.1354
 2854SOL    HW311183   0.529   2.285   5.154 -0.0536  1.1577 -0.5617
 2854SOL    MW411184   0.537   2.206   5.120  0.3834 -0.0282 -0.2069
 2855SOL     OW11185   4.272   4.264   1.060 -0.0747 -0.3344  0.3954
 2855SOL    HW211186   4.278   4.195   0.994  1.4673 -0.9574  1.1482
 2855SOL    HW311187   4.321   4.337   1.022 -1.5227  0.3316 -0.3051
 2855SOL    MW411188   4.279   4.265   1.046  0.0686  0.0506  0.3034
 2856SOL     OW11189   5.499   1.833   5.576  0.2693 -0.0561 -0.1838
 2856SOL    HW211190   5.559   1.810   5.648 -0.0487 -0.6095 -0.0928
 2856SOL    HW311191   5.414   1.846   5.619 -0.1963 -1.5575 -0.5855
 2856SOL    MW411192   5.496   1.832   5.591  0.7853 -0.6580  0.3837
 2857SOL     OW11193   6.090   6.030   6.371 -0.1712 -0.4916 -0.6017
 2857SOL    HW211194   6.096   6.125   6.380  0.8564 -0.5240 -0.8191
 2857SOL    HW311195   6.043   6.001   6.449  1.4344 -0.0091  0.5821
 2857SOL    MW411196   6.085   6.038   6.382  0.1934 -0.1927  0.3165
 2858SOL     OW11197   1.441   5.563   4.003 -0.0286 -0.3141  0.6419
 2858SOL    HW211198   1.412   5.472   4.003  0.0255 -0.3328  0.3380
 2858SOL    HW311199   1.534   5.558   4.026 -0.3375 -0.2240  2.0094
 2858SOL    MW411200   1.449   5.550   4.006 -0.0139 -0.0892 -0.1035
 2859SOL     OW11201   3.069   4.145   0.790  0.2030 -0.0977  0.7610
 2859SOL    HW211202   3.086   4.227   0.745  0.5349 -0.2340  0.6353
 2859SOL    HW311203   3.142   4.134   0.851  1.2988 -1.3280 -0.7104
 2859SOL    MW411204   3.081   4.154   0.792  0.0189  0.3006  0.7328
 2860SOL     OW11205   5.798   6.077   0.918  0.1901  0.6747  0.1330
 2860SOL    HW211206   5.791   6.139   0.991  1.1280 -0.7274  1.4689
 2860SOL    HW311207   5.763   6.125   0.843 -1.8056  1.8320  1.6867
 2860SOL    MW411208   5.792   6.092   0.918 -0.0906  0.3121 -0.9197
 2861SOL     OW11209   0.092   3.517   5.266 -0.1393 -0.6300 -0.1165
 2861SOL    HW211210   0.071   3.460   5.340 -1.7344 -0.2186 -0.2195
 2861SOL    HW311211   0.188   3.518   5.264 -0.0432 -0.6754  1.9108
 2861SOL    MW411212   0.102   3.509   5.275 -0.6203 -0.3088  0.1351
 2862SOL     OW11213   6.373   2.492   2.360 -0.1524 -0.3562 -0.1729
 2862SOL    HW211214   6.457   2.522   2.324  0.1143 -1.0228 -0.1127
 2862SOL    HW311215   6.308   2.548   2.317  0.4939  2.2451  1.9965
 2862SOL    MW411216   6.375   2.504   2.349  0.3363 -0.2385 -0.3211
 2863SOL     OW11217   0.985   5.646   3.562 -0.3951  0.7432 -0.2256
 2863SOL    HW211218   1.079   5.661   3.552  0.0627 -0.5596  1.7085
 2863SOL    HW311219   0.946   5.734   3.558  0.9855  1.3837 -0.1007
 2863SOL    MW411220   0.992   5.660   3.560 -0.0407  0.1856  0.0015
 2864SOL     OW11221   5.585   4.979   3.570 -0.5326  0.2385  0.7852
 2864SOL    HW211222   5.626   5.038   3.633  0.7671  0.5755 -0.3161
 2864SOL    HW311223   5.493   5.005   3.567 -0.2308  1.3895  1.2333
 2864SOL    MW411224   5.579   4.990   3.578 -0.8486  0.2327 -0.1266
 2865SOL     OW11225   3.843   2.976   4.854 -0.2988  0.2313 -0.1398
 2865SOL    HW211226   3.794   2.894   4.844  0.6170 -0.1525 -1.8871
 2865SOL    HW311227   3.801   3.036   4.792  0.6819  0.2466 -0.8122
 2865SOL    MW411228   3.831   2.973   4.845 -0.1501 -0.6648 -0.2882
 2866SOL     OW11229   4.062   3.477   4.953  0.6245 -0.7611  0.7560
 2866SOL    HW211230   4.099   3.453   5.038 -0.0295 -1.6376  0.8159
 2866SOL    HW311231   3.968   3.463   4.963  0.7669 -3.9264 -0.9962
 2866SOL    MW411232   4.054   3.472   4.965 -0.1830 -0.2259 -0.1939
 2867SOL     OW11233   5.799   6.377   1.931 -0.0973 -0.3011 -0.3820
 2867SOL    HW211234   5.889   6.381   1.964 -0.0582 -2.1308 -0.2073
 2867SOL    HW311235   5.748   6.342   2.004 -0.7905 -0.2213 -0.8193
 2867SOL    MW411236   5.804   6.373   1.945  0.0940  0.8246  0.0581
 2868SOL     OW11237   0.341   3.764   5.465  0.2676  0.5530  0.0337
 2868SOL    HW211238   0.264   3.727   5.507 -0.0498 -0.3445 -1.2691
 2868SOL    HW311239   0.323   3.858   5.459 -0.5716  0.3978  0.0483
 2868SOL    MW411240   0.328   3.772   5.470 -0.3262 -0.3494 -0.1561
 2869SOL     OW11241   6.272   1.707   2.938 -0.3167  0.2591 -0.3516
 2869SOL    HW211242   6.315   1.696   2.853  0.5761 -0.9018  0.2233
 2869SOL    HW311243   6.344   1.730   2.997 -0.5673 -1.0935  0.5049
 2869SOL    MW411244   6.287   1.708   2.934 -0.2657  0.2179  0.0370
 2870SOL     OW11245   1.526   4.670   5.795  0.7009  0.1471 -0.1544
 2870SOL    HW211246   1.529   4.722   5.876 -1.0918 -1.9330  1.3968
 2870SOL    HW311247   1.587   4.598   5.811 -2.2141 -2.2818  1.0454
 2870SOL    MW411248   1.534   4.668   5.808  0.1228 -0.2535  0.4862
 2871SOL     OW11249   3.047   1.818   6.049  0.3813  0.1515  0.0862
 2871SOL    HW211250   3.020   1.727   6.060  0.8723  0.0705  0.7449
 2871SOL    HW311251   3.016   1.842   5.962  1.3087 -1.0214 -0.6010
 2871SOL    MW411252   3.039   1.809   6.039 -0.0858 -0.1226  0.0179
 2872SOL     OW11253   0.926   4.364   4.101 -0.7281 -0.0657 -0.1976
 2872SOL    HW211254   0.925   4.268   4.104  0.8555 -0.0955  1.3055
 2872SOL    HW311255   0.976   4.390   4.179 -0.6318  1.9699 -0.8698
 2872SOL    MW411256   0.933   4.355   4.112 -0.2444 -0.2531  0.3310
 2873SOL     OW11257   0.289   1.803   4.183  0.9145 -0.1434  0.2412
 2873SOL    HW211258   0.238   1.827   4.106  0.0743 -0.4156  0.6970
 2873SOL    HW311259   0.316   1.712   4.166  0.0295 -0.4862  0.6207
 2873SOL    MW411260   0.286   1.794   4.170  0.2574  0.0639  0.1209
 2874SOL     OW11261   5.120   4.840   1.518 -0.3178  0.1768 -0.2700
 2874SOL    HW211262   5.172   4.760   1.528  0.8387  1.0624  1.1132
 2874SOL    HW311263   5.056   4.835   1.589  0.4105  0.9442  0.4544
 2874SOL    MW411264   5.118   4.829   1.529  0.4314 -0.4501 -0.1327
 2875SOL     OW11265   6.418   5.532   5.415  0.1816  0.3504 -0.1043
 2875SOL    HW211266   6.427   5.438   5.400  0.9402  0.1848  1.2734
 2875SOL    HW311267   6.366   5.562   5.340  0.0533 -1.1222 -0.6590
 2875SOL    MW411268   6.412   5.523   5.403  0.4710 -0.0565 -0.0998
 2876SOL     OW11269   2.885   4.369   2.229  0.1621  0.1475 -0.0181
 2876SOL    HW211270   2.862   4.460   2.212  1.1235  0.7086  1.5161
 2876SOL    HW311271   2.866   4.324   2.147 -1.0470  1.5765 -0.5663
 2876SOL    MW411272   2.879   4.375   2.216  0.0003  0.7491  0.1899
 2877SOL     OW11273   0.527   4.089   3.066 -0.2344 -0.3892  0.2511
 2877SOL    HW211274   0.584   4.079   2.990  2.8195  0.6435  2.2336
 2877SOL    HW311275   0.493   4.178   3.059  0.3731 -0.1500  0.2561
 2877SOL    MW411276   0.530   4.099   3.055 -0.6774 -0.1462 -0.0849
 2878SOL     OW11277   6.111   6.016   4.331 -0.3625 -0.4730 -0.1605
 2878SOL    HW211278   6.131   6.062   4.412  0.2815  1.9393 -1.5965
 2878SOL    HW311279   6.016   6.028   4.320 -0.8969 -2.7150  1.2498
 2878SOL    MW411280   6.101   6.023   4.340 -0.0173  0.3863  0.4036
 2879SOL     OW11281   5.189   6.398   4.666 -0.0909  0.2418 -0.4476
 2879SOL    HW211282   5.213   6.483   4.629 -0.3517  0.1035 -0.9347
 2879SOL    HW311283   5.269   6.365   4.706  0.1107  0.5335 -0.6157
 2879SOL    MW411284   5.202   6.405   4.667 -0.6311 -0.0456  0.5049
 2880SOL     OW11285   2.747   2.724   4.362  0.1805  0.0594  0.4531
 2880SOL    HW211286   2.662   2.743   4.400 -0.0996  1.3159 -0.7347
 2880SOL    HW311287   2.734   2.732   4.268  1.4518 -0.4089  0.2140
 2880SOL    MW411288   2.734   2.727   4.355  0.0243 -0.0694  0.1976
 2881SOL     OW11289   2.583   0.764   6.160 -0.5211 -0.1309 -0.1755
 2881SOL    HW211290   2.569   0.780   6.067  0.8535 -0.9252 -0.5431
 2881SOL    HW311291   2.546   0.841   6.204 -2.4446 -0.3756 -1.2629
 2881SOL    MW411292   2.576   0.776   6.154  0.4721  0.2719  0.8249
 2882SOL     OW11293   5.900   1.444   6.108 -0.9296  0.9160 -0.4499
 2882SOL    HW211294   5.890   1.407   6.196 -1.7462 -0.9610 -1.2845
 2882SOL    HW311295   5.963   1.515   6.119 -1.9513  1.5815  1.8813
 2882SOL    MW411296   5.907   1.449   6.121 -0.1434  0.5531  0.5059
 2883SOL     OW11297   0.067   1.858   6.354 -0.2668  0.3667 -0.3262
 2883SOL    HW211298  -0.013   1.909   6.340 -1.1576 -1.5850 -3.2523
 2883SOL    HW311299   0.042   1.791   6.417  0.2540  2.0115  1.7337
 2883SOL    MW411300   0.053   1.856   6.361 -0.4798  0.2406 -0.5554
 2884SOL     OW11301   0.255   4.851   6.227 -0.4169 -0.8645 -0.5507
 2884SOL    HW211302   0.196   4.875   6.156 -1.1711 -0.1290  0.2870
 2884SOL    HW311303   0.281   4.761   6.208 -2.4984 -1.5320 -0.5185
 2884SOL    MW411304   0.251   4.842   6.215  0.2799  0.0065 -0.3056
 2885SOL     OW11305   1.636   3.166   1.953  0.2168  0.2182 -0.4484
 2885SOL    HW211306   1.716   3.190   1.906 -0.4801  0.2823 -1.6553
 2885SOL    HW311307   1.613   3.080   1.918 -1.3442  1.0746 -1.7021
 2885SOL    MW411308   1.644   3.158   1.942 -0.5039  0.1195  0.6299
 2886SOL     OW11309   0.232   4.885   0.862  0.9735  0.0432 -0.2160
 2886SOL    HW211310   0.158   4.876   0.800  0.0810 -0.9603  0.9381
 2886SOL    HW311311   0.191   4.882   0.948  2.2783  0.6829  0.4464
 2886SOL    MW411312   0.217   4.883   0.865  0.6259  0.2822  0.0705
 2887SOL     OW11313   5.870   4.853   6.022 -0.2490  0.0480 -0.0283
 2887SOL    HW211314   5.936   4.904   5.975 -0.6956 -0.3777 -1.1552
 2887SOL    HW311315   5.803   4.916   6.046  0.2762  0.3775  0.5914
 2887SOL    MW411316   5.870   4.868   6.019 -0.2229  0.4541  0.3998
 2888SOL     OW11317   2.291   0.816   6.390  0.2511  0.3638  0.2682
 2888SOL    HW211318   2.244   0.734   6.379 -0.1121  0.6510 -0.4212
 2888SOL    HW311319   2.253   0.874   6.324  1.1992  0.7745  0.0640
 2888SOL    MW411320   2.280   0.813   6.380 -0.0175 -0.1946  0.4878
 2889SOL     OW11321   4.910   3.650   2.472  0.0043 -0.2465 -0.7631
 2889SOL    HW211322   4.987   3.697   2.439 -1.3033  1.6693 -1.2257
 2889SOL    HW311323   4.916   3.657   2.567 -1.3736  3.1118 -0.7978
 2889SOL    MW411324   4.921   3.657   2.480 -0.2924  0.0853 -0.2891
 2890SOL     OW11325   3.942   5.613   2.139  0.5600 -0.3304 -0.0601
 2890SOL    HW211326   3.996   5.653   2.207  0.4172 -0.4456  0.1251
 2890SOL    HW311327   3.924   5.525   2.173  0.1550 -0.2480 -0.0616
 2890SOL    MW411328   3.947   5.607   2.153 -0.9345 -0.1662 -0.8705
 2891SOL     OW11329   1.522   3.599   1.042  0.3427  0.5227  0.0916
 2891SOL    HW211330   1.512   3.648   1.124  0.4563 -0.2346  0.5744
 2891SOL    HW311331   1.595   3.540   1.059 -0.0534 -0.1008 -0.3330
 2891SOL    MW411332   1.530   3.598   1.055 -0.0738  0.6188  0.0660
 2892SOL     OW11333   5.010   0.496   1.255 -0.0095  0.0668  0.3202
 2892SOL    HW211334   5.104   0.509   1.255 -0.2178  1.9306 -1.1761
 2892SOL    HW311335   4.984   0.505   1.164 -1.8322  1.2660  0.9015
 2892SOL    MW411336   5.019   0.499   1.243 -0.1720 -0.2512  0.0679
 2893SOL     OW11337   1.326   4.474   4.157  0.1771 -0.4698 -0.4967
 2893SOL    HW211338   1.349   4.557   4.115  0.6714 -0.9926 -1.2918
 2893SOL    HW311339   1.321   4.411   4.085  0.2656 -1.2266  0.1434
 2893SOL    MW411340   1.328   4.476   4.142 -0.0777  0.7820 -0.0314
 2894SOL     OW11341   2.869   0.833   6.245  0.4255 -0.0152 -0.9167
 2894SOL    HW211342   2.774   0.822   6.242  0.1990  1.8495 -1.9235
 2894SOL    HW311343   2.896   0.791   6.327 -1.0792 -1.6667 -1.2087
 2894SOL    MW411344   2.860   0.826   6.255 -0.4908 -0.2084  0.0754
 2895SOL     OW11345   0.832   2.790   5.695 -0.0547 -0.2127  0.1480
 2895SOL    HW211346   0.780   2.780   5.775 -0.5238 -0.4302 -0.1775
 2895SOL    HW311347   0.791   2.864   5.649  0.3807  0.0850  0.2398
 2895SOL    MW411348   0.820   2.799   5.699 -0.4223 -0.0430  0.3161
 2896SOL     OW11349   2.236   4.581   5.024 -0.3796 -0.3308  0.0412
 2896SOL    HW211350   2.324   4.615   5.010 -0.0952 -1.3124 -0.6103
 2896SOL    HW311351   2.204   4.628   5.101 -0.1642  1.7154 -1.0429
 2896SOL    MW411352   2.243   4.592   5.032 -0.1333  0.3902 -0.1482
 2897SOL     OW11353   5.990   6.245   4.507  0.4615 -0.2793  0.4726
 2897SOL    HW211354   5.975   6.276   4.417  0.2127  2.3422  1.3322
 2897SOL    HW311355   6.081   6.269   4.525 -0.6781  3.4426  2.3056
 2897SOL    MW411356   6.000   6.252   4.497 -0.0150 -0.0812  0.1272
 2898SOL     OW11357   3.555   3.223   5.391  0.4392  0.7449  0.0149
 2898SOL    HW211358   3.636   3.174   5.408  0.6889  0.9339 -0.5879
 2898SOL    HW311359   3.498   3.161   5.346  0.2880  0.6391  0.3564
 2898SOL    MW411360   3.558   3.209   5.387 -0.1936 -0.4580  0.2087
 2899SOL     OW11361   4.329   3.868   3.749 -0.0565 -0.1083 -0.4737
 2899SOL    HW211362   4.344   3.780   3.716  0.7871  0.2211 -1.0046
 2899SOL    HW311363   4.332   3.859   3.844 -0.0425 -0.6603 -0.5262
 2899SOL    MW411364   4.331   3.855   3.757  0.0562 -0.2864 -0.4489
 2900SOL     OW11365   0.955   1.207   0.911 -0.2123  0.3536 -0.0162
 2900SOL    HW211366   0.925   1.277   0.852  1.5176 -0.0781 -1.5008
 2900SOL    HW311367   0.922   1.233   0.997 -0.6196  2.3802 -0.7128
 2900SOL    MW411368   0.947   1.220   0.914  0.3165 -0.2841  0.4248
 2901SOL     OW11369   4.602   0.960   2.008 -0.4651  0.2340 -0.2555
 2901SOL    HW211370   4.682   0.908   2.016 -1.0387 -0.3349  3.2309
 2901SOL    HW311371   4.535   0.897   1.981 -0.3165  0.0810 -0.2662
 2901SOL    MW411372   4.604   0.945   2.005  0.3578 -0.0240  0.3722
 2902SOL     OW11373   1.175   3.961   5.155 -0.1115  0.1473 -0.4134
 2902SOL    HW211374   1.263   3.998   5.152 -0.3374  0.7741  0.2790
 2902SOL    HW311375   1.183   3.881   5.207 -0.2072  1.0019  0.9601
 2902SOL    MW411376   1.188   3.955   5.162 -0.1704  0.5018 -0.6013
 2903SOL     OW11377   3.042   3.419   6.318 -0.0674 -0.1361 -0.0508
 2903SOL    HW211378   3.065   3.435   6.227 -0.5307 -1.4144 -0.4183
 2903SOL    HW311379   2.988   3.494   6.343  0.3937  0.4250 -0.6842
 2903SOL    MW411380   3.038   3.431   6.309 -0.3405  0.5714  0.2460
 2904SOL     OW11381   1.018   0.145   1.926  0.1034  0.5589  0.2797
 2904SOL    HW211382   1.012   0.220   1.986 -1.1040  0.8267 -0.1426
 2904SOL    HW311383   1.080   0.086   1.967  2.1970  2.3817 -0.0300
 2904SOL    MW411384   1.025   0.147   1.939 -0.7011 -0.0790 -0.0691
 2905SOL     OW11385   4.310   4.840   2.927  0.1859 -0.6481  0.1417
 2905SOL    HW211386   4.330   4.887   2.847  1.1411 -2.0111 -0.4626
 2905SOL    HW311387   4.264   4.761   2.897 -0.0624 -0.8371  0.9982
 2905SOL    MW411388   4.307   4.836   2.912 -0.4194  0.2023  0.2386
 2906SOL     OW11389   3.739   0.147   5.991  0.3731 -0.4594 -0.1775
 2906SOL    HW211390   3.802   0.075   6.001  2.2423  1.0900 -0.1844
 2906SOL    HW311391   3.752   0.201   6.069 -1.5779 -0.5166  0.2258
 2906SOL    MW411392   3.749   0.145   6.003  0.4415  0.5045 -0.0085
 2907SOL     OW11393   5.717   3.919   2.397  0.0591 -0.1043 -0.0045
 2907SOL    HW211394   5.782   3.948   2.461 -0.6698  0.4650  0.4940
 2907SOL    HW311395   5.636   3.909   2.447 -0.5807  0.5412 -0.8613
 2907SOL    MW411396   5.715   3.921   2.412  0.0266  0.3919  0.1952
 2908SOL     OW11397   1.502   1.871   3.920 -0.2791 -0.2399  0.2420
 2908SOL    HW211398   1.539   1.856   3.833 -3.4449  1.9459 -1.6733
 2908SOL    HW311399   1.475   1.784   3.950 -0.8696 -0.8260 -1.8374
 2908SOL    MW411400   1.504   1.857   3.913  0.0182  0.4753  0.4926
 2909SOL     OW11401   1.791   2.133   2.149  0.1492 -0.7532 -0.4579
 2909SOL    HW211402   1.825   2.046   2.170  0.0204 -0.3502  1.6372
 2909SOL    HW311403   1.696   2.126   2.163  0.2165 -0.1229  0.4173
 2909SOL    MW411404   1.783   2.120   2.154 -0.2661  0.3625 -0.3918
 2910SOL     OW11405   5.674   2.602   3.374  0.2046  0.1042  0.4556
 2910SOL    HW211406   5.706   2.687   3.404  0.5931  0.1547 -0.0897
 2910SOL    HW311407   5.680   2.606   3.278 -5.3970  1.7268 -0.1705
 2910SOL    MW411408   5.679   2.614   3.365  0.7934 -0.3257 -0.1450
 2911SOL     OW11409   1.837   3.412   2.934  0.3205 -0.0930  0.1883
 2911SOL    HW211410   1.745   3.399   2.955  0.2148  2.6411  1.9317
 2911SOL    HW311411   1.837   3.462   2.853  0.2933 -0.3555  0.0254
 2911SOL    MW411412   1.825   3.417   2.926  0.0126  0.1515  0.5815
 2912SOL     OW11413   0.932   1.688   2.067  0.0209 -0.1948 -0.0729
 2912SOL    HW211414   0.981   1.732   2.137  0.1052  1.1651 -0.9504
 2912SOL    HW311415   0.994   1.680   1.995 -0.7149  0.6020 -0.8254
 2912SOL    MW411416   0.947   1.693   2.067  0.0751 -0.3208  0.2607
 2913SOL     OW11417   4.747   6.267   2.267 -0.2732  0.2567 -0.5396
 2913SOL    HW211418   4.831   6.222   2.258 -0.7204 -0.1923 -3.8952
 2913SOL    HW311419   4.749   6.305   2.355  2.4878 -1.5584  0.3089
 2913SOL    MW411420   4.759   6.266   2.277 -0.2822  0.7549 -0.0615
 2914SOL     OW11421   3.730   2.407   3.384  0.3289 -0.1225  0.5270
 2914SOL    HW211422   3.818   2.377   3.406  1.3807  1.9109 -0.5313
 2914SOL    HW311423   3.686   2.330   3.348  1.6923 -1.1642  1.0256
 2914SOL    MW411424   3.736   2.393   3.382  0.0967  0.2478  0.6740
 2915SOL     OW11425   4.568   2.705   5.032  0.0848  0.4269  0.2744
 2915SOL    HW211426   4.595   2.724   5.122  1.1399 -0.4870  0.1688
 2915SOL    HW311427   4.641   2.735   4.978  0.7901 -1.7097 -0.0411
 2915SOL    MW411428   4.581   2.711   5.037  0.3408 -0.3070  0.0422
 2916SOL     OW11429   2.509   5.637   2.861  0.2558  0.1666 -0.1364
 2916SOL    HW211430   2.423   5.596   2.857 -0.4348  1.5240  0.0929
 2916SOL    HW311431   2.531   5.638   2.954 -0.4341  1.6233  0.0496
 2916SOL    MW411432   2.501   5.632   2.873 -0.2971 -0.1062 -0.2706
 2917SOL     OW11433   5.639   2.184   4.891  0.7099  0.1684  0.8156
 2917SOL    HW211434   5.640   2.099   4.846  1.6903  0.6915 -0.1836
 2917SOL    HW311435   5.722   2.225   4.867 -0.0790  1.7408  0.6359
 2917SOL    MW411436   5.650   2.178   4.882  0.5470  0.3551 -0.0754
 2918SOL     OW11437   0.731   1.683   1.103 -0.2684 -0.2011  0.2560
 2918SOL    HW211438   0.671   1.699   1.031  0.5322 -0.2870 -0.4447
 2918SOL    HW311439   0.753   1.590   1.097 -2.5405 -1.0026  2.4794
 2918SOL    MW411440   0.726   1.673   1.093  0.4339  0.5040 -0.1039
 2919SOL     OW11441   3.989   5.860   4.884  0.6294 -0.3542 -0.1442
 2919SOL    HW211442   3.939   5.825   4.957  1.3793 -0.0577  0.5198
 2919SOL    HW311443   3.922   5.884   4.819 -0.2465  1.3911  1.3033
 2919SOL    MW411444   3.973   5.859   4.885  0.6117  0.0340  0.3360
 2920SOL     OW11445   1.080   0.398   4.612  0.2168 -0.4184  0.5954
 2920SOL    HW211446   1.130   0.317   4.596  0.1376 -0.2189 -0.7612
 2920SOL    HW311447   1.133   0.467   4.573 -1.0141 -0.1852 -0.7512
 2920SOL    MW411448   1.094   0.396   4.605  0.1296 -0.0344 -0.3726
 2921SOL     OW11449   6.355   4.997   2.106 -0.1072  0.3000  0.0258
 2921SOL    HW211450   6.332   4.917   2.059 -2.2043  1.4146 -0.9947
 2921SOL    HW311451   6.407   5.048   2.044 -1.6121  1.1184 -0.6346
 2921SOL    MW411452   6.359   4.993   2.092  0.1575  0.4010  0.4244
 2922SOL     OW11453   5.219   0.515   0.696  0.5295 -0.3681 -0.1140
 2922SOL    HW211454   5.300   0.468   0.675  1.2490  0.2917  1.0958
 2922SOL    HW311455   5.170   0.515   0.614 -0.1664 -4.3974  0.0631
 2922SOL    MW411456   5.223   0.508   0.682  0.4990  0.1358 -0.4494
 2923SOL     OW11457   1.121   2.428   4.933  0.3508 -0.8569  0.3556
 2923SOL    HW211458   1.097   2.407   4.843  0.0890 -0.8238  0.4160
 2923SOL    HW311459   1.217   2.432   4.932  0.3066  0.6038 -0.2438
 2923SOL    MW411460   1.130   2.426   4.921 -0.2509  0.5636 -0.5777
 2924SOL     OW11461   5.161   2.510   1.211  0.3830  0.3924 -0.4996
 2924SOL    HW211462   5.225   2.536   1.145  1.3950  1.8934  0.9794
 2924SOL    HW311463   5.108   2.589   1.224 -0.2039 -0.0858  0.0406
 2924SOL    MW411464   5.163   2.524   1.204  0.3205  0.2677  0.2398
 2925SOL     OW11465   4.721   4.189   3.572  0.1600 -0.0023 -0.4201
 2925SOL    HW211466   4.797   4.238   3.603 -1.1694  2.0284 -0.1745
 2925SOL    HW311467   4.685   4.148   3.651 -0.2232  0.8352 -0.1510
 2925SOL    MW411468   4.726   4.190   3.587  1.0603  0.5505 -0.2916
 2926SOL     OW11469   2.364   0.983   1.997  0.2983 -0.3595 -0.6314
 2926SOL    HW211470   2.287   0.938   2.034  0.1964 -0.3139 -0.7866
 2926SOL    HW311471   2.360   1.071   2.034 -1.4047  0.6253 -2.9030
 2926SOL    MW411472   2.353   0.989   2.007  0.3881  0.1799  0.3682
 2927SOL     OW11473   5.376   2.945   0.204 -0.4381  0.3743 -0.7447
 2927SOL    HW211474   5.339   2.903   0.281  0.2405 -0.3813 -0.8170
 2927SOL    HW311475   5.442   3.005   0.238 -2.4664  2.6457 -0.5255
 2927SOL    MW411476   5.380   2.947   0.218  0.2367  0.5909  0.5968
 2928SOL     OW11477   2.228   4.632   0.356 -0.7213  0.2123 -0.2109
 2928SOL    HW211478   2.139   4.612   0.385 -1.0326 -0.6674 -1.6716
 2928SOL    HW311479   2.240   4.579   0.277  0.6595  1.2715 -0.7524
 2928SOL    MW411480   2.218   4.622   0.350 -0.1936  0.6795  0.2055
 2929SOL     OW11481   5.018   4.640   2.067  0.1151  0.2070  0.3577
 2929SOL    HW211482   4.991   4.732   2.069  1.7069  0.7136  0.3127
 2929SOL    HW311483   5.043   4.620   2.157 -0.8525 -0.3949  0.4990
 2929SOL    MW411484   5.018   4.650   2.079 -0.4739 -0.8415 -0.1242
 2930SOL     OW11485   6.340   4.887   0.117  0.5974  0.4088  0.5180
 2930SOL    HW211486   6.313   4.936   0.039 -1.5692 -2.5026 -0.7226
 2930SOL    HW311487   6.422   4.844   0.091 -0.6217 -1.3491 -0.6422
 2930SOL    MW411488   6.348   4.888   0.103 -0.0740 -0.0953  0.1578
 2931SOL     OW11489   6.312   3.292   2.605  0.5482  0.1600 -0.2837
 2931SOL    HW211490   6.406   3.289   2.586  0.6197 -1.1571  0.1500
 2931SOL    HW311491   6.296   3.211   2.655  0.0288  2.3464  3.4899
 2931SOL    MW411492   6.322   3.281   2.609 -0.0369 -0.0769 -0.2157
 2932SOL     OW11493   3.615   1.221   1.129  0.3264  0.0681 -0.4730
 2932SOL    HW211494   3.606   1.309   1.167  0.2402 -0.0132 -0.3047
 2932SOL    HW311495   3.704   1.220   1.094 -0.2700  0.8630 -2.1183
 2932SOL    MW411496   3.626   1.233   1.130  0.3706  0.2683 -0.0428
 2933SOL     OW11497   6.387   6.404   2.745 -0.3321  0.5189  0.2955
 2933SOL    HW211498   6.474   6.379   2.777 -0.1990  1.9633  1.1540
 2933SOL    HW311499   6.362   6.332   2.687  1.4956  0.1385 -0.1160
 2933SOL    MW411500   6.396   6.391   2.742 -0.4768  0.0611 -0.2018
 2934SOL     OW11501   4.058   5.276   0.192  0.4696  0.1674 -0.2783
 2934SOL    HW211502   4.086   5.234   0.111 -0.7353 -1.9135  0.3078
 2934SOL    HW311503   4.097   5.363   0.189  2.1661 -0.5848 -2.1086
 2934SOL    MW411504   4.067   5.281   0.181  0.2422 -0.3847 -0.3013
 2935SOL     OW11505   1.858   2.367   0.023 -0.9793  0.1166  0.2438
 2935SOL    HW211506   1.816   2.420   0.092 -1.6723  2.5866 -1.9122
 2935SOL    HW311507   1.791   2.359  -0.045  0.5977  0.3301 -1.3991
 2935SOL    MW411508   1.843   2.373   0.023  0.3076  0.3383 -0.7716
 2936SOL     OW11509   3.134   1.132   1.934 -0.0319  0.3606 -0.2947
 2936SOL    HW211510   3.209   1.073   1.936 -0.3832 -0.0828  0.0298
 2936SOL    HW311511   3.118   1.155   2.025  0.5791  1.5840 -0.4780
 2936SOL    MW411512   3.142   1.127   1.946 -0.3752  0.7061 -0.5254
 2937SOL     OW11513   2.840   0.431   6.092  0.0423  0.2541 -0.4261
 2937SOL    HW211514   2.779   0.444   6.019  0.4569  1.7599 -0.5518
 2937SOL    HW311515   2.802   0.482   6.164 -0.7673 -1.8460  0.6972
 2937SOL    MW411516   2.827   0.440   6.092  0.3367 -0.0917  0.3071
 2938SOL     OW11517   0.121   0.807   4.208  0.6393 -0.4034  0.2786
 2938SOL    HW211518   0.074   0.795   4.125  1.3438 -0.5407 -0.1024
 2938SOL    HW311519   0.167   0.890   4.198  0.4557 -0.2504  0.6691
 2938SOL    MW411520   0.121   0.816   4.196  0.0067 -0.1108 -0.4310
 2939SOL     OW11521   2.837   6.300   1.661  0.8793 -0.3905 -0.0014
 2939SOL    HW211522   2.923   6.260   1.650  1.4864  0.4744  1.4079
 2939SOL    HW311523   2.779   6.249   1.603  2.6469  0.1346 -2.3725
 2939SOL    MW411524   2.840   6.288   1.652 -0.1834  0.5211  0.3371
 2940SOL     OW11525   4.195   0.823   3.542 -0.3146  0.2534  0.4147
 2940SOL    HW211526   4.170   0.910   3.511  1.1597  1.1949  1.7177
 2940SOL    HW311527   4.188   0.829   3.638 -0.5045 -1.1708  0.5155
 2940SOL    MW411528   4.191   0.835   3.551  0.4679 -0.1391 -0.0065
 2941SOL     OW11529   3.203   0.206   2.945 -0.0003 -0.5523  0.3927
 2941SOL    HW211530   3.125   0.252   2.977  1.4288  0.9983  1.8672
 2941SOL    HW311531   3.177   0.170   2.860 -1.6399  1.8391 -0.2032
 2941SOL    MW411532   3.189   0.207   2.938 -0.2516 -0.9595 -0.3681
 2942SOL     OW11533   1.209   1.174   1.374 -0.4211 -0.4072 -0.0979
 2942SOL    HW211534   1.301   1.152   1.363 -0.7435 -3.4470  2.1853
 2942SOL    HW311535   1.209   1.251   1.431  0.6863 -0.4742  0.0060
 2942SOL    MW411536   1.221   1.182   1.380  0.4233 -0.5450 -0.1092
 2943SOL     OW11537   3.639   6.237   2.810 -0.6388  0.1464  0.1599
 2943SOL    HW211538   3.580   6.311   2.799 -1.1121 -0.2218  0.1587
 2943SOL    HW311539   3.723   6.267   2.776 -1.0301  0.4175 -0.5757
 2943SOL    MW411540   3.643   6.251   2.804  0.1744  0.2328  0.4375
 2944SOL     OW11541   6.090   1.665   0.033  0.2043 -0.5590 -0.2738
 2944SOL    HW211542   6.124   1.716   0.106  0.1105  0.7045 -1.0821
 2944SOL    HW311543   6.167   1.641  -0.019  0.1702 -0.4762 -0.3644
 2944SOL    MW411544   6.104   1.669   0.036 -0.6529  0.1287 -0.1943
 2945SOL     OW11545   3.619   4.131   1.274  0.4773 -0.5793 -0.1057
 2945SOL    HW211546   3.626   4.045   1.314  1.2938 -1.4322 -1.9670
 2945SOL    HW311547   3.617   4.114   1.180  0.5985  1.4229 -0.5219
 2945SOL    MW411548   3.620   4.117   1.267  0.7555 -0.1862 -0.0643
 2946SOL     OW11549   4.050   3.884   2.261  0.0356 -0.4591 -0.2589
 2946SOL    HW211550   4.118   3.832   2.304  0.3622 -1.2393 -1.6537
 2946SOL    HW311551   4.043   3.846   2.174 -1.1663  0.5634 -0.6305
 2946SOL    MW411552   4.058   3.872   2.255 -0.1603 -0.1226 -0.3420
 2947SOL     OW11553   0.453   6.291   0.842 -0.1887 -0.1825  0.3136
 2947SOL    HW211554   0.404   6.211   0.827 -0.7495  0.2803 -0.3713
 2947SOL    HW311555   0.467   6.294   0.937 -1.3200 -0.4177  0.4944
 2947SOL    MW411556   0.448   6.281   0.853  0.5892  0.0053 -0.7138
 2948SOL     OW11557   1.535   0.582   1.642 -0.2589  0.0371 -0.2044
 2948SOL    HW211558   1.599   0.587   1.713  0.5711  0.6727 -0.9747
 2948SOL    HW311559   1.450   0.590   1.686  0.1743 -0.7698  0.8317
 2948SOL    MW411560   1.532   0.584   1.658  0.0015  0.6041  0.4131
 2949SOL     OW11561   6.282   5.787   5.339  0.2790  0.2811  0.1227
 2949SOL    HW211562   6.291   5.880   5.357  0.4504 -0.2015  2.9532
 2949SOL    HW311563   6.244   5.750   5.419 -1.0724 -1.8998 -1.4037
 2949SOL    MW411564   6.278   5.794   5.352 -0.1082  0.0851  0.1883
 2950SOL     OW11565   3.794   5.458   5.047  0.3475  0.3788 -0.3798
 2950SOL    HW211566   3.810   5.547   5.078  0.6511 -0.3381  1.6962
 2950SOL    HW311567   3.774   5.409   5.127  0.6073 -1.5028 -1.4274
 2950SOL    MW411568   3.794   5.463   5.062 -0.2298  0.1786 -0.0656
 2951SOL     OW11569   3.833   3.173   4.652 -0.4201  0.0675  0.0732
 2951SOL    HW211570   3.918   3.147   4.686 -0.4002 -1.1383 -0.8386
 2951SOL    HW311571   3.844   3.266   4.630  0.7505 -0.1405 -0.2979
 2951SOL    MW411572   3.846   3.182   4.653 -0.5198  0.4171  0.4219
 2952SOL     OW11573   1.484   1.700   4.262  0.2554 -0.1636  0.3535
 2952SOL    HW211574   1.565   1.692   4.314  1.4028 -1.1913 -1.4732
 2952SOL    HW311575   1.414   1.706   4.327  1.7460  0.2092  2.0036
 2952SOL    MW411576   1.486   1.700   4.278  0.8266  0.2887 -0.5671
 2953SOL     OW11577   2.721   3.684   0.609 -0.0532 -0.0165 -0.1026
 2953SOL    HW211578   2.811   3.713   0.597  0.2427 -0.4563  1.0099
 2953SOL    HW311579   2.699   3.710   0.698 -0.0455 -2.4563  0.6746
 2953SOL    MW411580   2.730   3.691   0.619  0.0660  0.1971 -0.4880
 2954SOL     OW11581   6.032   0.168   5.998  0.6917  0.4261 -0.1078
 2954SOL    HW211582   6.012   0.233   6.066  0.5294 -0.4624  0.7163
 2954SOL    HW311583   5.948   0.153   5.954  0.3640 -0.3719  0.7461
 2954SOL    MW411584   6.018   0.175   6.001 -0.2361  0.6024 -0.5907
 2955SOL     OW11585   1.553   2.786   3.359  0.3232 -0.1357  0.5702
 2955SOL    HW211586   1.496   2.726   3.310 -1.0727  0.0864  1.8517
 2955SOL    HW311587   1.505   2.869   3.359  1.0452  0.2869  0.9684
 2955SOL    MW411588   1.539   2.789   3.352  0.2858  0.0528  0.1788
 2956SOL     OW11589   3.562   2.285   1.582  0.2616  0.1184 -0.5722
 2956SOL    HW211590   3.634   2.342   1.609  0.4439 -0.2071 -0.3619
 2956SOL    HW311591   3.502   2.284   1.657  1.4047 -1.8262  0.3819
 2956SOL    MW411592   3.563   2.293   1.595  0.1444 -0.3553 -0.4296
 2957SOL     OW11593   1.731   3.420   1.093 -0.5420  0.2021 -0.0605
 2957SOL    HW211594   1.808   3.428   1.150 -1.5956 -0.0959  1.4510
 2957SOL    HW311595   1.757   3.354   1.028 -0.5468 -2.3827  2.3530
 2957SOL    MW411596   1.745   3.412   1.092  0.1837  0.2407  0.6111
 2958SOL     OW11597   5.578   3.384   4.801 -0.4584  0.5036  0.1125
 2958SOL    HW211598   5.574   3.409   4.893 -0.2158  1.9077 -0.2334
 2958SOL    HW311599   5.650   3.436   4.765 -0.4595 -0.1318 -0.8340
 2958SOL    MW411600   5.587   3.394   4.808 -0.5454  0.5124  0.3895
 2959SOL     OW11601   1.003   0.379   5.377 -0.1870  0.1453 -0.3679
 2959SOL    HW211602   0.933   0.431   5.338  1.3998  1.3168 -1.7990
 2959SOL    HW311603   0.999   0.400   5.470 -1.4963  0.4603 -0.4761
 2959SOL    MW411604   0.993   0.388   5.384 -0.2891  0.5577  0.7645
 2960SOL     OW11605   3.458   1.416   4.489  0.8038  0.3706 -0.3337
 2960SOL    HW211606   3.377   1.406   4.539  0.5717  0.6013 -0.6576
 2960SOL    HW311607   3.435   1.476   4.418  1.0473 -0.1754 -0.8845
 2960SOL    MW411608   3.445   1.423   4.486  0.1336 -0.0135  0.6350
 2961SOL     OW11609   1.474   2.379   4.294  0.8623  0.1902  0.0839
 2961SOL    HW211610   1.469   2.455   4.237  3.0434  0.6141  0.3338
 2961SOL    HW311611   1.548   2.328   4.259 -0.4457 -1.7716  0.0093
 2961SOL    MW411612   1.483   2.382   4.282  0.0347  0.3639  0.1673
 2962SOL     OW11613   1.151   1.775   4.051 -0.1139 -0.8615 -1.0196
 2962SOL    HW211614   1.171   1.688   4.018 -2.8147 -2.3354  0.8296
 2962SOL    HW311615   1.068   1.764   4.098  1.6716  1.6956  3.2782
 2962SOL    MW411616   1.142   1.762   4.053  0.5916 -0.0373 -0.0462
 2963SOL     OW11617   0.929   4.288   5.707 -0.0927 -0.2658  0.2207
 2963SOL    HW211618   1.020   4.319   5.710 -0.6528  1.8268 -1.8457
 2963SOL    HW311619   0.890   4.320   5.788  0.4825  0.7286  0.1288
 2963SOL    MW411620   0.936   4.296   5.718  0.1053 -0.6115 -0.0536
 2964SOL     OW11621   4.148   4.893   5.751  0.6543 -0.1022 -0.1789
 2964SOL    HW211622   4.082   4.955   5.781  0.2590 -1.0973  1.0876
 2964SOL    HW311623   4.198   4.942   5.685  0.7720  1.7809  1.2196
 2964SOL    MW411624   4.146   4.908   5.746 -0.0267 -0.3706 -0.2454
 2965SOL     OW11625   3.351   0.170   3.745 -0.0350 -0.9114  0.2021
 2965SOL    HW211626   3.305   0.227   3.683 -0.2873 -0.8407  0.4510
 2965SOL    HW311627   3.425   0.136   3.695  0.7245  0.4519  0.3544
 2965SOL    MW411628   3.355   0.173   3.730 -0.0582 -0.1543  0.1945
 2966SOL     OW11629   5.712   0.109   1.194 -0.0496  0.3015 -0.1076
 2966SOL    HW211630   5.753   0.024   1.210 -0.8489 -0.2564 -0.9274
 2966SOL    HW311631   5.663   0.127   1.274  0.6620  0.3220  0.3341
 2966SOL    MW411632   5.711   0.100   1.207  0.3645 -0.3362  0.1448
 2967SOL     OW11633   5.294   4.438   3.388 -0.1547 -0.3122 -0.0630
 2967SOL    HW211634   5.296   4.342   3.390  1.2623 -0.3043  0.1662
 2967SOL    HW311635   5.201   4.460   3.393 -0.5263 -1.6773 -0.4118
 2967SOL    MW411636   5.282   4.428   3.389  0.7216 -0.1936  0.0563
 2968SOL     OW11637   3.985   3.820   1.998  0.1774 -0.5246 -0.1583
 2968SOL    HW211638   3.995   3.725   1.992 -0.6150 -0.6181 -0.0940
 2968SOL    HW311639   3.894   3.836   1.975  0.2061  0.1916  0.1971
 2968SOL    MW411640   3.974   3.810   1.994  0.0065 -0.1194 -0.1077
 2969SOL     OW11641   5.954   6.242   1.541 -0.4228  0.4961  0.2706
 2969SOL    HW211642   6.034   6.261   1.590  0.2260 -3.3612  1.0118
 2969SOL    HW311643   5.949   6.147   1.539 -4.7324  0.5397 -0.2466
 2969SOL    MW411644   5.964   6.232   1.548 -0.0779  0.0280  0.1560
 2970SOL     OW11645   4.859   4.148   5.031  0.5036 -0.2141 -0.2207
 2970SOL    HW211646   4.799   4.220   5.053 -1.4431 -1.8743  0.1304
 2970SOL    HW311647   4.906   4.180   4.954  0.1981  1.7041  0.3344
 2970SOL    MW411648   4.857   4.162   5.024  0.0367  0.1734 -0.0961
 2971SOL     OW11649   4.741   1.263   5.793  0.1209  0.1567  0.1600
 2971SOL    HW211650   4.744   1.175   5.756 -0.7767  0.1385  0.1301
 2971SOL    HW311651   4.822   1.270   5.844  0.5238 -0.4381 -0.3868
 2971SOL    MW411652   4.752   1.252   5.795  0.7349 -0.3049 -0.3748
 2972SOL     OW11653   5.029   3.930   1.942 -0.2361  1.1940  0.6531
 2972SOL    HW211654   5.102   3.872   1.925 -0.0568  1.3412  0.9013
 2972SOL    HW311655   5.027   3.938   2.038 -1.1272  0.4861  0.7040
 2972SOL    MW411656   5.038   3.924   1.953  0.1893 -0.0803 -0.0379
 2973SOL     OW11657   2.634   5.106   2.277  0.0121  0.4560  0.0040
 2973SOL    HW211658   2.627   5.131   2.369 -0.0648  2.1899 -0.4422
 2973SOL    HW311659   2.545   5.083   2.252  0.2666 -1.4384  0.7101
 2973SOL    MW411660   2.621   5.106   2.285 -0.3296  0.4157 -0.1382
 2974SOL     OW11661   5.663   3.541   2.605 -0.1313 -0.0865 -0.2918
 2974SOL    HW211662   5.618   3.492   2.674 -1.1559  0.7925 -0.3147
 2974SOL    HW311663   5.745   3.570   2.646 -0.9746  0.9095  0.7673
 2974SOL    MW411664   5.668   3.538   2.619 -0.2698 -0.1848 -0.6164
 2975SOL     OW11665   4.826   5.468   3.180  0.6424  0.3434 -0.1544
 2975SOL    HW211666   4.882   5.424   3.243  1.1952 -0.5862 -1.2498
 2975SOL    HW311667   4.808   5.554   3.219 -1.3005 -1.1395  2.5264
 2975SOL    MW411668   4.831   5.474   3.193  0.4100 -0.1898 -0.0915
 2976SOL     OW11669   1.427   1.594   0.974  0.5811  0.1487  0.5078
 2976SOL    HW211670   1.479   1.514   0.970  0.2631 -0.0812  0.8917
 2976SOL    HW311671   1.396   1.606   0.884 -2.0857 -2.0018  0.9952
 2976SOL    MW411672   1.430   1.585   0.961  0.6370  0.0120  0.4738
 2977SOL     OW11673   4.378   0.379   4.885  0.1205 -0.2638  0.3468
 2977SOL    HW211674   4.460   0.361   4.930 -0.4919  1.0690  2.1179
 2977SOL    HW311675   4.319   0.309   4.913 -0.5199  1.0415  2.4433
 2977SOL    MW411676   4.381   0.367   4.894 -0.7354 -0.3131  0.2155
 2978SOL     OW11677   6.135   3.718   3.132 -0.6481  0.0916  0.4973
 2978SOL    HW211678   6.171   3.715   3.221  0.4020  0.4099  0.1020
 2978SOL    HW311679   6.059   3.660   3.135 -1.1006  0.6968  1.8032
 2978SOL    MW411680   6.130   3.710   3.144 -0.2850 -0.2758 -0.3160
 2979SOL     OW11681   3.154   5.251   3.823 -0.1815  0.2528  0.5970
 2979SOL    HW211682   3.187   5.310   3.891  0.6734  0.9555 -0.3887
 2979SOL    HW311683   3.231   5.200   3.797 -0.9437 -1.4549  1.5504
 2979SOL    MW411684   3.169   5.252   3.829 -0.1371 -0.3222 -0.1028
 2980SOL     OW11685   1.880   0.705   1.515  0.9895 -0.0800 -0.3227
 2980SOL    HW211686   1.861   0.691   1.608  0.7969 -0.2899 -0.3924
 2980SOL    HW311687   1.926   0.789   1.512 -0.0042  0.4925 -0.1582
 2980SOL    MW411688   1.884   0.714   1.527 -0.1084 -0.1174 -0.5811
 2981SOL     OW11689   2.461   1.490   1.380 -0.1385  0.1424 -0.1455
 2981SOL    HW211690   2.424   1.411   1.340  0.0779 -1.0802  1.8961
 2981SOL    HW311691   2.543   1.505   1.332 -0.5735 -0.4060 -1.0823
 2981SOL    MW411692   2.467   1.481   1.368 -0.2090 -0.4547  0.3421
 2982SOL     OW11693   0.911   6.030   5.936 -0.1128 -0.5432 -0.3661
 2982SOL    HW211694   0.885   5.948   5.896 -0.4586 -0.1182 -1.0388
 2982SOL    HW311695   1.003   6.041   5.911 -0.2335 -0.4426 -0.7668
 2982SOL    MW411696   0.920   6.021   5.928  0.3481  0.2627  0.0616
 2983SOL     OW11697   3.356   0.968   1.305 -0.2666  0.4421  0.3016
 2983SOL    HW211698   3.349   1.012   1.390 -0.8441  0.3324  0.3159
 2983SOL    HW311699   3.275   0.991   1.260 -0.2315  0.0087  0.0133
 2983SOL    MW411700   3.344   0.977   1.311  0.1861 -0.0515  0.7556
 2984SOL     OW11701   5.870   2.874   6.064 -0.3500  0.2139 -1.2178
 2984SOL    HW211702   5.938   2.807   6.067 -0.6715 -0.1544 -1.9211
 2984SOL    HW311703   5.827   2.861   5.979 -0.6708  1.0567 -1.1952
 2984SOL    MW411704   5.873   2.864   6.053 -0.0038  0.2763 -0.4330
 2985SOL     OW11705   4.066   4.652   0.310  0.6616 -0.1632 -0.1799
 2985SOL    HW211706   4.072   4.655   0.405 -0.1311 -0.2776 -0.1202
 2985SOL    HW311707   4.116   4.574   0.285 -0.3914 -1.0185  0.2784
 2985SOL    MW411708   4.073   4.642   0.319 -0.2306  0.2250  0.0888
 2986SOL     OW11709   0.042   1.874   3.052  0.1832  0.1079  0.2994
 2986SOL    HW211710  -0.025   1.937   3.025 -0.4663 -0.3530  0.8140
 2986SOL    HW311711   0.102   1.870   2.978 -0.8152 -0.0989 -0.5239
 2986SOL    MW411712   0.041   1.882   3.039  0.1532  0.1655  0.1221
 2987SOL     OW11713   4.623   1.678   1.181 -0.4635 -0.2210 -0.6852
 2987SOL    HW211714   4.540   1.638   1.157 -0.2888 -0.2292 -1.2947
 2987SOL    HW311715   4.601   1.743   1.248 -0.6019 -2.2405  1.3534
 2987SOL    MW411716   4.609   1.681   1.187 -0.6470 -0.7811  0.1335
 2988SOL     OW11717   4.649   4.287   2.353 -0.0170 -0.0826 -0.1480
 2988SOL    HW211718   4.698   4.249   2.279 -0.7464  0.6434 -1.0306
 2988SOL    HW311719   4.682   4.376   2.360  1.0762 -0.5657  1.3637
 2988SOL    MW411720   4.660   4.294   2.344 -0.0198 -0.0083  0.2745
 2989SOL     OW11721   0.519   1.096   2.458 -0.4549 -0.3836  0.2547
 2989SOL    HW211722   0.558   1.157   2.394 -0.7021 -0.8322 -0.3319
 2989SOL    HW311723   0.473   1.032   2.404 -1.0800 -0.4877  0.9081
 2989SOL    MW411724   0.518   1.096   2.442  0.3684  0.3186 -0.1788
 2990SOL     OW11725   4.482   1.831   6.115  0.2440  0.0874  0.4028
 2990SOL    HW211726   4.552   1.769   6.095  0.9661  0.6323  1.1433
 2990SOL    HW311727   4.440   1.797   6.194  0.2393  0.2119  0.4551
 2990SOL    MW411728   4.486   1.819   6.123 -0.1111  0.0373  0.1804
 2991SOL     OW11729   1.444   4.681   1.008  0.0978  0.4761 -0.0532
 2991SOL    HW211730   1.394   4.757   1.037  0.7639  0.3931  1.3781
 2991SOL    HW311731   1.510   4.667   1.076  0.7743 -0.6450 -0.8911
 2991SOL    MW411732   1.446   4.689   1.021 -0.1232 -0.1193  0.7921
 2992SOL     OW11733   0.938   4.605   5.865 -0.1792  0.2224 -0.3168
 2992SOL    HW211734   0.941   4.699   5.847  2.5711 -0.0161 -1.6609
 2992SOL    HW311735   0.977   4.596   5.952 -0.3484  0.3400 -0.2305
 2992SOL    MW411736   0.944   4.616   5.874 -0.3925  0.4920 -0.2932
 2993SOL     OW11737   3.417   6.272   6.256 -0.3691  0.3153 -0.3515
 2993SOL    HW211738   3.420   6.195   6.313  0.2929 -0.1142 -0.9652
 2993SOL    HW311739   3.366   6.244   6.180  0.0727  0.4035 -0.6847
 2993SOL    MW411740   3.410   6.258   6.254 -0.7977  0.5279 -0.1174
 2994SOL     OW11741   4.822   2.196   0.101  1.0059  0.3262 -0.1855
 2994SOL    HW211742   4.789   2.145   0.027  0.0128  1.3013 -0.4359
 2994SOL    HW311743   4.915   2.171   0.108  0.8206 -0.6298 -1.0238
 2994SOL    MW411744   4.830   2.186   0.092  0.2225  0.7991  0.1638
 2995SOL     OW11745   0.295   1.366   1.051  0.1278 -0.4233 -0.5336
 2995SOL    HW211746   0.327   1.278   1.035 -1.3767 -1.2125  0.5563
 2995SOL    HW311747   0.277   1.402   0.965  3.7487  0.0869 -1.2525
 2995SOL    MW411748   0.297   1.359   1.038  0.8243  0.2853  0.2579
 2996SOL     OW11749   0.468   1.362   0.130  0.0476 -0.3175  0.1436
 2996SOL    HW211750   0.464   1.288   0.070  0.1458 -0.4520  0.3034
 2996SOL    HW311751   0.479   1.438   0.073  1.3796 -0.5655  0.0584
 2996SOL    MW411752   0.469   1.362   0.115 -0.2036 -0.2906  0.0181
 2997SOL     OW11753   5.354   5.119   4.337  0.0550 -0.0105 -0.4080
 2997SOL    HW211754   5.282   5.150   4.281  1.1038  0.0704 -1.7443
 2997SOL    HW311755   5.399   5.053   4.285  1.8473  0.9913 -0.2145
 2997SOL    MW411756   5.350   5.115   4.323 -0.5476  0.2881  0.4598
 2998SOL     OW11757   3.442   0.156   3.282  0.0132  0.8044 -0.0365
 2998SOL    HW211758   3.381   0.090   3.316  1.5584 -0.1926  0.8920
 2998SOL    HW311759   3.391   0.238   3.282 -1.7490 -0.2383 -0.6525
 2998SOL    MW411760   3.427   0.158   3.286  0.4207  0.1825  0.1211
 2999SOL     OW11761   3.314   4.687   5.538  0.4168 -0.3593  0.2874
 2999SOL    HW211762   3.354   4.641   5.611 -0.4640 -3.4848 -1.0548
 2999SOL    HW311763   3.248   4.744   5.579  1.6237 -0.1499  2.0291
 2999SOL    MW411764   3.310   4.689   5.553  0.5205 -0.1328 -0.2219
 3000SOL     OW11765   1.576   6.236   5.446  0.1705 -0.4323  0.2486
 3000SOL    HW211766   1.667   6.255   5.421  0.2307  1.3479  1.6536
 3000SOL    HW311767   1.556   6.299   5.515 -2.3850 -0.3071 -0.5081
 3000SOL    MW411768   1.586   6.246   5.451 -0.0916  0.3223  0.4385
 3001SOL     OW11769   6.202   5.883   1.878  0.9303 -0.5391 -0.1770
 3001SOL    HW211770   6.232   5.868   1.968 -0.1069  1.6836  0.5982
 3001SOL    HW311771   6.210   5.977   1.865 -4.0324  0.1202 -0.3915
 3001SOL    MW411772   6.207   5.893   1.888 -0.5027  0.0241  1.1956
 3002SOL     OW11773   3.965   2.380   3.940  0.2318 -0.0407 -0.0093
 3002SOL    HW211774   3.968   2.464   3.894 -0.2951 -0.6730 -1.2405
 3002SOL    HW311775   3.975   2.314   3.871  0.5380 -1.0027  0.9203
 3002SOL    MW411776   3.967   2.382   3.925  0.0911  0.0435 -0.0484
 3003SOL     OW11777   1.764   2.100   0.701  0.3606 -0.0634 -0.2573
 3003SOL    HW211778   1.709   2.151   0.641 -0.8870  0.0069  0.9081
 3003SOL    HW311779   1.727   2.012   0.697  0.6569 -0.1962 -0.0449
 3003SOL    MW411780   1.752   2.095   0.692 -0.5506  0.1741  0.5244
 3004SOL     OW11781   4.848   2.210   3.707  0.2471 -0.3296  0.2073
 3004SOL    HW211782   4.835   2.296   3.748 -0.5307  0.8187 -2.2752
 3004SOL    HW311783   4.943   2.205   3.692  0.2998  0.0891  0.3949
 3004SOL    MW411784   4.859   2.221   3.710 -0.0531  0.0232  0.2116
 3005SOL     OW11785   0.895   6.303   6.232 -0.1332  0.3699 -0.0494
 3005SOL    HW211786   0.974   6.301   6.178 -0.2627  2.5069 -0.4128
 3005SOL    HW311787   0.911   6.373   6.295 -2.1174  1.6054 -0.8050
 3005SOL    MW411788   0.907   6.312   6.233  0.0417 -0.1409 -0.2491
 3006SOL     OW11789   1.795   4.111   2.324 -0.2796  0.1206  0.6204
 3006SOL    HW211790   1.710   4.127   2.364 -0.0223  1.0866  0.7865
 3006SOL    HW311791   1.853   4.177   2.361 -0.1102  1.3193 -1.5797
 3006SOL    MW411792   1.791   4.121   2.334  0.2624 -0.6373  0.1805
 3007SOL     OW11793   0.180   2.283   2.821 -0.3941  0.0345 -0.0794
 3007SOL    HW211794   0.134   2.322   2.747 -1.3638 -0.8707  0.0134
 3007SOL    HW311795   0.250   2.345   2.843 -2.7446  2.4750  1.0168
 3007SOL    MW411796   0.183   2.296   2.814  0.0519  0.8599 -0.3851
 3008SOL     OW11797   6.240   4.442   5.367 -0.1754 -0.0555  0.0248
 3008SOL    HW211798   6.223   4.513   5.429 -2.8454 -0.3379 -0.2525
 3008SOL    HW311799   6.323   4.465   5.326  0.4620  1.3859  1.9638
 3008SOL    MW411800   6.249   4.454   5.370  0.1289  0.7728 -0.6556
 3009SOL     OW11801   1.445   0.126   2.836  0.3389  0.1321 -0.5319
 3009SOL    HW211802   1.361   0.139   2.879 -0.4436 -1.4959 -1.4977
 3009SOL    HW311803   1.504   0.098   2.907  0.4823  2.5840  0.3995
 3009SOL    MW411804   1.442   0.124   2.851  0.5984  0.1690  0.6976
 3010SOL     OW11805   6.090   5.095   2.644  0.8277 -0.9652  0.2589
 3010SOL    HW211806   6.103   5.178   2.599  2.7562 -0.8933  0.8435
 3010SOL    HW311807   6.152   5.098   2.718  0.1227 -2.4451  0.9527
 3010SOL    MW411808   6.100   5.106   2.648  0.0906  0.0821 -0.0772
 3011SOL     OW11809   2.015   3.601   3.027  0.1921  0.2768  0.2307
 3011SOL    HW211810   1.947   3.533   3.023  2.9697 -2.6825 -0.4389
 3011SOL    HW311811   1.969   3.678   3.061 -3.5016 -1.4400 -0.3614
 3011SOL    MW411812   2.000   3.602   3.031  0.0142 -0.6732 -0.2815
 3012SOL     OW11813   5.863   6.381   2.600 -0.3388  0.2346  0.1522
 3012SOL    HW211814   5.946   6.338   2.577 -1.3433 -2.6743  1.5072
 3012SOL    HW311815   5.804   6.358   2.529 -0.0804  2.2285 -0.7650
 3012SOL    MW411816   5.866   6.372   2.588 -0.5278 -0.0838  0.0298
 3013SOL     OW11817   5.795   0.533   3.955 -0.3135 -0.1671 -0.4600
 3013SOL    HW211818   5.801   0.481   4.035 -1.0406  0.1313 -0.2071
 3013SOL    HW311819   5.763   0.618   3.983  0.4888  0.3044 -0.9270
 3013SOL    MW411820   5.792   0.537   3.969  0.0273 -0.0628 -0.3332
 3014SOL     OW11821   1.476   4.638   3.767  0.4527 -0.1867 -0.3858
 3014SOL    HW211822   1.407   4.698   3.795  0.9393 -0.4214  1.4851
 3014SOL    HW311823   1.431   4.573   3.712 -0.8609 -0.3915  0.8631
 3014SOL    MW411824   1.461   4.637   3.764 -0.1888  0.2532 -0.3882
 3015SOL     OW11825   2.759   4.856   0.360 -0.0579  0.3589  0.3757
 3015SOL    HW211826   2.803   4.926   0.311 -1.1877 -0.4115 -1.8683
 3015SOL    HW311827   2.797   4.861   0.448  1.1403  2.6516 -0.1873
 3015SOL    MW411828   2.770   4.866   0.365  0.4650  0.2243 -0.5021
 3016SOL     OW11829   4.350   6.311   1.933 -0.0121  0.0997 -0.5792
 3016SOL    HW211830   4.409   6.379   1.964 -1.7079  2.1160 -1.5381
 3016SOL    HW311831   4.273   6.319   1.990 -0.3323 -0.8994 -0.8484
 3016SOL    MW411832   4.347   6.321   1.945 -0.1164  0.1052  0.3391
 3017SOL     OW11833   6.413   1.631   3.705 -0.4086  0.1183  0.4821
 3017SOL    HW211834   6.461   1.552   3.679  0.0514  0.4216  0.4103
 3017SOL    HW311835   6.327   1.598   3.731 -0.2643 -0.3955  0.3312
 3017SOL    MW411836   6.408   1.616   3.705  0.5055 -0.2697  0.1744
 3018SOL     OW11837   2.356   4.189   5.461 -0.1358  0.2760  0.0134
 3018SOL    HW211838   2.357   4.249   5.387  0.8987 -0.0664 -0.2699
 3018SOL    HW311839   2.449   4.178   5.484 -0.4688  1.7285  2.4688
 3018SOL    MW411840   2.368   4.195   5.455 -0.3272  0.1372 -0.6498
 3019SOL     OW11841   3.852   2.131   1.305  0.1085 -0.1179 -0.4448
 3019SOL    HW211842   3.809   2.084   1.376  1.5538  2.0464  2.0682
 3019SOL    HW311843   3.904   2.065   1.260  2.5169 -1.0419  3.2484
 3019SOL    MW411844   3.853   2.116   1.309 -0.9662 -0.1603  0.1786
 3020SOL     OW11845   0.986   1.661   0.868 -0.7601  0.2041  0.3613
 3020SOL    HW211846   1.033   1.622   0.942  0.0677  1.6110  0.6134
 3020SOL    HW311847   0.998   1.755   0.879 -0.9365  0.4677 -1.3651
 3020SOL    MW411848   0.994   1.668   0.879  0.1876 -0.0182 -0.1902
 3021SOL     OW11849   0.142   6.081   0.989  0.2570 -0.0622  0.0921
 3021SOL    HW211850   0.157   6.156   1.047  1.1353  1.5357 -2.0384
 3021SOL    HW311851   0.049   6.086   0.966  0.3747  0.5909 -0.2711
 3021SOL    MW411852   0.132   6.092   0.994 -0.6590 -0.5149 -0.2936
 3022SOL     OW11853   3.284   1.682   3.950 -0.7395  0.2414  0.0536
 3022SOL    HW211854   3.200   1.689   3.904  0.9737  3.1567 -3.0111
 3022SOL    HW311855   3.294   1.767   3.994  0.9217  0.2744 -0.3203
 3022SOL    MW411856   3.274   1.694   3.950  0.4314  0.3607  0.0245
 3023SOL     OW11857   4.943   1.958   4.472 -0.6478 -0.0508 -0.1881
 3023SOL    HW211858   4.878   1.887   4.469  0.9744 -1.5766 -2.0431
 3023SOL    HW311859   5.027   1.913   4.479  0.3634  1.7946  0.1228
 3023SOL    MW411860   4.945   1.942   4.473 -0.2587  0.1547 -0.3994
 3024SOL     OW11861   5.327   5.880   3.021  0.1495  0.2267 -0.2051
 3024SOL    HW211862   5.351   5.921   3.104  0.4773 -0.3116 -0.0284
 3024SOL    HW311863   5.234   5.860   3.030 -0.5361  2.6276 -1.0195
 3024SOL    MW411864   5.318   5.883   3.033  0.5126 -0.0355 -0.0303
 3025SOL     OW11865   1.433   1.004   2.893 -0.4819  0.5186  0.9001
 3025SOL    HW211866   1.364   1.069   2.902 -0.4221  0.8364 -0.5545
 3025SOL    HW311867   1.509   1.055   2.864 -0.7599 -0.2832 -1.4991
 3025SOL    MW411868   1.434   1.019   2.890  0.1016 -0.0395 -0.1063
 3026SOL     OW11869   3.895   1.234   1.050  0.4286 -0.2184  0.4004
 3026SOL    HW211870   3.848   1.265   0.973 -0.6460  0.7702  1.4228
 3026SOL    HW311871   3.965   1.179   1.015  0.0522  0.3285 -1.2733
 3026SOL    MW411872   3.898   1.231   1.035  0.1641  0.1227  0.1107
 3027SOL     OW11873   5.768   5.411   0.170 -0.1658  0.0510 -0.4391
 3027SOL    HW211874   5.745   5.422   0.078  1.0216 -0.7451 -0.8596
 3027SOL    HW311875   5.864   5.404   0.170 -0.1165  0.4219  0.9001
 3027SOL    MW411876   5.778   5.411   0.158 -0.6471  0.2555 -0.1098
 3028SOL     OW11877   0.484   0.241   5.285  0.2047  0.3085  0.1787
 3028SOL    HW211878   0.487   0.306   5.214  0.3853  2.2463  1.8692
 3028SOL    HW311879   0.413   0.182   5.260  0.4078  0.7970 -1.7170
 3028SOL    MW411880   0.475   0.242   5.272 -0.0456  0.3544  0.4953
 3029SOL     OW11881   5.420   4.277   1.848  0.6222  0.0710 -1.0481
 3029SOL    HW211882   5.372   4.196   1.864  2.9353 -1.0577  0.7341
 3029SOL    HW311883   5.354   4.346   1.858 -0.6761 -1.3735  1.3123
 3029SOL    MW411884   5.405   4.276   1.851  0.0758 -0.0720 -0.5699
 3030SOL     OW11885   5.840   2.556   4.568  0.2450  0.6164  0.3490
 3030SOL    HW211886   5.897   2.487   4.603  0.3032  0.7364  0.4905
 3030SOL    HW311887   5.899   2.626   4.544  0.0831  1.1364  1.4009
 3030SOL    MW411888   5.855   2.556   4.569 -0.1473 -0.0177  0.0631
 3031SOL     OW11889   4.091   4.216   2.517  0.2343 -0.6735 -0.1117
 3031SOL    HW211890   4.099   4.237   2.424 -0.0067 -0.9155 -0.1908
 3031SOL    HW311891   4.178   4.187   2.543  0.5534  0.3548 -0.0131
 3031SOL    MW411892   4.103   4.215   2.508  0.1494  0.2963  0.1716
 3032SOL     OW11893   5.720   0.113   2.780  0.6895 -0.0910  0.2153
 3032SOL    HW211894   5.752   0.203   2.779  0.3108  0.0661 -1.8969
 3032SOL    HW311895   5.788   0.062   2.736  1.1585 -0.9753  1.8730
 3032SOL    MW411896   5.733   0.118   2.774 -0.1520 -0.4802 -0.5452
 3033SOL     OW11897   0.733   3.454   2.503 -0.3444  0.0881  0.1042
 3033SOL    HW211898   0.670   3.457   2.575 -0.6803  4.0707 -0.1491
 3033SOL    HW311899   0.679   3.440   2.425 -0.3679 -0.8836  0.2863
 3033SOL    MW411900   0.717   3.453   2.502  0.6175 -0.4566 -0.4855
 3034SOL     OW11901   4.313   4.586   3.933 -0.0701  0.3702 -0.5912
 3034SOL    HW211902   4.288   4.511   3.988 -1.4460 -1.7589 -3.7715
 3034SOL    HW311903   4.248   4.653   3.954 -0.2290 -0.1554  0.7090
 3034SOL    MW411904   4.301   4.585   3.943  0.2262  0.5738  0.2588
 3035SOL     OW11905   1.923   3.897   0.071 -0.1752  0.4469 -0.5258
 3035SOL    HW211906   1.918   3.967   0.137  0.3954  0.4246 -0.4516
 3035SOL    HW311907   1.969   3.937  -0.002  1.8897 -0.3778  0.2519
 3035SOL    MW411908   1.928   3.912   0.070 -0.3887  0.1502  0.1731
 3036SOL     OW11909   3.405   1.945   3.504 -0.1873  0.9805  0.6969
 3036SOL    HW211910   3.344   1.987   3.565 -2.3959  0.5860 -1.1031
 3036SOL    HW311911   3.410   1.854   3.533 -1.6543  0.6645  0.0514
 3036SOL    MW411912   3.398   1.939   3.516  0.4611 -0.4835 -0.0023
 3037SOL     OW11913   5.097   4.145   2.426 -0.2183  0.1233  0.4125
 3037SOL    HW211914   5.019   4.144   2.483 -1.0502  0.1545 -0.7022
 3037SOL    HW311915   5.064   4.117   2.341  1.0048  0.1589 -0.0797
 3037SOL    MW411916   5.082   4.141   2.423  0.6373 -0.5355 -0.4358
 3038SOL     OW11917   0.444   0.509   0.614  0.4255  0.3044 -0.0306
 3038SOL    HW211918   0.371   0.495   0.554  0.0532  0.7242  0.3195
 3038SOL    HW311919   0.476   0.596   0.594 -0.3512  0.8617  1.0485
 3038SOL    MW411920   0.439   0.518   0.604  0.0718 -0.7008 -0.3445
 3039SOL     OW11921   5.653   2.059   4.450  0.0056  0.0371  0.2625
 3039SOL    HW211922   5.694   2.143   4.426 -1.8678  1.3998  1.6105
 3039SOL    HW311923   5.559   2.075   4.442 -0.4006 -2.2214 -0.2096
 3039SOL    MW411924   5.646   2.072   4.446 -0.2371 -0.3468 -0.1139
 3040SOL     OW11925   3.198   3.641   2.793  0.4135  0.5879  0.3668
 3040SOL    HW211926   3.182   3.720   2.741  0.9334  0.5335  0.1171
 3040SOL    HW311927   3.276   3.602   2.753  1.0624  0.7609  1.4466
 3040SOL    MW411928   3.207   3.647   2.781 -0.0292  0.2308  0.3712
 3041SOL     OW11929   5.464   1.108   5.551 -0.0570  0.5173 -0.4276
 3041SOL    HW211930   5.447   1.195   5.586  2.0909  0.8679 -0.0846
 3041SOL    HW311931   5.503   1.124   5.465 -3.1258 -0.2774 -2.1012
 3041SOL    MW411932   5.467   1.122   5.544 -0.4100 -0.1233  0.0887
 3042SOL     OW11933   1.834   0.950   2.808 -0.6528  0.7998 -0.4645
 3042SOL    HW211934   1.809   0.958   2.716 -1.2405  0.3997 -0.3428
 3042SOL    HW311935   1.773   0.886   2.844 -1.3534  1.9716  0.5361
 3042SOL    MW411936   1.823   0.943   2.800  0.2661  0.0126  0.3850
 3043SOL     OW11937   4.370   4.647   1.177  0.6658  0.7081 -0.1028
 3043SOL    HW211938   4.397   4.588   1.107  0.0655  0.4696 -0.1431
 3043SOL    HW311939   4.378   4.594   1.257 -0.4053  0.3806 -0.1992
 3043SOL    MW411940   4.374   4.632   1.179  0.0896 -0.1998  0.1960
 3044SOL     OW11941   3.121   2.542   2.082 -0.3716  0.0138  0.1322
 3044SOL    HW211942   3.133   2.518   2.174 -1.0351  0.1563  0.2590
 3044SOL    HW311943   3.043   2.494   2.055 -0.2965  0.1349 -0.2996
 3044SOL    MW411944   3.112   2.533   2.091 -0.1898  0.2938  0.0645
 3045SOL     OW11945   5.697   2.481   2.492 -0.4774 -0.3968  0.4565
 3045SOL    HW211946   5.623   2.520   2.444  0.1814  0.7010  0.2914
 3045SOL    HW311947   5.722   2.405   2.440 -0.9713 -0.3091  0.0744
 3045SOL    MW411948   5.690   2.476   2.479 -0.3237 -0.0181 -0.1085
 3046SOL     OW11949   3.995   0.791   2.277 -0.0674  0.2706 -0.4565
 3046SOL    HW211950   4.074   0.811   2.226  1.9543 -0.7576  2.0189
 3046SOL    HW311951   3.996   0.855   2.348 -0.3257 -0.9260  0.6748
 3046SOL    MW411952   4.006   0.802   2.280  0.1756 -0.3277 -0.1420
 3047SOL     OW11953   4.280   4.624   1.655  0.2927 -0.0816 -0.1349
 3047SOL    HW211954   4.222   4.584   1.720  0.2108  0.3097  0.0420
 3047SOL    HW311955   4.243   4.712   1.642 -1.1302 -0.9304 -2.4917
 3047SOL    MW411956   4.267   4.630   1.662 -0.1816 -0.0542 -0.4289
 3048SOL     OW11957   6.332   3.558   1.139 -0.2034 -0.2747  0.1554
 3048SOL    HW211958   6.262   3.620   1.159  0.1230  0.0522  0.2912
 3048SOL    HW311959   6.408   3.613   1.120  0.6628 -0.6366  2.3162
 3048SOL    MW411960   6.333   3.574   1.139  1.0487 -0.0080  0.0142
 3049SOL     OW11961   3.131   0.669   0.388  0.3786 -0.4657  0.2256
 3049SOL    HW211962   3.092   0.583   0.380  0.0885 -0.2082 -1.9717
 3049SOL    HW311963   3.117   0.709   0.302  3.0483  0.6686  0.2247
 3049SOL    MW411964   3.124   0.663   0.375  0.0124 -0.1366 -0.3197
 3050SOL     OW11965   6.367   3.334   0.390  0.1474 -0.3285  0.9649
 3050SOL    HW211966   6.305   3.405   0.408  0.4301 -0.2709  1.7584
 3050SOL    HW311967   6.356   3.274   0.463  1.2679 -0.1512  1.2898
 3050SOL    MW411968   6.357   3.335   0.402  0.5381 -0.1623  1.1637
 3051SOL     OW11969   6.412   2.425   2.962 -0.1013  0.3394  0.3705
 3051SOL    HW211970   6.380   2.387   3.044 -0.8203  1.0976  0.4530
 3051SOL    HW311971   6.481   2.366   2.934 -0.3167 -0.3120  1.1680
 3051SOL    MW411972   6.417   2.412   2.969 -0.0158 -1.0008  0.0419
 3052SOL     OW11973   6.350   3.108   3.064 -0.3155 -0.3096  0.2081
 3052SOL    HW211974   6.398   3.079   3.142  0.8971 -0.9029 -0.7331
 3052SOL    HW311975   6.315   3.194   3.089  0.8556 -0.0577  1.0946
 3052SOL    MW411976   6.351   3.116   3.078  0.4816 -0.1109 -0.3401
 3053SOL     OW11977   5.780   2.197   3.805  0.2120 -0.2220 -0.1204
 3053SOL    HW211978   5.746   2.184   3.716 -0.2755 -0.0595  0.0374
 3053SOL    HW311979   5.875   2.207   3.793  0.3587 -1.8338 -0.4527
 3053SOL    MW411980   5.788   2.197   3.792 -0.3619  0.1668 -0.5547
 3054SOL     OW11981   4.112   5.732   3.198  0.4711 -0.2172 -0.0276
 3054SOL    HW211982   4.089   5.820   3.228  0.0079  0.3519 -1.9187
 3054SOL    HW311983   4.082   5.675   3.269 -2.0309  0.9166 -0.0393
 3054SOL    MW411984   4.105   5.736   3.211  0.0072  0.2230  0.4506
 3055SOL     OW11985   5.849   5.731   5.141 -0.1126  0.3333  0.4439
 3055SOL    HW211986   5.871   5.686   5.223 -1.1688  0.1054  0.6125
 3055SOL    HW311987   5.930   5.774   5.115 -0.2807  2.2125  2.7366
 3055SOL    MW411988   5.863   5.730   5.149 -0.3474 -0.1203 -0.1586
 3056SOL     OW11989   0.442   0.866   5.490 -0.2070 -0.2039  0.3819
 3056SOL    HW211990   0.352   0.869   5.521  0.1320  0.9233  1.3558
 3056SOL    HW311991   0.493   0.842   5.568  0.3540 -0.6208 -0.1078
 3056SOL    MW411992   0.437   0.864   5.505 -0.5097 -0.3446 -0.1422
 3057SOL     OW11993   4.133   4.499   1.854 -0.5122 -0.4346  0.3842
 3057SOL    HW211994   4.159   4.417   1.896  2.6503  1.2531  2.1256
 3057SOL    HW311995   4.131   4.563   1.925 -2.4410  1.1417 -0.9711
 3057SOL    MW411996   4.136   4.496   1.869 -0.2492  0.0640 -0.0791
 3058SOL     OW11997   3.223   3.911   4.214 -0.2607 -0.3157  0.4088
 3058SOL    HW211998   3.308   3.918   4.259 -0.2064  0.5254  0.1908
 3058SOL    HW311999   3.218   3.819   4.187  1.6613  0.1037 -1.6366
 3058SOL    MW412000   3.234   3.899   4.216  0.4945  0.2892 -0.6480
 3059SOL     OW12001   2.021   0.612   4.283 -0.0106 -0.3652  0.3545
 3059SOL    HW212002   2.115   0.631   4.277  0.4187 -1.9100  1.5972
 3059SOL    HW312003   2.008   0.536   4.226 -0.4416 -0.3952  0.4909
 3059SOL    MW412004   2.032   0.605   4.275 -0.5004 -0.5381 -0.0839
 3060SOL     OW12005   0.147   6.321   1.141  0.4680  0.2705  0.0882
 3060SOL    HW212006   0.187   6.408   1.147  0.5228  0.3135 -0.7546
 3060SOL    HW312007   0.105   6.308   1.226  0.5247  1.0929  0.2512
 3060SOL    MW412008   0.146   6.331   1.153 -0.2549  0.3491 -0.1502
 3061SOL     OW12009   2.530   1.844   2.714  0.1678 -0.0026 -0.4875
 3061SOL    HW212010   2.451   1.895   2.734  0.9117  0.6217  1.0494
 3061SOL    HW312011   2.553   1.802   2.797  0.7526 -1.2032 -1.2255
 3061SOL    MW412012   2.523   1.845   2.728 -0.5969 -1.0908 -0.4951
 3062SOL     OW12013   2.569   3.701   0.875  0.2170  0.2505 -0.0229
 3062SOL    HW212014   2.631   3.744   0.933  1.0655 -0.1070 -0.6499
 3062SOL    HW312015   2.485   3.709   0.920  0.9281 -0.4557  1.4885
 3062SOL    MW412016   2.566   3.708   0.888  0.0964  0.1082 -0.0173
 3063SOL     OW12017   4.539   1.834   4.382 -0.5255  0.4287  0.2112
 3063SOL    HW212018   4.626   1.797   4.392 -0.8814 -0.7439 -0.9094
 3063SOL    HW312019   4.480   1.759   4.380 -1.5662  1.1925  0.7781
 3063SOL    MW412020   4.543   1.819   4.383  0.2934  0.1430  0.2866
 3064SOL     OW12021   4.732   5.835   3.684 -0.2992 -0.1331 -0.6622
 3064SOL    HW212022   4.727   5.870   3.595  0.7587  1.4531 -0.1309
 3064SOL    HW312023   4.646   5.795   3.698 -0.6898  0.1057 -2.1717
 3064SOL    MW412024   4.720   5.834   3.674 -0.3009 -0.2276 -0.1161
 3065SOL     OW12025   0.744   0.449   4.479 -0.1860 -0.5116 -0.1010
 3065SOL    HW212026   0.772   0.385   4.545  0.3839  0.1604  0.3186
 3065SOL    HW312027   0.694   0.514   4.528  1.3181  0.6854 -0.0785
 3065SOL    MW412028   0.741   0.449   4.494  0.1071 -0.6245  0.2521
 3066SOL     OW12029   2.878   4.721   1.748 -0.1584 -0.0370 -0.1825
 3066SOL    HW212030   2.890   4.748   1.839  2.7324  2.9832 -1.2834
 3066SOL    HW312031   2.890   4.626   1.749 -0.1772 -0.0816  2.5303
 3066SOL    MW412032   2.881   4.712   1.760 -0.2667 -0.3910  0.2767
 3067SOL     OW12033   0.420   1.878   3.563  0.1508  0.1851 -0.5018
 3067SOL    HW212034   0.328   1.865   3.538  0.0950  0.6559 -0.5554
 3067SOL    HW312035   0.422   1.965   3.603  0.4947 -0.0016 -0.1025
 3067SOL    MW412036   0.408   1.888   3.565  0.0423  0.0398  0.5023
 3068SOL     OW12037   5.586   4.351   2.038  0.0678  0.4477  0.1584
 3068SOL    HW212038   5.528   4.325   1.967  1.5520  1.7915 -1.6342
 3068SOL    HW312039   5.621   4.269   2.073 -1.8019 -0.3018  0.3851
 3068SOL    MW412040   5.583   4.337   2.033 -0.3290  0.6215  0.4828
 3069SOL     OW12041   4.471   4.889   0.054 -0.2016  0.1401 -0.1954
 3069SOL    HW212042   4.451   4.825  -0.015 -0.1292  0.3514 -0.4144
 3069SOL    HW312043   4.418   4.861   0.128 -0.7121  0.2355 -0.5192
 3069SOL    MW412044   4.461   4.877   0.054 -0.2182  0.1758 -0.3705
 3070SOL     OW12045   4.924   3.180   3.977  0.5326  0.4523  0.0643
 3070SOL    HW212046   4.939   3.088   3.959  2.2840  1.0310 -1.7754
 3070SOL    HW312047   4.929   3.187   4.072  0.8999 -1.2481  0.1906
 3070SOL    MW412048   4.926   3.169   3.987  0.2913 -0.2091  0.4689
 3071SOL     OW12049   3.095   3.770   5.235 -0.5228 -0.4639  0.1072
 3071SOL    HW212050   3.132   3.697   5.285  0.3178  0.1706  0.4242
 3071SOL    HW312051   3.123   3.848   5.282 -1.4574  0.0752 -0.2024
 3071SOL    MW412052   3.103   3.771   5.248  0.1109 -0.1417  0.8747
 3072SOL     OW12053   4.999   3.401   2.469 -0.5000  0.5058 -0.0520
 3072SOL    HW212054   4.946   3.334   2.514 -0.5766 -0.2001 -1.1637
 3072SOL    HW312055   4.959   3.484   2.494 -1.2658  0.0585  0.2517
 3072SOL    MW412056   4.986   3.403   2.478 -0.8792 -0.3149  0.0924
 3073SOL     OW12057   5.680   6.328   2.388  0.3532 -0.2804  0.1792
 3073SOL    HW212058   5.607   6.293   2.438 -1.9818  2.6030 -0.9397
 3073SOL    HW312059   5.664   6.298   2.298  0.0792  0.9869 -0.2085
 3073SOL    MW412060   5.668   6.319   2.383 -0.3358 -0.2171 -0.5414
 3074SOL     OW12061   6.107   2.016   1.281 -0.5685 -0.0684  0.2415
 3074SOL    HW212062   6.110   1.920   1.281 -0.9322 -0.0818  0.3294
 3074SOL    HW312063   6.014   2.037   1.287 -0.7528  0.2681 -2.4894
 3074SOL    MW412064   6.095   2.006   1.282 -0.3284  0.1406 -0.3833
 3075SOL     OW12065   6.309   6.383   0.161  0.0770 -0.0341 -0.5125
 3075SOL    HW212066   6.298   6.445   0.233  2.3028  0.6821 -0.7005
 3075SOL    HW312067   6.363   6.313   0.199 -0.2695 -0.5777 -1.0056
 3075SOL    MW412068   6.315   6.382   0.176 -0.2968 -0.0327  0.0659
 3076SOL     OW12069   0.532   0.509   5.382  0.4177 -0.4063 -0.4304
 3076SOL    HW212070   0.615   0.527   5.339  1.2104 -0.2702  1.0753
 3076SOL    HW312071   0.521   0.414   5.375  0.0021 -0.2710 -1.8189
 3076SOL    MW412072   0.542   0.499   5.376 -0.0393  0.1990  0.8587
 3077SOL     OW12073   5.554   0.133   0.991  0.8949  0.0910 -0.0312
 3077SOL    HW212074   5.612   0.134   1.067  2.4323  0.5556 -1.1657
 3077SOL    HW312075   5.509   0.049   0.997  1.7475 -0.3287  0.8247
 3077SOL    MW412076   5.556   0.122   1.002  0.0388  0.5978 -0.0210
 3078SOL     OW12077   0.218   3.081   5.139  0.1564  0.8511 -0.3325
 3078SOL    HW212078   0.134   3.065   5.095 -0.1660  0.1545  0.5215
 3078SOL    HW312079   0.202   3.058   5.230  1.4922 -0.0121 -0.2970
 3078SOL    MW412080   0.205   3.076   5.145  0.0495  0.2899  0.2215
 3079SOL     OW12081   1.529   0.636   1.976 -0.6603 -0.0404 -0.1674
 3079SOL    HW212082   1.525   0.720   2.022 -1.2762 -0.2153  0.1038
 3079SOL    HW312083   1.618   0.633   1.941 -0.5201  0.5708  0.1130
 3079SOL    MW412084   1.540   0.647   1.977 -0.2554 -0.3186  0.4182
 3080SOL     OW12085   2.455   1.458   6.073 -0.1531  0.3857 -0.3904
 3080SOL    HW212086   2.398   1.525   6.034 -0.9003 -0.4595 -0.7812
 3080SOL    HW312087   2.409   1.431   6.153  1.2496  1.9380  1.0388
 3080SOL    MW412088   2.441   1.464   6.079  0.2583 -0.2296 -0.3397
 3081SOL     OW12089   3.145   0.302   0.634  0.8806  0.1993  0.4666
 3081SOL    HW212090   3.177   0.285   0.723  0.0665 -0.5465  0.6302
 3081SOL    HW312091   3.053   0.323   0.645  0.8516  0.4368 -0.1764
 3081SOL    MW412092   3.137   0.302   0.647  0.3914 -0.1098 -0.0480
 3082SOL     OW12093   5.403   1.372   4.475  0.0237 -0.4807  0.1086
 3082SOL    HW212094   5.466   1.444   4.468  0.2887 -0.7181  0.0803
 3082SOL    HW312095   5.396   1.337   4.386 -1.8099  0.9589 -0.3940
 3082SOL    MW412096   5.410   1.377   4.462 -0.5251  0.2217 -0.0521
 3083SOL     OW12097   1.980   4.503   0.850  0.0471 -0.0835 -0.4409
 3083SOL    HW212098   2.043   4.456   0.796  1.5185  0.6187  0.6077
 3083SOL    HW312099   1.927   4.434   0.890  1.5427 -0.8428  0.3241
 3083SOL    MW412100   1.981   4.488   0.848  0.2727 -0.1537  0.6707
 3084SOL     OW12101   3.235   1.844   0.905 -0.6969 -0.3199 -0.2160
 3084SOL    HW212102   3.239   1.928   0.952  2.0777  0.0708 -0.9360
 3084SOL    HW312103   3.243   1.869   0.812  1.1975 -1.3628 -0.3791
 3084SOL    MW412104   3.237   1.858   0.899  0.5129 -0.3053  0.1981
 3085SOL     OW12105   5.074   0.107   0.516 -0.1075  0.1256  0.8863
 3085SOL    HW212106   5.010   0.159   0.468 -0.7979 -0.4540  1.1563
 3085SOL    HW312107   5.052   0.016   0.496  2.4823 -0.1121 -1.3958
 3085SOL    MW412108   5.063   0.102   0.507  0.1579 -0.3200  0.3099
 3086SOL     OW12109   1.803   3.469   2.215 -0.0728  0.2310 -0.1669
 3086SOL    HW212110   1.849   3.391   2.247 -1.3301 -0.9913 -1.2224
 3086SOL    HW312111   1.873   3.534   2.204  1.0999 -0.9066  0.2045
 3086SOL    MW412112   1.818   3.467   2.218 -0.4261  0.5082  0.5363
 3087SOL     OW12113   2.362   0.235   4.068  0.1046 -0.2710 -0.3976
 3087SOL    HW212114   2.414   0.260   3.993 -0.9689 -1.1491 -1.4748
 3087SOL    HW312115   2.351   0.140   4.060  0.0867 -0.4034  0.9401
 3087SOL    MW412116   2.367   0.225   4.057 -0.3120 -0.1872  0.4829
 3088SOL     OW12117   0.784   1.502   4.530 -0.3992 -0.3148  0.3829
 3088SOL    HW212118   0.877   1.493   4.552 -0.5375  0.5444  1.3868
 3088SOL    HW312119   0.776   1.462   4.443  0.9332 -0.2512  0.2114
 3088SOL    MW412120   0.795   1.495   4.521 -0.2626 -0.0499  0.2624
 3089SOL     OW12121   1.906   2.324   3.893  0.0172 -0.1028 -0.6207
 3089SOL    HW212122   1.950   2.339   3.809 -0.5132  0.4640 -0.8023
 3089SOL    HW312123   1.828   2.379   3.889  0.3856  0.5236  0.5637
 3089SOL    MW412124   1.901   2.333   3.881 -0.1389 -0.4516 -0.4327
 3090SOL     OW12125   2.532   4.904   2.710 -0.3099 -0.2255 -0.3371
 3090SOL    HW212126   2.530   4.989   2.754 -0.0802  0.3431 -1.3867
 3090SOL    HW312127   2.457   4.856   2.745  0.7929 -0.4406  1.8806
 3090SOL    MW412128   2.522   4.909   2.720 -0.1835  0.2723  0.8463
 3091SOL     OW12129   0.452   3.094   2.516 -0.2073  0.0957 -0.1353
 3091SOL    HW212130   0.449   3.190   2.523 -0.5323  0.1769 -1.2600
 3091SOL    HW312131   0.365   3.065   2.545 -1.0191  0.3354 -2.1287
 3091SOL    MW412132   0.440   3.103   2.521 -0.1339 -0.3428 -0.4579
 3092SOL     OW12133   1.789   0.025   1.936  0.3660 -0.2001 -0.2878
 3092SOL    HW212134   1.737   0.024   2.015  0.6139 -0.4846 -0.1257
 3092SOL    HW312135   1.879   0.014   1.966  0.3765 -1.2133 -0.6678
 3092SOL    MW412136   1.794   0.024   1.950 -0.5347 -0.1854 -0.0529
 3093SOL     OW12137   1.252   6.402   2.071  0.0517  0.5438  0.3123
 3093SOL    HW212138   1.298   6.458   2.133 -0.0462  0.2217  0.6771
 3093SOL    HW312139   1.303   6.410   1.990  0.5622  0.4527  0.6167
 3093SOL    MW412140   1.265   6.410   2.068 -0.1977  0.0254 -0.1461
 3094SOL     OW12141   6.027   2.187   0.648  0.8065 -0.1281 -0.3190
 3094SOL    HW212142   5.949   2.172   0.702  0.1190  1.3682 -0.8420
 3094SOL    HW312143   6.100   2.158   0.703  0.0890  0.8251  1.1977
 3094SOL    MW412144   6.026   2.181   0.663  0.4830  0.0096  0.2344
 3095SOL     OW12145   2.033   2.625   1.219 -0.6688  0.0091 -0.0935
 3095SOL    HW212146   2.052   2.569   1.295  2.3462 -0.5158 -1.0809
 3095SOL    HW312147   1.988   2.567   1.158  1.5278 -1.2078 -0.6973
 3095SOL    MW412148   2.030   2.610   1.221  0.2939  0.4568 -0.0134
 3096SOL     OW12149   1.642   3.041   5.707  0.2785  0.7505 -0.0382
 3096SOL    HW212150   1.699   2.966   5.725  0.2599  0.8183  0.3182
 3096SOL    HW312151   1.554   3.004   5.700  0.0357  0.9100  1.6840
 3096SOL    MW412152   1.638   3.026   5.709  0.4042 -0.1781  0.2767
 3097SOL     OW12153   4.299   0.311   2.726  0.3046  0.6459  0.2370
 3097SOL    HW212154   4.277   0.357   2.807 -0.7783  1.2147 -0.3574
 3097SOL    HW312155   4.242   0.350   2.660 -0.7149 -1.5680 -0.2962
 3097SOL    MW412156   4.288   0.322   2.728  0.5881 -0.4389 -0.1305
 3098SOL     OW12157   5.822   6.290   4.728 -0.3378 -0.0063  0.4557
 3098SOL    HW212158   5.883   6.294   4.654 -1.4264 -1.5995 -0.5760
 3098SOL    HW312159   5.864   6.343   4.796  1.9632 -0.6515 -0.3711
 3098SOL    MW412160   5.835   6.298   4.727  0.5729  0.2347 -0.0334
 3099SOL     OW12161   4.610   6.256   5.885 -0.2989  0.1953  0.1437
 3099SOL    HW212162   4.548   6.183   5.882 -0.4158  0.2840  0.3520
 3099SOL    HW312163   4.600   6.292   5.973 -1.7584  1.7603 -0.5874
 3099SOL    MW412164   4.600   6.251   5.896  0.1250 -0.1522  0.1958
 3100SOL     OW12165   2.960   0.973   4.391 -0.0823 -0.4030 -0.4494
 3100SOL    HW212166   2.922   1.024   4.463  0.6219 -2.1885  1.2828
 3100SOL    HW312167   2.918   1.007   4.312 -1.2922  1.2700  0.8453
 3100SOL    MW412168   2.950   0.984   4.390  0.0430 -0.2790 -0.4239
 3101SOL     OW12169   0.124   0.557   3.180 -0.2027  0.0285  0.2199
 3101SOL    HW212170   0.199   0.588   3.231 -0.8954 -0.3678  1.5260
 3101SOL    HW312171   0.048   0.575   3.236 -0.8746 -1.5250 -0.1375
 3101SOL    MW412172   0.124   0.563   3.194 -0.0252  0.4243 -0.6345
 3102SOL     OW12173   1.400   1.955   5.897  0.2195  0.0246  0.0772
 3102SOL    HW212174   1.361   2.035   5.862 -0.7587  0.4044  1.9141
 3102SOL    HW312175   1.425   1.977   5.987  0.7098 -1.4884  0.3473
 3102SOL    MW412176   1.398   1.968   5.904  0.0362 -0.5028  0.7499
 3103SOL     OW12177   1.746   1.810   1.363 -0.4760 -1.1166 -0.2478
 3103SOL    HW212178   1.803   1.887   1.353 -1.2579 -0.6449 -1.2658
 3103SOL    HW312179   1.738   1.775   1.275  0.2948 -2.7130  0.2834
 3103SOL    MW412180   1.752   1.816   1.350 -0.0342 -0.0909  0.1212
 3104SOL     OW12181   0.014   4.103   3.117  0.0045  0.0253 -0.0961
 3104SOL    HW212182  -0.043   4.176   3.140  1.4325  0.8947  0.7880
 3104SOL    HW312183   0.025   4.109   3.022  1.1325  1.7555  0.1169
 3104SOL    MW412184   0.008   4.113   3.108 -0.1484 -0.4874  0.1755
 3105SOL     OW12185   3.656   5.487   6.233 -0.1347  0.2486 -0.2633
 3105SOL    HW212186   3.601   5.529   6.167  0.5793  1.5881 -0.0305
 3105SOL    HW312187   3.600   5.483   6.311 -1.0877 -1.6198 -0.9824
 3105SOL    MW412188   3.641   5.492   6.235 -0.5909 -0.3907 -0.0718
 3106SOL     OW12189   3.299   2.313   4.193  0.2666  0.3923  0.0984
 3106SOL    HW212190   3.364   2.315   4.123 -0.5663  0.7423 -0.6872
 3106SOL    HW312191   3.224   2.267   4.154  0.2950 -0.6483  1.2256
 3106SOL    MW412192   3.298   2.307   4.178 -0.4489 -0.6868  0.2900
 3107SOL     OW12193   2.310   6.205   2.926  0.1983  0.2347  0.1301
 3107SOL    HW212194   2.392   6.159   2.944  1.2836  1.7009 -0.7863
 3107SOL    HW312195   2.336   6.297   2.917 -1.2294  0.4936 -2.0978
 3107SOL    MW412196   2.324   6.211   2.927 -0.1697  0.6908  0.1107
 3108SOL     OW12197   2.825   5.967   1.122 -0.0792 -0.0040  0.1906
 3108SOL    HW212198   2.761   5.929   1.182 -0.8031 -0.4125 -0.8053
 3108SOL    HW312199   2.854   5.894   1.068  0.2027  0.4354 -0.2681
 3108SOL    MW412200   2.820   5.953   1.123  0.3626 -0.3219  0.1260
 3109SOL     OW12201   2.113   5.357   4.688 -0.3147 -0.1436 -0.3515
 3109SOL    HW212202   2.129   5.433   4.744 -1.8756  0.1497 -0.2657
 3109SOL    HW312203   2.170   5.371   4.612 -0.3935  0.9879 -0.2238
 3109SOL    MW412204   2.123   5.369   4.685 -0.2920 -0.1612 -0.2981
 3110SOL     OW12205   5.132   1.491   4.549 -0.1676  0.6910  0.1311
 3110SOL    HW212206   5.207   1.437   4.526 -1.4588 -1.5521  0.8829
 3110SOL    HW312207   5.110   1.464   4.638 -1.9099  1.2591 -0.0989
 3110SOL    MW412208   5.139   1.480   4.558  0.6224  0.1134 -0.4037
 3111SOL     OW12209   0.801   3.032   1.951  0.0546 -0.0634  0.1520
 3111SOL    HW212210   0.889   2.996   1.964  0.4533  1.5336  2.4728
 3111SOL    HW312211   0.812   3.095   1.880  0.3190 -1.2218 -0.8729
 3111SOL    MW412212   0.814   3.036   1.943 -0.2790 -0.5951  0.2645
 3112SOL     OW12213   5.591   0.028   4.700 -0.1911  0.1250  0.2906
 3112SOL    HW212214   5.616   0.084   4.774  0.9571  1.0214 -0.7387
 3112SOL    HW312215   5.664  -0.033   4.691 -1.0193 -0.9671  0.8213
 3112SOL    MW412216   5.604   0.027   4.709  0.5306 -0.0243 -0.3184
 3113SOL     OW12217   0.846   1.114   5.205  0.1469 -0.1139  0.4909
 3113SOL    HW212218   0.882   1.202   5.220 -0.6617  0.2151  0.5502
 3113SOL    HW312219   0.922   1.060   5.184  0.6656  0.5787  0.5613
 3113SOL    MW412220   0.861   1.119   5.204 -1.0808  0.0995  0.4645
 3114SOL     OW12221   3.487   0.957   3.563  0.0538  0.1849 -0.0129
 3114SOL    HW212222   3.451   1.011   3.493  1.3635  0.1812 -0.7329
 3114SOL    HW312223   3.557   1.010   3.602  1.5211 -1.0123 -0.8846
 3114SOL    MW412224   3.492   0.971   3.559  0.6204  0.2511 -0.2442
 3115SOL     OW12225   5.630   0.434   3.756  0.5022 -0.2958 -0.1704
 3115SOL    HW212226   5.549   0.475   3.787  1.5358  1.7003  0.0464
 3115SOL    HW312227   5.696   0.461   3.820  1.5033 -1.2354 -0.7799
 3115SOL    MW412228   5.628   0.443   3.769 -0.4510  0.3856 -0.2176
 3116SOL     OW12229   4.901   4.160   3.930 -0.3174  1.1191 -0.0986
 3116SOL    HW212230   4.900   4.254   3.910 -0.5250  1.0053 -0.6445
 3116SOL    HW312231   4.857   4.119   3.856  0.6804  0.4940 -0.3727
 3116SOL    MW412232   4.895   4.167   3.918 -0.1738  0.3690  0.1225
 3117SOL     OW12233   2.356   4.368   5.219  0.3275  0.0870 -0.8190
 3117SOL    HW212234   2.435   4.412   5.249 -0.2095 -0.4666  1.6638
 3117SOL    HW312235   2.312   4.432   5.164  1.8758  0.8407 -1.2312
 3117SOL    MW412236   2.360   4.382   5.216  0.0553 -0.0275  0.3372
 3118SOL     OW12237   2.250   6.010   3.788 -0.1087  0.5315 -0.1446
 3118SOL    HW212238   2.247   5.989   3.695  0.0634  0.6039 -0.1669
 3118SOL    HW312239   2.177   6.071   3.801 -1.2694 -0.8857  0.1321
 3118SOL    MW412240   2.240   6.015   3.777  0.0113 -0.2146 -0.1416
 3119SOL     OW12241   1.810   2.729   5.412 -0.0831 -0.0814  0.3186
 3119SOL    HW212242   1.833   2.636   5.413 -0.9643 -0.3128  0.1614
 3119SOL    HW312243   1.894   2.775   5.416  0.5318 -0.8905 -1.8256
 3119SOL    MW412244   1.824   2.723   5.412  0.1167 -0.1487  0.3504
 3120SOL     OW12245   2.342   5.866   2.276 -0.3051  0.1661 -0.3913
 3120SOL    HW212246   2.408   5.922   2.316  0.4354 -1.1731  0.3477
 3120SOL    HW312247   2.323   5.799   2.343 -2.7472  0.7409 -0.4004
 3120SOL    MW412248   2.348   5.864   2.290 -0.3172 -0.6008 -0.5679
 3121SOL     OW12249   2.729   5.668   0.445 -0.8772  0.5147 -0.7884
 3121SOL    HW212250   2.748   5.677   0.352  0.6355 -2.3546 -0.8729
 3121SOL    HW312251   2.634   5.658   0.450 -0.8583 -0.6506 -2.1928
 3121SOL    MW412252   2.719   5.668   0.434 -0.3610  0.8072 -0.5243
 3122SOL     OW12253   1.980   5.946   1.349  0.1995 -0.0130 -0.3803
 3122SOL    HW212254   2.028   6.021   1.385  0.8429  0.2760 -1.7336
 3122SOL    HW312255   2.048   5.891   1.309 -0.3951 -0.6601 -0.5252
 3122SOL    MW412256   1.996   5.949   1.348  0.0082  0.0073 -0.7816
 3123SOL     OW12257   6.068   3.573   5.592  0.0642 -0.6198 -0.1029
 3123SOL    HW212258   6.117   3.641   5.547 -1.2169 -1.2622 -2.6904
 3123SOL    HW312259   6.024   3.618   5.664 -1.5031  1.5762 -2.2727
 3123SOL    MW412260   6.068   3.588   5.595  0.5018 -0.3216  0.1167
 3124SOL     OW12261   5.922   5.076   0.010 -0.3339 -0.5346 -0.1000
 3124SOL    HW212262   5.954   5.075   0.101 -0.2718 -1.0236 -0.1294
 3124SOL    HW312263   5.949   4.992  -0.026 -1.7677 -1.0249 -0.0916
 3124SOL    MW412264   5.930   5.065   0.017  0.1255 -0.0430  0.3091
 3125SOL     OW12265   4.172   5.153   1.590  0.5025  0.0807  0.3248
 3125SOL    HW212266   4.206   5.115   1.509  0.4878  0.0948  0.3119
 3125SOL    HW312267   4.250   5.182   1.637  0.5045  0.1699  0.2670
 3125SOL    MW412268   4.187   5.152   1.586 -0.9270  0.5641 -0.1125
 3126SOL     OW12269   5.826   3.628   3.160 -0.5940 -0.2045 -0.3223
 3126SOL    HW212270   5.749   3.680   3.185 -1.1512 -0.1860 -1.9976
 3126SOL    HW312271   5.859   3.594   3.244 -1.1441  1.5208  0.6609
 3126SOL    MW412272   5.820   3.631   3.175  0.1510 -0.1624  0.0523
 3127SOL     OW12273   3.028   1.836   3.849 -0.2981  0.4850  0.0986
 3127SOL    HW212274   3.103   1.883   3.812 -0.9990  0.6816 -1.1101
 3127SOL    HW312275   3.005   1.886   3.927 -1.6024  2.7927 -1.6309
 3127SOL    MW412276   3.035   1.848   3.854  0.2581  0.0024  0.4534
 3128SOL     OW12277   3.916   4.259   1.104 -0.3526 -0.0809  0.5995
 3128SOL    HW212278   3.956   4.173   1.090 -0.3056  0.3031 -2.1296
 3128SOL    HW312279   3.936   4.280   1.195  0.5116 -2.5045  1.0420
 3128SOL    MW412280   3.924   4.251   1.114 -0.6643  0.3389 -0.0920
 3129SOL     OW12281   2.677   1.746   1.620  0.0669  0.0352 -0.0098
 3129SOL    HW212282   2.651   1.807   1.689 -0.7695 -1.2975  0.8961
 3129SOL    HW312283   2.607   1.682   1.617 -0.8877  1.0484 -3.4191
 3129SOL    MW412284   2.665   1.746   1.629  0.1625  0.3695 -0.0151
 3130SOL     OW12285   3.982   3.874   0.750 -0.5527 -0.1571 -0.0997
 3130SOL    HW212286   4.019   3.962   0.745 -0.8877  0.0447  0.7642
 3130SOL    HW312287   3.934   3.863   0.668  1.3801 -0.4217 -1.2491
 3130SOL    MW412288   3.980   3.884   0.739  0.3596 -0.2495 -0.1974
 3131SOL     OW12289   0.621   4.632   3.143 -0.0696 -0.0717 -0.3501
 3131SOL    HW212290   0.690   4.699   3.148  0.2292 -0.4170  0.2524
 3131SOL    HW312291   0.541   4.681   3.127  0.1975  0.4009 -0.2633
 3131SOL    MW412292   0.620   4.647   3.142 -0.1025  0.2380  0.0137
 3132SOL     OW12293   1.506   2.227   1.149 -0.1036 -0.5201 -0.0390
 3132SOL    HW212294   1.516   2.227   1.054  0.4537  1.3116 -0.0094
 3132SOL    HW312295   1.454   2.305   1.168  1.3772  0.1890  1.2920
 3132SOL    MW412296   1.500   2.237   1.139  0.2371 -0.1620  0.1603
 3133SOL     OW12297   4.192   6.388   4.038  0.6366  0.0646 -0.2699
 3133SOL    HW212298   4.235   6.317   3.990  0.7446  0.1455 -0.2947
 3133SOL    HW312299   4.100   6.363   4.042  0.4914  0.4252 -1.1812
 3133SOL    MW412300   4.186   6.375   4.033  0.2115 -0.6730 -0.2224
 3134SOL     OW12301   0.293   1.239   2.935 -0.5901 -0.1247  0.4474
 3134SOL    HW212302   0.240   1.160   2.938  0.0644 -0.5425  2.3642
 3134SOL    HW312303   0.253   1.292   2.867 -1.9934 -1.4430  0.1957
 3134SOL    MW412304   0.281   1.236   2.927 -0.1663 -0.3256 -0.3125
 3135SOL     OW12305   5.814   4.008   4.367  0.2169 -0.3740 -0.2582
 3135SOL    HW212306   5.750   4.073   4.336  1.4313 -0.4851 -3.3498
 3135SOL    HW312307   5.878   4.059   4.416 -0.2338  0.3418 -0.3929
 3135SOL    MW412308   5.814   4.023   4.370 -0.6128 -0.4746  0.8123
 3136SOL     OW12309   0.581   0.083   1.357 -0.2421 -0.4879  0.2539
 3136SOL    HW212310   0.647   0.075   1.426 -0.6315 -0.7419  0.6008
 3136SOL    HW312311   0.503   0.042   1.394  0.2207 -2.9430 -1.2752
 3136SOL    MW412312   0.579   0.077   1.371 -0.2774  0.0189 -0.2646
 3137SOL     OW12313   3.880   4.057   2.403 -0.1369  0.4520 -0.3859
 3137SOL    HW212314   3.937   4.096   2.468 -0.3012  0.8736 -0.4934
 3137SOL    HW312315   3.938   4.009   2.344  0.0886  0.7810 -0.4267
 3137SOL    MW412316   3.895   4.056   2.403 -0.6534  0.1066  0.3379
 3138SOL     OW12317   5.699   4.067   6.168  0.0399 -0.0713 -0.8769
 3138SOL    HW212318   5.748   4.144   6.199  0.2983 -1.0540  1.3492
 3138SOL    HW312319   5.643   4.101   6.098  1.2879  1.8089 -1.0457
 3138SOL    MW412320   5.698   4.082   6.163 -0.2383 -0.1102 -0.3359
 3139SOL     OW12321   3.868   0.656   4.401 -0.2769 -0.2368 -0.2051
 3139SOL    HW212322   3.916   0.649   4.319  0.4855  0.6996  0.1526
 3139SOL    HW312323   3.829   0.569   4.413  1.2324 -0.9953 -0.5492
 3139SOL    MW412324   3.869   0.643   4.391  0.1329  0.5482  0.4549
 3140SOL     OW12325   0.795   6.350   2.966 -0.2110 -0.1564 -1.4503
 3140SOL    HW212326   0.835   6.360   2.879  0.0205  0.1070 -1.3164
 3140SOL    HW312327   0.829   6.425   3.016 -0.1734 -0.4293 -1.0686
 3140SOL    MW412328   0.804   6.361   2.961 -0.5267  0.0560 -0.0002
 3141SOL     OW12329   4.597   5.669   5.245 -0.3931 -0.0024  0.2910
 3141SOL    HW212330   4.578   5.624   5.162  1.9388  0.4367 -0.5681
 3141SOL    HW312331   4.668   5.619   5.284 -1.6521 -0.3609  2.2163
 3141SOL    MW412332   4.604   5.657   5.239 -0.1420  0.1993  0.3558
 3142SOL     OW12333   3.925   5.340   0.895 -0.2499 -0.0886 -0.2765
 3142SOL    HW212334   3.870   5.308   0.967 -0.4802  0.9206  0.0088
 3142SOL    HW312335   3.888   5.298   0.817 -0.7950 -0.2043  0.0385
 3142SOL    MW412336   3.913   5.330   0.894  0.0213  0.2550  0.4868
 3143SOL     OW12337   0.629   5.434   3.449  0.0510 -0.6963  0.4235
 3143SOL    HW212338   0.649   5.490   3.524 -1.9260 -0.8755  1.1590
 3143SOL    HW312339   0.600   5.351   3.488  0.2881 -1.2718 -0.5785
 3143SOL    MW412340   0.628   5.430   3.464  0.6630 -0.2343 -0.6446
 3144SOL     OW12341   0.345   3.138   3.324 -0.1563 -0.3732 -0.8167
 3144SOL    HW212342   0.261   3.091   3.327 -0.3372 -0.1259 -1.5445
 3144SOL    HW312343   0.346   3.191   3.403 -1.0836  0.2472 -1.1900
 3144SOL    MW412344   0.334   3.139   3.335 -0.0164 -0.1938  0.9066
 3145SOL     OW12345   4.455   0.815   5.866 -0.5890 -0.1978  0.5998
 3145SOL    HW212346   4.431   0.724   5.847 -0.6220  0.3984 -2.7700
 3145SOL    HW312347   4.550   0.812   5.880 -0.5941 -0.7583  0.5535
 3145SOL    MW412348   4.464   0.803   5.866 -0.0579  0.0596  0.2985
 3146SOL     OW12349   1.951   0.374   6.416  0.2063 -0.3047 -0.6852
 3146SOL    HW212350   1.996   0.296   6.385 -1.5368 -1.9348  0.5874
 3146SOL    HW312351   1.936   0.357   6.509 -1.7732  0.7345 -0.7600
 3146SOL    MW412352   1.955   0.361   6.424 -0.8899 -0.1972 -0.2297
 3147SOL     OW12353   1.522   2.804   1.900 -0.4984  0.4871 -0.5664
 3147SOL    HW212354   1.583   2.825   1.970  0.6006 -1.4373 -0.9009
 3147SOL    HW312355   1.442   2.777   1.945 -0.0699  0.0463 -0.0627
 3147SOL    MW412356   1.519   2.803   1.915 -0.3458 -0.4658 -0.1606
 3148SOL     OW12357   1.810   1.636   6.016 -0.3711  0.5077  0.1097
 3148SOL    HW212358   1.886   1.588   6.048  0.3888  1.1995 -0.5982
 3148SOL    HW312359   1.735   1.589   6.052  0.3792 -0.3278  0.6325
 3148SOL    MW412360   1.810   1.623   6.025 -0.4174  0.0532 -0.2186
 3149SOL     OW12361   3.780   4.910   3.693 -0.0903 -0.4930  0.3211
 3149SOL    HW212362   3.776   4.835   3.633 -0.2092 -1.1334  1.1060
 3149SOL    HW312363   3.707   4.896   3.753  0.0836  0.0940  0.6766
 3149SOL    MW412364   3.770   4.898   3.693  0.1212  0.2945 -0.2773
 3150SOL     OW12365   1.257   4.869   4.587  0.1140 -0.3800 -0.2997
 3150SOL    HW212366   1.294   4.809   4.653 -0.8659 -1.7785 -0.9667
 3150SOL    HW312367   1.169   4.887   4.619  0.7834  1.7361  0.5123
 3150SOL    MW412368   1.250   4.864   4.600  0.1446 -0.1629 -0.1944
 3151SOL     OW12369   3.538   3.521   2.329  0.2991 -0.5667 -0.9200
 3151SOL    HW212370   3.443   3.516   2.324  0.1698 -1.0987  1.1248
 3151SOL    HW312371   3.557   3.614   2.343  0.0406 -0.5303 -0.8059
 3151SOL    MW412372   3.528   3.533   2.330  0.5236 -0.4145 -0.0369
 3152SOL     OW12373   5.540   2.923   4.709 -0.2362 -0.6423  0.3638
 3152SOL    HW212374   5.454   2.955   4.737 -0.3654 -0.7899  0.1356
 3152SOL    HW312375   5.557   2.846   4.764 -1.0938 -1.7523 -0.8680
 3152SOL    MW412376   5.531   2.917   4.720  0.6887 -0.2741 -0.5554
 3153SOL     OW12377   3.626   2.596   6.041 -0.1445  0.6268 -0.1218
 3153SOL    HW212378   3.718   2.606   6.018 -0.1656  0.2809 -0.3721
 3153SOL    HW312379   3.622   2.614   6.135  0.5015 -1.3217  0.3139
 3153SOL    MW412380   3.637   2.600   6.050 -0.3534 -0.2587  1.0379
 3154SOL     OW12381   1.826   2.161   0.292  0.7735  0.1809 -0.2899
 3154SOL    HW212382   1.809   2.134   0.201  0.2327  0.2933 -0.2285
 3154SOL    HW312383   1.795   2.087   0.344 -1.3116  1.1221 -0.0883
 3154SOL    MW412384   1.820   2.147   0.287 -0.2698 -0.5078  0.3895
 3155SOL     OW12385   1.867   2.718   4.043  0.2915 -0.7339  0.1501
 3155SOL    HW212386   1.956   2.705   4.076  0.4670  2.5462  1.3077
 3155SOL    HW312387   1.878   2.743   3.952  0.3074 -2.7127 -0.4394
 3155SOL    MW412388   1.880   2.719   4.036 -0.2225  0.4348 -0.3654
 3156SOL     OW12389   6.359   0.867   5.163 -0.1835 -0.0503 -0.6836
 3156SOL    HW212390   6.355   0.893   5.071  2.4187  0.6535 -0.6600
 3156SOL    HW312391   6.424   0.796   5.165  0.3894  0.4852  0.7151
 3156SOL    MW412392   6.367   0.861   5.151  0.0179  0.3462 -0.2403
 3157SOL     OW12393   0.558   3.465   5.120 -0.3082 -0.1723 -0.2706
 3157SOL    HW212394   0.581   3.483   5.211 -0.5465 -3.2892  0.5242
 3157SOL    HW312395   0.478   3.514   5.105 -0.2508  0.4193  1.1876
 3157SOL    MW412396   0.551   3.474   5.130 -0.6820  0.0723  0.0618
 3158SOL     OW12397   6.177   2.441   5.780 -1.0960  0.0043  0.3306
 3158SOL    HW212398   6.166   2.404   5.692 -0.2837 -0.2878  0.3462
 3158SOL    HW312399   6.253   2.499   5.772 -1.0559  0.0246  0.8257
 3158SOL    MW412400   6.186   2.444   5.767 -0.4960  0.2841 -0.2228
 3159SOL     OW12401   5.788   3.222   2.247  0.1541  0.6626  0.5745
 3159SOL    HW212402   5.703   3.210   2.206  0.2490 -0.0199  0.5527
 3159SOL    HW312403   5.787   3.311   2.281  0.2902  1.4479 -1.3745
 3159SOL    MW412404   5.777   3.232   2.246  0.4779  0.7786 -0.1639
 3160SOL     OW12405   0.200   0.660   0.051  0.4100  0.1275  0.9130
 3160SOL    HW212406   0.131   0.652  -0.014  0.6522 -0.3528  0.7115
 3160SOL    HW312407   0.232   0.571   0.064  0.3143  0.2005  1.7502
 3160SOL    MW412408   0.195   0.647   0.044 -0.3136 -0.2845 -0.0190
 3161SOL     OW12409   0.941   5.138   1.655 -0.2836  0.0206 -0.3814
 3161SOL    HW212410   0.976   5.049   1.664 -1.8841 -0.6040  0.0939
 3161SOL    HW312411   0.953   5.177   1.742  1.3594  0.6770 -0.8610
 3161SOL    MW412412   0.947   5.131   1.668 -0.1718  0.0563 -0.3143
 3162SOL     OW12413   4.088   6.319   4.990 -0.0047  0.2378 -0.0386
 3162SOL    HW212414   4.024   6.361   5.048 -1.4367 -1.1933 -0.4992
 3162SOL    HW312415   4.036   6.287   4.916  1.1306 -1.5260 -0.1320
 3162SOL    MW412416   4.073   6.320   4.988  0.3545  0.2485  0.2728
 3163SOL     OW12417   4.981   2.758   2.442 -0.1964 -0.9835  0.5677
 3163SOL    HW212418   5.001   2.694   2.374  0.5261  0.7019 -0.8839
 3163SOL    HW312419   4.925   2.711   2.504  0.0455 -2.8948 -0.5943
 3163SOL    MW412420   4.976   2.744   2.441  0.1867  0.1673 -0.3406
 3164SOL     OW12421   0.708   3.110   3.323  0.2421  0.2624 -0.3102
 3164SOL    HW212422   0.665   3.148   3.246 -0.0028  1.1530  0.2465
 3164SOL    HW312423   0.638   3.099   3.387  0.9640  3.1491  1.1635
 3164SOL    MW412424   0.693   3.114   3.321 -0.2197  0.4415  0.0609
 3165SOL     OW12425   1.880   3.626   0.945 -0.5172 -0.4870 -0.3003
 3165SOL    HW212426   1.936   3.581   0.881  1.2475  0.7260  0.3336
 3165SOL    HW312427   1.830   3.555   0.987  3.3252 -2.2231  1.8181
 3165SOL    MW412428   1.880   3.611   0.942 -0.0659 -0.2311  0.0877
 3166SOL     OW12429   6.129   1.329   4.072  0.0667  0.3275  0.2215
 3166SOL    HW212430   6.200   1.368   4.022  0.7835  0.7168  1.4936
 3166SOL    HW312431   6.053   1.334   4.014  0.3802  2.6030 -0.0878
 3166SOL    MW412432   6.128   1.335   4.058 -0.1024 -0.1460 -0.0008
 3167SOL     OW12433   3.481   2.634   3.322 -0.0762 -0.1469 -0.1469
 3167SOL    HW212434   3.554   2.696   3.330  0.8927 -1.0741 -1.4208
 3167SOL    HW312435   3.476   2.593   3.409 -0.1436  1.0593  0.4395
 3167SOL    MW412436   3.490   2.637   3.335  0.0606  0.2545 -0.4519
 3168SOL     OW12437   4.684   3.785   3.696  0.1795 -0.2070 -0.7999
 3168SOL    HW212438   4.645   3.765   3.611  1.3113 -1.9677 -0.9612
 3168SOL    HW312439   4.650   3.717   3.755  0.4590  0.1742 -0.1868
 3168SOL    MW412440   4.675   3.773   3.693 -0.6741 -0.3659  0.1958
 3169SOL     OW12441   1.677   3.426   6.070 -0.2155  0.4613  0.4538
 3169SOL    HW212442   1.761   3.381   6.069 -0.3562  0.1805  1.1067
 3169SOL    HW312443   1.632   3.393   5.992  0.5136  1.0798 -0.2465
 3169SOL    MW412444   1.682   3.416   6.060 -0.0654 -0.1723 -0.5202
 3170SOL     OW12445   6.359   0.280   1.009 -0.0782 -0.5927 -0.5420
 3170SOL    HW212446   6.366   0.198   0.959  0.6667 -0.6416 -0.3600
 3170SOL    HW312447   6.448   0.313   1.013 -0.2648 -0.1523  0.0348
 3170SOL    MW412448   6.371   0.273   1.003 -0.1996  0.3561 -0.1149
 3171SOL     OW12449   6.157   2.001   3.286  0.0341  0.1070 -0.3374
 3171SOL    HW212450   6.147   1.908   3.302 -0.5585  0.1374 -0.5101
 3171SOL    HW312451   6.098   2.020   3.213 -0.1600  0.6888 -0.0420
 3171SOL    MW412452   6.148   1.992   3.278  0.2807  0.0844 -0.3283
 3172SOL     OW12453   4.429   4.412   5.028  0.1840  0.9228  0.1386
 3172SOL    HW212454   4.357   4.435   5.088 -1.1827  1.5319 -1.6290
 3172SOL    HW312455   4.408   4.324   4.998  1.3550  0.2563  1.1883
 3172SOL    MW412456   4.416   4.404   5.032 -0.0424  0.0086 -0.5306
 3173SOL     OW12457   0.906   3.217   0.246 -0.2973  0.1244 -1.1188
 3173SOL    HW212458   0.915   3.288   0.309 -1.0720 -0.7501  0.0151
 3173SOL    HW312459   0.872   3.259   0.167 -3.4237  0.7146  0.3803
 3173SOL    MW412460   0.902   3.232   0.244 -0.2539  0.1245  0.4239
 3174SOL     OW12461   0.564   4.362   3.011 -0.1747 -0.1359 -0.4136
 3174SOL    HW212462   0.645   4.340   2.965 -0.3371  0.1246 -0.8333
 3174SOL    HW312463   0.593   4.409   3.089  0.0368  1.8734 -1.6212
 3174SOL    MW412464   0.579   4.365   3.015  0.1769  0.1265  0.4063
 3175SOL     OW12465   1.254   0.333   2.660 -0.1989 -0.0551  0.0544
 3175SOL    HW212466   1.335   0.287   2.638 -0.3811 -0.4849  0.2843
 3175SOL    HW312467   1.281   0.399   2.724 -0.1986 -0.9246  0.9835
 3175SOL    MW412468   1.268   0.336   2.666 -0.3876  0.2933  0.4448
 3176SOL     OW12469   1.972   4.694   4.349 -0.0281 -0.0076 -0.4465
 3176SOL    HW212470   1.920   4.649   4.416 -1.2839 -0.6501 -1.7797
 3176SOL    HW312471   1.907   4.722   4.283  0.7423  3.3758  0.0479
 3176SOL    MW412472   1.956   4.692   4.349 -0.4854 -0.7069 -0.2215
 3177SOL     OW12473   4.481   5.667   4.016  0.0959 -0.2887  0.4347
 3177SOL    HW212474   4.532   5.591   4.046 -0.3929 -0.7491  0.1103
 3177SOL    HW312475   4.409   5.629   3.966  0.9891  0.4531 -1.5204
 3177SOL    MW412476   4.478   5.652   4.013  0.0100 -0.1288  0.1369
 3178SOL     OW12477   4.515   0.203   2.943  0.4646 -0.0063  0.3007
 3178SOL    HW212478   4.471   0.119   2.931 -0.6353  0.8248 -2.1398
 3178SOL    HW312479   4.454   0.254   2.995 -1.8940  1.2349 -3.2923
 3178SOL    MW412480   4.501   0.199   2.948 -0.2759  0.3036 -0.5850
 3179SOL     OW12481   6.131   5.919   3.659  0.5091  0.0955  0.0391
 3179SOL    HW212482   6.148   5.860   3.733 -0.1051 -0.8807 -0.5686
 3179SOL    HW312483   6.217   5.935   3.621  0.5730 -1.5453 -0.6005
 3179SOL    MW412484   6.144   5.913   3.663 -0.0217  0.1641  0.6332
 3180SOL     OW12485   1.437   1.981   0.864  0.3202  0.5149  0.0006
 3180SOL    HW212486   1.390   1.994   0.947  0.4000 -0.4636  0.2112
 3180SOL    HW312487   1.525   1.954   0.891  0.3866  0.3263 -0.4036
 3180SOL    MW412488   1.442   1.979   0.879  0.0398  0.2885 -0.0977
 3181SOL     OW12489   0.397   1.404   2.454 -0.1574 -0.1445 -0.0133
 3181SOL    HW212490   0.331   1.343   2.423  0.7388 -1.3030  0.3173
 3181SOL    HW312491   0.473   1.390   2.398  1.9363 -3.1149  3.1342
 3181SOL    MW412492   0.399   1.394   2.443  0.1221  0.4126 -0.1107
 3182SOL     OW12493   5.739   0.259   1.638  0.4394 -0.1088 -0.2884
 3182SOL    HW212494   5.720   0.168   1.615  1.8245 -0.3578 -0.5073
 3182SOL    HW312495   5.760   0.256   1.732  1.0530 -0.1145 -0.4225
 3182SOL    MW412496   5.739   0.247   1.648  0.0427  0.0575  0.2251
 3183SOL     OW12497   0.993   2.954   5.325  0.1360  0.2493  0.5579
 3183SOL    HW212498   1.055   2.885   5.349  1.2821  0.8954 -0.4350
 3183SOL    HW312499   0.982   2.945   5.230 -1.2819  0.1821  0.7039
 3183SOL    MW412500   0.999   2.944   5.315 -0.3153  0.2954 -0.3663
 3184SOL     OW12501   1.177   0.170   2.942  0.2349 -0.3008 -0.0774
 3184SOL    HW212502   1.175   0.218   2.859  1.2498  0.0458  0.0864
 3184SOL    HW312503   1.084   0.160   2.966 -0.0258  1.0216 -0.4403
 3184SOL    MW412504   1.164   0.175   2.934  0.7831  0.4305  0.1142
 3185SOL     OW12505   4.650   3.032   0.174  0.1948 -0.1572  0.0121
 3185SOL    HW212506   4.738   3.013   0.206  0.7554  0.4756 -1.0599
 3185SOL    HW312507   4.592   2.982   0.231  1.1637  0.3320  1.4958
 3185SOL    MW412508   4.654   3.023   0.186 -0.1401  0.1059  0.0711
 3186SOL     OW12509   3.294   2.294   2.874 -0.2467  0.3423 -0.2059
 3186SOL    HW212510   3.237   2.313   2.948  0.4461  0.4970  0.2959
 3186SOL    HW312511   3.376   2.340   2.894  1.0245 -2.0390  0.4001
 3186SOL    MW412512   3.297   2.303   2.886  0.0814  0.0241  0.8434
 3187SOL     OW12513   2.267   2.462   4.817 -0.4124 -0.2621 -0.4755
 3187SOL    HW212514   2.341   2.521   4.802 -1.0189  0.5502 -0.3446
 3187SOL    HW312515   2.307   2.380   4.845  0.6832 -1.0354 -3.7924
 3187SOL    MW412516   2.282   2.459   4.818 -0.2376 -0.6650 -0.2912
 3188SOL     OW12517   3.872   3.737   4.565  0.0525 -0.0560  0.1823
 3188SOL    HW212518   3.911   3.769   4.484 -0.2328 -0.6174 -0.1839
 3188SOL    HW312519   3.939   3.680   4.603  0.0525 -0.0677  0.1647
 3188SOL    MW412520   3.886   3.733   4.560 -0.0818 -0.1374 -0.1713
 3189SOL     OW12521   2.697   4.572   2.750 -0.4380 -0.3856  0.3531
 3189SOL    HW212522   2.745   4.621   2.683 -0.5009 -1.4917 -0.5458
 3189SOL    HW312523   2.764   4.516   2.791 -0.3268  0.5578  1.4977
 3189SOL    MW412524   2.712   4.571   2.747 -0.3432 -0.0590  0.5302
 3190SOL     OW12525   3.514   2.604   3.855 -0.6234  0.5569 -0.3967
 3190SOL    HW212526   3.467   2.654   3.922  0.5329  1.2551 -0.0686
 3190SOL    HW312527   3.591   2.658   3.835 -0.4990 -0.0652 -1.6586
 3190SOL    MW412528   3.518   2.618   3.861  0.3550  0.0725 -0.2733
 3191SOL     OW12529   4.623   1.888   3.094  0.2155 -0.1110 -0.1814
 3191SOL    HW212530   4.620   1.936   3.177  1.5450 -0.0439 -0.1426
 3191SOL    HW312531   4.551   1.924   3.043 -0.8410 -0.3871  1.0581
 3191SOL    MW412532   4.613   1.899   3.098 -0.4757  0.0772 -0.1144
 3192SOL     OW12533   2.814   1.476   5.250 -0.1371  0.6445 -1.0613
 3192SOL    HW212534   2.880   1.528   5.203 -0.9383  2.9098  0.2033
 3192SOL    HW312535   2.849   1.387   5.247  2.1074  1.4603 -1.9556
 3192SOL    MW412536   2.827   1.471   5.243 -0.2325  0.0382  0.1881
 3193SOL     OW12537   1.424   2.788   4.099 -0.2980 -0.8553 -0.3640
 3193SOL    HW212538   1.439   2.802   4.192  0.3747  0.0222 -0.5880
 3193SOL    HW312539   1.501   2.826   4.056 -1.1970 -0.0739 -1.3524
 3193SOL    MW412540   1.436   2.795   4.105  0.2266  0.4895 -0.2809
 3194SOL     OW12541   6.052   2.061   2.772  0.1162  0.1621  0.5097
 3194SOL    HW212542   6.071   1.976   2.734  0.5530  0.4767  0.0096
 3194SOL    HW312543   6.038   2.043   2.865 -1.4583 -0.6902  0.1468
 3194SOL    MW412544   6.052   2.048   2.779  0.3843 -0.0733  0.3854
 3195SOL     OW12545   2.434   0.401   4.313 -0.6407 -0.1600 -0.3478
 3195SOL    HW212546   2.397   0.336   4.253 -1.0227 -1.2828  1.0663
 3195SOL    HW312547   2.395   0.382   4.398  0.7266  0.6916  0.5213
 3195SOL    MW412548   2.424   0.390   4.316  0.2823  0.5961 -0.3652
 3196SOL     OW12549   1.748   6.019   5.042  0.3171  0.0387 -0.0579
 3196SOL    HW212550   1.748   6.013   4.946 -2.7205  0.8885 -0.2153
 3196SOL    HW312551   1.666   5.977   5.069 -0.1901  2.1071  1.9257
 3196SOL    MW412552   1.737   6.013   5.033  0.4195  0.1713 -0.1490
 3197SOL     OW12553   5.093   0.223   0.179  0.4037  0.0272  0.1029
 3197SOL    HW212554   5.106   0.310   0.140 -1.3318 -0.2819 -1.2878
 3197SOL    HW312555   5.179   0.201   0.216  0.7640  2.5595  1.0315
 3197SOL    MW412556   5.106   0.232   0.179  0.9404  0.2065  0.3918
 3198SOL     OW12557   0.308   4.139   5.172 -0.4839  0.3027  0.2163
 3198SOL    HW212558   0.287   4.052   5.140  1.6722  0.1669 -1.0260
 3198SOL    HW312559   0.276   4.199   5.105  1.2463  0.2002 -0.7602
 3198SOL    MW412560   0.301   4.135   5.159  0.1660  0.8294  0.0856
 3199SOL     OW12561   4.924   2.050   5.161  0.1665 -0.1652  0.0538
 3199SOL    HW212562   4.938   1.966   5.117  0.6438  0.9516 -2.0303
 3199SOL    HW312563   4.875   2.102   5.099  2.6931  2.2170 -0.1228
 3199SOL    MW412564   4.919   2.046   5.147  0.1183 -0.3163  0.5097
 3200SOL     OW12565   3.008   0.956   5.078  0.0319  0.3524  0.6179
 3200SOL    HW212566   3.092   0.947   5.033  0.6726 -0.4227  1.8961
 3200SOL    HW312567   2.962   1.025   5.030  1.3634  0.7442 -0.1481
 3200SOL    MW412568   3.013   0.964   5.066 -0.9929  0.3223 -0.4785
 3201SOL     OW12569   4.814   0.605   5.193 -0.5918 -0.3245  0.2775
 3201SOL    HW212570   4.744   0.556   5.150 -0.6358 -2.2736  2.3851
 3201SOL    HW312571   4.768   0.676   5.239 -0.6657  0.9857 -1.6895
 3201SOL    MW412572   4.799   0.608   5.193 -0.0661 -0.1914  0.1780
 3202SOL     OW12573   5.386   5.869   4.431 -0.2259  0.3041 -0.4374
 3202SOL    HW212574   5.389   5.777   4.457  0.8258  0.4573  0.0271
 3202SOL    HW312575   5.413   5.917   4.509  0.1511  0.9478 -0.9526
 3202SOL    MW412576   5.390   5.863   4.445  0.7761 -0.7463 -0.0464
 3203SOL     OW12577   5.966   2.574   2.531 -0.3418 -0.2542 -0.0581
 3203SOL    HW212578   5.873   2.566   2.552  0.1384 -0.7818  2.0664
 3203SOL    HW312579   5.993   2.655   2.575  0.2844 -0.3169 -0.3275
 3203SOL    MW412580   5.957   2.583   2.540 -0.5312  0.3681 -0.0624
 3204SOL     OW12581   5.715   0.501   4.412 -0.1888  0.1335  0.1630
 3204SOL    HW212582   5.653   0.540   4.350 -0.1006  0.0073 -0.0063
 3204SOL    HW312583   5.791   0.477   4.358 -0.2590 -0.3033  0.2567
 3204SOL    MW412584   5.717   0.503   4.397 -0.2412  0.5794 -0.0348
 3205SOL     OW12585   3.668   1.949   3.770  0.4014  0.0290 -0.2209
 3205SOL    HW212586   3.696   1.962   3.860  0.1980  0.5441 -0.2229
 3205SOL    HW312587   3.661   2.038   3.735 -1.1477 -0.0783 -0.2371
 3205SOL    MW412588   3.671   1.963   3.777  0.4713 -0.3009  0.3355
 3206SOL     OW12589   2.895   3.218   6.213  0.2911 -0.3899  0.0481
 3206SOL    HW212590   2.955   3.283   6.251  1.0722  0.1257 -1.9273
 3206SOL    HW312591   2.843   3.268   6.151 -2.6099 -0.7353  2.0222
 3206SOL    MW412592   2.896   3.233   6.210 -0.2054  0.1988  0.3043
 3207SOL     OW12593   1.261   4.934   6.036 -0.0554 -0.2573 -0.0153
 3207SOL    HW212594   1.245   4.851   6.083 -0.5742  0.0767  0.4148
 3207SOL    HW312595   1.185   4.943   5.979 -0.8711  0.7640  1.1866
 3207SOL    MW412596   1.249   4.924   6.035 -0.1639 -0.5497  0.6580
 3208SOL     OW12597   1.152   0.639   0.432  0.1536 -1.0642 -0.4179
 3208SOL    HW212598   1.185   0.589   0.506  0.6455  1.9896  1.5901
 3208SOL    HW312599   1.156   0.578   0.358 -1.5039 -4.6689  2.1700
 3208SOL    MW412600   1.157   0.624   0.432  0.3876 -0.0908 -0.0786
 3209SOL     OW12601   0.866   4.063   2.656 -0.0432 -0.2412 -0.4470
 3209SOL    HW212602   0.908   4.144   2.626 -1.7815  1.3064  1.0287
 3209SOL    HW312603   0.935   3.997   2.651  1.0335  0.9389 -3.1614
 3209SOL    MW412604   0.881   4.065   2.652 -0.1371 -0.1206  0.4227
 3210SOL     OW12605   0.853   2.364   3.735  0.3424 -0.1873 -0.4749
 3210SOL    HW212606   0.856   2.458   3.752  0.3691 -0.0489 -1.2416
 3210SOL    HW312607   0.917   2.327   3.796 -1.5977 -0.0298  1.8402
 3210SOL    MW412608   0.861   2.371   3.745 -0.0836  0.3995  0.1186
 3211SOL     OW12609   3.033   4.066   0.098  0.3092  0.4481  0.0950
 3211SOL    HW212610   2.952   4.021   0.072 -0.8464  2.1191  0.6937
 3211SOL    HW312611   3.080   4.081   0.015  0.8245 -1.9223 -0.1210
 3211SOL    MW412612   3.029   4.062   0.083  0.6440 -0.3229 -0.1612
 3212SOL     OW12613   4.588   1.439   4.571 -0.2267 -0.3995 -0.0800
 3212SOL    HW212614   4.552   1.505   4.512 -0.8824  0.5021  1.2979
 3212SOL    HW312615   4.547   1.357   4.543 -1.7277  0.2722  0.1095
 3212SOL    MW412616   4.578   1.437   4.560 -0.4495 -0.1309 -0.0263
 3213SOL     OW12617   3.839   3.662   1.090 -0.0874 -0.0726  0.0983
 3213SOL    HW212618   3.840   3.588   1.150 -3.0700 -1.2147 -1.0427
 3213SOL    HW312619   3.885   3.631   1.012  1.9727  0.6887  0.9498
 3213SOL    MW412620   3.845   3.648   1.087 -0.3866  0.2625 -0.0443
 3214SOL     OW12621   3.214   4.589   1.743  0.1269 -0.1714 -0.6782
 3214SOL    HW212622   3.129   4.546   1.733 -0.0316  0.1789 -0.8555
 3214SOL    HW312623   3.208   4.667   1.688 -0.9869  2.1558  2.4587
 3214SOL    MW412624   3.202   4.594   1.734 -0.2824  0.0903  0.5700
 3215SOL     OW12625   4.893   3.419   4.239  0.5189 -0.0116 -0.4468
 3215SOL    HW212626   4.813   3.452   4.198 -0.3066 -1.7264 -0.3174
 3215SOL    HW312627   4.912   3.482   4.308 -0.6202  0.5221 -0.5973
 3215SOL    MW412628   4.885   3.431   4.243  0.2395  0.7604  0.5586
 3216SOL     OW12629   4.289   2.509   2.518 -0.1328  0.1780  0.6363
 3216SOL    HW212630   4.338   2.533   2.440 -0.2946  1.6871  0.9658
 3216SOL    HW312631   4.278   2.414   2.512  1.6109 -0.0065 -0.1327
 3216SOL    MW412632   4.294   2.500   2.507 -0.0542 -0.2791  0.0690
 3217SOL     OW12633   5.873   1.289   0.807 -0.8234 -0.3120 -0.6059
 3217SOL    HW212634   5.908   1.331   0.885 -1.2026  0.1002 -0.6528
 3217SOL    HW312635   5.783   1.322   0.801 -0.3193  0.9253 -2.0938
 3217SOL    MW412636   5.866   1.299   0.816  0.1472  0.3382  0.6065
 3218SOL     OW12637   4.985   2.414   0.977  0.2884  0.0399 -0.5863
 3218SOL    HW212638   4.931   2.484   1.014  0.8502  0.6314 -0.8635
 3218SOL    HW312639   4.938   2.334   0.999 -1.5468  0.6052 -2.1586
 3218SOL    MW412640   4.971   2.413   0.985  0.3290 -0.3532 -0.1664
 3219SOL     OW12641   5.533   3.375   5.844  0.0963 -0.3463 -0.3918
 3219SOL    HW212642   5.603   3.323   5.885  0.9769 -0.5709 -2.1089
 3219SOL    HW312643   5.560   3.384   5.753 -0.2366  2.8141 -0.2699
 3219SOL    MW412644   5.546   3.369   5.838  0.6239 -0.2195 -0.4924
 3220SOL     OW12645   1.611   1.674   0.367  0.3949 -0.1951 -0.7079
 3220SOL    HW212646   1.650   1.716   0.291  0.3907  0.5513 -0.3133
 3220SOL    HW312647   1.660   1.593   0.378  2.2778  0.9743  0.1226
 3220SOL    MW412648   1.622   1.669   0.358 -0.0637  0.3347  0.1815
 3221SOL     OW12649   0.610   3.791   5.135 -0.3867  0.5319 -0.5090
 3221SOL    HW212650   0.540   3.755   5.081  0.0848 -0.1897 -0.6590
 3221SOL    HW312651   0.600   3.886   5.127  0.4901  0.5041 -3.0256
 3221SOL    MW412652   0.600   3.798   5.126 -0.3211 -0.4850  0.5601
 3222SOL     OW12653   4.805   3.150   1.578 -0.6365 -0.6511  0.4623
 3222SOL    HW212654   4.879   3.139   1.637 -0.8836 -1.3017  0.6622
 3222SOL    HW312655   4.728   3.145   1.634 -0.8635 -1.0552  0.1206
 3222SOL    MW412656   4.805   3.148   1.593 -0.0237 -0.0879 -0.0574
 3223SOL     OW12657   3.110   3.103   1.671  0.0427  0.3011  0.2205
 3223SOL    HW212658   3.109   3.195   1.646 -1.3460  0.5492  1.0581
 3223SOL    HW312659   3.175   3.097   1.740  1.0101  0.3945 -0.6578
 3223SOL    MW412660   3.118   3.114   1.677  0.2628 -0.3374  0.2523
 3224SOL     OW12661   3.090   2.974   4.874 -0.1821  0.3256  0.4363
 3224SOL    HW212662   3.150   2.982   4.800  0.4583 -1.4527  0.7091
 3224SOL    HW312663   3.013   2.931   4.837 -0.1720  0.1449  0.6197
 3224SOL    MW412664   3.088   2.969   4.859  0.3062  0.2188 -0.2619
 3225SOL     OW12665   5.855   5.641   4.714 -0.2996  0.5270 -0.3204
 3225SOL    HW212666   5.834   5.624   4.622 -1.1606 -1.5921  0.2220
 3225SOL    HW312667   5.877   5.735   4.716 -0.7661  0.7435 -2.5766
 3225SOL    MW412668   5.855   5.651   4.702  0.5381  0.4449  0.2326
 3226SOL     OW12669   1.076   2.658   1.901  0.2522 -0.6278 -0.1157
 3226SOL    HW212670   1.007   2.694   1.846  1.0796  0.1038 -0.6975
 3226SOL    HW312671   1.032   2.633   1.983 -0.5640  0.5155 -0.1974
 3226SOL    MW412672   1.061   2.659   1.905 -0.1875 -0.4087 -0.6674
 3227SOL     OW12673   3.742   1.305   0.789 -0.0313  0.4282 -0.2436
 3227SOL    HW212674   3.690   1.368   0.840  0.3683  1.4387 -1.0518
 3227SOL    HW312675   3.806   1.359   0.744  2.2761 -0.8260  1.3265
 3227SOL    MW412676   3.744   1.321   0.790  0.4685 -0.0747 -0.1002
 3228SOL     OW12677   1.439   5.177   2.096  0.2559 -0.3316  0.1680
 3228SOL    HW212678   1.436   5.188   2.191  1.4461 -1.1081  0.3186
 3228SOL    HW312679   1.532   5.164   2.076 -0.0044 -0.4628 -1.0770
 3228SOL    MW412680   1.451   5.177   2.106 -0.1437  0.3802 -0.7151
 3229SOL     OW12681   2.276   6.232   1.885 -0.1174 -0.4201  0.1018
 3229SOL    HW212682   2.197   6.281   1.908 -0.0004 -0.2739  0.1932
 3229SOL    HW312683   2.315   6.207   1.968  0.9745  1.1854  0.1146
 3229SOL    MW412684   2.271   6.235   1.899 -0.0406 -0.6559 -0.1914
 3230SOL     OW12685   1.003   3.673   4.427  0.3738  0.1463 -0.2972
 3230SOL    HW212686   0.993   3.718   4.511 -1.0148  0.1203 -0.4217
 3230SOL    HW312687   0.990   3.581   4.448 -1.1432  0.2397 -0.6755
 3230SOL    MW412688   1.000   3.667   4.441  0.2844  0.3419 -0.4881
 3231SOL     OW12689   3.441   4.607   2.334 -0.2493 -0.1147 -0.1325
 3231SOL    HW212690   3.492   4.528   2.351 -0.4964  0.1176  1.9451
 3231SOL    HW312691   3.448   4.658   2.415 -2.3109  0.7482 -0.4340
 3231SOL    MW412692   3.449   4.604   2.347  0.0535 -0.3156 -0.2666
 3232SOL     OW12693   4.983   0.589   5.795 -0.0209  0.0017 -0.7374
 3232SOL    HW212694   4.896   0.586   5.755  0.0559  0.2777 -0.9274
 3232SOL    HW312695   5.032   0.651   5.741  0.2450 -0.0296 -0.5331
 3232SOL    MW412696   4.978   0.597   5.783 -0.3796  0.5166  0.0547
 3233SOL     OW12697   5.582   1.221   5.866 -0.0332  0.5433 -0.0659
 3233SOL    HW212698   5.620   1.309   5.857  3.0474 -0.4555  1.5731
 3233SOL    HW312699   5.601   1.179   5.782 -1.3024  1.3252 -0.7685
 3233SOL    MW412700   5.590   1.227   5.854  0.0545 -0.3530 -0.2314
 3234SOL     OW12701   4.729   5.230   5.224 -0.0708  0.0615 -0.4163
 3234SOL    HW212702   4.635   5.238   5.208 -0.0968  0.2240 -0.1887
 3234SOL    HW312703   4.742   5.138   5.248 -0.2338  0.1338 -0.0489
 3234SOL    MW412704   4.719   5.219   5.225  0.0433 -0.1496  0.4362
 3235SOL     OW12705   4.727   6.403   1.917  0.0907 -0.0623 -0.0627
 3235SOL    HW212706   4.738   6.326   1.861 -0.5678 -0.1038 -0.1438
 3235SOL    HW312707   4.728   6.477   1.855  1.8409  0.0957  0.1230
 3235SOL    MW412708   4.728   6.403   1.901  0.3292 -0.3426 -0.3285
 3236SOL     OW12709   4.768   4.006   6.299 -0.2912 -0.3024 -0.1471
 3236SOL    HW212710   4.765   4.051   6.215 -0.9505 -1.7013 -0.9126
 3236SOL    HW312711   4.736   4.070   6.363  1.9913  1.4277 -0.6003
 3236SOL    MW412712   4.764   4.020   6.297  0.3050  0.0443  0.2939
 3237SOL     OW12713   3.242   5.460   5.908 -0.1297 -0.1337 -0.0375
 3237SOL    HW212714   3.162   5.411   5.928 -0.5532  1.1628  1.6726
 3237SOL    HW312715   3.262   5.437   5.817 -0.5145 -3.1272  0.5518
 3237SOL    MW412716   3.234   5.451   5.898  0.1024  0.1943 -0.1760
 3238SOL     OW12717   1.120   4.196   2.186  0.1252 -0.5213  0.6597
 3238SOL    HW212718   1.170   4.229   2.260 -0.9181  0.4325  0.9801
 3238SOL    HW312719   1.030   4.189   2.219  0.3127 -4.3568  0.8125
 3238SOL    MW412720   1.115   4.200   2.200 -0.3041  0.2633 -0.0763
 3239SOL     OW12721   2.650   2.360   4.855  0.3052  0.0158  0.6416
 3239SOL    HW212722   2.693   2.329   4.775 -0.8062 -2.1159  0.7998
 3239SOL    HW312723   2.721   2.367   4.919  0.9031 -0.1981  0.0184
 3239SOL    MW412724   2.665   2.357   4.852 -0.1500  0.3898 -0.0020
 3240SOL     OW12725   2.183   5.953   6.048  0.0590  0.1064  0.6068
 3240SOL    HW212726   2.243   6.020   6.013  0.0553  0.1344  0.6542
 3240SOL    HW312727   2.114   5.946   5.982  0.8331 -0.9086 -0.1243
 3240SOL    MW412728   2.182   5.961   6.034  0.1083  0.5295  0.7544
 3241SOL     OW12729   1.209   6.148   3.059  1.0395  0.3665  0.0319
 3241SOL    HW212730   1.178   6.202   2.987  0.2382  0.7409  0.6404
 3241SOL    HW312731   1.148   6.166   3.131  0.6591 -1.4451  0.2236
 3241SOL    MW412732   1.197   6.157   3.059 -0.2258  0.1684  0.2966
 3242SOL     OW12733   4.782   1.108   4.453  0.5053 -0.4332  1.0684
 3242SOL    HW212734   4.698   1.126   4.411 -0.4517 -2.8356  1.7885
 3242SOL    HW312735   4.782   1.014   4.469  3.2254 -0.4760  1.3973
 3242SOL    MW412736   4.771   1.098   4.450  0.1547 -0.3961 -0.2868
 3243SOL     OW12737   5.357   0.107   3.664 -0.1078  0.4643  0.1004
 3243SOL    HW212738   5.443   0.114   3.706 -0.1058 -0.1768  0.2123
 3243SOL    HW312739   5.374   0.122   3.571  0.1472  0.1993  0.1036
 3243SOL    MW412740   5.371   0.110   3.657 -0.4290 -0.4674  0.5815
 3244SOL     OW12741   1.050   0.199   5.714 -0.2637 -0.3777 -0.2979
 3244SOL    HW212742   1.032   0.281   5.667  1.4155 -0.0669 -0.4453
 3244SOL    HW312743   1.004   0.132   5.663  1.2840 -0.0192 -2.3101
 3244SOL    MW412744   1.042   0.201   5.701 -0.3232  0.4914 -0.4614
 3245SOL     OW12745   2.093   0.965   0.142 -0.5213 -0.0553 -0.1055
 3245SOL    HW212746   2.145   0.996   0.215 -1.0415 -2.6337  1.4960
 3245SOL    HW312747   2.147   0.899   0.100 -1.1488 -0.2707 -0.5934
 3245SOL    MW412748   2.107   0.960   0.146  0.3839 -0.2065  0.8102
 3246SOL     OW12749   1.813   3.678   4.880 -0.1152  0.1103 -0.0571
 3246SOL    HW212750   1.873   3.740   4.920  0.7785  0.2240 -1.5071
 3246SOL    HW312751   1.731   3.726   4.871  0.2325  0.7006 -0.1096
 3246SOL    MW412752   1.810   3.692   4.884 -0.4211  0.4909 -0.1428
 3247SOL     OW12753   5.157   3.975   5.381 -0.0067  0.0596 -0.2363
 3247SOL    HW212754   5.202   4.059   5.385  0.9746 -0.4786  0.6270
 3247SOL    HW312755   5.067   3.997   5.357  0.4126  1.2803 -0.7498
 3247SOL    MW412756   5.151   3.989   5.379  0.4359 -0.0490 -0.7638
 3248SOL     OW12757   6.223   5.472   5.179  0.5671  0.2059  0.2405
 3248SOL    HW212758   6.307   5.486   5.137  0.3779 -1.9902 -1.0544
 3248SOL    HW312759   6.180   5.405   5.126 -1.2199 -0.0937  1.9138
 3248SOL    MW412760   6.228   5.465   5.167  0.4461  0.4361 -0.0433
 3249SOL     OW12761   0.999   3.434   2.719  0.1279 -0.0751  0.1289
 3249SOL    HW212762   1.089   3.455   2.745  0.2786 -1.5714  0.9147
 3249SOL    HW312763   0.987   3.479   2.636  2.6782 -2.2480 -1.5864
 3249SOL    MW412764   1.010   3.443   2.712 -0.0619 -0.5137  0.6267
 3250SOL     OW12765   3.960   0.511   2.979 -0.7368  0.3280 -0.2647
 3250SOL    HW212766   3.989   0.482   3.065  1.6234  2.4738 -0.1930
 3250SOL    HW312767   3.900   0.584   2.997 -0.9570  0.1907 -0.4347
 3250SOL    MW412768   3.956   0.517   2.992 -0.3555  0.4112 -0.1649
 3251SOL     OW12769   6.286   6.049   1.062 -0.4269  0.0838 -0.5272
 3251SOL    HW212770   6.261   5.957   1.064 -2.1585  0.5064 -0.8317
 3251SOL    HW312771   6.233   6.087   0.991 -0.2103  1.4385  0.0004
 3251SOL    MW412772   6.276   6.042   1.053  0.2587 -0.2353 -0.5013
 3252SOL     OW12773   6.091   1.000   1.108  0.2303 -0.1553  0.2108
 3252SOL    HW212774   6.088   0.905   1.094 -0.0441 -0.0826 -0.2812
 3252SOL    HW312775   6.015   1.018   1.163 -0.9115  0.0169 -1.3493
 3252SOL    MW412776   6.080   0.990   1.113  0.1228  0.1509 -0.5048
 3253SOL     OW12777   2.061   4.240   2.764 -0.3372 -0.5683  0.1666
 3253SOL    HW212778   2.156   4.249   2.772 -0.4840  1.2339  0.3344
 3253SOL    HW312779   2.042   4.267   2.674 -0.9164  1.8897  0.9535
 3253SOL    MW412780   2.071   4.245   2.753  0.4927 -0.2494  0.0391
 3254SOL     OW12781   5.576   4.327   1.313 -0.3797 -0.0788 -0.3377
 3254SOL    HW212782   5.628   4.366   1.383 -2.3243  2.8701 -0.4032
 3254SOL    HW312783   5.501   4.288   1.358 -1.6434  1.8401 -0.6962
 3254SOL    MW412784   5.573   4.327   1.328  0.2410 -0.1219  0.5779
 3255SOL     OW12785   5.225   5.730   0.631 -0.1224 -0.0202  0.0141
 3255SOL    HW212786   5.224   5.651   0.578 -0.9401 -0.6555  0.9472
 3255SOL    HW312787   5.206   5.801   0.569  0.3169 -0.5825 -0.7724
 3255SOL    MW412788   5.222   5.729   0.616  0.1083  0.8275  0.5163
 3256SOL     OW12789   3.543   3.794   0.529  0.5557  0.0846  0.9526
 3256SOL    HW212790   3.530   3.855   0.456 -2.0424 -1.6146 -0.1737
 3256SOL    HW312791   3.502   3.838   0.603 -3.3146 -0.9487 -0.3275
 3256SOL    MW412792   3.536   3.808   0.529  0.2490 -0.3864  0.5115
 3257SOL     OW12793   0.323   5.196   1.358  0.1120 -0.6493 -0.2416
 3257SOL    HW212794   0.392   5.235   1.411  0.5210 -0.1991 -1.0781
 3257SOL    HW312795   0.362   5.186   1.271 -0.8551 -0.4311 -0.7171
 3257SOL    MW412796   0.337   5.200   1.353 -0.1846  0.5939 -0.6412
 3258SOL     OW12797   0.668   5.045   1.576 -0.2093  0.3618 -0.4784
 3258SOL    HW212798   0.736   5.098   1.619  0.6644 -1.6867  0.8313
 3258SOL    HW312799   0.587   5.067   1.622 -0.0618  1.3085 -0.6549
 3258SOL    MW412800   0.667   5.055   1.588  0.0510 -0.7565 -0.0709
 3259SOL     OW12801   0.917   3.999   3.545 -0.1364 -0.4619 -0.1966
 3259SOL    HW212802   0.877   4.037   3.623 -1.0256  0.6897 -1.1853
 3259SOL    HW312803   1.011   4.015   3.556 -0.4124  1.2946 -0.1673
 3259SOL    MW412804   0.924   4.006   3.557 -0.8140  0.3635  0.1116
 3260SOL     OW12805   5.690   6.369   4.283  0.2420 -0.1427 -0.1391
 3260SOL    HW212806   5.722   6.283   4.310  0.7634  0.0252 -0.2097
 3260SOL    HW312807   5.603   6.376   4.324  0.8265 -0.0845  1.1164
 3260SOL    MW412808   5.682   6.358   4.292 -0.9424  0.2489 -0.0112
 3261SOL     OW12809   3.738   4.713   4.804 -1.0296 -0.5989 -0.0503
 3261SOL    HW212810   3.770   4.756   4.725 -1.4227 -0.2305 -0.0141
 3261SOL    HW312811   3.806   4.649   4.826 -0.7392 -0.4370 -0.4663
 3261SOL    MW412812   3.751   4.710   4.797 -0.0628  0.3170 -0.1381
 3262SOL     OW12813   1.270   4.853   0.396  0.1996 -0.1458  0.6194
 3262SOL    HW212814   1.193   4.819   0.443 -0.8807  0.7128 -0.4595
 3262SOL    HW312815   1.296   4.782   0.338 -1.1867  0.2848 -0.6122
 3262SOL    MW412816   1.263   4.839   0.395 -0.1843 -0.7121  0.2972
 3263SOL     OW12817   6.064   3.048   3.890 -0.0330 -0.6188  0.1494
 3263SOL    HW212818   6.132   3.054   3.957 -0.5695 -0.0506  0.6613
 3263SOL    HW312819   5.983   3.037   3.939 -0.4057 -0.4520 -0.4191
 3263SOL    MW412820   6.062   3.048   3.905  0.0768 -0.7231  0.2473
 3264SOL     OW12821   2.831   5.446   2.018  0.0187 -0.2237 -0.6039
 3264SOL    HW212822   2.924   5.455   2.035 -0.0871 -2.1959  1.4602
 3264SOL    HW312823   2.808   5.523   1.965  2.8583  0.0732 -1.5474
 3264SOL    MW412824   2.840   5.457   2.013  0.1809 -0.1449  0.5751
 3265SOL     OW12825   1.209   5.800   5.983 -0.1266 -0.4328 -0.2539
 3265SOL    HW212826   1.120   5.776   6.007 -0.2248 -1.5943 -1.6276
 3265SOL    HW312827   1.210   5.794   5.887  0.0405  4.4810 -0.8417
 3265SOL    MW412828   1.198   5.796   5.973  0.3449 -0.0766 -0.1033
 3266SOL     OW12829   1.965   1.218   3.996  0.1863  0.3871  0.3724
 3266SOL    HW212830   1.937   1.175   4.077 -1.0964 -0.0179 -0.2633
 3266SOL    HW312831   1.986   1.307   4.023  2.8821 -0.5285  1.7158
 3266SOL    MW412832   1.964   1.224   4.010  0.7366  0.8593  0.4189
 3267SOL     OW12833   1.626   2.223   4.790 -0.2407 -0.4347  0.1716
 3267SOL    HW212834   1.671   2.199   4.871  0.9644  1.6296  0.2112
 3267SOL    HW312835   1.581   2.144   4.762  1.0084 -1.7703  1.7578
 3267SOL    MW412836   1.626   2.210   4.797  0.0153 -0.2089  0.7298
 3268SOL     OW12837   6.211   4.085   5.713  0.0931  0.0996  0.5742
 3268SOL    HW212838   6.250   4.096   5.800 -0.2710 -2.0045  1.0581
 3268SOL    HW312839   6.284   4.063   5.656  0.2779  1.0963  0.4131
 3268SOL    MW412840   6.226   4.083   5.717 -0.1109  0.6069  0.2021
 3269SOL     OW12841   0.599   4.448   4.854  0.1358  0.1883 -0.5880
 3269SOL    HW212842   0.556   4.494   4.782 -0.2392 -1.5794 -1.5576
 3269SOL    HW312843   0.531   4.440   4.921 -0.0782  0.2200 -0.7995
 3269SOL    MW412844   0.584   4.453   4.853 -0.1117  0.4074 -0.2052
 3270SOL     OW12845   4.211   1.696   3.413  0.0413  0.1276 -0.1466
 3270SOL    HW212846   4.150   1.713   3.341  2.2408  2.0887 -1.7107
 3270SOL    HW312847   4.194   1.606   3.438 -3.4810  0.5666 -0.4327
 3270SOL    MW412848   4.201   1.687   3.407 -0.0284 -0.3982 -0.2139
 3271SOL     OW12849   6.209   5.277   3.417 -0.4383 -0.3025 -0.2167
 3271SOL    HW212850   6.160   5.335   3.474  1.1875 -0.1378  1.0857
 3271SOL    HW312851   6.143   5.217   3.381 -1.3541 -2.0867  3.8127
 3271SOL    MW412852   6.194   5.276   3.420  0.2068  0.3056 -0.3220
 3272SOL     OW12853   2.670   5.426   1.634 -0.1349  0.0967 -0.1965
 3272SOL    HW212854   2.657   5.363   1.563 -0.4525 -0.2754  0.1884
 3272SOL    HW312855   2.622   5.389   1.708  1.1151 -0.0880  0.5529
 3272SOL    MW412856   2.662   5.413   1.635 -0.3077  0.2199  1.1036
 3273SOL     OW12857   4.584   3.060   4.947  0.3403  0.3190  0.6841
 3273SOL    HW212858   4.672   3.076   4.913 -0.1336  1.8763  0.1421
 3273SOL    HW312859   4.594   3.064   5.042  0.7036  1.4491  0.6120
 3273SOL    MW412860   4.597   3.062   4.955 -0.3917  0.5509  0.0253
 3274SOL     OW12861   2.290   3.212   4.410 -0.0479  0.0649 -0.2365
 3274SOL    HW212862   2.378   3.245   4.393 -0.7133  2.1592  0.0965
 3274SOL    HW312863   2.237   3.291   4.422 -2.6801 -0.9523 -3.6848
 3274SOL    MW412864   2.295   3.227   4.409  0.0017  0.0531  0.3821
 3275SOL     OW12865   3.415   5.249   3.685  0.6124 -1.2395  0.0192
 3275SOL    HW212866   3.416   5.170   3.740  1.2333 -1.7792 -0.7468
 3275SOL    HW312867   3.449   5.219   3.601 -0.7503 -0.5116 -0.8004
 3275SOL    MW412868   3.420   5.234   3.681  0.3396  0.6653 -0.0904
 3276SOL     OW12869   5.597   3.444   2.880 -0.3459 -0.0263  0.2730
 3276SOL    HW212870   5.648   3.521   2.904 -2.1386  2.1491 -2.2368
 3276SOL    HW312871   5.525   3.441   2.943 -0.5396  0.6655  0.0843
 3276SOL    MW412872   5.594   3.453   2.891  0.2105 -0.0000  0.9643
 3277SOL     OW12873   6.165   1.280   3.201 -0.1739 -0.5635 -0.2985
 3277SOL    HW212874   6.208   1.338   3.137  1.1349 -0.3872  0.6842
 3277SOL    HW312875   6.094   1.333   3.238 -0.2498 -0.2902 -0.8348
 3277SOL    MW412876   6.161   1.295   3.198  0.2167 -0.4811 -0.1039
 3278SOL     OW12877   1.480   2.419   5.213  0.4367  0.0287  0.0273
 3278SOL    HW212878   1.436   2.463   5.286  0.6547  2.6984 -1.3109
 3278SOL    HW312879   1.487   2.328   5.240 -1.3306  0.5125  2.4314
 3278SOL    MW412880   1.475   2.413   5.226 -0.4046  0.3719  0.0270
 3279SOL     OW12881   0.860   3.659   0.664  0.2355  0.1320  0.5002
 3279SOL    HW212882   0.766   3.644   0.659  0.1818  0.3851  0.7242
 3279SOL    HW312883   0.897   3.571   0.673  0.0768 -0.0214 -0.2994
 3279SOL    MW412884   0.853   3.645   0.665 -0.3832  0.8529 -0.0439
 3280SOL     OW12885   2.647   4.854   1.030 -0.2199  0.0825 -0.7140
 3280SOL    HW212886   2.734   4.888   1.007  0.7344  0.6545  2.9514
 3280SOL    HW312887   2.596   4.931   1.052 -1.0078 -0.3724 -0.9013
 3280SOL    MW412888   2.652   4.868   1.030  0.6475  0.8089 -0.2062
 3281SOL     OW12889   1.727   2.571   0.761  0.0893  0.1406 -0.3392
 3281SOL    HW212890   1.680   2.574   0.678 -0.6068 -1.2380 -0.0192
 3281SOL    HW312891   1.819   2.586   0.737 -0.0050 -0.8843 -1.4517
 3281SOL    MW412892   1.733   2.574   0.747 -0.1262 -0.3501 -0.0553
 3282SOL     OW12893   4.201   4.337   6.279  0.0309 -0.1934  0.5754
 3282SOL    HW212894   4.269   4.370   6.337  1.3355 -0.4148 -0.7788
 3282SOL    HW312895   4.186   4.407   6.216  1.1523 -1.2269 -0.9069
 3282SOL    MW412896   4.208   4.351   6.279  0.1413  0.0133  0.4431
 3283SOL     OW12897   5.738   4.893   5.293  0.4087  0.3358 -0.3736
 3283SOL    HW212898   5.753   4.906   5.386  0.4862  0.6819 -0.4323
 3283SOL    HW312899   5.643   4.880   5.286  0.2685  1.3026 -0.3545
 3283SOL    MW412900   5.727   4.893   5.304 -0.1319  0.0457  0.0584
 3284SOL     OW12901   4.804   6.095   3.733 -0.0218 -0.6154  0.5821
 3284SOL    HW212902   4.864   6.094   3.808 -0.0462 -1.7010  0.6115
 3284SOL    HW312903   4.770   6.005   3.729 -0.8524 -0.2836 -0.0673
 3284SOL    MW412904   4.808   6.083   3.743  0.1548  0.6622 -0.2451
 3285SOL     OW12905   3.471   1.984   1.189 -0.7532  0.2473 -0.0326
 3285SOL    HW212906   3.538   2.052   1.189 -0.4613  0.0426  2.1597
 3285SOL    HW312907   3.490   1.931   1.267 -1.0631 -2.2970 -1.5534
 3285SOL    MW412908   3.482   1.986   1.200 -1.1501 -0.5113  0.2722
 3286SOL     OW12909   0.230   4.577   1.586 -0.5388 -0.7427 -0.2611
 3286SOL    HW212910   0.271   4.510   1.641 -0.5965  0.9681  2.0201
 3286SOL    HW312911   0.303   4.625   1.548 -0.5020 -1.1852 -0.7739
 3286SOL    MW412912   0.245   4.574   1.588 -0.7018 -0.0487 -0.1428
 3287SOL     OW12913   4.218   5.189   3.567 -0.4164  0.1233 -0.4335
 3287SOL    HW212914   4.255   5.118   3.515 -0.4486 -1.0328  1.0462
 3287SOL    HW312915   4.138   5.153   3.605  0.0843  0.5764  1.1462
 3287SOL    MW412916   4.213   5.175   3.565  0.4597  0.4990 -0.4386
 3288SOL     OW12917   2.929   3.208   1.864 -0.3945 -0.2543 -0.3675
 3288SOL    HW212918   2.958   3.299   1.863 -0.2876 -0.2218  1.8254
 3288SOL    HW312919   3.001   3.160   1.823 -0.2408  0.5712 -1.0971
 3288SOL    MW412920   2.942   3.214   1.858  0.3592  0.3738 -0.3851
 3289SOL     OW12921   2.275   2.096   2.716  0.1280 -0.0179 -0.0207
 3289SOL    HW212922   2.215   2.120   2.645  0.2147  0.0566 -0.0683
 3289SOL    HW312923   2.289   2.177   2.765 -1.3600 -0.4231  1.1698
 3289SOL    MW412924   2.269   2.110   2.713  0.0831  0.2381 -0.0123
 3290SOL     OW12925   0.462   4.692   1.205 -0.2494 -0.4365 -0.3630
 3290SOL    HW212926   0.441   4.775   1.161  1.3021 -0.2057 -0.7392
 3290SOL    HW312927   0.545   4.665   1.166  0.1819 -1.2417  1.0571
 3290SOL    MW412928   0.470   4.700   1.194 -0.2587 -0.4585 -0.6272
 3291SOL     OW12929   4.237   4.747   5.057  0.3086  0.2905  0.4532
 3291SOL    HW212930   4.213   4.655   5.047 -1.6495  0.6695  1.1455
 3291SOL    HW312931   4.232   4.784   4.969  0.1406 -0.0518  0.3217
 3291SOL    MW412932   4.233   4.740   5.044  0.4487  0.1881  0.0291
 3292SOL     OW12933   3.177   0.039   0.376  0.1013  0.0381  0.5582
 3292SOL    HW212934   3.205   0.130   0.379 -3.4583  1.3757 -1.2422
 3292SOL    HW312935   3.233  -0.001   0.310 -0.1490  1.7618 -0.7734
 3292SOL    MW412936   3.188   0.046   0.368 -0.0402 -0.0954  0.2145
 3293SOL     OW12937   3.840   5.633   0.103  0.0594  0.6616  0.2175
 3293SOL    HW212938   3.819   5.548   0.143  0.0534  0.8981  0.7221
 3293SOL    HW312939   3.874   5.610   0.016  1.3681  0.0429  0.8546
 3293SOL    MW412940   3.842   5.619   0.097  0.4801 -0.0566 -0.4267
 3294SOL     OW12941   5.432   6.041   1.150  0.1261  0.8324  0.0881
 3294SOL    HW212942   5.500   6.087   1.200  0.4377  1.4438 -0.8629
 3294SOL    HW312943   5.477   5.967   1.111  0.8196  2.3330 -2.1922
 3294SOL    MW412944   5.447   6.037   1.152 -0.2430 -0.6243  0.3104
 3295SOL     OW12945   5.081   0.345   4.813  0.1131 -0.0083  0.2704
 3295SOL    HW212946   5.096   0.313   4.902  1.1287 -1.3111 -0.3310
 3295SOL    HW312947   4.987   0.333   4.799 -0.0878  0.3648  1.2188
 3295SOL    MW412948   5.070   0.339   4.823  0.7226  0.1726 -0.1478
 3296SOL     OW12949   0.554   0.593   4.602  0.0435  0.2849  0.2706
 3296SOL    HW212950   0.553   0.686   4.624  1.4765  0.0621  1.4494
 3296SOL    HW312951   0.463   0.572   4.582 -0.2560  1.9998 -0.3712
 3296SOL    MW412952   0.542   0.603   4.602 -0.4705 -0.4513 -0.0152
 3297SOL     OW12953   6.412   3.938   2.552 -0.0063 -0.1150 -0.1898
 3297SOL    HW212954   6.343   3.871   2.550 -0.0057 -0.1079 -0.5943
 3297SOL    HW312955   6.489   3.892   2.584 -0.1186 -0.2009 -0.0409
 3297SOL    MW412956   6.413   3.923   2.556  0.2629  0.1193  0.5022
 3298SOL     OW12957   5.423   4.977   1.732 -0.2739  0.3390  0.0463
 3298SOL    HW212958   5.395   4.998   1.643 -1.8468  0.0674  0.4461
 3298SOL    HW312959   5.345   4.940   1.774  0.9786 -1.4024  0.9486
 3298SOL    MW412960   5.409   4.975   1.726 -0.0800  0.1547 -0.1293
 3299SOL     OW12961   0.509   1.427   4.136 -0.6775  0.3426  0.3679
 3299SOL    HW212962   0.541   1.510   4.170 -0.2914  0.2015  0.3589
 3299SOL    HW312963   0.512   1.368   4.212  1.1130 -0.2317 -0.1187
 3299SOL    MW412964   0.514   1.430   4.151  0.2440 -0.0626 -0.1454
 3300SOL     OW12965   5.290   2.594   0.978  0.3081  0.4400  0.5213
 3300SOL    HW212966   5.236   2.624   0.906  0.2261  1.2839  0.9167
 3300SOL    HW312967   5.374   2.570   0.938 -0.1745 -0.3659 -0.0194
 3300SOL    MW412968   5.294   2.595   0.963  0.0949 -0.5019 -0.3839
 3301SOL     OW12969   1.592   4.799   6.062 -0.3455  0.2106  0.0961
 3301SOL    HW212970   1.557   4.874   6.111 -1.0196 -1.4465  2.3443
 3301SOL    HW312971   1.606   4.732   6.129  0.5188 -1.5830 -1.7848
 3301SOL    MW412972   1.589   4.800   6.078  0.5056  0.3907  0.2025
 3302SOL     OW12973   2.081   5.165   2.650 -0.4992 -0.1916  1.0325
 3302SOL    HW212974   2.014   5.231   2.632 -1.2540 -0.8531  1.3758
 3302SOL    HW312975   2.037   5.099   2.703  0.1088 -1.2192  0.3054
 3302SOL    MW412976   2.066   5.165   2.654  0.1424 -0.6634  0.2710
 3303SOL     OW12977   2.131   4.924   1.554 -0.0205  0.3405 -0.4571
 3303SOL    HW212978   2.075   4.879   1.491  0.2303  0.8888 -1.0759
 3303SOL    HW312979   2.079   4.926   1.634 -1.4820  2.0403 -1.3725
 3303SOL    MW412980   2.117   4.918   1.556  0.4763 -0.6846 -0.5917
 3304SOL     OW12981   2.064   3.554   3.912 -0.2184 -0.5359  0.0830
 3304SOL    HW212982   2.082   3.630   3.857 -1.9776  0.4028  0.7210
 3304SOL    HW312983   2.148   3.532   3.952  0.0350  2.2235  1.2933
 3304SOL    MW412984   2.078   3.561   3.910 -0.4164  0.1483  0.1645
 3305SOL     OW12985   3.894   5.747   4.194  0.0084  0.2266  0.3220
 3305SOL    HW212986   3.920   5.830   4.235  0.6957 -0.3271  1.0360
 3305SOL    HW312987   3.932   5.680   4.250  0.2971 -0.5703 -0.7969
 3305SOL    MW412988   3.902   5.749   4.207 -0.1369 -0.8779 -0.4813
 3306SOL     OW12989   5.247   1.041   0.438  0.4140 -0.2338 -0.1872
 3306SOL    HW212990   5.187   1.097   0.488  1.3858 -0.5940  1.4505
 3306SOL    HW312991   5.215   0.952   0.453 -1.2666 -0.2346 -2.9682
 3306SOL    MW412992   5.235   1.037   0.446  0.0247 -0.2319  0.4941
 3307SOL     OW12993   3.298   0.213   2.553 -0.3108 -0.1316 -0.2799
 3307SOL    HW212994   3.245   0.139   2.581  0.2624 -1.0888 -1.6154
 3307SOL    HW312995   3.333   0.187   2.468  0.0471  1.6082 -0.7103
 3307SOL    MW412996   3.296   0.200   2.545  0.3563  0.0592  0.1334
 3308SOL     OW12997   2.895   4.433   2.512 -0.2111  0.1850  0.4070
 3308SOL    HW212998   2.914   4.356   2.565  0.6164 -1.3929 -1.9843
 3308SOL    HW312999   2.868   4.397   2.427 -0.1137  2.5523 -0.7144
 3308SOL    MW413000   2.894   4.418   2.508 -0.2938  0.4554 -0.1234
 3309SOL     OW13001   1.684   1.709   4.458 -0.4869  0.5325  0.4146
 3309SOL    HW213002   1.651   1.652   4.528 -1.8670 -1.7685 -1.9005
 3309SOL    HW313003   1.776   1.685   4.450 -0.2703  0.9405  1.5234
 3309SOL    MW413004   1.692   1.698   4.466  0.0765 -0.0783  0.2544
 3310SOL     OW13005   0.647   2.520   2.210 -0.3069  0.0662 -0.5912
 3310SOL    HW213006   0.599   2.570   2.277  0.6780  1.1297 -0.6492
 3310SOL    HW313007   0.579   2.486   2.152 -1.2598 -1.4657  1.3042
 3310SOL    MW413008   0.631   2.522   2.211 -0.5413  0.2826 -0.1681
 3311SOL     OW13009   2.592   3.325   4.685 -0.1660  0.3103  0.5141
 3311SOL    HW213010   2.587   3.408   4.733 -0.0364  0.9118 -0.4853
 3311SOL    HW313011   2.674   3.331   4.636 -0.1737 -0.3996  0.4061
 3311SOL    MW413012   2.602   3.336   4.685  1.0041  0.2626  0.1975
 3312SOL     OW13013   3.165   2.460   1.706 -0.4488 -0.3241  0.2016
 3312SOL    HW213014   3.165   2.550   1.738  1.2093  0.9036 -2.8319
 3312SOL    HW313015   3.247   2.423   1.737 -0.3666 -0.2302  0.0978
 3312SOL    MW413016   3.176   2.467   1.714  0.5886  0.3079 -0.5576
 3313SOL     OW13017   0.940   4.807   0.912  0.2263  0.0431  0.1172
 3313SOL    HW213018   1.033   4.817   0.893  0.2059 -0.0873 -0.0592
 3313SOL    HW313019   0.896   4.846   0.836  0.1443 -0.9222 -0.3542
 3313SOL    MW413020   0.946   4.813   0.899  0.4850 -0.0288 -0.3700
 3314SOL     OW13021   2.976   0.225   5.234 -0.2350 -0.0328 -0.6781
 3314SOL    HW213022   3.018   0.192   5.313 -1.1994  0.3198  0.0043
 3314SOL    HW313023   3.043   0.277   5.190  0.2310 -0.0175  0.0464
 3314SOL    MW413024   2.990   0.227   5.238 -0.0964  0.1828 -0.4978
 3315SOL     OW13025   5.028   5.868   4.914 -0.3939 -0.3001 -0.1850
 3315SOL    HW213026   5.002   5.959   4.927  0.5955 -0.0533  0.1370
 3315SOL    HW313027   5.008   5.824   4.996  0.8289  0.0506  0.3221
 3315SOL    MW413028   5.022   5.874   4.926  0.4533  0.4698 -0.4097
 3316SOL     OW13029   0.672   6.097   4.329 -0.1828 -0.1695  0.1559
 3316SOL    HW213030   0.665   6.013   4.285 -0.5874 -0.5314  0.9030
 3316SOL    HW313031   0.697   6.158   4.259 -3.2226 -0.2293 -1.1641
 3316SOL    MW413032   0.674   6.094   4.314 -0.3805  1.0081  0.1333
 3317SOL     OW13033   4.063   3.146   5.720  0.0150  0.7304  0.1881
 3317SOL    HW213034   4.151   3.118   5.694 -0.1309 -0.5353  0.9656
 3317SOL    HW313035   4.078   3.210   5.790  0.3241  1.6151 -0.6553
 3317SOL    MW413036   4.077   3.151   5.726  0.8528 -0.1644 -0.5070
 3318SOL     OW13037   4.902   4.689   3.158  0.3593  0.2442  0.7471
 3318SOL    HW213038   4.862   4.770   3.127  1.0691 -0.0104 -0.9306
 3318SOL    HW313039   4.881   4.625   3.090  0.7828 -0.7043  1.4884
 3318SOL    MW413040   4.894   4.691   3.145 -0.1536  0.0658  0.3124
 3319SOL     OW13041   4.110   4.306   0.544  0.2600 -0.4943 -0.4518
 3319SOL    HW213042   4.083   4.215   0.536  0.5074 -0.4162 -4.2817
 3319SOL    HW313043   4.028   4.356   0.542  0.1905 -0.5914 -0.0132
 3319SOL    MW413044   4.096   4.301   0.542  0.3757 -0.5395 -0.0758
 3320SOL     OW13045   2.548   2.928   4.126 -0.8846 -0.0035  0.9862
 3320SOL    HW213046   2.477   2.921   4.061 -0.0715  0.6324 -0.0058
 3320SOL    HW313047   2.606   2.855   4.105 -1.1724 -0.4520  1.7220
 3320SOL    MW413048   2.546   2.918   4.114  0.7003 -0.3016  0.5654
 3321SOL     OW13049   2.717   2.096   5.590 -1.0945 -0.6027  0.1479
 3321SOL    HW213050   2.631   2.131   5.566 -1.3911 -1.5211 -0.1844
 3321SOL    HW313051   2.773   2.118   5.516 -1.3079 -0.9215 -0.1135
 3321SOL    MW413052   2.713   2.103   5.577 -0.1357  0.1237 -0.1480
 3322SOL     OW13053   2.842   4.436   4.730 -0.0520  0.2945  0.6777
 3322SOL    HW213054   2.778   4.406   4.665  1.3284 -0.7375 -0.2498
 3322SOL    HW313055   2.845   4.531   4.719  2.7184 -0.0115 -3.3752
 3322SOL    MW413056   2.834   4.444   4.720 -0.5692  0.1924  0.5533
 3323SOL     OW13057   4.691   5.184   1.691  0.0051  0.1391  0.3276
 3323SOL    HW213058   4.720   5.121   1.756 -0.5682  0.0981  0.5542
 3323SOL    HW313059   4.715   5.269   1.728 -0.7021  0.1410  0.8029
 3323SOL    MW413060   4.698   5.187   1.704  0.3443 -0.0569  0.4721
 3324SOL     OW13061   0.838   1.871   2.388  0.1387 -0.1793 -0.1674
 3324SOL    HW213062   0.783   1.794   2.398 -1.1712  0.6690 -0.4713
 3324SOL    HW313063   0.816   1.926   2.464 -1.0438  1.0901 -1.3697
 3324SOL    MW413064   0.827   1.868   2.400  0.1489  0.1877  0.7312
 3325SOL     OW13065   2.495   4.370   0.501 -0.5188 -0.1083  0.0308
 3325SOL    HW213066   2.545   4.337   0.576 -2.2955 -0.0322  1.3193
 3325SOL    HW313067   2.406   4.383   0.535 -0.5612  3.5641 -1.0366
 3325SOL    MW413068   2.490   4.367   0.515 -0.0965  0.1622 -0.5219
 3326SOL     OW13069   4.324   6.379   6.121  0.6272  0.2928 -0.0245
 3326SOL    HW213070   4.271   6.448   6.162 -1.0031 -1.6570  1.3354
 3326SOL    HW313071   4.302   6.384   6.028 -2.0699 -0.4640  0.4877
 3326SOL    MW413072   4.314   6.389   6.114  0.1011 -0.4107  0.6137
 3327SOL     OW13073   1.155   2.722   3.763  0.4292 -0.0481  0.7895
 3327SOL    HW213074   1.179   2.635   3.793  0.9503 -0.2334 -0.1127
 3327SOL    HW313075   1.174   2.780   3.836  0.1627 -0.6752  1.3619
 3327SOL    MW413076   1.160   2.718   3.776  0.0577  0.3461 -0.4187
 3328SOL     OW13077   0.679   5.708   3.575 -0.0022  0.1717 -0.4988
 3328SOL    HW213078   0.659   5.705   3.668  0.3259 -1.2818 -0.4477
 3328SOL    HW313079   0.764   5.751   3.570  0.8795 -1.4486  0.0626
 3328SOL    MW413080   0.688   5.713   3.587 -0.1611 -0.0998  0.7775
 3329SOL     OW13081   1.072   1.451   4.598 -0.8948 -0.3674  0.2707
 3329SOL    HW213082   1.041   1.373   4.644  1.5723 -0.9040  1.1915
 3329SOL    HW313083   1.159   1.467   4.635  0.2252  0.5921 -2.5762
 3329SOL    MW413084   1.079   1.443   4.609 -0.0755  0.5123  0.1760
 3330SOL     OW13085   2.056   1.144   6.354 -0.1043  0.0750  0.5563
 3330SOL    HW213086   2.038   1.079   6.422  0.1859 -0.5635  0.0356
 3330SOL    HW313087   2.089   1.093   6.280 -1.0410  0.6820 -0.3087
 3330SOL    MW413088   2.058   1.129   6.353  0.4860 -0.4694  0.1082
 3331SOL     OW13089   4.988   1.662   4.010 -0.3211 -0.1389  0.1698
 3331SOL    HW213090   5.081   1.644   3.994 -0.1884  1.1414 -0.6368
 3331SOL    HW313091   4.981   1.757   4.009 -1.4266 -0.1702  1.6510
 3331SOL    MW413092   4.999   1.672   4.008 -0.4408  0.5506 -0.2821
 3332SOL     OW13093   2.600   5.020   3.195 -0.3387  0.1157 -0.2210
 3332SOL    HW213094   2.639   5.107   3.185 -0.0074  0.0558  0.4766
 3332SOL    HW313095   2.558   5.023   3.281 -0.9788 -0.1670 -0.5205
 3332SOL    MW413096   2.599   5.032   3.205  0.8807  0.0467  0.0775
 3333SOL     OW13097   5.716   3.212   0.592 -0.1537  0.3140  0.2056
 3333SOL    HW213098   5.761   3.239   0.672  3.1242 -2.5803 -0.3998
 3333SOL    HW313099   5.739   3.279   0.528 -0.5801  1.2622  1.0256
 3333SOL    MW413100   5.725   3.224   0.594  0.1022  0.3732  0.1880
 3334SOL     OW13101   4.646   4.830   1.152  0.3436 -0.1710 -0.0754
 3334SOL    HW213102   4.675   4.833   1.061 -1.2239  0.0469 -0.5965
 3334SOL    HW313103   4.654   4.737   1.177  0.0048 -0.3734 -0.7072
 3334SOL    MW413104   4.651   4.818   1.144 -0.3059 -0.3785 -0.4579
 3335SOL     OW13105   2.468   2.381   0.393 -0.0507  0.4603 -0.1199
 3335SOL    HW213106   2.446   2.453   0.453 -0.5644 -0.7955  1.2827
 3335SOL    HW313107   2.518   2.320   0.447  0.2897 -0.2850 -1.2528
 3335SOL    MW413108   2.472   2.383   0.408  0.2370 -0.1540 -0.6288
 3336SOL     OW13109   1.220   6.073   6.128  0.7662 -0.2266 -0.7049
 3336SOL    HW213110   1.167   6.087   6.206  0.2077  1.5190 -1.3335
 3336SOL    HW313111   1.219   5.979   6.113  2.0687 -0.7949  2.1766
 3336SOL    MW413112   1.213   6.063   6.136 -0.2451  0.0428  0.1180
 3337SOL     OW13113   0.316   0.208   1.545  0.2912 -0.5123 -0.3004
 3337SOL    HW213114   0.252   0.252   1.489 -1.1295  0.0168  1.6414
 3337SOL    HW313115   0.283   0.118   1.552 -0.3746 -0.1886  0.8585
 3337SOL    MW413116   0.303   0.202   1.538 -0.3338  0.4319  0.3033
 3338SOL     OW13117   2.503   0.635   5.685  0.0002 -0.0035 -0.0134
 3338SOL    HW213118   2.426   0.580   5.670  0.8902 -0.8479 -1.7425
 3338SOL    HW313119   2.511   0.687   5.605  0.4965  0.9980  0.6706
 3338SOL    MW413120   2.494   0.635   5.672 -0.1632  0.2880 -0.1676
 3339SOL     OW13121   5.921   2.253   1.706  0.4921  0.0368  0.0718
 3339SOL    HW213122   5.901   2.259   1.800  1.3371 -1.7404  0.3956
 3339SOL    HW313123   6.015   2.266   1.700  0.8168 -2.0570 -0.2314
 3339SOL    MW413124   5.931   2.255   1.718 -0.0136 -0.1894 -0.1895
 3340SOL     OW13125   0.241   5.964   1.652  0.4190 -0.3654  0.2030
 3340SOL    HW213126   0.318   5.953   1.596  2.1702  0.0117  2.4204
 3340SOL    HW313127   0.267   5.927   1.736 -1.1662  1.4621  1.5724
 3340SOL    MW413128   0.255   5.958   1.656 -0.1043 -0.2494  0.2095
 3341SOL     OW13129   3.530   0.514   2.325 -0.3855 -0.0655 -0.2865
 3341SOL    HW213130   3.608   0.459   2.329 -1.6942 -2.0117  0.0577
 3341SOL    HW313131   3.539   0.573   2.399 -0.1976 -1.6950  1.0568
 3341SOL    MW413132   3.541   0.514   2.335 -0.7869  0.4342  0.0510
 3342SOL     OW13133   4.062   3.554   4.296 -0.5708 -0.3207 -0.2932
 3342SOL    HW213134   4.048   3.640   4.256 -0.3113  0.5850  1.4325
 3342SOL    HW313135   3.981   3.506   4.280 -0.8843  0.4009 -0.9173
 3342SOL    MW413136   4.049   3.559   4.289  0.0691  0.4061  0.5083
 3343SOL     OW13137   5.112   2.334   2.397  0.6659  0.3281  0.2611
 3343SOL    HW213138   5.130   2.390   2.472  1.2056 -0.4823  0.7579
 3343SOL    HW313139   5.049   2.269   2.430 -0.8917  1.3131 -0.6296
 3343SOL    MW413140   5.106   2.333   2.411  0.2830  0.1987 -0.0046
 3344SOL     OW13141   4.108   0.941   5.101  0.9345  0.0847  0.1798
 3344SOL    HW213142   4.089   1.034   5.094 -0.9877 -0.3415 -1.1685
 3344SOL    HW313143   4.131   0.914   5.012  0.8857 -0.8308  0.4289
 3344SOL    MW413144   4.108   0.949   5.088  1.3221 -0.4475 -0.4982
 3345SOL     OW13145   4.084   5.168   1.234 -0.2761  0.8281 -0.7790
 3345SOL    HW213146   4.047   5.252   1.261  1.5020  2.1650 -2.1986
 3345SOL    HW313147   4.169   5.164   1.279  0.4433  0.6765 -2.0930
 3345SOL    MW413148   4.091   5.179   1.243  0.8581 -0.5675  0.7482
 3346SOL     OW13149   6.007   3.595   6.288 -0.1994 -0.1855 -0.0776
 3346SOL    HW213150   6.061   3.649   6.345  0.6169  0.0135 -1.0175
 3346SOL    HW313151   5.924   3.643   6.280 -0.1286  0.0410  0.4976
 3346SOL    MW413152   6.003   3.608   6.295  0.2198  0.5326  0.5773
 3347SOL     OW13153   1.966   1.409   3.564 -0.4163  0.3599  0.3104
 3347SOL    HW213154   1.873   1.387   3.565 -0.6069  1.1048  0.0102
 3347SOL    HW313155   2.008   1.340   3.615 -1.1677  0.1703  0.6874
 3347SOL    MW413156   1.960   1.397   3.571 -0.2351 -0.4262 -0.5300
 3348SOL     OW13157   0.733   1.440   0.219 -0.0171 -0.1295  0.6822
 3348SOL    HW213158   0.659   1.396   0.177  2.0680 -2.0747 -1.2429
 3348SOL    HW313159   0.769   1.498   0.152  0.4259  0.5439  1.4731
 3348SOL    MW413160   0.728   1.442   0.205  0.3153 -0.1767  0.3095
 3349SOL     OW13161   0.389   2.552   6.314 -0.4829  0.1708 -0.0880
 3349SOL    HW213162   0.314   2.606   6.288 -0.5796  0.8123  1.4244
 3349SOL    HW313163   0.446   2.552   6.237 -1.4557  0.7119 -0.8309
 3349SOL    MW413164   0.387   2.559   6.301 -0.5263 -0.4221  0.0286
 3350SOL     OW13165   0.696   3.541   4.287 -0.1314  0.5620 -0.2471
 3350SOL    HW213166   0.759   3.510   4.351  0.7590  0.3768 -1.1815
 3350SOL    HW313167   0.633   3.470   4.278  0.5841 -0.0253 -0.6652
 3350SOL    MW413168   0.696   3.528   4.294 -0.0231 -0.1498 -0.8500
 3351SOL     OW13169   3.710   0.132   0.765 -0.5178 -0.6143 -0.7683
 3351SOL    HW213170   3.763   0.212   0.764  0.2480 -1.1113 -1.6975
 3351SOL    HW313171   3.729   0.093   0.850  1.4101 -1.2695 -1.4525
 3351SOL    MW413172   3.720   0.138   0.776  0.4765 -0.0487 -0.3392
 3352SOL     OW13173   1.889   0.220   4.850  0.6062 -0.2358 -0.4882
 3352SOL    HW213174   1.975   0.179   4.861  0.5427 -0.3396 -0.3700
 3352SOL    HW313175   1.826   0.150   4.870  0.4984  0.2686  1.0655
 3352SOL    MW413176   1.892   0.205   4.854 -0.3866 -0.1407 -0.1003
 3353SOL     OW13177   3.660   6.022   1.762 -0.2535  0.2088  0.4042
 3353SOL    HW213178   3.657   6.061   1.675  1.0953  0.0160  0.2456
 3353SOL    HW313179   3.715   5.944   1.752 -0.4799 -0.0911  1.3265
 3353SOL    MW413180   3.667   6.017   1.749  0.2154  0.4119 -0.0768
 3354SOL     OW13181   3.468   2.610   1.802  0.1375  0.1722 -0.4580
 3354SOL    HW213182   3.426   2.662   1.870 -1.6715 -2.7288  0.8173
 3354SOL    HW313183   3.559   2.604   1.829 -0.7048 -1.7083  2.3889
 3354SOL    MW413184   3.474   2.616   1.814  0.4890  0.3474  0.3900
 3355SOL     OW13185   6.098   5.070   5.274 -0.3921 -0.0017  0.0348
 3355SOL    HW213186   6.102   5.104   5.185 -0.6790  1.1626  0.4461
 3355SOL    HW313187   6.055   5.139   5.324  2.0277  0.5226  1.5982
 3355SOL    MW413188   6.093   5.084   5.269  0.6866 -0.5319 -0.2608
 3356SOL     OW13189   1.729   2.400   5.646  0.5921  0.1587  0.4125
 3356SOL    HW213190   1.742   2.412   5.552  0.7468  0.7341  0.5006
 3356SOL    HW313191   1.812   2.427   5.686 -0.3532  2.6560  0.8904
 3356SOL    MW413192   1.742   2.405   5.639 -0.2149 -0.1507 -0.1955
 3357SOL     OW13193   6.349   0.171   3.314 -0.0888  0.0941 -0.1100
 3357SOL    HW213194   6.418   0.113   3.280  0.9276  1.4633 -0.4852
 3357SOL    HW313195   6.394   0.226   3.378 -1.2472 -0.1600  0.9448
 3357SOL    MW413196   6.364   0.171   3.318 -0.2536 -0.1464 -0.3299
 3358SOL     OW13197   0.812   4.392   1.102  0.2618 -0.2113  0.1521
 3358SOL    HW213198   0.793   4.346   1.183  1.6054 -0.1624  0.5298
 3358SOL    HW313199   0.885   4.343   1.063  0.7165  0.7004 -0.1911
 3358SOL    MW413200   0.819   4.379   1.107  0.6153  0.0243 -1.0048
 3359SOL     OW13201   5.910   3.373   3.048 -0.0117 -0.0179 -0.3809
 3359SOL    HW213202   5.881   3.457   3.083 -0.6021  0.0245 -0.9387
 3359SOL    HW313203   5.847   3.309   3.083  0.6723 -0.2907  0.3660
 3359SOL    MW413204   5.898   3.375   3.057  0.1588  0.0867 -0.1682
 3360SOL     OW13205   3.591   0.111   3.599  0.7883 -0.5810  0.4369
 3360SOL    HW213206   3.646   0.181   3.634  0.6239  0.0136 -0.4577
 3360SOL    HW313207   3.580   0.133   3.507  1.2627 -2.1381 -0.0293
 3360SOL    MW413208   3.597   0.123   3.591 -0.1933  0.1297 -0.0423
 3361SOL     OW13209   3.748   4.114   3.494  0.7416 -0.3051  0.3011
 3361SOL    HW213210   3.703   4.042   3.537  0.0207 -0.8795 -1.3485
 3361SOL    HW313211   3.833   4.078   3.467  1.3160  0.1390  1.4580
 3361SOL    MW413212   3.753   4.100   3.496 -0.1315 -0.5480 -0.2830
 3362SOL     OW13213   4.780   5.172   2.534  0.0912 -0.1096  0.0826
 3362SOL    HW213214   4.723   5.200   2.606 -0.8234  0.3081 -0.7614
 3362SOL    HW313215   4.731   5.196   2.455  1.6844  0.7663 -0.6940
 3362SOL    MW413216   4.766   5.179   2.533 -0.0153  0.4392  0.2823
 3363SOL     OW13217   1.138   2.998   6.105 -0.0273  0.6065  0.2964
 3363SOL    HW213218   1.105   3.021   6.018  0.6655 -0.3260 -0.2321
 3363SOL    HW313219   1.222   3.044   6.112  0.3968 -0.1158  0.0526
 3363SOL    MW413220   1.145   3.007   6.094  0.0719  0.3663 -0.2230
 3364SOL     OW13221   2.487   2.640   3.672  0.3063  0.6033 -0.2186
 3364SOL    HW213222   2.520   2.728   3.654  0.4005  0.3152 -1.5826
 3364SOL    HW313223   2.502   2.592   3.591  0.3803 -0.7209  0.5541
 3364SOL    MW413224   2.493   2.646   3.659 -0.6481  0.2492 -0.8330
 3365SOL     OW13225   1.177   4.508   1.645 -0.3562  0.1178  0.6809
 3365SOL    HW213226   1.174   4.413   1.637  1.5176  0.1258 -0.5260
 3365SOL    HW313227   1.215   4.523   1.732  1.7772 -0.3036 -0.1341
 3365SOL    MW413228   1.181   4.497   1.656  0.1335 -0.2301  0.3099
 3366SOL     OW13229   4.383   3.144   0.497  0.2344  0.1176 -0.1973
 3366SOL    HW213230   4.352   3.115   0.583  1.0482 -1.2487 -0.3523
 3366SOL    HW313231   4.405   3.064   0.450  1.4428  0.9243 -1.0671
 3366SOL    MW413232   4.382   3.130   0.502 -0.0196  0.3718 -0.7321
 3367SOL     OW13233   1.220   5.835   5.432  0.1417 -0.1032  0.0926
 3367SOL    HW213234   1.272   5.770   5.385  1.1956 -0.6535  1.9423
 3367SOL    HW313235   1.250   5.919   5.396  0.6966 -0.5112 -0.4352
 3367SOL    MW413236   1.231   5.838   5.421 -0.0789 -0.0067  0.2810
 3368SOL     OW13237   1.092   0.488   0.170 -0.2374 -0.0638 -0.4551
 3368SOL    HW213238   1.069   0.402   0.204 -2.3509  0.0738 -1.3818
 3368SOL    HW313239   1.174   0.474   0.122  0.2037 -1.2304  0.5777
 3368SOL    MW413240   1.100   0.475   0.168  0.0471 -0.3981  0.0002
 3369SOL     OW13241   0.823   2.152   0.493 -0.7743  0.9101  0.4917
 3369SOL    HW213242   0.856   2.228   0.539 -2.6105  1.9934  0.1115
 3369SOL    HW313243   0.819   2.179   0.401 -2.3583  0.7404  0.4836
 3369SOL    MW413244   0.827   2.165   0.487  0.4836 -0.0292  0.5450
 3370SOL     OW13245   0.609   5.965   6.070  0.0181  0.2306  0.4625
 3370SOL    HW213246   0.687   5.926   6.032 -0.9800 -0.8464 -0.5745
 3370SOL    HW313247   0.556   5.890   6.098 -0.8228  0.9199  0.7697
 3370SOL    MW413248   0.612   5.950   6.069  0.4224  0.3514  0.1463
 3371SOL     OW13249   5.807   1.687   6.330  0.0440 -0.6396 -0.1392
 3371SOL    HW213250   5.774   1.732   6.408 -0.3486 -0.2313 -0.5317
 3371SOL    HW313251   5.901   1.680   6.344  0.0166 -0.2816  0.2293
 3371SOL    MW413252   5.815   1.692   6.342  0.0844  0.1656  0.5017
 3372SOL     OW13253   3.604   5.858   3.811 -0.4175 -0.4820 -0.1733
 3372SOL    HW213254   3.650   5.915   3.749  1.3828 -1.6724 -0.0157
 3372SOL    HW313255   3.603   5.908   3.893 -0.2894 -0.0187 -0.4512
 3372SOL    MW413256   3.610   5.872   3.814  0.1144 -0.4976 -0.3224
 3373SOL     OW13257   5.214   0.352   1.507  0.2597 -0.3305 -0.2552
 3373SOL    HW213258   5.188   0.260   1.520  2.1776 -0.8262  0.3367
 3373SOL    HW313259   5.143   0.389   1.454  0.0506 -2.4875 -1.6169
 3373SOL    MW413260   5.201   0.345   1.502  0.1223  0.3107  0.5027
 3374SOL     OW13261   1.164   1.855   2.177 -0.4612  0.0006 -0.2295
 3374SOL    HW213262   1.157   1.888   2.267 -0.3716 -0.2593 -0.1267
 3374SOL    HW313263   1.255   1.873   2.152 -1.2909  3.1232 -1.4648
 3374SOL    MW413264   1.175   1.862   2.186  0.5699 -0.1526  0.1273
 3375SOL     OW13265   2.030   4.437   2.033  0.2986 -0.1276  0.3647
 3375SOL    HW213266   2.027   4.501   1.963 -1.7049 -1.8554 -1.2719
 3375SOL    HW313267   1.938   4.415   2.050  0.8436 -3.8565 -0.5152
 3375SOL    MW413268   2.018   4.442   2.026  0.3380  0.2163 -0.1381
 3376SOL     OW13269   2.811   4.885   0.720 -0.5578  0.5530  0.7172
 3376SOL    HW213270   2.839   4.932   0.799  0.8612 -0.1466  0.6566
 3376SOL    HW313271   2.721   4.915   0.706 -0.2178  2.0981  1.5362
 3376SOL    MW413272   2.803   4.895   0.729  0.0683  0.0530  0.1344
 3377SOL     OW13273   5.266   1.059   4.611 -0.5017  0.7789  0.2332
 3377SOL    HW213274   5.180   1.060   4.654 -1.0063  1.4924 -0.7694
 3377SOL    HW313275   5.317   0.997   4.663 -2.0175 -0.6907  0.0780
 3377SOL    MW413276   5.261   1.051   4.624  0.0497  0.2511  0.7598
 3378SOL     OW13277   0.260   1.659   2.862  0.4740  0.1605 -0.2975
 3378SOL    HW213278   0.309   1.661   2.780  1.9927 -0.9952  0.5146
 3378SOL    HW313279   0.196   1.589   2.849  1.7382 -1.1182 -0.0239
 3378SOL    MW413280   0.258   1.650   2.850 -0.2817  0.0491  0.0724
 3379SOL     OW13281   5.396   5.012   0.668 -0.8000 -0.8316  0.2918
 3379SOL    HW213282   5.385   4.950   0.740  1.4058  2.7588  4.2076
 3379SOL    HW313283   5.479   4.987   0.627 -2.2344 -3.1114 -1.4629
 3379SOL    MW413284   5.406   5.000   0.672  0.0526  0.5796  0.1950
 3380SOL     OW13285   1.685   2.405   0.336  0.1542  0.1941  0.4890
 3380SOL    HW213286   1.747   2.333   0.331  1.0867  0.9106  1.3417
 3380SOL    HW313287   1.722   2.472   0.278 -0.2333  0.3238  0.3899
 3380SOL    MW413288   1.698   2.404   0.328 -0.4604 -0.0142 -0.1806
 3381SOL     OW13289   4.878   4.295   1.037 -0.1502 -0.0158  0.2824
 3381SOL    HW213290   4.917   4.381   1.021  1.6369 -0.9891 -0.9769
 3381SOL    HW313291   4.806   4.288   0.974  1.5703 -0.5325 -1.7442
 3381SOL    MW413292   4.874   4.305   1.027 -0.1725 -0.1163  0.0384
 3382SOL     OW13293   1.481   5.646   2.288  0.7537  0.6344 -0.4515
 3382SOL    HW213294   1.570   5.611   2.293  1.3435  2.2095  0.8002
 3382SOL    HW313295   1.469   5.695   2.369 -1.2150  0.5890 -0.6612
 3382SOL    MW413296   1.491   5.648   2.299 -0.0682  0.7962 -0.5353
 3383SOL     OW13297   1.183   2.262   4.458  0.0428 -0.6255  0.6376
 3383SOL    HW213298   1.249   2.328   4.478  0.1140 -0.8467  1.1523
 3383SOL    HW313299   1.145   2.289   4.375 -1.5194  1.3225  1.8896
 3383SOL    MW413300   1.187   2.274   4.450  0.5201  0.2392 -0.3721
 3384SOL     OW13301   4.592   0.844   1.037  0.2472 -0.1484 -0.1386
 3384SOL    HW213302   4.567   0.767   1.088  1.2575  0.8455  1.9763
 3384SOL    HW313303   4.682   0.827   1.011  0.3088  0.1054 -0.0936
 3384SOL    MW413304   4.600   0.832   1.041 -0.0704  0.2915 -0.1409
 3385SOL     OW13305   1.349   3.033   3.733 -0.1851 -0.0389  0.1888
 3385SOL    HW213306   1.411   2.970   3.771  0.7993  0.6272 -0.2889
 3385SOL    HW313307   1.313   2.987   3.657  0.3499 -0.1134 -0.0215
 3385SOL    MW413308   1.352   3.018   3.728 -0.3400 -0.1616  1.1567
 3386SOL     OW13309   0.544   3.258   0.304 -0.4919  0.0441  0.3537
 3386SOL    HW213310   0.484   3.231   0.234 -0.6088 -1.1931  0.9041
 3386SOL    HW313311   0.594   3.179   0.324 -0.4057  0.3970  1.6142
 3386SOL    MW413312   0.542   3.244   0.297  0.1990 -0.0473  0.6935
 3387SOL     OW13313   4.596   3.414   0.523 -0.6103  0.3496  0.7575
 3387SOL    HW213314   4.505   3.388   0.505  0.3538 -1.2595 -2.6528
 3387SOL    HW313315   4.635   3.337   0.564  0.1168 -0.5634 -1.4931
 3387SOL    MW413316   4.589   3.400   0.526 -0.0785 -0.5140  0.3832
 3388SOL     OW13317   4.760   2.269   3.425 -0.5290  0.1097  0.4827
 3388SOL    HW213318   4.767   2.220   3.507  1.0004  1.3810  1.1782
 3388SOL    HW313319   4.667   2.285   3.413 -0.8301 -0.7840  1.5532
 3388SOL    MW413320   4.749   2.265   3.434  0.4956 -0.0013 -0.1209
 3389SOL     OW13321   3.241   1.651   0.288 -0.1493 -0.6997  0.5608
 3389SOL    HW213322   3.152   1.616   0.291 -1.3023  1.8737 -0.4350
 3389SOL    HW313323   3.278   1.614   0.208 -1.6373  0.8914 -0.9384
 3389SOL    MW413324   3.234   1.641   0.278 -0.3093 -0.4847 -0.3797
 3390SOL     OW13325   0.127   1.831   3.954 -0.1503  0.3730 -0.1372
 3390SOL    HW213326   0.055   1.862   3.899 -0.3013 -1.7193 -1.2224
 3390SOL    HW313327   0.105   1.739   3.972  1.4481  0.1537  0.8607
 3390SOL    MW413328   0.115   1.823   3.949  0.6561 -0.4094 -0.0039
 3391SOL     OW13329   3.002   3.354   0.947  0.5901  0.2879 -0.3395
 3391SOL    HW213330   3.047   3.341   1.031  0.2776  0.3684 -0.1601
 3391SOL    HW313331   3.043   3.289   0.889 -1.4395 -2.1276  0.7355
 3391SOL    MW413332   3.014   3.344   0.950 -0.0927  0.4578  0.0069
 3392SOL     OW13333   2.345   5.389   1.111  0.0578 -0.4701 -0.7940
 3392SOL    HW213334   2.361   5.297   1.133 -1.5586 -0.5023  0.4024
 3392SOL    HW313335   2.382   5.438   1.185  0.1704 -0.1987 -1.0274
 3392SOL    MW413336   2.352   5.383   1.124 -0.4407 -0.0264  0.0195
 3393SOL     OW13337   1.096   0.982   5.165 -0.0307  0.0095 -0.0257
 3393SOL    HW213338   1.071   0.903   5.213  1.9006 -1.2778 -1.0324
 3393SOL    HW313339   1.147   1.033   5.228 -0.2948 -0.0867  0.2726
 3393SOL    MW413340   1.099   0.978   5.180 -0.5862 -0.7656 -0.0049
 3394SOL     OW13341   5.201   0.943   2.971  0.2333  0.2165 -0.5991
 3394SOL    HW213342   5.143   0.878   2.931  0.2231  0.9211 -1.7999
 3394SOL    HW313343   5.145   1.018   2.987 -0.0419 -0.4464  1.9548
 3394SOL    MW413344   5.186   0.944   2.968  0.2009 -0.0367 -0.4029
 3395SOL     OW13345   2.633   0.759   1.513 -0.4432 -0.2152 -0.6804
 3395SOL    HW213346   2.600   0.772   1.602 -2.0931  0.9968 -1.4217
 3395SOL    HW313347   2.729   0.759   1.523 -0.5832  0.3697  1.0224
 3395SOL    MW413348   2.642   0.761   1.526  0.2438  0.0263 -0.0524
 3396SOL     OW13349   0.151   1.821   2.470 -0.0598  0.2139 -0.4990
 3396SOL    HW213350   0.218   1.775   2.521  1.7246  2.0427 -1.0441
 3396SOL    HW313351   0.073   1.767   2.478  0.4924 -0.2854  3.0351
 3396SOL    MW413352   0.150   1.808   2.478 -0.3269 -0.0707  0.1042
 3397SOL     OW13353   2.589   0.255   5.009 -0.7955 -0.3334 -0.3943
 3397SOL    HW213354   2.592   0.291   4.921 -0.2417 -1.6718 -0.9595
 3397SOL    HW313355   2.589   0.160   4.995  0.0376 -0.5713  1.0612
 3397SOL    MW413356   2.589   0.247   4.996  0.1788  0.2227  0.5445
 3398SOL     OW13357   5.202   3.372   1.775 -0.1494 -0.0372  0.3163
 3398SOL    HW213358   5.146   3.309   1.730 -1.0545 -0.2306  1.6398
 3398SOL    HW313359   5.279   3.380   1.719 -1.3123 -0.0566 -1.3685
 3398SOL    MW413360   5.205   3.365   1.762 -0.3574 -0.1984 -0.8103
 3399SOL     OW13361   5.740   3.499   2.333  0.4900 -0.1405  0.1986
 3399SOL    HW213362   5.817   3.556   2.341  0.0451  0.3743  1.0696
 3399SOL    HW313363   5.711   3.486   2.424 -0.3970 -0.3879 -0.1111
 3399SOL    MW413364   5.747   3.505   2.346 -0.0683 -0.2580 -0.2047
 3400SOL     OW13365   6.404   3.370   5.041  0.6495  0.2939  0.8108
 3400SOL    HW213366   6.462   3.421   5.097 -0.2470  1.5506  0.6406
 3400SOL    HW313367   6.317   3.382   5.079  0.1106  0.6999 -0.4920
 3400SOL    MW413368   6.400   3.379   5.053 -0.3648  0.3244 -0.2116
 3401SOL     OW13369   2.266   0.155   4.377 -0.1048 -0.5260  0.0837
 3401SOL    HW213370   2.342   0.111   4.340 -0.3570 -1.4325  0.6301
 3401SOL    HW313371   2.225   0.199   4.302  0.2456 -1.0779 -0.4388
 3401SOL    MW413372   2.270   0.155   4.362 -0.2110  0.0645  0.0391
 3402SOL     OW13373   2.174   2.760   2.537 -0.1879 -0.0061  0.2251
 3402SOL    HW213374   2.258   2.799   2.514 -0.4115  1.1999  1.3010
 3402SOL    HW313375   2.191   2.666   2.543  1.6327  0.3859  2.4647
 3402SOL    MW413376   2.187   2.753   2.535  0.0548 -0.0403 -0.1074
 3403SOL     OW13377   3.168   1.304   3.328  0.2205  0.1162 -0.4574
 3403SOL    HW213378   3.159   1.392   3.365 -3.9033 -0.2961 -0.0268
 3403SOL    HW313379   3.118   1.248   3.388  0.7961 -2.1498 -1.9812
 3403SOL    MW413380   3.160   1.308   3.341  0.2861 -0.6638 -0.4981
 3404SOL     OW13381   4.410   3.836   2.522  0.2736  0.6779  0.1225
 3404SOL    HW213382   4.420   3.930   2.539  1.2706  0.2966  2.0174
 3404SOL    HW313383   4.495   3.808   2.489  1.5229 -0.2296  3.6280
 3404SOL    MW413384   4.422   3.845   2.520 -0.6157 -0.8549 -0.4372
 3405SOL     OW13385   3.149   4.441   5.975  0.4242  0.6591  0.2796
 3405SOL    HW213386   3.199   4.359   5.970  1.0053  0.9866  0.5764
 3405SOL    HW313387   3.069   4.418   6.022  1.0822  0.4894  1.3507
 3405SOL    MW413388   3.145   4.427   5.980 -0.0305 -0.4363  0.3898
 3406SOL     OW13389   0.056   4.461   5.235  0.8556 -0.0232 -0.3819
 3406SOL    HW213390   0.151   4.464   5.249  1.0823  0.4981 -1.8260
 3406SOL    HW313391   0.045   4.408   5.156 -0.1047 -0.5491  0.0924
 3406SOL    MW413392   0.067   4.455   5.227 -0.7700 -0.2476  0.4488
 3407SOL     OW13393   4.553   3.787   6.408  0.1063  0.0768 -0.1994
 3407SOL    HW213394   4.492   3.857   6.384 -1.2893 -1.1147 -0.2417
 3407SOL    HW313395   4.638   3.818   6.376 -0.4138  1.8487 -0.0034
 3407SOL    MW413396   4.556   3.801   6.401  0.1524  0.1206  0.0670
 3408SOL     OW13397   5.686   0.607   5.260 -0.1750 -0.0258 -0.4180
 3408SOL    HW213398   5.612   0.560   5.298 -0.0052  2.5778  3.7797
 3408SOL    HW313399   5.655   0.697   5.252  2.1411  0.9310  0.5313
 3408SOL    MW413400   5.672   0.613   5.264 -0.1726 -0.7279 -0.0435
 3409SOL     OW13401   0.314   4.917   1.362 -0.5558  0.0740 -0.2783
 3409SOL    HW213402   0.341   5.009   1.370 -1.4770  0.2577  1.0425
 3409SOL    HW313403   0.231   4.912   1.410  0.3702 -1.8286  1.2659
 3409SOL    MW413404   0.307   4.929   1.370 -0.0295 -0.1902  0.1062
 3410SOL     OW13405   3.170   4.964   5.411 -0.1177 -0.2563 -0.1731
 3410SOL    HW213406   3.075   4.965   5.420 -0.1769  2.1551 -0.3141
 3410SOL    HW313407   3.185   4.937   5.321 -0.6997 -0.3179 -0.2560
 3410SOL    MW413408   3.159   4.961   5.400 -0.0346 -0.1245  0.5802
 3411SOL     OW13409   1.376   3.551   5.713  0.0695 -0.0748 -0.9338
 3411SOL    HW213410   1.396   3.572   5.621  0.0535 -0.2017 -0.9664
 3411SOL    HW313411   1.461   3.527   5.751 -0.0632 -0.9275 -1.1542
 3411SOL    MW413412   1.390   3.550   5.706  0.1580  0.1426 -0.3763
 3412SOL     OW13413   2.696   2.917   0.934 -0.5964 -0.2039  0.4023
 3412SOL    HW213414   2.699   2.986   1.000  0.4921  0.5918 -0.4570
 3412SOL    HW313415   2.715   2.961   0.852 -0.3877 -1.4457 -0.2382
 3412SOL    MW413416   2.699   2.932   0.932 -0.2367  0.1787 -0.1669
 3413SOL     OW13417   4.399   4.465   2.893  0.3314  0.1565 -0.0158
 3413SOL    HW213418   4.357   4.502   2.971 -1.4055  0.8277 -1.2155
 3413SOL    HW313419   4.468   4.528   2.871 -0.7596  1.2636 -0.3958
 3413SOL    MW413420   4.403   4.478   2.901 -0.3796  0.3947  0.0054
 3414SOL     OW13421   2.712   1.744   6.284  0.3267 -0.6856 -0.0468
 3414SOL    HW213422   2.719   1.717   6.192 -0.3305 -2.8844  0.4982
 3414SOL    HW313423   2.657   1.822   6.282 -0.8950 -1.5378 -1.4141
 3414SOL    MW413424   2.706   1.751   6.272 -0.1152 -0.2933 -0.1732
 3415SOL     OW13425   5.178   1.785   2.507 -0.1832 -0.5056 -0.7222
 3415SOL    HW213426   5.266   1.814   2.533 -0.5360  1.3926 -1.5151
 3415SOL    HW313427   5.160   1.832   2.426 -0.3789 -3.8874 -2.7987
 3415SOL    MW413428   5.187   1.795   2.500  0.0843  0.1012  0.4491
 3416SOL     OW13429   4.678   3.740   4.536  0.0134  0.5980 -0.0831
 3416SOL    HW213430   4.703   3.724   4.627 -0.5221  0.8105  0.1026
 3416SOL    HW313431   4.743   3.692   4.484  0.7098  1.0295  0.3950
 3416SOL    MW413432   4.690   3.731   4.541 -0.3246  0.9913 -0.5228
 3417SOL     OW13433   4.022   0.446   3.246  0.4681 -0.3751  0.1344
 3417SOL    HW213434   3.952   0.492   3.292 -0.8992 -0.3607 -1.7886
 3417SOL    HW313435   3.988   0.357   3.234  0.5902 -0.2727 -1.1392
 3417SOL    MW413436   4.008   0.440   3.250 -0.2063 -0.1521 -0.1272
 3418SOL     OW13437   5.917   4.729   4.715 -0.4085  0.0647 -0.1961
 3418SOL    HW213438   5.940   4.804   4.769 -0.6376  0.7643 -1.0313
 3418SOL    HW313439   5.821   4.734   4.706 -0.4418 -0.4066 -0.1451
 3418SOL    MW413440   5.907   4.740   4.721 -0.3342  0.8247 -0.0133
 3419SOL     OW13441   2.498   0.681   0.283 -0.6393  0.3017 -0.0450
 3419SOL    HW213442   2.591   0.666   0.263 -0.4351  1.1047  0.2658
 3419SOL    HW313443   2.493   0.774   0.303 -1.6797  0.4542 -0.9413
 3419SOL    MW413444   2.510   0.691   0.283  0.2431 -0.5492 -0.0402
 3420SOL     OW13445   4.985   6.024   5.432 -0.4601 -0.9381 -0.0476
 3420SOL    HW213446   4.894   5.994   5.433 -0.6794 -0.4175 -1.9488
 3420SOL    HW313447   4.996   6.067   5.348  1.3425 -0.2860  0.4710
 3420SOL    MW413448   4.974   6.026   5.421  0.1525  0.0368  0.2851
 3421SOL     OW13449   4.147   0.875   3.840  0.3181  0.2402  0.5989
 3421SOL    HW213450   4.206   0.937   3.884 -0.0828  0.2326  1.1524
 3421SOL    HW313451   4.163   0.791   3.883  0.4731  0.0681  0.2102
 3421SOL    MW413452   4.157   0.872   3.851  0.4857 -0.7558 -0.5126
 3422SOL     OW13453   5.406   1.410   3.663 -0.2288 -0.0366 -0.5790
 3422SOL    HW213454   5.417   1.358   3.742 -0.0927 -0.3993 -0.8345
 3422SOL    HW313455   5.313   1.432   3.662 -0.7477 -2.0004 -1.5149
 3422SOL    MW413456   5.395   1.406   3.673 -0.0879 -0.7006  0.1912
 3423SOL     OW13457   5.297   5.235   3.303 -0.9004  0.2367  0.1821
 3423SOL    HW213458   5.206   5.245   3.277 -0.4900 -2.0031 -2.6131
 3423SOL    HW313459   5.314   5.141   3.296  1.7306  0.6279  0.1903
 3423SOL    MW413460   5.287   5.224   3.299  0.1433  0.0051  0.3354
 3424SOL     OW13461   6.369   5.556   1.763 -0.3140  0.0266 -0.1567
 3424SOL    HW213462   6.402   5.467   1.750 -0.7708 -0.0684 -0.6761
 3424SOL    HW313463   6.398   5.579   1.852  0.2622 -0.4358 -0.2186
 3424SOL    MW413464   6.377   5.547   1.773 -0.3943 -0.2221  0.4210
 3425SOL     OW13465   5.113   5.831   3.906  0.0778  0.3466 -0.2137
 3425SOL    HW213466   5.181   5.764   3.894  0.7317  0.8709  0.4672
 3425SOL    HW313467   5.032   5.782   3.915  0.8081 -0.5224  2.4887
 3425SOL    MW413468   5.111   5.816   3.906 -0.3168  0.4599  0.1230
 3426SOL     OW13469   0.266   2.327   5.546 -0.3495  0.0343  0.0414
 3426SOL    HW213470   0.261   2.413   5.588  1.1887  1.6761 -2.8463
 3426SOL    HW313471   0.339   2.284   5.591 -0.3037  0.7469  0.6781
 3426SOL    MW413472   0.275   2.333   5.558 -0.0749 -0.2224  0.2752
 3427SOL     OW13473   2.729   0.033   1.337  0.5581  0.2565 -0.5562
 3427SOL    HW213474   2.716   0.076   1.252 -0.2869  3.4809  1.0448
 3427SOL    HW313475   2.649   0.052   1.385  1.7835  0.1929  1.6052
 3427SOL    MW413476   2.717   0.041   1.332  0.7851 -0.5693  0.3615
 3428SOL     OW13477   3.182   4.619   1.281  0.3152  0.6479  0.0830
 3428SOL    HW213478   3.194   4.708   1.249 -0.7987  0.3088 -1.4160
 3428SOL    HW313479   3.159   4.568   1.203  2.0693 -1.2133  0.6965
 3428SOL    MW413480   3.180   4.624   1.267  0.7167  0.5113  0.4915
 3429SOL     OW13481   6.172   1.324   1.085 -0.2792 -0.0358  0.0764
 3429SOL    HW213482   6.204   1.371   1.162 -1.8442  1.4819 -0.1259
 3429SOL    HW313483   6.132   1.245   1.121  0.7872 -0.3613  0.6031
 3429SOL    MW413484   6.171   1.320   1.100 -0.2835  0.1063  0.3244
 3430SOL     OW13485   0.980   4.568   0.226  0.1801  0.1563  0.2138
 3430SOL    HW213486   1.000   4.632   0.157  0.3095  0.0873  0.1873
 3430SOL    HW313487   0.913   4.610   0.279 -0.8101 -0.2623 -0.6631
 3430SOL    MW413488   0.974   4.582   0.224 -0.1746 -0.0004  0.2046
 3431SOL     OW13489   2.284   1.881   1.965 -0.1713  0.4148 -0.7568
 3431SOL    HW213490   2.270   1.909   1.874 -1.0289  0.0438 -0.7462
 3431SOL    HW313491   2.332   1.799   1.958  0.2894  0.6864 -0.8513
 3431SOL    MW413492   2.288   1.874   1.952 -0.0274 -0.6484 -0.2414
 3432SOL     OW13493   4.109   3.869   5.587 -0.0355  0.1648  0.6820
 3432SOL    HW213494   4.184   3.810   5.580 -0.6405 -0.4626 -0.9294
 3432SOL    HW313495   4.135   3.932   5.655  1.0971 -1.2285  1.6064
 3432SOL    MW413496   4.122   3.870   5.595 -0.4660  0.7562 -0.1443
 3433SOL     OW13497   5.149   6.371   1.023  0.2483  0.2264  0.1533
 3433SOL    HW213498   5.131   6.464   1.039  1.5901  0.4327  0.6101
 3433SOL    HW313499   5.096   6.325   1.088 -0.1069  0.6843  0.1988
 3433SOL    MW413500   5.140   6.377   1.034 -0.4711 -0.5057  0.1489
 3434SOL     OW13501   3.204   4.176   4.115 -0.0456  0.1432 -0.3631
 3434SOL    HW213502   3.296   4.199   4.098 -0.4428 -0.2401 -3.9230
 3434SOL    HW313503   3.206   4.080   4.125 -0.1316 -0.0221 -1.7089
 3434SOL    MW413504   3.217   4.166   4.114 -0.2708 -0.5492 -0.1025
 3435SOL     OW13505   1.148   4.057   3.902 -0.8668 -0.4653  0.2056
 3435SOL    HW213506   1.197   4.008   3.836 -1.0632 -0.6723  0.2105
 3435SOL    HW313507   1.192   4.141   3.907 -0.7164 -0.5276 -0.0323
 3435SOL    MW413508   1.160   4.062   3.894  0.2071 -0.2349  0.2342
 3436SOL     OW13509   2.954   2.843   1.930 -0.2077 -0.4978 -0.1975
 3436SOL    HW213510   3.020   2.904   1.963  0.0667  0.2033 -1.9371
 3436SOL    HW313511   2.870   2.880   1.955  0.0088 -0.7625  0.9717
 3436SOL    MW413512   2.952   2.856   1.937 -0.1073 -0.1435  0.1259
 3437SOL     OW13513   4.806   5.408   6.317 -0.0265 -0.0722 -0.5994
 3437SOL    HW213514   4.734   5.362   6.275 -0.4763  0.3956 -0.3519
 3437SOL    HW313515   4.885   5.368   6.281 -0.4087 -0.7445 -0.7017
 3437SOL    MW413516   4.807   5.396   6.307 -0.5687  0.3430 -0.0172
 3438SOL     OW13517   3.280   3.085   3.247 -0.6240  0.0521 -0.0148
 3438SOL    HW213518   3.242   3.157   3.297 -0.3766 -0.9968  1.7815
 3438SOL    HW313519   3.369   3.113   3.227 -1.1832  1.0763 -1.1706
 3438SOL    MW413520   3.287   3.098   3.251 -0.3734  0.3813  0.4463
 3439SOL     OW13521   5.114   4.632   5.643 -0.1290  0.6602 -0.6869
 3439SOL    HW213522   5.144   4.709   5.691  0.3129 -0.1518  0.3910
 3439SOL    HW313523   5.024   4.618   5.675 -0.5299  1.2279 -1.5370
 3439SOL    MW413524   5.106   4.640   5.654 -0.1987  0.5232 -0.2972
 3440SOL     OW13525   5.446   0.864   4.741  0.0367 -0.3591 -0.2370
 3440SOL    HW213526   5.415   0.778   4.770 -0.6955 -0.3834 -1.0264
 3440SOL    HW313527   5.520   0.884   4.797  0.3901 -1.6365 -0.2211
 3440SOL    MW413528   5.451   0.855   4.752 -0.2585 -0.1490 -0.1302
 3441SOL     OW13529   0.628   6.138   1.491  0.1410 -0.3017  0.1283
 3441SOL    HW213530   0.571   6.212   1.511  0.7926  1.4433 -3.6102
 3441SOL    HW313531   0.707   6.154   1.543 -0.1721  1.0549  0.2219
 3441SOL    MW413532   0.631   6.150   1.500 -0.5826 -0.1854 -0.5436
 3442SOL     OW13533   0.468   2.115   4.114  0.1134  0.0436 -0.3272
 3442SOL    HW213534   0.392   2.126   4.057 -0.4260  0.6000  0.4741
 3442SOL    HW313535   0.431   2.080   4.195  0.6918  0.4477  0.1140
 3442SOL    MW413536   0.453   2.112   4.117 -0.5230  0.2040 -0.5231
 3443SOL     OW13537   3.653   2.507   1.330 -0.1427  0.1408  0.4409
 3443SOL    HW213538   3.749   2.503   1.336 -0.1209 -1.6966 -0.4113
 3443SOL    HW313539   3.632   2.453   1.254 -1.9638 -1.1049  1.7401
 3443SOL    MW413540   3.663   2.499   1.321 -0.1345  0.2072  0.3101
 3444SOL     OW13541   0.800   5.385   0.821  0.0982 -0.0712  0.0809
 3444SOL    HW213542   0.732   5.451   0.832  1.2057  0.7657  2.8364
 3444SOL    HW313543   0.764   5.306   0.863 -0.4433 -0.6969 -1.4738
 3444SOL    MW413544   0.786   5.383   0.828 -0.3342 -0.1732 -0.5416
 3445SOL     OW13545   0.408   6.236   1.682  0.2251 -0.0678  0.1210
 3445SOL    HW213546   0.343   6.283   1.629 -1.0639 -2.2417 -0.3917
 3445SOL    HW313547   0.447   6.303   1.738 -1.5483  1.5661 -0.4829
 3445SOL    MW413548   0.404   6.251   1.683 -0.1845 -0.1525  0.0934
 3446SOL     OW13549   3.767   1.907   5.415 -0.8213 -0.2732  0.3763
 3446SOL    HW213550   3.823   1.842   5.458 -3.5072 -2.5212  0.7324
 3446SOL    HW313551   3.767   1.982   5.475 -0.1687 -1.1929  1.5729
 3446SOL    MW413552   3.774   1.908   5.429  0.1528 -0.0430  0.2327
 3447SOL     OW13553   2.855   2.171   6.190 -0.2361 -0.3812 -0.0860
 3447SOL    HW213554   2.941   2.148   6.227  0.8201  2.0842 -0.7881
 3447SOL    HW313555   2.794   2.159   6.263  1.2285  0.8458  1.4277
 3447SOL    MW413556   2.859   2.166   6.204  0.5669 -0.0485  0.4006
 3448SOL     OW13557   0.847   0.979   3.924 -0.1060 -0.1405 -0.0029
 3448SOL    HW213558   0.820   0.969   3.833 -2.9728 -1.2486  0.8615
 3448SOL    HW313559   0.767   1.002   3.971  1.5761  1.9016  2.0643
 3448SOL    MW413560   0.833   0.980   3.918  0.0250 -0.0247  0.0199
 3449SOL     OW13561   5.462   2.390   4.695  0.1869  0.2223  0.9051
 3449SOL    HW213562   5.513   2.424   4.622  1.0543 -1.6502  0.5666
 3449SOL    HW313563   5.524   2.335   4.744 -1.0376 -0.6709  1.5223
 3449SOL    MW413564   5.477   2.387   4.692 -0.0814  0.1873  0.4563
 3450SOL     OW13565   2.772   3.662   4.227 -0.2968 -0.1029  0.1015
 3450SOL    HW213566   2.791   3.641   4.318 -0.4848  0.7317  0.3458
 3450SOL    HW313567   2.746   3.755   4.229  1.6242  0.5195 -1.0600
 3450SOL    MW413568   2.771   3.672   4.239  0.2534 -0.0328 -0.1888
 3451SOL     OW13569   2.187   6.217   0.233 -0.1769 -0.1463  0.1743
 3451SOL    HW213570   2.099   6.210   0.271 -0.1515 -0.0588  0.2488
 3451SOL    HW313571   2.175   6.270   0.155 -0.1208  0.2243  0.4130
 3451SOL    MW413572   2.174   6.223   0.228 -0.2193 -0.3884 -0.2468
 3452SOL     OW13573   3.640   1.743   5.662  0.1043 -0.0274  0.8264
 3452SOL    HW213574   3.691   1.692   5.598 -0.5346 -0.0337  0.3128
 3452SOL    HW313575   3.605   1.678   5.722  0.1619 -0.0921  0.7904
 3452SOL    MW413576   3.642   1.728   5.661  0.2067  0.0266  0.0721
 3453SOL     OW13577   5.036   0.524   0.489 -0.1401  0.4284 -0.3635
 3453SOL    HW213578   5.061   0.523   0.396 -1.5176  0.5733 -0.7540
 3453SOL    HW313579   4.955   0.474   0.493 -0.2786  0.7080  0.7182
 3453SOL    MW413580   5.029   0.518   0.477  0.5035  0.8333  0.2538
 3454SOL     OW13581   4.553   1.874   2.515 -0.3332 -0.5420 -0.1367
 3454SOL    HW213582   4.464   1.907   2.505 -0.4097 -1.0353 -1.3335
 3454SOL    HW313583   4.551   1.824   2.596 -1.2617 -0.8579 -0.3368
 3454SOL    MW413584   4.541   1.871   2.524  0.2604  0.2013 -0.0804
 3455SOL     OW13585   1.800   2.833   5.751  0.0383  0.2114  0.1628
 3455SOL    HW213586   1.737   2.762   5.737  0.4931 -0.2505  0.4015
 3455SOL    HW313587   1.828   2.821   5.842  0.8986  0.0579 -0.1187
 3455SOL    MW413588   1.795   2.822   5.761 -0.3841 -0.1409 -0.1056
 3456SOL     OW13589   5.261   3.293   0.999 -0.2677 -0.5259 -0.0202
 3456SOL    HW213590   5.228   3.204   1.012 -0.6989 -0.3538  0.0895
 3456SOL    HW313591   5.247   3.310   0.906 -0.3517 -0.5060 -0.0037
 3456SOL    MW413592   5.255   3.284   0.989 -0.3100  0.3080  0.1442
 3457SOL     OW13593   2.979   0.499   4.818  0.3558 -0.0872 -0.2877
 3457SOL    HW213594   2.953   0.407   4.828  1.5865 -0.4921 -0.6331
 3457SOL    HW313595   2.935   0.544   4.890  1.7617 -1.3985  1.4835
 3457SOL    MW413596   2.970   0.493   4.829  0.5777 -0.3213 -0.0632
 3458SOL     OW13597   4.058   3.807   4.158  0.0823  0.1933  0.1081
 3458SOL    HW213598   3.985   3.785   4.101  0.6570 -0.9255 -0.2246
 3458SOL    HW313599   4.018   3.856   4.230 -1.0921 -0.8559  0.2166
 3458SOL    MW413600   4.043   3.810   4.160 -0.0825  0.2853  0.1197
 3459SOL     OW13601   2.771   5.314   0.883  0.4077  0.5156  0.0841
 3459SOL    HW213602   2.679   5.296   0.902  1.0604 -2.5580  0.9604
 3459SOL    HW313603   2.811   5.329   0.969  1.3020 -1.7723  0.1338
 3459SOL    MW413604   2.764   5.314   0.897  0.0807 -0.0396  0.2410
 3460SOL     OW13605   2.319   5.401   0.043 -0.3012  0.4695 -0.0768
 3460SOL    HW213606   2.315   5.360   0.130 -1.0851 -1.6359 -1.0218
 3460SOL    HW313607   2.404   5.376   0.008 -0.3650  0.5010 -0.2577
 3460SOL    MW413608   2.330   5.392   0.050 -0.3301 -0.5019 -0.1516
 3461SOL     OW13609   0.037   6.376   5.080  0.2209  0.4715  0.1498
 3461SOL    HW213610   0.015   6.294   5.035 -1.8483  1.1017 -0.0934
 3461SOL    HW313611   0.068   6.433   5.011 -1.2692  0.8598 -0.2321
 3461SOL    MW413612   0.038   6.372   5.065  0.1846  0.2312  0.5985
 3462SOL     OW13613   1.321   0.426   2.150  0.5484  0.4498  0.1432
 3462SOL    HW213614   1.338   0.484   2.225  2.2506  1.3601 -0.8894
 3462SOL    HW313615   1.228   0.404   2.158  0.4115  1.4549  1.8663
 3462SOL    MW413616   1.311   0.431   2.161  0.1899 -0.1318 -0.1564
 3463SOL     OW13617   3.235   1.042   5.959 -0.2424  0.1470 -0.1813
 3463SOL    HW213618   3.185   1.117   5.992 -0.8656  0.1022 -0.9844
 3463SOL    HW313619   3.260   0.993   6.037 -1.0964  0.4094  0.2662
 3463SOL    MW413620   3.232   1.045   5.974  0.3294 -0.2637 -0.1188
 3464SOL     OW13621   5.568   2.072   1.438 -0.0415  0.1150  0.4688
 3464SOL    HW213622   5.494   2.012   1.450 -0.4164  0.3509 -0.6144
 3464SOL    HW313623   5.544   2.149   1.490 -1.6146  1.0885 -1.5714
 3464SOL    MW413624   5.555   2.074   1.447 -0.6140 -0.4824  0.1589
 3465SOL     OW13625   5.923   1.383   6.421 -0.1661 -0.5951  0.0021
 3465SOL    HW213626   5.965   1.457   6.465 -0.2488 -0.5865  0.0673
 3465SOL    HW313627   5.990   1.315   6.419 -0.0745 -0.5031 -0.0989
 3465SOL    MW413628   5.937   1.384   6.427  0.0075 -0.1128 -0.0459
 3466SOL     OW13629   4.565   1.480   1.626 -0.1864  0.0006  0.2277
 3466SOL    HW213630   4.642   1.521   1.586 -1.7592  1.8675 -1.0653
 3466SOL    HW313631   4.517   1.441   1.552  0.5113 -3.1048  1.2473
 3466SOL    MW413632   4.569   1.480   1.611 -0.4762 -1.2900  0.5631
 3467SOL     OW13633   0.275   3.929   1.219 -0.3994  0.1231  0.2999
 3467SOL    HW213634   0.301   3.837   1.208 -1.2801 -0.0283 -0.6138
 3467SOL    HW313635   0.249   3.935   1.312  0.2166 -0.3992  0.5120
 3467SOL    MW413636   0.275   3.917   1.230  0.1535  0.2074 -0.0098
 3468SOL     OW13637   2.963   3.838   4.425 -0.0543 -0.2215  0.8163
 3468SOL    HW213638   2.982   3.883   4.343 -1.5123 -0.7286  0.1798
 3468SOL    HW313639   3.009   3.890   4.491  2.7460 -0.8415 -0.4599
 3468SOL    MW413640   2.972   3.851   4.423  0.2236  0.3292 -0.5119
 3469SOL     OW13641   2.023   5.594   1.229 -0.1096 -0.4249  0.2678
 3469SOL    HW213642   2.020   5.568   1.321 -0.7403  1.3997  0.7995
 3469SOL    HW313643   1.938   5.569   1.194 -0.3101 -0.0531  0.4894
 3469SOL    MW413644   2.012   5.587   1.237  0.6421  0.2243  0.1699
 3470SOL     OW13645   1.972   2.286   1.620 -0.4062 -0.5321 -0.0199
 3470SOL    HW213646   2.024   2.349   1.571 -0.1442 -0.1653  0.7156
 3470SOL    HW313647   1.941   2.335   1.696 -2.3449 -0.5636 -0.7363
 3470SOL    MW413648   1.975   2.301   1.623  0.2229 -0.6036  0.2217
 3471SOL     OW13649   1.851   0.034   0.178 -0.6392 -0.3902  0.4552
 3471SOL    HW213650   1.833  -0.059   0.186 -0.4653 -0.5533 -0.7768
 3471SOL    HW313651   1.926   0.049   0.236  1.2566 -1.6623 -1.4928
 3471SOL    MW413652   1.859   0.024   0.187  0.3151  0.1635  0.2127
 3472SOL     OW13653   5.664   5.141   2.632  0.8371  0.1625 -0.6590
 3472SOL    HW213654   5.573   5.113   2.639  0.4156  1.6938  0.5981
 3472SOL    HW313655   5.659   5.236   2.621  2.2707  0.2286 -0.9066
 3472SOL    MW413656   5.651   5.149   2.632 -0.0058  0.3045  0.1184
 3473SOL     OW13657   6.026   3.972   3.091  0.5184 -0.0433  0.2170
 3473SOL    HW213658   5.932   3.953   3.081  0.1233  0.2345  2.7271
 3473SOL    HW313659   6.065   3.889   3.115  1.2596 -0.4954 -2.2411
 3473SOL    MW413660   6.018   3.959   3.093 -0.4683  0.2495 -0.4528
 3474SOL     OW13661   2.625   5.946   4.315  0.1200 -0.5086 -0.3575
 3474SOL    HW213662   2.671   5.990   4.386  0.6741 -2.1624  0.3438
 3474SOL    HW313663   2.627   5.853   4.338  0.4809 -1.1232 -2.6148
 3474SOL    MW413664   2.632   5.940   4.327 -0.4990  0.1481  0.4613
 3475SOL     OW13665   1.326   4.114   4.387  0.4747 -0.0492 -0.3383
 3475SOL    HW213666   1.285   4.061   4.318  0.6135  0.7161 -1.0224
 3475SOL    HW313667   1.382   4.052   4.433 -2.7983 -1.6618  1.9113
 3475SOL    MW413668   1.328   4.099   4.384 -0.2703  0.0683  0.2362
 3476SOL     OW13669   4.171   5.513   0.059  0.0639  0.0956  0.1534
 3476SOL    HW213670   4.111   5.543  -0.010 -0.2663  0.3418  0.5457
 3476SOL    HW313671   4.180   5.589   0.117  1.4898  0.3875 -0.3991
 3476SOL    MW413672   4.164   5.527   0.057 -0.2187 -0.3560 -0.2016
 3477SOL     OW13673   5.005   4.430   3.893  0.4749 -0.1684  0.2129
 3477SOL    HW213674   5.089   4.405   3.855  0.0599  1.3150 -1.8874
 3477SOL    HW313675   5.018   4.521   3.922 -0.2219 -0.1275  0.4293
 3477SOL    MW413676   5.018   4.439   3.892  0.0073  0.2082 -0.5505
 3478SOL     OW13677   2.375   2.404   5.922 -0.1045  0.4145 -0.2066
 3478SOL    HW213678   2.416   2.377   6.004 -0.1299  1.6199  0.2297
 3478SOL    HW313679   2.300   2.346   5.912  0.6799 -0.6402 -0.0932
 3478SOL    MW413680   2.370   2.393   5.931 -0.0386  0.1863  0.3312
 3479SOL     OW13681   3.413   0.199   5.492 -0.4815  0.1802  0.0639
 3479SOL    HW213682   3.477   0.139   5.452  1.0373  1.3565  0.6021
 3479SOL    HW313683   3.463   0.279   5.508 -2.2182  1.2976  0.1767
 3479SOL    MW413684   3.428   0.202   5.489  0.1021  0.1710  0.1431
 3480SOL     OW13685   1.011   4.307   3.749 -0.7412 -0.2818  0.5229
 3480SOL    HW213686   1.034   4.337   3.837  1.8136  0.3829 -0.2761
 3480SOL    HW313687   0.970   4.382   3.707 -0.3408 -0.0145  0.6034
 3480SOL    MW413688   1.009   4.321   3.755 -0.0222  0.1267  0.4734
 3481SOL     OW13689   3.878   0.951   1.812 -0.0729 -0.2587 -0.4751
 3481SOL    HW213690   3.818   0.895   1.860 -0.1172  0.5368  0.4124
 3481SOL    HW313691   3.872   1.036   1.854 -1.3504  0.9615 -2.8906
 3481SOL    MW413692   3.870   0.955   1.824 -0.0969 -0.1158 -0.5712
 3482SOL     OW13693   3.775   5.502   2.747  0.7954  0.0403 -0.0852
 3482SOL    HW213694   3.790   5.572   2.809 -2.4395  0.5539  0.2771
 3482SOL    HW313695   3.722   5.438   2.795  0.3877 -0.7763 -1.5563
 3482SOL    MW413696   3.770   5.503   2.761 -0.6850  0.0607 -0.4816
 3483SOL     OW13697   5.934   5.288   5.399  0.0694 -0.2626  0.3915
 3483SOL    HW213698   5.976   5.372   5.419 -0.7106  0.2911 -0.2222
 3483SOL    HW313699   5.878   5.307   5.324 -1.4006 -0.9364  1.2769
 3483SOL    MW413700   5.932   5.302   5.391 -0.2860 -0.4090  0.3847
 3484SOL     OW13701   3.833   0.084   4.128  0.2711  0.0153  0.2067
 3484SOL    HW213702   3.809   0.158   4.185  0.9226 -0.8778  1.7158
 3484SOL    HW313703   3.901   0.118   4.071  0.6808  0.5575  1.0008
 3484SOL    MW413704   3.839   0.098   4.128  0.3113 -0.2733 -0.1256
 3485SOL     OW13705   0.841   0.129   4.390  0.1654 -0.2062  0.3927
 3485SOL    HW213706   0.919   0.183   4.375 -0.5540  0.7237 -0.1183
 3485SOL    HW313707   0.790   0.139   4.309 -0.6055 -0.5877  0.8260
 3485SOL    MW413708   0.845   0.137   4.377 -0.3627  0.4966  0.0230
 3486SOL     OW13709   2.832   2.530   2.878  0.0744  0.2338  0.0651
 3486SOL    HW213710   2.769   2.490   2.817 -1.3224  1.0106  0.9335
 3486SOL    HW313711   2.894   2.576   2.821 -0.6150  0.1185 -0.8092
 3486SOL    MW413712   2.832   2.531   2.862 -0.2109  0.0916  0.6122
 3487SOL     OW13713   1.392   2.571   0.604 -0.2049 -0.0448 -0.2737
 3487SOL    HW213714   1.411   2.539   0.693  1.0429 -1.8730 -1.1432
 3487SOL    HW313715   1.341   2.502   0.563  1.7938 -0.6737 -1.9123
 3487SOL    MW413716   1.388   2.558   0.611 -0.3439  0.0849 -0.1983
 3488SOL     OW13717   2.028   2.128   3.375 -0.1056  0.1773 -0.0248
 3488SOL    HW213718   2.105   2.177   3.348  0.1244  1.2197  2.3449
 3488SOL    HW313719   1.966   2.195   3.405 -1.8841 -0.6478 -1.5643
 3488SOL    MW413720   2.030   2.143   3.375 -0.2136  0.6189 -0.1586
 3489SOL     OW13721   0.324   5.057   0.336  0.5947 -0.4965  0.0751
 3489SOL    HW213722   0.237   5.095   0.344 -0.2309 -1.9145 -1.5975
 3489SOL    HW313723   0.377   5.125   0.294  0.1304  0.1171  0.4721
 3489SOL    MW413724   0.320   5.071   0.331  0.0532  0.3461  0.5675
 3490SOL     OW13725   1.000   0.211   2.678  0.3682  0.4603  0.2025
 3490SOL    HW213726   1.094   0.229   2.671  0.6818 -0.9037  0.5850
 3490SOL    HW313727   0.963   0.292   2.713  1.6652  0.4680  1.7157
 3490SOL    MW413728   1.008   0.224   2.682  0.1437  0.2472  0.5517
 3491SOL     OW13729   0.228   0.865   1.109  0.1346 -0.2229 -0.1986
 3491SOL    HW213730   0.154   0.924   1.121  0.1739 -0.2833  0.4054
 3491SOL    HW313731   0.286   0.885   1.183  0.9418  0.1482 -0.9129
 3491SOL    MW413732   0.226   0.876   1.120 -0.4980  0.4914  0.6665
 3492SOL     OW13733   2.676   4.356   0.720 -0.2792  0.4812 -0.1817
 3492SOL    HW213734   2.756   4.409   0.712 -0.9633  1.6454  0.5323
 3492SOL    HW313735   2.708   4.269   0.746  0.7500  0.9590  0.2049
 3492SOL    MW413736   2.691   4.351   0.722 -0.0014 -0.4299 -0.1862
 3493SOL     OW13737   4.805   1.933   0.432 -0.0403  0.3175 -0.2691
 3493SOL    HW213738   4.718   1.971   0.419 -0.0220  0.4800  0.0702
 3493SOL    HW313739   4.796   1.842   0.402 -0.9165 -0.3192  1.7280
 3493SOL    MW413740   4.792   1.926   0.427 -0.7098 -0.4600  0.0751
 3494SOL     OW13741   4.204   1.767   3.071  0.0314  0.6524 -0.0490
 3494SOL    HW213742   4.129   1.722   3.110 -0.5052  1.2538 -0.3525
 3494SOL    HW313743   4.171   1.798   2.986  0.7722  0.5078 -0.3956
 3494SOL    MW413744   4.190   1.765   3.065  0.1673 -0.3513  0.7878
 3495SOL     OW13745   4.173   0.940   0.691 -0.2592  0.0677  0.6760
 3495SOL    HW213746   4.082   0.963   0.672 -0.4094  0.3896  1.7173
 3495SOL    HW313747   4.223   0.986   0.623 -0.8653 -0.1148  0.0916
 3495SOL    MW413748   4.168   0.949   0.679 -0.0048 -0.1939 -0.1162
 3496SOL     OW13749   0.275   1.034   5.760 -0.7205 -0.7536  0.4105
 3496SOL    HW213750   0.368   1.026   5.776 -0.0207 -0.1986 -2.6758
 3496SOL    HW313751   0.249   1.115   5.804  0.8644  0.4591 -0.7733
 3496SOL    MW413752   0.284   1.044   5.768 -0.0316  0.0157 -0.3356
 3497SOL     OW13753   1.914   4.628   3.310  0.0379  0.2481  0.1487
 3497SOL    HW213754   1.963   4.583   3.379 -0.7891 -2.9806 -1.1652
 3497SOL    HW313755   1.965   4.708   3.293  3.0532 -1.3128  1.0254
 3497SOL    MW413756   1.927   4.633   3.317 -0.2172  0.0983  0.0261
 3498SOL     OW13757   2.808   3.799   5.146 -0.3388 -0.2539  0.7833
 3498SOL    HW213758   2.901   3.793   5.166 -0.2480  0.5113  0.6355
 3498SOL    HW313759   2.785   3.890   5.165 -0.8355 -0.1813 -0.0857
 3498SOL    MW413760   2.817   3.810   5.151 -0.0051  0.2423 -0.1726
 3499SOL     OW13761   1.507   6.128   1.106  0.0373  0.4349 -0.1836
 3499SOL    HW213762   1.596   6.103   1.130 -1.0558 -0.1799  4.0470
 3499SOL    HW313763   1.458   6.046   1.106 -0.9071  0.9746 -0.6134
 3499SOL    MW413764   1.513   6.114   1.109 -0.0653 -0.3864  0.5271
 3500SOL     OW13765   6.221   0.612   2.898 -0.6080  0.3046 -0.2040
 3500SOL    HW213766   6.140   0.596   2.946 -0.4294 -0.3258 -0.1021
 3500SOL    HW313767   6.262   0.526   2.890 -1.2699  0.1455 -2.6724
 3500SOL    MW413768   6.216   0.598   2.904  0.8273  0.3095  0.3459
 3501SOL     OW13769   3.758   0.846   2.102 -0.0593 -0.7909 -0.4034
 3501SOL    HW213770   3.814   0.817   2.173 -0.9887 -1.8812 -0.0833
 3501SOL    HW313771   3.669   0.842   2.137 -0.4374 -0.1248 -1.2297
 3501SOL    MW413772   3.753   0.842   2.116 -0.1882  0.0515  0.3474
 3502SOL     OW13773   5.575   6.167   2.970  0.1432 -0.5070  0.1349
 3502SOL    HW213774   5.619   6.151   2.886 -1.0839 -1.2537 -0.3925
 3502SOL    HW313775   5.547   6.080   2.999  0.5021 -0.2454  1.2965
 3502SOL    MW413776   5.577   6.153   2.963 -0.0266  0.4075 -0.1995
 3503SOL     OW13777   4.941   6.076   3.027  0.3639 -0.4605  0.2633
 3503SOL    HW213778   4.871   6.096   3.089  0.3975  0.0875  0.1303
 3503SOL    HW313779   4.924   6.133   2.952  0.3255 -1.1230 -0.2299
 3503SOL    MW413780   4.930   6.086   3.025 -0.2819 -0.2519  0.5046
 3504SOL     OW13781   2.127   3.292   1.422 -0.5974  0.2736  0.0460
 3504SOL    HW213782   2.206   3.302   1.368 -0.7740  0.0891 -0.2526
 3504SOL    HW313783   2.159   3.274   1.510 -0.3085 -0.4042 -0.1923
 3504SOL    MW413784   2.141   3.291   1.426 -0.1038  0.7617  0.2760
 3505SOL     OW13785   1.359   0.201   3.982  0.3788 -0.2540 -0.0451
 3505SOL    HW213786   1.367   0.228   3.890  3.4688 -0.5537  0.0243
 3505SOL    HW313787   1.368   0.106   3.979 -0.4518 -0.3586  0.5281
 3505SOL    MW413788   1.362   0.192   3.969  0.1484  0.3744  0.3804
 3506SOL     OW13789   6.263   4.409   2.675 -0.2655 -0.2576  0.4336
 3506SOL    HW213790   6.314   4.335   2.644  2.7218  1.9034 -0.2788
 3506SOL    HW313791   6.290   4.421   2.766  0.8800  1.1061 -0.0470
 3506SOL    MW413792   6.273   4.401   2.683  0.4820  0.8397  0.3239
 3507SOL     OW13793   1.886   0.853   1.761  0.3139 -0.1342  0.3187
 3507SOL    HW213794   1.878   0.894   1.847 -1.1453  3.0378 -1.1531
 3507SOL    HW313795   1.980   0.841   1.749  0.6122  0.3149  1.9477
 3507SOL    MW413796   1.897   0.857   1.771  0.4718  0.0176 -0.4808
 3508SOL     OW13797   5.066   3.143   1.715 -0.0119 -0.3408  0.3756
 3508SOL    HW213798   5.069   3.084   1.640 -1.7475 -1.1832  0.9111
 3508SOL    HW313799   5.109   3.094   1.786 -1.1360 -0.8644  0.7243
 3508SOL    MW413800   5.072   3.129   1.715 -0.3720  0.0642 -0.2651
 3509SOL     OW13801   0.431   1.580   1.147  0.0587  0.0198 -0.0002
 3509SOL    HW213802   0.389   1.502   1.111 -0.6190  0.2069  0.3619
 3509SOL    HW313803   0.523   1.555   1.158 -0.1937 -0.8122  0.3393
 3509SOL    MW413804   0.438   1.566   1.144  0.3493  0.5684  0.4560
 3510SOL     OW13805   0.589   3.022   3.947 -0.5785 -0.0768  0.2043
 3510SOL    HW213806   0.548   3.008   4.033 -0.7511 -2.3098 -0.1795
 3510SOL    HW313807   0.598   2.934   3.911  0.1289  0.7724 -1.7944
 3510SOL    MW413808   0.585   3.008   3.954 -0.3846  0.1322  0.5781
 3511SOL     OW13809   2.234   4.807   2.540  0.5433 -0.2563 -0.3048
 3511SOL    HW213810   2.221   4.894   2.502  0.9244 -1.0346 -2.3714
 3511SOL    HW313811   2.330   4.797   2.542  0.5097 -1.5018 -2.3675
 3511SOL    MW413812   2.245   4.817   2.535 -0.5467 -0.1074 -0.1075
 3512SOL     OW13813   4.825   4.572   5.447 -0.0331 -0.1966  0.4586
 3512SOL    HW213814   4.775   4.539   5.522  0.0876 -1.4780 -0.0154
 3512SOL    HW313815   4.882   4.500   5.421 -0.4467  0.0341 -1.2121
 3512SOL    MW413816   4.826   4.558   5.454  0.0175  0.9438  0.2450
 3513SOL     OW13817   1.574   4.727   3.423  0.1083 -0.2158 -0.4282
 3513SOL    HW213818   1.634   4.663   3.462  1.8396  1.4645 -0.1578
 3513SOL    HW313819   1.564   4.795   3.490 -2.2797 -0.4866 -0.4156
 3513SOL    MW413820   1.581   4.728   3.437  0.0765  0.3395  0.3083
 3514SOL     OW13821   5.660   5.895   1.370  0.2076 -0.2473 -0.2215
 3514SOL    HW213822   5.653   5.865   1.279  0.5128 -0.6454 -0.1175
 3514SOL    HW313823   5.574   5.877   1.408 -0.6921  1.9549 -1.0114
 3514SOL    MW413824   5.648   5.889   1.363  0.2376 -0.1856 -0.5327
 3515SOL     OW13825   3.576   4.975   6.156  0.2628 -0.1405 -0.3483
 3515SOL    HW213826   3.517   4.905   6.184  1.1994 -1.1935 -0.9309
 3515SOL    HW313827   3.545   4.998   6.068 -0.3424  0.5274  0.0322
 3515SOL    MW413828   3.564   4.968   6.148  0.5330 -0.7040 -0.4479
 3516SOL     OW13829   6.206   3.920   6.229 -0.0368 -0.2759  0.3179
 3516SOL    HW213830   6.242   3.959   6.149  1.2237  0.9690  1.4347
 3516SOL    HW313831   6.268   3.851   6.251  2.2476  2.2335  2.5546
 3516SOL    MW413832   6.219   3.916   6.221 -0.5721  0.8800 -0.0116
 3517SOL     OW13833   5.440   5.189   5.832  0.0078 -0.3166  0.2420
 3517SOL    HW213834   5.515   5.134   5.852  0.1144  0.0642  0.9632
 3517SOL    HW313835   5.450   5.213   5.740  0.1254 -1.2291  0.0080
 3517SOL    MW413836   5.451   5.185   5.823 -0.2132  0.3124 -1.0137
 3518SOL     OW13837   1.706   2.404   4.557 -0.0693  0.0115  0.4381
 3518SOL    HW213838   1.736   2.333   4.500 -0.3598  1.0334 -1.0401
 3518SOL    HW313839   1.677   2.359   4.637  2.9171 -1.2402  0.9496
 3518SOL    MW413840   1.706   2.388   4.560  0.0560  0.1887 -0.3785
 3519SOL     OW13841   0.860   5.427   3.628  0.0622  0.4070 -0.2456
 3519SOL    HW213842   0.931   5.375   3.664 -0.4802 -0.4198 -0.3183
 3519SOL    HW313843   0.897   5.513   3.613  1.2086 -0.1723 -0.8311
 3519SOL    MW413844   0.874   5.431   3.631 -0.0911  0.4485 -0.2903
 3520SOL     OW13845   4.047   2.033   5.055  0.0930  0.1708  0.1653
 3520SOL    HW213846   4.078   1.949   5.089  0.4308 -0.5584 -1.7719
 3520SOL    HW313847   4.123   2.091   5.058 -0.3359  0.6918  2.2216
 3520SOL    MW413848   4.061   2.030   5.060  0.6429  0.0125 -0.0005
 3521SOL     OW13849   0.678   1.334   2.356 -0.1236  0.1240 -0.1308
 3521SOL    HW213850   0.736   1.350   2.431  0.9712  0.2096 -0.9762
 3521SOL    HW313851   0.737   1.306   2.286 -1.4509 -3.5943  0.0077
 3521SOL    MW413852   0.694   1.332   2.357 -0.0167  0.1390 -0.6306
 3522SOL     OW13853   5.263   6.111   2.444  0.4602  0.6327  0.1912
 3522SOL    HW213854   5.351   6.119   2.480 -0.3369 -1.6334  3.0037
 3522SOL    HW313855   5.247   6.016   2.441 -1.1980  0.8976 -2.2043
 3522SOL    MW413856   5.273   6.099   2.448 -0.0957  0.0612 -0.3595
 3523SOL     OW13857   1.433   5.999   2.242  0.2004  0.4508  0.6485
 3523SOL    HW213858   1.414   5.983   2.149  1.1359 -1.0901  0.6837
 3523SOL    HW313859   1.351   5.981   2.286  0.2570 -0.8281  0.2877
 3523SOL    MW413860   1.420   5.994   2.235 -0.3719  0.2389  0.4022
 3524SOL     OW13861   1.339   0.674   6.310 -0.3566 -0.1443  0.3876
 3524SOL    HW213862   1.244   0.692   6.307 -0.3334  0.1288  1.0971
 3524SOL    HW313863   1.368   0.716   6.391  0.3187 -0.5038  0.3324
 3524SOL    MW413864   1.330   0.682   6.320 -0.2987  0.2343 -0.4326
 3525SOL     OW13865   2.798   5.650   3.397 -0.3591 -0.1752 -0.1380
 3525SOL    HW213866   2.749   5.578   3.357 -0.7063 -0.5822  0.9885
 3525SOL    HW313867   2.858   5.608   3.458 -0.1270  0.4548  0.0816
 3525SOL    MW413868   2.800   5.635   3.399 -0.5627 -0.1567 -0.8564
 3526SOL     OW13869   0.669   1.678   6.267 -0.3297  0.0919 -0.6689
 3526SOL    HW213870   0.756   1.687   6.307 -1.0754  3.3583  0.4901
 3526SOL    HW313871   0.685   1.689   6.173  0.5583 -0.0774 -0.5523
 3526SOL    MW413872   0.683   1.680   6.260  0.2614  0.1834 -0.1291
 3527SOL     OW13873   3.527   0.804   3.874  0.1249 -0.4803  0.2395
 3527SOL    HW213874   3.451   0.785   3.819  0.3724  0.3919 -0.4429
 3527SOL    HW313875   3.601   0.766   3.826  0.4744  1.1174 -0.5844
 3527SOL    MW413876   3.526   0.796   3.860 -0.5986  0.6767  0.2721
 3528SOL     OW13877   3.306   0.326   1.251 -0.2849  0.1066 -0.6483
 3528SOL    HW213878   3.385   0.358   1.295  0.4121  0.5814 -2.1763
 3528SOL    HW313879   3.319   0.232   1.243  0.2167  0.2074 -1.0522
 3528SOL    MW413880   3.318   0.318   1.256 -0.7766 -0.3800  0.1989
 3529SOL     OW13881   5.124   5.390   4.684  0.3389 -0.1826  0.7245
 3529SOL    HW213882   5.084   5.312   4.721 -1.8806  0.5680  0.0821
 3529SOL    HW313883   5.117   5.456   4.754 -1.4959  0.5060 -0.0339
 3529SOL    MW413884   5.118   5.389   4.698 -0.0458  0.4452 -0.0704
 3530SOL     OW13885   3.838   4.367   0.487 -0.4049  0.0353 -0.0448
 3530SOL    HW213886   3.822   4.458   0.512 -2.5686  0.2851 -1.9914
 3530SOL    HW313887   3.753   4.325   0.499  0.4415 -1.6303  0.3096
 3530SOL    MW413888   3.825   4.374   0.492 -0.0361 -0.0728 -0.3162
 3531SOL     OW13889   3.648   6.188   0.867 -0.4677  0.4379 -0.2163
 3531SOL    HW213890   3.704   6.141   0.930  0.3190 -0.3186 -1.4388
 3531SOL    HW313891   3.653   6.279   0.895 -0.9768  0.0027  1.4264
 3531SOL    MW413892   3.656   6.193   0.879  0.1814  0.1089 -0.4428
 3532SOL     OW13893   2.420   0.080   0.663  0.1293  0.4467  0.9726
 3532SOL    HW213894   2.507   0.079   0.625 -0.4630 -0.2059 -0.4279
 3532SOL    HW313895   2.374   0.150   0.616 -0.6987 -0.5460  0.2653
 3532SOL    MW413896   2.425   0.089   0.652  0.3452  0.3224 -1.2396
 3533SOL     OW13897   1.874   4.297   3.419 -0.3387  0.2963 -0.6897
 3533SOL    HW213898   1.844   4.296   3.328 -0.2082 -0.9169 -0.7402
 3533SOL    HW313899   1.940   4.366   3.422 -0.5279  0.5213 -1.4490
 3533SOL    MW413900   1.879   4.306   3.408 -0.2032  0.1317  0.1232
 3534SOL     OW13901   2.860   4.933   5.815 -0.0167  0.0360  0.4095
 3534SOL    HW213902   2.787   4.873   5.823  0.4813 -0.7070 -0.4605
 3534SOL    HW313903   2.860   4.983   5.897 -2.0142  0.6630  0.0690
 3534SOL    MW413904   2.850   4.932   5.826 -0.0953 -0.1674  0.3791
 3535SOL     OW13905   2.792   4.249   1.980  0.3899 -0.6909 -0.1656
 3535SOL    HW213906   2.740   4.310   1.927 -0.5108 -1.0968  0.2472
 3535SOL    HW313907   2.776   4.163   1.941  0.1736 -0.9152  0.4172
 3535SOL    MW413908   2.783   4.246   1.968 -0.3709  0.0695  0.2130
 3536SOL     OW13909   6.179   1.881   4.285  0.1666 -0.0352 -0.4431
 3536SOL    HW213910   6.225   1.807   4.325 -0.0129  1.1933  2.2377
 3536SOL    HW313911   6.090   1.875   4.320  0.1720  1.4657 -0.1291
 3536SOL    MW413912   6.173   1.870   4.295 -0.4445 -0.3039  0.6119
 3537SOL     OW13913   3.464   4.764   2.776 -0.0908 -0.4261 -0.3015
 3537SOL    HW213914   3.420   4.719   2.848  0.6350  0.0089  0.4290
 3537SOL    HW313915   3.393   4.802   2.724 -0.6578 -1.4460 -0.2946
 3537SOL    MW413916   3.449   4.763   2.778 -0.0138 -0.3833  0.2248
 3538SOL     OW13917   5.603   3.455   5.068 -0.1325 -0.0095 -0.0088
 3538SOL    HW213918   5.564   3.376   5.107  0.6159 -1.3500 -1.8416
 3538SOL    HW313919   5.696   3.450   5.091 -0.3077  1.1872  1.1282
 3538SOL    MW413920   5.610   3.444   5.076  0.3254 -0.6332 -0.5257
 3539SOL     OW13921   2.762   3.045   1.523  0.2530  0.1684  0.1781
 3539SOL    HW213922   2.774   3.139   1.528  1.4532  0.4029 -3.5838
 3539SOL    HW313923   2.849   3.009   1.541  0.5470  0.0582 -1.3113
 3539SOL    MW413924   2.775   3.052   1.526 -0.1027  0.4410 -0.6934
 3540SOL     OW13925   6.360   3.264   2.071  0.5551  0.1167 -0.4326
 3540SOL    HW213926   6.294   3.207   2.109 -2.5348  2.5688 -1.7108
 3540SOL    HW313927   6.379   3.224   1.986 -0.6136  0.2757 -0.7861
 3540SOL    MW413928   6.354   3.251   2.065 -0.2834 -0.2334 -0.7284
 3541SOL     OW13929   4.758   4.941   5.161  0.2070 -0.5190  0.1172
 3541SOL    HW213930   4.678   4.890   5.146 -0.3007 -0.3042  1.9232
 3541SOL    HW313931   4.829   4.877   5.153 -0.3223 -1.2231  0.9169
 3541SOL    MW413932   4.757   4.926   5.158  0.2935  0.0749  0.4171
 3542SOL     OW13933   1.364   3.764   2.582 -0.0939 -0.0988 -0.1215
 3542SOL    HW213934   1.457   3.761   2.561 -0.1058 -0.3181 -0.1441
 3542SOL    HW313935   1.326   3.691   2.533 -0.1369 -0.5684  0.6034
 3542SOL    MW413936   1.371   3.754   2.573 -0.0639  0.2754 -0.2165
 3543SOL     OW13937   1.456   5.390   5.587  0.3731 -0.8913 -0.3536
 3543SOL    HW213938   1.389   5.322   5.584 -0.1840 -0.3748  0.1053
 3543SOL    HW313939   1.427   5.450   5.656  0.9141 -0.2539 -0.6637
 3543SOL    MW413940   1.444   5.389   5.596 -0.0460  0.1435  0.3906
 3544SOL     OW13941   6.315   0.317   0.171  0.4745  0.0656 -0.1186
 3544SOL    HW213942   6.287   0.370   0.245  2.1537  0.7974  0.0132
 3544SOL    HW313943   6.313   0.377   0.096  1.1143 -0.0341 -0.2152
 3544SOL    MW413944   6.311   0.332   0.171  0.3896  0.4125 -0.5190
 3545SOL     OW13945   0.589   4.787   6.369 -0.4176 -0.2802 -0.1637
 3545SOL    HW213946   0.524   4.717   6.364 -0.8607  0.2053 -1.4712
 3545SOL    HW313947   0.644   4.774   6.292 -1.2590  1.5126 -1.1347
 3545SOL    MW413948   0.588   4.776   6.358  0.3716 -0.2109  0.2554
 3546SOL     OW13949   6.045   5.296   0.593 -0.0464 -0.3601 -0.1938
 3546SOL    HW213950   6.027   5.375   0.543  0.3099 -0.1506  0.0117
 3546SOL    HW313951   6.082   5.326   0.675  0.3273 -0.7466 -0.2145
 3546SOL    MW413952   6.047   5.310   0.597 -0.4147 -0.3415  0.1246
 3547SOL     OW13953   6.249   4.562   3.378  0.0772 -0.1876 -0.0334
 3547SOL    HW213954   6.276   4.491   3.320 -0.0490 -0.8721  0.7283
 3547SOL    HW313955   6.308   4.555   3.453 -0.2580  0.2111  0.2694
 3547SOL    MW413956   6.261   4.552   3.380 -0.1421 -0.2688  0.1598
 3548SOL     OW13957   2.626   1.275   0.957  0.4560 -0.7007 -0.1912
 3548SOL    HW213958   2.592   1.361   0.982  1.0195 -0.6919  0.5861
 3548SOL    HW313959   2.614   1.271   0.862 -0.8129 -0.3152 -0.0639
 3548SOL    MW413960   2.620   1.286   0.948  0.3350 -0.2417  0.8206
 3549SOL     OW13961   1.704   3.387   5.167  0.2009  0.2577  0.0514
 3549SOL    HW213962   1.632   3.324   5.171  0.0950  0.3547 -0.2501
 3549SOL    HW313963   1.728   3.390   5.074  0.4118  0.4280  0.1097
 3549SOL    MW413964   1.697   3.379   5.155 -0.4593 -0.2777  0.2978
 3550SOL     OW13965   6.211   2.449   2.010  0.4432 -0.5214 -0.0394
 3550SOL    HW213966   6.285   2.440   1.950  0.4744 -0.3799 -0.0243
 3550SOL    HW313967   6.223   2.379   2.074  0.6476 -0.4122  0.0471
 3550SOL    MW413968   6.223   2.439   2.011  0.5430  0.4275 -0.4505
 3551SOL     OW13969   0.016   6.171   2.609 -0.3529 -0.8937  0.0733
 3551SOL    HW213970  -0.031   6.099   2.567 -1.1894 -0.2709 -0.0977
 3551SOL    HW313971   0.094   6.131   2.647 -0.6843 -1.8393 -0.2242
 3551SOL    MW413972   0.020   6.156   2.608 -0.2777  0.1992 -0.1938
 3552SOL     OW13973   2.235   0.040   2.652 -0.2353 -0.4966 -0.2127
 3552SOL    HW213974   2.151   0.032   2.697 -1.4898 -0.9667 -2.4677
 3552SOL    HW313975   2.300   0.034   2.721 -2.0379 -0.3683  1.5934
 3552SOL    MW413976   2.232   0.038   2.667 -0.1397  0.6122 -0.8238
 3553SOL     OW13977   5.123   1.574   2.691 -0.0604  0.2640  0.0688
 3553SOL    HW213978   5.190   1.507   2.675  1.0829  1.0522  1.3037
 3553SOL    HW313979   5.140   1.641   2.625  0.2820  0.3787  0.2669
 3553SOL    MW413980   5.134   1.574   2.680 -0.2305  0.1180 -0.1508
 3554SOL     OW13981   3.398   0.307   0.040  0.6761  0.0610 -0.1938
 3554SOL    HW213982   3.421   0.215   0.033  1.5983  0.1973  0.9031
 3554SOL    HW313983   3.303   0.308   0.051  0.6688 -0.7440 -0.1779
 3554SOL    MW413984   3.388   0.295   0.040  0.2681  0.4157  0.0541
 3555SOL     OW13985   3.875   1.936   2.970  0.6651  0.4488 -0.0508
 3555SOL    HW213986   3.894   1.940   3.064 -0.1532  0.1092  0.1438
 3555SOL    HW313987   3.960   1.921   2.929  0.6174 -4.0251  0.9846
 3555SOL    MW413988   3.889   1.935   2.977  0.3779 -0.0022 -0.2495
 3556SOL     OW13989   1.053   2.539   2.217 -0.2351 -0.0154  0.1348
 3556SOL    HW213990   0.979   2.491   2.253 -1.0492  1.9865  1.2784
 3556SOL    HW313991   1.096   2.476   2.159 -0.4130 -2.5463  2.5430
 3556SOL    MW413992   1.049   2.524   2.214 -0.0753 -0.4806 -0.1847
 3557SOL     OW13993   4.626   5.258   2.799 -0.4316  0.1683  0.1757
 3557SOL    HW213994   4.640   5.252   2.894  1.2521  0.9718  0.0117
 3557SOL    HW313995   4.657   5.345   2.776 -0.7798 -0.0355 -1.1374
 3557SOL    MW413996   4.632   5.269   2.809 -0.2007 -0.4174 -0.2518
 3558SOL     OW13997   3.472   4.666   4.756 -0.0782 -0.3444 -0.1809
 3558SOL    HW213998   3.470   4.575   4.787 -2.5249 -0.9458 -1.8561
 3558SOL    HW313999   3.565   4.690   4.761  0.6848 -2.9895  0.1389
 3558SOL    MW414000   3.484   4.657   4.761 -0.2825  0.3933  0.1781
 3559SOL     OW14001   2.371   3.862   1.594 -0.5063 -0.3165 -0.0182
 3559SOL    HW214002   2.435   3.933   1.603 -0.1829 -0.5497 -0.4498
 3559SOL    HW314003   2.349   3.862   1.501 -2.8290  1.2186  0.4471
 3559SOL    MW414004   2.377   3.872   1.583  1.1336 -0.7196  0.3847
 3560SOL     OW14005   5.225   5.113   1.010 -0.3672  0.2534 -0.6191
 3560SOL    HW214006   5.197   5.121   0.919 -1.4381 -0.0321 -0.3301
 3560SOL    HW314007   5.144   5.100   1.059  0.1963  0.3796  0.3772
 3560SOL    MW414008   5.210   5.112   1.004 -0.2306  0.2417  0.4167
 3561SOL     OW14009   2.592   6.224   0.756  0.0494  0.1850  0.2261
 3561SOL    HW214010   2.531   6.297   0.765 -0.4100 -0.3476  1.9720
 3561SOL    HW314011   2.608   6.196   0.846  0.8640 -1.3326 -0.3561
 3561SOL    MW414012   2.586   6.230   0.769 -0.0176  0.1643  0.1126
 3562SOL     OW14013   0.937   5.872   3.860 -0.5425 -0.0211  0.5199
 3562SOL    HW214014   0.856   5.823   3.849 -0.3298 -0.7747  1.9506
 3562SOL    HW314015   1.006   5.806   3.853 -0.1515  0.3494  0.8278
 3562SOL    MW414016   0.935   5.857   3.858 -0.4089  0.1888 -0.4509
 3563SOL     OW14017   2.775   1.087   4.596 -0.0815 -0.2679 -0.3583
 3563SOL    HW214018   2.688   1.098   4.559  0.7845  1.2939 -2.1691
 3563SOL    HW314019   2.784   1.160   4.658  0.2594  0.1739 -0.9154
 3563SOL    MW414020   2.765   1.098   4.599 -0.3302 -0.2884  0.2964
 3564SOL     OW14021   0.006   6.278   2.240 -0.0029  0.0169  0.2321
 3564SOL    HW214022  -0.025   6.344   2.301 -0.6085  0.4648 -0.5415
 3564SOL    HW314023   0.080   6.237   2.284 -0.7707 -0.0460  1.4884
 3564SOL    MW414024   0.012   6.281   2.254 -0.3451  0.2716  0.0366
 3565SOL     OW14025   1.639   0.552   4.991 -0.1418  0.0982  0.2739
 3565SOL    HW214026   1.703   0.543   4.920  0.3433  2.1076  0.4069
 3565SOL    HW314027   1.634   0.465   5.029  3.0089 -0.0218  0.6702
 3565SOL    MW414028   1.647   0.539   4.986  0.2505 -0.4296 -0.2045
 3566SOL     OW14029   2.806   5.329   6.219 -0.0634 -0.1062  0.7646
 3566SOL    HW214030   2.899   5.340   6.237 -0.1290  1.0631  0.5101
 3566SOL    HW314031   2.799   5.243   6.177  0.7380 -0.6829  1.7746
 3566SOL    MW414032   2.817   5.319   6.216  0.4021 -0.0529 -0.1110
 3567SOL     OW14033   4.449   1.685   3.673 -0.4386 -0.1821 -0.7996
 3567SOL    HW214034   4.468   1.711   3.583  0.0915  0.9198 -0.3810
 3567SOL    HW314035   4.365   1.726   3.694 -0.6818 -0.6382 -0.8649
 3567SOL    MW414036   4.441   1.694   3.664 -0.7288 -0.4933 -0.2382
 3568SOL     OW14037   6.020   5.275   1.208  0.2245 -0.5009 -0.1187
 3568SOL    HW214038   5.953   5.288   1.275 -1.7016 -1.8403 -1.6660
 3568SOL    HW314039   5.971   5.265   1.126  2.4062 -0.3117 -1.5415
 3568SOL    MW414040   6.005   5.276   1.206  0.0912  0.1747  0.4977
 3569SOL     OW14041   0.865   1.316   0.427  0.0938  0.0465  0.1826
 3569SOL    HW214042   0.893   1.232   0.390  0.5774  1.3319 -2.6387
 3569SOL    HW314043   0.827   1.363   0.353 -2.0881  1.5640  2.1256
 3569SOL    MW414044   0.864   1.311   0.412 -0.4838  0.3383  0.2031
 3570SOL     OW14045   3.986   2.687   4.365 -0.8255 -0.2008  0.3071
 3570SOL    HW214046   3.932   2.612   4.390  0.5818 -1.0351  0.9813
 3570SOL    HW314047   4.001   2.734   4.447 -0.4892 -0.0196  0.1457
 3570SOL    MW414048   3.981   2.683   4.379  0.2918  0.7279 -0.4256
 3571SOL     OW14049   0.682   3.845   4.611 -0.0563  0.3705  0.1342
 3571SOL    HW214050   0.772   3.817   4.593  0.3206  1.2593  0.5719
 3571SOL    HW314051   0.631   3.807   4.539  0.6284 -0.3180 -0.0094
 3571SOL    MW414052   0.688   3.836   4.599 -0.1015 -0.4887  0.1584
 3572SOL     OW14053   0.039   1.531   5.851 -0.4751  0.6674  0.5586
 3572SOL    HW214054  -0.021   1.564   5.917 -1.5119 -0.5098  0.2518
 3572SOL    HW314055  -0.009   1.459   5.809  1.1987 -0.4062  0.3873
 3572SOL    MW414056   0.025   1.525   5.854 -0.1407  0.4745  0.1086
 3573SOL     OW14057   2.780   4.963   5.443 -0.5930  0.3685 -0.2200
 3573SOL    HW214058   2.826   5.030   5.495 -0.8368  0.5277 -0.2085
 3573SOL    HW314059   2.815   4.880   5.475  0.5887  0.5118 -1.0412
 3573SOL    MW414060   2.791   4.961   5.454  0.1914  0.0507 -0.6185
 3574SOL     OW14061   4.152   2.706   5.565  0.1848 -0.3617  0.1839
 3574SOL    HW214062   4.080   2.657   5.603 -0.4743 -0.7133 -1.4324
 3574SOL    HW314063   4.199   2.642   5.512  0.1943  0.4133 -0.7726
 3574SOL    MW414064   4.149   2.691   5.563 -0.3421 -0.2377 -0.2044
 3575SOL     OW14065   1.369   4.331   0.042 -0.2631  0.5495 -0.3207
 3575SOL    HW214066   1.333   4.370  -0.037  0.1534  1.0347 -0.2806
 3575SOL    HW314067   1.340   4.390   0.112 -1.6596 -0.5346  0.0573
 3575SOL    MW414068   1.361   4.344   0.041  0.7508  0.3335 -0.1812
 3576SOL     OW14069   2.315   0.225   2.045  0.2354 -0.6508  0.4274
 3576SOL    HW214070   2.379   0.269   1.988 -1.8757 -0.0947 -1.6451
 3576SOL    HW314071   2.230   0.244   2.006 -1.3507 -0.5989  3.5890
 3576SOL    MW414072   2.313   0.233   2.032 -0.0045  0.1282  0.5204
 3577SOL     OW14073   3.638   3.988   1.631 -0.6705 -0.7196  0.4540
 3577SOL    HW214074   3.616   4.080   1.648 -3.7902 -0.9946 -1.3011
 3577SOL    HW314075   3.554   3.942   1.638 -0.6248 -2.3547 -4.9642
 3577SOL    MW414076   3.624   3.994   1.634  0.3370 -0.3792 -0.1138
 3578SOL     OW14077   2.823   4.648   3.837 -0.2649 -0.2754 -0.3387
 3578SOL    HW214078   2.749   4.595   3.869  0.7406 -1.1796  0.5561
 3578SOL    HW314079   2.899   4.612   3.881  0.4811  1.9547  0.3224
 3578SOL    MW414080   2.823   4.636   3.847 -0.5495  0.2582  0.3646
 3579SOL     OW14081   4.564   5.130   0.331  0.2622 -0.1376  0.1183
 3579SOL    HW214082   4.639   5.126   0.391 -0.4021 -0.0790  0.9725
 3579SOL    HW314083   4.495   5.083   0.376  0.0518 -1.0213 -1.0871
 3579SOL    MW414084   4.565   5.123   0.345 -0.5771  0.1800  0.6079
 3580SOL     OW14085   0.450   3.721   4.126  0.1764 -0.1750  0.6023
 3580SOL    HW214086   0.418   3.702   4.215 -0.0357  1.1404  0.8302
 3580SOL    HW314087   0.435   3.815   4.115 -1.5826 -0.6079 -1.5387
 3580SOL    MW414088   0.444   3.731   4.136  0.3821 -0.2280 -0.2048
 3581SOL     OW14089   1.843   2.499   1.076  0.1267  0.2223  0.1422
 3581SOL    HW214090   1.769   2.558   1.066  0.0930 -0.0227 -1.2672
 3581SOL    HW314091   1.814   2.435   1.141  0.5326  2.2554  2.4554
 3581SOL    MW414092   1.829   2.498   1.083 -0.0238  0.2550  1.0438
 3582SOL     OW14093   1.221   4.058   2.932 -0.0668 -0.1888  0.0941
 3582SOL    HW214094   1.130   4.069   2.958 -0.7464 -0.2970 -2.0625
 3582SOL    HW314095   1.223   3.976   2.884  1.2677 -0.3823  0.4388
 3582SOL    MW414096   1.209   4.049   2.929 -0.6636 -0.6055 -0.1850
 3583SOL     OW14097   6.100   4.280   4.375 -0.0832  0.2274 -0.0297
 3583SOL    HW214098   6.151   4.201   4.392 -0.4393 -0.0308 -0.1668
 3583SOL    HW314099   6.097   4.325   4.459 -0.5861 -0.3187  0.2501
 3583SOL    MW414100   6.107   4.276   4.388  0.1014  0.1841  0.0765
 3584SOL     OW14101   3.602   3.794   5.710  0.0942  0.5999  0.4450
 3584SOL    HW214102   3.679   3.762   5.758  0.3075  1.5445  0.7569
 3584SOL    HW314103   3.629   3.791   5.618 -0.5356 -1.8087  0.2760
 3584SOL    MW414104   3.616   3.790   5.704 -0.8799  0.3584 -0.4520
 3585SOL     OW14105   0.059   3.753   5.851 -0.5043 -0.1398 -1.2186
 3585SOL    HW214106   0.094   3.838   5.879 -0.3538 -0.0989 -1.5241
 3585SOL    HW314107  -0.036   3.766   5.851 -0.4988 -0.0911 -0.8883
 3585SOL    MW414108   0.051   3.766   5.855  0.1511  0.0336 -0.1720
 3586SOL     OW14109   2.593   5.873   0.790  0.0198  0.1860 -0.2409
 3586SOL    HW214110   2.634   5.890   0.705  0.3040  0.5411 -0.0347
 3586SOL    HW314111   2.550   5.955   0.814  0.8064  0.4236  0.4283
 3586SOL    MW414112   2.593   5.886   0.782  0.3923 -0.3842 -0.2565
 3587SOL     OW14113   5.602   6.063   5.010 -0.2447  0.0262 -0.0730
 3587SOL    HW214114   5.594   5.988   5.069  1.5964  0.1391  0.3939
 3587SOL    HW314115   5.622   6.136   5.068  0.4834  0.3562 -0.7209
 3587SOL    MW414116   5.604   6.062   5.025  0.2418  0.1787 -0.0176
 3588SOL     OW14117   0.611   3.291   3.137 -0.3391  0.2280 -0.3077
 3588SOL    HW214118   0.608   3.381   3.170  0.2040 -0.2236  1.0558
 3588SOL    HW314119   0.521   3.272   3.111 -0.4012  1.2568 -0.9396
 3588SOL    MW414120   0.599   3.301   3.138 -0.3255  0.2289 -0.7201
 3589SOL     OW14121   2.666   5.192   2.541  0.2139  0.3735 -0.2168
 3589SOL    HW214122   2.614   5.215   2.618  0.2186  0.3862 -0.2176
 3589SOL    HW314123   2.752   5.168   2.577  0.5914  1.5194 -0.3075
 3589SOL    MW414124   2.671   5.192   2.556  0.0669  0.2745  0.0751
 3590SOL     OW14125   3.000   2.195   5.204  0.1527 -0.3306  0.1628
 3590SOL    HW214126   2.947   2.116   5.213 -1.3888  0.2757 -2.4011
 3590SOL    HW314127   3.090   2.164   5.207 -0.4095 -2.1896 -0.6600
 3590SOL    MW414128   3.005   2.181   5.205  0.1563  1.3392 -0.8928
 3591SOL     OW14129   3.491   4.136   2.925 -0.5811  0.4646  0.2001
 3591SOL    HW214130   3.479   4.230   2.907 -0.0488  0.5922  0.4990
 3591SOL    HW314131   3.572   4.113   2.880  1.0919  0.9161  2.7852
 3591SOL    MW414132   3.500   4.146   2.917  0.1214 -0.0582 -0.3384
 3592SOL     OW14133   4.085   2.006   1.862  0.1775 -0.4921 -0.4763
 3592SOL    HW214134   4.062   1.951   1.937 -0.6231 -1.8652 -1.6544
 3592SOL    HW314135   4.178   1.988   1.847  1.1797  2.0958  1.9460
 3592SOL    MW414136   4.094   1.996   1.870  0.3510 -0.2645  0.3178
 3593SOL     OW14137   2.271   1.863   6.300 -0.0206  0.2215 -0.4270
 3593SOL    HW214138   2.239   1.852   6.210 -1.4552 -0.4707  0.1497
 3593SOL    HW314139   2.193   1.863   6.354  0.7892  1.1519  0.8089
 3593SOL    MW414140   2.257   1.862   6.295 -0.8190  0.1087  0.1232
 3594SOL     OW14141   2.110   6.114   0.914 -0.0075  0.1719  0.0144
 3594SOL    HW214142   2.203   6.101   0.931  0.2341  0.5596 -0.9468
 3594SOL    HW314143   2.076   6.028   0.892 -0.1384 -0.1809  1.4806
 3594SOL    MW414144   2.118   6.101   0.914 -0.2125  0.6050  0.3179
 3595SOL     OW14145   5.326   1.898   0.763  0.5996 -0.3702  0.0665
 3595SOL    HW214146   5.376   1.921   0.685  0.7075 -2.6579 -0.6129
 3595SOL    HW314147   5.370   1.820   0.798 -1.8443 -1.8856  0.0012
 3595SOL    MW414148   5.338   1.891   0.757  0.0883  0.5448 -0.0786
 3596SOL     OW14149   0.118   3.016   1.295  0.3754 -0.5266 -0.1375
 3596SOL    HW214150   0.130   3.058   1.210  0.4658 -2.1852 -1.0021
 3596SOL    HW314151   0.024   3.023   1.312  0.4867  0.5997  0.0776
 3596SOL    MW414152   0.108   3.022   1.286 -0.3556 -0.4812 -0.1484
 3597SOL     OW14153   0.992   4.527   3.063 -0.9359 -0.5163  0.6217
 3597SOL    HW214154   0.972   4.471   3.138  1.0428 -2.7420 -0.3644
 3597SOL    HW314155   1.088   4.529   3.060 -0.9586  1.4551 -0.5159
 3597SOL    MW414156   1.002   4.520   3.073 -0.4509  0.2408 -0.3513
 3598SOL     OW14157   3.585   6.113   0.262  0.2250  0.2810  0.2822
 3598SOL    HW214158   3.552   6.057   0.332  1.2246  0.7654  1.1746
 3598SOL    HW314159   3.672   6.078   0.242  0.0391  0.2843 -0.5762
 3598SOL    MW414160   3.592   6.101   0.269 -0.0571  0.3301  0.3832
 3599SOL     OW14161   1.668   3.159   5.435 -0.1189 -0.1905 -0.1934
 3599SOL    HW214162   1.734   3.228   5.438 -0.2754 -0.0661  1.8334
 3599SOL    HW314163   1.679   3.111   5.517 -0.7413 -1.9039 -1.0694
 3599SOL    MW414164   1.678   3.162   5.446  0.1417  0.1566  0.1941
 3600SOL     OW14165   5.058   4.865   5.256 -0.4158  0.0085  0.7281
 3600SOL    HW214166   5.096   4.785   5.294  0.0939  0.0867  0.3837
 3600SOL    HW314167   5.075   4.933   5.321  2.0543  0.5300 -0.3885
 3600SOL    MW414168   5.065   4.863   5.270  0.2681  0.3191  0.1028
 3601SOL     OW14169   2.052   2.859   5.357  0.0653 -0.2558 -0.0436
 3601SOL    HW214170   2.059   2.797   5.284 -0.7005 -1.9704  1.2637
 3601SOL    HW314171   1.993   2.927   5.326 -0.5019 -1.1304 -0.9173
 3601SOL    MW414172   2.045   2.860   5.343  0.1606  0.2991 -0.1669
 3602SOL     OW14173   4.448   3.503   0.754  0.6751 -0.8352  0.2907
 3602SOL    HW214174   4.409   3.590   0.764 -0.5284 -1.3513  0.1974
 3602SOL    HW314175   4.501   3.510   0.675 -0.0198 -0.3974 -0.1526
 3602SOL    MW414176   4.450   3.516   0.745  0.4645  0.0593 -0.5047
 3603SOL     OW14177   4.007   4.853   3.237 -0.1386  0.0781 -0.6737
 3603SOL    HW214178   3.968   4.881   3.154  0.3739 -1.4073 -1.4478
 3603SOL    HW314179   3.932   4.830   3.291 -0.4505  0.2904 -1.0057
 3603SOL    MW414180   3.992   4.854   3.233  0.2013  0.1049  0.2096
 3604SOL     OW14181   4.617   3.617   1.436  1.1588  0.0238 -0.0681
 3604SOL    HW214182   4.612   3.657   1.523  0.6040 -1.2893  0.5290
 3604SOL    HW314183   4.651   3.529   1.453 -1.7811 -1.3574 -0.7886
 3604SOL    MW414184   4.621   3.611   1.450 -0.3945  0.4907 -0.1472
 3605SOL     OW14185   3.301   3.350   4.814 -0.0581  0.5789 -0.1374
 3605SOL    HW214186   3.388   3.310   4.815 -0.2375  0.1942  0.9714
 3605SOL    HW314187   3.271   3.339   4.723  0.1156 -1.3705 -0.0192
 3605SOL    MW414188   3.308   3.343   4.802  0.5605  0.4106 -0.4982
 3606SOL     OW14189   0.808   1.549   2.601 -0.0997 -0.2250  0.2321
 3606SOL    HW214190   0.792   1.456   2.617  1.7372 -1.3127 -3.2048
 3606SOL    HW314191   0.903   1.556   2.590 -0.3201  1.7391 -1.0681
 3606SOL    MW414192   0.818   1.538   2.601  0.4283  0.4281 -0.0708
 3607SOL     OW14193   4.959   3.617   0.832  0.3346 -0.1024 -0.2187
 3607SOL    HW214194   4.940   3.576   0.748  0.5436  0.3154 -0.4744
 3607SOL    HW314195   5.011   3.694   0.810 -1.5672  1.3558  0.0723
 3607SOL    MW414196   4.963   3.622   0.818  0.0760  0.4174  0.3323
 3608SOL     OW14197   4.258   6.096   2.685  0.7112  0.1972  0.3976
 3608SOL    HW214198   4.295   6.007   2.688  0.4575  0.0506 -0.5682
 3608SOL    HW314199   4.320   6.146   2.633  1.0273  0.6816  1.2285
 3608SOL    MW414200   4.271   6.091   2.679 -0.1271 -0.6009 -0.5487
 3609SOL     OW14201   5.463   0.874   3.355 -0.2663 -0.5805  0.4101
 3609SOL    HW214202   5.457   0.969   3.362  0.2901 -0.4253 -0.8358
 3609SOL    HW314203   5.386   0.849   3.304 -0.1124 -0.7229  0.2469
 3609SOL    MW414204   5.452   0.883   3.349  0.1148  0.1159  0.0667
 3610SOL     OW14205   2.211   3.226   2.758 -0.5236  0.6881  0.4130
 3610SOL    HW214206   2.167   3.202   2.677  2.1555 -2.3683 -0.3735
 3610SOL    HW314207   2.151   3.200   2.828 -1.7516  0.8158 -0.5829
 3610SOL    MW414208   2.198   3.220   2.757  0.2832  0.3997  0.0452
 3611SOL     OW14209   5.473   5.920   2.746  0.1338  0.1014 -0.2250
 3611SOL    HW214210   5.404   5.930   2.811  0.0386  2.4761 -0.6176
 3611SOL    HW314211   5.524   5.844   2.777 -2.1361 -1.2205  0.4806
 3611SOL    MW414212   5.471   5.911   2.759 -0.0001  0.2683  0.4223
 3612SOL     OW14213   6.216   3.768   4.402  0.1390 -0.2267 -0.8154
 3612SOL    HW214214   6.257   3.722   4.475  0.0826 -0.2939 -0.8269
 3612SOL    HW314215   6.160   3.703   4.360 -0.3676 -0.0040 -0.4974
 3612SOL    MW414216   6.214   3.754   4.406 -0.1184  0.0291 -0.3411
 3613SOL     OW14217   0.940   2.623   0.483 -0.0560  0.0260  0.1760
 3613SOL    HW214218   1.012   2.677   0.517  0.1692  1.0415 -1.7555
 3613SOL    HW314219   0.939   2.546   0.540  0.7099  1.2809  1.9902
 3613SOL    MW414220   0.949   2.620   0.495 -0.0251 -0.2714 -0.2523
 3614SOL     OW14221   0.319   4.454   5.328  0.5680  0.1442 -0.0189
 3614SOL    HW214222   0.376   4.381   5.351 -2.1544 -1.5981  1.9237
 3614SOL    HW314223   0.328   4.515   5.401  1.4214  0.8716 -0.7143
 3614SOL    MW414224   0.327   4.453   5.341 -0.6251  0.6047 -0.4841
 3615SOL     OW14225   2.148   3.856   0.795 -0.4759 -0.1332  0.3019
 3615SOL    HW214226   2.194   3.836   0.713  0.5598  0.5335  0.7015
 3615SOL    HW314227   2.056   3.845   0.774 -0.1327 -2.5059 -0.2623
 3615SOL    MW414228   2.142   3.851   0.781 -0.1470  0.0868  0.5148
 3616SOL     OW14229   5.004   1.322   5.489 -0.2470  0.0816 -0.0798
 3616SOL    HW214230   4.927   1.365   5.527  0.8535  1.8315  0.2699
 3616SOL    HW314231   5.018   1.367   5.407 -0.7180 -1.5664 -1.1152
 3616SOL    MW414232   4.996   1.334   5.483 -0.3539  0.1572  0.0322
 3617SOL     OW14233   1.010   5.660   5.391  0.0000  0.2850  0.8185
 3617SOL    HW214234   0.956   5.706   5.455 -0.3040 -0.4146  1.0859
 3617SOL    HW314235   1.085   5.717   5.376  0.4122  0.1707  2.2943
 3617SOL    MW414236   1.012   5.673   5.397  0.0334 -0.0669  0.3462
 3618SOL     OW14237   1.113   1.663   5.738  0.0906 -0.1305 -0.1676
 3618SOL    HW214238   1.134   1.687   5.828 -1.3993  2.2411 -0.3581
 3618SOL    HW314239   1.026   1.700   5.723 -0.3148 -1.7073 -2.1487
 3618SOL    MW414240   1.104   1.671   5.748  0.1143 -0.6180  0.2184
 3619SOL     OW14241   6.257   5.725   4.884 -0.6403  0.2935  0.1450
 3619SOL    HW214242   6.207   5.644   4.883  1.1809 -0.9310  1.5440
 3619SOL    HW314243   6.256   5.755   4.793 -0.5678 -1.8106 -0.6000
 3619SOL    MW414244   6.250   5.718   4.872  0.1166  0.2858  0.2117
 3620SOL     OW14245   0.302   0.135   1.154  0.0075 -0.0812 -0.5554
 3620SOL    HW214246   0.369   0.177   1.100  0.1976 -0.4308 -0.5958
 3620SOL    HW314247   0.271   0.204   1.213  0.0514  0.2095 -0.8701
 3620SOL    MW414248   0.306   0.149   1.155 -0.3759  0.1673 -0.1503
 3621SOL     OW14249   4.834   0.661   4.884  0.5139  0.8427 -0.0498
 3621SOL    HW214250   4.811   0.568   4.884 -1.6996  1.3131 -0.3588
 3621SOL    HW314251   4.894   0.671   4.957  0.8742 -0.8465 -0.0681
 3621SOL    MW414252   4.839   0.650   4.894  0.0107 -0.0012 -0.4229
 3622SOL     OW14253   5.195   1.221   5.855  0.2967 -0.1297  0.6374
 3622SOL    HW214254   5.254   1.186   5.922 -0.3302 -0.9410  0.7865
 3622SOL    HW314255   5.249   1.223   5.776  0.9146  0.4180  1.0534
 3622SOL    MW414256   5.210   1.217   5.854 -0.1319  0.2294 -0.2345
 3623SOL     OW14257   3.090   3.543   2.480 -0.4894  0.1262 -0.0911
 3623SOL    HW214258   3.126   3.529   2.392 -0.8905  0.6398 -0.3386
 3623SOL    HW314259   3.100   3.636   2.496 -1.6547  0.2708 -0.1387
 3623SOL    MW414260   3.096   3.553   2.470  0.1690  0.1240  0.0166
 3624SOL     OW14261   2.874   0.632   1.552 -0.0059 -0.6838 -0.3815
 3624SOL    HW214262   2.857   0.615   1.645 -1.1069 -0.9014 -0.6104
 3624SOL    HW314263   2.908   0.549   1.518  0.6587 -0.5263 -0.1312
 3624SOL    MW414264   2.876   0.619   1.560  0.1288  0.2610 -0.4503
 3625SOL     OW14265   2.787   0.152   3.480 -0.2282  0.6603  0.0611
 3625SOL    HW214266   2.788   0.181   3.571 -2.3049 -1.4699  0.8589
 3625SOL    HW314267   2.828   0.065   3.483 -1.5928 -0.0467 -0.7363
 3625SOL    MW414268   2.793   0.144   3.492  0.1889 -0.5138  0.1391
 3626SOL     OW14269   4.505   4.496   1.602  0.3080 -0.0579  0.1000
 3626SOL    HW214270   4.580   4.554   1.585  0.6573 -0.3995  0.4572
 3626SOL    HW314271   4.438   4.554   1.639  0.6888  0.1012  0.5469
 3626SOL    MW414272   4.506   4.511   1.604  0.3346  0.2981  0.1470
 3627SOL     OW14273   3.832   2.138   1.869 -0.9045 -0.3688  0.1926
 3627SOL    HW214274   3.919   2.100   1.871 -0.2816  0.3517 -4.1769
 3627SOL    HW314275   3.772   2.063   1.870 -0.1215 -1.0038  0.1690
 3627SOL    MW414276   3.835   2.123   1.870  0.1805  0.0783  0.9103
 3628SOL     OW14277   3.322   1.016   5.310  0.3561 -0.1612 -0.6200
 3628SOL    HW214278   3.382   1.005   5.384  0.6567  0.2463 -0.7991
 3628SOL    HW314279   3.375   1.054   5.241 -0.6646  2.7864  0.0752
 3628SOL    MW414280   3.337   1.019   5.310 -0.6504  0.1714 -0.4905
 3629SOL     OW14281   1.882   0.723   3.776 -0.0745  0.2928  0.8419
 3629SOL    HW214282   1.927   0.693   3.855 -0.0078  0.3083  0.8096
 3629SOL    HW314283   1.798   0.756   3.807  0.1682  0.8054  0.9741
 3629SOL    MW414284   1.877   0.723   3.790  0.2682  0.5185  1.0581
 3630SOL     OW14285   5.799   1.134   6.238 -0.0189  0.2064 -0.1118
 3630SOL    HW214286   5.753   1.190   6.301  0.1896 -0.0805  0.3034
 3630SOL    HW314287   5.733   1.109   6.175 -0.1804  0.6942 -0.1451
 3630SOL    MW414288   5.784   1.138   6.238 -0.2302 -0.1982  0.2246
 3631SOL     OW14289   4.887   6.224   5.611 -0.1202  0.3096 -0.5980
 3631SOL    HW214290   4.934   6.155   5.563  0.7495 -0.3268  1.0714
 3631SOL    HW314291   4.881   6.190   5.700 -2.3606  1.1212 -0.3940
 3631SOL    MW414292   4.893   6.210   5.616 -0.1649  0.3235  0.3787
 3632SOL     OW14293   1.417   4.347   2.053  0.1554  0.0392  0.1101
 3632SOL    HW214294   1.461   4.317   1.974 -1.2020 -1.0636 -0.2677
 3632SOL    HW314295   1.414   4.270   2.109 -3.2275 -0.6174 -0.7891
 3632SOL    MW414296   1.423   4.333   2.050 -0.2318 -0.5567  0.5942
 3633SOL     OW14297   3.624   5.112   3.565 -0.2208  0.0944 -0.2521
 3633SOL    HW214298   3.698   5.093   3.622 -0.4077 -1.1658 -0.4097
 3633SOL    HW314299   3.578   5.029   3.556 -2.1799  1.0244  0.5729
 3633SOL    MW414300   3.627   5.098   3.571  0.1633 -0.2250  0.3481
 3634SOL     OW14301   5.742   3.982   3.309 -0.0631 -0.7644  0.0122
 3634SOL    HW214302   5.817   4.037   3.333  0.7726 -1.1772 -1.5491
 3634SOL    HW314303   5.666   4.040   3.318  0.7425  0.5147 -1.0863
 3634SOL    MW414304   5.742   3.997   3.313 -0.2009 -0.3670  0.3050
 3635SOL     OW14305   4.270   3.756   1.053  0.9260 -0.7909 -0.5923
 3635SOL    HW214306   4.336   3.732   1.117  0.6513 -0.4647 -0.1805
 3635SOL    HW314307   4.204   3.805   1.103  0.1871 -1.4218 -0.9265
 3635SOL    MW414308   4.270   3.759   1.068  0.1068  0.3541 -0.0278
 3636SOL     OW14309   4.455   0.548   5.764 -1.0277  0.1910  0.2168
 3636SOL    HW214310   4.547   0.567   5.747 -0.9774 -0.0080  0.2616
 3636SOL    HW314311   4.408   0.588   5.692 -0.8922  0.1555  0.1092
 3636SOL    MW414312   4.461   0.555   5.753 -0.0126 -0.2047 -0.5068
 3637SOL     OW14313   0.481   2.397   2.018  0.1004 -0.1840  0.1116
 3637SOL    HW214314   0.425   2.321   2.000 -0.5457  0.7107 -1.9906
 3637SOL    HW314315   0.503   2.431   1.931 -0.7933  2.8789  0.9788
 3637SOL    MW414316   0.477   2.392   2.004 -0.2660  0.3126 -0.7941
 3638SOL     OW14317   0.890   3.896   2.044  0.2626 -0.4787 -0.2358
 3638SOL    HW214318   0.892   3.872   2.136  0.7014  0.9374  0.1465
 3638SOL    HW314319   0.818   3.959   2.037  0.1724 -0.6419 -0.8945
 3638SOL    MW414320   0.881   3.901   2.055 -0.3213  0.7186  0.3150
 3639SOL     OW14321   2.344   4.694   3.230  0.0290 -0.5805  0.3160
 3639SOL    HW214322   2.370   4.662   3.317 -0.8661 -0.0923  0.7804
 3639SOL    HW314323   2.278   4.761   3.248  0.8558  0.5469 -0.6870
 3639SOL    MW414324   2.339   4.699   3.244 -0.3014  0.1071  0.3095
 3640SOL     OW14325   4.527   5.944   5.125  0.1319 -0.1178 -0.4506
 3640SOL    HW214326   4.550   5.876   5.188  0.5850  0.8159  0.4264
 3640SOL    HW314327   4.441   5.918   5.092 -0.9781  0.2819  1.9305
 3640SOL    MW414328   4.519   5.932   5.129 -0.5549 -0.5854 -0.1406
 3641SOL     OW14329   0.176   2.549   1.654  0.6446 -0.0288 -0.0919
 3641SOL    HW214330   0.118   2.535   1.728 -0.2840  0.2294 -0.7609
 3641SOL    HW314331   0.203   2.640   1.660 -1.0563  0.5813 -1.1954
 3641SOL    MW414332   0.172   2.559   1.664 -0.0894  0.0919  0.0889
 3642SOL     OW14333   5.854   4.713   2.315 -0.6331 -0.0537  0.2643
 3642SOL    HW214334   5.760   4.704   2.303 -0.7510  1.1462  0.1402
 3642SOL    HW314335   5.864   4.741   2.406 -0.2635 -1.7594  0.7840
 3642SOL    MW414336   5.843   4.716   2.325 -0.0491  0.2826 -0.3938
 3643SOL     OW14337   0.929   4.750   6.130 -0.5319  0.0786 -0.3992
 3643SOL    HW214338   0.870   4.823   6.147 -0.2282  0.4479 -0.9003
 3643SOL    HW314339   0.889   4.676   6.176 -0.9729  0.4979 -0.0906
 3643SOL    MW414340   0.916   4.750   6.138 -0.0211  0.0484  0.2225
 3644SOL     OW14341   0.515   0.444   6.291 -0.0740 -0.2847  0.5080
 3644SOL    HW214342   0.575   0.486   6.353  0.8869 -1.8130  0.6653
 3644SOL    HW314343   0.436   0.427   6.343 -0.4198  1.1191  0.4843
 3644SOL    MW414344   0.512   0.448   6.306  0.1055 -1.2005 -0.2977
 3645SOL     OW14345   2.492   4.671   5.015  0.3363 -0.2485  0.1345
 3645SOL    HW214346   2.519   4.755   4.978  0.7789  0.3547  1.7455
 3645SOL    HW314347   2.550   4.606   4.975  1.3187  0.4806  0.3417
 3645SOL    MW414348   2.503   4.673   5.005 -0.4458 -0.1694  0.2169
 3646SOL     OW14349   5.659   1.326   6.427 -0.2582 -0.3809  0.2386
 3646SOL    HW214350   5.641   1.294   6.515 -0.7426  1.2957  0.7920
 3646SOL    HW314351   5.747   1.362   6.432  0.2774 -1.5455 -0.3724
 3646SOL    MW414352   5.668   1.327   6.439  0.2953  0.2050  0.7309
 3647SOL     OW14353   4.649   1.125   1.098  0.1001  0.7886 -0.4860
 3647SOL    HW214354   4.603   1.126   1.182  0.1330 -2.6702 -0.2895
 3647SOL    HW314355   4.603   1.059   1.046  3.1306 -0.9323 -1.2320
 3647SOL    MW414356   4.637   1.116   1.102 -0.0498 -0.1790  0.2048
 3648SOL     OW14357   1.335   3.148   1.010  0.3872  0.2819 -0.0108
 3648SOL    HW214358   1.362   3.080   0.948 -1.4031  0.4246 -1.0249
 3648SOL    HW314359   1.241   3.157   0.996  0.3948  2.2323  0.8418
 3648SOL    MW414360   1.327   3.140   1.000 -0.1391 -0.6485  0.1070
 3649SOL     OW14361   3.327   6.225   2.598  0.2261  0.6552  0.2376
 3649SOL    HW214362   3.281   6.170   2.535  0.0439  1.0673  0.0047
 3649SOL    HW314363   3.316   6.180   2.682 -0.1654  0.4850  0.0975
 3649SOL    MW414364   3.319   6.212   2.601 -0.4989  0.7071 -0.6293
 3650SOL     OW14365   2.150   0.605   2.303  0.2826 -0.2882  0.4904
 3650SOL    HW214366   2.214   0.535   2.317  0.6787  0.0701  0.5073
 3650SOL    HW314367   2.200   0.674   2.259 -0.2922 -0.3132 -0.2062
 3650SOL    MW414368   2.165   0.605   2.299  0.4485 -0.4708 -0.4410
 3651SOL     OW14369   6.044   5.339   0.122 -0.5478 -0.3361 -0.1880
 3651SOL    HW214370   6.109   5.386   0.173 -0.1210 -0.4554 -0.6169
 3651SOL    HW314371   6.041   5.252   0.162 -1.6578  0.1694  0.8856
 3651SOL    MW414372   6.052   5.333   0.134 -0.0221  0.0590 -0.1198
 3652SOL     OW14373   5.944   1.283   4.535 -0.1130  0.4854  0.1126
 3652SOL    HW214374   5.912   1.249   4.451 -2.6168 -0.6327  1.4169
 3652SOL    HW314375   5.915   1.374   4.537 -0.4066  0.3960 -0.0523
 3652SOL    MW414376   5.936   1.291   4.524 -0.6691  0.1101  0.6025
 3653SOL     OW14377   4.623   1.157   2.672  0.1887  1.0235  0.1119
 3653SOL    HW214378   4.683   1.182   2.602  0.6095 -0.1962  0.0172
 3653SOL    HW314379   4.605   1.238   2.718  3.1284  1.2100  1.1044
 3653SOL    MW414380   4.628   1.171   2.669  0.3142  0.5181 -0.4656
 3654SOL     OW14381   1.987   3.381   1.182 -0.0075 -0.0775 -0.5009
 3654SOL    HW214382   2.001   3.290   1.155  0.7341 -0.6237  1.5281
 3654SOL    HW314383   2.013   3.382   1.275 -2.9130  1.5128  0.3908
 3654SOL    MW414384   1.993   3.369   1.191  0.1306 -0.3204 -0.2134
 3655SOL     OW14385   6.356   2.634   6.058 -0.1197 -0.4563 -0.4281
 3655SOL    HW214386   6.385   2.706   6.002 -1.5319  1.1207  0.7539
 3655SOL    HW314387   6.429   2.573   6.059  1.6662  1.5608 -0.4907
 3655SOL    MW414388   6.370   2.636   6.051  0.4555  0.1983 -0.2336
 3656SOL     OW14389   1.429   4.225   5.825  0.3247 -0.0220  0.2276
 3656SOL    HW214390   1.502   4.259   5.774  0.1267  0.7701  0.4581
 3656SOL    HW314391   1.436   4.270   5.910 -1.5714  1.6068 -0.4028
 3656SOL    MW414392   1.440   4.235   5.830 -0.2835 -0.3887 -0.3493
 3657SOL     OW14393   3.476   3.162   2.553  0.5518  0.1022 -0.1147
 3657SOL    HW214394   3.544   3.229   2.547  0.7838 -0.1726 -0.6389
 3657SOL    HW314395   3.394   3.209   2.536  0.7992  0.1068 -1.3997
 3657SOL    MW414396   3.474   3.177   2.550 -0.0019  0.0416 -0.1207
 3658SOL     OW14397   5.570   3.632   1.441 -0.1383  0.4657 -0.6238
 3658SOL    HW214398   5.573   3.599   1.351  0.2281  0.9742 -0.8016
 3658SOL    HW314399   5.659   3.622   1.474 -0.1241  0.8662 -0.5344
 3658SOL    MW414400   5.582   3.626   1.433 -0.1905  0.4670 -0.4278
 3659SOL     OW14401   4.255   0.826   4.487  0.8513  0.2393  0.9578
 3659SOL    HW214402   4.310   0.867   4.554  1.4574  1.3816 -0.1804
 3659SOL    HW314403   4.244   0.895   4.421  1.1246 -1.1477 -0.5839
 3659SOL    MW414404   4.261   0.841   4.487  0.4837  0.0227 -0.5502
 3660SOL     OW14405   3.986   3.928   4.376 -0.8937  0.3887 -0.7600
 3660SOL    HW214406   3.948   4.000   4.427 -0.3256  0.8565 -0.9734
 3660SOL    HW314407   4.078   3.927   4.403 -1.3536 -1.8498  1.0756
 3660SOL    MW414408   3.993   3.938   4.386 -0.0204  0.4760  0.5406
 3661SOL     OW14409   2.437   6.393   1.706 -0.4356  0.4837  0.7818
 3661SOL    HW214410   2.398   6.336   1.772 -0.9798  1.0634  0.9695
 3661SOL    HW314411   2.523   6.416   1.743 -0.2265 -0.1718  0.7205
 3661SOL    MW414412   2.444   6.388   1.720 -0.1949 -0.7452 -0.2692
 3662SOL     OW14413   3.895   5.306   4.138  0.1618  0.0935 -0.0668
 3662SOL    HW214414   3.845   5.336   4.062  1.4593 -1.2738 -1.5259
 3662SOL    HW314415   3.842   5.333   4.214 -0.3899  2.9363 -1.3481
 3662SOL    MW414416   3.881   5.314   4.138  0.2890 -0.4324  0.2571
 3663SOL     OW14417   5.459   1.995   3.442 -0.1404 -0.2290 -0.1724
 3663SOL    HW214418   5.433   1.904   3.427  0.0419 -0.2327 -0.4627
 3663SOL    HW314419   5.447   2.038   3.358  0.0852 -0.0601 -0.1197
 3663SOL    MW414420   5.454   1.989   3.429 -0.0515  0.2277 -0.5090
 3664SOL     OW14421   0.735   0.464   0.683 -0.4164 -0.1954  0.5027
 3664SOL    HW214422   0.661   0.468   0.622  1.2254  0.0761 -1.6199
 3664SOL    HW314423   0.794   0.534   0.653  0.2548  0.2791  2.7734
 3664SOL    MW414424   0.733   0.474   0.671  0.2908 -0.1855  0.6617
 3665SOL     OW14425   0.628   2.580   1.285 -0.2793  0.0785 -0.0327
 3665SOL    HW214426   0.651   2.504   1.339  0.9743 -0.8908 -1.8526
 3665SOL    HW314427   0.702   2.591   1.226 -2.2197  0.0919 -2.6499
 3665SOL    MW414428   0.641   2.572   1.285 -0.4736  0.7455  0.0920
 3666SOL     OW14429   5.098   2.891   4.854 -0.2829  0.4316  0.2113
 3666SOL    HW214430   5.094   2.802   4.819 -2.6118  0.8083 -0.6361
 3666SOL    HW314431   5.079   2.881   4.948 -0.3660  0.0436  0.1530
 3666SOL    MW414432   5.095   2.878   4.862  0.0557 -0.1303  0.1532
 3667SOL     OW14433   5.341   2.364   2.739  0.4923 -0.3117 -0.3022
 3667SOL    HW214434   5.421   2.408   2.766 -0.1939  0.3340  0.7556
 3667SOL    HW314435   5.299   2.424   2.678  0.1068  0.0210  0.2777
 3667SOL    MW414436   5.346   2.377   2.735  0.4863  0.1611  0.1199
 3668SOL     OW14437   0.615   5.943   2.945 -0.3341  0.2525 -0.1476
 3668SOL    HW214438   0.641   6.018   2.999 -0.7964  0.2892  0.0280
 3668SOL    HW314439   0.520   5.938   2.955 -0.1748 -1.1819  0.9211
 3668SOL    MW414440   0.606   5.952   2.953 -0.2608  0.2553 -0.1507
 3669SOL     OW14441   6.051   1.102   0.701  0.0761  0.2698 -0.3595
 3669SOL    HW214442   5.983   1.151   0.748  0.1526  0.0594 -0.0280
 3669SOL    HW314443   6.006   1.023   0.670  0.0816  0.3031 -0.4535
 3669SOL    MW414444   6.036   1.098   0.703  0.1950  0.7746 -0.4954
 3670SOL     OW14445   1.667   1.173   6.035  0.1708  0.2032 -0.8112
 3670SOL    HW214446   1.731   1.198   5.968 -1.0405  3.0708 -1.0864
 3670SOL    HW314447   1.627   1.256   6.061 -2.2356 -1.2667  0.5585
 3670SOL    MW414448   1.670   1.187   6.029  0.0302 -0.1366  0.1731
 3671SOL     OW14449   2.310   3.889   4.026 -0.1415  0.1100 -0.0352
 3671SOL    HW214450   2.255   3.864   4.100 -0.1393 -3.4637 -1.0312
 3671SOL    HW314451   2.379   3.823   4.025  1.7227  1.9488 -1.3911
 3671SOL    MW414452   2.312   3.877   4.036 -0.3028  0.8248  0.2878
 3672SOL     OW14453   0.489   3.903   2.387 -0.1705  0.4697 -0.3662
 3672SOL    HW214454   0.579   3.936   2.386 -0.4730  1.2954 -1.0749
 3672SOL    HW314455   0.482   3.855   2.470  0.8539  0.5688 -0.2101
 3672SOL    MW414456   0.500   3.901   2.398 -0.0629 -0.7274  0.5018
 3673SOL     OW14457   4.314   3.872   5.035 -0.6552  0.1914 -0.2886
 3673SOL    HW214458   4.372   3.827   4.974  0.6368 -0.3209  1.2870
 3673SOL    HW314459   4.229   3.830   5.022 -0.5019  0.3317 -1.9659
 3673SOL    MW414460   4.310   3.861   5.025 -0.4084  0.2936 -0.2200
 3674SOL     OW14461   5.819   0.910   3.378  0.4702  0.0472  0.0394
 3674SOL    HW214462   5.889   0.920   3.314  0.8240  0.0500  0.4228
 3674SOL    HW314463   5.774   0.829   3.353  3.1870 -2.3444  2.2096
 3674SOL    MW414464   5.823   0.901   3.367 -0.4393  0.0746  0.0208
 3675SOL     OW14465   3.716   3.514   1.660 -0.6743  1.0560 -0.0976
 3675SOL    HW214466   3.727   3.554   1.574  0.6113 -0.7156 -0.8164
 3675SOL    HW314467   3.640   3.457   1.652  0.2032 -0.0998 -0.4988
 3675SOL    MW414468   3.707   3.512   1.648  0.2872  0.0204  0.0362
 3676SOL     OW14469   1.226   5.365   5.911 -0.0953 -0.6126  0.2014
 3676SOL    HW214470   1.277   5.419   5.851 -1.3980  0.6608  0.1692
 3676SOL    HW314471   1.192   5.294   5.856  0.8533 -0.9432  0.0306
 3676SOL    MW414472   1.228   5.363   5.896 -0.4101  0.4687 -0.0644
 3677SOL     OW14473   3.116   1.015   3.730  0.5055 -0.1209 -0.0260
 3677SOL    HW214474   3.109   1.020   3.635  1.1138 -0.9632 -0.1199
 3677SOL    HW314475   3.190   1.072   3.752  0.1763  0.3158 -0.0138
 3677SOL    MW414476   3.125   1.023   3.721 -0.3095 -0.2952  0.2208
 3678SOL     OW14477   5.173   3.006   0.904 -0.0023  0.0928  0.4837
 3678SOL    HW214478   5.244   2.999   0.839  0.8574 -2.2517  1.5534
 3678SOL    HW314479   5.096   2.971   0.859  0.5250 -1.2687  0.6006
 3678SOL    MW414480   5.172   3.000   0.890  0.5147  0.0782 -0.1594
 3679SOL     OW14481   6.273   5.064   0.799  0.6298  0.3047 -0.2514
 3679SOL    HW214482   6.288   4.971   0.814 -2.3100 -0.3454 -0.7188
 3679SOL    HW314483   6.349   5.107   0.838  1.8759 -2.2247  0.3568
 3679SOL    MW414484   6.285   5.057   0.806 -0.6096  0.2575 -0.0289
 3680SOL     OW14485   1.748   1.726   4.976 -0.4803 -0.5892 -0.9357
 3680SOL    HW214486   1.775   1.737   5.067 -2.0912  0.4450 -0.5395
 3680SOL    HW314487   1.822   1.759   4.925  0.4654 -1.2294 -0.0204
 3680SOL    MW414488   1.761   1.732   4.981  0.6711  0.4600  0.0085
 3681SOL     OW14489   2.610   1.651   5.061 -0.7384 -0.8953 -0.1525
 3681SOL    HW214490   2.577   1.601   5.135 -0.7785  1.1021  1.2658
 3681SOL    HW314491   2.705   1.655   5.074 -0.8702  0.5508  0.5680
 3681SOL    MW414492   2.618   1.645   5.072 -0.0327 -0.1201 -0.5958
 3682SOL     OW14493   4.470   0.067   3.935  0.3841 -0.5167  0.3740
 3682SOL    HW214494   4.454   0.036   4.024 -1.0568 -1.0400 -0.0417
 3682SOL    HW314495   4.470   0.163   3.942  0.1928 -0.5552  0.9314
 3682SOL    MW414496   4.468   0.076   3.948 -0.0419  0.0041 -0.2535
 3683SOL     OW14497   0.492   0.269   1.021  0.1925 -0.2688  0.1680
 3683SOL    HW214498   0.579   0.240   1.048  1.3121  0.9714 -1.8022
 3683SOL    HW314499   0.499   0.364   1.017 -1.0346 -0.1932 -0.6753
 3683SOL    MW414500   0.504   0.277   1.024  0.6983 -0.6702  0.6427
 3684SOL     OW14501   4.873   2.791   4.458  0.0398  0.1127  0.5279
 3684SOL    HW214502   4.777   2.793   4.454  0.0372 -0.3227  0.3099
 3684SOL    HW314503   4.895   2.698   4.459  0.4333  0.2040  1.3975
 3684SOL    MW414504   4.863   2.779   4.458 -0.2564 -0.2785  0.0462
 3685SOL     OW14505   6.133   3.668   3.691  0.3665  0.0627 -0.1303
 3685SOL    HW214506   6.064   3.602   3.697  2.0960 -1.7031  2.5465
 3685SOL    HW314507   6.173   3.669   3.778  2.5261  2.3517 -1.0302
 3685SOL    MW414508   6.129   3.659   3.703 -0.1792 -0.2694 -0.1076
 3686SOL     OW14509   4.574   1.687   5.234  0.5043 -0.2381 -0.1402
 3686SOL    HW214510   4.544   1.771   5.202  0.3699  0.4213  1.6069
 3686SOL    HW314511   4.667   1.684   5.211  0.7051  0.7561  0.4820
 3686SOL    MW414512   4.583   1.697   5.227 -0.3070 -0.6636 -0.6062
 3687SOL     OW14513   1.955   2.403   2.196 -0.4742 -0.5477  0.2402
 3687SOL    HW214514   1.924   2.313   2.208 -2.6990  0.4065  2.7980
 3687SOL    HW314515   2.010   2.419   2.273  1.2264 -0.1622 -1.0115
 3687SOL    MW414516   1.958   2.393   2.208 -0.0621 -0.0311 -0.6678
 3688SOL     OW14517   2.259   0.486   5.650  0.0614 -0.5716  0.6219
 3688SOL    HW214518   2.170   0.465   5.676 -0.2442  0.8059  0.7284
 3688SOL    HW314519   2.255   0.499   5.555 -0.2601  1.4033  0.8844
 3688SOL    MW414520   2.247   0.485   5.641  0.3385  0.0918 -0.6400
 3689SOL     OW14521   3.140   0.406   0.990  0.0110  0.0745 -0.4349
 3689SOL    HW214522   3.124   0.318   0.954 -1.5827 -0.1562  0.7027
 3689SOL    HW314523   3.198   0.391   1.064 -1.5413 -0.2896  0.7637
 3689SOL    MW414524   3.145   0.392   0.995  0.1920  0.3290 -0.0253
 3690SOL     OW14525   3.223   0.849   4.927 -0.0349 -0.3736  0.1322
 3690SOL    HW214526   3.311   0.879   4.948  0.0527 -0.8959  0.5048
 3690SOL    HW314527   3.236   0.773   4.871 -0.2624  0.2636 -0.8279
 3690SOL    MW414528   3.236   0.843   4.922  0.1090  0.2339 -0.1286
 3691SOL     OW14529   4.994   4.017   2.208 -0.2234  0.3176 -0.1551
 3691SOL    HW214530   4.983   3.922   2.204 -1.0582  0.4330 -0.9601
 3691SOL    HW314531   4.904   4.050   2.213  0.0595  1.0696 -0.0554
 3691SOL    MW414532   4.980   4.008   2.208 -0.2404 -0.0135  0.2484
 3692SOL     OW14533   0.382   6.382   4.780  0.0478  0.1970 -0.1129
 3692SOL    HW214534   0.459   6.436   4.795 -0.6274  1.0002  0.5687
 3692SOL    HW314535   0.383   6.318   4.851 -0.3121  0.6897  0.3458
 3692SOL    MW414536   0.392   6.380   4.791  0.4272 -0.2358  0.0492
 3693SOL     OW14537   1.997   1.891   2.918 -0.3930 -0.0030  0.3409
 3693SOL    HW214538   1.978   1.860   3.006  0.8562 -1.6690  0.0699
 3693SOL    HW314539   2.090   1.875   2.907  0.0293  2.5371 -0.4071
 3693SOL    MW414540   2.007   1.885   2.928  0.3145  0.1438  0.0098
 3694SOL     OW14541   0.540   5.044   5.377 -0.1458  0.1680 -0.3812
 3694SOL    HW214542   0.559   4.983   5.305 -1.2045 -1.0540  0.3452
 3694SOL    HW314543   0.454   5.081   5.355 -0.3075  0.0654  0.0680
 3694SOL    MW414544   0.531   5.041   5.364  0.0284  0.5731 -0.1006
 3695SOL     OW14545   2.790   4.813   0.030 -0.6260  0.3640 -0.4466
 3695SOL    HW214546   2.765   4.897  -0.007  0.1734  0.0930 -1.6549
 3695SOL    HW314547   2.883   4.803   0.007 -0.8210 -1.0562 -0.7459
 3695SOL    MW414548   2.799   4.823   0.022  0.4267  0.4199 -0.0472
 3696SOL     OW14549   2.607   2.321   3.138 -0.1264 -0.3462  0.0054
 3696SOL    HW214550   2.564   2.406   3.127 -0.0515 -0.4377 -1.1379
 3696SOL    HW314551   2.557   2.261   3.083  0.6876 -0.7254 -0.3382
 3696SOL    MW414552   2.595   2.325   3.129 -0.2606  0.5809  0.7705
 3697SOL     OW14553   2.909   3.398   2.661  0.3074  0.1354  0.3906
 3697SOL    HW214554   2.959   3.462   2.611  2.0822 -0.9383  0.6500
 3697SOL    HW314555   2.964   3.381   2.738 -0.1036 -1.6492  0.3312
 3697SOL    MW414556   2.923   3.404   2.665  0.6356  0.4169  0.2819
 3698SOL     OW14557   1.544   4.556   4.850  0.5876  0.2183 -0.6239
 3698SOL    HW214558   1.554   4.493   4.922  2.5338  1.1946  0.0454
 3698SOL    HW314559   1.501   4.631   4.891  2.2404  1.0167 -0.2578
 3698SOL    MW414560   1.539   4.558   4.865  0.3181 -0.2042 -0.6279
 3699SOL     OW14561   0.435   2.828   5.867  0.1083 -0.0906  0.7247
 3699SOL    HW214562   0.443   2.735   5.846  1.8304  0.4593 -1.4117
 3699SOL    HW314563   0.525   2.856   5.884 -0.2788  1.3541  0.5166
 3699SOL    MW414564   0.448   2.819   5.867 -0.1432 -0.7415  0.0299
 3700SOL     OW14565   4.977   3.824   1.117 -0.6518  0.6211  0.2982
 3700SOL    HW214566   4.968   3.784   1.031  1.4630 -3.7873  1.8541
 3700SOL    HW314567   4.919   3.774   1.174 -0.7185  2.2956  1.8111
 3700SOL    MW414568   4.968   3.812   1.114 -0.4732 -0.6292  0.1023
 3701SOL     OW14569   2.866   2.489   3.948 -0.0111 -0.0543  0.0062
 3701SOL    HW214570   2.848   2.395   3.947  1.3082 -0.3136 -1.1212
 3701SOL    HW314571   2.959   2.497   3.931 -0.1723  1.4763 -0.3604
 3701SOL    MW414572   2.876   2.478   3.945 -0.1515  0.1282 -0.5270
 3702SOL     OW14573   4.246   0.767   4.095 -0.1201 -0.1331 -0.2850
 3702SOL    HW214574   4.183   0.827   4.135  1.8466  0.9910  1.3362
 3702SOL    HW314575   4.265   0.702   4.162  2.5030  1.2089  0.4230
 3702SOL    MW414576   4.241   0.767   4.109  0.3294 -0.0209  0.0746
 3703SOL     OW14577   0.812   3.268   5.225 -0.1970  0.4981 -0.2206
 3703SOL    HW214578   0.760   3.187   5.216  0.6483 -0.1205  0.2876
 3703SOL    HW314579   0.750   3.332   5.258 -1.0279  0.2194 -1.1897
 3703SOL    MW414580   0.797   3.266   5.228 -0.3673  0.3006  0.2424
 3704SOL     OW14581   4.040   1.678   2.631 -0.1812  0.6627 -1.0551
 3704SOL    HW214582   3.959   1.727   2.643 -0.2995  0.1616  0.5537
 3704SOL    HW314583   4.011   1.590   2.607 -0.5535 -0.8273  3.6517
 3704SOL    MW414584   4.025   1.673   2.630  0.5253  0.4258  0.2109
 3705SOL     OW14585   1.724   1.545   2.931  0.0235  0.1722  0.3466
 3705SOL    HW214586   1.749   1.564   3.021  1.2297  2.6919 -0.4343
 3705SOL    HW314587   1.779   1.471   2.906 -0.4770 -0.7017  1.7006
 3705SOL    MW414588   1.734   1.538   2.940  0.1320 -0.4583 -0.1558
 3706SOL     OW14589   0.486   0.360   3.303  0.2665 -0.1884 -0.0430
 3706SOL    HW214590   0.468   0.293   3.237 -1.5053  0.5504 -0.3683
 3706SOL    HW314591   0.545   0.422   3.259 -1.5211  0.7251 -1.2746
 3706SOL    MW414592   0.492   0.359   3.289  0.6890  0.2424  0.7789
 3707SOL     OW14593   0.563   1.170   3.264 -0.0320 -0.0867  0.2804
 3707SOL    HW214594   0.598   1.167   3.353  0.6910 -0.2265  0.0013
 3707SOL    HW314595   0.478   1.128   3.270  0.6565 -1.4788  0.6256
 3707SOL    MW414596   0.557   1.164   3.277 -0.5659  0.1969 -0.4748
 3708SOL     OW14597   1.664   3.512   2.436 -0.3073  0.2465  0.4822
 3708SOL    HW214598   1.665   3.607   2.446 -1.0294  0.2170  0.9167
 3708SOL    HW314599   1.704   3.496   2.351  0.3695  0.9014  0.6674
 3708SOL    MW414600   1.670   3.522   2.426  0.6188  0.0073  0.4595
 3709SOL     OW14601   5.408   1.127   3.074 -0.6046  0.1678 -0.3297
 3709SOL    HW214602   5.492   1.082   3.080 -0.0367  1.3154  1.1669
 3709SOL    HW314603   5.351   1.067   3.026  1.0108 -0.7052 -1.2284
 3709SOL    MW414604   5.412   1.113   3.069  0.2538  0.4617 -0.1815
 3710SOL     OW14605   1.911   6.223   1.652  0.4616  0.5210  0.0741
 3710SOL    HW214606   1.840   6.204   1.591 -0.6664 -0.2264  1.5363
 3710SOL    HW314607   1.934   6.315   1.635  0.1486  0.3378 -1.3980
 3710SOL    MW414608   1.905   6.233   1.642  0.6367  0.3676  0.0625
 3711SOL     OW14609   0.408   5.795   1.141 -0.2359  0.6534  0.0725
 3711SOL    HW214610   0.420   5.712   1.187  0.8926  0.4192 -0.6252
 3711SOL    HW314611   0.367   5.852   1.207 -2.3112 -0.8225  0.1403
 3711SOL    MW414612   0.404   5.792   1.156 -0.3020 -0.0057 -0.2644
 3712SOL     OW14613   6.063   4.382   1.423 -0.7103  0.6033 -0.2368
 3712SOL    HW214614   6.062   4.358   1.330 -2.0735  0.5912 -0.2444
 3712SOL    HW314615   6.062   4.478   1.422  1.9941  0.7030 -0.2021
 3712SOL    MW414616   6.063   4.392   1.410 -0.2308  0.3323 -0.0111
 3713SOL     OW14617   4.390   4.116   0.170  0.4846  0.5222  0.2737
 3713SOL    HW214618   4.415   4.079   0.085 -1.2003  3.1642 -1.5472
 3713SOL    HW314619   4.296   4.100   0.177  0.2571  1.9312  0.7376
 3713SOL    MW414620   4.381   4.109   0.160 -0.1680 -0.1003  0.4065
 3714SOL     OW14621   6.202   2.890   3.503  0.1228  0.1037  0.7017
 3714SOL    HW214622   6.222   2.975   3.464  0.5106 -0.8486 -1.3488
 3714SOL    HW314623   6.127   2.907   3.560  1.3238  2.1339  1.7993
 3714SOL    MW414624   6.195   2.904   3.505 -0.3919  0.2651 -0.6165
 3715SOL     OW14625   1.965   1.080   4.595  0.1895 -0.2820 -0.3673
 3715SOL    HW214626   1.996   1.056   4.508 -1.2819  0.7908 -1.2262
 3715SOL    HW314627   1.923   1.000   4.628 -2.6162  0.2929 -2.2467
 3715SOL    MW414628   1.964   1.066   4.588  0.1811  0.7765  0.4112
 3716SOL     OW14629   5.555   2.751   0.090 -0.1317 -0.6664  0.0941
 3716SOL    HW214630   5.539   2.731  -0.002 -1.1128 -1.3131  0.3865
 3716SOL    HW314631   5.474   2.792   0.120  0.1070 -0.6335  0.7176
 3716SOL    MW414632   5.542   2.754   0.082  0.6117 -0.4221  0.0983
 3717SOL     OW14633   0.853   3.173   6.382  0.0276 -0.6627 -0.2493
 3717SOL    HW214634   0.861   3.231   6.306  1.3562 -0.7404 -0.2060
 3717SOL    HW314635   0.879   3.087   6.349  1.7380 -0.4824  0.5065
 3717SOL    MW414636   0.858   3.169   6.367  0.0058  0.0339  0.2999
 3718SOL     OW14637   2.705   3.033   6.317  0.1890 -0.1960 -0.2814
 3718SOL    HW214638   2.764   3.108   6.326 -0.0703 -0.1319  1.1349
 3718SOL    HW314639   2.687   3.028   6.223  0.5299  1.2732 -0.4530
 3718SOL    MW414640   2.710   3.042   6.306 -0.4604 -0.6140 -0.4094
 3719SOL     OW14641   6.273   6.001   4.752 -0.2959 -0.3377 -0.2074
 3719SOL    HW214642   6.309   6.061   4.686 -3.0565  0.8171 -0.8042
 3719SOL    HW314643   6.337   6.003   4.823 -0.2918  3.5667 -0.0963
 3719SOL    MW414644   6.286   6.009   4.753 -0.0857 -0.4964  0.6308
 3720SOL     OW14645   5.237   3.744   1.908 -0.3591  0.2617 -0.2227
 3720SOL    HW214646   5.210   3.683   1.840 -1.2076  0.7666 -0.3550
 3720SOL    HW314647   5.315   3.787   1.872  0.0813 -0.5260 -0.2429
 3720SOL    MW414648   5.244   3.742   1.894 -0.6826 -0.1118 -0.1281
 3721SOL     OW14649   0.165   5.446   1.314 -0.1722  0.2406  0.4626
 3721SOL    HW214650   0.214   5.367   1.339 -0.3214 -0.2719 -0.7817
 3721SOL    HW314651   0.213   5.518   1.355  0.8718 -0.3601  0.3293
 3721SOL    MW414652   0.178   5.445   1.323 -0.3408 -0.1355 -0.5252
 3722SOL     OW14653   3.932   5.035   1.834  0.2358 -0.6129  0.3819
 3722SOL    HW214654   3.849   5.030   1.882 -0.4430  1.7048 -0.4047
 3722SOL    HW314655   3.934   5.124   1.800  1.9058 -1.3842 -1.7449
 3722SOL    MW414656   3.922   5.046   1.836  0.2398 -0.5478 -0.3446
 3723SOL     OW14657   4.405   3.262   6.329  0.4289  0.4383 -0.0065
 3723SOL    HW214658   4.363   3.345   6.352  1.0913  1.0940 -1.0708
 3723SOL    HW314659   4.491   3.267   6.371  0.4114  0.2171  0.0560
 3723SOL    MW414660   4.411   3.273   6.338 -0.0253  0.2407  0.3833
 3724SOL     OW14661   5.471   1.045   0.262 -0.6009 -0.0039  0.4235
 3724SOL    HW214662   5.520   0.964   0.273 -2.2150 -1.0889  0.0669
 3724SOL    HW314663   5.429   1.060   0.347  0.1981  0.8455  0.6898
 3724SOL    MW414664   5.472   1.036   0.274  0.3554 -0.4475 -0.1004
 3725SOL     OW14665   1.038   3.566   4.103 -0.3836 -0.3644  0.7822
 3725SOL    HW214666   0.951   3.604   4.095 -0.5684 -0.5158  1.9104
 3725SOL    HW314667   1.023   3.473   4.117 -0.0829 -0.2819  1.7387
 3725SOL    MW414668   1.025   3.559   4.104  0.3995 -0.6950  0.4239
 3726SOL     OW14669   4.803   0.039   1.151 -0.2875 -0.3678  0.2897
 3726SOL    HW214670   4.808  -0.037   1.093  1.5014  0.2105 -0.3687
 3726SOL    HW314671   4.873   0.097   1.121  1.8767 -0.7559  4.0573
 3726SOL    MW414672   4.813   0.037   1.139  0.0822  0.1765  0.0564
 3727SOL     OW14673   2.203   3.543   1.687 -0.2654 -0.2702 -0.1180
 3727SOL    HW214674   2.183   3.450   1.679  1.1950 -0.6025 -0.3582
 3727SOL    HW314675   2.231   3.569   1.599 -1.2281  0.5591 -0.1975
 3727SOL    MW414676   2.204   3.534   1.675  0.0011 -0.4471  0.3849
 3728SOL     OW14677   3.265   3.279   1.845  0.4818  0.0250  0.9773
 3728SOL    HW214678   3.314   3.197   1.853  0.1856 -0.2835 -0.1653
 3728SOL    HW314679   3.219   3.288   1.928 -0.3289 -1.5314  0.7325
 3728SOL    MW414680   3.266   3.269   1.857 -0.5544  0.1091  0.0172
 3729SOL     OW14681   0.700   2.054   1.257 -0.1825  0.1375  0.2103
 3729SOL    HW214682   0.641   2.085   1.188 -1.4287  0.7124  1.4912
 3729SOL    HW314683   0.766   2.003   1.210  0.1709  2.1396 -1.6556
 3729SOL    MW414684   0.701   2.052   1.241  0.4366  0.5548 -0.7533
 3730SOL     OW14685   5.840   3.750   4.585 -0.2308  0.7395 -0.3784
 3730SOL    HW214686   5.811   3.664   4.617 -2.3294  1.2781 -0.6619
 3730SOL    HW314687   5.834   3.743   4.490  1.7467  0.5401 -0.5281
 3730SOL    MW414688   5.835   3.738   4.577 -0.1449 -0.2475  0.1279
 3731SOL     OW14689   5.135   4.917   5.720 -0.1627 -0.1148  0.0356
 3731SOL    HW214690   5.113   5.008   5.703  0.8817 -0.0719 -1.2472
 3731SOL    HW314691   5.168   4.917   5.810  1.2725  1.0915 -0.4400
 3731SOL    MW414692   5.137   4.929   5.730 -0.1578  0.2771 -0.1906
 3732SOL     OW14693   5.926   2.097   5.738 -0.2808  0.5836  0.0696
 3732SOL    HW214694   5.924   2.069   5.646 -0.3874  0.2210  0.1806
 3732SOL    HW314695   6.019   2.092   5.763 -0.3485 -0.0590  0.2036
 3732SOL    MW414696   5.938   2.093   5.729 -0.0040  0.2876 -0.5580
 3733SOL     OW14697   2.049   0.033   1.546  0.1630  0.1031 -0.3917
 3733SOL    HW214698   2.125   0.071   1.590  0.9212  0.8220 -2.2256
 3733SOL    HW314699   1.993   0.108   1.527  1.2248  0.3141 -3.1786
 3733SOL    MW414700   2.052   0.048   1.549 -0.5752 -0.0520 -0.0814
 3734SOL     OW14701   4.299   5.268   4.694  0.2428  0.1376  0.5903
 3734SOL    HW214702   4.212   5.283   4.657  0.4186  0.4210  0.2873
 3734SOL    HW314703   4.345   5.352   4.684  0.4528  0.0787  1.0190
 3734SOL    MW414704   4.294   5.281   4.688  0.4558  0.5814 -0.3669
 3735SOL     OW14705   4.796   2.706   1.344  0.2884  0.0878 -0.6049
 3735SOL    HW214706   4.787   2.799   1.362  1.9709  0.0973  0.4202
 3735SOL    HW314707   4.851   2.673   1.415  0.5541 -1.4962 -1.4936
 3735SOL    MW414708   4.802   2.714   1.356  0.0604 -0.1455  0.1838
 3736SOL     OW14709   0.087   2.094   2.401  0.6088  0.5174 -0.3714
 3736SOL    HW214710   0.002   2.123   2.436  1.0282  0.9691  0.2986
 3736SOL    HW314711   0.076   2.000   2.386  0.4979  0.2447  1.2767
 3736SOL    MW414712   0.074   2.086   2.404  0.6465  0.2950  0.3123
 3737SOL     OW14713   6.002   5.545   0.457 -0.2894  0.8453  0.0269
 3737SOL    HW214714   6.069   5.534   0.390 -0.3066 -2.2199  0.3324
 3737SOL    HW314715   6.042   5.600   0.523 -0.2283  3.8737 -2.3204
 3737SOL    MW414716   6.016   5.551   0.457 -0.4446  0.3807  0.2977
 3738SOL     OW14717   4.585   4.033   1.219  0.2178  0.7035 -0.4834
 3738SOL    HW214718   4.501   4.032   1.264 -0.3034 -0.7311 -1.4181
 3738SOL    HW314719   4.650   4.040   1.289 -0.6266  0.1810  0.3796
 3738SOL    MW414720   4.582   4.034   1.234 -0.3618 -0.1173 -0.2372
 3739SOL     OW14721   2.865   3.580   4.496  0.0970  0.3230  0.0079
 3739SOL    HW214722   2.817   3.635   4.558 -0.4559 -1.1971  1.0112
 3739SOL    HW314723   2.956   3.609   4.503 -0.1344  0.9133  0.7123
 3739SOL    MW414724   2.870   3.591   4.505 -0.2922  0.4795  0.6074
 3740SOL     OW14725   2.531   0.067   6.110  0.4940  0.0520  0.3119
 3740SOL    HW214726   2.553   0.064   6.017 -1.2856  0.2906 -0.1544
 3740SOL    HW314727   2.604   0.113   6.151  1.0783  0.3486 -1.0324
 3740SOL    MW414728   2.543   0.073   6.103 -0.2648 -0.6250  0.2422
 3741SOL     OW14729   4.801   2.631   6.105  0.1652  0.0096 -0.5126
 3741SOL    HW214730   4.851   2.551   6.120 -0.7211 -0.3164  0.9986
 3741SOL    HW314731   4.851   2.680   6.041  0.5394 -1.9341 -1.7982
 3741SOL    MW414732   4.814   2.627   6.098  0.2467  0.0057 -0.3363
 3742SOL     OW14733   2.565   4.688   0.157  0.1995  0.6528 -0.0926
 3742SOL    HW214734   2.642   4.730   0.119  1.6445 -2.4090 -0.8197
 3742SOL    HW314735   2.587   4.677   0.249  0.5333  0.0571 -0.2378
 3742SOL    MW414736   2.578   4.692   0.164 -0.2624 -0.2326 -0.6037
 3743SOL     OW14737   3.165   0.042   6.364 -0.6255 -0.4078  0.0413
 3743SOL    HW214738   3.071   0.028   6.350 -1.0287  1.8440  0.0751
 3743SOL    HW314739   3.202   0.040   6.276 -1.1026  0.8768 -0.2201
 3743SOL    MW414740   3.157   0.040   6.350 -0.4332  0.7252  0.1071
 3744SOL     OW14741   5.520   4.251   4.656  0.5268 -0.1339  0.0334
 3744SOL    HW214742   5.506   4.216   4.744  0.6942 -0.8867 -0.2331
 3744SOL    HW314743   5.520   4.174   4.599  0.7837  0.3122 -0.5818
 3744SOL    MW414744   5.518   4.236   4.660  0.1911 -0.2557  0.4122
 3745SOL     OW14745   0.419   5.995   0.195 -0.2419  0.0469 -0.3375
 3745SOL    HW214746   0.386   5.937   0.127 -2.8804  0.8224  0.1476
 3745SOL    HW314747   0.395   5.952   0.277  0.9746  0.1450  0.0955
 3745SOL    MW414748   0.411   5.982   0.197  0.3347  0.1161 -0.2132
 3746SOL     OW14749   3.171   4.882   0.963 -0.1606  0.2920 -0.3114
 3746SOL    HW214750   3.156   4.792   0.934 -1.5600  0.2476  0.4654
 3746SOL    HW314751   3.220   4.923   0.891 -0.0952 -0.8897 -0.9660
 3746SOL    MW414752   3.176   4.875   0.950 -0.0480 -0.9946 -0.6109
 3747SOL     OW14753   5.574   1.643   1.805  0.4041 -0.0411 -0.1705
 3747SOL    HW214754   5.643   1.588   1.842 -0.5494 -0.6868  0.6962
 3747SOL    HW314755   5.538   1.591   1.733 -1.1360 -1.0275  1.2451
 3747SOL    MW414756   5.579   1.629   1.801 -0.5355 -0.3103  0.4142
 3748SOL     OW14757   0.401   4.459   0.223 -0.0264  0.4344  0.2356
 3748SOL    HW214758   0.335   4.409   0.174 -0.1861  0.6869  0.1938
 3748SOL    HW314759   0.392   4.429   0.313 -0.2287  0.5011  0.2380
 3748SOL    MW414760   0.391   4.448   0.228  0.5346 -0.0783 -0.5152
 3749SOL     OW14761   5.553   0.168   1.423 -0.6742 -0.0383 -0.3129
 3749SOL    HW214762   5.476   0.172   1.368 -0.6689  1.0278 -0.2738
 3749SOL    HW314763   5.524   0.122   1.502 -0.8379 -1.0329 -0.9502
 3749SOL    MW414764   5.539   0.163   1.426  0.1778 -0.3524  0.6688
 3750SOL     OW14765   4.263   5.474   2.217 -0.7320 -0.4403 -0.2128
 3750SOL    HW214766   4.222   5.559   2.233  0.4266  0.9436 -3.5920
 3750SOL    HW314767   4.248   5.457   2.124  0.3973 -3.2216  0.0018
 3750SOL    MW414768   4.256   5.483   2.207  0.4792 -0.1774  0.3909
 3751SOL     OW14769   3.871   6.047   0.282  0.0276  0.4960  0.1037
 3751SOL    HW214770   3.943   6.052   0.345  1.6354  0.2227 -1.6440
 3751SOL    HW314771   3.895   5.975   0.224 -2.3621 -0.5325  0.2634
 3751SOL    MW414772   3.884   6.038   0.283  0.6321  0.0948 -0.1092
 3752SOL     OW14773   6.079   5.075   2.115  0.0867 -0.0729 -0.7255
 3752SOL    HW214774   6.169   5.042   2.105 -0.0982 -0.5974 -0.6317
 3752SOL    HW314775   6.056   5.056   2.206  0.5737  1.7974 -0.1451
 3752SOL    MW414776   6.088   5.068   2.126  0.0519 -0.2929  0.2352
 3753SOL     OW14777   3.274   5.898   6.209  0.6314 -0.6059  0.2786
 3753SOL    HW214778   3.223   5.819   6.190 -0.6761  0.6518 -1.8551
 3753SOL    HW314779   3.233   5.935   6.287  1.7508 -2.3519  1.7905
 3753SOL    MW414780   3.262   5.892   6.217  0.0637 -0.2706 -0.0384
 3754SOL     OW14781   1.001   5.015   4.663 -0.3208  0.0021  0.2431
 3754SOL    HW214782   0.982   5.060   4.746  1.3977  2.9350 -0.7979
 3754SOL    HW314783   0.994   5.084   4.597 -0.0321 -1.9019 -1.8702
 3754SOL    MW414784   0.998   5.030   4.665 -0.4073  0.1074  0.0594
 3755SOL     OW14785   1.997   4.291   2.471  0.7352 -0.4236 -0.1159
 3755SOL    HW214786   2.076   4.254   2.431  0.2939 -0.4786 -0.9726
 3755SOL    HW314787   1.998   4.383   2.442  0.1359 -0.5959 -0.7066
 3755SOL    MW414788   2.008   4.299   2.462 -0.2607 -0.1219 -0.3335
 3756SOL     OW14789   4.374   4.344   4.719 -0.5233  0.1005 -0.5433
 3756SOL    HW214790   4.378   4.260   4.764 -0.2097  0.0316 -0.6992
 3756SOL    HW314791   4.463   4.378   4.724 -0.5204  0.1581 -0.9834
 3756SOL    MW414792   4.386   4.337   4.726  0.1330 -0.2348  0.0281
 3757SOL     OW14793   0.715   0.176   0.101  0.0719 -0.1385  0.6063
 3757SOL    HW214794   0.721   0.260   0.148 -0.2336  0.0311  0.3511
 3757SOL    HW314795   0.661   0.121   0.158  2.2358 -0.9855  1.9273
 3757SOL    MW414796   0.708   0.180   0.115  0.2196  0.0844  0.5674
 3758SOL     OW14797   3.866   3.791   0.498  0.0755 -0.8216 -0.2312
 3758SOL    HW214798   3.770   3.793   0.501 -0.1215  2.1333 -2.9801
 3758SOL    HW314799   3.887   3.739   0.421  0.6513 -0.7577 -0.1184
 3758SOL    MW414800   3.856   3.785   0.488 -0.3798  0.3289 -0.1108
 3759SOL     OW14801   3.897   0.554   1.312  0.0091 -0.1540 -0.4120
 3759SOL    HW214802   3.851   0.594   1.386 -2.3605 -3.2802  0.0021
 3759SOL    HW314803   3.965   0.501   1.353 -1.4055 -2.0124 -0.3358
 3759SOL    MW414804   3.900   0.553   1.327 -0.0975 -0.3776 -0.3351
 3760SOL     OW14805   5.024   5.259   6.239  0.1641  0.0657 -0.2575
 3760SOL    HW214806   5.097   5.279   6.298 -1.4692  1.5565  1.3637
 3760SOL    HW314807   5.061   5.272   6.151  1.9524  0.4187  0.4936
 3760SOL    MW414808   5.039   5.264   6.235  0.3102  0.1469  0.2033
 3761SOL     OW14809   2.181   0.475   1.441 -0.2288 -1.0540 -0.1532
 3761SOL    HW214810   2.104   0.418   1.445  0.0091 -1.4361 -0.9366
 3761SOL    HW314811   2.255   0.418   1.460 -0.1495 -0.6275  0.8988
 3761SOL    MW414812   2.180   0.460   1.444  0.1001  0.3182 -0.1458
 3762SOL     OW14813   5.657   4.910   0.870  0.1097 -0.2552  0.2732
 3762SOL    HW214814   5.719   4.856   0.919  0.3882 -0.8823 -0.7401
 3762SOL    HW314815   5.636   4.858   0.793  0.2115  0.9918 -0.6252
 3762SOL    MW414816   5.662   4.896   0.867  0.4758 -0.1675  0.0859
 3763SOL     OW14817   1.655   1.804   0.114 -0.4765  0.0568  0.6830
 3763SOL    HW214818   1.639   1.763   0.029 -0.4453 -1.2622  1.2899
 3763SOL    HW314819   1.572   1.844   0.137 -0.5058  0.3650  0.0663
 3763SOL    MW414820   1.642   1.804   0.106  0.5053  0.1060 -0.3516
 3764SOL     OW14821   0.697   3.664   0.259  0.0406  0.2929 -0.1563
 3764SOL    HW214822   0.749   3.740   0.286  1.9124 -1.2636  0.8628
 3764SOL    HW314823   0.628   3.658   0.325  0.0350  0.9441 -0.0943
 3764SOL    MW414824   0.695   3.673   0.272  0.6120  0.1179  0.3410
 3765SOL     OW14825   2.617   5.216   5.353  0.0815 -0.1859  0.1270
 3765SOL    HW214826   2.680   5.166   5.404  0.3254  1.3459  1.4220
 3765SOL    HW314827   2.544   5.231   5.413  0.9392  2.7990  0.6080
 3765SOL    MW414828   2.616   5.212   5.368 -0.4735 -0.5060  0.2292
 3766SOL     OW14829   6.163   2.677   1.267 -0.3163 -0.2386  0.2162
 3766SOL    HW214830   6.235   2.655   1.325 -0.8719  0.9371  1.4075
 3766SOL    HW314831   6.116   2.748   1.312 -1.3118  0.0816 -1.2339
 3766SOL    MW414832   6.166   2.684   1.280  0.1932  0.2333 -0.3154
 3767SOL     OW14833   3.144   2.075   4.759  0.2863 -0.4174  0.3731
 3767SOL    HW214834   3.152   2.171   4.760  0.1398 -0.2200 -3.4997
 3767SOL    HW314835   3.050   2.059   4.757  0.3046 -0.6804  1.3603
 3767SOL    MW414836   3.133   2.086   4.759 -0.1419 -0.1179  0.3077
 3768SOL     OW14837   0.417   2.845   2.024  0.3326 -0.3354 -0.4968
 3768SOL    HW214838   0.434   2.896   2.103  1.1274 -0.7744 -0.3784
 3768SOL    HW314839   0.348   2.894   1.978  0.8491  0.6715 -0.2200
 3768SOL    MW414840   0.410   2.859   2.028  0.0702 -0.0251 -0.6022
 3769SOL     OW14841   4.831   6.265   0.949  0.5917  0.5384 -0.8395
 3769SOL    HW214842   4.879   6.182   0.946  1.2838  0.7387  2.1138
 3769SOL    HW314843   4.741   6.240   0.928  0.9205 -0.8308 -0.7450
 3769SOL    MW414844   4.825   6.251   0.946 -0.6723 -0.2031  0.6275
 3770SOL     OW14845   4.211   2.135   3.414  0.1262  0.3879 -0.2971
 3770SOL    HW214846   4.278   2.140   3.483  0.0965 -1.0991 -0.1272
 3770SOL    HW314847   4.248   2.073   3.350 -1.4046 -1.0985  0.1961
 3770SOL    MW414848   4.225   2.127   3.414  0.5723  0.7932 -0.0798
 3771SOL     OW14849   5.176   0.055   1.588 -0.6068  0.0498 -0.4363
 3771SOL    HW214850   5.269   0.033   1.586 -0.7984 -0.7962 -2.1918
 3771SOL    HW314851   5.144   0.017   1.670  0.5269  0.0788  0.0390
 3771SOL    MW414852   5.184   0.047   1.598 -0.1744  0.0251  0.1598
 3772SOL     OW14853   1.203   2.155   6.148  0.1424 -0.2889 -0.3882
 3772SOL    HW214854   1.262   2.169   6.222  1.3384 -2.2601 -0.8778
 3772SOL    HW314855   1.133   2.099   6.184  0.6329 -1.1055 -0.6864
 3772SOL    MW414856   1.201   2.149   6.163  0.1596  0.2204 -0.2558
 3773SOL     OW14857   0.718   1.990   3.574 -0.2514  0.2346 -0.1525
 3773SOL    HW214858   0.685   2.080   3.569 -0.1460  0.3177  0.5803
 3773SOL    HW314859   0.639   1.937   3.586 -0.1236  0.4644  1.9484
 3773SOL    MW414860   0.703   1.995   3.575 -0.2192 -0.1821 -0.2533
 3774SOL     OW14861   5.591   3.989   5.114 -0.2962  0.5707 -0.7988
 3774SOL    HW214862   5.606   3.902   5.077  1.3759  1.2177 -1.7633
 3774SOL    HW314863   5.528   4.030   5.055 -1.0683  0.0623 -0.3565
 3774SOL    MW414864   5.585   3.983   5.102  0.6096 -0.1983  0.1103
 3775SOL     OW14865   5.364   1.176   2.386  0.0470  0.3446 -0.4605
 3775SOL    HW214866   5.459   1.180   2.397  0.3780 -1.6746 -1.9757
 3775SOL    HW314867   5.342   1.257   2.340  1.1511  0.5129 -0.7314
 3775SOL    MW414868   5.374   1.187   2.381  0.0117  0.8580 -1.0704
 3776SOL     OW14869   2.760   3.292   5.966  0.4876  0.1151 -0.3501
 3776SOL    HW214870   2.827   3.277   5.899 -2.2114  0.7616 -3.4578
 3776SOL    HW314871   2.708   3.211   5.966  0.0103  0.4117  0.4382
 3776SOL    MW414872   2.762   3.279   5.957 -0.5919 -0.0981  0.3528
 3777SOL     OW14873   0.660   4.031   0.613  0.2561  0.2935 -0.0019
 3777SOL    HW214874   0.730   4.057   0.674 -0.1144  2.7866 -0.5337
 3777SOL    HW314875   0.705   4.016   0.530  0.2572  1.2222 -0.1749
 3777SOL    MW414876   0.675   4.033   0.610  0.0777  0.2915 -0.3769
 3778SOL     OW14877   2.036   1.581   4.702  0.6292 -0.6208  0.0802
 3778SOL    HW214878   2.066   1.490   4.700  0.9309 -0.5150 -0.4159
 3778SOL    HW314879   2.115   1.632   4.718  0.5802 -0.3964 -0.3816
 3778SOL    MW414880   2.051   1.576   4.704  0.2746  0.6563 -0.1868
 3779SOL     OW14881   0.731   3.595   3.799 -0.5731  0.1645 -0.1496
 3779SOL    HW214882   0.715   3.509   3.760 -0.0571  0.5054 -1.1449
 3779SOL    HW314883   0.750   3.652   3.725  2.0055  0.4975  0.6912
 3779SOL    MW414884   0.731   3.591   3.784 -0.7367 -0.2267  0.0071
 3780SOL     OW14885   6.309   4.783   5.923 -0.1937 -0.1939 -0.0995
 3780SOL    HW214886   6.239   4.845   5.905  0.4366  0.3268 -0.8498
 3780SOL    HW314887   6.308   4.773   6.018  0.7566  2.2930  0.2633
 3780SOL    MW414888   6.300   4.790   5.933  0.2069 -0.0791  0.1993
 3781SOL     OW14889   5.068   2.581   2.216  0.2847 -0.0567 -0.0886
 3781SOL    HW214890   5.154   2.623   2.220  0.0870  0.4699 -1.0719
 3781SOL    HW314891   5.073   2.511   2.281  0.6053  1.4998  1.6498
 3781SOL    MW414892   5.080   2.577   2.225 -0.2527 -0.1341  0.2010
 3782SOL     OW14893   5.931   3.306   2.013  0.1884  0.2760  0.0965
 3782SOL    HW214894   5.898   3.273   2.097 -0.1506  0.2144 -0.0626
 3782SOL    HW314895   5.961   3.228   1.967  2.3250  0.4891  0.9936
 3782SOL    MW414896   5.931   3.292   2.018  0.1141  0.1427  0.1016
 3783SOL     OW14897   6.256   3.329   1.574  0.0278 -0.0995  0.2427
 3783SOL    HW214898   6.268   3.247   1.527  0.3619  0.2358 -0.2783
 3783SOL    HW314899   6.179   3.369   1.534  0.1992  0.0960  0.0977
 3783SOL    MW414900   6.248   3.324   1.562 -0.2854 -0.1854  0.9893
 3784SOL     OW14901   1.749   2.508   5.001  0.3994 -0.2369  0.4918
 3784SOL    HW214902   1.842   2.510   4.979 -0.2461 -0.4438 -2.9098
 3784SOL    HW314903   1.729   2.415   5.014  0.3117 -0.4718 -1.0741
 3784SOL    MW414904   1.758   2.496   5.000  0.2149  0.1442  0.0636
 3785SOL     OW14905   3.430   4.634   5.811 -0.1385  0.1339 -0.6046
 3785SOL    HW214906   3.371   4.700   5.847 -0.3127  0.0726 -0.7770
 3785SOL    HW314907   3.517   4.674   5.817 -0.1815  0.1741 -0.2345
 3785SOL    MW414908   3.433   4.648   5.816  0.1459 -0.0440  0.6350
 3786SOL     OW14909   4.247   5.045   5.216 -0.4561  0.3763 -0.6385
 3786SOL    HW214910   4.330   4.998   5.230 -0.8051  0.3027  1.4558
 3786SOL    HW314911   4.188   4.979   5.179 -0.4776 -0.4649  0.8153
 3786SOL    MW414912   4.250   5.030   5.213 -0.3211 -0.2347 -0.7416
 3787SOL     OW14913   5.714   6.127   0.331 -0.0043  0.5872  0.3259
 3787SOL    HW214914   5.792   6.182   0.322  0.4671 -0.3021 -1.9399
 3787SOL    HW314915   5.708   6.107   0.424  1.7832  1.6459  0.7072
 3787SOL    MW414916   5.723   6.132   0.342 -0.3608  0.0702  0.0810
 3788SOL     OW14917   1.387   5.665   5.305 -0.0516 -0.0678  0.6281
 3788SOL    HW214918   1.335   5.608   5.248  1.3074  0.1909 -0.9612
 3788SOL    HW314919   1.452   5.607   5.343  0.9034  0.2591 -0.4553
 3788SOL    MW414920   1.388   5.650   5.302 -0.4328 -0.3633  0.5793
 3789SOL     OW14921   4.232   2.622   6.383 -0.5483  0.4251  0.0589
 3789SOL    HW214922   4.255   2.623   6.290 -0.2894  0.3508  0.1216
 3789SOL    HW314923   4.302   2.572   6.425 -0.9326  0.0275  0.2261
 3789SOL    MW414924   4.244   2.616   6.376 -0.1645 -0.6017 -0.2586
 3790SOL     OW14925   0.410   4.825   3.142  0.5032  0.7052 -0.8558
 3790SOL    HW214926   0.320   4.834   3.111 -0.1080 -0.2566  0.5008
 3790SOL    HW314927   0.415   4.883   3.218  0.9106  0.5119 -0.7293
 3790SOL    MW414928   0.399   4.834   3.148 -0.5592 -0.2037  0.0402
 3791SOL     OW14929   2.252   3.128   0.081 -0.4483 -0.6477  0.7159
 3791SOL    HW214930   2.345   3.127   0.102 -0.7124  2.2572  2.6597
 3791SOL    HW314931   2.238   3.213   0.040 -2.1165 -1.4570 -0.5153
 3791SOL    MW414932   2.262   3.139   0.078  0.7040  0.5486 -0.2521
 3792SOL     OW14933   2.100   2.452   6.186  0.4053 -0.5111  0.2063
 3792SOL    HW214934   2.125   2.543   6.206  0.7803 -0.7179  0.7153
 3792SOL    HW314935   2.183   2.409   6.164  0.1177 -0.5313 -0.8539
 3792SOL    MW414936   2.114   2.458   6.186  0.6854 -0.5443 -0.2459
 3793SOL     OW14937   5.647   4.052   1.661 -0.3678  0.7793  0.2010
 3793SOL    HW214938   5.587   3.988   1.699  0.2578  1.0275  1.7043
 3793SOL    HW314939   5.733   4.009   1.663  0.1173  1.7406  1.5394
 3793SOL    MW414940   5.651   4.038   1.667  0.1571 -0.0763  0.0879
 3794SOL     OW14941   3.186   4.111   0.303  0.5119 -0.4677 -0.0667
 3794SOL    HW214942   3.135   4.090   0.225  1.2323 -1.6870 -0.2433
 3794SOL    HW314943   3.184   4.206   0.309 -0.8564 -0.4402 -0.6774
 3794SOL    MW414944   3.179   4.121   0.294  0.2628 -0.5217  0.0154
 3795SOL     OW14945   1.766   4.480   5.163  0.4841  0.2729 -0.0135
 3795SOL    HW214946   1.771   4.426   5.241 -0.4076 -0.5704 -0.5187
 3795SOL    HW314947   1.723   4.561   5.192  2.0513  0.8526  0.7993
 3795SOL    MW414948   1.761   4.484   5.177  0.0075  0.5364  0.5709
 3796SOL     OW14949   2.526   2.741   2.881  0.0342 -0.0168  0.2517
 3796SOL    HW214950   2.466   2.815   2.889 -0.8975 -0.5508 -1.4618
 3796SOL    HW314951   2.609   2.774   2.916 -0.1884  2.0448 -1.0218
 3796SOL    MW414952   2.529   2.755   2.887  0.2940 -0.2454  0.2457
 3797SOL     OW14953   4.557   4.328   0.218 -0.1483 -0.5949 -0.2101
 3797SOL    HW214954   4.575   4.345   0.311 -0.2285 -0.8891 -0.1398
 3797SOL    HW314955   4.509   4.245   0.218 -0.7094 -0.2724 -0.4685
 3797SOL    MW414956   4.553   4.319   0.231 -0.4340 -0.1427 -0.3341
 3798SOL     OW14957   3.247   1.944   3.737  0.1622 -0.2183 -0.2423
 3798SOL    HW214958   3.302   1.998   3.794 -1.5125  0.2627  0.9845
 3798SOL    HW314959   3.291   1.859   3.736  1.4147  0.4042 -0.0577
 3798SOL    MW414960   3.260   1.940   3.744  0.0537  0.3909  0.3757
 3799SOL     OW14961   3.251   4.914   1.220  0.1367  0.7007  0.3077
 3799SOL    HW214962   3.204   4.986   1.262 -0.6665  0.3803 -0.0305
 3799SOL    HW314963   3.221   4.915   1.129  1.1735  0.8122 -0.0498
 3799SOL    MW414964   3.241   4.923   1.214 -0.4209  0.3837  0.0813
 3800SOL     OW14965   5.064   1.495   2.262 -0.0995  0.2777  0.0499
 3800SOL    HW214966   5.049   1.518   2.353  1.0892 -0.7086  0.5340
 3800SOL    HW314967   4.984   1.449   2.235  0.7817 -2.4735  1.6989
 3800SOL    MW414968   5.051   1.492   2.270 -0.0918 -0.5535  0.6076
 3801SOL     OW14969   4.069   0.526   5.071  0.6718 -0.1373  0.2237
 3801SOL    HW214970   4.073   0.551   4.979 -0.0300  1.5468  0.6241
 3801SOL    HW314971   3.982   0.552   5.100  0.5852 -1.3692  1.1936
 3801SOL    MW414972   4.058   0.532   5.063 -0.0024 -0.5757 -0.1292
 3802SOL     OW14973   3.322   3.940   2.816 -0.0863 -0.2466 -0.3572
 3802SOL    HW214974   3.348   3.911   2.729  0.1645  0.2673 -0.4567
 3802SOL    HW314975   3.371   4.021   2.830 -1.7744  0.8821 -0.6492
 3802SOL    MW414976   3.332   3.947   2.806 -0.3352 -0.4916  0.4010
 3803SOL     OW14977   5.071   0.166   4.409  0.0217  0.2140  0.3134
 3803SOL    HW214978   4.997   0.116   4.443 -0.2511 -0.1320 -0.7553
 3803SOL    HW314979   5.035   0.214   4.334  1.2339 -1.3329 -1.3642
 3803SOL    MW414980   5.057   0.166   4.403  0.2230 -0.6002  0.2037
 3804SOL     OW14981   5.983   3.206   4.755 -0.1701 -0.2136  0.3171
 3804SOL    HW214982   5.992   3.271   4.823 -0.3195 -1.7139  1.8400
 3804SOL    HW314983   5.888   3.191   4.749 -0.0833 -0.9314  0.6386
 3804SOL    MW414984   5.971   3.212   4.763 -0.1121  0.4690  0.0319
 3805SOL     OW14985   2.128   2.758   6.230  0.2536  0.8273  0.2057
 3805SOL    HW214986   2.140   2.853   6.242  2.6701  0.6830 -0.5542
 3805SOL    HW314987   2.085   2.729   6.310 -1.3991  2.6881  0.0594
 3805SOL    MW414988   2.124   2.767   6.242  0.1209 -0.0941 -0.3289
 3806SOL     OW14989   4.161   0.171   6.204 -0.2367  0.3477 -0.0568
 3806SOL    HW214990   4.086   0.141   6.255 -0.0284 -1.3186 -0.6433
 3806SOL    HW314991   4.124   0.199   6.120 -0.1474 -2.1893 -1.0584
 3806SOL    MW414992   4.146   0.170   6.199  0.3327 -0.3349 -0.1605
 3807SOL     OW14993   1.836   2.373   6.055 -0.6655 -0.2655 -0.2091
 3807SOL    HW214994   1.912   2.400   6.108 -1.3653 -0.1490  0.7657
 3807SOL    HW314995   1.873   2.351   5.969  0.1534  2.2356 -0.5668
 3807SOL    MW414996   1.851   2.373   6.051  0.1059 -0.7726  0.3787
 3808SOL     OW14997   4.816   3.718   6.269  0.3445  0.1850  0.4753
 3808SOL    HW214998   4.750   3.692   6.205  0.6779 -0.0028  0.2058
 3808SOL    HW314999   4.821   3.813   6.261 -1.2598  0.4252  1.8368
 3808SOL    MW415000   4.808   3.727   6.259 -0.2286 -0.2426  0.1014
 3809SOL     OW15001   3.239   0.950   2.595  0.0003  0.3299 -0.0194
 3809SOL    HW215002   3.313   0.964   2.535  0.1333 -0.9564 -0.1889
 3809SOL    HW315003   3.196   1.035   2.600 -0.0782  0.4580 -2.0498
 3809SOL    MW415004   3.243   0.963   2.587  0.3135 -0.8588 -0.2854
 3810SOL     OW15005   0.840   4.898   2.118 -0.6786 -0.3532  0.1147
 3810SOL    HW215006   0.829   4.809   2.151 -0.3584  0.3401  2.1947
 3810SOL    HW315007   0.758   4.917   2.072 -1.1653 -1.3533  0.5481
 3810SOL    MW415008   0.828   4.889   2.116 -0.1927 -0.7169 -0.1333
 3811SOL     OW15009   2.128   2.509   0.405 -0.0947  0.4609 -0.2131
 3811SOL    HW215010   2.120   2.450   0.330  1.1548  1.3631 -1.0861
 3811SOL    HW315011   2.090   2.591   0.375  1.3382  1.1328 -0.2381
 3811SOL    MW415012   2.122   2.512   0.391 -0.0137  0.2695 -0.4077
 3812SOL     OW15013   0.896   3.485   3.168  0.4845 -0.2764 -0.5301
 3812SOL    HW215014   0.853   3.515   3.088  0.4566  0.1290 -0.3654
 3812SOL    HW315015   0.958   3.555   3.190 -0.4545  0.2710  0.5377
 3812SOL    MW415016   0.898   3.498   3.160  0.0949  0.0773  0.5791
 3813SOL     OW15017   5.404   2.443   3.736  0.0776  0.2029 -0.1835
 3813SOL    HW215018   5.419   2.414   3.646  0.9115 -0.5706  0.1858
 3813SOL    HW315019   5.347   2.519   3.727 -0.8679 -0.5898 -1.2929
 3813SOL    MW415020   5.398   2.449   3.723 -0.1940 -0.4352  0.1322
 3814SOL     OW15021   2.591   2.406   5.727  0.2036  0.0107  0.5810
 3814SOL    HW215022   2.608   2.497   5.702 -0.7238 -0.1644 -0.8175
 3814SOL    HW315023   2.504   2.408   5.767 -0.0730 -0.3234  0.0162
 3814SOL    MW415024   2.582   2.418   5.729  0.9450 -0.0780 -0.5036
 3815SOL     OW15025   4.797   4.703   3.766 -0.1729 -0.7520 -0.3897
 3815SOL    HW215026   4.705   4.717   3.746 -0.2355 -0.8046 -0.1506
 3815SOL    HW315027   4.796   4.652   3.848  0.0806  0.8821  0.6705
 3815SOL    MW415028   4.785   4.698   3.774 -0.1728 -0.1543  0.5790
 3816SOL     OW15029   5.892   3.222   3.612 -0.0796 -0.0360 -0.7338
 3816SOL    HW215030   5.850   3.172   3.682 -0.3456  2.2761  0.9030
 3816SOL    HW315031   5.837   3.209   3.536 -1.8299  0.1629  0.4428
 3816SOL    MW415032   5.879   3.214   3.611  0.1315  0.7030  0.1534
 3817SOL     OW15033   3.676   1.978   0.974  0.4827  0.4562 -0.3261
 3817SOL    HW215034   3.633   1.944   0.895 -0.5592  3.4923 -1.1760
 3817SOL    HW315035   3.620   1.949   1.046  0.1334 -0.3398 -0.9009
 3817SOL    MW415036   3.663   1.969   0.973  0.4477  0.1107 -0.0230
 3818SOL     OW15037   3.083   1.343   0.367 -0.3449 -0.3311  0.3386
 3818SOL    HW215038   3.007   1.289   0.389  0.1855 -1.0718  0.4252
 3818SOL    HW315039   3.090   1.406   0.439 -1.4215  0.3629 -0.1430
 3818SOL    MW415040   3.074   1.344   0.380  0.2146 -0.0780 -0.0551
 3819SOL     OW15041   0.143   4.898   5.988 -0.2074 -0.2741  0.2357
 3819SOL    HW215042   0.059   4.888   5.944 -0.3380  0.6804  0.2387
 3819SOL    HW315043   0.206   4.911   5.917 -0.3939  1.1013  0.2867
 3819SOL    MW415044   0.140   4.898   5.973 -0.3245 -0.1941 -0.2299
 3820SOL     OW15045   2.060   3.362   3.570 -0.0190  0.0367 -0.3979
 3820SOL    HW215046   2.128   3.418   3.606 -0.3400  1.8586 -2.4101
 3820SOL    HW315047   2.025   3.411   3.496 -2.3215 -1.6113 -0.5119
 3820SOL    MW415048   2.064   3.376   3.565 -0.4776  0.2363 -0.2732
 3821SOL     OW15049   3.118   1.491   1.438 -0.4251  0.0967  0.7475
 3821SOL    HW215050   3.081   1.553   1.375  1.5741  2.6948  1.9187
 3821SOL    HW315051   3.212   1.509   1.436 -0.1775 -0.3817  3.7403
 3821SOL    MW415052   3.126   1.501   1.429 -0.5430 -0.0384 -0.3178
 3822SOL     OW15053   5.312   5.751   1.141  0.2553 -0.4247  0.2853
 3822SOL    HW215054   5.270   5.816   1.197  3.1832 -0.0306  2.2008
 3822SOL    HW315055   5.290   5.778   1.052 -0.8910  1.5335  1.1103
 3822SOL    MW415056   5.303   5.763   1.137 -0.1089  0.2540 -0.0636
 3823SOL     OW15057   0.165   4.773   3.594  0.0123 -0.0701 -0.7211
 3823SOL    HW215058   0.161   4.829   3.516 -0.6904  1.1736  0.1566
 3823SOL    HW315059   0.250   4.793   3.633 -0.6005  1.1026  0.0674
 3823SOL    MW415060   0.175   4.783   3.589  0.2229  0.2465 -0.9902
 3824SOL     OW15061   3.475   2.680   5.250 -0.6479 -0.4376  0.0280
 3824SOL    HW215062   3.434   2.746   5.306  0.3173 -0.1865  0.4689
 3824SOL    HW315063   3.420   2.602   5.260  0.2858 -0.8574  2.5009
 3824SOL    MW415064   3.462   2.678   5.259  0.6084  0.1180 -0.1057
 3825SOL     OW15065   6.350   1.429   0.883 -0.2554 -0.3548 -0.4238
 3825SOL    HW215066   6.299   1.372   0.942  1.4727 -1.9839 -0.4036
 3825SOL    HW315067   6.316   1.409   0.796 -0.5424 -0.4505 -0.2915
 3825SOL    MW415068   6.339   1.419   0.879 -0.3400 -0.0305 -0.6312
 3826SOL     OW15069   0.982   1.228   4.049 -0.5980  0.1112 -0.6909
 3826SOL    HW215070   0.931   1.194   4.122  1.0025  1.0669  0.9502
 3826SOL    HW315071   0.960   1.171   3.976 -2.1823 -0.9474  0.5406
 3826SOL    MW415072   0.973   1.216   4.049  0.4041 -0.3747  0.2773
 3827SOL     OW15073   4.368   5.931   1.046 -0.0912  0.5010 -0.0252
 3827SOL    HW215074   4.461   5.910   1.047 -0.1908 -0.0697 -1.0395
 3827SOL    HW315075   4.326   5.855   1.087 -0.0778  0.9619  0.8476
 3827SOL    MW415076   4.374   5.918   1.051 -0.0241 -0.7831  0.1284
 3828SOL     OW15077   2.864   5.987   3.730  0.6334  0.0321 -0.0736
 3828SOL    HW215078   2.835   6.073   3.699 -0.0524  0.5161  1.7872
 3828SOL    HW315079   2.878   5.999   3.824  1.5284 -1.6441  0.0459
 3828SOL    MW415080   2.862   6.000   3.739 -0.1817 -0.4843  0.0025
 3829SOL     OW15081   4.101   1.035   3.096 -0.5690  0.0740  0.3516
 3829SOL    HW215082   4.160   0.978   3.143 -0.1031 -0.1461 -0.4822
 3829SOL    HW315083   4.030   0.978   3.066  0.4225 -0.3122 -1.3817
 3829SOL    MW415084   4.099   1.020   3.098 -0.3274 -0.1433  0.1825
 3830SOL     OW15085   5.676   0.811   5.948 -0.1292 -0.0680 -0.1133
 3830SOL    HW215086   5.640   0.745   6.007  0.6673 -1.0036 -0.6436
 3830SOL    HW315087   5.681   0.767   5.863  0.2911  0.7203 -0.5091
 3830SOL    MW415088   5.672   0.797   5.945  0.2209  0.1665 -0.4287
 3831SOL     OW15089   4.638   2.499   4.577 -0.1538  0.0657  0.1070
 3831SOL    HW215090   4.562   2.507   4.634  0.3366 -0.7724  0.9093
 3831SOL    HW315091   4.710   2.537   4.627  0.1041  0.1731 -0.3379
 3831SOL    MW415092   4.638   2.505   4.591 -0.2982 -0.3309  0.3048
 3832SOL     OW15093   5.479   3.852   5.338  0.6753 -0.3846  0.3347
 3832SOL    HW215094   5.502   3.919   5.274  0.1240 -0.1201  0.4104
 3832SOL    HW315095   5.489   3.895   5.423  0.5148 -0.4565  0.3905
 3832SOL    MW415096   5.483   3.866   5.341 -0.2681 -0.4075 -0.3715
 3833SOL     OW15097   4.791   1.265   1.373  0.0205  0.3960  0.7924
 3833SOL    HW215098   4.702   1.229   1.367  0.2726 -0.0035 -1.6094
 3833SOL    HW315099   4.847   1.196   1.337  1.3904  0.4978  2.5912
 3833SOL    MW415100   4.786   1.251   1.368  0.3687 -0.0483 -0.3383
 3834SOL     OW15101   3.689   4.125   2.041 -0.6387  0.1700  0.3497
 3834SOL    HW215102   3.649   4.210   2.025 -0.0760  0.2584 -0.6480
 3834SOL    HW315103   3.620   4.075   2.086 -1.0678  1.0426  0.6941
 3834SOL    MW415104   3.675   4.129   2.045  0.5067 -0.1950 -0.3124
 3835SOL     OW15105   3.624   0.030   1.017 -0.1882  0.4074 -0.2959
 3835SOL    HW215106   3.647  -0.022   1.094  2.0187  1.5308 -0.1192
 3835SOL    HW315107   3.625   0.121   1.048 -3.0107  0.7111 -0.8186
 3835SOL    MW415108   3.627   0.036   1.031  0.3209 -0.4504  0.1630
 3836SOL     OW15109   3.495   0.914   2.157 -0.5296 -0.0007 -0.1974
 3836SOL    HW215110   3.478   0.955   2.072 -0.6252  1.9478  0.7109
 3836SOL    HW315111   3.442   0.834   2.156 -1.4075  0.5664 -1.5109
 3836SOL    MW415112   3.486   0.909   2.145  0.6621  0.6466  0.2854
 3837SOL     OW15113   1.145   5.883   1.970 -0.3007 -0.0977  0.2482
 3837SOL    HW215114   1.090   5.841   1.904 -1.3433  0.2820  0.8432
 3837SOL    HW315115   1.194   5.812   2.010  0.0314 -0.3814 -0.6418
 3837SOL    MW415116   1.144   5.868   1.967 -0.2011 -0.3187 -0.2329
 3838SOL     OW15117   2.603   2.131   3.677  0.0891  0.1149  0.1721
 3838SOL    HW215118   2.669   2.063   3.682  0.4137  0.4676  0.8898
 3838SOL    HW315119   2.650   2.210   3.649 -0.5500 -0.2746 -2.1754
 3838SOL    MW415120   2.618   2.133   3.674  0.0356  0.2766  0.0831
 3839SOL     OW15121   4.980   1.886   6.068 -0.0453  0.0269  0.0563
 3839SOL    HW215122   4.912   1.909   6.005 -1.8308 -0.8825  1.5765
 3839SOL    HW315123   4.962   1.940   6.145 -1.0572 -2.4576  1.6673
 3839SOL    MW415124   4.969   1.896   6.070  0.5695  0.3154  0.2939
 3840SOL     OW15125   0.781   1.397   4.915 -0.3267 -0.0528 -0.6493
 3840SOL    HW215126   0.874   1.415   4.901 -0.6710  1.8818 -0.7004
 3840SOL    HW315127   0.776   1.302   4.924  1.6209 -0.2102 -0.8568
 3840SOL    MW415128   0.793   1.387   4.914  0.1976 -0.0548  0.2853
 3841SOL     OW15129   2.652   1.243   1.746 -0.6175 -0.0300  0.1151
 3841SOL    HW215130   2.690   1.225   1.660 -0.0690 -0.5946  0.4604
 3841SOL    HW315131   2.565   1.203   1.743 -0.2710 -0.8053  0.1072
 3841SOL    MW415132   2.646   1.235   1.734 -0.2959  0.3334  0.1965
 3842SOL     OW15133   4.476   2.550   4.787  0.7221  0.6114 -0.1011
 3842SOL    HW215134   4.486   2.597   4.870  2.3713  0.4477 -0.1755
 3842SOL    HW315135   4.453   2.460   4.814  0.0966  0.8362  0.1291
 3842SOL    MW415136   4.475   2.544   4.802  0.1112  0.5776  0.0394
 3843SOL     OW15137   3.083   2.712   2.995  0.2661 -0.1014  0.1659
 3843SOL    HW215138   3.101   2.773   3.066  2.6175 -2.9481  2.2289
 3843SOL    HW315139   3.168   2.674   2.973 -1.0005 -2.3203 -1.3198
 3843SOL    MW415140   3.097   2.715   3.001 -0.5719  0.0784 -0.7123
 3844SOL     OW15141   5.959   0.026   4.922 -0.3456 -0.3303 -0.6090
 3844SOL    HW215142   6.039   0.011   4.972 -0.8750 -1.4751 -0.0743
 3844SOL    HW315143   5.979   0.102   4.867  1.2800 -0.8986 -0.8563
 3844SOL    MW415144   5.972   0.034   4.921 -0.2911  0.2737 -0.3951
 3845SOL     OW15145   0.229   2.570   2.338 -0.3843 -0.0500 -0.5222
 3845SOL    HW215146   0.254   2.478   2.339 -2.8320 -0.7747  0.7788
 3845SOL    HW315147   0.238   2.595   2.246 -1.0519 -2.0003 -1.1703
 3845SOL    MW415148   0.234   2.561   2.326  0.6682  0.2315 -0.0241
 3846SOL     OW15149   2.788   5.418   2.430  0.4107 -0.1554  0.6370
 3846SOL    HW215150   2.732   5.459   2.364 -0.5250 -0.6139  1.1279
 3846SOL    HW315151   2.736   5.344   2.462  1.7413 -1.2540  0.3344
 3846SOL    MW415152   2.774   5.414   2.426 -0.1279 -0.5507  0.0751
 3847SOL     OW15153   1.459   1.114   4.185  0.0024  0.1265 -0.1560
 3847SOL    HW215154   1.388   1.113   4.121 -0.1898 -0.9630  0.0512
 3847SOL    HW315155   1.454   1.028   4.228  1.4794  0.0037 -0.1774
 3847SOL    MW415156   1.449   1.102   4.182  0.7853  0.6553  0.1844
 3848SOL     OW15157   4.090   0.478   5.543  0.1864 -0.2137 -0.1094
 3848SOL    HW215158   4.033   0.503   5.615 -0.3327 -0.3112 -0.4760
 3848SOL    HW315159   4.089   0.382   5.543  0.2826 -0.2160 -0.1718
 3848SOL    MW415160   4.083   0.469   5.553  0.1347  0.4194 -0.6887
 3849SOL     OW15161   1.428   5.635   0.603 -0.1949  0.0155 -0.3185
 3849SOL    HW215162   1.504   5.595   0.561  0.9218  3.5078 -2.0317
 3849SOL    HW315163   1.352   5.593   0.562  0.7169 -2.5165  0.3852
 3849SOL    MW415164   1.428   5.624   0.592 -0.0614 -0.0498  0.5668
 3850SOL     OW15165   4.092   4.971   0.882 -0.5237 -0.3049  0.5734
 3850SOL    HW215166   4.118   5.052   0.926 -0.3970 -0.3221  0.5318
 3850SOL    HW315167   4.024   4.934   0.938 -2.0386  0.8393 -0.4472
 3850SOL    MW415168   4.086   4.977   0.895  0.9257 -0.3688  0.2126
 3851SOL     OW15169   4.446   4.861   5.566  0.2782  0.0707  0.5175
 3851SOL    HW215170   4.473   4.807   5.640 -0.0854 -0.0485  0.5641
 3851SOL    HW315171   4.387   4.806   5.515 -0.1930  0.4608  0.6322
 3851SOL    MW415172   4.442   4.847   5.569  0.2947 -0.1292 -0.5639
 3852SOL     OW15173   4.072   3.785   2.903  0.3435  0.0933  0.2052
 3852SOL    HW215174   4.145   3.730   2.872  0.5915  0.7303 -0.3533
 3852SOL    HW315175   4.008   3.782   2.832 -0.4709 -0.9640  0.9477
 3852SOL    MW415176   4.073   3.777   2.890 -0.1892  0.0087  0.4193
 3853SOL     OW15177   5.852   4.799   1.048 -0.2298 -0.1414  0.0623
 3853SOL    HW215178   5.929   4.765   1.003 -0.6652 -1.1897  0.0954
 3853SOL    HW315179   5.813   4.723   1.091 -0.7366  0.5529  0.8632
 3853SOL    MW415180   5.857   4.785   1.048  0.0327  0.6193  0.0961
 3854SOL     OW15181   5.002   2.783   0.374 -0.0387  0.7117  0.0184
 3854SOL    HW215182   5.092   2.805   0.399 -0.0292 -0.0074  0.6160
 3854SOL    HW315183   4.954   2.776   0.456 -0.1529 -1.0221 -0.1632
 3854SOL    MW415184   5.008   2.785   0.388 -0.1557 -0.9271 -0.0266
 3855SOL     OW15185   3.702   5.775   3.281 -0.1147  0.6232  0.2565
 3855SOL    HW215186   3.678   5.752   3.370 -0.3063  1.0193  0.3126
 3855SOL    HW315187   3.792   5.808   3.287 -0.4688  1.5741  0.4651
 3855SOL    MW415188   3.711   5.776   3.293  0.3405  0.1706  0.7560
 3856SOL     OW15189   2.918   0.167   1.610  0.0884  0.2960 -1.1190
 3856SOL    HW215190   2.849   0.102   1.620  1.3317 -0.8882  0.2715
 3856SOL    HW315191   2.945   0.160   1.519 -0.1004 -0.8371 -1.0971
 3856SOL    MW415192   2.913   0.158   1.599 -0.1437 -0.3626 -0.3217
 3857SOL     OW15193   3.669   4.788   5.826  0.0198 -0.1135  0.5208
 3857SOL    HW215194   3.703   4.847   5.758 -0.3943 -1.6451 -1.0676
 3857SOL    HW315195   3.747   4.760   5.874  0.5453 -0.4159 -0.4873
 3857SOL    MW415196   3.684   4.792   5.823 -0.7408  0.0475  0.2816
 3858SOL     OW15197   5.115   0.860   5.439 -0.5269  0.4387  0.3932
 3858SOL    HW215198   5.084   0.896   5.355 -0.2840  1.8407  0.8806
 3858SOL    HW315199   5.133   0.937   5.493 -1.4859 -0.4350  2.0475
 3858SOL    MW415200   5.113   0.875   5.435  0.6556 -0.3400 -0.0924
 3859SOL     OW15201   1.625   5.051   6.383 -0.0253 -0.2132 -0.0083
 3859SOL    HW215202   1.531   5.038   6.394  0.0066 -0.5550 -0.1141
 3859SOL    HW315203   1.661   5.049   6.471 -0.1977  0.6000  0.0887
 3859SOL    MW415204   1.617   5.049   6.396 -0.0931  0.4284  0.1709
 3860SOL     OW15205   0.289   5.681   4.160 -0.5271  0.4441 -0.1348
 3860SOL    HW215206   0.379   5.647   4.158 -0.2004  1.3043 -1.5541
 3860SOL    HW315207   0.237   5.606   4.189  0.3460 -0.8828 -1.7706
 3860SOL    MW415208   0.294   5.666   4.163 -0.0465  0.0718  0.6995
 3861SOL     OW15209   3.187   0.665   1.633  0.1152 -0.4527 -0.1751
 3861SOL    HW215210   3.209   0.756   1.654  0.6248 -0.3413 -1.1200
 3861SOL    HW315211   3.108   0.647   1.684 -0.0441  0.5506 -0.0502
 3861SOL    MW415212   3.179   0.675   1.642 -0.8898  0.1814 -0.3424
 3862SOL     OW15213   0.125   5.763   0.073 -0.3032  0.0538  0.8930
 3862SOL    HW215214   0.072   5.813   0.010  0.6648  0.3703  0.3016
 3862SOL    HW315215   0.215   5.778   0.044  0.1582  0.1329  2.3244
 3862SOL    MW415216   0.130   5.772   0.061 -0.0066  0.6096  0.4631
 3863SOL     OW15217   5.815   4.072   5.683 -0.4434  0.1223  0.2820
 3863SOL    HW215218   5.868   4.149   5.665 -0.8721  0.4794  0.5430
 3863SOL    HW315219   5.879   4.001   5.696 -0.0018  0.7349  1.5439
 3863SOL    MW415220   5.831   4.073   5.682 -0.5414  0.1309 -0.3504
 3864SOL     OW15221   2.211   0.431   3.615 -0.5323 -0.4883 -0.4322
 3864SOL    HW215222   2.125   0.473   3.622 -0.4605 -0.3842 -0.1610
 3864SOL    HW315223   2.273   0.504   3.615 -0.4349 -0.5703 -0.4992
 3864SOL    MW415224   2.208   0.446   3.616 -0.3897  0.0913 -0.0741
 3865SOL     OW15225   2.430   4.339   3.435 -0.7556  0.4861 -0.5775
 3865SOL    HW215226   2.487   4.263   3.443  0.0900  0.9179 -2.0709
 3865SOL    HW315227   2.408   4.363   3.526  2.0546  0.7430  0.1238
 3865SOL    MW415228   2.435   4.332   3.448  0.7336 -0.3298  0.0797
 3866SOL     OW15229   1.758   0.616   1.831  0.2172  0.4671 -0.5474
 3866SOL    HW215230   1.785   0.703   1.805  2.5189 -0.1127 -0.3194
 3866SOL    HW315231   1.835   0.561   1.817 -0.7449 -1.2785  0.5292
 3866SOL    MW415232   1.771   0.620   1.826  0.1363  0.0843 -0.0201
 3867SOL     OW15233   1.065   2.342   4.187 -0.6630  0.0595 -0.1835
 3867SOL    HW215234   1.137   2.289   4.151 -0.1919  0.6470 -0.1139
 3867SOL    HW315235   0.986   2.298   4.156 -0.2752 -0.4515 -0.4727
 3867SOL    MW415236   1.064   2.329   4.178 -0.0088  0.3258 -0.0160
 3868SOL     OW15237   0.743   2.638   3.187  0.2529  0.4006 -0.0189
 3868SOL    HW215238   0.754   2.683   3.270 -1.4095 -0.8897  0.9592
 3868SOL    HW315239   0.659   2.669   3.153  0.2714 -0.0987 -0.5509
 3868SOL    MW415240   0.734   2.648   3.193  0.4786  0.2706 -0.3567
 3869SOL     OW15241   1.807   3.687   5.406 -0.1379  0.5704 -0.3222
 3869SOL    HW215242   1.786   3.775   5.438 -1.7036 -0.0223  0.3582
 3869SOL    HW315243   1.895   3.670   5.438 -0.7545  0.9447  1.6547
 3869SOL    MW415244   1.816   3.697   5.414  0.4183 -0.3063 -0.0948
 3870SOL     OW15245   4.680   1.615   3.138 -0.1895  0.0475  0.2748
 3870SOL    HW215246   4.592   1.581   3.123 -0.3582 -0.1360  1.5677
 3870SOL    HW315247   4.672   1.709   3.128 -1.3094  0.4124  3.5724
 3870SOL    MW415248   4.667   1.623   3.134  0.6479 -0.3511  0.0859
 3871SOL     OW15249   5.876   5.981   1.563 -0.3124  0.1212 -0.5375
 3871SOL    HW215250   5.833   5.946   1.484 -1.3022 -0.8038  0.3890
 3871SOL    HW315251   5.961   5.938   1.565 -0.2999  0.1080 -1.0653
 3871SOL    MW415252   5.882   5.971   1.553  0.1215 -0.1649  0.1897
 3872SOL     OW15253   0.702   0.959   3.671  0.0440  0.2243  0.4824
 3872SOL    HW215254   0.705   1.020   3.597  0.9906 -0.0597  0.2757
 3872SOL    HW315255   0.759   0.887   3.645  0.1730 -0.0047  1.3751
 3872SOL    MW415256   0.710   0.958   3.658  0.2351  0.4995 -0.2605
 3873SOL     OW15257   4.311   3.312   2.038 -0.3140  0.5181 -0.2354
 3873SOL    HW215258   4.355   3.242   1.989  1.7412  1.7277 -0.2495
 3873SOL    HW315259   4.376   3.338   2.104 -1.3054  1.9267  0.2174
 3873SOL    MW415260   4.326   3.306   2.041  0.4029  0.2116  0.2073
 3874SOL     OW15261   2.700   6.035   2.311  0.2964 -0.2257  0.5880
 3874SOL    HW215262   2.688   6.093   2.236  0.8964  0.8290  1.2817
 3874SOL    HW315263   2.734   5.954   2.274  3.7076  1.3247 -0.0573
 3874SOL    MW415264   2.703   6.032   2.297 -0.3450 -0.4608 -0.3380
 3875SOL     OW15265   4.862   4.185   4.371 -0.0760 -0.4334 -0.6683
 3875SOL    HW215266   4.803   4.131   4.318  0.0055 -0.7894 -0.4001
 3875SOL    HW315267   4.871   4.137   4.453  0.7674 -0.4887 -0.7874
 3875SOL    MW415268   4.855   4.171   4.375 -0.5198 -0.6051 -0.4130
 3876SOL     OW15269   2.907   3.650   6.421 -0.1407  0.3565  0.0813
 3876SOL    HW215270   2.849   3.713   6.379  0.8744  1.0822 -0.2758
 3876SOL    HW315271   2.925   3.687   6.507 -0.2422  0.1061  0.2132
 3876SOL    MW415272   2.902   3.663   6.427  0.4639 -0.0910  0.2123
 3877SOL     OW15273   2.004   1.028   4.304  0.4760 -0.6901 -0.1975
 3877SOL    HW215274   1.971   0.952   4.256  0.3702 -0.0230 -1.2326
 3877SOL    HW315275   1.943   1.099   4.280  1.1466 -0.0540 -0.0540
 3877SOL    MW415276   1.991   1.028   4.294  0.4330 -0.3112  0.0820
 3878SOL     OW15277   3.272   2.540   0.723  0.2988  0.3413 -0.3515
 3878SOL    HW215278   3.339   2.519   0.787  0.1628  1.9533  0.3830
 3878SOL    HW315279   3.319   2.556   0.642  0.6145 -0.2435 -0.2878
 3878SOL    MW415280   3.287   2.539   0.721 -0.4906 -0.0462 -0.2121
 3879SOL     OW15281   3.194   6.138   4.580  0.3190 -0.2498  0.7569
 3879SOL    HW215282   3.160   6.172   4.497 -0.8174 -0.3311  1.1778
 3879SOL    HW315283   3.116   6.110   4.628  0.9341  0.1635  2.0280
 3879SOL    MW415284   3.179   6.139   4.575  0.0471  0.0571 -0.1302
 3880SOL     OW15285   4.839   5.183   5.495  0.4706  0.2745 -0.4015
 3880SOL    HW215286   4.798   5.222   5.418  0.3451  0.2611 -0.3413
 3880SOL    HW315287   4.766   5.162   5.553  0.4045 -1.3859 -1.0235
 3880SOL    MW415288   4.824   5.186   5.492  0.0025  0.5243 -0.2890
 3881SOL     OW15289   2.103   5.170   6.289  0.1058 -0.4384 -0.4716
 3881SOL    HW215290   2.106   5.250   6.236  0.3572 -0.8011 -1.0167
 3881SOL    HW315291   2.190   5.163   6.328 -0.2510  0.1294  0.4596
 3881SOL    MW415292   2.115   5.179   6.287  0.1198 -0.1267 -0.4171
 3882SOL     OW15293   0.135   6.148   6.302  0.2348  0.0676 -1.0281
 3882SOL    HW215294   0.083   6.220   6.267  1.6973  2.3177  1.0817
 3882SOL    HW315295   0.070   6.081   6.325 -1.7873  2.4845  0.9676
 3882SOL    MW415296   0.119   6.149   6.301 -0.7234 -0.3340 -0.4923
 3883SOL     OW15297   2.127   1.598   5.205  0.3823  0.3436 -0.1123
 3883SOL    HW215298   2.052   1.647   5.239  1.4605  1.5196  0.6388
 3883SOL    HW315299   2.089   1.514   5.178 -1.6293  1.7115 -1.9487
 3883SOL    MW415300   2.112   1.593   5.206  0.2084 -0.1662  0.2606
 3884SOL     OW15301   3.514   2.628   1.079 -0.3182  0.1010 -0.2407
 3884SOL    HW215302   3.460   2.576   1.138  1.5048 -0.6400  0.8523
 3884SOL    HW315303   3.531   2.710   1.126 -0.8732  0.5416 -0.7891
 3884SOL    MW415304   3.509   2.632   1.093  0.2706 -0.6984  0.1245
 3885SOL     OW15305   5.435   6.332   4.386  0.6845  0.3004 -0.3192
 3885SOL    HW215306   5.421   6.413   4.434 -0.2631 -0.0321 -0.0197
 3885SOL    HW315307   5.395   6.348   4.300 -2.0853 -0.7892  0.6700
 3885SOL    MW415308   5.428   6.345   4.381 -0.1192 -0.0670 -0.4022
 3886SOL     OW15309   5.389   0.080   2.137  0.2322 -0.6169 -0.2449
 3886SOL    HW215310   5.389   0.156   2.195 -0.3991  0.0781 -1.1253
 3886SOL    HW315311   5.297   0.067   2.113  0.2851 -1.8765  0.1523
 3886SOL    MW415312   5.377   0.088   2.142  0.3977 -0.3580  0.0545
 3887SOL     OW15313   3.034   1.850   3.054 -0.4198  0.0345  0.0812
 3887SOL    HW215314   3.008   1.835   3.145 -0.6171  0.3849  0.0831
 3887SOL    HW315315   3.105   1.787   3.039  2.2592  2.4511  1.6497
 3887SOL    MW415316   3.040   1.840   3.064 -0.0598  0.3896 -0.4202
 3888SOL     OW15317   2.654   5.068   4.285 -0.4496 -0.2106 -0.1513
 3888SOL    HW215318   2.636   4.991   4.231  1.1146 -0.6995 -0.0449
 3888SOL    HW315319   2.748   5.063   4.303  0.4303  3.2901 -2.5953
 3888SOL    MW415320   2.664   5.057   4.280  0.4015 -1.0543  0.2268
 3889SOL     OW15321   4.857   1.979   3.315  0.4665 -0.1352  0.6364
 3889SOL    HW215322   4.845   1.900   3.262  1.0320  0.3529 -0.2422
 3889SOL    HW315323   4.889   2.045   3.254  0.0156  0.7831  1.3623
 3889SOL    MW415324   4.860   1.977   3.300  0.3408 -0.3821  0.1519
 3890SOL     OW15325   1.511   5.384   3.719  0.0937  0.4854 -0.1691
 3890SOL    HW215326   1.526   5.446   3.648  0.5309 -0.3204 -0.8009
 3890SOL    HW315327   1.422   5.403   3.750  0.9647  2.8121  1.0886
 3890SOL    MW415328   1.501   5.394   3.714 -0.7773  0.1772  0.1810
 3891SOL     OW15329   2.875   2.349   1.078  0.1078 -0.1596  0.2281
 3891SOL    HW215330   2.784   2.376   1.087 -0.1967 -0.6844 -1.0384
 3891SOL    HW315331   2.875   2.288   1.004  1.2778 -1.1790  1.0279
 3891SOL    MW415332   2.863   2.344   1.069 -0.1638 -0.2675 -0.1342
 3892SOL     OW15333   3.857   4.124   0.069 -0.2329 -0.7981  0.3209
 3892SOL    HW215334   3.829   4.143  -0.021 -0.6375  1.0404  0.7909
 3892SOL    HW315335   3.887   4.208   0.103 -2.1493 -0.9295  2.6122
 3892SOL    MW415336   3.857   4.138   0.062 -0.3944  0.5438  0.3986
 3893SOL     OW15337   4.415   5.743   3.209  0.5169  0.4630  0.0596
 3893SOL    HW215338   4.446   5.672   3.152  0.9997 -0.5791  1.5718
 3893SOL    HW315339   4.319   5.735   3.206  0.5393  0.3358 -0.4840
 3893SOL    MW415340   4.406   5.732   3.201  0.0208 -0.2535 -0.4937
 3894SOL     OW15341   1.707   6.124   3.585 -0.2570  0.1728 -0.0900
 3894SOL    HW215342   1.743   6.198   3.632 -2.2880  1.3911 -0.3092
 3894SOL    HW315343   1.681   6.062   3.654  0.7309 -0.0104  0.1301
 3894SOL    MW415344   1.708   6.125   3.600 -0.1432 -0.1593  0.0164
 3895SOL     OW15345   5.474   3.866   0.452  0.6681 -0.3193  0.3003
 3895SOL    HW215346   5.407   3.887   0.387  0.3419  0.6900  0.9300
 3895SOL    HW315347   5.533   3.942   0.451  1.9169 -1.2615 -0.3604
 3895SOL    MW415348   5.473   3.879   0.444  0.3573 -0.0600 -0.1809
 3896SOL     OW15349   3.552   1.275   4.101 -0.8130  0.2952 -0.5824
 3896SOL    HW215350   3.567   1.252   4.193 -0.1345  0.5902 -0.6111
 3896SOL    HW315351   3.510   1.197   4.063 -0.2560 -0.1863 -0.2373
 3896SOL    MW415352   3.549   1.261   4.108  0.2649 -0.0025 -0.3071
 3897SOL     OW15353   2.294   4.430   6.355 -0.6310 -0.5804  0.1024
 3897SOL    HW215354   2.271   4.337   6.366  0.2958 -0.7331  0.8263
 3897SOL    HW315355   2.387   4.435   6.376 -0.4188  0.3484 -0.9478
 3897SOL    MW415356   2.303   4.418   6.359 -0.0289 -0.8320  0.1709
 3898SOL     OW15357   3.746   0.191   0.331  0.1394 -0.1674  0.1080
 3898SOL    HW215358   3.666   0.244   0.325  0.6154  0.7293  1.2081
 3898SOL    HW315359   3.719   0.112   0.377 -0.5819 -0.9467 -1.5524
 3898SOL    MW415360   3.732   0.188   0.336  0.6413  0.3350 -0.3433
 3899SOL     OW15361   2.053   1.060   2.060  0.0754 -0.3946 -0.2117
 3899SOL    HW215362   2.060   1.136   2.118 -0.0343  0.3053 -1.1050
 3899SOL    HW315363   1.961   1.034   2.065 -0.1320  0.2145 -0.7485
 3899SOL    MW415364   2.042   1.066   2.069 -0.0374 -0.4552  0.3007
 3900SOL     OW15365   5.879   0.213   2.475  0.8476  0.2768 -0.0096
 3900SOL    HW215366   5.892   0.125   2.511  0.5677  0.0255 -0.5100
 3900SOL    HW315367   5.790   0.212   2.441  0.8740  0.7322 -0.0982
 3900SOL    MW415368   5.869   0.201   2.476 -0.2170  0.3253  0.1362
 3901SOL     OW15369   2.522   1.140   4.795 -0.5858 -0.0304 -0.5218
 3901SOL    HW215370   2.564   1.076   4.853 -0.6503 -0.0623 -0.5098
 3901SOL    HW315371   2.462   1.188   4.852 -1.2092 -0.5701 -0.7108
 3901SOL    MW415372   2.519   1.138   4.810 -0.2360  0.4207  0.2706
 3902SOL     OW15373   0.649   1.733   3.172  0.4572 -0.0343 -0.1489
 3902SOL    HW215374   0.643   1.662   3.109 -0.6342  0.7970 -1.0186
 3902SOL    HW315375   0.574   1.789   3.153 -0.3203 -0.1152  2.3435
 3902SOL    MW415376   0.638   1.731   3.162  0.1274 -0.4554  0.3060
 3903SOL     OW15377   5.126   0.508   0.162 -0.1582 -0.0423 -0.8733
 3903SOL    HW215378   5.214   0.543   0.172  0.1857 -1.0827  0.0016
 3903SOL    HW315379   5.073   0.583   0.135  0.8272  0.7746 -0.6095
 3903SOL    MW415380   5.131   0.522   0.160  0.1803  0.6475 -0.5718
 3904SOL     OW15381   3.442   2.675   2.481  0.4030 -0.2136  0.0370
 3904SOL    HW215382   3.375   2.642   2.540 -0.5166  1.5687  0.0670
 3904SOL    HW315383   3.501   2.726   2.538  0.0085  0.7801 -0.4235
 3904SOL    MW415384   3.441   2.678   2.496  0.0817 -0.3253  0.0504
 3905SOL     OW15385   2.909   3.914   6.096  0.1100  0.0179  0.3280
 3905SOL    HW215386   2.990   3.905   6.145  0.4682  1.3499  0.0261
 3905SOL    HW315387   2.929   3.878   6.010 -0.3512 -1.8016  0.9372
 3905SOL    MW415388   2.922   3.908   6.091 -0.0820 -0.4336 -0.7071
 3906SOL     OW15389   1.498   5.168   2.649 -0.2883  0.3934  0.4087
 3906SOL    HW215390   1.521   5.259   2.667 -1.5385  1.3288 -2.1954
 3906SOL    HW315391   1.435   5.145   2.717  1.0421  0.9737  1.8942
 3906SOL    MW415392   1.493   5.177   2.660 -0.0327 -0.0143  0.0396
 3907SOL     OW15393   0.483   5.729   0.321 -0.4849 -0.2863  0.2241
 3907SOL    HW215394   0.488   5.779   0.402  0.6726 -1.7256  1.0791
 3907SOL    HW315395   0.393   5.696   0.318 -0.9164  0.8375  0.2270
 3907SOL    MW415396   0.472   5.731   0.331 -0.1812 -0.1769 -0.2389
 3908SOL     OW15397   1.702   0.720   2.892 -0.1316 -0.2153 -0.1085
 3908SOL    HW215398   1.628   0.739   2.950 -1.6798  2.4691 -2.6908
 3908SOL    HW315399   1.664   0.667   2.822  0.6738  0.1753 -0.8552
 3908SOL    MW415400   1.687   0.715   2.890 -0.6159  0.7815 -0.4712
 3909SOL     OW15401   5.844   0.367   2.744 -0.4632 -0.3552 -0.6259
 3909SOL    HW215402   5.896   0.327   2.674  1.6926 -0.2200  0.7895
 3909SOL    HW315403   5.785   0.427   2.699 -0.1381 -1.2913 -2.4127
 3909SOL    MW415404   5.843   0.369   2.729 -0.2663 -0.6190  0.3302
 3910SOL     OW15405   0.429   1.226   0.775  0.5529  0.3735  0.8399
 3910SOL    HW215406   0.360   1.290   0.795  0.2832 -0.1401  1.6352
 3910SOL    HW315407   0.382   1.150   0.741  0.6553 -0.1852  1.8990
 3910SOL    MW415408   0.414   1.225   0.774  0.0235  0.2079 -0.1759
 3911SOL     OW15409   1.416   4.967   5.704  0.1347 -0.1607 -0.5708
 3911SOL    HW215410   1.354   5.028   5.741  1.2677 -0.1071  1.3463
 3911SOL    HW315411   1.407   4.888   5.757  0.4565 -0.7869 -1.4187
 3911SOL    MW415412   1.407   4.964   5.716  0.1292 -0.2654 -0.2464
 3912SOL     OW15413   3.541   2.296   5.644 -0.3975 -0.2168  0.1752
 3912SOL    HW215414   3.529   2.325   5.735 -0.9812  1.6664 -0.4568
 3912SOL    HW315415   3.487   2.217   5.637  0.0991 -0.7180  1.5927
 3912SOL    MW415416   3.532   2.290   5.655 -0.2645 -0.1874  0.0027
 3913SOL     OW15417   5.425   5.733   1.413  0.1654 -0.0183 -0.0491
 3913SOL    HW215418   5.379   5.729   1.329 -0.7662 -0.7071  0.4699
 3913SOL    HW315419   5.366   5.689   1.474  0.7910  0.5564  0.9893
 3913SOL    MW415420   5.411   5.726   1.410  0.3663 -0.0676 -0.7858
 3914SOL     OW15421   4.925   3.395   3.806 -0.2180 -0.2452  0.0140
 3914SOL    HW215422   4.932   3.362   3.716 -2.1386  0.2187 -0.3671
 3914SOL    HW315423   4.930   3.317   3.861 -1.2446 -0.8163 -0.6589
 3914SOL    MW415424   4.926   3.380   3.801  0.4213  0.0358  0.3956
 3915SOL     OW15425   1.945   1.862   4.840 -0.3396  0.4986  0.0486
 3915SOL    HW215426   2.040   1.853   4.848 -0.3519  0.7565  0.5667
 3915SOL    HW315427   1.926   1.947   4.880 -0.6683  0.9503 -1.0311
 3915SOL    MW415428   1.955   1.872   4.847  0.2958  0.7993  0.0894
 3916SOL     OW15429   4.043   5.570   3.403 -0.0151 -0.0683 -0.5336
 3916SOL    HW215430   4.046   5.605   3.492  1.1787  2.2935 -1.4072
 3916SOL    HW315431   4.120   5.515   3.396  0.5915  0.7456 -0.4478
 3916SOL    MW415432   4.053   5.567   3.414 -0.4480  0.0872  0.1457
 3917SOL     OW15433   2.318   5.393   6.048  0.0258 -0.2099  0.1164
 3917SOL    HW215434   2.232   5.414   6.085  0.1911 -0.2425  0.5299
 3917SOL    HW315435   2.358   5.478   6.030 -0.8685 -0.1807 -1.9559
 3917SOL    MW415436   2.312   5.407   6.051 -0.4012 -0.2575 -0.2489
 3918SOL     OW15437   4.174   1.217   4.707 -0.1011  0.2512  0.4267
 3918SOL    HW215438   4.141   1.300   4.671  3.7092  1.2589 -1.2912
 3918SOL    HW315439   4.096   1.163   4.720 -2.4631  2.9298 -1.4642
 3918SOL    MW415440   4.159   1.221   4.704 -0.3673  0.2482 -0.2880
 3919SOL     OW15441   2.272   6.290   1.244 -0.2245  0.3233 -0.6822
 3919SOL    HW215442   2.281   6.196   1.259 -2.2722 -0.1405 -1.8878
 3919SOL    HW315443   2.341   6.330   1.297  1.5714 -1.9119 -1.1683
 3919SOL    MW415444   2.282   6.283   1.253 -0.2053  0.3998 -0.4789
 3920SOL     OW15445   3.742   6.396   0.544  0.0134 -0.4097 -0.0487
 3920SOL    HW215446   3.748   6.435   0.631  2.8885 -0.8179  0.0141
 3920SOL    HW315447   3.742   6.302   0.561  1.6161 -0.5114 -0.4812
 3920SOL    MW415448   3.743   6.389   0.558  0.1123 -0.5186 -0.4092
 3921SOL     OW15449   4.855   5.140   1.474 -0.0741  0.7352  0.1279
 3921SOL    HW215450   4.800   5.121   1.550 -1.7552  0.6827 -1.0460
 3921SOL    HW315451   4.859   5.056   1.427 -1.2048  1.3748 -1.1543
 3921SOL    MW415452   4.848   5.126   1.478  0.0207  0.0431  0.3692
 3922SOL     OW15453   4.514   0.633   1.246  0.2940 -0.5895  0.3899
 3922SOL    HW215454   4.482   0.611   1.333 -1.3881 -1.8633 -0.4888
 3922SOL    HW315455   4.544   0.550   1.210 -0.7373 -0.4442 -0.8873
 3922SOL    MW415456   4.514   0.619   1.253 -0.1555  0.0702  0.0837
 3923SOL     OW15457   4.838   3.055   3.238  0.1354 -0.6256  0.1643
 3923SOL    HW215458   4.878   3.064   3.152  1.7005 -1.5497  0.7473
 3923SOL    HW315459   4.795   2.969   3.236 -0.7124 -0.2074 -0.0161
 3923SOL    MW415460   4.838   3.045   3.226 -0.7212 -0.4187 -0.5884
 3924SOL     OW15461   0.114   4.281   5.766  0.0138 -0.0289  0.1520
 3924SOL    HW215462   0.132   4.346   5.834 -2.4052 -0.5963  1.4158
 3924SOL    HW315463   0.049   4.322   5.709  0.8943 -0.1401 -0.9747
 3924SOL    MW415464   0.108   4.295   5.767  1.0118  0.1580  0.0445
 3925SOL     OW15465   2.477   2.098   1.953  0.0644  0.6284  0.2460
 3925SOL    HW215466   2.407   2.160   1.932 -0.9061 -0.1640  1.0370
 3925SOL    HW315467   2.431   2.016   1.971  1.2532 -0.0634  0.2006
 3925SOL    MW415468   2.461   2.095   1.953  0.2972  0.1903 -0.1600
 3926SOL     OW15469   6.352   5.454   1.069  0.1601  0.2970 -0.2723
 3926SOL    HW215470   6.311   5.432   0.985  0.8727  0.7994 -0.7592
 3926SOL    HW315471   6.437   5.489   1.046  0.6827 -0.2760  0.7101
 3926SOL    MW415472   6.358   5.455   1.055 -0.2539 -0.0461 -0.0747
 3927SOL     OW15473   2.795   3.258   2.379  0.1465  0.2785 -0.2111
 3927SOL    HW215474   2.702   3.259   2.401  0.6396 -0.1528  2.1375
 3927SOL    HW315475   2.828   3.341   2.414  0.9442 -0.3208  0.4845
 3927SOL    MW415476   2.787   3.269   2.387  0.6677  0.1655  0.7606
 3928SOL     OW15477   2.998   5.852   0.372 -0.8772 -0.3475  0.3216
 3928SOL    HW215478   2.983   5.825   0.463  0.4728 -1.4982  0.2421
 3928SOL    HW315479   3.045   5.935   0.379 -0.2085 -0.7469  0.7101
 3928SOL    MW415480   3.002   5.859   0.385  0.1751  0.2528  0.8321
 3929SOL     OW15481   3.061   6.226   4.332  0.5044 -0.3574  0.0584
 3929SOL    HW215482   3.120   6.160   4.294 -0.7508 -2.4295  1.4748
 3929SOL    HW315483   2.985   6.176   4.361 -1.5836  2.0967 -0.8369
 3929SOL    MW415484   3.059   6.210   4.331  0.2046 -0.1588 -0.3483
 3930SOL     OW15485   6.428   3.155   1.814 -0.2005  0.1003  0.2763
 3930SOL    HW215486   6.457   3.176   1.725 -0.2873  0.7037  0.3878
 3930SOL    HW315487   6.392   3.066   1.807  0.7958 -0.2962 -0.0632
 3930SOL    MW415488   6.427   3.146   1.802  0.1525  0.3158 -0.0574
 3931SOL     OW15489   4.057   1.331   2.894  0.1607  0.1603 -0.1186
 3931SOL    HW215490   4.107   1.252   2.875 -0.1299  0.3695 -1.9009
 3931SOL    HW315491   4.008   1.349   2.814  0.1675  2.0991  0.2585
 3931SOL    MW415492   4.057   1.323   2.881 -0.8663 -0.4190 -0.4895
 3932SOL     OW15493   0.882   5.814   1.389  0.0907  0.0931 -0.3591
 3932SOL    HW215494   0.961   5.866   1.408  1.1024 -0.8586 -1.8005
 3932SOL    HW315495   0.877   5.751   1.461  0.8059 -0.0112 -0.3942
 3932SOL    MW415496   0.892   5.813   1.401 -0.0531 -0.2723 -0.1424
 3933SOL     OW15497   6.362   6.277   5.642 -0.2834  0.0320  0.1034
 3933SOL    HW215498   6.396   6.365   5.625 -0.4556 -0.0277 -0.5930
 3933SOL    HW315499   6.430   6.218   5.608 -0.2805 -0.1025  0.3401
 3933SOL    MW415500   6.376   6.281   5.635 -0.0012 -0.3573  0.1559
 3934SOL     OW15501   5.947   4.006   4.098  0.3548 -0.1115  0.6552
 3934SOL    HW215502   6.002   4.083   4.084 -2.8488  2.1256 -0.7252
 3934SOL    HW315503   5.951   3.990   4.192  0.8298  2.0053  1.0402
 3934SOL    MW415504   5.955   4.014   4.108 -0.3905  0.0935 -0.3158
 3935SOL     OW15505   5.376   2.374   0.304  0.6411  0.3845  0.1566
 3935SOL    HW215506   5.355   2.300   0.246 -0.0109  0.1175  0.7187
 3935SOL    HW315507   5.337   2.450   0.260 -0.6785  0.0452  0.6816
 3935SOL    MW415508   5.368   2.374   0.290  0.3884  0.0309 -0.0130
 3936SOL     OW15509   3.774   5.728   2.389 -0.0519 -0.3181 -0.4843
 3936SOL    HW215510   3.741   5.787   2.321 -0.4151 -2.0497 -1.8655
 3936SOL    HW315511   3.747   5.641   2.361  0.6251 -1.1945  1.4090
 3936SOL    MW415512   3.766   5.724   2.376 -0.1895 -0.0978  0.0279
 3937SOL     OW15513   3.272   4.412   6.389 -0.2406 -0.0923 -0.7046
 3937SOL    HW215514   3.300   4.470   6.318  0.0384 -0.6437 -1.0477
 3937SOL    HW315515   3.230   4.471   6.452  1.3700  0.6976 -0.3322
 3937SOL    MW415516   3.270   4.428   6.388 -0.4445 -0.0407  0.0043
 3938SOL     OW15517   1.412   6.353   3.953  0.0803 -0.1678 -0.3773
 3938SOL    HW215518   1.398   6.289   3.883 -0.5170 -0.9399  0.4382
 3938SOL    HW315519   1.396   6.305   4.034 -1.0688  1.1770  0.2315
 3938SOL    MW415520   1.408   6.338   3.954  0.0351  0.4403  0.0101
 3939SOL     OW15521   0.543   5.611   4.213  0.0998 -0.1913  0.0487
 3939SOL    HW215522   0.567   5.703   4.222  0.9373 -0.4860  1.0091
 3939SOL    HW315523   0.525   5.581   4.302 -2.0271 -0.4964 -0.4383
 3939SOL    MW415524   0.544   5.619   4.226  0.0730  0.0921 -0.0869
 3940SOL     OW15525   3.940   1.536   4.871  0.1882 -0.5028 -0.3016
 3940SOL    HW215526   3.901   1.594   4.936  0.6704 -0.7318  0.1962
 3940SOL    HW315527   4.034   1.551   4.879  0.2401 -0.1824 -1.2772
 3940SOL    MW415528   3.947   1.546   4.881 -0.1152  0.0015  0.1180
 3941SOL     OW15529   5.132   3.124   6.228  0.2552 -0.2207  0.3600
 3941SOL    HW215530   5.150   3.123   6.322  0.2784 -2.2122  0.3690
 3941SOL    HW315531   5.054   3.069   6.218  0.6296 -0.5632 -0.8446
 3941SOL    MW415532   5.124   3.117   6.239 -0.3057  0.2792 -0.6407
 3942SOL     OW15533   1.418   4.785   4.977 -0.3105  0.2927  0.2111
 3942SOL    HW215534   1.482   4.834   5.029 -0.9899  0.1443  1.2197
 3942SOL    HW315535   1.362   4.743   5.042 -1.3134  0.2612 -0.6494
 3942SOL    MW415536   1.419   4.786   4.992 -0.2548 -0.2739 -0.1253
 3943SOL     OW15537   5.928   1.050   5.948  0.2732 -0.4899 -0.1953
 3943SOL    HW215538   5.943   1.138   5.914 -0.8764  0.9431  2.6377
 3943SOL    HW315539   5.833   1.046   5.960  0.2638 -2.3159 -0.6761
 3943SOL    MW415540   5.917   1.061   5.945 -0.2452  0.3581  0.4722
 3944SOL     OW15541   3.629   1.456   6.155  0.3601  0.9731 -0.5891
 3944SOL    HW215542   3.540   1.491   6.147  0.3783  0.7788 -1.6875
 3944SOL    HW315543   3.667   1.505   6.228 -0.5649  1.2289 -0.2646
 3944SOL    MW415544   3.622   1.467   6.164  0.3910 -0.3460  0.6882
 3945SOL     OW15545   6.030   0.551   4.310  0.5923  0.0644 -0.3344
 3945SOL    HW215546   5.966   0.619   4.329 -1.2949 -2.1483  1.9717
 3945SOL    HW315547   6.088   0.551   4.386 -0.0996 -1.5074  0.2534
 3945SOL    MW415548   6.029   0.560   4.323  0.6090 -0.2998  0.2626
 3946SOL     OW15549   6.336  -0.001   6.272 -0.3480  0.1064 -0.1338
 3946SOL    HW215550   6.328   0.094   6.269  0.5645  0.2126  0.2359
 3946SOL    HW315551   6.357  -0.020   6.364 -0.4830 -0.4472 -0.2131
 3946SOL    MW415552   6.338   0.009   6.284  0.1214  0.3295  0.1090
 3947SOL     OW15553   2.107   0.977   5.378  0.6595  0.8878 -0.7998
 3947SOL    HW215554   2.169   1.047   5.357 -0.4083  2.6038  1.3494
 3947SOL    HW315555   2.084   0.939   5.293  3.2743  1.3489 -1.8025
 3947SOL    MW415556   2.112   0.981   5.364 -0.1769 -0.2588  0.0321
 3948SOL     OW15557   3.119   4.895   4.837 -0.2124 -0.0728  0.4282
 3948SOL    HW215558   3.155   4.806   4.844 -0.3908 -0.1949 -0.1318
 3948SOL    HW315559   3.081   4.898   4.749 -0.2330  0.5510  0.4559
 3948SOL    MW415560   3.119   4.883   4.826  0.0005  0.5234  0.1749
 3949SOL     OW15561   2.131   4.496   5.875 -0.5384  0.2696  0.0618
 3949SOL    HW215562   2.099   4.413   5.910 -1.5922  0.5220 -0.2543
 3949SOL    HW315563   2.206   4.518   5.929 -0.0007 -1.0740 -0.0885
 3949SOL    MW415564   2.136   4.488   5.886 -0.5822 -0.3401  0.0979
 3950SOL     OW15565   1.106   6.073   6.372 -0.1347  0.5006 -0.4627
 3950SOL    HW215566   1.080   6.159   6.404 -0.1422  0.3742 -0.1239
 3950SOL    HW315567   1.194   6.060   6.407  0.0114  0.5220 -0.8139
 3950SOL    MW415568   1.115   6.082   6.381  0.1247  0.3755  0.3410
 3951SOL     OW15569   3.810   1.451   1.441  0.4601 -0.4638  0.1651
 3951SOL    HW215570   3.727   1.457   1.395  1.1894  0.7181 -1.0586
 3951SOL    HW315571   3.787   1.419   1.528 -1.1811 -0.8065 -0.3597
 3951SOL    MW415572   3.796   1.447   1.446  0.6445 -0.1058  0.1956
 3952SOL     OW15573   4.998   6.032   0.918 -0.3678 -0.2580  0.0623
 3952SOL    HW215574   5.075   5.975   0.919 -0.7022 -0.7194 -0.2327
 3952SOL    HW315575   4.973   6.039   0.826  0.6112  1.6694 -0.1135
 3952SOL    MW415576   5.005   6.026   0.906  0.5832  0.5491  0.5939
 3953SOL     OW15577   0.203   1.553   1.540 -0.3710 -0.0154 -0.0465
 3953SOL    HW215578   0.235   1.520   1.624  1.9062 -3.0299 -1.8811
 3953SOL    HW315579   0.279   1.592   1.499 -1.3440  1.0306 -0.9076
 3953SOL    MW415580   0.217   1.554   1.546  0.4334  0.1152 -0.6208
 3954SOL     OW15581   1.178   1.816   0.163  0.2559 -0.4344 -0.1399
 3954SOL    HW215582   1.197   1.784   0.252  1.0894 -0.0521 -0.1716
 3954SOL    HW315583   1.137   1.901   0.177  2.9574  0.9688 -0.1284
 3954SOL    MW415584   1.175   1.823   0.177  0.5778  0.0220 -0.1083
 3955SOL     OW15585   3.877   4.887   4.275 -0.3023 -0.1965  0.2583
 3955SOL    HW215586   3.800   4.861   4.224 -0.4395  0.6594  0.0115
 3955SOL    HW315587   3.846   4.959   4.330  0.1065 -0.4233  0.7944
 3955SOL    MW415588   3.863   4.893   4.276  0.3815 -0.4934  0.1875
 3956SOL     OW15589   0.866   3.848   4.980  0.2940 -0.3556 -0.4787
 3956SOL    HW215590   0.940   3.791   5.002 -0.0641 -0.6411  0.0068
 3956SOL    HW315591   0.806   3.839   5.054  1.0530  2.0617  0.5452
 3956SOL    MW415592   0.868   3.839   4.993  0.2780  0.0730 -0.3755
 3957SOL     OW15593   3.509   3.479   5.249 -0.1892 -0.2822 -0.1100
 3957SOL    HW215594   3.467   3.441   5.172  0.5276 -2.2203  0.3903
 3957SOL    HW315595   3.529   3.404   5.305  1.8201  0.7735  0.7107
 3957SOL    MW415596   3.506   3.464   5.246  0.0262 -0.0685 -0.1474
 3958SOL     OW15597   6.243   4.547   1.180  0.4723 -0.2270  0.3685
 3958SOL    HW215598   6.236   4.452   1.181  0.6534 -0.3529  3.9120
 3958SOL    HW315599   6.171   4.577   1.125  1.3272 -2.3605 -2.0951
 3958SOL    MW415600   6.233   4.539   1.173  0.3789 -0.0152 -0.4516
 3959SOL     OW15601   5.276   5.998   3.694  0.1376 -0.7078 -0.0776
 3959SOL    HW215602   5.324   5.970   3.772 -3.1222  2.8384  3.7421
 3959SOL    HW315603   5.204   5.936   3.686 -1.8603  1.0297  2.6060
 3959SOL    MW415604   5.273   5.986   3.704 -0.2785 -0.2813  0.0900
 3960SOL     OW15605   2.165   3.126   0.703 -0.5314 -0.0904 -0.2150
 3960SOL    HW215606   2.224   3.149   0.630  1.1935 -1.5759  0.6269
 3960SOL    HW315607   2.077   3.142   0.669  0.2749  0.4723 -2.1791
 3960SOL    MW415608   2.162   3.131   0.689  0.0806 -0.4380  0.5956
 3961SOL     OW15609   0.973   5.264   0.329  0.7471 -0.5493 -0.1657
 3961SOL    HW215610   0.914   5.283   0.402  0.5824 -0.2640 -0.3706
 3961SOL    HW315611   0.922   5.207   0.271  0.6427 -0.2344 -0.3839
 3961SOL    MW415612   0.958   5.259   0.331 -0.0263 -0.6388  0.2038
 3962SOL     OW15613   2.917   4.538   1.420 -0.1524 -0.4787  0.0011
 3962SOL    HW215614   2.958   4.454   1.404  0.5443 -0.0243 -0.6404
 3962SOL    HW315615   2.826   4.517   1.441  0.1890 -1.4348  0.5749
 3962SOL    MW415616   2.910   4.524   1.421  0.3563 -0.4258  0.3844
 3963SOL     OW15617   5.293   2.614   4.465 -0.3678 -0.2270 -0.8713
 3963SOL    HW215618   5.382   2.587   4.488 -0.2911  0.6958 -0.0450
 3963SOL    HW315619   5.256   2.537   4.421  0.4831 -0.9894 -0.3017
 3963SOL    MW415620   5.300   2.600   4.462  0.1745  0.3367  0.0387
 3964SOL     OW15621   4.419   1.498   1.121  0.5555  0.0915 -0.0252
 3964SOL    HW215622   4.351   1.432   1.130  1.0444 -0.2085  2.0213
 3964SOL    HW315623   4.486   1.456   1.066 -0.3610 -0.0342 -1.0837
 3964SOL    MW415624   4.419   1.484   1.115 -0.1982  0.3264 -0.5917
 3965SOL     OW15625   5.412   2.736   3.447 -0.1416  0.2747  0.5374
 3965SOL    HW215626   5.486   2.681   3.421 -1.4479 -2.2920  1.8885
 3965SOL    HW315627   5.414   2.736   3.543 -1.1163  1.3273  0.5858
 3965SOL    MW415628   5.422   2.729   3.456  0.1068  0.5759 -0.4774
 3966SOL     OW15629   2.346   6.252   2.329 -0.4767  0.1716 -0.1508
 3966SOL    HW215630   2.298   6.204   2.397 -0.5330  0.1497 -0.2047
 3966SOL    HW315631   2.290   6.327   2.308 -1.1923 -0.6255 -1.2273
 3966SOL    MW415632   2.332   6.255   2.335  0.0135 -0.5133 -0.2827
 3967SOL     OW15633   3.905   0.264   0.125 -0.4675  0.1177  0.0525
 3967SOL    HW215634   3.838   0.240   0.188 -0.7541  0.5199 -0.0964
 3967SOL    HW315635   3.873   0.345   0.085  0.6952  1.0414  0.8972
 3967SOL    MW415636   3.892   0.272   0.128 -0.0755 -0.4589 -0.3013
 3968SOL     OW15637   2.496   0.498   0.058  0.6451  0.0529 -0.6699
 3968SOL    HW215638   2.426   0.485  -0.007  0.6922 -0.0798 -0.6950
 3968SOL    HW315639   2.467   0.573   0.110 -0.6817 -1.4147  0.8333
 3968SOL    MW415640   2.483   0.506   0.056 -0.4038 -0.0809  0.8772
 3969SOL     OW15641   3.303   1.851   4.180 -0.1080 -0.0805 -0.3114
 3969SOL    HW215642   3.337   1.765   4.204 -0.3360 -0.8177 -2.4519
 3969SOL    HW315643   3.376   1.911   4.195  0.4195 -0.8179  0.1313
 3969SOL    MW415644   3.317   1.847   4.185  0.4964 -0.1932  0.3450
 3970SOL     OW15645   4.299   5.948   4.697 -0.1482  0.4046 -0.9470
 3970SOL    HW215646   4.371   5.886   4.701  0.1242  0.7538  1.9285
 3970SOL    HW315647   4.222   5.895   4.674  0.0534 -1.1112  1.5287
 3970SOL    MW415648   4.298   5.933   4.695  0.6789  0.2556  0.3528
 3971SOL     OW15649   3.095   4.056   3.779  0.8222 -0.2867  0.2798
 3971SOL    HW215650   3.105   3.995   3.706 -1.8565 -1.9840  1.1788
 3971SOL    HW315651   3.034   4.123   3.747  0.7510 -0.2360  0.5176
 3971SOL    MW415652   3.088   4.057   3.765  0.5134 -0.2423  0.0631
 3972SOL     OW15653   0.674   5.905   1.074 -0.4436  0.2153 -0.3737
 3972SOL    HW215654   0.589   5.874   1.106 -0.3439  0.2108 -0.1032
 3972SOL    HW315655   0.733   5.830   1.088 -0.2868  0.3888 -0.0815
 3972SOL    MW415656   0.671   5.891   1.080  0.0655 -0.3660  0.2124
 3973SOL     OW15657   4.434   2.894   0.349  0.5706  0.0543 -0.1718
 3973SOL    HW215658   4.456   2.828   0.415  1.1212  0.1755 -0.2337
 3973SOL    HW315659   4.364   2.854   0.298 -0.2357  0.1599  0.8076
 3973SOL    MW415660   4.427   2.880   0.351 -0.1065 -0.0347 -0.3108
 3974SOL     OW15661   2.025   2.692   3.496  0.7182  0.6567  0.0804
 3974SOL    HW215662   1.965   2.664   3.565  0.9158  2.0692  0.8597
 3974SOL    HW315663   1.971   2.748   3.440  1.1386  1.4250  0.4333
 3974SOL    MW415664   2.010   2.696   3.498  0.0041 -0.0680  0.2673
 3975SOL     OW15665   5.082   4.432   1.362  0.4949 -0.4624 -0.2547
 3975SOL    HW215666   5.051   4.502   1.304 -0.3449  0.6511  1.4705
 3975SOL    HW315667   5.006   4.409   1.416  1.4637 -0.8664  0.9949
 3975SOL    MW415668   5.068   4.438   1.361 -0.3330 -0.1414 -0.2678
 3976SOL     OW15669   4.551   4.466   4.276 -0.1390 -1.1572  0.5974
 3976SOL    HW215670   4.458   4.453   4.294  0.0749 -3.8159  0.1771
 3976SOL    HW315671   4.565   4.423   4.192  1.1312  0.9851 -0.3927
 3976SOL    MW415672   4.540   4.459   4.267  0.2273 -0.4050 -0.4984
 3977SOL     OW15673   5.246   6.278   5.622  0.4950  0.3173 -0.5080
 3977SOL    HW215674   5.327   6.237   5.652 -0.2703 -0.2384  0.8582
 3977SOL    HW315675   5.249   6.367   5.659  0.0099 -0.0463  0.4297
 3977SOL    MW415676   5.257   6.285   5.631 -0.5508  0.1191 -0.5181
 3978SOL     OW15677   4.099   2.064   4.375 -0.0459  0.8483  0.0134
 3978SOL    HW215678   4.141   2.141   4.412  1.2479  0.1271  0.1033
 3978SOL    HW315679   4.089   2.085   4.282 -1.0433  1.6830  0.2926
 3978SOL    MW415680   4.103   2.077   4.368  0.4999  0.0218 -0.4183
 3979SOL     OW15681   3.143   5.648   5.328 -0.3948 -0.0675  0.5315
 3979SOL    HW215682   3.151   5.650   5.233 -0.3519  0.1103  0.5403
 3979SOL    HW315683   3.085   5.573   5.345 -0.1030 -0.3296  0.3860
 3979SOL    MW415684   3.136   5.638   5.318 -0.0219  0.4324 -0.4600
 3980SOL     OW15685   6.171   4.123   0.936  0.3423 -0.1967 -0.3788
 3980SOL    HW215686   6.096   4.065   0.924  1.4620 -1.7563 -0.0721
 3980SOL    HW315687   6.226   4.079   1.001  2.5635 -0.1860 -2.1327
 3980SOL    MW415688   6.169   4.110   0.943  0.0450  0.3820  0.0144
 3981SOL     OW15689   6.369   4.484   4.826 -0.0807 -0.5083  0.0101
 3981SOL    HW215690   6.315   4.563   4.828 -2.6911 -2.1465 -0.3974
 3981SOL    HW315691   6.341   4.434   4.903 -0.4003 -2.1394 -1.0936
 3981SOL    MW415692   6.358   4.488   4.837  0.0540 -0.1229  0.0863
 3982SOL     OW15693   1.637   6.319   4.497 -1.1794 -0.0911 -0.5354
 3982SOL    HW215694   1.714   6.365   4.530 -0.4044 -1.1171 -0.9002
 3982SOL    HW315695   1.635   6.237   4.546 -2.9093  0.5428  0.5591
 3982SOL    MW415696   1.647   6.314   4.508  0.0874 -0.6924 -0.0628
 3983SOL     OW15697   4.681   5.499   5.572  0.1587  0.2788  0.1341
 3983SOL    HW215698   4.725   5.527   5.491  0.1584  0.6662  0.2645
 3983SOL    HW315699   4.630   5.423   5.546 -0.0049  0.5258 -0.2797
 3983SOL    MW415700   4.680   5.493   5.558  0.8449  0.3055 -0.5993
 3984SOL     OW15701   0.255   5.506   2.171  0.1710  0.3904  0.3072
 3984SOL    HW215702   0.219   5.446   2.237  2.5098 -0.7098  0.6975
 3984SOL    HW315703   0.285   5.581   2.222 -2.7326  2.0177 -0.1797
 3984SOL    MW415704   0.254   5.508   2.187 -0.0780 -0.2756 -0.5112
 3985SOL     OW15705   2.459   0.017   1.424  0.0954 -0.5216  0.1480
 3985SOL    HW215706   2.450   0.013   1.519  0.5214  0.1082  0.2156
 3985SOL    HW315707   2.422   0.101   1.399  0.8492 -0.2673 -0.1419
 3985SOL    MW415708   2.453   0.027   1.433 -0.2347 -0.3685 -0.9672
 3986SOL     OW15709   1.490   3.692   4.314 -0.1433  0.0725  0.0517
 3986SOL    HW215710   1.521   3.768   4.264 -1.1870  0.7454  0.4125
 3986SOL    HW315711   1.571   3.650   4.345  0.4431  1.1423  0.0133
 3986SOL    MW415712   1.505   3.696   4.312 -0.0997 -0.3000  0.1459
 3987SOL     OW15713   0.285   2.657   4.764  0.1258  0.3828 -0.5873
 3987SOL    HW215714   0.358   2.616   4.718  0.6881 -2.7606  2.6169
 3987SOL    HW315715   0.318   2.744   4.787  1.1188  0.6840 -2.8660
 3987SOL    MW415716   0.299   2.663   4.761 -0.2588 -0.6232  0.4691
 3988SOL     OW15717   5.409   5.549   6.267  0.5450 -0.0012  0.2282
 3988SOL    HW215718   5.384   5.595   6.187  1.6046 -0.2440 -0.2614
 3988SOL    HW315719   5.344   5.480   6.277  1.0895 -0.7465 -1.1266
 3988SOL    MW415720   5.397   5.546   6.258  0.0903 -0.3871  0.7736
 3989SOL     OW15721   3.319   3.120   1.434  1.1312  0.5425 -0.4279
 3989SOL    HW215722   3.304   3.068   1.512 -0.2264  1.3073 -0.1552
 3989SOL    HW315723   3.370   3.063   1.376  0.6269 -0.6729  0.3050
 3989SOL    MW415724   3.324   3.106   1.436  0.2016 -0.1670  0.0893
 3990SOL     OW15725   1.963   3.732   3.566  0.0632 -0.0203  1.0026
 3990SOL    HW215726   1.986   3.650   3.522 -0.9142 -0.6496  1.6316
 3990SOL    HW315727   2.045   3.762   3.604  0.7656  0.1199 -0.5446
 3990SOL    MW415728   1.977   3.725   3.565  0.5005 -0.1046  0.5945
 3991SOL     OW15729   0.227   0.194   0.534 -0.2471 -0.2739  0.5073
 3991SOL    HW215730   0.214   0.099   0.540 -1.0030 -0.0746  2.7344
 3991SOL    HW315731   0.242   0.222   0.624 -1.9264  1.9871  0.1705
 3991SOL    MW415732   0.227   0.185   0.546 -0.0914  0.5670 -0.0279
 3992SOL     OW15733   0.250   6.143   2.316 -0.9715 -0.2777 -0.8444
 3992SOL    HW215734   0.220   6.069   2.368 -0.8283 -0.4770 -1.0417
 3992SOL    HW315735   0.331   6.171   2.357 -2.3220  1.4281  0.8036
 3992SOL    MW415736   0.256   6.137   2.328 -0.0889 -0.4301  0.3005
 3993SOL     OW15737   5.205   5.465   5.766  0.3884  0.5563  0.5087
 3993SOL    HW215738   5.119   5.503   5.746  0.4199 -0.4958 -1.9536
 3993SOL    HW315739   5.234   5.511   5.845 -0.9885  3.2806 -0.4656
 3993SOL    MW415740   5.197   5.476   5.774 -0.4803 -0.3082  0.2183
 3994SOL     OW15741   0.321   4.813   4.752 -0.0842  0.4651 -0.1221
 3994SOL    HW215742   0.241   4.834   4.703  0.6118 -0.0144 -1.5291
 3994SOL    HW315743   0.356   4.898   4.780 -1.0692  0.6771  0.4905
 3994SOL    MW415744   0.315   4.827   4.749 -0.3080 -0.0126  0.4222
 3995SOL     OW15745   4.574   1.158   0.065 -0.1949  0.0129 -0.0124
 3995SOL    HW215746   4.488   1.139   0.028 -1.1457  0.2103  1.9432
 3995SOL    HW315747   4.616   1.072   0.071 -2.1011 -0.8920  3.1666
 3995SOL    MW415748   4.568   1.144   0.061  0.6576  0.3367  0.2619
 3996SOL     OW15749   4.322   5.246   2.361 -0.3790 -0.7149  0.0110
 3996SOL    HW215750   4.323   5.280   2.450  1.4982  0.5222 -0.4171
 3996SOL    HW315751   4.312   5.323   2.305 -1.4256 -1.4583 -0.8634
 3996SOL    MW415752   4.321   5.260   2.365 -0.6937 -0.6474  0.0518
 3997SOL     OW15753   1.271   2.362   0.126 -0.1024  0.4181  0.5030
 3997SOL    HW215754   1.305   2.434   0.179 -0.2250  1.9587 -1.3814
 3997SOL    HW315755   1.184   2.392   0.099  0.9777  0.9902 -2.7359
 3997SOL    MW415756   1.264   2.376   0.130 -0.4856 -0.2228 -0.2513
 3998SOL     OW15757   3.303   4.001   1.161 -0.1547 -0.7039  0.2886
 3998SOL    HW215758   3.214   3.973   1.180 -1.2828  1.5467 -1.1314
 3998SOL    HW315759   3.309   4.089   1.197  0.4459  0.3223 -2.0695
 3998SOL    MW415760   3.292   4.009   1.168 -0.6665 -0.3803  0.5861
 3999SOL     OW15761   0.488   4.428   1.025  0.1227 -0.2524  0.9443
 3999SOL    HW215762   0.559   4.486   0.996  0.5858  0.9245  4.0484
 3999SOL    HW315763   0.408   4.476   1.004  0.3488 -0.1799  0.2067
 3999SOL    MW415764   0.487   4.442   1.018  0.1370  0.1458 -0.3190
 4000SOL     OW15765   5.143   2.965   1.480  0.4371  0.1773  0.3586
 4000SOL    HW215766   5.193   2.899   1.431  0.1903 -0.5182  1.0227
 4000SOL    HW315767   5.131   3.036   1.418  0.5610 -0.4792 -0.4440
 4000SOL    MW415768   5.148   2.965   1.465  0.6476  0.1817 -0.3614
 4001SOL     OW15769   2.902   1.943   5.288 -0.3161  0.6404  0.1213
 4001SOL    HW215770   2.933   1.946   5.379 -0.7721  2.2079  0.2564
 4001SOL    HW315771   2.808   1.957   5.295 -0.5674 -0.5603 -0.5319
 4001SOL    MW415772   2.894   1.945   5.301 -0.0395 -0.2584  0.1046
 4002SOL     OW15773   6.011   2.678   4.997  0.1236  0.8380  0.2133
 4002SOL    HW215774   5.928   2.674   4.949  0.5828  1.4971 -0.6741
 4002SOL    HW315775   6.075   2.708   4.932  0.9938  0.6758  0.9667
 4002SOL    MW415776   6.009   2.681   4.982  0.1888  0.1159  0.1518
 4003SOL     OW15777   3.461   0.688   2.632  0.0654 -0.1834  0.0260
 4003SOL    HW215778   3.388   0.651   2.682 -1.1148  0.0617 -1.4159
 4003SOL    HW315779   3.474   0.775   2.670  0.1820 -0.5514  0.8469
 4003SOL    MW415780   3.453   0.695   2.644 -0.1353 -0.0627  0.5093
 4004SOL     OW15781   6.078   5.070   1.576  0.2733  0.2718 -0.0368
 4004SOL    HW215782   6.140   5.036   1.641  0.1574 -0.6945 -0.4235
 4004SOL    HW315783   5.995   5.027   1.595  0.1427  0.2654 -0.5925
 4004SOL    MW415784   6.075   5.060   1.587  0.0666 -0.1036 -0.2300
 4005SOL     OW15785   2.485   2.701   2.459  0.4570 -0.5090 -0.0068
 4005SOL    HW215786   2.553   2.744   2.407 -2.3515  1.4099 -2.4372
 4005SOL    HW315787   2.474   2.615   2.418  0.6790 -0.3782 -0.3451
 4005SOL    MW415788   2.492   2.695   2.446  0.4654  0.5776  0.9113
 4006SOL     OW15789   6.396   5.149   1.153  0.0720  0.1891  0.3507
 4006SOL    HW215790   6.387   5.235   1.113  1.5604 -0.1216 -0.7216
 4006SOL    HW315791   6.373   5.164   1.245 -1.8316  1.2427 -0.2297
 4006SOL    MW415792   6.392   5.163   1.160 -0.1144 -0.1429  0.6572
 4007SOL     OW15793   2.268   5.089   0.450 -0.0521 -0.5287  0.3570
 4007SOL    HW215794   2.248   5.120   0.539 -0.7055  2.7866 -0.8112
 4007SOL    HW315795   2.183   5.066   0.413 -0.2689  1.4225 -0.4681
 4007SOL    MW415796   2.254   5.090   0.457 -0.2326 -0.0379  0.1259
 4008SOL     OW15797   2.779   2.737   5.428 -0.4703  0.2434 -0.6524
 4008SOL    HW215798   2.730   2.808   5.388  0.1898  0.1929 -1.5610
 4008SOL    HW315799   2.822   2.692   5.355 -1.0693 -1.2513 -0.1334
 4008SOL    MW415800   2.778   2.740   5.413 -0.2048  0.1606  0.2552
 4009SOL     OW15801   2.832   2.272   5.768 -0.5155 -0.1195 -0.6166
 4009SOL    HW215802   2.756   2.330   5.776  0.7441  1.3331  2.3355
 4009SOL    HW315803   2.814   2.220   5.690 -2.7198  2.8260 -2.3081
 4009SOL    MW415804   2.820   2.273   5.759 -0.2575  0.2619  0.0502
 4010SOL     OW15805   1.744   2.887   4.732 -0.0222 -0.3305  0.2975
 4010SOL    HW215806   1.834   2.856   4.741  0.5353  0.7106 -1.2791
 4010SOL    HW315807   1.728   2.939   4.811  0.8786 -0.2550  0.4358
 4010SOL    MW415808   1.754   2.890   4.743 -0.5711 -0.4536  0.0007
 4011SOL     OW15809   1.561   0.550   2.696 -0.4420  0.2552 -0.5228
 4011SOL    HW215810   1.576   0.457   2.678  0.5960 -0.0752  1.6358
 4011SOL    HW315811   1.485   0.551   2.754 -1.2400  0.8981 -1.5431
 4011SOL    MW415812   1.553   0.538   2.702  0.2154 -0.9302  0.1323
 4012SOL     OW15813   3.381   2.172   4.435 -0.1848  0.3766 -0.0760
 4012SOL    HW215814   3.322   2.097   4.436  0.1843  0.0909  0.8121
 4012SOL    HW315815   3.346   2.229   4.366 -2.4722  0.9856  1.4749
 4012SOL    MW415816   3.369   2.170   4.426 -0.4838  0.2465  0.1546
 4013SOL     OW15817   4.237   1.754   5.459 -0.1522  0.2575  0.4571
 4013SOL    HW215818   4.286   1.672   5.454 -1.3639 -0.6847  2.4955
 4013SOL    HW315819   4.305   1.821   5.466  0.8727 -0.7379  0.5240
 4013SOL    MW415820   4.253   1.752   5.460 -0.0174  0.1380 -0.2052
 4014SOL     OW15821   1.470   6.294   3.163  0.0793  0.3856  0.6342
 4014SOL    HW215822   1.421   6.224   3.120  2.1741 -0.8716  0.1581
 4014SOL    HW315823   1.404   6.343   3.212 -1.4301 -1.9939  1.1108
 4014SOL    MW415824   1.455   6.291   3.164 -0.0848  0.3293 -0.2928
 4015SOL     OW15825   0.450   1.151   1.166  0.1132 -0.2479 -0.4195
 4015SOL    HW215826   0.436   1.072   1.220 -0.2320 -0.8041 -1.3058
 4015SOL    HW315827   0.542   1.145   1.139 -0.2745 -1.0808 -1.6109
 4015SOL    MW415828   0.461   1.140   1.170  0.3402  0.2722  0.4073
 4016SOL     OW15829   1.122   0.941   1.496 -0.9233 -0.0379 -0.2469
 4016SOL    HW215830   1.046   0.963   1.550 -1.2061  0.0472 -0.6796
 4016SOL    HW315831   1.143   1.023   1.450  0.1423  0.2726  0.7340
 4016SOL    MW415832   1.115   0.955   1.497  0.0405 -0.0223  0.0441
 4017SOL     OW15833   3.391   4.383   1.792 -0.1675  0.5172  0.1556
 4017SOL    HW215834   3.351   4.468   1.776 -1.6571 -0.1237  0.3616
 4017SOL    HW315835   3.318   4.323   1.803  0.8528 -0.7371  0.3795
 4017SOL    MW415836   3.376   4.386   1.791 -0.1068  0.1905 -0.3050
 4018SOL     OW15837   5.062   0.498   5.349  0.6078  0.1201  0.7921
 4018SOL    HW215838   5.005   0.493   5.272  1.3249  1.6657  0.1330
 4018SOL    HW315839   5.058   0.410   5.387 -0.9295 -0.2560 -0.1517
 4018SOL    MW415840   5.054   0.486   5.344  0.2567 -0.0418  0.2248
 4019SOL     OW15841   2.326   2.562   0.577  0.0558 -0.0059  0.0240
 4019SOL    HW215842   2.307   2.655   0.593  0.4564  0.3541 -1.4481
 4019SOL    HW315843   2.257   2.533   0.518  0.4739 -0.3830 -0.2838
 4019SOL    MW415844   2.314   2.570   0.572  0.0109 -0.3946 -0.5287
 4020SOL     OW15845   0.265   0.135   2.363  0.2272 -0.5589  0.0462
 4020SOL    HW215846   0.184   0.141   2.414  0.1927  0.1622 -0.0881
 4020SOL    HW315847   0.331   0.103   2.425  0.0462 -0.2777  0.3826
 4020SOL    MW415848   0.263   0.131   2.378 -0.8807 -0.2366 -0.0660
 4021SOL     OW15849   5.335   1.153   0.904  0.4641 -0.0458  0.4723
 4021SOL    HW215850   5.304   1.088   0.968  2.2175 -0.5221  0.8731
 4021SOL    HW315851   5.284   1.232   0.924 -2.6045 -1.5125 -0.7705
 4021SOL    MW415852   5.324   1.155   0.915 -0.4245  0.2218  0.6288
 4022SOL     OW15853   2.087   3.678   5.459  0.1702 -0.1731  0.5456
 4022SOL    HW215854   2.070   3.666   5.365  2.4355 -0.9705  0.1752
 4022SOL    HW315855   2.114   3.769   5.467 -0.2454 -0.0411  0.4647
 4022SOL    MW415856   2.088   3.688   5.448  0.1550 -0.1298 -0.1265
 4023SOL     OW15857   5.551   1.698   1.104 -0.0194 -0.2964 -0.0659
 4023SOL    HW215858   5.634   1.723   1.144 -0.0643  0.1152 -0.2312
 4023SOL    HW315859   5.500   1.661   1.177 -0.1421  0.5553  0.2955
 4023SOL    MW415860   5.555   1.696   1.119  0.6417 -0.0650 -0.0761
 4024SOL     OW15861   5.827   6.267   1.184  0.0816 -0.4255  0.2024
 4024SOL    HW215862   5.752   6.243   1.239  0.7634 -0.8494  0.9756
 4024SOL    HW315863   5.898   6.209   1.214  0.0485 -1.8697 -2.2531
 4024SOL    MW415864   5.827   6.256   1.195 -0.0201  0.2708  0.4646
 4025SOL     OW15865   5.160   6.348   0.753  0.5207 -0.2778 -0.1557
 4025SOL    HW215866   5.133   6.352   0.845  1.3695 -1.3560  0.1528
 4025SOL    HW315867   5.219   6.423   0.743 -1.0469  0.9869 -0.3528
 4025SOL    MW415868   5.164   6.359   0.764 -0.2537  0.1452 -0.0419
 4026SOL     OW15869   2.251   3.109   3.599 -0.5999  0.1180  0.2865
 4026SOL    HW215870   2.245   3.014   3.615 -0.3264 -0.2917 -1.8091
 4026SOL    HW315871   2.163   3.141   3.618 -1.6275 -1.1165 -2.0322
 4026SOL    MW415872   2.239   3.100   3.604 -0.5758  0.7664  0.2305
 4027SOL     OW15873   6.068   3.739   0.863 -0.1336 -0.3016  0.1169
 4027SOL    HW215874   6.056   3.658   0.912 -1.0311 -0.0120  0.4025
 4027SOL    HW315875   6.162   3.743   0.845  0.2580 -0.3213  1.9751
 4027SOL    MW415876   6.079   3.729   0.867  0.0960 -0.3299 -0.6744
 4028SOL     OW15877   3.573   2.174   3.102 -0.1180  0.2180  0.0951
 4028SOL    HW215878   3.502   2.143   3.045 -0.7442  2.6990 -0.5664
 4028SOL    HW315879   3.652   2.168   3.048  0.1889 -2.1463  0.6936
 4028SOL    MW415880   3.574   2.169   3.087  0.0283 -0.7575  0.3340
 4029SOL     OW15881   1.357   0.172   0.566 -0.1277  0.2685  0.6794
 4029SOL    HW215882   1.375   0.113   0.639 -0.6257 -0.7421  0.0128
 4029SOL    HW315883   1.264   0.158   0.546  0.6700 -1.9234 -2.1839
 4029SOL    MW415884   1.347   0.163   0.573  0.0951 -0.6494 -0.2394
 4030SOL     OW15885   2.319   4.365   3.188  0.2385  0.1940  0.3767
 4030SOL    HW215886   2.363   4.355   3.272 -1.0099  0.6491  1.1120
 4030SOL    HW315887   2.259   4.439   3.200 -2.2962 -1.6708  0.1676
 4030SOL    MW415888   2.317   4.373   3.201 -0.0483 -0.0933  0.0562
 4031SOL     OW15889   4.260   2.367   1.612  0.1629 -0.0274 -0.1145
 4031SOL    HW215890   4.279   2.451   1.570 -0.0654 -0.4665 -1.1378
 4031SOL    HW315891   4.188   2.331   1.561  1.1511 -1.4560 -0.5634
 4031SOL    MW415892   4.253   2.373   1.599 -0.4798 -0.3091  0.2401
 4032SOL     OW15893   1.905   6.404   4.545  0.1156  0.7129  0.5115
 4032SOL    HW215894   1.987   6.387   4.499  0.0292  1.2022  0.1710
 4032SOL    HW315895   1.893   6.499   4.539  0.1259  0.7937  1.5807
 4032SOL    MW415896   1.914   6.415   4.538  0.1734 -0.0968  0.1313
 4033SOL     OW15897   6.070   3.074   1.208 -0.6040  0.3184  0.3776
 4033SOL    HW215898   6.139   3.060   1.144 -0.6954 -0.0938  0.3698
 4033SOL    HW315899   6.042   3.165   1.193 -0.3124  0.3702  0.1444
 4033SOL    MW415900   6.075   3.084   1.197  0.0610  0.4017 -0.5856
 4034SOL     OW15901   5.146   3.400   5.177 -0.3093  0.1229  0.9831
 4034SOL    HW215902   5.124   3.315   5.215  0.5189 -0.1174  0.9645
 4034SOL    HW315903   5.172   3.379   5.087 -0.5165  0.4555  0.8431
 4034SOL    MW415904   5.147   3.386   5.170 -0.3391 -0.3939 -0.4458
 4035SOL     OW15905   0.927   4.096   3.001  0.1163  0.4391 -0.2078
 4035SOL    HW215906   0.883   4.094   3.087 -2.1748 -0.2229 -1.3069
 4035SOL    HW315907   0.909   4.184   2.968 -0.6751  0.0742 -0.7800
 4035SOL    MW415908   0.919   4.107   3.008 -0.1106 -0.5030  0.2011
 4036SOL     OW15909   3.264   4.568   5.286 -0.0584 -0.4777  0.1021
 4036SOL    HW215910   3.344   4.552   5.236 -0.6005 -2.7018 -0.1770
 4036SOL    HW315911   3.293   4.612   5.366  1.4488 -1.2458  0.0046
 4036SOL    MW415912   3.278   4.572   5.290  0.0881 -0.3146  0.4343
 4037SOL     OW15913   3.163   4.813   3.895 -0.0185 -0.1169 -0.0666
 4037SOL    HW215914   3.229   4.854   3.951 -0.3315  0.2728  0.0152
 4037SOL    HW315915   3.168   4.860   3.812  0.6297 -0.8673 -0.4695
 4037SOL    MW415916   3.172   4.824   3.892 -0.0149 -0.0286 -0.3857
 4038SOL     OW15917   0.773   0.220   4.656  0.6232  0.5487 -0.1419
 4038SOL    HW215918   0.678   0.220   4.660  0.6203 -0.8994  0.2309
 4038SOL    HW315919   0.793   0.187   4.568  0.7457 -2.1061  0.8022
 4038SOL    MW415920   0.763   0.216   4.645  0.0486 -0.3223  0.5734
 4039SOL     OW15921   4.187   4.781   4.374 -0.1653 -0.1945 -0.2879
 4039SOL    HW215922   4.114   4.754   4.429  0.6194 -1.7268  0.0713
 4039SOL    HW315923   4.265   4.756   4.424  0.6154  1.2758 -0.7219
 4039SOL    MW415924   4.188   4.774   4.388  0.2415  0.0728 -0.7394
 4040SOL     OW15925   4.874   2.704   0.616 -0.2879 -0.1474 -0.2146
 4040SOL    HW215926   4.804   2.654   0.574 -0.5288 -0.3566  0.4259
 4040SOL    HW315927   4.933   2.638   0.651 -0.7286 -0.0015  0.8376
 4040SOL    MW415928   4.872   2.689   0.615  0.2869 -0.0012  0.4409
 4041SOL     OW15929   2.511   6.057   3.504 -0.5739  0.3692  0.3074
 4041SOL    HW215930   2.520   6.010   3.587  0.8331  0.7430  0.3919
 4041SOL    HW315931   2.440   6.119   3.519  0.6079  1.4511  1.7594
 4041SOL    MW415932   2.503   6.059   3.517  0.1875 -0.5313  0.8219
 4042SOL     OW15933   1.433   2.574   5.440  0.1302  0.0460 -0.0133
 4042SOL    HW215934   1.367   2.593   5.507 -1.8299 -0.1149 -1.7865
 4042SOL    HW315935   1.486   2.653   5.436 -0.6308  0.6205  0.7107
 4042SOL    MW415936   1.431   2.587   5.449  0.0945 -0.1707  0.7943
 4043SOL     OW15937   3.646   6.036   4.043 -0.0883  0.1281 -0.3466
 4043SOL    HW215938   3.642   5.972   4.114 -0.5422  0.2203 -0.2846
 4043SOL    HW315939   3.737   6.032   4.012  0.2345  0.4400  0.5538
 4043SOL    MW415940   3.658   6.027   4.048 -0.2706  0.2924  0.2351
 4044SOL     OW15941   4.989   3.169   4.267 -0.2512  0.7443 -0.6468
 4044SOL    HW215942   4.972   3.263   4.261  1.3706  1.2240  1.0869
 4044SOL    HW315943   5.071   3.156   4.220 -0.1983  0.2968 -0.4430
 4044SOL    MW415944   4.998   3.180   4.260  0.4182 -0.2681 -0.1749
 4045SOL     OW15945   2.735   5.761   0.186 -0.0286  0.1759 -0.3000
 4045SOL    HW215946   2.678   5.751   0.110  0.9284 -2.0813 -0.8067
 4045SOL    HW315947   2.824   5.759   0.150  0.4263  0.9680  0.7207
 4045SOL    MW415948   2.739   5.760   0.172 -0.0676  0.3668  0.6743
 4046SOL     OW15949   3.472   5.535   4.992  0.0473  0.4520  0.1518
 4046SOL    HW215950   3.495   5.505   4.904  1.3387  0.7646  0.3712
 4046SOL    HW315951   3.396   5.591   4.980 -1.3310 -1.4314 -0.4802
 4046SOL    MW415952   3.465   5.538   4.979  0.6596  0.0530  0.4969
 4047SOL     OW15953   2.042   2.757   2.784  0.4152 -0.0246  0.2830
 4047SOL    HW215954   2.079   2.735   2.698  0.4487 -0.5775  0.4334
 4047SOL    HW315955   1.972   2.692   2.796 -0.6506  1.0374 -0.0264
 4047SOL    MW415956   2.037   2.745   2.774  0.1653  0.3268  0.0786
 4048SOL     OW15957   0.211   5.118   1.606  0.5980  0.2987  0.3443
 4048SOL    HW215958   0.160   5.193   1.637  1.1642  0.9074 -0.1798
 4048SOL    HW315959   0.221   5.132   1.512 -0.8986 -1.4214 -0.1234
 4048SOL    MW415960   0.205   5.130   1.598 -0.6328 -0.1313  0.1244
 4049SOL     OW15961   5.988   0.330   2.989  0.4843 -0.0645  0.1166
 4049SOL    HW215962   5.991   0.241   3.023  0.4993  0.7002  2.2661
 4049SOL    HW315963   5.910   0.333   2.933  1.7369 -1.9918 -1.9049
 4049SOL    MW415964   5.978   0.319   2.986  0.4023 -0.3059 -0.0675
 4050SOL     OW15965   5.228   4.236   1.222 -0.0734 -0.1987  0.9863
 4050SOL    HW215966   5.175   4.177   1.169  0.0173  0.5905 -0.0107
 4050SOL    HW315967   5.167   4.273   1.286 -0.3347 -0.6502  0.9952
 4050SOL    MW415968   5.213   4.233   1.223  0.4815  0.0628  0.0093
 4051SOL     OW15969   1.831   1.333   0.967  0.3368 -0.3123 -0.2257
 4051SOL    HW215970   1.808   1.241   0.983 -1.4005 -0.0732 -1.1444
 4051SOL    HW315971   1.906   1.348   1.025 -0.2675 -1.8891  1.0696
 4051SOL    MW415972   1.838   1.323   0.977 -0.2674 -0.2226  0.1173
 4052SOL     OW15973   0.847   1.633   1.520  0.3422  0.2385  0.1509
 4052SOL    HW215974   0.782   1.688   1.477  0.0943  1.0001  1.4501
 4052SOL    HW315975   0.891   1.691   1.582  2.4138 -0.1913 -0.8001
 4052SOL    MW415976   0.845   1.648   1.522  0.3920 -0.2153  0.4163
 4053SOL     OW15977   4.069   0.618   4.578  0.1026 -0.0960  0.2341
 4053SOL    HW215978   3.995   0.638   4.521 -0.4921 -0.0964  0.9894
 4053SOL    HW315979   4.134   0.686   4.558 -0.1157 -0.0577 -0.3832
 4053SOL    MW415980   4.068   0.630   4.568 -0.7830 -0.0579 -0.5442
 4054SOL     OW15981   1.995   0.593   0.391  0.0398 -0.0590 -0.4201
 4054SOL    HW215982   1.968   0.551   0.473 -0.8497 -0.5457 -0.9402
 4054SOL    HW315983   2.089   0.576   0.385  0.0426 -0.3375  0.3162
 4054SOL    MW415984   2.004   0.585   0.401 -0.2020 -0.7331  0.1010
 4055SOL     OW15985   5.393   4.189   2.410  0.5774 -0.1645  0.4265
 4055SOL    HW215986   5.396   4.136   2.330  0.5191  0.2059  0.1753
 4055SOL    HW315987   5.310   4.165   2.452  0.8651 -0.7636  0.6592
 4055SOL    MW415988   5.382   4.179   2.405  0.0728  0.2619 -1.1158
 4056SOL     OW15989   3.497   4.448   0.856 -0.1248  0.1216  0.6705
 4056SOL    HW215990   3.588   4.421   0.855 -0.0692  0.3097  0.6154
 4056SOL    HW315991   3.490   4.508   0.930  0.1583  1.3380 -0.2571
 4056SOL    MW415992   3.508   4.452   0.866 -0.2724  0.3034 -0.4274
 4057SOL     OW15993   5.522   2.854   0.737  0.2062 -0.2012  0.5305
 4057SOL    HW215994   5.604   2.883   0.778 -0.2436 -0.5122  1.6740
 4057SOL    HW315995   5.504   2.921   0.671  0.8989  0.3693  0.9016
 4057SOL    MW415996   5.530   2.867   0.734  0.0623  0.2353 -0.6272
 4058SOL     OW15997   5.580   5.870   2.339 -0.2768  0.1792 -0.2676
 4058SOL    HW215998   5.536   5.788   2.358 -0.4397  0.1406 -0.7866
 4058SOL    HW315999   5.668   5.860   2.375  0.4072 -1.0386 -2.1513
 4058SOL    MW416000   5.586   5.858   2.346 -0.4114 -0.5271 -0.0874
 4059SOL     OW16001   5.679   4.338   0.187 -0.2328  0.4467  0.1442
 4059SOL    HW216002   5.735   4.334   0.109  0.6890 -1.8508  0.8337
 4059SOL    HW316003   5.621   4.263   0.178  1.3344 -1.2171  2.6068
 4059SOL    MW416004   5.679   4.327   0.175  0.0016 -0.4313  0.3898
 4060SOL     OW16005   0.882   5.854   4.403 -0.0243  0.6840  0.0476
 4060SOL    HW216006   0.856   5.920   4.338 -3.2734 -0.8277 -0.4100
 4060SOL    HW316007   0.800   5.827   4.444  1.4919 -1.1883  2.1067
 4060SOL    MW416008   0.868   5.859   4.400  0.1879 -0.0324 -0.1230
 4061SOL     OW16009   4.938   1.479   1.882  0.7265  0.1158 -0.3316
 4061SOL    HW216010   4.979   1.547   1.936  1.1832 -0.0392 -0.4819
 4061SOL    HW316011   4.948   1.399   1.932  1.1964 -0.0382 -0.6611
 4061SOL    MW416012   4.944   1.478   1.895  0.1198  0.3375 -0.3742
 4062SOL     OW16013   3.347   1.322   1.709  0.3316  0.2195 -0.2483
 4062SOL    HW216014   3.373   1.411   1.686  0.9417  0.5816  1.6348
 4062SOL    HW316015   3.271   1.333   1.767 -0.1910 -0.5428 -0.7646
 4062SOL    MW416016   3.340   1.335   1.714  0.3988 -0.3935  0.1084
 4063SOL     OW16017   4.434   3.274   5.388 -0.3045  0.3983  0.1319
 4063SOL    HW216018   4.476   3.349   5.431  1.0856 -0.6497  0.6779
 4063SOL    HW316019   4.433   3.297   5.295  0.7258  0.8163  0.2168
 4063SOL    MW416020   4.439   3.287   5.382 -0.2112  0.3915 -0.3921
 4064SOL     OW16021   3.308   3.882   5.672  0.0440  0.3929  0.1024
 4064SOL    HW216022   3.403   3.883   5.686  0.0496  2.7518  0.2754
 4064SOL    HW316023   3.287   3.790   5.661  2.3885 -0.1841 -0.1588
 4064SOL    MW416024   3.318   3.870   5.672 -0.4119  0.3604 -0.1035
 4065SOL     OW16025   4.196   4.921   4.123 -0.7255 -0.1156  0.4952
 4065SOL    HW216026   4.193   4.892   4.214 -1.4709 -0.1681  0.4631
 4065SOL    HW316027   4.287   4.946   4.108  0.1821 -3.1412  0.2989
 4065SOL    MW416028   4.208   4.920   4.133  0.3938 -0.4231  0.2736
 4066SOL     OW16029   5.009   0.689   2.654  0.3524  0.5105  0.0421
 4066SOL    HW216030   4.971   0.602   2.637 -1.5603  1.3500 -0.2659
 4066SOL    HW316031   5.090   0.670   2.702  0.8215 -1.4914 -1.3770
 4066SOL    MW416032   5.015   0.675   2.658  1.0477  0.3604 -0.1790
 4067SOL     OW16033   1.799   0.610   3.368  0.1046  0.0318  0.2725
 4067SOL    HW216034   1.837   0.698   3.373  0.7493 -0.1967 -0.4244
 4067SOL    HW316035   1.826   0.577   3.282 -0.0139 -0.8970  0.5794
 4067SOL    MW416036   1.808   0.617   3.357  0.1217 -0.6773  0.0611
 4068SOL     OW16037   0.338   0.689   5.206  0.2051 -0.2587  0.0291
 4068SOL    HW216038   0.426   0.681   5.243 -0.3993  2.6119  2.4499
 4068SOL    HW316039   0.329   0.782   5.184 -2.1399 -0.5134 -0.3995
 4068SOL    MW416040   0.348   0.701   5.208  0.0451  0.0670  0.0700
 4069SOL     OW16041   1.573   4.244   3.993 -0.6026  0.1335  0.3156
 4069SOL    HW216042   1.641   4.202   3.940 -0.8474 -0.4536  0.4680
 4069SOL    HW316043   1.587   4.210   4.081  0.8325  2.3140  1.0286
 4069SOL    MW416044   1.584   4.234   3.998  0.2692 -0.4411 -0.6109
 4070SOL     OW16045   4.575   4.261   1.733  0.5125 -0.0628  0.5898
 4070SOL    HW216046   4.513   4.269   1.805 -1.8149 -0.4969 -1.2310
 4070SOL    HW316047   4.566   4.343   1.684 -2.2256 -1.7765 -2.2190
 4070SOL    MW416048   4.566   4.273   1.736  0.7514  1.0843  0.1175
 4071SOL     OW16049   4.456   2.208   1.491  0.3097 -0.1434 -0.4137
 4071SOL    HW216050   4.434   2.119   1.518  0.5260  0.0217  0.3330
 4071SOL    HW316051   4.392   2.263   1.537  0.8043  0.1563 -0.0681
 4071SOL    MW416052   4.445   2.204   1.501  0.1701  0.1373  0.1941
 4072SOL     OW16053   2.535   0.811   2.494 -0.0352 -0.7072 -0.0457
 4072SOL    HW216054   2.534   0.829   2.400  0.0455  0.4914  0.1679
 4072SOL    HW316055   2.450   0.842   2.525  0.6551  0.6596  0.5654
 4072SOL    MW416056   2.524   0.817   2.486  0.1952  0.0260  0.3155
 4073SOL     OW16057   5.573   1.974   0.299 -0.1236  0.2096 -0.0829
 4073SOL    HW216058   5.629   1.916   0.248  0.4503  0.6428  0.0521
 4073SOL    HW316059   5.626   1.997   0.375 -1.4650 -1.6227  1.5269
 4073SOL    MW416060   5.587   1.969   0.303 -0.0656  0.0037  0.4702
 4074SOL     OW16061   3.195   6.269   4.004  0.0742 -0.5509 -0.3840
 4074SOL    HW216062   3.264   6.257   3.939  0.8300  1.3035  0.0237
 4074SOL    HW316063   3.157   6.354   3.984 -0.5794 -0.5495  0.7791
 4074SOL    MW416064   3.199   6.278   3.993 -0.6734  0.2480  0.4503
 4075SOL     OW16065   2.326   5.274   2.525  0.3156  0.5195  0.9011
 4075SOL    HW216066   2.250   5.218   2.538 -1.4908  2.6494  0.1635
 4075SOL    HW316067   2.342   5.273   2.430 -0.7027  2.3383  0.6664
 4075SOL    MW416068   2.318   5.267   2.514  0.1456 -0.1924 -0.0989
 4076SOL     OW16069   0.414   1.714   0.453 -0.2007 -0.4239  0.0293
 4076SOL    HW216070   0.461   1.797   0.462 -1.0533  0.2552 -1.3437
 4076SOL    HW316071   0.321   1.738   0.458 -0.5277 -0.9781 -2.1706
 4076SOL    MW416072   0.408   1.728   0.455 -0.4206  0.5779 -0.4506
 4077SOL     OW16073   0.529   0.395   1.430 -0.2666 -0.3173 -0.1700
 4077SOL    HW216074   0.550   0.301   1.424  0.6369 -0.0947 -0.6093
 4077SOL    HW316075   0.589   0.437   1.368 -0.6358  0.5636  0.0575
 4077SOL    MW416076   0.539   0.388   1.421 -0.3165  0.0142  0.0739
 4078SOL     OW16077   5.840   2.886   1.694 -0.1349  0.4325  0.1255
 4078SOL    HW216078   5.898   2.915   1.624  0.1245 -0.8651 -0.2302
 4078SOL    HW316079   5.783   2.821   1.653 -1.4894  1.2818  0.6075
 4078SOL    MW416080   5.840   2.881   1.680 -0.2016  0.2014 -0.1621
 4079SOL     OW16081   3.435   6.105   4.328  0.2219  0.0591  0.5286
 4079SOL    HW216082   3.354   6.082   4.281 -0.7621  0.5348  1.9158
 4079SOL    HW316083   3.448   6.198   4.308 -0.1044  0.2189  1.0347
 4079SOL    MW416084   3.426   6.114   4.319 -0.7009  0.0936 -0.1570
 4080SOL     OW16085   3.647   2.560   5.586 -0.3559 -0.2082  0.3865
 4080SOL    HW216086   3.613   2.484   5.632  1.1047 -1.3631 -0.3410
 4080SOL    HW316087   3.736   2.571   5.621 -0.5783  1.2611  0.5622
 4080SOL    MW416088   3.655   2.552   5.597  0.0714  0.5746 -0.3450
 4081SOL     OW16089   5.752   5.231   1.808 -0.1461 -0.8668  0.6384
 4081SOL    HW216090   5.787   5.319   1.802 -0.8420 -0.4107  2.4583
 4081SOL    HW316091   5.828   5.175   1.824  0.2739 -0.6012 -0.3438
 4081SOL    MW416092   5.766   5.235   1.809 -0.3174 -0.4722  0.2251
 4082SOL     OW16093   2.074   0.109   0.647  0.1760 -0.6107  0.6658
 4082SOL    HW216094   2.103   0.021   0.673  0.2497 -0.8993 -0.3260
 4082SOL    HW316095   1.984   0.114   0.679  0.8515 -0.2047  2.6170
 4082SOL    MW416096   2.066   0.098   0.655  0.0120  0.3568 -0.0121
 4083SOL     OW16097   1.899   0.630   4.536  0.0376 -0.2062  0.1394
 4083SOL    HW216098   1.956   0.572   4.587 -0.9541 -1.1848  0.1652
 4083SOL    HW316099   1.941   0.634   4.450  2.0189  1.8850  1.0928
 4083SOL    MW416100   1.912   0.623   4.531 -0.1121  0.6940  0.3017
 4084SOL     OW16101   5.642   3.022   6.409  0.4038  0.1265  0.6191
 4084SOL    HW216102   5.634   2.927   6.406 -0.8264  0.1225  2.4415
 4084SOL    HW316103   5.569   3.054   6.356  0.5773  0.0523  0.3367
 4084SOL    MW416104   5.631   3.014   6.402 -0.4461  0.4788 -0.3915
 4085SOL     OW16105   0.062   4.740   5.188 -0.1526 -0.4565 -0.0488
 4085SOL    HW216106   0.032   4.767   5.101  1.2726 -0.2980 -0.5067
 4085SOL    HW316107   0.042   4.647   5.192  2.2498 -1.1270 -1.6717
 4085SOL    MW416108   0.055   4.731   5.177  0.2369 -0.3083 -0.0618
 4086SOL     OW16109   3.200   4.870   0.209  0.2268  0.3230 -0.2023
 4086SOL    HW216110   3.166   4.830   0.289 -0.3731 -0.1512 -0.6896
 4086SOL    HW316111   3.290   4.838   0.203  0.5586  1.0369  0.7259
 4086SOL    MW416112   3.207   4.860   0.219  0.1870 -0.2546  0.1770
 4087SOL     OW16113   2.105   0.497   4.673 -0.7848  0.0879  0.1957
 4087SOL    HW216114   2.188   0.515   4.628 -0.2765 -1.9602  0.2153
 4087SOL    HW316115   2.131   0.485   4.764 -1.2741  0.4356  0.3839
 4087SOL    MW416116   2.120   0.498   4.679  0.0918  0.3764  0.1454
 4088SOL     OW16117   2.568   6.361   2.455 -0.1232  0.3484  0.0127
 4088SOL    HW216118   2.649   6.365   2.403 -0.0278  1.0944  0.2135
 4088SOL    HW316119   2.506   6.315   2.398  0.8405 -1.5533  0.4108
 4088SOL    MW416120   2.571   6.355   2.440  0.0233  0.2920 -0.0059
 4089SOL     OW16121   4.245   4.010   4.443  0.1432  0.0062 -0.9937
 4089SOL    HW216122   4.234   4.105   4.444 -1.1321 -0.1020  0.8103
 4089SOL    HW316123   4.339   3.996   4.432  0.4202  1.5040 -0.6884
 4089SOL    MW416124   4.256   4.021   4.442  0.0444  0.1428 -0.0002
 4090SOL     OW16125   4.627   2.781   5.684  0.1026 -0.0524 -0.0609
 4090SOL    HW216126   4.568   2.752   5.614  1.9390  0.2767 -1.8288
 4090SOL    HW316127   4.700   2.719   5.680  1.9304  2.0389 -0.8884
 4090SOL    MW416128   4.629   2.769   5.674  0.6167 -0.0392  0.1232
 4091SOL     OW16129   3.691   4.133   6.216 -0.0089 -0.0775 -0.2371
 4091SOL    HW216130   3.613   4.107   6.264  1.2476  0.5928  2.3638
 4091SOL    HW316131   3.722   4.052   6.175 -1.8437 -0.4069 -1.0864
 4091SOL    MW416132   3.685   4.119   6.217 -0.2866 -0.0653 -0.3065
 4092SOL     OW16133   1.835   5.298   3.184  0.0651 -0.0077  0.3387
 4092SOL    HW216134   1.749   5.332   3.158  0.5478  1.1344  0.1616
 4092SOL    HW316135   1.875   5.269   3.103 -0.2961 -0.9190  0.4733
 4092SOL    MW416136   1.829   5.299   3.170  0.2656  0.6666  0.5652
 4093SOL     OW16137   4.944   6.396   4.823  0.3843 -0.3405  0.5360
 4093SOL    HW216138   5.032   6.401   4.785  0.1600 -0.5997 -0.0226
 4093SOL    HW316139   4.922   6.303   4.822 -0.0948 -0.2269  0.2159
 4093SOL    MW416140   4.953   6.385   4.818  0.7866 -0.0354 -0.4440
 4094SOL     OW16141   5.903   4.181   4.626 -0.6362 -0.3059  0.1439
 4094SOL    HW216142   5.988   4.220   4.648  0.6348 -2.0904 -1.2297
 4094SOL    HW316143   5.842   4.255   4.623  1.0517  1.1557  0.3579
 4094SOL    MW416144   5.906   4.196   4.628 -0.0742  0.4131 -0.1862
 4095SOL     OW16145   6.200   5.647   5.897  0.1765 -0.4602  0.3067
 4095SOL    HW216146   6.248   5.565   5.889 -1.0570 -1.2117  0.3690
 4095SOL    HW316147   6.108   5.622   5.886 -0.1341  1.0970 -1.0814
 4095SOL    MW416148   6.194   5.633   5.894 -0.0452  0.1930  0.2169
 4096SOL     OW16149   1.212   3.046   4.193  0.1580  0.2827  0.4978
 4096SOL    HW216150   1.184   3.006   4.110  1.4286 -2.1273  1.1311
 4096SOL    HW316151   1.252   3.129   4.167 -2.3174  1.1341 -0.9297
 4096SOL    MW416152   1.214   3.052   4.178 -0.4984 -0.2324  0.2066
 4097SOL     OW16153   0.157   3.921   2.321 -0.4168 -0.0070 -0.7615
 4097SOL    HW216154   0.248   3.922   2.350 -0.5244  0.0082 -0.4150
 4097SOL    HW316155   0.107   3.944   2.399 -0.7345 -0.2678 -0.8855
 4097SOL    MW416156   0.162   3.924   2.335 -0.3937  0.1434 -0.8031
 4098SOL     OW16157   2.499   4.424   2.999 -0.7820 -0.3150 -0.0830
 4098SOL    HW216158   2.446   4.419   3.079  0.6775 -0.7533  0.8924
 4098SOL    HW316159   2.546   4.507   3.007 -0.3649 -0.5262 -0.3155
 4098SOL    MW416160   2.498   4.435   3.011  0.8618  0.0272  0.2341
 4099SOL     OW16161   0.378   3.486   5.360 -0.2089  0.6504 -0.0501
 4099SOL    HW216162   0.409   3.576   5.366  0.9182  0.2097  1.4493
 4099SOL    HW316163   0.383   3.453   5.449 -0.2428 -1.0119 -0.6262
 4099SOL    MW416164   0.383   3.494   5.372 -0.5432  0.0241 -0.8764
 4100SOL     OW16165   1.251   4.664   5.742  0.4351  0.6509 -0.7208
 4100SOL    HW216166   1.347   4.658   5.750  0.5952  1.9060 -1.3142
 4100SOL    HW316167   1.222   4.574   5.731  1.2662 -0.0481  2.0852
 4100SOL    MW416168   1.260   4.651   5.742 -0.8859 -0.0602 -0.0786
 4101SOL     OW16169   0.775   4.636   4.111  0.1058  0.3262 -0.2311
 4101SOL    HW216170   0.841   4.599   4.052  1.5627  0.0327  1.4745
 4101SOL    HW316171   0.826   4.674   4.182 -1.5543  1.4383  0.4194
 4101SOL    MW416172   0.791   4.636   4.112 -0.3466 -0.2957 -0.3797
 4102SOL     OW16173   3.735   5.493   1.812 -0.2911 -0.2737  0.0166
 4102SOL    HW216174   3.694   5.485   1.898 -1.5771 -1.3574 -0.6567
 4102SOL    HW316175   3.794   5.418   1.806  1.1409  0.7578  0.6035
 4102SOL    MW416176   3.737   5.482   1.822 -0.2599 -0.0130 -0.3245
 4103SOL     OW16177   0.089   0.332   5.283 -0.2416  0.6875 -0.0978
 4103SOL    HW216178   0.128   0.372   5.361  1.0428 -2.1446  0.8532
 4103SOL    HW316179   0.148   0.355   5.212  0.1515  0.9416  0.3065
 4103SOL    MW416180   0.102   0.340   5.284  0.3951  0.6919  0.9315
 4104SOL     OW16181   4.562   4.977   4.476 -0.4287 -0.4684  0.7121
 4104SOL    HW216182   4.471   5.004   4.462  0.0828  1.4468  0.7686
 4104SOL    HW316183   4.609   5.013   4.400  0.6045  0.4701  1.7504
 4104SOL    MW416184   4.556   4.985   4.464 -0.3526 -0.1133 -0.4694
 4105SOL     OW16185   5.488   4.082   3.192 -0.3705  0.0360  0.3680
 4105SOL    HW216186   5.444   4.046   3.114 -0.2528  0.4596  0.1019
 4105SOL    HW316187   5.523   4.166   3.163  0.7349 -0.3459  0.5398
 4105SOL    MW416188   5.487   4.088   3.178  1.5843 -0.0891  0.0177
 4106SOL     OW16189   2.320   0.336   5.292  0.6483  0.1728  0.1991
 4106SOL    HW216190   2.300   0.305   5.204  1.5852 -1.5921  0.5619
 4106SOL    HW316191   2.258   0.407   5.307  1.1890  1.2759 -2.2799
 4106SOL    MW416192   2.309   0.341   5.282 -0.3119  0.9386 -0.2633
 4107SOL     OW16193   0.148   2.949   4.714  0.2045 -0.1044  0.3689
 4107SOL    HW216194   0.126   2.864   4.677  1.3841 -0.3851  0.2827
 4107SOL    HW316195   0.068   3.001   4.705 -0.5914 -1.2598  0.6183
 4107SOL    MW416196   0.135   2.945   4.708 -0.0384  0.1255  0.2539
 4108SOL     OW16197   0.664   0.524   1.217  0.2420  0.0341  0.2803
 4108SOL    HW216198   0.658   0.616   1.191  0.9572 -0.0251 -0.1140
 4108SOL    HW316199   0.723   0.485   1.152 -0.9925 -0.9709 -0.2607
 4108SOL    MW416200   0.671   0.531   1.205 -0.6507 -0.1243  0.0010
 4109SOL     OW16201   5.023   2.090   0.412 -0.2837  0.1883  0.0883
 4109SOL    HW216202   4.942   2.042   0.429 -1.8064  2.5121 -0.1433
 4109SOL    HW316203   5.045   2.067   0.321 -0.1511 -1.1517  0.4406
 4109SOL    MW416204   5.015   2.081   0.402 -0.1208  0.2319 -0.1427
 4110SOL     OW16205   2.352   0.405   2.626  0.1401  0.7907  0.0337
 4110SOL    HW216206   2.290   0.348   2.671 -0.1501  0.6655 -0.5050
 4110SOL    HW316207   2.409   0.345   2.578  1.4257  0.8576  1.4406
 4110SOL    MW416208   2.351   0.390   2.625 -0.6122  0.6183 -0.1260
 4111SOL     OW16209   4.787   2.313   5.648 -0.0484 -0.4240  0.4203
 4111SOL    HW216210   4.868   2.285   5.692  0.5863  1.4932  0.5531
 4111SOL    HW316211   4.800   2.288   5.557  1.2461  0.9244  0.2038
 4111SOL    MW416212   4.800   2.306   5.642 -0.0318 -0.7913 -0.3940
 4112SOL     OW16213   1.901   6.004   2.953  0.0963 -0.1154  0.0715
 4112SOL    HW216214   1.840   5.989   2.881 -1.7270 -0.4930  1.6098
 4112SOL    HW316215   1.977   5.950   2.932 -0.5198 -0.4655 -1.3840
 4112SOL    MW416216   1.903   5.995   2.941 -0.0480 -0.3407  0.1036
 4113SOL     OW16217   5.635   5.520   1.047 -0.0722 -0.1085  0.5262
 4113SOL    HW216218   5.607   5.515   1.138 -0.5024  1.4003  0.4915
 4113SOL    HW316219   5.556   5.503   0.996 -0.1409  0.4860  0.4335
 4113SOL    MW416220   5.621   5.517   1.052  0.3868 -0.2623 -0.2096
 4114SOL     OW16221   2.735   2.576   0.341  0.1250 -0.0294 -0.2816
 4114SOL    HW216222   2.670   2.580   0.412 -0.3363  1.6851 -0.7616
 4114SOL    HW316223   2.706   2.502   0.287 -0.9460  0.1640 -0.0102
 4114SOL    MW416224   2.722   2.566   0.343 -0.0113  0.0009 -0.1034
 4115SOL     OW16225   1.872   1.314   6.217 -0.4694  0.2140  0.2213
 4115SOL    HW216226   1.921   1.248   6.265 -0.5420 -0.1972 -0.2540
 4115SOL    HW316227   1.829   1.265   6.146  0.6784  0.9786 -1.0606
 4115SOL    MW416228   1.873   1.299   6.214 -0.5083  0.0207 -0.3331
 4116SOL     OW16229   2.565   2.124   0.517  0.1805  0.6225  0.1187
 4116SOL    HW216230   2.515   2.116   0.598 -1.5278  0.7396 -0.8620
 4116SOL    HW316231   2.643   2.072   0.531 -1.3234 -1.5555  0.9273
 4116SOL    MW416232   2.568   2.116   0.529  0.0646  0.4248  0.3282
 4117SOL     OW16233   5.995   5.368   2.881 -0.2281  0.3516 -0.2106
 4117SOL    HW216234   5.950   5.439   2.834 -1.5287  0.8099  1.6063
 4117SOL    HW316235   5.943   5.290   2.861 -0.1112  0.3386 -0.4554
 4117SOL    MW416236   5.982   5.367   2.872 -0.3092 -0.4543  0.2144
 4118SOL     OW16237   4.214   4.632   5.754  0.1110  0.7859  0.1249
 4118SOL    HW216238   4.188   4.724   5.759  0.1776  0.8068  0.0859
 4118SOL    HW316239   4.156   4.595   5.687  1.6245  1.3276 -1.5652
 4118SOL    MW416240   4.203   4.639   5.746  0.4155  0.0190 -0.4273
 4119SOL     OW16241   3.842   4.302   4.988  0.1181  0.3134  1.0530
 4119SOL    HW216242   3.877   4.381   4.947  1.5856 -0.9381 -0.2093
 4119SOL    HW316243   3.919   4.250   5.010 -0.8549 -1.7521 -0.1972
 4119SOL    MW416244   3.857   4.306   4.986  0.3241 -0.4771  0.0718
 4120SOL     OW16245   0.954   5.561   0.401 -0.0408  0.2080 -0.5592
 4120SOL    HW216246   0.943   5.509   0.321 -0.5458 -0.3582 -0.1366
 4120SOL    HW316247   0.955   5.652   0.372 -0.6600  0.0238 -1.1649
 4120SOL    MW416248   0.953   5.566   0.387 -0.9097  0.6204 -0.7812
 4121SOL     OW16249   3.233   4.570   2.043  0.0883  0.5271  0.3639
 4121SOL    HW216250   3.300   4.632   2.073 -0.4626  1.1106  0.4135
 4121SOL    HW316251   3.214   4.596   1.953  0.3767 -0.0369  0.1332
 4121SOL    MW416252   3.240   4.582   2.035 -0.0702 -0.2714 -0.3577
 4122SOL     OW16253   1.811   1.043   3.623  0.5006 -0.0659  0.1285
 4122SOL    HW216254   1.891   1.077   3.662 -0.1714  0.8030  0.8118
 4122SOL    HW316255   1.767   0.996   3.694 -0.6182  1.3175  0.4096
 4122SOL    MW416256   1.815   1.041   3.637  0.2224 -0.5193 -0.1878
 4123SOL     OW16257   5.990   5.519   3.833 -0.1078  0.3286  0.0593
 4123SOL    HW216258   5.937   5.562   3.900 -1.5099  0.4560 -1.0847
 4123SOL    HW316259   6.032   5.446   3.878 -0.5771  0.7441  1.1970
 4123SOL    MW416260   5.989   5.515   3.848  0.1476 -0.3916 -0.0176
 4124SOL     OW16261   3.454   3.585   5.803  0.7265  1.0286  0.1461
 4124SOL    HW216262   3.493   3.642   5.736  0.2300 -0.5075 -1.5503
 4124SOL    HW316263   3.485   3.497   5.780 -2.6085 -0.0985 -0.5283
 4124SOL    MW416264   3.463   3.581   5.791  0.1725  0.1182  0.1306
 4125SOL     OW16265   0.357   1.465   1.757  0.0287  0.1261 -0.0745
 4125SOL    HW216266   0.358   1.376   1.723 -1.1648  1.0080 -2.6942
 4125SOL    HW316267   0.448   1.495   1.748  0.2294 -0.4915 -0.1455
 4125SOL    MW416268   0.369   1.457   1.751 -0.0427 -0.1653 -0.5013
 4126SOL     OW16269   1.087   0.871   6.155 -0.0979  0.3477 -0.6742
 4126SOL    HW216270   1.143   0.877   6.077 -0.5592 -0.1544 -1.0494
 4126SOL    HW316271   1.080   0.778   6.172 -2.1597  0.2774 -1.6187
 4126SOL    MW416272   1.094   0.860   6.147  0.1553  0.1590  0.4470
 4127SOL     OW16273   4.802   2.588   1.101 -0.7337  0.4143 -0.3828
 4127SOL    HW216274   4.775   2.619   1.187 -2.9036 -1.1762 -0.3993
 4127SOL    HW316275   4.719   2.573   1.054  0.2132 -2.3516 -1.3996
 4127SOL    MW416276   4.787   2.590   1.106  0.3336 -0.2979  0.0355
 4128SOL     OW16277   4.300   1.278   6.423 -0.1299 -0.7470  0.1551
 4128SOL    HW216278   4.269   1.340   6.357 -0.2793 -0.3238  0.6192
 4128SOL    HW316279   4.230   1.213   6.430 -1.8965  1.2366  2.5934
 4128SOL    MW416280   4.287   1.277   6.415 -0.1322 -0.1085  0.7811
 4129SOL     OW16281   4.903   0.299   0.363  0.0847 -0.4602  0.4100
 4129SOL    HW216282   4.826   0.295   0.307 -0.5682  1.7428  1.0552
 4129SOL    HW316283   4.977   0.289   0.303 -0.6420 -0.4215 -0.5217
 4129SOL    MW416284   4.902   0.297   0.348 -0.7596 -0.4617 -0.4997
 4130SOL     OW16285   3.910   2.178   4.807 -0.3625 -0.4228 -0.4356
 4130SOL    HW216286   3.942   2.096   4.770 -1.7047 -0.5942 -1.2667
 4130SOL    HW316287   3.920   2.168   4.902 -0.0343 -1.3214 -0.5586
 4130SOL    MW416288   3.916   2.166   4.815  0.0300  0.3698  0.1547
 4131SOL     OW16289   5.709   1.772   1.577 -0.3130 -0.5018  0.3048
 4131SOL    HW216290   5.637   1.769   1.641 -1.0176  0.7079 -0.4057
 4131SOL    HW316291   5.738   1.863   1.578  0.5803 -0.7717 -0.1303
 4131SOL    MW416292   5.703   1.784   1.586 -0.4018  0.0900  0.3532
 4132SOL     OW16293   3.089   1.722   4.280  0.6535 -0.5093  1.0522
 4132SOL    HW216294   3.094   1.643   4.227  0.2127  0.4470 -0.4671
 4132SOL    HW316295   3.161   1.778   4.249  2.2455 -1.0418  3.4675
 4132SOL    MW416296   3.099   1.719   4.269  0.1897  0.0625  0.2403
 4133SOL     OW16297   3.261   3.347   1.146  0.1568  0.2098  0.5525
 4133SOL    HW216298   3.343   3.384   1.115 -0.0279  0.6293  0.5514
 4133SOL    HW316299   3.277   3.253   1.152  0.6390  0.2906  0.5656
 4133SOL    MW416300   3.274   3.340   1.143  0.2206  0.1702 -0.3359
 4134SOL     OW16301   0.041   5.953   1.295 -0.2285 -0.7115 -0.4176
 4134SOL    HW216302   0.029   5.858   1.289 -0.4076 -0.6453 -1.1305
 4134SOL    HW316303   0.002   5.987   1.215  0.9086 -0.1305 -0.7446
 4134SOL    MW416304   0.034   5.945   1.284 -0.1066 -0.0059 -0.0110
 4135SOL     OW16305   0.175   1.073   1.552 -0.6532 -0.0885  0.1974
 4135SOL    HW216306   0.136   1.117   1.627  1.6712  1.3503  0.6693
 4135SOL    HW316307   0.159   1.132   1.479 -0.8137 -0.3061  0.0561
 4135SOL    MW416308   0.168   1.087   1.552 -0.2756 -0.3810 -0.6518
 4136SOL     OW16309   5.257   0.089   3.028 -0.4529 -0.0047  0.5207
 4136SOL    HW216310   5.211   0.162   2.986 -0.6203 -1.0831 -1.3047
 4136SOL    HW316311   5.188   0.040   3.074 -0.5624  0.2445  0.6239
 4136SOL    MW416312   5.242   0.092   3.028  0.0641  0.3380  0.3733
 4137SOL     OW16313   2.284   4.028   5.935 -0.3333 -0.7213  0.3994
 4137SOL    HW216314   2.222   3.966   5.897  0.2614 -0.6063 -0.7984
 4137SOL    HW316315   2.314   3.986   6.016  0.8411 -2.5284 -0.8879
 4137SOL    MW416316   2.280   4.014   5.941 -0.1193 -0.2313  0.0232
 4138SOL     OW16317   2.164   3.962   5.419 -0.5153 -0.1282  0.3685
 4138SOL    HW216318   2.217   4.040   5.399  0.3185 -1.4391 -3.5539
 4138SOL    HW316319   2.095   3.994   5.476  1.1333  2.9599  0.8692
 4138SOL    MW416320   2.162   3.977   5.424 -0.1078  0.4213 -0.2870
 4139SOL     OW16321   2.656   0.114   1.791 -0.5052 -0.5433 -0.5850
 4139SOL    HW216322   2.718   0.097   1.862 -0.9695 -0.4746 -0.1555
 4139SOL    HW316323   2.665   0.208   1.775  0.4747 -0.7674 -1.4579
 4139SOL    MW416324   2.666   0.124   1.798  0.0770 -0.0418 -0.6425
 4140SOL     OW16325   3.996   1.849   2.086  0.2298  0.3423 -0.4308
 4140SOL    HW216326   4.015   1.870   2.178 -0.2992  1.3517 -0.5267
 4140SOL    HW316327   4.014   1.756   2.078 -1.2895 -0.1446  1.1314
 4140SOL    MW416328   4.001   1.840   2.097  0.2634 -0.5194  0.3783
 4141SOL     OW16329   2.693   4.518   3.455  0.1688  0.5818  0.0925
 4141SOL    HW216330   2.757   4.466   3.404  1.4873  0.8396  1.4179
 4141SOL    HW316331   2.614   4.465   3.454  0.2305  0.4367 -1.9633
 4141SOL    MW416332   2.691   4.504   3.448  0.1834  0.1769 -0.2261
 4142SOL     OW16333   1.769   2.119   5.617 -0.5294 -0.1224 -0.0849
 4142SOL    HW216334   1.749   2.213   5.623 -1.9630 -0.4603  1.1284
 4142SOL    HW316335   1.764   2.100   5.523 -2.0052  0.6875 -0.2012
 4142SOL    MW416336   1.765   2.129   5.605 -0.1073  0.2733  0.0252
 4143SOL     OW16337   0.755   6.089   2.265  0.0572 -0.0636  1.0841
 4143SOL    HW216338   0.801   6.056   2.188 -1.7772  1.7123 -0.9107
 4143SOL    HW316339   0.822   6.139   2.312  0.6797  0.9884 -0.7777
 4143SOL    MW416340   0.770   6.091   2.261 -0.8034 -0.5272 -0.1403
 4144SOL     OW16341   1.331   0.432   0.022  0.1920  0.8753  0.1643
 4144SOL    HW216342   1.349   0.522  -0.006  0.1557  0.5275 -1.0391
 4144SOL    HW316343   1.406   0.407   0.076  2.3468  0.2193 -2.8993
 4144SOL    MW416344   1.343   0.440   0.025 -0.2284  0.0702  0.2256
 4145SOL     OW16345   5.715   1.922   2.165 -0.2690  0.3214  0.6797
 4145SOL    HW216346   5.755   1.914   2.078 -0.1542  0.4290  0.7235
 4145SOL    HW316347   5.788   1.937   2.224 -0.3222  0.0026  0.8286
 4145SOL    MW416348   5.730   1.923   2.161  0.2648  0.3379 -0.0983
 4146SOL     OW16349   6.155   4.022   0.502 -0.4395  0.6504 -0.1287
 4146SOL    HW216350   6.119   3.934   0.495 -1.6859  1.0711  0.5872
 4146SOL    HW316351   6.195   4.025   0.589 -2.1617  1.3576  0.6980
 4146SOL    MW416352   6.155   4.011   0.513  0.0117 -0.4596  0.7674
 4147SOL     OW16353   6.366   1.059   3.375 -0.2210 -0.2384 -0.1094
 4147SOL    HW216354   6.404   0.972   3.362  1.7254  0.7073 -1.0989
 4147SOL    HW316355   6.418   1.117   3.320 -2.0459  1.4482 -0.1804
 4147SOL    MW416356   6.378   1.055   3.366 -0.8069  0.4181 -0.0636
 4148SOL     OW16357   3.498   5.271   3.139  0.3603 -0.7243 -0.0109
 4148SOL    HW216358   3.445   5.308   3.210 -1.8723  2.1820 -2.8594
 4148SOL    HW316359   3.440   5.208   3.096  0.8268 -0.7946 -0.5460
 4148SOL    MW416360   3.483   5.268   3.143 -0.3306  0.4984 -0.3526
 4149SOL     OW16361   2.797   6.011   4.933  0.0367 -0.0560 -0.3656
 4149SOL    HW216362   2.862   6.034   4.999 -0.4710  0.6806 -0.1074
 4149SOL    HW316363   2.725   5.973   4.982 -0.2021  0.1878 -0.5231
 4149SOL    MW416364   2.796   6.009   4.948  0.1192 -0.1728  0.0102
 4150SOL     OW16365   2.119   3.822   3.827  0.0987 -0.3935 -0.2036
 4150SOL    HW216366   2.037   3.817   3.876  0.3515  1.1946  0.4558
 4150SOL    HW316367   2.180   3.863   3.887  1.0006 -0.2908 -1.1589
 4150SOL    MW416368   2.116   3.827   3.841 -0.5450  0.0928  0.1271
 4151SOL     OW16369   1.785   2.507   4.231 -0.3561  0.2235  0.1906
 4151SOL    HW216370   1.746   2.435   4.182  1.2341 -0.3966 -0.2296
 4151SOL    HW316371   1.815   2.569   4.165 -1.2066  1.0335  0.5311
 4151SOL    MW416372   1.784   2.506   4.216  0.1686  0.3023 -0.7955
 4152SOL     OW16373   0.667   0.805   1.175 -0.1925 -0.2468 -0.3276
 4152SOL    HW216374   0.761   0.823   1.185 -0.3137  0.0901  0.2654
 4152SOL    HW316375   0.646   0.833   1.086  0.3867 -0.8528 -0.6618
 4152SOL    MW416376   0.677   0.811   1.165  0.2604  0.4302 -0.1118
 4153SOL     OW16377   1.439   1.785   0.584  0.5375  0.0716  0.0661
 4153SOL    HW216378   1.457   1.721   0.515  1.7027 -0.1927  0.5866
 4153SOL    HW316379   1.381   1.739   0.644  0.3652 -0.0636 -0.1997
 4153SOL    MW416380   1.434   1.770   0.583  0.5463 -0.9710 -0.3705
 4154SOL     OW16381   2.941   0.902   1.468 -0.1194  0.1744  0.0246
 4154SOL    HW216382   2.937   0.811   1.496  0.0477 -0.0201 -0.5655
 4154SOL    HW316383   3.018   0.938   1.513  0.2763 -0.1958 -0.3396
 4154SOL    MW416384   2.951   0.895   1.477  0.6139  0.1673  0.6452
 4155SOL     OW16385   4.830   5.728   3.262 -0.9122 -0.4283  0.2480
 4155SOL    HW216386   4.782   5.789   3.317  0.7516  0.7136  0.5128
 4155SOL    HW316387   4.921   5.735   3.291 -0.2728 -1.1615 -1.3980
 4155SOL    MW416388   4.836   5.737   3.273 -0.5264 -0.3147 -0.0518
 4156SOL     OW16389   4.379   6.284   0.471 -0.0865 -0.0423 -0.3924
 4156SOL    HW216390   4.434   6.356   0.440 -0.1027  0.5301  0.8239
 4156SOL    HW316391   4.319   6.266   0.399 -1.4462  2.5549 -0.0425
 4156SOL    MW416392   4.379   6.291   0.458 -0.2544 -0.0622  0.3481
 4157SOL     OW16393   2.858   0.914   0.706 -0.3154 -0.2955  0.3066
 4157SOL    HW216394   2.856   0.820   0.687  3.0182 -0.0650 -2.0040
 4157SOL    HW316395   2.888   0.919   0.797 -0.0166 -1.4879  0.2903
 4157SOL    MW416396   2.862   0.902   0.716  0.2748 -0.4132  0.2770
 4158SOL     OW16397   5.708   2.855   4.492  0.0780  0.4363 -0.3791
 4158SOL    HW216398   5.671   2.893   4.412  0.1879  0.0551 -0.6111
 4158SOL    HW316399   5.652   2.887   4.562 -1.2290 -0.8210 -0.8042
 4158SOL    MW416400   5.696   2.864   4.491  0.4969 -0.4089  0.2920
 4159SOL     OW16401   4.740   5.358   0.702 -0.3426 -0.8351 -0.2233
 4159SOL    HW216402   4.699   5.445   0.698 -1.6139 -1.1798  2.8179
 4159SOL    HW316403   4.833   5.376   0.713 -0.5024  0.1123 -0.3119
 4159SOL    MW416404   4.747   5.372   0.703 -0.7693  0.5583  0.1621
 4160SOL     OW16405   1.119   6.328   1.112 -0.7961 -0.2612 -0.4110
 4160SOL    HW216406   1.067   6.398   1.073 -0.8464 -0.6911 -1.1228
 4160SOL    HW316407   1.063   6.250   1.104 -0.7054 -0.4054  0.2951
 4160SOL    MW416408   1.105   6.327   1.106  0.6189  0.0157 -0.4819
 4161SOL     OW16409   5.683   0.210   0.759  0.0037 -0.0331 -0.3007
 4161SOL    HW216410   5.777   0.204   0.776  0.0144  2.9058  1.3393
 4161SOL    HW316411   5.642   0.166   0.833  0.0782  0.0869 -0.1888
 4161SOL    MW416412   5.690   0.203   0.771  0.1058 -0.4811  0.0378
 4162SOL     OW16413   2.948   3.590   5.814  0.6934  0.3904 -0.0846
 4162SOL    HW216414   2.923   3.515   5.867 -1.0442  0.4438 -0.7860
 4162SOL    HW316415   3.010   3.555   5.751  0.1433 -0.3904 -0.2001
 4162SOL    MW416416   2.953   3.576   5.813  0.0053  0.4592  0.7495
 4163SOL     OW16417   0.965   4.100   1.238 -0.2638  0.4829 -0.2553
 4163SOL    HW216418   0.956   4.030   1.302 -0.0813  0.5454 -0.1593
 4163SOL    HW316419   0.959   4.181   1.290  0.4655  0.5283 -0.2382
 4163SOL    MW416420   0.963   4.102   1.253  0.3688 -0.0487  0.0318
 4164SOL     OW16421   1.645   3.264   6.345  0.1252 -0.0449  0.5649
 4164SOL    HW216422   1.629   3.281   6.252 -0.8169 -0.0441  0.7143
 4164SOL    HW316423   1.731   3.223   6.347 -0.6931 -1.9782 -0.5518
 4164SOL    MW416424   1.654   3.261   6.333  0.2623 -0.3215  0.5096
 4165SOL     OW16425   6.136   0.698   4.088  0.6697  0.6281 -0.2972
 4165SOL    HW216426   6.101   0.633   4.149  0.0722  0.4025 -0.8694
 4165SOL    HW316427   6.092   0.679   4.005  0.7440  1.5542 -0.5556
 4165SOL    MW416428   6.126   0.687   4.085 -0.3686  0.4593  0.3571
 4166SOL     OW16429   5.454   1.323   6.243  0.5800  0.2421 -0.1249
 4166SOL    HW216430   5.537   1.326   6.290  0.6355  0.4118 -0.2333
 4166SOL    HW316431   5.412   1.243   6.274  0.8076  0.1270 -0.1112
 4166SOL    MW416432   5.460   1.313   6.253  0.1108 -0.0277 -0.2660
 4167SOL     OW16433   1.987   1.851   5.288 -0.2484 -0.7159  0.0928
 4167SOL    HW216434   1.898   1.882   5.301 -0.8187 -1.9046 -0.7507
 4167SOL    HW316435   2.040   1.904   5.348 -0.9442  2.5831 -1.9539
 4167SOL    MW416436   1.983   1.862   5.297 -0.4842 -0.0931  0.7069
 4168SOL     OW16437   3.080   5.447   4.987 -0.3340  0.4091 -0.1854
 4168SOL    HW216438   3.086   5.408   4.900  0.5570  1.4812 -0.6394
 4168SOL    HW316439   3.118   5.382   5.045  0.8033  0.4262 -0.8703
 4168SOL    MW416440   3.086   5.434   4.983 -0.0507  0.4985  0.3555
 4169SOL     OW16441   2.279   1.143   3.050  0.0508 -0.5663  0.3918
 4169SOL    HW216442   2.357   1.097   3.082 -0.8698 -1.3020  1.6342
 4169SOL    HW316443   2.214   1.074   3.038 -0.6121  0.1240 -0.0482
 4169SOL    MW416444   2.281   1.128   3.052 -0.1912  0.9347  0.0441
 4170SOL     OW16445   2.255   1.335   3.959 -0.1252  0.3267 -0.5221
 4170SOL    HW216446   2.228   1.255   4.004  0.7143  0.5320  0.3554
 4170SOL    HW316447   2.175   1.386   3.951  0.0084  1.2352  2.6614
 4170SOL    MW416448   2.241   1.331   3.964  0.1606 -0.0005  0.1010
 4171SOL     OW16449   2.651   1.478   1.888 -0.4371  0.0036 -0.9836
 4171SOL    HW216450   2.660   1.391   1.849 -1.4204  0.8413 -3.2232
 4171SOL    HW316451   2.679   1.538   1.820 -1.0154  1.5168  0.0643
 4171SOL    MW416452   2.656   1.474   1.874  0.3267 -0.4115  0.4628
 4172SOL     OW16453   4.862   4.123   2.928  0.1568  0.0645  0.3143
 4172SOL    HW216454   4.871   4.050   2.990 -0.5820  0.8310  1.3479
 4172SOL    HW316455   4.771   4.116   2.897  0.1619  0.3978  0.2268
 4172SOL    MW416456   4.851   4.112   2.932  0.0061  0.3901 -0.5245
 4173SOL     OW16457   1.443   2.563   5.966  0.1256  0.8294 -0.3298
 4173SOL    HW216458   1.399   2.648   5.968  0.5187  1.0346 -0.3419
 4173SOL    HW316459   1.518   2.573   6.024  0.7592  0.8085 -1.1361
 4173SOL    MW416460   1.447   2.575   5.974  0.6119 -0.6466 -0.1995
 4174SOL     OW16461   1.273   4.417   6.209 -0.2624  0.0075 -0.2361
 4174SOL    HW216462   1.357   4.424   6.162 -1.2770  1.4961 -1.9606
 4174SOL    HW316463   1.234   4.336   6.175  0.0698 -0.2153 -0.0970
 4174SOL    MW416464   1.279   4.407   6.198  0.3889 -0.9736 -0.5282
 4175SOL     OW16465   1.801   5.818   5.409 -0.2353  0.0897  0.7702
 4175SOL    HW216466   1.835   5.791   5.324  0.1093  1.0001  0.6061
 4175SOL    HW316467   1.725   5.873   5.387 -1.3181 -1.2205  1.1085
 4175SOL    MW416468   1.795   5.822   5.395  0.3141 -0.3256  0.2960
 4176SOL     OW16469   2.767   1.774   4.152  0.1922  0.0548  0.3921
 4176SOL    HW216470   2.810   1.691   4.130  0.0696  0.1180 -0.1191
 4176SOL    HW316471   2.762   1.775   4.247 -1.2238 -1.2703  0.3835
 4176SOL    MW416472   2.772   1.763   4.161 -0.0005  0.2852 -0.1050
 4177SOL     OW16473   5.070   1.407   3.207 -0.1761 -0.6997 -1.0487
 4177SOL    HW216474   5.062   1.450   3.123 -1.8731 -0.5556 -0.8489
 4177SOL    HW316475   5.010   1.454   3.265  0.4296 -1.2283  0.0581
 4177SOL    MW416476   5.061   1.419   3.204  0.2918  0.8080  0.5413
 4178SOL     OW16477   0.130   3.428   2.578  0.2927  0.0038 -0.5380
 4178SOL    HW216478   0.220   3.410   2.607  0.6128  0.5488 -1.1786
 4178SOL    HW316479   0.091   3.475   2.651  0.9368  0.9089 -0.7578
 4178SOL    MW416480   0.137   3.432   2.592  0.3647  0.0796 -0.4736
 4179SOL     OW16481   2.525   3.483   1.977 -0.1216 -0.9578  0.2711
 4179SOL    HW216482   2.505   3.534   1.898 -1.4780  0.1306  1.2602
 4179SOL    HW316483   2.596   3.424   1.951  1.3244  1.2151 -1.0330
 4179SOL    MW416484   2.532   3.482   1.963 -0.0846  0.4892 -0.9898
 4180SOL     OW16485   4.921   4.536   0.368 -0.1222  0.8219  0.1953
 4180SOL    HW216486   5.015   4.555   0.375  0.1433 -0.7215  1.3825
 4180SOL    HW316487   4.912   4.492   0.283  0.7698 -1.5954  1.2681
 4180SOL    MW416488   4.932   4.533   0.358 -0.1849 -0.0114  0.5078
 4181SOL     OW16489   1.071   5.972   2.871  0.1635 -0.5155  0.1576
 4181SOL    HW216490   1.068   6.058   2.915 -1.1134 -0.2294 -0.4532
 4181SOL    HW316491   1.004   5.977   2.803  2.2299 -0.8589 -2.0429
 4181SOL    MW416492   1.062   5.984   2.868 -0.1789 -0.2348  0.7862
 4182SOL     OW16493   3.165   2.539   0.359  0.1037  0.5439 -0.2003
 4182SOL    HW216494   3.123   2.603   0.301  0.4091  1.0841  0.1683
 4182SOL    HW316495   3.165   2.458   0.309 -1.6051  0.4606 -0.1185
 4182SOL    MW416496   3.160   2.537   0.345 -0.1330  0.0181  0.5131
 4183SOL     OW16497   4.909   2.514   2.000 -0.3183 -0.3329  0.5934
 4183SOL    HW216498   4.853   2.441   2.027  0.5207 -1.1475  0.1875
 4183SOL    HW316499   4.969   2.526   2.074 -0.6209  0.1216  0.7674
 4183SOL    MW416500   4.910   2.506   2.014  0.0465  0.5439  0.3380
 4184SOL     OW16501   0.553   4.835   5.576  0.3131 -0.1379  0.0535
 4184SOL    HW216502   0.545   4.892   5.500 -1.0335 -1.1753 -0.6347
 4184SOL    HW316503   0.576   4.749   5.540  0.6571 -0.4124  0.9000
 4184SOL    MW416504   0.555   4.831   5.561  0.0903  0.1650 -0.1767
 4185SOL     OW16505   0.146   0.748   5.476 -0.0597  0.3589  0.2972
 4185SOL    HW216506   0.201   0.673   5.455  0.5819  0.0119  2.8739
 4185SOL    HW316507   0.057   0.719   5.455  0.4156 -0.1914 -1.0429
 4185SOL    MW416508   0.141   0.734   5.471  0.2896 -0.2625  0.2847
 4186SOL     OW16509   3.579   4.229   4.889  0.0987 -0.0308  0.2747
 4186SOL    HW216510   3.545   4.168   4.954 -0.0951  2.1064  2.2927
 4186SOL    HW316511   3.667   4.250   4.919  0.4904  0.0561 -0.8745
 4186SOL    MW416512   3.586   4.223   4.901 -0.0956  0.0258 -0.2908
 4187SOL     OW16513   5.276   1.037   3.948  0.3314  0.4517 -0.1987
 4187SOL    HW216514   5.272   0.962   4.008  0.0100  0.0331 -0.7381
 4187SOL    HW316515   5.242   1.003   3.865  0.1230  1.2146 -0.4307
 4187SOL    MW416516   5.271   1.023   3.945 -0.0140  0.3020 -0.5008
 4188SOL     OW16517   4.885   2.971   6.202  0.2963  0.2314 -0.0894
 4188SOL    HW216518   4.808   2.976   6.259  1.1722 -0.2366  1.1849
 4188SOL    HW316519   4.946   2.914   6.249  0.6101 -1.1494 -2.0559
 4188SOL    MW416520   4.883   2.964   6.216  0.2409  0.1054  0.0285
 4189SOL     OW16521   5.280   5.080   1.456  0.2005 -0.0110  0.2236
 4189SOL    HW216522   5.219   5.014   1.421  0.0343  0.7656 -1.0024
 4189SOL    HW316523   5.223   5.143   1.500  0.3002 -0.2996  0.7760
 4189SOL    MW416524   5.264   5.080   1.458 -0.0127 -0.4169  0.5334
 4190SOL     OW16525   5.788   5.013   5.047 -0.2728  0.3428 -0.5696
 4190SOL    HW216526   5.774   4.972   5.132 -0.1868  2.6188  0.6202
 4190SOL    HW316527   5.726   4.968   4.989 -3.4768  1.4698  1.6613
 4190SOL    MW416528   5.778   5.002   5.051  0.2210  0.1270 -0.4302
 4191SOL     OW16529   3.409   2.619   0.453  0.1788 -0.1686  0.3245
 4191SOL    HW216530   3.328   2.598   0.406 -0.5325 -0.0496  1.4653
 4191SOL    HW316531   3.432   2.706   0.423  0.9257 -0.9122 -1.4027
 4191SOL    MW416532   3.401   2.628   0.443 -0.3104  0.0638  0.2624
 4192SOL     OW16533   1.702   6.248   3.329 -0.4205 -0.0504  0.0261
 4192SOL    HW216534   1.683   6.208   3.414  0.8765 -1.7061 -0.3960
 4192SOL    HW316535   1.618   6.248   3.283 -0.7003 -1.2954  0.4793
 4192SOL    MW416536   1.688   6.243   3.334 -0.2102  0.7409  0.5783
 4193SOL     OW16537   4.209   5.837   1.430 -0.7749  0.4981 -0.1816
 4193SOL    HW216538   4.297   5.804   1.412 -0.4041  0.4248  1.5967
 4193SOL    HW316539   4.220   5.931   1.441 -1.2460  0.7625 -1.7090
 4193SOL    MW416540   4.222   5.845   1.429 -0.2830  0.2579  0.0862
 4194SOL     OW16541   1.494   0.798   3.080  0.3019  0.3020  0.1937
 4194SOL    HW216542   1.505   0.843   3.164 -1.6158 -0.8765  1.1463
 4194SOL    HW316543   1.453   0.864   3.023 -0.5197  0.4258  0.9129
 4194SOL    MW416544   1.490   0.813   3.083  0.3665 -0.2202  0.3418
 4195SOL     OW16545   0.746   3.529   4.934  0.2722 -0.1118  0.1117
 4195SOL    HW216546   0.815   3.576   4.981 -0.0683  0.5929 -0.0793
 4195SOL    HW316547   0.684   3.503   5.001  0.2743  0.0435  0.1750
 4195SOL    MW416548   0.747   3.532   4.949 -0.2188  0.3362  0.3832
 4196SOL     OW16549   3.239   3.221   3.717 -0.4706 -0.7975 -0.0825
 4196SOL    HW216550   3.310   3.265   3.764  0.5859 -2.3311 -0.1643
 4196SOL    HW316551   3.170   3.287   3.711  1.2607  1.0988 -0.7946
 4196SOL    MW416552   3.240   3.236   3.722  0.3618  1.0257  0.3586
 4197SOL     OW16553   5.992   2.066   4.841  0.2727 -0.1964 -0.5778
 4197SOL    HW216554   5.979   2.053   4.747  2.3019 -0.0739 -0.9089
 4197SOL    HW316555   6.080   2.034   4.858 -0.3462 -0.9775  1.4643
 4197SOL    MW416556   6.002   2.061   4.831  0.5595 -0.4666  0.0408
 4198SOL     OW16557   2.838   4.080   1.379  0.5859  0.2915 -0.2901
 4198SOL    HW216558   2.753   4.124   1.384  0.3114 -0.3230  0.8359
 4198SOL    HW316559   2.902   4.149   1.394  0.3821  0.9709 -2.2061
 4198SOL    MW416560   2.835   4.095   1.382  0.0238 -0.1235 -0.8072
 4199SOL     OW16561   5.928   1.762   0.621  0.2630 -0.4343  0.2062
 4199SOL    HW216562   5.923   1.765   0.526  0.4099 -1.1498  0.1706
 4199SOL    HW316563   5.943   1.670   0.642  1.8085 -0.0794  0.8350
 4199SOL    MW416564   5.930   1.750   0.611  0.3224  0.7942 -0.2001
 4200SOL     OW16565   3.786   1.805   2.586 -0.3713  0.5370 -0.2260
 4200SOL    HW216566   3.757   1.771   2.502 -0.1542  0.5945 -0.3250
 4200SOL    HW316567   3.731   1.882   2.601 -1.2220 -0.1382  0.2419
 4200SOL    MW416568   3.775   1.811   2.577 -0.2833 -0.2500  0.0184
 4201SOL     OW16569   1.939   5.250   5.924 -0.3203  0.2208 -0.3479
 4201SOL    HW216570   1.878   5.318   5.897 -1.8337 -1.3474 -1.0344
 4201SOL    HW316571   1.885   5.172   5.937  1.5014 -1.2011 -0.7886
 4201SOL    MW416572   1.924   5.248   5.922  0.5123 -0.0356 -0.3848
 4202SOL     OW16573   3.011   2.652   4.184  0.3321 -0.2627  0.0197
 4202SOL    HW216574   3.086   2.648   4.125  1.3105  0.5535  1.1646
 4202SOL    HW316575   3.031   2.723   4.244 -0.3077 -1.4616  1.7466
 4202SOL    MW416576   3.023   2.661   4.184 -0.3678 -0.3010  0.0012
 4203SOL     OW16577   4.223   5.776   0.141  0.3250  0.3872 -0.3369
 4203SOL    HW216578   4.158   5.783   0.211  1.1546 -0.3180  0.5469
 4203SOL    HW316579   4.184   5.820   0.066 -1.2503 -0.2030  0.1016
 4203SOL    MW416580   4.210   5.782   0.140  0.7018 -0.4022  0.5696
 4204SOL     OW16581   6.012   4.732   4.086 -0.3103 -0.0168  0.3829
 4204SOL    HW216582   5.941   4.674   4.058 -0.5880  1.5767 -2.5932
 4204SOL    HW316583   6.088   4.703   4.037  0.8617 -0.8847  2.5878
 4204SOL    MW416584   6.013   4.721   4.076 -0.1897  0.0801 -0.0331
 4205SOL     OW16585   2.825   1.174   2.331  0.1977 -0.3125 -0.6225
 4205SOL    HW216586   2.796   1.246   2.388  0.3545 -1.5580  1.1097
 4205SOL    HW316587   2.777   1.188   2.249 -0.6761  1.0815  0.0762
 4205SOL    MW416588   2.815   1.186   2.328  0.2970  0.5697  0.1859
 4206SOL     OW16589   5.876   0.777   4.362  0.2856  0.4820 -0.0527
 4206SOL    HW216590   5.916   0.801   4.446 -0.3525 -0.3128  0.4960
 4206SOL    HW316591   5.786   0.808   4.368 -0.1515 -0.7666  0.1168
 4206SOL    MW416592   5.870   0.784   4.374  0.4330  0.5735 -0.0248
 4207SOL     OW16593   2.850   1.054   1.931 -0.0426 -0.6055 -0.2751
 4207SOL    HW216594   2.842   1.109   1.854 -0.9415  1.5988  1.2696
 4207SOL    HW316595   2.944   1.046   1.946  0.1126  0.1562 -0.8063
 4207SOL    MW416596   2.861   1.060   1.923 -0.3339  0.2087 -0.3208
 4208SOL     OW16597   6.199   5.315   3.942 -0.0699 -0.0482  0.1536
 4208SOL    HW216598   6.258   5.352   3.876 -1.5224  0.8804 -0.6919
 4208SOL    HW316599   6.143   5.255   3.893 -0.3341 -0.3257  0.7835
 4208SOL    MW416600   6.199   5.312   3.927  0.4601 -0.2059 -0.0999
 4209SOL     OW16601   1.308   0.615   1.803  0.0459  0.2902  0.1736
 4209SOL    HW216602   1.371   0.626   1.874  0.2039 -1.4240  0.3284
 4209SOL    HW316603   1.249   0.546   1.833 -0.4361  0.1650 -0.9870
 4209SOL    MW416604   1.308   0.607   1.816  0.7193  0.0479  0.0680
 4210SOL     OW16605   4.990   3.583   3.363  0.6083 -0.3079 -0.0830
 4210SOL    HW216606   4.915   3.544   3.408  1.2271 -2.2228 -0.6287
 4210SOL    HW316607   4.956   3.608   3.277  0.3742 -0.2910  0.0146
 4210SOL    MW416608   4.976   3.581   3.358 -0.2951 -0.0650 -0.0448
 4211SOL     OW16609   6.106   4.695   0.985 -0.7944  0.4097 -0.0540
 4211SOL    HW216610   6.132   4.708   0.894 -0.5922  0.5435  0.0220
 4211SOL    HW316611   6.142   4.771   1.032 -1.0789  0.4505  0.1001
 4211SOL    MW416612   6.115   4.707   0.979 -0.0325  0.2336  0.1246
 4212SOL     OW16613   6.115   2.975   4.632  0.0405 -0.0926  0.4165
 4212SOL    HW216614   6.057   3.034   4.680  0.0784 -0.7182  1.2557
 4212SOL    HW316615   6.055   2.917   4.584  0.0029  0.8674 -0.7545
 4212SOL    MW416616   6.099   2.975   4.632  0.4535  0.4695 -0.0551
 4213SOL     OW16617   6.420   3.835   3.233 -0.7143  0.1355 -0.9457
 4213SOL    HW216618   6.378   3.843   3.318  1.0568 -1.2545  0.1339
 4213SOL    HW316619   6.410   3.922   3.193 -1.6567  0.7968  0.6249
 4213SOL    MW416620   6.413   3.848   3.239 -0.7734 -0.5033  0.6786
 4214SOL     OW16621   2.877   6.143   5.844  0.0420  0.0253  0.5186
 4214SOL    HW216622   2.934   6.214   5.814 -0.8099  0.5599  0.1222
 4214SOL    HW316623   2.898   6.133   5.937  1.1042 -0.1096  0.2819
 4214SOL    MW416624   2.887   6.151   5.852 -0.0309  0.0240 -0.2163
 4215SOL     OW16625   3.461   2.194   0.263  1.0356  0.5549  0.2952
 4215SOL    HW216626   3.481   2.159   0.176 -1.4974  0.7840 -0.4697
 4215SOL    HW316627   3.457   2.117   0.319 -1.0456 -0.0960 -0.6448
 4215SOL    MW416628   3.463   2.179   0.259 -0.4935  0.5500  0.1202
 4216SOL     OW16629   4.657   3.047   4.237  0.3250  0.4379 -0.1481
 4216SOL    HW216630   4.617   3.115   4.182  0.8682  0.3939 -0.6083
 4216SOL    HW316631   4.692   3.095   4.312  0.5187  0.6454 -0.3662
 4216SOL    MW416632   4.656   3.063   4.240  0.2052  0.3769 -0.1603
 4217SOL     OW16633   1.966   6.094   4.330 -0.3668  0.0858 -0.8312
 4217SOL    HW216634   1.953   6.185   4.358 -1.2718 -0.1363 -0.4952
 4217SOL    HW316635   1.943   6.041   4.406 -2.0598 -0.4957 -1.6895
 4217SOL    MW416636   1.961   6.099   4.343  0.2339 -0.4001 -0.5701
 4218SOL     OW16637   2.685   5.046   3.648  0.2916 -0.3285 -0.2731
 4218SOL    HW216638   2.681   5.095   3.730 -1.3064 -0.9094  0.0372
 4218SOL    HW316639   2.697   4.955   3.674  1.6159 -0.3163 -0.7805
 4218SOL    MW416640   2.686   5.041   3.662  0.5368 -0.2642 -0.5413
 4219SOL     OW16641   2.338   6.255   3.526  0.4973 -0.1099  0.1592
 4219SOL    HW216642   2.278   6.253   3.452 -0.4302 -0.5797  0.9106
 4219SOL    HW316643   2.399   6.327   3.506 -1.4998  1.7067  0.2996
 4219SOL    MW416644   2.338   6.264   3.514 -0.0913  0.3156  0.2428
 4220SOL     OW16645   5.938   2.567   3.645  0.1789 -0.1221 -0.1417
 4220SOL    HW216646   5.999   2.574   3.572  0.1872 -1.1330 -0.2328
 4220SOL    HW316647   5.980   2.617   3.715  0.3842  0.4687 -0.6768
 4220SOL    MW416648   5.952   2.575   3.645 -0.1735 -0.1035  0.2448
 4221SOL     OW16649   5.079   4.293   2.086  0.2585 -0.2468 -0.1068
 4221SOL    HW216650   5.050   4.206   2.114  0.5687 -0.3723 -0.1691
 4221SOL    HW316651   5.173   4.294   2.104  0.4031 -0.2067 -0.8022
 4221SOL    MW416652   5.088   4.281   2.092 -0.3121  0.5459  0.1350
 4222SOL     OW16653   2.940   2.504   6.361 -0.2743  0.3396 -0.2929
 4222SOL    HW216654   2.853   2.464   6.356 -0.2470  0.4012 -1.7147
 4222SOL    HW316655   2.924   2.598   6.357 -0.3085  0.5650  2.6329
 4222SOL    MW416656   2.927   2.511   6.360 -0.2389 -0.1144  0.1996
 4223SOL     OW16657   2.084   1.634   6.396  0.3764 -0.6017  0.2542
 4223SOL    HW216658   2.005   1.688   6.392  0.1820 -0.9246 -2.0889
 4223SOL    HW316659   2.096   1.614   6.489 -2.5026 -0.8240  0.6671
 4223SOL    MW416660   2.075   1.638   6.408 -0.0759 -0.3363  0.0123
 4224SOL     OW16661   3.663   4.569   3.909 -0.4434  0.2983  0.0203
 4224SOL    HW216662   3.737   4.535   3.858 -1.7984  0.3677 -2.0831
 4224SOL    HW316663   3.663   4.516   3.989  1.6492  0.0577 -0.0831
 4224SOL    MW416664   3.673   4.558   3.913 -0.1978  0.2794  0.7504
 4225SOL     OW16665   3.940   4.828   1.071 -0.3928  0.1125 -0.0943
 4225SOL    HW216666   3.970   4.737   1.071 -0.1452  0.1906  0.2540
 4225SOL    HW316667   3.985   4.867   1.146  2.8866  1.6355 -2.6074
 4225SOL    MW416668   3.950   4.821   1.081  0.1179 -0.0832  0.8693
 4226SOL     OW16669   1.648   2.271   2.597 -0.4180 -0.4819  0.0518
 4226SOL    HW216670   1.568   2.222   2.579 -0.5263 -0.3193  0.0831
 4226SOL    HW316671   1.675   2.240   2.684 -1.7628  1.1590  1.1357
 4226SOL    MW416672   1.641   2.260   2.606 -1.0507 -0.4239  0.0625
 4227SOL     OW16673   4.767   0.704   3.631 -0.6045 -0.1893 -0.0568
 4227SOL    HW216674   4.711   0.780   3.617 -0.2807  0.0984  0.2031
 4227SOL    HW316675   4.825   0.703   3.555 -1.0615 -0.5812 -0.4077
 4227SOL    MW416676   4.767   0.714   3.619  0.4947 -0.4010 -0.7490
 4228SOL     OW16677   1.884   1.028   0.399  0.1223  0.5191 -0.0660
 4228SOL    HW216678   1.879   0.964   0.328  1.2568  0.6900 -0.3136
 4228SOL    HW316679   1.922   1.106   0.358 -2.2361  1.7620 -0.0310
 4228SOL    MW416680   1.888   1.030   0.384  0.5749 -0.0022 -0.4500
 4229SOL     OW16681   1.576   1.737   3.694 -0.2046 -0.3384  0.2888
 4229SOL    HW216682   1.634   1.664   3.716  2.2722  0.7717 -1.9500
 4229SOL    HW316683   1.608   1.769   3.609 -2.9015  1.6536 -0.1279
 4229SOL    MW416684   1.588   1.732   3.686  0.3340  0.1943  0.8355
 4230SOL     OW16685   5.763   3.235   1.435 -0.3458 -0.3673  0.6886
 4230SOL    HW216686   5.725   3.260   1.519  0.8566 -0.8949  1.4304
 4230SOL    HW316687   5.690   3.201   1.384 -0.9738 -0.7685  1.8186
 4230SOL    MW416688   5.749   3.234   1.439 -0.8299  0.2579  0.5550
 4231SOL     OW16689   6.267   1.012   5.828 -0.0409 -0.1713 -0.2475
 4231SOL    HW216690   6.206   0.938   5.830  1.4308 -1.4505  0.6102
 4231SOL    HW316691   6.344   0.979   5.875  1.3828  1.2802 -1.4644
 4231SOL    MW416692   6.269   0.998   5.834 -0.3303 -0.2194 -0.1405
 4232SOL     OW16693   5.024   2.835   5.137  0.2831 -0.6167  0.0094
 4232SOL    HW216694   4.992   2.746   5.128  0.1022 -0.3880 -2.8921
 4232SOL    HW316695   4.952   2.883   5.178  0.1447 -1.6567  1.0092
 4232SOL    MW416696   5.010   2.830   5.141 -0.4013 -0.3986 -0.1858
 4233SOL     OW16697   5.845   5.543   5.733 -0.0422  0.0500 -0.5844
 4233SOL    HW216698   5.758   5.560   5.698 -1.2176 -0.0677  2.0353
 4233SOL    HW316699   5.833   5.468   5.792  1.6130  0.6469  0.5821
 4233SOL    MW416700   5.832   5.535   5.736 -0.3960  0.1724 -0.2260
 4234SOL     OW16701   5.511   3.041   1.775 -0.3706 -0.7150  0.0463
 4234SOL    HW216702   5.566   3.115   1.751 -0.4588 -1.5083 -3.0405
 4234SOL    HW316703   5.547   3.009   1.858  0.8560  1.5586  0.4570
 4234SOL    MW416704   5.523   3.046   1.783  0.0355 -0.4094 -0.0628
 4235SOL     OW16705   3.211   2.703   1.379 -0.1970  0.2546 -0.4004
 4235SOL    HW216706   3.281   2.694   1.444 -1.1441  0.8693  0.7421
 4235SOL    HW316707   3.172   2.616   1.374 -3.0336  1.0487  3.3239
 4235SOL    MW416708   3.215   2.691   1.387  0.5019  0.0691 -0.6287
 4236SOL     OW16709   4.212   1.590   1.499 -0.0275  0.0635  0.5206
 4236SOL    HW216710   4.290   1.539   1.479 -0.5325 -0.5220  0.0419
 4236SOL    HW316711   4.149   1.566   1.432 -1.1829 -0.6887  1.8319
 4236SOL    MW416712   4.214   1.580   1.488 -0.1381  0.2959  0.1648
 4237SOL     OW16713   4.935   0.084   2.204  0.3350 -0.5545  0.3974
 4237SOL    HW216714   4.902  -0.006   2.205 -0.5576 -0.3013 -1.3006
 4237SOL    HW316715   5.013   0.081   2.149 -0.1645 -0.1845 -0.3623
 4237SOL    MW416716   4.941   0.072   2.197 -1.1571  0.1941 -0.1233
 4238SOL     OW16717   3.438   0.395   1.624 -0.4990  0.1494 -0.1783
 4238SOL    HW216718   3.508   0.410   1.561  1.1372  0.5668  1.6531
 4238SOL    HW316719   3.446   0.303   1.647 -2.8551 -0.7482 -2.5070
 4238SOL    MW416720   3.448   0.385   1.619  0.0108  0.0003  0.0817
 4239SOL     OW16721   1.160   0.193   1.370  0.0402 -0.0300  0.1550
 4239SOL    HW216722   1.090   0.128   1.360  0.8173 -0.6784 -1.4522
 4239SOL    HW316723   1.162   0.211   1.464 -0.6164 -1.8896  0.5829
 4239SOL    MW416724   1.151   0.187   1.381 -0.0899  0.0780  0.3409
 4240SOL     OW16725   1.471   3.721   1.293 -0.1268 -0.5508 -0.2784
 4240SOL    HW216726   1.533   3.791   1.312  1.8485 -2.0139 -1.0966
 4240SOL    HW316727   1.451   3.683   1.378  1.4606 -1.1540 -0.1466
 4240SOL    MW416728   1.476   3.725   1.306 -0.4039 -0.3926 -0.4472
 4241SOL     OW16729   5.019   0.867   1.181  0.0523 -0.1580 -0.0907
 4241SOL    HW216730   5.000   0.804   1.251  1.3912  0.1552  0.5859
 4241SOL    HW316731   4.972   0.833   1.105  0.6995 -1.9735  0.2726
 4241SOL    MW416732   5.011   0.854   1.180 -0.2904  0.4377  0.2139
 4242SOL     OW16733   4.291   3.035   5.636 -0.5679  0.8106 -0.1450
 4242SOL    HW216734   4.363   3.094   5.661 -1.4251  1.1123  1.7453
 4242SOL    HW316735   4.293   2.965   5.701 -1.1813  0.1027 -0.8653
 4242SOL    MW416736   4.301   3.034   5.648 -0.0790  0.1931 -0.1318
 4243SOL     OW16737   2.370   5.705   4.478  0.0483  0.3664 -0.0268
 4243SOL    HW216738   2.463   5.720   4.462  0.0514  0.8306  0.4024
 4243SOL    HW316739   2.326   5.749   4.405  0.2263 -1.9772 -1.6506
 4243SOL    MW416740   2.376   5.713   4.466  0.0688  0.3176 -0.2039
 4244SOL     OW16741   6.198   3.349   0.031 -0.2971 -0.2453 -0.6697
 4244SOL    HW216742   6.283   3.393   0.034 -1.2663  1.7089 -0.4279
 4244SOL    HW316743   6.139   3.408   0.077 -1.4497 -2.4213  0.8281
 4244SOL    MW416744   6.201   3.362   0.038 -0.2900 -0.2229 -0.1093
 4245SOL     OW16745   5.073   1.907   0.883 -0.0843  0.2867 -0.0374
 4245SOL    HW216746   5.008   1.877   0.818 -0.3641 -2.0339  1.1870
 4245SOL    HW316747   5.154   1.917   0.833 -0.7591  0.5901 -1.1118
 4245SOL    MW416748   5.075   1.904   0.868 -0.2408  0.2712  0.4390
 4246SOL     OW16749   1.673   1.250   3.971 -0.4091  0.5314 -0.4694
 4246SOL    HW216750   1.767   1.263   3.970 -0.4266  0.6722 -0.3408
 4246SOL    HW316751   1.649   1.256   4.063 -0.6057  0.9581 -0.5445
 4246SOL    MW416752   1.682   1.252   3.983 -0.0148 -0.5398  0.3465
 4247SOL     OW16753   3.431   3.966   0.737  0.2139  0.2621  0.1065
 4247SOL    HW216754   3.424   4.057   0.763 -1.7614  0.6375 -1.4812
 4247SOL    HW316755   3.346   3.928   0.760 -0.5332 -0.0988 -2.8737
 4247SOL    MW416756   3.419   3.973   0.744  0.4524  0.1216 -0.5869
 4248SOL     OW16757   4.736   0.198   6.182  0.0243  0.1849  0.3950
 4248SOL    HW216758   4.829   0.207   6.165 -0.0193 -0.3710 -0.2119
 4248SOL    HW316759   4.731   0.162   6.271  0.4563 -1.0330 -0.0408
 4248SOL    MW416760   4.747   0.194   6.192 -0.1540  0.7379  0.1032
 4249SOL     OW16761   4.838   5.679   6.303  0.0549  0.4355  0.0118
 4249SOL    HW216762   4.847   5.588   6.331 -0.2444  0.8061  1.4072
 4249SOL    HW316763   4.924   5.718   6.321  0.0028  0.5673 -0.0249
 4249SOL    MW416764   4.851   5.672   6.309 -0.2476 -0.0258  0.2150
 4250SOL     OW16765   3.615   2.239   1.173  0.1711 -0.2652  0.3358
 4250SOL    HW216766   3.634   2.269   1.084  0.2828 -2.2354 -0.3598
 4250SOL    HW316767   3.697   2.251   1.221  2.1349 -4.4606 -1.4245
 4250SOL    MW416768   3.628   2.244   1.167  0.8281  0.0702  0.5951
 4251SOL     OW16769   2.038   5.060   3.623  0.3580 -0.2063 -0.1890
 4251SOL    HW216770   2.034   5.134   3.563 -0.7686 -0.3120 -0.2696
 4251SOL    HW316771   1.977   4.996   3.586  0.2630 -0.5986  0.6180
 4251SOL    MW416772   2.029   5.062   3.610  0.3891 -0.2880  0.9119
 4252SOL     OW16773   0.484   2.198   5.646  0.3823 -0.0601  0.6806
 4252SOL    HW216774   0.556   2.152   5.603  0.7917  0.4135  0.8509
 4252SOL    HW316775   0.519   2.223   5.731 -0.9737 -2.5968  2.1101
 4252SOL    MW416776   0.498   2.195   5.652  0.3501 -0.3640  0.3091
 4253SOL     OW16777   2.175   2.817   3.688  0.0307 -0.1274  0.2753
 4253SOL    HW216778   2.241   2.756   3.722  0.9350  0.3851 -0.5169
 4253SOL    HW316779   2.153   2.784   3.601 -0.8836 -0.3768  0.5885
 4253SOL    MW416780   2.181   2.805   3.681  0.0130  0.3282 -0.3188
 4254SOL     OW16781   6.134   4.117   5.224  0.1254  0.4027 -0.1029
 4254SOL    HW216782   6.068   4.067   5.175 -0.4460 -0.5123  1.5134
 4254SOL    HW316783   6.086   4.154   5.298  0.7739  2.5152 -0.6842
 4254SOL    MW416784   6.119   4.115   5.227  0.2991 -0.1085  0.1591
 4255SOL     OW16785   4.923   0.703   1.401  0.1593 -0.2058  1.4192
 4255SOL    HW216786   4.854   0.674   1.460  1.2016 -1.4299  2.0967
 4255SOL    HW316787   4.957   0.622   1.362 -1.0582  0.5654 -1.5991
 4255SOL    MW416788   4.919   0.688   1.403  0.0052 -0.0820 -0.6477
 4256SOL     OW16789   3.391   1.853   2.584 -0.0997  0.0076 -0.5417
 4256SOL    HW216790   3.348   1.865   2.499  0.7873  0.7145 -0.9208
 4256SOL    HW316791   3.340   1.907   2.645 -1.0147 -0.8660 -0.5124
 4256SOL    MW416792   3.379   1.862   2.581 -0.0725 -0.0436  0.1818
 4257SOL     OW16793   2.971   0.165   6.057 -0.1500 -0.4576 -0.4885
 4257SOL    HW216794   2.936   0.254   6.052 -0.7978 -0.7256 -0.7630
 4257SOL    HW316795   2.945   0.124   5.974 -1.2859 -1.4197  0.3107
 4257SOL    MW416796   2.963   0.171   6.045 -0.2861  0.4830  0.7728
 4258SOL     OW16797   2.897   4.352   0.057 -0.2374 -0.3455 -0.2527
 4258SOL    HW216798   2.930   4.263   0.068 -3.1591 -1.3680  1.0789
 4258SOL    HW316799   2.872   4.357  -0.035 -0.8175 -1.2257 -0.1593
 4258SOL    MW416800   2.898   4.341   0.046 -0.1263  0.5231 -0.1348
 4259SOL     OW16801   2.213   5.176   0.726 -0.3544 -0.1214  0.0959
 4259SOL    HW216802   2.303   5.193   0.754  1.0205 -0.4922 -3.5526
 4259SOL    HW316803   2.185   5.257   0.683 -0.5545 -0.9810 -1.4801
 4259SOL    MW416804   2.221   5.189   0.724 -0.1911 -0.3046  0.3846
 4260SOL     OW16805   5.816   0.140   5.831  0.7809 -0.2022 -0.1215
 4260SOL    HW216806   5.817   0.044   5.832 -1.8312 -0.3060 -0.6399
 4260SOL    HW316807   5.782   0.162   5.744 -0.8927  1.1012  0.8207
 4260SOL    MW416808   5.811   0.130   5.819 -0.0609 -0.0022 -0.7723
 4261SOL     OW16809   5.536   4.945   1.353  0.3677 -0.0291  0.6756
 4261SOL    HW216810   5.563   5.011   1.417 -1.0248 -0.0194  1.2735
 4261SOL    HW316811   5.614   4.933   1.298  0.7494  1.9020  0.7075
 4261SOL    MW416812   5.550   4.952   1.354 -0.1038  0.1979 -0.6792
 4262SOL     OW16813   1.258   0.061   2.465  0.1153  0.3148 -0.0285
 4262SOL    HW216814   1.312   0.091   2.392  1.1178  0.7589  0.8602
 4262SOL    HW316815   1.282  -0.031   2.475 -0.7794 -0.0229 -0.8907
 4262SOL    MW416816   1.268   0.053   2.457 -0.1983  0.4692  0.1578
 4263SOL     OW16817   2.175   0.587   5.371  0.8885  0.0889  0.3362
 4263SOL    HW216818   2.224   0.650   5.318  0.5563 -0.5377 -0.7648
 4263SOL    HW316819   2.088   0.586   5.331  0.7277 -0.6435  0.6882
 4263SOL    MW416820   2.170   0.595   5.359  0.8214  0.8069 -0.7654
 4264SOL     OW16821   1.608   0.532   2.226  0.4071  0.2551  0.4854
 4264SOL    HW216822   1.564   0.551   2.143 -1.4803 -1.1290  1.0839
 4264SOL    HW316823   1.606   0.436   2.233  2.9434  0.1733  0.9221
 4264SOL    MW416824   1.602   0.522   2.216  0.4730 -0.0773 -0.3747
 4265SOL     OW16825   4.613   1.191   4.887 -0.3453  0.2483  0.0963
 4265SOL    HW216826   4.518   1.198   4.886 -0.3542  1.1274  1.9929
 4265SOL    HW316827   4.630   1.105   4.925 -0.3453 -0.2579 -1.0006
 4265SOL    MW416828   4.603   1.181   4.892 -0.0702  0.5766 -0.4508
 4266SOL     OW16829   4.922   2.999   0.200 -0.1516 -0.0709 -0.2262
 4266SOL    HW216830   4.937   2.938   0.271  1.2138 -2.2834 -2.2592
 4266SOL    HW316831   5.005   3.046   0.190 -1.2347  2.4475  1.4390
 4266SOL    MW416832   4.935   2.997   0.208  0.2934  0.5353 -0.3745
 4267SOL     OW16833   4.607   0.450   5.085 -0.4563  0.4983 -0.3822
 4267SOL    HW216834   4.590   0.435   5.178 -0.7299 -0.5799 -0.5952
 4267SOL    HW316835   4.571   0.537   5.068 -0.0082  0.8921  0.6164
 4267SOL    MW416836   4.600   0.459   5.095 -0.1529 -0.1529  0.5455
 4268SOL     OW16837   6.279   4.764   2.984 -0.1259 -0.1476 -0.5105
 4268SOL    HW216838   6.361   4.734   2.944 -0.9580 -4.1644  0.3943
 4268SOL    HW316839   6.212   4.746   2.918 -0.6570  0.1828 -0.0688
 4268SOL    MW416840   6.281   4.758   2.970 -0.6570 -0.0285  0.6301
 4269SOL     OW16841   5.283   2.627   5.588 -0.5831 -0.3554  0.4499
 4269SOL    HW216842   5.258   2.539   5.618 -0.1919 -0.2951  0.9687
 4269SOL    HW316843   5.224   2.686   5.636 -0.5270 -0.3053  0.4569
 4269SOL    MW416844   5.272   2.623   5.598 -0.0560 -0.2995  0.1182
 4270SOL     OW16845   4.493   0.387   4.001  0.5158 -0.4782 -0.2475
 4270SOL    HW216846   4.569   0.420   3.953 -0.3170 -0.1015 -1.3503
 4270SOL    HW316847   4.530   0.344   4.078  1.8785 -0.7991 -1.0458
 4270SOL    MW416848   4.508   0.385   4.005 -0.7904 -0.2778  0.0995
 4271SOL     OW16849   3.014   5.747   3.685 -0.0685  0.2935  0.5208
 4271SOL    HW216850   3.044   5.754   3.594  1.7186  1.8397  1.1651
 4271SOL    HW316851   2.965   5.827   3.700 -0.7712 -0.1849  0.7980
 4271SOL    MW416852   3.011   5.758   3.675 -0.0329  0.1975  0.0749
 4272SOL     OW16853   0.111   3.665   5.592  0.1254  0.0746 -0.4540
 4272SOL    HW216854   0.109   3.686   5.685 -1.0315 -0.3749 -0.3615
 4272SOL    HW316855   0.034   3.708   5.555  0.3567 -0.0751 -1.1382
 4272SOL    MW416856   0.101   3.673   5.599  0.1164 -0.2244  0.1719
 4273SOL     OW16857   5.399   3.796   6.309  0.1792 -0.8372 -0.0068
 4273SOL    HW216858   5.447   3.789   6.226  0.5233  0.0784  0.1024
 4273SOL    HW316859   5.463   3.830   6.371 -0.5251  0.1147  0.2160
 4273SOL    MW416860   5.414   3.799   6.306 -0.2932  0.2596  0.2283
 4274SOL     OW16861   1.833   3.033   5.250 -0.0949  0.0832  0.0076
 4274SOL    HW216862   1.799   2.948   5.222  0.5511 -0.5311  1.0227
 4274SOL    HW316863   1.763   3.070   5.303 -0.7659  0.6378 -1.2200
 4274SOL    MW416864   1.820   3.026   5.253  0.8316  0.1058  0.2190
 4275SOL     OW16865   4.380   4.713   6.254 -0.2715 -0.2382  0.0656
 4275SOL    HW216866   4.372   4.665   6.172 -1.5786 -0.2061  0.1512
 4275SOL    HW316867   4.289   4.725   6.283  0.1799 -0.9957  1.9426
 4275SOL    MW416868   4.367   4.708   6.247  0.7084 -0.2742 -0.5522
 4276SOL     OW16869   0.624   5.872   4.163  0.0538 -0.0406  0.0433
 4276SOL    HW216870   0.695   5.914   4.115 -0.7229  2.1517  0.7019
 4276SOL    HW316871   0.544   5.900   4.117 -0.4835 -1.1873  0.2375
 4276SOL    MW416872   0.623   5.881   4.151  0.7466  0.4461 -0.4403
 4277SOL     OW16873   4.745   2.389   0.758  0.0013 -0.6745  0.1662
 4277SOL    HW216874   4.838   2.391   0.733 -0.1735  0.3052 -0.4676
 4277SOL    HW316875   4.719   2.298   0.743  0.9631 -1.0712  0.7823
 4277SOL    MW416876   4.754   2.377   0.752 -0.2442 -0.3677 -0.2383
 4278SOL     OW16877   0.703   4.624   1.013 -0.0867 -0.4380  0.6651
 4278SOL    HW216878   0.750   4.547   1.046 -2.3620 -3.5658 -2.6198
 4278SOL    HW316879   0.758   4.657   0.942  0.4596  0.5420  1.5046
 4278SOL    MW416880   0.717   4.618   1.008  0.0681 -0.9789 -0.2156
 4279SOL     OW16881   5.513   0.799   6.415 -0.1033  0.4181  0.2424
 4279SOL    HW216882   5.572   0.818   6.342  0.6141 -0.7332  0.5054
 4279SOL    HW316883   5.430   0.778   6.374 -0.1050  1.1655 -0.1688
 4279SOL    MW416884   5.510   0.799   6.400 -0.0190  0.6945 -0.6988
 4280SOL     OW16885   2.058   1.469   5.994 -0.2093  0.1458 -0.1493
 4280SOL    HW216886   2.090   1.435   6.078 -0.5068 -0.0472 -0.1149
 4280SOL    HW316887   2.119   1.540   5.973 -0.3879  0.4808  0.4401
 4280SOL    MW416888   2.071   1.474   6.003 -0.0182 -0.3058 -0.1648
 4281SOL     OW16889   4.126   2.925   1.792  0.1552 -0.6779  0.8132
 4281SOL    HW216890   4.050   2.954   1.742  1.2009  0.4269 -0.2061
 4281SOL    HW316891   4.123   2.830   1.787 -1.2018 -0.6580  0.8711
 4281SOL    MW416892   4.116   2.917   1.785 -0.3264  1.0709 -0.4198
 4282SOL     OW16893   0.207   2.011   1.805  0.1478  0.0565  0.5130
 4282SOL    HW216894   0.137   2.042   1.747  0.7294 -0.2438 -0.3731
 4282SOL    HW316895   0.169   2.013   1.893 -0.5655  1.0857  0.1945
 4282SOL    MW416896   0.193   2.015   1.809  0.3190 -0.1669  0.6069
 4283SOL     OW16897   4.514   0.069   2.085 -0.3612 -0.0785  0.0647
 4283SOL    HW216898   4.530   0.162   2.069  0.1294 -0.0089  0.9322
 4283SOL    HW316899   4.595   0.026   2.059 -0.0596 -0.1052  1.0168
 4283SOL    MW416900   4.527   0.076   2.079  0.1075 -0.4271  0.4823
 4284SOL     OW16901   0.771   4.919   0.344 -0.1186 -0.6122  0.5915
 4284SOL    HW216902   0.804   4.979   0.277  0.9826 -2.2660 -0.4083
 4284SOL    HW316903   0.694   4.878   0.304 -1.0481  0.2845  1.3855
 4284SOL    MW416904   0.765   4.921   0.330 -0.0812  0.2777 -0.3829
 4285SOL     OW16905   5.607   5.547   0.360  0.3878 -0.0496  0.3566
 4285SOL    HW216906   5.679   5.505   0.313  0.7384  0.0129  0.8274
 4285SOL    HW316907   5.590   5.489   0.434  0.3191  0.2144  0.5465
 4285SOL    MW416908   5.614   5.534   0.363  0.2996  0.2688  0.4528
 4286SOL     OW16909   4.767   2.965   2.330 -0.0874 -0.0777  0.7256
 4286SOL    HW216910   4.858   2.973   2.301 -0.2631  0.8802  0.3985
 4286SOL    HW316911   4.730   2.898   2.272 -0.4667  1.8903 -1.4663
 4286SOL    MW416912   4.774   2.957   2.318 -0.0969 -0.4429  0.0675
 4287SOL     OW16913   6.277   3.772   5.536  0.2783 -0.4443 -0.2888
 4287SOL    HW216914   6.268   3.838   5.467  0.9389 -0.1587 -0.1015
 4287SOL    HW316915   6.205   3.791   5.596  1.2308  0.9427  0.4597
 4287SOL    MW416916   6.266   3.783   5.535  0.1735  0.3658  0.2214
 4288SOL     OW16917   3.442   4.744   2.089  0.2950  0.4151 -0.5206
 4288SOL    HW216918   3.468   4.683   2.158  1.6336  0.7656 -0.6841
 4288SOL    HW316919   3.412   4.822   2.135  0.2315  0.2804 -0.3325
 4288SOL    MW416920   3.441   4.746   2.104  0.0682 -0.4418 -0.0893
 4289SOL     OW16921   3.145   4.627   0.869  0.4392  0.3033 -0.3560
 4289SOL    HW216922   3.063   4.591   0.835  0.0156  1.5207 -0.6866
 4289SOL    HW316923   3.169   4.569   0.941 -1.1007  0.3420  0.2173
 4289SOL    MW416924   3.137   4.615   0.874  0.5870 -0.1248  0.0654
 4290SOL     OW16925   1.724   1.452   6.422 -0.4133  0.1950  0.7567
 4290SOL    HW216926   1.792   1.415   6.365 -0.6961  0.0669  0.5031
 4290SOL    HW316927   1.772   1.479   6.501 -0.2738 -1.1025  1.1349
 4290SOL    MW416928   1.739   1.451   6.425 -0.1817 -0.2991 -0.0691
 4291SOL     OW16929   3.001   2.957   0.392  0.2592 -0.4599  0.5652
 4291SOL    HW216930   2.907   2.974   0.390  0.4411  0.5935  0.4061
 4291SOL    HW316931   3.013   2.883   0.333 -0.3867 -0.1694  0.0552
 4291SOL    MW416932   2.990   2.950   0.384  0.1052  0.8454  0.2070
 4292SOL     OW16933   4.099   2.080   5.576  0.6218 -0.1865  0.2004
 4292SOL    HW216934   4.102   2.162   5.626 -1.3471  0.2500 -0.3310
 4292SOL    HW316935   4.149   2.019   5.630 -1.3531  0.2681  2.7779
 4292SOL    MW416936   4.106   2.083   5.590 -0.0179 -0.0564 -0.2654
 4293SOL     OW16937   1.172   5.544   4.417 -0.7814 -0.3304 -0.1432
 4293SOL    HW216938   1.222   5.507   4.490 -0.1781 -0.0339 -0.3957
 4293SOL    HW316939   1.082   5.519   4.435 -0.9910  1.5363  1.8704
 4293SOL    MW416940   1.167   5.536   4.429 -0.6488 -0.0613  0.3157
 4294SOL     OW16941   4.138   5.044   2.313 -0.7792 -0.0023 -1.0194
 4294SOL    HW216942   4.214   5.101   2.324  0.3976 -1.6480 -0.2347
 4294SOL    HW316943   4.117   5.051   2.220 -0.6856  1.6798 -0.9488
 4294SOL    MW416944   4.145   5.053   2.302  0.4731 -0.2600 -0.4185
 4295SOL     OW16945   1.739   5.898   4.715 -0.9209 -0.3512  0.1498
 4295SOL    HW216946   1.813   5.903   4.654 -1.9170  0.5769 -1.0508
 4295SOL    HW316947   1.708   5.808   4.708 -0.4466 -0.5058 -0.0027
 4295SOL    MW416948   1.745   5.887   4.706  0.4015 -0.3676 -0.0120
 4296SOL     OW16949   2.850   1.128   4.189  0.6148 -0.0215 -0.0157
 4296SOL    HW216950   2.924   1.149   4.131  0.5976 -0.0114 -0.0339
 4296SOL    HW316951   2.817   1.213   4.218  0.2127 -0.0093 -0.5071
 4296SOL    MW416952   2.856   1.142   4.185 -0.5331 -0.2423 -0.0744
 4297SOL     OW16953   4.596   5.303   2.117  0.2553  0.0431 -0.2726
 4297SOL    HW216954   4.677   5.283   2.069 -1.1950 -1.5783 -2.2528
 4297SOL    HW316955   4.605   5.256   2.200  1.7632  0.7847  0.0204
 4297SOL    MW416956   4.608   5.294   2.121  0.8249 -0.6008 -0.5934
 4298SOL     OW16957   4.602   0.681   4.329  0.0094 -0.3520 -0.5226
 4298SOL    HW216958   4.640   0.594   4.317  0.6534 -0.0247 -0.8628
 4298SOL    HW316959   4.507   0.665   4.329  0.1242 -1.1975  0.5339
 4298SOL    MW416960   4.594   0.667   4.328  0.1004 -0.2529  0.0940
 4299SOL     OW16961   0.247   3.291   0.686  0.1614 -0.1944 -0.3241
 4299SOL    HW216962   0.178   3.225   0.685 -1.5469  1.4998 -1.5091
 4299SOL    HW316963   0.214   3.360   0.744  0.8342  0.6530 -0.9078
 4299SOL    MW416964   0.234   3.292   0.693 -0.1773  0.0051  0.8462
 4300SOL     OW16965   2.275   3.362   6.326 -0.9113  0.2319  0.3078
 4300SOL    HW216966   2.369   3.353   6.311 -0.8689 -1.8462  1.3761
 4300SOL    HW316967   2.267   3.436   6.385 -0.1190  1.4086 -1.0075
 4300SOL    MW416968   2.286   3.370   6.332 -0.0466 -0.1323  0.4397
 4301SOL     OW16969   0.543   4.794   0.228  0.4027 -0.6496 -0.1554
 4301SOL    HW216970   0.576   4.795   0.138  0.1921  1.4797 -0.2428
 4301SOL    HW316971   0.448   4.791   0.218  0.2753  1.7924 -0.0928
 4301SOL    MW416972   0.535   4.793   0.215  0.1608 -0.4938  0.5364
 4302SOL     OW16973   5.315   2.917   6.161 -0.0791 -0.5087  0.0306
 4302SOL    HW216974   5.278   2.845   6.213 -0.7317 -0.5184 -0.4269
 4302SOL    HW316975   5.258   2.992   6.181  0.2185 -0.2830  0.0260
 4302SOL    MW416976   5.302   2.917   6.171  0.3462 -0.2591 -0.3962
 4303SOL     OW16977   0.393   5.749   6.421  0.3179 -0.1031 -0.2871
 4303SOL    HW216978   0.390   5.779   6.330 -0.9788  1.0200  0.0952
 4303SOL    HW316979   0.487   5.741   6.440  0.6104 -1.0002 -1.9025
 4303SOL    MW416980   0.405   5.752   6.412 -0.1476 -0.6805 -0.0658
 4304SOL     OW16981   5.508   5.192   4.892  0.1102  0.0843  0.2588
 4304SOL    HW216982   5.476   5.209   4.803 -1.0495 -0.6733  0.5086
 4304SOL    HW316983   5.487   5.271   4.941  0.8267  0.5377 -0.1494
 4304SOL    MW416984   5.501   5.205   4.886  0.0574  0.1380 -0.3235
 4305SOL     OW16985   4.876   4.055   4.661 -0.3796 -0.1016  0.5494
 4305SOL    HW216986   4.930   3.991   4.615 -0.9215  0.7166 -1.3440
 4305SOL    HW316987   4.930   4.086   4.734 -0.3129 -3.0649  1.8783
 4305SOL    MW416988   4.890   4.051   4.665 -0.3909 -0.3184  0.3270
 4306SOL     OW16989   0.545   3.973   1.334 -0.1294  0.1360 -0.3886
 4306SOL    HW216990   0.457   3.936   1.324 -0.3566  0.6920 -0.4755
 4306SOL    HW316991   0.568   3.956   1.425 -0.5564  0.4809 -0.2124
 4306SOL    MW416992   0.536   3.966   1.344 -0.0180 -0.4996 -0.1682
 4307SOL     OW16993   5.911   1.450   3.891  0.4718  0.1939  0.3780
 4307SOL    HW216994   5.867   1.456   3.976  0.6982  0.7190  0.4625
 4307SOL    HW316995   5.841   1.441   3.827  0.1816  1.8399  0.4292
 4307SOL    MW416996   5.896   1.449   3.894 -0.6130 -0.0871  0.0134
 4308SOL     OW16997   4.057   3.172   0.155  0.6588 -0.2125  0.1841
 4308SOL    HW216998   3.969   3.146   0.128  0.5813 -3.4272  2.8623
 4308SOL    HW316999   4.115   3.112   0.108  0.9976 -1.1859  1.7566
 4308SOL    MW417000   4.053   3.160   0.145 -0.2878 -0.2515  0.0817
 4309SOL     OW17001   1.565   3.069   4.572  0.1172  0.1838  0.0114
 4309SOL    HW217002   1.483   3.023   4.586  0.0665  0.5361  0.9809
 4309SOL    HW317003   1.631   3.016   4.616  0.3465  0.1093 -0.4173
 4309SOL    MW417004   1.563   3.056   4.580  0.1875 -0.2748  0.1676
 4310SOL     OW17005   5.557   4.789   6.429  0.6443  0.2122  0.0634
 4310SOL    HW217006   5.574   4.793   6.523  2.8633  0.1205 -0.2741
 4310SOL    HW317007   5.550   4.695   6.410  3.0451  0.0453 -0.2470
 4310SOL    MW417008   5.558   4.777   6.439  0.3136  0.0581  0.3392
 4311SOL     OW17009   4.975   3.738   2.198 -0.7205 -0.1050  0.3614
 4311SOL    HW217010   5.056   3.688   2.183 -0.4252  0.6517 -0.6167
 4311SOL    HW317011   4.910   3.671   2.218 -0.5420 -1.0050 -1.7872
 4311SOL    MW417012   4.977   3.722   2.199  0.2538  0.2497 -0.2528
 4312SOL     OW17013   5.346   1.263   4.830  0.4509 -0.0284 -0.9255
 4312SOL    HW217014   5.437   1.286   4.811  0.1707  1.9461 -0.1865
 4312SOL    HW317015   5.313   1.226   4.749  1.7833 -0.3432 -1.3456
 4312SOL    MW417016   5.354   1.261   4.817 -0.1742  0.1264 -0.1005
 4313SOL     OW17017   0.977   1.270   3.741  0.2226  0.8199 -0.5487
 4313SOL    HW217018   1.047   1.334   3.756  0.2253  0.6909  0.0052
 4313SOL    HW317019   0.956   1.279   3.648  1.7196  0.0894 -0.9798
 4313SOL    MW417020   0.984   1.280   3.731 -0.3787  0.0275 -0.6028
 4314SOL     OW17021   3.993   4.871   5.126 -0.2669  0.4198 -0.0151
 4314SOL    HW217022   3.979   4.859   5.220  0.9772 -0.8818  0.0528
 4314SOL    HW317023   4.060   4.805   5.104 -3.4101 -2.2449 -2.6006
 4314SOL    MW417024   4.000   4.860   5.135  0.0561  0.1578  0.1230
 4315SOL     OW17025   6.268   5.018   1.762 -0.1949  0.1165 -0.0994
 4315SOL    HW217026   6.231   4.958   1.827 -2.8475  0.7623 -0.9051
 4315SOL    HW317027   6.282   5.100   1.809  3.4064 -0.9514  0.9966
 4315SOL    MW417028   6.265   5.021   1.777  0.2072 -0.0701 -0.8667
 4316SOL     OW17029   4.174   1.559   0.676  0.0627 -0.0036  0.2753
 4316SOL    HW217030   4.225   1.601   0.745  0.6698 -2.5439  1.4848
 4316SOL    HW317031   4.232   1.491   0.642 -0.2787  1.0640 -2.7128
 4316SOL    MW417032   4.188   1.556   0.681  0.4594 -0.2369 -0.4024
 4317SOL     OW17033   6.210   5.366   0.848  0.1780  0.3680  0.3916
 4317SOL    HW217034   6.166   5.450   0.856 -1.2032 -0.3386  0.5638
 4317SOL    HW317035   6.148   5.303   0.885 -0.3333 -1.1806 -2.7552
 4317SOL    MW417036   6.196   5.369   0.854  0.5553 -0.9663  0.2105
 4318SOL     OW17037   0.902   3.284   1.369 -0.1451  0.1063  1.2015
 4318SOL    HW217038   0.836   3.342   1.406 -2.0767 -0.1122 -1.6739
 4318SOL    HW317039   0.854   3.206   1.341  1.6837 -0.9798  0.8684
 4318SOL    MW417040   0.887   3.281   1.370 -0.0052  0.3243 -0.3075
 4319SOL     OW17041   4.058   5.884   4.578  0.3090 -0.0261 -0.2871
 4319SOL    HW217042   4.109   5.931   4.512  0.5299  0.6429  0.3418
 4319SOL    HW317043   4.066   5.792   4.555  1.1940  0.1293 -0.6253
 4319SOL    MW417044   4.066   5.878   4.567  0.1512 -0.4544  0.5253
 4320SOL     OW17045   4.718   1.063   6.015 -0.2974  0.2476  0.3387
 4320SOL    HW217046   4.797   1.115   6.026  0.7507 -1.0902 -0.4863
 4320SOL    HW317047   4.647   1.120   6.045  0.9096  1.6660  0.6189
 4320SOL    MW417048   4.719   1.077   6.021 -0.3774 -0.2014 -0.1648
 4321SOL     OW17049   0.677   2.007   5.524 -0.8601  0.7877  0.1172
 4321SOL    HW217050   0.612   1.949   5.484  0.5682 -0.0180 -1.0991
 4321SOL    HW317051   0.729   1.950   5.580  1.2694  0.5853 -1.9324
 4321SOL    MW417052   0.675   1.992   5.526 -0.5054  0.3712 -0.4005
 4322SOL     OW17053   5.489   3.066   0.537 -0.0780 -0.0719  0.0146
 4322SOL    HW217054   5.574   3.109   0.526  0.3613 -0.7776  0.6003
 4322SOL    HW317055   5.433   3.110   0.473  0.6432  0.6061 -0.1824
 4322SOL    MW417056   5.493   3.077   0.527 -0.1052 -0.0819  0.5953
 4323SOL     OW17057   0.769   4.572   5.659 -0.5515  0.2347  0.2344
 4323SOL    HW217058   0.849   4.584   5.711 -0.8363  0.1653  0.6886
 4323SOL    HW317059   0.800   4.573   5.568 -0.0039  0.0070  0.4110
 4323SOL    MW417060   0.784   4.574   5.654  0.1367 -0.1073 -0.2551
 4324SOL     OW17061   6.232  -0.003   4.182 -0.1103 -0.1422 -0.3589
 4324SOL    HW217062   6.154  -0.046   4.147 -1.1893  1.6472 -0.2642
 4324SOL    HW317063   6.276   0.031   4.105  0.9079 -1.5862 -0.4615
 4324SOL    MW417064   6.227  -0.004   4.167  0.2046  0.2128  0.1062
 4325SOL     OW17065   2.315   2.153   5.624  0.3902  0.7595  0.4318
 4325SOL    HW217066   2.240   2.202   5.592 -0.0021 -0.5637 -0.8047
 4325SOL    HW317067   2.387   2.179   5.567 -0.5362 -2.3773 -2.5442
 4325SOL    MW417068   2.315   2.163   5.612  0.8239  0.5448  0.0147
 4326SOL     OW17069   2.197   4.165   0.702  0.1807 -0.1067  0.2496
 4326SOL    HW217070   2.253   4.088   0.698  0.9203  0.4784 -1.3650
 4326SOL    HW317071   2.194   4.197   0.612 -0.2066  1.6883  0.8702
 4326SOL    MW417072   2.204   4.159   0.690 -0.3246 -0.2542  0.4308
 4327SOL     OW17073   2.983   6.179   6.104  0.0124 -0.1792 -0.6992
 4327SOL    HW217074   2.984   6.258   6.158  2.2749  1.3422 -2.7490
 4327SOL    HW317075   3.070   6.142   6.113 -0.5810 -1.6779 -0.8698
 4327SOL    MW417076   2.994   6.185   6.112 -0.2544 -0.0638  0.0637
 4328SOL     OW17077   3.557   5.709   1.560 -0.7950  0.0927  0.2843
 4328SOL    HW217078   3.493   5.672   1.499 -0.5453 -1.0640  0.6872
 4328SOL    HW317079   3.642   5.681   1.525 -0.5702  0.6827  0.3533
 4328SOL    MW417080   3.560   5.700   1.547 -0.6232  0.3051 -0.3523
 4329SOL     OW17081   0.773   0.616   6.164 -0.1260  0.2442 -0.2183
 4329SOL    HW217082   0.755   0.594   6.256  1.3201  2.1809  0.5888
 4329SOL    HW317083   0.732   0.545   6.115  0.9296 -2.0756  1.9970
 4329SOL    MW417084   0.765   0.603   6.170  0.2988  0.2334  0.2260
 4330SOL     OW17085   3.183   1.407   1.951 -0.5377 -0.6733  0.9398
 4330SOL    HW217086   3.103   1.450   1.980 -0.5929 -2.1840  3.2644
 4330SOL    HW317087   3.167   1.314   1.964  0.5199 -1.2635 -1.5051
 4330SOL    MW417088   3.171   1.401   1.956 -0.1993  0.4649 -0.4686
 4331SOL     OW17089   0.033   5.911   3.120 -0.0885  0.6398 -0.3863
 4331SOL    HW217090   0.093   5.905   3.193  0.3126  0.3974 -0.7327
 4331SOL    HW317091   0.020   5.820   3.091  0.0384  0.7631 -0.8409
 4331SOL    MW417092   0.039   5.898   3.126  0.0033  0.1385 -0.0471
 4332SOL     OW17093   1.103   0.897   3.998 -0.6426 -0.0284 -0.1761
 4332SOL    HW217094   1.141   0.822   3.952  0.7096 -0.1301  1.0427
 4332SOL    HW317095   1.020   0.913   3.953 -1.1783 -2.5147 -0.2069
 4332SOL    MW417096   1.098   0.889   3.986  0.1275  0.4371  0.1284
 4333SOL     OW17097   6.254   4.053   3.729 -0.3621  0.0722 -0.1025
 4333SOL    HW217098   6.177   3.997   3.718 -0.2049 -0.2126  0.2375
 4333SOL    HW317099   6.224   4.140   3.704 -0.5753 -0.1851 -0.7760
 4333SOL    MW417100   6.240   4.057   3.724  0.4392 -0.4634  0.0227
 4334SOL     OW17101   3.227   4.925   2.230  0.2266  0.5856 -0.0146
 4334SOL    HW217102   3.163   4.911   2.301 -0.0572 -0.2973 -0.4286
 4334SOL    HW317103   3.177   4.970   2.162  0.4634  1.3112  0.2891
 4334SOL    MW417104   3.212   4.929   2.231 -0.8383  0.2395  0.2240
 4335SOL     OW17105   4.391   2.112   0.956 -0.1439  0.5601  0.2459
 4335SOL    HW217106   4.410   2.087   1.046 -0.3196 -1.6945 -0.2863
 4335SOL    HW317107   4.476   2.142   0.921  0.1826  0.3130  0.8209
 4335SOL    MW417108   4.405   2.112   0.963 -0.3199  0.0020 -0.2659
 4336SOL     OW17109   6.180   0.734   2.671  0.3739  0.1591  0.3924
 4336SOL    HW217110   6.190   0.693   2.585 -0.1805  1.2702 -0.2193
 4336SOL    HW317111   6.183   0.661   2.733 -1.6421 -0.9660 -0.7304
 4336SOL    MW417112   6.181   0.719   2.668 -0.3565  0.0291  0.1865
 4337SOL     OW17113   0.987   1.254   3.094 -0.4375 -0.1140 -0.6289
 4337SOL    HW217114   0.951   1.332   3.137 -2.1008 -1.4929  0.6152
 4337SOL    HW317115   0.911   1.200   3.074  0.6883 -1.5854 -1.1276
 4337SOL    MW417116   0.972   1.257   3.097  0.0111  0.1064  0.8146
 4338SOL     OW17117   5.739   5.314   5.150 -0.2910  0.1501  0.2585
 4338SOL    HW217118   5.775   5.244   5.095 -1.2405  0.3320 -0.6217
 4338SOL    HW317119   5.750   5.394   5.098  2.3286  1.0150  1.9155
 4338SOL    MW417120   5.745   5.315   5.136 -0.1921  0.2649 -0.3527
 4339SOL     OW17121   2.020   6.278   4.953 -0.3009 -0.7740 -0.4462
 4339SOL    HW217122   2.011   6.242   5.041 -1.0584 -0.4731 -0.3903
 4339SOL    HW317123   1.931   6.295   4.925  0.0125  1.2362 -0.3807
 4339SOL    MW417124   2.007   6.276   4.961 -0.4949 -0.1680 -0.6792
 4340SOL     OW17125   5.706   2.330   0.141  0.1126  0.4687  0.4625
 4340SOL    HW217126   5.637   2.309   0.077  0.7532 -1.0922  0.2263
 4340SOL    HW317127   5.664   2.319   0.226  0.2823 -1.5066  0.3397
 4340SOL    MW417128   5.691   2.326   0.144 -0.0934  0.2718 -0.3756
 4341SOL     OW17129   5.142   5.240   4.174  0.0903 -0.5781  0.5518
 4341SOL    HW217130   5.159   5.315   4.116 -2.6450  0.2955  0.7601
 4341SOL    HW317131   5.114   5.170   4.115  3.7924 -2.0136  0.2134
 4341SOL    MW417132   5.141   5.241   4.158  0.4005 -0.6707 -0.1286
 4342SOL     OW17133   1.918   5.250   3.443  0.5402  0.1030  0.0563
 4342SOL    HW217134   1.869   5.322   3.483  0.0555 -0.4052  0.3922
 4342SOL    HW317135   1.889   5.249   3.352  0.7958  0.5423 -0.0301
 4342SOL    MW417136   1.908   5.259   3.436  0.2559  0.4767 -0.7811
 4343SOL     OW17137   0.587   2.195   6.008  0.5393  0.0283 -0.3881
 4343SOL    HW217138   0.661   2.142   6.038  0.3404  0.0063  0.0761
 4343SOL    HW317139   0.529   2.132   5.965 -0.3850 -0.4114  1.4264
 4343SOL    MW417140   0.589   2.180   6.006  0.2406  0.0314 -0.1230
 4344SOL     OW17141   2.935   6.141   2.455 -0.1597  0.5620 -0.0844
 4344SOL    HW217142   2.923   6.082   2.529  0.4172 -0.5561 -0.8276
 4344SOL    HW317143   2.878   6.105   2.387  1.2707 -0.0422 -1.0188
 4344SOL    MW417144   2.926   6.128   2.455  0.1202  0.0320 -0.0584
 4345SOL     OW17145   6.327   5.488   2.484  0.0227  0.5103  0.0125
 4345SOL    HW217146   6.326   5.464   2.577 -1.6306  1.0930  0.1735
 4345SOL    HW317147   6.400   5.438   2.448 -0.8133 -1.6949  1.1275
 4345SOL    MW417148   6.337   5.478   2.492  0.0364  0.2377 -0.4525
 4346SOL     OW17149   5.627   5.934   5.922 -0.4666  0.1918  0.0304
 4346SOL    HW217150   5.718   5.958   5.904 -0.3873  0.5929  0.9277
 4346SOL    HW317151   5.595   5.898   5.839  0.6429 -0.3764 -0.1726
 4346SOL    MW417152   5.635   5.932   5.909 -0.0847  0.2649 -0.3032
 4347SOL     OW17153   4.341   1.057   1.173 -0.1537 -0.0364  0.5759
 4347SOL    HW217154   4.348   1.151   1.164  1.7313 -0.3292 -1.6108
 4347SOL    HW317155   4.386   1.037   1.255 -0.0660  0.8789  0.7556
 4347SOL    MW417156   4.348   1.066   1.183  0.0029  0.7589  0.2605
 4348SOL     OW17157   1.908   3.206   2.309 -0.5071 -0.4334  0.4443
 4348SOL    HW217158   1.850   3.132   2.326  0.5527 -1.5763 -0.6933
 4348SOL    HW317159   1.980   3.196   2.372  0.6632 -1.5895 -0.9828
 4348SOL    MW417160   1.910   3.195   2.319 -0.4219  0.2042  0.3663
 4349SOL     OW17161   6.011   2.347   4.661 -0.1063 -0.2498  0.6584
 4349SOL    HW217162   5.987   2.287   4.590  0.9077  0.4634 -0.3176
 4349SOL    HW317163   6.096   2.315   4.693  0.1113  0.2528  0.5987
 4349SOL    MW417164   6.019   2.335   4.656 -0.2099 -0.0618  0.0118
 4350SOL     OW17165   0.131   5.754   2.727 -0.7170  0.0101 -0.2696
 4350SOL    HW217166   0.218   5.720   2.749  0.3112  1.8095 -1.3220
 4350SOL    HW317167   0.072   5.709   2.788  0.9461 -1.1916  0.5415
 4350SOL    MW417168   0.135   5.744   2.738  0.7676 -0.7974  0.2056
 4351SOL     OW17169   1.265   1.441   1.493  0.1971 -0.3291 -0.1616
 4351SOL    HW217170   1.206   1.500   1.447 -0.8431 -0.8349  0.4975
 4351SOL    HW317171   1.242   1.450   1.585  1.4131 -0.2549  0.1568
 4351SOL    MW417172   1.255   1.450   1.499  0.0137 -0.0795  0.4002
 4352SOL     OW17173   3.736   0.305   3.792 -0.7744 -0.0773  0.1323
 4352SOL    HW217174   3.796   0.340   3.727  1.3565 -0.6428  1.6778
 4352SOL    HW317175   3.770   0.337   3.876 -1.8665 -1.4726  1.1724
 4352SOL    MW417176   3.748   0.314   3.795 -0.2490  0.0789  0.0897
 4353SOL     OW17177   4.382   4.953   2.672  0.5800 -0.0114  0.0201
 4353SOL    HW217178   4.476   4.942   2.661  0.5430 -0.4253  0.1177
 4353SOL    HW317179   4.343   4.893   2.609  0.3774  0.6825 -0.5395
 4353SOL    MW417180   4.389   4.944   2.662  1.5528  0.2400  0.2083
 4354SOL     OW17181   2.908   2.919   1.210  0.2153 -0.0549 -0.1620
 4354SOL    HW217182   2.911   2.918   1.306  0.5293  1.1961 -0.1387
 4354SOL    HW317183   2.849   2.992   1.189 -0.9703 -1.1986 -0.9266
 4354SOL    MW417184   2.901   2.929   1.220 -0.1999  0.2446  0.4390
 4355SOL     OW17185   2.901   4.999   1.300  0.0512  0.8131  0.1003
 4355SOL    HW217186   2.923   4.978   1.390  1.6077  1.7344 -0.0254
 4355SOL    HW317187   2.902   4.915   1.254  0.0127  0.4382  0.7814
 4355SOL    MW417188   2.904   4.985   1.306  0.0859 -0.3228  0.0616
 4356SOL     OW17189   0.080   3.572   3.655  0.3246 -0.0501 -0.0725
 4356SOL    HW217190   0.154   3.523   3.692 -0.5754 -0.5509  1.1627
 4356SOL    HW317191   0.061   3.639   3.720 -1.6085 -1.2494  0.7083
 4356SOL    MW417192   0.087   3.574   3.669  0.4458  0.2726 -0.0233
 4357SOL     OW17193   3.840   1.292   4.070 -0.8048 -0.5714 -0.7022
 4357SOL    HW217194   3.804   1.363   4.123 -0.7036  0.7595 -2.3664
 4357SOL    HW317195   3.767   1.231   4.059 -0.5389 -1.4570  1.8368
 4357SOL    MW417196   3.826   1.293   4.076  0.2234  0.3600  0.4473
 4358SOL     OW17197   1.137   0.773   5.346  0.1938  0.1746  0.1208
 4358SOL    HW217198   1.153   0.685   5.312  1.0456  1.6730 -4.0283
 4358SOL    HW317199   1.212   0.791   5.403  1.7201 -0.7122 -1.5106
 4358SOL    MW417200   1.149   0.764   5.349 -0.1772  0.0292  0.1799
 4359SOL     OW17201   1.121   5.931   3.439  0.4373 -0.0118  0.2344
 4359SOL    HW217202   1.185   5.991   3.476 -1.4264  2.3357 -0.1240
 4359SOL    HW317203   1.134   5.937   3.344  1.2267 -1.4157  0.2166
 4359SOL    MW417204   1.131   5.940   3.432  0.1058 -0.0716 -0.4730
 4360SOL     OW17205   2.655   0.470   5.888  0.1682 -0.0280 -0.4897
 4360SOL    HW217206   2.713   0.400   5.858  0.5220  0.3275 -0.6526
 4360SOL    HW317207   2.641   0.524   5.810 -1.9521 -1.1654 -0.9665
 4360SOL    MW417208   2.661   0.468   5.874  0.4054 -0.9029  0.5245
 4361SOL     OW17209   1.413   5.408   1.285 -0.6066  0.3091  0.0452
 4361SOL    HW217210   1.426   5.471   1.356 -1.8468  1.8984 -1.0619
 4361SOL    HW317211   1.449   5.326   1.318 -2.2930  0.6503  3.0208
 4361SOL    MW417212   1.420   5.406   1.298 -0.5924  0.0558  0.2236
 4362SOL     OW17213   1.390   2.201   6.360 -0.3704 -0.4397 -0.3833
 4362SOL    HW217214   1.355   2.258   6.429 -1.2444  0.1747 -1.3010
 4362SOL    HW317215   1.413   2.120   6.405  1.1093  0.6855  1.0091
 4362SOL    MW417216   1.388   2.198   6.375  0.7343  0.0742 -0.0234
 4363SOL     OW17217   6.037   3.553   2.418  0.2200 -0.6148 -0.7707
 4363SOL    HW217218   6.130   3.573   2.431  0.2116 -0.0358 -1.5537
 4363SOL    HW317219   6.011   3.605   2.342 -1.2738  0.9374  0.6860
 4363SOL    MW417220   6.046   3.563   2.410 -0.1974  0.2763 -0.0634
 4364SOL     OW17221   6.244   4.725   4.747  0.2438  0.4643 -0.1064
 4364SOL    HW217222   6.208   4.794   4.690 -0.0081  0.5696  0.1721
 4364SOL    HW317223   6.192   4.733   4.828  1.1085  0.8211  0.4234
 4364SOL    MW417224   6.232   4.735   4.750  0.5503  0.5664 -0.3492
 4365SOL     OW17225   0.150   2.437   4.526 -0.3540 -0.1581  0.0067
 4365SOL    HW217226   0.146   2.434   4.622 -1.2596  2.2051  0.1220
 4365SOL    HW317227   0.073   2.389   4.497 -0.6464 -0.0053  0.5115
 4365SOL    MW417228   0.139   2.431   4.535 -0.3368  0.4159  0.0736
 4366SOL     OW17229   0.950   0.067   4.065 -0.4144  0.2211 -0.7230
 4366SOL    HW217230   0.999   0.126   4.123 -1.5528 -1.0930  1.7530
 4366SOL    HW317231   0.970   0.098   3.977  1.1878  2.5587  0.3467
 4366SOL    MW417232   0.959   0.079   4.061 -0.1930  0.1941  0.2259
 4367SOL     OW17233   5.622   3.806   1.994 -0.3572 -0.1908  0.2928
 4367SOL    HW217234   5.611   3.743   2.065  0.8519  1.2309  1.8106
 4367SOL    HW317235   5.713   3.796   1.967 -0.2937  0.5365  0.2127
 4367SOL    MW417236   5.633   3.797   2.000  0.3410  0.1172  0.3777
 4368SOL     OW17237   3.008   6.151   5.115  0.4514 -0.0102 -0.1503
 4368SOL    HW217238   3.092   6.160   5.070  0.1946 -0.1985 -0.6708
 4368SOL    HW317239   2.976   6.240   5.123  0.2466 -0.0160 -0.8287
 4368SOL    MW417240   3.015   6.164   5.110 -0.0233  0.0668  0.0042
 4369SOL     OW17241   1.511   1.126   2.532 -0.2279  0.1305  0.0081
 4369SOL    HW217242   1.486   1.138   2.440 -1.5112 -2.7606 -0.1407
 4369SOL    HW317243   1.427   1.118   2.579  0.2909 -2.4829  0.6865
 4369SOL    MW417244   1.496   1.126   2.526 -0.2523 -0.3634 -0.2741
 4370SOL     OW17245   3.739   1.852   4.316 -0.2625 -0.0776 -0.4155
 4370SOL    HW217246   3.833   1.869   4.324  0.2723 -3.3404  2.1004
 4370SOL    HW317247   3.698   1.916   4.375  0.8189 -1.2381  1.6888
 4370SOL    MW417248   3.746   1.863   4.325 -0.1096  0.2505 -0.0629
 4371SOL     OW17249   4.876   3.473   5.844  0.0519  0.2676  0.3976
 4371SOL    HW217250   4.899   3.405   5.908  2.5802  1.0546  0.4376
 4371SOL    HW317251   4.918   3.552   5.878  0.1912  1.0388 -1.4852
 4371SOL    MW417252   4.884   3.474   5.857  0.3347  0.3966 -0.0164
 4372SOL     OW17253   0.024   5.152   4.002  0.0644  0.1977 -0.4653
 4372SOL    HW217254  -0.067   5.123   4.007  0.4896 -1.1658 -0.3922
 4372SOL    HW317255   0.055   5.150   4.092  0.9042 -1.8603 -0.7600
 4372SOL    MW417256   0.016   5.148   4.014 -0.4394 -0.5883 -0.1503
 4373SOL     OW17257   0.455   4.979   6.066  0.7282  0.1381  0.3647
 4373SOL    HW217258   0.458   4.940   5.979 -0.6938  0.3736  0.1780
 4373SOL    HW317259   0.386   4.930   6.111  1.2505  0.2139  1.2653
 4373SOL    MW417260   0.446   4.968   6.061 -0.0608 -0.5284  0.4422
 4374SOL     OW17261   6.421   0.705   2.295  0.2842  0.4211 -0.3557
 4374SOL    HW217262   6.473   0.643   2.243  0.4565  1.0994 -1.0099
 4374SOL    HW317263   6.486   0.758   2.342  0.1376  0.1121  0.2129
 4374SOL    MW417264   6.436   0.704   2.295 -0.3057  0.0830 -0.3763
 4375SOL     OW17265   3.512   6.049   2.969  0.5830  0.1408  0.7680
 4375SOL    HW217266   3.568   6.120   2.936 -1.4375  2.0353  1.1835
 4375SOL    HW317267   3.531   6.047   3.063  0.5608  0.2204  0.7749
 4375SOL    MW417268   3.522   6.058   2.977 -0.4021  0.5814 -0.1436
 4376SOL     OW17269   5.343   5.213   1.848  0.1561 -0.0136 -0.3584
 4376SOL    HW217270   5.344   5.131   1.799  0.1181 -0.2760  0.0681
 4376SOL    HW317271   5.424   5.212   1.900  0.8387  0.8581 -1.3637
 4376SOL    MW417272   5.354   5.202   1.849 -0.1365 -0.1943 -0.2269
 4377SOL     OW17273   5.067   4.105   1.031  0.7163 -0.2079 -0.0979
 4377SOL    HW217274   5.020   4.024   1.048  1.1145 -0.1153  1.7152
 4377SOL    HW317275   5.000   4.173   1.034  0.4390 -0.4137 -1.2435
 4377SOL    MW417276   5.052   4.103   1.034 -0.1258 -0.1157  0.0155
 4378SOL     OW17277   1.867   4.554   0.224  0.4533 -0.2039 -0.1240
 4378SOL    HW217278   1.794   4.613   0.208  1.3206  0.6199 -1.3014
 4378SOL    HW317279   1.936   4.586   0.165  1.8455 -0.7777  1.1419
 4378SOL    MW417280   1.867   4.566   0.214 -0.4014 -0.1477 -0.0171
 4379SOL     OW17281   3.383   6.134   1.127 -0.0905  0.0507  0.2496
 4379SOL    HW217282   3.315   6.066   1.117  0.3252  0.0408 -3.8260
 4379SOL    HW317283   3.344   6.213   1.089  1.1158  0.8831  0.6829
 4379SOL    MW417284   3.369   6.135   1.121 -0.5890 -0.5907 -0.4683
 4380SOL     OW17285   1.374   6.028   1.964 -0.2620  0.4112 -0.2041
 4380SOL    HW217286   1.397   6.061   1.877  0.7506  1.1274  0.3193
 4380SOL    HW317287   1.287   5.989   1.952 -0.4485  1.1245 -1.3857
 4380SOL    MW417288   1.366   6.028   1.951  0.3408 -0.0616  0.4732
 4381SOL     OW17289   3.945   6.360   0.922  0.0646  0.1318 -0.4896
 4381SOL    HW217290   3.989   6.309   0.854  1.3011 -0.8403  0.9854
 4381SOL    HW317291   3.966   6.315   1.004 -1.3269  1.3024  0.5686
 4381SOL    MW417292   3.954   6.348   0.924 -0.3881 -0.2848 -0.0322
 4382SOL     OW17293   2.390   6.049   0.913  0.2771  0.3037 -0.0676
 4382SOL    HW217294   2.378   5.954   0.920 -2.2014  0.5387 -0.2173
 4382SOL    HW317295   2.386   6.080   1.004 -1.5921  0.4746 -0.1729
 4382SOL    MW417296   2.388   6.041   0.926  0.2750 -0.0710 -0.7076
 4383SOL     OW17297   0.045   0.416   1.643 -0.7066 -0.0184  0.0640
 4383SOL    HW217298   0.020   0.483   1.580 -2.9235 -0.2059  0.6440
 4383SOL    HW317299   0.131   0.443   1.674 -1.7670  2.9483  0.7383
 4383SOL    MW417300   0.053   0.429   1.639  0.0128 -0.0381 -0.2337
 4384SOL     OW17301   3.521   0.467   5.433 -0.2664 -0.4640 -0.2331
 4384SOL    HW217302   3.438   0.463   5.385  0.5988  2.4820 -2.2045
 4384SOL    HW317303   3.584   0.425   5.376  0.1186 -0.1333 -0.0550
 4384SOL    MW417304   3.518   0.461   5.419 -0.1216 -0.6165  0.4831
 4385SOL     OW17305   1.786   5.043   4.164  0.0283  0.1304 -0.5731
 4385SOL    HW217306   1.808   5.054   4.257  1.7615  0.8400 -1.0227
 4385SOL    HW317307   1.779   4.948   4.153  2.6186 -0.1865 -0.2353
 4385SOL    MW417308   1.788   5.032   4.175 -0.7349  0.1466 -0.0223
 4386SOL     OW17309   3.324   3.071   1.028 -0.5652  0.1219  0.1778
 4386SOL    HW217310   3.265   3.126   0.977 -0.2386  0.9172  0.6414
 4386SOL    HW317311   3.411   3.089   0.992 -0.6454 -1.6917 -1.0905
 4386SOL    MW417312   3.328   3.080   1.016 -0.2658 -0.1937 -0.2794
 4387SOL     OW17313   0.197   3.647   1.556  0.4090  0.2894 -0.4925
 4387SOL    HW217314   0.167   3.632   1.646  0.6344 -1.8885 -0.7233
 4387SOL    HW317315   0.121   3.626   1.502  0.0291  2.3306 -0.8502
 4387SOL    MW417316   0.183   3.643   1.561  0.4347  0.2244  0.0538
 4388SOL     OW17317   6.064   5.087   3.859  0.1600  0.4029 -0.1774
 4388SOL    HW217318   6.077   5.038   3.778  0.9748  0.2233  0.0598
 4388SOL    HW317319   5.977   5.059   3.890 -0.8252  1.5996 -1.7502
 4388SOL    MW417320   6.054   5.077   3.853  0.1734  0.5602 -0.1396
 4389SOL     OW17321   4.783   2.009   4.244 -0.1036  0.1801 -0.2264
 4389SOL    HW217322   4.844   2.019   4.317  0.6393  0.6796 -0.8988
 4389SOL    HW317323   4.828   2.049   4.169 -1.4356  0.9463 -0.6501
 4389SOL    MW417324   4.797   2.015   4.244 -0.6234 -0.7679 -0.2778
 4390SOL     OW17325   3.436   1.755   3.212 -0.3708 -0.1879  0.1292
 4390SOL    HW217326   3.391   1.674   3.188 -2.0631  0.8841 -0.4626
 4390SOL    HW317327   3.488   1.777   3.135 -0.7637 -0.1442 -0.1252
 4390SOL    MW417328   3.437   1.747   3.199 -0.4080 -0.1748 -0.0140
 4391SOL     OW17329   0.671   3.033   5.910 -0.3756 -0.4779 -0.8511
 4391SOL    HW217330   0.635   3.118   5.886  0.5727  0.6240  1.2840
 4391SOL    HW317331   0.763   3.051   5.928  0.3550 -2.4160 -2.3659
 4391SOL    MW417332   0.678   3.047   5.909  0.0697 -0.3806 -0.2357
 4392SOL     OW17333   4.213   4.594   2.292  0.2538  0.1972  0.0278
 4392SOL    HW217334   4.269   4.517   2.290  1.5145  0.9770  1.8562
 4392SOL    HW317335   4.142   4.571   2.351 -0.0196  0.0482 -0.3548
 4392SOL    MW417336   4.211   4.581   2.299 -0.0179 -0.2013 -0.7709
 4393SOL     OW17337   2.444   5.166   5.910 -0.0875 -0.2749  0.3667
 4393SOL    HW217338   2.391   5.236   5.947  0.7709  1.1275 -0.9399
 4393SOL    HW317339   2.381   5.106   5.871 -0.7993  0.1220  0.8751
 4393SOL    MW417340   2.429   5.167   5.910  0.0470 -0.3157  0.7281
 4394SOL     OW17341   4.862   0.507   0.925 -0.7934 -0.0480 -0.6886
 4394SOL    HW217342   4.839   0.497   0.833  0.6748 -0.6553 -1.0189
 4394SOL    HW317343   4.873   0.417   0.957 -0.8847  0.1683 -0.0250
 4394SOL    MW417344   4.860   0.493   0.917 -0.2600  0.4632  0.1653
 4395SOL     OW17345   0.105   5.885   5.564 -0.4987  0.3339 -0.0037
 4395SOL    HW217346   0.161   5.872   5.640 -1.0028  1.4748  0.5723
 4395SOL    HW317347   0.027   5.832   5.582  0.5571 -1.7314 -1.0679
 4395SOL    MW417348   0.103   5.876   5.576  0.9423  0.3165 -0.1642
 4396SOL     OW17349   5.293   1.902   5.752 -0.1978  0.0541  0.0499
 4396SOL    HW217350   5.271   1.820   5.796  1.5110 -1.0627 -1.0365
 4396SOL    HW317351   5.240   1.968   5.796 -1.1402 -1.5209  1.4050
 4396SOL    MW417352   5.283   1.900   5.763 -0.5152 -0.9126 -0.1052
 4397SOL     OW17353   1.160   3.550   2.917 -0.0652 -0.3942  0.1023
 4397SOL    HW217354   1.189   3.635   2.883 -1.2349  0.1996  0.5339
 4397SOL    HW317355   1.228   3.489   2.890  0.9766  0.7388  0.0795
 4397SOL    MW417356   1.173   3.553   2.909 -0.4057 -0.1937  0.6346
 4398SOL     OW17357   1.089   1.169   4.390 -0.8734  0.2412  0.4549
 4398SOL    HW217358   1.078   1.257   4.354 -1.1946  0.2751  0.6262
 4398SOL    HW317359   1.064   1.178   4.482  0.5887  0.3069  0.8756
 4398SOL    MW417360   1.084   1.182   4.397 -0.1535  0.0953 -0.1418
 4399SOL     OW17361   3.689   2.364   6.293  0.2955  0.2924  0.5396
 4399SOL    HW217362   3.716   2.328   6.209 -0.3322 -2.0447  1.2721
 4399SOL    HW317363   3.593   2.370   6.288  0.1136 -1.2280  1.5437
 4399SOL    MW417364   3.680   2.360   6.282  0.2632 -0.0793  0.3061
 4400SOL     OW17365   5.748   6.134   2.765  0.6320  0.5504 -0.7260
 4400SOL    HW217366   5.792   6.073   2.706  1.5007  0.7913 -0.3488
 4400SOL    HW317367   5.773   6.221   2.732  1.5095  0.6875  0.2613
 4400SOL    MW417368   5.757   6.138   2.752 -0.1022 -0.0264  0.1196
 4401SOL     OW17369   0.617   6.188   6.220  0.0102 -0.1956  0.2432
 4401SOL    HW217370   0.614   6.107   6.170 -0.7333  0.1767 -0.3264
 4401SOL    HW317371   0.707   6.220   6.208 -0.4083  0.3904 -1.6959
 4401SOL    MW417372   0.628   6.182   6.212  0.6646 -0.6089 -0.5374
 4402SOL     OW17373   2.470   1.554   1.640 -0.3477  0.5591 -0.4040
 4402SOL    HW217374   2.469   1.519   1.551  0.1259  0.8724 -0.5390
 4402SOL    HW317375   2.414   1.632   1.636 -0.8706  0.1932 -0.2624
 4402SOL    MW417376   2.463   1.560   1.627  0.8972  0.7362 -0.3375
 4403SOL     OW17377   0.369   0.583   2.836  0.1548 -0.1911 -0.7940
 4403SOL    HW217378   0.281   0.616   2.855 -1.2446 -2.9948 -1.8136
 4403SOL    HW317379   0.387   0.613   2.747  0.2896  0.4687 -0.5493
 4403SOL    MW417380   0.359   0.591   2.827  0.0550  0.6895  0.4961
 4404SOL     OW17381   2.399   4.151   1.992  0.3345 -0.2228  0.0701
 4404SOL    HW217382   2.305   4.170   1.996  0.4012  0.2048 -0.2829
 4404SOL    HW317383   2.407   4.064   2.031 -0.2827 -0.4942 -0.3829
 4404SOL    MW417384   2.387   4.142   1.997 -0.0499 -0.4626  0.0709
 4405SOL     OW17385   5.792   3.713   1.122  0.2277  0.3319 -0.4345
 4405SOL    HW217386   5.699   3.721   1.141  0.3885  0.0173  0.5610
 4405SOL    HW317387   5.821   3.639   1.176  1.3796  1.4557  0.5452
 4405SOL    MW417388   5.783   3.704   1.132 -0.0624  0.4880  0.0111
 4406SOL     OW17389   5.786   1.994   1.888  0.1726  0.5776 -0.3461
 4406SOL    HW217390   5.817   1.970   1.800 -0.6713  0.0828 -0.5204
 4406SOL    HW317391   5.693   1.970   1.888  0.1815  0.4967  0.7155
 4406SOL    MW417392   5.778   1.987   1.876 -0.0631 -0.2548 -0.0861
 4407SOL     OW17393   2.047   1.325   5.395 -0.2665  0.1178  0.1083
 4407SOL    HW217394   1.986   1.351   5.326  0.4361  0.4387 -0.4059
 4407SOL    HW317395   1.995   1.271   5.453 -0.5153 -1.4423 -1.4829
 4407SOL    MW417396   2.032   1.322   5.393  0.2031 -0.1570  0.3174
 4408SOL     OW17397   5.988   5.811   1.177  0.2773 -0.3643 -0.0794
 4408SOL    HW217398   6.012   5.728   1.217 -1.8126 -0.4992  1.0534
 4408SOL    HW317399   5.912   5.789   1.122 -0.0742  0.7173 -0.0425
 4408SOL    MW417400   5.981   5.797   1.175  0.5037  0.1186 -0.2842
 4409SOL     OW17401   1.437   1.564   2.558  0.3135 -0.2657  0.8623
 4409SOL    HW217402   1.367   1.510   2.523  0.6573  0.3709 -0.9166
 4409SOL    HW317403   1.434   1.644   2.506  2.3094 -0.1893  0.7738
 4409SOL    MW417404   1.427   1.568   2.547 -0.9256 -0.2471 -0.0874
 4410SOL     OW17405   1.928   2.950   4.503  0.0505 -0.9974 -0.1976
 4410SOL    HW217406   1.857   2.891   4.527  0.5937 -1.1058  1.2941
 4410SOL    HW317407   1.942   3.004   4.581 -0.8104  1.5650 -1.6823
 4410SOL    MW417408   1.921   2.949   4.517 -0.3357  0.3625 -0.3559
 4411SOL     OW17409   1.096   5.923   0.934 -0.8937  0.5228  0.1214
 4411SOL    HW217410   1.034   5.920   0.862  0.1366 -0.1365 -0.7782
 4411SOL    HW317411   1.060   5.864   1.000 -1.4598  0.5358 -0.1721
 4411SOL    MW417412   1.083   5.915   0.933 -0.0162  0.0237 -0.1946
 4412SOL     OW17413   6.186   2.535   5.364  0.8133  0.3726  0.0218
 4412SOL    HW217414   6.240   2.512   5.288  1.0250  0.0768  0.2629
 4412SOL    HW317415   6.133   2.609   5.334  1.0572  0.3999 -0.3448
 4412SOL    MW417416   6.186   2.542   5.350 -0.0589  0.5774 -0.2841
 4413SOL     OW17417   2.451   6.275   0.318  0.1331  0.2796  0.1748
 4413SOL    HW217418   2.359   6.251   0.314  0.1427  0.3693 -0.8529
 4413SOL    HW317419   2.453   6.367   0.290  0.2972  0.9706  2.3135
 4413SOL    MW417420   2.439   6.284   0.314  0.2098  0.2774  0.5124
 4414SOL     OW17421   0.606   1.032   4.068 -0.5636 -0.1982  0.4764
 4414SOL    HW217422   0.549   1.075   4.004 -2.7312 -2.2731  0.8669
 4414SOL    HW317423   0.548   0.974   4.117  1.7466 -1.7659  1.5568
 4414SOL    MW417424   0.591   1.030   4.066  0.3280  0.1495  0.2613
 4415SOL     OW17425   5.013   3.396   1.478 -0.1448  0.0620 -0.2939
 4415SOL    HW217426   4.986   3.471   1.426 -0.6218  0.6485  0.7809
 4415SOL    HW317427   4.952   3.393   1.551 -0.2676 -1.5030 -0.4191
 4415SOL    MW417428   5.002   3.405   1.481  0.3139 -0.2215 -1.0857
 4416SOL     OW17429   0.288   3.272   6.013  0.5327  0.0098  0.3904
 4416SOL    HW217430   0.363   3.283   5.954 -0.5645  0.3924 -0.9952
 4416SOL    HW317431   0.247   3.359   6.014 -2.4021 -1.1374 -2.4781
 4416SOL    MW417432   0.292   3.285   6.005  0.4025  0.2955 -0.3014
 4417SOL     OW17433   6.154   2.385   2.672  0.3550  0.1298  0.0652
 4417SOL    HW217434   6.109   2.344   2.746 -1.4696 -2.9135 -2.4541
 4417SOL    HW317435   6.091   2.448   2.638 -0.5068 -1.2770 -1.0882
 4417SOL    MW417436   6.140   2.388   2.677 -0.2603 -0.3874  0.0172
 4418SOL     OW17437   0.977   3.486   4.722 -0.0190 -0.7590  0.0635
 4418SOL    HW217438   1.058   3.436   4.710  0.0072 -1.0170  1.1595
 4418SOL    HW317439   0.955   3.473   4.815 -0.9966 -0.2115 -0.0799
 4418SOL    MW417440   0.985   3.477   4.733 -0.2961 -0.1338  0.0358
 4419SOL     OW17441   5.967   6.356   4.085 -0.4173 -0.0483 -0.1249
 4419SOL    HW217442   5.872   6.343   4.081 -0.1221 -3.8428  1.5548
 4419SOL    HW317443   5.999   6.324   4.001 -0.5516  0.3640 -0.3337
 4419SOL    MW417444   5.959   6.350   4.073  0.2170  0.2336 -0.0579
 4420SOL     OW17445   2.658   0.918   1.045 -0.1815  0.8749  0.3072
 4420SOL    HW217446   2.689   0.828   1.058 -0.1246  0.6903 -0.9289
 4420SOL    HW317447   2.638   0.950   1.133 -1.8306 -0.9285  0.6569
 4420SOL    MW417448   2.659   0.910   1.058 -0.0842  0.0004 -0.5999
 4421SOL     OW17449   0.280   3.613   2.424  0.3808  0.4642  0.2230
 4421SOL    HW217450   0.238   3.677   2.482  0.2168 -1.4813  2.4020
 4421SOL    HW317451   0.236   3.530   2.444  1.4825 -0.6112 -1.5328
 4421SOL    MW417452   0.269   3.610   2.434  0.2014 -0.4437 -0.4882
 4422SOL     OW17453   2.084   0.867   4.842  0.4283 -0.4982 -0.2234
 4422SOL    HW217454   2.002   0.890   4.798  0.7920  3.5689  0.8392
 4422SOL    HW317455   2.152   0.906   4.788  1.2531  0.1227  1.2004
 4422SOL    MW417456   2.082   0.875   4.829  0.7145 -0.1296  0.3844
 4423SOL     OW17457   0.498   5.922   0.562 -0.1992 -0.2136 -0.0069
 4423SOL    HW217458   0.555   5.994   0.535 -1.5595  0.0004 -2.7160
 4423SOL    HW317459   0.410   5.952   0.539 -1.0002 -1.9984  0.5462
 4423SOL    MW417460   0.494   5.936   0.555 -0.5347  0.5786  0.4688
 4424SOL     OW17461   2.408   2.992   2.634  0.4173  0.1967 -0.5929
 4424SOL    HW217462   2.324   2.992   2.680  0.3234 -0.2655 -0.7588
 4424SOL    HW317463   2.465   2.938   2.689  0.2284 -0.5822 -1.1423
 4424SOL    MW417464   2.404   2.985   2.647  0.2753 -0.1495 -0.3644
 4425SOL     OW17465   4.929   6.025   2.390 -0.5820  0.6334  0.3586
 4425SOL    HW217466   4.941   6.066   2.475 -1.8880  2.0080 -0.0892
 4425SOL    HW317467   4.983   6.077   2.331 -1.3073  0.9894 -0.0033
 4425SOL    MW417468   4.938   6.037   2.393  0.1198 -0.5671 -0.0146
 4426SOL     OW17469   5.535   1.553   2.438 -0.4717  0.5023 -0.2717
 4426SOL    HW217470   5.582   1.591   2.364 -1.3794 -0.9399 -1.6733
 4426SOL    HW317471   5.456   1.517   2.399 -1.1937  0.0851  1.5038
 4426SOL    MW417472   5.531   1.553   2.423 -0.1194  0.2772 -0.0153
 4427SOL     OW17473   4.394   2.906   5.377  0.5883  0.3781  0.3614
 4427SOL    HW217474   4.372   2.969   5.445  3.1225 -0.2205  1.8724
 4427SOL    HW317475   4.455   2.953   5.319  1.6730 -0.3176  0.9051
 4427SOL    MW417476   4.399   2.920   5.378  0.1026  0.1180  0.2692
 4428SOL     OW17477   4.506   3.140   3.258  0.1142  0.0014 -0.5267
 4428SOL    HW217478   4.525   3.118   3.167  1.3661  0.9563 -0.5098
 4428SOL    HW317479   4.591   3.149   3.300 -0.4201  0.8921  0.4235
 4428SOL    MW417480   4.519   3.138   3.251  0.6841  0.0468  0.1235
 4429SOL     OW17481   2.535   5.105   6.184  0.7437  0.1490 -0.0312
 4429SOL    HW217482   2.463   5.072   6.237  0.6340  1.3616  0.6187
 4429SOL    HW317483   2.494   5.138   6.104  0.4370  1.7038  0.7434
 4429SOL    MW417484   2.520   5.105   6.180 -0.8835  0.0599  0.0516
 4430SOL     OW17485   1.400   1.151   5.875  0.3764 -0.6319  0.2066
 4430SOL    HW217486   1.489   1.153   5.910  0.1713 -1.3838  0.8019
 4430SOL    HW317487   1.362   1.070   5.910 -0.2578 -0.7652 -0.7413
 4430SOL    MW417488   1.407   1.140   5.884 -0.3771 -0.6500 -0.4156
 4431SOL     OW17489   5.789   5.162   5.602 -0.0181  0.4054  0.2371
 4431SOL    HW217490   5.835   5.217   5.540 -2.1563  1.5336 -0.4282
 4431SOL    HW317491   5.813   5.198   5.688  0.5392  0.7739 -0.0636
 4431SOL    MW417492   5.799   5.174   5.605  0.4014 -0.1988  0.8523
 4432SOL     OW17493   5.442   2.685   2.494 -0.4376 -0.3951 -0.2836
 4432SOL    HW217494   5.466   2.760   2.439  2.4585 -1.0965 -0.1370
 4432SOL    HW317495   5.419   2.723   2.579 -0.7648  0.4102 -0.7198
 4432SOL    MW417496   5.442   2.700   2.498 -0.2060 -0.1072  0.7957
 4433SOL     OW17497   1.812   3.677   5.858  0.6096 -0.3616 -0.1513
 4433SOL    HW217498   1.739   3.738   5.872  0.7966 -0.2403  0.3217
 4433SOL    HW317499   1.850   3.665   5.946  1.4031 -0.1141 -0.4477
 4433SOL    MW417500   1.807   3.684   5.872  0.2830 -0.2844 -0.2021
 4434SOL     OW17501   3.245   5.683   5.030  0.2935  0.2258  0.8279
 4434SOL    HW217502   3.181   5.618   5.000 -1.4212  0.7946  2.9324
 4434SOL    HW317503   3.232   5.757   4.972  0.4831 -0.4000 -0.0308
 4434SOL    MW417504   3.235   5.684   5.019 -0.4894  0.6416 -0.2885
 4435SOL     OW17505   0.935   0.083   6.412 -0.6921 -0.1960  0.7580
 4435SOL    HW217506   0.977   0.152   6.361 -0.0213 -0.8100  0.4848
 4435SOL    HW317507   0.849   0.120   6.434 -1.0731 -0.0040 -0.9613
 4435SOL    MW417508   0.929   0.097   6.408 -0.4705 -0.2308 -0.1633
 4436SOL     OW17509   4.570   0.030   5.359 -0.2080  0.0232  0.4039
 4436SOL    HW217510   4.541   0.033   5.268 -0.6354 -1.6541  0.4554
 4436SOL    HW317511   4.582  -0.063   5.378  0.2956  0.3644  1.9347
 4436SOL    MW417512   4.568   0.018   5.350 -0.0202 -0.7220 -0.4407
 4437SOL     OW17513   5.018   5.757   2.329  0.1830  0.2170  0.4130
 4437SOL    HW217514   4.996   5.849   2.347 -1.6613 -0.2672  0.8295
 4437SOL    HW317515   4.993   5.743   2.238 -1.5074 -0.3675  0.9226
 4437SOL    MW417516   5.012   5.767   2.320 -0.1486 -0.0924  0.2305
 4438SOL     OW17517   2.779   0.221   6.308  0.1393  0.0519 -0.3355
 4438SOL    HW217518   2.797   0.295   6.250  0.6229 -0.5919 -1.0405
 4438SOL    HW317519   2.723   0.256   6.377  0.4316  1.0826 -0.6137
 4438SOL    MW417520   2.774   0.235   6.309  0.3591 -0.2296 -0.7876
 4439SOL     OW17521   2.533   2.253   6.161  0.4980 -0.7576  0.0056
 4439SOL    HW217522   2.519   2.165   6.195 -1.2042 -2.0711 -3.6128
 4439SOL    HW317523   2.604   2.243   6.097  3.1127  1.4521  2.2369
 4439SOL    MW417524   2.541   2.240   6.157 -0.3918 -0.6835 -0.0874
 4440SOL     OW17525   0.321   2.902   4.956  0.1961 -0.0838  0.4939
 4440SOL    HW217526   0.275   2.929   5.035 -0.1490 -1.2986  0.7248
 4440SOL    HW317527   0.258   2.915   4.885  1.3429  3.6074 -0.0909
 4440SOL    MW417528   0.307   2.908   4.957  0.1098  0.4498 -0.0170
 4441SOL     OW17529   6.028   2.645   1.902 -0.6079 -0.3267  0.3322
 4441SOL    HW217530   5.957   2.587   1.877 -0.2116 -0.3653 -0.7617
 4441SOL    HW317531   6.097   2.587   1.935 -0.1498 -0.5091 -0.9100
 4441SOL    MW417532   6.028   2.630   1.903  0.5064 -0.2387  0.2793
 4442SOL     OW17533   3.528   1.979   0.437  0.1166  0.8579  0.0247
 4442SOL    HW217534   3.566   2.050   0.490 -0.7603  0.5538  1.0828
 4442SOL    HW317535   3.464   1.938   0.494 -0.3975  0.1009 -1.0719
 4442SOL    MW417536   3.525   1.983   0.452 -0.0776 -0.4142 -0.7880
 4443SOL     OW17537   4.427   5.437   0.026 -0.9234 -0.2974 -0.4449
 4443SOL    HW217538   4.340   5.472   0.044 -0.3555  0.1555  1.7097
 4443SOL    HW317539   4.416   5.342   0.028 -1.2522 -0.2504  0.5898
 4443SOL    MW417540   4.414   5.429   0.029 -0.0799  0.2389 -0.1834
 4444SOL     OW17541   4.724   1.610   4.959 -0.2187  0.1764 -0.2406
 4444SOL    HW217542   4.739   1.703   4.946  0.8440  0.2457  1.2343
 4444SOL    HW317543   4.768   1.568   4.885  1.5245  0.7510  0.4140
 4444SOL    MW417544   4.732   1.617   4.947 -0.7877 -0.4592  0.7875
 4445SOL     OW17545   4.585   3.077   5.220  0.1182  0.1443 -0.2640
 4445SOL    HW217546   4.552   3.143   5.281  1.2507  2.3641 -1.9193
 4445SOL    HW317547   4.676   3.064   5.245 -0.4931 -2.1545  1.0867
 4445SOL    MW417548   4.593   3.084   5.232  0.6317  0.5108 -0.2470
 4446SOL     OW17549   4.543   3.658   1.708  0.8825 -0.0223 -0.1426
 4446SOL    HW217550   4.622   3.650   1.762  0.9241  1.0685 -0.0089
 4446SOL    HW317551   4.491   3.581   1.729  2.1694 -1.0789 -0.6666
 4446SOL    MW417552   4.547   3.647   1.718  0.4066 -0.2226 -0.1128
 4447SOL     OW17553   1.215   2.235   1.628  0.0520 -0.0538 -0.1731
 4447SOL    HW217554   1.189   2.149   1.596  0.4263 -0.1679 -0.1777
 4447SOL    HW317555   1.250   2.219   1.715 -0.9144  0.2488  0.2872
 4447SOL    MW417556   1.216   2.222   1.635 -0.0803  0.3809  0.0145
 4448SOL     OW17557   3.871   2.314   5.086 -0.1121  0.2447 -0.1907
 4448SOL    HW217558   3.808   2.386   5.088 -1.6146 -0.9984  0.1016
 4448SOL    HW317559   3.823   2.240   5.124  0.9311 -1.2213 -1.5877
 4448SOL    MW417560   3.856   2.314   5.091  0.4750 -0.4443 -0.5043
 4449SOL     OW17561   3.793   0.123   2.119  0.2774 -0.1402  0.6626
 4449SOL    HW217562   3.812   0.159   2.033  0.9647 -0.5034  0.6598
 4449SOL    HW317563   3.784   0.029   2.105  0.8568 -0.2576  1.0624
 4449SOL    MW417564   3.794   0.116   2.106  0.1786  0.0177 -0.2138
 4450SOL     OW17565   2.613   4.672   3.086 -0.5080 -0.3881 -0.4076
 4450SOL    HW217566   2.639   4.760   3.056 -0.3430 -0.0430  0.7134
 4450SOL    HW317567   2.542   4.688   3.147 -1.9063 -1.1995 -1.7699
 4450SOL    MW417568   2.607   4.686   3.090  0.3040 -0.3752  0.7170
 4451SOL     OW17569   0.859   0.793   1.872 -0.3972  0.0025  0.6841
 4451SOL    HW217570   0.809   0.796   1.953  0.1460  0.2718  1.0141
 4451SOL    HW317571   0.816   0.726   1.820 -1.9286  1.1364  0.4131
 4451SOL    MW417572   0.847   0.785   1.876 -0.0073 -0.5326  0.1211
 4452SOL     OW17573   2.742   4.019   5.359 -0.0089 -0.0908 -0.3441
 4452SOL    HW217574   2.790   4.101   5.351  0.6937 -0.5718 -1.2116
 4452SOL    HW317575   2.686   4.031   5.436 -0.1302  1.2985 -0.6385
 4452SOL    MW417576   2.741   4.031   5.368  0.2720  0.5523 -0.5496
 4453SOL     OW17577   0.544   0.800   0.502 -0.3558  1.1306  0.4630
 4453SOL    HW217578   0.502   0.847   0.430 -1.0363 -0.5572 -0.2892
 4453SOL    HW317579   0.610   0.745   0.460 -1.2356 -0.4061  0.9964
 4453SOL    MW417580   0.547   0.799   0.487 -0.7670  0.0877 -0.1881
 4454SOL     OW17581   3.000   3.495   1.887  0.1020  0.2366  0.0356
 4454SOL    HW217582   2.957   3.517   1.969  0.0656  0.1988  0.0266
 4454SOL    HW317583   2.943   3.533   1.819 -0.1012 -0.1121  0.0079
 4454SOL    MW417584   2.987   3.503   1.889 -1.0399  0.4584  0.2897
 4455SOL     OW17585   5.267   3.853   5.883  0.3980 -0.2290 -0.6639
 4455SOL    HW217586   5.354   3.815   5.894  1.2614  1.7466 -0.2274
 4455SOL    HW317587   5.276   3.915   5.811 -0.2790  0.9160  0.1852
 4455SOL    MW417588   5.280   3.856   5.875 -0.0832 -0.2322 -0.1124
 4456SOL     OW17589   4.103   5.800   5.596  0.2079 -0.2275  0.4615
 4456SOL    HW217590   4.085   5.753   5.677  1.3975 -1.3410  0.1093
 4456SOL    HW317591   4.195   5.827   5.603 -0.7385  3.3740  1.2699
 4456SOL    MW417592   4.113   5.798   5.607 -0.5569 -0.2684 -0.1352
 4457SOL     OW17593   2.125   0.406   3.347 -0.2758 -0.0586 -0.3057
 4457SOL    HW217594   2.198   0.445   3.300  0.6793 -1.8915 -0.4293
 4457SOL    HW317595   2.136   0.437   3.438 -0.2633  0.8922 -0.6146
 4457SOL    MW417596   2.136   0.416   3.353 -0.3059  0.1443  0.4155
 4458SOL     OW17597   5.095   5.840   6.310 -0.2346 -0.3252  0.1060
 4458SOL    HW217598   5.128   5.779   6.375  1.2063 -0.1753 -0.4580
 4458SOL    HW317599   5.114   5.927   6.346 -0.6792 -0.2202  0.0981
 4458SOL    MW417600   5.102   5.844   6.323 -0.3188 -0.2302 -0.2549
 4459SOL     OW17601   5.027   5.293   1.365 -0.9256 -0.3444  0.0563
 4459SOL    HW217602   4.970   5.246   1.425  1.0863 -2.7401  0.2669
 4459SOL    HW317603   5.024   5.384   1.395 -2.2212 -0.9382  1.9220
 4459SOL    MW417604   5.019   5.299   1.377 -0.3669  0.5426 -0.5188
 4460SOL     OW17605   3.469   5.259   2.259 -0.0551  0.4053 -0.5296
 4460SOL    HW217606   3.481   5.352   2.278  2.7897  0.0550 -0.1161
 4460SOL    HW317607   3.411   5.228   2.329  0.3662  1.5343  0.3673
 4460SOL    MW417608   3.463   5.267   2.271  0.1688  0.1423 -0.3963
 4461SOL     OW17609   1.527   3.210   2.843  0.1348 -0.4167  0.5639
 4461SOL    HW217610   1.571   3.253   2.769  0.0114 -0.1391  0.6504
 4461SOL    HW317611   1.566   3.123   2.847 -0.1462 -0.5822 -0.0898
 4461SOL    MW417612   1.538   3.204   2.834 -0.9071  0.4459 -0.6790
 4462SOL     OW17613   5.738   0.580   2.368  0.4271  0.2930 -0.4958
 4462SOL    HW217614   5.652   0.593   2.328  0.2370  0.8247  0.0601
 4462SOL    HW317615   5.797   0.636   2.317  0.2835  0.5701 -0.3600
 4462SOL    MW417616   5.735   0.589   2.356 -0.2954 -0.1990 -0.5491
 4463SOL     OW17617   5.423   3.808   3.600 -0.6056 -0.5116 -0.0658
 4463SOL    HW217618   5.486   3.739   3.619 -0.8803 -0.3519  1.5011
 4463SOL    HW317619   5.349   3.763   3.559  0.5102 -0.6855 -2.0468
 4463SOL    MW417620   5.421   3.793   3.597  0.5035  0.1813  0.5121
 4464SOL     OW17621   2.004   3.842   5.025  0.2923 -0.3113 -0.5592
 4464SOL    HW217622   2.082   3.812   4.977  1.4932  2.0387 -0.2250
 4464SOL    HW317623   1.993   3.933   4.998 -0.5771  0.2841  1.6123
 4464SOL    MW417624   2.013   3.850   5.015 -0.2754  0.5515  0.6595
 4465SOL     OW17625   1.429   4.967   2.846 -0.5178  0.0951 -0.0639
 4465SOL    HW217626   1.492   5.007   2.906 -2.4002  1.4153  1.1074
 4465SOL    HW317627   1.357   4.939   2.902 -2.3135  1.3091 -1.6632
 4465SOL    MW417628   1.428   4.969   2.862  0.2141  0.2950 -0.4745
 4466SOL     OW17629   3.894   6.279   4.804 -0.2599 -0.0974  0.0310
 4466SOL    HW217630   3.813   6.322   4.831 -0.2066  1.3705 -1.9225
 4466SOL    HW317631   3.865   6.209   4.745 -0.1287  1.4894 -2.0307
 4466SOL    MW417632   3.879   6.275   4.800 -0.4940  0.1037  0.2010
 4467SOL     OW17633   1.789   3.933   0.405 -1.0227  0.3101 -0.0860
 4467SOL    HW217634   1.745   4.012   0.434 -0.9783  0.0943  0.5835
 4467SOL    HW317635   1.881   3.957   0.399 -1.0622  0.4163 -0.2642
 4467SOL    MW417636   1.795   3.946   0.408  0.2337  0.3322 -0.4106
 4468SOL     OW17637   1.322   0.899   1.664  1.0365  0.7116 -0.0022
 4468SOL    HW217638   1.247   0.881   1.607  0.7812  0.6231  0.3590
 4468SOL    HW317639   1.308   0.843   1.741  1.3739  0.8368  0.1519
 4468SOL    MW417640   1.310   0.889   1.667 -1.0518 -0.0534  0.3823
 4469SOL     OW17641   1.491   0.999   3.307  0.2343  0.1386  0.2105
 4469SOL    HW217642   1.471   1.088   3.337 -1.9901 -0.3636  0.3380
 4469SOL    HW317643   1.474   0.944   3.383  2.0138 -0.4150  0.2650
 4469SOL    MW417644   1.486   1.004   3.321  0.4365 -0.5050 -0.6318
 4470SOL     OW17645   5.713   2.764   2.919 -0.3004  0.2215  0.1882
 4470SOL    HW217646   5.666   2.812   2.851  1.2725  0.8722 -0.4850
 4470SOL    HW317647   5.644   2.727   2.974 -1.5941  0.7484 -1.0142
 4470SOL    MW417648   5.697   2.765   2.917 -0.2178 -0.9994  0.1411
 4471SOL     OW17649   5.494   3.049   3.021 -0.3720 -0.1115 -0.1758
 4471SOL    HW217650   5.519   3.018   3.108  1.2270 -0.9943 -0.9105
 4471SOL    HW317651   5.398   3.051   3.023 -0.3812 -0.7613  1.3838
 4471SOL    MW417652   5.485   3.045   3.033  0.0763 -0.5954  0.1227
 4472SOL     OW17653   6.038   6.086   1.207  0.2500 -0.1239 -0.0209
 4472SOL    HW217654   6.026   5.991   1.207 -0.4452 -0.0573 -0.9522
 4472SOL    HW317655   6.133   6.098   1.206  0.4068 -0.8860 -2.8817
 4472SOL    MW417656   6.049   6.075   1.207 -0.4388  0.2467 -0.5766
 4473SOL     OW17657   0.245   2.141   4.755  0.0543  0.2639 -0.1289
 4473SOL    HW217658   0.205   2.087   4.687  1.3900 -0.7195 -0.1768
 4473SOL    HW317659   0.223   2.096   4.837 -1.5689  1.4565  0.1257
 4473SOL    MW417660   0.237   2.128   4.757 -0.4990  0.3981  0.4391
 4474SOL     OW17661   3.589   1.214   1.903  0.0076  0.2600  0.6706
 4474SOL    HW217662   3.567   1.253   1.988 -0.0336  0.5881  0.5096
 4474SOL    HW317663   3.544   1.268   1.839  0.6066  0.4409  0.3897
 4474SOL    MW417664   3.580   1.226   1.906 -0.4843  0.1426 -0.2182
 4475SOL     OW17665   5.221   5.449   3.983 -0.0888  0.7226 -0.1800
 4475SOL    HW217666   5.311   5.470   4.008 -0.7700  1.2043  2.1334
 4475SOL    HW317667   5.169   5.523   4.015 -1.5508 -0.5610  0.5607
 4475SOL    MW417668   5.226   5.461   3.990 -0.5144 -0.6663  0.4257
 4476SOL     OW17669   4.897   4.130   2.610  0.7491  0.6285 -0.3924
 4476SOL    HW217670   4.861   4.211   2.644 -2.1325  0.4359 -2.5498
 4476SOL    HW317671   4.820   4.076   2.590  2.4982 -2.0775 -0.3667
 4476SOL    MW417672   4.882   4.133   2.612  0.6620 -0.1245 -0.1576
 4477SOL     OW17673   5.309   5.640   6.005 -0.3301 -0.0708  0.1896
 4477SOL    HW217674   5.295   5.716   6.061 -0.7519 -0.6989  0.9464
 4477SOL    HW317675   5.397   5.654   5.968 -0.3242  0.6796  0.4646
 4477SOL    MW417676   5.319   5.652   6.007 -0.3492 -0.3048 -0.5212
 4478SOL     OW17677   6.149   5.503   4.386  0.5606  0.4402 -0.2453
 4478SOL    HW217678   6.154   5.567   4.456 -0.4767 -1.1202  1.3193
 4478SOL    HW317679   6.056   5.497   4.365  0.8379  0.7837 -1.6933
 4478SOL    MW417680   6.138   5.511   4.392 -0.0766  0.3425  0.1276
 4479SOL     OW17681   5.541   1.103   4.472 -0.3516 -0.5160 -0.2922
 4479SOL    HW217682   5.461   1.140   4.509 -0.1076  1.0482 -1.2459
 4479SOL    HW317683   5.610   1.128   4.533 -0.3935 -0.6982 -0.1685
 4479SOL    MW417684   5.539   1.111   4.485 -0.2248 -0.1275 -0.8262
 4480SOL     OW17685   3.576   1.417   0.082  0.0392 -0.6050  0.2730
 4480SOL    HW217686   3.624   1.483   0.033  0.7925 -0.5652  1.0461
 4480SOL    HW317687   3.632   1.340   0.081  0.4151 -0.3844  1.6718
 4480SOL    MW417688   3.589   1.415   0.075  0.4861 -0.1984  0.9301
 4481SOL     OW17689   2.802   4.436   5.176  0.1612  0.1656 -0.5608
 4481SOL    HW217690   2.885   4.454   5.132  0.1276  0.5261 -0.4837
 4481SOL    HW317691   2.790   4.512   5.234  1.3629 -1.3446  1.8147
 4481SOL    MW417692   2.811   4.449   5.178 -0.0712  0.1886  0.1275
 4482SOL     OW17693   6.324   1.053   0.448 -0.3953  0.1041  0.0069
 4482SOL    HW217694   6.233   1.074   0.428 -0.4388 -1.2703 -1.4849
 4482SOL    HW317695   6.320   0.986   0.516 -0.4627  0.4156  0.3145
 4482SOL    MW417696   6.311   1.047   0.454 -0.2029  0.0291 -0.3611
 4483SOL     OW17697   4.700   0.444   2.354 -0.5112  0.7046  0.5087
 4483SOL    HW217698   4.751   0.395   2.290 -1.4351  0.9302 -0.4388
 4483SOL    HW317699   4.758   0.455   2.429  0.8861  1.1269 -0.6016
 4483SOL    MW417700   4.714   0.439   2.356 -0.0402 -0.0990 -0.4339
 4484SOL     OW17701   4.449   3.910   6.023 -0.3023  0.3489 -0.9088
 4484SOL    HW217702   4.355   3.903   6.042 -0.0091  0.1267  0.5710
 4484SOL    HW317703   4.485   3.826   6.049  0.6187  1.1700  0.6497
 4484SOL    MW417704   4.441   3.898   6.029  0.1030 -0.1924  0.0069
 4485SOL     OW17705   5.473   5.594   0.684 -0.3203  0.0043 -0.5240
 4485SOL    HW217706   5.402   5.651   0.657 -0.6814 -0.0994  0.2118
 4485SOL    HW317707   5.436   5.539   0.752  0.4955  0.0221 -0.0541
 4485SOL    MW417708   5.459   5.594   0.689 -0.6943  0.8397  0.1056
 4486SOL     OW17709   3.028   0.546   2.430  0.9731  0.5443 -0.1601
 4486SOL    HW217710   2.938   0.540   2.400  0.7713 -0.9211  0.6565
 4486SOL    HW317711   3.039   0.638   2.454  0.6549  1.4084 -3.0244
 4486SOL    MW417712   3.017   0.558   2.429 -0.4788  0.3585  0.0237
 4487SOL     OW17713   4.586   0.740   4.043 -0.9249  0.3665 -0.2812
 4487SOL    HW217714   4.491   0.730   4.042 -0.7503 -1.5758 -0.4093
 4487SOL    HW317715   4.610   0.737   4.136 -0.7699 -2.1154 -0.3395
 4487SOL    MW417716   4.577   0.739   4.055  0.2452  0.0711 -0.3280
 4488SOL     OW17717   1.965   4.726   1.388  0.5336 -0.1123  0.6256
 4488SOL    HW217718   1.938   4.749   1.299 -0.0764  1.5577  1.1994
 4488SOL    HW317719   1.885   4.696   1.430  0.5321  0.4131  1.0011
 4488SOL    MW417720   1.951   4.725   1.382 -0.1914 -0.5919 -0.6492
 4489SOL     OW17721   2.164   5.306   3.307 -0.0511  0.3690 -0.5386
 4489SOL    HW217722   2.185   5.222   3.264 -0.2712  0.0421 -0.0189
 4489SOL    HW317723   2.089   5.285   3.363 -0.4646  1.0501 -0.8322
 4489SOL    MW417724   2.157   5.292   3.309 -0.0316  0.3047 -0.6281
 4490SOL     OW17725   2.975   3.004   6.012 -0.3685 -0.3346 -0.6652
 4490SOL    HW217726   2.915   3.061   6.061 -0.0509  0.0513 -0.7111
 4490SOL    HW317727   3.062   3.040   6.031 -0.1913 -0.5921 -0.9802
 4490SOL    MW417728   2.978   3.017   6.021 -0.2887  0.3189 -0.7740
 4491SOL     OW17729   6.055   1.343   2.273  0.0424  0.3090 -0.2948
 4491SOL    HW217730   6.097   1.266   2.235 -0.7613 -0.9065  1.1591
 4491SOL    HW317731   5.974   1.310   2.312 -0.3558  1.9054  0.3245
 4491SOL    MW417732   6.050   1.328   2.273  0.0714 -0.5959 -0.2015
 4492SOL     OW17733   1.113   3.089   2.670 -0.0264 -0.2912 -0.2179
 4492SOL    HW217734   1.166   3.013   2.650  0.3809 -0.4422  1.2916
 4492SOL    HW317735   1.039   3.054   2.721 -0.4136  0.1964 -0.4302
 4492SOL    MW417736   1.110   3.074   2.674 -0.0064 -0.0345 -0.1402
 4493SOL     OW17737   3.774   4.358   0.870 -0.1836 -0.0649  0.0931
 4493SOL    HW217738   3.834   4.338   0.942 -0.6546 -2.5548 -0.1020
 4493SOL    HW317739   3.817   4.428   0.821  1.8271 -0.7114  0.8420
 4493SOL    MW417740   3.788   4.365   0.873 -0.0525 -0.3981  0.3388
 4494SOL     OW17741   2.639   4.324   4.562  0.0189 -0.6216  0.1950
 4494SOL    HW217742   2.577   4.252   4.569 -0.7724  0.1202  1.0172
 4494SOL    HW317743   2.598   4.386   4.501  0.5666 -0.7323 -0.2939
 4494SOL    MW417744   2.626   4.323   4.555  0.3724 -0.1981  0.2397
 4495SOL     OW17745   4.393   0.296   5.324 -0.3210  0.7346 -0.0846
 4495SOL    HW217746   4.441   0.240   5.263 -0.9113  0.8656 -0.6808
 4495SOL    HW317747   4.388   0.381   5.280 -1.6893  0.5419 -0.3539
 4495SOL    MW417748   4.399   0.300   5.311  0.1600 -0.0223  0.0769
 4496SOL     OW17749   5.356   1.071   6.367  0.7029 -0.3236 -0.1177
 4496SOL    HW217750   5.347   1.057   6.273  0.9513  0.4396 -0.2598
 4496SOL    HW317751   5.406   0.995   6.398  1.3204 -0.1792 -0.7391
 4496SOL    MW417752   5.361   1.059   6.359  0.3078 -0.2696  0.2201
 4497SOL     OW17753   3.813   4.579   2.896 -0.1247 -0.1276 -0.3975
 4497SOL    HW217754   3.816   4.647   2.828 -0.5955 -0.0032 -0.3013
 4497SOL    HW317755   3.798   4.626   2.977 -1.0108 -0.3742 -0.4011
 4497SOL    MW417756   3.811   4.594   2.897 -0.9782  0.1581 -0.1430
 4498SOL     OW17757   5.873   6.210   3.028  0.0882 -0.1999 -0.2750
 4498SOL    HW217758   5.791   6.161   3.039 -1.0866  2.0960  2.2063
 4498SOL    HW317759   5.847   6.301   3.024  2.3606  0.4598 -2.7711
 4498SOL    MW417760   5.859   6.215   3.029 -0.0464  0.0942 -0.4052
 4499SOL     OW17761   3.968   5.887   0.043  0.0045 -0.0669  0.5143
 4499SOL    HW217762   3.914   5.897  -0.035 -0.3074  0.3197  0.7752
 4499SOL    HW317763   3.932   5.810   0.087  0.7601 -0.8313 -0.1794
 4499SOL    MW417764   3.956   5.878   0.039 -0.2251  0.0551 -0.1477
 4500SOL     OW17765   3.216   5.275   4.766  0.3939  0.1660  0.6430
 4500SOL    HW217766   3.175   5.200   4.724 -1.2580  0.9782  0.6816
 4500SOL    HW317767   3.253   5.240   4.847  2.7818 -1.2261 -0.9448
 4500SOL    MW417768   3.215   5.261   4.771 -0.5585 -0.1048 -0.1736
 4501SOL     OW17769   5.924   2.329   1.081 -0.1636  0.0565  0.4299
 4501SOL    HW217770   5.976   2.329   1.161  2.2507  1.8249 -1.0016
 4501SOL    HW317771   5.961   2.400   1.028 -1.5646 -1.0955 -2.3067
 4501SOL    MW417772   5.936   2.338   1.084  0.0552  0.1698 -0.4949
 4502SOL     OW17773   4.549   3.602   3.878 -0.3124 -0.4170  0.4992
 4502SOL    HW217774   4.601   3.583   3.956 -1.1252 -3.0681  0.4997
 4502SOL    HW317775   4.525   3.516   3.844 -0.1692  0.6278 -2.5837
 4502SOL    MW417776   4.553   3.588   3.884  0.4439  0.0191 -0.2683
 4503SOL     OW17777   2.704   6.001   1.814 -0.6136 -0.0836  0.1524
 4503SOL    HW217778   2.779   5.966   1.768 -0.0341 -0.5071  1.3848
 4503SOL    HW317779   2.732   6.089   1.842 -0.2350 -0.5744  1.3674
 4503SOL    MW417780   2.717   6.008   1.812  0.6295  0.2265  0.1222
 4504SOL     OW17781   1.875   5.306   0.172  0.2336 -0.5049  0.0408
 4504SOL    HW217782   1.875   5.328   0.078 -0.8550  0.8294  0.3257
 4504SOL    HW317783   1.836   5.219   0.176 -0.4405 -0.2539 -0.6885
 4504SOL    MW417784   1.870   5.298   0.160 -0.0514 -0.2900  0.4232
 4505SOL     OW17785   4.187   4.047   5.784  0.0597  0.1588 -0.5123
 4505SOL    HW217786   4.112   4.023   5.839  0.5971 -0.2394  0.0611
 4505SOL    HW317787   4.166   4.135   5.753 -0.5934  0.1001 -0.2665
 4505SOL    MW417788   4.174   4.056   5.787  0.0760 -0.4611  0.1857
 4506SOL     OW17789   3.696   0.947   4.636  0.0255  0.3389 -0.2994
 4506SOL    HW217790   3.604   0.953   4.661 -0.7806  0.9425 -3.0736
 4506SOL    HW317791   3.709   0.855   4.611 -0.7152  0.8710 -2.8040
 4506SOL    MW417792   3.686   0.936   4.636 -0.1947 -0.1650  0.6558
 4507SOL     OW17793   4.739   6.102   1.236  0.0009  0.6481 -0.1932
 4507SOL    HW217794   4.707   6.047   1.166 -0.1010  1.2707 -0.6453
 4507SOL    HW317795   4.825   6.131   1.206  0.9081 -0.7851  0.8825
 4507SOL    MW417796   4.746   6.099   1.223  0.1885  0.1064  0.1847
 4508SOL     OW17797   4.495   2.447   2.708  0.0585 -0.2699 -0.3988
 4508SOL    HW217798   4.437   2.461   2.634  2.0799  0.9270 -1.8447
 4508SOL    HW317799   4.546   2.527   2.715  0.9394 -0.9207  1.3783
 4508SOL    MW417800   4.494   2.459   2.700  0.4098 -0.2863 -0.0739
 4509SOL     OW17801   6.189   2.936   6.173 -0.0633 -0.2023 -0.2287
 4509SOL    HW217802   6.109   2.923   6.123 -1.1052  0.9357  1.0446
 4509SOL    HW317803   6.246   2.988   6.116 -1.8415  2.4552  0.2319
 4509SOL    MW417804   6.186   2.941   6.159 -0.0996  0.0782  0.0833
 4510SOL     OW17805   3.455  -0.001   2.760  0.2823  0.4267  0.5336
 4510SOL    HW217806   3.456   0.088   2.723 -0.8696  0.8080  1.3428
 4510SOL    HW317807   3.436  -0.058   2.686  1.1752  0.8381 -0.0195
 4510SOL    MW417808   3.452   0.003   2.746 -0.2121  0.3240 -0.4090
 4511SOL     OW17809   0.579   0.729   5.743  0.1026 -0.2550 -0.0267
 4511SOL    HW217810   0.486   0.709   5.754  0.0204 -1.4342 -2.3331
 4511SOL    HW317811   0.613   0.656   5.692  2.0696  0.6875 -0.1389
 4511SOL    MW417812   0.571   0.717   5.738  0.2168  0.8938  0.1573
 4512SOL     OW17813   2.314   1.706   5.410 -0.0421 -0.4671  0.4439
 4512SOL    HW217814   2.273   1.690   5.324 -1.5548  0.9031  0.8650
 4512SOL    HW317815   2.339   1.618   5.440 -2.0168 -1.3136 -0.1926
 4512SOL    MW417816   2.312   1.692   5.402  0.3213  0.4113 -0.0962
 4513SOL     OW17817   0.168   0.494   0.922  0.6729  0.2165 -0.5318
 4513SOL    HW217818   0.121   0.541   0.853  0.4077 -0.0412 -0.5255
 4513SOL    HW317819   0.256   0.532   0.920  0.6553  0.2395 -0.9857
 4513SOL    MW417820   0.174   0.506   0.912  0.1261  0.1058  0.1204
 4514SOL     OW17821   2.453   3.328   5.859  0.1684 -0.3459  0.3142
 4514SOL    HW217822   2.481   3.245   5.819 -0.2838 -0.2360 -0.2335
 4514SOL    HW317823   2.535   3.370   5.886  0.4200 -0.8287  0.3112
 4514SOL    MW417824   2.468   3.323   5.857 -0.3392 -0.2001  0.0631
 4515SOL     OW17825   1.542   2.336   3.389  0.4179 -0.0501 -0.5801
 4515SOL    HW217826   1.541   2.346   3.294  0.0358 -0.2915 -0.6014
 4515SOL    HW317827   1.472   2.394   3.420  0.7478  0.2714 -0.4178
 4515SOL    MW417828   1.533   2.345   3.380  0.1508 -0.2638 -0.2640
 4516SOL     OW17829   0.966   1.986   4.271 -0.1053 -0.3422  0.2907
 4516SOL    HW217830   0.920   2.062   4.235  0.0844 -0.8258 -1.0393
 4516SOL    HW317831   0.915   1.911   4.240  0.4311 -0.7961  0.5092
 4516SOL    MW417832   0.953   1.986   4.262 -0.3814 -0.8375  0.0607
 4517SOL     OW17833   0.670   4.805   0.764  0.3227  0.2272  0.5551
 4517SOL    HW217834   0.591   4.758   0.735  2.1944 -2.6307 -0.3163
 4517SOL    HW317835   0.678   4.878   0.704 -0.1516 -1.1036 -1.2127
 4517SOL    MW417836   0.660   4.808   0.752 -0.0727 -0.0986  0.0765
 4518SOL     OW17837   2.876   2.948   5.754  0.3151 -0.1306 -0.0035
 4518SOL    HW217838   2.957   2.930   5.706  0.2506  0.8238 -0.5081
 4518SOL    HW317839   2.904   2.961   5.845  0.7650  0.4129 -0.2148
 4518SOL    MW417840   2.891   2.947   5.760 -0.7896  0.0063 -0.3531
 4519SOL     OW17841   1.864   1.467   0.233 -0.1440 -0.1498 -0.5474
 4519SOL    HW217842   1.801   1.455   0.304  0.1621 -0.0890 -0.2694
 4519SOL    HW317843   1.913   1.546   0.257  0.7976 -0.8239 -0.2087
 4519SOL    MW417844   1.862   1.476   0.245  0.2624 -0.2387 -0.4360
 4520SOL     OW17845   6.046   0.543   1.634 -0.3666  0.3075  0.2550
 4520SOL    HW217846   6.018   0.468   1.582 -0.4816 -0.1017  0.9009
 4520SOL    HW317847   6.096   0.505   1.706 -0.4813  0.8490  0.6230
 4520SOL    MW417848   6.049   0.528   1.637  1.0985  0.2871 -0.4232
 4521SOL     OW17849   0.547   2.199   0.574  0.7200  0.0594  0.0880
 4521SOL    HW217850   0.642   2.193   0.564  0.5962 -1.8045 -0.3921
 4521SOL    HW317851   0.528   2.292   0.567  2.5007  0.4637  0.1038
 4521SOL    MW417852   0.557   2.211   0.571 -0.1504  0.5479 -0.3153
 4522SOL     OW17853   0.349   5.949   2.969  0.3889  0.2419  0.4654
 4522SOL    HW217854   0.303   6.015   2.918  1.8521  0.3643 -0.7714
 4522SOL    HW317855   0.342   5.869   2.917  2.3309  0.4831 -0.2387
 4522SOL    MW417856   0.342   5.947   2.956  0.1218 -0.4271  0.1422
 4523SOL     OW17857   1.032   4.583   2.711  0.8089  0.2809 -0.8271
 4523SOL    HW217858   0.963   4.640   2.744  1.5853  0.6820  0.1633
 4523SOL    HW317859   1.078   4.553   2.789 -0.5280 -3.0360 -1.1624
 4523SOL    MW417860   1.029   4.586   2.726 -0.0953 -0.3736  0.0795
 4524SOL     OW17861   1.436   5.679   4.653  0.4400 -0.4698  0.3197
 4524SOL    HW217862   1.383   5.604   4.680  2.9061 -2.3154  0.3747
 4524SOL    HW317863   1.512   5.676   4.711  1.6285  0.7898 -1.1074
 4524SOL    MW417864   1.439   5.669   4.664 -0.5422 -0.2326 -0.8721
 4525SOL     OW17865   4.498   3.046   6.132  0.2415  0.5011  0.4512
 4525SOL    HW217866   4.468   3.131   6.165  1.1506  1.1810 -0.4060
 4525SOL    HW317867   4.549   3.067   6.054  1.3814 -0.7405  0.8182
 4525SOL    MW417868   4.501   3.060   6.126 -0.3912  0.2400  0.3439
 4526SOL     OW17869   5.070   5.539   4.917  0.1656 -0.0678 -0.0204
 4526SOL    HW217870   5.109   5.598   4.982 -0.3890  0.2973 -0.0107
 4526SOL    HW317871   5.024   5.474   4.969  0.1526 -0.0733 -0.0393
 4526SOL    MW417872   5.069   5.539   4.933  0.8334  0.0534  0.5471
 4527SOL     OW17873   4.388   0.966   4.689  0.4893 -0.1151  0.0658
 4527SOL    HW217874   4.311   0.971   4.746  0.4560 -1.2182  0.1439
 4527SOL    HW317875   4.399   1.055   4.656 -0.0885  0.3274  1.0077
 4527SOL    MW417876   4.379   0.978   4.692  0.1604  0.0283 -0.2920
 4528SOL     OW17877   0.666   2.816   1.011  0.0431 -0.6027 -0.1746
 4528SOL    HW217878   0.578   2.850   1.028  0.1327 -0.2216 -0.4849
 4528SOL    HW317879   0.723   2.869   1.067  0.0397 -1.0990  0.3138
 4528SOL    MW417880   0.662   2.827   1.021  0.8651  0.5885 -0.0532
 4529SOL     OW17881   0.430   5.526   1.189 -0.1220  0.3133 -0.3921
 4529SOL    HW217882   0.335   5.517   1.188 -0.0243 -1.2731 -2.3362
 4529SOL    HW317883   0.455   5.511   1.281 -1.7381  1.1856  0.2247
 4529SOL    MW417884   0.421   5.523   1.201 -0.3197  0.1758 -0.5005
 4530SOL     OW17885   5.602   3.108   5.598 -0.1258 -0.1622  0.0355
 4530SOL    HW217886   5.528   3.121   5.539  0.2549 -0.2915 -0.4728
 4530SOL    HW317887   5.679   3.114   5.542  0.3064  0.9171  0.7015
 4530SOL    MW417888   5.602   3.110   5.583 -0.1176 -0.1974 -0.5738
 4531SOL     OW17889   2.925   0.875   5.557  0.2770  0.6217 -0.1746
 4531SOL    HW217890   2.850   0.882   5.497  0.3220 -1.4591 -0.5467
 4531SOL    HW317891   2.897   0.810   5.622  1.8927 -0.5255 -0.5732
 4531SOL    MW417892   2.911   0.868   5.557  0.2820 -0.0354 -0.1212
 4532SOL     OW17893   4.983   4.018   5.755 -0.6889  0.0135  0.1646
 4532SOL    HW217894   4.905   3.991   5.706  0.6882 -0.1295 -2.0313
 4532SOL    HW317895   4.963   4.107   5.784 -1.3213  0.3282 -1.1696
 4532SOL    MW417896   4.970   4.026   5.753 -0.6054  0.2173  0.2914
 4533SOL     OW17897   3.438   2.516   3.573  0.9288  0.2564  0.2681
 4533SOL    HW217898   3.428   2.421   3.572  3.5322 -0.1027 -1.5192
 4533SOL    HW317899   3.457   2.537   3.664 -1.5760 -0.5843  1.0852
 4533SOL    MW417900   3.439   2.506   3.585  0.0227 -0.5024 -0.6635
 4534SOL     OW17901   5.696   5.624   1.558  0.1227  0.1923  0.1219
 4534SOL    HW217902   5.726   5.696   1.503  0.2151  2.1087  2.4934
 4534SOL    HW317903   5.611   5.653   1.591 -0.1699 -1.1224  0.6088
 4534SOL    MW417904   5.688   5.637   1.555  0.2561  0.2366 -0.5871
 4535SOL     OW17905   2.387   5.034   3.008 -0.4899  0.7650  0.2773
 4535SOL    HW217906   2.373   4.945   2.974 -0.9453  0.7176  0.5854
 4535SOL    HW317907   2.473   5.029   3.051 -0.4807  0.4889  0.2324
 4535SOL    MW417908   2.397   5.021   3.009  0.1823  0.0190  0.1533
 4536SOL     OW17909   2.373   2.848   0.381 -0.5384 -0.1359  0.4912
 4536SOL    HW217910   2.361   2.787   0.308 -1.3266  1.2968 -0.6358
 4536SOL    HW317911   2.308   2.917   0.366 -0.1883  0.6047  2.1332
 4536SOL    MW417912   2.363   2.849   0.369  0.0633 -0.2481 -0.1100
 4537SOL     OW17913   1.849   3.056   0.221  0.1658  0.1554  0.0782
 4537SOL    HW217914   1.802   3.129   0.263 -0.7429  0.1038 -0.8104
 4537SOL    HW317915   1.781   2.990   0.205  0.4720  0.1761 -1.4695
 4537SOL    MW417916   1.834   3.057   0.225  0.3045  0.4279  0.1002
 4538SOL     OW17917   6.203   3.548   0.503  0.8041  0.2316  0.0579
 4538SOL    HW217918   6.285   3.571   0.546  0.0064  0.4434  1.5079
 4538SOL    HW317919   6.166   3.479   0.557 -0.6393  1.1060  0.2360
 4538SOL    MW417920   6.209   3.542   0.516  0.3636 -0.4189  0.4168
 4539SOL     OW17921   3.586   0.690   3.036  0.1842 -0.4886 -0.5977
 4539SOL    HW217922   3.566   0.703   3.129 -0.1305  0.4741 -0.7990
 4539SOL    HW317923   3.610   0.597   3.031  1.5469 -0.2523  0.6901
 4539SOL    MW417924   3.587   0.679   3.048 -0.0192  0.3139 -0.1262
 4540SOL     OW17925   1.982   4.615   1.813  0.0958  0.1556  0.0344
 4540SOL    HW217926   1.988   4.710   1.807  1.4183  0.1288  0.6262
 4540SOL    HW317927   2.000   4.584   1.725  0.3329  0.4237 -0.0123
 4540SOL    MW417928   1.985   4.623   1.801 -0.0046  0.9025  0.4893
 4541SOL     OW17929   3.603   1.211   3.279 -0.1065 -0.0617  0.3605
 4541SOL    HW217930   3.649   1.132   3.252  0.3875  0.3457 -0.0315
 4541SOL    HW317931   3.673   1.269   3.311 -0.3543  0.5175 -0.1157
 4541SOL    MW417932   3.619   1.208   3.279  0.6561  0.6088  0.1547
 4542SOL     OW17933   2.225   2.971   2.319 -0.6160  0.3780  0.5801
 4542SOL    HW217934   2.185   2.967   2.232  1.1570 -1.7338 -0.2359
 4542SOL    HW317935   2.309   3.016   2.306 -0.4426  0.2723  1.2566
 4542SOL    MW417936   2.231   2.976   2.306  0.8025 -0.4459  0.5839
 4543SOL     OW17937   1.559   2.808   5.489  0.3010 -0.2737 -0.0701
 4543SOL    HW217938   1.553   2.768   5.576  0.0074 -0.4089 -0.1511
 4543SOL    HW317939   1.652   2.803   5.467  0.6476  1.1747  0.9007
 4543SOL    MW417940   1.570   2.802   5.498 -1.0027 -0.6161  0.1283
 4544SOL     OW17941   2.789   4.653   6.041 -0.1624 -0.2565 -0.0446
 4544SOL    HW217942   2.736   4.728   6.014 -0.0709 -0.9108 -2.2788
 4544SOL    HW317943   2.866   4.692   6.083 -0.6129  0.8431 -0.1894
 4544SOL    MW417944   2.792   4.668   6.043 -0.4086 -1.3597  0.2425
 4545SOL     OW17945   5.415   1.490   1.616 -0.3584  1.3712  0.6929
 4545SOL    HW217946   5.496   1.461   1.574 -1.4200  0.2519 -0.6710
 4545SOL    HW317947   5.380   1.411   1.657 -1.8217  1.3213 -0.5794
 4545SOL    MW417948   5.421   1.476   1.616  0.2004  0.1450  0.1159
 4546SOL     OW17949   0.130   5.843   5.221 -0.7254 -0.4208 -0.0867
 4546SOL    HW217950   0.102   5.809   5.136 -1.1897 -0.1123 -0.0624
 4546SOL    HW317951   0.058   5.821   5.280  0.2391 -1.9695  0.5631
 4546SOL    MW417952   0.116   5.836   5.217 -0.3755 -0.2391 -0.0476
 4547SOL     OW17953   1.965   5.213   2.943  0.1622  0.4766 -0.1363
 4547SOL    HW217954   1.950   5.272   2.869  1.9132  0.9058 -0.2068
 4547SOL    HW317955   1.950   5.126   2.907  2.0024  0.5895 -1.3648
 4547SOL    MW417956   1.961   5.209   2.928 -0.2869  0.2510  0.5144
 4548SOL     OW17957   2.930   5.020   4.316 -0.4448  0.2981 -0.0859
 4548SOL    HW217958   2.978   5.003   4.235 -0.3542 -0.4439  0.1119
 4548SOL    HW317959   2.997   5.046   4.379 -0.6661  2.1489 -0.5724
 4548SOL    MW417960   2.945   5.021   4.313  0.1098  0.3052 -0.1378
 4549SOL     OW17961   0.234   1.735   4.494 -0.0408  0.3616 -0.1393
 4549SOL    HW217962   0.180   1.796   4.444 -0.4191  0.7992  0.7699
 4549SOL    HW317963   0.322   1.770   4.489 -0.3340  1.2977  0.7880
 4549SOL    MW417964   0.238   1.747   4.487  0.2573 -0.3164  0.0354
 4550SOL     OW17965   3.707   5.463   3.029  0.2865 -0.4796  0.3274
 4550SOL    HW217966   3.776   5.426   3.083  0.7012 -1.2066 -0.6641
 4550SOL    HW317967   3.627   5.419   3.058  0.8648 -2.8261 -1.3165
 4550SOL    MW417968   3.705   5.453   3.040  0.0750  0.3698 -0.3529
 4551SOL     OW17969   0.980   4.993   4.217  0.3318  0.1277  0.2096
 4551SOL    HW217970   1.052   5.041   4.259  1.5144 -0.8481 -0.6460
 4551SOL    HW317971   0.946   5.054   4.151  1.1265  0.1943 -0.1506
 4551SOL    MW417972   0.985   5.007   4.214 -0.3828 -0.1825  0.0452
 4552SOL     OW17973   5.596   5.834   4.767 -1.1350  0.1155 -0.1705
 4552SOL    HW217974   5.567   5.902   4.827 -0.7894 -0.2431  0.4219
 4552SOL    HW317975   5.627   5.881   4.690 -1.6440  0.5800 -0.0961
 4552SOL    MW417976   5.596   5.849   4.765 -0.3166  0.8211  0.6678
 4553SOL     OW17977   4.957   5.397   2.524 -0.6453  0.4175  0.4380
 4553SOL    HW217978   4.891   5.330   2.540 -0.2211  0.0454  0.6386
 4553SOL    HW317979   5.024   5.381   2.590  0.2036  0.0636 -0.4889
 4553SOL    MW417980   4.957   5.386   2.535  0.5691 -0.7688  0.1331
 4554SOL     OW17981   5.928   0.428   0.390 -0.1377  0.4583 -0.4750
 4554SOL    HW217982   5.864   0.476   0.442 -0.7024 -0.7189 -0.0426
 4554SOL    HW317983   5.901   0.336   0.398  0.6566  0.1065 -1.6177
 4554SOL    MW417984   5.916   0.422   0.398  0.6685  0.2339 -0.1341
 4555SOL     OW17985   4.928   2.628   5.432  0.1297  0.3485 -0.3034
 4555SOL    HW217986   4.843   2.588   5.416 -1.6185  3.4048  0.6560
 4555SOL    HW317987   4.989   2.576   5.380 -1.9585 -3.0376  0.3141
 4555SOL    MW417988   4.925   2.615   5.423  0.6421  0.2325 -1.0870
 4556SOL     OW17989   0.717   3.246   5.560 -0.4809  0.0163  0.3925
 4556SOL    HW217990   0.727   3.283   5.647 -3.2118  0.3603  0.6470
 4556SOL    HW317991   0.739   3.318   5.500  0.8249 -0.0457  0.7872
 4556SOL    MW417992   0.721   3.261   5.563  0.1078  0.4724 -0.7075
 4557SOL     OW17993   3.517   0.353   6.209  1.1086  0.0785 -0.7962
 4557SOL    HW217994   3.469   0.353   6.292  1.8523  1.6846 -0.3269
 4557SOL    HW317995   3.597   0.304   6.228  1.5335  0.9122 -0.3826
 4557SOL    MW417996   3.521   0.346   6.222  0.2457 -0.1679 -0.5649
 4558SOL     OW17997   3.236   1.514   3.671  0.0541 -0.2839 -0.0279
 4558SOL    HW217998   3.155   1.480   3.710  0.5797 -0.0149  1.3661
 4558SOL    HW317999   3.212   1.534   3.580 -1.8427  1.1167  0.7078
 4558SOL    MW418000   3.222   1.512   3.664  0.2072 -0.2377  0.9409
 4559SOL     OW18001   3.311   4.560   4.224  0.4369  0.2483  0.2693
 4559SOL    HW218002   3.380   4.568   4.290  1.3839 -0.7789 -0.5676
 4559SOL    HW318003   3.331   4.480   4.176  1.1173  2.0706 -2.7920
 4559SOL    MW418004   3.322   4.551   4.226  0.0161 -0.3203  0.1510
 4560SOL     OW18005   0.821   2.303   1.849  0.2295 -0.3585  0.1378
 4560SOL    HW218006   0.849   2.315   1.758  0.9066  0.2975  0.4153
 4560SOL    HW318007   0.795   2.391   1.878 -0.9795 -0.7471  0.2703
 4560SOL    MW418008   0.821   2.316   1.841  0.1224 -0.1973 -0.0521
 4561SOL     OW18009   4.724   5.522   2.921 -0.1709  0.2393  0.4577
 4561SOL    HW218010   4.701   5.614   2.927  1.2819  0.6760 -0.2573
 4561SOL    HW318011   4.748   5.497   3.010 -2.1194  0.0712  0.9956
 4561SOL    MW418012   4.724   5.531   2.933  0.2812 -0.0135  0.0809
 4562SOL     OW18013   3.430   2.899   3.765 -0.4392 -0.1467 -0.2966
 4562SOL    HW218014   3.375   2.821   3.774 -0.7393  0.0897 -0.0832
 4562SOL    HW318015   3.517   2.870   3.793 -0.5104 -0.4524 -0.3913
 4562SOL    MW418016   3.434   2.885   3.770 -0.5167  0.3647 -0.1247
 4563SOL     OW18017   4.551   4.371   4.013  0.2777 -0.2493 -0.0305
 4563SOL    HW218018   4.554   4.366   3.917 -0.1770  1.7576 -0.1915
 4563SOL    HW318019   4.459   4.354   4.034  0.0177  0.9689 -0.1091
 4563SOL    MW418020   4.539   4.368   4.003  0.2393  0.5640  0.2837
 4564SOL     OW18021   2.640   5.402   0.214 -0.1497 -0.8199  0.4725
 4564SOL    HW218022   2.722   5.445   0.191 -1.9164  1.3153 -2.4605
 4564SOL    HW318023   2.581   5.474   0.238 -0.9931 -2.3644  3.6079
 4564SOL    MW418024   2.643   5.417   0.214 -0.5816  0.1467  0.3679
 4565SOL     OW18025   0.700   3.000   0.272 -0.0486 -0.5717 -0.3838
 4565SOL    HW218026   0.770   3.056   0.238 -0.3007  0.3909  0.6460
 4565SOL    HW318027   0.719   2.990   0.365  0.0924 -2.3860 -0.5650
 4565SOL    MW418028   0.712   3.006   0.280 -0.2972 -0.0195  0.5524
 4566SOL     OW18029   6.274   1.167   1.333  0.1710  0.3190  0.4001
 4566SOL    HW218030   6.266   1.139   1.424 -1.2525 -0.1784  0.1545
 4566SOL    HW318031   6.278   1.262   1.337 -1.1700  0.3652  0.9243
 4566SOL    MW418032   6.274   1.176   1.345  0.0782 -0.1060  0.6575
 4567SOL     OW18033   0.963   5.559   2.883  0.2872 -0.1761 -0.2974
 4567SOL    HW218034   0.872   5.585   2.902  0.3958  0.9567 -1.2091
 4567SOL    HW318035   0.966   5.466   2.905 -1.0374 -0.1795 -0.0282
 4567SOL    MW418036   0.951   5.550   2.888  0.2898  0.2651 -0.7866
 4568SOL     OW18037   4.277   5.829   0.501  0.4114 -0.8240 -0.9290
 4568SOL    HW218038   4.194   5.824   0.454 -0.8356  1.7704  0.7681
 4568SOL    HW318039   4.258   5.794   0.588  0.6664  0.9010 -0.1206
 4568SOL    MW418040   4.264   5.824   0.507 -0.1384  0.0117  0.2356
 4569SOL     OW18041   2.437   3.571   5.567 -0.2055  0.0595  0.0078
 4569SOL    HW218042   2.350   3.584   5.606  0.0160  0.5161  0.3710
 4569SOL    HW318043   2.434   3.484   5.528 -1.6385  1.0241 -2.1713
 4569SOL    MW418044   2.425   3.561   5.567 -0.5048 -0.1646 -0.0521
 4570SOL     OW18045   6.329   0.428   4.293 -0.0355 -0.7809  0.4924
 4570SOL    HW218046   6.307   0.439   4.201 -0.5784 -0.5145  0.6484
 4570SOL    HW318047   6.287   0.345   4.318  2.0630 -2.0738 -0.0793
 4570SOL    MW418048   6.320   0.419   4.284 -0.1466  0.0339 -0.3278
 4571SOL     OW18049   3.343   4.277   1.501  0.2197 -0.4736  0.1575
 4571SOL    HW218050   3.387   4.230   1.571 -1.7401  1.1046  2.5850
 4571SOL    HW318051   3.361   4.369   1.518 -1.0874  0.0054 -0.8566
 4571SOL    MW418052   3.352   4.283   1.512 -0.4904 -0.0930 -0.4568
 4572SOL     OW18053   1.306   1.575   4.647  0.2385 -0.4292 -0.3966
 4572SOL    HW218054   1.266   1.625   4.575 -1.0525 -0.7752  0.0529
 4572SOL    HW318055   1.269   1.614   4.726  1.5896 -0.1059  0.1046
 4572SOL    MW418056   1.296   1.587   4.648 -0.0065  0.0782  0.2595
 4573SOL     OW18057   5.177   3.189   3.864  0.0283  0.8246 -0.6600
 4573SOL    HW218058   5.212   3.105   3.836  0.4722  0.7569  0.0688
 4573SOL    HW318059   5.083   3.180   3.857  0.1344  0.9780 -2.5711
 4573SOL    MW418060   5.170   3.177   3.860 -0.0239 -0.1241  0.4024
 4574SOL     OW18061   3.589   0.009   4.001  0.0401  0.5603 -0.6346
 4574SOL    HW218062   3.602  -0.070   3.948  1.0186 -0.3063  0.8368
 4574SOL    HW318063   3.677   0.036   4.026 -0.3165  1.8403 -0.6633
 4574SOL    MW418064   3.602   0.002   3.997 -0.3626  0.0251 -0.0022
 4575SOL     OW18065   4.387   3.727   1.304 -0.1265  0.1894 -0.1929
 4575SOL    HW218066   4.411   3.819   1.311  2.2461 -0.3317 -0.5703
 4575SOL    HW318067   4.444   3.682   1.367 -3.0010 -0.8502  1.9217
 4575SOL    MW418068   4.397   3.733   1.313 -0.0883  0.4197  0.0573
 4576SOL     OW18069   4.267   6.372   5.444 -0.0623  0.1368  0.1353
 4576SOL    HW218070   4.200   6.344   5.506  0.4294 -1.8097 -0.1535
 4576SOL    HW318071   4.350   6.353   5.487  0.3490  1.7563  0.1500
 4576SOL    MW418072   4.269   6.366   5.458  0.3049  0.0332 -0.8688
 4577SOL     OW18073   5.809   4.709   0.437  0.1713 -0.1670 -0.0577
 4577SOL    HW218074   5.741   4.642   0.446  0.6076 -0.6093  0.0187
 4577SOL    HW318075   5.877   4.666   0.385  1.2935 -0.4385  1.5558
 4577SOL    MW418076   5.809   4.694   0.431 -0.0640  0.1328  0.3817
 4578SOL     OW18077   2.105   2.555   3.259  0.0980 -0.1266  0.1172
 4578SOL    HW218078   2.142   2.622   3.202 -0.0750 -0.6728 -0.6570
 4578SOL    HW318079   2.077   2.602   3.337  0.4015  0.6268 -0.2217
 4578SOL    MW418080   2.106   2.570   3.261  0.3297  0.0144 -0.1353
 4579SOL     OW18081   5.655   0.868   0.379  0.0513  0.3443  0.3774
 4579SOL    HW218082   5.602   0.847   0.456 -0.1368 -0.8814 -0.0500
 4579SOL    HW318083   5.643   0.792   0.321 -1.6310  2.1787 -1.8489
 4579SOL    MW418084   5.646   0.855   0.382  0.3489 -0.1033  0.1979
 4580SOL     OW18085   1.665   0.917   1.413  0.1015 -0.0569  0.4934
 4580SOL    HW218086   1.650   0.847   1.478 -0.3849  0.0992  0.5549
 4580SOL    HW318087   1.743   0.889   1.366  0.6618 -0.0079  1.3735
 4580SOL    MW418088   1.673   0.904   1.416  0.3993 -0.7049 -0.0811
 4581SOL     OW18089   5.427   1.562   1.325  0.2454  0.6106 -0.2350
 4581SOL    HW218090   5.475   1.490   1.365  1.1734  0.6471 -1.2479
 4581SOL    HW318091   5.335   1.536   1.332  0.5578 -0.6438 -0.5087
 4581SOL    MW418092   5.421   1.549   1.331  0.2652 -0.0390 -0.7477
 4582SOL     OW18093   1.397   3.669   1.567 -1.0228  0.1574  0.1652
 4582SOL    HW218094   1.457   3.679   1.641 -0.5179 -0.6677 -0.1176
 4582SOL    HW318095   1.320   3.625   1.603 -0.9589  0.1404  0.2784
 4582SOL    MW418096   1.395   3.665   1.581  0.1394 -0.7048  0.2910
 4583SOL     OW18097   4.576   4.209   5.588  0.2405 -0.3487 -0.0956
 4583SOL    HW218098   4.624   4.275   5.637 -0.1180 -0.6044  0.6131
 4583SOL    HW318099   4.511   4.175   5.650 -1.1594  0.3114 -1.1472
 4583SOL    MW418100   4.573   4.213   5.603  0.0074  0.0043  0.1028
 4584SOL     OW18101   2.876   0.118   2.008  0.2946 -0.2930 -0.6243
 4584SOL    HW218102   2.896   0.197   1.958  1.1099 -0.1871 -0.1669
 4584SOL    HW318103   2.937   0.053   1.974  0.3196 -0.4350 -0.3131
 4584SOL    MW418104   2.887   0.120   1.997 -0.0324  0.1487 -0.4295
 4585SOL     OW18105   4.869   2.023   4.726 -0.5801 -0.2269 -0.9708
 4585SOL    HW218106   4.886   1.994   4.637 -1.1812 -0.9876 -0.8528
 4585SOL    HW318107   4.825   2.108   4.716 -1.8297 -0.8980 -1.4657
 4585SOL    MW418108   4.865   2.031   4.713  0.9408 -1.0513 -0.0592
 4586SOL     OW18109   1.119   2.946   2.315  0.5613  0.3561  0.3062
 4586SOL    HW218110   1.046   2.939   2.254  1.7312  0.4464 -1.1475
 4586SOL    HW318111   1.114   2.867   2.369 -0.1005 -0.0583 -0.3556
 4586SOL    MW418112   1.109   2.935   2.314 -0.0970  0.0408  0.4267
 4587SOL     OW18113   5.749   6.369   6.411 -0.0672  0.0229 -0.5364
 4587SOL    HW218114   5.809   6.344   6.341  0.2211  0.6713 -0.5203
 4587SOL    HW318115   5.675   6.308   6.401  0.8898 -1.2450 -0.1158
 4587SOL    MW418116   5.747   6.358   6.400  0.8610 -0.1086  0.7095
 4588SOL     OW18117   1.635   4.572   1.180 -0.4357 -0.1565  0.3152
 4588SOL    HW218118   1.634   4.491   1.129  0.9693  0.8167 -1.3489
 4588SOL    HW318119   1.641   4.543   1.271  0.2978 -1.9325 -0.2606
 4588SOL    MW418120   1.636   4.558   1.185  0.2521 -0.1729 -0.1190
 4589SOL     OW18121   3.416   5.266   6.343  0.5141  1.0597  0.0424
 4589SOL    HW218122   3.369   5.241   6.422  0.1979  2.6821  0.4063
 4589SOL    HW318123   3.399   5.194   6.282  2.4753 -1.2541  2.0406
 4589SOL    MW418124   3.407   5.254   6.345 -0.1448 -0.6035  0.3415
 4590SOL     OW18125   0.492   2.985   0.763  0.1158 -0.1229  0.2185
 4590SOL    HW218126   0.581   2.952   0.753 -0.0045 -0.2704 -0.4046
 4590SOL    HW318127   0.469   3.019   0.676  0.2205  1.5544  0.8005
 4590SOL    MW418128   0.501   2.985   0.750  0.2389  0.3170  0.2363
 4591SOL     OW18129   3.079   1.599   5.218  0.3843  0.7605 -0.1421
 4591SOL    HW218130   3.167   1.635   5.208  0.5094  0.4989  0.0211
 4591SOL    HW318131   3.079   1.519   5.166  0.2498  0.7459 -0.1213
 4591SOL    MW418132   3.091   1.593   5.210 -0.2247 -0.2431  0.1803
 4592SOL     OW18133   0.912   5.734   1.120 -0.5846 -0.0612  0.4603
 4592SOL    HW218134   0.875   5.646   1.118 -0.8678  0.0286  1.4310
 4592SOL    HW318135   0.907   5.761   1.212  3.5296 -0.7313  1.0800
 4592SOL    MW418136   0.906   5.726   1.132 -0.3295 -0.1652  0.1528
 4593SOL     OW18137   2.372   4.791   1.647  0.7274  0.1654  0.1037
 4593SOL    HW218138   2.300   4.854   1.634  0.4877  0.3392  2.0601
 4593SOL    HW318139   2.417   4.822   1.725  1.2491 -1.5244  0.5000
 4593SOL    MW418140   2.368   4.803   1.655 -0.2384  0.5612 -0.0739
 4594SOL     OW18141   2.623   2.356   4.149 -0.1766 -0.4619  0.5979
 4594SOL    HW218142   2.715   2.372   4.170  0.1500  1.5348 -1.8541
 4594SOL    HW318143   2.602   2.275   4.195  2.8211 -1.0441  1.1810
 4594SOL    MW418144   2.633   2.348   4.158 -0.3945 -1.0770  0.1739
 4595SOL     OW18145   0.354   3.276   3.058 -0.1872 -0.2324 -0.1638
 4595SOL    HW218146   0.341   3.230   3.141 -0.0493 -0.0995 -0.0687
 4595SOL    HW318147   0.368   3.206   2.994  1.8079 -0.2962  0.2825
 4595SOL    MW418148   0.354   3.261   3.061 -0.4449  0.5321 -0.4069
 4596SOL     OW18149   6.164   1.005   4.482  0.2613  0.1710 -0.3014
 4596SOL    HW218150   6.217   0.926   4.489 -1.1804 -0.9078 -1.0822
 4596SOL    HW318151   6.152   1.017   4.387  1.3121  1.9507 -0.2586
 4596SOL    MW418152   6.170   0.996   4.470 -0.0868 -0.0253 -0.4924
 4597SOL     OW18153   4.644   2.507   0.520 -1.0269  0.4703  0.5932
 4597SOL    HW218154   4.587   2.457   0.462 -2.4360  0.6848  1.7474
 4597SOL    HW318155   4.650   2.453   0.599  0.8110  0.2131  0.3228
 4597SOL    MW418156   4.637   2.493   0.523 -0.5863  0.8074 -0.0172
 4598SOL     OW18157   0.159   3.062   4.101 -0.3269 -0.5732  0.3650
 4598SOL    HW218158   0.190   2.974   4.078  2.6810 -0.0733  2.0308
 4598SOL    HW318159   0.153   3.062   4.196 -0.4674  0.9704  0.3871
 4598SOL    MW418160   0.162   3.050   4.110 -0.2484 -0.3650  0.2162
 4599SOL     OW18161   4.521   1.843   5.483  0.3976  0.4178 -0.4393
 4599SOL    HW218162   4.551   1.803   5.401 -0.2019 -0.4044 -0.2689
 4599SOL    HW318163   4.503   1.934   5.460 -0.8284 -0.0624 -1.5054
 4599SOL    MW418164   4.523   1.850   5.469  0.2043  0.2444 -0.4238
 4600SOL     OW18165   0.816   3.003   1.200 -0.1906  0.1949 -0.1769
 4600SOL    HW218166   0.888   3.021   1.140  0.1943 -1.3335 -0.2037
 4600SOL    HW318167   0.854   2.946   1.267 -1.4845 -1.0990 -0.4959
 4600SOL    MW418168   0.831   2.998   1.201 -0.5009 -0.4605 -0.3996
 4601SOL     OW18169   1.442   3.958   1.075  0.1425  0.5121  0.4799
 4601SOL    HW218170   1.386   3.919   1.007 -1.2532  0.8902  1.3550
 4601SOL    HW318171   1.524   3.978   1.030 -1.2494  2.1980 -1.5501
 4601SOL    MW418172   1.445   3.955   1.060 -0.0926  0.4122  0.2556
 4602SOL     OW18173   2.660   0.593   0.832 -0.3344 -0.5435 -0.5617
 4602SOL    HW218174   2.636   0.500   0.829  0.4467 -0.7632 -0.2010
 4602SOL    HW318175   2.576   0.639   0.830 -0.7862 -1.2812  0.4532
 4602SOL    MW418176   2.646   0.587   0.831 -0.3987 -0.0762  0.0937
 4603SOL     OW18177   2.396   5.943   4.016 -0.3510 -0.5859 -0.0333
 4603SOL    HW218178   2.465   5.879   4.001 -1.2665 -1.3869 -0.9548
 4603SOL    HW318179   2.352   5.952   3.931  0.0847  1.6830 -0.0962
 4603SOL    MW418180   2.399   5.936   4.002  0.6918  0.0441 -0.2362
 4604SOL     OW18181   4.818   1.748   2.510 -1.0284 -0.7138  0.1832
 4604SOL    HW218182   4.728   1.782   2.508 -0.9257 -0.4552 -0.1888
 4604SOL    HW318183   4.861   1.801   2.578 -0.8518 -0.0332 -0.4392
 4604SOL    MW418184   4.812   1.760   2.519  0.1518  0.4340  0.3585
 4605SOL     OW18185   4.920   2.481   4.355  0.0666  0.0383 -0.3414
 4605SOL    HW218186   4.858   2.411   4.377 -0.1878  0.3816  0.0543
 4605SOL    HW318187   5.006   2.438   4.354 -0.2444 -0.5792 -1.5651
 4605SOL    MW418188   4.923   2.466   4.358  0.1084  0.2516  0.0915
 4606SOL     OW18189   6.242   1.167   2.167 -0.6274  0.0044  0.3514
 4606SOL    HW218190   6.285   1.082   2.164 -1.2096 -0.2783 -0.3701
 4606SOL    HW318191   6.309   1.229   2.138 -0.2418 -0.2233  0.7499
 4606SOL    MW418192   6.256   1.164   2.163 -0.3709  0.3202  0.3485
 4607SOL     OW18193   3.745   2.645   3.577 -0.8086 -0.3225 -0.5184
 4607SOL    HW218194   3.697   2.563   3.572  0.2146 -0.9030 -1.1153
 4607SOL    HW318195   3.754   2.662   3.671 -0.4956 -1.2243 -0.3783
 4607SOL    MW418196   3.740   2.637   3.589  0.4825 -0.2221 -0.3647
 4608SOL     OW18197   1.336   3.388   2.020  0.1407 -0.3100 -0.3007
 4608SOL    HW218198   1.261   3.331   2.037  1.4147 -2.0289 -0.1334
 4608SOL    HW318199   1.360   3.423   2.106  0.0968 -0.5056 -0.2094
 4608SOL    MW418200   1.330   3.385   2.033 -0.4368 -0.7698  0.5085
 4609SOL     OW18201   0.522   1.581   5.942 -0.4096 -0.1356  0.1257
 4609SOL    HW218202   0.527   1.491   5.974  0.4503  0.7040  2.6485
 4609SOL    HW318203   0.454   1.621   5.997  0.6051  1.2248  0.4307
 4609SOL    MW418204   0.514   1.574   5.954  0.0235 -0.4135 -0.1321
 4610SOL     OW18205   5.368   0.111   3.389 -0.5322  0.0852 -0.3723
 4610SOL    HW218206   5.354   0.016   3.393 -0.7924 -0.0925 -3.2200
 4610SOL    HW318207   5.281   0.148   3.377 -0.5430  0.8393  1.6316
 4610SOL    MW418208   5.355   0.103   3.388  0.1961  0.6044 -0.2617
 4611SOL     OW18209   1.424   1.576   2.209 -0.1047 -0.2884  0.6240
 4611SOL    HW218210   1.347   1.519   2.209 -0.6371  0.4215  0.3793
 4611SOL    HW318211   1.485   1.534   2.148 -0.8781 -0.0871 -0.3051
 4611SOL    MW418212   1.422   1.563   2.201 -0.4142 -0.6895  0.5927
 4612SOL     OW18213   0.886   5.316   2.150 -0.4230  0.0652 -0.2042
 4612SOL    HW218214   0.909   5.250   2.084 -0.8236 -0.1034 -0.1783
 4612SOL    HW318215   0.922   5.281   2.231  1.0943  0.8284 -0.5106
 4612SOL    MW418216   0.894   5.302   2.152 -0.0624  0.2925  0.4965
 4613SOL     OW18217   5.582   6.171   3.599  0.1022  0.3635  0.1218
 4613SOL    HW218218   5.618   6.094   3.641  1.2819  0.0574 -1.3498
 4613SOL    HW318219   5.646   6.194   3.532 -0.7252  2.0089 -0.1611
 4613SOL    MW418220   5.595   6.164   3.595 -0.0492  0.0517  0.5243
 4614SOL     OW18221   1.467   5.568   6.071 -0.7975  0.3866  0.2037
 4614SOL    HW218222   1.510   5.651   6.094 -1.5388  1.0767 -0.8514
 4614SOL    HW318223   1.441   5.531   6.156 -0.4561  1.2252  0.6920
 4614SOL    MW418224   1.469   5.574   6.086 -0.4621 -0.8050  0.7247
 4615SOL     OW18225   4.101   1.041   1.024  0.1742  0.0828 -0.1436
 4615SOL    HW218226   4.054   0.968   1.065  1.6009 -1.5578 -1.2905
 4615SOL    HW318227   4.168   1.065   1.088 -0.3114  0.4357  0.2461
 4615SOL    MW418228   4.104   1.034   1.038  0.1817 -0.5412  0.2991
 4616SOL     OW18229   4.542   1.651   0.574  0.6375 -0.3921 -0.0623
 4616SOL    HW218230   4.559   1.564   0.611 -1.1486 -0.8779 -0.2616
 4616SOL    HW318231   4.581   1.712   0.636 -1.5310 -1.1940  2.2805
 4616SOL    MW418232   4.550   1.647   0.587 -0.2081  0.0480  0.0080
 4617SOL     OW18233   1.312   5.815   3.715  0.4617  0.4376 -0.1926
 4617SOL    HW218234   1.336   5.896   3.669 -1.7013  0.4730 -1.3745
 4617SOL    HW318235   1.276   5.845   3.798 -1.1987  0.8105 -1.0052
 4617SOL    MW418236   1.310   5.830   3.720 -0.2909  0.3114 -0.0365
 4618SOL     OW18237   4.612   6.339   4.823 -0.1110  0.2183  0.2452
 4618SOL    HW218238   4.636   6.291   4.903  0.1474  0.2868  0.2106
 4618SOL    HW318239   4.621   6.274   4.753 -1.4726 -0.1635  0.4104
 4618SOL    MW418240   4.617   6.324   4.824 -0.0048  0.1961  0.2096
 4619SOL     OW18241   1.336   6.063   0.087 -0.3441  0.0923  0.4028
 4619SOL    HW218242   1.383   6.145   0.100  2.7502 -1.2585 -1.2970
 4619SOL    HW318243   1.315   6.033   0.176  0.2222  1.7485  1.1244
 4619SOL    MW418244   1.339   6.070   0.101 -0.1311  0.2215 -0.0478
 4620SOL     OW18245   0.514   3.718   4.416 -0.1230  0.5513 -0.4466
 4620SOL    HW218246   0.481   3.648   4.472 -1.7136  1.9750  0.5188
 4620SOL    HW318247   0.578   3.676   4.359 -1.0512 -1.6688  0.0507
 4620SOL    MW418248   0.518   3.703   4.416  0.0486  0.1428  0.0409
 4621SOL     OW18249   5.016   4.708   1.262 -0.0678 -0.0583  0.4149
 4621SOL    HW218250   5.087   4.710   1.197  0.7675 -0.9089  1.2676
 4621SOL    HW318251   5.054   4.752   1.339 -1.0601  0.9746  0.3418
 4621SOL    MW418252   5.031   4.714   1.263  0.0760  0.4284  0.5224
 4622SOL     OW18253   1.621   4.957   1.894  0.3455  0.0510  0.0964
 4622SOL    HW218254   1.649   4.876   1.936  1.4178  0.9243  1.1385
 4622SOL    HW318255   1.528   4.963   1.912  0.1144 -1.2296 -0.5141
 4622SOL    MW418256   1.613   4.947   1.902 -0.2243 -0.1123  0.5199
 4623SOL     OW18257   4.334   0.331   3.109 -0.1020  0.6611  0.2356
 4623SOL    HW218258   4.306   0.390   3.039 -1.8371 -0.0766  0.2543
 4623SOL    HW318259   4.389   0.385   3.166 -0.9682  2.0316 -0.1877
 4623SOL    MW418260   4.338   0.346   3.107  0.1671 -0.2099  0.4352
 4624SOL     OW18261   4.475   3.483   4.575  0.1886 -0.1863 -0.9522
 4624SOL    HW218262   4.429   3.456   4.496 -1.6735 -1.1724  0.3992
 4624SOL    HW318263   4.455   3.576   4.584 -0.0987 -0.2138 -1.3018
 4624SOL    MW418264   4.466   3.492   4.566  0.2038 -0.0627  0.0204
 4625SOL     OW18265   4.858   4.937   1.286 -0.0832 -0.2829 -0.3475
 4625SOL    HW218266   4.915   4.863   1.266  0.0763 -0.6524  1.3219
 4625SOL    HW318267   4.780   4.922   1.232  1.3317  0.2250 -2.6563
 4625SOL    MW418268   4.855   4.925   1.276  0.4469 -0.4917  0.0391
 4626SOL     OW18269   4.674   0.412   1.142  0.0735 -0.0454  0.3349
 4626SOL    HW218270   4.735   0.472   1.099  1.4194 -1.3708  0.2981
 4626SOL    HW318271   4.648   0.351   1.073 -1.8134  0.8247  0.2028
 4626SOL    MW418272   4.679   0.412   1.127  0.5840 -0.1877  0.5780
 4627SOL     OW18273   3.634   1.559   0.359 -0.0130  0.3574 -0.1087
 4627SOL    HW218274   3.552   1.514   0.340 -0.4141  1.2807 -0.6672
 4627SOL    HW318275   3.701   1.506   0.316 -0.3267 -0.3332  0.2424
 4627SOL    MW418276   3.632   1.546   0.350 -0.1624  0.1066  0.1677
 4628SOL     OW18277   2.018   2.790   4.780  0.0033 -0.3145  0.6315
 4628SOL    HW218278   2.031   2.851   4.853 -1.2423 -0.4145  0.9567
 4628SOL    HW318279   2.100   2.793   4.731  0.2421  1.0219  1.0856
 4628SOL    MW418280   2.031   2.798   4.783  0.0462  0.3233 -0.1777
 4629SOL     OW18281   2.539   4.880   5.647 -0.1626  0.8997 -0.5208
 4629SOL    HW218282   2.607   4.821   5.615 -0.3150  0.6391 -0.3687
 4629SOL    HW318283   2.505   4.923   5.568  0.4762  1.3611 -0.5540
 4629SOL    MW418284   2.544   4.878   5.633  0.2010  0.3328 -0.3368
 4630SOL     OW18285   4.244   3.182   4.448 -0.3250  0.0494 -0.1565
 4630SOL    HW218286   4.328   3.153   4.485 -0.0391  0.4392 -0.4884
 4630SOL    HW318287   4.183   3.179   4.521 -0.1022 -0.5749  0.0084
 4630SOL    MW418288   4.247   3.177   4.462  0.5342 -0.3127 -0.4287
 4631SOL     OW18289   5.676   4.540   4.872  0.4299 -0.7175 -0.6340
 4631SOL    HW218290   5.743   4.550   4.804  0.3243 -0.0454 -0.6397
 4631SOL    HW318291   5.680   4.447   4.895  0.8614 -0.8344 -1.1517
 4631SOL    MW418292   5.685   4.529   4.866  0.1689 -0.3103 -0.0486
 4632SOL     OW18293   5.976   3.882   2.743 -0.2717  0.3547 -0.1454
 4632SOL    HW218294   6.061   3.913   2.776 -0.9500  0.8597  1.2256
 4632SOL    HW318295   5.984   3.787   2.743  0.1077  0.3777  0.5250
 4632SOL    MW418296   5.988   3.874   2.747  0.2778 -0.4471  0.6637
 4633SOL     OW18297   3.310   5.226   0.921 -0.7388 -0.4692 -0.1290
 4633SOL    HW218298   3.302   5.136   0.888 -1.0395 -1.2241  1.8618
 4633SOL    HW318299   3.260   5.225   1.003  1.6624  0.7138  1.4357
 4633SOL    MW418300   3.302   5.214   0.927 -0.0843  0.2167 -0.3966
 4634SOL     OW18301   4.661   6.213   2.736  0.3668  1.3104 -0.1112
 4634SOL    HW218302   4.742   6.171   2.708 -0.1241 -1.7285  2.4557
 4634SOL    HW318303   4.602   6.203   2.662  0.6300 -1.8092 -0.0425
 4634SOL    MW418304   4.664   6.206   2.723 -0.5205 -0.4132 -0.3741
 4635SOL     OW18305   1.355   4.968   0.034 -0.7927 -0.3916 -0.0330
 4635SOL    HW218306   1.347   4.874   0.052  2.3237 -0.8398 -0.4028
 4635SOL    HW318307   1.381   5.007   0.117  2.8156 -0.7567 -0.8257
 4635SOL    MW418308   1.358   4.960   0.047  0.1729 -0.5222 -0.2238
 4636SOL     OW18309   5.991   2.839   1.430  0.1375  0.4615  0.0157
 4636SOL    HW218310   6.005   2.934   1.431 -0.4680  0.5524 -0.0025
 4636SOL    HW318311   5.901   2.828   1.402  0.4844 -0.1569 -0.9171
 4636SOL    MW418312   5.981   2.850   1.427 -0.5933 -0.0812 -0.5058
 4637SOL     OW18313   4.027   2.656   4.858  0.3332 -0.1334 -0.3968
 4637SOL    HW218314   3.932   2.658   4.851  0.2845 -0.8627 -0.0252
 4637SOL    HW318315   4.054   2.745   4.837 -0.5057  0.3481  0.4792
 4637SOL    MW418316   4.018   2.668   4.855 -0.6212 -0.0121 -0.7478
 4638SOL     OW18317   5.022   0.180   1.094 -0.5069 -0.2759  0.4231
 4638SOL    HW218318   5.082   0.181   1.168  1.0258  0.8278 -0.7724
 4638SOL    HW318319   5.064   0.236   1.028 -1.8183 -1.2046 -1.2787
 4638SOL    MW418320   5.035   0.188   1.095  0.2902 -1.3329  0.3521
 4639SOL     OW18321   4.739   5.612   6.026  0.4504 -0.1995  0.1421
 4639SOL    HW218322   4.644   5.601   6.019  0.5810 -1.3268 -0.0364
 4639SOL    HW318323   4.755   5.619   6.120  0.3300 -1.6637  0.3009
 4639SOL    MW418324   4.728   5.611   6.037  0.0371 -0.1524 -0.1168
 4640SOL     OW18325   2.443   3.180   3.050  0.3726 -0.8793 -0.2402
 4640SOL    HW218326   2.529   3.138   3.043  1.6050  1.4221  0.1599
 4640SOL    HW318327   2.450   3.257   2.993 -0.6098  0.5808  1.5103
 4640SOL    MW418328   2.455   3.185   3.041  0.3805 -0.4247  0.3172
 4641SOL     OW18329   2.292   4.727   2.107  0.0714 -0.0012  0.4297
 4641SOL    HW218330   2.287   4.661   2.177  1.3130 -0.9618 -0.3440
 4641SOL    HW318331   2.346   4.797   2.144 -0.2941  0.0558  0.8588
 4641SOL    MW418332   2.299   4.728   2.121  0.4438 -0.1366 -0.0807
 4642SOL     OW18333   4.411   1.539   5.504  0.5993  0.0013  0.6410
 4642SOL    HW218334   4.449   1.549   5.592  1.0213  1.8554  0.3001
 4642SOL    HW318335   4.485   1.515   5.449  0.5881  0.1358  0.5681
 4642SOL    MW418336   4.426   1.537   5.509 -0.1419 -0.5328 -0.1945
 4643SOL     OW18337   1.483   1.142   5.001  0.3623 -0.2853 -0.4638
 4643SOL    HW218338   1.561   1.157   4.948  0.0417  0.8180 -0.6522
 4643SOL    HW318339   1.497   1.195   5.079  0.5659 -1.4404  0.3143
 4643SOL    MW418340   1.495   1.151   5.004  0.3535  0.3957 -0.4419
 4644SOL     OW18341   1.524   0.783   3.994 -0.1965 -0.0198  0.3150
 4644SOL    HW218342   1.585   0.712   4.015  0.3454  0.6333  1.0230
 4644SOL    HW318343   1.479   0.754   3.914  1.3756 -0.3234 -0.5034
 4644SOL    MW418344   1.526   0.770   3.986 -0.4406 -0.1846 -0.0181
 4645SOL     OW18345   6.162   4.310   3.690 -0.0395  0.2254  0.0765
 4645SOL    HW218346   6.190   4.380   3.749 -1.2711 -0.0665  1.0469
 4645SOL    HW318347   6.068   4.324   3.678  0.1818  0.3454 -1.9555
 4645SOL    MW418348   6.154   4.321   3.696 -0.1961 -0.0992  0.4991
 4646SOL     OW18349   6.172   6.310   1.678 -0.1794 -0.0404 -0.3367
 4646SOL    HW218350   6.239   6.270   1.622 -0.3897 -0.8571 -0.0167
 4646SOL    HW318351   6.167   6.401   1.648 -0.5556 -0.5504 -1.9095
 4646SOL    MW418352   6.180   6.317   1.667  0.1787 -0.2574 -0.0855
 4647SOL     OW18353   3.595   3.211   3.103  0.5827 -0.7168 -0.4738
 4647SOL    HW218354   3.580   3.284   3.043 -0.1116 -1.1082 -0.7944
 4647SOL    HW318355   3.609   3.252   3.188 -0.0125 -0.2221 -0.6116
 4647SOL    MW418356   3.595   3.226   3.106  1.1131 -1.2885 -0.4923
 4648SOL     OW18357   4.273   3.657   0.314  0.1909 -0.0633  0.2591
 4648SOL    HW218358   4.247   3.729   0.372  1.1479 -0.3742  1.1141
 4648SOL    HW318359   4.271   3.580   0.370  2.2803 -0.1998  0.2330
 4648SOL    MW418360   4.269   3.657   0.329  0.3559 -0.4424 -0.0407
 4649SOL     OW18361   5.650   5.900   3.686  0.2250 -0.6891  0.0462
 4649SOL    HW218362   5.587   5.902   3.758  0.2540  0.4295  0.0570
 4649SOL    HW318363   5.598   5.875   3.609 -0.1691 -0.0904  0.1158
 4649SOL    MW418364   5.635   5.897   3.685  0.3166 -0.1658  0.2392
 4650SOL     OW18365   5.324   1.889   2.098  0.1737 -0.8618 -0.3602
 4650SOL    HW218366   5.250   1.903   2.157 -0.2411 -0.3020 -1.0038
 4650SOL    HW318367   5.285   1.876   2.012  0.8047 -0.8544 -0.6545
 4650SOL    MW418368   5.309   1.889   2.094 -0.0068  0.3000  0.2368
 4651SOL     OW18369   2.733   0.644   1.085 -0.4814 -0.7375 -0.2857
 4651SOL    HW218370   2.699   0.624   0.998 -1.4245  1.8609 -0.5999
 4651SOL    HW318371   2.824   0.670   1.070 -0.5978 -0.4392 -0.4839
 4651SOL    MW418372   2.741   0.645   1.071 -0.0887  0.1004 -0.4422
 4652SOL     OW18373   4.285   1.264   4.260 -0.0023  0.7468  0.1898
 4652SOL    HW218374   4.277   1.360   4.260  0.7742  0.8166  0.5468
 4652SOL    HW318375   4.379   1.248   4.261 -0.0841 -0.0374 -1.8149
 4652SOL    MW418376   4.296   1.275   4.260  0.5862 -0.5211 -0.6288
 4653SOL     OW18377   6.208   0.594   2.440  0.5285  0.1021  0.1473
 4653SOL    HW218378   6.270   0.635   2.380  1.9712 -0.5691  1.1205
 4653SOL    HW318379   6.127   0.587   2.390  1.5795 -0.1228 -1.5952
 4653SOL    MW418380   6.206   0.599   2.425 -0.3048  0.4304 -0.1121
 4654SOL     OW18381   3.879   3.940   1.031 -0.8273 -0.4662 -0.0317
 4654SOL    HW218382   3.847   3.850   1.045  3.2770 -1.8048  2.4331
 4654SOL    HW318383   3.919   3.938   0.944 -0.2665 -1.2190  0.2350
 4654SOL    MW418384   3.880   3.928   1.021 -0.3302  0.3431 -0.1290
 4655SOL     OW18385   0.085   4.854   0.617 -0.2358 -0.1060 -0.1057
 4655SOL    HW218386   0.008   4.807   0.649  0.5885 -0.1011  2.0385
 4655SOL    HW318387   0.144   4.784   0.587 -0.4936 -0.1863 -0.4406
 4655SOL    MW418388   0.083   4.838   0.617 -0.1182 -0.2110 -0.6312
 4656SOL     OW18389   0.307   6.061   0.770  0.1780 -0.0192  0.3387
 4656SOL    HW218390   0.242   6.073   0.839  0.2409 -1.9514  0.7659
 4656SOL    HW318391   0.353   5.981   0.793  0.8745 -0.1694 -1.4278
 4656SOL    MW418392   0.304   6.052   0.782 -0.0063 -0.0059 -0.2677
 4657SOL     OW18393   1.684   2.525   2.534  0.0993  0.0951 -0.0885
 4657SOL    HW218394   1.678   2.432   2.558 -1.5140  0.5594  1.5331
 4657SOL    HW318395   1.723   2.524   2.446  1.3513 -2.0206  0.4024
 4657SOL    MW418396   1.688   2.512   2.525 -0.5098  0.3156 -0.1537
 4658SOL     OW18397   6.349   4.762   3.933  0.6535 -0.0252  0.0855
 4658SOL    HW218398   6.343   4.806   4.017  1.0180  3.2888 -1.4592
 4658SOL    HW318399   6.382   4.674   3.954  0.4074  0.5377  3.3529
 4658SOL    MW418400   6.352   4.756   3.947 -0.3417 -0.0925 -0.2063
 4659SOL     OW18401   3.310   3.629   4.759 -0.0033 -0.4699  0.5783
 4659SOL    HW218402   3.244   3.688   4.794  0.4522 -0.2401  1.0646
 4659SOL    HW318403   3.291   3.544   4.800  0.0312 -0.3942  0.7497
 4659SOL    MW418404   3.299   3.625   4.769 -0.6109 -0.1230  0.6426
 4660SOL     OW18405   0.719   1.970   1.657  0.5509  0.0951  0.2700
 4660SOL    HW218406   0.655   1.922   1.604  1.8761 -2.6294  0.9243
 4660SOL    HW318407   0.666   2.027   1.712 -1.0932  0.0673 -1.1850
 4660SOL    MW418408   0.704   1.971   1.657 -0.1352 -0.1901 -0.9567
 4661SOL     OW18409   4.234   5.768   1.763  0.3838 -0.3426  0.0973
 4661SOL    HW218410   4.177   5.729   1.696 -0.5766  0.6441  0.3240
 4661SOL    HW318411   4.184   5.762   1.844  0.2929  1.1931  0.1703
 4661SOL    MW418412   4.220   5.762   1.765  0.5308 -0.5712  0.8448
 4662SOL     OW18413   5.271   0.913   1.059  0.3870 -0.3367 -0.5821
 4662SOL    HW218414   5.189   0.907   1.107  0.0260  1.1741 -0.9606
 4662SOL    HW318415   5.338   0.909   1.128 -0.1489  3.5649  0.4258
 4662SOL    MW418416   5.269   0.912   1.075  0.5724  0.2439 -0.7306
 4663SOL     OW18417   0.440   5.151   1.749  0.1823  0.0090  0.1450
 4663SOL    HW218418   0.402   5.212   1.812 -1.7200 -1.2638  0.3257
 4663SOL    HW318419   0.376   5.147   1.678  0.3180 -1.6477  0.0749
 4663SOL    MW418420   0.427   5.159   1.748 -0.2944 -0.3550  0.0470
 4664SOL     OW18421   4.411   6.177   5.614  0.1917  0.3652 -0.2641
 4664SOL    HW218422   4.385   6.144   5.700  2.7348 -0.3361  0.3420
 4664SOL    HW318423   4.372   6.116   5.552  1.0049 -1.1062  0.6025
 4664SOL    MW418424   4.403   6.165   5.617 -0.4273  0.4743  1.1681
 4665SOL     OW18425   2.589   1.560   0.964  0.0081  0.1462  0.2876
 4665SOL    HW218426   2.580   1.655   0.972  1.7292  0.3869 -0.2350
 4665SOL    HW318427   2.649   1.548   0.891 -0.0460 -1.3525  0.4621
 4665SOL    MW418428   2.595   1.571   0.955  0.0952  0.0924  0.1467
 4666SOL     OW18429   1.613   2.172   3.791 -0.0848  0.2569 -0.2316
 4666SOL    HW218430   1.523   2.164   3.821 -0.0993 -0.0943 -0.3686
 4666SOL    HW318431   1.621   2.263   3.762 -0.6460  0.0568 -1.0391
 4666SOL    MW418432   1.602   2.183   3.791  0.4657 -0.5652  0.0247
 4667SOL     OW18433   4.500   5.693   3.645  0.3206 -0.0414  0.0637
 4667SOL    HW218434   4.411   5.721   3.664  0.6125 -0.3100  1.9747
 4667SOL    HW318435   4.494   5.651   3.559 -1.1609  0.9342 -0.3380
 4667SOL    MW418436   4.488   5.691   3.636 -0.9487 -0.4505  0.0860
 4668SOL     OW18437   2.837   6.238   1.916  0.4812  0.4884  0.4329
 4668SOL    HW218438   2.922   6.195   1.918  0.7414  1.0024  1.1173
 4668SOL    HW318439   2.838   6.290   1.836  0.8467  0.5466  0.4714
 4668SOL    MW418440   2.848   6.240   1.906  0.3156 -0.0921 -0.4517
 4669SOL     OW18441   2.046   3.740   2.080 -0.1831  0.0697  0.0010
 4669SOL    HW218442   2.027   3.817   2.027  1.2211  0.6347  0.2730
 4669SOL    HW318443   2.130   3.760   2.122 -0.9085 -0.6474  1.8846
 4669SOL    MW418444   2.055   3.753   2.078  0.4018 -0.1245 -0.3719
 4670SOL     OW18445   2.951   0.072   5.558 -0.0251  0.1790 -0.2598
 4670SOL    HW218446   3.034   0.057   5.514  0.1563  0.9296 -0.1854
 4670SOL    HW318447   2.928   0.163   5.536  0.0143  0.5448  1.0773
 4670SOL    MW418448   2.959   0.082   5.550  0.5534  0.0517 -0.2649
 4671SOL     OW18449   2.508   0.204   2.466  0.4426  0.2003 -0.5009
 4671SOL    HW218450   2.533   0.113   2.475 -2.3170 -0.7120 -0.9576
 4671SOL    HW318451   2.589   0.253   2.476  2.2487 -2.3499 -1.6154
 4671SOL    MW418452   2.522   0.199   2.468 -0.2621 -0.1681  0.3989
 4672SOL     OW18453   0.938   4.604   0.555 -0.3128 -0.0018 -0.5964
 4672SOL    HW218454   0.965   4.696   0.556 -1.9597  0.5209  1.2788
 4672SOL    HW318455   0.862   4.602   0.496 -0.3910 -0.1093 -0.4935
 4672SOL    MW418456   0.931   4.616   0.547  0.4398 -0.7399  0.1046
 4673SOL     OW18457   0.966   3.594   0.280 -0.2206 -0.0738  0.1265
 4673SOL    HW218458   0.968   3.570   0.188 -0.9031 -0.5188  0.2217
 4673SOL    HW318459   0.875   3.581   0.306  0.4916 -2.7376  1.5956
 4673SOL    MW418460   0.955   3.589   0.271 -0.2786 -0.5056  0.0091
 4674SOL     OW18461   1.344   1.845   2.550  0.1472  0.0052  0.0900
 4674SOL    HW218462   1.351   1.815   2.641 -0.2658 -2.1104 -0.5174
 4674SOL    HW318463   1.250   1.859   2.537  0.0462 -0.9787 -0.3541
 4674SOL    MW418464   1.332   1.843   2.561  0.1052  0.7650  0.5308
 4675SOL     OW18465   4.455   4.368   2.605  0.0375  0.0797 -0.9334
 4675SOL    HW218466   4.440   4.388   2.513 -0.7255  1.0406 -0.6110
 4675SOL    HW318467   4.388   4.418   2.652  0.3663 -0.4592  0.1407
 4675SOL    MW418468   4.444   4.377   2.599 -0.1526 -0.1548 -0.0302
 4676SOL     OW18469   4.461   4.677   0.474  0.0744  0.3413  0.0346
 4676SOL    HW218470   4.408   4.654   0.550 -0.4616  0.2599 -0.3604
 4676SOL    HW318471   4.518   4.602   0.460 -1.1254 -0.4601 -0.7770
 4676SOL    MW418472   4.461   4.664   0.482 -0.1796  0.6866 -0.0757
 4677SOL     OW18473   3.553   5.816   2.571 -0.1081  0.0295  0.2145
 4677SOL    HW218474   3.625   5.779   2.519  1.1285  2.0957  0.3480
 4677SOL    HW318475   3.586   5.901   2.600 -2.4890  0.8875  0.6130
 4677SOL    MW418476   3.567   5.822   2.568  0.0060 -0.0584 -0.1884
 4678SOL     OW18477   5.785   4.560   4.048  0.3198 -0.0870  0.3861
 4678SOL    HW218478   5.802   4.480   3.998  1.0084  1.3096 -1.7421
 4678SOL    HW318479   5.735   4.616   3.989  1.4270  1.7713  1.0989
 4678SOL    MW418480   5.781   4.557   4.034 -0.3222 -0.0328  0.2756
 4679SOL     OW18481   4.415   4.487   3.520  0.2376  0.2541  0.4026
 4679SOL    HW218482   4.332   4.453   3.488 -0.0972  2.3186 -1.1084
 4679SOL    HW318483   4.482   4.440   3.470 -0.2109  1.5355 -1.5182
 4679SOL    MW418484   4.413   4.476   3.509 -0.5798 -0.8394 -0.3074
 4680SOL     OW18485   0.287   6.075   3.588  0.1239 -0.4714 -0.5477
 4680SOL    HW218486   0.278   6.077   3.493  0.1663 -0.5834 -0.5545
 4680SOL    HW318487   0.236   5.998   3.615 -0.3485 -0.1195 -0.4276
 4680SOL    MW418488   0.279   6.065   3.579  0.0808  0.2837  0.0775
 4681SOL     OW18489   3.025   1.265   1.684 -0.1097  0.2660 -0.4261
 4681SOL    HW218490   2.997   1.341   1.734  0.4478  0.4683 -0.4136
 4681SOL    HW318491   3.026   1.295   1.593 -2.0419 -0.3691 -0.7026
 4681SOL    MW418492   3.021   1.279   1.679 -0.7942 -0.0077 -0.1293
 4682SOL     OW18493   3.413   5.999   0.513 -0.1898 -0.3699 -0.2622
 4682SOL    HW218494   3.326   6.034   0.496 -0.0575 -0.7334 -1.8070
 4682SOL    HW318495   3.422   6.002   0.608 -1.5702  0.4125 -0.1356
 4682SOL    MW418496   3.403   6.004   0.523  0.5704  0.2049 -0.3581
 4683SOL     OW18497   0.014   4.531   3.577  0.6211 -0.2203 -0.0971
 4683SOL    HW218498   0.080   4.600   3.569  1.4965 -1.1569 -1.4930
 4683SOL    HW318499   0.062   4.450   3.558 -1.0000 -0.8972 -1.6317
 4683SOL    MW418500   0.029   4.529   3.573  0.0195  0.2305  0.6732
 4684SOL     OW18501   3.525   3.630   1.301  0.1641  0.3144 -0.4995
 4684SOL    HW218502   3.520   3.722   1.324 -0.3295 -0.0435  0.8943
 4684SOL    HW318503   3.443   3.592   1.333  0.1824 -0.5347 -1.4179
 4684SOL    MW418504   3.514   3.637   1.308  0.5023 -0.4487  0.1836
 4685SOL     OW18505   0.899   1.802   5.206 -0.4786  0.0476 -0.0277
 4685SOL    HW218506   0.833   1.869   5.191 -2.2392 -1.1236  1.9043
 4685SOL    HW318507   0.855   1.720   5.185  0.8556 -0.6886 -0.0813
 4685SOL    MW418508   0.884   1.800   5.201 -0.0021  0.3828  0.7890
 4686SOL     OW18509   2.843   0.162   0.949 -0.0316  0.2696 -0.3407
 4686SOL    HW218510   2.795   0.237   0.913 -1.9841 -1.2294 -1.1046
 4686SOL    HW318511   2.774   0.106   0.986  1.3262 -1.2586 -0.0296
 4686SOL    MW418512   2.827   0.164   0.949 -0.0548  0.2246  0.7605
 4687SOL     OW18513   0.418   3.300   5.581  0.1938  0.2772  0.3470
 4687SOL    HW218514   0.506   3.267   5.565  0.4154  1.0712 -0.0964
 4687SOL    HW318515   0.362   3.222   5.580  0.7140 -0.0939 -0.6445
 4687SOL    MW418516   0.422   3.285   5.579  0.3510  0.0316  0.9030
 4688SOL     OW18517   0.469   4.405   1.674  0.0495 -0.2144 -0.3451
 4688SOL    HW218518   0.402   4.359   1.624 -1.1467  0.8539  0.2004
 4688SOL    HW318519   0.476   4.356   1.755  0.3462 -0.6617 -0.6421
 4688SOL    MW418520   0.461   4.393   1.678 -0.7187 -0.2057 -0.8157
 4689SOL     OW18521   4.632   0.734   0.571  0.3315  0.3159 -0.2281
 4689SOL    HW218522   4.709   0.678   0.565 -0.8979 -1.4870  0.0546
 4689SOL    HW318523   4.589   0.708   0.652 -1.1478  0.5049 -0.9133
 4689SOL    MW418524   4.636   0.724   0.581  0.4739  0.1054  0.1273
 4690SOL     OW18525   1.609   2.641   1.008  0.6769 -0.1014  0.5510
 4690SOL    HW218526   1.528   2.591   1.001  0.0236  1.0592 -0.4768
 4690SOL    HW318527   1.652   2.630   0.924  2.9164 -2.7851  1.8816
 4690SOL    MW418528   1.604   2.633   0.996  0.2647  0.4295 -0.6472
 4691SOL     OW18529   5.445   2.954   5.032 -0.3587 -0.1716 -1.1022
 4691SOL    HW218530   5.523   2.907   5.062 -0.3627  0.3181 -0.3120
 4691SOL    HW318531   5.372   2.899   5.058 -0.3360 -0.0109 -0.6973
 4691SOL    MW418532   5.446   2.940   5.039 -0.1665  0.0760  0.7352
 4692SOL     OW18533   4.589   4.309   1.179 -0.1550 -0.7381  0.3174
 4692SOL    HW218534   4.519   4.331   1.240 -1.4015 -2.2769 -0.4868
 4692SOL    HW318535   4.596   4.214   1.183 -0.8316 -0.9854 -2.4404
 4692SOL    MW418536   4.581   4.299   1.187  0.8767  0.4625 -0.0475
 4693SOL     OW18537   6.423   5.989   3.752  0.6342 -1.0425  0.2367
 4693SOL    HW218538   6.381   6.074   3.735 -1.3409 -2.2773 -1.6203
 4693SOL    HW318539   6.437   5.988   3.847  1.1335  1.5024  0.2725
 4693SOL    MW418540   6.419   6.000   3.762 -0.1358 -0.2608  0.4366
 4694SOL     OW18541   6.405   5.089   5.737 -0.0840 -0.2560  0.0265
 4694SOL    HW218542   6.408   5.116   5.829  4.3844  2.2143 -0.5673
 4694SOL    HW318543   6.343   5.150   5.697 -1.1162 -0.5337  1.1367
 4694SOL    MW418544   6.397   5.101   5.744  0.4927 -0.4498 -0.1757
 4695SOL     OW18545   1.762   4.995   3.129  0.0119 -0.1636 -0.0729
 4695SOL    HW218546   1.801   4.909   3.112  0.8734  0.4289 -1.2403
 4695SOL    HW318547   1.757   5.000   3.225 -0.4734 -1.6832  0.0064
 4695SOL    MW418548   1.766   4.984   3.140 -0.3773  0.3753  0.3707
 4696SOL     OW18549   1.071   2.803   4.827  0.0023  0.2219 -0.0489
 4696SOL    HW218550   1.148   2.759   4.791 -0.4882  0.0014 -0.8576
 4696SOL    HW318551   0.998   2.743   4.809 -0.6940  1.3654 -1.2463
 4696SOL    MW418552   1.071   2.789   4.820  0.3888  0.3282  0.0663
 4697SOL     OW18553   3.315   5.873   1.445 -0.1969 -0.5139  0.0322
 4697SOL    HW218554   3.240   5.876   1.387  1.1388  2.0610 -1.7589
 4697SOL    HW318555   3.278   5.880   1.533 -2.0580 -0.0524 -0.7515
 4697SOL    MW418556   3.300   5.874   1.449 -0.3222 -0.5936 -0.2472
 4698SOL     OW18557   4.944   5.004   0.608  0.2054  0.0477  0.5351
 4698SOL    HW218558   4.895   4.923   0.620  1.2200 -0.5684  0.6440
 4698SOL    HW318559   5.029   4.976   0.573  0.2630  1.1324 -0.2408
 4698SOL    MW418560   4.949   4.989   0.605 -0.2478 -0.4867  0.3573
 4699SOL     OW18561   6.267   5.513   3.141 -0.5649 -0.2229  0.6125
 4699SOL    HW218562   6.261   5.421   3.114  1.5474 -0.8166  1.9484
 4699SOL    HW318563   6.299   5.559   3.063 -2.6425 -0.3803 -0.3903
 4699SOL    MW418564   6.270   5.507   3.127 -0.2191  0.0068 -0.2379
 4700SOL     OW18565   3.299   5.503   3.620 -0.3544  0.1982 -0.3218
 4700SOL    HW218566   3.343   5.558   3.684  0.7840  0.2819 -1.1530
 4700SOL    HW318567   3.320   5.413   3.646 -1.9400  0.1159  0.8397
 4700SOL    MW418568   3.307   5.498   3.632 -0.7688  0.9355  0.0897
 4701SOL     OW18569   1.549   1.935   2.977  0.4876 -0.2578  0.5980
 4701SOL    HW218570   1.560   1.903   3.067 -1.4949 -1.5794  0.4302
 4701SOL    HW318571   1.501   1.866   2.932  0.5218  0.8253 -1.2183
 4701SOL    MW418572   1.544   1.922   2.983  0.2256 -0.0720 -0.3073
 4702SOL     OW18573   3.194   0.541   3.872 -0.3449  0.4210  0.1046
 4702SOL    HW218574   3.184   0.518   3.964 -0.7471  1.6939  0.4015
 4702SOL    HW318575   3.288   0.536   3.856 -0.4997 -3.3627 -0.4274
 4702SOL    MW418576   3.205   0.537   3.882 -0.6822  0.1516  0.0220
 4703SOL     OW18577   5.226   4.343   5.911  0.6660  0.1932  0.5035
 4703SOL    HW218578   5.313   4.311   5.887  0.3748 -0.1599 -0.0977
 4703SOL    HW318579   5.195   4.283   5.979  0.5982 -0.1033  0.2096
 4703SOL    MW418580   5.233   4.331   5.917 -0.1319  0.3605  0.4139
 4704SOL     OW18581   6.170   2.894   4.272 -0.1517  0.3189 -0.1065
 4704SOL    HW218582   6.103   2.936   4.217 -1.4304 -1.5511 -0.0493
 4704SOL    HW318583   6.235   2.963   4.286 -2.2803  2.3865  0.2471
 4704SOL    MW418584   6.170   2.909   4.266 -0.1049  0.3627  0.2620
 4705SOL     OW18585   3.503   0.034   0.021  0.5597 -0.5226 -0.3920
 4705SOL    HW218586   3.457  -0.021  -0.042  3.0210 -2.6648 -0.5108
 4705SOL    HW318587   3.596   0.021   0.001  1.3824  0.1561  2.5045
 4705SOL    MW418588   3.509   0.025   0.010 -0.1386 -0.2243 -0.0049
 4706SOL     OW18589   6.416   5.070   2.382  0.0962 -0.1929 -0.7992
 4706SOL    HW218590   6.477   5.002   2.410  2.8540  1.9512 -1.1789
 4706SOL    HW318591   6.383   5.039   2.297  2.5873 -0.3887 -1.7917
 4706SOL    MW418592   6.420   5.057   2.374 -0.5239 -0.1680  0.2395
 4707SOL     OW18593   0.941   0.654   0.607  0.4659 -0.0827 -0.3783
 4707SOL    HW218594   0.988   0.644   0.690 -0.5432 -1.3701  0.0617
 4707SOL    HW318595   1.009   0.646   0.540  1.2833  0.9364  0.2955
 4707SOL    MW418596   0.956   0.652   0.609  0.0679 -0.3628  0.3037
 4708SOL     OW18597   1.094   3.982   6.252  0.0430  0.3027  0.2042
 4708SOL    HW218598   1.183   3.948   6.244  0.9776  2.7007 -0.5832
 4708SOL    HW318599   1.096   4.036   6.331 -0.9432 -0.1973  0.5845
 4708SOL    MW418600   1.106   3.985   6.262 -0.4660  0.1928 -0.4305
 4709SOL     OW18601   2.208   5.835   4.314  0.7193  0.9143  0.0130
 4709SOL    HW218602   2.265   5.909   4.291  1.6305  0.9681  2.1222
 4709SOL    HW318603   2.137   5.875   4.366  0.4276  0.4844 -0.0530
 4709SOL    MW418604   2.206   5.850   4.318  0.3184 -0.7044  0.4824
 4710SOL     OW18605   5.513   6.200   6.349  0.1964 -0.4298 -0.5336
 4710SOL    HW218606   5.482   6.112   6.371 -0.1974 -0.1267  0.1455
 4710SOL    HW318607   5.472   6.219   6.265 -1.7262  0.0631  0.4640
 4710SOL    MW418608   5.503   6.191   6.341 -0.4343 -0.0075  0.2111
 4711SOL     OW18609   2.126   5.152   1.866 -0.0165  0.2155  0.1004
 4711SOL    HW218610   2.201   5.195   1.905  1.0775 -1.5084  0.0219
 4711SOL    HW318611   2.066   5.223   1.842  2.6111  1.8971 -2.0597
 4711SOL    MW418612   2.128   5.167   1.868 -0.2345  0.7849  0.6415
 4712SOL     OW18613   1.290   5.753   2.854 -0.3925 -0.3046 -0.2980
 4712SOL    HW218614   1.361   5.795   2.902  0.0603 -0.5576 -0.7442
 4712SOL    HW318615   1.218   5.816   2.857 -0.6756 -0.6637  1.4737
 4712SOL    MW418616   1.290   5.767   2.861  0.1074 -0.9532 -0.0958
 4713SOL     OW18617   3.241   1.705   4.514  0.3927 -0.3122  0.2780
 4713SOL    HW218618   3.179   1.672   4.449  0.7520 -0.0863 -0.1824
 4713SOL    HW318619   3.215   1.796   4.528 -0.1161 -0.5527  0.9747
 4713SOL    MW418620   3.229   1.713   4.507 -0.4172 -0.5211 -0.5089
 4714SOL     OW18621   6.372   4.066   4.850 -0.5249 -0.6165  0.5720
 4714SOL    HW218622   6.298   4.120   4.821  1.3660  1.8988  0.0445
 4714SOL    HW318623   6.407   4.027   4.769 -0.8924 -1.3046  0.7404
 4714SOL    MW418624   6.367   4.068   4.835 -0.1612  0.0728  0.5506
 4715SOL     OW18625   1.837   0.229   0.753 -0.1181  0.0503 -0.6193
 4715SOL    HW218626   1.803   0.253   0.839  0.0827  0.9519 -0.7745
 4715SOL    HW318627   1.761   0.193   0.707 -0.2763 -0.2340 -0.1420
 4715SOL    MW418628   1.822   0.228   0.758  0.0409  0.5428 -0.0472
 4716SOL     OW18629   6.050   4.684   2.845  0.0389  0.5400  0.1022
 4716SOL    HW218630   5.963   4.720   2.864 -0.4505 -1.0078  0.8807
 4716SOL    HW318631   6.049   4.597   2.882  2.1239  0.6727  0.5657
 4716SOL    MW418632   6.038   4.677   2.852 -0.0644  0.2647 -0.3232
 4717SOL     OW18633   6.002   1.979   3.025  0.4018  0.4151 -0.0219
 4717SOL    HW218634   6.005   1.886   3.045  1.0378 -0.1092 -2.2866
 4717SOL    HW318635   5.908   2.001   3.027  0.1953 -0.4404 -0.1502
 4717SOL    MW418636   5.990   1.970   3.028 -0.2770 -0.0820  0.4892
 4718SOL     OW18637   5.669   0.302   5.636  0.1044  0.4169  0.0270
 4718SOL    HW218638   5.752   0.340   5.609  0.4111 -1.0636 -1.1859
 4718SOL    HW318639   5.618   0.296   5.556 -0.5856 -0.1455  0.5009
 4718SOL    MW418640   5.673   0.306   5.622  0.5869 -0.7751  0.1211
 4719SOL     OW18641   5.660   5.845   0.831  0.5504  0.1306  0.3130
 4719SOL    HW218642   5.590   5.780   0.842  0.2645  0.2700 -0.6100
 4719SOL    HW318643   5.738   5.801   0.865  0.4158 -0.8084 -0.5169
 4719SOL    MW418644   5.661   5.830   0.837 -0.4041  0.4070 -0.1619
 4720SOL     OW18645   1.312   3.584   4.114  0.6263 -0.2184  0.0328
 4720SOL    HW218646   1.218   3.577   4.130  0.3803  0.9802 -0.7086
 4720SOL    HW318647   1.351   3.584   4.201  0.2550 -3.7227  0.3132
 4720SOL    MW418648   1.305   3.583   4.127 -0.3101 -0.8170 -0.0430
 4721SOL     OW18649   5.074   4.191   6.082 -0.4526  0.0299 -0.1035
 4721SOL    HW218650   5.121   4.111   6.104  0.9904  1.0329  0.5925
 4721SOL    HW318651   5.034   4.219   6.165 -1.0497 -0.0219 -0.3679
 4721SOL    MW418652   5.075   4.184   6.096 -0.1201  0.6968 -0.1006
 4722SOL     OW18653   6.387   1.957   6.027 -0.3269 -0.1096  0.2950
 4722SOL    HW218654   6.345   1.983   5.944 -0.4019 -0.7571  0.1254
 4722SOL    HW318655   6.317   1.967   6.092 -0.4410 -0.1796  0.1844
 4722SOL    MW418656   6.372   1.962   6.025  0.7011  0.0222  0.0414
 4723SOL     OW18657   5.825   3.094   4.348 -0.3641  0.1088 -0.2128
 4723SOL    HW218658   5.765   3.169   4.352  0.8178  1.0756  0.1143
 4723SOL    HW318659   5.786   3.028   4.404 -2.1828 -0.1073 -1.6430
 4723SOL    MW418660   5.812   3.095   4.356 -0.3155  0.0281 -0.0485
 4724SOL     OW18661   1.051   4.971   5.025 -0.1761  0.1832 -0.2912
 4724SOL    HW218662   1.043   4.876   5.016  0.2389  0.2233 -1.3494
 4724SOL    HW318663   0.965   5.005   5.003  0.3183  0.1589 -2.5153
 4724SOL    MW418664   1.039   4.963   5.021 -0.0017 -0.6268 -0.1222
 4725SOL     OW18665   0.608   0.510   5.937  0.1396  0.3316 -0.4206
 4725SOL    HW218666   0.637   0.584   5.885  0.3828  0.0832 -0.6376
 4725SOL    HW318667   0.610   0.435   5.877  1.2039 -0.1157  0.1418
 4725SOL    MW418668   0.612   0.510   5.923  0.1489  0.3420 -0.1464
 4726SOL     OW18669   4.878   2.271   6.070 -0.0042 -0.2939 -0.2873
 4726SOL    HW218670   4.922   2.311   5.996 -1.6143 -0.4982 -1.4092
 4726SOL    HW318671   4.786   2.265   6.043 -0.3950 -1.6345  1.1710
 4726SOL    MW418672   4.872   2.275   6.057 -0.3593  0.0420 -0.0045
 4727SOL     OW18673   3.511   4.301   5.424  0.1928  0.2926  0.6504
 4727SOL    HW218674   3.444   4.253   5.376 -0.4431  0.8916  0.9205
 4727SOL    HW318675   3.572   4.331   5.356 -0.9600  1.5600  0.1218
 4727SOL    MW418676   3.510   4.299   5.408 -0.6613  0.0277  0.0916
 4728SOL     OW18677   1.255   5.500   2.385 -0.4063  0.4884 -0.1172
 4728SOL    HW218678   1.333   5.547   2.357  0.8941 -0.9912  0.8724
 4728SOL    HW318679   1.182   5.554   2.354  0.9740  3.0261  0.7711
 4728SOL    MW418680   1.256   5.513   2.377  0.2534 -0.1621 -1.0936
 4729SOL     OW18681   5.856   5.693   0.969 -0.0990 -0.1510 -0.2106
 4729SOL    HW218682   5.933   5.644   0.940 -0.0691  0.0619 -0.5024
 4729SOL    HW318683   5.790   5.626   0.985 -0.3636 -0.2419 -1.5427
 4729SOL    MW418684   5.857   5.678   0.967 -0.0950  0.3363 -0.7978
 4730SOL     OW18685   4.768   0.549   0.350  0.1973 -0.4649 -0.3182
 4730SOL    HW218686   4.808   0.463   0.338 -0.6831 -1.5527  3.2491
 4730SOL    HW318687   4.674   0.530   0.355  0.0390  0.5859  1.0899
 4730SOL    MW418688   4.761   0.535   0.349 -0.3787  0.2506  0.2872
 4731SOL     OW18689   4.892   5.693   0.489  0.2251 -0.7297 -0.2424
 4731SOL    HW218690   4.947   5.629   0.535 -1.1992 -0.5927  1.8098
 4731SOL    HW318691   4.898   5.772   0.542  1.6450  0.8059 -2.5415
 4731SOL    MW418692   4.900   5.695   0.502 -0.3025 -0.3785  0.0086
 4732SOL     OW18693   4.719   3.477   3.380  0.0731 -0.1969  0.1811
 4732SOL    HW218694   4.776   3.442   3.312  0.2284  0.2876  0.0589
 4732SOL    HW318695   4.632   3.441   3.360  0.4740 -1.6124  0.8454
 4732SOL    MW418696   4.715   3.467   3.369 -0.1473  0.1753  0.3437
 4733SOL     OW18697   1.598   5.495   5.382 -0.2563 -0.4566 -0.1373
 4733SOL    HW218698   1.685   5.502   5.420  0.1522 -0.6826 -1.0084
 4733SOL    HW318699   1.542   5.470   5.456  0.1065  1.2585  0.7720
 4733SOL    MW418700   1.602   5.493   5.397  0.3782  0.0197 -0.1355
 4734SOL     OW18701   4.385   3.348   1.415  0.2200  0.3940  0.0212
 4734SOL    HW218702   4.334   3.391   1.347 -1.7557  0.3903  1.4102
 4734SOL    HW318703   4.476   3.369   1.394 -0.3215  0.5292 -2.4748
 4734SOL    MW418704   4.390   3.357   1.403 -0.0293  0.7046  0.3462
 4735SOL     OW18705   3.763   3.343   5.819  0.2666 -0.2808  0.0793
 4735SOL    HW218706   3.819   3.388   5.756  0.2126  0.6404  0.6772
 4735SOL    HW318707   3.755   3.404   5.892 -1.2015 -0.5484  0.1720
 4735SOL    MW418708   3.769   3.357   5.820 -0.3604  0.7956  0.3661
 4736SOL     OW18709   6.073   3.315   4.284  0.3672  0.3100  0.1653
 4736SOL    HW218710   6.002   3.252   4.273  0.5219  0.4787 -2.2701
 4736SOL    HW318711   6.152   3.261   4.287  0.3043  0.2463  0.9090
 4736SOL    MW418712   6.074   3.300   4.283  0.3881 -0.3325 -0.3852
 4737SOL     OW18713   2.391   6.169   0.556  0.3738  0.1035 -0.1554
 4737SOL    HW218714   2.431   6.210   0.480  0.3086  1.3440  0.4452
 4737SOL    HW318715   2.457   6.175   0.625  0.2494 -0.5329  0.0224
 4737SOL    MW418716   2.405   6.175   0.555  0.2898 -0.0243  0.2649
 4738SOL     OW18717   5.127  -0.002   5.338 -0.2048 -0.3331  0.3517
 4738SOL    HW218718   5.191   0.013   5.268 -1.4240  2.3664 -0.3326
 4738SOL    HW318719   5.178  -0.038   5.410  1.5402 -0.9172 -1.1127
 4738SOL    MW418720   5.142  -0.005   5.338  0.2904 -0.3789  0.2074
 4739SOL     OW18721   5.325   5.058   3.557  0.6831 -0.8855 -0.1218
 4739SOL    HW218722   5.318   5.147   3.522 -0.1630 -0.5963  0.7405
 4739SOL    HW318723   5.234   5.030   3.571  0.9761 -1.2633  1.1465
 4739SOL    MW418724   5.312   5.066   3.554 -0.0483  0.2700  0.4782
 4740SOL     OW18725   0.583   2.154   1.797 -0.0085  0.0823  0.0460
 4740SOL    HW218726   0.537   2.115   1.871 -0.0615 -0.0223 -0.0408
 4740SOL    HW318727   0.652   2.208   1.836  0.7866 -0.9759  0.1549
 4740SOL    MW418728   0.586   2.156   1.812  0.2710 -0.3829 -0.6949
 4741SOL     OW18729   2.713   5.469   5.275 -0.3714 -0.2246  0.6043
 4741SOL    HW218730   2.732   5.450   5.183  0.8555 -0.1224  0.8108
 4741SOL    HW318731   2.656   5.399   5.303 -0.2764 -0.5863 -0.0815
 4741SOL    MW418732   2.708   5.458   5.267 -0.3340  0.0590 -0.6976
 4742SOL     OW18733   3.227   3.208   2.123 -0.2017  0.1254  0.0021
 4742SOL    HW218734   3.299   3.187   2.182 -0.0535 -0.2453 -0.3084
 4742SOL    HW318735   3.159   3.145   2.146  0.2482 -0.7214 -0.9393
 4742SOL    MW418736   3.228   3.197   2.134 -0.1570  0.0460  0.0273
 4743SOL     OW18737   3.262   1.950   5.807 -0.2993  0.0632  0.1688
 4743SOL    HW218738   3.311   1.961   5.725 -2.5185  1.5118 -1.0543
 4743SOL    HW318739   3.325   1.910   5.867  2.3329  1.6686 -1.3296
 4743SOL    MW418740   3.277   1.947   5.804  0.0890  0.5570 -0.0628
 4744SOL     OW18741   1.362   4.835   0.684 -0.1872  0.0364  0.0509
 4744SOL    HW218742   1.380   4.878   0.601  0.9762 -1.0233 -0.2892
 4744SOL    HW318743   1.324   4.750   0.659  0.5737 -0.4680  0.5624
 4744SOL    MW418744   1.359   4.829   0.670 -0.1732 -0.1693  0.2416
 4745SOL     OW18745   3.854   5.581   1.170  0.1295 -0.2299 -0.1485
 4745SOL    HW218746   3.761   5.574   1.149 -0.1215  0.2267  0.7646
 4745SOL    HW318747   3.873   5.675   1.165  0.1349 -0.1282  1.2357
 4745SOL    MW418748   3.844   5.593   1.167  0.2591  0.3198 -0.3113
 4746SOL     OW18749   5.556   4.508   5.444 -0.3130  0.8204  0.1495
 4746SOL    HW218750   5.539   4.574   5.511 -1.8724  0.0895  0.5147
 4746SOL    HW318751   5.502   4.535   5.369 -1.2381 -0.2025  0.4260
 4746SOL    MW418752   5.547   4.520   5.443  0.0471 -0.7470 -0.3443
 4747SOL     OW18753   1.987   1.856   1.617 -0.1833  0.0365 -0.2659
 4747SOL    HW218754   2.045   1.919   1.658 -0.4073  0.7121 -0.9670
 4747SOL    HW318755   1.901   1.874   1.655 -0.9454  2.3943 -2.7671
 4747SOL    MW418756   1.983   1.866   1.628 -0.4093 -0.7515  0.0851
 4748SOL     OW18757   5.859   1.972   5.475 -0.0402 -0.5752 -0.4001
 4748SOL    HW218758   5.772   1.934   5.468 -1.2948  1.4767  2.0969
 4748SOL    HW318759   5.846   2.065   5.457  1.3444 -0.0117  1.2044
 4748SOL    MW418760   5.846   1.979   5.472  0.5095  0.1228 -0.1910
 4749SOL     OW18761   1.840   5.658   1.990 -0.0909  0.0887 -0.2716
 4749SOL    HW218762   1.809   5.695   2.072  0.4961 -0.8909  0.4212
 4749SOL    HW318763   1.774   5.683   1.925 -0.4557  1.0474  0.4481
 4749SOL    MW418764   1.827   5.666   1.992 -0.4268  0.3992 -0.1809
 4750SOL     OW18765   4.543   4.847   6.017 -0.0412  0.4186 -0.3049
 4750SOL    HW218766   4.453   4.857   6.049 -0.2499  0.4208 -0.8831
 4750SOL    HW318767   4.584   4.931   6.039  0.0362  0.1528  0.6167
 4750SOL    MW418768   4.536   4.860   6.024 -0.2008 -0.2117  0.1826
 4751SOL     OW18769   6.296   4.084   6.031  0.3903 -0.0896  0.6048
 4751SOL    HW218770   6.303   4.167   6.077  0.3928  0.3607 -0.1926
 4751SOL    HW318771   6.385   4.063   6.004  0.6693 -1.1918  2.2017
 4751SOL    MW418772   6.308   4.092   6.033  0.4318 -0.1802  0.2344
 4752SOL     OW18773   4.675   3.583   4.138 -0.1349 -0.2333 -0.1465
 4752SOL    HW218774   4.594   3.591   4.188  0.0145 -1.8952  0.4045
 4752SOL    HW318775   4.714   3.670   4.141 -0.1746 -0.2441  2.5635
 4752SOL    MW418776   4.669   3.595   4.145 -0.3677  0.1471  0.2748
 4753SOL     OW18777   1.593   2.051   1.364 -0.4917 -0.2867  0.5372
 4753SOL    HW218778   1.621   1.962   1.342  2.6605  0.5087  0.8844
 4753SOL    HW318779   1.583   2.095   1.280 -3.0963 -1.1536  0.3084
 4753SOL    MW418780   1.595   2.045   1.350 -0.0344  0.1023 -0.6337
 4754SOL     OW18781   5.669   3.636   3.597  0.3660 -0.0924 -0.3633
 4754SOL    HW218782   5.653   3.561   3.540  0.8128 -0.0085 -0.5987
 4754SOL    HW318783   5.747   3.677   3.561 -0.3267  0.9459 -0.7130
 4754SOL    MW418784   5.677   3.631   3.585 -0.0100 -0.3839 -0.2935
 4755SOL     OW18785   5.241   4.563   1.555 -0.0502 -0.4779  0.0982
 4755SOL    HW218786   5.187   4.499   1.510  1.7898 -2.8845  1.0798
 4755SOL    HW318787   5.248   4.531   1.645  0.6659  1.3048  0.7344
 4755SOL    MW418788   5.235   4.551   1.561  0.8858  0.0863  0.6050
 4756SOL     OW18789   0.646   5.095   5.061 -0.1322  0.4124  0.5415
 4756SOL    HW218790   0.715   5.122   5.121  0.7070  0.2696 -0.3376
 4756SOL    HW318791   0.629   5.003   5.083  0.8012  0.0982 -0.0222
 4756SOL    MW418792   0.653   5.086   5.072  0.2521 -0.3125 -0.6947
 4757SOL     OW18793   4.039   0.153   4.365 -0.3079 -0.0347 -0.6448
 4757SOL    HW218794   4.027   0.129   4.457 -0.3904 -0.5833 -0.8016
 4757SOL    HW318795   4.020   0.247   4.363 -0.4210 -0.0437 -0.1225
 4757SOL    MW418796   4.035   0.163   4.377 -0.2607 -0.1873 -0.5499
 4758SOL     OW18797   5.543   3.459   0.721 -0.3808  0.1601 -0.0033
 4758SOL    HW218798   5.608   3.517   0.761 -0.6877 -0.5246  1.5526
 4758SOL    HW318799   5.505   3.512   0.651 -0.2710  1.6559  1.0082
 4758SOL    MW418800   5.547   3.474   0.717  0.1217  0.1135  0.1011
 4759SOL     OW18801   5.146   2.507   6.206 -0.6594  0.0963  0.5286
 4759SOL    HW218802   5.053   2.491   6.221 -0.7558  0.4998  0.3675
 4759SOL    HW318803   5.157   2.500   6.111 -0.1738 -1.7788  0.6758
 4759SOL    MW418804   5.135   2.504   6.196  0.0771 -0.6134  0.1234
 4760SOL     OW18805   3.580   5.705   3.553  0.6166  0.0689 -0.7030
 4760SOL    HW218806   3.617   5.748   3.631  0.7794  2.3714 -1.9579
 4760SOL    HW318807   3.592   5.612   3.569  1.2582  0.4966  1.7233
 4760SOL    MW418808   3.587   5.699   3.566  0.5795  0.2299 -0.0284
 4761SOL     OW18809   5.570   2.662   1.317  0.1392  0.2703  0.0930
 4761SOL    HW218810   5.600   2.579   1.282 -0.9939 -0.2079  0.2056
 4761SOL    HW318811   5.576   2.724   1.244  0.0986 -0.1387 -0.2566
 4761SOL    MW418812   5.575   2.659   1.303  0.1378 -0.1327  0.1086
 4762SOL     OW18813   3.606   1.436   2.441  0.5769 -0.7908  0.1439
 4762SOL    HW218814   3.653   1.370   2.491  0.6354 -0.5532  0.4054
 4762SOL    HW318815   3.522   1.446   2.487  1.6090  1.2749  1.7537
 4762SOL    MW418816   3.601   1.429   2.453  0.3670  0.1647  0.1069
 4763SOL     OW18817   5.252   3.495   3.753  0.3830  0.8934  0.1472
 4763SOL    HW218818   5.239   3.404   3.780 -0.9625  0.4155 -1.9129
 4763SOL    HW318819   5.183   3.543   3.798  0.4345  0.7104  0.4224
 4763SOL    MW418820   5.241   3.489   3.762 -0.1592  0.1788  0.1547
 4764SOL     OW18821   0.298   2.300   2.321 -0.3361  0.4319  0.2039
 4764SOL    HW218822   0.230   2.241   2.354 -0.2075 -0.1408 -0.5341
 4764SOL    HW318823   0.377   2.247   2.320 -0.4403  0.2431 -1.5293
 4764SOL    MW418824   0.299   2.285   2.325 -0.6001 -0.4148 -0.0181
 4765SOL     OW18825   6.289   2.203   1.398  0.2442  0.1708 -0.3038
 4765SOL    HW218826   6.374   2.192   1.356  1.1261  0.6686  1.2598
 4765SOL    HW318827   6.239   2.126   1.371  0.9466  0.1967 -1.7720
 4765SOL    MW418828   6.294   2.191   1.389 -0.0653 -0.4079 -0.1179
 4766SOL     OW18829   3.620   0.052   4.666 -0.2848  0.0268 -0.4195
 4766SOL    HW218830   3.630   0.147   4.659  0.0001 -0.1426 -3.1936
 4766SOL    HW318831   3.681   0.016   4.602 -1.2562 -1.9981 -0.2875
 4766SOL    MW418832   3.629   0.060   4.657 -0.2496  0.0981  0.4763
 4767SOL     OW18833   0.921   3.053   3.926  0.1102  0.0528 -0.7519
 4767SOL    HW218834   0.947   3.020   3.840  0.7101 -2.7975  0.4154
 4767SOL    HW318835   0.904   2.974   3.978 -0.2556  1.6738  1.7493
 4767SOL    MW418836   0.922   3.038   3.921 -0.0844  0.1852  0.4617
 4768SOL     OW18837   5.924   2.736   0.477  0.0593  0.1050 -0.3560
 4768SOL    HW218838   5.911   2.769   0.566 -2.1636 -0.7290 -0.3071
 4768SOL    HW318839   5.880   2.800   0.421  1.1734  0.4595 -0.8584
 4768SOL    MW418840   5.917   2.749   0.481 -0.1238  0.1972  0.6425
 4769SOL     OW18841   2.164   5.552   2.178  0.3740  0.5631 -0.1219
 4769SOL    HW218842   2.160   5.583   2.088 -1.8217  0.7692  0.0065
 4769SOL    HW318843   2.123   5.622   2.230 -0.0890 -0.3608  0.7939
 4769SOL    MW418844   2.158   5.565   2.173 -0.1781 -0.0569  0.4658
 4770SOL     OW18845   3.631   5.231   0.128 -0.4454 -0.3247 -0.5659
 4770SOL    HW218846   3.586   5.272   0.202  0.8301  1.9439 -0.9738
 4770SOL    HW318847   3.572   5.245   0.054 -0.3625  0.0860 -0.5543
 4770SOL    MW418848   3.617   5.238   0.128 -0.0837  0.3420  0.0771
 4771SOL     OW18849   1.880   4.332   5.750  0.1583 -0.0821  0.0705
 4771SOL    HW218850   1.807   4.270   5.743  0.7914 -0.7487 -0.8712
 4771SOL    HW318851   1.866   4.393   5.678  0.7511 -0.4744 -0.3906
 4771SOL    MW418852   1.868   4.332   5.740 -0.0717  0.1222 -0.0707
 4772SOL     OW18853   0.713   5.415   0.091 -0.3084 -0.1604 -0.1120
 4772SOL    HW218854   0.672   5.395   0.175 -1.8645 -2.2674 -1.2683
 4772SOL    HW318855   0.694   5.507   0.075 -0.5905  0.0801  1.5027
 4772SOL    MW418856   0.705   5.424   0.100  0.4464 -0.4646  0.2378
 4773SOL     OW18857   2.101   4.553   1.557  0.2103  0.1114 -0.1793
 4773SOL    HW218858   2.196   4.544   1.548  0.1362 -0.5143 -0.4184
 4773SOL    HW318859   2.076   4.615   1.489  0.4600  0.3524 -0.0527
 4773SOL    MW418860   2.110   4.560   1.547  0.1098  0.0378  0.1217
 4774SOL     OW18861   0.813   3.544   2.899  0.0688  0.2878  0.3298
 4774SOL    HW218862   0.832   3.637   2.912  1.1468 -0.1199  1.8454
 4774SOL    HW318863   0.885   3.512   2.845 -0.2866  0.3081 -0.1660
 4774SOL    MW418864   0.825   3.552   2.893  0.2227  0.0624  0.2406
 4775SOL     OW18865   0.264   5.239   4.696 -0.1744 -0.1647 -0.0759
 4775SOL    HW218866   0.336   5.180   4.719 -2.0361 -1.4954  3.0083
 4775SOL    HW318867   0.292   5.324   4.730  0.2755 -0.4940  0.3922
 4775SOL    MW418868   0.277   5.243   4.704 -0.0088 -0.4625 -0.7407
 4776SOL     OW18869   6.123   5.489   4.782 -0.2198 -0.2780 -0.3852
 4776SOL    HW218870   6.041   5.537   4.775 -0.2619 -0.6182 -4.0281
 4776SOL    HW318871   6.096   5.397   4.792 -0.1393 -0.1195  2.0852
 4776SOL    MW418872   6.109   5.483   4.783 -0.1336 -0.3336  0.2834
 4777SOL     OW18873   5.228   1.657   0.974  0.5195 -0.3761 -0.0050
 4777SOL    HW218874   5.176   1.733   0.945  1.3540 -0.7335 -2.7371
 4777SOL    HW318875   5.236   1.669   1.069 -0.5896  2.1706 -0.1298
 4777SOL    MW418876   5.222   1.669   0.983  1.0245 -0.0748  0.6293
 4778SOL     OW18877   2.738   3.337   4.374  0.7705 -0.2060  0.5366
 4778SOL    HW218878   2.777   3.413   4.419 -0.2306  0.6181  0.0616
 4778SOL    HW318879   2.807   3.271   4.375  2.0419  1.0505  0.0931
 4778SOL    MW418880   2.752   3.339   4.380  0.2105 -0.3012 -0.0959
 4779SOL     OW18881   5.410   0.299   3.142  0.2930  0.4385  0.0394
 4779SOL    HW218882   5.351   0.234   3.102  1.5614  0.2218 -1.6303
 4779SOL    HW318883   5.463   0.249   3.203  0.5550  0.0751 -0.4723
 4779SOL    MW418884   5.409   0.284   3.145  0.0334  0.5129  0.4922
 4780SOL     OW18885   5.240   2.265   6.307 -0.0550  0.2702 -0.2514
 4780SOL    HW218886   5.208   2.344   6.263 -0.7153 -0.3903 -0.9971
 4780SOL    HW318887   5.265   2.206   6.235 -4.0410 -2.0517 -0.0126
 4780SOL    MW418888   5.239   2.268   6.292 -0.2900 -0.8564  0.1724
 4781SOL     OW18889   2.097   4.854   3.313  0.2065  0.0564 -0.4296
 4781SOL    HW218890   2.110   4.918   3.243  1.5199 -0.6494 -0.8559
 4781SOL    HW318891   2.137   4.894   3.390  2.2268 -0.7667 -1.0022
 4781SOL    MW418892   2.104   4.868   3.314 -0.0263  0.2215 -0.2619
 4782SOL     OW18893   0.563   4.349   5.316 -0.4892  0.3418  0.4177
 4782SOL    HW218894   0.566   4.300   5.234 -0.0406  1.2512 -0.1282
 4782SOL    HW318895   0.646   4.328   5.359 -0.3798  0.4782  0.2728
 4782SOL    MW418896   0.574   4.340   5.311 -0.1611  0.5057 -0.6887
 4783SOL     OW18897   5.591   2.205   0.793 -0.5238 -0.2803  0.0647
 4783SOL    HW218898   5.536   2.174   0.865  0.6794  2.5272  2.3802
 4783SOL    HW318899   5.678   2.170   0.812 -0.5323 -0.9977 -1.0927
 4783SOL    MW418900   5.595   2.197   0.805  0.6377 -0.4947  0.2902
 4784SOL     OW18901   5.494   3.045   1.035  0.7772 -0.4701 -0.4226
 4784SOL    HW218902   5.400   3.032   1.046  0.7383  1.1771  2.0624
 4784SOL    HW318903   5.502   3.097   0.955 -0.6068  0.6898  0.1482
 4784SOL    MW418904   5.483   3.050   1.026  0.4154  0.0100 -0.2597
 4785SOL     OW18905   0.759   1.471   5.702 -0.2731  0.4288 -0.8455
 4785SOL    HW218906   0.769   1.482   5.607 -0.3137 -0.1092 -0.9160
 4785SOL    HW318907   0.664   1.477   5.717 -0.1742  1.8307 -0.6600
 4785SOL    MW418908   0.748   1.473   5.691  0.1018 -0.0769  0.1404
 4786SOL     OW18909   0.629   6.082   1.816  0.4013  0.2016 -0.1803
 4786SOL    HW218910   0.541   6.083   1.777  0.9622 -0.5381 -1.5075
 4786SOL    HW318911   0.619   6.132   1.897 -0.6092  2.6772 -1.7075
 4786SOL    MW418912   0.616   6.089   1.821 -0.1062  0.3194  0.0902
 4787SOL     OW18913   2.947   4.903   4.031 -0.3147  0.1557  0.0337
 4787SOL    HW218914   2.869   4.852   4.009  0.1419 -0.5808  0.0688
 4787SOL    HW318915   3.020   4.849   4.000  0.1399  1.9198 -2.1941
 4787SOL    MW418916   2.946   4.889   4.024  0.4667  0.5578 -0.3130
 4788SOL     OW18917   4.584   0.274   0.538  0.0509 -0.2315  0.7541
 4788SOL    HW218918   4.571   0.212   0.467  1.7545  0.8529 -0.5877
 4788SOL    HW318919   4.619   0.222   0.610  0.8860 -0.9460 -0.1443
 4788SOL    MW418920   4.587   0.259   0.539  0.5346 -0.7346  0.3447
 4789SOL     OW18921   0.995   1.154   4.673  0.2895  0.1262 -0.2430
 4789SOL    HW218922   1.022   1.109   4.753 -0.4308 -0.6668 -0.4346
 4789SOL    HW318923   0.904   1.127   4.660  0.5069 -0.0571 -1.5246
 4789SOL    MW418924   0.987   1.144   4.682 -0.2581  0.6485  0.1952
 4790SOL     OW18925   4.361   3.566   6.349 -0.7957  0.6190 -0.2060
 4790SOL    HW218926   4.452   3.591   6.360 -0.7941  0.3899  0.3575
 4790SOL    HW318927   4.339   3.590   6.259 -0.5209  1.7223  0.0187
 4790SOL    MW418928   4.370   3.572   6.339  0.1531  0.2832  0.0020
 4791SOL     OW18929   0.680   1.512   2.985 -0.1391  0.3187 -0.3694
 4791SOL    HW218930   0.602   1.466   3.015 -0.8155  0.9279 -1.1342
 4791SOL    HW318931   0.747   1.491   3.050 -0.7392 -0.7836 -0.0783
 4791SOL    MW418932   0.679   1.503   2.997 -0.0901 -0.2771  0.4296
 4792SOL     OW18933   2.969   4.958   2.934 -0.4098  0.2375  0.6397
 4792SOL    HW218934   3.020   4.886   2.896  1.7670  2.1716 -0.3824
 4792SOL    HW318935   2.878   4.930   2.928  0.3674 -2.4854  0.5011
 4792SOL    MW418936   2.964   4.945   2.928 -0.0548  0.3307 -0.2111
 4793SOL     OW18937   2.384   3.699   4.407 -0.1597  0.2083 -0.5680
 4793SOL    HW218938   2.396   3.606   4.427 -0.6808  0.1174 -0.6701
 4793SOL    HW318939   2.333   3.733   4.481 -0.0273  0.3989 -0.5635
 4793SOL    MW418940   2.379   3.691   4.419  0.2079  0.2067 -0.0810
 4794SOL     OW18941   6.205   5.851   2.866  0.0657  0.6324 -0.3373
 4794SOL    HW218942   6.238   5.922   2.921  0.5718 -1.0065  1.5937
 4794SOL    HW318943   6.117   5.832   2.900  0.6317 -0.8243  0.3893
 4794SOL    MW418944   6.198   5.858   2.878 -0.4251  0.2660  0.3508
 4795SOL     OW18945   2.893   1.126   4.908 -0.0679 -0.4451  0.4659
 4795SOL    HW218946   2.949   1.090   4.839  0.0491 -1.4546  1.0627
 4795SOL    HW318947   2.845   1.197   4.866 -1.4742 -2.2729 -1.2154
 4795SOL    MW418948   2.894   1.131   4.894  0.3818 -0.1833  0.3824
 4796SOL     OW18949   4.302   3.026   2.218 -0.6959 -0.2849 -0.0155
 4796SOL    HW218950   4.245   2.979   2.158 -1.2113  1.7228 -1.1991
 4796SOL    HW318951   4.356   3.082   2.162  1.0216 -0.6294  1.2133
 4796SOL    MW418952   4.301   3.028   2.203  0.0891  0.3938  0.6707
 4797SOL     OW18953   4.627   0.958   3.453  0.3661 -0.3286  0.0723
 4797SOL    HW218954   4.668   1.003   3.527 -0.9436  0.8660  0.1176
 4797SOL    HW318955   4.678   0.985   3.377  2.8319 -2.9310  0.6244
 4797SOL    MW418956   4.639   0.968   3.453 -0.0721 -0.0912  0.2677
 4798SOL     OW18957   3.718   4.377   5.213 -0.0953 -0.1090 -0.2072
 4798SOL    HW218958   3.766   4.358   5.133  0.8392 -0.2828  0.3867
 4798SOL    HW318959   3.769   4.445   5.257  1.7712 -2.8621  2.2684
 4798SOL    MW418960   3.731   4.384   5.209  0.1305  0.1693  0.2031
 4799SOL     OW18961   1.818   3.016   3.106 -0.1712 -0.4313  0.5378
 4799SOL    HW218962   1.759   3.064   3.164 -0.5666 -0.7390  0.3992
 4799SOL    HW318963   1.761   2.984   3.036  0.2817 -0.1602  0.0417
 4799SOL    MW418964   1.802   3.018   3.105 -0.2518 -0.1193  0.3975
 4800SOL     OW18965   1.011   5.178   1.926 -0.1066  0.6480  0.0349
 4800SOL    HW218966   1.019   5.087   1.954 -1.7009  0.3390 -0.4367
 4800SOL    HW318967   1.099   5.215   1.939  0.8491 -1.2166 -0.7049
 4800SOL    MW418968   1.024   5.171   1.931  0.1303  0.1763 -0.4791
 4801SOL     OW18969   6.026   4.838   1.316  0.2079  0.4386 -0.5501
 4801SOL    HW218970   6.069   4.880   1.242 -0.2440  0.8636 -0.5807
 4801SOL    HW318971   6.097   4.810   1.373  0.5279  2.5869  0.2048
 4801SOL    MW418972   6.041   4.840   1.314  0.0150 -0.3223 -0.2730
 4802SOL     OW18973   3.052   4.269   3.397  0.1923  0.1661 -0.2679
 4802SOL    HW218974   3.048   4.351   3.446 -0.2963 -0.4523  0.7560
 4802SOL    HW318975   3.117   4.216   3.444  1.6615  0.5139 -1.8115
 4802SOL    MW418976   3.060   4.273   3.410  0.2012  0.6615  0.3235
 4803SOL     OW18977   4.457   4.040   5.773  0.0571  0.2259  0.0865
 4803SOL    HW218978   4.478   4.030   5.866 -0.8363 -1.2245  0.1787
 4803SOL    HW318979   4.362   4.026   5.769  0.4229 -2.4211 -1.3179
 4803SOL    MW418980   4.447   4.037   5.785 -0.1150 -1.0766  0.0743
 4804SOL     OW18981   0.842   1.492   3.464  0.6594 -0.4060  1.0066
 4804SOL    HW218982   0.904   1.543   3.516 -0.0193  1.6657 -0.0882
 4804SOL    HW318983   0.757   1.532   3.483  0.2994 -0.1015 -1.0533
 4804SOL    MW418984   0.839   1.504   3.473  0.2635  0.0525 -0.5042
 4805SOL     OW18985   1.238   5.940   4.280 -0.2464 -0.0557 -0.2138
 4805SOL    HW218986   1.164   5.914   4.225  0.6589 -1.0650 -1.0057
 4805SOL    HW318987   1.210   5.921   4.370 -1.0019 -0.2554 -0.4892
 4805SOL    MW418988   1.224   5.934   4.285 -0.2180 -0.2829 -0.9297
 4806SOL     OW18989   0.340   2.635   3.897 -0.0915  0.8678  0.1682
 4806SOL    HW218990   0.431   2.663   3.891 -0.0819  1.3662  2.0878
 4806SOL    HW318991   0.342   2.557   3.952 -0.6074 -0.5335 -1.6854
 4806SOL    MW418992   0.352   2.628   3.903 -0.0959 -0.1828  0.4634
 4807SOL     OW18993   5.775   4.034   4.829 -0.2513  0.0684 -0.2863
 4807SOL    HW218994   5.803   4.084   4.753 -1.8099  1.3408 -0.0671
 4807SOL    HW318995   5.702   3.981   4.797  0.3561 -0.9042 -0.1207
 4807SOL    MW418996   5.769   4.033   4.815 -0.4012 -0.1882  0.1387
 4808SOL     OW18997   2.797   0.330   5.565  0.1306  0.5803  1.2923
 4808SOL    HW218998   2.708   0.332   5.528 -0.1089 -0.4443  1.7898
 4808SOL    HW318999   2.843   0.401   5.520 -1.1572  1.6412  1.5869
 4808SOL    MW419000   2.791   0.340   5.554 -0.5850 -0.1617 -0.8642
 4809SOL     OW19001   4.292   4.603   0.706  0.3663 -0.3161  0.3795
 4809SOL    HW219002   4.225   4.541   0.734 -0.1858 -0.1410 -0.5147
 4809SOL    HW319003   4.296   4.668   0.777 -0.7144 -0.1007  0.2589
 4809SOL    MW419004   4.284   4.603   0.719 -0.5353  0.2285 -0.7176
 4810SOL     OW19005   5.369   4.004   1.335  0.2123 -0.1296  0.3936
 4810SOL    HW219006   5.345   4.094   1.311  0.4177 -0.3647 -0.7548
 4810SOL    HW319007   5.461   4.011   1.362  0.3613 -0.0505 -0.1087
 4810SOL    MW419008   5.378   4.017   1.335 -0.5496  0.0334  0.2765
 4811SOL     OW19009   0.272   4.041   5.436  0.3708 -0.4312 -0.1372
 4811SOL    HW219010   0.290   4.072   5.347 -1.1593  0.9257 -0.0137
 4811SOL    HW319011   0.326   4.098   5.492 -0.2031  0.0727 -0.0884
 4811SOL    MW419012   0.282   4.053   5.432  0.1087 -0.4574  0.2989
 4812SOL     OW19013   0.374   2.150   2.619  0.1712  0.1816  0.7859
 4812SOL    HW219014   0.280   2.166   2.609  0.2437  0.8609  1.1518
 4812SOL    HW319015   0.392   2.170   2.711  0.9690  1.6920  0.3432
 4812SOL    MW419016   0.364   2.155   2.630  0.4421 -0.3664  0.3400
 4813SOL     OW19017   4.808   1.012   5.667 -0.0256  0.2635  0.6036
 4813SOL    HW219018   4.856   1.036   5.588 -0.6057  0.4467  0.3003
 4813SOL    HW319019   4.875   0.984   5.729  0.4243  0.0277  0.0121
 4813SOL    MW419020   4.823   1.011   5.665  0.7700 -0.2738 -0.6448
 4814SOL     OW19021   4.336   0.552   5.202 -0.2275 -0.3244  0.6648
 4814SOL    HW219022   4.314   0.618   5.267 -1.1697  1.4423 -1.3147
 4814SOL    HW319023   4.254   0.534   5.157  0.4348 -1.2890 -0.2075
 4814SOL    MW419024   4.322   0.558   5.204  0.4846  0.1349 -0.0811
 4815SOL     OW19025   1.510   1.479   0.647 -0.5317  0.2624  0.2689
 4815SOL    HW219026   1.427   1.504   0.606  0.4685  3.4329 -0.0795
 4815SOL    HW319027   1.571   1.470   0.573 -0.1748 -0.4799  0.6421
 4815SOL    MW419028   1.507   1.481   0.631  0.0788 -0.2341 -0.3522
 4816SOL     OW19029   3.348   1.282   2.404 -0.0521  0.0651 -0.1424
 4816SOL    HW219030   3.345   1.284   2.500  0.3486 -0.8828 -0.0994
 4816SOL    HW319031   3.426   1.231   2.384  0.6362  1.3913 -0.9941
 4816SOL    MW419032   3.358   1.276   2.414 -0.1788 -0.3352  0.1462
 4817SOL     OW19033   3.796   6.385   4.450 -0.0253  0.1066  0.2056
 4817SOL    HW219034   3.769   6.447   4.383 -0.4564 -0.3683 -0.0674
 4817SOL    HW319035   3.884   6.357   4.424  0.9624  1.9518  1.3072
 4817SOL    MW419036   3.804   6.390   4.438 -0.6278 -0.1536 -0.0684
 4818SOL     OW19037   4.371   0.696   6.200  0.4392  0.2210 -0.2580
 4818SOL    HW219038   4.388   0.608   6.167 -1.5650  0.5373 -2.3349
 4818SOL    HW319039   4.278   0.710   6.187  0.6057  2.5136  0.4395
 4818SOL    MW419040   4.361   0.687   6.194  0.1160 -0.2986  0.2150
 4819SOL     OW19041   4.565   1.767   2.136 -0.3502  0.0797 -0.0288
 4819SOL    HW219042   4.525   1.697   2.085 -0.3403 -0.9015  1.2757
 4819SOL    HW319043   4.507   1.778   2.212 -0.1356  1.2167 -0.0094
 4819SOL    MW419044   4.552   1.759   2.139  0.4532  0.2100 -0.3535
 4820SOL     OW19045   1.926   0.333   3.823  0.0125  0.6109  0.1014
 4820SOL    HW219046   1.953   0.261   3.766  1.1419  2.2737 -1.5881
 4820SOL    HW319047   1.886   0.290   3.899 -0.1127 -1.7457 -1.1993
 4820SOL    MW419048   1.924   0.318   3.825 -0.8799  0.3334 -0.2299
 4821SOL     OW19049   5.730   2.586   0.689 -0.2118  0.0978  0.3487
 4821SOL    HW219050   5.651   2.587   0.743  0.1288 -0.3721  0.8615
 4821SOL    HW319051   5.759   2.677   0.688  1.0159 -0.1831  2.8288
 4821SOL    MW419052   5.723   2.598   0.696 -0.2816 -0.6270  0.5814
 4822SOL     OW19053   4.587   1.420   5.988  0.4358 -0.0913 -0.0729
 4822SOL    HW219054   4.572   1.374   6.071  0.7517 -1.2033 -0.6137
 4822SOL    HW319055   4.627   1.354   5.931 -0.5419  0.4111 -1.3816
 4822SOL    MW419056   4.591   1.405   5.991  0.3828 -0.5126 -0.2835
 4823SOL     OW19057   1.534   1.785   5.735 -0.3619 -0.1117  0.4860
 4823SOL    HW219058   1.479   1.780   5.656  0.0276 -1.3363  0.2716
 4823SOL    HW319059   1.495   1.855   5.787 -0.3393  1.0539 -1.0141
 4823SOL    MW419060   1.521   1.794   5.731  0.1687  0.0702  0.1229
 4824SOL     OW19061   1.608   0.529   0.914  0.4779  0.3283 -0.2875
 4824SOL    HW219062   1.546   0.515   0.843 -0.2750 -0.6750  0.5316
 4824SOL    HW319063   1.600   0.450   0.969 -1.4266  2.4006  2.7133
 4824SOL    MW419064   1.599   0.517   0.912  0.8256  0.2504  0.2536
 4825SOL     OW19065   2.269   3.086   4.654 -0.1456 -0.1900 -0.2476
 4825SOL    HW219066   2.347   3.110   4.704 -0.7566  1.3166  0.0278
 4825SOL    HW319067   2.285   3.122   4.567 -0.9249  0.9726  0.0741
 4825SOL    MW419068   2.282   3.094   4.649 -0.1567 -0.0804 -0.0200
 4826SOL     OW19069   4.261   5.377   3.342  0.2941  0.1782 -0.0568
 4826SOL    HW219070   4.246   5.307   3.406  0.5947 -0.0969 -0.2889
 4826SOL    HW319071   4.248   5.336   3.257  0.5676  0.3838 -0.1980
 4826SOL    MW419072   4.257   5.363   3.339  0.2718  0.3602 -0.0113
 4827SOL     OW19073   3.109   2.225   5.618 -0.0231  0.0664 -0.3434
 4827SOL    HW219074   3.095   2.290   5.687 -0.5689  1.6958 -1.9013
 4827SOL    HW319075   3.056   2.257   5.545  0.9572 -1.3064 -1.7056
 4827SOL    MW419076   3.100   2.238   5.617 -0.0189  0.3616 -0.2088
 4828SOL     OW19077   3.733   5.064   5.218 -0.3333 -0.7076 -0.4664
 4828SOL    HW219078   3.645   5.043   5.249 -0.6411  1.7737  0.5827
 4828SOL    HW319079   3.729   5.048   5.124 -1.7767 -1.1010 -0.3663
 4828SOL    MW419080   3.721   5.059   5.209 -0.5186 -0.6755 -0.1752
 4829SOL     OW19081   6.426   5.128   4.904 -0.0230  0.5643  0.0127
 4829SOL    HW219082   6.433   5.142   4.810 -0.4891  0.5405 -0.0258
 4829SOL    HW319083   6.508   5.163   4.939  0.0771  0.7303 -0.3804
 4829SOL    MW419084   6.438   5.134   4.896  0.3190  0.3685 -0.2393
 4830SOL     OW19085   0.511   3.966   1.032 -0.0769  0.1680  0.1050
 4830SOL    HW219086   0.495   3.961   1.126  0.0981 -1.7298  0.0924
 4830SOL    HW319087   0.607   3.972   1.024  0.0031 -0.9171  0.0636
 4830SOL    MW419088   0.522   3.966   1.043  0.0079  0.6825 -0.0835
 4831SOL     OW19089   0.291   5.630   3.648  0.1016 -0.3736 -0.6732
 4831SOL    HW219090   0.200   5.657   3.640  0.1162 -0.6647 -2.0024
 4831SOL    HW319091   0.288   5.535   3.648  0.3553 -0.3970  0.1891
 4831SOL    MW419092   0.279   5.621   3.647  0.3471  0.2663  0.0016
 4832SOL     OW19093   3.135   4.635   2.416 -0.0391 -0.0648  0.1295
 4832SOL    HW219094   3.224   4.599   2.418 -0.0228  0.0205  1.1354
 4832SOL    HW319095   3.078   4.559   2.422 -0.0202 -0.0237  0.8220
 4832SOL    MW419096   3.139   4.621   2.417 -0.6696 -0.0480  0.4468
 4833SOL     OW19097   3.021   3.659   1.331 -0.3482  0.1509 -0.2779
 4833SOL    HW219098   3.109   3.630   1.352 -1.0142 -0.8555  1.2172
 4833SOL    HW319099   2.982   3.585   1.283 -1.6109 -1.0311  2.4070
 4833SOL    MW419100   3.027   3.646   1.327 -0.0154 -1.1281  0.6044
 4834SOL     OW19101   0.041   3.016   0.633  0.0056 -0.0405  0.6735
 4834SOL    HW219102   0.087   2.933   0.648 -0.3778 -0.0102  2.1925
 4834SOL    HW319103  -0.020   2.997   0.562  1.0082 -0.6194 -0.0574
 4834SOL    MW419104   0.039   3.002   0.626 -0.7779  0.7055 -0.3566
 4835SOL     OW19105   6.374   3.101   4.602 -0.0688 -0.4721  0.1559
 4835SOL    HW219106   6.297   3.045   4.605 -0.9843  0.5667 -1.9226
 4835SOL    HW319107   6.363   3.160   4.676 -2.2804  0.8099 -1.0870
 4835SOL    MW419108   6.362   3.101   4.612  0.2343 -0.5500 -0.5535
 4836SOL     OW19109   5.448   4.620   3.063  0.5363 -0.3328 -0.3314
 4836SOL    HW219110   5.501   4.686   3.108 -1.3416  1.1495 -0.1946
 4836SOL    HW319111   5.363   4.624   3.106  0.4224 -3.1280 -0.0794
 4836SOL    MW419112   5.444   4.629   3.075 -0.0849  0.1186  0.5087
 4837SOL     OW19113   3.109   5.679   0.642  0.7726  0.1368  0.1548
 4837SOL    HW219114   3.034   5.622   0.656  1.4870 -1.0086 -0.4804
 4837SOL    HW319115   3.083   5.764   0.678 -0.8375 -0.2123 -0.1268
 4837SOL    MW419116   3.096   5.683   0.648 -0.3318  0.5056 -0.6569
 4838SOL     OW19117   1.241   0.813   3.554 -0.4988 -0.0333  0.0463
 4838SOL    HW219118   1.317   0.860   3.586  0.2799 -1.0570 -0.2420
 4838SOL    HW319119   1.167   0.850   3.603 -0.2894  3.0251 -1.6956
 4838SOL    MW419120   1.241   0.824   3.565  0.3228 -0.2418 -0.0668
 4839SOL     OW19121   1.323   4.576   1.305  0.0445  0.5928  0.4505
 4839SOL    HW219122   1.265   4.509   1.270  0.6236 -0.7674  1.9822
 4839SOL    HW319123   1.393   4.584   1.240  0.1802 -0.6118  0.4331
 4839SOL    MW419124   1.325   4.568   1.292 -0.0899  0.1602 -0.1044
 4840SOL     OW19125   3.812   3.391   0.724  0.3354  0.4205  0.5201
 4840SOL    HW219126   3.875   3.443   0.774 -0.4698  0.9024  1.0515
 4840SOL    HW319127   3.726   3.425   0.750 -0.1454 -0.1061 -0.3242
 4840SOL    MW419128   3.809   3.402   0.734 -0.0615  0.1735 -0.2520
 4841SOL     OW19129   5.858   1.521   1.872 -0.2505 -0.2951 -0.3065
 4841SOL    HW219130   5.925   1.582   1.903  1.3459 -1.4867 -1.2602
 4841SOL    HW319131   5.852   1.455   1.941  0.0628 -0.5417 -0.5094
 4841SOL    MW419132   5.866   1.520   1.885  0.6122  0.6639 -0.2433
 4842SOL     OW19133   2.229   6.310   5.710 -0.4708  0.4019 -0.1070
 4842SOL    HW219134   2.154   6.287   5.655 -0.4440 -0.3828  0.1598
 4842SOL    HW319135   2.299   6.330   5.648 -0.9554  1.3837 -0.3609
 4842SOL    MW419136   2.228   6.309   5.695  0.5064 -0.0284 -0.0156
 4843SOL     OW19137   4.553   4.009   1.586  0.2603  0.3542  0.1748
 4843SOL    HW219138   4.631   3.958   1.606  0.8215  0.7020 -1.0682
 4843SOL    HW319139   4.565   4.091   1.634  0.4638  0.2533  0.2963
 4843SOL    MW419140   4.565   4.013   1.595  0.3771 -0.6531  0.0871
 4844SOL     OW19141   2.135   3.458   4.222 -1.0109  0.1472  0.5175
 4844SOL    HW219142   2.049   3.418   4.220 -1.1754  0.4672  0.8776
 4844SOL    HW319143   2.161   3.454   4.315 -0.4197 -0.4043  0.3371
 4844SOL    MW419144   2.127   3.452   4.234  0.2586  0.4176 -0.2982
 4845SOL     OW19145   3.014   5.685   2.317 -0.0096  0.9859 -0.1546
 4845SOL    HW219146   3.028   5.602   2.273 -1.7250  0.0440  0.9556
 4845SOL    HW319147   2.999   5.662   2.409  1.4694  2.7129  0.5831
 4845SOL    MW419148   3.014   5.671   2.324 -0.7808  0.2808  0.1764
 4846SOL     OW19149   2.216   5.592   4.834  0.1278 -0.0922 -0.4732
 4846SOL    HW219150   2.198   5.649   4.759 -0.8227  0.9550  0.5066
 4846SOL    HW319151   2.293   5.632   4.876  0.6905 -0.7049 -0.9039
 4846SOL    MW419152   2.224   5.605   4.830  0.4937  1.1671  0.1952
 4847SOL     OW19153   4.739   2.940   3.518  0.0163 -0.0115 -0.4801
 4847SOL    HW219154   4.723   2.865   3.575 -1.0733  0.1125 -0.6047
 4847SOL    HW319155   4.713   2.911   3.431 -1.1361  0.7394 -0.4062
 4847SOL    MW419156   4.734   2.927   3.514  0.4736 -0.0207  0.2163
 4848SOL     OW19157   1.856   6.257   0.890  0.2519 -0.0111  0.4611
 4848SOL    HW219158   1.938   6.213   0.913  0.0824 -0.2023  0.7138
 4848SOL    HW319159   1.859   6.265   0.795  1.1906  1.2450  0.5833
 4848SOL    MW419160   1.867   6.252   0.881 -0.1421 -0.4433  0.0891
 4849SOL     OW19161   2.390   5.330   3.454  0.3582 -0.2761  0.0832
 4849SOL    HW219162   2.453   5.381   3.402  0.6667 -1.0812 -0.3375
 4849SOL    HW319163   2.310   5.330   3.401  0.7062 -1.1925 -0.4668
 4849SOL    MW419164   2.388   5.337   3.440  0.1793  0.0758 -0.0145
 4850SOL     OW19165   5.209   0.731   3.970  0.9428 -0.3039 -0.0667
 4850SOL    HW219166   5.231   0.731   4.063  1.2898  0.2445 -0.1450
 4850SOL    HW319167   5.258   0.657   3.934  1.4664 -0.0167  0.0401
 4850SOL    MW419168   5.219   0.721   3.977  0.2360  0.5006 -0.0661
 4851SOL     OW19169   3.453   5.753   0.384  0.5615  0.1500  0.8334
 4851SOL    HW219170   3.541   5.775   0.353 -0.1987  1.6852 -0.3829
 4851SOL    HW319171   3.424   5.832   0.431 -0.5460  0.0672  0.3132
 4851SOL    MW419172   3.461   5.767   0.386 -0.1829  0.5399 -0.1203
 4852SOL     OW19173   2.135   2.719   1.562  0.7949  0.0692 -0.0710
 4852SOL    HW219174   2.161   2.750   1.649  0.9892 -3.4542  1.3046
 4852SOL    HW319175   2.067   2.780   1.534  0.3326  1.0489  2.8059
 4852SOL    MW419176   2.130   2.731   1.570  0.5550 -0.9350  0.4840
 4853SOL     OW19177   5.552   4.766   2.543  0.3626 -0.2366  0.0390
 4853SOL    HW219178   5.633   4.809   2.571  0.0842 -0.1165  0.6828
 4853SOL    HW319179   5.575   4.724   2.460  1.2923 -0.8461  0.5872
 4853SOL    MW419180   5.566   4.766   2.535 -0.5365  0.3759 -1.0104
 4854SOL     OW19181   3.046   5.006   6.179 -0.1087  0.4148 -0.2022
 4854SOL    HW219182   3.047   5.027   6.272  2.3007  1.7236 -0.4340
 4854SOL    HW319183   3.054   4.911   6.175  1.0648  0.4345  0.9651
 4854SOL    MW419184   3.047   4.996   6.191 -0.6348  0.0187  0.1813
 4855SOL     OW19185   2.574   2.577   3.927 -0.1271  0.5349 -0.3114
 4855SOL    HW219186   2.632   2.503   3.908  0.2504  0.4930  0.9175
 4855SOL    HW319187   2.534   2.599   3.842 -0.7587 -1.5034 -0.6045
 4855SOL    MW419188   2.576   2.570   3.913  0.3460 -1.1683  0.3538
 4856SOL     OW19189   3.913   5.867   1.224 -0.3305 -0.2522 -0.1062
 4856SOL    HW219190   4.005   5.866   1.197  0.1575 -0.6070  1.4594
 4856SOL    HW319191   3.916   5.887   1.318 -2.0650  3.6307 -0.7061
 4856SOL    MW419192   3.926   5.870   1.233  0.5709  0.5151 -0.0181
 4857SOL     OW19193   2.295   1.209   1.558 -0.1803 -0.0725 -0.3415
 4857SOL    HW219194   2.348   1.159   1.497  1.0816  1.2509 -0.3919
 4857SOL    HW319195   2.233   1.257   1.503 -1.5219 -1.6597 -0.2794
 4857SOL    MW419196   2.294   1.209   1.543 -0.4404 -0.2969 -0.2793
 4858SOL     OW19197   3.744   2.659   4.863  0.4940  0.5775  0.1092
 4858SOL    HW219198   3.670   2.671   4.804  0.4388 -1.2417 -0.2343
 4858SOL    HW319199   3.706   2.665   4.951  0.2770  1.5115 -0.0386
 4858SOL    MW419200   3.729   2.662   4.867 -0.5377 -0.1267  0.1150
 4859SOL     OW19201   3.922   0.970   3.383 -0.1101 -0.2308 -0.5352
 4859SOL    HW219202   3.997   1.030   3.380  0.0060 -0.3790 -0.6092
 4859SOL    HW319203   3.868   1.002   3.456  0.5739 -0.7826  0.2237
 4859SOL    MW419204   3.925   0.982   3.392 -0.0588  0.3700 -0.5533
 4860SOL     OW19205   5.706   5.686   3.318 -0.0063  0.7208  0.0045
 4860SOL    HW219206   5.789   5.678   3.365 -0.5653  0.3396  0.9477
 4860SOL    HW319207   5.650   5.618   3.355 -0.1933 -0.2092 -1.8561
 4860SOL    MW419208   5.710   5.676   3.329 -0.1970 -1.0566 -0.5393
 4861SOL     OW19209   3.922   1.039   4.151 -0.2574  0.2394  0.5265
 4861SOL    HW219210   3.918   1.133   4.133 -0.2617  0.3558  1.1174
 4861SOL    HW319211   3.841   1.020   4.199 -0.0473  0.0236  0.8003
 4861SOL    MW419212   3.911   1.049   4.155 -0.6364 -0.2281  0.1106
 4862SOL     OW19213   1.708   0.821   5.706  0.1136 -0.1713  0.1585
 4862SOL    HW219214   1.779   0.806   5.769 -0.2856 -1.2392  0.3819
 4862SOL    HW319215   1.706   0.916   5.695  1.6111 -0.1188  0.0962
 4862SOL    MW419216   1.717   0.832   5.713 -0.3583 -0.0038 -0.3687
 4863SOL     OW19217   1.297   5.025   4.891  0.0540  0.1848  0.0681
 4863SOL    HW219218   1.353   4.952   4.917 -0.1356  0.1802  0.4713
 4863SOL    HW319219   1.209   4.997   4.916 -0.0801  0.3490 -0.2200
 4863SOL    MW419220   1.293   5.011   4.898 -0.2966  0.0692  0.0200
 4864SOL     OW19221   4.309   5.466   4.959 -0.0010  0.2962 -0.5750
 4864SOL    HW219222   4.249   5.522   5.009  1.4852  1.4348 -0.0096
 4864SOL    HW319223   4.274   5.377   4.972 -2.1189  0.9815 -1.0810
 4864SOL    MW419224   4.296   5.461   4.968  0.5413  0.0027  0.3879
 4865SOL     OW19225   3.041   2.909   0.737  0.4834 -0.4066  0.2735
 4865SOL    HW219226   3.028   2.893   0.643 -0.5695 -0.6274  0.4447
 4865SOL    HW319227   3.124   2.866   0.757  0.3070 -1.0798 -0.3888
 4865SOL    MW419228   3.050   2.901   0.727  0.4206  0.1430 -0.7370
 4866SOL     OW19229   3.061   4.355   0.588  0.5625  0.1216  0.2908
 4866SOL    HW219230   3.001   4.421   0.624  2.0557  1.1558  0.9880
 4866SOL    HW319231   3.004   4.294   0.541 -1.0384  1.0088  0.9871
 4866SOL    MW419232   3.045   4.356   0.587  0.0312 -0.2398 -0.1954
 4867SOL     OW19233   3.924   0.462   6.308  0.0097  0.1598 -0.1529
 4867SOL    HW219234   3.852   0.525   6.318 -1.8838 -2.2776  3.5606
 4867SOL    HW319235   3.995   0.497   6.362 -0.8282 -0.5232  1.4350
 4867SOL    MW419236   3.924   0.475   6.316  0.2267 -0.3642 -0.4212
 4868SOL     OW19237   1.323   3.639   0.088  0.4523 -0.4995  0.5050
 4868SOL    HW219238   1.324   3.710   0.023  0.4344 -0.9702 -0.0121
 4868SOL    HW319239   1.408   3.596   0.078  0.2049 -0.9602  0.3699
 4868SOL    MW419240   1.334   3.643   0.078  0.0581  0.5344 -0.3649
 4869SOL     OW19241   1.621   4.593   6.305 -0.0065 -0.4747 -0.1621
 4869SOL    HW219242   1.671   4.516   6.279  0.0073 -0.5096 -0.0338
 4869SOL    HW319243   1.686   4.662   6.314 -0.1499 -0.1503 -1.3955
 4869SOL    MW419244   1.636   4.592   6.302  0.2377 -0.2215 -0.1045
 4870SOL     OW19245   4.142   5.364   5.420  0.4758  0.4157  0.0619
 4870SOL    HW219246   4.123   5.299   5.353 -0.4936 -0.1589  0.8615
 4870SOL    HW319247   4.202   5.425   5.378 -0.2129  0.1541 -1.3762
 4870SOL    MW419248   4.147   5.364   5.405 -0.4405  0.2608 -0.0800
 4871SOL     OW19249   2.163   3.024   6.248  0.4767 -0.4559  0.1969
 4871SOL    HW219250   2.202   3.034   6.335  2.4648 -0.5506 -0.6419
 4871SOL    HW319251   2.078   3.068   6.255  0.6276 -0.3742  2.1384
 4871SOL    MW419252   2.157   3.031   6.260  0.3311 -0.3595 -0.0693
 4872SOL     OW19253   0.746   2.692   5.962 -0.1976 -0.2383  0.1753
 4872SOL    HW219254   0.736   2.703   6.056 -0.8637 -1.6185  0.2786
 4872SOL    HW319255   0.829   2.645   5.952  0.6847  1.2662 -0.0557
 4872SOL    MW419256   0.756   2.687   5.973  0.5677 -0.7679 -0.3381
 4873SOL     OW19257   4.737   2.981   1.371  0.0038 -0.3984 -0.5937
 4873SOL    HW219258   4.759   3.034   1.448 -1.6164  0.0837 -0.4405
 4873SOL    HW319259   4.649   3.008   1.347 -0.3506 -2.0775 -1.3332
 4873SOL    MW419260   4.728   2.992   1.378  0.4863  0.2302 -0.0506
 4874SOL     OW19261   1.888   4.131   4.420 -0.4936 -0.3436  0.0283
 4874SOL    HW219262   1.957   4.111   4.357 -1.4144  1.4442 -1.6336
 4874SOL    HW319263   1.890   4.057   4.481  1.8496 -1.0912 -0.8288
 4874SOL    MW419264   1.897   4.118   4.420  0.2134  0.1408 -0.3717
 4875SOL     OW19265   2.646   3.036   6.041 -0.1221 -0.4123 -0.1955
 4875SOL    HW219266   2.670   2.960   5.988 -1.2214  0.2917 -1.7741
 4875SOL    HW319267   2.551   3.039   6.037 -0.2585 -0.3918  1.9800
 4875SOL    MW419268   2.637   3.026   6.034 -0.1847 -0.3619 -0.5043
 4876SOL     OW19269   3.742   1.192   6.167 -0.3122  0.3741 -0.3278
 4876SOL    HW219270   3.677   1.261   6.153 -0.7139 -0.0256 -0.4719
 4876SOL    HW319271   3.704   1.137   6.235  1.0098  1.5196  1.4035
 4876SOL    MW419272   3.728   1.194   6.174  0.1085  0.3696  0.1027
 4877SOL     OW19273   2.238   2.168   6.399 -0.2461 -0.0392 -0.3050
 4877SOL    HW219274   2.211   2.096   6.456 -0.8723  0.0384 -0.4938
 4877SOL    HW319275   2.190   2.152   6.317 -1.3401  1.2570  0.0578
 4877SOL    MW419276   2.228   2.156   6.396 -1.1178  0.1887  0.1414
 4878SOL     OW19277   6.430   2.091   3.605  0.1189  0.5857  0.3074
 4878SOL    HW219278   6.487   2.164   3.627  0.0043  0.6898  0.2565
 4878SOL    HW319279   6.367   2.126   3.542 -1.3460  1.0451  1.9453
 4878SOL    MW419280   6.429   2.105   3.599  0.3514  0.4550  0.4603
 4879SOL     OW19281   5.780   1.879   1.003 -0.2857 -0.1342 -0.7666
 4879SOL    HW219282   5.863   1.838   1.026  0.6604  1.7911 -0.5725
 4879SOL    HW319283   5.748   1.917   1.085 -1.3618 -0.8463 -0.8392
 4879SOL    MW419284   5.786   1.879   1.017 -0.0205 -0.0815 -0.1186
 4880SOL     OW19285   1.342   4.589   2.601  0.1284 -0.1465 -0.4307
 4880SOL    HW219286   1.339   4.685   2.601  1.8479 -0.0340  0.9645
 4880SOL    HW319287   1.269   4.563   2.657  0.2593  0.3963 -0.0029
 4880SOL    MW419288   1.332   4.598   2.608 -0.1210  0.5248  0.9430
 4881SOL     OW19289   2.258   3.124   5.049 -0.1163 -0.3658 -0.1432
 4881SOL    HW219290   2.289   3.157   5.134  0.1904 -0.8560 -0.0641
 4881SOL    HW319291   2.338   3.119   4.996  0.0769 -2.2774  0.2662
 4881SOL    MW419292   2.273   3.128   5.053  0.0353 -0.9376 -0.2575
 4882SOL     OW19293   6.392   0.128   0.414 -0.1902 -0.2070 -0.2522
 4882SOL    HW219294   6.469   0.088   0.455 -0.3295  0.2955  0.5260
 4882SOL    HW319295   6.389   0.216   0.451 -1.9173 -0.6593  0.7756
 4882SOL    MW419296   6.402   0.135   0.424 -0.4714 -0.0743  0.5413
 4883SOL     OW19297   1.228   5.720   1.480 -0.5972  0.4020 -0.0347
 4883SOL    HW219298   1.174   5.677   1.546 -1.4465 -0.2140 -1.1067
 4883SOL    HW319299   1.196   5.810   1.477  0.1101  0.7245  1.0611
 4883SOL    MW419300   1.217   5.726   1.489  0.2192 -0.1247 -0.4877
 4884SOL     OW19301   5.273   3.702   0.857  0.1061  0.1437 -0.1914
 4884SOL    HW219302   5.274   3.760   0.933  1.4737  0.0892 -0.1440
 4884SOL    HW319303   5.349   3.728   0.805  0.3549 -1.1385 -0.5161
 4884SOL    MW419304   5.283   3.713   0.860 -0.0873  0.1934 -0.1390
 4885SOL     OW19305   6.031   3.415   5.919 -0.6520 -0.4971 -0.2045
 4885SOL    HW219306   5.986   3.474   5.858  0.6927  0.8261  0.0487
 4885SOL    HW319307   6.089   3.471   5.969 -0.4401 -1.8357  1.1079
 4885SOL    MW419308   6.033   3.430   5.917 -0.1759 -0.0291  0.7475
 4886SOL     OW19309   2.404   0.746   0.919  0.0619  0.2985 -0.3627
 4886SOL    HW219310   2.313   0.761   0.892 -0.2403  0.8912  0.8910
 4886SOL    HW319311   2.442   0.833   0.927  0.5230  0.0858 -0.1988
 4886SOL    MW419312   2.397   0.759   0.917 -0.7457 -0.0149 -0.1192
 4887SOL     OW19313   5.825   3.163   6.199 -0.1748  0.0326 -0.1052
 4887SOL    HW219314   5.888   3.091   6.192  0.8951  0.9732 -0.4746
 4887SOL    HW319315   5.751   3.125   6.247  0.6706 -1.1016  0.3692
 4887SOL    MW419316   5.823   3.148   6.205 -0.5069  0.4431  0.3694
 4888SOL     OW19317   0.065   0.088   5.562 -0.2480  0.6008 -0.0516
 4888SOL    HW219318   0.108   0.059   5.482 -0.7042 -0.7879  0.1766
 4888SOL    HW319319  -0.012   0.137   5.532  0.1083  0.9205 -0.4497
 4888SOL    MW419320   0.060   0.090   5.548 -0.4865  0.3439  0.1371
 4889SOL     OW19321   5.052   3.929   2.804  0.4305  0.2405 -0.0295
 4889SOL    HW219322   4.979   3.991   2.798  1.1860  1.4257  1.8843
 4889SOL    HW319323   5.128   3.978   2.772  0.9666  0.1865  1.1177
 4889SOL    MW419324   5.053   3.944   2.799  0.2782  0.6758 -0.4612
 4890SOL     OW19325   4.753   0.793   4.569  0.3115  0.0414  0.4041
 4890SOL    HW219326   4.720   0.767   4.483  1.2780  0.5071 -0.1248
 4890SOL    HW319327   4.682   0.771   4.629 -0.9556  0.9657 -0.6835
 4890SOL    MW419328   4.739   0.787   4.565  0.7626 -0.6528 -0.1349
 4891SOL     OW19329   5.847   1.541   4.549 -0.3264  0.0467 -0.3973
 4891SOL    HW219330   5.857   1.584   4.633  0.1004 -1.0103  0.1144
 4891SOL    HW319331   5.878   1.605   4.485  2.3935 -0.2240  0.4939
 4891SOL    MW419332   5.852   1.555   4.552  0.1496 -0.5441  0.1259
 4892SOL     OW19333   0.706   5.253   1.818  0.0636  0.4879 -0.1527
 4892SOL    HW219334   0.730   5.321   1.755 -1.7529  0.1996 -1.2156
 4892SOL    HW319335   0.622   5.220   1.787 -0.2351 -0.6097  1.6823
 4892SOL    MW419336   0.698   5.258   1.806 -0.0540  0.2674 -0.3976
 4893SOL     OW19337   1.904   1.589   1.463 -0.3727 -0.4953  0.5377
 4893SOL    HW219338   1.896   1.559   1.554  2.8877 -0.0219  1.0827
 4893SOL    HW319339   1.847   1.666   1.459 -0.3632 -0.3564  2.2814
 4893SOL    MW419340   1.895   1.595   1.475 -0.2015 -0.2842 -0.3780
 4894SOL     OW19341   3.515   0.862   1.668 -0.0041  0.2070 -0.2249
 4894SOL    HW219342   3.564   0.937   1.634 -0.0473  1.2444  1.8763
 4894SOL    HW319343   3.567   0.786   1.641  1.9117  1.1800  0.5219
 4894SOL    MW419344   3.528   0.862   1.660  0.2385 -0.7937 -0.8285
 4895SOL     OW19345   1.583   1.107   4.608 -0.7433  0.0578 -0.5865
 4895SOL    HW219346   1.488   1.118   4.602 -1.1241 -1.6689  1.2717
 4895SOL    HW319347   1.604   1.043   4.541 -0.9629  0.0418 -0.6408
 4895SOL    MW419348   1.573   1.100   4.598  0.0180  0.2995 -0.8646
 4896SOL     OW19349   5.817   6.126   5.530 -0.0143  0.5991  0.6254
 4896SOL    HW219350   5.737   6.079   5.510  1.0005 -0.7125 -0.5719
 4896SOL    HW319351   5.800   6.217   5.505 -1.0875  0.3214  0.3356
 4896SOL    MW419352   5.804   6.132   5.524  0.2106 -0.3085  0.0856
 4897SOL     OW19353   2.255   6.401   3.773 -0.1643 -0.6363 -0.0941
 4897SOL    HW219354   2.303   6.341   3.715 -0.6814 -0.5292 -0.6467
 4897SOL    HW319355   2.268   6.365   3.861  1.6536 -0.1081 -0.1230
 4897SOL    MW419356   2.263   6.388   3.777 -0.1506  0.2605  0.6346
 4898SOL     OW19357   3.868   5.348   0.033  0.2597  0.1754  0.0135
 4898SOL    HW219358   3.782   5.324   0.068  0.2548  1.9168  1.3526
 4898SOL    HW319359   3.929   5.328   0.104  0.5097  1.9304  0.3326
 4898SOL    MW419360   3.865   5.342   0.047 -0.0308  0.2806  0.2947
 4899SOL     OW19361   2.214   4.405   0.183 -0.4578 -0.0603  0.2523
 4899SOL    HW219362   2.294   4.369   0.221 -1.3170 -2.0122  0.3546
 4899SOL    HW319363   2.239   4.430   0.094  0.5001  0.3612  0.6232
 4899SOL    MW419364   2.228   4.403   0.177 -0.5817 -0.1385  0.6618
 4900SOL     OW19365   1.249   1.103   5.356  0.1885 -0.1742 -0.5025
 4900SOL    HW219366   1.264   1.084   5.449 -1.9918  1.1765  0.2043
 4900SOL    HW319367   1.330   1.144   5.327  1.1440 -1.1739  0.6164
 4900SOL    MW419368   1.262   1.106   5.365  0.3493 -0.6762 -0.3681
 4901SOL     OW19369   3.607   5.518   2.070  0.1648 -0.0480 -0.2375
 4901SOL    HW219370   3.609   5.604   2.112  1.4220  0.2528 -0.8889
 4901SOL    HW319371   3.559   5.463   2.132 -0.6200  1.0955  0.2134
 4901SOL    MW419372   3.601   5.522   2.083 -0.2945  0.2341  0.0479
 4902SOL     OW19373   0.972   3.815   2.926 -0.1662 -0.5498  0.0982
 4902SOL    HW219374   0.923   3.894   2.952  0.8310  0.4896 -1.0394
 4902SOL    HW319375   1.023   3.792   3.004  0.3350  0.5766  0.1234
 4902SOL    MW419376   0.972   3.823   2.940  1.0131 -0.3499  0.2250
 4903SOL     OW19377   5.464   0.344   5.056 -0.0937  0.3777  0.1044
 4903SOL    HW219378   5.491   0.376   5.142 -1.0614 -1.0174  0.9726
 4903SOL    HW319379   5.369   0.353   5.055 -0.4930 -2.6843  0.5749
 4903SOL    MW419380   5.455   0.349   5.067 -0.4306  0.4911  0.0141
 4904SOL     OW19381   3.863   1.224   1.954  0.7426  0.2410 -0.1961
 4904SOL    HW219382   3.879   1.240   2.047 -0.2017  2.0337 -0.2935
 4904SOL    HW319383   3.767   1.218   1.947  0.8233 -3.9015 -0.5315
 4904SOL    MW419384   3.852   1.225   1.966  0.0215  0.2322 -0.2507
 4905SOL     OW19385   1.694   3.771   3.659 -0.2473  0.5295 -1.0393
 4905SOL    HW219386   1.659   3.684   3.635 -1.0143  1.0470 -1.8641
 4905SOL    HW319387   1.787   3.765   3.641 -0.2122 -0.2755 -0.6411
 4905SOL    MW419388   1.702   3.758   3.654  0.0618  0.1298 -0.6470
 4906SOL     OW19389   3.960   3.540   5.337 -0.6051 -0.5064 -1.0796
 4906SOL    HW219390   3.941   3.451   5.307 -0.9841 -2.0057  2.9770
 4906SOL    HW319391   4.055   3.547   5.333 -0.6161 -0.8012 -2.0819
 4906SOL    MW419392   3.970   3.529   5.332 -1.0639  0.0422  0.2136
 4907SOL     OW19393   1.008   6.231   4.174  0.0497  0.0087  0.4753
 4907SOL    HW219394   0.976   6.315   4.140 -1.2907 -0.4051  0.6545
 4907SOL    HW319395   1.081   6.254   4.231  0.7004  0.9196 -0.6775
 4907SOL    MW419396   1.014   6.245   4.177 -0.4589 -0.0185  0.3608
 4908SOL     OW19397   1.588   3.739   2.074 -0.5247 -0.1816  0.0134
 4908SOL    HW219398   1.539   3.672   2.121 -1.6618 -0.7820 -1.9422
 4908SOL    HW319399   1.679   3.723   2.098 -1.0645 -0.1617  2.3228
 4908SOL    MW419400   1.594   3.728   2.084 -0.2286 -0.1725  0.6378
 4909SOL     OW19401   3.246   3.611   1.717 -0.6901 -0.7206 -0.3418
 4909SOL    HW219402   3.286   3.541   1.664  0.9490 -0.4278  0.4230
 4909SOL    HW319403   3.278   3.593   1.806  0.5591  1.5004 -0.2715
 4909SOL    MW419404   3.256   3.599   1.722 -0.0870 -0.1849 -0.5464
 4910SOL     OW19405   5.130   3.971   3.348  0.4956  0.5013 -0.2164
 4910SOL    HW219406   5.152   3.934   3.263 -1.0092  2.3308 -1.5040
 4910SOL    HW319407   5.050   3.927   3.374  0.2897  0.7886 -0.3537
 4910SOL    MW419408   5.122   3.961   3.340  0.1138  0.3427 -0.4550
 4911SOL     OW19409   5.750   3.425   4.110  0.0325 -0.1030  0.0775
 4911SOL    HW219410   5.726   3.515   4.087 -2.9215 -0.8653 -0.1832
 4911SOL    HW319411   5.741   3.375   4.029 -0.2578 -0.9776  0.6328
 4911SOL    MW419412   5.746   3.430   4.097  0.0822  0.1957 -0.3923
 4912SOL     OW19413   2.488   1.459   3.516  0.3797  0.6677  0.4299
 4912SOL    HW219414   2.473   1.424   3.604 -0.0988 -0.9694 -0.2659
 4912SOL    HW319415   2.402   1.459   3.474  0.6197  1.3180 -0.0807
 4912SOL    MW419416   2.475   1.454   3.522  0.1912 -0.1184 -0.1164
 4913SOL     OW19417   5.427   6.302   1.008  0.7325  0.2972 -0.3168
 4913SOL    HW219418   5.335   6.324   0.998  0.7556 -0.3085 -2.5235
 4913SOL    HW319419   5.428   6.206   1.018  1.0410  0.4760  1.7622
 4913SOL    MW419420   5.415   6.292   1.008 -0.4304  0.2511 -1.3362
 4914SOL     OW19421   4.713   0.077   0.014 -0.5936  0.1732 -0.3467
 4914SOL    HW219422   4.701   0.140   0.085 -0.8386 -1.0803  0.7592
 4914SOL    HW319423   4.807   0.060   0.013 -0.8383 -1.8401  1.5763
 4914SOL    MW419424   4.724   0.083   0.023 -0.6305 -0.1492  0.3007
 4915SOL     OW19425   2.899   5.143   5.618  0.0594 -0.1199 -0.1372
 4915SOL    HW219426   2.908   5.064   5.671  0.3594  1.3288  2.0935
 4915SOL    HW319427   2.840   5.199   5.668  0.5081  1.4144 -1.2422
 4915SOL    MW419428   2.893   5.140   5.632 -0.2972  0.4015 -0.2359
 4916SOL     OW19429   3.500   2.950   4.768 -0.2248 -0.4290 -0.2795
 4916SOL    HW219430   3.423   2.978   4.720  0.3927  0.9408 -0.5115
 4916SOL    HW319431   3.523   2.865   4.730 -2.5675 -1.7085  0.9279
 4916SOL    MW419432   3.493   2.943   4.757  0.1058  0.4013  0.2455
 4917SOL     OW19433   2.287   5.755   5.168 -0.1103  0.0931  0.1213
 4917SOL    HW219434   2.353   5.728   5.104 -0.8184 -2.6370  0.3953
 4917SOL    HW319435   2.206   5.760   5.117 -0.6896 -2.1469  0.6887
 4917SOL    MW419436   2.285   5.752   5.153 -0.0424 -0.1175  0.6545
 4918SOL     OW19437   0.181   1.343   4.563 -0.0286 -0.2984 -0.7830
 4918SOL    HW219438   0.174   1.402   4.488 -1.4382  0.9356  0.2676
 4918SOL    HW319439   0.093   1.308   4.575  0.3643 -1.1313 -0.2061
 4918SOL    MW419440   0.169   1.346   4.555 -0.7139  0.0742 -0.3749
 4919SOL     OW19441   3.768   1.226   2.540 -0.4975 -0.2336  0.0533
 4919SOL    HW219442   3.741   1.150   2.591 -1.2108 -0.5657 -0.8046
 4919SOL    HW319443   3.760   1.199   2.449  1.0148  0.2655 -0.2696
 4919SOL    MW419444   3.764   1.213   2.535  0.2349 -0.6053 -0.5395
 4920SOL     OW19445   6.378   5.001   5.295  0.1170  0.0273  0.8894
 4920SOL    HW219446   6.283   5.008   5.290  0.0579 -1.0003  0.3440
 4920SOL    HW319447   6.396   4.909   5.275  1.2359  0.2503  0.8393
 4920SOL    MW419448   6.368   4.989   5.292 -0.0217 -0.4673  0.0733
 4921SOL     OW19449   0.112   0.314   4.428  0.4272  0.2638  0.2133
 4921SOL    HW219450   0.087   0.262   4.504  1.1436 -1.3389 -0.5896
 4921SOL    HW319451   0.033   0.363   4.404 -0.6562 -1.3618  0.3131
 4921SOL    MW419452   0.098   0.313   4.434  0.1987  0.9607  0.0940
 4922SOL     OW19453   3.176   2.855   5.120 -0.7307 -0.1818  0.2092
 4922SOL    HW219454   3.211   2.925   5.175 -0.3802 -0.2769  0.1116
 4922SOL    HW319455   3.149   2.899   5.040  1.6660 -0.4468 -0.8257
 4922SOL    MW419456   3.177   2.870   5.117 -0.0333  0.6518 -0.3673
 4923SOL     OW19457   4.429   1.339   2.845  0.1230 -0.0652 -0.6663
 4923SOL    HW219458   4.441   1.413   2.904 -1.6257  0.2255 -0.6242
 4923SOL    HW319459   4.394   1.269   2.901  1.7632 -0.9649 -0.7002
 4923SOL    MW419460   4.426   1.339   2.860 -0.2233  0.1638 -0.1548
 4924SOL     OW19461   1.114   3.006   3.115  0.4771  0.0416 -0.6024
 4924SOL    HW219462   1.050   2.972   3.053 -0.6949  1.1788 -0.0584
 4924SOL    HW319463   1.120   3.099   3.095  3.2295 -0.2903 -1.7162
 4924SOL    MW419464   1.106   3.014   3.105  0.7634  0.0893  0.2553
 4925SOL     OW19465   2.965   6.226   1.093 -0.3788 -0.4157  0.3559
 4925SOL    HW219466   2.944   6.140   1.129 -0.9922 -0.0063  1.0020
 4925SOL    HW319467   3.003   6.274   1.167 -1.6060  0.4173  0.4843
 4925SOL    MW419468   2.967   6.221   1.108  0.8443 -0.0184  0.0386
 4926SOL     OW19469   5.041   6.278   4.455 -0.1074  0.2724  0.1468
 4926SOL    HW219470   5.075   6.326   4.530  0.1381 -0.0761  0.2594
 4926SOL    HW319471   5.118   6.238   4.414 -0.2113  0.6392 -0.4186
 4926SOL    MW419472   5.056   6.279   4.459 -0.7103  0.3321 -0.1105
 4927SOL     OW19473   3.827   5.626   1.482  0.0838  0.1671 -0.5699
 4927SOL    HW219474   3.828   5.586   1.395  0.0029 -1.5479  0.1830
 4927SOL    HW319475   3.917   5.619   1.513 -0.2130 -0.7208  0.1213
 4927SOL    MW419476   3.839   5.620   1.475  0.0458  1.4503  0.1703
 4928SOL     OW19477   5.888   0.127   4.354 -0.4032  0.1154  0.1413
 4928SOL    HW219478   5.832   0.064   4.309 -0.1590  0.3765 -0.5331
 4928SOL    HW319479   5.838   0.152   4.432 -0.2887 -1.2977  0.7001
 4928SOL    MW419480   5.874   0.122   4.359  0.7564  0.7801  0.7222
 4929SOL     OW19481   1.096   3.980   5.880 -0.1896  0.0369 -0.0712
 4929SOL    HW219482   1.043   4.001   5.803  1.1480 -1.6764 -1.5487
 4929SOL    HW319483   1.037   3.930   5.937 -0.7290 -0.1248 -0.7594
 4929SOL    MW419484   1.081   3.977   5.877 -0.3652 -0.0862 -0.0336
 4930SOL     OW19485   2.231   3.267   1.671  0.0601 -1.0024  0.3810
 4930SOL    HW219486   2.201   3.227   1.753 -0.5584 -1.1492  0.0902
 4930SOL    HW319487   2.326   3.273   1.680  0.0035 -1.1225  1.0622
 4930SOL    MW419488   2.240   3.263   1.683 -0.1219 -0.1976 -0.4079
 4931SOL     OW19489   4.094   4.611   3.163  0.6063 -0.2083 -0.6945
 4931SOL    HW219490   4.060   4.700   3.177  1.3703  0.0716 -0.5855
 4931SOL    HW319491   4.027   4.554   3.201  0.7689  0.3765  0.5276
 4931SOL    MW419492   4.081   4.615   3.170 -0.2319 -0.0709  0.3999
 4932SOL     OW19493   1.275   4.784   4.097 -0.2715  0.0834  0.5208
 4932SOL    HW219494   1.353   4.810   4.048 -0.1106  0.8413  1.1698
 4932SOL    HW319495   1.290   4.816   4.186 -1.2209  0.0350  0.7089
 4932SOL    MW419496   1.287   4.791   4.102  0.3716  0.1607 -0.3840
 4933SOL     OW19497   6.252   5.489   6.375  0.8008  0.7887 -0.2781
 4933SOL    HW219498   6.220   5.558   6.316 -0.5064  0.4921  0.0520
 4933SOL    HW319499   6.173   5.455   6.417  1.3824 -1.0858 -0.6069
 4933SOL    MW419500   6.237   5.494   6.372 -0.6628  0.0925  0.0300
 4934SOL     OW19501   5.504   6.172   5.681  0.6426 -0.5862 -0.1202
 4934SOL    HW219502   5.553   6.092   5.661  0.7452 -0.4325 -0.4979
 4934SOL    HW319503   5.540   6.203   5.764  2.1445  0.2578 -1.0450
 4934SOL    MW419504   5.515   6.166   5.689 -0.2917  0.1308  0.4472
 4935SOL     OW19505   3.053   4.569   3.970  0.1992  0.2477 -0.3728
 4935SOL    HW219506   3.057   4.569   4.065 -0.8861  0.2514 -0.3216
 4935SOL    HW319507   3.100   4.648   3.944  0.0357  0.5257  0.1734
 4935SOL    MW419508   3.060   4.579   3.979 -0.0472  0.1961  0.2390
 4936SOL     OW19509   6.165   0.649   0.031 -0.0750 -0.3243  0.5035
 4936SOL    HW219510   6.224   0.701   0.087 -0.1063  1.0790 -0.7107
 4936SOL    HW319511   6.179   0.684  -0.057 -1.3008 -1.3108 -0.1020
 4936SOL    MW419512   6.175   0.661   0.027  0.0576 -0.1912 -0.1518
 4937SOL     OW19513   0.791   5.217   4.555  0.9299  0.6232  0.0699
 4937SOL    HW219514   0.732   5.212   4.480  1.6723  0.9955 -0.5542
 4937SOL    HW319515   0.856   5.283   4.530  3.5717 -2.0498 -0.6861
 4937SOL    MW419516   0.792   5.225   4.542 -0.3840  0.4291  0.2842
 4938SOL     OW19517   2.717   0.226   4.162  0.7221 -0.1120 -0.4058
 4938SOL    HW219518   2.788   0.185   4.210  0.0234 -1.0742 -0.1635
 4938SOL    HW319519   2.741   0.319   4.158  2.0876 -0.4574 -0.5432
 4938SOL    MW419520   2.729   0.233   4.168  0.0967 -0.1974 -0.2073
 4939SOL     OW19521   3.707   0.965   2.598 -0.1753 -0.3138  0.6218
 4939SOL    HW219522   3.757   0.890   2.629  1.3763  0.6553  0.5983
 4939SOL    HW319523   3.645   0.984   2.668 -2.1572 -2.9095 -0.2922
 4939SOL    MW419524   3.706   0.958   2.611 -0.7247 -0.0300  0.0964
 4940SOL     OW19525   0.947   6.028   0.451  0.1249 -0.4133 -0.3667
 4940SOL    HW219526   1.011   6.099   0.454  1.0067 -1.0970 -1.6599
 4940SOL    HW319527   0.991   5.959   0.400 -0.8928 -1.6836  0.4115
 4940SOL    MW419528   0.961   6.028   0.445  0.1430  0.2180 -0.2631
 4941SOL     OW19529   1.148   4.715   5.371 -0.2584 -0.3607 -0.1835
 4941SOL    HW219530   1.109   4.803   5.375 -0.2975 -0.4335  1.6105
 4941SOL    HW319531   1.086   4.659   5.418 -0.0451 -1.2987 -0.9846
 4941SOL    MW419532   1.135   4.719   5.378 -0.4340  0.0285  0.7680
 4942SOL     OW19533   0.249   0.474   0.428 -0.0504 -0.2974 -0.0704
 4942SOL    HW219534   0.197   0.408   0.473 -1.4656  1.0166  0.3158
 4942SOL    HW319535   0.184   0.533   0.390  1.0207  3.0763  2.8125
 4942SOL    MW419536   0.234   0.473   0.429  0.3408  0.3374  0.4688
 4943SOL     OW19537   1.911   0.335   0.269  0.4735  0.1794  0.0650
 4943SOL    HW219538   1.925   0.421   0.308  1.0959  0.7136 -1.2721
 4943SOL    HW319539   1.834   0.300   0.314  1.7264  0.3177  2.4367
 4943SOL    MW419540   1.902   0.342   0.280  0.1775 -0.0714 -0.1610
 4944SOL     OW19541   4.003   4.976   4.725  0.2605 -0.1271  0.4529
 4944SOL    HW219542   4.055   4.899   4.699 -0.9513 -0.7547 -0.2191
 4944SOL    HW319543   3.942   4.942   4.791 -1.6786 -0.2823 -1.3190
 4944SOL    MW419544   4.002   4.961   4.730  0.5297  0.1514  0.1656
 4945SOL     OW19545   0.816   0.732   2.780  0.1015  0.2112  0.7021
 4945SOL    HW219546   0.804   0.788   2.703 -0.6209 -0.0372  0.6281
 4945SOL    HW319547   0.854   0.651   2.745 -1.1985 -0.3155  0.4287
 4945SOL    MW419548   0.819   0.728   2.765 -0.3714 -0.3269  0.2589
 4946SOL     OW19549   3.602   3.121   1.715 -0.2560  0.0935  0.4533
 4946SOL    HW219550   3.694   3.145   1.705 -0.1385  0.3015  1.8082
 4946SOL    HW319551   3.554   3.183   1.660  0.2419  1.6747  1.7387
 4946SOL    MW419552   3.608   3.132   1.706 -0.4555  0.6474  0.4005
 4947SOL     OW19553   6.245   4.418   4.571  0.4046 -0.1913 -0.4370
 4947SOL    HW219554   6.305   4.453   4.637  1.6680 -2.0792 -0.5041
 4947SOL    HW319555   6.179   4.486   4.561  0.3121  0.3036  2.5542
 4947SOL    MW419556   6.244   4.432   4.578  0.2675 -0.6673  0.1777
 4948SOL     OW19557   3.492   1.896   1.448  0.1268  0.0783 -0.6283
 4948SOL    HW219558   3.572   1.934   1.485  0.9984  1.2802 -3.4674
 4948SOL    HW319559   3.426   1.910   1.516  1.9133  0.6491  1.1036
 4948SOL    MW419560   3.494   1.903   1.462 -0.1763  0.0391  0.2584
 4949SOL     OW19561   2.252   3.565   1.394 -0.2339 -0.3433 -0.0812
 4949SOL    HW219562   2.203   3.484   1.379 -1.3078  0.4938 -1.2897
 4949SOL    HW319563   2.198   3.633   1.355  0.6905  0.9649  0.8401
 4949SOL    MW419564   2.239   3.563   1.387 -0.0273 -0.3401 -0.4332
 4950SOL     OW19565   3.182   1.285   1.236 -0.1088  0.5158  0.1283
 4950SOL    HW219566   3.135   1.202   1.236 -2.7183  1.8569 -1.8049
 4950SOL    HW319567   3.137   1.338   1.302  0.6563  0.8844  0.3709
 4950SOL    MW419568   3.170   1.281   1.245  0.2777  0.3202  0.2171
 4951SOL     OW19569   1.318   0.143   5.953  0.2127 -0.1293  0.1020
 4951SOL    HW219570   1.375   0.167   5.880  1.6955 -1.2064  0.8470
 4951SOL    HW319571   1.348   0.197   6.026 -0.6664  0.2968  0.1603
 4951SOL    MW419572   1.329   0.153   5.953  0.0210  0.3259 -0.3404
 4952SOL     OW19573   3.258   0.096   6.062  0.1184  0.0322  0.1652
 4952SOL    HW219574   3.330   0.151   6.031 -1.2481  0.2196 -3.0758
 4952SOL    HW319575   3.184   0.157   6.073 -0.7996 -0.7830 -1.2490
 4952SOL    MW419576   3.258   0.112   6.060  0.3523 -0.3822  0.3410
 4953SOL     OW19577   2.081   4.022   3.611 -0.9114 -0.2953  0.0359
 4953SOL    HW219578   2.080   3.953   3.678  0.0642 -0.4301 -0.0735
 4953SOL    HW319579   2.023   3.990   3.543  1.9386 -2.6033 -1.5419
 4953SOL    MW419580   2.074   4.009   3.611  0.1774  0.7334 -0.3589
 4954SOL     OW19581   5.413   4.818   6.113  0.4657 -0.4517 -0.0058
 4954SOL    HW219582   5.488   4.835   6.170 -0.6269 -0.4039  1.4832
 4954SOL    HW319583   5.371   4.741   6.152  1.1697 -2.1381 -2.3334
 4954SOL    MW419584   5.418   4.810   6.125 -0.2652 -0.8836 -0.0664
 4955SOL     OW19585   3.951   5.321   5.682 -0.2203  0.6240  0.4417
 4955SOL    HW219586   4.021   5.321   5.617  0.5728 -1.7046  1.1945
 4955SOL    HW319587   3.978   5.256   5.747 -3.4699 -1.1300  0.2683
 4955SOL    MW419588   3.964   5.313   5.682 -1.1389 -0.3667  0.2066
 4956SOL     OW19589   2.395   2.858   5.756  0.3985  0.2407 -1.1797
 4956SOL    HW219590   2.319   2.813   5.792  0.7789  0.3013 -0.2883
 4956SOL    HW319591   2.469   2.804   5.781  0.8261  1.1422 -0.4387
 4956SOL    MW419592   2.395   2.845   5.764 -0.6662  0.0484  0.0007
 4957SOL     OW19593   3.142   6.169   1.903  0.4053 -0.1234  0.0122
 4957SOL    HW219594   3.184   6.148   1.986 -1.0873  2.1732  1.4698
 4957SOL    HW319595   3.202   6.231   1.861 -1.0091  2.7770  1.8727
 4957SOL    MW419596   3.155   6.175   1.908  0.5723 -0.1680 -0.2357
 4958SOL     OW19597   3.268   5.200   2.451 -0.6139  0.0195  0.4556
 4958SOL    HW219598   3.184   5.231   2.415 -0.6019 -0.3159  0.1212
 4958SOL    HW319599   3.293   5.266   2.515  0.5626  1.9804 -1.8328
 4958SOL    MW419600   3.260   5.213   2.454  0.4619 -0.7098 -0.2302
 4959SOL     OW19601   2.277   1.092   0.684  0.3646  0.4359  0.8033
 4959SOL    HW219602   2.327   1.108   0.764 -1.0635 -0.4601  1.9224
 4959SOL    HW319603   2.213   1.026   0.709 -0.8026  0.9096 -0.8087
 4959SOL    MW419604   2.275   1.085   0.698 -0.2014 -0.1274 -0.0983
 4960SOL     OW19605   4.714   0.897   0.035 -0.2606 -0.0450 -0.2590
 4960SOL    HW219606   4.692   0.881  -0.057  1.4079 -1.5805 -0.4384
 4960SOL    HW319607   4.653   0.843   0.084 -1.5195  1.1942 -0.3983
 4960SOL    MW419608   4.703   0.888   0.029  0.3079 -0.5238 -0.0294
 4961SOL     OW19609   0.672   5.710   4.520 -0.0292 -0.5011 -0.2349
 4961SOL    HW219610   0.587   5.719   4.561 -0.0566 -0.1363 -0.3690
 4961SOL    HW319611   0.674   5.620   4.487  0.1010 -0.8874  0.7969
 4961SOL    MW419612   0.661   5.700   4.521 -0.2426 -0.0305  0.4145
 4962SOL     OW19613   3.526   0.943   5.488  0.3153 -0.1317  0.1767
 4962SOL    HW219614   3.589   1.015   5.482 -0.3411  0.3212 -2.1861
 4962SOL    HW319615   3.493   0.948   5.578  0.7519  2.1483  0.2749
 4962SOL    MW419616   3.530   0.953   5.499 -0.9602 -0.1767  0.2248
 4963SOL     OW19617   3.238   2.835   3.350 -0.0423  0.5724 -0.2060
 4963SOL    HW219618   3.284   2.775   3.291 -0.9655 -0.6506  0.2616
 4963SOL    HW319619   3.242   2.920   3.306  0.8894  0.0809 -1.1253
 4963SOL    MW419620   3.245   2.838   3.336  0.8132  0.2609 -0.2803
 4964SOL     OW19621   4.545   0.463   1.510  0.5980 -0.4614 -0.2908
 4964SOL    HW219622   4.616   0.407   1.478 -0.5938 -2.1046 -0.2139
 4964SOL    HW319623   4.489   0.404   1.560 -1.4848  0.4922 -1.3959
 4964SOL    MW419624   4.547   0.448   1.512  0.2851 -0.1254 -0.7438
 4965SOL     OW19625   0.204   0.132   2.945  0.3176 -0.4621 -0.0122
 4965SOL    HW219626   0.188   0.045   2.909 -0.7254 -0.4099  0.2885
 4965SOL    HW319627   0.123   0.154   2.991  0.7001  0.5218  0.2149
 4965SOL    MW419628   0.191   0.123   2.946 -0.1100  0.8197 -0.0093
 4966SOL     OW19629   5.463   1.954   3.839 -0.0600  0.0920 -0.1488
 4966SOL    HW219630   5.420   2.033   3.807 -1.9469 -0.2264  1.4551
 4966SOL    HW319631   5.431   1.884   3.782  1.1130  0.3422 -1.1600
 4966SOL    MW419632   5.453   1.955   3.827  0.1254  0.4968 -0.1769
 4967SOL     OW19633   1.061   5.521   2.065 -0.3312  0.1595 -0.5752
 4967SOL    HW219634   1.009   5.577   2.007  0.1213  0.2366 -0.9191
 4967SOL    HW319635   0.997   5.463   2.107 -0.6628  0.0507 -1.2133
 4967SOL    MW419636   1.046   5.521   2.063  0.2424 -0.1908 -0.3366
 4968SOL     OW19637   1.115   3.670   3.163  0.5764 -0.0722  0.1564
 4968SOL    HW219638   1.169   3.749   3.166  0.7417 -0.1677 -0.1702
 4968SOL    HW319639   1.133   3.633   3.076 -1.4054  0.8627 -0.7103
 4968SOL    MW419640   1.124   3.675   3.152  0.0122  0.1182  0.0246
 4969SOL     OW19641   3.396   5.649   3.842 -0.7200 -0.1030  0.3000
 4969SOL    HW219642   3.471   5.697   3.809 -0.8394  0.8351  1.3321
 4969SOL    HW319643   3.398   5.663   3.937 -2.0056 -0.3214  0.3790
 4969SOL    MW419644   3.406   5.657   3.850 -0.4128 -0.3062  0.3763
 4970SOL     OW19645   4.918   2.003   1.693  0.2685  0.0060  0.4032
 4970SOL    HW219646   4.839   2.042   1.656  1.2310 -0.3168 -2.1382
 4970SOL    HW319647   4.928   1.920   1.647  3.0636  0.8576 -0.7246
 4970SOL    MW419648   4.909   1.997   1.682 -0.2208  0.0941  0.4347
 4971SOL     OW19649   3.927   1.051   4.764  0.8727 -0.0346  0.7845
 4971SOL    HW219650   3.894   1.131   4.805 -0.1178  1.0621 -1.9236
 4971SOL    HW319651   3.848   0.999   4.747  1.2350 -0.3939  0.1877
 4971SOL    MW419652   3.912   1.055   4.767  0.2095 -0.3568  0.0547
 4972SOL     OW19653   3.743   4.708   0.032  0.3557 -0.2162 -0.1784
 4972SOL    HW219654   3.776   4.686   0.119 -2.4835  0.0667  1.1001
 4972SOL    HW319655   3.745   4.804   0.029 -0.0168 -0.2090 -0.2161
 4972SOL    MW419656   3.747   4.718   0.043 -0.4681  0.8038 -0.6356
 4973SOL     OW19657   2.940   1.591   1.700  0.2954 -0.2399  0.2035
 4973SOL    HW219658   3.014   1.602   1.641  0.3793 -1.5551  0.0450
 4973SOL    HW319659   2.871   1.648   1.664  1.1766  0.9413  0.3201
 4973SOL    MW419660   2.940   1.600   1.688 -0.1600 -0.0665 -0.0770
 4974SOL     OW19661   2.011   2.733   0.790 -0.2796 -0.1692 -0.7859
 4974SOL    HW219662   2.031   2.641   0.772 -0.6310  0.2310 -3.7207
 4974SOL    HW319663   2.095   2.778   0.779  0.0270 -0.1325  1.2494
 4974SOL    MW419664   2.025   2.727   0.786  0.1828 -0.3682  1.1119
 4975SOL     OW19665   5.566   1.295   0.540  0.6661 -0.3403  0.5001
 4975SOL    HW219666   5.582   1.275   0.632  0.6524  0.1350  0.6099
 4975SOL    HW319667   5.513   1.375   0.542 -0.3494 -0.9824  0.1029
 4975SOL    MW419668   5.561   1.303   0.552  0.2786 -0.4644 -0.4031
 4976SOL     OW19669   0.841   2.608   5.204  0.2034 -0.3714  0.4643
 4976SOL    HW219670   0.930   2.621   5.236 -0.4204  2.0452  1.4347
 4976SOL    HW319671   0.845   2.635   5.112  0.1565  1.5093  0.9707
 4976SOL    MW419672   0.854   2.613   5.196  0.3283 -0.2412 -0.1934
 4977SOL     OW19673   4.086   2.453   3.222 -0.4487  0.2061  0.0143
 4977SOL    HW219674   4.032   2.508   3.165 -0.8276 -0.9487 -0.7510
 4977SOL    HW319675   4.056   2.364   3.207  0.8131 -0.3347  0.5309
 4977SOL    MW419676   4.075   2.449   3.213 -0.6273 -0.3549  0.4875
 4978SOL     OW19677   5.082   0.240   2.399  0.0763 -0.1020  0.0716
 4978SOL    HW219678   5.107   0.321   2.354  1.7213  0.3457  1.6441
 4978SOL    HW319679   5.032   0.191   2.335  0.4404  1.4501 -1.4821
 4978SOL    MW419680   5.079   0.245   2.385 -0.0687 -0.2834  0.0722
 4979SOL     OW19681   3.463   1.399   0.757 -0.1701 -0.5868  0.1902
 4979SOL    HW219682   3.538   1.363   0.710  0.9544 -0.4100  1.7642
 4979SOL    HW319683   3.420   1.322   0.794 -0.3067 -0.6336 -0.0669
 4979SOL    MW419684   3.467   1.384   0.756 -0.2591 -0.3386  0.0336
 4980SOL     OW19685   4.246   3.592   5.397 -0.1379 -0.1128  0.8180
 4980SOL    HW219686   4.317   3.656   5.404  1.6697 -1.8416 -0.6321
 4980SOL    HW319687   4.228   3.566   5.487  0.8658  0.5663  1.2268
 4980SOL    MW419688   4.253   3.597   5.410  0.2183  0.1955  0.6005
 4981SOL     OW19689   1.342   4.038   0.194  0.1272 -0.7536 -0.7582
 4981SOL    HW219690   1.435   4.018   0.202  0.1507 -0.4480 -0.1444
 4981SOL    HW319691   1.298   3.969   0.244  0.1252 -0.0909  0.1885
 4981SOL    MW419692   1.348   4.026   0.202 -0.0248 -0.2382  0.2254
 4982SOL     OW19693   2.705   0.560   4.319  0.0869  0.4098  0.3880
 4982SOL    HW219694   2.704   0.606   4.403 -1.2543 -0.8742  1.1322
 4982SOL    HW319695   2.621   0.513   4.317  1.1086 -1.4896 -0.5920
 4982SOL    MW419696   2.694   0.560   4.330  0.6117  0.0154 -0.0919
 4983SOL     OW19697   6.287   0.446   4.015 -0.3638 -0.6857  0.1879
 4983SOL    HW219698   6.213   0.433   3.956  0.1361 -1.2007 -0.3419
 4983SOL    HW319699   6.341   0.512   3.972 -0.2345 -0.7216  0.2939
 4983SOL    MW419700   6.284   0.453   4.001  0.8606 -0.1031 -0.6115
 4984SOL     OW19701   2.591   2.149   2.780  0.2801 -0.1974 -0.3583
 4984SOL    HW219702   2.548   2.101   2.710  1.1416  1.1332 -1.8718
 4984SOL    HW319703   2.674   2.104   2.792 -0.6390 -1.5774  1.1954
 4984SOL    MW419704   2.596   2.137   2.772  0.6440  0.2114 -0.5492
 4985SOL     OW19705   0.554   4.118   5.788 -0.1675 -0.2043  0.0953
 4985SOL    HW219706   0.502   4.060   5.845  0.0855 -0.3708  0.1580
 4985SOL    HW319707   0.490   4.155   5.727 -0.5159  0.2815  0.7351
 4985SOL    MW419708   0.539   4.116   5.788 -0.1544 -0.1558 -0.1793
 4986SOL     OW19709   4.406   1.108   2.489  0.0140  0.0110 -0.0891
 4986SOL    HW219710   4.402   1.202   2.475 -2.1562  0.2470  1.5355
 4986SOL    HW319711   4.474   1.096   2.555  0.7608  0.3354 -0.7810
 4986SOL    MW419712   4.414   1.119   2.496 -0.2171  0.4658  0.7747
 4987SOL     OW19713   0.699   2.160   3.899 -0.2748 -0.7821  0.2441
 4987SOL    HW219714   0.761   2.217   3.854 -0.0920 -1.6561 -0.6390
 4987SOL    HW319715   0.726   2.071   3.876 -1.8094 -1.1916 -0.1307
 4987SOL    MW419716   0.711   2.156   3.890  0.8882 -0.3244  0.2300
 4988SOL     OW19717   5.578  -0.007   0.624 -0.7264 -0.0667  0.4602
 4988SOL    HW219718   5.484   0.002   0.607 -0.9666 -0.7026  1.3778
 4988SOL    HW319719   5.602   0.076   0.666 -0.5415  0.7027 -1.0781
 4988SOL    MW419720   5.569   0.006   0.627 -0.7902 -0.1848 -0.0182
 4989SOL     OW19721   5.349   6.217   3.434 -0.1053  0.2989  0.0997
 4989SOL    HW219722   5.423   6.177   3.480 -0.2798  1.0289  1.0248
 4989SOL    HW319723   5.280   6.151   3.439  0.4019 -0.3008 -0.5846
 4989SOL    MW419724   5.350   6.203   3.441 -0.4785  0.0079  0.3965
 4990SOL     OW19725   2.511   6.379   3.196 -0.4067  0.2873  0.1001
 4990SOL    HW219726   2.541   6.420   3.115  0.7823  0.2417  0.4969
 4990SOL    HW319727   2.416   6.395   3.198 -0.8976 -1.7597 -2.4578
 4990SOL    MW419728   2.502   6.386   3.186 -0.2155  0.0790 -0.2144
 4991SOL     OW19729   5.795   4.613   3.363  0.7608 -0.2926 -0.7122
 4991SOL    HW219730   5.870   4.668   3.383  0.2239  0.2219 -0.0652
 4991SOL    HW319731   5.746   4.663   3.297 -0.6110  0.8322  1.0840
 4991SOL    MW419732   5.798   4.627   3.357  1.1513  0.1519 -0.2529
 4992SOL     OW19733   0.172   5.998   6.065  0.0834 -0.2752 -0.4734
 4992SOL    HW219734   0.194   6.065   6.001 -0.4227  0.4921  0.1482
 4992SOL    HW319735   0.172   6.043   6.149 -1.2059 -0.8214 -0.1480
 4992SOL    MW419736   0.175   6.013   6.067  0.3435 -0.0585  0.1293
 4993SOL     OW19737   5.872   3.661   0.221 -0.1761  0.2454 -0.2627
 4993SOL    HW219738   5.837   3.675   0.309  0.5228  0.3591  0.0040
 4993SOL    HW319739   5.799   3.623   0.172 -0.5195  0.0123  0.4152
 4993SOL    MW419740   5.858   3.658   0.226 -0.4342 -0.1019  0.0904
 4994SOL     OW19741   0.990   4.637   1.415  0.2187  0.0480 -0.4758
 4994SOL    HW219742   0.938   4.655   1.337  1.0256  0.4472 -0.9450
 4994SOL    HW319743   0.952   4.692   1.483  0.5917  1.0440 -1.0490
 4994SOL    MW419744   0.978   4.647   1.414  0.1506 -0.7396  0.1122
 4995SOL     OW19745   1.787   2.159   4.451 -0.6478 -0.5394  0.2417
 4995SOL    HW219746   1.805   2.112   4.533 -1.3094 -1.6386 -0.2252
 4995SOL    HW319747   1.726   2.103   4.404 -0.2744  0.0739 -1.0199
 4995SOL    MW419748   1.781   2.145   4.456 -0.5000 -0.0584 -0.1820
 4996SOL     OW19749   5.183   3.576   1.273 -0.1939 -0.9677 -0.1815
 4996SOL    HW219750   5.242   3.503   1.289 -0.8965 -1.6931 -0.8006
 4996SOL    HW319751   5.104   3.535   1.237 -1.1114 -0.0416  0.7287
 4996SOL    MW419752   5.180   3.561   1.270 -0.0332  0.1127 -0.5440
 4997SOL     OW19753   0.083   6.358   3.949  0.9195  0.6307  0.3829
 4997SOL    HW219754   0.035   6.438   3.968 -2.7821 -1.4925  0.9601
 4997SOL    HW319755   0.024   6.307   3.894  3.2042 -1.6487 -0.1345
 4997SOL    MW419756   0.069   6.362   3.944 -0.0774 -0.1411  0.1326
 4998SOL     OW19757   5.601   2.279   6.056  0.4891 -0.4567 -0.7445
 4998SOL    HW219758   5.629   2.311   6.142 -0.4253  2.2524 -1.3392
 4998SOL    HW319759   5.681   2.277   6.004  0.7586 -0.2743 -0.3460
 4998SOL    MW419760   5.615   2.283   6.061  0.4410 -0.3933 -0.0206
 4999SOL     OW19761   3.049   0.951   0.504  0.5067  0.4070  0.0519
 4999SOL    HW219762   3.062   0.864   0.466  1.8956  0.4659  0.3314
 4999SOL    HW319763   2.995   0.935   0.581  0.6935 -0.2034  0.0650
 4999SOL    MW419764   3.043   0.937   0.509  0.0250  0.7162 -0.6104
 5000SOL     OW19765   5.493   5.502   4.983  0.2600  0.3787 -0.0144
 5000SOL    HW219766   5.588   5.511   4.974  0.3685 -1.2632 -0.9282
 5000SOL    HW319767   5.457   5.548   4.907  0.2022  2.2085  1.0546
 5000SOL    MW419768   5.501   5.509   4.972  0.0579 -0.2017 -0.2490
 5001SOL     OW19769   4.604   3.464   5.737 -0.0850  0.1228  0.7030
 5001SOL    HW219770   4.619   3.482   5.644  0.5370  0.6815  0.8968
 5001SOL    HW319771   4.692   3.466   5.776 -0.4423  1.1417  1.5050
 5001SOL    MW419772   4.618   3.467   5.730 -0.1205  0.2342 -0.3800
 5002SOL     OW19773   5.238   0.420   5.826  0.3306  0.1143 -0.3960
 5002SOL    HW219774   5.197   0.338   5.854  0.0903  1.1711  2.7165
 5002SOL    HW319775   5.165   0.479   5.811  0.5405  0.6155  0.4634
 5002SOL    MW419776   5.223   0.417   5.828  0.0705  0.5855 -0.0117
 5003SOL     OW19777   3.856   3.056   0.953  0.3361 -0.5278  0.1022
 5003SOL    HW219778   3.860   3.139   1.000  0.3996 -0.4745  0.0021
 5003SOL    HW319779   3.857   3.080   0.860  1.4732 -0.6899  0.0603
 5003SOL    MW419780   3.857   3.070   0.947 -0.0005  0.3807  0.4334
 5004SOL     OW19781   4.753   0.034   1.428 -0.1491 -0.0610 -0.4209
 5004SOL    HW219782   4.744   0.124   1.459  1.3633 -0.2661  0.6970
 5004SOL    HW319783   4.765   0.043   1.333 -0.1980  0.8996 -0.3506
 5004SOL    MW419784   4.753   0.047   1.420 -0.1570 -0.3615  0.1773
 5005SOL     OW19785   4.030   6.184   1.157 -0.1263 -0.2419 -0.2487
 5005SOL    HW219786   4.125   6.181   1.163 -0.0969 -1.9125 -1.0609
 5005SOL    HW319787   4.005   6.258   1.213  1.5869 -0.1882  0.5107
 5005SOL    MW419788   4.039   6.193   1.165  0.4526  0.0102 -0.6386
 5006SOL     OW19789   1.000   4.880   0.520 -1.2994  0.6093  0.7560
 5006SOL    HW219790   0.994   4.968   0.559 -1.3370  1.4548 -1.0269
 5006SOL    HW319791   0.934   4.881   0.450 -0.5850 -0.4626  0.0410
 5006SOL    MW419792   0.990   4.892   0.516 -0.0824  0.1060  0.2696
 5007SOL     OW19793   3.448   1.830   1.766 -0.0416  0.1414 -0.5689
 5007SOL    HW219794   3.499   1.879   1.831 -1.0345 -0.5175  0.7394
 5007SOL    HW319795   3.418   1.896   1.704  1.5023  0.6876 -0.7804
 5007SOL    MW419796   3.451   1.845   1.766  0.6069 -0.1681  0.1171
 5008SOL     OW19797   3.455   2.408   4.613 -0.2599  0.7331 -0.3847
 5008SOL    HW219798   3.447   2.336   4.551 -1.4354  2.5892 -2.5677
 5008SOL    HW319799   3.538   2.393   4.657 -0.5408 -2.0114 -0.6054
 5008SOL    MW419800   3.465   2.397   4.610  0.0694 -0.1322  0.5514
 5009SOL     OW19801   3.269   5.868   2.504 -0.4278  0.2261  0.4959
 5009SOL    HW219802   3.262   5.816   2.424 -1.0764  0.2354  0.5373
 5009SOL    HW319803   3.360   5.858   2.532  0.3157  1.6278 -1.1817
 5009SOL    MW419804   3.280   5.860   2.497 -0.3930  0.2549  0.3065
 5010SOL     OW19805   0.651   5.690   0.107 -0.1044 -0.5078 -0.6999
 5010SOL    HW219806   0.732   5.740   0.122 -0.1394 -0.5568 -0.3341
 5010SOL    HW319807   0.594   5.716   0.179 -0.1846 -0.9476 -0.6057
 5010SOL    MW419808   0.654   5.700   0.119 -0.6271 -0.1613  0.2002
 5011SOL     OW19809   3.862   3.138   5.510 -0.5533  0.3050 -0.4352
 5011SOL    HW219810   3.886   3.056   5.466 -0.0565 -0.2151  0.7533
 5011SOL    HW319811   3.925   3.146   5.582 -2.0153  0.5139  0.8920
 5011SOL    MW419812   3.873   3.128   5.514 -0.4199  0.0235  0.0938
 5012SOL     OW19813   0.840   5.789   5.567  0.5022  0.6415  0.2003
 5012SOL    HW219814   0.851   5.878   5.534 -0.4342  0.9529  0.6889
 5012SOL    HW319815   0.751   5.764   5.541  0.7592 -0.1543  0.0616
 5012SOL    MW419816   0.830   5.798   5.560 -0.2467  0.3325 -0.4516
 5013SOL     OW19817   3.481   3.896   1.376  0.7022  0.3103  0.6451
 5013SOL    HW219818   3.436   3.899   1.461 -0.9222 -3.2406  0.0716
 5013SOL    HW319819   3.412   3.917   1.313  1.5707  1.4990  0.0489
 5013SOL    MW419820   3.466   3.899   1.379  0.0963  0.1420  0.3196
 5014SOL     OW19821   3.177   1.975   4.506 -0.5618  0.0016 -0.5201
 5014SOL    HW219822   3.172   2.028   4.585 -1.8359 -1.5553  0.4878
 5014SOL    HW319823   3.114   2.015   4.446 -1.1588 -0.0949  0.0462
 5014SOL    MW419824   3.168   1.988   4.508  0.8597  0.3364  0.0866
 5015SOL     OW19825   5.275   3.285   5.681 -0.0254 -0.0912 -0.2952
 5015SOL    HW219826   5.360   3.319   5.708 -0.0063 -0.3702  0.0063
 5015SOL    HW319827   5.220   3.363   5.670 -0.4067 -0.0004  1.8017
 5015SOL    MW419828   5.279   3.300   5.683 -0.0624 -0.1090  0.2540
 5016SOL     OW19829   2.646   5.517   4.202 -0.2943 -0.3672  0.1192
 5016SOL    HW219830   2.650   5.497   4.108 -0.0463 -1.9212  0.4362
 5016SOL    HW319831   2.583   5.453   4.237  0.5767 -0.6649  1.2059
 5016SOL    MW419832   2.638   5.506   4.194 -0.2467 -0.2727 -0.5300
 5017SOL     OW19833   2.816   1.336   1.201  0.5351 -1.0345  0.3394
 5017SOL    HW219834   2.872   1.380   1.137  0.6593  1.1014  1.8055
 5017SOL    HW319835   2.749   1.293   1.148  0.1726  1.2865 -1.2506
 5017SOL    MW419836   2.814   1.336   1.185 -0.0335 -0.1611 -0.2355
 5018SOL     OW19837   0.726   1.888   0.755 -0.0283  0.3675  0.6228
 5018SOL    HW219838   0.760   1.833   0.684  1.0607 -1.1491  2.2254
 5018SOL    HW319839   0.648   1.842   0.785 -0.8271  1.3218  0.0621
 5018SOL    MW419840   0.720   1.875   0.749  0.2917  0.0058 -0.1014
 5019SOL     OW19841   4.693   5.034   3.693 -0.2443 -0.4800  0.2577
 5019SOL    HW219842   4.609   5.028   3.740  0.5187 -2.4712  1.5323
 5019SOL    HW319843   4.759   5.033   3.763  0.8686  1.3633 -0.7064
 5019SOL    MW419844   4.690   5.033   3.709  0.1809  0.2882 -0.0445
 5020SOL     OW19845   4.145   4.014   5.350  0.9941  0.0275 -0.2184
 5020SOL    HW219846   4.225   3.983   5.308  0.2062 -0.2854 -1.5725
 5020SOL    HW319847   4.131   3.954   5.423  1.5640 -0.4137 -0.4645
 5020SOL    MW419848   4.154   4.002   5.354 -0.3232 -0.1002  0.5482
 5021SOL     OW19849   5.687   0.889   4.942  0.2413  0.3872 -0.3150
 5021SOL    HW219850   5.712   0.803   4.974  0.4441 -0.1262 -1.8235
 5021SOL    HW319851   5.767   0.941   4.948 -0.0094  0.6581  1.1038
 5021SOL    MW419852   5.701   0.885   4.947  0.3605 -0.2265  0.9210
 5022SOL     OW19853   0.087   2.679   5.429 -0.2510 -0.2421 -0.3582
 5022SOL    HW219854   0.059   2.648   5.515  0.0644  0.5433  0.0381
 5022SOL    HW319855   0.044   2.620   5.367  1.8391 -2.7045  0.3795
 5022SOL    MW419856   0.077   2.668   5.432 -0.0289  0.4540  0.1897
 5023SOL     OW19857   2.196   0.197   2.430 -0.8537  0.7529 -0.1978
 5023SOL    HW219858   2.235   0.160   2.509 -0.1749 -1.5565 -1.5379
 5023SOL    HW319859   2.259   0.263   2.400 -1.5429  2.3355  1.5885
 5023SOL    MW419860   2.210   0.201   2.437 -0.2599 -0.4835 -0.4376
 5024SOL     OW19861   3.055   3.339   0.537  0.4419  0.3659  0.1895
 5024SOL    HW219862   3.116   3.410   0.516 -0.3211  0.8837 -0.3512
 5024SOL    HW319863   2.968   3.378   0.527  0.0055 -0.6018  0.0458
 5024SOL    MW419864   3.051   3.354   0.533  0.4895  0.5028  0.1452
 5025SOL     OW19865   4.037   2.628   2.557  0.0274 -0.1983 -0.0551
 5025SOL    HW219866   4.126   2.594   2.567  0.1209 -0.1107 -0.5672
 5025SOL    HW319867   4.015   2.611   2.465  0.2575  1.5531 -0.4549
 5025SOL    MW419868   4.046   2.621   2.546  0.3236 -0.6683  0.3156
 5026SOL     OW19869   6.022   1.745   1.356  0.4523  0.0248 -0.7899
 5026SOL    HW219870   6.005   1.689   1.432  0.7579  0.6872 -0.2278
 5026SOL    HW319871   6.115   1.769   1.364  0.0393  1.5901 -0.3441
 5026SOL    MW419872   6.032   1.741   1.367  0.1989 -0.3618 -0.0611
 5027SOL     OW19873   1.937   2.612   2.008 -0.6422  0.6266 -0.3652
 5027SOL    HW219874   1.963   2.551   2.077  0.3333 -0.9105 -2.0022
 5027SOL    HW319875   1.993   2.688   2.020 -0.4527  0.3576  0.5047
 5027SOL    MW419876   1.948   2.614   2.018  0.9311 -0.8025  0.2155
 5028SOL     OW19877   4.510   3.107   4.561 -0.1524 -0.9119 -0.4432
 5028SOL    HW219878   4.525   3.022   4.601  0.9838 -1.1349 -1.2659
 5028SOL    HW319879   4.598   3.140   4.543 -0.3239  2.1248  3.1542
 5028SOL    MW419880   4.524   3.100   4.564 -0.3468 -0.2244 -0.4305
 5029SOL     OW19881   1.279  -0.006   3.322  0.5569  0.2181 -0.3490
 5029SOL    HW219882   1.237   0.079   3.305 -2.0132 -0.8916 -0.0675
 5029SOL    HW319883   1.348   0.014   3.385 -0.3256  2.0474  0.1274
 5029SOL    MW419884   1.283   0.008   3.328  0.0347  0.4268 -0.3541
 5030SOL     OW19885   2.533   4.503   5.369 -0.3052  0.6193  0.1956
 5030SOL    HW219886   2.474   4.560   5.419 -0.3860  2.5892 -1.9583
 5030SOL    HW319887   2.600   4.562   5.335  2.2636 -1.3436  1.4407
 5030SOL    MW419888   2.534   4.518   5.371  0.6564 -0.2010 -0.4763
 5031SOL     OW19889   4.740   4.565   1.212 -0.0891 -0.1736 -0.1052
 5031SOL    HW219890   4.794   4.595   1.139  0.6331 -1.3324 -0.0687
 5031SOL    HW319891   4.711   4.478   1.187 -1.4447  0.1715  0.1647
 5031SOL    MW419892   4.743   4.558   1.199  0.0036 -0.7284 -0.0405
 5032SOL     OW19893   5.581   2.841   3.698  0.0539 -0.0029 -0.1602
 5032SOL    HW219894   5.604   2.758   3.741  2.2219 -0.7462 -2.5105
 5032SOL    HW319895   5.639   2.846   3.623  0.8517  4.2929  0.5013
 5032SOL    MW419896   5.591   2.831   3.694  0.6624  0.1719  0.5407
 5033SOL     OW19897   1.607   4.518   2.173  0.5044  0.0623 -0.2041
 5033SOL    HW219898   1.583   4.530   2.265 -0.4187 -1.5214 -0.1950
 5033SOL    HW319899   1.532   4.471   2.135  1.7965 -1.2493 -1.2343
 5033SOL    MW419900   1.594   4.513   2.180 -0.0145  0.0492  0.3241
 5034SOL     OW19901   4.606   0.988   5.080  0.1925 -0.1129  0.0688
 5034SOL    HW219902   4.595   1.024   5.168 -1.3316  0.7320 -0.4262
 5034SOL    HW319903   4.560   0.904   5.083  0.1860 -0.1090  0.0826
 5034SOL    MW419904   4.598   0.981   5.092  0.5803 -0.5147  0.3062
 5035SOL     OW19905   0.114   6.247   0.325  0.5100 -0.4711 -0.7955
 5035SOL    HW219906   0.072   6.162   0.335  0.9751 -0.6133 -0.0096
 5035SOL    HW319907   0.187   6.231   0.265 -0.7797 -0.1317 -2.5454
 5035SOL    MW419908   0.118   6.234   0.318 -0.3174 -0.6193  0.2404
 5036SOL     OW19909   4.220   3.968   4.710  0.5306 -0.0932 -0.1651
 5036SOL    HW219910   4.126   3.965   4.726  0.4723 -0.2726 -0.5189
 5036SOL    HW319911   4.228   3.981   4.615  0.8541 -1.6241 -0.3778
 5036SOL    MW419912   4.209   3.969   4.699  0.3272 -0.2355  0.3845
 5037SOL     OW19913   1.987   3.416   0.056 -0.6836 -0.1229 -0.1949
 5037SOL    HW219914   2.049   3.478   0.095 -0.2910 -0.0619 -0.8975
 5037SOL    HW319915   1.947   3.463  -0.017 -0.8922 -0.4636 -0.3060
 5037SOL    MW419916   1.990   3.430   0.052 -0.5756 -0.3923 -0.1158
 5038SOL     OW19917   3.781   0.696   3.794  0.0158 -0.0128  0.0047
 5038SOL    HW219918   3.840   0.675   3.722  0.7791 -0.7050  0.8168
 5038SOL    HW319919   3.808   0.783   3.824  1.1486 -0.6386  0.8637
 5038SOL    MW419920   3.792   0.705   3.789 -0.2270 -0.4849  0.2716
 5039SOL     OW19921   3.650   1.513   0.953 -0.1676  0.1237  0.4757
 5039SOL    HW219922   3.648   1.451   1.027 -0.7204 -0.7776 -0.2712
 5039SOL    HW319923   3.562   1.511   0.917 -0.2964  1.6476  0.6436
 5039SOL    MW419924   3.638   1.504   0.958  0.1336 -0.6511  0.2934
 5040SOL     OW19925   0.460   4.031   0.420 -0.2344  0.7923  0.4621
 5040SOL    HW219926   0.408   4.111   0.413 -1.9482 -0.2476  0.8097
 5040SOL    HW319927   0.519   4.048   0.494  0.2558  2.1353 -0.1872
 5040SOL    MW419928   0.461   4.044   0.429  0.2021 -0.4372  0.8453
 5041SOL     OW19929   3.493   3.423   0.094 -0.6429  0.3449 -0.1404
 5041SOL    HW219930   3.572   3.463   0.059 -1.6171  1.4816 -1.1405
 5041SOL    HW319931   3.490   3.449   0.186  0.2091  0.1636 -0.0579
 5041SOL    MW419932   3.503   3.431   0.102  0.1073 -0.5883 -0.3045
 5042SOL     OW19933   2.287   5.280   2.806  0.1253 -0.1939 -0.0731
 5042SOL    HW219934   2.212   5.221   2.809  0.2316 -0.3237  0.0354
 5042SOL    HW319935   2.292   5.308   2.715 -0.1913 -0.0102 -0.0351
 5042SOL    MW419936   2.278   5.276   2.794 -0.0920 -0.0279 -0.2563
 5043SOL     OW19937   3.872   5.374   2.287 -0.2299 -0.4391 -0.2221
 5043SOL    HW219938   3.829   5.298   2.246 -2.4233  0.3008  0.5801
 5043SOL    HW319939   3.873   5.353   2.381 -1.4333  0.7540  0.0810
 5043SOL    MW419940   3.866   5.361   2.294  0.5930 -0.3837 -0.5977
 5044SOL     OW19941   2.762   0.420   1.291  0.5479  0.3210  0.5960
 5044SOL    HW219942   2.781   0.507   1.254  0.0941  0.6273  1.0698
 5044SOL    HW319943   2.690   0.435   1.352  0.2526 -0.4498  0.4488
 5044SOL    MW419944   2.755   0.434   1.294  0.4345 -0.3790 -0.0893
 5045SOL     OW19945   3.820   5.092   2.469 -0.1124 -0.2175 -0.5081
 5045SOL    HW219946   3.745   5.077   2.528 -1.3374 -0.5945 -2.0962
 5045SOL    HW319947   3.864   5.007   2.463  0.4876  0.0072  0.4357
 5045SOL    MW419948   3.816   5.079   2.476  0.2660 -0.4019 -0.1407
 5046SOL     OW19949   1.652   6.332   1.727  0.0906 -0.1222 -0.0783
 5046SOL    HW219950   1.695   6.374   1.801 -1.3676  0.4989  0.4631
 5046SOL    HW319951   1.659   6.396   1.656 -3.5759  2.0077  1.1915
 5046SOL    MW419952   1.658   6.346   1.727 -0.2316  0.6477  0.0081
 5047SOL     OW19953   0.104   4.188   6.238  0.3011  0.4030 -0.2245
 5047SOL    HW219954   0.130   4.204   6.329  0.7433 -2.5592  0.2603
 5047SOL    HW319955   0.121   4.271   6.193  1.2562  1.5592  2.1293
 5047SOL    MW419956   0.110   4.201   6.244  0.3957  0.0572  0.2330
 5048SOL     OW19957   2.725   2.983   0.304 -0.1263 -0.2976 -0.1935
 5048SOL    HW219958   2.677   2.935   0.372  0.9613 -0.4811  0.4667
 5048SOL    HW319959   2.717   3.075   0.329  0.8761 -0.4116  0.6141
 5048SOL    MW419960   2.717   2.989   0.316 -0.3635  0.3137  0.2196
 5049SOL     OW19961   4.267   6.036   1.771  0.9467  0.3739  0.0457
 5049SOL    HW219962   4.242   5.944   1.761 -2.1192  1.1151 -0.1618
 5049SOL    HW319963   4.313   6.039   1.855 -2.1124 -0.8737  1.9225
 5049SOL    MW419964   4.270   6.024   1.781 -0.2945 -0.2370  0.0565
 5050SOL     OW19965   1.554   6.300   0.457  0.1139  0.5855 -0.0641
 5050SOL    HW219966   1.492   6.228   0.469 -0.6846  1.2953  0.2223
 5050SOL    HW319967   1.570   6.302   0.363  0.3485 -0.1175 -0.0493
 5050SOL    MW419968   1.548   6.291   0.446  0.6925  0.2589  0.1624
 5051SOL     OW19969   3.700   0.666   1.548 -0.0392  0.6169 -0.0288
 5051SOL    HW219970   3.707   0.584   1.596  1.1282  0.3166 -0.6952
 5051SOL    HW319971   3.783   0.711   1.564 -0.2125  1.1611 -0.6126
 5051SOL    MW419972   3.712   0.661   1.557  0.7161  0.1478  0.1873
 5052SOL     OW19973   1.796   1.911   0.425 -0.4430 -0.2267  0.2910
 5052SOL    HW219974   1.824   1.884   0.513 -1.7003 -0.4572  0.6392
 5052SOL    HW319975   1.719   1.857   0.407 -0.5052  0.1893 -0.7493
 5052SOL    MW419976   1.790   1.900   0.434 -0.1924 -0.7754 -0.0833
 5053SOL     OW19977   3.999   1.723   3.238  0.1268  0.0505  0.3106
 5053SOL    HW219978   3.964   1.660   3.175  0.0195  0.8200 -0.4356
 5053SOL    HW319979   3.921   1.767   3.272  0.2758  1.7493 -1.3338
 5053SOL    MW419980   3.984   1.721   3.234 -0.0171 -0.1008  0.4444
 5054SOL     OW19981   4.300   1.288   5.204 -0.1477 -0.0429  0.6586
 5054SOL    HW219982   4.337   1.252   5.124 -0.7318  0.0585  0.3324
 5054SOL    HW319983   4.374   1.299   5.263  0.1711 -0.8998  0.4307
 5054SOL    MW419984   4.315   1.284   5.201 -0.1076  0.2230 -0.4193
 5055SOL     OW19985   5.916   1.128   3.107 -0.2803 -0.5656 -0.3114
 5055SOL    HW219986   5.944   1.165   3.023  0.5553 -2.0325 -0.7123
 5055SOL    HW319987   5.858   1.195   3.144  0.3645  0.6796 -1.4504
 5055SOL    MW419988   5.912   1.142   3.101  0.1338 -0.0742  0.0438
 5056SOL     OW19989   6.038   3.022   0.784 -0.2165 -0.6605 -0.0889
 5056SOL    HW219990   6.101   3.029   0.856  0.1813  0.2402 -0.4970
 5056SOL    HW319991   6.035   3.111   0.747 -2.9007 -0.2591  0.8731
 5056SOL    MW419992   6.046   3.035   0.789 -0.0531 -0.2540  0.0524
 5057SOL     OW19993   3.663   4.408   1.299  0.4069  0.0950 -0.5230
 5057SOL    HW219994   3.586   4.457   1.328  1.0255 -1.1388  3.8112
 5057SOL    HW319995   3.641   4.316   1.315  1.3272 -0.7183 -3.2583
 5057SOL    MW419996   3.650   4.402   1.305 -0.5744  0.0904  0.1969
 5058SOL     OW19997   5.048   1.671   2.058 -0.1422  0.7203 -0.0113
 5058SOL    HW219998   4.957   1.693   2.078  0.5792  1.9618  2.2000
 5058SOL    HW319999   5.079   1.625   2.136  1.4847  1.4196 -0.2138
 5058SOL    MW420000   5.040   1.668   2.071  0.2042 -0.2414  0.0779
 5059SOL     OW20001   5.830   4.929   3.920  0.1474 -0.6601  0.3762
 5059SOL    HW220002   5.843   4.842   3.882 -3.0987 -0.3527 -1.8622
 5059SOL    HW320003   5.767   4.915   3.990 -2.3033  0.0331 -1.5519
 5059SOL    MW420004   5.824   4.916   3.924  0.2072  0.1519 -0.1023
 5060SOL     OW20005   0.446   0.572   4.255  0.5958  0.1637 -0.2224
 5060SOL    HW220006   0.405   0.550   4.172 -0.9804  0.8196  0.3411
 5060SOL    HW320007   0.444   0.491   4.305  1.9653 -0.3503 -0.9646
 5060SOL    MW420008   0.440   0.559   4.251  0.2584 -0.0144 -0.2418
 5061SOL     OW20009   5.926   4.624   0.007 -0.0025  0.8058 -0.7458
 5061SOL    HW220010   5.969   4.566  -0.055  2.0547 -0.4081  1.6413
 5061SOL    HW320011   5.833   4.622  -0.017  0.6001 -0.1898 -3.2261
 5061SOL    MW420012   5.919   4.616  -0.004  0.0658 -0.2804  0.0194
 5062SOL     OW20013   5.869   3.776   3.453  0.6462  0.5793  0.3933
 5062SOL    HW220014   5.930   3.834   3.499  0.9605  1.3870 -0.9801
 5062SOL    HW320015   5.804   3.835   3.415  0.0002 -0.1290  0.3651
 5062SOL    MW420016   5.868   3.792   3.454  0.3884  0.2849  0.0238
 5063SOL     OW20017   4.520   5.763   4.752  0.1849  0.8086 -0.1646
 5063SOL    HW220018   4.477   5.685   4.716 -1.7272  1.5378  0.4157
 5063SOL    HW320019   4.613   5.741   4.751  0.0988  0.0127 -3.6269
 5063SOL    MW420020   4.526   5.750   4.747 -0.0806  0.2145  0.0046
 5064SOL     OW20021   2.863   0.746   3.095  0.6836  0.0776  0.7116
 5064SOL    HW220022   2.828   0.767   3.009  0.0431 -0.6432  0.7864
 5064SOL    HW320023   2.822   0.662   3.118  2.4102 -0.7720  0.8339
 5064SOL    MW420024   2.853   0.738   3.087 -0.1834 -0.5214 -0.3668
 5065SOL     OW20025   0.289   0.322   2.763 -0.1295  0.1784  0.1975
 5065SOL    HW220026   0.325   0.397   2.811  0.8082  0.6898 -1.2638
 5065SOL    HW320027   0.252   0.266   2.832 -0.0945  1.5574  1.3957
 5065SOL    MW420028   0.289   0.325   2.779 -0.6986  0.1606  0.7382
 5066SOL     OW20029   1.540   4.168   2.718 -0.0716 -0.1499  0.1004
 5066SOL    HW220030   1.524   4.259   2.744 -1.6084 -0.7739  1.5209
 5066SOL    HW320031   1.518   4.117   2.795 -0.8853 -1.8416 -1.1939
 5066SOL    MW420032   1.535   4.174   2.732 -0.1126  0.4178 -0.5164
 5067SOL     OW20033   3.156   4.555   4.535  0.6235  0.0732  0.0864
 5067SOL    HW220034   3.152   4.473   4.486  1.6664  0.0324  0.0471
 5067SOL    HW320035   3.240   4.594   4.510  0.8944  0.3574  1.3573
 5067SOL    MW420036   3.167   4.550   4.525 -0.6147  0.1567  0.1680
 5068SOL     OW20037   0.871   2.261   5.400  0.0908  0.5894 -0.0923
 5068SOL    HW220038   0.893   2.183   5.350 -0.6434  0.1032  0.3235
 5068SOL    HW320039   0.775   2.262   5.402  0.0836  0.2872  1.7451
 5068SOL    MW420040   0.861   2.251   5.394 -0.6019 -0.4454 -0.0623
 5069SOL     OW20041   2.651   3.618   5.307 -0.2696 -0.2036  0.4066
 5069SOL    HW220042   2.693   3.668   5.238  1.4984  0.4203  1.8394
 5069SOL    HW320043   2.571   3.665   5.327 -0.2791  0.1758 -0.4972
 5069SOL    MW420044   2.646   3.631   5.301  0.0227 -0.0311 -0.6993
 5070SOL     OW20045   5.256   6.392   5.044  0.1698 -0.0741  0.1923
 5070SOL    HW220046   5.317   6.389   4.971  1.8852 -0.2729  1.5668
 5070SOL    HW320047   5.241   6.300   5.066  0.6603 -0.0088  0.8469
 5070SOL    MW420048   5.262   6.380   5.037 -0.6506  0.5455  0.6017
 5071SOL     OW20049   6.281   0.317   5.123 -0.0915 -0.2880 -0.6936
 5071SOL    HW220050   6.283   0.403   5.079 -1.8363  0.2471  0.1989
 5071SOL    HW320051   6.361   0.316   5.176 -0.1758  0.9194 -0.5010
 5071SOL    MW420052   6.292   0.328   5.124 -0.5991 -0.0290 -0.3136
 5072SOL     OW20053   2.454   3.879   5.627 -0.5645 -0.6379  0.5194
 5072SOL    HW220054   2.498   3.913   5.705  1.4760  0.1696 -0.8733
 5072SOL    HW320055   2.499   3.797   5.608 -0.1390 -0.1815 -0.5157
 5072SOL    MW420056   2.466   3.872   5.635 -0.1833 -0.0961  0.1076
 5073SOL     OW20057   0.900   1.507   3.189  0.6639 -0.1212  0.6485
 5073SOL    HW220058   0.962   1.576   3.164 -0.6024  1.3848  1.4550
 5073SOL    HW320059   0.912   1.497   3.284 -1.0112  0.9838  1.0230
 5073SOL    MW420060   0.910   1.515   3.198  0.1884  0.0934  0.4810
 5074SOL     OW20061   4.302   4.471   5.322 -0.1873  0.1631  0.0586
 5074SOL    HW220062   4.397   4.479   5.315 -0.3107  0.8582 -1.2895
 5074SOL    HW320063   4.288   4.392   5.374  1.1098  1.2964  2.2269
 5074SOL    MW420064   4.313   4.461   5.328  0.3430  0.1284 -0.2578
 5075SOL     OW20065   6.057   0.967   4.212  0.0581  0.1144  0.2655
 5075SOL    HW220066   6.008   0.913   4.274 -0.0535 -0.2201 -0.1166
 5075SOL    HW320067   6.098   0.905   4.152  3.0210  0.1823  2.0044
 5075SOL    MW420068   6.056   0.952   4.212 -0.1270  0.3970 -0.3445
 5076SOL     OW20069   1.372   2.317   1.412  0.3478 -0.5033 -0.0167
 5076SOL    HW220070   1.457   2.338   1.450 -0.0179 -0.7162  0.9578
 5076SOL    HW320071   1.315   2.300   1.488 -0.8977  0.8866 -0.5888
 5076SOL    MW420072   1.376   2.317   1.427 -0.3052 -0.1306  0.4636
 5077SOL     OW20073   4.974   1.618   5.924 -0.0396 -0.4906 -0.1017
 5077SOL    HW220074   4.927   1.667   5.992  1.7313  1.7074 -0.3413
 5077SOL    HW320075   4.942   1.655   5.841  1.6248  0.6650 -0.2789
 5077SOL    MW420076   4.963   1.629   5.922  0.9852  0.0783 -0.2245
 5078SOL     OW20077   5.714   2.689   1.544  0.3944  0.3717  0.1773
 5078SOL    HW220078   5.678   2.693   1.456  0.4663  1.8631  0.1952
 5078SOL    HW320079   5.787   2.627   1.537  0.3804  0.4489 -0.7983
 5078SOL    MW420080   5.719   2.681   1.531 -0.5417  0.1653 -0.0819
 5079SOL     OW20081   3.869   0.800   6.119 -0.7257 -0.4185 -0.5604
 5079SOL    HW220082   3.933   0.836   6.179 -0.9139  1.6390 -1.5108
 5079SOL    HW320083   3.794   0.776   6.173 -0.1745 -0.3766  0.2244
 5079SOL    MW420084   3.867   0.801   6.134 -0.2788 -0.3102  0.6063
 5080SOL     OW20085   3.383   5.376   0.613 -0.6583  0.0500 -0.3419
 5080SOL    HW220086   3.419   5.464   0.619  0.6107 -0.4592  0.0080
 5080SOL    HW320087   3.318   5.371   0.683 -1.9550  1.2035 -1.3959
 5080SOL    MW420088   3.379   5.387   0.623 -0.1037  0.2627 -0.4396
 5081SOL     OW20089   3.108   2.341   3.743 -0.2132  0.6187  0.0116
 5081SOL    HW220090   3.019   2.356   3.710 -0.1760 -0.5552 -0.6914
 5081SOL    HW320091   3.098   2.275   3.811  0.2435 -0.6012 -1.0500
 5081SOL    MW420092   3.095   2.334   3.748  0.1455 -0.4068 -0.7332
 5082SOL     OW20093   5.984   3.161   0.458 -0.4348 -0.0553  0.2040
 5082SOL    HW220094   5.994   3.211   0.377  1.0566 -1.8788 -0.8179
 5082SOL    HW320095   5.901   3.115   0.449 -0.8134  0.6076  0.2413
 5082SOL    MW420096   5.974   3.162   0.446 -0.1391  0.2049 -0.2048
 5083SOL     OW20097   1.168   2.115   3.245  0.1511 -0.0352  0.0848
 5083SOL    HW220098   1.240   2.177   3.230 -0.5175  1.0005  1.0950
 5083SOL    HW320099   1.104   2.136   3.177 -0.6740  1.3223  1.2426
 5083SOL    MW420100   1.169   2.126   3.234  0.3947 -0.0284 -0.2965
 5084SOL     OW20101   5.721   2.415   3.965 -0.3528 -0.3298 -0.4996
 5084SOL    HW220102   5.732   2.334   3.915  0.6234 -0.2508 -0.4204
 5084SOL    HW320103   5.698   2.481   3.900 -0.2585 -0.4766 -0.6798
 5084SOL    MW420104   5.719   2.413   3.950 -0.1791  0.2788  0.3051
 5085SOL     OW20105   2.062   4.702   0.038  0.3731 -0.6885 -0.0394
 5085SOL    HW220106   2.035   4.682  -0.052 -3.1602 -0.9464  0.9132
 5085SOL    HW320107   2.035   4.793   0.051 -1.7041 -1.4512  1.4976
 5085SOL    MW420108   2.055   4.712   0.028  0.1309  0.7507  0.3121
 5086SOL     OW20109   2.602   5.935   5.961 -0.0669 -0.3102  0.0818
 5086SOL    HW220110   2.554   6.017   5.972 -0.0350 -0.3334  0.3797
 5086SOL    HW320111   2.633   5.912   6.048  1.1254  0.0954 -0.2100
 5086SOL    MW420112   2.600   5.942   5.974  0.5575 -0.0711  0.4124
 5087SOL     OW20113   3.151   4.875   5.683 -0.3317 -0.2095  0.4648
 5087SOL    HW220114   3.077   4.839   5.634  1.9736 -2.7854 -1.3974
 5087SOL    HW320115   3.199   4.927   5.618  0.1374  0.4865  1.3497
 5087SOL    MW420116   3.148   4.877   5.668  0.0175  0.5792 -0.7114
 5088SOL     OW20117   5.260   3.285   2.089 -0.0795  0.1104 -0.3428
 5088SOL    HW220118   5.259   3.202   2.040  1.8671 -0.0820 -0.1329
 5088SOL    HW320119   5.293   3.261   2.176  1.8839  1.2700 -0.7024
 5088SOL    MW420120   5.264   3.271   2.094 -0.6187 -0.5621  0.3867
 5089SOL     OW20121   5.589   3.370   5.346  0.3082  0.1141 -0.6759
 5089SOL    HW220122   5.540   3.452   5.350 -0.8861 -0.5454 -1.2091
 5089SOL    HW320123   5.668   3.386   5.397 -0.4921  1.1972  0.2607
 5089SOL    MW420124   5.593   3.383   5.353  0.1780 -0.1238  0.1412
 5090SOL     OW20125   2.124   5.995   4.884 -0.2293 -0.3445  0.2777
 5090SOL    HW220126   2.068   6.072   4.894  0.5045 -0.0483  3.1780
 5090SOL    HW320127   2.070   5.921   4.911 -0.6572 -0.7780 -1.6457
 5090SOL    MW420128   2.110   5.996   4.889 -0.3068 -0.9223 -0.0679
 5091SOL     OW20129   4.805   4.834   0.912 -1.0749 -0.2282 -0.0367
 5091SOL    HW220130   4.768   4.825   0.824 -1.9607 -0.4919  0.3499
 5091SOL    HW320131   4.889   4.877   0.899 -1.6328  0.6209 -0.9273
 5091SOL    MW420132   4.811   4.839   0.899 -0.4735 -0.0925  0.4452
 5092SOL     OW20133   4.711   0.173   4.908  0.1642  0.6418  0.0469
 5092SOL    HW220134   4.683   0.091   4.867 -3.5600  1.6874  0.1620
 5092SOL    HW320135   4.708   0.237   4.838 -0.8276  1.3739  0.7252
 5092SOL    MW420136   4.707   0.170   4.893 -0.2410 -0.0474 -0.3922
 5093SOL     OW20137   4.817   2.270   2.964  0.0173 -0.3523 -0.0242
 5093SOL    HW220138   4.872   2.309   2.897 -0.3392 -0.6581 -0.5037
 5093SOL    HW320139   4.875   2.257   3.039  0.2801  0.5441 -0.0581
 5093SOL    MW420140   4.832   2.274   2.965  0.1551  0.0077 -0.1561
 5094SOL     OW20141   1.730   4.642   1.502 -0.3442  0.1919  0.3015
 5094SOL    HW220142   1.702   4.730   1.476 -0.4959 -0.0474 -0.3688
 5094SOL    HW320143   1.697   4.633   1.592 -1.8147  0.1952 -0.2011
 5094SOL    MW420144   1.722   4.653   1.511  0.4282 -0.0665 -0.1407
 5095SOL     OW20145   4.901   0.271   5.107  0.5860 -0.7771 -0.0417
 5095SOL    HW220146   4.858   0.256   5.191  0.4982  0.6984  0.1977
 5095SOL    HW320147   4.842   0.230   5.043 -0.3034 -0.3064  0.4467
 5095SOL    MW420148   4.887   0.264   5.110  0.5972 -0.0248  0.6436
 5096SOL     OW20149   2.390   0.676   3.602 -0.3624 -0.3208 -0.4405
 5096SOL    HW220150   2.411   0.769   3.605  0.2779 -0.4787  0.2431
 5096SOL    HW320151   2.471   0.634   3.572 -0.8014 -0.6215 -1.2658
 5096SOL    MW420152   2.404   0.683   3.598  0.3852 -0.5843 -0.2294
 5097SOL     OW20153   3.798   1.362   3.395  0.6221  0.2058  0.1782
 5097SOL    HW220154   3.884   1.347   3.355  0.6374  0.4553  0.1160
 5097SOL    HW320155   3.780   1.455   3.379  0.7813  0.3978  1.0319
 5097SOL    MW420156   3.807   1.372   3.387 -0.0864 -0.1484 -0.0797
 5098SOL     OW20157   3.327   2.774   0.073 -0.2715 -0.3531  0.2674
 5098SOL    HW220158   3.313   2.803  -0.018 -2.3356 -1.2683  0.2239
 5098SOL    HW320159   3.282   2.690   0.078 -0.9802  0.0966  2.3770
 5098SOL    MW420160   3.319   2.767   0.062  0.2728  0.0396  0.2594
 5099SOL     OW20161   0.638   0.540   4.860 -0.0594 -0.3730  0.2072
 5099SOL    HW220162   0.677   0.621   4.893 -0.1378 -0.3744  0.3033
 5099SOL    HW320163   0.628   0.555   4.766  0.7192 -0.5969  0.0885
 5099SOL    MW420164   0.642   0.553   4.852  0.0818  0.5908  0.7847
 5100SOL     OW20165   6.324   5.087   1.406  0.0242  0.1542 -0.1071
 5100SOL    HW220166   6.229   5.079   1.418 -0.1865  0.7596 -1.2361
 5100SOL    HW320167   6.348   5.168   1.451  0.2078 -0.5570  1.1254
 5100SOL    MW420168   6.315   5.096   1.413 -0.2894  0.3411  0.1125
 5101SOL     OW20169   0.035   1.983   4.617 -0.1615  0.1742 -0.0447
 5101SOL    HW220170   0.032   1.898   4.661  1.6033  0.8322  1.5050
 5101SOL    HW320171   0.056   1.963   4.526 -2.8672 -1.1766 -0.4784
 5101SOL    MW420172   0.037   1.969   4.611  0.2792 -0.3608  0.3434
 5102SOL     OW20173   4.925   3.234   0.921  0.0042  0.0380  0.9753
 5102SOL    HW220174   4.954   3.316   0.963  1.0678  0.2079 -0.0592
 5102SOL    HW320175   4.944   3.166   0.985  0.7082  0.4070  1.1624
 5102SOL    MW420176   4.931   3.236   0.935  0.2026 -0.3333  0.4004
 5103SOL     OW20177   4.640   4.426   6.217 -0.3817 -0.4703  0.1863
 5103SOL    HW220178   4.571   4.418   6.152 -0.8750 -0.8470  0.7404
 5103SOL    HW320179   4.667   4.517   6.212  1.2514 -1.0023 -2.1746
 5103SOL    MW420180   4.634   4.437   6.208 -0.9039 -0.1729 -0.0618
 5104SOL     OW20181   3.682   2.848   1.252  0.1249 -0.2026 -0.5434
 5104SOL    HW220182   3.672   2.753   1.260 -0.0439 -0.1855 -0.5584
 5104SOL    HW320183   3.641   2.883   1.331  0.6440 -0.1701 -0.2851
 5104SOL    MW420184   3.676   2.840   1.263  0.3583  0.1311  0.4429
 5105SOL     OW20185   6.185   1.847   1.684 -0.0140  0.4556  0.0681
 5105SOL    HW220186   6.262   1.813   1.639 -0.1898  1.2533 -0.8826
 5105SOL    HW320187   6.162   1.780   1.748  1.0830 -0.0748 -0.0779
 5105SOL    MW420188   6.192   1.834   1.687 -0.0148 -0.5102 -0.2328
 5106SOL     OW20189   1.032   1.530   0.382  0.1904 -0.3973  0.5791
 5106SOL    HW220190   0.988   1.453   0.417  1.9699 -0.7431  2.2482
 5106SOL    HW320191   1.006   1.601   0.440  1.8212 -0.6290  1.6632
 5106SOL    MW420192   1.023   1.529   0.394 -0.2553  0.6528 -0.1418
 5107SOL     OW20193   0.924   3.482   5.881  0.5562  0.1461  0.2088
 5107SOL    HW220194   0.944   3.431   5.960  0.7200 -0.8139 -0.4515
 5107SOL    HW320195   0.953   3.428   5.808 -0.3954  0.6522 -0.5686
 5107SOL    MW420196   0.930   3.468   5.882 -0.2155 -0.0553  0.4472
 5108SOL     OW20197   2.179   4.869   4.366 -0.1831 -0.1232  0.0576
 5108SOL    HW220198   2.103   4.817   4.392  0.3204  0.0992  2.2392
 5108SOL    HW320199   2.164   4.955   4.406  0.2088  0.6019 -1.3106
 5108SOL    MW420200   2.167   4.874   4.375  0.3233  0.0599  0.1370
 5109SOL     OW20201   1.843   4.372   1.444  0.1707  0.0583  0.1061
 5109SOL    HW220202   1.796   4.438   1.496  0.9785  0.4767  0.3208
 5109SOL    HW320203   1.844   4.294   1.499 -0.8490 -0.1720 -0.1765
 5109SOL    MW420204   1.837   4.371   1.458 -0.3060 -0.0229  0.3083
 5110SOL     OW20205   3.789   1.692   4.013 -0.6657  0.2080 -0.5459
 5110SOL    HW220206   3.709   1.648   3.985 -1.0090  1.1987 -1.1664
 5110SOL    HW320207   3.854   1.669   3.945 -0.6200 -0.0117 -0.4275
 5110SOL    MW420208   3.787   1.683   4.000 -0.1301 -0.4275  0.1131
 5111SOL     OW20209   5.120   0.605   4.485  0.5816 -0.0523  0.4604
 5111SOL    HW220210   5.059   0.634   4.418  2.3422  2.0140 -0.3641
 5111SOL    HW320211   5.104   0.663   4.560  1.6800  0.7653  0.1066
 5111SOL    MW420212   5.110   0.617   4.486  0.1612 -0.5225  0.1694
 5112SOL     OW20213   5.170   4.866   2.845 -0.1783  0.2582  0.3743
 5112SOL    HW220214   5.193   4.881   2.753 -1.7321  0.9240  0.0472
 5112SOL    HW320215   5.171   4.770   2.854 -0.7807  0.1431 -0.5747
 5112SOL    MW420216   5.173   4.855   2.834 -0.7162  0.3099  0.1130
 5113SOL     OW20217   0.026   5.632   3.331  0.2741  0.2930 -0.5200
 5113SOL    HW220218  -0.043   5.601   3.272  0.2929 -0.4570 -0.1670
 5113SOL    HW320219  -0.019   5.651   3.413  0.6103 -1.2018  0.0465
 5113SOL    MW420220   0.011   5.630   3.334  0.5620  0.1524 -0.5886
 5114SOL     OW20221   1.481   3.595   2.873 -0.5125  0.5316  0.3249
 5114SOL    HW220222   1.481   3.534   2.800 -1.1989 -0.5806  1.2197
 5114SOL    HW320223   1.558   3.651   2.858 -0.5092  0.1758 -1.0951
 5114SOL    MW420224   1.491   3.594   2.861  0.2978 -0.4415 -0.1913
 5115SOL     OW20225   0.637   3.579   4.697 -0.0439  0.3230  0.2931
 5115SOL    HW220226   0.677   3.569   4.783  1.6375 -0.1197 -0.4744
 5115SOL    HW320227   0.663   3.667   4.669  1.1646 -0.2665 -0.5464
 5115SOL    MW420228   0.646   3.589   4.704 -0.0340 -0.1414  0.5711
 5116SOL     OW20229   2.355   4.778   2.893 -0.1473 -0.0255 -0.0321
 5116SOL    HW220230   2.266   4.753   2.872  0.3505 -0.8544 -1.2320
 5116SOL    HW320231   2.389   4.706   2.947  0.7508 -1.2510 -2.1193
 5116SOL    MW420232   2.348   4.766   2.897  0.4092  0.4288 -0.2203
 5117SOL     OW20233   6.407   2.118   4.183 -0.3989 -0.3749 -0.2867
 5117SOL    HW220234   6.392   2.164   4.266  2.6216  0.7649 -0.2572
 5117SOL    HW320235   6.326   2.129   4.134 -0.6411  3.0468  0.6654
 5117SOL    MW420236   6.394   2.125   4.188  0.5987 -0.1398 -0.1536
 5118SOL     OW20237   3.556   3.153   0.085 -0.6329 -0.3266 -0.1428
 5118SOL    HW220238   3.571   3.136   0.178  2.8174  0.3152 -0.4486
 5118SOL    HW320239   3.531   3.245   0.080 -2.3737 -0.7484  0.2074
 5118SOL    MW420240   3.555   3.163   0.096 -0.0401 -0.2537  0.0487
 5119SOL     OW20241   6.080   3.333   3.871  0.1447  0.1865  0.3897
 5119SOL    HW220242   6.004   3.376   3.830  0.2363  0.5256  0.5725
 5119SOL    HW320243   6.063   3.239   3.860  1.0314  0.2442 -2.0352
 5119SOL    MW420244   6.067   3.326   3.864 -0.2096 -0.2534 -0.6806
 5120SOL     OW20245   2.613   0.189   3.035  0.2498  0.1190  0.0450
 5120SOL    HW220246   2.546   0.255   3.019 -0.0087 -0.1723 -0.0931
 5120SOL    HW320247   2.630   0.194   3.129 -0.0975  0.0698  0.1107
 5120SOL    MW420248   2.606   0.198   3.045 -0.1447 -0.5295  0.4987
 5121SOL     OW20249   2.383   6.049   4.277  0.0636 -0.5823 -0.0041
 5121SOL    HW220250   2.380   6.021   4.185  1.2207  1.5000 -0.7470
 5121SOL    HW320251   2.471   6.026   4.306  0.6598  1.1849 -0.3056
 5121SOL    MW420252   2.394   6.042   4.269 -0.6680 -0.1217  0.0136
 5122SOL     OW20253   5.986   0.946   5.102 -0.1762  0.1982  0.1902
 5122SOL    HW220254   6.062   0.915   5.053  0.6333 -0.0855  1.5447
 5122SOL    HW320255   6.001   1.040   5.112  0.1439  0.1005  0.6740
 5122SOL    MW420256   5.998   0.954   5.097 -0.2814  0.3158 -0.5128
 5123SOL     OW20257   2.559   4.569   3.978 -0.3241  0.3413 -0.1158
 5123SOL    HW220258   2.577   4.494   4.035  0.5827 -0.1683 -1.0413
 5123SOL    HW320259   2.464   4.566   3.964 -0.5106  0.2559  1.0360
 5123SOL    MW420260   2.549   4.559   3.984 -0.0118 -0.5194 -0.1920
 5124SOL     OW20261   1.269   3.563   2.433 -0.1123 -0.0514  0.3797
 5124SOL    HW220262   1.293   3.472   2.447 -1.7259 -0.2841  2.0135
 5124SOL    HW320263   1.175   3.561   2.414 -0.0571  1.2232 -0.1617
 5124SOL    MW420264   1.260   3.551   2.432 -0.5553  0.2730 -0.1740
 5125SOL     OW20265   4.006   5.085   3.984 -0.1224  0.6586 -0.3514
 5125SOL    HW220266   3.976   5.158   4.038 -1.6977 -0.5412  0.4861
 5125SOL    HW320267   4.050   5.026   4.045  0.1314  0.3717 -0.8016
 5125SOL    MW420268   4.008   5.087   3.999  0.2578  0.1179 -0.0399
 5126SOL     OW20269   1.361   3.285   2.456  0.6257 -0.2814 -0.3926
 5126SOL    HW220270   1.273   3.254   2.437  0.2107  0.3366  0.4667
 5126SOL    HW320271   1.413   3.256   2.381 -0.4439 -0.0363 -1.2563
 5126SOL    MW420272   1.357   3.277   2.444 -0.0291  0.0760 -0.0101
 5127SOL     OW20273   3.105   3.650   3.772  0.3787 -0.1655  0.5468
 5127SOL    HW220274   3.153   3.622   3.850 -1.5832 -1.9694  1.1733
 5127SOL    HW320275   3.021   3.681   3.806 -0.1442 -0.0939 -0.7759
 5127SOL    MW420276   3.100   3.651   3.787 -0.1166  0.4254 -0.0876
 5128SOL     OW20277   0.302   3.906   2.933 -0.0282  0.7321  0.1421
 5128SOL    HW220278   0.320   3.821   2.973  0.0012  0.5698 -0.2190
 5128SOL    HW320279   0.349   3.968   2.988 -0.8689  0.6291  1.0142
 5128SOL    MW420280   0.310   3.903   2.946 -0.1943 -0.1390 -0.3275
 5129SOL     OW20281   2.394   0.762   4.525  0.0242  0.5477 -0.1945
 5129SOL    HW220282   2.438   0.842   4.497  1.4308  0.1684  0.8257
 5129SOL    HW320283   2.361   0.782   4.612 -0.5727  0.3676 -0.3782
 5129SOL    MW420284   2.396   0.775   4.533  0.1964  0.2726 -0.6754
 5130SOL     OW20285   4.569   5.289   6.188  0.2173  0.6849  0.3855
 5130SOL    HW220286   4.628   5.216   6.169 -1.1308 -0.4891  0.5683
 5130SOL    HW320287   4.508   5.255   6.253 -1.0763  1.6423 -0.2765
 5130SOL    MW420288   4.569   5.275   6.194  0.2304 -0.3228 -0.0599
 5131SOL     OW20289   1.677   3.607   0.615  0.3506 -0.1107 -0.3049
 5131SOL    HW220290   1.690   3.622   0.521 -2.2926  0.6337 -0.6398
 5131SOL    HW320291   1.646   3.516   0.621 -1.0527  0.3262 -0.4086
 5131SOL    MW420292   1.674   3.597   0.604  0.3895 -0.1430 -0.1767
 5132SOL     OW20293   2.823   3.633   1.732  0.3293  0.2025  0.6208
 5132SOL    HW220294   2.843   3.716   1.689  0.0343  0.5655  1.1709
 5132SOL    HW320295   2.754   3.655   1.795 -1.5498 -0.9197 -0.9508
 5132SOL    MW420296   2.816   3.647   1.735 -0.1515 -0.9390 -0.0898
 5133SOL     OW20297   1.378   1.278   3.722  0.1887 -0.2797 -0.1894
 5133SOL    HW220298   1.455   1.335   3.724 -0.8601  1.2164  0.0938
 5133SOL    HW320299   1.364   1.255   3.814 -1.1980  1.6678  0.1516
 5133SOL    MW420300   1.386   1.283   3.734  0.3065  0.3850 -0.1958
 5134SOL     OW20301   6.035   4.815   0.582 -0.2692 -0.5718  0.8665
 5134SOL    HW220302   6.099   4.820   0.510 -0.1751 -0.4215  0.9618
 5134SOL    HW320303   5.955   4.784   0.540  0.4905 -3.1010  1.1221
 5134SOL    MW420304   6.033   4.811   0.567 -0.2453 -0.2701 -0.2150
 5135SOL     OW20305   4.307   0.280   4.613 -0.2091  0.3153 -0.6654
 5135SOL    HW220306   4.301   0.306   4.705 -1.0618 -0.8291 -0.3708
 5135SOL    HW320307   4.328   0.186   4.616  1.9262  0.7166 -1.6698
 5135SOL    MW420308   4.309   0.271   4.626 -0.5145 -0.2440 -0.9737
 5136SOL     OW20309   0.717   0.944   2.571  0.3494  0.3167  0.6888
 5136SOL    HW220310   0.762   0.997   2.636 -0.5124  0.5111  1.1420
 5136SOL    HW320311   0.658   1.005   2.527  0.0323 -0.0735  0.5666
 5136SOL    MW420312   0.715   0.959   2.574  0.0395 -0.0808  0.6058
 5137SOL     OW20313   6.093   5.603   1.863 -0.1885  0.6825  0.3211
 5137SOL    HW220314   6.157   5.549   1.817 -0.3413  0.7604  0.0081
 5137SOL    HW320315   6.132   5.691   1.863  0.8489  0.2780  2.3324
 5137SOL    MW420316   6.107   5.607   1.857  0.3417 -0.4607  0.5673
 5138SOL     OW20317   5.726   0.216   6.353  0.0474  0.0542  0.2758
 5138SOL    HW220318   5.715   0.221   6.258 -1.1866  1.2488  0.4544
 5138SOL    HW320319   5.738   0.123   6.370  0.0314 -0.2141 -1.0189
 5138SOL    MW420320   5.726   0.204   6.342 -0.2261 -0.0750  0.2220
 5139SOL     OW20321   3.858   0.766   0.070 -0.3803 -0.2361 -0.3115
 5139SOL    HW220322   3.869   0.829   0.141 -0.7354 -0.4240 -0.0891
 5139SOL    HW320323   3.891   0.683   0.106  0.3697 -0.1195 -0.7033
 5139SOL    MW420324   3.864   0.763   0.084 -0.9714  0.2721  0.2464
 5140SOL     OW20325   3.943   0.541   0.207 -0.2196 -0.1948 -0.0345
 5140SOL    HW220326   4.016   0.596   0.234 -0.8681  0.4670  0.4066
 5140SOL    HW320327   3.869   0.573   0.258 -0.9734 -0.3881 -0.9710
 5140SOL    MW420328   3.943   0.553   0.217  0.3772 -0.1189 -1.0909
 5141SOL     OW20329   5.405   3.302   4.361 -0.4348  0.3120  0.4110
 5141SOL    HW220330   5.412   3.385   4.410  1.5006  0.2929  0.2486
 5141SOL    HW320331   5.357   3.326   4.282 -2.2123  0.6835  1.5239
 5141SOL    MW420332   5.400   3.316   4.357  0.2099  0.0708 -0.3244
 5142SOL     OW20333   2.101   5.410   0.586  0.3899  0.5355 -0.0374
 5142SOL    HW220334   2.013   5.400   0.620  0.7060 -1.5572  0.3370
 5142SOL    HW320335   2.089   5.430   0.493 -0.4563  1.4180  0.2474
 5142SOL    MW420336   2.088   5.411   0.578  0.0510  0.0898 -0.0591
 5143SOL     OW20337   1.721   4.787   5.611 -0.3146  0.1952  0.7005
 5143SOL    HW220338   1.684   4.851   5.549 -0.7322  0.9728  1.7132
 5143SOL    HW320339   1.644   4.750   5.655 -0.0497 -0.7131  0.4074
 5143SOL    MW420340   1.706   4.791   5.609  0.2582 -0.6560 -0.3239
 5144SOL     OW20341   0.104   4.096   2.831  0.3577 -0.0744 -0.7107
 5144SOL    HW220342   0.181   4.040   2.837  1.1669  1.1519  1.0243
 5144SOL    HW320343   0.114   4.142   2.747  0.9378 -0.7189 -0.9988
 5144SOL    MW420344   0.115   4.095   2.821  0.0349 -0.3231 -0.5391
 5145SOL     OW20345   1.690   3.167   3.317 -0.7627 -0.4466  0.5171
 5145SOL    HW220346   1.759   3.166   3.383 -0.2075 -0.5050 -0.0652
 5145SOL    HW320347   1.654   3.256   3.322 -1.2264 -0.6666  1.4052
 5145SOL    MW420348   1.694   3.179   3.327 -0.5005 -0.8276 -0.8426
 5146SOL     OW20349   1.679   4.183   0.417 -0.3900  0.1908 -0.4630
 5146SOL    HW220350   1.739   4.220   0.352 -0.6094  1.3070 -0.0537
 5146SOL    HW320351   1.608   4.247   0.423 -1.1196 -0.6281 -0.2036
 5146SOL    MW420352   1.678   4.196   0.409  0.4366 -0.4526  0.1074
 5147SOL     OW20353   6.126   5.535   1.235  0.1419 -0.3076  0.6434
 5147SOL    HW220354   6.063   5.463   1.234 -1.3899  0.9660  0.9227
 5147SOL    HW320355   6.204   5.500   1.193 -1.1596 -1.6026 -0.8269
 5147SOL    MW420356   6.128   5.521   1.229 -0.7818  0.1159  0.1872
 5148SOL     OW20357   5.638   3.745   4.989 -0.2438  0.2643  0.2120
 5148SOL    HW220358   5.597   3.674   5.038 -0.3040 -0.3925 -0.7511
 5148SOL    HW320359   5.731   3.736   5.006 -0.1736 -0.5503 -0.5105
 5148SOL    MW420360   5.645   3.735   4.997  0.4930  0.9577  0.1760
 5149SOL     OW20361   1.430   1.743   2.808  0.2478 -0.2671 -0.2087
 5149SOL    HW220362   1.510   1.732   2.756 -0.2954 -2.1414 -0.7242
 5149SOL    HW320363   1.413   1.656   2.845 -2.5243 -0.4245 -1.5972
 5149SOL    MW420364   1.439   1.730   2.806 -0.3042 -0.2021 -0.0322
 5150SOL     OW20365   3.688   2.174   2.804  0.2188  0.4809  0.0728
 5150SOL    HW220366   3.782   2.182   2.822  0.3341  1.4927 -0.9015
 5150SOL    HW320367   3.683   2.123   2.724 -0.1437 -0.8085  0.8887
 5150SOL    MW420368   3.700   2.168   2.796  0.4007 -0.5574 -0.3703
 5151SOL     OW20369   1.177   2.198   3.619 -0.2594  0.0466  0.5164
 5151SOL    HW220370   1.195   2.108   3.592 -0.1890  0.0555  0.5335
 5151SOL    HW320371   1.100   2.224   3.568  0.5532  0.4634 -0.5489
 5151SOL    MW420372   1.169   2.190   3.609  0.2383 -0.2159  0.2566
 5152SOL     OW20373   3.666   4.757   5.171  0.3719  0.3732  0.0095
 5152SOL    HW220374   3.758   4.729   5.177  0.0238 -0.7332  0.3675
 5152SOL    HW320375   3.640   4.772   5.262  0.4954  1.7249 -0.1624
 5152SOL    MW420376   3.675   4.755   5.184  0.8965  0.3583  0.2085
 5153SOL     OW20377   6.289   0.534   4.871 -0.2406 -0.0098  0.1882
 5153SOL    HW220378   6.254   0.472   4.807  1.2881 -0.4167 -0.3105
 5153SOL    HW320379   6.384   0.528   4.860  0.0235  0.7046  1.7635
 5153SOL    MW420380   6.297   0.525   4.861 -0.1364  0.4352 -0.1823
 5154SOL     OW20381   5.787   1.367   1.200  0.2443  0.2573 -0.1990
 5154SOL    HW220382   5.716   1.354   1.138 -0.4517  0.1413  0.6112
 5154SOL    HW320383   5.758   1.438   1.256  1.2968  1.0291 -0.6035
 5154SOL    MW420384   5.774   1.375   1.199 -0.7557  0.0379 -0.2564
 5155SOL     OW20385   0.266   2.271   1.866  0.1360 -0.0461 -0.8936
 5155SOL    HW220386   0.256   2.177   1.852  0.3672 -0.1845 -0.2084
 5155SOL    HW320387   0.342   2.295   1.813  1.3682 -0.6687  0.5058
 5155SOL    MW420388   0.275   2.262   1.857  0.2445  0.3598  0.0199
 5156SOL     OW20389   2.668   6.247   4.662  0.3441  0.0496  0.1091
 5156SOL    HW220390   2.728   6.176   4.683 -0.2318 -0.8568 -1.1459
 5156SOL    HW320391   2.581   6.208   4.666 -0.2233  1.3653  2.0015
 5156SOL    MW420392   2.664   6.233   4.665 -0.7412 -0.2438 -0.3324
 5157SOL     OW20393   2.503   4.193   6.188  0.7431 -0.6600  0.0510
 5157SOL    HW220394   2.416   4.162   6.211 -0.9496  3.0998 -0.5729
 5157SOL    HW320395   2.546   4.209   6.272 -0.2039 -0.0388  0.4320
 5157SOL    MW420396   2.497   4.191   6.202  0.0759 -0.3864  0.0693
 5158SOL     OW20397   4.833   4.346   1.493 -0.1478 -0.0714 -0.5049
 5158SOL    HW220398   4.886   4.309   1.562 -0.5296  0.4549  0.0802
 5158SOL    HW320399   4.759   4.386   1.538 -1.1918 -1.0214 -1.3178
 5158SOL    MW420400   4.830   4.347   1.508 -0.3560  0.0454  0.1193
 5159SOL     OW20401   3.284   5.170   6.105 -0.4140  0.1737  0.2174
 5159SOL    HW220402   3.229   5.168   6.027  0.6143  0.5903 -0.5375
 5159SOL    HW320403   3.260   5.091   6.153 -0.5768 -0.4609 -0.8717
 5159SOL    MW420404   3.274   5.159   6.101  0.2037  0.3441 -0.7154
 5160SOL     OW20405   3.571   5.049   2.619  0.2793  0.0012  0.3474
 5160SOL    HW220406   3.519   5.105   2.677  0.1261 -1.0293  1.2261
 5160SOL    HW320407   3.506   5.013   2.558  0.1157 -0.5018  0.8151
 5160SOL    MW420408   3.555   5.052   2.619  0.5057  0.1304 -0.1956
 5161SOL     OW20409   0.488   2.465   3.564 -0.6693 -0.3403 -0.2775
 5161SOL    HW220410   0.486   2.454   3.659 -1.7970 -1.1023 -0.3741
 5161SOL    HW320411   0.564   2.414   3.536  0.4593  0.9359  0.3068
 5161SOL    MW420412   0.498   2.457   3.573 -0.4612 -0.1787 -0.0965
 5162SOL     OW20413   3.446   5.685   4.114  0.4625 -0.1688  0.2161
 5162SOL    HW220414   3.362   5.675   4.157  1.4831  0.0417  2.4200
 5162SOL    HW320415   3.492   5.752   4.166  1.8264  0.0380 -1.1673
 5162SOL    MW420416   3.441   5.693   4.127 -0.2486  0.5164  0.4166
 5163SOL     OW20417   0.204   1.534   3.141  0.0451  0.2598  0.4615
 5163SOL    HW220418   0.291   1.499   3.159  0.6367  0.6682 -1.4231
 5163SOL    HW320419   0.202   1.547   3.046 -2.6545 -1.2750  0.2062
 5163SOL    MW420420   0.215   1.531   3.131  0.3334  0.0761  0.0484
 5164SOL     OW20421   1.036   0.115   4.748  0.0768  0.5800 -0.4585
 5164SOL    HW220422   0.952   0.145   4.713  0.0374  0.1623 -0.7360
 5164SOL    HW320423   1.039   0.150   4.838 -1.2076 -0.8645  0.1931
 5164SOL    MW420424   1.025   0.123   4.756 -0.2749  0.1156 -0.8612
 5165SOL     OW20425   0.346   0.028   4.145 -0.1371 -0.2016  0.1136
 5165SOL    HW220426   0.291   0.105   4.156  2.3536  2.0113 -1.6942
 5165SOL    HW320427   0.392   0.019   4.228 -2.3667 -1.5168  1.3081
 5165SOL    MW420428   0.345   0.037   4.157 -0.1135 -0.5533  0.2097
 5166SOL     OW20429   1.068   2.020   0.614 -0.2150  0.4474  0.2933
 5166SOL    HW220430   0.992   2.023   0.555 -1.0968  1.3102  1.4291
 5166SOL    HW320431   1.124   2.091   0.583 -0.6720  0.8977  0.4888
 5166SOL    MW420432   1.066   2.030   0.602  0.0480 -0.7986 -0.0242
 5167SOL     OW20433   2.854   2.592   3.373  0.4624  0.0115  0.2970
 5167SOL    HW220434   2.760   2.601   3.390  0.0856 -1.0595 -1.0524
 5167SOL    HW320435   2.862   2.508   3.327  1.6529  1.5686 -2.5542
 5167SOL    MW420436   2.843   2.582   3.369  0.3820  0.0210 -0.0187
 5168SOL     OW20437   3.564   5.115   1.797 -0.4088  0.7738 -0.1292
 5168SOL    HW220438   3.607   5.065   1.866 -1.5008 -0.2656 -0.1603
 5168SOL    HW320439   3.496   5.165   1.843 -1.8770 -0.7676 -0.5316
 5168SOL    MW420440   3.560   5.115   1.812 -0.2701  0.4352 -0.0957
 5169SOL     OW20441   4.246   5.010   3.333  0.1048 -0.2475  0.0259
 5169SOL    HW220442   4.322   4.967   3.374  0.3692  0.5309  0.3717
 5169SOL    HW320443   4.195   4.938   3.296 -0.5612 -1.0919  2.3893
 5169SOL    MW420444   4.249   4.995   3.334  0.1852 -0.4505 -0.3516
 5170SOL     OW20445   3.147   5.818   4.053 -0.4398  0.2364  0.4783
 5170SOL    HW220446   3.164   5.847   3.963  0.3171  0.3834  0.6614
 5170SOL    HW320447   3.082   5.749   4.044 -0.7750  0.6225 -0.1372
 5170SOL    MW420448   3.141   5.813   4.040 -0.0245 -0.2808 -0.1575
 5171SOL     OW20449   3.020   3.927   3.508 -0.2342 -0.2715  0.4276
 5171SOL    HW220450   3.067   3.843   3.511  0.4191 -0.0250 -1.3748
 5171SOL    HW320451   2.927   3.902   3.506 -0.0560 -0.9495  0.2968
 5171SOL    MW420452   3.014   3.912   3.508  0.7617  0.3039 -0.2601
 5172SOL     OW20453   3.392   5.628   1.346  0.4957  0.1073  0.0039
 5172SOL    HW220454   3.307   5.583   1.348 -0.1966  1.4080  0.9662
 5172SOL    HW320455   3.374   5.716   1.379  3.0169 -0.9191  5.1990
 5172SOL    MW420456   3.378   5.633   1.351  0.3974  0.6804  0.0388
 5173SOL     OW20457   5.487   3.444   0.261 -0.2913  0.1964  0.6268
 5173SOL    HW220458   5.466   3.479   0.347  1.6431  1.5573  0.6079
 5173SOL    HW320459   5.402   3.432   0.218 -1.2131  0.8543  2.1961
 5173SOL    MW420460   5.473   3.447   0.267 -0.4813  0.5794 -0.3906
 5174SOL     OW20461   6.332   2.668   0.820 -0.2405  0.0437 -0.4475
 5174SOL    HW220462   6.353   2.577   0.844  1.2584  0.2002 -1.0584
 5174SOL    HW320463   6.295   2.661   0.732  1.6285  0.1267 -1.3103
 5174SOL    MW420464   6.330   2.655   0.811 -0.5335  0.0646 -0.1406
 5175SOL     OW20465   0.527   2.544   1.017  0.3061 -0.1421 -0.2339
 5175SOL    HW220466   0.514   2.550   1.112 -3.4497  0.4814 -0.6233
 5175SOL    HW320467   0.573   2.624   0.994  0.3273  0.2021  0.9360
 5175SOL    MW420468   0.531   2.555   1.026 -0.6487 -0.0676 -0.3926
 5176SOL     OW20469   4.766   2.717   3.722  0.3583  0.2219  0.2846
 5176SOL    HW220470   4.742   2.796   3.770  0.7004 -0.8099  2.2735
 5176SOL    HW320471   4.858   2.701   3.745  0.5429 -0.3390 -0.7340
 5176SOL    MW420472   4.775   2.725   3.731  0.0942  0.1954  0.1215
 5177SOL     OW20473   2.942   5.513   5.656 -0.0124 -0.5329 -0.0588
 5177SOL    HW220474   2.945   5.443   5.721 -1.0466 -1.4578 -0.9552
 5177SOL    HW320475   2.966   5.592   5.704 -0.8470 -1.1586  1.4790
 5177SOL    MW420476   2.945   5.514   5.671  0.2499  0.4577  0.0998
 5178SOL     OW20477   5.526   1.118   5.276 -0.5355 -0.2534  0.2298
 5178SOL    HW220478   5.437   1.152   5.267  0.2571  1.4994 -1.8769
 5178SOL    HW320479   5.519   1.026   5.251 -1.6984 -0.0215 -0.3850
 5178SOL    MW420480   5.514   1.110   5.271  0.9433 -0.5791  0.3278
 5179SOL     OW20481   1.414   2.998   1.259  0.3988 -0.0336 -0.4473
 5179SOL    HW220482   1.380   3.055   1.191 -0.1732 -1.9679 -1.8355
 5179SOL    HW320483   1.509   3.009   1.253  0.3750 -0.3977 -1.7682
 5179SOL    MW420484   1.422   3.007   1.250  0.1491  0.2248  0.1181
 5180SOL     OW20485   5.048   1.166   2.621  0.3871  0.4355  0.2757
 5180SOL    HW220486   5.015   1.162   2.710  2.0964 -0.9062  0.8953
 5180SOL    HW320487   5.110   1.239   2.622  0.4855  0.3518  0.1939
 5180SOL    MW420488   5.052   1.175   2.633  0.6664 -0.0320 -0.4193
 5181SOL     OW20489   4.973   3.523   5.368 -0.3578  0.4255  0.4141
 5181SOL    HW220490   5.027   3.515   5.447 -0.0784  2.4178  0.4773
 5181SOL    HW320491   5.030   3.497   5.296 -0.0518  0.3133  0.6987
 5181SOL    MW420492   4.987   3.518   5.369  0.0484 -0.1603  0.0373
 5182SOL     OW20493   0.874   0.039   0.986  0.0467  0.0179  0.4120
 5182SOL    HW220494   0.866   0.090   0.906 -0.6664  0.5869  0.8388
 5182SOL    HW320495   0.844   0.097   1.055  3.0231  0.4532  1.4890
 5182SOL    MW420496   0.869   0.053   0.984 -0.1379 -0.7296 -0.3053
 5183SOL     OW20497   0.492   6.382   6.406  0.4593  0.8620  0.1162
 5183SOL    HW220498   0.510   6.316   6.339  0.9786 -0.9350  1.9067
 5183SOL    HW320499   0.419   6.345   6.457  0.7408  1.6730  1.1482
 5183SOL    MW420500   0.485   6.368   6.404  0.0113  0.0283 -0.2382
 5184SOL     OW20501   3.696   0.565   0.345 -0.0823  0.5098  0.0533
 5184SOL    HW220502   3.637   0.490   0.349  0.7832 -0.2460 -0.8443
 5184SOL    HW320503   3.734   0.571   0.433  1.3127 -1.3572 -0.3582
 5184SOL    MW420504   3.693   0.556   0.357  0.5984 -0.5569  0.0232
 5185SOL     OW20505   3.723   5.743   5.526  0.5652 -0.5536 -0.1448
 5185SOL    HW220506   3.790   5.677   5.507  1.6148 -0.0361  1.5389
 5185SOL    HW320507   3.767   5.826   5.512  0.1372 -0.2105  0.4928
 5185SOL    MW420508   3.737   5.745   5.522 -0.2758  0.9461 -0.1123
 5186SOL     OW20509   1.670   0.229   3.391  0.1964 -0.5813 -0.2776
 5186SOL    HW220510   1.631   0.274   3.317 -0.4361 -1.2437 -0.3524
 5186SOL    HW320511   1.764   0.226   3.370 -0.1201 -1.7835 -1.6043
 5186SOL    MW420512   1.677   0.235   3.379  1.1894  0.7023 -0.0761
 5187SOL     OW20513   3.435   3.922   0.295 -0.1627 -0.4363 -0.1581
 5187SOL    HW220514   3.356   3.974   0.309  0.8590  0.8790  0.9532
 5187SOL    HW320515   3.501   3.985   0.265  1.4728 -0.7649  2.4384
 5187SOL    MW420516   3.433   3.937   0.293 -1.0348  0.2506 -0.9557
 5188SOL     OW20517   1.001   4.676   2.425 -0.3897 -0.2239 -0.1774
 5188SOL    HW220518   1.072   4.719   2.378 -0.4809 -0.2541 -0.3405
 5188SOL    HW320519   1.033   4.671   2.516 -0.6822  0.8381 -0.0036
 5188SOL    MW420520   1.015   4.681   2.431 -0.3807  0.2284  0.3641
 5189SOL     OW20521   1.337   6.217   2.520 -0.5314 -0.1614  0.2981
 5189SOL    HW220522   1.300   6.129   2.518 -1.1230  0.0333 -3.0912
 5189SOL    HW320523   1.428   6.206   2.490 -0.7828  0.3897 -0.7287
 5189SOL    MW420524   1.344   6.204   2.516  0.3375 -0.4816  0.1473
 5190SOL     OW20525   3.966   1.405   2.610 -0.1243  0.0490  0.4557
 5190SOL    HW220526   3.904   1.333   2.600 -2.3493  1.7311  1.4396
 5190SOL    HW320527   4.052   1.363   2.602 -1.3219 -2.6067  0.4417
 5190SOL    MW420528   3.969   1.390   2.608  0.5749 -0.1976  0.0136
 5191SOL     OW20529   4.946   2.125   1.931  0.3791  0.7794  0.3481
 5191SOL    HW220530   4.950   2.078   1.847  1.6792 -1.7511  1.6960
 5191SOL    HW320531   5.028   2.175   1.933  0.0465  1.3569 -0.1442
 5191SOL    MW420532   4.957   2.125   1.920  0.4368 -0.3774 -0.0338
 5192SOL     OW20533   2.853   2.781   6.401  0.0658 -0.1692 -0.2921
 5192SOL    HW220534   2.893   2.833   6.331 -0.3212  0.6585  0.0877
 5192SOL    HW320535   2.808   2.845   6.456 -2.5003 -1.1096 -1.1488
 5192SOL    MW420536   2.852   2.796   6.399  0.3141  0.4763 -0.8957
 5193SOL     OW20537   4.032   1.549   1.968 -0.4223 -0.4716 -0.0821
 5193SOL    HW220538   4.095   1.516   1.904 -1.2058 -0.9239 -0.6356
 5193SOL    HW320539   3.966   1.480   1.975 -1.1888  0.2559  0.0178
 5193SOL    MW420540   4.032   1.536   1.961 -0.3732  0.0459 -0.4184
 5194SOL     OW20541   1.249   1.886   1.748  0.4181 -0.1627  0.1015
 5194SOL    HW220542   1.298   1.925   1.675 -1.1693  0.6809 -0.5661
 5194SOL    HW320543   1.300   1.910   1.826  0.6532  1.4165 -0.4926
 5194SOL    MW420544   1.262   1.894   1.749  0.0950  0.1155  0.6690
 5195SOL     OW20545   0.530   4.412   6.161 -0.3331  0.2709 -0.4894
 5195SOL    HW220546   0.504   4.336   6.214  2.1629 -1.0973 -1.0461
 5195SOL    HW320547   0.614   4.440   6.198 -0.1312  1.3486 -1.6844
 5195SOL    MW420548   0.538   4.405   6.172 -0.1704  0.1219 -0.1550
 5196SOL     OW20549   0.491   0.731   0.109  0.8438 -0.0300  0.5788
 5196SOL    HW220550   0.402   0.714   0.081  0.9572  2.4940 -1.7913
 5196SOL    HW320551   0.485   0.813   0.159  1.8167  0.0270  0.6221
 5196SOL    MW420552   0.479   0.740   0.112 -0.3313 -0.4319 -0.2786
 5197SOL     OW20553   4.351   4.555   3.140  0.2959 -0.0249  0.3336
 5197SOL    HW220554   4.402   4.607   3.202  0.2157  0.9372 -0.3798
 5197SOL    HW320555   4.261   4.585   3.153 -0.1407 -1.7015  1.5810
 5197SOL    MW420556   4.346   4.566   3.150 -0.2600  0.5623  0.3100
 5198SOL     OW20557   1.728   6.003   2.751 -0.1810  0.5072  0.2039
 5198SOL    HW220558   1.759   5.944   2.682  0.8035 -1.4456  2.2024
 5198SOL    HW320559   1.760   6.089   2.726  0.6450 -0.2482 -1.4586
 5198SOL    MW420560   1.736   6.007   2.738 -0.0812 -0.2441 -0.6926
 5199SOL     OW20561   1.883   0.799   0.226  0.3996 -0.1450 -0.4812
 5199SOL    HW220562   1.949   0.835   0.167  1.4728 -0.6814  0.3463
 5199SOL    HW320563   1.923   0.720   0.261  0.1097  0.5206  1.5047
 5199SOL    MW420564   1.897   0.794   0.223  0.2544 -0.3028  0.1695
 5200SOL     OW20565   0.703   0.128   5.178  0.2363 -0.3344 -0.9840
 5200SOL    HW220566   0.620   0.166   5.207  1.1163 -0.9819  2.9477
 5200SOL    HW320567   0.743   0.195   5.124 -1.9967  0.7288 -1.4209
 5200SOL    MW420568   0.697   0.142   5.174 -0.4919  0.2729 -0.5736
 5201SOL     OW20569   3.817   3.483   6.061 -0.4483  0.2440 -0.2486
 5201SOL    HW220570   3.777   3.508   6.144 -0.2861  0.6395 -0.2903
 5201SOL    HW320571   3.868   3.405   6.081 -0.0005  0.6322  0.1287
 5201SOL    MW420572   3.818   3.476   6.074 -0.2225 -0.0143  0.0453
 5202SOL     OW20573   3.012   0.834   2.478 -0.1176  0.0197  0.3308
 5202SOL    HW220574   2.963   0.837   2.561 -1.0277 -2.2601 -0.0472
 5202SOL    HW320575   3.093   0.880   2.497 -0.2098 -0.6012  2.5904
 5202SOL    MW420576   3.016   0.840   2.492  0.1292  0.3022 -0.0707
 5203SOL     OW20577   0.868   2.174   0.023  0.5245 -0.3867 -0.3226
 5203SOL    HW220578   0.781   2.174  -0.017  0.9826 -0.2885 -1.3386
 5203SOL    HW320579   0.878   2.263   0.058  0.5148 -0.1614 -0.8817
 5203SOL    MW420580   0.858   2.186   0.022  0.0216 -0.0330 -0.2611
 5204SOL     OW20581   3.866   4.761   2.090 -0.2887 -0.3382 -0.1242
 5204SOL    HW220582   3.860   4.777   2.185  0.3276  0.8000 -0.2610
 5204SOL    HW320583   3.959   4.750   2.073 -0.4495 -1.1077 -0.5224
 5204SOL    MW420584   3.877   4.762   2.101 -0.4032  0.3098 -0.7811
 5205SOL     OW20585   3.471   1.796   0.020  0.3924  0.1501  0.0245
 5205SOL    HW220586   3.493   1.784   0.113 -2.2275  0.8555  0.8166
 5205SOL    HW320587   3.430   1.882   0.017  1.7276  0.7750 -2.1072
 5205SOL    MW420588   3.469   1.806   0.032 -0.0533 -0.1233 -0.5877
 5206SOL     OW20589   0.121   3.203   0.172 -0.2723 -0.6073  0.3791
 5206SOL    HW220590   0.155   3.116   0.193 -1.1735 -0.8018  1.0530
 5206SOL    HW320591   0.092   3.239   0.256  0.2685  0.4303  0.1437
 5206SOL    MW420592   0.122   3.197   0.186 -0.0849 -0.0720  0.3636
 5207SOL     OW20593   5.677   0.770   4.048 -0.2342  0.5527 -0.4274
 5207SOL    HW220594   5.719   0.851   4.076  0.7302  0.4232 -1.4366
 5207SOL    HW320595   5.660   0.782   3.955  0.1847 -0.5081 -0.6590
 5207SOL    MW420596   5.680   0.782   4.040  0.2174  0.5645 -0.5301
 5208SOL     OW20597   0.257   3.485   0.105 -0.1705  0.0223  0.0705
 5208SOL    HW220598   0.254   3.498   0.200 -1.6256  0.7374 -0.0424
 5208SOL    HW320599   0.316   3.410   0.093  0.4236  0.2249  1.4917
 5208SOL    MW420600   0.264   3.477   0.116  0.0323  0.2996  0.6152
 5209SOL     OW20601   4.422   0.456   6.090 -0.1795  0.0219  0.1977
 5209SOL    HW220602   4.370   0.401   6.031 -0.3157  1.4298 -1.0545
 5209SOL    HW320603   4.505   0.469   6.044 -0.3617  1.3058  0.1848
 5209SOL    MW420604   4.426   0.450   6.076 -0.5204 -0.4212 -0.0675
 5210SOL     OW20605   4.237   1.870   4.858 -0.6957  0.0934 -0.5103
 5210SOL    HW220606   4.163   1.887   4.799  0.8665  2.9637 -1.8250
 5210SOL    HW320607   4.310   1.852   4.799  0.5128  1.2634  0.5914
 5210SOL    MW420608   4.237   1.870   4.842 -0.2435  0.2792  0.3227
 5211SOL     OW20609   0.394   3.253   0.063  0.3556  0.2658 -0.2048
 5211SOL    HW220610   0.412   3.248  -0.030  0.9755  0.8235 -0.1180
 5211SOL    HW320611   0.308   3.211   0.073 -0.6251  1.9311 -1.2917
 5211SOL    MW420612   0.385   3.246   0.052 -0.1265 -0.7347  0.0341
 5212SOL     OW20613   6.327   1.792   4.969  0.3975 -0.7575 -0.2946
 5212SOL    HW220614   6.265   1.750   5.029 -1.2141 -0.2432 -1.5216
 5212SOL    HW320615   6.334   1.731   4.895  0.6057 -0.3588 -0.6096
 5212SOL    MW420616   6.320   1.778   4.967 -0.4345 -0.1593  0.2714
 5213SOL     OW20617   3.232   0.317   0.372 -0.4118 -0.0287 -0.3282
 5213SOL    HW220618   3.154   0.366   0.346 -0.7846  0.1399  1.0219
 5213SOL    HW320619   3.222   0.306   0.467  0.3991 -1.4162 -0.3810
 5213SOL    MW420620   3.220   0.322   0.381  0.0335 -0.4077 -0.0794
 5214SOL     OW20621   2.643   3.542   1.532 -0.0856 -0.3081  0.2092
 5214SOL    HW220622   2.707   3.585   1.589 -1.5718  2.0335  0.2694
 5214SOL    HW320623   2.605   3.472   1.586  2.3827 -1.7864  0.1409
 5214SOL    MW420624   2.646   3.539   1.547  0.5544 -0.4306  0.2032
 5215SOL     OW20625   1.307   2.209   4.127  0.2526 -0.8377 -0.4062
 5215SOL    HW220626   1.380   2.246   4.177 -0.9932 -0.1269  0.9504
 5215SOL    HW320627   1.294   2.122   4.164 -2.3612  0.6148  2.5336
 5215SOL    MW420628   1.315   2.203   4.138 -0.1722  0.7356  0.0269
 5216SOL     OW20629   5.247   2.275   3.393  0.0956  0.0598 -0.0283
 5216SOL    HW220630   5.331   2.314   3.416 -0.7838  1.9216  0.2289
 5216SOL    HW320631   5.234   2.298   3.301 -0.5039  0.5220  0.1663
 5216SOL    MW420632   5.257   2.283   3.384 -0.8137  0.3477 -0.1952
 5217SOL     OW20633   2.097   4.107   0.943 -0.0623 -0.7737 -0.1143
 5217SOL    HW220634   2.052   4.022   0.945  0.7337 -1.2154 -0.3028
 5217SOL    HW320635   2.119   4.120   0.851 -1.3396  0.2815 -0.2859
 5217SOL    MW420636   2.094   4.097   0.931 -0.1654 -0.2165  0.3349
 5218SOL     OW20637   1.983   2.942   1.423  0.1351  0.5415  0.4046
 5218SOL    HW220638   1.957   3.011   1.484 -1.0775 -0.2953  0.8791
 5218SOL    HW320639   1.900   2.908   1.389  0.6919 -0.8429  0.3683
 5218SOL    MW420640   1.969   2.946   1.426  0.3011  0.2456 -0.0272
 5219SOL     OW20641   4.406   3.809   3.030  0.7016  0.3638 -0.2596
 5219SOL    HW220642   4.424   3.715   3.023  0.2759  0.2960 -0.5129
 5219SOL    HW320643   4.478   3.843   3.083  0.5601 -0.2021  0.3277
 5219SOL    MW420644   4.418   3.801   3.036 -0.3473 -0.3728  0.2382
 5220SOL     OW20645   0.767   3.254   0.628  0.1232  0.3007 -0.2625
 5220SOL    HW220646   0.676   3.266   0.602  0.0165 -1.7163 -1.0315
 5220SOL    HW320647   0.817   3.311   0.569 -0.5154 -0.0878 -1.2015
 5220SOL    MW420648   0.762   3.263   0.617 -0.0692 -0.5693  0.0386
 5221SOL     OW20649   4.657   5.975   6.160  0.5080 -0.6015  0.3216
 5221SOL    HW220650   4.646   5.894   6.211 -1.8196 -2.6979 -3.0940
 5221SOL    HW320651   4.574   6.021   6.170  0.3263 -0.6453 -0.8290
 5221SOL    MW420652   4.645   5.970   6.168  0.3885 -0.1573 -0.2281
 5222SOL     OW20653   3.186   4.125   2.099  0.0873 -0.5779  0.3685
 5222SOL    HW220654   3.204   4.203   2.152  1.7886 -1.9125  1.8523
 5222SOL    HW320655   3.116   4.080   2.145  2.3511 -2.3500  2.3215
 5222SOL    MW420656   3.179   4.130   2.112  0.1263 -0.0575 -0.1652
 5223SOL     OW20657   4.541   2.281   6.290  0.1971 -0.5781  0.1246
 5223SOL    HW220658   4.582   2.197   6.270 -3.4533 -2.3657 -0.7540
 5223SOL    HW320659   4.548   2.332   6.209 -1.0211 -1.6947 -0.7245
 5223SOL    MW420660   4.547   2.277   6.276  0.1131  0.0538  0.0745
 5224SOL     OW20661   4.167   5.430   2.655 -0.2461 -0.0024 -0.0962
 5224SOL    HW220662   4.086   5.416   2.607 -1.6928  0.9391  1.9174
 5224SOL    HW320663   4.201   5.342   2.672 -1.7115 -0.5005  0.3906
 5224SOL    MW420664   4.161   5.417   2.651 -0.1001 -0.3538 -0.4521
 5225SOL     OW20665   4.678   3.459   0.258  0.4162  0.1559 -0.3061
 5225SOL    HW220666   4.630   3.539   0.237  0.2639  0.3673  0.8100
 5225SOL    HW320667   4.637   3.427   0.338  1.2720 -0.3839 -0.0760
 5225SOL    MW420668   4.666   3.465   0.266 -0.1337 -0.3610 -0.2410
 5226SOL     OW20669   4.033   6.177   3.715  0.6511 -0.0549  0.2543
 5226SOL    HW220670   3.985   6.259   3.722  1.6301  0.8564 -2.3522
 5226SOL    HW320671   4.122   6.198   3.742  0.6653 -0.5305  0.5870
 5226SOL    MW420672   4.038   6.190   3.719 -0.2891 -0.1643 -0.5917
 5227SOL     OW20673   1.773   5.571   1.089  0.0043 -0.2556  0.6087
 5227SOL    HW220674   1.691   5.539   1.051  0.6513 -1.1927 -0.0725
 5227SOL    HW320675   1.788   5.656   1.047  0.7030 -1.2684 -1.3354
 5227SOL    MW420676   1.764   5.578   1.078 -0.1167  0.1527 -0.7610
 5228SOL     OW20677   2.013   3.885   2.680  0.3452  0.4748  0.1963
 5228SOL    HW220678   2.055   3.821   2.738  0.3053  0.0776 -0.2033
 5228SOL    HW320679   1.983   3.833   2.606  0.1681  0.9389 -0.0598
 5228SOL    MW420680   2.015   3.869   2.678 -1.0224  0.3501 -0.5010
 5229SOL     OW20681   4.951   1.942   3.567 -0.6047  0.2974 -0.2760
 5229SOL    HW220682   4.893   1.953   3.491 -3.6161  0.1735  1.8394
 5229SOL    HW320683   4.989   2.028   3.581 -0.0238  0.3325 -1.8718
 5229SOL    MW420684   4.948   1.954   3.559 -0.1093  0.1050  0.1327
 5230SOL     OW20685   5.130   5.531   3.127 -0.0846  0.0904 -0.0747
 5230SOL    HW220686   5.070   5.588   3.079  0.6577 -0.2365 -1.4314
 5230SOL    HW320687   5.114   5.443   3.092  0.3833 -0.1803  0.3666
 5230SOL    MW420688   5.120   5.527   3.116  0.0224 -0.1131 -0.1877
 5231SOL     OW20689   0.701   5.023   0.592 -0.2213 -0.5807 -0.5865
 5231SOL    HW220690   0.621   5.075   0.589 -0.3861 -0.8077 -0.2138
 5231SOL    HW320691   0.712   4.991   0.503 -0.3754 -0.2923 -0.7114
 5231SOL    MW420692   0.692   5.026   0.580  0.4920  0.5408 -0.4840
 5232SOL     OW20693   0.112   0.353   3.453 -0.2624  0.1478  0.2795
 5232SOL    HW220694   0.114   0.423   3.388 -0.5060 -0.3511 -0.2758
 5232SOL    HW320695   0.175   0.288   3.420 -1.9504 -1.1178 -0.6426
 5232SOL    MW420696   0.121   0.353   3.440  0.1527  0.7034  0.1619
 5233SOL     OW20697   2.331   1.112   2.786  0.0858  0.6076 -0.4830
 5233SOL    HW220698   2.242   1.121   2.753 -0.2425 -1.0794 -0.1427
 5233SOL    HW320699   2.324   1.127   2.880 -0.4229 -2.3152  0.0477
 5233SOL    MW420700   2.318   1.115   2.794  0.3064  0.3612  0.2987
 5234SOL     OW20701   4.596   6.250   3.005 -0.6642  0.1505 -0.3107
 5234SOL    HW220702   4.609   6.203   2.923 -0.0334 -1.0926  0.4699
 5234SOL    HW320703   4.558   6.185   3.065 -1.6155  1.1782  0.2321
 5234SOL    MW420704   4.593   6.235   3.002 -0.4005  0.2814  0.2376
 5235SOL     OW20705   0.576   5.541   0.927 -0.2186 -0.4470 -0.3594
 5235SOL    HW220706   0.490   5.529   0.967  0.2448 -1.1237  0.4715
 5235SOL    HW320707   0.558   5.580   0.841 -1.3540 -0.8182 -0.3003
 5235SOL    MW420708   0.562   5.545   0.921  0.3398 -1.0734  0.1088
 5236SOL     OW20709   0.465   0.244   4.662  0.0864  0.0989  0.1198
 5236SOL    HW220710   0.475   0.256   4.567  0.5551  0.0932  0.1658
 5236SOL    HW320711   0.454   0.333   4.696 -0.3769  0.0793  0.0315
 5236SOL    MW420712   0.465   0.257   4.654  0.0653  0.1204 -0.0474
 5237SOL     OW20713   5.200   1.346   0.654 -0.2235 -0.2336  0.0424
 5237SOL    HW220714   5.285   1.389   0.642 -0.0671 -0.7062 -0.6288
 5237SOL    HW320715   5.137   1.418   0.656 -0.1392  0.0116 -2.5927
 5237SOL    MW420716   5.203   1.361   0.652  0.5923  0.5515 -0.1395
 5238SOL     OW20717   4.697   1.456   2.652 -0.4189 -0.3346  0.2842
 5238SOL    HW220718   4.764   1.458   2.583 -0.7751  1.4023 -0.0551
 5238SOL    HW320719   4.745   1.435   2.732  1.1664  3.7773  0.6162
 5238SOL    MW420720   4.712   1.453   2.653  0.7467  0.1721 -0.2746
 5239SOL     OW20721   5.557   4.093   0.894 -0.3054 -0.0797  0.1817
 5239SOL    HW220722   5.633   4.144   0.868 -0.4924 -0.0272 -0.2648
 5239SOL    HW320723   5.580   4.058   0.980  0.0231  0.3416  0.2683
 5239SOL    MW420724   5.570   4.095   0.902 -0.0119 -0.4523  0.2282
 5240SOL     OW20725   0.421   5.809   0.865 -0.2337  0.4495  0.4956
 5240SOL    HW220726   0.509   5.837   0.844 -1.0057  2.5359 -0.1899
 5240SOL    HW320727   0.413   5.821   0.960 -0.3012  1.9382  0.3207
 5240SOL    MW420728   0.431   5.814   0.875  0.5847 -0.1282  0.0274
 5241SOL     OW20729   0.475   0.050   3.889  0.0524  0.1186 -0.5633
 5241SOL    HW220730   0.419  -0.014   3.845 -1.2205  1.3416 -0.7848
 5241SOL    HW320731   0.445   0.051   3.980  0.6864 -0.2500 -0.3428
 5241SOL    MW420732   0.464   0.042   3.895  0.0221  0.2448 -0.1030
 5242SOL     OW20733   1.558   3.339   1.343  0.2509 -0.1488  0.3943
 5242SOL    HW220734   1.576   3.349   1.249 -0.6752 -0.4586  0.1738
 5242SOL    HW320735   1.609   3.408   1.384  3.1769 -1.8844 -0.0208
 5242SOL    MW420736   1.567   3.349   1.336 -0.4764  0.0603 -0.1307
 5243SOL     OW20737   5.518   1.566   0.046 -0.9295  0.2249  0.2917
 5243SOL    HW220738   5.552   1.476   0.043 -0.6048  0.3707 -0.6285
 5243SOL    HW320739   5.463   1.568   0.124  1.0210 -0.0781  1.7586
 5243SOL    MW420740   5.515   1.554   0.056 -0.2844  0.2617 -0.4397
 5244SOL     OW20741   0.668   3.308   4.621  0.0753  0.6306 -0.2518
 5244SOL    HW220742   0.650   3.400   4.636  2.8733  1.4276 -1.2564
 5244SOL    HW320743   0.696   3.274   4.707 -0.4238  0.8256 -0.0074
 5244SOL    MW420744   0.669   3.315   4.635  0.0098  0.0951  0.3783
 5245SOL     OW20745   2.041   4.433   5.369  0.1353  0.6169 -0.0303
 5245SOL    HW220746   2.079   4.515   5.338  1.1496  0.0764 -0.2743
 5245SOL    HW320747   2.089   4.414   5.450 -0.3284  0.4374  0.2067
 5245SOL    MW420748   2.053   4.441   5.376  0.0002 -0.8532  0.2656
 5246SOL     OW20749   0.419   6.196   4.993  0.0344 -0.5020 -0.4621
 5246SOL    HW220750   0.499   6.234   5.030 -0.2558 -0.2265 -0.0978
 5246SOL    HW320751   0.361   6.186   5.069 -1.0500  1.2733 -0.9998
 5246SOL    MW420752   0.422   6.200   5.008 -0.2905 -0.0835 -0.4986
 5247SOL     OW20753   5.135   0.138   2.014 -0.5895  0.2774 -0.5655
 5247SOL    HW220754   5.097   0.078   1.951  0.9139  0.2154 -1.4642
 5247SOL    HW320755   5.167   0.212   1.962 -2.1548  1.7573  0.4914
 5247SOL    MW420756   5.134   0.140   1.999 -0.0769  0.8273 -0.0555
 5248SOL     OW20757   3.570   2.415   0.374  0.0444 -0.6247 -0.0579
 5248SOL    HW220758   3.520   2.496   0.378  1.1194  0.1452 -1.4661
 5248SOL    HW320759   3.516   2.357   0.319  0.2911 -0.1012 -0.8573
 5248SOL    MW420760   3.556   2.418   0.367 -0.4019  0.2076  0.6340
 5249SOL     OW20761   0.627   4.308   0.160  0.3940  0.4685  0.1515
 5249SOL    HW220762   0.554   4.369   0.160 -0.3809 -0.4337  0.5816
 5249SOL    HW320763   0.590   4.225   0.131  1.1380 -0.1224  0.8294
 5249SOL    MW420764   0.613   4.305   0.157 -0.1829 -0.2302  0.4970
 5250SOL     OW20765   2.104   0.898   0.758 -0.3345  0.6451  0.0683
 5250SOL    HW220766   2.030   0.877   0.700 -0.0107  2.1490 -0.9643
 5250SOL    HW320767   2.065   0.905   0.845 -1.0132 -0.7091 -0.0978
 5250SOL    MW420768   2.089   0.896   0.762  0.0302 -0.5805 -0.2253
 5251SOL     OW20769   0.852   5.693   2.174  0.3695  0.4302  0.1936
 5251SOL    HW220770   0.823   5.724   2.088 -0.9890  1.4311  0.9752
 5251SOL    HW320771   0.784   5.723   2.234  1.4445 -0.0038  1.6678
 5251SOL    MW420772   0.839   5.701   2.171 -0.0057  0.2503  0.2602
 5252SOL     OW20773   0.056   0.815   3.319  0.4830  0.3791  0.3325
 5252SOL    HW220774   0.000   0.819   3.241 -0.5585  0.2358  1.0464
 5252SOL    HW320775   0.143   0.836   3.287  0.3128 -0.8979 -1.1068
 5252SOL    MW420776   0.060   0.818   3.305 -0.1291 -0.1172  0.5688
 5253SOL     OW20777   4.841   3.167   2.571  0.4239 -0.0662 -0.6094
 5253SOL    HW220778   4.769   3.159   2.507 -1.5974 -1.0577  1.6291
 5253SOL    HW320779   4.868   3.077   2.587  0.0472  0.0575  0.7951
 5253SOL    MW420780   4.835   3.154   2.564 -0.1010 -0.4485  0.2814
 5254SOL     OW20781   1.952   1.786   3.182  0.2605 -0.3607 -0.7025
 5254SOL    HW220782   1.895   1.842   3.236 -0.3875  0.4301 -2.1660
 5254SOL    HW320783   2.035   1.784   3.230 -0.1409  0.7245  0.0915
 5254SOL    MW420784   1.955   1.794   3.196 -0.1181 -0.6250  0.6312
 5255SOL     OW20785   1.575   5.400   3.186 -0.1976  0.2673 -0.1660
 5255SOL    HW220786   1.563   5.417   3.279 -0.1391 -1.3830  0.1757
 5255SOL    HW320787   1.504   5.448   3.143 -0.8766  0.1699  0.8200
 5255SOL    MW420788   1.564   5.409   3.192 -0.1920 -0.0417  0.7782
 5256SOL     OW20789   1.707   1.885   0.964 -0.2335  0.7162  0.0266
 5256SOL    HW220790   1.679   1.804   1.007 -3.4068  2.0492  0.7235
 5256SOL    HW320791   1.712   1.862   0.871 -1.2079 -0.2794  0.1888
 5256SOL    MW420792   1.704   1.871   0.958 -0.1774  0.6989  0.1446
 5257SOL     OW20793   4.894   5.781   1.020 -0.7436 -0.8112 -0.7765
 5257SOL    HW220794   4.920   5.779   1.112 -0.9073 -3.3826 -0.7197
 5257SOL    HW320795   4.927   5.865   0.988  0.3449 -0.3613  1.3333
 5257SOL    MW420796   4.902   5.792   1.028 -0.2306 -0.0929 -0.1259
 5258SOL     OW20797   5.953   5.735   4.026  0.4823  0.1799  0.2193
 5258SOL    HW220798   5.933   5.828   4.022  1.2419  0.3176 -1.0288
 5258SOL    HW320799   6.012   5.726   4.101 -0.0268  0.5994  0.6806
 5258SOL    MW420800   5.958   5.746   4.035 -0.1565 -0.0571  0.0364
 5259SOL     OW20801   5.786   2.650   5.651 -0.3755  0.2037  0.0594
 5259SOL    HW220802   5.711   2.592   5.643  0.2671 -0.5201 -0.9352
 5259SOL    HW320803   5.840   2.609   5.719 -0.1543 -0.1122 -0.3026
 5259SOL    MW420804   5.783   2.637   5.659  1.0274  0.4163 -0.0634
 5260SOL     OW20805   5.894   0.868   0.659  0.1870 -0.2718 -0.0762
 5260SOL    HW220806   5.807   0.882   0.696  0.3636  0.5947  0.0374
 5260SOL    HW320807   5.950   0.852   0.735  0.2722 -0.0034 -0.0802
 5260SOL    MW420808   5.890   0.868   0.674 -0.2037  0.1456 -0.0725
 5261SOL     OW20809   4.714   2.462   3.774  0.4333 -0.1986  0.2289
 5261SOL    HW220810   4.733   2.553   3.751  1.6307 -0.4556  0.0877
 5261SOL    HW320811   4.632   2.442   3.729  1.3642  0.1106 -1.7184
 5261SOL    MW420812   4.706   2.471   3.765  0.0369  0.1068 -0.3992
 5262SOL     OW20813   2.583   3.569   5.987 -0.3046  0.2244  0.9312
 5262SOL    HW220814   2.649   3.502   6.006  1.6183  1.7405 -0.0068
 5262SOL    HW320815   2.606   3.601   5.899 -2.7307  0.3650  0.2821
 5262SOL    MW420816   2.595   3.564   5.978 -0.0795 -0.4839 -0.6527
 5263SOL     OW20817   6.106   0.135   1.815 -0.0467 -0.6711 -0.1681
 5263SOL    HW220818   6.090   0.065   1.878  0.9335 -2.3512 -1.6811
 5263SOL    HW320819   6.022   0.180   1.806 -0.7097 -1.6764  0.7980
 5263SOL    MW420820   6.093   0.132   1.822  0.0068  0.2107  0.0430
 5264SOL     OW20821   3.870   3.632   0.246 -0.3451  0.1694  0.5505
 5264SOL    HW220822   3.836   3.573   0.313 -2.6426 -1.3360 -1.7596
 5264SOL    HW320823   3.920   3.575   0.187 -1.5383  0.6694 -1.0207
 5264SOL    MW420824   3.872   3.617   0.247 -0.1205 -0.1082 -0.2043
 5265SOL     OW20825   4.846   4.243   5.903  0.4534 -0.2321 -0.0349
 5265SOL    HW220826   4.923   4.241   5.961  1.1047  0.5406 -0.8373
 5265SOL    HW320827   4.780   4.191   5.949  1.5042 -1.0516  0.6084
 5265SOL    MW420828   4.848   4.236   5.917 -0.5556  0.2173  0.2915
 5266SOL     OW20829   0.639   3.689   1.489  0.0361  0.4318 -0.5957
 5266SOL    HW220830   0.667   3.599   1.508  0.5915  0.7183 -0.0115
 5266SOL    HW320831   0.716   3.729   1.449  0.5647  1.2739  1.1548
 5266SOL    MW420832   0.653   3.682   1.486  0.2108  0.3293 -0.2509
 5267SOL     OW20833   4.371   3.772   5.601  0.7809  0.0088  0.2519
 5267SOL    HW220834   4.406   3.858   5.626 -0.3956  0.3767  0.7024
 5267SOL    HW320835   4.397   3.714   5.673 -1.2094  0.7175  1.6259
 5267SOL    MW420836   4.379   3.776   5.614 -0.7228  0.3173  0.4075
 5268SOL     OW20837   0.282   0.852   3.900  0.0902 -0.3605 -0.1278
 5268SOL    HW220838   0.327   0.807   3.972  0.1222 -0.1290 -0.0002
 5268SOL    HW320839   0.210   0.794   3.877  0.8634 -1.0628 -0.8043
 5268SOL    MW420840   0.278   0.838   3.907  0.2337 -0.0751  0.2304
 5269SOL     OW20841   5.223   0.792   6.329 -0.4637  0.0582  0.3195
 5269SOL    HW220842   5.220   0.705   6.288 -1.2090 -0.1372  0.7754
 5269SOL    HW320843   5.147   0.794   6.388  0.2622  0.5452  1.2704
 5269SOL    MW420844   5.213   0.781   6.331 -0.1992 -0.3058  0.0542
 5270SOL     OW20845   4.471   2.661   5.487 -0.6386  0.3518  0.4043
 5270SOL    HW220846   4.445   2.739   5.438 -2.2183 -0.3398  0.0691
 5270SOL    HW320847   4.408   2.594   5.460  0.4748 -0.9567  0.9381
 5270SOL    MW420848   4.459   2.663   5.477 -0.6948 -0.4709 -0.7289
 5271SOL     OW20849   3.971   0.314   2.775 -0.4862  0.2062 -0.3386
 5271SOL    HW220850   3.967   0.384   2.840 -1.5065  0.2050 -0.3834
 5271SOL    HW320851   3.914   0.246   2.811  4.3606 -3.0286  2.4609
 5271SOL    MW420852   3.963   0.314   2.788  0.2832 -0.0869 -0.1238
 5272SOL     OW20853   1.785   1.003   1.996  0.1772  0.0411 -0.0808
 5272SOL    HW220854   1.759   1.005   2.088 -0.9647 -1.6434 -0.3199
 5272SOL    HW320855   1.731   1.071   1.955  0.9660  1.0646  0.5298
 5272SOL    MW420856   1.774   1.012   2.003 -0.0684 -0.2465  0.5837
 5273SOL     OW20857   0.972   4.113   5.289  0.1810 -0.1608 -0.4247
 5273SOL    HW220858   1.043   4.080   5.234  0.0496  0.7219 -1.1362
 5273SOL    HW320859   0.943   4.036   5.339 -0.1471 -1.1337 -2.0574
 5273SOL    MW420860   0.977   4.098   5.289  0.5808 -0.3485  0.0415
 5274SOL     OW20861   4.464   4.049   2.115  0.3906  0.1424 -0.0525
 5274SOL    HW220862   4.442   4.020   2.203 -0.4374  0.2809 -0.2052
 5274SOL    HW320863   4.446   3.973   2.059  1.8563 -0.2693  0.0086
 5274SOL    MW420864   4.458   4.035   2.119 -0.0662 -0.3108  0.1507
 5275SOL     OW20865   4.370   5.148   2.018 -0.4994 -0.3906 -0.2061
 5275SOL    HW220866   4.424   5.216   2.058 -0.1515 -0.8453  0.1020
 5275SOL    HW320867   4.399   5.066   2.059 -1.5822 -0.6173  0.1423
 5275SOL    MW420868   4.381   5.146   2.028  0.3160  0.0631 -0.3367
 5276SOL     OW20869   5.190   6.140   2.713 -0.0224  0.0481  0.1855
 5276SOL    HW220870   5.251   6.196   2.761  0.7990 -0.7176  0.0536
 5276SOL    HW320871   5.213   6.153   2.621  1.2850 -1.7138  0.2192
 5276SOL    MW420872   5.201   6.149   2.707  0.0804  0.3192 -0.1824
 5277SOL     OW20873   3.699   1.047   5.922 -0.1542  0.3509 -0.2333
 5277SOL    HW220874   3.783   1.023   5.882  0.2909  0.0711  0.8286
 5277SOL    HW320875   3.722   1.111   5.989 -0.9675  1.3233 -0.8602
 5277SOL    MW420876   3.713   1.052   5.925  0.8457 -0.1354 -0.5538
 5278SOL     OW20877   3.375   1.423   0.394 -0.4764  0.3060  0.4738
 5278SOL    HW220878   3.318   1.361   0.440 -0.7898  1.4502  1.6667
 5278SOL    HW320879   3.321   1.456   0.322 -1.2837  1.2616  1.5018
 5278SOL    MW420880   3.361   1.419   0.390  0.2195  0.4147 -0.8337
 5279SOL     OW20881   5.137   2.210   1.072  0.2553 -0.3947  0.2230
 5279SOL    HW220882   5.113   2.300   1.050 -2.2723 -1.1573 -0.4289
 5279SOL    HW320883   5.144   2.210   1.168  0.4328  0.5252  0.2195
 5279SOL    MW420884   5.135   2.222   1.082  0.2994 -0.0777 -0.0712
 5280SOL     OW20885   5.542   2.698   4.902 -0.4181 -0.3146 -0.5496
 5280SOL    HW220886   5.447   2.684   4.900 -0.3041 -1.1123 -0.9320
 5280SOL    HW320887   5.570   2.662   4.986 -0.5080  0.3045 -0.2536
 5280SOL    MW420888   5.533   2.691   4.913  0.6144  1.1820 -0.2204
 5281SOL     OW20889   1.407   0.323   6.145 -0.8064  0.3253  0.0116
 5281SOL    HW220890   1.395   0.336   6.239 -1.3121  0.2050 -0.0366
 5281SOL    HW320891   1.500   0.340   6.131 -0.8818  1.0973  0.4089
 5281SOL    MW420892   1.418   0.327   6.155  0.8657  0.0641 -0.4610
 5282SOL     OW20893   4.288   3.451   4.381  0.0468 -0.0700 -0.2555
 5282SOL    HW220894   4.257   3.361   4.395  0.0178 -0.3192 -1.7706
 5282SOL    HW320895   4.209   3.503   4.371 -0.0186  0.5691  2.7831
 5282SOL    MW420896   4.274   3.446   4.382  0.9197  0.1712 -0.2542
 5283SOL     OW20897   0.007   5.208   2.640 -0.7006  0.4522 -0.0002
 5283SOL    HW220898   0.013   5.144   2.569 -1.2986 -1.6558  1.7482
 5283SOL    HW320899   0.098   5.231   2.660 -0.4486 -0.3104 -0.2437
 5283SOL    MW420900   0.020   5.203   2.633  0.4569  0.3844 -0.2188
 5284SOL     OW20901   3.493   0.808   0.955  0.1022 -0.1575  0.3529
 5284SOL    HW220902   3.547   0.839   1.028 -0.2056 -1.1639  1.0239
 5284SOL    HW320903   3.549   0.818   0.878  0.3645  1.1075  0.6715
 5284SOL    MW420904   3.507   0.814   0.955 -0.4481 -0.4508 -0.0155
 5285SOL     OW20905   0.907   0.458   2.813 -0.7874 -0.4531 -0.2898
 5285SOL    HW220906   0.830   0.416   2.851 -1.3785  0.5835 -0.3285
 5285SOL    HW320907   0.966   0.473   2.887 -0.1331 -2.1901 -0.3955
 5285SOL    MW420908   0.905   0.454   2.827 -0.4607 -0.5281 -0.7816
 5286SOL     OW20909   0.820   4.089   3.791  0.4849  0.4053  0.4564
 5286SOL    HW220910   0.865   4.045   3.863 -1.8827 -0.0390  1.7854
 5286SOL    HW320911   0.867   4.171   3.779  2.3336 -0.5355  0.9064
 5286SOL    MW420912   0.832   4.094   3.799 -0.7888  0.2057 -0.6060
 5287SOL     OW20913   5.126   2.308   4.045 -0.0945 -0.1403  0.2138
 5287SOL    HW220914   5.063   2.241   4.070  2.1495 -0.9666  4.8399
 5287SOL    HW320915   5.078   2.391   4.053 -1.1952 -0.8638  1.3561
 5287SOL    MW420916   5.112   2.310   4.050  0.1651 -0.3219  0.0950
 5288SOL     OW20917   1.394   5.338   5.053  0.1163 -0.1641 -0.0909
 5288SOL    HW220918   1.390   5.429   5.026 -1.0547  0.2102  1.2222
 5288SOL    HW320919   1.306   5.303   5.037  0.1404 -0.6449  0.7546
 5288SOL    MW420920   1.382   5.345   5.048 -0.0915 -0.4742  0.0221
 5289SOL     OW20921   4.541   4.591   5.374  0.0116  0.3366  0.0802
 5289SOL    HW220922   4.513   4.578   5.465 -0.9659  0.4325 -0.1992
 5289SOL    HW320923   4.633   4.564   5.374 -0.4130 -1.2464  0.7408
 5289SOL    MW420924   4.549   4.586   5.386  0.1017 -0.4180  0.5010
 5290SOL     OW20925   4.252   1.925   5.918  0.0785 -0.3490  0.2033
 5290SOL    HW220926   4.297   1.847   5.949 -1.3854 -0.3998  2.4466
 5290SOL    HW320927   4.168   1.892   5.885 -0.6446  0.2509  1.3791
 5290SOL    MW420928   4.247   1.910   5.917  0.2721  0.4632 -0.1429
 5291SOL     OW20929   2.178   5.853   1.607 -0.1050  0.5050  0.4871
 5291SOL    HW220930   2.224   5.884   1.684  1.8864  0.7394 -0.7183
 5291SOL    HW320931   2.149   5.933   1.562 -0.3357  0.4067  0.4592
 5291SOL    MW420932   2.180   5.868   1.611 -0.2190  0.2567  0.5901
 5292SOL     OW20933   3.067   0.811   1.979 -0.1721  0.5626  0.3652
 5292SOL    HW220934   3.155   0.788   2.009 -0.6753 -2.0377  0.1069
 5292SOL    HW320935   3.012   0.797   2.056 -0.7323 -0.7956 -0.2523
 5292SOL    MW420936   3.071   0.806   1.993  0.7473 -0.0911  0.1582
 5293SOL     OW20937   4.653   5.910   1.036 -0.6807  0.0974  0.3752
 5293SOL    HW220938   4.719   5.844   1.055 -1.1660 -0.4959  0.0442
 5293SOL    HW320939   4.653   5.918   0.941 -1.1690 -0.0103  0.3592
 5293SOL    MW420940   4.662   5.902   1.026 -0.4730  0.0199 -0.5373
 5294SOL     OW20941   3.085   1.676   2.685 -0.4283  0.0028  0.1921
 5294SOL    HW220942   3.120   1.765   2.694  1.7474 -0.8200  0.5849
 5294SOL    HW320943   3.030   1.663   2.762  0.7363  0.3845  1.1138
 5294SOL    MW420944   3.083   1.686   2.696 -0.0151 -0.3251  0.5332
 5295SOL     OW20945   2.755   1.145   1.490  0.2486  0.5381  0.3061
 5295SOL    HW220946   2.780   1.192   1.410 -2.7746 -0.8148 -1.6466
 5295SOL    HW320947   2.823   1.079   1.501  0.4251  0.3454 -1.5621
 5295SOL    MW420948   2.767   1.143   1.481  0.0536 -0.6656 -0.0635
 5296SOL     OW20949   0.046   1.540   2.327 -0.0684 -0.0674 -0.1357
 5296SOL    HW220950   0.128   1.573   2.291  0.8385 -2.0080  0.0284
 5296SOL    HW320951  -0.002   1.618   2.353  1.4629  1.1406 -0.8022
 5296SOL    MW420952   0.051   1.554   2.326  0.9023 -0.0283 -0.3850
 5297SOL     OW20953   3.610   1.561   5.176 -0.4045 -0.3224  0.5582
 5297SOL    HW220954   3.649   1.583   5.091  1.1098 -0.0344  1.2989
 5297SOL    HW320955   3.566   1.642   5.204  0.1311 -0.0323  0.5835
 5297SOL    MW420956   3.609   1.575   5.169 -0.3292  0.2482 -0.1844
 5298SOL     OW20957   1.687   0.002   1.052 -0.0796  0.6499 -0.4040
 5298SOL    HW220958   1.676   0.063   0.979 -1.7589 -1.0449 -1.6611
 5298SOL    HW320959   1.732  -0.073   1.014 -2.5358 -1.0335 -0.2648
 5298SOL    MW420960   1.691   0.001   1.038  0.0410 -0.3872 -0.4407
 5299SOL     OW20961   3.857   3.790   5.246  0.0515  0.0040 -0.5956
 5299SOL    HW220962   3.938   3.819   5.205 -0.9275  0.6865 -2.1514
 5299SOL    HW320963   3.880   3.708   5.291  1.9424  1.0602  0.4412
 5299SOL    MW420964   3.870   3.783   5.247  0.3598  0.3635  0.1587
 5300SOL     OW20965   1.730   4.952   1.170 -0.5025 -0.3114  0.1910
 5300SOL    HW220966   1.767   5.035   1.140 -1.6451  0.3912  0.6340
 5300SOL    HW320967   1.752   4.890   1.100  0.9165  0.1999  0.1471
 5300SOL    MW420968   1.737   4.955   1.156 -0.1363 -0.0190 -0.1627
 5301SOL     OW20969   1.095   0.147   5.224  0.1899 -0.0174  0.8592
 5301SOL    HW220970   1.182   0.186   5.217  0.0649  0.2908  0.9792
 5301SOL    HW320971   1.048   0.206   5.284 -0.0862 -0.2057  0.8277
 5301SOL    MW420972   1.100   0.160   5.231  0.0382 -0.4220  0.5222
 5302SOL     OW20973   2.515   5.179   0.121  0.5054 -0.5556  0.2794
 5302SOL    HW220974   2.547   5.263   0.155 -0.9358 -0.1191  0.6397
 5302SOL    HW320975   2.522   5.119   0.195 -0.3243 -0.2305  0.6325
 5302SOL    MW420976   2.520   5.182   0.135 -0.2303  0.6407 -0.0639
 5303SOL     OW20977   4.759   4.839   5.519  0.0360 -0.0140  0.5193
 5303SOL    HW220978   4.814   4.769   5.485 -0.6287 -0.8556  1.1488
 5303SOL    HW320979   4.671   4.819   5.485 -0.3313  0.0112  1.4375
 5303SOL    MW420980   4.755   4.827   5.510  0.5134  0.6815 -0.2066
 5304SOL     OW20981   2.390   3.264   5.258 -0.3597  0.4119  0.0501
 5304SOL    HW220982   2.437   3.263   5.341 -0.3614  1.0412  0.0652
 5304SOL    HW320983   2.309   3.310   5.277 -0.0015  1.2939 -0.4776
 5304SOL    MW420984   2.386   3.270   5.271  0.2690  0.0867  0.2769
 5305SOL     OW20985   1.701   3.112   4.912 -0.1899 -0.2203 -0.2916
 5305SOL    HW220986   1.741   3.194   4.885 -0.2610  0.1478  0.6839
 5305SOL    HW320987   1.633   3.137   4.975  0.7183 -1.0964  1.0983
 5305SOL    MW420988   1.697   3.126   4.917 -0.4474  0.3308 -0.7606
 5306SOL     OW20989   0.883   4.251   2.326  1.1418 -0.4306 -0.6374
 5306SOL    HW220990   0.889   4.308   2.403  3.0435 -0.0891 -1.0065
 5306SOL    HW320991   0.841   4.171   2.359  2.2485 -0.4315  0.8555
 5306SOL    MW420992   0.878   4.248   2.341 -0.3639 -0.0401 -0.4114
 5307SOL     OW20993   1.573   0.025   5.177 -0.0586  0.7441 -0.2272
 5307SOL    HW220994   1.524  -0.052   5.148 -0.0231  0.7466 -0.2933
 5307SOL    HW320995   1.641  -0.011   5.235 -1.0427  0.8647  1.0574
 5307SOL    MW420996   1.576   0.010   5.181  0.0861 -0.7547 -0.1230
 5308SOL     OW20997   4.859   1.686   5.655 -0.0675 -0.1435 -0.1495
 5308SOL    HW220998   4.776   1.728   5.678  0.5214  1.1870 -0.3919
 5308SOL    HW320999   4.901   1.746   5.594  1.4229 -0.4297  0.5370
 5308SOL    MW421000   4.854   1.699   5.650  0.1275  0.0962  0.2387
 5309SOL     OW21001   4.272   3.454   0.523  0.1089 -0.2991  0.5764
 5309SOL    HW221002   4.303   3.455   0.614  1.6633 -1.6713  0.1262
 5309SOL    HW321003   4.195   3.397   0.525  1.0669 -1.6337  0.8123
 5309SOL    MW421004   4.266   3.446   0.535 -0.0616  0.0023 -0.6118
 5310SOL     OW21005   1.181   1.931   3.821 -0.3748  0.3432  0.2798
 5310SOL    HW221006   1.252   1.994   3.830 -2.2820  2.4328  1.9581
 5310SOL    HW321007   1.175   1.889   3.907 -2.3783  1.6919  0.8702
 5310SOL    MW421008   1.189   1.934   3.833  0.4278 -0.2910 -0.0063
 5311SOL     OW21009   5.718   1.914   0.724 -0.1036 -0.7396  0.0711
 5311SOL    HW221010   5.721   1.924   0.819 -0.6404 -0.6327  0.0787
 5311SOL    HW321011   5.795   1.861   0.703  0.8840  0.5114  0.4001
 5311SOL    MW421012   5.729   1.909   0.734 -0.4039 -0.0289 -0.1689
 5312SOL     OW21013   4.110   5.023   0.608 -0.5019  0.1862 -0.0798
 5312SOL    HW221014   4.199   5.053   0.588 -1.0976  1.3841 -1.0844
 5312SOL    HW321015   4.110   5.010   0.703  1.2698 -1.7251 -0.2627
 5312SOL    MW421016   4.122   5.025   0.618 -0.6980  0.8704  0.4350
 5313SOL     OW21017   4.389   0.021   4.645 -0.2812  0.3586  0.0272
 5313SOL    HW221018   4.458   0.019   4.579  0.4397 -0.3487  0.7778
 5313SOL    HW321019   4.428  -0.022   4.721 -2.0360 -1.4319 -0.0075
 5313SOL    MW421020   4.403   0.015   4.646 -0.1122 -0.3731  0.9469
 5314SOL     OW21021   3.292   2.451   3.171 -0.0303 -0.2888 -0.3951
 5314SOL    HW221022   3.238   2.488   3.240  0.6124 -0.7385  0.3571
 5314SOL    HW321023   3.375   2.497   3.178  0.5018 -1.2865  0.0280
 5314SOL    MW421024   3.296   2.462   3.181  0.1229  0.0642 -0.6192
 5315SOL     OW21025   6.367   3.341   0.980  0.4007  0.3418  0.2766
 5315SOL    HW221026   6.345   3.416   1.035 -0.3266 -0.3574  0.9616
 5315SOL    HW321027   6.442   3.301   1.023  0.6871  0.5756 -0.0003
 5315SOL    MW421028   6.374   3.346   0.993 -0.1804 -0.9179 -0.2326
 5316SOL     OW21029   1.261   3.896   3.179  0.8327 -0.2357 -0.6741
 5316SOL    HW221030   1.335   3.852   3.222  0.3908  1.0739  1.6235
 5316SOL    HW321031   1.297   3.930   3.097  2.7882  0.2606  0.3255
 5316SOL    MW421032   1.275   3.895   3.174 -0.5529 -0.1205  0.0198
 5317SOL     OW21033   0.110   1.929   4.343  0.3276  0.0976 -0.2610
 5317SOL    HW221034   0.180   1.903   4.284 -0.1330  1.5122 -1.5017
 5317SOL    HW321035   0.066   2.001   4.298 -1.2837 -0.0670  0.9384
 5317SOL    MW421036   0.113   1.935   4.329  0.3207 -0.2755 -0.0661
 5318SOL     OW21037   1.180   4.189   6.078  0.5731 -0.2123 -0.1046
 5318SOL    HW221038   1.134   4.114   6.117 -1.8805  0.6618 -1.1046
 5318SOL    HW321039   1.206   4.159   5.991  1.7896 -0.6294  0.3753
 5318SOL    MW421040   1.177   4.175   6.072 -0.0664  0.1222  0.4173
 5319SOL     OW21041   3.174   3.692   3.502  0.3438  0.2031 -0.5095
 5319SOL    HW221042   3.255   3.744   3.501 -0.0844  0.8810 -0.8171
 5319SOL    HW321043   3.159   3.675   3.595 -0.5225  2.2994 -0.1913
 5319SOL    MW421044   3.183   3.697   3.514 -0.1610  0.0561  0.0676
 5320SOL     OW21045   1.692   0.331   0.448 -0.3226 -0.1926  0.3841
 5320SOL    HW221046   1.656   0.267   0.508  0.8469  0.8562  2.3124
 5320SOL    HW321047   1.674   0.416   0.489 -1.7004  0.7860 -2.0116
 5320SOL    MW421048   1.685   0.334   0.461 -0.3610  0.2751  0.7082
 5321SOL     OW21049   3.422   6.141   4.744 -0.2792 -0.8362 -0.1620
 5321SOL    HW221050   3.489   6.076   4.725  0.5435  0.5086 -2.2848
 5321SOL    HW321051   3.364   6.139   4.667 -0.3889  0.7087 -0.1590
 5321SOL    MW421052   3.423   6.132   4.731  0.6479  0.8577 -0.1436
 5322SOL     OW21053   3.918   2.058   2.311 -0.2544  0.0985  0.4616
 5322SOL    HW221054   3.918   2.098   2.398 -1.2191  1.7114 -0.2325
 5322SOL    HW321055   3.995   2.094   2.268 -0.1534 -0.1699  0.4165
 5322SOL    MW421056   3.928   2.068   2.317 -0.0833  0.1834 -0.1747
 5323SOL     OW21057   1.512   3.348   0.676 -0.2189  0.5426  0.3732
 5323SOL    HW221058   1.453   3.335   0.601  0.7868 -0.4612 -0.2758
 5323SOL    HW321059   1.460   3.398   0.739 -0.9753  1.7716 -1.1395
 5323SOL    MW421060   1.497   3.353   0.674 -0.4988 -0.0090  0.4104
 5324SOL     OW21061   3.939   0.014   1.271  0.1619 -0.2308 -0.0352
 5324SOL    HW221062   3.844   0.022   1.266  0.2425  1.2629  0.4871
 5324SOL    HW321063   3.972   0.097   1.236  1.3206 -1.2298 -1.4556
 5324SOL    MW421064   3.931   0.026   1.265  0.3667  0.0356 -0.1086
 5325SOL     OW21065   2.589   6.239   5.785 -0.0436 -0.1033 -0.4036
 5325SOL    HW221066   2.681   6.215   5.795  0.5975  2.5729  1.1253
 5325SOL    HW321067   2.580   6.258   5.692  0.7784 -0.9391 -0.6712
 5325SOL    MW421068   2.600   6.239   5.774 -0.1822  0.3413  0.2728
 5326SOL     OW21069   0.270   4.227   1.593  0.1017 -0.4051 -0.2012
 5326SOL    HW221070   0.203   4.273   1.543  0.2547 -1.6176 -1.5942
 5326SOL    HW321071   0.238   4.228   1.683 -1.5778 -0.5696 -0.7630
 5326SOL    MW421072   0.257   4.233   1.599  0.3526  0.9904 -0.4872
 5327SOL     OW21073   6.143   5.719   6.239 -1.0845 -0.4007 -0.3319
 5327SOL    HW221074   6.054   5.706   6.207 -0.3582 -0.0883 -2.6893
 5327SOL    HW321075   6.189   5.760   6.165  0.9900 -0.4695  0.8469
 5327SOL    MW421076   6.137   5.723   6.225 -0.5042 -0.2684  0.6683
 5328SOL     OW21077   3.119   1.247   0.074  0.2204  0.4717 -0.6605
 5328SOL    HW221078   3.066   1.179   0.032 -1.3618 -0.0615  1.9437
 5328SOL    HW321079   3.055   1.308   0.111  1.4662  0.8096  1.0465
 5328SOL    MW421080   3.103   1.246   0.074 -0.4564  0.0384 -0.6084
 5329SOL     OW21081   4.852   2.871   4.093 -0.7192  0.0344  0.2015
 5329SOL    HW221082   4.822   2.919   4.170 -1.6058 -1.2745  0.7071
 5329SOL    HW321083   4.779   2.875   4.032 -0.9238 -0.8793  0.3654
 5329SOL    MW421084   4.839   2.877   4.095 -0.4216 -0.6275  0.4906
 5330SOL     OW21085   2.699   4.221   3.020 -0.1954  0.5884 -0.9136
 5330SOL    HW221086   2.739   4.235   3.106 -1.4775 -0.0391 -0.1720
 5330SOL    HW321087   2.639   4.296   3.010 -0.1288  0.6018 -1.2051
 5330SOL    MW421088   2.696   4.233   3.030  0.4106  0.2968 -0.2180
 5331SOL     OW21089   6.127   0.984   3.279  0.1267  0.1227  0.0139
 5331SOL    HW221090   6.213   1.010   3.313  0.0212 -0.1135  0.4688
 5331SOL    HW321091   6.094   1.063   3.236  0.2472  0.4405  0.4918
 5331SOL    MW421092   6.134   0.998   3.278 -0.3880  0.1360  0.2623
 5332SOL     OW21093   1.747   4.483   5.925 -0.4877 -0.5152  0.1687
 5332SOL    HW221094   1.798   4.419   5.875 -1.8990 -0.8741 -0.8997
 5332SOL    HW321095   1.797   4.564   5.919  0.4050 -1.0644 -0.0409
 5332SOL    MW421096   1.760   4.485   5.918  1.1129  0.3527 -0.7378
 5333SOL     OW21097   3.130   3.979   4.644  1.2640 -0.1428 -0.5445
 5333SOL    HW221098   3.219   3.981   4.609  2.0126  0.8649  1.2990
 5333SOL    HW321099   3.140   3.952   4.735 -0.1062  1.4816  0.1473
 5333SOL    MW421100   3.143   3.976   4.651  0.2818  0.0608 -0.0407
 5334SOL     OW21101   2.158   3.008   4.288 -0.1082  0.5397  0.1287
 5334SOL    HW221102   2.217   3.068   4.335  0.0550  1.1837 -0.8682
 5334SOL    HW321103   2.076   3.014   4.337  0.7797 -0.8473  1.9090
 5334SOL    MW421104   2.155   3.017   4.301  0.4991 -0.2578  0.2852
 5335SOL     OW21105   3.101   0.898   3.219  0.2855 -0.3843  0.0223
 5335SOL    HW221106   3.059   0.822   3.260 -0.2839 -0.3144 -0.4276
 5335SOL    HW321107   3.079   0.891   3.126 -0.4543  0.7705  0.0966
 5335SOL    MW421108   3.093   0.887   3.212  0.5992  0.0647 -0.0348
 5336SOL     OW21109   0.903   4.540   3.623  0.0856 -0.3194  1.1936
 5336SOL    HW221110   0.937   4.615   3.671 -1.2136  1.2086 -0.1862
 5336SOL    HW321111   0.969   4.521   3.557 -1.1032  2.0084 -0.8317
 5336SOL    MW421112   0.916   4.547   3.621  0.1255  0.1953  0.1342
 5337SOL     OW21113   5.306   1.870   1.143  0.0522 -0.4600 -0.5523
 5337SOL    HW221114   5.382   1.821   1.111  1.8216  1.0214  1.1338
 5337SOL    HW321115   5.289   1.934   1.074 -0.2448 -1.3435 -1.3215
 5337SOL    MW421116   5.313   1.872   1.129 -0.2068  0.0599 -0.1290
 5338SOL     OW21117   0.024   1.310   2.043  0.8440 -0.0459 -0.1680
 5338SOL    HW221118   0.110   1.349   2.026  0.3167  1.1558 -0.2117
 5338SOL    HW321119  -0.033   1.385   2.058 -0.1533 -0.8389  0.0895
 5338SOL    MW421120   0.028   1.325   2.042  0.3227  0.0963  0.1850
 5339SOL     OW21121   5.145   1.397   0.244  0.1755  0.2269  0.3573
 5339SOL    HW221122   5.166   1.305   0.225  0.9359  0.5807 -0.6121
 5339SOL    HW321123   5.112   1.431   0.161  0.3233  0.9369  0.5856
 5339SOL    MW421124   5.144   1.389   0.231  0.0268  0.6512  0.0550
 5340SOL     OW21125   0.300   5.509   4.799 -0.1250 -0.1871 -0.7614
 5340SOL    HW221126   0.337   5.594   4.774 -0.8117  0.2140 -0.4445
 5340SOL    HW321127   0.319   5.502   4.893 -0.6404 -0.0853 -0.6475
 5340SOL    MW421128   0.308   5.520   4.808  0.8416 -0.3758  0.2589
 5341SOL     OW21129   6.005   3.941   3.660 -0.0388 -0.4211  0.2671
 5341SOL    HW221130   5.935   4.006   3.665  2.1069  2.0481  0.1304
 5341SOL    HW321131   5.986   3.880   3.731 -1.6079  0.9443  1.0790
 5341SOL    MW421132   5.993   3.941   3.670  0.0682 -0.2745  0.4065
 5342SOL     OW21133   2.114   1.294   2.230  0.1438  0.3552  0.1030
 5342SOL    HW221134   2.027   1.284   2.269  0.1449 -1.1415 -0.2063
 5342SOL    HW321135   2.174   1.263   2.297  0.4959  1.7418  0.4610
 5342SOL    MW421136   2.111   1.288   2.244  0.2397 -0.2266 -0.4287
 5343SOL     OW21137   3.397   5.594   5.441  0.3165 -0.2397 -0.0991
 5343SOL    HW221138   3.310   5.622   5.413  0.4481  0.5322  0.2384
 5343SOL    HW321139   3.457   5.654   5.398  0.6067  0.0158  0.6404
 5343SOL    MW421140   3.394   5.606   5.432 -0.7424 -0.8247 -0.3020
 5344SOL     OW21141   4.463   5.651   6.272 -0.1424  0.7360  0.3272
 5344SOL    HW221142   4.527   5.710   6.312 -0.7759  2.2526 -0.8020
 5344SOL    HW321143   4.457   5.577   6.332  1.2349  1.4667  1.4120
 5344SOL    MW421144   4.471   5.649   6.285  0.0841  0.0751  0.2434
 5345SOL     OW21145   2.293   0.702   4.993  0.4940  0.0998 -0.4766
 5345SOL    HW221146   2.261   0.792   4.984  0.3268  0.4327  2.5389
 5345SOL    HW321147   2.376   0.701   4.945  0.2087  1.6695 -1.0677
 5345SOL    MW421148   2.299   0.713   4.985 -0.2215  0.6417  0.4199
 5346SOL     OW21149   6.018   4.928   4.925  0.1903 -0.1149 -0.3017
 5346SOL    HW221150   5.933   4.961   4.954  0.7818  0.2882  1.0176
 5346SOL    HW321151   6.058   5.001   4.878  0.5178  0.2771  0.5751
 5346SOL    MW421152   6.012   4.942   4.923 -0.1643  0.0836 -0.3041
 5347SOL     OW21153   3.331   5.413   5.640  0.1431 -0.4437 -0.9654
 5347SOL    HW221154   3.283   5.345   5.592 -1.5466 -1.0026  1.2992
 5347SOL    HW321155   3.360   5.475   5.573 -3.6015 -0.1901 -2.5768
 5347SOL    MW421156   3.328   5.412   5.625 -0.1654  0.4427 -0.1535
 5348SOL     OW21157   2.700   6.190   1.438  0.2730 -0.4154 -0.0259
 5348SOL    HW221158   2.676   6.277   1.407  0.5790 -0.1011  0.5896
 5348SOL    HW321159   2.616   6.146   1.453  0.1185 -0.4693 -0.9668
 5348SOL    MW421160   2.685   6.196   1.436  0.2018 -0.0656  0.9124
 5349SOL     OW21161   6.074   5.272   1.832  0.1381  0.4333  0.4587
 5349SOL    HW221162   6.039   5.307   1.749 -0.3271 -2.0542 -0.5033
 5349SOL    HW321163   6.045   5.181   1.832  1.5663 -0.0729  2.5988
 5349SOL    MW421164   6.065   5.264   1.821  0.0362  0.0118 -0.1593
 5350SOL     OW21165   5.296   6.086   5.395 -0.0252  0.3865  0.4524
 5350SOL    HW221166   5.229   6.138   5.440 -1.6331 -0.9431 -0.2832
 5350SOL    HW321167   5.285   6.107   5.303  2.8850  2.6811  0.4777
 5350SOL    MW421168   5.286   6.096   5.389  0.1646  0.2030  0.1607
 5351SOL     OW21169   1.300   0.571   3.134 -0.1612 -0.3076  0.2600
 5351SOL    HW221170   1.344   0.656   3.121 -2.1193  0.7540  0.2727
 5351SOL    HW321171   1.365   0.518   3.180  1.7078  0.6248 -1.1552
 5351SOL    MW421172   1.315   0.575   3.138  0.2900  0.1172  0.0369
 5352SOL     OW21173   3.078   2.786   1.029 -0.1405 -0.0122  0.5756
 5352SOL    HW221174   3.040   2.837   1.101 -1.9865 -2.3524  1.4249
 5352SOL    HW321175   3.004   2.766   0.972  1.0267  0.4858 -1.1756
 5352SOL    MW421176   3.063   2.790   1.031  0.7506 -0.6758 -0.1811
 5353SOL     OW21177   3.337   5.064   3.063 -0.1393 -0.6894 -0.1809
 5353SOL    HW221178   3.249   5.034   3.085  0.2149 -3.6029 -2.1636
 5353SOL    HW321179   3.394   4.990   3.085  1.7356  0.7778  0.1717
 5353SOL    MW421180   3.333   5.050   3.069  0.3683  0.2121  0.0609
 5354SOL     OW21181   1.190   2.312   0.911  0.6561 -0.8958  0.1196
 5354SOL    HW221182   1.101   2.277   0.921  0.1141  0.5103  0.6373
 5354SOL    HW321183   1.215   2.290   0.822 -2.2318  2.8526 -1.9240
 5354SOL    MW421184   1.181   2.305   0.901 -0.5741  0.3931 -0.1817
 5355SOL     OW21185   0.483   4.586   5.936  0.4206  0.3584  0.4201
 5355SOL    HW221186   0.516   4.535   6.010 -0.7643  1.3487  1.6866
 5355SOL    HW321187   0.545   4.658   5.927 -0.4845  1.3844  1.8374
 5355SOL    MW421188   0.495   4.589   5.945  0.5703  0.2664 -0.4433
 5356SOL     OW21189   2.154   2.357   4.011 -0.0000  0.6661  0.4889
 5356SOL    HW221190   2.185   2.417   3.944 -0.1130  0.0064 -0.1731
 5356SOL    HW321191   2.059   2.355   3.999  0.1079 -0.5937 -0.3401
 5356SOL    MW421192   2.146   2.364   4.001 -0.4918  0.6565 -0.1752
 5357SOL     OW21193   0.308   2.293   3.434 -0.3311  0.1855  0.1891
 5357SOL    HW221194   0.351   2.374   3.461 -0.0951  0.0108  0.3372
 5357SOL    HW321195   0.218   2.303   3.465 -0.5002  0.7144 -0.4600
 5357SOL    MW421196   0.302   2.305   3.442  0.0093  0.4386 -0.1618
 5358SOL     OW21197   4.302   4.746   2.505 -0.1310 -0.4848  0.7044
 5358SOL    HW221198   4.275   4.693   2.430 -0.7430  1.5103 -0.5347
 5358SOL    HW321199   4.220   4.769   2.549 -0.0691  1.1143  0.0352
 5358SOL    MW421200   4.288   4.742   2.501  0.7429 -0.5853 -0.4215
 5359SOL     OW21201   3.588   4.758   5.460  0.1938 -0.7754 -0.5063
 5359SOL    HW221202   3.614   4.691   5.523 -1.5524 -1.1262 -0.0990
 5359SOL    HW321203   3.492   4.763   5.468  0.0037 -0.2213 -2.5281
 5359SOL    MW421204   3.578   4.750   5.470 -0.4484 -0.5153 -0.1146
 5360SOL     OW21205   6.129   4.314   2.115  0.4713  0.3430  0.5262
 5360SOL    HW221206   6.205   4.315   2.057 -0.7914 -0.6543 -1.2382
 5360SOL    HW321207   6.082   4.234   2.091 -1.4016  1.1842  1.2008
 5360SOL    MW421208   6.133   4.304   2.104 -0.4456 -0.3378  0.2197
 5361SOL     OW21209   4.469   3.359   4.979  0.1598  1.4871  0.0933
 5361SOL    HW221210   4.512   3.301   4.916  1.7225 -0.3994  2.6957
 5361SOL    HW321211   4.377   3.332   4.978  0.4941  0.3011 -0.1625
 5361SOL    MW421212   4.463   3.348   4.971  0.1918  0.2827 -0.1249
 5362SOL     OW21213   4.471   2.884   4.741 -0.2677 -0.8974 -0.4850
 5362SOL    HW221214   4.523   2.804   4.750  2.0155  0.4433 -0.9944
 5362SOL    HW321215   4.497   2.939   4.816 -1.5548 -0.4609 -0.3185
 5362SOL    MW421216   4.481   2.881   4.752  0.1787  0.8245  0.1635
 5363SOL     OW21217   3.155   3.595   4.472  0.1702 -0.1053 -0.4560
 5363SOL    HW221218   3.158   3.684   4.437  0.8347 -0.5998 -1.7162
 5363SOL    HW321219   3.192   3.603   4.560 -1.3222  1.1292  0.1064
 5363SOL    MW421220   3.160   3.608   4.479  0.4608  0.0162  0.0530
 5364SOL     OW21221   0.759   3.227   4.866 -0.3940 -0.8418  0.4220
 5364SOL    HW221222   0.774   3.301   4.924  0.5331 -0.7630  0.1003
 5364SOL    HW321223   0.680   3.186   4.899 -0.1838 -0.4783  1.4017
 5364SOL    MW421224   0.751   3.232   4.878 -0.3953 -0.4152  0.2968
 5365SOL     OW21225   3.389   2.913   1.243  0.2206  0.5914 -0.0018
 5365SOL    HW221226   3.318   2.860   1.279  0.2437 -0.5798 -1.5877
 5365SOL    HW321227   3.354   2.950   1.162  1.1924  0.5235 -0.4747
 5365SOL    MW421228   3.375   2.911   1.237  0.0883  0.0466  0.4034
 5366SOL     OW21229   0.808   3.868   0.405 -0.1706 -0.1436  0.3565
 5366SOL    HW221230   0.865   3.906   0.339  0.0513  0.4187  0.8579
 5366SOL    HW321231   0.867   3.835   0.473 -0.3808 -1.0125  0.1332
 5366SOL    MW421232   0.823   3.869   0.406  0.0166  0.2914  0.1968
 5367SOL     OW21233   3.025   4.499   3.540  0.1387 -0.2428  0.3263
 5367SOL    HW221234   2.980   4.581   3.517 -0.9039 -1.0924 -0.7763
 5367SOL    HW321235   3.078   4.523   3.616  2.2027  2.1960 -1.6930
 5367SOL    MW421236   3.026   4.513   3.547 -0.4320 -0.7734 -0.2255
 5368SOL     OW21237   3.094   4.738   1.515 -0.2395  0.2895 -0.2868
 5368SOL    HW221238   3.011   4.691   1.522 -1.0199  1.5934 -0.5028
 5368SOL    HW321239   3.137   4.699   1.438 -1.1569  0.3546 -0.8495
 5368SOL    MW421240   3.089   4.726   1.506 -0.4875  0.1688 -0.0354
 5369SOL     OW21241   4.445   5.035   3.806 -0.0800  0.3909 -0.3044
 5369SOL    HW221242   4.418   5.127   3.798 -0.4799  0.3256  0.2575
 5369SOL    HW321243   4.384   4.988   3.749 -0.6304  0.3448  0.3053
 5369SOL    MW421244   4.433   5.041   3.797 -0.1558  0.2433 -0.3794
 5370SOL     OW21245   2.869   4.595   0.396  0.0292 -0.7540  0.4684
 5370SOL    HW221246   2.810   4.667   0.374  0.5572 -0.5023 -0.1859
 5370SOL    HW321247   2.823   4.517   0.365  0.5977 -0.4369 -1.3109
 5370SOL    MW421248   2.855   4.595   0.389 -0.1077  0.2181  0.1756
 5371SOL     OW21249   1.011   2.575   5.696 -0.5187  0.5189 -0.0094
 5371SOL    HW221250   1.093   2.593   5.649 -0.0411  1.1490  1.0311
 5371SOL    HW321251   0.961   2.656   5.689 -0.9016  0.2600 -0.3174
 5371SOL    MW421252   1.015   2.588   5.688 -0.3832  0.4837  0.7066
 5372SOL     OW21253   2.489   1.343   4.600 -0.1387  0.5032 -0.1897
 5372SOL    HW221254   2.478   1.412   4.665  0.5547  0.9934 -0.5852
 5372SOL    HW321255   2.515   1.266   4.650 -0.1361  0.7371  0.1704
 5372SOL    MW421256   2.491   1.342   4.615 -0.1096  0.0496  0.3278
 5373SOL     OW21257   3.411   3.498   3.459  0.3207  0.1458 -0.1362
 5373SOL    HW221258   3.398   3.406   3.479  1.1050 -0.3107 -1.5933
 5373SOL    HW321259   3.330   3.540   3.488  0.9752 -0.5145  3.0154
 5373SOL    MW421260   3.398   3.492   3.465  0.1160 -0.0727 -0.4079
 5374SOL     OW21261   2.269   3.518   3.126  0.5191  0.5062  0.2814
 5374SOL    HW221262   2.277   3.424   3.110  0.8958  0.4780  0.6225
 5374SOL    HW321263   2.184   3.542   3.088 -0.0906 -0.1888  1.1717
 5374SOL    MW421264   2.259   3.509   3.119  0.4770 -0.0625  0.6593
 5375SOL     OW21265   4.670   1.872   4.866  0.1517  0.0552 -0.0340
 5375SOL    HW221266   4.644   1.921   4.944  1.0987  0.0766  0.2777
 5375SOL    HW321267   4.735   1.929   4.823  1.1942 -0.8647  0.2791
 5375SOL    MW421268   4.675   1.886   4.871 -0.6654 -0.5801 -0.7496
 5376SOL     OW21269   5.891   1.187   4.256  0.0715  0.2822  0.3214
 5376SOL    HW221270   5.972   1.141   4.237 -0.0360  0.3212 -0.2469
 5376SOL    HW321271   5.822   1.134   4.216 -0.1711  0.3437  0.6422
 5376SOL    MW421272   5.892   1.174   4.248  0.6652  0.2724 -0.1641
 5377SOL     OW21273   3.713   2.028   1.545  0.4276  0.2778  0.1216
 5377SOL    HW221274   3.785   1.981   1.588  1.5268  1.3014 -0.5496
 5377SOL    HW321275   3.700   2.107   1.597 -0.9864 -0.4109  0.8759
 5377SOL    MW421276   3.721   2.032   1.557  0.0711  0.0890  0.1965
 5378SOL     OW21277   3.126   4.188   5.033 -0.0297  0.3752  0.0909
 5378SOL    HW221278   3.074   4.184   4.953  0.4683  2.3847 -0.3713
 5378SOL    HW321279   3.137   4.281   5.051 -0.4081  0.0108  2.7142
 5378SOL    MW421280   3.120   4.199   5.025 -0.0823 -0.0400  0.4306
 5379SOL     OW21281   4.035   5.792   0.359  0.5857  0.0558 -0.0394
 5379SOL    HW221282   3.959   5.803   0.415  3.3265  0.0154  4.0947
 5379SOL    HW321283   4.045   5.697   0.350  0.7352  0.0363  0.3256
 5379SOL    MW421284   4.026   5.781   0.365 -0.0309  0.0129  0.7905
 5380SOL     OW21285   2.966   6.382   4.764  0.2114 -0.1428  0.3853
 5380SOL    HW221286   2.909   6.450   4.800  0.0851  0.9130 -1.6983
 5380SOL    HW321287   3.000   6.419   4.683  1.1620 -2.0908 -0.1647
 5380SOL    MW421288   2.963   6.396   4.758  0.1620 -0.2495  0.0103
 5381SOL     OW21289   4.896   4.553   2.910 -0.5785  0.2325 -0.1564
 5381SOL    HW221290   4.979   4.590   2.878 -1.7420  1.6036 -1.7174
 5381SOL    HW321291   4.911   4.458   2.908  1.5001  0.4497  1.2075
 5381SOL    MW421292   4.909   4.545   2.906  0.8404 -0.9201 -0.6150
 5382SOL     OW21293   0.828   4.628   2.228  0.1062  0.2956  0.1463
 5382SOL    HW221294   0.860   4.550   2.182 -1.2329 -1.7230  2.4237
 5382SOL    HW321295   0.892   4.644   2.297 -0.2092  0.5543  0.3837
 5382SOL    MW421296   0.841   4.620   2.231  0.4132  0.2344  0.2323
 5383SOL     OW21297   4.676   5.137   4.947  0.3711  0.4293 -0.5027
 5383SOL    HW221298   4.720   5.222   4.940  0.4674  0.4779  0.6129
 5383SOL    HW321299   4.704   5.102   5.032 -1.3071  0.2171 -0.0071
 5383SOL    MW421300   4.685   5.144   4.957  0.4160  0.3867  0.0258
 5384SOL     OW21301   2.652   2.183   0.816  0.3684  0.3200  0.9394
 5384SOL    HW221302   2.682   2.270   0.790  2.0921  0.3954  2.8357
 5384SOL    HW321303   2.703   2.123   0.761 -2.0875  0.3955 -1.6366
 5384SOL    MW421304   2.663   2.187   0.805 -0.3450 -0.5814  0.0389
 5385SOL     OW21305   1.975   4.918   1.786  0.2621  0.2094  0.0561
 5385SOL    HW221306   2.028   4.994   1.809  0.7996  0.2057 -1.1243
 5385SOL    HW321307   1.915   4.949   1.719  1.2004 -0.6210 -1.2270
 5385SOL    MW421308   1.975   4.932   1.780  0.4897  1.0343  0.1927
 5386SOL     OW21309   4.040   1.677   1.035 -0.1399  0.0073  0.1760
 5386SOL    HW221310   4.125   1.658   0.996 -0.7411 -1.6553 -0.4256
 5386SOL    HW321311   4.030   1.772   1.026  0.6144 -0.0548 -1.9518
 5386SOL    MW421312   4.050   1.687   1.028 -0.1993 -0.8453 -0.0753
 5387SOL     OW21313   2.729   4.098   2.749  0.0212  0.2691  0.3753
 5387SOL    HW221314   2.667   4.170   2.733  0.0467  0.1493 -0.2825
 5387SOL    HW321315   2.733   4.091   2.845  1.0592  2.0456  0.5132
 5387SOL    MW421316   2.721   4.107   2.760 -0.0172  0.6180  0.8386
 5388SOL     OW21317   4.772   1.037   3.231  0.6013  0.3982 -0.7301
 5388SOL    HW221318   4.799   0.965   3.174 -0.9186  0.8206 -2.0742
 5388SOL    HW321319   4.735   1.102   3.171  0.3045  1.5267  0.6198
 5388SOL    MW421320   4.771   1.036   3.215 -0.6144 -0.2637 -0.0194
 5389SOL     OW21321   0.275   4.148   2.058  0.0427 -0.0630 -0.5470
 5389SOL    HW221322   0.223   4.083   2.011 -0.8732 -0.7125  1.2527
 5389SOL    HW321323   0.239   4.232   2.029 -0.6738 -0.4479 -0.8116
 5389SOL    MW421324   0.263   4.151   2.048 -0.1210 -0.9585  0.2343
 5390SOL     OW21325   6.229   2.071   4.476 -0.3554  0.1519 -0.3960
 5390SOL    HW221326   6.295   2.039   4.537 -0.5949 -0.5276 -0.4907
 5390SOL    HW321327   6.227   2.006   4.406  1.9964  2.2968 -2.7157
 5390SOL    MW421328   6.238   2.058   4.475  0.0905 -0.0120 -0.4038
 5391SOL     OW21329   0.386   1.786   0.173  0.4445  0.3645 -0.0076
 5391SOL    HW221330   0.299   1.824   0.174  0.0020 -0.6239  0.3970
 5391SOL    HW321331   0.400   1.755   0.262  0.4979 -1.0133 -0.4694
 5391SOL    MW421332   0.377   1.787   0.185 -0.1686 -0.0239 -0.1066
 5392SOL     OW21333   4.095   2.411   4.743 -0.0402 -0.2941  0.2618
 5392SOL    HW221334   4.073   2.503   4.757 -1.2116 -0.7745  1.8125
 5392SOL    HW321335   4.015   2.363   4.763  0.3805 -1.6463 -1.0660
 5392SOL    MW421336   4.081   2.417   4.748 -0.0943 -0.0889  0.2010
 5393SOL     OW21337   2.091   1.493   4.270  0.2066 -0.1038  0.0013
 5393SOL    HW221338   2.179   1.471   4.303  0.0123 -0.7773  0.0797
 5393SOL    HW321339   2.032   1.441   4.325 -0.3407  1.4120  0.8976
 5393SOL    MW421340   2.095   1.483   4.282  0.2477  0.3120 -0.5046
 5394SOL     OW21341   1.777   1.906   4.614  0.0159 -0.7435 -0.4813
 5394SOL    HW221342   1.741   1.830   4.568 -1.8068 -0.4156  0.3060
 5394SOL    HW321343   1.828   1.869   4.686 -2.5766 -1.3206  1.1854
 5394SOL    MW421344   1.779   1.891   4.617 -0.7895  0.1444 -0.4346
 5395SOL     OW21345   1.268   0.840   2.334 -0.1610  0.5033 -0.1898
 5395SOL    HW221346   1.197   0.863   2.274  0.4410  0.1042 -1.0842
 5395SOL    HW321347   1.257   0.746   2.349 -1.0752  0.8210  1.3903
 5395SOL    MW421348   1.257   0.831   2.328  0.3415 -0.1044  0.1792
 5396SOL     OW21349   4.907   2.454   6.318 -0.5175  0.1110  0.3448
 5396SOL    HW221350   4.933   2.474   6.408 -0.9181 -0.3578  0.5697
 5396SOL    HW321351   4.875   2.364   6.322 -0.0514 -0.0866 -0.3737
 5396SOL    MW421352   4.906   2.445   6.331 -0.3431 -0.4404 -0.0031
 5397SOL     OW21353   0.226   5.200   3.826 -0.0750  0.0886  0.4652
 5397SOL    HW221354   0.162   5.164   3.888  0.4254 -1.9496 -0.1246
 5397SOL    HW321355   0.303   5.144   3.836  1.2370  1.7673  0.3290
 5397SOL    MW421356   0.228   5.188   3.836  0.1641 -0.1497  0.1057
 5398SOL     OW21357   4.901   4.939   2.429 -0.4688  0.0639  0.5748
 5398SOL    HW221358   4.863   5.011   2.479 -1.3985 -0.0580  0.0773
 5398SOL    HW321359   4.935   4.979   2.349 -4.6685 -0.4191 -1.7369
 5398SOL    MW421360   4.900   4.953   2.425 -0.1548 -0.4587 -0.8259
 5399SOL     OW21361   4.229   6.233   4.587 -0.2634 -0.1551  0.3408
 5399SOL    HW221362   4.248   6.147   4.625  0.2626 -0.7221 -1.1331
 5399SOL    HW321363   4.296   6.291   4.623 -0.2942 -0.4787  0.9276
 5399SOL    MW421364   4.240   6.229   4.596 -0.3590 -0.2895 -0.5377
 5400SOL     OW21365   6.287   5.393   4.593  0.6647  0.6752 -0.0963
 5400SOL    HW221366   6.231   5.410   4.518  1.1818  1.9890 -0.2157
 5400SOL    HW321367   6.233   5.414   4.669  0.0789 -0.8377 -0.0699
 5400SOL    MW421368   6.273   5.398   4.593 -0.2271 -0.0439  0.5013
 5401SOL     OW21369   3.546   5.800   5.322  0.6446  0.4936 -0.5085
 5401SOL    HW221370   3.538   5.895   5.322 -0.3634  0.4793  2.1844
 5401SOL    HW321371   3.617   5.781   5.383  1.4313 -0.4981 -1.6816
 5401SOL    MW421372   3.554   5.810   5.330 -0.4552  0.6004 -0.0199
 5402SOL     OW21373   0.387   2.005   6.317  0.3668 -0.5519 -0.2342
 5402SOL    HW221374   0.459   1.973   6.371  1.0846 -1.6873 -1.8139
 5402SOL    HW321375   0.378   2.097   6.342  0.9938 -0.9162  1.4512
 5402SOL    MW421376   0.395   2.013   6.328  0.1294 -0.2900 -0.5324
 5403SOL     OW21377   0.931   2.925   6.272  0.4562  0.4228  0.0382
 5403SOL    HW221378   0.977   2.930   6.188  0.2707 -0.8918 -0.1722
 5403SOL    HW321379   0.849   2.878   6.251 -0.1043  1.0681  0.7481
 5403SOL    MW421380   0.926   2.919   6.258  0.0155 -0.4632  0.8053
 5404SOL     OW21381   5.563   0.442   3.462  0.3397 -0.1128 -0.8525
 5404SOL    HW221382   5.589   0.371   3.403  1.7824 -0.5049  0.2136
 5404SOL    HW321383   5.581   0.408   3.550 -0.9913  0.7756 -0.2001
 5404SOL    MW421384   5.569   0.428   3.466 -0.9978  0.2835  0.1535
 5405SOL     OW21385   3.838   0.622   2.405  0.2284  0.0671 -0.3544
 5405SOL    HW221386   3.888   0.673   2.342  0.2692 -1.2821 -1.4715
 5405SOL    HW321387   3.833   0.534   2.367 -1.0900 -0.4055  0.7886
 5405SOL    MW421388   3.844   0.617   2.392 -0.4053 -0.2637  0.0373
 5406SOL     OW21389   1.363   4.114   4.810 -0.3679 -0.2022 -0.2142
 5406SOL    HW221390   1.343   4.193   4.760  0.9530  1.1025  1.2060
 5406SOL    HW321391   1.391   4.146   4.896  3.9319 -1.9013 -0.7265
 5406SOL    MW421392   1.364   4.129   4.815  0.3029 -0.4591  0.3692
 5407SOL     OW21393   3.649   1.929   1.914  0.4868  0.5467 -0.3360
 5407SOL    HW221394   3.690   1.844   1.899 -1.2700 -0.1080 -1.9126
 5407SOL    HW321395   3.662   1.947   2.007  0.5987 -1.6262  0.1123
 5407SOL    MW421396   3.656   1.920   1.924  0.1457  0.3450  0.3138
 5408SOL     OW21397   5.498   3.138   6.120  0.0769  0.4007 -0.5288
 5408SOL    HW221398   5.443   3.065   6.149  1.1852  0.1141  0.9596
 5408SOL    HW321399   5.540   3.107   6.040 -0.2547 -0.1954 -0.4758
 5408SOL    MW421400   5.496   3.125   6.113  0.1433  0.3630 -0.1780
 5409SOL     OW21401   5.624   6.133   1.645  0.0298  0.0671 -0.2065
 5409SOL    HW221402   5.692   6.069   1.626 -0.1001 -0.4121  0.8607
 5409SOL    HW321403   5.668   6.218   1.641  0.2289 -0.0891 -1.5180
 5409SOL    MW421404   5.639   6.136   1.642  0.6658  0.0342  0.1302
 5410SOL     OW21405   6.074   6.172   2.826 -0.1311  0.4398 -0.4534
 5410SOL    HW221406   6.125   6.154   2.905 -0.3879 -0.5727 -0.5060
 5410SOL    HW321407   5.983   6.176   2.856 -0.0832  1.7867 -0.4332
 5410SOL    MW421408   6.069   6.170   2.841  0.0737  0.4472  0.3560
 5411SOL     OW21409   4.196   2.893   5.159  0.0754 -0.8266  0.0203
 5411SOL    HW221410   4.276   2.891   5.210 -2.2403 -1.3421  4.0598
 5411SOL    HW321411   4.165   2.803   5.158 -2.0725 -0.1816  1.5696
 5411SOL    MW421412   4.202   2.881   5.165 -0.5076  0.1085 -0.3613
 5412SOL     OW21413   2.024   5.846   2.574 -0.0668 -0.4542  0.4462
 5412SOL    HW221414   2.038   5.758   2.608  0.5625 -0.3977  0.3547
 5412SOL    HW321415   2.094   5.898   2.613 -0.5064  0.0335  0.5939
 5412SOL    MW421416   2.036   5.841   2.583  0.4006  0.7125  0.7548
 5413SOL     OW21417   4.064   0.836   6.314  0.0791  0.1036  0.6582
 5413SOL    HW221418   4.021   0.773   6.372 -0.3625  1.9444  2.4187
 5413SOL    HW321419   4.145   0.859   6.358  0.3805  0.5389 -0.1036
 5413SOL    MW421420   4.069   0.831   6.327 -0.2985  0.3512  0.1416
 5414SOL     OW21421   2.938   5.900   1.661  0.6811 -0.3227  0.1581
 5414SOL    HW221422   2.948   5.943   1.576  1.3569 -2.0696 -0.6949
 5414SOL    HW321423   3.027   5.880   1.689  0.4077 -3.4135 -0.7449
 5414SOL    MW421424   2.951   5.903   1.654 -0.1257 -0.1587 -0.0778
 5415SOL     OW21425   1.347   5.670   3.295 -0.1700  0.1557 -0.0451
 5415SOL    HW221426   1.365   5.618   3.217 -0.5318 -1.4708  0.8997
 5415SOL    HW321427   1.285   5.737   3.266 -0.7889 -0.8153 -1.0312
 5415SOL    MW421428   1.341   5.672   3.281 -0.3407 -0.7986 -0.2417
 5416SOL     OW21429   0.876   0.764   5.481  0.2486 -0.0985 -0.5157
 5416SOL    HW221430   0.955   0.769   5.427  0.3550 -0.6193 -0.4115
 5416SOL    HW321431   0.850   0.855   5.493  2.7251  0.4152  2.2053
 5416SOL    MW421432   0.883   0.777   5.475  0.8478  0.0534  0.6441
 5417SOL     OW21433   1.693   6.003   0.600  0.3362 -0.2976 -0.2515
 5417SOL    HW221434   1.631   6.037   0.665 -0.3833 -1.9606 -0.0283
 5417SOL    HW321435   1.643   5.939   0.550  1.0152  0.5978 -2.1669
 5417SOL    MW421436   1.678   5.999   0.602 -0.3380 -0.0375  0.0318
 5418SOL     OW21437   1.171   5.132   5.788  0.1242  0.3256  0.1138
 5418SOL    HW221438   1.116   5.055   5.795 -0.6356  0.8862  0.4106
 5418SOL    HW321439   1.184   5.144   5.694 -1.4286  0.9869 -0.0463
 5418SOL    MW421440   1.166   5.124   5.776 -0.5960  0.0163 -0.1886
 5419SOL     OW21441   5.770   5.398   2.213 -0.8417  0.5438  0.1763
 5419SOL    HW221442   5.679   5.405   2.185 -0.7238 -1.7791 -0.9404
 5419SOL    HW321443   5.776   5.314   2.257  0.6096  1.0194  0.9747
 5419SOL    MW421444   5.759   5.388   2.215 -0.3157 -0.2260 -0.1603
 5420SOL     OW21445   1.736   5.553   2.364 -0.3579  0.7398  0.3165
 5420SOL    HW221446   1.796   5.480   2.352 -1.3048  0.0863 -0.6211
 5420SOL    HW321447   1.789   5.631   2.345  0.5150  0.2695  0.7895
 5420SOL    MW421448   1.751   5.554   2.360 -0.8282  0.8582  0.1606
 5421SOL     OW21449   2.907   5.728   6.041  0.1077  0.4198 -0.4550
 5421SOL    HW221450   2.849   5.771   6.104 -1.2906 -1.3939 -0.4088
 5421SOL    HW321451   2.978   5.691   6.094 -0.5463 -0.2687 -0.0409
 5421SOL    MW421452   2.909   5.729   6.056  0.3144 -0.2316  0.4622
 5422SOL     OW21453   1.059   0.274   4.204  0.3327  0.1528  0.1786
 5422SOL    HW221454   1.152   0.293   4.210 -0.0101  1.5238  1.7979
 5422SOL    HW321455   1.019   0.358   4.180 -0.5548 -0.2437  0.2398
 5422SOL    MW421456   1.066   0.288   4.202  0.2660  0.2538  0.1207
 5423SOL     OW21457   6.314   4.295   5.086  0.7068  0.3731  0.4017
 5423SOL    HW221458   6.298   4.238   5.161  0.2022 -1.1990 -0.8415
 5423SOL    HW321459   6.338   4.236   5.015 -0.1082  1.6799 -1.0345
 5423SOL    MW421460   6.315   4.280   5.087 -0.6817 -0.4147  0.2938
 5424SOL     OW21461   1.288   5.650   4.937 -0.0526 -0.2113  0.4026
 5424SOL    HW221462   1.370   5.675   4.895  0.2919  1.2463  1.8517
 5424SOL    HW321463   1.272   5.718   5.002 -2.7413 -0.1164 -0.2355
 5424SOL    MW421464   1.296   5.662   4.940 -0.0592 -0.3729  0.3469
 5425SOL     OW21465   4.774   1.783   0.974  0.3505  0.1559 -0.4157
 5425SOL    HW221466   4.711   1.740   1.031 -0.5761 -0.2219 -1.6881
 5425SOL    HW321467   4.836   1.825   1.034  1.4545 -3.0851  0.9101
 5425SOL    MW421468   4.774   1.783   0.990 -0.1101  0.0926 -0.4553
 5426SOL     OW21469   3.322   0.708   2.085 -0.4735  0.4281 -0.0454
 5426SOL    HW221470   3.369   0.668   2.012 -0.2105  1.0804 -0.2364
 5426SOL    HW321471   3.282   0.634   2.131 -0.5255 -0.0002 -0.7658
 5426SOL    MW421472   3.323   0.693   2.082  0.0397 -0.1459 -0.0920
 5427SOL     OW21473   4.429   4.488   5.623  0.1041  0.9607 -0.5571
 5427SOL    HW221474   4.370   4.415   5.611 -0.0363  0.4746  2.2644
 5427SOL    HW321475   4.388   4.542   5.691  2.0711  1.4767  0.3201
 5427SOL    MW421476   4.416   4.486   5.631 -0.4653  0.3607  0.3898
 5428SOL     OW21477   2.711   1.231   2.946 -0.7231 -0.2290 -0.0533
 5428SOL    HW221478   2.767   1.204   2.874 -1.2397  0.9454 -0.9423
 5428SOL    HW321479   2.762   1.298   2.993 -1.3634  0.9137 -0.9229
 5428SOL    MW421480   2.725   1.236   2.943 -0.0065 -0.5361 -0.2430
 5429SOL     OW21481   5.238   3.751   5.198 -0.1093 -0.2867  0.1252
 5429SOL    HW221482   5.190   3.821   5.243  1.0046  0.7331 -0.1993
 5429SOL    HW321483   5.328   3.759   5.231  0.4140 -0.4604 -1.1864
 5429SOL    MW421484   5.244   3.761   5.208 -0.2365  0.0890 -0.2917
 5430SOL     OW21485   1.836   6.073   2.173 -0.5631 -0.1418 -0.0278
 5430SOL    HW221486   1.834   6.099   2.081 -0.6192 -0.3866 -0.0963
 5430SOL    HW321487   1.929   6.064   2.194 -0.5705 -0.7991 -0.2644
 5430SOL    MW421488   1.848   6.076   2.164  0.3333 -0.2640  0.0641
 5431SOL     OW21489   1.214   3.826   1.253  0.2278  0.0760  0.2398
 5431SOL    HW221490   1.202   3.856   1.163 -0.3488  2.3955  1.0259
 5431SOL    HW321491   1.307   3.805   1.259  0.9481  2.7946 -0.1461
 5431SOL    MW421492   1.225   3.827   1.242 -0.2457 -0.2436  0.1899
 5432SOL     OW21493   5.282   6.035   4.069 -0.8177 -0.2641  0.0303
 5432SOL    HW221494   5.196   6.061   4.036 -0.9084 -0.9064 -0.2708
 5432SOL    HW321495   5.277   5.939   4.074 -0.1988 -0.2888  0.2304
 5432SOL    MW421496   5.270   6.026   4.065  0.0452  0.3206 -0.1302
 5433SOL     OW21497   3.653   3.703   5.046 -0.6091  1.0744  0.2934
 5433SOL    HW221498   3.680   3.612   5.038 -1.8098  0.8299 -2.1274
 5433SOL    HW321499   3.721   3.745   5.098 -0.5770 -1.3873  2.3745
 5433SOL    MW421500   3.665   3.697   5.051 -0.5514 -0.2611 -0.4329
 5434SOL     OW21501   4.158   0.676   3.144 -0.5490 -0.5731 -0.3800
 5434SOL    HW221502   4.134   0.608   3.206 -0.1500 -0.6988 -0.3636
 5434SOL    HW321503   4.074   0.716   3.119 -0.6999 -0.4635  0.2982
 5434SOL    MW421504   4.144   0.672   3.149  0.0664  0.0348 -0.1015
 5435SOL     OW21505   3.468   3.401   6.173  0.6595 -0.2118  0.6396
 5435SOL    HW221506   3.400   3.376   6.235  0.9556  0.4591  1.2394
 5435SOL    HW321507   3.549   3.405   6.225  1.3678 -1.9242 -0.2318
 5435SOL    MW421508   3.470   3.398   6.188 -0.1375 -0.0385  0.6621
 5436SOL     OW21509   0.999   0.933   0.921 -0.0244 -0.5387 -0.6567
 5436SOL    HW221510   0.987   1.027   0.904  1.2867 -0.2564 -0.1828
 5436SOL    HW321511   1.041   0.900   0.841 -0.6375 -0.7586 -0.8888
 5436SOL    MW421512   1.003   0.941   0.908  0.8318 -0.1075  0.0497
 5437SOL     OW21513   2.243   5.705   3.389  0.6829  0.3093 -0.3062
 5437SOL    HW221514   2.221   5.790   3.428  0.8836  0.6781 -0.9944
 5437SOL    HW321515   2.293   5.660   3.458  0.5039  0.7100  0.0929
 5437SOL    MW421516   2.246   5.711   3.403 -0.2554  0.2853 -0.1527
 5438SOL     OW21517   5.965   0.118   0.820  0.2381 -0.0107  0.0431
 5438SOL    HW221518   5.980   0.044   0.879  0.0377  1.4022  1.9713
 5438SOL    HW321519   6.025   0.186   0.851 -1.9889  1.8336  0.6902
 5438SOL    MW421520   5.975   0.117   0.832 -0.2647  0.0039 -0.7045
 5439SOL     OW21521   3.986   3.210   4.203  0.0510  0.2740  0.7736
 5439SOL    HW221522   3.973   3.167   4.288 -3.4625  0.6647  0.5956
 5439SOL    HW321523   3.926   3.284   4.204  0.0440  0.4129 -1.9648
 5439SOL    MW421524   3.976   3.214   4.214  0.2569 -0.4404 -0.4314
 5440SOL     OW21525   5.118   4.709   0.729 -0.4136  0.2968 -0.6114
 5440SOL    HW221526   5.042   4.661   0.697  0.6808 -0.3552 -2.3357
 5440SOL    HW321527   5.143   4.766   0.657 -0.3340  1.8580  0.6051
 5440SOL    MW421528   5.111   4.710   0.716 -0.0813 -0.2677 -0.0916
 5441SOL     OW21529   5.521   4.560   0.204  0.1459  0.4051  0.0746
 5441SOL    HW221530   5.565   4.479   0.179 -0.2010  0.2667 -0.1009
 5441SOL    HW321531   5.434   4.553   0.165  0.7066  1.6724 -1.5570
 5441SOL    MW421532   5.515   4.548   0.195  0.3452  0.0114  0.5804
 5442SOL     OW21533   5.968   0.791   5.591  0.6833  0.2486 -0.0656
 5442SOL    HW221534   5.974   0.778   5.496  0.5021 -0.7642  0.0541
 5442SOL    HW321535   5.884   0.836   5.603  0.4417 -0.1222 -0.3376
 5442SOL    MW421536   5.957   0.795   5.580  0.1694 -0.1541 -1.0914
 5443SOL     OW21537   4.258   6.391   3.250 -0.2374 -0.0111  0.7653
 5443SOL    HW221538   4.354   6.384   3.251 -0.0766  1.0944 -1.2825
 5443SOL    HW321539   4.239   6.468   3.304 -0.0203 -0.4685  1.5067
 5443SOL    MW421540   4.268   6.400   3.257  0.0857  0.2790 -0.0412
 5444SOL     OW21541   5.484   5.690   1.701 -0.5288  0.0969 -0.1129
 5444SOL    HW221542   5.528   5.697   1.785  0.1527  1.5923 -0.5619
 5444SOL    HW321543   5.427   5.614   1.710  0.0691 -0.1982  1.4412
 5444SOL    MW421544   5.482   5.681   1.713  0.1882 -0.3756  0.1730
 5445SOL     OW21545   6.257   5.394   2.747  0.3460 -0.3332 -0.0014
 5445SOL    HW221546   6.189   5.341   2.789  0.2091  0.1502  0.3982
 5445SOL    HW321547   6.320   5.330   2.713  0.6833 -0.7386  1.3126
 5445SOL    MW421548   6.256   5.378   2.748 -0.3029  0.7001  0.0372
 5446SOL     OW21549   1.329   1.768   5.537  0.2834 -0.4429 -0.1329
 5446SOL    HW221550   1.246   1.753   5.582 -0.3078  0.7964 -0.7538
 5446SOL    HW321551   1.323   1.858   5.506  1.7574 -0.4251 -0.4328
 5446SOL    MW421552   1.318   1.778   5.539 -0.0883  0.1728 -0.3193
 5447SOL     OW21553   6.424   2.945   5.017 -0.0457  0.1975 -0.2099
 5447SOL    HW221554   6.383   2.931   5.102  1.1422 -0.0095  0.3551
 5447SOL    HW321555   6.367   3.008   4.973 -0.9234 -0.0332  0.5530
 5447SOL    MW421556   6.411   2.951   5.022 -0.3979  0.4597  0.1645
 5448SOL     OW21557   2.735   0.285   2.187  0.0208 -0.2509 -0.0526
 5448SOL    HW221558   2.792   0.240   2.124  0.6852  0.6084 -0.0909
 5448SOL    HW321559   2.657   0.230   2.193  0.6361 -1.1789 -0.4026
 5448SOL    MW421560   2.732   0.272   2.179 -0.2654 -0.0093  0.0091
 5449SOL     OW21561   4.635   4.638   2.849 -0.0769  0.1988  0.2688
 5449SOL    HW221562   4.719   4.598   2.872 -0.7467 -0.5838  1.4565
 5449SOL    HW321563   4.622   4.705   2.916 -0.6502 -0.0502  0.4090
 5449SOL    MW421564   4.645   4.642   2.861  0.3628 -0.1600 -0.1138
 5450SOL     OW21565   5.970   2.196   2.009  0.4635 -0.2072 -0.3369
 5450SOL    HW221566   6.057   2.166   1.985  0.9723 -1.1579  2.3971
 5450SOL    HW321567   5.918   2.116   2.014  0.3970 -0.0766  1.5827
 5450SOL    MW421568   5.974   2.182   2.006 -0.2197 -0.0872 -0.0092
 5451SOL     OW21569   5.786   3.690   0.474 -0.0020  0.3175 -0.1459
 5451SOL    HW221570   5.866   3.722   0.516  0.5489 -1.0176 -0.0982
 5451SOL    HW321571   5.723   3.761   0.483  0.1248  0.2116  2.8697
 5451SOL    MW421572   5.788   3.703   0.481  0.5572  0.4009  0.7155
 5452SOL     OW21573   1.106   6.229   5.558 -0.2592  0.6117  0.1372
 5452SOL    HW221574   1.048   6.157   5.534  0.2063 -0.5034  2.0870
 5452SOL    HW321575   1.047   6.299   5.585 -0.7376  0.0038  0.7154
 5452SOL    MW421576   1.090   6.229   5.559 -0.2795  0.1929  0.2582
 5453SOL     OW21577   6.169   4.715   5.547  0.8851  0.0506 -0.5608
 5453SOL    HW221578   6.235   4.783   5.563  0.2858  0.6492 -0.6000
 5453SOL    HW321579   6.130   4.739   5.463  0.9105 -0.5464 -0.7458
 5453SOL    MW421580   6.173   4.727   5.538 -0.3088 -0.2390  0.1391
 5454SOL     OW21581   4.787   6.233   1.718  0.3432 -0.4681 -0.0011
 5454SOL    HW221582   4.702   6.205   1.682  1.2338 -2.0428 -1.0104
 5454SOL    HW321583   4.839   6.255   1.641  1.0534 -0.1052  0.5708
 5454SOL    MW421584   4.782   6.232   1.703 -0.0078 -0.1862  0.1787
 5455SOL     OW21585   4.008   1.867   5.781  0.0961 -0.7366 -0.3550
 5455SOL    HW221586   3.940   1.922   5.820  0.3540 -0.4574 -0.2970
 5455SOL    HW321587   3.974   1.846   5.694  1.0009  1.4580 -1.3158
 5455SOL    MW421588   3.994   1.872   5.774 -0.3346  0.2224  0.5355
 5456SOL     OW21589   2.204   0.978   6.176 -0.1069  0.3881 -0.2244
 5456SOL    HW221590   2.126   0.955   6.124 -0.8962  2.9557 -0.3240
 5456SOL    HW321591   2.270   1.002   6.111 -0.7367  2.5122 -0.1717
 5456SOL    MW421592   2.202   0.978   6.161 -0.7477  1.2306  0.3345
 5457SOL     OW21593   5.392   5.299   4.651 -0.3388  0.0660  0.1400
 5457SOL    HW221594   5.439   5.315   4.569 -0.7846  3.1812  0.3440
 5457SOL    HW321595   5.309   5.346   4.641 -1.1553 -0.9215  1.7472
 5457SOL    MW421596   5.387   5.308   4.639 -0.3135  0.0210 -0.2493
 5458SOL     OW21597   6.086   6.109   5.019 -0.6380 -0.6487  0.3293
 5458SOL    HW221598   6.116   6.022   5.045 -1.8717 -0.5780  2.1674
 5458SOL    HW321599   6.007   6.094   4.968  0.1351 -0.6570 -0.8936
 5458SOL    MW421600   6.080   6.096   5.016  0.7674 -0.6476  1.0419
 5459SOL     OW21601   2.779   1.970   0.600 -0.2117 -0.0765 -0.2123
 5459SOL    HW221602   2.849   1.985   0.536 -0.5841  1.0791 -0.3701
 5459SOL    HW321603   2.819   1.916   0.667  0.1577 -1.4287 -1.4760
 5459SOL    MW421604   2.794   1.965   0.600  0.2880 -0.3387  0.2169
 5460SOL     OW21605   4.760   5.092   4.687 -0.0341  0.0888 -0.7881
 5460SOL    HW221606   4.684   5.075   4.630 -0.3351 -0.9970 -0.0939
 5460SOL    HW321607   4.722   5.128   4.767  0.3650  1.3279 -1.1290
 5460SOL    MW421608   4.745   5.095   4.690 -0.3287 -0.3324 -0.2280
 5461SOL     OW21609   3.092   4.010   5.830 -0.5608  0.0466 -0.0725
 5461SOL    HW221610   3.061   4.074   5.766  3.0069  4.0570  1.6981
 5461SOL    HW321611   3.170   3.972   5.789 -0.9463 -0.9779  0.1110
 5461SOL    MW421612   3.099   4.014   5.816 -0.2450 -0.3104  0.2644
 5462SOL     OW21613   0.857   2.532   4.703  0.4073 -0.0050 -0.2632
 5462SOL    HW221614   0.918   2.459   4.713 -1.3275 -1.2367  2.3916
 5462SOL    HW321615   0.840   2.536   4.609  1.7633 -1.9763 -0.6445
 5462SOL    MW421616   0.863   2.523   4.692  0.2118  0.2582  0.3728
 5463SOL     OW21617   5.253   2.271   4.564  0.1738  0.1284  0.4635
 5463SOL    HW221618   5.187   2.244   4.627 -1.3695  1.4562 -0.5172
 5463SOL    HW321619   5.326   2.301   4.618 -0.6010  0.0414  1.6017
 5463SOL    MW421620   5.254   2.271   4.580 -0.0117 -0.0873  0.0450
 5464SOL     OW21621   0.123   4.741   0.013  0.1873  0.1178  0.1756
 5464SOL    HW221622   0.183   4.786  -0.046 -0.8223  0.2314 -0.7899
 5464SOL    HW321623   0.168   4.743   0.098  1.4291  0.4053 -0.4587
 5464SOL    MW421624   0.137   4.747   0.017  0.2960 -0.2593 -0.2128
 5465SOL     OW21625   6.332   0.565   3.400 -0.1453 -0.6101 -0.0303
 5465SOL    HW221626   6.263   0.631   3.393 -0.1494 -0.6548 -0.4304
 5465SOL    HW321627   6.341   0.549   3.494  0.4966  0.6357  0.1321
 5465SOL    MW421628   6.324   0.571   3.411  0.3816  0.3166  0.5343
 5466SOL     OW21629   5.098   5.074   5.455 -0.0683 -0.1133  0.0447
 5466SOL    HW221630   5.010   5.111   5.466 -0.0423 -0.1944  0.5148
 5466SOL    HW321631   5.144   5.139   5.401 -0.0368  0.5371  0.8367
 5466SOL    MW421632   5.092   5.088   5.449  0.2410 -0.5573 -0.1846
 5467SOL     OW21633   3.880   2.797   1.988  0.3450 -0.5129 -0.2308
 5467SOL    HW221634   3.838   2.795   2.074 -0.8618 -1.6913 -0.8183
 5467SOL    HW321635   3.876   2.889   1.962  1.2782 -0.0315  1.2035
 5467SOL    MW421636   3.874   2.809   1.996 -0.6462  0.8093  0.2026
 5468SOL     OW21637   1.499   5.152   4.232 -0.2200 -0.1235  0.1638
 5468SOL    HW221638   1.578   5.143   4.178 -0.1484  0.3606  0.1854
 5468SOL    HW321639   1.482   5.063   4.265 -0.3725 -0.4688 -0.8024
 5468SOL    MW421640   1.507   5.139   4.229 -0.2903 -0.4793  0.9205
 5469SOL     OW21641   0.760   4.035   3.212 -0.4561  0.2005  0.2107
 5469SOL    HW221642   0.682   4.074   3.172 -0.3039  1.2686  0.9045
 5469SOL    HW321643   0.770   4.082   3.295 -0.8218 -2.0212  1.5872
 5469SOL    MW421644   0.751   4.046   3.217  0.4989  0.2056  0.0672
 5470SOL     OW21645   5.059   6.108   3.921  0.2917  0.3040  0.2676
 5470SOL    HW221646   5.077   6.015   3.912  1.4350  0.5030  0.4016
 5470SOL    HW321647   5.111   6.150   3.853 -0.6302  0.8148 -0.1417
 5470SOL    MW421648   5.068   6.101   3.911 -0.1276 -0.7568  0.0765
 5471SOL     OW21649   5.795   4.567   6.030  0.1253 -0.1791 -0.0580
 5471SOL    HW221650   5.821   4.656   6.008  2.7161 -0.3667  1.7280
 5471SOL    HW321651   5.844   4.512   5.970  1.7005 -0.4447  1.3800
 5471SOL    MW421652   5.805   4.572   6.019  0.1419 -0.2301 -0.0968
 5472SOL     OW21653   0.313   5.955   1.367 -0.2696 -0.0499  0.1396
 5472SOL    HW221654   0.351   6.036   1.332 -0.3002  0.3488  0.9932
 5472SOL    HW321655   0.227   5.950   1.327  0.3501 -0.5161 -1.1664
 5472SOL    MW421656   0.307   5.965   1.357  0.3136 -0.0205 -0.0138
 5473SOL     OW21657   4.642   4.501   2.032 -0.0182  0.0949  0.2379
 5473SOL    HW221658   4.681   4.526   2.116  2.3472 -2.8860  0.1945
 5473SOL    HW321659   4.708   4.526   1.967 -0.7328  0.1547 -0.4691
 5473SOL    MW421660   4.656   4.508   2.034  0.2066  0.5060 -0.4674
 5474SOL     OW21661   2.381   5.363   2.255  0.4724  0.1771 -0.3079
 5474SOL    HW221662   2.468   5.401   2.258  1.1575 -1.0740 -2.1497
 5474SOL    HW321663   2.324   5.435   2.229  1.0940  0.8121  0.0676
 5474SOL    MW421664   2.385   5.378   2.252 -0.4134 -0.4200  0.7711
 5475SOL     OW21665   3.590   1.885   0.724  0.4712 -0.1685 -0.0104
 5475SOL    HW221666   3.638   1.827   0.665  2.9043 -0.2867  1.9155
 5475SOL    HW321667   3.499   1.860   0.713  1.1239 -2.1311 -1.5693
 5475SOL    MW421668   3.584   1.874   0.715  0.1421  0.5064  0.6534
 5476SOL     OW21669   3.216   2.276   0.743  0.1938  0.1325  0.4030
 5476SOL    HW221670   3.130   2.251   0.775  0.7989 -1.2295  1.0573
 5476SOL    HW321671   3.216   2.372   0.745 -1.3482  0.1540  0.2149
 5476SOL    MW421672   3.205   2.285   0.748  0.1697 -0.2804  0.0684
 5477SOL     OW21673   3.894   4.593   5.240 -0.0376  0.2717  0.2777
 5477SOL    HW221674   3.963   4.553   5.187 -0.1328  0.0002  0.3592
 5477SOL    HW321675   3.934   4.607   5.326  0.5548  1.9533 -0.2238
 5477SOL    MW421676   3.908   4.590   5.245 -0.3286 -0.5979  0.0605
 5478SOL     OW21677   5.151   6.068   0.008 -0.0365  0.2379 -0.1038
 5478SOL    HW221678   5.217   6.032   0.067 -0.7394 -1.1703 -0.1384
 5478SOL    HW321679   5.069   6.061   0.056 -0.6306 -0.9580 -1.2300
 5478SOL    MW421680   5.149   6.062   0.022 -0.1759 -0.5945 -0.1497
 5479SOL     OW21681   6.145   5.747   0.098  0.5840 -0.2578 -0.5771
 5479SOL    HW221682   6.129   5.753   0.004 -1.1594  0.9513 -0.2478
 5479SOL    HW321683   6.060   5.761   0.139  1.7220  2.4434  1.2478
 5479SOL    MW421684   6.132   5.750   0.091  0.3394 -0.1963  0.2567
 5480SOL     OW21685   1.494   4.205   5.350  0.6344 -0.7915 -0.2137
 5480SOL    HW221686   1.588   4.219   5.344  0.5800 -0.9797 -2.3201
 5480SOL    HW321687   1.484   4.137   5.416  1.9402 -0.5564  0.2586
 5480SOL    MW421688   1.505   4.198   5.358 -0.6965  0.0523 -0.4267
 5481SOL     OW21689   0.165   4.752   3.037  0.7364  0.3133 -0.1851
 5481SOL    HW221690   0.215   4.750   2.955 -1.1284 -2.0775 -1.4140
 5481SOL    HW321691   0.123   4.838   3.038 -1.7036 -0.6256 -3.5142
 5481SOL    MW421692   0.166   4.763   3.026  0.0994 -0.5130  0.0998
 5482SOL     OW21693   0.683   5.763   3.859 -0.1007  0.1726 -0.0971
 5482SOL    HW221694   0.630   5.719   3.925  0.6226  0.0012  0.3771
 5482SOL    HW321695   0.634   5.843   3.839 -2.6450 -1.8060 -2.6301
 5482SOL    MW421696   0.670   5.767   3.865  0.8004  0.0983 -0.5673
 5483SOL     OW21697   2.430   3.379   2.864 -0.1907  0.3643 -0.3621
 5483SOL    HW221698   2.495   3.335   2.809  0.3242 -0.9092  1.1852
 5483SOL    HW321699   2.347   3.361   2.821  0.3862  1.6483 -2.1348
 5483SOL    MW421700   2.428   3.371   2.851  0.1554 -0.2527 -0.0961
 5484SOL     OW21701   2.097   2.681   5.163 -0.1145 -0.3202 -0.0054
 5484SOL    HW221702   2.093   2.602   5.217  0.1640 -0.6612 -0.4787
 5484SOL    HW321703   2.068   2.652   5.076  1.3096 -0.2253 -0.5397
 5484SOL    MW421704   2.093   2.667   5.159 -0.1428 -0.7333 -0.3738
 5485SOL     OW21705   1.874   5.625   3.762 -0.4762  0.0361 -0.3510
 5485SOL    HW221706   1.933   5.689   3.801  0.6698  1.8164 -4.4346
 5485SOL    HW321707   1.786   5.656   3.785  0.0496 -0.3146  2.4180
 5485SOL    MW421708   1.870   5.637   3.770  0.0894  0.6192  0.0400
 5486SOL     OW21709   1.750   2.122   2.822  0.7265 -0.2499 -0.0245
 5486SOL    HW221710   1.688   2.062   2.863 -0.8971  1.1968 -0.2216
 5486SOL    HW321711   1.795   2.165   2.894  0.7429 -0.5526  0.1445
 5486SOL    MW421712   1.748   2.120   2.837 -0.3282 -0.4205 -0.1409
 5487SOL     OW21713   0.021   2.468   5.233  0.0616 -0.1623 -0.1356
 5487SOL    HW221714   0.064   2.493   5.151  1.0665 -0.4326  0.3055
 5487SOL    HW321715   0.065   2.388   5.261  0.6537  0.6271  1.3434
 5487SOL    MW421716   0.032   2.461   5.226  0.0137  0.3562  1.2767
 5488SOL     OW21717   4.670   2.721   5.290 -0.1490  0.2200  0.4569
 5488SOL    HW221718   4.729   2.794   5.307 -0.6913  0.6670  0.4434
 5488SOL    HW321719   4.625   2.706   5.374  0.1950 -0.3101  0.5478
 5488SOL    MW421720   4.672   2.729   5.303 -0.0567 -0.1376 -0.0859
 5489SOL     OW21721   1.020   5.440   4.126  0.2776  0.1446 -0.1057
 5489SOL    HW221722   0.964   5.503   4.172  0.7006 -0.1633  0.8447
 5489SOL    HW321723   1.109   5.468   4.146  0.4791 -0.9595  0.6386
 5489SOL    MW421724   1.024   5.452   4.135 -0.3040  0.3788 -0.0584
 5490SOL     OW21725   1.388   2.884   3.082 -0.0725  0.2401  0.0654
 5490SOL    HW221726   1.297   2.905   3.099  0.1111  0.6291  0.5764
 5490SOL    HW321727   1.437   2.934   3.146  0.4346 -0.8758  0.5727
 5490SOL    MW421728   1.383   2.893   3.092  0.6234  0.4486  0.4124
 5491SOL     OW21729   4.702   0.272   5.700  0.1194 -0.1792 -0.2261
 5491SOL    HW221730   4.689   0.308   5.788 -0.4363  0.7085 -0.6533
 5491SOL    HW321731   4.789   0.302   5.674  0.1330 -0.1283 -0.1226
 5491SOL    MW421732   4.712   0.281   5.708 -0.0117  0.7187  0.2878
 5492SOL     OW21733   4.383   6.074   5.878  0.3741 -0.2888 -0.3716
 5492SOL    HW221734   4.397   5.988   5.839 -0.2133  0.2003 -1.7220
 5492SOL    HW321735   4.415   6.065   5.968  2.0200 -1.3757 -1.0152
 5492SOL    MW421736   4.389   6.061   5.885  0.4462  0.3107  0.0238
 5493SOL     OW21737   3.889   3.293   5.225  0.1082  0.1876 -0.3573
 5493SOL    HW221738   3.855   3.255   5.306 -0.5321  0.5185 -0.4604
 5493SOL    HW321739   3.938   3.221   5.184 -0.2774 -0.2405 -0.0881
 5493SOL    MW421740   3.891   3.278   5.230 -0.2443 -0.2894  0.1436
 5494SOL     OW21741   1.897   3.873   1.061 -0.0445 -0.7991  0.0063
 5494SOL    HW221742   1.891   3.790   1.014  0.0509  0.4404 -2.3292
 5494SOL    HW321743   1.840   3.932   1.012 -0.5444  0.4084  1.9327
 5494SOL    MW421744   1.888   3.870   1.049 -0.2432  0.2855  0.2814
 5495SOL     OW21745   2.977   1.526   6.422  0.0799 -0.1191 -0.3491
 5495SOL    HW221746   2.895   1.537   6.469  1.4850 -1.5409  2.7566
 5495SOL    HW321747   3.006   1.615   6.403 -1.4418  0.4520 -0.0895
 5495SOL    MW421748   2.970   1.539   6.426  0.2517 -0.2143  0.1146
 5496SOL     OW21749   1.665   0.394   5.413 -0.4062 -0.3141 -0.5366
 5496SOL    HW221750   1.609   0.471   5.399  0.4851  0.7851  1.4393
 5496SOL    HW321751   1.612   0.335   5.466 -0.3334 -0.0351 -0.1411
 5496SOL    MW421752   1.650   0.397   5.418 -0.0170  0.1169 -0.2748
 5497SOL     OW21753   0.669   1.516   1.769  0.4475 -0.5431 -0.2460
 5497SOL    HW221754   0.644   1.599   1.809 -2.4803 -0.0496 -2.6342
 5497SOL    HW321755   0.726   1.540   1.696  0.5654 -0.7420 -0.2202
 5497SOL    MW421756   0.673   1.530   1.764  0.4144 -0.2857  0.4778
 5498SOL     OW21757   3.184   0.049   5.422 -0.7801 -0.2252  0.1157
 5498SOL    HW221758   3.234   0.129   5.438  0.0311 -0.7540  0.2122
 5498SOL    HW321759   3.231   0.005   5.351 -1.5359 -0.3585 -0.3195
 5498SOL    MW421760   3.197   0.054   5.415 -0.3976 -0.3634  0.2901
 5499SOL     OW21761   3.978   2.303   3.467  0.3284 -0.0803  0.2215
 5499SOL    HW221762   3.973   2.288   3.561  0.7918  0.6915  0.3759
 5499SOL    HW321763   4.047   2.244   3.437 -1.0274 -1.6641  0.0515
 5499SOL    MW421764   3.986   2.293   3.475  0.0685 -0.7790  0.2905
 5500SOL     OW21765   0.291   6.232   0.104  0.0930  0.3673 -0.2708
 5500SOL    HW221766   0.237   6.204   0.030 -1.6887  0.8365  0.7817
 5500SOL    HW321767   0.332   6.152   0.136 -0.6844 -0.1630 -0.5699
 5500SOL    MW421768   0.290   6.218   0.099  0.5430 -0.7170 -0.6534
 5501SOL     OW21769   5.678   5.162   0.287  0.4459 -0.1551  0.4249
 5501SOL    HW221770   5.739   5.228   0.254 -1.5267  1.4467 -0.1939
 5501SOL    HW321771   5.639   5.202   0.365 -1.1706 -0.3022 -0.2586
 5501SOL    MW421772   5.681   5.176   0.293 -0.3745 -0.3301 -0.2007
 5502SOL     OW21773   4.219   6.096   1.494 -0.5959  0.9305  0.6350
 5502SOL    HW221774   4.231   6.081   1.588  0.6451  0.3650  0.4057
 5502SOL    HW321775   4.297   6.144   1.466  1.3315 -2.6278 -0.8627
 5502SOL    MW421776   4.231   6.100   1.503  0.3230  0.1476  0.2683
 5503SOL     OW21777   6.024   3.361   4.974  0.1382  0.1519  0.5293
 5503SOL    HW221778   5.945   3.366   5.029 -0.2368  0.3936 -0.0172
 5503SOL    HW321779   6.039   3.451   4.945 -1.6290 -0.3404 -2.4320
 5503SOL    MW421780   6.015   3.374   4.977 -0.2549 -0.2257 -0.0599
 5504SOL     OW21781   6.208   3.702   2.123  0.5687 -0.1302 -0.1561
 5504SOL    HW221782   6.190   3.615   2.086  0.9462 -0.3377  0.1390
 5504SOL    HW321783   6.189   3.762   2.052 -2.8251 -0.1659  0.5595
 5504SOL    MW421784   6.203   3.698   2.109 -0.2378  0.2797  0.3829
 5505SOL     OW21785   0.035   4.201   5.386 -0.0859 -0.1257  0.2527
 5505SOL    HW221786   0.110   4.158   5.426 -0.3233 -2.2159 -1.3827
 5505SOL    HW321787   0.073   4.275   5.338  0.9310 -1.0113 -0.3600
 5505SOL    MW421788   0.050   4.205   5.385 -0.3902 -0.3673 -0.1772
 5506SOL     OW21789   2.987   5.829   5.803  0.1371 -0.0658  0.0766
 5506SOL    HW221790   2.955   5.808   5.891  2.6097 -2.1796  0.5769
 5506SOL    HW321791   2.939   5.909   5.779 -1.6834 -0.2314  2.7019
 5506SOL    MW421792   2.976   5.837   5.811  0.1520  0.0127  0.6376
 5507SOL     OW21793   5.841   2.269   5.938 -0.5474 -0.3032 -0.1551
 5507SOL    HW221794   5.858   2.221   5.857  1.4417  1.6949 -1.0429
 5507SOL    HW321795   5.921   2.258   5.990 -0.5075  1.0125  0.1065
 5507SOL    MW421796   5.854   2.261   5.934  0.9608  0.7970  0.1507
 5508SOL     OW21797   5.635   2.603   3.793 -0.1347  0.0275 -0.0375
 5508SOL    HW221798   5.563   2.543   3.769  0.2726 -0.7269  0.5673
 5508SOL    HW321799   5.704   2.582   3.731  0.8912 -1.8715  1.6226
 5508SOL    MW421800   5.634   2.592   3.782  0.2499 -0.3017  0.1491
 5509SOL     OW21801   3.062   4.543   0.188  0.2796  0.0326  0.7433
 5509SOL    HW221802   3.005   4.590   0.249  0.2755  2.5376 -1.0360
 5509SOL    HW321803   3.004   4.484   0.140  0.1122 -1.1544  2.3180
 5509SOL    MW421804   3.047   4.541   0.190  0.1480 -0.7792 -0.0402
 5510SOL     OW21805   3.729   2.340   4.111  0.5239 -0.7121 -0.3270
 5510SOL    HW221806   3.760   2.322   4.200  1.7310 -2.5303 -1.0373
 5510SOL    HW321807   3.809   2.346   4.059 -0.1814 -0.4886 -1.4141
 5510SOL    MW421808   3.744   2.338   4.116 -0.3352 -0.0676 -0.0522
 5511SOL     OW21809   6.049   4.333   2.518 -0.6631 -0.0428  0.6473
 5511SOL    HW221810   6.125   4.348   2.574 -0.0573 -1.7412  0.3221
 5511SOL    HW321811   6.028   4.240   2.529 -0.5287 -0.4333 -1.9005
 5511SOL    MW421812   6.056   4.323   2.527 -0.2125 -0.4850 -0.2780
 5512SOL     OW21813   3.285   1.748   4.910  0.1778 -0.4456 -0.3655
 5512SOL    HW221814   3.208   1.803   4.895 -0.3619 -1.2865 -0.7581
 5512SOL    HW321815   3.302   1.756   5.004  1.7234  2.4484 -0.7666
 5512SOL    MW421816   3.277   1.756   4.920 -0.3020  0.5383 -0.2269
 5513SOL     OW21817   6.043   4.760   3.414 -0.3125  0.0125  0.2149
 5513SOL    HW221818   6.107   4.691   3.397  0.1497  0.5833 -0.4250
 5513SOL    HW321819   6.006   4.780   3.328 -0.8073  0.2126  0.4691
 5513SOL    MW421820   6.047   4.754   3.400  0.3396  0.1928  0.3847
 5514SOL     OW21821   4.188   4.712   2.024 -0.1053  0.2002 -0.1157
 5514SOL    HW221822   4.172   4.688   2.115 -0.3570 -0.9654 -0.4386
 5514SOL    HW321823   4.170   4.806   2.019 -0.0378  0.2815  1.0369
 5514SOL    MW421824   4.184   4.721   2.035  0.5463  0.1436 -0.0959
 5515SOL     OW21825   4.136   1.843   1.497 -0.5615 -0.1354  0.1204
 5515SOL    HW221826   4.171   1.754   1.495 -0.9695 -0.3364  1.1520
 5515SOL    HW321827   4.206   1.896   1.535 -0.0174  0.1468 -1.2304
 5515SOL    MW421828   4.150   1.838   1.502 -0.5937  0.0584 -0.0031
 5516SOL     OW21829   5.985   5.384   3.158  0.4383 -0.1356  0.2604
 5516SOL    HW221830   6.034   5.458   3.195  1.1625 -0.6707  0.3996
 5516SOL    HW321831   6.020   5.375   3.070 -0.1508  0.1281 -0.0001
 5516SOL    MW421832   5.996   5.393   3.152  0.8699  0.1909  0.2531
 5517SOL     OW21833   5.305   4.289   5.084  0.3666  0.0454  0.4552
 5517SOL    HW221834   5.326   4.280   5.177 -0.8768 -0.4880  0.7027
 5517SOL    HW321835   5.337   4.377   5.061  0.8377  0.1202  1.3308
 5517SOL    MW421836   5.312   4.300   5.093 -0.7334  0.5774  0.7975
 5518SOL     OW21837   2.946   2.318   4.945  0.3426  0.4049 -0.6534
 5518SOL    HW221838   2.938   2.413   4.952 -1.4685  0.2250  0.2749
 5518SOL    HW321839   2.971   2.290   5.033 -1.0304 -0.1039 -0.3967
 5518SOL    MW421840   2.948   2.327   4.958  0.5859  0.2687 -0.0585
 5519SOL     OW21841   6.368   6.296   6.010  0.3516 -1.0635 -0.4977
 5519SOL    HW221842   6.334   6.351   5.939  1.7262  0.0880 -0.3193
 5519SOL    HW321843   6.354   6.347   6.089  0.3476 -1.6007 -0.1499
 5519SOL    MW421844   6.362   6.310   6.011 -0.2039 -0.4052  0.7008
 5520SOL     OW21845   2.420   5.611   0.224  0.1146  0.1477 -0.0874
 5520SOL    HW221846   2.375   5.536   0.185 -0.0492  0.6866 -0.9673
 5520SOL    HW321847   2.377   5.688   0.186 -0.2668  0.7195  1.4243
 5520SOL    MW421848   2.408   5.611   0.214 -0.0294 -0.3791 -0.3465
 5521SOL     OW21849   5.939   3.004   4.129  0.2723  0.0653  0.0414
 5521SOL    HW221850   5.906   3.027   4.216  0.5434 -0.2509  0.2322
 5521SOL    HW321851   5.873   2.944   4.094  0.2683  0.0237  0.1181
 5521SOL    MW421852   5.926   2.999   4.136  0.4122  0.0062 -0.2705
 5522SOL     OW21853   3.540   0.724   0.150 -0.1833 -0.3844 -0.0719
 5522SOL    HW221854   3.597   0.683   0.215  1.1415  0.9846 -0.3078
 5522SOL    HW321855   3.524   0.812   0.185  0.4602  0.3335 -1.5088
 5522SOL    MW421856   3.546   0.731   0.163 -0.2637  1.1822  0.1363
 5523SOL     OW21857   2.200   4.405   5.603 -0.1597 -0.1213 -0.3360
 5523SOL    HW221858   2.264   4.333   5.601  0.4772  0.4361 -2.1721
 5523SOL    HW321859   2.199   4.433   5.694 -0.1372 -2.1992  0.3504
 5523SOL    MW421860   2.209   4.399   5.614  0.1990 -0.2244  0.3245
 5524SOL     OW21861   2.309   4.142   5.047 -0.1285  0.2298 -0.0629
 5524SOL    HW221862   2.379   4.082   5.073  0.7792 -0.1116 -2.9414
 5524SOL    HW321863   2.330   4.224   5.092  2.8509  0.4821 -1.6521
 5524SOL    MW421864   2.321   4.145   5.056  0.0898 -0.5090  0.2580
 5525SOL     OW21865   0.931   5.891   0.044 -0.6664  0.3747 -0.8420
 5525SOL    HW221866   0.993   5.954   0.006 -1.0872  0.4549 -1.4072
 5525SOL    HW321867   0.852   5.942   0.062  0.1771  0.8197  2.0933
 5525SOL    MW421868   0.929   5.906   0.041 -0.2974  0.1219  0.1092
 5526SOL     OW21869   6.391   4.939   3.723  0.3014  0.0703  0.1723
 5526SOL    HW221870   6.343   4.876   3.777  0.5491 -0.7646 -0.5642
 5526SOL    HW321871   6.462   4.889   3.685  1.4215  1.1591  0.7654
 5526SOL    MW421872   6.394   4.924   3.725  0.3414  0.3161 -0.3209
 5527SOL     OW21873   6.406   4.135   4.327  0.2829 -0.3103 -0.2542
 5527SOL    HW221874   6.414   4.067   4.260  2.5518  0.3514 -0.7784
 5527SOL    HW321875   6.427   4.091   4.409 -0.0200 -0.6161 -0.3412
 5527SOL    MW421876   6.410   4.120   4.329  0.0347  0.1153 -0.2258
 5528SOL     OW21877   4.114   1.874   2.829  0.3618 -0.0482 -0.6845
 5528SOL    HW221878   4.096   1.808   2.761 -0.5522  0.7222 -1.2167
 5528SOL    HW321879   4.168   1.939   2.785  0.8913 -0.2116 -0.2837
 5528SOL    MW421880   4.118   1.874   2.814  0.1100 -0.0240  0.1992
 5529SOL     OW21881   2.063   4.476   3.083  0.1426 -0.0826 -0.3231
 5529SOL    HW221882   2.039   4.400   3.136 -1.9389  0.9222  0.3035
 5529SOL    HW321883   2.045   4.551   3.139  2.3049  0.9224 -0.8710
 5529SOL    MW421884   2.057   4.476   3.097 -0.0464  0.2407 -0.5144
 5530SOL     OW21885   0.113   5.053   3.017 -0.9213  0.6802  0.0614
 5530SOL    HW221886   0.076   5.089   3.098  0.9195 -0.0706  1.2873
 5530SOL    HW321887   0.147   5.130   2.970  0.6752  0.8659  1.4409
 5530SOL    MW421888   0.112   5.068   3.022  0.3953  0.1206  0.2073
 5531SOL     OW21889   0.352   3.355   1.816  0.5554  0.5835 -0.4386
 5531SOL    HW221890   0.307   3.433   1.850  0.8987  0.5733  0.0461
 5531SOL    HW321891   0.366   3.300   1.894 -1.5299 -0.9271 -1.0215
 5531SOL    MW421892   0.348   3.358   1.831 -0.3732  0.0133  0.5161
 5532SOL     OW21893   5.115   1.414   3.666  0.1283  0.0260 -0.2131
 5532SOL    HW221894   5.128   1.381   3.755 -0.7882  0.1510 -0.0190
 5532SOL    HW321895   5.032   1.462   3.670  0.7119  1.1324 -0.8354
 5532SOL    MW421896   5.106   1.416   3.678  0.1496 -0.0090 -0.2527
 5533SOL     OW21897   5.406   1.729   3.723 -0.2696 -0.1888 -0.6815
 5533SOL    HW221898   5.357   1.718   3.642 -2.0438  0.6023  0.2345
 5533SOL    HW321899   5.497   1.737   3.695 -0.9285  1.0048 -2.6880
 5533SOL    MW421900   5.412   1.729   3.709  0.3247  0.0565 -0.5660
 5534SOL     OW21901   3.234   5.706   1.903  0.1048  0.5106  0.3937
 5534SOL    HW221902   3.312   5.756   1.880 -0.6423  1.9738  0.9353
 5534SOL    HW321903   3.266   5.618   1.921  1.2151  0.1899 -2.5813
 5534SOL    MW421904   3.248   5.701   1.902 -0.3608 -0.6540  0.2899
 5535SOL     OW21905   0.551   5.015   2.572  0.0854 -0.1541 -0.5084
 5535SOL    HW221906   0.639   5.006   2.536  1.5019 -0.2815  2.6683
 5535SOL    HW321907   0.520   5.100   2.539  2.6875  1.3602  0.6643
 5535SOL    MW421908   0.558   5.025   2.562 -0.1475  0.2543  0.0699
 5536SOL     OW21909   5.572   2.577   0.917 -0.8070 -0.0165  0.0127
 5536SOL    HW221910   5.599   2.653   0.970 -0.5836 -1.0401  1.4284
 5536SOL    HW321911   5.623   2.504   0.952 -0.6661 -0.7463 -1.6522
 5536SOL    MW421912   5.582   2.578   0.929 -0.0927  0.9429  0.0370
 5537SOL     OW21913   5.514   2.529   5.939 -0.4094 -0.0538 -0.1613
 5537SOL    HW221914   5.587   2.591   5.946 -0.3883 -0.2368  1.6524
 5537SOL    HW321915   5.544   2.451   5.987 -0.9144 -1.0206 -1.3577
 5537SOL    MW421916   5.528   2.527   5.946  0.0379 -0.2111 -0.2223
 5538SOL     OW21917   5.468   4.674   4.076 -0.0109  0.5472  0.2846
 5538SOL    HW221918   5.419   4.729   4.015  0.1584  0.3044 -0.0701
 5538SOL    HW321919   5.428   4.587   4.069 -1.8514  1.1200  2.5735
 5538SOL    MW421920   5.456   4.670   4.067 -0.3244  0.0885 -0.2386
 5539SOL     OW21921   5.976   6.336   5.201  0.1774 -0.3427 -0.2227
 5539SOL    HW221922   6.057   6.386   5.187  0.1707 -0.3420 -0.2591
 5539SOL    HW321923   5.973   6.276   5.127  0.5902 -0.9346  0.2364
 5539SOL    MW421924   5.986   6.335   5.190 -0.0020 -0.0763  0.1851
 5540SOL     OW21925   3.505   5.585   6.030 -0.2526 -0.6448  0.8241
 5540SOL    HW221926   3.574   5.597   5.965  0.0099  3.4053  1.5863
 5540SOL    HW321927   3.444   5.524   5.990  2.3644 -2.2807 -1.0052
 5540SOL    MW421928   3.506   5.578   6.016 -0.0249 -0.1350  0.1860
 5541SOL     OW21929   0.633   5.426   2.527 -0.8637 -0.2403  0.0501
 5541SOL    HW221930   0.691   5.393   2.596 -0.9955 -0.3028  0.1306
 5541SOL    HW321931   0.631   5.357   2.461 -2.6066 -1.2165  1.0572
 5541SOL    MW421932   0.640   5.413   2.528  0.1550 -0.2908 -1.2191
 5542SOL     OW21933   2.413   1.326   5.018  0.1797  0.8811 -0.0447
 5542SOL    HW221934   2.374   1.406   4.983  0.0953  0.7643 -0.2224
 5542SOL    HW321935   2.451   1.352   5.102 -0.5041  0.9381  0.2523
 5542SOL    MW421936   2.413   1.340   5.024  1.3219  0.2678  0.4149
 5543SOL     OW21937   1.754   5.002   0.213 -0.0765 -0.3464 -0.6012
 5543SOL    HW221938   1.715   4.915   0.214  0.7801 -0.7337  0.3950
 5543SOL    HW321939   1.839   4.990   0.171 -0.1751  0.1169 -0.9425
 5543SOL    MW421940   1.760   4.989   0.207  0.5851  0.0334  0.2842
 5544SOL     OW21941   0.350   0.625   3.334 -0.5274 -0.4559 -0.3550
 5544SOL    HW221942   0.424   0.574   3.300 -0.6527 -0.0433 -1.2685
 5544SOL    HW321943   0.320   0.575   3.410 -0.1998 -1.3699 -0.8111
 5544SOL    MW421944   0.356   0.612   3.340  0.7504  0.9526  0.4668
 5545SOL     OW21945   1.949   2.805   2.387 -0.5297 -0.9056  0.9276
 5545SOL    HW221946   2.039   2.806   2.418  0.7757 -0.3815 -2.4810
 5545SOL    HW321947   1.922   2.713   2.394  0.4861 -1.1803  1.3738
 5545SOL    MW421948   1.957   2.793   2.392  0.2245  0.0800  0.2203
 5546SOL     OW21949   3.152   0.012   2.674  0.4986  0.0466 -0.0214
 5546SOL    HW221950   3.058  -0.004   2.660  0.4457  0.7970 -0.5396
 5546SOL    HW321951   3.192  -0.075   2.666 -0.2168 -0.3870  0.8346
 5546SOL    MW421952   3.145  -0.002   2.671  0.2479 -0.5343 -0.4994
 5547SOL     OW21953   1.033   0.917   2.201 -0.0258 -0.7450 -0.5728
 5547SOL    HW221954   1.034   1.011   2.180  1.0659 -0.8118 -0.8617
 5547SOL    HW321955   1.079   0.876   2.128  2.4467 -1.1448  1.1031
 5547SOL    MW421956   1.039   0.924   2.189 -0.4160 -0.2507  0.2648
 5548SOL     OW21957   5.645   5.821   0.540 -0.1252 -0.0518  0.1081
 5548SOL    HW221958   5.618   5.732   0.561 -1.8570  0.4550  0.1853
 5548SOL    HW321959   5.645   5.867   0.624  1.5222 -0.1290  0.1890
 5548SOL    MW421960   5.641   5.815   0.554 -0.6077 -0.7396  0.0928
 5549SOL     OW21961   5.969   2.893   3.681 -0.3180 -0.1108 -0.2144
 5549SOL    HW221962   5.989   2.964   3.743 -2.2974  0.2313  0.0827
 5549SOL    HW321963   5.948   2.818   3.737 -0.5008 -0.2778 -0.5077
 5549SOL    MW421964   5.969   2.892   3.697  0.0011 -0.1715 -0.1617
 5550SOL     OW21965   0.623   4.888   2.944  0.1426  0.5094 -0.4516
 5550SOL    HW221966   0.566   4.886   3.021  0.0238 -0.3119 -0.5503
 5550SOL    HW321967   0.597   4.966   2.896 -1.0690  0.0212 -0.6209
 5550SOL    MW421968   0.612   4.898   2.948 -0.0207  0.4570  0.1529
 5551SOL     OW21969   0.751   1.200   5.847  0.1133  0.2041  0.0737
 5551SOL    HW221970   0.816   1.241   5.790  0.8481 -0.4174  0.4435
 5551SOL    HW321971   0.751   1.108   5.821  0.2754 -0.0355  0.9104
 5551SOL    MW421972   0.759   1.193   5.836 -0.1187  0.6766 -0.0345
 5552SOL     OW21973   0.596   5.942   2.675  0.2388 -0.5380 -0.2460
 5552SOL    HW221974   0.608   5.847   2.670  1.1288 -0.4682  0.2954
 5552SOL    HW321975   0.610   5.963   2.768  0.3817  0.1585 -0.4195
 5552SOL    MW421976   0.599   5.932   2.687 -0.3315 -0.1651 -0.2817
 5553SOL     OW21977   2.785   3.345   3.781 -0.7410  0.4851  0.2243
 5553SOL    HW221978   2.725   3.281   3.820  0.2197 -0.1268  0.7416
 5553SOL    HW321979   2.827   3.387   3.856  0.8755 -0.4544 -0.1003
 5553SOL    MW421980   2.783   3.342   3.796 -0.6380  0.3210  0.0570
 5554SOL     OW21981   1.376   4.558   3.340  0.0645  0.4727 -0.7019
 5554SOL    HW221982   1.434   4.623   3.380 -0.1136  0.8538 -1.0505
 5554SOL    HW321983   1.429   4.478   3.337  0.0265  0.3894  0.4218
 5554SOL    MW421984   1.391   4.556   3.345 -0.1083 -0.2394 -0.0674
 5555SOL     OW21985   5.400   2.276   5.302 -0.0532 -0.1356  0.6467
 5555SOL    HW221986   5.457   2.213   5.345  1.1895  0.5134 -0.0155
 5555SOL    HW321987   5.407   2.355   5.354 -1.2229 -0.3587  1.1868
 5555SOL    MW421988   5.408   2.278   5.314 -0.8541 -0.5560  0.3092
 5556SOL     OW21989   4.221   3.387   5.190  1.0446 -0.2720  0.1473
 5556SOL    HW221990   4.207   3.349   5.277  2.0682  0.8800  0.8507
 5556SOL    HW321991   4.253   3.476   5.207 -1.4132  1.0124 -1.4479
 5556SOL    MW421992   4.224   3.394   5.204  0.0365  0.0422  0.2908
 5557SOL     OW21993   3.446   2.827   2.226  0.3224 -0.7220 -0.0913
 5557SOL    HW221994   3.435   2.782   2.310 -2.8868 -1.6415 -0.8702
 5557SOL    HW321995   3.434   2.920   2.246  1.2322 -0.7568  0.6805
 5557SOL    MW421996   3.443   2.833   2.240 -0.5772 -0.1599 -0.3826
 5558SOL     OW21997   3.706   1.150   2.283  0.1129  0.2452 -0.2308
 5558SOL    HW221998   3.697   1.063   2.244 -1.6568 -0.2496  1.1151
 5558SOL    HW321999   3.657   1.208   2.224  0.7133  0.2182 -0.7650
 5558SOL    MW422000   3.698   1.146   2.270  0.4285 -0.3730 -0.6509
 5559SOL     OW22001   2.992   3.581   3.303  0.5980 -0.3013 -0.2193
 5559SOL    HW222002   3.056   3.587   3.373  1.3334 -2.4232 -0.6140
 5559SOL    HW322003   3.039   3.611   3.225  0.3954  0.2681 -0.1193
 5559SOL    MW422004   3.007   3.585   3.302  0.4917 -0.4438 -0.3965
 5560SOL     OW22005   5.137   1.826   0.048 -0.0236  0.3625 -0.4341
 5560SOL    HW222006   5.228   1.825   0.020  0.3122 -1.1604  0.6229
 5560SOL    HW322007   5.104   1.739   0.028 -0.2729 -0.2136  2.1476
 5560SOL    MW422008   5.145   1.815   0.041 -0.2080  0.4086  0.3844
 5561SOL     OW22009   1.710   1.141   1.132  0.2947  0.5720 -0.1626
 5561SOL    HW222010   1.783   1.086   1.163  1.1823  1.0026 -1.4114
 5561SOL    HW322011   1.732   1.229   1.163  0.8101  0.8725 -1.3634
 5561SOL    MW422012   1.723   1.145   1.140 -0.0955  0.3740 -0.2176
 5562SOL     OW22013   1.433   3.613   5.452  0.4423 -0.5556 -0.1659
 5562SOL    HW222014   1.392   3.543   5.403 -2.3971  0.8497  0.0136
 5562SOL    HW322015   1.477   3.666   5.386  0.6709 -1.2459 -0.5736
 5562SOL    MW422016   1.434   3.611   5.437  0.1934 -0.3108 -0.3671
 5563SOL     OW22017   5.605   3.978   4.552  0.1862 -0.1259  0.6006
 5563SOL    HW222018   5.605   3.895   4.601 -0.5414  0.4103  1.5512
 5563SOL    HW322019   5.692   3.982   4.512  0.4454 -1.0663  1.0263
 5563SOL    MW422020   5.616   3.968   4.554 -1.0477  0.7364  0.2734
 5564SOL     OW22021   3.033   3.396   3.644  0.2933 -0.3195  0.6633
 5564SOL    HW222022   3.033   3.484   3.683 -2.2442  0.6821 -1.2842
 5564SOL    HW322023   2.942   3.367   3.653  0.0669 -0.8672 -2.5537
 5564SOL    MW422024   3.021   3.404   3.651  0.2831 -0.4010 -0.3019
 5565SOL     OW22025   2.749   0.355   2.548 -0.3149 -0.3993  0.1438
 5565SOL    HW222026   2.810   0.302   2.497 -0.6527  0.5821 -1.3581
 5565SOL    HW322027   2.757   0.322   2.638 -0.2848 -2.7457 -0.6617
 5565SOL    MW422028   2.758   0.344   2.553  0.2085  0.0848  0.1179
 5566SOL     OW22029   2.221   3.811   4.629 -0.5846  0.1251  0.8078
 5566SOL    HW222030   2.126   3.820   4.632 -0.8179 -1.9827  1.2375
 5566SOL    HW322031   2.246   3.782   4.717 -0.1997 -3.8439 -0.3912
 5566SOL    MW422032   2.212   3.808   4.641 -0.7335  0.2625  0.5879
 5567SOL     OW22033   3.645   2.073   4.455  0.1807  0.1464 -0.2270
 5567SOL    HW222034   3.582   2.129   4.410  0.8308  0.1825 -1.1306
 5567SOL    HW322035   3.726   2.124   4.457 -0.0446  0.5122  1.8257
 5567SOL    MW422036   3.648   2.087   4.449 -0.1272 -0.8330 -0.8404
 5568SOL     OW22037   3.159   5.653   6.178 -0.5341 -0.2284  0.0880
 5568SOL    HW222038   3.161   5.607   6.263 -0.2876 -0.5849 -0.1058
 5568SOL    HW322039   3.219   5.603   6.123 -1.7705 -0.8424 -0.7368
 5568SOL    MW422040   3.167   5.640   6.182 -0.7972  0.4294  0.2385
 5569SOL     OW22041   3.213   1.221   2.936  0.6890 -0.2644 -0.1184
 5569SOL    HW222042   3.148   1.225   3.006 -1.8088 -0.4370 -2.2733
 5569SOL    HW322043   3.223   1.127   2.919  2.7906 -0.3483  1.2106
 5569SOL    MW422044   3.206   1.209   2.943 -0.2984 -0.2019 -0.2381
 5570SOL     OW22045   5.463   1.144   1.433 -0.2744 -0.0452 -0.0039
 5570SOL    HW222046   5.489   1.071   1.378  0.8248 -0.3634  0.8900
 5570SOL    HW322047   5.368   1.148   1.426 -0.2267 -0.6577 -1.1665
 5570SOL    MW422048   5.454   1.135   1.425  0.2314 -0.6088  0.6407
 5571SOL     OW22049   2.771   0.376   1.697 -0.5611 -0.2768 -0.0870
 5571SOL    HW222050   2.835   0.313   1.665 -1.4058 -1.0909 -0.1982
 5571SOL    HW322051   2.811   0.413   1.775 -1.1016 -2.8311  1.5072
 5571SOL    MW422052   2.785   0.373   1.703 -0.3084  0.0928 -0.5292
 5572SOL     OW22053   5.670   5.144   4.159 -0.1055  0.3243  0.6728
 5572SOL    HW222054   5.690   5.052   4.180  1.6119  0.2986 -0.7763
 5572SOL    HW322055   5.642   5.182   4.242  0.9450 -1.0789  1.7368
 5572SOL    MW422056   5.669   5.137   4.172 -0.1848  0.2740 -0.1079
 5573SOL     OW22057   1.556   3.404   3.318  0.0116 -0.1036  0.3716
 5573SOL    HW222058   1.565   3.412   3.223 -0.4312 -1.9440  0.1264
 5573SOL    HW322059   1.463   3.418   3.335  0.4505  2.8141  0.9147
 5573SOL    MW422060   1.545   3.407   3.308 -0.2446  0.1001  0.0300
 5574SOL     OW22061   4.832   1.847   6.394  0.2006  0.4673  0.1182
 5574SOL    HW222062   4.927   1.848   6.408  0.4228  1.9895 -1.2343
 5574SOL    HW322063   4.800   1.781   6.455  2.0035  0.7107  1.4201
 5574SOL    MW422064   4.840   1.838   6.404 -0.4768  0.1553 -0.0048
 5575SOL     OW22065   0.429   5.775   5.133  0.2149 -0.7439 -0.2198
 5575SOL    HW222066   0.378   5.837   5.185 -1.1196 -3.2005  1.5876
 5575SOL    HW322067   0.518   5.784   5.166 -0.2408 -0.7945  1.0811
 5575SOL    MW422068   0.434   5.784   5.145 -0.6271 -0.1409  0.9523
 5576SOL     OW22069   5.891   0.337   4.203  0.1299  0.6570  0.2928
 5576SOL    HW222070   5.897   0.257   4.256 -1.3946  0.7666  0.6740
 5576SOL    HW322071   5.952   0.398   4.244  1.7522 -0.4707 -0.3461
 5576SOL    MW422072   5.900   0.334   4.216 -0.4136  0.6653  0.0942
 5577SOL     OW22073   6.217   3.769   5.903  0.3098 -0.0495 -0.4342
 5577SOL    HW222074   6.217   3.689   5.954  2.7465 -0.2292 -0.5923
 5577SOL    HW322075   6.135   3.766   5.853  0.1056 -2.1612 -0.0544
 5577SOL    MW422076   6.206   3.758   5.903  0.1704 -0.2881 -0.0484
 5578SOL     OW22077   2.431   2.545   2.702 -0.1826  0.3556 -0.1272
 5578SOL    HW222078   2.444   2.606   2.629  0.8778  1.4292  0.9080
 5578SOL    HW322079   2.465   2.592   2.778 -2.3330 -0.2460  1.2879
 5578SOL    MW422080   2.437   2.559   2.703  0.2782  0.3425 -0.4497
 5579SOL     OW22081   1.502   3.446   2.647 -0.4265  0.3503  0.4611
 5579SOL    HW222082   1.428   3.399   2.608 -0.8297  1.6917 -0.4385
 5579SOL    HW322083   1.560   3.466   2.573  0.5309 -0.0940  1.0604
 5579SOL    MW422084   1.500   3.442   2.632 -0.2865 -0.0173  0.3883
 5580SOL     OW22085   3.772   0.005   6.391 -0.1050  0.0275  0.4865
 5580SOL    HW222086   3.837  -0.018   6.324 -0.2978 -1.2332  0.7086
 5580SOL    HW322087   3.804  -0.036   6.471 -1.1900 -0.6494  0.5917
 5580SOL    MW422088   3.785  -0.003   6.393 -0.1947 -0.6053 -1.0551
 5581SOL     OW22089   4.827   3.688   1.887 -0.4541  0.1040 -0.0093
 5581SOL    HW222090   4.831   3.597   1.914  0.1004 -0.2115 -1.0739
 5581SOL    HW322091   4.900   3.730   1.933  0.2350 -0.3338 -0.6814
 5581SOL    MW422092   4.837   3.682   1.896 -0.2732 -0.1274  0.6179
 5582SOL     OW22093   0.179   4.265   4.609  0.1254 -0.5760 -0.2690
 5582SOL    HW222094   0.205   4.202   4.676 -2.7487 -0.3377  1.2681
 5582SOL    HW322095   0.084   4.251   4.599 -0.1461  1.7480 -1.7832
 5582SOL    MW422096   0.170   4.255   4.616  0.2043  0.1523  0.0259
 5583SOL     OW22097   4.265   1.085   4.000  0.3821 -0.0589  0.2532
 5583SOL    HW222098   4.247   1.016   4.065  1.5268  0.0139  0.6743
 5583SOL    HW322099   4.266   1.166   4.051 -0.6113  0.2474 -0.1849
 5583SOL    MW422100   4.262   1.087   4.015  0.0025 -0.4259 -0.2111
 5584SOL     OW22101   4.342   2.891   1.603 -0.8053 -0.0965 -0.3750
 5584SOL    HW222102   4.327   2.893   1.508  0.0021  1.1463 -0.4976
 5584SOL    HW322103   4.256   2.912   1.640 -0.9967 -0.0026 -0.8543
 5584SOL    MW422104   4.329   2.894   1.595 -0.7513  0.4198 -0.6625
 5585SOL     OW22105   4.927   6.020   0.162 -0.2073  0.0528 -0.0862
 5585SOL    HW222106   4.840   6.055   0.144  0.3922  0.6493 -2.0344
 5585SOL    HW322107   4.913   5.925   0.170 -1.1080  0.2028  0.1859
 5585SOL    MW422108   4.913   6.012   0.160 -0.1447 -0.1073  0.7400
 5586SOL     OW22109   1.436   0.303   1.904 -0.2735  0.2735 -0.2006
 5586SOL    HW222110   1.414   0.366   1.973 -0.9713 -0.3815  0.1978
 5586SOL    HW322111   1.531   0.303   1.901 -0.1184 -0.9435  1.9968
 5586SOL    MW422112   1.445   0.311   1.913  0.3721  0.0038 -0.0828
 5587SOL     OW22113   4.184   0.234   3.350  0.3362 -0.2278 -0.0577
 5587SOL    HW222114   4.184   0.308   3.411 -5.5031  0.7461 -0.6576
 5587SOL    HW322115   4.191   0.274   3.264 -1.1411 -0.4647 -0.3119
 5587SOL    MW422116   4.184   0.249   3.347 -0.7265 -0.1699  0.4052
 5588SOL     OW22117   3.773   5.462   0.385  0.1154  0.1476 -0.1588
 5588SOL    HW222118   3.779   5.368   0.400 -2.9111 -0.2390 -0.7934
 5588SOL    HW322119   3.766   5.500   0.472 -1.0742 -0.4906  0.0423
 5588SOL    MW422120   3.773   5.455   0.398  0.2515  0.2913  0.0665
 5589SOL     OW22121   4.957   5.737   1.831 -0.4485  0.4326  0.9256
 5589SOL    HW222122   4.902   5.815   1.827 -1.2773 -0.1350  1.1416
 5589SOL    HW322123   5.027   5.754   1.768 -0.3146  1.5782  1.3512
 5589SOL    MW422124   4.959   5.750   1.822 -0.7601 -0.0379  0.4133
 5590SOL     OW22125   6.015   0.375   6.192 -0.0463  0.2358 -0.4922
 5590SOL    HW222126   6.083   0.415   6.247 -0.2595 -0.9138  0.6526
 5590SOL    HW322127   5.933   0.402   6.233 -0.3013  1.2815 -1.6347
 5590SOL    MW422128   6.013   0.384   6.205  0.1889 -0.2306 -0.1189
 5591SOL     OW22129   4.103   2.906   0.602  1.3415 -0.2344 -0.3601
 5591SOL    HW222130   4.090   2.991   0.559  2.1985  0.3425  0.4646
 5591SOL    HW322131   4.122   2.846   0.530 -0.9493 -0.1348 -1.1331
 5591SOL    MW422132   4.104   2.910   0.587 -0.5043 -0.3292 -0.3296
 5592SOL     OW22133   5.197   2.128   2.642 -0.4422 -0.4832  0.5402
 5592SOL    HW222134   5.242   2.198   2.690 -0.4069 -1.0260  1.3095
 5592SOL    HW322135   5.255   2.111   2.567 -1.3967  1.6262 -0.7656
 5592SOL    MW422136   5.211   2.135   2.638  0.0974 -0.3144  0.6077
 5593SOL     OW22137   0.670   4.989   1.948  0.4533 -0.1763 -0.1607
 5593SOL    HW222138   0.624   4.930   1.887 -0.2786  0.3297 -0.1096
 5593SOL    HW322139   0.719   5.048   1.891 -0.2653  0.3258 -0.2737
 5593SOL    MW422140   0.670   4.989   1.932 -0.0466 -0.9128  0.1263
 5594SOL     OW22141   3.339   3.796   3.189 -0.2534  0.2751 -0.1137
 5594SOL    HW222142   3.334   3.888   3.215  0.7591  1.3550 -3.2943
 5594SOL    HW322143   3.395   3.796   3.112 -0.7098 -2.9571 -0.5781
 5594SOL    MW422144   3.345   3.808   3.182 -0.2507  0.5543  0.0824
 5595SOL     OW22145   2.430   2.682   6.359 -0.5959  0.7493  0.7031
 5595SOL    HW222146   2.475   2.759   6.394  0.9109  0.1058  0.2773
 5595SOL    HW322147   2.404   2.707   6.271  0.6244  0.5303  0.2620
 5595SOL    MW422148   2.432   2.695   6.352 -0.2805  0.3895 -0.4908
 5596SOL     OW22149   0.967   2.284   3.461 -0.1974  0.0705 -0.1476
 5596SOL    HW222150   0.931   2.345   3.526  1.0425  0.3473  0.3090
 5596SOL    HW322151   0.992   2.340   3.387  0.1733  0.0023 -0.0726
 5596SOL    MW422152   0.965   2.300   3.460 -0.7054  0.7141  0.0807
 5597SOL     OW22153   6.026   5.013   5.593  0.4687 -0.1458 -0.1550
 5597SOL    HW222154   6.018   4.944   5.527  1.2754 -0.2851 -0.1230
 5597SOL    HW322155   5.937   5.046   5.604  0.0990 -1.0476 -0.3129
 5597SOL    MW422156   6.013   5.008   5.586 -0.1177 -0.0736 -0.0380
 5598SOL     OW22157   1.646   6.061   6.020  0.2755 -0.1934 -0.4641
 5598SOL    HW222158   1.596   6.011   5.956  1.4338  0.2307 -1.7456
 5598SOL    HW322159   1.629   6.153   5.997 -2.1519  0.1398  2.1025
 5598SOL    MW422160   1.637   6.067   6.008 -0.3782  0.4688 -0.5469
 5599SOL     OW22161   3.454   4.947   5.898  0.4307 -0.7429 -0.2047
 5599SOL    HW222162   3.544   4.916   5.885  1.5902  1.4184  1.9086
 5599SOL    HW322163   3.444   5.018   5.834  1.0025  0.3462  0.8723
 5599SOL    MW422164   3.465   4.952   5.888  0.0319 -0.4352  0.1106
 5600SOL     OW22165   0.249   2.110   3.900 -0.0873  0.4059 -0.5933
 5600SOL    HW222166   0.291   2.098   3.815 -1.3278  0.1035 -1.1686
 5600SOL    HW322167   0.213   2.025   3.922  0.1942  0.4879  0.2350
 5600SOL    MW422168   0.250   2.097   3.892  0.1330 -0.5482 -0.4767
 5601SOL     OW22169   5.477   0.063   2.619 -0.1893  0.2827  0.0802
 5601SOL    HW222170   5.561   0.085   2.658 -0.7428  0.7815  1.0111
 5601SOL    HW322171   5.435   0.006   2.683 -0.0898 -0.9443 -0.9035
 5601SOL    MW422172   5.483   0.058   2.632  0.0256 -0.5719  0.2225
 5602SOL     OW22173   2.473   1.806   2.179  0.0656  0.0891  0.4474
 5602SOL    HW222174   2.415   1.853   2.239 -0.2628 -0.8064  0.8363
 5602SOL    HW322175   2.555   1.855   2.183 -0.3795  0.8546  0.5547
 5602SOL    MW422176   2.476   1.819   2.187 -0.6026 -0.2050  0.1530
 5603SOL     OW22177   1.825   5.097   3.820  0.2052  0.1201 -0.4008
 5603SOL    HW222178   1.899   5.099   3.759 -0.1300 -1.7930 -0.9403
 5603SOL    HW322179   1.831   5.012   3.862  0.2243  1.2439  2.0637
 5603SOL    MW422180   1.836   5.086   3.817 -0.4119 -0.0372  0.0347
 5604SOL     OW22181   3.362   1.418   5.191  0.1719 -0.5778 -0.4163
 5604SOL    HW222182   3.337   1.423   5.284  1.1770 -2.1999 -0.0083
 5604SOL    HW322183   3.436   1.478   5.183  0.2164 -0.5891 -0.1049
 5604SOL    MW422184   3.368   1.427   5.202  1.0206  0.2301 -0.0502
 5605SOL     OW22185   3.509   0.900   5.033  0.0819  0.3705  0.2492
 5605SOL    HW222186   3.503   0.995   5.022 -0.0702  0.2394 -0.8998
 5605SOL    HW322187   3.583   0.874   4.978 -0.2354 -0.2488  0.1063
 5605SOL    MW422188   3.518   0.909   5.024  0.5277  0.2180  0.1658
 5606SOL     OW22189   1.971   2.312   5.801  0.0246  0.0193 -0.2470
 5606SOL    HW222190   1.918   2.232   5.803 -0.9764  0.6880  0.0515
 5606SOL    HW322191   2.055   2.285   5.839 -0.4769 -0.7598  0.3424
 5606SOL    MW422192   1.975   2.298   5.806 -0.2920 -0.0142  0.3191
 5607SOL     OW22193   3.796   5.096   6.259  0.1861  0.7593  0.0244
 5607SOL    HW222194   3.718   5.067   6.213  0.7255  1.0387 -1.0926
 5607SOL    HW322195   3.792   5.192   6.255  1.6499  0.8019 -1.9662
 5607SOL    MW422196   3.785   5.105   6.252 -0.1238 -0.4223  0.2294
 5608SOL     OW22197   0.457   6.226   2.695 -0.3525  0.3114 -0.1104
 5608SOL    HW222198   0.501   6.292   2.641  0.3729 -1.2427 -1.4991
 5608SOL    HW322199   0.457   6.147   2.642 -0.5688 -1.0316  1.7708
 5608SOL    MW422200   0.463   6.224   2.681 -0.1489  0.1100 -0.4512
 5609SOL     OW22201   1.660   0.112   1.539  0.4875  0.5972  0.1209
 5609SOL    HW222202   1.584   0.164   1.510  1.3848  1.8004 -0.1485
 5609SOL    HW322203   1.716   0.106   1.462  0.7298 -0.1888  0.3478
 5609SOL    MW422204   1.657   0.118   1.525  0.8425  0.2610  0.3655
 5610SOL     OW22205   3.754   4.092   0.688 -0.1786 -0.5231  0.2232
 5610SOL    HW222206   3.850   4.095   0.699  0.0705 -1.0643 -1.5832
 5610SOL    HW322207   3.725   4.181   0.708  0.8942  0.0534 -0.6684
 5610SOL    MW422208   3.763   4.104   0.692 -0.3313  0.0616  0.7391
 5611SOL     OW22209   3.905   1.330   2.204 -0.2520  0.0328  0.7099
 5611SOL    HW222210   3.871   1.411   2.241 -1.0604  0.1419 -0.2365
 5611SOL    HW322211   3.850   1.261   2.242  0.1342 -0.0354  1.1536
 5611SOL    MW422212   3.893   1.331   2.214 -0.2128  0.1611  0.0511
 5612SOL     OW22213   0.985   3.550   2.376 -0.1061 -0.6461  0.0145
 5612SOL    HW222214   0.916   3.497   2.415 -0.9341  0.4922  0.1639
 5612SOL    HW322215   0.992   3.520   2.286  0.8524 -2.3571  0.6149
 5612SOL    MW422216   0.977   3.539   2.369  0.1216  0.1249  0.2274
 5613SOL     OW22217   4.105   1.815   2.369 -0.1498 -0.2257 -0.2312
 5613SOL    HW222218   4.067   1.771   2.445  1.3564  1.8880  1.8554
 5613SOL    HW322219   4.177   1.758   2.342  2.4361  1.1860  3.0669
 5613SOL    MW422220   4.110   1.801   2.375 -0.3823 -0.0270  0.1429
 5614SOL     OW22221   3.243   0.500   2.241  0.2975 -0.4010 -0.7976
 5614SOL    HW222222   3.326   0.494   2.289  0.3243  0.6043 -0.7092
 5614SOL    HW322223   3.178   0.522   2.308  0.0023 -0.9026 -0.9143
 5614SOL    MW422224   3.246   0.502   2.256  0.3680 -0.3292  0.6043
 5615SOL     OW22225   2.071   3.701   0.483  0.4338 -0.0732  0.1696
 5615SOL    HW222226   2.010   3.737   0.547  0.6011  2.6516 -1.0527
 5615SOL    HW322227   2.151   3.752   0.495  2.1791 -2.7934  0.9758
 5615SOL    MW422228   2.074   3.712   0.493  0.2289 -0.6156 -0.6355
 5616SOL     OW22229   6.092   1.703   1.910 -0.4371 -0.3630 -0.0868
 5616SOL    HW222230   6.150   1.657   1.970 -2.6700 -3.4088  0.0103
 5616SOL    HW322231   6.074   1.787   1.953  1.4402 -0.6121  1.2905
 5616SOL    MW422232   6.097   1.708   1.923  0.4576 -0.4394  0.2101
 5617SOL     OW22233   5.130   2.200   5.026 -0.8707  0.1593  0.4528
 5617SOL    HW222234   5.086   2.123   5.062 -0.6361 -0.1284  0.1282
 5617SOL    HW322235   5.223   2.182   5.038 -0.7596 -0.2063 -0.8222
 5617SOL    MW422236   5.136   2.188   5.032 -0.7666  0.4959 -0.3969
 5618SOL     OW22237   0.234   4.042   0.832 -0.6383  0.0817  0.0734
 5618SOL    HW222238   0.240   3.958   0.787 -1.0815  1.1805 -2.2074
 5618SOL    HW322239   0.324   4.069   0.845 -0.4610  0.2368 -1.2692
 5618SOL    MW422240   0.246   4.035   0.828  0.1557  0.2294 -0.3955
 5619SOL     OW22241   2.777   0.638   0.349 -0.4557  0.2946 -0.1780
 5619SOL    HW222242   2.820   0.663   0.431 -0.8886  1.4864 -0.3022
 5619SOL    HW322243   2.845   0.589   0.302  0.1296  0.4670  0.4548
 5619SOL    MW422244   2.792   0.635   0.354 -0.1867  0.1369  0.1489
 5620SOL     OW22245   0.314   5.138   5.292  0.0687  0.0200 -0.0099
 5620SOL    HW222246   0.279   5.209   5.347  1.9886  0.6749  0.4445
 5620SOL    HW322247   0.279   5.058   5.331 -0.5506  0.6121  0.6795
 5620SOL    MW422248   0.304   5.137   5.305  0.2637  0.0094 -0.3091
 5621SOL     OW22249   1.978   2.366   2.766 -0.1197 -0.3308  0.0124
 5621SOL    HW222250   1.921   2.433   2.804  0.3982 -0.0551  0.3098
 5621SOL    HW322251   1.982   2.298   2.833 -3.2824 -2.2621 -1.5174
 5621SOL    MW422252   1.971   2.366   2.780 -0.8091  0.6828  0.8142
 5622SOL     OW22253   5.024   3.100   2.329  0.1921 -0.2240 -0.6671
 5622SOL    HW222254   5.015   3.155   2.251 -0.7458  0.6732  0.0500
 5622SOL    HW322255   5.002   3.158   2.402  1.0403 -1.0523  0.2735
 5622SOL    MW422256   5.020   3.115   2.329  0.0362  0.9141  0.3517
 5623SOL     OW22257   1.180   2.475   3.819 -0.3522  0.1609 -0.2079
 5623SOL    HW222258   1.141   2.411   3.878 -0.6843  0.7272  0.1938
 5623SOL    HW322259   1.202   2.425   3.740  0.0706 -0.5989  0.3734
 5623SOL    MW422260   1.178   2.460   3.816  0.1803  0.2451  0.6163
 5624SOL     OW22261   2.474   1.972   3.504  0.2394 -0.0572 -0.3874
 5624SOL    HW222262   2.380   1.952   3.510  0.2905 -0.3040 -0.3954
 5624SOL    HW322263   2.486   2.048   3.561  0.1025 -0.2668 -0.0765
 5624SOL    MW422264   2.463   1.979   3.513 -0.2799 -0.3125 -0.3255
 5625SOL     OW22265   3.114   2.173   4.001  0.2080  0.2811  0.3589
 5625SOL    HW222266   3.069   2.091   4.021 -0.1348  0.1487 -0.8743
 5625SOL    HW322267   3.200   2.146   3.968  0.4972  0.4651  0.9526
 5625SOL    MW422268   3.119   2.159   4.000  0.3284  0.2203 -0.1768
 5626SOL     OW22269   1.679   1.466   3.251  0.2072 -0.0552 -0.3128
 5626SOL    HW222270   1.718   1.412   3.319 -0.3803 -1.4511 -1.0394
 5626SOL    HW322271   1.634   1.404   3.194  0.6148  1.0617 -1.9371
 5626SOL    MW422272   1.678   1.450   3.252  0.4033 -0.2625 -0.2811
 5627SOL     OW22273   4.155   0.455   1.122 -0.3737  0.4468 -0.3309
 5627SOL    HW222274   4.108   0.511   1.060  0.2376  0.4172 -0.8378
 5627SOL    HW322275   4.236   0.433   1.076  0.6313  1.3654  0.9525
 5627SOL    MW422276   4.160   0.459   1.107  0.4254 -0.0984  0.3919
 5628SOL     OW22277   3.910   5.333   2.572  0.0594 -0.0558  0.3231
 5628SOL    HW222278   3.845   5.371   2.630 -0.3617  0.4122 -0.4260
 5628SOL    HW322279   3.884   5.242   2.561  0.6519 -0.3965  1.5503
 5628SOL    MW422280   3.898   5.326   2.578  0.2955  0.0465 -0.8088
 5629SOL     OW22281   0.481   0.796   1.732  0.6540  0.5578  0.4019
 5629SOL    HW222282   0.411   0.798   1.667  0.2144  0.7624  0.8722
 5629SOL    HW322283   0.466   0.874   1.786  1.9677  1.2836 -0.2343
 5629SOL    MW422284   0.470   0.807   1.731  0.3190 -0.2027 -0.1975
 5630SOL     OW22285   5.527   5.269   0.501 -0.6810  0.0687  0.0620
 5630SOL    HW222286   5.545   5.326   0.576 -3.7014  1.2042  0.0707
 5630SOL    HW322287   5.435   5.246   0.511 -0.5663 -1.6367 -2.1134
 5630SOL    MW422288   5.517   5.274   0.512  0.5136 -0.0812 -0.2576
 5631SOL     OW22289   4.271   2.675   4.629 -0.4197  0.1122  0.1541
 5631SOL    HW222290   4.326   2.633   4.696 -2.1335  1.2077  2.3817
 5631SOL    HW322291   4.278   2.617   4.553  0.3912 -2.0916  1.7846
 5631SOL    MW422292   4.279   2.662   4.628  0.0706 -0.3985  0.3621
 5632SOL     OW22293   0.265   1.375   4.892 -0.0658  0.3771  0.4766
 5632SOL    HW222294   0.277   1.446   4.830 -1.8378 -1.2153 -1.8556
 5632SOL    HW322295   0.182   1.394   4.936 -0.7110 -0.3603 -0.3879
 5632SOL    MW422296   0.256   1.387   4.890 -0.5883 -0.0509  0.2191
 5633SOL     OW22297   4.927   2.304   2.693 -0.0455  0.2857 -0.3550
 5633SOL    HW222298   4.984   2.232   2.663  0.7968  0.6548  0.3163
 5633SOL    HW322299   4.864   2.315   2.622  0.4612 -0.4207 -0.9398
 5633SOL    MW422300   4.926   2.296   2.679 -0.0498  0.4250  0.3083
 5634SOL     OW22301   0.616   1.063   2.051 -0.3176  0.1393  0.3677
 5634SOL    HW222302   0.663   1.115   1.986 -1.1884  0.3180 -0.1462
 5634SOL    HW322303   0.561   1.126   2.097 -1.1510 -0.2486 -0.0504
 5634SOL    MW422304   0.615   1.078   2.048  0.2244  0.1604 -0.0511
 5635SOL     OW22305   5.889   2.130   0.892  0.2170  0.6096 -0.2542
 5635SOL    HW222306   5.872   2.045   0.934 -0.9248 -0.0699 -1.9624
 5635SOL    HW322307   5.890   2.192   0.964 -1.0359 -0.5835  0.8697
 5635SOL    MW422308   5.887   2.127   0.907 -0.1216  0.2688  0.5265
 5636SOL     OW22309   2.211   5.120   5.744  0.6146  0.1856  0.2012
 5636SOL    HW222310   2.131   5.071   5.727  0.8096 -0.6265  1.5014
 5636SOL    HW322311   2.183   5.211   5.750 -0.0180  0.0494 -0.5067
 5636SOL    MW422312   2.197   5.126   5.742  0.0177 -0.0244 -0.1995
 5637SOL     OW22313   6.385   1.691   5.613  0.2072  0.4205 -0.1745
 5637SOL    HW222314   6.403   1.653   5.699 -0.0585  0.4350 -0.1127
 5637SOL    HW322315   6.341   1.621   5.565  1.8682 -0.1944 -0.8889
 5637SOL    MW422316   6.381   1.677   5.618 -0.1089  0.8107  0.1877
 5638SOL     OW22317   0.182   0.964   0.417  0.1202  0.1694 -0.0030
 5638SOL    HW222318   0.090   0.987   0.411 -0.0989 -0.8905 -1.0732
 5638SOL    HW322319   0.203   0.970   0.510 -1.5105 -1.3153  0.5025
 5638SOL    MW422320   0.173   0.968   0.428  0.6169  0.1875 -0.3090
 5639SOL     OW22321   5.256   3.472   2.418  0.2704 -0.1008 -1.2721
 5639SOL    HW222322   5.166   3.447   2.442  0.5418  1.5511  1.9617
 5639SOL    HW322323   5.244   3.535   2.346 -1.3125  1.0670 -0.0720
 5639SOL    MW422324   5.242   3.477   2.412  1.2446  0.1338 -0.6028
 5640SOL     OW22325   4.102   0.033   0.036  0.3576 -0.2221  0.6350
 5640SOL    HW222326   4.072  -0.054   0.063 -0.2555 -0.0159  0.6252
 5640SOL    HW322327   4.038   0.094   0.075  0.6471  0.2083  0.4432
 5640SOL    MW422328   4.090   0.030   0.045 -0.1453  0.2509 -0.3011
 5641SOL     OW22329   0.449   0.871   3.687  0.7007 -0.0597  0.0675
 5641SOL    HW222330   0.383   0.876   3.756  0.9201 -0.3770  0.3043
 5641SOL    HW322331   0.527   0.912   3.726  0.6489  0.3072 -0.2081
 5641SOL    MW422332   0.451   0.877   3.701 -0.2654 -1.2341 -0.4824
 5642SOL     OW22333   3.145   4.222   1.821  0.1475 -0.5497  0.2105
 5642SOL    HW222334   3.133   4.138   1.776  0.2788 -1.4834  1.8381
 5642SOL    HW322335   3.141   4.200   1.914 -0.0244  1.2984  0.6733
 5642SOL    MW422336   3.143   4.208   1.827 -0.5181  0.2131 -0.2124
 5643SOL     OW22337   3.601   5.770   4.543  0.3848  0.1195 -0.5464
 5643SOL    HW222338   3.658   5.694   4.550  1.6606  1.1369  0.7335
 5643SOL    HW322339   3.640   5.835   4.601  0.1921  2.2922 -2.6710
 5643SOL    MW422340   3.613   5.769   4.552 -0.4029  0.3059 -0.1229
 5644SOL     OW22341   3.734   4.603   5.624 -0.2942  0.0940 -0.1440
 5644SOL    HW222342   3.714   4.513   5.653 -0.6259 -0.1840 -1.1868
 5644SOL    HW322343   3.724   4.656   5.703  0.0864 -0.8118  0.5301
 5644SOL    MW422344   3.730   4.598   5.638 -0.2607 -0.4019  0.2523
 5645SOL     OW22345   6.275   4.345   6.137  0.2965  0.0296  0.8908
 5645SOL    HW222346   6.361   4.383   6.160  1.8813 -2.2157 -0.8814
 5645SOL    HW322347   6.255   4.383   6.052  0.3818 -0.7166  0.5319
 5645SOL    MW422348   6.284   4.355   6.129  0.3904  0.4455 -0.0975
 5646SOL     OW22349   0.482   4.050   0.140  0.0914 -0.5553  0.3815
 5646SOL    HW222350   0.547   3.999   0.091  0.7565  0.5585  0.0717
 5646SOL    HW322351   0.493   4.020   0.231 -1.2307 -2.7119 -0.0969
 5646SOL    MW422352   0.492   4.039   0.146  0.1647  0.1007 -0.0089
 5647SOL     OW22353   5.781   0.607   0.561  0.0889 -0.5300 -0.1204
 5647SOL    HW222354   5.689   0.635   0.559  0.1947 -0.2142 -1.3879
 5647SOL    HW322355   5.830   0.688   0.573  0.2110 -0.6784  0.3787
 5647SOL    MW422356   5.775   0.622   0.562  0.0974 -0.3934  0.0063
 5648SOL     OW22357   4.932   5.529   0.973  0.1428  0.2691 -0.6594
 5648SOL    HW222358   5.012   5.516   1.023 -0.8219  0.0336  0.8886
 5648SOL    HW322359   4.910   5.621   0.985 -0.8722 -0.1018  0.6505
 5648SOL    MW422360   4.940   5.539   0.981  0.0659  0.0898 -0.1801
 5649SOL     OW22361   4.512   0.835   1.667  0.4203  0.1937  0.2316
 5649SOL    HW222362   4.449   0.827   1.738 -1.1629 -0.7652 -1.1990
 5649SOL    HW322363   4.514   0.928   1.646 -0.0348  0.3137  0.7130
 5649SOL    MW422364   4.504   0.846   1.674 -0.1244 -0.0396  0.6314
 5650SOL     OW22365   2.229   4.188   1.321 -0.1351  0.1013 -0.3974
 5650SOL    HW222366   2.205   4.220   1.408  0.9675  2.3761 -0.8488
 5650SOL    HW322367   2.268   4.102   1.337  1.1076  0.9648  1.5151
 5650SOL    MW422368   2.231   4.181   1.335  0.4242  0.4831 -0.3599
 5651SOL     OW22369   3.958   4.776   1.774 -0.0452 -0.7908 -0.3418
 5651SOL    HW222370   3.879   4.725   1.795  0.5891 -1.1785  1.2666
 5651SOL    HW322371   3.928   4.867   1.776 -0.4759 -0.9356  0.2130
 5651SOL    MW422372   3.943   4.781   1.777  0.3393 -0.1953  0.4689
 5652SOL     OW22373   5.853   0.501   0.987  0.0877  0.3879 -0.1567
 5652SOL    HW222374   5.758   0.514   0.987 -0.5438 -3.2161 -0.1968
 5652SOL    HW322375   5.877   0.494   0.895  0.1373 -0.0196 -0.1168
 5652SOL    MW422376   5.844   0.502   0.975 -0.0041 -0.1951 -0.3535
 5653SOL     OW22377   3.923   1.888   1.656  0.5762  0.6572 -0.0729
 5653SOL    HW222378   3.995   1.872   1.594 -0.1519  2.3697 -1.4350
 5653SOL    HW322379   3.967   1.921   1.735  1.4140 -0.2022 -0.1550
 5653SOL    MW422380   3.938   1.890   1.658 -0.2108 -0.4433  0.2663
 5654SOL     OW22381   0.154   6.217   1.817 -0.0406  0.3245  0.1800
 5654SOL    HW222382   0.186   6.158   1.749  0.2668  0.1872  0.4452
 5654SOL    HW322383   0.203   6.193   1.895 -0.6288  0.2666  0.5333
 5654SOL    MW422384   0.165   6.206   1.818  0.2578 -0.2089 -0.3749
 5655SOL     OW22385   5.249   1.724   5.186 -0.8083 -0.1116 -0.3399
 5655SOL    HW222386   5.269   1.700   5.095 -0.6611 -0.3222 -0.2551
 5655SOL    HW322387   5.328   1.769   5.216 -0.4724 -0.8813 -0.0255
 5655SOL    MW422388   5.262   1.727   5.178 -0.2440 -0.3814  0.3745
 5656SOL     OW22389   3.791   1.550   2.289 -0.2845 -0.0124  0.5839
 5656SOL    HW222390   3.727   1.515   2.351 -0.3887  0.3217  0.6683
 5656SOL    HW322391   3.767   1.643   2.280 -0.0653  0.0172  0.3009
 5656SOL    MW422392   3.779   1.558   2.296  0.3664  0.0427 -0.2632
 5657SOL     OW22393   0.680   2.668   5.500  0.0422 -0.0329  0.1485
 5657SOL    HW222394   0.761   2.696   5.545  0.2456  0.8996 -0.7669
 5657SOL    HW322395   0.698   2.684   5.408 -0.1134 -2.5787 -0.3790
 5657SOL    MW422396   0.693   2.674   5.494  0.2930 -0.9614 -0.4493
 5658SOL     OW22397   3.595   4.852   3.340 -0.5646  0.0183  0.1789
 5658SOL    HW222398   3.529   4.837   3.272 -1.4885 -0.4644  1.1438
 5658SOL    HW322399   3.636   4.935   3.316  0.5010 -1.0399 -2.0136
 5658SOL    MW422400   3.592   4.861   3.328  0.0154 -0.1814  0.0239
 5659SOL     OW22401   6.310   1.567   2.076  0.2147 -0.0949  0.0830
 5659SOL    HW222402   6.375   1.636   2.065  0.4648 -0.3270  0.1122
 5659SOL    HW322403   6.278   1.577   2.166 -0.5287  0.6617 -0.2503
 5659SOL    MW422404   6.314   1.577   2.087  0.0157  0.0722 -0.2372
 5660SOL     OW22405   6.283   1.962   3.807 -0.1527  0.1508 -0.7460
 5660SOL    HW222406   6.304   2.003   3.723 -1.1899 -1.3265 -1.7905
 5660SOL    HW322407   6.226   1.889   3.784  0.2678 -0.8529  1.1847
 5660SOL    MW422408   6.278   1.958   3.793 -0.2622  0.6667 -0.5912
 5661SOL     OW22409   1.162   4.392   2.454  0.0035  0.4682  0.6000
 5661SOL    HW222410   1.255   4.385   2.478 -0.0362 -0.1968  0.5837
 5661SOL    HW322411   1.149   4.485   2.435  0.9522  0.3902 -0.5424
 5661SOL    MW422412   1.173   4.403   2.455 -0.3190  0.1413  0.3450
 5662SOL     OW22413   5.072   1.404   1.642  0.0430  0.2961 -0.1701
 5662SOL    HW222414   5.143   1.371   1.697  0.6654  2.3995  0.4026
 5662SOL    HW322415   5.002   1.425   1.704  0.0371  0.9236 -0.3799
 5662SOL    MW422416   5.072   1.403   1.658  0.6207  0.2224  0.1052
 5663SOL     OW22417   5.185   1.117   5.555 -0.0019 -0.0525  0.1809
 5663SOL    HW222418   5.277   1.116   5.529 -0.1689 -0.0080 -0.4463
 5663SOL    HW322419   5.148   1.192   5.508 -0.4878 -0.4342 -0.0603
 5663SOL    MW422420   5.192   1.127   5.545 -0.2899  0.3704  0.5059
 5664SOL     OW22421   1.247   3.423   4.352  0.0710  0.2128  0.1282
 5664SOL    HW222422   1.187   3.350   4.366  2.4743 -2.0230 -0.4127
 5664SOL    HW322423   1.334   3.386   4.367  1.6820  2.0275 -3.4575
 5664SOL    MW422424   1.251   3.408   4.356 -0.4327  0.5010 -0.0574
 5665SOL     OW22425   2.668   0.862   5.891  0.4183  0.1280 -0.0739
 5665SOL    HW222426   2.744   0.904   5.931 -0.1133 -1.2163  2.5974
 5665SOL    HW322427   2.704   0.782   5.852  0.5103 -0.1157  0.4964
 5665SOL    MW422428   2.683   0.857   5.891  0.4048 -0.0911 -0.3423
 5666SOL     OW22429   5.130   3.521   6.108  0.0048 -0.4971  0.3308
 5666SOL    HW222430   5.088   3.438   6.086  1.8731 -1.5538  0.5490
 5666SOL    HW322431   5.222   3.507   6.088  0.2718  1.7898 -0.2956
 5666SOL    MW422432   5.136   3.508   6.102 -0.6638  0.4800  0.1605
 5667SOL     OW22433   0.512   4.250   1.909  0.1844  0.3575  0.3334
 5667SOL    HW222434   0.445   4.191   1.944 -0.7138  0.6972 -0.7597
 5667SOL    HW322435   0.571   4.267   1.984 -0.2116 -0.9558  0.9720
 5667SOL    MW422436   0.511   4.245   1.924  0.3084 -0.2045  0.5160
 5668SOL     OW22437   3.144   4.420   5.691  0.6418 -0.2691 -0.0240
 5668SOL    HW222438   3.093   4.339   5.685 -1.6307  1.1790 -1.5509
 5668SOL    HW322439   3.142   4.442   5.785 -0.3240 -1.0022  0.1442
 5668SOL    MW422440   3.137   4.412   5.703  0.2616 -0.0325  0.2898
 5669SOL     OW22441   0.224   2.770   0.662  0.2434 -0.4104  0.2785
 5669SOL    HW222442   0.258   2.713   0.731  1.1277 -0.0427  0.1680
 5669SOL    HW322443   0.171   2.712   0.607 -0.7818 -0.6353  1.4545
 5669SOL    MW422444   0.222   2.755   0.664 -0.0292  0.0725  0.6622
 5670SOL     OW22445   3.666   5.808   0.206 -0.0081  0.3473 -0.4653
 5670SOL    HW222446   3.594   5.818   0.144 -0.4975  0.1394  0.0586
 5670SOL    HW322447   3.721   5.740   0.168  0.8685  1.7183 -1.7479
 5670SOL    MW422448   3.664   5.801   0.193 -0.1711  0.3863  0.7663
 5671SOL     OW22449   1.674   0.970   3.865  0.0177  0.3725  0.1828
 5671SOL    HW222450   1.669   1.056   3.906 -0.2420 -0.0944  1.1593
 5671SOL    HW322451   1.629   0.912   3.926  2.3155 -0.9074  0.7950
 5671SOL    MW422452   1.667   0.974   3.879  0.6860  0.2016 -0.0565
 5672SOL     OW22453   4.526   4.658   3.747 -0.5970  0.2463  0.1150
 5672SOL    HW222454   4.512   4.579   3.695  0.6456 -0.3080  0.5848
 5672SOL    HW322455   4.449   4.663   3.804 -0.8700 -0.4010 -0.1889
 5672SOL    MW422456   4.514   4.648   3.748  0.2042  0.3608  0.7903
 5673SOL     OW22457   0.310   3.857   3.738 -0.0537 -0.1809 -0.2349
 5673SOL    HW222458   0.339   3.873   3.648  0.1606 -0.7807 -0.2768
 5673SOL    HW322459   0.378   3.801   3.776  1.4323  2.4255  1.2614
 5673SOL    MW422460   0.323   3.851   3.731 -0.4728 -0.2349 -0.1166
 5674SOL     OW22461   3.820   3.212   1.371 -0.0010  0.0931 -0.3079
 5674SOL    HW222462   3.897   3.183   1.322  0.8305 -0.4469  1.2533
 5674SOL    HW322463   3.849   3.291   1.416 -1.0289  1.0974 -1.3619
 5674SOL    MW422464   3.834   3.218   1.371  0.0961 -0.0845 -0.0357
 5675SOL     OW22465   4.204   2.070   5.316 -0.5446 -0.2006  0.3720
 5675SOL    HW222466   4.165   1.996   5.269 -0.4087  0.0925 -0.2067
 5675SOL    HW322467   4.159   2.072   5.400 -0.7999 -0.7208  0.2491
 5675SOL    MW422468   4.193   2.060   5.321 -0.2574  0.3650 -0.2209
 5676SOL     OW22469   0.948   0.916   1.180  0.1971  0.4780 -0.4349
 5676SOL    HW222470   1.034   0.935   1.219 -0.0081 -0.0291  0.2880
 5676SOL    HW322471   0.966   0.905   1.087  1.4568 -2.7321  0.0736
 5676SOL    MW422472   0.962   0.917   1.173  0.2279 -0.1798 -0.2761
 5677SOL     OW22473   3.930   0.366   3.531  0.0435 -0.0810  0.5904
 5677SOL    HW222474   3.925   0.461   3.532  2.1638  0.1321 -1.3203
 5677SOL    HW322475   3.840   0.338   3.515 -0.5119  1.6223  0.5242
 5677SOL    MW422476   3.917   0.375   3.529 -0.0800  0.0434  0.2425
 5678SOL     OW22477   2.005   2.547   4.914  0.3288 -0.0661  0.0761
 5678SOL    HW222478   2.001   2.624   4.856  0.6279  2.0708  2.6995
 5678SOL    HW322479   2.097   2.520   4.913  0.1779 -0.6197 -1.0473
 5678SOL    MW422480   2.016   2.554   4.906  0.2036 -0.7893  0.1059
 5679SOL     OW22481   2.722   5.617   6.348  0.3189  0.5200  0.3061
 5679SOL    HW222482   2.643   5.567   6.326  0.2047  1.0795 -0.6213
 5679SOL    HW322483   2.767   5.563   6.413  0.3518 -0.9378 -0.8705
 5679SOL    MW422484   2.717   5.603   6.354  0.6142 -0.6308  0.0782
 5680SOL     OW22485   4.921   1.144   2.859  0.3419 -0.2990  0.0926
 5680SOL    HW222486   4.886   1.056   2.871  1.3101 -0.6152  0.7077
 5680SOL    HW322487   4.954   1.169   2.945  0.9370  0.2712 -0.2884
 5680SOL    MW422488   4.921   1.136   2.872  0.0661  0.1816 -0.6495
 5681SOL     OW22489   6.030   5.116   0.907 -0.4558 -0.0418 -0.5158
 5681SOL    HW222490   6.092   5.086   0.841 -2.4510 -0.4885 -2.2814
 5681SOL    HW322491   5.944   5.109   0.866 -1.8391 -0.4296  2.1653
 5681SOL    MW422492   6.027   5.111   0.893  0.9032 -0.1270 -0.1635
 5682SOL     OW22493   2.236   2.647   2.174 -0.5307 -0.2900 -0.2453
 5682SOL    HW222494   2.326   2.677   2.160 -1.0360  0.4450 -2.2236
 5682SOL    HW322495   2.187   2.727   2.193 -0.8939 -0.6140  0.2200
 5682SOL    MW422496   2.242   2.662   2.175  0.0262  0.3164  0.2444
 5683SOL     OW22497   1.720   3.987   0.890  0.0228  0.4276 -0.0066
 5683SOL    HW222498   1.776   4.005   0.814 -1.2245  2.3914 -0.5540
 5683SOL    HW322499   1.650   3.931   0.856  0.6602 -0.5478  0.2548
 5683SOL    MW422500   1.718   3.982   0.876 -0.6512  0.2834  0.0006
 5684SOL     OW22501   5.585   2.961   2.748  0.0519 -0.3451 -0.9401
 5684SOL    HW222502   5.557   2.994   2.834  0.1775 -0.3276 -0.9056
 5684SOL    HW322503   5.508   2.915   2.714  0.5899 -2.0674  0.0286
 5684SOL    MW422504   5.571   2.960   2.755  0.9018 -0.2382  0.2596
 5685SOL     OW22505   0.065   3.473   4.596  0.0948 -0.4144 -0.0938
 5685SOL    HW222506   0.090   3.409   4.663  0.9200  0.6251  0.6285
 5685SOL    HW322507   0.075   3.425   4.513  2.7381 -0.6822  0.2754
 5685SOL    MW422508   0.070   3.458   4.594  0.0315 -0.4310 -0.4360
 5686SOL     OW22509   3.017   0.858   0.983  0.2040 -0.0143  0.0224
 5686SOL    HW222510   3.090   0.862   0.920 -1.9888 -1.1834 -2.8388
 5686SOL    HW322511   3.027   0.772   1.025  1.3094  0.4939  0.8607
 5686SOL    MW422512   3.028   0.847   0.980 -0.9148 -0.6605  0.5788
 5687SOL     OW22513   5.204   3.035   3.016 -0.0747 -0.0237 -0.6633
 5687SOL    HW222514   5.188   2.985   2.936  1.7084 -0.6439 -0.6916
 5687SOL    HW322515   5.186   2.974   3.087 -3.9745  1.1913 -0.3695
 5687SOL    MW422516   5.200   3.021   3.015 -0.1107  0.0396 -0.3402
 5688SOL     OW22517   0.547   2.262   0.163 -0.2084  0.3546 -0.6786
 5688SOL    HW222518   0.512   2.268   0.074  0.8080 -0.1369 -1.1295
 5688SOL    HW322519   0.572   2.170   0.172  2.3000  0.9412 -0.9282
 5688SOL    MW422520   0.546   2.250   0.152 -0.5023  0.4337  0.2167
 5689SOL     OW22521   2.235   2.310   3.309 -0.2136 -0.3354  0.2523
 5689SOL    HW222522   2.201   2.398   3.297 -2.9017 -1.2784  0.3430
 5689SOL    HW322523   2.238   2.272   3.221  0.1123 -0.4458  0.3071
 5689SOL    MW422524   2.231   2.316   3.296 -0.1888  0.0621 -0.3369
 5690SOL     OW22525   3.306   1.872   0.639 -0.2518 -0.4862 -0.6419
 5690SOL    HW222526   3.311   1.778   0.620  1.4028 -0.1812 -1.9477
 5690SOL    HW322527   3.266   1.910   0.561  2.7950  0.3056 -1.9589
 5690SOL    MW422528   3.302   1.864   0.626 -0.0830 -0.7378  0.7021
 5691SOL     OW22529   0.535   0.603   1.975 -0.7196 -0.5430  0.0558
 5691SOL    HW222530   0.505   0.649   1.896 -0.5905 -2.6667 -1.2919
 5691SOL    HW322531   0.591   0.667   2.020  0.7953  0.1280 -2.5662
 5691SOL    MW422532   0.538   0.618   1.971  0.2994 -0.0948 -0.4456
 5692SOL     OW22533   5.708   2.706   2.113  0.7037  0.2213  0.2355
 5692SOL    HW222534   5.629   2.668   2.152  0.4764 -0.3708 -0.7720
 5692SOL    HW322535   5.750   2.752   2.185  0.9441 -1.8672  1.5074
 5692SOL    MW422536   5.703   2.707   2.128 -0.0828  0.0872 -0.0753
 5693SOL     OW22537   1.038   2.401   6.196  0.1461  0.5817 -0.1477
 5693SOL    HW222538   1.057   2.320   6.149 -0.8283  0.3531 -0.1630
 5693SOL    HW322539   1.064   2.383   6.286  0.5508  0.4854 -0.2803
 5693SOL    MW422540   1.044   2.388   6.202 -0.5205  0.3198  0.2329
 5694SOL     OW22541   5.216   3.585   6.369 -0.3709  0.0868 -0.2736
 5694SOL    HW222542   5.205   3.573   6.275  0.7685 -1.9706 -0.1871
 5694SOL    HW322543   5.277   3.658   6.377 -0.3704  0.1814 -1.1130
 5694SOL    MW422544   5.222   3.593   6.358  0.7755 -0.6811 -0.6132
 5695SOL     OW22545   3.629   0.312   1.123 -0.8772  0.4275  0.3560
 5695SOL    HW222546   3.600   0.384   1.066 -0.7623  0.7203  0.6622
 5695SOL    HW322547   3.724   0.322   1.127 -0.9175  0.6217  0.8774
 5695SOL    MW422548   3.638   0.323   1.116  0.1864  0.6018  0.6171
 5696SOL     OW22549   5.071   5.023   4.469  0.0906 -0.2746  0.0822
 5696SOL    HW222550   5.151   5.040   4.418 -0.3154 -1.1553 -0.8769
 5696SOL    HW322551   5.103   4.984   4.550  0.6283 -1.0939 -0.5059
 5696SOL    MW422552   5.086   5.020   4.473 -0.5474 -0.4971 -0.4684
 5697SOL     OW22553   4.710   3.361   1.423  0.3009  0.2228  0.3202
 5697SOL    HW222554   4.769   3.292   1.454  0.0450 -0.5825 -0.8929
 5697SOL    HW322555   4.714   3.354   1.328 -2.2539 -0.3399  0.1834
 5697SOL    MW422556   4.718   3.351   1.415  0.0354  0.0752  0.6076
 5698SOL     OW22557   4.892   3.589   3.011  0.2081 -0.0138 -0.0322
 5698SOL    HW222558   4.940   3.561   2.933 -0.2775  1.1646 -0.7801
 5698SOL    HW322559   4.806   3.547   3.003 -0.2627  1.0290 -0.7792
 5698SOL    MW422560   4.887   3.580   2.999  0.1304 -0.5716  0.0747
 5699SOL     OW22561   0.788   3.972   1.039  0.3703 -0.4783 -0.1030
 5699SOL    HW222562   0.849   3.993   1.110  0.2364 -1.2844  0.2643
 5699SOL    HW322563   0.843   3.944   0.967  0.4552 -0.9136  0.1272
 5699SOL    MW422564   0.803   3.971   1.039  0.3315 -0.4315  0.2987
 5700SOL     OW22565   0.229   0.124   3.329  0.6990  0.6599 -0.2160
 5700SOL    HW222566   0.179   0.105   3.409 -0.7792  0.8807 -1.0625
 5700SOL    HW322567   0.217   0.047   3.274  0.4322  1.1471 -0.8479
 5700SOL    MW422568   0.221   0.111   3.332 -0.1652  0.1191 -0.3195
 5701SOL     OW22569   1.443   3.936   4.612 -0.0931  0.2863  0.7397
 5701SOL    HW222570   1.421   3.984   4.692 -0.7946 -0.9591  1.3156
 5701SOL    HW322571   1.379   3.865   4.608  0.9874 -0.6781 -0.0264
 5701SOL    MW422572   1.431   3.933   4.622  0.4991 -0.2693  0.3231
 5702SOL     OW22573   2.532   2.290   5.502 -0.3735  0.4410 -0.0625
 5702SOL    HW222574   2.586   2.328   5.433  2.0679 -1.5229  0.6432
 5702SOL    HW322575   2.546   2.346   5.578 -0.0709  0.4750 -0.1424
 5702SOL    MW422576   2.541   2.302   5.503  0.5110  0.4079 -0.3015
 5703SOL     OW22577   4.080   3.884   1.226  0.1041 -0.0408  0.1886
 5703SOL    HW222578   4.025   3.883   1.304  1.1841 -1.9899  0.9936
 5703SOL    HW322579   4.020   3.868   1.153 -0.5611 -1.0405  0.9358
 5703SOL    MW422580   4.065   3.882   1.226  0.3458 -0.7477 -0.2403
 5704SOL     OW22581   0.638   6.103   5.575 -0.1196  0.0606 -0.0512
 5704SOL    HW222582   0.544   6.123   5.579  0.0572  1.0570 -0.7827
 5704SOL    HW322583   0.677   6.158   5.643  0.2026  1.3225 -1.2217
 5704SOL    MW422584   0.631   6.113   5.585 -0.7613 -0.5739  0.6145
 5705SOL     OW22585   3.062   3.823   2.602 -0.2966 -0.1021 -0.4471
 5705SOL    HW222586   3.017   3.793   2.680  0.5515  0.7529  0.3934
 5705SOL    HW322587   2.996   3.874   2.554 -0.3311  0.8858  0.6192
 5705SOL    MW422588   3.048   3.826   2.606  0.1642  0.0803  0.3237
 5706SOL     OW22589   0.926   2.971   1.508 -0.3677 -0.1323 -0.2762
 5706SOL    HW222590   0.964   2.912   1.443  0.4481  0.3671 -0.2705
 5706SOL    HW322591   0.999   3.025   1.537 -1.2472  1.4603 -0.9062
 5706SOL    MW422592   0.941   2.970   1.503  0.3005  0.0939  0.1754
 5707SOL     OW22593   2.381   3.000   6.085 -0.3644  0.4471 -0.2718
 5707SOL    HW222594   2.310   3.003   6.149  0.9287  1.4426  1.1964
 5707SOL    HW322595   2.389   2.907   6.062 -1.1086  0.1214  0.7403
 5707SOL    MW422596   2.373   2.988   6.091 -0.5353  0.1565  0.3274
 5708SOL     OW22597   0.924   4.429   4.535 -0.3140 -0.2252  0.3526
 5708SOL    HW222598   0.975   4.439   4.455  1.0550 -0.9553  1.1154
 5708SOL    HW322599   0.833   4.429   4.504  0.1747 -3.8952 -1.6789
 5708SOL    MW422600   0.918   4.430   4.520  0.7997 -0.0677 -0.4199
 5709SOL     OW22601   6.195   3.596   3.430  0.3304 -0.2223  0.0890
 5709SOL    HW222602   6.182   3.612   3.523  0.1509  0.8779 -0.1108
 5709SOL    HW322603   6.271   3.539   3.426 -0.6127 -1.5985  0.9766
 5709SOL    MW422604   6.203   3.591   3.442  0.8605  0.3896  0.5407
 5710SOL     OW22605   2.134   0.892   5.860 -0.4957 -0.7648 -0.1777
 5710SOL    HW222606   2.152   0.860   5.771  1.7612 -0.7286  0.2127
 5710SOL    HW322607   2.132   0.988   5.851  1.0264 -0.6953 -0.0187
 5710SOL    MW422608   2.136   0.901   5.847  0.5435  0.5876  0.4626
 5711SOL     OW22609   2.268   3.811   2.236  0.2345 -0.4793  0.3347
 5711SOL    HW222610   2.253   3.860   2.317  0.0937  1.2334 -0.6762
 5711SOL    HW322611   2.356   3.835   2.209 -0.6380  1.0659 -1.3519
 5711SOL    MW422612   2.277   3.820   2.243 -0.7990  0.2815 -0.3312
 5712SOL     OW22613   2.607   4.254   1.417  0.3079 -0.4065  0.0720
 5712SOL    HW222614   2.559   4.297   1.347  0.4289 -0.7561 -0.2286
 5712SOL    HW322615   2.626   4.324   1.480  0.4153 -0.0465 -0.3597
 5712SOL    MW422616   2.603   4.269   1.416 -0.6519 -0.5864 -0.3763
 5713SOL     OW22617   6.158   6.338   1.276  0.2297  0.3769  0.1469
 5713SOL    HW222618   6.107   6.278   1.330  0.0127  1.0052  0.6492
 5713SOL    HW322619   6.122   6.425   1.296 -0.4894  0.5582 -1.6801
 5713SOL    MW422620   6.146   6.342   1.285 -0.0981 -0.8838  0.1075
 5714SOL     OW22621   4.209   4.289   4.472  0.0214  0.4227  0.3693
 5714SOL    HW222622   4.265   4.317   4.545 -0.5213 -0.4417  1.1338
 5714SOL    HW322623   4.226   4.353   4.403  0.3833  1.3834  1.3280
 5714SOL    MW422624   4.219   4.301   4.472 -0.0685  0.3466 -0.1720
 5715SOL     OW22625   4.478   5.527   6.045  0.2199  0.5968  0.0106
 5715SOL    HW222626   4.449   5.578   6.121 -0.0478  0.4235  0.0258
 5715SOL    HW322627   4.513   5.446   6.082 -1.9275 -0.4657 -0.1489
 5715SOL    MW422628   4.479   5.523   6.060  0.4886 -0.3862  0.1869
 5716SOL     OW22629   0.177   3.170   5.629 -0.2911  0.1765 -0.6698
 5716SOL    HW222630   0.156   3.113   5.702 -2.4627  1.1704 -0.4267
 5716SOL    HW322631   0.173   3.114   5.552 -3.0622  0.0476 -0.5101
 5716SOL    MW422632   0.174   3.155   5.628 -0.3239  0.6681 -0.1215
 5717SOL     OW22633   3.585   0.308   2.709 -0.6829 -0.0537 -0.1257
 5717SOL    HW222634   3.537   0.336   2.787 -1.2761  0.8874 -0.8186
 5717SOL    HW322635   3.634   0.385   2.682 -0.8226 -0.2498 -0.9439
 5717SOL    MW422636   3.585   0.322   2.716  0.4336  0.0928  0.5502
 5718SOL     OW22637   0.221   3.917   5.028 -0.3914 -0.1371  0.6365
 5718SOL    HW222638   0.137   3.879   5.053  0.2874 -2.0814  0.0867
 5718SOL    HW322639   0.214   3.929   4.933  0.7293 -2.5352  0.1753
 5718SOL    MW422640   0.209   3.914   5.018 -0.6857 -0.3314 -0.8487
 5719SOL     OW22641   5.340   4.041   2.188  0.6061  0.3724  0.4106
 5719SOL    HW222642   5.435   4.036   2.175  0.5870  0.7535  0.1230
 5719SOL    HW322643   5.320   3.966   2.244  1.0581  0.2149  0.3661
 5719SOL    MW422644   5.350   4.030   2.194  0.1194 -0.1435 -0.5276
 5720SOL     OW22645   4.822   1.394   0.072 -0.4300 -0.2750  0.1858
 5720SOL    HW222646   4.852   1.303   0.070  0.1971 -0.0803  0.3588
 5720SOL    HW322647   4.757   1.396   0.142 -1.3704 -0.8548 -0.6458
 5720SOL    MW422648   4.817   1.382   0.081 -0.1286 -0.2543 -0.3647
 5721SOL     OW22649   4.119   4.470   5.118 -0.2469  0.0697  0.0703
 5721SOL    HW222650   4.187   4.480   5.184 -1.1718 -0.4267  1.1270
 5721SOL    HW322651   4.107   4.376   5.109 -1.3111  0.1627  0.4424
 5721SOL    MW422652   4.127   4.459   5.125 -0.4461 -0.0827 -0.7086
 5722SOL     OW22653   5.864   2.953   3.080  0.1768  0.4297  0.2310
 5722SOL    HW222654   5.834   2.895   3.010 -0.6070 -0.6376  1.4011
 5722SOL    HW322655   5.960   2.951   3.073  0.1110  0.8258 -1.1597
 5722SOL    MW422656   5.873   2.945   3.070 -0.0241  0.0446  0.0043
 5723SOL     OW22657   0.448   4.243   6.340 -0.2636  0.4336  0.5402
 5723SOL    HW222658   0.382   4.241   6.410 -1.4334  1.3339 -0.4909
 5723SOL    HW322659   0.480   4.153   6.334 -1.7149 -0.1220  0.7931
 5723SOL    MW422660   0.444   4.231   6.348 -0.0993 -0.8573  0.3939
 5724SOL     OW22661   2.318   4.628   3.520 -0.4001 -0.0975 -0.3830
 5724SOL    HW222662   2.380   4.584   3.578 -0.4724  1.9130  1.3633
 5724SOL    HW322663   2.316   4.719   3.552 -1.7526  0.6949 -2.4906
 5724SOL    MW422664   2.326   4.634   3.532 -0.2771 -0.1252 -0.8269
 5725SOL     OW22665   0.978   4.175   0.372  0.1841  0.5655 -0.1054
 5725SOL    HW222666   1.000   4.116   0.445  0.7075  0.7282 -0.1258
 5725SOL    HW322667   1.061   4.219   0.351 -0.0754  0.8870 -0.4704
 5725SOL    MW422668   0.992   4.173   0.379  0.4186 -0.2216  0.6310
 5726SOL     OW22669   3.319   1.689   1.366 -1.1725 -0.1435 -0.6610
 5726SOL    HW222670   3.388   1.756   1.372  0.7635 -2.1639  3.7496
 5726SOL    HW322671   3.338   1.643   1.284  2.3345 -0.0593 -0.0711
 5726SOL    MW422672   3.331   1.692   1.356 -0.1618 -0.4873 -0.4986
 5727SOL     OW22673   2.883   4.213   0.439  0.0420  0.3695  0.1074
 5727SOL    HW222674   2.880   4.120   0.418 -1.9565 -0.5382  3.6253
 5727SOL    HW322675   2.829   4.255   0.372 -0.0535 -1.1752 -0.8124
 5727SOL    MW422676   2.875   4.207   0.427  0.7928  0.3470 -0.2862
 5728SOL     OW22677   3.143   0.469   5.722  0.9525  0.1036  0.4047
 5728SOL    HW222678   3.179   0.504   5.641 -0.8400 -1.3036 -1.0947
 5728SOL    HW322679   3.177   0.379   5.726  1.0047  0.1531  1.2164
 5728SOL    MW422680   3.152   0.462   5.712  0.1343  0.4948 -0.7757
 5729SOL     OW22681   3.951   2.849   1.258 -0.0187  0.0397  0.0132
 5729SOL    HW222682   3.979   2.869   1.169  1.0662 -1.2585  0.0370
 5729SOL    HW322683   3.857   2.869   1.259  0.3774  2.2571 -0.7440
 5729SOL    MW422684   3.942   2.854   1.246  0.1522  0.2544 -0.0277
 5730SOL     OW22685   6.318   0.551   5.374 -0.7269 -0.4882  0.1890
 5730SOL    HW222686   6.324   0.461   5.407  1.3690 -0.2139  0.7294
 5730SOL    HW322687   6.260   0.545   5.298 -0.5456 -2.3182  0.1473
 5730SOL    MW422688   6.311   0.538   5.368 -0.2005 -0.0575 -0.1550
 5731SOL     OW22689   1.559   1.143   0.706  0.0746 -0.6541  0.4113
 5731SOL    HW222690   1.617   1.140   0.630 -1.3026 -2.2227 -0.6540
 5731SOL    HW322691   1.547   1.236   0.723  0.4778 -0.2636 -1.2565
 5731SOL    MW422692   1.565   1.155   0.698 -0.0635  0.4133 -0.3680
 5732SOL     OW22693   3.908   2.574   2.306 -0.4151 -0.4741 -0.2442
 5732SOL    HW222694   3.862   2.657   2.292 -0.1272  0.1968  2.1929
 5732SOL    HW322695   3.924   2.540   2.219 -0.2023  2.2315 -1.3710
 5732SOL    MW422696   3.904   2.581   2.293  0.5855  0.3331  0.2530
 5733SOL     OW22697   0.713   4.565   1.706 -0.0136  0.0990 -1.0086
 5733SOL    HW222698   0.635   4.578   1.761  0.8004 -0.8664  0.4252
 5733SOL    HW322699   0.677   4.541   1.620 -1.3059 -0.0530 -0.4551
 5733SOL    MW422700   0.698   4.563   1.702 -0.0997  0.1265 -0.0932
 5734SOL     OW22701   2.786   6.292   4.097 -0.4188 -0.5969 -0.2201
 5734SOL    HW222702   2.845   6.343   4.152 -0.7948 -0.8072  0.3881
 5734SOL    HW322703   2.837   6.215   4.072  0.0364 -0.0972 -0.8665
 5734SOL    MW422704   2.801   6.288   4.101  0.4719  0.0225 -0.4079
 5735SOL     OW22705   4.848   2.616   5.697  0.6921 -0.6274 -0.5267
 5735SOL    HW222706   4.834   2.527   5.665  1.9307 -0.9715 -0.1491
 5735SOL    HW322707   4.902   2.658   5.629  1.3927 -0.6477  0.0084
 5735SOL    MW422708   4.853   2.610   5.684 -0.6766  0.0908 -0.0370
 5736SOL     OW22709   3.984   5.940   2.358  0.2130  1.1310  0.4940
 5736SOL    HW222710   4.006   5.966   2.447 -1.4344  1.0707  0.9526
 5736SOL    HW322711   3.921   5.869   2.368  0.3788  0.7821 -0.7255
 5736SOL    MW422712   3.978   5.934   2.371  0.0232 -0.1713 -0.0952
 5737SOL     OW22713   5.038   4.463   5.149  0.1262  0.3137  0.8068
 5737SOL    HW222714   5.079   4.385   5.186  0.9262  0.4254  0.1911
 5737SOL    HW322715   5.060   4.533   5.210  1.1408  0.4285  0.3399
 5737SOL    MW422716   5.046   4.462   5.162  0.7089 -0.2563  0.2061
 5738SOL     OW22717   1.053   1.771   4.657 -0.1384 -0.0194 -0.2452
 5738SOL    HW222718   0.964   1.793   4.629  0.5935  0.4730 -2.4103
 5738SOL    HW322719   1.107   1.842   4.622  0.7784  1.9380  4.3805
 5738SOL    MW422720   1.048   1.783   4.648 -0.0668 -0.3354  0.2829
 5739SOL     OW22721   5.840   1.765   5.027  0.4233 -0.2648 -0.4341
 5739SOL    HW222722   5.751   1.764   5.063 -0.0849 -1.4219 -1.6490
 5739SOL    HW322723   5.883   1.838   5.072 -0.6922 -0.5541  1.2112
 5739SOL    MW422724   5.834   1.774   5.038 -0.5820  0.0055 -0.2973
 5740SOL     OW22725   2.965   1.902   2.370 -0.5828  0.3668 -0.5259
 5740SOL    HW222726   2.926   1.838   2.429 -0.8976 -1.4548 -2.5799
 5740SOL    HW322727   3.043   1.858   2.336  1.1411  2.4366  0.5286
 5740SOL    MW422728   2.970   1.888   2.373 -0.4256  0.0579  0.0742
 5741SOL     OW22729   2.678   4.099   4.011 -0.0774  0.4193  0.1633
 5741SOL    HW222730   2.621   4.046   4.067 -1.1271 -0.0807 -1.3184
 5741SOL    HW322731   2.758   4.048   4.003 -0.2248  0.1223  0.5605
 5741SOL    MW422732   2.681   4.085   4.017  0.3573 -0.3535  0.2098
 5742SOL     OW22733   2.327   3.048   5.559 -0.0071 -0.0636  0.6794
 5742SOL    HW222734   2.360   2.998   5.633 -1.4059 -1.6183  0.3013
 5742SOL    HW322735   2.232   3.055   5.574  0.1187  2.5764  0.7541
 5742SOL    MW422736   2.319   3.043   5.571  0.0543  0.1242 -0.1420
 5743SOL     OW22737   3.267   3.238   6.307  0.3665  0.2830 -0.2062
 5743SOL    HW222738   3.254   3.171   6.373 -1.4474 -0.4713 -1.2371
 5743SOL    HW322739   3.208   3.309   6.332 -0.7380 -0.2358 -1.2705
 5743SOL    MW422740   3.258   3.239   6.319 -0.1340 -0.2754 -0.1962
 5744SOL     OW22741   2.206   0.781   3.405 -0.0306  0.0124 -0.0314
 5744SOL    HW222742   2.169   0.749   3.322 -0.0970 -0.6486  0.2468
 5744SOL    HW322743   2.267   0.712   3.432  0.0561  0.2643  0.4271
 5744SOL    MW422744   2.209   0.768   3.397  0.3024 -0.0862 -0.0489
 5745SOL     OW22745   5.530   3.515   3.805 -0.8517  0.8517 -0.6224
 5745SOL    HW222746   5.580   3.549   3.730 -0.6724  0.7955 -0.5291
 5745SOL    HW322747   5.439   3.536   3.784 -1.0135 -0.6870 -1.6870
 5745SOL    MW422748   5.524   3.522   3.792  0.6350 -0.1250 -0.7491
 5746SOL     OW22749   5.249   2.225   0.517  0.1938  0.0685 -0.2702
 5746SOL    HW222750   5.164   2.194   0.487 -0.5541  1.4895  0.3132
 5746SOL    HW322751   5.282   2.279   0.445  1.0764 -1.2459 -0.8986
 5746SOL    MW422752   5.242   2.228   0.503 -0.2463 -0.2390 -0.3597
 5747SOL     OW22753   2.677  -0.005   4.899 -0.0945 -0.5807  0.1262
 5747SOL    HW222754   2.690  -0.059   4.821 -0.6939  0.3927 -0.6603
 5747SOL    HW322755   2.734  -0.045   4.965 -0.2207 -1.9268 -0.5467
 5747SOL    MW422756   2.686  -0.017   4.898  0.5587 -0.1744 -0.5640
 5748SOL     OW22757   5.277   0.815   1.389 -0.1928  0.3049  0.4085
 5748SOL    HW222758   5.242   0.784   1.473 -1.7061 -0.2975 -0.3966
 5748SOL    HW322759   5.223   0.891   1.368  0.1100  0.3946 -0.0454
 5748SOL    MW422760   5.265   0.821   1.397 -0.5929  0.3977 -0.2647
 5749SOL     OW22761   1.011   2.417   2.972  0.1010 -0.3911  0.8948
 5749SOL    HW222762   1.016   2.393   2.879  0.5527  1.9387  0.2526
 5749SOL    HW322763   0.952   2.352   3.010 -0.2220 -1.3243 -1.0447
 5749SOL    MW422764   1.004   2.405   2.965  0.3200  0.5983  0.1694
 5750SOL     OW22765   0.808   4.012   6.147  0.1522  0.4264 -0.2002
 5750SOL    HW222766   0.904   4.017   6.150  0.1207  0.6681  0.8810
 5750SOL    HW322767   0.780   4.062   6.224 -0.8259 -0.0973 -0.2109
 5750SOL    MW422768   0.817   4.020   6.158  0.5222 -0.6689 -0.7096
 5751SOL     OW22769   2.804   3.337   1.469  0.3131 -0.1534  0.0777
 5751SOL    HW222770   2.851   3.356   1.388 -0.9832  1.7674 -0.2838
 5751SOL    HW322771   2.749   3.414   1.484  0.2281 -0.6098  2.5917
 5751SOL    MW422772   2.803   3.350   1.460 -0.2409 -0.1084 -0.2946
 5752SOL     OW22773   1.841   2.098   2.475 -0.2029  0.1362 -0.0121
 5752SOL    HW222774   1.775   2.159   2.510  0.0199 -0.1006  0.8431
 5752SOL    HW322775   1.793   2.044   2.413 -0.7114  0.2885  0.2413
 5752SOL    MW422776   1.826   2.099   2.472  0.2247  0.2826  0.2584
 5753SOL     OW22777   1.332   2.540   4.097 -0.1077  0.2765  0.1819
 5753SOL    HW222778   1.325   2.522   4.003  2.7809 -1.9376  0.2752
 5753SOL    HW322779   1.371   2.627   4.102 -0.2224  0.3881 -0.6579
 5753SOL    MW422780   1.336   2.549   4.085  0.5557 -1.1591  0.1300
 5754SOL     OW22781   0.241   0.366   1.322 -0.1755 -0.3533  0.8916
 5754SOL    HW222782   0.325   0.393   1.358 -1.2422  0.3752  3.0214
 5754SOL    HW322783   0.195   0.448   1.304  0.9509 -0.5483 -4.2122
 5754SOL    MW422784   0.246   0.380   1.324 -0.6318 -0.7661 -0.4895
 5755SOL     OW22785   4.164   0.943   1.573  0.1262 -1.0593  0.4487
 5755SOL    HW222786   4.221   0.877   1.532  1.3188  1.2269 -1.8414
 5755SOL    HW322787   4.076   0.905   1.568  0.8970 -2.9389  0.2832
 5755SOL    MW422788   4.160   0.929   1.567 -0.3981  0.4094  0.4670
 5756SOL     OW22789   3.016   0.357   1.920  0.1496  0.3639  0.1960
 5756SOL    HW222790   3.077   0.337   1.849 -0.4699 -1.5599  0.1430
 5756SOL    HW322791   2.999   0.451   1.912  2.2578  0.7285 -0.4310
 5756SOL    MW422792   3.022   0.367   1.909  0.1382  0.1604 -0.1043
 5757SOL     OW22793   1.321   4.303   3.898  0.3673 -0.5738 -0.2324
 5757SOL    HW222794   1.407   4.272   3.925  1.3550  1.0567 -1.3663
 5757SOL    HW322795   1.333   4.332   3.807 -1.8761 -2.1752 -1.1451
 5757SOL    MW422796   1.334   4.303   3.889  0.5803 -0.2165  0.7039
 5758SOL     OW22797   4.562   3.201   2.443 -0.3032 -0.4081 -0.4628
 5758SOL    HW222798   4.532   3.286   2.410  0.9481 -0.1175 -0.9151
 5758SOL    HW322799   4.489   3.169   2.496  0.2908  2.4003  2.3520
 5758SOL    MW422800   4.548   3.208   2.446 -0.1276  0.1585  0.3081
 5759SOL     OW22801   3.200   2.739   3.684 -0.1275  0.2576 -0.0492
 5759SOL    HW222802   3.248   2.682   3.624 -1.0892 -0.3919 -0.2411
 5759SOL    HW322803   3.180   2.817   3.631  1.0978  0.7514  0.1815
 5759SOL    MW422804   3.203   2.742   3.669  0.1318 -0.4402  0.1463
 5760SOL     OW22805   2.421   1.749   0.464  0.3515  0.3323 -0.6600
 5760SOL    HW222806   2.414   1.834   0.422  1.2589  0.4833 -0.5341
 5760SOL    HW322807   2.447   1.768   0.554  0.7773 -0.0791 -0.6895
 5760SOL    MW422808   2.423   1.763   0.470 -0.3088  0.3447 -0.0592
 5761SOL     OW22809   6.136   2.925   3.077 -0.2491 -0.0992 -0.4824
 5761SOL    HW222810   6.177   2.856   3.025 -0.8601 -1.2941  0.5497
 5761SOL    HW322811   6.203   2.992   3.086  1.0173 -1.3997  0.0490
 5761SOL    MW422812   6.150   2.924   3.071 -0.3594 -0.1867  0.8338
 5762SOL     OW22813   1.825   4.021   5.340 -0.2438 -0.4392 -0.3660
 5762SOL    HW222814   1.883   4.078   5.288 -2.3690  0.5305 -1.8309
 5762SOL    HW322815   1.852   4.035   5.430  1.7737 -0.0385 -0.9759
 5762SOL    MW422816   1.837   4.030   5.345 -0.0117 -0.1129  0.1644
 5763SOL     OW22817   3.336   1.159   0.891  0.3919  0.1416 -0.1849
 5763SOL    HW222818   3.305   1.080   0.846 -3.3588 -0.0381  2.2724
 5763SOL    HW322819   3.391   1.126   0.962 -0.9613 -0.3586  0.6810
 5763SOL    MW422820   3.339   1.144   0.895 -0.4024  0.2785 -0.0958
 5764SOL     OW22821   2.834   5.822   3.079 -0.3018  0.0310 -0.4042
 5764SOL    HW222822   2.887   5.763   3.132  3.3966  1.5295 -2.0725
 5764SOL    HW322823   2.802   5.887   3.140  2.8381  1.0381  0.3520
 5764SOL    MW422824   2.837   5.822   3.094  0.3087  0.4865  0.5883
 5765SOL     OW22825   3.655   2.202   3.648 -0.1321  0.2914 -0.4228
 5765SOL    HW222826   3.656   2.183   3.554 -1.3117 -0.3468 -0.3252
 5765SOL    HW322827   3.566   2.232   3.665 -0.5180 -1.4441  0.8304
 5765SOL    MW422828   3.643   2.203   3.638 -0.1572  0.0055  0.1852
 5766SOL     OW22829   2.917   2.424   1.405  0.4397 -0.1456 -0.0024
 5766SOL    HW222830   3.008   2.406   1.381  0.7015 -0.9166  1.5012
 5766SOL    HW322831   2.897   2.506   1.359  1.6299 -0.3599 -0.9729
 5766SOL    MW422832   2.927   2.433   1.396  0.3409  0.2466  0.3550
 5767SOL     OW22833   3.083   0.714   3.473 -0.8182 -0.0726  0.1221
 5767SOL    HW222834   3.160   0.715   3.531  0.0889 -2.3106 -0.9212
 5767SOL    HW322835   3.010   0.693   3.531 -0.6134  1.5762  1.0468
 5767SOL    MW422836   3.084   0.711   3.488 -0.5609 -0.1184 -0.3563
 5768SOL     OW22837   4.705   4.078   4.170  0.3793  0.4361 -0.5006
 5768SOL    HW222838   4.773   4.095   4.105  0.0601 -0.2829 -1.0296
 5768SOL    HW322839   4.623   4.081   4.121  0.0664  0.7345  0.0313
 5768SOL    MW422840   4.703   4.081   4.155 -0.1062  0.0883  0.1322
 5769SOL     OW22841   3.318   4.670   0.658 -0.4302 -0.1082  0.2833
 5769SOL    HW222842   3.262   4.682   0.734 -0.2169 -0.3665  0.4825
 5769SOL    HW322843   3.407   4.670   0.692 -0.2908  0.5373 -0.0632
 5769SOL    MW422844   3.322   4.671   0.672  0.7993  0.5123 -0.2539
 5770SOL     OW22845   3.807   4.968   4.953 -0.2704 -0.0704  0.6414
 5770SOL    HW222846   3.765   4.884   4.937 -1.4808  0.4340  1.0960
 5770SOL    HW322847   3.884   4.946   5.006  0.5124 -1.0795 -0.8446
 5770SOL    MW422848   3.812   4.954   4.958  0.4713  0.0156 -0.0341
 5771SOL     OW22849   0.956   3.758   4.699 -0.2494  0.1308  0.1488
 5771SOL    HW222850   0.960   3.665   4.718  1.5822  0.3496  1.0899
 5771SOL    HW322851   1.025   3.797   4.754 -2.3637  2.3338  1.5090
 5771SOL    MW422852   0.966   3.751   4.709  0.0314  0.3323 -0.1300
 5772SOL     OW22853   6.113   0.576   5.154 -0.0417  0.2239  0.7208
 5772SOL    HW222854   6.044   0.627   5.196 -3.0526  0.1810 -3.5511
 5772SOL    HW322855   6.145   0.632   5.084  0.1387 -1.8239 -0.9415
 5772SOL    MW422856   6.108   0.590   5.151  0.4552  0.4626  0.5998
 5773SOL     OW22857   3.698   5.104   3.275  0.0126  0.6444  0.2582
 5773SOL    HW222858   3.693   5.149   3.359 -0.0260  3.0386 -0.9358
 5773SOL    HW322859   3.659   5.165   3.212  0.8199 -0.6755 -1.6420
 5773SOL    MW422860   3.693   5.118   3.278 -0.2736  0.0317  1.1461
 5774SOL     OW22861   3.234   3.545   5.356 -0.2341 -0.7526  0.5104
 5774SOL    HW222862   3.194   3.458   5.358 -1.2016 -0.4131 -1.6941
 5774SOL    HW322863   3.327   3.529   5.346 -0.2193 -1.5235  1.6506
 5774SOL    MW422864   3.241   3.531   5.355 -0.0354  0.3277  0.2168
 5775SOL     OW22865   3.628   2.964   6.309  0.5464  0.2636 -0.2577
 5775SOL    HW222866   3.579   3.019   6.370  1.7371 -0.6524  1.6175
 5775SOL    HW322867   3.589   2.983   6.223 -1.3764  1.4031  0.7924
 5775SOL    MW422868   3.616   2.974   6.305  0.5848  0.3666 -0.3366
 5776SOL     OW22869   1.097   5.132   3.245 -0.4996  0.2439 -0.2550
 5776SOL    HW222870   1.023   5.178   3.284  0.4087  0.6331  1.0826
 5776SOL    HW322871   1.144   5.096   3.320  1.0859  0.6404 -1.0379
 5776SOL    MW422872   1.093   5.133   3.260  0.2096 -0.2271  0.2529
 5777SOL     OW22873   0.507   5.372   5.784  0.0246  0.4092 -0.3316
 5777SOL    HW222874   0.468   5.310   5.721  0.5015  0.0291 -0.2635
 5777SOL    HW322875   0.497   5.329   5.869  0.6529  0.2665 -0.3221
 5777SOL    MW422876   0.500   5.358   5.787  0.0897 -0.4538  0.5530
 5778SOL     OW22877   4.322   2.521   4.041 -0.0408  0.2435  0.1902
 5778SOL    HW222878   4.286   2.610   4.046  1.3055  0.7555  2.3318
 5778SOL    HW322879   4.265   2.469   4.098 -0.0363  0.0359  0.0074
 5778SOL    MW422880   4.310   2.526   4.049 -0.3885  0.0151 -0.1957
 5779SOL     OW22881   0.527   6.289   5.962  0.5010  0.7095  0.1564
 5779SOL    HW222882   0.562   6.259   6.045  0.7674  1.3431  0.2799
 5779SOL    HW322883   0.556   6.380   5.955 -0.6402  1.0658 -0.0120
 5779SOL    MW422884   0.536   6.297   5.972  0.0398 -0.4070 -0.3500
 5780SOL     OW22885   0.751   1.582   3.779  0.0258  0.1387 -0.4420
 5780SOL    HW222886   0.749   1.494   3.742  1.2607 -0.7175  1.3678
 5780SOL    HW322887   0.817   1.628   3.727  0.4529 -0.4773 -0.4632
 5780SOL    MW422888   0.759   1.576   3.767  1.7570  0.2264  0.1322
 5781SOL     OW22889   0.945   0.593   2.274  0.0636 -0.1462  0.1478
 5781SOL    HW222890   0.889   0.538   2.328  0.6669 -0.7418  0.1818
 5781SOL    HW322891   0.930   0.682   2.306  0.9028 -0.5533  1.7560
 5781SOL    MW422892   0.935   0.597   2.285  0.5806 -0.3338  0.5612
 5782SOL     OW22893   0.196   2.637   3.663 -0.4849 -0.2311 -0.4635
 5782SOL    HW222894   0.263   2.610   3.726 -0.2320  1.0496 -0.1624
 5782SOL    HW322895   0.147   2.557   3.645  0.3906 -0.9432  0.1965
 5782SOL    MW422896   0.199   2.622   3.669  0.5944  0.0853 -0.0035
 5783SOL     OW22897   5.430   5.966   0.052 -0.0252 -0.0578  0.2762
 5783SOL    HW222898   5.482   5.988   0.130 -1.2105 -1.7727  1.6130
 5783SOL    HW322899   5.442   5.871   0.042  1.9687  0.3854 -3.0851
 5783SOL    MW422900   5.439   5.956   0.061 -0.0012  0.2817  0.0981
 5784SOL     OW22901   1.108   5.971   1.447  0.2529  0.2616 -0.6525
 5784SOL    HW222902   1.098   6.032   1.375 -1.0744  1.2533  0.3162
 5784SOL    HW322903   1.085   6.022   1.525  2.5592 -0.5012  0.6052
 5784SOL    MW422904   1.103   5.986   1.448  0.0664  0.0671 -0.2442
 5785SOL     OW22905   0.877   5.626   0.670 -0.6220  0.2614  0.0105
 5785SOL    HW222906   0.897   5.600   0.580  1.6823  1.5314  0.0872
 5785SOL    HW322907   0.950   5.592   0.722 -1.3881  0.4493  1.2508
 5785SOL    MW422908   0.889   5.618   0.665 -0.5292 -0.2976  0.5256
 5786SOL     OW22909   0.711   2.265   2.673  0.4455 -0.5417  0.0207
 5786SOL    HW222910   0.672   2.272   2.760  0.9538  0.2228  0.1971
 5786SOL    HW322911   0.669   2.334   2.622  0.2449 -0.9035 -0.3066
 5786SOL    MW422912   0.700   2.275   2.678 -0.2022  0.4611 -0.0303
 5787SOL     OW22913   2.875   2.355   3.609 -0.3540  0.0794  0.1124
 5787SOL    HW222914   2.933   2.296   3.561 -0.2666 -0.4390  0.8322
 5787SOL    HW322915   2.808   2.380   3.545 -1.2553 -1.9846  0.1556
 5787SOL    MW422916   2.874   2.350   3.594  0.2033  0.6883 -0.0448
 5788SOL     OW22917   4.489   0.492   0.397  0.2441  0.1604  0.4614
 5788SOL    HW222918   4.511   0.430   0.466  1.1933  0.2948  0.3008
 5788SOL    HW322919   4.421   0.449   0.345  0.8955 -0.7502  0.3446
 5788SOL    MW422920   4.483   0.478   0.399 -0.7166 -0.2332 -0.5981
 5789SOL     OW22921   5.757   0.883   6.282  0.0163  1.3689 -0.2296
 5789SOL    HW222922   5.821   0.856   6.216  1.9479  0.6797  1.7980
 5789SOL    HW322923   5.766   0.978   6.287  0.5886  1.3168 -0.2494
 5789SOL    MW422924   5.766   0.892   6.274 -0.5245  0.0563 -0.5688
 5790SOL     OW22925   2.572   1.990   2.494 -0.0655 -0.1483  0.4575
 5790SOL    HW222926   2.483   1.999   2.458  0.1288  0.5533  0.1378
 5790SOL    HW322927   2.566   1.915   2.553 -0.6498 -0.6949 -0.2708
 5790SOL    MW422928   2.559   1.981   2.497  0.2643 -0.1144  0.2682
 5791SOL     OW22929   2.875   1.926   2.008 -0.0364 -0.1299  0.4067
 5791SOL    HW222930   2.833   1.918   1.922 -0.1823  1.8700  0.2549
 5791SOL    HW322931   2.811   1.889   2.069  0.5591 -2.7029 -0.4007
 5791SOL    MW422932   2.861   1.920   2.005  0.1157  0.0628  0.0243
 5792SOL     OW22933   4.684   2.244   4.709 -0.2953 -0.2500 -0.8952
 5792SOL    HW222934   4.597   2.218   4.680  0.1005 -3.4841  0.3426
 5792SOL    HW322935   4.696   2.333   4.675 -4.2413  0.5582 -0.6335
 5792SOL    MW422936   4.674   2.252   4.701  0.1444 -0.2510 -0.2984
 5793SOL     OW22937   4.989   0.760   4.704  0.3976  0.0038  0.3078
 5793SOL    HW222938   4.938   0.711   4.769 -0.6164  0.4035 -0.1715
 5793SOL    HW322939   4.932   0.765   4.627  1.0133  0.7846 -0.1137
 5793SOL    MW422940   4.974   0.754   4.703 -0.0815  0.4848 -0.1978
 5794SOL     OW22941   6.295   0.355   2.578 -0.1810  0.2490 -0.6760
 5794SOL    HW222942   6.239   0.423   2.540 -2.5692 -1.7340 -0.9765
 5794SOL    HW322943   6.261   0.343   2.667  1.2023  0.4315 -0.0931
 5794SOL    MW422944   6.283   0.362   2.585  0.2370 -0.7314 -0.6580
 5795SOL     OW22945   0.901   6.046   5.496 -0.4759 -0.4747 -0.4177
 5795SOL    HW222946   0.912   6.057   5.402  2.0117 -0.9756 -0.2622
 5795SOL    HW322947   0.809   6.067   5.513 -1.5302 -2.3559 -3.2109
 5795SOL    MW422948   0.890   6.050   5.486 -0.1284  0.0079 -0.2492
 5796SOL     OW22949   5.620   4.214   4.322 -0.2298  0.1857  0.5896
 5796SOL    HW222950   5.667   4.296   4.312 -0.0438 -0.1578 -1.8136
 5796SOL    HW322951   5.583   4.196   4.236 -1.2775 -1.6532  1.3559
 5796SOL    MW422952   5.621   4.222   4.309 -0.7570 -0.2603 -0.4389
 5797SOL     OW22953   1.847   0.814   4.191 -0.2067  0.0685  0.4927
 5797SOL    HW222954   1.908   0.749   4.226 -0.4911 -0.9002 -0.7313
 5797SOL    HW322955   1.791   0.765   4.131  1.1375  1.8015 -2.4279
 5797SOL    MW422956   1.848   0.799   4.187  0.2298 -0.7088  0.4405
 5798SOL     OW22957   4.336   1.589   5.165 -0.2643  0.4809  0.5000
 5798SOL    HW222958   4.325   1.495   5.154  0.6330  0.4316 -0.1584
 5798SOL    HW322959   4.428   1.600   5.189  0.1026  1.2714 -1.0766
 5798SOL    MW422960   4.346   1.578   5.166  0.7819  0.1811 -0.7464
 5799SOL     OW22961   4.910   0.914   3.855  0.2575 -0.4837 -0.6293
 5799SOL    HW222962   4.864   0.956   3.783  1.0404  0.5169 -0.5712
 5799SOL    HW322963   5.002   0.918   3.830  0.6884  1.1665  1.0298
 5799SOL    MW422964   4.916   0.920   3.842 -0.1760  0.1828  1.0486
 5800SOL     OW22965   3.869   3.073   1.944 -0.6743 -0.4157 -0.0284
 5800SOL    HW222966   3.784   3.108   1.973 -0.4468  0.9938 -0.9585
 5800SOL    HW322967   3.898   3.134   1.876  0.5878 -1.4883 -0.4927
 5800SOL    MW422968   3.861   3.086   1.939 -0.5534  0.7465  0.3108
 5801SOL     OW22969   4.969   3.660   2.739  0.2918 -0.0660 -0.0266
 5801SOL    HW222970   5.020   3.740   2.744  2.1220 -0.9957 -2.0048
 5801SOL    HW322971   4.881   3.685   2.767  1.3032  2.0939  1.4581
 5801SOL    MW422972   4.964   3.674   2.743  0.3618  0.4625 -0.3614
 5802SOL     OW22973   2.478   0.850   2.842  0.0869  0.7317 -0.2850
 5802SOL    HW222974   2.561   0.852   2.890  0.2424  1.0160 -0.5633
 5802SOL    HW322975   2.472   0.936   2.801 -1.0060  1.2028  0.8212
 5802SOL    MW422976   2.488   0.861   2.843 -0.0428  0.1952  0.2206
 5803SOL     OW22977   4.534   1.482   3.945  0.0965 -0.5372  0.5135
 5803SOL    HW222978   4.546   1.576   3.932  0.9349 -0.6046  0.7530
 5803SOL    HW322979   4.596   1.441   3.885 -1.1801 -0.9862 -0.5667
 5803SOL    MW422980   4.544   1.489   3.936  0.1736  0.1360  0.0575
 5804SOL     OW22981   2.385   2.578   4.184  0.2633 -0.0779 -0.0502
 5804SOL    HW222982   2.459   2.535   4.141  0.2663  0.6638 -0.8159
 5804SOL    HW322983   2.332   2.614   4.112  0.5728  1.7004  0.5470
 5804SOL    MW422984   2.388   2.577   4.169  0.2848  0.5445  0.1412
 5805SOL     OW22985   4.805   4.235   1.883 -0.3641 -0.7348 -0.5772
 5805SOL    HW222986   4.861   4.193   1.818 -1.1695 -0.0572 -1.7371
 5805SOL    HW322987   4.717   4.234   1.844 -0.9336 -0.5945  0.6347
 5805SOL    MW422988   4.800   4.229   1.869 -0.1102  0.1688  0.4281
 5806SOL     OW22989   3.657   6.390   1.308  0.0642  0.4836  0.0689
 5806SOL    HW222990   3.689   6.460   1.366  0.4851 -0.1339  0.5850
 5806SOL    HW322991   3.699   6.311   1.340 -0.4536 -0.0226 -0.4868
 5806SOL    MW422992   3.667   6.389   1.320  0.6303 -0.3469 -0.1840
 5807SOL     OW22993   1.918   4.489   2.849 -0.0382  0.1028 -0.3420
 5807SOL    HW222994   1.972   4.475   2.927  0.7271  0.6012 -0.7726
 5807SOL    HW322995   1.915   4.404   2.805 -0.5271 -0.1974  0.2520
 5807SOL    MW422996   1.925   4.476   2.854  0.0680 -0.3765 -0.2049
 5808SOL     OW22997   5.709   4.034   0.475 -0.1374 -0.2806 -0.3394
 5808SOL    HW222998   5.739   4.040   0.384  1.5825 -1.5324  0.0906
 5808SOL    HW322999   5.672   4.121   0.494  1.4088  0.7059 -1.5822
 5808SOL    MW423000   5.708   4.047   0.466  0.2062  0.6285  0.2901
 5809SOL     OW23001   4.178   5.758   5.330 -0.1352 -0.2217 -0.2310
 5809SOL    HW223002   4.204   5.851   5.330  1.2879 -0.5774  1.2515
 5809SOL    HW323003   4.127   5.747   5.409 -1.3877 -0.4625 -1.0482
 5809SOL    MW423004   4.175   5.769   5.340  0.7009 -0.5640  0.2643
 5810SOL     OW23005   5.823   0.993   1.533 -0.1906 -0.2621  0.1523
 5810SOL    HW223006   5.910   1.009   1.570 -0.5497 -0.2589  1.0037
 5810SOL    HW323007   5.832   0.909   1.488  0.4904  0.1636 -0.5409
 5810SOL    MW423008   5.836   0.984   1.532  0.2155 -0.4184 -0.3887
 5811SOL     OW23009   6.037   2.485   0.568 -0.3325 -0.2155  0.0055
 5811SOL    HW223010   6.028   2.501   0.662  1.5314 -1.3251  0.4082
 5811SOL    HW323011   6.066   2.394   0.561 -0.5140 -0.1784 -1.6605
 5811SOL    MW423012   6.039   2.475   0.579  0.4107  0.1714 -0.3576
 5812SOL     OW23013   0.545   5.827   5.784  0.2079 -0.2712 -0.0520
 5812SOL    HW223014   0.640   5.835   5.797  0.3246 -1.9443  0.2504
 5812SOL    HW323015   0.522   5.742   5.821 -1.2871 -0.2478 -0.8497
 5812SOL    MW423016   0.554   5.817   5.790 -0.0786 -0.0585  0.0338
 5813SOL     OW23017   1.460   0.484   4.719  0.1682  0.2220 -0.0667
 5813SOL    HW223018   1.538   0.468   4.667 -0.0107 -0.3702 -0.1667
 5813SOL    HW323019   1.391   0.503   4.655  0.1957  0.5834  0.0111
 5813SOL    MW423020   1.461   0.484   4.704 -0.5132 -0.7668  0.1323
 5814SOL     OW23021   0.166   3.038   2.581 -0.3788  0.4833 -0.0031
 5814SOL    HW223022   0.152   3.013   2.672  1.5135 -1.5101 -0.1690
 5814SOL    HW323023   0.149   2.958   2.531 -0.6973  1.3573 -1.3465
 5814SOL    MW423024   0.162   3.024   2.586 -0.0506  0.3444 -0.3854
 5815SOL     OW23025   6.008   4.854   6.306 -0.5961  0.0472 -0.0748
 5815SOL    HW223026   5.986   4.844   6.213  1.5150  0.5635 -0.6719
 5815SOL    HW323027   5.976   4.774   6.347 -0.0430 -0.9586 -1.5523
 5815SOL    MW423028   6.001   4.842   6.299  0.0609 -0.2745  0.7359
 5816SOL     OW23029   5.026   4.439   3.384  0.0351  0.0548  0.0992
 5816SOL    HW223030   4.988   4.418   3.470  2.4779 -1.7579  0.8531
 5816SOL    HW323031   4.999   4.366   3.328 -0.3716  0.5115 -0.3071
 5816SOL    MW423032   5.017   4.427   3.388 -0.4101 -0.1296 -0.1856
 5817SOL     OW23033   0.877   5.638   1.610  0.5268  0.5050 -0.0863
 5817SOL    HW223034   0.955   5.583   1.613 -0.8287 -1.4942  2.3656
 5817SOL    HW323035   0.900   5.716   1.661  1.1898  0.3454 -0.1391
 5817SOL    MW423036   0.890   5.641   1.617 -0.1165 -0.5746 -1.1074
 5818SOL     OW23037   0.535   3.070   3.536 -0.0768 -0.2489 -0.3238
 5818SOL    HW223038   0.481   3.006   3.489 -1.8076  1.8230 -1.3659
 5818SOL    HW323039   0.479   3.101   3.607  1.2350 -0.8364  0.9989
 5818SOL    MW423040   0.521   3.066   3.539 -0.1574 -1.1480 -0.4470
 5819SOL     OW23041   5.133   1.278   3.918  0.0982  0.1732  0.1978
 5819SOL    HW223042   5.182   1.197   3.934  1.5842  1.2522  1.3202
 5819SOL    HW323043   5.171   1.342   3.978 -0.2111  2.0351 -1.4659
 5819SOL    MW423044   5.145   1.276   3.928  0.1253 -0.2726 -0.0855
 5820SOL     OW23045   3.197   5.964   1.706  0.4266 -0.6543  0.6913
 5820SOL    HW223046   3.275   5.925   1.746  0.2576 -1.0362  0.6478
 5820SOL    HW323047   3.175   6.037   1.764  0.3737 -1.0067  1.1208
 5820SOL    MW423048   3.205   5.969   1.719 -0.2506  0.5307 -0.1245
 5821SOL     OW23049   4.653   5.467   2.577  0.3578 -0.1353  0.3616
 5821SOL    HW223050   4.705   5.534   2.534 -0.0593 -0.9384 -1.4854
 5821SOL    HW323051   4.563   5.484   2.547 -0.0160 -0.4734  1.2568
 5821SOL    MW423052   4.648   5.478   2.567 -0.4954  0.2881 -0.6445
 5822SOL     OW23053   5.447   4.133   4.899 -0.3082 -0.4043  0.3626
 5822SOL    HW223054   5.381   4.073   4.865 -0.2615 -1.9610  2.8033
 5822SOL    HW323055   5.398   4.197   4.950 -0.1442  0.1338 -0.1476
 5822SOL    MW423056   5.432   4.133   4.901  0.2717  0.1581  0.2315
 5823SOL     OW23057   1.342   3.665   4.824  0.0960  0.1506  1.0736
 5823SOL    HW223058   1.430   3.704   4.828  0.4731 -0.4357 -0.7865
 5823SOL    HW323059   1.283   3.738   4.843  0.8678  1.2771 -0.6123
 5823SOL    MW423060   1.346   3.680   4.827  0.4132 -0.0527 -0.2724
 5824SOL     OW23061   5.478   3.254   2.672  0.3396  0.1698 -0.0039
 5824SOL    HW223062   5.530   3.276   2.749  0.2865 -0.9498  0.3732
 5824SOL    HW323063   5.418   3.186   2.703 -0.2279  0.2764 -0.8424
 5824SOL    MW423064   5.477   3.248   2.686 -0.1252 -0.6173  0.4444
 5825SOL     OW23065   3.577   3.794   0.941  0.5033  0.7385 -0.2341
 5825SOL    HW223066   3.551   3.840   0.861 -0.0432  1.6947  0.4862
 5825SOL    HW323067   3.597   3.863   1.004 -1.3284  0.0621  1.1969
 5825SOL    MW423068   3.576   3.809   0.939  0.0542 -0.0663  0.1517
 5826SOL     OW23069   5.800   2.862   0.701  0.3752  0.0343  0.8534
 5826SOL    HW223070   5.752   2.897   0.626 -2.0441 -0.8963  1.8339
 5826SOL    HW323071   5.867   2.927   0.719 -1.3529  2.1577  0.1435
 5826SOL    MW423072   5.802   2.875   0.694  0.5815  0.0119 -0.4319
 5827SOL     OW23073   0.587   1.173   2.812  0.5325  0.4315  0.1514
 5827SOL    HW223074   0.548   1.176   2.725  0.8015  1.9724  0.0557
 5827SOL    HW323075   0.518   1.203   2.871 -0.0987 -1.8884  0.6943
 5827SOL    MW423076   0.573   1.177   2.808  0.1414  0.5117 -0.2107
 5828SOL     OW23077   0.076   5.779   0.969  0.1127 -0.0352 -0.8189
 5828SOL    HW223078  -0.015   5.785   0.999  0.6342  2.1520  0.5693
 5828SOL    HW323079   0.113   5.865   0.989  2.5251 -0.9075 -1.2608
 5828SOL    MW423080   0.069   5.791   0.976  0.4399 -0.5252  0.9215
 5829SOL     OW23081   5.557   5.289   4.372 -0.5195 -0.3447  0.1524
 5829SOL    HW223082   5.621   5.246   4.428  1.0786 -2.1108 -2.7491
 5829SOL    HW323083   5.483   5.229   4.369 -1.0667  0.2512  1.1041
 5829SOL    MW423084   5.556   5.276   4.379 -0.0982  0.1985  0.7169
 5830SOL     OW23085   3.151   2.529   2.373  0.6220  0.5372  0.7813
 5830SOL    HW223086   3.149   2.625   2.383  1.3427  0.6253  0.1522
 5830SOL    HW323087   3.199   2.498   2.450  0.7794  0.7292  0.7628
 5830SOL    MW423088   3.157   2.538   2.385 -0.2281  0.2400 -0.4498
 5831SOL     OW23089   5.313   5.898   4.957 -0.1119  0.2932 -0.1312
 5831SOL    HW223090   5.219   5.894   4.936  0.0855  3.1667 -1.9923
 5831SOL    HW323091   5.325   5.827   5.020 -2.9591 -2.0126 -1.8854
 5831SOL    MW423092   5.302   5.888   4.962 -0.1966 -0.2772 -0.1969
 5832SOL     OW23093   3.701   6.128   0.595 -0.2063 -0.6517  0.0734
 5832SOL    HW223094   3.691   6.131   0.690  0.9003 -0.6948  0.2114
 5832SOL    HW323095   3.612   6.136   0.561 -0.5404  0.2874  1.0882
 5832SOL    MW423096   3.688   6.130   0.603  0.1747 -0.7611  0.3906
 5833SOL     OW23097   0.550   2.163   2.360 -0.0383  0.2181 -0.0422
 5833SOL    HW223098   0.533   2.077   2.400 -2.3265 -0.0408 -1.4420
 5833SOL    HW323099   0.612   2.144   2.289 -1.7845 -0.6069 -1.4043
 5833SOL    MW423100   0.556   2.149   2.356  0.6858 -0.0223  0.0844
 5834SOL     OW23101   4.804   5.752   4.163 -0.2302 -0.6873  0.2713
 5834SOL    HW223102   4.739   5.818   4.187 -0.4813 -0.2241 -1.5358
 5834SOL    HW323103   4.790   5.737   4.070  2.2802 -0.5448 -0.2132
 5834SOL    MW423104   4.794   5.758   4.154 -0.2370 -0.5234 -0.3735
 5835SOL     OW23105   5.497   4.263   1.584  0.3891 -0.5815 -0.5833
 5835SOL    HW223106   5.540   4.182   1.610 -1.0251 -1.3172 -0.4427
 5835SOL    HW323107   5.461   4.299   1.665 -1.3444 -1.2715 -0.9889
 5835SOL    MW423108   5.498   4.257   1.598  0.7508  0.0867  0.2767
 5836SOL     OW23109   1.970   0.444   1.734  0.2209 -0.0228  0.1882
 5836SOL    HW223110   2.032   0.512   1.709 -1.3072  0.7988 -1.6450
 5836SOL    HW323111   1.965   0.387   1.657 -2.7648  1.1293 -0.6455
 5836SOL    MW423112   1.977   0.445   1.721  0.3473  0.5980  0.0409
 5837SOL     OW23113   4.374   5.557   2.481  0.0002 -0.1235  0.1011
 5837SOL    HW223114   4.312   5.510   2.536  0.0142 -0.0240  0.2026
 5837SOL    HW323115   4.344   5.540   2.391 -0.3558  0.1739  0.1618
 5837SOL    MW423116   4.361   5.549   2.476 -0.0539 -0.3717  0.0133
 5838SOL     OW23117   6.389   1.879   1.059 -0.0567  0.7404  0.4643
 5838SOL    HW223118   6.435   1.917   1.134  0.3973 -0.8501  1.0396
 5838SOL    HW323119   6.437   1.798   1.041 -1.4181  0.0680 -0.2370
 5838SOL    MW423120   6.402   1.874   1.066 -0.2505  0.1059  0.9532
 5839SOL     OW23121   0.258   1.970   2.889 -0.5360 -0.4302 -0.2052
 5839SOL    HW223122   0.304   1.886   2.898  0.4238 -0.0270 -1.2168
 5839SOL    HW323123   0.249   2.002   2.979  0.2408 -1.0099  0.0880
 5839SOL    MW423124   0.263   1.963   2.902 -0.3836  0.5967  0.1021
 5840SOL     OW23125   6.026   5.131   4.519 -0.3159 -0.4435 -0.5027
 5840SOL    HW223126   6.029   5.142   4.424 -2.5974  0.9370 -0.4942
 5840SOL    HW323127   5.936   5.155   4.543 -0.0386 -1.5336  1.9296
 5840SOL    MW423128   6.014   5.136   4.510  0.1662  0.1418  0.0600
 5841SOL     OW23129   4.474   4.043   4.004 -0.4139  0.2215 -0.9547
 5841SOL    HW223130   4.437   3.962   4.039 -0.6450  0.1016 -1.4736
 5841SOL    HW323131   4.399   4.089   3.966 -0.4503  1.0996  0.1250
 5841SOL    MW423132   4.459   4.039   4.004 -0.2344 -0.0896 -0.0216
 5842SOL     OW23133   6.385   2.639   5.673 -0.2301  0.4622  0.3193
 5842SOL    HW223134   6.315   2.687   5.629  0.1772  1.5957  0.8528
 5842SOL    HW323135   6.405   2.693   5.750 -0.1489 -0.8752  1.2666
 5842SOL    MW423136   6.378   2.653   5.678  0.5741 -0.1500 -0.2569
 5843SOL     OW23137   4.561   5.550   4.995  0.2266  0.8017  0.2605
 5843SOL    HW223138   4.477   5.511   4.970 -0.0394  1.1352  0.6261
 5843SOL    HW323139   4.560   5.638   4.957  0.4613  0.7694  0.1728
 5843SOL    MW423140   4.550   5.556   4.987 -0.8158 -0.3312  0.0683
 5844SOL     OW23141   2.418   3.060   1.259  0.0406  0.3479  0.0332
 5844SOL    HW223142   2.361   2.993   1.222  1.5404 -0.7423 -0.3976
 5844SOL    HW323143   2.378   3.143   1.234 -0.8821 -0.3828 -0.9775
 5844SOL    MW423144   2.405   3.062   1.251 -0.3832  0.4250 -0.0170
 5845SOL     OW23145   0.677   2.333   0.907 -0.3497  0.1756  0.1347
 5845SOL    HW223146   0.640   2.401   0.962 -0.1304  0.8605 -0.5442
 5845SOL    HW323147   0.696   2.377   0.824  2.2450 -0.0356  0.5225
 5845SOL    MW423148   0.675   2.348   0.903 -0.0107  0.4400 -0.7543
 5846SOL     OW23149   6.172   4.482   3.955  0.0161  0.1701  0.1960
 5846SOL    HW223150   6.125   4.408   3.993 -0.9868 -0.2025 -1.6325
 5846SOL    HW323151   6.259   4.479   3.995 -0.1444 -1.7406  0.4806
 5846SOL    MW423152   6.177   4.472   3.965 -0.2940  0.3297 -0.1802
 5847SOL     OW23153   3.401   3.312   4.432 -0.8105  0.6371 -0.0900
 5847SOL    HW223154   3.467   3.372   4.465 -1.4326  0.3782  1.7721
 5847SOL    HW323155   3.447   3.228   4.425 -0.9336  0.4190  1.3527
 5847SOL    MW423156   3.416   3.308   4.435 -0.0140  0.7543  0.2480
 5848SOL     OW23157   2.376   2.903   3.220 -0.3203 -0.2419  0.5314
 5848SOL    HW223158   2.450   2.907   3.281 -1.0123  0.3391  1.3570
 5848SOL    HW323159   2.399   2.965   3.151 -0.5995  0.9396  1.4592
 5848SOL    MW423160   2.389   2.912   3.219  0.5609 -0.1093 -0.0901
 5849SOL     OW23161   0.345   4.211   4.369 -0.1995 -0.2286 -0.1887
 5849SOL    HW223162   0.272   4.201   4.430 -1.0998 -0.9343 -1.3249
 5849SOL    HW323163   0.423   4.188   4.420 -0.9171 -0.7522  0.7029
 5849SOL    MW423164   0.345   4.207   4.384 -0.1317  0.3708 -0.1746
 5850SOL     OW23165   1.567   3.369   4.729  0.5692 -0.4175 -0.7007
 5850SOL    HW223166   1.574   3.445   4.672 -1.2773 -1.0557 -1.8844
 5850SOL    HW323167   1.657   3.340   4.743  1.1012 -0.6426 -3.8804
 5850SOL    MW423168   1.579   3.375   4.724 -0.1434 -0.3981 -0.1974
 5851SOL     OW23169   0.594   2.853   1.418  0.5716 -0.1394  0.0137
 5851SOL    HW223170   0.507   2.892   1.422  1.1630  1.1760  1.1260
 5851SOL    HW323171   0.592   2.797   1.340 -0.3423  2.1557 -1.7335
 5851SOL    MW423172   0.582   2.851   1.408  0.0621  0.6028 -0.1995
 5852SOL     OW23173   5.477   1.649   4.343  0.3927  0.0938 -0.7085
 5852SOL    HW223174   5.546   1.709   4.315  0.9615 -0.9552 -1.6235
 5852SOL    HW323175   5.486   1.645   4.438  2.1929 -0.6996 -0.8762
 5852SOL    MW423176   5.487   1.656   4.352  0.2650 -0.7347  0.2335
 5853SOL     OW23177   3.943   2.520   1.377 -0.5601 -0.1796 -0.1302
 5853SOL    HW223178   3.963   2.560   1.292 -1.2726 -0.4948 -0.4528
 5853SOL    HW323179   3.946   2.593   1.438 -0.6914  0.1736 -0.5348
 5853SOL    MW423180   3.946   2.535   1.374  0.1732  0.2658  0.5041
 5854SOL     OW23181   2.815   3.352   3.047  0.2794  0.2345  0.7622
 5854SOL    HW223182   2.823   3.447   3.038 -0.7582  0.6152  3.0138
 5854SOL    HW323183   2.904   3.319   3.035  0.4223  1.2749 -1.5953
 5854SOL    MW423184   2.828   3.361   3.044 -0.4129  0.0093  0.2251
 5855SOL     OW23185   1.477   2.012   0.441  0.2799  0.0592  0.1391
 5855SOL    HW223186   1.458   1.932   0.490  0.5960  0.9750  1.8032
 5855SOL    HW323187   1.396   2.029   0.392  0.7263 -2.1206 -1.5723
 5855SOL    MW423188   1.464   2.003   0.441 -0.7783  0.1708 -0.0454
 5856SOL     OW23189   1.256   4.068   1.992  0.0430 -0.4405 -0.2756
 5856SOL    HW223190   1.200   4.103   2.061 -0.4940 -1.1132 -0.3532
 5856SOL    HW323191   1.345   4.078   2.026 -0.1640 -0.0102  0.1563
 5856SOL    MW423192   1.260   4.074   2.005  0.2986  0.0043 -0.7745
 5857SOL     OW23193   5.774   5.288   4.846 -0.3891  0.1954 -0.0618
 5857SOL    HW223194   5.708   5.228   4.878 -0.9107  0.2310 -1.0261
 5857SOL    HW323195   5.746   5.374   4.877 -1.3963  0.3563 -1.3478
 5857SOL    MW423196   5.762   5.292   4.854  0.0485 -0.1873  0.2183
 5858SOL     OW23197   0.130   0.596   1.170 -0.0737 -0.2646 -0.1283
 5858SOL    HW223198   0.149   0.541   1.094  0.3736 -0.3849  0.0763
 5858SOL    HW323199   0.164   0.682   1.145  0.4441 -0.4016  0.1031
 5858SOL    MW423200   0.137   0.600   1.156  0.6120  0.6184 -0.0806
 5859SOL     OW23201   3.222   5.906   3.107  0.1243 -0.3084  0.3230
 5859SOL    HW223202   3.282   5.833   3.127  0.6134  0.1711  0.6321
 5859SOL    HW323203   3.269   5.958   3.042 -1.0417 -1.3182 -1.4344
 5859SOL    MW423204   3.236   5.903   3.101  0.0252  0.2002  0.1124
 5860SOL     OW23205   0.993   6.104   2.026 -0.1858  0.2377 -0.4690
 5860SOL    HW223206   1.038   6.160   2.090  0.1094 -0.2534 -0.2442
 5860SOL    HW323207   1.053   6.032   2.010 -0.2362  0.3906 -1.3597
 5860SOL    MW423208   1.007   6.102   2.033  0.2683  0.7558 -0.3781
 5861SOL     OW23209   6.097   4.589   2.204 -0.4100 -0.1192 -0.2654
 5861SOL    HW223210   6.010   4.625   2.218 -0.1324  0.4413  0.0777
 5861SOL    HW323211   6.082   4.499   2.178 -1.0560 -0.5107  1.3175
 5861SOL    MW423212   6.084   4.582   2.203  0.6680 -0.3648 -0.2406
 5862SOL     OW23213   1.565   4.221   2.427  0.7493 -0.3060 -0.8692
 5862SOL    HW223214   1.514   4.152   2.385  0.5566 -0.7365  0.0360
 5862SOL    HW323215   1.585   4.186   2.514  0.5557  0.8164 -0.3499
 5862SOL    MW423216   1.561   4.208   2.433 -0.1585  0.3018 -0.2882
 5863SOL     OW23217   4.617   3.878   3.199 -0.2107  0.1877  0.3569
 5863SOL    HW223218   4.595   3.812   3.264  1.4489  0.9449  1.7566
 5863SOL    HW323219   4.581   3.959   3.233  0.0233  0.4691 -0.0496
 5863SOL    MW423220   4.609   3.880   3.212 -0.1684  0.1785  0.1513
 5864SOL     OW23221   0.520   4.313   3.513 -0.1680  0.0486 -0.0994
 5864SOL    HW223222   0.541   4.271   3.596 -1.0142  0.8506  0.5441
 5864SOL    HW323223   0.460   4.384   3.537 -1.1737 -0.2844 -1.4910
 5864SOL    MW423224   0.515   4.317   3.527  0.2547  0.3901  0.2895
 5865SOL     OW23225   0.500   0.334   4.411  0.4238 -0.2026 -0.1613
 5865SOL    HW223226   0.583   0.383   4.415 -0.7349  1.9413 -0.7822
 5865SOL    HW323227   0.527   0.243   4.397  2.6758  0.6312 -1.9889
 5865SOL    MW423228   0.515   0.328   4.410  0.3419 -0.5459  0.7585
 5866SOL     OW23229   1.982   3.517   3.342  0.3473 -0.5655  0.5822
 5866SOL    HW223230   2.009   3.467   3.265  1.9991 -0.9858  1.3933
 5866SOL    HW323231   1.901   3.560   3.315 -0.6867 -2.9519 -0.4531
 5866SOL    MW423232   1.975   3.516   3.328  0.5816  0.0769  0.2302
 5867SOL     OW23233   3.420   3.113   2.290 -0.4936  0.2332 -0.2318
 5867SOL    HW223234   3.440   3.122   2.383 -1.1101  3.2993 -0.2774
 5867SOL    HW323235   3.501   3.136   2.245 -0.3111 -0.8430 -0.4724
 5867SOL    MW423236   3.433   3.117   2.296 -1.2888  0.0890  0.1807
 5868SOL     OW23237   0.582   6.255   2.050 -0.0574 -0.4568 -0.2587
 5868SOL    HW223238   0.532   6.337   2.048  1.5856  0.6668  1.6101
 5868SOL    HW323239   0.673   6.281   2.035  0.5627 -1.8890  0.7748
 5868SOL    MW423240   0.587   6.269   2.047  0.5584 -0.5929  0.1049
 5869SOL     OW23241   5.294   1.274   4.226  0.3330 -0.2831  0.1419
 5869SOL    HW223242   5.337   1.190   4.210 -0.0396 -0.4996  0.2716
 5869SOL    HW323243   5.203   1.251   4.244  0.6542 -0.0559  2.3532
 5869SOL    MW423244   5.288   1.260   4.227 -0.0648  0.0380 -0.1008
 5870SOL     OW23245   6.260   2.653   3.835 -0.2222 -0.0820  0.2281
 5870SOL    HW223246   6.174   2.694   3.846  0.1313  0.3542  1.5201
 5870SOL    HW323247   6.322   2.726   3.844  0.3022 -0.4202 -0.5285
 5870SOL    MW423248   6.256   2.668   3.838  0.0053 -0.0915  0.1283
 5871SOL     OW23249   0.827   0.827   2.350 -0.5402  0.1009  0.8945
 5871SOL    HW223250   0.807   0.890   2.420  2.0800  0.6340  1.2482
 5871SOL    HW323251   0.893   0.871   2.296  0.7552 -1.9979  0.6650
 5871SOL    MW423252   0.833   0.841   2.352 -0.5720  0.2848 -0.1669
 5872SOL     OW23253   5.552   5.509   1.304 -0.5932 -0.2938  0.3437
 5872SOL    HW223254   5.532   5.580   1.366  0.9265  0.3032  0.1772
 5872SOL    HW323255   5.469   5.463   1.294 -1.3880  0.8886  1.1895
 5872SOL    MW423256   5.538   5.512   1.311 -0.0313  0.6190  0.4615
 5873SOL     OW23257   0.898   6.412   5.635 -0.1156 -0.4236  0.0953
 5873SOL    HW223258   0.834   6.467   5.591  0.7795  0.0346 -0.6756
 5873SOL    HW323259   0.847   6.358   5.695 -1.2127 -0.0824 -0.5098
 5873SOL    MW423260   0.883   6.412   5.637  0.4060  0.0039 -0.2783
 5874SOL     OW23261   3.753   5.599   0.626  0.2424 -0.1171 -0.0469
 5874SOL    HW223262   3.753   5.688   0.591  1.9680 -1.1902 -3.1999
 5874SOL    HW323263   3.840   5.589   0.667 -0.0122 -0.3166  0.4586
 5874SOL    MW423264   3.765   5.610   0.627  0.0788 -0.4109  0.3614
 5875SOL     OW23265   0.983   3.567   2.099  0.4376  0.4993 -0.0119
 5875SOL    HW223266   0.895   3.577   2.135  0.6283  0.0956  0.5843
 5875SOL    HW323267   0.969   3.528   2.013  0.0642 -0.1054  0.3174
 5875SOL    MW423268   0.969   3.563   2.093  0.1505 -0.0424  0.6708
 5876SOL     OW23269   1.174   4.960   0.851 -0.2771 -0.1313 -0.0957
 5876SOL    HW223270   1.105   5.007   0.804 -2.6791 -2.7504  0.5102
 5876SOL    HW323271   1.234   4.931   0.782 -1.2703 -0.0607 -1.0285
 5876SOL    MW423272   1.173   4.962   0.835  0.2409 -0.0938  0.1865
 5877SOL     OW23273   5.352   4.861   0.282 -0.3096 -0.4743  0.3874
 5877SOL    HW223274   5.324   4.906   0.202 -0.8520 -1.5482 -0.0536
 5877SOL    HW323275   5.447   4.870   0.282 -0.3390 -0.0648 -0.1369
 5877SOL    MW423276   5.361   4.868   0.271 -0.0686 -0.0635  0.2449
 5878SOL     OW23277   2.221   0.789   2.824  0.0468  0.2010  0.3050
 5878SOL    HW223278   2.309   0.810   2.857  0.0270 -1.2660  1.4037
 5878SOL    HW323279   2.236   0.744   2.741  0.4707 -1.3702  1.1844
 5878SOL    MW423280   2.235   0.786   2.817  0.6028 -0.2340 -0.3632
 5879SOL     OW23281   6.321   6.072   5.842 -0.0234  0.4964 -0.1676
 5879SOL    HW223282   6.357   6.127   5.911  1.8536 -1.7237  0.7362
 5879SOL    HW323283   6.340   6.119   5.761  0.8588  1.5099  0.6105
 5879SOL    MW423284   6.328   6.085   5.840  0.1654 -0.5091  1.1568
 5880SOL     OW23285   1.871   4.993   6.226 -0.3468 -0.3248  0.1366
 5880SOL    HW223286   1.929   5.069   6.225 -0.8638  0.1079 -1.5447
 5880SOL    HW323287   1.790   5.025   6.265 -0.3352 -0.1943  0.0551
 5880SOL    MW423288   1.868   5.007   6.231 -0.1669 -0.0548  0.2386
 5881SOL     OW23289   2.883   6.392   6.402  0.4193  0.2650 -0.4604
 5881SOL    HW223290   2.891   6.413   6.495 -2.0771 -0.2747 -0.0382
 5881SOL    HW323291   2.834   6.465   6.365  0.4851 -0.0211 -1.1239
 5881SOL    MW423292   2.878   6.404   6.409  0.5273 -0.5460  0.5766
 5882SOL     OW23293   5.998   3.123   1.550  0.4580  0.1676  0.0005
 5882SOL    HW223294   6.042   3.193   1.597  1.0372 -0.7575  0.8930
 5882SOL    HW323295   5.909   3.154   1.537  0.6758  1.0107  0.4917
 5882SOL    MW423296   5.992   3.136   1.555  0.0239  0.1396 -0.3312
 5883SOL     OW23297   6.331   5.243   1.918 -0.0598 -0.5189  0.4624
 5883SOL    HW223298   6.239   5.261   1.896 -0.0047  0.4558  0.9595
 5883SOL    HW323299   6.379   5.263   1.838 -0.2289 -0.5010  0.3640
 5883SOL    MW423300   6.325   5.248   1.905  0.3784 -0.0557  0.3728
 5884SOL     OW23301   4.906   1.421   4.150  0.7139  0.1268  0.2494
 5884SOL    HW223302   4.917   1.503   4.103  0.6941 -0.1714 -0.2841
 5884SOL    HW323303   4.812   1.413   4.165  0.5654 -0.4716 -0.9354
 5884SOL    MW423304   4.895   1.430   4.146 -0.1660  0.0486 -0.0044
 5885SOL     OW23305   2.744   1.741   4.677  0.6796 -0.9647  0.1022
 5885SOL    HW223306   2.680   1.805   4.646  2.2744  0.7021  0.0780
 5885SOL    HW323307   2.792   1.714   4.598  0.3622 -1.8023  0.1896
 5885SOL    MW423308   2.742   1.746   4.663  0.1584  0.7342 -0.2799
 5886SOL     OW23309   2.492   3.909   2.114 -0.0692  0.5159  0.4482
 5886SOL    HW223310   2.533   3.856   2.046 -0.7241 -0.1831  0.5863
 5886SOL    HW323311   2.565   3.945   2.165  0.4641  1.6644 -1.0608
 5886SOL    MW423312   2.507   3.907   2.112  0.5457  0.2134 -0.5845
 5887SOL     OW23313   5.861   4.328   3.657  0.4432 -0.0534 -0.5775
 5887SOL    HW223314   5.788   4.362   3.604  1.0643 -0.6965 -1.9079
 5887SOL    HW323315   5.841   4.235   3.666 -0.3612  0.2772  1.5568
 5887SOL    MW423316   5.849   4.320   3.651  0.8107 -0.3620 -0.4095
 5888SOL     OW23317   1.746   2.090   3.555  0.0581  0.0052  0.1532
 5888SOL    HW223318   1.819   2.070   3.614 -0.0875 -1.4854 -0.1384
 5888SOL    HW323319   1.670   2.099   3.612  0.3870  1.2056  0.4237
 5888SOL    MW423320   1.746   2.088   3.570 -0.1019  0.0098  0.0209
 5889SOL     OW23321   3.196   0.620   1.368  0.0792 -0.2465  0.0702
 5889SOL    HW223322   3.188   0.626   1.463  1.8208 -1.3373  0.3369
 5889SOL    HW323323   3.286   0.647   1.350 -0.0021 -0.7459 -1.1955
 5889SOL    MW423324   3.207   0.624   1.378  0.4685  0.1428  0.7629
 5890SOL     OW23325   5.870   4.744   1.995 -0.3135 -0.3129  0.7871
 5890SOL    HW223326   5.867   4.770   2.086 -0.4192 -1.4919  1.1425
 5890SOL    HW323327   5.833   4.655   1.994 -2.1175  0.3899 -0.6859
 5890SOL    MW423328   5.865   4.735   2.007  0.8804  0.0112  0.0195
 5891SOL     OW23329   0.707   5.817   1.944 -0.1246 -0.1850 -0.3342
 5891SOL    HW223330   0.627   5.766   1.953 -0.3961  0.4974  1.3972
 5891SOL    HW323331   0.677   5.907   1.927  0.2763  0.0073 -0.0445
 5891SOL    MW423332   0.693   5.823   1.943 -0.3430  0.1197 -0.1600
 5892SOL     OW23333   1.353   4.532   4.667  0.0232 -0.3369  0.0304
 5892SOL    HW223334   1.379   4.550   4.577  0.3892  1.2441  0.4352
 5892SOL    HW323335   1.432   4.548   4.719 -0.7142  0.7827  0.8491
 5892SOL    MW423336   1.367   4.536   4.662 -0.4858 -0.3774 -0.0194
 5893SOL     OW23337   0.394   3.228   1.571  0.1501 -0.7466  0.1928
 5893SOL    HW223338   0.380   3.257   1.661 -1.0768  0.3863 -0.3298
 5893SOL    HW323339   0.486   3.202   1.568  0.9323  1.6195  1.1338
 5893SOL    MW423340   0.404   3.228   1.583  0.6189  0.0740  0.3824
 5894SOL     OW23341   1.175   3.844   1.734 -0.6406  0.0872 -0.0939
 5894SOL    HW223342   1.208   3.766   1.778 -1.2633  0.1628  0.5115
 5894SOL    HW323343   1.230   3.915   1.767 -1.2564  0.1826  0.7734
 5894SOL    MW423344   1.187   3.843   1.744  0.0614  0.2234 -0.2733
 5895SOL     OW23345   0.498   6.274   2.362  0.5989 -0.5916 -0.3132
 5895SOL    HW223346   0.542   6.199   2.323  0.1358 -0.1204 -1.7937
 5895SOL    HW323347   0.505   6.343   2.297  3.0916  1.4689  1.9648
 5895SOL    MW423348   0.505   6.273   2.349 -1.1515  0.5794 -0.2900
 5896SOL     OW23349   5.945   0.463   0.094  0.0249  0.0261  0.5888
 5896SOL    HW223350   6.027   0.513   0.091  0.0218 -0.0079 -0.3579
 5896SOL    HW323351   5.938   0.434   0.185 -0.6368  2.7904  1.5114
 5896SOL    MW423352   5.955   0.466   0.106  0.2284 -0.3836 -0.4415
 5897SOL     OW23353   4.906   4.777   1.733  0.3056 -0.1715 -0.0225
 5897SOL    HW223354   4.859   4.769   1.650  0.3546 -0.3440 -0.0329
 5897SOL    HW323355   4.909   4.688   1.768  0.2548 -0.0950  0.1806
 5897SOL    MW423356   4.900   4.764   1.727  0.1350  0.1614  0.0205
 5898SOL     OW23357   5.174   3.875   3.103 -0.5790  0.0999 -0.3113
 5898SOL    HW223358   5.209   3.792   3.069 -2.0241 -0.1000 -1.4051
 5898SOL    HW323359   5.082   3.874   3.079 -0.9409  1.4369  0.8644
 5898SOL    MW423360   5.167   3.864   3.095 -0.5407 -0.0608 -0.0601
 5899SOL     OW23361   0.842   3.727   3.560  0.7354 -0.1856  0.2811
 5899SOL    HW223362   0.919   3.674   3.537  1.5050 -0.5598  3.2760
 5899SOL    HW323363   0.872   3.818   3.552  0.8730 -0.2899 -0.4284
 5899SOL    MW423364   0.856   3.732   3.556  0.5244 -0.2107  0.2587
 5900SOL     OW23365   0.911   3.487   6.418 -0.6247 -0.1634 -0.2471
 5900SOL    HW223366   0.894   3.579   6.396 -0.5071  0.0031  0.3488
 5900SOL    HW323367   0.824   3.450   6.431 -0.6276  0.1393  0.6080
 5900SOL    MW423368   0.897   3.494   6.417  0.1725  0.8365  0.4176
 5901SOL     OW23369   3.159   1.953   2.720  0.1616 -0.4219  0.0913
 5901SOL    HW223370   3.114   2.027   2.679  1.2087  0.0060 -0.3476
 5901SOL    HW323371   3.189   1.987   2.804 -0.0677 -0.6017  0.2450
 5901SOL    MW423372   3.157   1.967   2.726 -0.3510 -0.2941  0.0823
 5902SOL     OW23373   4.282   4.058   0.836 -0.2834  1.1123  1.0164
 5902SOL    HW223374   4.344   4.014   0.894 -1.2327  0.8365  1.8542
 5902SOL    HW323375   4.337   4.102   0.770  0.7284 -0.4427  0.7716
 5902SOL    MW423376   4.297   4.058   0.835  0.1002 -0.1435 -0.4338
 5903SOL     OW23377   3.829   6.053   4.638  0.0604  0.1888 -0.0653
 5903SOL    HW223378   3.891   5.989   4.605 -0.1186 -0.7031  1.2527
 5903SOL    HW323379   3.771   6.071   4.564  0.9941 -0.0600 -0.8741
 5903SOL    MW423380   3.829   6.047   4.624 -0.1198 -0.7550 -0.1553
 5904SOL     OW23381   4.624   1.442   4.225 -0.0652 -0.4473 -0.1769
 5904SOL    HW223382   4.627   1.529   4.267  0.0202  0.2459 -1.5564
 5904SOL    HW323383   4.587   1.459   4.138 -0.9595 -1.9539 -0.1275
 5904SOL    MW423384   4.619   1.456   4.219 -1.0536  0.1461 -0.4384
 5905SOL     OW23385   1.141   0.786   1.975  0.4491 -0.4637 -0.4258
 5905SOL    HW223386   1.054   0.766   1.941 -0.2881 -0.3585  1.2956
 5905SOL    HW323387   1.198   0.719   1.938 -0.9106 -2.3008  0.6308
 5905SOL    MW423388   1.137   0.774   1.966 -0.5855 -0.4727 -0.1930
 5906SOL     OW23389   1.241   6.344   4.371  0.5581  0.8475 -0.3413
 5906SOL    HW223390   1.212   6.298   4.449  0.1327 -0.5555 -1.2936
 5906SOL    HW323391   1.296   6.415   4.404 -1.3066  1.6078  1.3328
 5906SOL    MW423392   1.245   6.348   4.386  0.4853  0.5029 -0.3669
 5907SOL     OW23393   5.150   2.899   4.137  0.1150 -0.3113  0.5827
 5907SOL    HW223394   5.061   2.869   4.118 -0.0532  0.4016  0.2346
 5907SOL    HW323395   5.206   2.843   4.084 -0.2442  0.4665 -0.6398
 5907SOL    MW423396   5.146   2.888   4.128 -0.2652  0.2753 -0.1823
 5908SOL     OW23397   4.002   6.117   1.827 -0.0330  0.3319  0.7169
 5908SOL    HW223398   4.086   6.071   1.822  0.2201  0.8316 -0.0387
 5908SOL    HW323399   3.987   6.131   1.920  0.4284 -0.2958  0.8904
 5908SOL    MW423400   4.011   6.113   1.838  0.0762 -0.0941  0.5142
 5909SOL     OW23401   2.062   0.304   1.959 -0.1911  0.0313 -0.3681
 5909SOL    HW223402   2.034   0.366   2.026  2.1579  1.5648 -0.7138
 5909SOL    HW323403   2.042   0.348   1.876  0.6012 -0.0896 -0.6291
 5909SOL    MW423404   2.055   0.318   1.957 -0.2490  0.3470 -0.3047
 5910SOL     OW23405   6.345   2.942   5.653 -0.3844 -0.7014 -0.0955
 5910SOL    HW223406   6.278   2.888   5.611  0.3923 -2.9735  1.4096
 5910SOL    HW323407   6.403   2.967   5.581 -2.2350  0.5302 -1.2688
 5910SOL    MW423408   6.344   2.938   5.638  0.0742  0.0199  0.0841
 5911SOL     OW23409   2.665   2.512   1.064  0.4785  0.0382  0.2836
 5911SOL    HW223410   2.574   2.536   1.043 -0.1515 -1.3598  1.2792
 5911SOL    HW323411   2.685   2.562   1.143  0.6331  0.4265  0.0058
 5911SOL    MW423412   2.656   2.522   1.072  0.2693 -0.2783  0.0925
 5912SOL     OW23413   5.581   5.956   6.200  0.3609  0.3765  0.1719
 5912SOL    HW223414   5.604   5.928   6.112 -0.1561 -1.0717  0.4602
 5912SOL    HW323415   5.488   5.932   6.209  0.3679  0.6357  1.0551
 5912SOL    MW423416   5.572   5.949   6.190 -0.3660 -0.6620 -0.1094
 5913SOL     OW23417   4.583   1.696   2.714 -1.0080  0.3859  1.0197
 5913SOL    HW223418   4.491   1.669   2.718 -1.0132  0.3649  0.8074
 5913SOL    HW323419   4.630   1.614   2.696 -1.0316  0.5273  0.2763
 5913SOL    MW423420   4.577   1.681   2.712 -0.1223 -0.2467  0.0488
 5914SOL     OW23421   0.656   3.759   6.012  0.4461  0.1434 -0.4501
 5914SOL    HW223422   0.692   3.840   6.046 -0.0940  0.3389 -0.3344
 5914SOL    HW323423   0.724   3.693   6.029  1.3236  0.7601 -1.4844
 5914SOL    MW423424   0.669   3.761   6.019  0.0443  0.3066  0.1555
 5915SOL     OW23425   0.219   6.005   0.511  0.4445 -0.6103 -0.2674
 5915SOL    HW223426   0.258   6.076   0.460 -1.5473 -1.5774 -3.4829
 5915SOL    HW323427   0.213   6.039   0.600  0.3881  2.9262 -1.4828
 5915SOL    MW423428   0.223   6.019   0.516 -0.1995  0.0774  0.0499
 5916SOL     OW23429   1.729   4.906   4.654 -0.1754 -0.4882 -0.0335
 5916SOL    HW223430   1.661   4.953   4.702 -0.1513  1.1781 -1.5146
 5916SOL    HW323431   1.811   4.945   4.686 -0.1066 -0.1908 -0.5506
 5916SOL    MW423432   1.731   4.917   4.664 -0.5650  0.3027  0.6146
 5917SOL     OW23433   2.601   4.329   4.134  0.0314  0.5181  0.0666
 5917SOL    HW223434   2.651   4.252   4.104 -1.0369 -0.0130 -0.3947
 5917SOL    HW323435   2.653   4.364   4.206  1.6340  0.6247 -1.0817
 5917SOL    MW423436   2.615   4.323   4.140  0.2941  0.2812  0.2728
 5918SOL     OW23437   4.799   1.257   0.509 -0.0583 -0.0832 -0.2372
 5918SOL    HW223438   4.751   1.290   0.585  1.7847 -2.2198  2.0454
 5918SOL    HW323439   4.861   1.327   0.488 -1.3671  1.0139 -0.5978
 5918SOL    MW423440   4.801   1.271   0.516 -0.2625  0.0516 -0.3495
 5919SOL     OW23441   1.504   5.091   1.136 -0.4067  0.2629  0.9787
 5919SOL    HW223442   1.583   5.039   1.150 -0.7052 -0.1803  1.0404
 5919SOL    HW323443   1.488   5.134   1.220  0.6074  1.5492  0.5487
 5919SOL    MW423444   1.512   5.090   1.149  0.1746  0.0779  0.7774
 5920SOL     OW23445   1.586   2.583   6.350 -0.2431 -0.1985 -0.3600
 5920SOL    HW223446   1.578   2.491   6.328 -0.4302  0.1963 -2.1098
 5920SOL    HW323447   1.501   2.621   6.329 -0.2460  0.3539  0.5500
 5920SOL    MW423448   1.574   2.576   6.344 -0.5885 -0.3731  0.2056
 5921SOL     OW23449   5.511   4.438   3.577 -0.6705  0.4609 -0.0052
 5921SOL    HW223450   5.533   4.525   3.610 -0.6319  0.3291  0.3216
 5921SOL    HW323451   5.431   4.451   3.525  0.2872  0.9847 -1.4135
 5921SOL    MW423452   5.503   4.451   3.574 -0.4054  0.7283  0.4437
 5922SOL     OW23453   1.173   3.897   4.855 -0.5878  0.0230  0.1720
 5922SOL    HW223454   1.164   3.920   4.947 -1.4760  2.3487 -0.4220
 5922SOL    HW323455   1.204   3.977   4.813  0.6427 -1.2385 -1.4475
 5922SOL    MW423456   1.176   3.910   4.861  0.2124 -0.5217 -0.6516
 5923SOL     OW23457   2.876   2.589   4.969 -0.0231 -0.2021  0.3154
 5923SOL    HW223458   2.943   2.636   4.919 -0.7870  0.1507 -0.3839
 5923SOL    HW323459   2.874   2.634   5.054  1.9697 -1.4065  1.0893
 5923SOL    MW423460   2.885   2.601   4.974 -0.1418 -0.6086  0.1328
 5924SOL     OW23461   3.407   2.722   5.610 -0.2371 -0.2339 -0.3737
 5924SOL    HW223462   3.488   2.674   5.600  0.3607  0.4670  0.8355
 5924SOL    HW323463   3.413   2.762   5.697 -2.3425 -1.0424  0.2212
 5924SOL    MW423464   3.418   2.721   5.620 -0.1338  0.1793  0.1061
 5925SOL     OW23465   0.078   2.984   5.408  0.5981 -0.0321  0.1509
 5925SOL    HW223466   0.102   2.892   5.420  1.5281  0.2521  0.5484
 5925SOL    HW323467  -0.006   2.981   5.362 -1.9241 -1.1884  4.2662
 5925SOL    MW423468   0.070   2.971   5.403  0.1059  0.4672  0.4042
 5926SOL     OW23469   3.147   5.492   1.262  0.2299  0.3132  0.5004
 5926SOL    HW223470   3.163   5.560   1.196 -0.6431  0.1544  0.1108
 5926SOL    HW323471   3.174   5.411   1.218  0.3276  0.2906  0.6029
 5926SOL    MW423472   3.153   5.490   1.247 -0.0238 -0.4798  0.6092
 5927SOL     OW23473   0.717   4.968   6.184 -0.5426 -0.1219  0.6812
 5927SOL    HW223474   0.706   5.042   6.244 -1.1582  0.0775  0.3358
 5927SOL    HW323475   0.631   4.959   6.143 -0.3926 -0.8614  0.5258
 5927SOL    MW423476   0.704   4.977   6.187 -0.0923 -0.2817  0.1144
 5928SOL     OW23477   2.349   2.770   5.078 -0.1094  0.2829 -0.1764
 5928SOL    HW223478   2.257   2.745   5.088  0.2759 -0.3729  2.6893
 5928SOL    HW323479   2.360   2.845   5.137  1.3520 -0.2270  0.2428
 5928SOL    MW423480   2.338   2.776   5.087 -0.2398  0.0847 -0.1125
 5929SOL     OW23481   3.789   0.801   5.728  0.3922  0.6321  0.5086
 5929SOL    HW223482   3.709   0.804   5.781  1.0700 -0.5472  1.6693
 5929SOL    HW323483   3.856   0.839   5.783  0.6994  1.3838 -0.3654
 5929SOL    MW423484   3.787   0.806   5.742  0.8139 -0.0936 -0.6295
 5930SOL     OW23485   3.395   3.508   2.634 -0.1097 -0.4964  0.0515
 5930SOL    HW223486   3.317   3.461   2.605  0.0944 -0.2284 -0.9968
 5930SOL    HW323487   3.392   3.591   2.586  0.3213 -0.0844  0.7275
 5930SOL    MW423488   3.384   3.513   2.624 -0.4229 -0.4581 -0.3368
 5931SOL     OW23489   0.954   1.394   5.235  0.1068 -0.5225 -0.1379
 5931SOL    HW223490   0.991   1.428   5.153 -0.1974 -0.4103 -0.2328
 5931SOL    HW323491   0.884   1.456   5.257 -0.3521 -0.9944 -0.2312
 5931SOL    MW423492   0.950   1.407   5.227  0.0747 -0.1692 -0.3035
 5932SOL     OW23493   6.093   1.158   0.042 -0.0517  0.3918 -0.3945
 5932SOL    HW223494   6.123   1.166   0.133 -1.9436 -1.0056  0.3997
 5932SOL    HW323495   6.055   1.071   0.036 -0.2989  0.5896 -2.4512
 5932SOL    MW423496   6.092   1.148   0.053  0.4230  0.3032 -0.4031
 5933SOL     OW23497   1.792   3.564   6.313  0.1863 -0.1170  0.2856
 5933SOL    HW223498   1.759   3.556   6.402  0.9195 -0.6462  0.5242
 5933SOL    HW323499   1.716   3.551   6.257 -0.2468  0.0628  0.8328
 5933SOL    MW423500   1.778   3.561   6.317 -0.3825  0.5801 -0.1526
 5934SOL     OW23501   2.661   2.412   2.684  0.2393  0.2805 -0.4369
 5934SOL    HW223502   2.580   2.459   2.706 -0.2043  0.3133 -2.0058
 5934SOL    HW323503   2.651   2.326   2.726  0.5029  1.0889  1.4000
 5934SOL    MW423504   2.649   2.406   2.693  0.0554  0.0808  0.7631
 5935SOL     OW23505   6.255   2.278   2.239  0.0573 -0.4336  0.2093
 5935SOL    HW223506   6.327   2.330   2.275  1.5474 -1.8529 -0.6060
 5935SOL    HW323507   6.176   2.315   2.280  1.2619  0.9343  1.4020
 5935SOL    MW423508   6.254   2.290   2.249  0.5607 -0.0227  1.6216
 5936SOL     OW23509   5.287   5.135   3.896 -0.2409  0.3109  0.2906
 5936SOL    HW223510   5.195   5.164   3.900 -0.3558  0.1930 -0.9448
 5936SOL    HW323511   5.317   5.166   3.811  0.0721 -1.8890 -0.4591
 5936SOL    MW423512   5.279   5.143   3.885  0.3352  0.0671 -0.0092
 5937SOL     OW23513   2.777   5.140   4.959  0.1756 -0.2845 -0.6421
 5937SOL    HW223514   2.728   5.058   4.970  0.5858 -0.3817  0.6917
 5937SOL    HW323515   2.862   5.123   5.000  0.2262  0.8355 -0.2471
 5937SOL    MW423516   2.782   5.127   4.966 -0.1559  0.1562  0.1221
 5938SOL     OW23517   6.388   0.611   6.227  0.1196 -0.0318 -0.7079
 5938SOL    HW223518   6.310   0.646   6.183 -1.2465 -0.9999  0.8007
 5938SOL    HW323519   6.416   0.538   6.172 -0.0162  0.3417 -1.2805
 5938SOL    MW423520   6.381   0.606   6.214  0.0050  0.1656  0.0289
 5939SOL     OW23521   1.056   3.099   1.049 -0.3440 -0.4243 -0.1033
 5939SOL    HW223522   1.049   3.041   0.973  2.6280  0.0781 -0.9043
 5939SOL    HW323523   1.024   3.183   1.018 -2.1085 -0.9201  0.2407
 5939SOL    MW423524   1.051   3.102   1.035 -0.0859 -0.0615 -0.9638
 5940SOL     OW23525   5.444   3.588   0.496 -0.0615  0.1117 -0.4904
 5940SOL    HW223526   5.440   3.680   0.469 -2.8223  0.4158  0.5900
 5940SOL    HW323527   5.360   3.572   0.538  0.3717 -2.9120 -0.5413
 5940SOL    MW423528   5.432   3.598   0.498  0.0065  0.6567  0.0118
 5941SOL     OW23529   3.096   0.795   2.767  0.4426 -0.1753  0.0197
 5941SOL    HW223530   3.137   0.715   2.800 -1.0135 -0.4587  1.2459
 5941SOL    HW323531   3.160   0.831   2.706  1.9063 -1.3142  0.8151
 5941SOL    MW423532   3.110   0.789   2.763  0.4502 -0.9006 -0.4748
 5942SOL     OW23533   3.195   1.431   0.971  0.4847 -0.2841  0.3066
 5942SOL    HW223534   3.192   1.372   1.046 -0.1830  0.8398  1.1982
 5942SOL    HW323535   3.196   1.373   0.895  1.0260 -1.4445  1.1689
 5942SOL    MW423536   3.195   1.415   0.971 -0.1982  0.4227  0.1734
 5943SOL     OW23537   5.759   3.419   0.382 -0.2216  0.4646  0.0886
 5943SOL    HW223538   5.752   3.499   0.433 -1.1408  0.2637  0.2966
 5943SOL    HW323539   5.675   3.410   0.338  0.1167 -0.0202 -0.4886
 5943SOL    MW423540   5.747   3.428   0.383  0.0819 -0.9205  0.6657
 5944SOL     OW23541   2.995   4.547   4.255 -0.2047 -0.2206 -0.0450
 5944SOL    HW223542   2.999   4.452   4.250 -0.2382 -0.2115 -0.2377
 5944SOL    HW323543   3.046   4.569   4.333 -1.5127 -0.4990  0.9421
 5944SOL    MW423544   3.002   4.538   4.265 -0.0661  0.4132 -0.7098
 5945SOL     OW23545   0.842   1.919   3.159  0.3552 -0.1056  0.5812
 5945SOL    HW223546   0.885   1.918   3.244  0.7978 -1.5999  0.3738
 5945SOL    HW323547   0.773   1.853   3.166  1.6639 -1.7240 -0.8018
 5945SOL    MW423548   0.839   1.910   3.171 -0.1093  0.2990 -0.6108
 5946SOL     OW23549   5.995   3.350   1.190 -0.2188 -0.0670  0.1591
 5946SOL    HW223550   5.902   3.366   1.203  0.0357  1.4624  0.3067
 5946SOL    HW323551   6.016   3.393   1.107  0.4976  0.2581  0.4975
 5946SOL    MW423552   5.986   3.357   1.181  0.1255  0.1932 -0.3511
 5947SOL     OW23553   4.129   2.333   5.224  0.2215 -0.1762 -0.0115
 5947SOL    HW223554   4.155   2.241   5.225  2.3603  0.3204 -1.9076
 5947SOL    HW323555   4.051   2.336   5.169 -0.0637 -0.8675  0.3409
 5947SOL    MW423556   4.122   2.321   5.217  0.1599 -0.1719  0.0477
 5948SOL     OW23557   4.022   3.906   3.762  0.6391 -0.2739 -0.5373
 5948SOL    HW223558   4.108   3.885   3.797  0.8231  2.0892  0.6447
 5948SOL    HW323559   3.961   3.854   3.813  1.1330  0.9438  1.4031
 5948SOL    MW423560   4.025   3.897   3.773 -0.2109  0.0023  0.1595
 5949SOL     OW23561   5.560   6.005   5.452 -0.4673 -0.0038  0.2336
 5949SOL    HW223562   5.590   5.956   5.375 -0.5386 -0.0493  0.2339
 5949SOL    HW323563   5.473   6.036   5.428  0.2992  1.6873 -0.4694
 5949SOL    MW423564   5.552   6.002   5.439 -0.0057 -0.1814  0.2828
 5950SOL     OW23565   0.898   6.182   0.882 -0.7128  0.0296  0.1454
 5950SOL    HW223566   0.862   6.267   0.908  1.9617  1.3113 -0.0245
 5950SOL    HW323567   0.822   6.130   0.860 -2.5003  2.1809  0.8310
 5950SOL    MW423568   0.883   6.187   0.883  0.0569 -0.1443 -0.6710
 5951SOL     OW23569   6.070   6.381   5.616  0.6069  0.2554 -0.1576
 5951SOL    HW223570   6.136   6.428   5.668  1.8063 -0.7124 -0.7353
 5951SOL    HW323571   6.004   6.354   5.680  0.8005  1.1730  0.4569
 5951SOL    MW423572   6.070   6.384   5.631  0.2617 -0.2256  0.5113
 5952SOL     OW23573   0.732   2.993   2.516  0.1874 -0.2686 -0.1835
 5952SOL    HW223574   0.775   3.068   2.557 -0.1707  0.4272 -1.0673
 5952SOL    HW323575   0.639   3.016   2.515 -0.1895 -1.5113  1.1745
 5952SOL    MW423576   0.725   3.006   2.522 -0.5128 -0.6681  0.0236
 5953SOL     OW23577   3.138   0.372   5.081 -0.1006  0.2126  0.0193
 5953SOL    HW223578   3.215   0.368   5.137 -0.2533 -2.9095  0.1355
 5953SOL    HW323579   3.165   0.331   4.999 -1.2122  0.4819 -0.5058
 5953SOL    MW423580   3.152   0.366   5.078  0.2424  0.3155  0.0097
 5954SOL     OW23581   0.733   4.606   0.371  0.0084 -0.6535 -0.2651
 5954SOL    HW223582   0.690   4.522   0.392  1.5267 -1.4603 -0.2786
 5954SOL    HW323583   0.661   4.664   0.346 -1.1123 -1.8434  0.1021
 5954SOL    MW423584   0.718   4.602   0.371  0.0846  0.1441  0.1252
 5955SOL     OW23585   0.951   4.392   6.074 -0.4600  0.0398  0.0621
 5955SOL    HW223586   1.016   4.323   6.060 -0.5327  0.3798 -2.4851
 5955SOL    HW323587   0.882   4.373   6.011 -0.3478  2.5384 -0.9564
 5955SOL    MW423588   0.951   4.381   6.064 -0.1291  0.2173  0.1678
 5956SOL     OW23589   4.433   5.250   5.261  0.1209  0.2064 -0.1875
 5956SOL    HW223590   4.368   5.204   5.208 -0.1114 -0.4621  0.6608
 5956SOL    HW323591   4.400   5.340   5.268 -1.3190 -0.3981  1.2012
 5956SOL    MW423592   4.420   5.256   5.255 -0.2590 -0.5162  0.4505
 5957SOL     OW23593   4.681   1.267   3.124 -0.1044 -0.1778 -0.3373
 5957SOL    HW223594   4.586   1.271   3.134  0.0009 -0.9357  1.0736
 5957SOL    HW323595   4.716   1.299   3.207  0.8580 -1.9462 -0.0103
 5957SOL    MW423596   4.673   1.272   3.136 -0.0749 -0.3560  0.2841
 5958SOL     OW23597   5.525   0.419   5.861  0.0470 -0.0244 -0.3433
 5958SOL    HW223598   5.555   0.370   5.785 -0.8192  0.7142 -1.1904
 5958SOL    HW323599   5.429   0.416   5.855 -0.0328  0.2065  0.6097
 5958SOL    MW423600   5.516   0.412   5.850  0.4489 -0.3268 -0.2409
 5959SOL     OW23601   3.066   5.482   2.132 -0.0473  0.0644 -0.6538
 5959SOL    HW223602   3.077   5.402   2.184  0.9156  0.7306  0.2079
 5959SOL    HW323603   3.133   5.475   2.064 -0.2487 -0.0477 -0.8451
 5959SOL    MW423604   3.076   5.470   2.130  0.0467 -0.9293 -0.1371
 5960SOL     OW23605   6.368   3.106   5.966 -0.1232 -0.8588 -0.7214
 5960SOL    HW223606   6.298   3.127   5.904 -1.4938 -1.1233  0.6710
 5960SOL    HW323607   6.416   3.035   5.924 -1.8998 -2.0240 -0.9160
 5960SOL    MW423608   6.365   3.100   5.952  0.4393 -0.7843  0.1055
 5961SOL     OW23609   1.873   0.450   2.737 -0.1559  0.8110  0.3070
 5961SOL    HW223610   1.791   0.404   2.752  0.6347 -0.5429  0.6932
 5961SOL    HW323611   1.873   0.470   2.644 -0.6464  0.2501  0.1838
 5961SOL    MW423612   1.862   0.447   2.727 -0.1235  0.0763  0.0795
 5962SOL     OW23613   1.942   4.981   2.818  0.3364 -0.6447  0.3832
 5962SOL    HW223614   1.864   4.975   2.764  2.6743 -0.9305 -3.2912
 5962SOL    HW323615   1.972   4.890   2.829  0.4292 -0.5104  1.3818
 5962SOL    MW423616   1.936   4.968   2.813 -0.0812  0.2718  0.1256
 5963SOL     OW23617   5.699   2.948   1.957  0.8868  0.0648  0.1629
 5963SOL    HW223618   5.767   2.956   1.890  1.8325 -0.7428  0.9898
 5963SOL    HW323619   5.698   2.854   1.978  2.9099  0.6534  3.5496
 5963SOL    MW423620   5.708   2.937   1.951  0.0094  0.0100  0.9679
 5964SOL     OW23621   5.299   4.115   0.819 -0.0824 -0.1321 -0.5431
 5964SOL    HW223622   5.390   4.127   0.846  0.5037 -0.8511 -2.0612
 5964SOL    HW323623   5.247   4.137   0.896  1.4154 -0.5817  0.6272
 5964SOL    MW423624   5.304   4.119   0.833  0.5137 -0.0923  0.0147
 5965SOL     OW23625   3.679   1.738   6.057  0.1372  0.2742 -0.5861
 5965SOL    HW223626   3.773   1.725   6.045  0.4968  1.8632  0.2792
 5965SOL    HW323627   3.671   1.785   6.139 -1.5963 -1.7424  0.5058
 5965SOL    MW423628   3.690   1.742   6.066  0.3355 -0.1466  0.4797
 5966SOL     OW23629   4.620   1.056   5.357  0.0759  0.0185 -0.4594
 5966SOL    HW223630   4.579   1.142   5.360  0.4180  0.2195 -1.4221
 5966SOL    HW323631   4.713   1.072   5.373 -0.0699 -0.3463  0.8742
 5966SOL    MW423632   4.627   1.069   5.360  0.1118  0.1514 -0.1845
 5967SOL     OW23633   6.355   4.472   0.774  0.1389 -0.2947 -0.3450
 5967SOL    HW223634   6.271   4.440   0.806  0.1679  1.3293  1.5701
 5967SOL    HW323635   6.420   4.429   0.830  0.5438 -0.9001 -1.2620
 5967SOL    MW423636   6.352   4.462   0.786 -0.4069  0.4538 -0.5833
 5968SOL     OW23637   2.983   3.095   2.155  0.5511  0.1457  0.1851
 5968SOL    HW223638   2.947   3.122   2.070  0.5712  0.5923  0.3141
 5968SOL    HW323639   2.920   3.128   2.219  0.8973  0.4352  0.3803
 5968SOL    MW423640   2.970   3.103   2.152 -0.3213 -0.4165 -0.4287
 5969SOL     OW23641   4.599   1.945   1.927 -0.3557  0.6183 -0.2018
 5969SOL    HW223642   4.586   1.877   1.994 -1.3714  0.5754 -0.4180
 5969SOL    HW323643   4.670   1.999   1.960  1.1412 -1.1059 -0.4717
 5969SOL    MW423644   4.607   1.943   1.940  0.3480  0.0873  0.2189
 5970SOL     OW23645   5.520   2.291   1.603  0.6077  0.3750  0.5927
 5970SOL    HW223646   5.472   2.331   1.531  2.5755 -1.7240 -2.1030
 5970SOL    HW323647   5.582   2.358   1.631  0.9976  0.6661 -0.9097
 5970SOL    MW423648   5.522   2.305   1.597 -0.0143  0.1368  0.5708
 5971SOL     OW23649   3.725   0.575   2.657 -0.6316 -0.7641  0.1922
 5971SOL    HW223650   3.637   0.614   2.659  0.2916  1.4530 -0.0812
 5971SOL    HW323651   3.757   0.593   2.569  1.1098  0.9414  1.0935
 5971SOL    MW423652   3.717   0.583   2.646 -0.0659  0.6330  0.1996
 5972SOL     OW23653   2.496   3.569   1.263 -0.2484 -0.1951  0.2208
 5972SOL    HW223654   2.403   3.581   1.285 -0.4261  0.9648 -1.0392
 5972SOL    HW323655   2.540   3.563   1.348 -1.6115 -2.2940  0.8653
 5972SOL    MW423656   2.489   3.570   1.277  0.3251  0.6148 -0.0464
 5973SOL     OW23657   5.577   3.914   5.847 -0.3798  0.8913  0.1642
 5973SOL    HW223658   5.671   3.897   5.839 -0.6991 -1.5539  0.7141
 5973SOL    HW323659   5.571   3.992   5.902  1.3228  1.1831 -0.0086
 5973SOL    MW423660   5.589   3.922   5.853 -0.2520 -0.0779  0.1173
 5974SOL     OW23661   3.966   6.263   4.095  0.5174  0.9259 -0.1243
 5974SOL    HW223662   3.997   6.226   4.178 -1.0578 -0.4164 -0.0786
 5974SOL    HW323663   3.908   6.334   4.121  0.4792  0.8806 -0.0851
 5974SOL    MW423664   3.962   6.267   4.109  0.0059  0.5597 -0.3596
 5975SOL     OW23665   3.881   3.026   0.401 -0.0614 -0.0360 -0.1506
 5975SOL    HW223666   3.926   3.009   0.318 -0.8244 -2.0267 -0.2200
 5975SOL    HW323667   3.812   3.088   0.379 -0.0853 -0.3393 -0.9731
 5975SOL    MW423668   3.878   3.032   0.387 -0.7933 -0.4209 -0.0227
 5976SOL     OW23669   2.336   5.422   5.220 -0.5748 -0.2286 -0.2291
 5976SOL    HW223670   2.379   5.494   5.267 -0.7718 -0.8897  1.0199
 5976SOL    HW323671   2.262   5.463   5.176 -0.4870  0.3937  0.1876
 5976SOL    MW423672   2.332   5.437   5.221  0.0482  0.0266  0.4689
 5977SOL     OW23673   4.346   1.648   0.385 -0.0166 -0.0411 -0.0086
 5977SOL    HW223674   4.355   1.571   0.329  0.0594  0.6917 -1.0246
 5977SOL    HW323675   4.421   1.643   0.444  2.6379  1.5468 -2.9360
 5977SOL    MW423676   4.357   1.637   0.385  0.3706  0.0528  0.3979
 5978SOL     OW23677   2.660   3.391   1.102 -0.2033 -0.5139  0.2557
 5978SOL    HW223678   2.668   3.408   1.008  2.1991  2.6230  0.9070
 5978SOL    HW323679   2.620   3.470   1.138  1.0965 -0.6732  2.1780
 5978SOL    MW423680   2.656   3.403   1.094  0.3274 -0.8331 -0.3566
 5979SOL     OW23681   1.703   4.619   3.139  0.0914 -0.0536  0.0413
 5979SOL    HW223682   1.627   4.648   3.190  0.2418  1.1207 -0.3868
 5979SOL    HW323683   1.777   4.626   3.199  0.3287  1.6774 -0.3907
 5979SOL    MW423684   1.703   4.624   3.153  0.0881  0.3893 -0.1596
 5980SOL     OW23685   5.561   2.593   5.178  0.6851 -0.3574  0.4954
 5980SOL    HW223686   5.613   2.518   5.206  1.6762  0.9940  2.6147
 5980SOL    HW323687   5.477   2.583   5.223 -0.2077 -1.4859 -1.3136
 5980SOL    MW423688   5.557   2.582   5.188  0.1712  0.6059  0.8027
 5981SOL     OW23689   6.098   1.936   6.073  0.2190  0.2885  0.3555
 5981SOL    HW223690   6.098   1.840   6.081  2.5932  0.2829  1.1703
 5981SOL    HW323691   6.114   1.953   5.981  1.4183 -0.1601  0.4637
 5981SOL    MW423692   6.100   1.926   6.062 -0.4478  0.2987  0.5209
 5982SOL     OW23693   1.969   4.120   5.576  0.1575 -0.0084  0.2597
 5982SOL    HW223694   1.994   4.203   5.618 -0.4829  0.9255 -1.1350
 5982SOL    HW323695   1.913   4.077   5.641 -0.8603  1.4308  0.4071
 5982SOL    MW423696   1.965   4.126   5.590  0.4105  0.1790 -0.1534
 5983SOL     OW23697   6.264   2.965   5.279  0.0106 -0.5886 -0.4941
 5983SOL    HW223698   6.193   2.907   5.254 -1.6144  0.5253  1.3070
 5983SOL    HW323699   6.222   3.037   5.325  2.1726  0.8864 -0.6412
 5983SOL    MW423700   6.249   2.967   5.282 -0.0073  0.4321  0.3731
 5984SOL     OW23701   1.932   3.120   3.478 -0.0315 -0.2854 -0.1527
 5984SOL    HW223702   1.975   3.186   3.532 -1.3513  1.1696 -0.7867
 5984SOL    HW323703   1.979   3.123   3.394  1.0799 -1.5002  0.3975
 5984SOL    MW423704   1.944   3.129   3.474 -0.0913  0.2610  0.1041
 5985SOL     OW23705   4.076   6.024   5.907  0.2021  0.0557  0.0032
 5985SOL    HW223706   4.163   6.057   5.885  1.2113 -1.4079  1.5462
 5985SOL    HW323707   4.079   5.930   5.885 -0.7079 -0.1880  0.8080
 5985SOL    MW423708   4.088   6.016   5.901  0.0795 -0.2972  0.0141
 5986SOL     OW23709   3.072   5.992   3.384 -0.1329 -0.4967  0.1749
 5986SOL    HW223710   2.995   6.036   3.350 -0.6036 -1.8574 -0.5635
 5986SOL    HW323711   3.121   5.964   3.307  0.8603 -0.0837  0.6334
 5986SOL    MW423712   3.069   5.994   3.370  0.7016  0.3605 -0.8340
 5987SOL     OW23713   2.216   2.190   3.054 -0.0420 -0.1610 -0.8336
 5987SOL    HW223714   2.233   2.263   2.994  1.3985  1.8036  1.7599
 5987SOL    HW323715   2.121   2.183   3.057 -0.1745  0.4510 -2.3889
 5987SOL    MW423716   2.206   2.198   3.046  0.7054  0.3840  0.2816
 5988SOL     OW23717   0.362   6.188   5.589  0.2476  0.1476  0.0515
 5988SOL    HW223718   0.271   6.184   5.559 -0.7740 -0.7793  2.9524
 5988SOL    HW323719   0.357   6.176   5.684  3.4894 -0.9082  0.2166
 5988SOL    MW423720   0.349   6.186   5.598  0.2601 -0.8075 -0.3761
 5989SOL     OW23721   5.126   3.503   4.797  0.2728  0.1331 -0.1408
 5989SOL    HW223722   5.169   3.443   4.859 -2.1226 -0.1716  1.3476
 5989SOL    HW323723   5.141   3.590   4.833  1.5928  0.2694 -0.9364
 5989SOL    MW423724   5.134   3.506   4.810 -0.0398 -0.6697 -0.0095
 5990SOL     OW23725   1.279   1.436   1.761  0.1603 -0.1296 -0.0425
 5990SOL    HW223726   1.373   1.453   1.752  0.0982 -0.4361 -1.5162
 5990SOL    HW323727   1.273   1.341   1.777  0.1504  0.0929  1.4128
 5990SOL    MW423728   1.290   1.425   1.762 -0.0268  0.4180 -0.1388
 5991SOL     OW23729   2.779   1.315   3.497  0.5199 -0.4529  0.2225
 5991SOL    HW223730   2.696   1.349   3.466  0.4353 -0.9871 -0.1507
 5991SOL    HW323731   2.825   1.391   3.531  1.1240  0.4252 -2.3268
 5991SOL    MW423732   2.774   1.329   3.497  0.0761  0.2110  0.6205
 5992SOL     OW23733   4.669   4.346   4.754 -0.7018 -0.1717 -0.9113
 5992SOL    HW223734   4.651   4.253   4.738 -1.1648  0.1727 -2.5838
 5992SOL    HW323735   4.695   4.381   4.669  0.5107  1.0250 -0.0964
 5992SOL    MW423736   4.670   4.338   4.741  0.2909 -0.4495 -0.0367
 5993SOL     OW23737   5.761   4.079   3.680 -0.2337  0.0684 -0.5951
 5993SOL    HW223738   5.764   4.021   3.755 -0.3911 -0.1198 -0.7322
 5993SOL    HW323739   5.669   4.076   3.651  0.2024 -1.3588 -1.9647
 5993SOL    MW423740   5.749   4.071   3.686 -0.1325  0.1134 -0.2116
 5994SOL     OW23741   1.795   5.770   1.482  0.1964  0.5643 -0.0823
 5994SOL    HW223742   1.748   5.737   1.406  0.9701  0.2643 -0.4281
 5994SOL    HW323743   1.860   5.830   1.446 -1.3562  2.7905  0.5226
 5994SOL    MW423744   1.797   5.774   1.467 -0.1580  0.3260  0.0679
 5995SOL     OW23745   0.287   6.179   4.591 -0.3521 -0.0957  0.0635
 5995SOL    HW223746   0.350   6.233   4.639  0.5723 -0.9872 -0.0798
 5995SOL    HW323747   0.243   6.128   4.659 -1.7092  1.2895  0.2569
 5995SOL    MW423748   0.290   6.179   4.606 -0.3941 -0.3367 -0.2284
 5996SOL     OW23749   1.638   0.983   0.913  0.1617 -0.5239  0.3955
 5996SOL    HW223750   1.605   1.036   0.841 -1.1197 -1.3110  0.3638
 5996SOL    HW323751   1.656   1.045   0.983  0.2648  0.1102 -0.1791
 5996SOL    MW423752   1.636   0.998   0.913  0.4885  0.0205 -0.5063
 5997SOL     OW23753   5.699   1.762   0.156 -0.4651  0.6983 -0.7367
 5997SOL    HW223754   5.757   1.743   0.229 -0.2541  1.5512 -0.6713
 5997SOL    HW323755   5.626   1.701   0.167 -0.0431  0.2648 -0.2855
 5997SOL    MW423756   5.697   1.752   0.167  0.1912 -0.0962  0.2595
 5998SOL     OW23757   2.222   5.634   6.331  0.3388  0.3566  0.0387
 5998SOL    HW223758   2.274   5.561   6.364  0.9670  0.6797 -0.2134
 5998SOL    HW323759   2.197   5.684   6.409 -0.2413 -0.2231  0.2258
 5998SOL    MW423760   2.225   5.631   6.345  0.1312  0.5591 -0.3720
 5999SOL     OW23761   2.829   1.925   0.882  0.4850  0.0880  0.4441
 5999SOL    HW223762   2.880   1.870   0.942 -0.6777  0.0577  1.4378
 5999SOL    HW323763   2.739   1.918   0.914  0.0963  1.3939 -0.3125
 5999SOL    MW423764   2.824   1.917   0.894  0.9574 -0.4125 -0.2988
 6000SOL     OW23765   1.656   3.461   1.741 -0.1414 -0.0126 -0.2654
 6000SOL    HW223766   1.704   3.416   1.811 -0.5992  1.5320  1.1290
 6000SOL    HW323767   1.577   3.408   1.729  0.9532 -1.5145 -1.2256
 6000SOL    MW423768   1.652   3.448   1.749 -0.2759 -0.8157  0.2673
 6001SOL     OW23769   4.438   4.479   5.991  0.2591 -0.4788 -0.0485
 6001SOL    HW223770   4.473   4.530   5.919 -1.5036  0.1419 -0.5076
 6001SOL    HW323771   4.353   4.447   5.959  0.9994 -3.1897  0.4439
 6001SOL    MW423772   4.431   4.481   5.977  0.6374  0.8834  0.4069
 6002SOL     OW23773   5.958   4.083   2.154 -0.0556  0.2118 -0.0629
 6002SOL    HW223774   5.918   4.145   2.214  2.1936  2.0896 -0.3482
 6002SOL    HW323775   6.012   4.026   2.209 -0.3998 -0.0690 -0.0146
 6002SOL    MW423776   5.960   4.083   2.169 -0.2064 -0.4800 -0.0777
 6003SOL     OW23777   1.720   2.818   2.090 -0.4767  0.0829  0.5148
 6003SOL    HW223778   1.730   2.884   2.158  0.2082  1.2692 -0.7041
 6003SOL    HW323779   1.788   2.838   2.026 -1.2334 -0.8628 -0.6415
 6003SOL    MW423780   1.730   2.829   2.091  0.4622  0.5059 -0.5227
 6004SOL     OW23781   1.389   6.242   5.825 -0.3414 -0.0957  0.5496
 6004SOL    HW223782   1.377   6.309   5.758 -1.8650 -0.6155  0.2474
 6004SOL    HW323783   1.330   6.171   5.799 -1.6599  0.0301  2.8426
 6004SOL    MW423784   1.379   6.241   5.813  0.1953  0.0561  0.1377
 6005SOL     OW23785   3.612   2.137   0.029  0.6552 -0.6799  0.1623
 6005SOL    HW223786   3.679   2.078   0.062  0.3473 -0.7418  0.7030
 6005SOL    HW323787   3.661   2.210  -0.010  1.0332 -0.9360  0.1544
 6005SOL    MW423788   3.627   2.139   0.028 -0.1799  0.2291 -0.2510
 6006SOL     OW23789   0.281   6.266   3.117  0.0263  0.2576 -0.4784
 6006SOL    HW223790   0.327   6.205   3.175 -0.0782 -0.5164 -1.1966
 6006SOL    HW323791   0.350   6.304   3.063  0.0022  0.2109 -0.5420
 6006SOL    MW423792   0.297   6.263   3.117  0.3531  0.3875 -0.0359
 6007SOL     OW23793   4.519   0.138   1.601  0.1148 -0.3709 -0.1075
 6007SOL    HW223794   4.489   0.050   1.620  0.1114 -0.5593 -0.9250
 6007SOL    HW323795   4.479   0.160   1.517  2.4509 -0.7645 -1.4230
 6007SOL    MW423796   4.510   0.130   1.592 -0.1715 -0.5169  0.0337
 6008SOL     OW23797   6.301   1.671   4.415 -0.5357  0.1146 -0.0464
 6008SOL    HW223798   6.288   1.698   4.506 -2.2948 -1.0028  0.0676
 6008SOL    HW323799   6.317   1.577   4.419  0.3332  0.2167 -0.8293
 6008SOL    MW423800   6.301   1.662   4.427  0.7088  0.0578 -0.2195
 6009SOL     OW23801   2.445   1.297   3.774 -0.5040  0.3693  0.3167
 6009SOL    HW223802   2.371   1.304   3.835 -0.9176  0.1633 -0.1433
 6009SOL    HW323803   2.514   1.254   3.824 -1.1095 -0.5129  0.4236
 6009SOL    MW423804   2.444   1.292   3.788 -0.1517 -1.2173  0.4386
 6010SOL     OW23805   4.656   3.756   2.767  0.5471 -0.1560 -0.8088
 6010SOL    HW223806   4.619   3.684   2.818  2.7963 -0.8549 -0.0354
 6010SOL    HW323807   4.594   3.770   2.696 -1.6537 -0.5409  0.9450
 6010SOL    MW423808   4.643   3.748   2.764  0.5064 -0.0046 -0.5621
 6011SOL     OW23809   1.709   1.182   4.853 -0.2501  0.2550  0.4121
 6011SOL    HW223810   1.679   1.151   4.767  0.5892 -1.1957  0.6085
 6011SOL    HW323811   1.718   1.277   4.842 -0.8832  0.1985 -0.8706
 6011SOL    MW423812   1.706   1.190   4.840 -0.2263 -0.4270  0.2636
 6012SOL     OW23813   5.792   3.741   4.244 -0.6504  0.5205  0.0805
 6012SOL    HW223814   5.775   3.752   4.150 -0.6085  0.4998  0.0705
 6012SOL    HW323815   5.781   3.829   4.280 -1.7551  0.3251  0.2377
 6012SOL    MW423816   5.788   3.754   4.236  0.2785  0.1095  0.0135
 6013SOL     OW23817   0.677   6.016   0.820  0.1396  0.1647  0.3758
 6013SOL    HW223818   0.675   5.981   0.909 -0.6901 -0.9939 -0.0679
 6013SOL    HW323819   0.742   5.962   0.775 -1.0522 -0.7858 -0.2802
 6013SOL    MW423820   0.685   6.004   0.826 -0.8311 -0.0827  0.4045
 6014SOL     OW23821   5.891   3.689   5.075  0.0331  0.2881 -0.1937
 6014SOL    HW223822   5.965   3.634   5.103 -1.0952 -0.7546  0.8517
 6014SOL    HW323823   5.911   3.775   5.111  1.0362  0.1981 -0.4753
 6014SOL    MW423824   5.904   3.693   5.083  0.6601  0.8129 -0.2159
 6015SOL     OW23825   3.405   6.128   3.451 -0.0245  0.3948 -0.3275
 6015SOL    HW223826   3.467   6.180   3.502  0.2446 -0.0902 -0.1523
 6015SOL    HW323827   3.456   6.094   3.378 -0.1138  0.0976 -0.2531
 6015SOL    MW423828   3.420   6.131   3.448  0.2418 -0.6838 -0.0502
 6016SOL     OW23829   5.635   2.511   1.738 -0.4740  0.1884  0.5089
 6016SOL    HW223830   5.683   2.584   1.700 -0.8082  1.0325  1.6785
 6016SOL    HW323831   5.688   2.483   1.813 -1.1501  0.2891  1.0305
 6016SOL    MW423832   5.648   2.517   1.743 -0.0214 -0.3255 -0.6686
 6017SOL     OW23833   4.398   5.139   6.363 -0.0773 -0.3314 -0.5618
 6017SOL    HW223834   4.426   5.053   6.394  1.3323 -0.2201 -1.3978
 6017SOL    HW323835   4.303   5.138   6.370  0.0485 -0.6347  2.8009
 6017SOL    MW423836   4.389   5.128   6.368  0.0824 -0.7342 -0.5006
 6018SOL     OW23837   1.378   1.988   5.070  0.6830 -0.5625 -0.1970
 6018SOL    HW223838   1.333   2.028   4.995  1.6946 -0.0336 -0.5293
 6018SOL    HW323839   1.315   1.924   5.103  0.2299 -0.8432 -1.5273
 6018SOL    MW423840   1.363   1.985   5.064 -0.0699  0.4364 -0.4423
 6019SOL     OW23841   6.329   6.134   4.515  0.4254 -0.3985  0.1438
 6019SOL    HW223842   6.378   6.216   4.503  0.1472 -0.0249  1.3831
 6019SOL    HW323843   6.373   6.071   4.458  2.5832 -0.1566  1.4134
 6019SOL    MW423844   6.341   6.136   4.506  0.6712 -0.1988 -0.0890
 6020SOL     OW23845   1.910   0.950   0.955 -0.0208 -0.3797  0.4297
 6020SOL    HW223846   1.819   0.963   0.927  0.2213  2.2218  0.5385
 6020SOL    HW323847   1.905   0.943   1.050 -0.0553  1.6106  0.6354
 6020SOL    MW423848   1.897   0.951   0.964  0.2707 -0.2656 -0.2164
 6021SOL     OW23849   3.182   5.428   3.201  0.1198  0.2100 -0.0145
 6021SOL    HW223850   3.145   5.516   3.197 -0.3727 -0.0309 -1.3537
 6021SOL    HW323851   3.271   5.441   3.234  0.0752  1.2156 -0.2658
 6021SOL    MW423852   3.189   5.442   3.205 -0.0806 -0.1863 -0.1820
 6022SOL     OW23853   2.142   5.062   3.123 -0.1622 -0.2014 -0.1092
 6022SOL    HW223854   2.093   5.112   3.059 -2.0845 -0.3594  1.1646
 6022SOL    HW323855   2.232   5.060   3.089 -0.5564  1.9446 -1.4292
 6022SOL    MW423856   2.148   5.068   3.110 -0.2207 -0.6185  0.1128
 6023SOL     OW23857   3.190   2.386   1.433  1.0319 -0.0596 -0.5023
 6023SOL    HW223858   3.260   2.322   1.448  0.4522 -0.1794  2.0425
 6023SOL    HW323859   3.170   2.421   1.520 -1.2941  0.8061 -1.3161
 6023SOL    MW423860   3.196   2.382   1.446 -0.2836  0.0514  0.0928
 6024SOL     OW23861   1.058   5.526   5.646  0.1743 -0.1802 -0.0158
 6024SOL    HW223862   0.974   5.495   5.679 -0.6076  0.3067 -1.4410
 6024SOL    HW323863   1.042   5.543   5.553  1.8146  0.0692 -0.2818
 6024SOL    MW423864   1.045   5.524   5.638  0.0209  0.4067 -0.1640
 6025SOL     OW23865   5.857   4.498   0.950  0.2464  0.2534  0.8943
 6025SOL    HW223866   5.805   4.553   0.891  1.2776  0.2866 -0.0221
 6025SOL    HW323867   5.945   4.498   0.911  0.9431  0.2005  2.3931
 6025SOL    MW423868   5.862   4.505   0.937 -0.3674  0.4960 -0.6083
 6026SOL     OW23869   4.943   4.830   4.305 -0.0380 -0.1795  1.0352
 6026SOL    HW223870   4.986   4.891   4.365 -0.7945  0.0316  1.3699
 6026SOL    HW323871   4.912   4.759   4.360 -0.6432 -0.0355  0.8862
 6026SOL    MW423872   4.945   4.829   4.320 -0.0130  0.3014 -0.7252
 6027SOL     OW23873   3.676   2.850   4.498 -0.2875  0.1162 -0.0604
 6027SOL    HW223874   3.768   2.837   4.475  0.3410  0.8913  1.7889
 6027SOL    HW323875   3.654   2.935   4.460 -0.6785 -0.6354 -1.6138
 6027SOL    MW423876   3.686   2.859   4.490 -0.3191 -0.0732 -0.2896
 6028SOL     OW23877   2.475   3.131   1.989  0.0114  0.1764  0.2899
 6028SOL    HW223878   2.467   3.122   2.084  1.6705 -1.6710  0.3329
 6028SOL    HW323879   2.386   3.147   1.958 -0.8246 -0.9284  2.0114
 6028SOL    MW423880   2.463   3.132   1.997  0.1789 -0.3144 -0.7028
 6029SOL     OW23881   1.469   1.255   5.283  0.6023 -0.3152 -0.2276
 6029SOL    HW223882   1.551   1.210   5.305  1.2054 -0.2177 -2.1419
 6029SOL    HW323883   1.494   1.347   5.277  0.2261 -0.2197 -0.3052
 6029SOL    MW423884   1.483   1.261   5.285  0.5558 -0.2607  0.3037
 6030SOL     OW23885   4.076   5.179   6.076 -0.1022  0.1557  0.0274
 6030SOL    HW223886   4.031   5.262   6.091  0.7547  0.6192  0.1131
 6030SOL    HW323887   4.093   5.144   6.163  2.1111  1.3341  0.1453
 6030SOL    MW423888   4.073   5.186   6.089 -0.2112  0.3263 -0.5908
 6031SOL     OW23889   2.543   1.886   5.469  0.6142 -0.3933 -0.5395
 6031SOL    HW223890   2.620   1.832   5.456  0.7591 -0.5062  0.6753
 6031SOL    HW323891   2.469   1.826   5.461  0.7640 -0.7342  0.5575
 6031SOL    MW423892   2.543   1.871   5.466  0.3518  0.3305 -0.3724
 6032SOL     OW23893   4.850   0.804   3.114 -0.1280 -0.2898 -0.6753
 6032SOL    HW223894   4.884   0.765   3.195 -2.2345  0.5191  0.6870
 6032SOL    HW323895   4.771   0.753   3.094 -0.4461  0.4601 -1.3739
 6032SOL    MW423896   4.844   0.792   3.122 -0.0073 -0.5074  0.0727
 6033SOL     OW23897   0.095   1.612   1.043 -0.4623  0.1383 -0.1132
 6033SOL    HW223898   0.119   1.569   1.125 -0.3608  0.4082  0.0024
 6033SOL    HW323899   0.060   1.542   0.987  2.0962 -0.6189 -0.9095
 6033SOL    MW423900   0.093   1.597   1.046 -0.3459  0.4233 -0.6030
 6034SOL     OW23901   0.685   4.209   4.918 -0.2760 -0.1843  0.5964
 6034SOL    HW223902   0.780   4.199   4.918 -0.3322 -0.8134  1.3613
 6034SOL    HW323903   0.670   4.302   4.901  0.3991 -0.5539 -2.7739
 6034SOL    MW423904   0.695   4.220   4.916 -0.1504  0.2867  0.0553
 6035SOL     OW23905   3.516   0.388   5.733  0.6240  0.8760  0.4583
 6035SOL    HW223906   3.602   0.352   5.709  0.4146  0.3777  0.4561
 6035SOL    HW323907   3.486   0.333   5.804 -0.4765 -0.0518 -0.6802
 6035SOL    MW423908   3.524   0.376   5.739 -0.0808 -0.0133  0.3144
 6036SOL     OW23909   5.832   4.856   2.942 -0.8757 -0.7362 -0.1583
 6036SOL    HW223910   5.830   4.948   2.913 -3.2180 -0.6394  0.1397
 6036SOL    HW323911   5.902   4.853   3.008  0.4523  0.3931 -1.4334
 6036SOL    MW423912   5.841   4.868   2.947 -0.6170 -0.5287  0.4474
 6037SOL     OW23913   4.590   5.223   1.353  0.1674 -0.0865  0.2045
 6037SOL    HW223914   4.675   5.209   1.394  0.0046 -0.2569  0.4896
 6037SOL    HW323915   4.610   5.239   1.261  0.4626 -0.8207  0.1331
 6037SOL    MW423916   4.604   5.223   1.346 -0.1450 -0.1641  0.8392
 6038SOL     OW23917   2.292   1.358   1.807  0.2912  0.1658 -0.5843
 6038SOL    HW223918   2.327   1.442   1.775  0.0249  0.2774 -0.5825
 6038SOL    HW323919   2.309   1.296   1.737 -0.3881  0.4304 -0.9887
 6038SOL    MW423920   2.299   1.361   1.794  0.1543  0.3278 -0.3630
 6039SOL     OW23921   0.720   3.534   2.129  0.4035 -0.6858 -0.1441
 6039SOL    HW223922   0.685   3.623   2.140  0.4521 -0.3804 -2.1159
 6039SOL    HW323923   0.663   3.479   2.184 -1.7290  0.1421 -1.3864
 6039SOL    MW423924   0.708   3.538   2.137  0.0986 -0.6469  0.6375
 6040SOL     OW23925   2.026   4.958   0.637 -0.0035  0.0177  0.5983
 6040SOL    HW223926   2.065   5.028   0.690  0.9196 -1.1971  1.6088
 6040SOL    HW323927   1.996   4.894   0.701 -0.9938 -0.4324 -0.2948
 6040SOL    MW423928   2.027   4.958   0.652 -0.1676  0.3477  0.7713
 6041SOL     OW23929   3.241   5.649   4.299 -0.4334 -0.2638 -0.1670
 6041SOL    HW223930   3.255   5.701   4.378  1.2902 -0.9761  0.0350
 6041SOL    HW323931   3.146   5.652   4.285 -0.7761 -0.0589  1.8795
 6041SOL    MW423932   3.230   5.656   4.307 -0.0274  0.0472 -0.2331
 6042SOL     OW23933   5.068   3.884   4.593  0.9644 -0.3128  0.0634
 6042SOL    HW223934   5.150   3.894   4.641  2.2805 -2.6737 -1.5613
 6042SOL    HW323935   5.082   3.931   4.511  0.3732 -0.0786  0.0903
 6042SOL    MW423936   5.080   3.891   4.589 -0.0113  0.1510 -0.0863
 6043SOL     OW23937   4.358   1.274   4.923 -1.0798 -0.3359 -0.1583
 6043SOL    HW223938   4.299   1.253   4.850  0.5536 -0.0525 -1.6235
 6043SOL    HW323939   4.408   1.350   4.893  1.1523 -1.5099  0.3380
 6043SOL    MW423940   4.357   1.281   4.910  0.1268 -0.0870 -0.3363
 6044SOL     OW23941   4.790   3.517   2.231  0.5546 -0.4459  0.1480
 6044SOL    HW223942   4.857   3.474   2.284  1.2669 -0.1203 -0.4722
 6044SOL    HW323943   4.803   3.483   2.142 -1.6653 -2.2418  0.4086
 6044SOL    MW423944   4.800   3.507   2.226 -0.5231 -0.3890 -0.0007
 6045SOL     OW23945   3.401   5.189   2.013 -0.0997 -0.1840  0.2750
 6045SOL    HW223946   3.424   5.208   2.104  1.0656 -0.8618  0.1388
 6045SOL    HW323947   3.352   5.266   1.984  0.9628  0.7800  0.9719
 6045SOL    MW423948   3.397   5.201   2.021  0.0278  0.1518 -0.1682
 6046SOL     OW23949   5.359   3.056   3.598 -0.3767  0.1884  0.6678
 6046SOL    HW223950   5.364   2.977   3.651 -0.1482 -0.0051  0.3598
 6046SOL    HW323951   5.376   3.026   3.509 -0.7786  0.5041  0.4781
 6046SOL    MW423952   5.362   3.041   3.593 -0.3706 -0.0828  0.0882
 6047SOL     OW23953   2.319   1.052   3.361  0.1981 -0.2664  0.2829
 6047SOL    HW223954   2.261   1.121   3.328  1.5438  1.0154  0.4981
 6047SOL    HW323955   2.260   0.987   3.398 -1.0886  1.6953  1.8582
 6047SOL    MW423956   2.304   1.053   3.361 -0.1885 -0.2254 -0.0219
 6048SOL     OW23957   0.009   6.246   4.247  0.1393  0.3414 -0.0965
 6048SOL    HW223958  -0.053   6.307   4.206  0.8085 -0.8294 -3.1609
 6048SOL    HW323959   0.070   6.223   4.177  2.0946 -1.0820  1.9260
 6048SOL    MW423960   0.009   6.251   4.232  0.1578 -0.2625  0.2552
 6049SOL     OW23961   4.242   5.537   4.374 -0.0076 -0.6080  0.0290
 6049SOL    HW223962   4.158   5.548   4.418  0.1809  1.4234  0.0184
 6049SOL    HW323963   4.222   5.487   4.295 -1.5212  1.0214 -0.6971
 6049SOL    MW423964   4.228   5.532   4.370  0.3752  0.5588 -0.4585
 6050SOL     OW23965   5.557   3.170   2.106 -0.2784 -0.4969 -0.3746
 6050SOL    HW223966   5.602   3.086   2.099 -0.2547 -0.4288 -1.0399
 6050SOL    HW323967   5.487   3.154   2.170 -1.1431 -1.4025 -1.5119
 6050SOL    MW423968   5.554   3.157   2.114  0.5070  0.5444 -0.4147
 6051SOL     OW23969   1.594   2.644   5.719 -0.4323  0.3436  0.0242
 6051SOL    HW223970   1.609   2.568   5.663 -0.2188  1.5238 -1.5866
 6051SOL    HW323971   1.517   2.620   5.771 -1.0433 -0.5541 -1.2336
 6051SOL    MW423972   1.586   2.631   5.718 -0.0444  0.5106  0.1155
 6052SOL     OW23973   3.886   0.649   5.445  0.2143 -0.0150  0.0302
 6052SOL    HW223974   3.959   0.587   5.450 -0.5512 -0.9935 -0.5602
 6052SOL    HW323975   3.921   0.722   5.394  0.9725 -0.1764  0.2965
 6052SOL    MW423976   3.900   0.651   5.439  0.2200  0.1690 -0.1928
 6053SOL     OW23977   6.185   5.218   5.031 -0.3049 -0.2794 -0.4137
 6053SOL    HW223978   6.266   5.173   5.006  0.8070  1.7191 -0.6145
 6053SOL    HW323979   6.132   5.218   4.951 -0.6003 -1.7477 -0.2353
 6053SOL    MW423980   6.189   5.212   5.017  0.4233  0.3715 -0.3262
 6054SOL     OW23981   0.972   4.095   4.088 -0.1815 -0.4806  0.1216
 6054SOL    HW223982   0.969   4.027   4.156  1.1259 -0.2029  0.4818
 6054SOL    HW323983   1.027   4.057   4.019  1.1259  0.4662  0.6255
 6054SOL    MW423984   0.978   4.081   4.088 -0.4964 -0.4740 -0.2080
 6055SOL     OW23985   1.362   3.427   0.917 -0.9452  0.4061 -0.4536
 6055SOL    HW223986   1.412   3.486   0.973 -0.6428  0.3331 -0.6451
 6055SOL    HW323987   1.360   3.344   0.965 -0.2676  0.2031 -0.7717
 6055SOL    MW423988   1.368   3.424   0.931 -0.5815 -0.1024  0.2007
 6056SOL     OW23989   0.263   1.453   0.780  0.3573 -0.2932  0.1752
 6056SOL    HW223990   0.314   1.526   0.744  0.5447 -0.8802 -0.7776
 6056SOL    HW323991   0.202   1.430   0.710 -0.6775 -0.1409  1.0019
 6056SOL    MW423992   0.262   1.460   0.766 -0.0412 -0.0710 -0.4703
 6057SOL     OW23993   5.386   4.960   5.522  0.0307 -0.3998 -0.3227
 6057SOL    HW223994   5.419   4.885   5.571  1.2284  0.6975  0.5902
 6057SOL    HW323995   5.294   4.968   5.549 -0.4653 -2.1944 -1.3023
 6057SOL    MW423996   5.378   4.951   5.532 -0.3520  0.1025  0.1699
 6058SOL     OW23997   0.867   3.896   5.421 -0.5321 -0.0418 -0.2365
 6058SOL    HW223998   0.778   3.930   5.417 -0.7302 -0.6215 -1.0869
 6058SOL    HW323999   0.893   3.906   5.513 -1.6760 -0.3887  0.1356
 6058SOL    MW424000   0.859   3.902   5.433  0.3129  0.3042 -0.0057
 6059SOL     OW24001   4.486   6.102   3.688 -0.2733  0.0260  0.1617
 6059SOL    HW224002   4.448   6.062   3.610 -0.0385 -0.6832  0.3948
 6059SOL    HW324003   4.530   6.180   3.656  1.4804 -1.2673 -0.7428
 6059SOL    MW424004   4.487   6.107   3.673  0.4787 -0.1681 -0.4003
 6060SOL     OW24005   4.380   5.825   5.721 -0.1134  0.2383 -0.3242
 6060SOL    HW224006   4.460   5.814   5.669  1.1875  1.1856  1.3472
 6060SOL    HW324007   4.354   5.736   5.744 -1.0616 -0.2448 -2.9752
 6060SOL    MW424008   4.387   5.812   5.717 -0.1226  0.3122  0.1283
 6061SOL     OW24009   3.545   2.273   2.428 -0.2930  0.0973  0.2547
 6061SOL    HW224010   3.619   2.333   2.444  0.0874 -0.2313 -0.2386
 6061SOL    HW324011   3.485   2.323   2.373  1.1846 -0.7605 -2.3253
 6061SOL    MW424012   3.547   2.288   2.423 -0.2148 -0.5679 -0.1470
 6062SOL     OW24013   3.011   1.498   3.829  0.1045  0.2105 -0.5360
 6062SOL    HW224014   2.985   1.566   3.767  2.5606  0.7481 -1.0969
 6062SOL    HW324015   3.003   1.417   3.780  0.2316  0.4425 -0.9514
 6062SOL    MW424016   3.007   1.497   3.814 -0.7564  0.1918  0.1966
 6063SOL     OW24017   5.913   4.303   0.353  0.3314 -0.7091  0.0108
 6063SOL    HW224018   5.962   4.384   0.338  0.5923 -1.0229 -0.8492
 6063SOL    HW324019   5.827   4.320   0.313 -0.5361  0.0749  2.0499
 6063SOL    MW424020   5.908   4.316   0.346  0.6466  0.2444 -0.3739
 6064SOL     OW24021   0.558   1.495   0.714 -0.5429 -0.6062 -0.1278
 6064SOL    HW224022   0.602   1.536   0.639  1.7475 -2.0195  0.3174
 6064SOL    HW324023   0.537   1.407   0.683  1.3934 -1.5872  1.0884
 6064SOL    MW424024   0.561   1.489   0.700  0.3480  0.7134  0.3983
 6065SOL     OW24025   2.455   2.563   3.099  0.1064  0.0181  0.0586
 6065SOL    HW224026   2.502   2.613   3.032  0.4516 -0.6766 -0.2370
 6065SOL    HW324027   2.365   2.595   3.095  0.2288  0.3110 -0.4223
 6065SOL    MW424028   2.450   2.574   3.089 -0.2513 -0.2965  0.2179
 6066SOL     OW24029   2.659   1.564   3.271  0.0523  0.9227  0.3968
 6066SOL    HW224030   2.666   1.623   3.347  2.5658 -0.1758  1.1307
 6066SOL    HW324031   2.595   1.498   3.298  1.0514  0.4380  1.7052
 6066SOL    MW424032   2.651   1.563   3.285  0.2970 -0.0528  0.4991
 6067SOL     OW24033   5.307   4.282   6.380  0.9742  0.2748 -0.2069
 6067SOL    HW224034   5.368   4.227   6.428  0.4236 -0.8099 -0.7305
 6067SOL    HW324035   5.222   4.240   6.392  0.5518  0.9728 -0.6739
 6067SOL    MW424036   5.304   4.270   6.388  0.5534  0.4382  0.0290
 6068SOL     OW24037   6.078   4.258   4.087  0.2299 -0.3596  0.0932
 6068SOL    HW224038   6.154   4.204   4.067  0.8054 -0.1232  1.5001
 6068SOL    HW324039   6.089   4.282   4.179 -2.1953 -1.3903  0.7589
 6068SOL    MW424040   6.089   4.254   4.097 -0.2160 -0.5889 -0.6291
 6069SOL     OW24041   5.797   2.127   3.235 -0.3888 -0.5093  0.2409
 6069SOL    HW224042   5.709   2.125   3.196 -0.8540 -2.3100  1.3085
 6069SOL    HW324043   5.802   2.214   3.276 -1.6485 -0.3631  0.1395
 6069SOL    MW424044   5.786   2.138   3.235  0.7793 -0.5311 -0.1526
 6070SOL     OW24045   6.096   2.377   3.264  0.3963 -0.3788  0.7148
 6070SOL    HW224046   6.181   2.419   3.278  1.1417 -1.6057  0.0387
 6070SOL    HW324047   6.093   2.360   3.169 -0.7024 -0.1551  0.6990
 6070SOL    MW424048   6.107   2.380   3.253 -0.1345  0.2956 -0.3906
 6071SOL     OW24049   0.413   5.219   1.090  0.4311 -0.0572 -0.2217
 6071SOL    HW224050   0.411   5.313   1.107  0.6684 -0.2567  1.0299
 6071SOL    HW324051   0.401   5.211   0.995 -2.6455  1.1139 -0.0695
 6071SOL    MW424052   0.411   5.230   1.080 -0.1739 -0.2833  0.6853
 6072SOL     OW24053   3.989   3.298   2.921 -0.1770 -1.0650 -0.3082
 6072SOL    HW224054   3.974   3.372   2.979  0.4854 -0.5012 -0.8471
 6072SOL    HW324055   4.083   3.297   2.907 -0.3251 -1.1925 -1.3713
 6072SOL    MW424056   3.999   3.307   2.927  0.2468 -0.0135  0.2777
 6073SOL     OW24057   2.055   5.808   0.419 -0.3763 -0.4164  0.0292
 6073SOL    HW224058   1.973   5.763   0.399  0.4188 -2.7709  1.6488
 6073SOL    HW324059   2.032   5.872   0.487 -1.0152 -0.3690 -0.2217
 6073SOL    MW424060   2.041   5.811   0.425  0.5251  0.1942 -0.7022
 6074SOL     OW24061   6.246   0.076   5.838 -0.4410 -0.1660  0.2146
 6074SOL    HW224062   6.308   0.147   5.822 -0.2318 -0.2989  0.4237
 6074SOL    HW324063   6.182   0.112   5.900 -0.8753  0.1388 -0.4065
 6074SOL    MW424064   6.246   0.090   5.844 -0.3905 -0.1546 -0.0408
 6075SOL     OW24065   4.495   1.168   3.846  0.4043  0.1432  0.3854
 6075SOL    HW224066   4.569   1.152   3.905  0.0529  0.2070  0.8473
 6075SOL    HW324067   4.421   1.125   3.889 -0.2365  1.6671  0.8700
 6075SOL    MW424068   4.495   1.160   3.860 -0.1380 -0.1174  0.1512
 6076SOL     OW24069   3.688   2.828   3.379  0.2905  0.2032  0.5089
 6076SOL    HW224070   3.717   2.775   3.453 -0.7122  0.8661  1.4127
 6076SOL    HW324071   3.609   2.873   3.411  0.0820  0.8396 -0.8192
 6076SOL    MW424072   3.681   2.827   3.393 -0.7053 -0.2503 -0.2967
 6077SOL     OW24073   4.206   0.404   4.042  0.1421  0.4361  0.2477
 6077SOL    HW224074   4.159   0.323   4.023 -1.4330  1.3867 -0.1451
 6077SOL    HW324075   4.297   0.385   4.019  0.0370 -1.5466  1.2245
 6077SOL    MW424076   4.212   0.391   4.037 -0.4574 -0.1759  0.1025
 6078SOL     OW24077   0.098   2.943   2.885  0.5344  0.7962  0.4712
 6078SOL    HW224078   0.082   2.851   2.907  0.6063  0.5482 -0.4653
 6078SOL    HW324079   0.024   2.989   2.924 -1.1748 -0.0277 -1.5434
 6078SOL    MW424080   0.086   2.937   2.893 -0.3182 -1.2504  0.2188
 6079SOL     OW24081   1.904   3.579   4.645  0.6197  0.0446 -0.0261
 6079SOL    HW224082   1.817   3.546   4.624  0.4608 -0.0724  0.8028
 6079SOL    HW324083   1.894   3.621   4.730  1.3631  0.0719  0.0543
 6079SOL    MW424084   1.891   3.580   4.654  0.1363  0.1478 -0.0139
 6080SOL     OW24085   2.623   6.106   2.577  0.0606  0.1276 -0.3798
 6080SOL    HW224086   2.596   6.191   2.542  0.3263  0.6510  0.6683
 6080SOL    HW324087   2.643   6.054   2.498  1.5685  1.5878 -1.0390
 6080SOL    MW424088   2.622   6.110   2.562 -0.0560  0.4581  0.0106
 6081SOL     OW24089   1.499   4.500   4.415 -0.1396  0.2630 -0.6797
 6081SOL    HW224090   1.543   4.432   4.466 -0.3921  1.3435  1.0787
 6081SOL    HW324091   1.495   4.465   4.326  0.1281 -1.8134  0.0691
 6081SOL    MW424092   1.504   4.486   4.410 -0.0710  0.2278  0.1088
 6082SOL     OW24093   5.310   4.982   0.011 -0.1277 -0.0819  0.1288
 6082SOL    HW224094   5.375   5.048   0.037 -0.3968  0.2769 -0.1054
 6082SOL    HW324095   5.226   5.020   0.037 -0.1439 -1.4495  2.4180
 6082SOL    MW424096   5.308   4.996   0.018  0.4990  0.3882  0.5043
 6083SOL     OW24097   4.047   4.801   3.711  0.3179 -0.1469 -0.1496
 6083SOL    HW224098   4.049   4.769   3.801 -1.4178  0.2202  0.0519
 6083SOL    HW324099   3.958   4.834   3.699  1.3100  2.4738 -1.0698
 6083SOL    MW424100   4.036   4.801   3.721 -0.1244  0.0790  0.0107
 6084SOL     OW24101   3.244   4.593   3.682 -0.0909  0.1772  0.7126
 6084SOL    HW224102   3.230   4.680   3.719 -0.5447  0.0121  0.9299
 6084SOL    HW324103   3.279   4.610   3.594  2.2514  0.5791  1.6282
 6084SOL    MW424104   3.247   4.606   3.675  0.2522 -0.2248  0.5533
 6085SOL     OW24105   4.413   5.265   1.765 -0.1333  0.4640 -0.7665
 6085SOL    HW224106   4.500   5.256   1.727  0.6333  2.5218  0.3403
 6085SOL    HW324107   4.402   5.188   1.820  1.1773  0.3781 -0.5922
 6085SOL    MW424108   4.423   5.254   1.767 -0.0791  0.0368 -0.2036
 6086SOL     OW24109   1.396   2.134   2.601 -0.1906  0.3302 -0.1460
 6086SOL    HW224110   1.387   2.121   2.695 -0.3069 -0.0805 -0.2152
 6086SOL    HW324111   1.400   2.046   2.564  0.0018  0.4907 -0.5115
 6086SOL    MW424112   1.395   2.121   2.608  0.0303 -0.3339 -0.7352
 6087SOL     OW24113   3.263   6.038   2.102 -0.3356  0.7355  0.0822
 6087SOL    HW224114   3.233   6.057   2.191  0.4007 -0.7874  0.6908
 6087SOL    HW324115   3.357   6.021   2.111 -0.6684 -1.8061 -0.5628
 6087SOL    MW424116   3.271   6.038   2.115  0.7784  0.2292  0.0520
 6088SOL     OW24117   3.440   5.390   5.248 -0.0444  0.6804  0.1323
 6088SOL    HW224118   3.419   5.459   5.311 -0.7960  1.6799 -1.1586
 6088SOL    HW324119   3.459   5.437   5.166 -0.1159 -0.6201 -0.6615
 6088SOL    MW424120   3.440   5.406   5.245  1.0724  0.3200  0.3349
 6089SOL     OW24121   1.945   5.763   4.918 -0.0196  0.1772  0.1155
 6089SOL    HW224122   1.968   5.678   4.881 -1.6814 -1.0210  1.6582
 6089SOL    HW324123   1.857   5.781   4.886  0.4525  1.5502 -0.5080
 6089SOL    MW424124   1.937   5.754   4.909 -0.0233 -0.0244  0.1396
 6090SOL     OW24125   3.862   0.379   0.785  0.6956  0.3088 -0.2613
 6090SOL    HW224126   3.947   0.395   0.745  0.2714  1.3292 -0.7925
 6090SOL    HW324127   3.860   0.437   0.861  0.2097  0.8008 -0.6435
 6090SOL    MW424128   3.873   0.389   0.790  0.5097  0.2304  0.4349
 6091SOL     OW24129   6.337   3.801   0.791  0.2435 -0.2914  0.0935
 6091SOL    HW224130   6.368   3.773   0.705 -1.4913 -0.4415 -0.5162
 6091SOL    HW324131   6.339   3.896   0.788  0.6616 -0.2997  0.0761
 6091SOL    MW424132   6.342   3.810   0.779 -0.1938 -0.3002 -0.4096
 6092SOL     OW24133   5.789   0.532   5.822  0.2947 -0.3382 -0.0714
 6092SOL    HW224134   5.854   0.463   5.809  1.1052  0.5159 -0.7801
 6092SOL    HW324135   5.711   0.487   5.853  0.6895 -1.6141 -0.8529
 6092SOL    MW424136   5.788   0.517   5.824  0.2251  0.3227 -0.2134
 6093SOL     OW24137   3.520   0.894   2.836  0.0022  0.5853 -0.0394
 6093SOL    HW224138   3.430   0.917   2.859  0.1973  0.3986  0.9993
 6093SOL    HW324139   3.538   0.815   2.888  0.8354  0.7514 -0.0629
 6093SOL    MW424140   3.511   0.886   2.846  0.0076 -0.7812  0.4759
 6094SOL     OW24141   1.282   4.506   0.868 -0.0383 -0.2844  0.4097
 6094SOL    HW224142   1.340   4.558   0.923  0.3149 -1.4472  1.1828
 6094SOL    HW324143   1.198   4.508   0.913  0.2246 -1.1504  0.9791
 6094SOL    MW424144   1.279   4.513   0.881  0.5707 -0.5977  0.6074
 6095SOL     OW24145   3.070   4.017   2.949 -0.2313 -0.9039 -0.2113
 6095SOL    HW224146   3.044   3.997   3.038  0.1419 -0.4928 -0.0077
 6095SOL    HW324147   3.151   3.968   2.935  0.1251 -0.3745 -0.0594
 6095SOL    MW424148   3.077   4.008   2.959 -0.2344 -0.3163 -0.5400
 6096SOL     OW24149   4.907   4.463   0.095 -0.1063  0.5385  0.2222
 6096SOL    HW224150   4.845   4.535   0.086 -1.2574 -0.4102  0.2818
 6096SOL    HW324151   4.912   4.423   0.008  1.2871  1.2581 -0.0622
 6096SOL    MW424152   4.900   4.467   0.082  0.1939  0.4336  0.3575
 6097SOL     OW24153   2.808   0.632   4.615 -0.1200  0.6370 -0.1573
 6097SOL    HW224154   2.851   0.580   4.684 -0.6331 -0.0087 -0.3133
 6097SOL    HW324155   2.764   0.703   4.663 -0.1924  0.3872  0.1518
 6097SOL    MW424156   2.808   0.634   4.631 -0.0493 -0.6163 -0.2176
 6098SOL     OW24157   2.723   0.832   2.017  0.2807  0.2080  0.4217
 6098SOL    HW224158   2.798   0.801   2.069  0.8010 -0.0944 -0.4912
 6098SOL    HW324159   2.759   0.902   1.963 -0.1665  0.2621  0.1980
 6098SOL    MW424160   2.738   0.837   2.017  0.0198 -0.4806 -0.1457
 6099SOL     OW24161   5.283   2.681   4.030 -0.4068  0.2971  0.6003
 6099SOL    HW224162   5.376   2.670   4.053 -0.1686 -0.1004 -0.5239
 6099SOL    HW324163   5.279   2.665   3.936 -1.4812  1.2148  0.4652
 6099SOL    MW424164   5.295   2.678   4.021  0.5231 -0.2828  0.0810
 6100SOL     OW24165   5.706   0.636   1.864  0.6641 -0.1210  0.2596
 6100SOL    HW224166   5.630   0.694   1.866  1.6869  1.2662 -0.2632
 6100SOL    HW324167   5.734   0.635   1.773  1.7583  0.0279  0.5814
 6100SOL    MW424168   5.700   0.643   1.853  0.7495 -0.2231 -0.0148
 6101SOL     OW24169   0.100   1.092   5.245  0.1412 -0.2128  0.8139
 6101SOL    HW224170   0.125   1.067   5.334  0.6246  1.5093  1.1989
 6101SOL    HW324171   0.029   1.031   5.222  1.1489 -1.7900  1.6943
 6101SOL    MW424172   0.094   1.080   5.254 -0.3567  0.0030  0.4039
 6102SOL     OW24173   0.234   4.371   2.862  0.4040 -0.1456  0.6828
 6102SOL    HW224174   0.236   4.303   2.929  2.0585 -0.7196  0.0915
 6102SOL    HW324175   0.286   4.443   2.899 -0.1489  0.2371  0.7251
 6102SOL    MW424176   0.241   4.371   2.876 -0.0340  0.1948 -0.0778
 6103SOL     OW24177   5.935   2.549   5.862  0.1808 -0.0827  0.5259
 6103SOL    HW224178   5.873   2.480   5.885  0.1641 -0.9321 -1.8502
 6103SOL    HW324179   6.006   2.504   5.818  0.7995  1.2873  0.0841
 6103SOL    MW424180   5.936   2.534   5.860 -0.0153  0.5085 -0.2054
 6104SOL     OW24181   0.024   5.788   4.546 -0.0817 -0.4592  0.3164
 6104SOL    HW224182   0.091   5.838   4.499 -0.4480 -1.1455 -0.9974
 6104SOL    HW324183   0.059   5.699   4.548  0.7270 -0.1431  2.9343
 6104SOL    MW424184   0.037   5.783   4.540  0.6280 -0.0932 -0.5595
 6105SOL     OW24185   3.007   2.196   2.820  0.3799  0.2759 -0.3076
 6105SOL    HW224186   3.025   2.272   2.766  4.3134  0.1397  0.4480
 6105SOL    HW324187   3.046   2.218   2.905  0.2709 -1.9627  0.3892
 6105SOL    MW424188   3.015   2.209   2.824  0.0270  0.2931  0.4884
 6106SOL     OW24189   2.951   6.064   4.005  0.4293 -0.2963  0.3934
 6106SOL    HW224190   3.041   6.098   4.005  0.5682 -0.6147 -0.5942
 6106SOL    HW324191   2.953   5.991   4.066  0.4965  0.5308  1.4074
 6106SOL    MW424192   2.963   6.059   4.013 -0.2381  0.3248 -0.0730
 6107SOL     OW24193   3.495   3.958   2.191  0.3898 -0.1081 -0.0459
 6107SOL    HW224194   3.429   3.972   2.259  0.3089 -0.3965 -0.0640
 6107SOL    HW324195   3.446   3.927   2.115  0.5537 -0.3895 -0.0388
 6107SOL    MW424196   3.480   3.956   2.190 -0.1868 -0.0082  0.5655
 6108SOL     OW24197   1.683   3.898   5.127 -0.4674 -0.1176 -0.2132
 6108SOL    HW224198   1.663   3.807   5.149  1.1643 -0.4233  0.1511
 6108SOL    HW324199   1.723   3.933   5.207 -2.6510  1.4734  0.2694
 6108SOL    MW424200   1.685   3.890   5.141 -0.0435  0.5237  0.3700
 6109SOL     OW24201   4.492   6.001   3.127  0.2592 -0.0917 -0.1347
 6109SOL    HW224202   4.427   6.044   3.183  0.4467 -1.4305  1.1708
 6109SOL    HW324203   4.464   5.910   3.125  2.5757 -0.8937  1.2082
 6109SOL    MW424204   4.480   5.995   3.134 -0.7466  0.0419  0.0722
 6110SOL     OW24205   0.437   0.878   1.297  0.2263 -0.0163 -0.3651
 6110SOL    HW224206   0.432   0.863   1.392 -0.1650  0.0565 -0.3737
 6110SOL    HW324207   0.524   0.847   1.273  0.0357 -0.7713 -0.1142
 6110SOL    MW424208   0.448   0.872   1.307  0.6513 -0.3677  0.3683
 6111SOL     OW24209   5.498   2.094   2.197 -0.0648  0.2222  0.9100
 6111SOL    HW224210   5.584   2.054   2.181 -0.0195  1.1489 -1.5351
 6111SOL    HW324211   5.436   2.039   2.151 -0.6624  0.2257  1.6865
 6111SOL    MW424212   5.501   2.082   2.189  0.0076  0.7295  0.4365
 6112SOL     OW24213   5.586   5.712   4.055 -0.1299 -0.1487 -0.1668
 6112SOL    HW224214   5.640   5.661   4.116 -1.1642 -0.8657  0.1716
 6112SOL    HW324215   5.497   5.680   4.069 -0.4713  0.0887 -1.6515
 6112SOL    MW424216   5.581   5.701   4.065  0.1118 -0.6912  0.6815
 6113SOL     OW24217   4.770   6.123   3.255  0.0568  0.5770  0.3898
 6113SOL    HW224218   4.806   6.137   3.342  0.5583 -0.4909  0.3710
 6113SOL    HW324219   4.689   6.173   3.254 -1.1990 -1.2791  2.3010
 6113SOL    MW424220   4.764   6.132   3.266 -0.3269 -0.2892 -0.2907
 6114SOL     OW24221   1.201   3.745   3.914  0.3916 -0.4276  0.8607
 6114SOL    HW224222   1.237   3.687   3.981  1.1733 -0.7043  0.2081
 6114SOL    HW324223   1.120   3.702   3.886  0.3609 -0.6013  1.2140
 6114SOL    MW424224   1.195   3.732   3.919 -0.6782  0.0083 -0.2796
 6115SOL     OW24225   5.944   6.141   3.286 -0.3743  0.5464 -0.2906
 6115SOL    HW224226   6.009   6.207   3.308  0.4427 -0.3953  0.2167
 6115SOL    HW324227   5.911   6.167   3.200  0.1642  1.4265 -0.2435
 6115SOL    MW424228   5.948   6.153   3.278  0.2381  0.2685 -0.1294
 6116SOL     OW24229   5.009   0.870   6.089  0.1225 -0.6777 -0.0101
 6116SOL    HW224230   5.035   0.907   6.005 -0.7046 -1.3632 -0.5816
 6116SOL    HW324231   5.021   0.942   6.151 -0.4262  0.2305 -0.9165
 6116SOL    MW424232   5.014   0.884   6.086  0.1768  0.1973  0.1892
 6117SOL     OW24233   0.291   3.466   3.762  0.0184  0.3328  0.4678
 6117SOL    HW224234   0.282   3.403   3.833 -0.7371  0.5105  0.5414
 6117SOL    HW324235   0.355   3.529   3.794  0.4286 -0.1341  0.5810
 6117SOL    MW424236   0.298   3.466   3.776  0.2884  0.0968  0.0300
 6118SOL     OW24237   0.285   0.477   3.979  0.4416 -0.1210  0.3015
 6118SOL    HW224238   0.305   0.423   3.902 -1.0776 -0.9554  0.4550
 6118SOL    HW324239   0.217   0.537   3.949 -0.2786 -0.5565  1.0168
 6118SOL    MW424240   0.278   0.478   3.965  0.6884  0.4085  0.2989
 6119SOL     OW24241   2.387   2.683   1.413  0.3766 -0.0766 -0.4192
 6119SOL    HW224242   2.317   2.686   1.478  0.2714  0.4754 -0.5519
 6119SOL    HW324243   2.373   2.762   1.360 -0.4021 -1.2266 -2.0105
 6119SOL    MW424244   2.376   2.694   1.414  0.1245  0.2951  0.4268
 6120SOL     OW24245   5.745   2.926   4.951 -0.0531  0.3021  0.0714
 6120SOL    HW224246   5.752   3.010   4.905 -1.3766  0.2241 -0.3059
 6120SOL    HW324247   5.758   2.860   4.883  1.9189  0.1527  0.5178
 6120SOL    MW424248   5.748   2.928   4.936 -0.2253  0.4593 -0.4454
 6121SOL     OW24249   1.071   0.432   3.880  0.2510 -0.1503 -0.1726
 6121SOL    HW224250   1.004   0.443   3.947  1.7026 -0.9313  1.4894
 6121SOL    HW324251   1.091   0.338   3.881  0.7889 -0.0620 -1.2135
 6121SOL    MW424252   1.065   0.421   3.889  0.3822  0.4874 -0.0838
 6122SOL     OW24253   0.831   6.132   3.807 -0.1783 -0.2189 -0.2265
 6122SOL    HW224254   0.888   6.070   3.853  0.2525  0.1101 -0.2996
 6122SOL    HW324255   0.743   6.099   3.821 -0.0840  0.0389  1.0946
 6122SOL    MW424256   0.827   6.119   3.815  0.2397 -0.1473 -0.0933
 6123SOL     OW24257   5.170   5.503   1.092  0.5755 -0.0651  0.2892
 6123SOL    HW224258   5.208   5.582   1.131 -0.0432  0.2559  0.2673
 6123SOL    HW324259   5.185   5.434   1.157  0.1195  0.3252  0.8247
 6123SOL    MW424260   5.177   5.505   1.106 -0.5736  0.1675  0.3677
 6124SOL     OW24261   4.919   1.117   1.183 -0.4530 -0.1767  0.1337
 6124SOL    HW224262   4.832   1.118   1.143 -1.2809  0.4576  1.8334
 6124SOL    HW324263   4.936   1.024   1.199 -1.2793 -0.2447  0.6934
 6124SOL    MW424264   4.910   1.105   1.180  0.1670 -0.1484 -0.6745
 6125SOL     OW24265   3.304   1.945   2.311  0.0037  0.2603  0.3409
 6125SOL    HW224266   3.250   2.024   2.307  0.3477  0.4659 -0.7654
 6125SOL    HW324267   3.278   1.895   2.233 -0.3445 -0.8221  1.1190
 6125SOL    MW424268   3.294   1.949   2.300 -0.2966 -0.4472  0.3500
 6126SOL     OW24269   3.919   0.265   1.116  0.1669  0.0368  0.1103
 6126SOL    HW224270   3.984   0.227   1.056 -1.8994  0.5731 -2.7023
 6126SOL    HW324271   3.957   0.349   1.143  0.4987  0.6116 -1.9351
 6126SOL    MW424272   3.933   0.271   1.111 -0.2896 -0.2055 -0.0747
 6127SOL     OW24273   2.849   5.379   1.133 -0.0606 -0.3307  0.5706
 6127SOL    HW224274   2.798   5.302   1.158 -1.8740  0.5260 -0.2784
 6127SOL    HW324275   2.854   5.430   1.214  0.5181 -0.9843  0.9573
 6127SOL    MW424276   2.843   5.376   1.147  0.5288  0.0445  0.5684
 6128SOL     OW24277   3.771   1.576   6.384 -0.3371 -0.0028  0.2106
 6128SOL    HW224278   3.751   1.666   6.361 -2.1798 -0.3577  0.2831
 6128SOL    HW324279   3.843   1.583   6.447 -1.3849  1.5252  1.3081
 6128SOL    MW424280   3.778   1.589   6.389 -0.4834  0.3685 -0.1634
 6129SOL     OW24281   3.047   4.516   5.452 -0.1924 -0.3422 -0.4459
 6129SOL    HW224282   3.116   4.528   5.388 -0.1860 -0.3434 -0.4395
 6129SOL    HW324283   3.092   4.487   5.531 -0.2529 -0.7944 -0.5776
 6129SOL    MW424284   3.062   4.514   5.454 -0.3867  0.3872  0.2483
 6130SOL     OW24285   2.618   4.136   3.402 -0.5073  0.3287  0.0173
 6130SOL    HW224286   2.696   4.185   3.377 -0.9689  1.6429  1.0114
 6130SOL    HW324287   2.568   4.127   3.320 -0.0554  0.8817 -0.3285
 6130SOL    MW424288   2.622   4.141   3.387 -0.3923 -0.0575  0.1782
 6131SOL     OW24289   4.503   0.065   2.376  0.1317 -0.5069 -0.1287
 6131SOL    HW224290   4.460   0.148   2.394 -0.9990 -1.0023 -0.4306
 6131SOL    HW324291   4.493   0.053   2.282 -0.0985 -1.1754 -0.0270
 6131SOL    MW424292   4.496   0.074   2.366 -0.7943  0.4184  0.1149
 6132SOL     OW24293   4.454   0.741   3.449  0.6054  0.0959  0.0459
 6132SOL    HW224294   4.383   0.788   3.491 -0.0174  1.1674 -2.0618
 6132SOL    HW324295   4.531   0.797   3.461  0.2299  0.8658 -0.9715
 6132SOL    MW424296   4.455   0.754   3.456 -0.7949  1.1540 -0.1120
 6133SOL     OW24297   4.741   3.689   4.838 -0.0438  0.1144 -0.1217
 6133SOL    HW224298   4.788   3.606   4.850 -0.2366  0.1521  0.9145
 6133SOL    HW324299   4.784   3.750   4.897  0.6599  1.0156 -1.5035
 6133SOL    MW424300   4.753   3.686   4.847 -0.0431 -0.1326 -0.1179
 6134SOL     OW24301   0.770   0.251   3.644  0.3510 -0.0068  0.5126
 6134SOL    HW224302   0.859   0.244   3.678  0.3514 -1.4693  0.2739
 6134SOL    HW324303   0.731   0.165   3.661 -0.5389  0.1382 -0.6865
 6134SOL    MW424304   0.776   0.239   3.651  0.1897 -0.7637 -0.2818
 6135SOL     OW24305   0.183   2.801   4.055 -0.4751 -0.0598  0.2215
 6135SOL    HW224306   0.249   2.735   4.031  2.3121  2.1931  1.1285
 6135SOL    HW324307   0.137   2.819   3.973  2.9201  1.1948 -1.6145
 6135SOL    MW424308   0.186   2.794   4.041 -0.0597  0.2180  0.2209
 6136SOL     OW24309   3.657   5.011   2.940 -0.6208 -0.1365  0.2463
 6136SOL    HW224310   3.656   4.981   2.849  0.5715  0.4909  0.0067
 6136SOL    HW324311   3.748   5.000   2.968 -0.4092  1.9960  0.5480
 6136SOL    MW424312   3.669   5.006   2.932  0.2306  0.4627 -0.0992
 6137SOL     OW24313   3.969   2.220   2.560  0.0406 -0.3195 -0.3819
 6137SOL    HW224314   3.911   2.296   2.553 -2.0175 -1.6744  0.7611
 6137SOL    HW324315   3.994   2.218   2.653 -0.6607 -1.4953 -0.1987
 6137SOL    MW424316   3.964   2.230   2.572 -0.6088 -0.6840  0.0382
 6138SOL     OW24317   2.322   1.987   2.389  0.3115  0.1603  0.2362
 6138SOL    HW224318   2.305   2.069   2.343  2.3620  0.5129 -0.0126
 6138SOL    HW324319   2.236   1.946   2.400 -0.4508  1.0398 -2.0579
 6138SOL    MW424320   2.309   1.992   2.385 -0.2246  0.0390  0.5407
 6139SOL     OW24321   0.079   1.238   3.184  0.2088 -0.1867 -0.1942
 6139SOL    HW224322   0.095   1.199   3.098 -1.3288  1.2234 -1.1994
 6139SOL    HW324323   0.085   1.332   3.168 -2.5158  0.2164  0.6230
 6139SOL    MW424324   0.082   1.245   3.170  0.2792  0.8084  0.7575
 6140SOL     OW24325   0.099   6.372   4.472  0.5756 -0.1159  0.4547
 6140SOL    HW224326   0.162   6.307   4.503  1.3798  0.3127 -0.2494
 6140SOL    HW324327   0.078   6.344   4.383 -0.2249 -0.2487  0.6808
 6140SOL    MW424328   0.105   6.360   4.465 -0.0870  0.1764 -0.3333
 6141SOL     OW24329   0.249   0.531   3.592 -0.4327 -0.1006 -0.5409
 6141SOL    HW224330   0.194   0.459   3.561  1.0688 -1.1318 -0.8850
 6141SOL    HW324331   0.186   0.600   3.614 -1.7269  0.0393 -4.1100
 6141SOL    MW424332   0.233   0.531   3.591  0.4196 -0.0675 -0.1712
 6142SOL     OW24333   0.471   2.181   2.876  0.1546  0.0567  0.8658
 6142SOL    HW224334   0.533   2.108   2.877  0.4665  0.3207  1.7929
 6142SOL    HW324335   0.389   2.143   2.906  0.3975  0.1391  1.6680
 6142SOL    MW424336   0.468   2.166   2.880  0.1099 -1.2305 -0.1832
 6143SOL     OW24337   0.771   2.873   0.772 -0.4444 -0.4337 -0.3800
 6143SOL    HW224338   0.749   2.833   0.856 -0.4031  0.2761 -0.0173
 6143SOL    HW324339   0.866   2.882   0.773 -0.3134 -1.6182 -1.0691
 6143SOL    MW424340   0.781   2.869   0.783  0.4448 -0.1112  0.0458
 6144SOL     OW24341   0.157   1.449   0.319 -0.3199 -0.3155  0.3956
 6144SOL    HW224342   0.151   1.464   0.413 -3.4377  0.8321  0.1191
 6144SOL    HW324343   0.078   1.399   0.297  0.0933 -0.1605 -1.6686
 6144SOL    MW424344   0.146   1.445   0.328  0.4131  0.6779  0.6220
 6145SOL     OW24345   1.338   1.986   1.478  0.0488 -0.8058  0.7420
 6145SOL    HW224346   1.419   2.024   1.446 -0.7850  1.0505  0.6934
 6145SOL    HW324347   1.283   1.976   1.400 -0.0568 -1.3293  0.8764
 6145SOL    MW424348   1.341   1.990   1.463  0.1860  0.3317 -0.2276
 6146SOL     OW24349   0.642   0.267   2.239  0.1982  0.3959  0.5235
 6146SOL    HW224350   0.606   0.318   2.312  0.4016  0.5121  0.5444
 6146SOL    HW324351   0.568   0.215   2.207 -0.4243  1.8579 -0.5084
 6146SOL    MW424352   0.627   0.267   2.244 -0.1194 -0.0279  0.2375
 6147SOL     OW24353   4.733   5.944   5.362 -0.1703  0.0329  0.1763
 6147SOL    HW224354   4.681   5.897   5.427  1.3656 -0.2467  1.2565
 6147SOL    HW324355   4.695   6.032   5.362 -0.1852  0.0573  1.5133
 6147SOL    MW424356   4.721   5.950   5.371 -0.1803  0.6814  0.7669
 6148SOL     OW24357   4.239   2.238   2.515  0.0501  0.1211  0.4442
 6148SOL    HW224358   4.144   2.227   2.510  0.1043 -0.1337 -0.1028
 6148SOL    HW324359   4.275   2.160   2.473  0.4834  0.8106 -0.4956
 6148SOL    MW424360   4.231   2.226   2.509 -0.5928 -0.4420 -0.3024
 6149SOL     OW24361   4.850   3.984   3.418  0.2810  0.1858  0.1641
 6149SOL    HW224362   4.791   4.038   3.470 -0.6018 -0.9214  0.3481
 6149SOL    HW324363   4.794   3.937   3.357  1.3958  2.4588 -2.8369
 6149SOL    MW424364   4.835   3.985   3.417 -0.1637  0.0076  0.9830
 6150SOL     OW24365   5.106   2.167   3.643  0.2105 -0.5322  0.3967
 6150SOL    HW224366   5.148   2.201   3.564  0.5890 -1.5897  0.1262
 6150SOL    HW324367   5.179   2.141   3.699 -0.0592 -1.9576  0.1178
 6150SOL    MW424368   5.121   2.168   3.640 -0.2467 -0.1956 -0.3022
 6151SOL     OW24369   1.359   5.445   6.303 -0.1691 -0.1809 -0.4089
 6151SOL    HW224370   1.360   5.528   6.351 -0.6708  0.5791 -1.6608
 6151SOL    HW324371   1.441   5.402   6.327 -0.1901  0.3883  0.7355
 6151SOL    MW424372   1.370   5.450   6.312  0.2217  0.2320 -0.2075
 6152SOL     OW24373   1.005   3.272   5.667 -0.5486 -0.0257  0.4157
 6152SOL    HW224374   1.100   3.269   5.674 -0.4181  1.3425 -0.3172
 6152SOL    HW324375   0.987   3.269   5.573 -1.1522  0.7154  0.4884
 6152SOL    MW424376   1.015   3.271   5.655 -0.2268  0.1714 -0.2980
 6153SOL     OW24377   1.655   0.958   2.232  0.1120 -0.3083  0.3401
 6153SOL    HW224378   1.566   0.954   2.197  0.1896 -0.7235  0.1822
 6153SOL    HW324379   1.664   0.879   2.285 -0.4660  0.9848  2.4756
 6153SOL    MW424380   1.645   0.947   2.234 -0.7767  0.3496  0.2125
 6154SOL     OW24381   3.698   2.926   3.108  0.1885  0.4354  0.0496
 6154SOL    HW224382   3.653   3.010   3.109 -0.6943 -0.0210  0.2908
 6154SOL    HW324383   3.704   2.901   3.201 -1.8146 -0.8972 -0.1036
 6154SOL    MW424384   3.693   2.933   3.121  0.0139 -0.2873  0.2416
 6155SOL     OW24385   0.642   2.814   1.872 -0.5837  0.4757  0.1800
 6155SOL    HW224386   0.700   2.889   1.884 -0.2928  0.6601 -2.0530
 6155SOL    HW324387   0.560   2.839   1.916 -0.0518  1.5414  0.5861
 6155SOL    MW424388   0.639   2.827   1.879 -0.1608  0.7596  0.1597
 6156SOL     OW24389   1.018   4.864   2.907 -0.7082 -0.1002  0.2249
 6156SOL    HW224390   0.934   4.819   2.905 -0.9910  0.4250  0.0268
 6156SOL    HW324391   1.018   4.918   2.828 -0.1699 -0.1167  0.2055
 6156SOL    MW424392   1.007   4.865   2.896  0.1350  0.2405  0.4715
 6157SOL     OW24393   4.255   1.434   3.904 -0.1881  0.5783 -0.1348
 6157SOL    HW224394   4.350   1.448   3.914  0.1397 -0.8967 -0.9308
 6157SOL    HW324395   4.227   1.505   3.847  0.2219  1.6394  0.9289
 6157SOL    MW424396   4.264   1.445   3.898 -0.2271 -0.1847  0.0314
 6158SOL     OW24397   5.965   3.099   2.709  0.0187 -0.3688  0.2282
 6158SOL    HW224398   5.969   3.178   2.763  0.5611 -0.5148  0.4105
 6158SOL    HW324399   5.972   3.131   2.620 -1.2212 -0.0978  0.2115
 6158SOL    MW424400   5.967   3.114   2.705 -0.0093 -0.1084  0.4166
 6159SOL     OW24401   0.447   1.604   6.393 -0.8781  0.2357  0.2587
 6159SOL    HW224402   0.522   1.646   6.352 -1.0137 -0.1032 -0.3546
 6159SOL    HW324403   0.428   1.657   6.470 -0.1235  0.4230  0.3170
 6159SOL    MW424404   0.454   1.616   6.398 -0.0352  0.2353  0.5708
 6160SOL     OW24405   2.981   5.434   5.386 -0.1467  0.6154 -0.2187
 6160SOL    HW224406   2.891   5.446   5.358  0.2788  0.7440 -1.6175
 6160SOL    HW324407   2.979   5.444   5.481 -1.5021  1.1978 -0.2960
 6160SOL    MW424408   2.969   5.437   5.395 -0.0559  0.1454  0.5012
 6161SOL     OW24409   4.019   5.667   2.960  0.4639 -0.2402 -0.2548
 6161SOL    HW224410   3.958   5.735   2.930  0.2448 -1.3591 -2.6051
 6161SOL    HW324411   4.023   5.679   3.055 -2.4808  0.6663 -0.1149
 6161SOL    MW424412   4.011   5.677   2.968  0.6199  0.3915  0.1557
 6162SOL     OW24413   4.648   3.210   3.491 -0.0736  0.2012  0.2182
 6162SOL    HW224414   4.688   3.128   3.520  0.5087  0.4848  0.2494
 6162SOL    HW324415   4.719   3.274   3.498 -0.5751  0.7473  0.3920
 6162SOL    MW424416   4.663   3.208   3.496 -0.0335  0.0372  0.1551
 6163SOL     OW24417   5.023   2.099   6.243  0.1435 -0.0802  0.4404
 6163SOL    HW224418   5.087   2.157   6.284  0.6358 -1.3203  1.5467
 6163SOL    HW324419   4.972   2.155   6.185  2.9420  0.7668 -1.3842
 6163SOL    MW424420   5.024   2.114   6.241  0.2996 -0.3181  0.4730
 6164SOL     OW24421   5.356   3.653   5.610 -0.1965 -0.6678 -0.4576
 6164SOL    HW224422   5.289   3.721   5.614  1.5348  1.0601  0.9788
 6164SOL    HW324423   5.336   3.605   5.530 -2.7025  0.2063 -0.4520
 6164SOL    MW424424   5.344   3.656   5.600 -0.1318 -0.1016  0.6562
 6165SOL     OW24425   2.577   5.905   5.093 -0.9453  0.0319  0.4730
 6165SOL    HW224426   2.575   5.870   5.182  1.6555  0.6076  0.8440
 6165SOL    HW324427   2.507   5.969   5.091 -2.0848 -1.1259  1.5782
 6165SOL    MW424428   2.568   5.909   5.104  0.4219  0.3060  0.3548
 6166SOL     OW24429   0.139   0.101   4.873 -0.4780  0.0014 -0.6043
 6166SOL    HW224430   0.227   0.075   4.845  0.6964 -1.0204  3.3615
 6166SOL    HW324431   0.151   0.185   4.916 -1.0315 -0.9153  1.4543
 6166SOL    MW424432   0.152   0.108   4.875  0.1524 -0.9097 -0.4449
 6167SOL     OW24433   0.347   5.608   3.067 -0.2309  0.0156  0.4390
 6167SOL    HW224434   0.399   5.551   3.124  0.0320  0.6934  0.8842
 6167SOL    HW324435   0.309   5.673   3.126  1.6494  1.9500 -0.3646
 6167SOL    MW424436   0.349   5.609   3.082 -0.2354 -0.0820  0.3486
 6168SOL     OW24437   4.587   1.828   1.671 -0.0235  0.1550 -0.0691
 6168SOL    HW224438   4.598   1.880   1.750  2.3118 -0.6985  0.2409
 6168SOL    HW324439   4.555   1.743   1.702 -1.0872  0.4532 -0.2921
 6168SOL    MW424440   4.584   1.823   1.685 -0.6498 -0.0719  0.0759
 6169SOL     OW24441   3.578   0.435   4.187 -0.2759 -0.4516  0.2545
 6169SOL    HW224442   3.503   0.388   4.150 -0.1069 -1.2465  0.8958
 6169SOL    HW324443   3.649   0.420   4.125 -0.0440 -1.6255  0.7779
 6169SOL    MW424444   3.577   0.427   4.174 -0.4241 -0.0512  0.3214
 6170SOL     OW24445   2.862   6.053   4.431 -0.3112 -0.0465  0.1725
 6170SOL    HW224446   2.844   6.093   4.517 -0.3621  0.0166  0.1322
 6170SOL    HW324447   2.897   5.967   4.452  2.7913  1.1077  0.3675
 6170SOL    MW424448   2.864   6.047   4.445  0.2645 -0.1829  0.2888
 6171SOL     OW24449   4.208   0.606   1.686  0.3056 -0.1842 -0.2797
 6171SOL    HW224450   4.286   0.585   1.738  0.8900  1.1555 -0.5621
 6171SOL    HW324451   4.160   0.524   1.680  0.3523 -0.4478  2.1221
 6171SOL    MW424452   4.212   0.592   1.692 -0.3969  0.0058 -0.3971
 6172SOL     OW24453   4.217   2.150   0.212  0.5512  0.0997  0.0499
 6172SOL    HW224454   4.238   2.192   0.295  0.0504  0.0189  0.2238
 6172SOL    HW324455   4.122   2.135   0.216  0.5501 -0.0628 -0.4614
 6172SOL    MW424456   4.207   2.153   0.224 -0.2082  0.1810  0.2372
 6173SOL     OW24457   0.632   4.690   3.759  0.2151 -0.0370 -0.2061
 6173SOL    HW224458   0.708   4.675   3.704  1.1763 -1.8598  1.4946
 6173SOL    HW324459   0.663   4.751   3.826  0.0761 -0.4512  0.2443
 6173SOL    MW424460   0.646   4.696   3.761 -0.8033 -0.1652  0.8623
 6174SOL     OW24461   4.465   4.700   1.940 -0.3389 -0.3800  0.1014
 6174SOL    HW224462   4.370   4.692   1.935 -0.2227 -1.2794 -1.4133
 6174SOL    HW324463   4.494   4.618   1.980 -0.2402  0.4052  1.7278
 6174SOL    MW424464   4.456   4.688   1.944  0.4596  0.0018  0.4898
 6175SOL     OW24465   5.542   5.235   3.941  0.0511 -0.6534 -0.5283
 6175SOL    HW224466   5.610   5.215   4.006 -0.9077 -0.5647  0.5284
 6175SOL    HW324467   5.477   5.166   3.951  0.1319 -0.9368 -1.7795
 6175SOL    MW424468   5.543   5.223   3.951  0.7872 -0.3557  0.0776
 6176SOL     OW24469   3.485   4.942   2.363  0.9958 -0.4809  0.0009
 6176SOL    HW224470   3.402   4.938   2.314  0.5102 -1.0249  0.8362
 6176SOL    HW324471   3.537   5.008   2.317  0.0768 -0.0920 -0.5121
 6176SOL    MW424472   3.481   4.950   2.351  0.0632  0.3834  0.2375
 6177SOL     OW24473   2.534   1.942   4.565 -0.2074 -0.1925  0.0834
 6177SOL    HW224474   2.585   2.001   4.510  0.7268 -0.3867  0.7357
 6177SOL    HW324475   2.489   1.885   4.502 -1.8278  1.6986 -0.6145
 6177SOL    MW424476   2.535   1.942   4.549  0.0385  0.1975 -0.5091
 6178SOL     OW24477   6.053   4.406   3.100 -0.3292 -0.2626 -0.1704
 6178SOL    HW224478   6.048   4.337   3.034  1.1059 -0.0639 -0.5178
 6178SOL    HW324479   5.969   4.401   3.146 -0.4310 -1.9414 -0.4775
 6178SOL    MW424480   6.041   4.396   3.098  0.5200 -0.3456 -0.2480
 6179SOL     OW24481   2.032   5.764   2.299 -0.2539 -0.2209  0.0136
 6179SOL    HW224482   2.055   5.839   2.244  1.4041 -0.8762 -0.2619
 6179SOL    HW324483   2.060   5.790   2.387 -0.6362 -0.1184  0.1049
 6179SOL    MW424484   2.039   5.777   2.304 -0.0810 -0.6736 -0.1737
 6180SOL     OW24485   0.410   1.944   5.171  0.1385  0.0095 -0.0184
 6180SOL    HW224486   0.322   1.958   5.207  0.7033  2.0394  0.7040
 6180SOL    HW324487   0.440   2.032   5.148  0.5686 -0.9538 -3.7850
 6180SOL    MW424488   0.402   1.958   5.172  0.4057  0.3911  0.2031
 6181SOL     OW24489   2.226   1.665   1.260  0.0717 -0.2936  0.1373
 6181SOL    HW224490   2.309   1.623   1.284  0.0953 -1.4484 -1.7116
 6181SOL    HW324491   2.246   1.758   1.258  0.4511 -0.2488  2.8196
 6181SOL    MW424492   2.240   1.672   1.263 -0.3481  0.3907 -0.0905
 6182SOL     OW24493   0.339   2.809   4.364  0.0200 -0.4532 -0.0056
 6182SOL    HW224494   0.305   2.724   4.338 -1.2704 -0.1129  0.4941
 6182SOL    HW324495   0.265   2.853   4.406  1.1037  0.3068  1.1695
 6182SOL    MW424496   0.325   2.804   4.366  0.1638 -0.0538 -0.3918
 6183SOL     OW24497   4.322   2.833   2.398 -0.2777 -0.0526  0.0065
 6183SOL    HW224498   4.325   2.903   2.333 -1.7023 -0.2813 -0.3407
 6183SOL    HW324499   4.254   2.859   2.460 -0.5266 -0.9088  0.1141
 6183SOL    MW424500   4.313   2.845   2.398  0.4975 -0.0434  0.2422
 6184SOL     OW24501   4.802   5.831   5.832  0.6420  0.1965  0.7437
 6184SOL    HW224502   4.829   5.906   5.886  2.6642 -0.4190  0.6620
 6184SOL    HW324503   4.775   5.764   5.895 -0.1092  0.5853  0.8503
 6184SOL    MW424504   4.802   5.832   5.847 -0.3526  0.9349 -0.2049
 6185SOL     OW24505   5.540   0.639   4.251  0.2635  0.1855 -0.6627
 6185SOL    HW224506   5.574   0.670   4.167  0.1792  0.2525 -0.6720
 6185SOL    HW324507   5.551   0.712   4.311 -0.5293  0.4603 -0.8440
 6185SOL    MW424508   5.546   0.653   4.247  0.2948  0.5413 -0.0457
 6186SOL     OW24509   3.177   3.207   5.031  0.2905  0.3636 -0.0654
 6186SOL    HW224510   3.219   3.265   4.968 -1.7111  0.8977 -0.9811
 6186SOL    HW324511   3.123   3.148   4.979  1.1757 -1.4373  0.9539
 6186SOL    MW424512   3.175   3.207   5.016  0.3448  0.6187  0.1243
 6187SOL     OW24513   5.497   4.368   3.152 -0.2993  0.1978 -0.9742
 6187SOL    HW224514   5.528   4.445   3.105 -0.7655 -0.3533 -2.2482
 6187SOL    HW324515   5.408   4.353   3.119 -1.2976  0.6948  1.2652
 6187SOL    MW424516   5.489   4.376   3.142  0.2806  0.6720  0.2356
 6188SOL     OW24517   3.667   4.871   1.043 -0.3869 -0.1005 -0.3212
 6188SOL    HW224518   3.752   4.843   1.079 -1.2597 -0.6008  1.4816
 6188SOL    HW324519   3.605   4.858   1.115 -1.9119  0.7990 -1.4090
 6188SOL    MW424520   3.670   4.865   1.058  0.0471 -0.1476 -0.3763
 6189SOL     OW24521   0.378   0.985   2.686 -0.2230  0.1315  0.3101
 6189SOL    HW224522   0.297   1.034   2.698  0.6313  1.3713  1.1845
 6189SOL    HW324523   0.422   1.030   2.614 -1.1198 -1.7023 -1.5105
 6189SOL    MW424524   0.373   0.998   2.678 -0.3659  0.0418 -0.6004
 6190SOL     OW24525   6.331   2.194   5.138 -0.0193  0.6616 -0.8124
 6190SOL    HW224526   6.325   2.289   5.132 -0.8751  0.5979 -1.1046
 6190SOL    HW324527   6.299   2.173   5.225 -0.1374  0.6238 -0.8640
 6190SOL    MW424528   6.326   2.204   5.148  0.5362  0.2449 -0.1155
 6191SOL     OW24529   4.609   5.909   2.575  0.1381  0.5357 -0.1928
 6191SOL    HW224530   4.519   5.880   2.583  0.3098 -0.0106 -0.2443
 6191SOL    HW324531   4.652   5.879   2.655 -0.1648  2.4444  0.7470
 6191SOL    MW424532   4.603   5.901   2.587 -0.3083  0.3671 -0.2330
 6192SOL     OW24533   5.287   4.112   0.323 -0.2108 -0.0831  0.1636
 6192SOL    HW224534   5.196   4.140   0.314 -1.1034 -2.2872  1.4133
 6192SOL    HW324535   5.283   4.016   0.314  1.8429 -0.3099  1.1993
 6192SOL    MW424536   5.274   4.103   0.321 -0.1116  0.1338 -0.1993
 6193SOL     OW24537   5.786   0.775   1.357  0.0121  0.0852 -0.6708
 6193SOL    HW224538   5.854   0.767   1.290  0.8122  0.7788  0.0331
 6193SOL    HW324539   5.804   0.704   1.418  1.0935  1.1829  0.3448
 6193SOL    MW424540   5.798   0.765   1.356  0.3515 -0.0278 -0.4398
 6194SOL     OW24541   0.203   6.311   2.840 -0.1986  0.1473 -0.0810
 6194SOL    HW224542   0.226   6.284   2.929 -1.6474 -0.5574  0.1009
 6194SOL    HW324543   0.243   6.244   2.784 -1.7944 -1.1358  0.2393
 6194SOL    MW424544   0.212   6.299   2.844  0.0321  0.5960 -0.2899
 6195SOL     OW24545   2.437   4.738   4.351 -0.1616 -0.5199 -0.2228
 6195SOL    HW224546   2.351   4.780   4.345 -1.1410 -2.5802 -2.2199
 6195SOL    HW324547   2.484   4.771   4.274  0.8827  0.5550  0.8304
 6195SOL    MW424548   2.431   4.748   4.340 -0.2015 -0.5235 -0.0164
 6196SOL     OW24549   4.313   5.568   5.823 -0.3511 -0.3488  0.0415
 6196SOL    HW224550   4.313   5.488   5.770 -1.1974 -0.8309  0.7303
 6196SOL    HW324551   4.376   5.551   5.893 -1.3988 -0.9195  0.8784
 6196SOL    MW424552   4.321   5.555   5.825  0.2164  0.5255  0.8627
 6197SOL     OW24553   0.437   1.402   5.087 -0.1871  0.1011 -0.7679
 6197SOL    HW224554   0.381   1.402   5.010 -0.2678 -0.6309 -0.7188
 6197SOL    HW324555   0.455   1.494   5.104 -2.4313  0.4390  0.0027
 6197SOL    MW424556   0.432   1.414   5.079 -0.0492  0.1415  0.1581
 6198SOL     OW24557   0.653   2.535   0.698 -0.2830 -0.0049 -0.2241
 6198SOL    HW224558   0.671   2.563   0.608  2.7153  1.0429  0.5733
 6198SOL    HW324559   0.725   2.572   0.749 -0.4990 -2.6374  2.2380
 6198SOL    MW424560   0.665   2.544   0.693  0.5891 -0.7631  0.2431
 6199SOL     OW24561   2.903   2.879   3.365  0.0810 -0.6274 -0.3090
 6199SOL    HW224562   2.993   2.909   3.376 -0.4950  1.1084  0.0368
 6199SOL    HW324563   2.911   2.786   3.345  1.9787 -0.3579 -1.0263
 6199SOL    MW424564   2.916   2.871   3.364  0.1234  0.8012  0.3753
 6200SOL     OW24565   3.654   1.558   3.753  0.2985 -0.1715 -0.0381
 6200SOL    HW224566   3.637   1.476   3.707  0.9551 -0.3273 -0.0060
 6200SOL    HW324567   3.611   1.547   3.838  0.3230 -0.4474 -0.0606
 6200SOL    MW424568   3.646   1.546   3.758 -0.5068  0.1566 -0.1036
 6201SOL     OW24569   1.990   3.424   0.740 -0.0669 -0.2411 -0.4052
 6201SOL    HW224570   2.003   3.440   0.647 -2.4841 -1.3445 -1.0069
 6201SOL    HW324571   1.898   3.399   0.748 -0.7124  2.4537  2.6843
 6201SOL    MW424572   1.980   3.423   0.729 -0.0455  0.4879 -0.1016
 6202SOL     OW24573   0.296   5.287   3.326  0.6097 -0.1609  0.0820
 6202SOL    HW224574   0.359   5.359   3.321  0.0270  0.4009  0.5736
 6202SOL    HW324575   0.348   5.208   3.313  0.8231  0.4379 -4.0083
 6202SOL    MW424576   0.311   5.286   3.324  1.0535  0.0201 -0.4937
 6203SOL     OW24577   1.418   0.312   1.011 -0.1224 -1.2178 -0.4273
 6203SOL    HW224578   1.355   0.379   0.983 -0.0723 -1.2675 -0.6584
 6203SOL    HW324579   1.433   0.331   1.104  0.1842 -0.6691 -0.5799
 6203SOL    MW424580   1.412   0.323   1.020 -0.2971 -0.2143 -0.6438
 6204SOL     OW24581   5.319   1.899   4.702 -0.3572  0.1533 -0.0945
 6204SOL    HW224582   5.271   1.971   4.745 -0.0333  0.4230 -0.1860
 6204SOL    HW324583   5.263   1.874   4.629 -0.9853 -0.4033  0.5561
 6204SOL    MW424584   5.305   1.906   4.698  0.0187  0.5486  0.1770
 6205SOL     OW24585   1.491   6.329   4.796 -0.8257 -0.0522 -0.1562
 6205SOL    HW224586   1.484   6.249   4.744  1.3218 -1.3316  1.3685
 6205SOL    HW324587   1.420   6.384   4.764 -1.8122 -2.1756 -1.9146
 6205SOL    MW424588   1.481   6.326   4.785 -1.2030 -0.1471  0.0728
 6206SOL     OW24589   5.424   0.206   1.883 -1.2175 -0.1055  0.3422
 6206SOL    HW224590   5.496   0.269   1.889 -1.2016  0.0578 -1.1430
 6206SOL    HW324591   5.425   0.161   1.968  1.4294 -0.9386 -0.0195
 6206SOL    MW424592   5.434   0.208   1.895 -0.1523  0.1552 -0.4064
 6207SOL     OW24593   4.273   2.102   2.781 -0.0017 -0.5481  0.0212
 6207SOL    HW224594   4.291   2.126   2.690 -2.8418 -2.4987 -1.2120
 6207SOL    HW324595   4.243   2.183   2.821 -0.5912 -0.0483 -1.3560
 6207SOL    MW424596   4.271   2.116   2.774  0.3300 -0.0420 -0.7461
 6208SOL     OW24597   2.374   2.447   4.565 -0.0571  0.3095  0.1096
 6208SOL    HW224598   2.336   2.417   4.482  1.3502 -1.7251  0.1130
 6208SOL    HW324599   2.301   2.444   4.627 -0.6543 -0.2123 -0.6023
 6208SOL    MW424600   2.359   2.442   4.563 -0.8960 -0.3006  0.1311
 6209SOL     OW24601   1.778   1.672   1.133  0.3480 -0.8672  0.7607
 6209SOL    HW224602   1.754   1.580   1.125 -0.4481 -0.5338 -1.3361
 6209SOL    HW324603   1.867   1.676   1.097  0.1270 -0.7153  0.2303
 6209SOL    MW424604   1.787   1.660   1.127 -0.0224  0.1313 -0.3340
 6210SOL     OW24605   3.145   4.908   3.647 -0.0958 -0.1179 -0.6799
 6210SOL    HW224606   3.100   4.845   3.590  0.2146 -0.3306 -0.6882
 6210SOL    HW324607   3.231   4.920   3.607  0.3458 -0.7166  0.0663
 6210SOL    MW424608   3.150   4.901   3.634 -0.2535 -0.4304  0.2147
 6211SOL     OW24609   0.769   5.867   3.201 -0.1373 -0.0862  0.4999
 6211SOL    HW224610   0.693   5.814   3.226 -2.1612  2.1915 -0.3436
 6211SOL    HW324611   0.830   5.805   3.162 -1.5349 -2.0474  1.2775
 6211SOL    MW424612   0.767   5.852   3.199  0.4103  0.4734  0.7983
 6212SOL     OW24613   5.164   5.306   3.594  0.0583  0.0385  0.0435
 6212SOL    HW224614   5.127   5.286   3.681  2.4100 -1.3296  0.8110
 6212SOL    HW324615   5.252   5.338   3.612  0.1160  1.0626 -1.8120
 6212SOL    MW424616   5.170   5.308   3.608  0.3959  0.4265  0.1623
 6213SOL     OW24617   6.182   0.792   6.186 -0.2855 -0.2931 -0.7425
 6213SOL    HW224618   6.191   0.886   6.175  1.6470 -0.5084 -1.4354
 6213SOL    HW324619   6.106   0.769   6.132 -0.3667  0.7776 -1.1183
 6213SOL    MW424620   6.173   0.801   6.177 -0.0765 -0.3170  0.2290
 6214SOL     OW24621   1.439   1.495   2.930  0.1615 -0.1750 -0.4823
 6214SOL    HW224622   1.430   1.423   2.993 -0.5058 -0.2812 -0.6955
 6214SOL    HW324623   1.533   1.515   2.930  0.3323 -0.9494 -0.3184
 6214SOL    MW424624   1.451   1.488   2.939 -0.6010 -0.0166 -0.0243
 6215SOL     OW24625   3.021   2.157   2.041  0.3424  0.4357 -0.1901
 6215SOL    HW224626   2.955   2.088   2.034 -0.0516  0.3836  2.8191
 6215SOL    HW324627   3.099   2.120   1.999  0.2485 -2.0772  1.6431
 6215SOL    MW424628   3.023   2.143   2.034  0.0768 -0.1800 -0.0192
 6216SOL     OW24629   5.887   5.308   4.089  0.0461  0.2572 -0.7874
 6216SOL    HW224630   5.809   5.257   4.112 -1.2197  2.4131  0.0208
 6216SOL    HW324631   5.957   5.270   4.143 -1.4546  1.0661  1.9363
 6216SOL    MW424632   5.886   5.296   4.099  0.0283  0.5928 -0.1459
 6217SOL     OW24633   2.351   5.100   1.703 -0.1250  0.1311 -0.1161
 6217SOL    HW224634   2.407   5.060   1.769  0.1309  0.2469 -0.2623
 6217SOL    HW324635   2.265   5.106   1.745 -0.1418 -0.4625 -0.0549
 6217SOL    MW424636   2.347   5.096   1.717 -0.0681 -0.1178  0.4987
 6218SOL     OW24637   0.438   5.609   5.928  0.1749  0.2624  0.2106
 6218SOL    HW224638   0.348   5.600   5.959 -0.0541 -0.8593 -0.7226
 6218SOL    HW324639   0.450   5.537   5.866  1.5185  0.7606 -0.1517
 6218SOL    MW424640   0.428   5.598   5.924  0.2530 -0.0806 -0.0271
 6219SOL     OW24641   5.849   4.665   3.784 -0.1664 -0.3097 -0.7069
 6219SOL    HW224642   5.780   4.656   3.719 -0.6912  0.1341 -0.2197
 6219SOL    HW324643   5.925   4.622   3.745 -0.9109 -1.4465 -0.9507
 6219SOL    MW424644   5.850   4.658   3.771 -0.1594 -0.2332  0.1937
 6220SOL     OW24645   3.272   1.248   3.811 -0.2742 -0.4091 -0.2843
 6220SOL    HW224646   3.310   1.311   3.750 -0.4782  0.1804  0.1886
 6220SOL    HW324647   3.348   1.207   3.854 -0.1455 -0.0918 -0.2032
 6220SOL    MW424648   3.287   1.251   3.809 -0.5803 -0.0941  0.0118
 6221SOL     OW24649   5.145   6.008   3.402 -0.1008  0.1380  0.2922
 6221SOL    HW224650   5.138   5.923   3.445 -1.1219  0.3012  0.4624
 6221SOL    HW324651   5.068   6.056   3.430  1.5877  2.0069  2.0927
 6221SOL    MW424652   5.134   6.003   3.411 -0.3395  0.4470  0.2106
 6222SOL     OW24653   3.808   2.615   3.225 -0.1769 -0.3106  0.2283
 6222SOL    HW224654   3.789   2.693   3.277  0.6561 -0.0604  0.1652
 6222SOL    HW324655   3.770   2.543   3.275  1.0996 -0.1508  1.5022
 6222SOL    MW424656   3.800   2.616   3.238  0.0819 -0.8949  0.3347
 6223SOL     OW24657   4.353   5.227   2.733  0.2935  0.1385  0.3884
 6223SOL    HW224658   4.442   5.243   2.764 -0.0084 -0.9779  1.9484
 6223SOL    HW324659   4.344   5.132   2.734 -0.8853  0.2296  0.1459
 6223SOL    MW424660   4.364   5.217   2.737  0.0598 -0.0560 -0.3419
 6224SOL     OW24661   0.787   5.281   0.552 -0.0119 -0.2426  0.4952
 6224SOL    HW224662   0.802   5.310   0.642  0.6850  0.0201  0.3025
 6224SOL    HW324663   0.762   5.189   0.561 -1.1151  0.0971  1.0318
 6224SOL    MW424664   0.786   5.272   0.565 -0.5105 -0.1995 -0.1578
 6225SOL     OW24665   3.618   3.122   4.442 -0.3394 -0.3512  0.4617
 6225SOL    HW224666   3.638   3.176   4.366 -1.5906  0.5056  0.7048
 6225SOL    HW324667   3.701   3.114   4.489  0.2006  0.0414 -0.4086
 6225SOL    MW424668   3.631   3.128   4.438 -0.0440 -0.6063 -0.8684
 6226SOL     OW24669   4.846   0.787   2.025  0.0314 -0.8136 -0.1795
 6226SOL    HW224670   4.819   0.734   2.100  0.1557 -2.6953 -1.3903
 6226SOL    HW324671   4.942   0.791   2.031  0.0515 -1.0815 -0.2914
 6226SOL    MW424672   4.855   0.780   2.035  0.1148 -0.1545 -0.0179
 6227SOL     OW24673   2.350   5.715   2.519 -0.4500  0.0717 -0.3474
 6227SOL    HW224674   2.292   5.639   2.529 -0.0480 -0.1043  0.8669
 6227SOL    HW324675   2.314   5.780   2.579 -0.0995  0.4031 -0.4944
 6227SOL    MW424676   2.337   5.713   2.528  0.0143  0.1149  0.2571
 6228SOL     OW24677   4.428   5.593   0.485  0.7001  0.4960 -0.2975
 6228SOL    HW224678   4.427   5.583   0.390 -1.3719 -1.1560 -0.1884
 6228SOL    HW324679   4.376   5.672   0.501  1.1594  0.8503 -0.5239
 6228SOL    MW424680   4.421   5.602   0.474 -0.1524 -0.1766 -0.4985
 6229SOL     OW24681   0.185   2.318   0.566 -0.6390 -0.0743 -0.0415
 6229SOL    HW224682   0.268   2.363   0.553 -1.9932  2.0372 -2.6667
 6229SOL    HW324683   0.194   2.236   0.518  0.5838 -0.8969  1.5257
 6229SOL    MW424684   0.197   2.313   0.558 -0.2502  0.3383  0.0691
 6230SOL     OW24685   5.313   3.747   2.726  0.0107 -0.0352  0.4466
 6230SOL    HW224686   5.304   3.652   2.711 -0.0635  0.1321 -0.6455
 6230SOL    HW324687   5.243   3.786   2.674  0.1107  0.6382  0.8078
 6230SOL    MW424688   5.302   3.739   2.717  0.8845 -0.0045 -0.0088
 6231SOL     OW24689   2.318   4.040   4.520 -0.4311  0.1915 -0.0573
 6231SOL    HW224690   2.282   3.961   4.558  1.3660 -0.4091  0.5098
 6231SOL    HW324691   2.264   4.111   4.554 -0.8079 -0.6268  1.0796
 6231SOL    MW424692   2.306   4.039   4.529 -0.1520 -0.0886  0.5894
 6232SOL     OW24693   5.418   6.011   0.800 -0.3934 -0.0539  0.2595
 6232SOL    HW224694   5.513   5.994   0.797 -0.5822 -1.1048 -0.0377
 6232SOL    HW324695   5.405   6.084   0.739  0.4920  1.5041  1.8273
 6232SOL    MW424696   5.429   6.018   0.792 -0.0300  0.8599 -0.4530
 6233SOL     OW24697   4.583   0.325   2.708 -0.0731 -0.1544  0.1624
 6233SOL    HW224698   4.528   0.288   2.778 -0.8681  0.8884  0.1176
 6233SOL    HW324699   4.523   0.340   2.635  0.8200 -1.5724 -0.9132
 6233SOL    MW424700   4.568   0.322   2.708 -0.0335 -0.5944  1.0528
 6234SOL     OW24701   6.026   1.336   4.842 -0.1065 -0.2028 -0.1321
 6234SOL    HW224702   6.106   1.299   4.881  1.0195  0.9721 -1.2190
 6234SOL    HW324703   6.007   1.413   4.895  1.0213  0.9952 -1.3944
 6234SOL    MW424704   6.034   1.341   4.854 -0.4507 -0.1424  0.1462
 6235SOL     OW24705   4.917   2.592   2.658  0.5314 -0.3841  0.1348
 6235SOL    HW224706   4.935   2.636   2.741  1.6554 -1.8347  0.7024
 6235SOL    HW324707   4.926   2.499   2.678  0.8766 -0.7636 -1.6217
 6235SOL    MW424708   4.921   2.585   2.671  0.1194 -0.0612 -0.0609
 6236SOL     OW24709   4.225   0.466   3.508  0.0025 -0.1470 -0.4670
 6236SOL    HW224710   4.259   0.509   3.587  0.6198  0.4871 -1.0541
 6236SOL    HW324711   4.144   0.513   3.489 -0.3627 -0.5790  0.0263
 6236SOL    MW424712   4.219   0.478   3.516  0.0144 -0.2137 -0.0872
 6237SOL     OW24713   0.861   1.327   6.149 -0.3820  0.1004 -0.3623
 6237SOL    HW224714   0.888   1.369   6.067 -1.0996 -0.1426 -0.7276
 6237SOL    HW324715   0.765   1.330   6.147 -0.4138  1.3831  1.1308
 6237SOL    MW424716   0.852   1.333   6.138  0.0645 -0.6688  0.1673
 6238SOL     OW24717   6.189   3.676   3.954 -0.3297 -0.0382  0.4759
 6238SOL    HW224718   6.145   3.661   4.038 -0.1126  0.5394  0.6948
 6238SOL    HW324719   6.241   3.755   3.967 -1.2466  0.7732 -0.5804
 6238SOL    MW424720   6.190   3.684   3.967 -0.0904  0.0137 -0.2804
 6239SOL     OW24721   4.555   3.693   0.237  0.4489 -0.2688  0.3738
 6239SOL    HW224722   4.461   3.681   0.250  0.4728  0.1489  1.0273
 6239SOL    HW324723   4.563   3.730   0.150  0.0318 -0.5989  0.1914
 6239SOL    MW424724   4.544   3.696   0.227 -0.9382 -0.5541 -0.3210
 6240SOL     OW24725   3.006   4.313   3.991  1.0184  0.3791 -0.0812
 6240SOL    HW224726   3.040   4.402   3.989  1.4529  0.2064 -1.6484
 6240SOL    HW324727   3.078   4.260   4.025  1.5808  0.3326 -1.2844
 6240SOL    MW424728   3.020   4.318   3.995  0.4896 -0.3331 -0.2186
 6241SOL     OW24729   5.252   1.568   3.972  0.0814 -0.2657 -0.3494
 6241SOL    HW224730   5.325   1.543   4.027 -0.3414 -1.4798 -0.3200
 6241SOL    HW324731   5.292   1.614   3.898  0.7568  0.1682  0.2759
 6241SOL    MW424732   5.267   1.571   3.970  0.0193 -0.0004 -0.0957
 6242SOL     OW24733   0.988   4.349   3.287  0.0522 -0.3306 -0.2013
 6242SOL    HW224734   1.043   4.270   3.280 -1.1503 -1.0649 -2.4440
 6242SOL    HW324735   0.912   4.320   3.337  0.4230 -0.0851  0.5110
 6242SOL    MW424736   0.985   4.334   3.293 -0.0256 -0.2749 -0.5402
 6243SOL     OW24737   4.423   1.891   0.792 -0.3566 -0.2015 -0.0706
 6243SOL    HW224738   4.380   1.957   0.847 -1.3751 -0.2982 -0.7258
 6243SOL    HW324739   4.367   1.884   0.714  0.6491 -0.6174 -0.7786
 6243SOL    MW424740   4.410   1.899   0.789  0.0916  0.0350  0.2669
 6244SOL     OW24741   4.881   3.330   3.216  0.8362 -0.5748  0.5692
 6244SOL    HW224742   4.858   3.238   3.227 -1.1421 -0.4515 -1.6459
 6244SOL    HW324743   4.955   3.330   3.155  0.3865 -0.6965  0.0167
 6244SOL    MW424744   4.888   3.318   3.210  0.1998 -0.2010 -0.0702
 6245SOL     OW24745   4.442   2.397   1.832  0.1049 -0.2113 -0.1832
 6245SOL    HW224746   4.358   2.397   1.785  0.7276 -0.0161 -1.3407
 6245SOL    HW324747   4.503   2.438   1.771  1.1498 -0.7595  0.4670
 6245SOL    MW424748   4.439   2.403   1.818  0.2303  0.0296  0.3922
 6246SOL     OW24749   5.458   4.396   6.180  0.1656  0.4793  0.6840
 6246SOL    HW224750   5.412   4.346   6.248 -0.9811 -0.6129 -0.8309
 6246SOL    HW324751   5.392   4.456   6.145  0.6292  0.7620  0.2779
 6246SOL    MW424752   5.443   4.398   6.184  0.7296  0.4522 -0.9092
 6247SOL     OW24753   2.048   4.661   6.169  0.0053  0.0147  0.0672
 6247SOL    HW224754   2.014   4.716   6.098 -1.5474 -0.2916  0.5308
 6247SOL    HW324755   2.112   4.604   6.126 -0.7313 -0.0017 -1.0521
 6247SOL    MW424756   2.052   4.661   6.154  0.1295  0.3010  0.0047
 6248SOL     OW24757   4.937   0.390   4.549 -0.2129  0.2455 -0.0630
 6248SOL    HW224758   4.979   0.312   4.511 -2.1159 -1.1054  0.4483
 6248SOL    HW324759   4.985   0.464   4.512  2.5560 -1.1549  0.4452
 6248SOL    MW424760   4.949   0.389   4.539 -0.0740  0.4441 -0.0517
 6249SOL     OW24761   6.066   2.762   5.262  0.3088  0.4755 -0.2138
 6249SOL    HW224762   5.980   2.784   5.298  0.1580  0.1912 -0.3964
 6249SOL    HW324763   6.050   2.750   5.169  0.8150  1.8603 -0.5002
 6249SOL    MW424764   6.052   2.763   5.255  0.0303  0.6925  0.1585
 6250SOL     OW24765   5.236   2.710   6.361 -0.2853 -0.1290  0.1453
 6250SOL    HW224766   5.145   2.730   6.382 -0.4273 -2.1085  1.8324
 6250SOL    HW324767   5.231   2.632   6.305  0.3514 -1.1371  1.4350
 6250SOL    MW424768   5.224   2.702   6.356 -0.0588 -0.2320  0.6373
 6251SOL     OW24769   6.231   4.911   0.385  0.0402 -0.1821  0.1756
 6251SOL    HW224770   6.269   4.905   0.298 -0.6245  0.0539 -0.1335
 6251SOL    HW324771   6.289   4.971   0.432  0.6465 -0.6488  0.0385
 6251SOL    MW424772   6.243   4.918   0.380  0.7281  0.6067 -0.1631
 6252SOL     OW24773   0.225   2.464   3.230  0.3160  0.1769 -0.3836
 6252SOL    HW224774   0.285   2.454   3.156  1.9988  1.4726  0.7203
 6252SOL    HW324775   0.255   2.400   3.294 -0.1844  0.0790 -0.2451
 6252SOL    MW424776   0.237   2.455   3.229  0.6337 -0.2659 -0.1546
 6253SOL     OW24777   6.165   4.616   3.713  0.2212 -0.4082 -0.2271
 6253SOL    HW224778   6.159   4.610   3.809 -2.2959 -4.3833 -0.3836
 6253SOL    HW324779   6.253   4.585   3.692  0.1173 -1.4554  0.7892
 6253SOL    MW424780   6.176   4.611   3.723 -0.3671 -0.1830 -0.3101
 6254SOL     OW24781   6.332   0.835   0.177  0.4129 -0.2998  0.2436
 6254SOL    HW224782   6.366   0.916   0.140 -0.2439  0.2193  0.7612
 6254SOL    HW324783   6.405   0.800   0.228  0.2920  0.6540  1.1083
 6254SOL    MW424784   6.346   0.841   0.179 -0.7399 -0.6031  0.3748
 6255SOL     OW24785   0.025   5.714   3.625 -0.1299 -0.0212  0.4509
 6255SOL    HW224786  -0.024   5.645   3.669 -1.1025  0.3545 -0.0264
 6255SOL    HW324787   0.011   5.792   3.680  1.1429 -0.2356  1.1098
 6255SOL    MW424788   0.017   5.715   3.638 -0.3100 -0.5246 -0.5492
 6256SOL     OW24789   6.184   1.872   0.611 -0.1990 -0.0168 -0.5162
 6256SOL    HW224790   6.097   1.836   0.627 -0.4455  0.6354 -0.3511
 6256SOL    HW324791   6.219   1.891   0.698 -0.3972  0.8761 -0.6197
 6256SOL    MW424792   6.177   1.870   0.624  0.3283 -0.4472 -0.5112
 6257SOL     OW24793   5.099   0.238   2.834  0.4680 -0.1331 -0.3525
 6257SOL    HW224794   5.174   0.243   2.775  0.3218 -0.1571 -0.5398
 6257SOL    HW324795   5.023   0.227   2.777  0.3112 -0.0292 -0.1677
 6257SOL    MW424796   5.099   0.237   2.819 -0.1014  0.0647 -0.2901
 6258SOL     OW24797   1.624   0.134   0.064  0.2851 -0.8878 -0.0409
 6258SOL    HW224798   1.693   0.098   0.120 -0.6049 -1.8021  0.4807
 6258SOL    HW324799   1.651   0.109  -0.025  0.3513 -1.7167  0.2041
 6258SOL    MW424800   1.637   0.126   0.059 -0.1828  0.3638  0.1406
 6259SOL     OW24801   2.634   1.720   3.489  0.1264  0.8547  0.1474
 6259SOL    HW224802   2.558   1.674   3.525 -0.5884  1.3974 -0.6211
 6259SOL    HW324803   2.606   1.811   3.484  0.0132  0.7562 -2.1151
 6259SOL    MW424804   2.620   1.726   3.493 -0.5940  0.1455 -0.3516
 6260SOL     OW24805   6.255   4.103   0.004 -0.0542  1.1304  0.7932
 6260SOL    HW224806   6.228   4.038  -0.061  1.7930  0.4597  0.6440
 6260SOL    HW324807   6.311   4.163  -0.044  1.4454  0.5487  1.7625
 6260SOL    MW424808   6.259   4.102  -0.011  0.1977 -0.0049 -0.2267
 6261SOL     OW24809   3.563   0.386   2.051 -0.0284  0.3232  0.3849
 6261SOL    HW224810   3.564   0.431   2.135 -0.5629  1.6885 -0.3188
 6261SOL    HW324811   3.520   0.447   1.991 -0.4218 -0.9612 -0.6977
 6261SOL    MW424812   3.557   0.400   2.054 -0.3712  0.0248 -0.5800
 6262SOL     OW24813   2.706   1.213   2.086  0.1036  0.9048  0.1228
 6262SOL    HW224814   2.621   1.182   2.056 -0.0491 -1.2267  2.4016
 6262SOL    HW324815   2.769   1.177   2.024 -0.4403 -0.3825  0.2965
 6262SOL    MW424816   2.703   1.204   2.074  0.2095  0.0595 -0.2848
 6263SOL     OW24817   2.043   1.899   2.103  0.0562 -0.0442  0.1428
 6263SOL    HW224818   2.128   1.874   2.066  0.8919  1.6720  0.8033
 6263SOL    HW324819   2.055   1.893   2.198 -0.7224 -0.2781  0.2314
 6263SOL    MW424820   2.056   1.895   2.111 -0.3464  0.6083 -0.1842
 6264SOL     OW24821   1.413   2.895   2.244  0.2679  0.0364  0.0487
 6264SOL    HW224822   1.400   2.805   2.213 -0.2282 -0.8823  2.6511
 6264SOL    HW324823   1.325   2.929   2.257  0.4012 -0.3268  2.1867
 6264SOL    MW424824   1.400   2.887   2.241 -0.0626  0.1621  0.6725
 6265SOL     OW24825   0.678   1.549   2.090  0.4262  0.1238 -0.3293
 6265SOL    HW224826   0.627   1.590   2.020 -0.8446  1.7046  1.4322
 6265SOL    HW324827   0.758   1.601   2.094 -0.3246  1.2495  0.5935
 6265SOL    MW424828   0.682   1.561   2.081 -0.0279  0.2388  0.7035
 6266SOL     OW24829   1.121   2.453   5.415  0.0375  0.1228  0.2477
 6266SOL    HW224830   1.038   2.413   5.442  0.2567 -1.0581 -0.7555
 6266SOL    HW324831   1.156   2.394   5.349  0.4790  1.9092 -1.1868
 6266SOL    MW424832   1.115   2.440   5.410 -0.2141  0.1042  0.2341
 6267SOL     OW24833   0.780   4.548   6.242  0.3527 -0.2654 -0.3250
 6267SOL    HW224834   0.807   4.529   6.332  0.6512  0.7344 -0.1915
 6267SOL    HW324835   0.834   4.490   6.188  2.3232  1.1876 -0.0188
 6267SOL    MW424836   0.791   4.538   6.247 -0.4467  0.3267 -0.4132
 6268SOL     OW24837   0.140   0.768   4.887  0.8286 -0.7272  0.2793
 6268SOL    HW224838   0.109   0.736   4.972 -1.1204 -0.2032 -0.1755
 6268SOL    HW324839   0.196   0.842   4.908  0.5629 -0.7580  1.1328
 6268SOL    MW424840   0.143   0.773   4.901  0.0664  0.6087 -0.0058
 6269SOL     OW24841   4.365   4.258   0.659 -0.3271  0.3469 -0.0152
 6269SOL    HW224842   4.280   4.277   0.621 -0.6337 -0.5597  0.2063
 6269SOL    HW324843   4.414   4.214   0.589 -0.7935 -1.0636  0.5134
 6269SOL    MW424844   4.360   4.255   0.645  0.1556  0.2035 -0.0109
 6270SOL     OW24845   5.415   1.544   0.585  0.1341  0.4158 -0.1584
 6270SOL    HW224846   5.389   1.555   0.493 -1.3390  2.3946  0.4283
 6270SOL    HW324847   5.459   1.626   0.607  2.5426 -0.9217  0.3296
 6270SOL    MW424848   5.417   1.557   0.576 -0.0319  0.6180 -0.1727
 6271SOL     OW24849   0.057   3.769   3.852 -0.2863 -0.6758 -0.2447
 6271SOL    HW224850   0.148   3.798   3.843 -0.2802 -0.9363 -1.1334
 6271SOL    HW324851   0.056   3.715   3.931 -0.0310  0.6865  0.7248
 6271SOL    MW424852   0.069   3.766   3.861  0.3010  0.2304  0.4989
 6272SOL     OW24853   5.443   5.870   3.493 -0.1329  0.3210 -0.4918
 6272SOL    HW224854   5.388   5.913   3.559 -0.3650 -0.3226 -0.2599
 6272SOL    HW324855   5.420   5.777   3.500  1.3625 -0.0301 -0.0382
 6272SOL    MW424856   5.432   5.864   3.503 -0.0020 -0.2151 -0.0980
 6273SOL     OW24857   1.203   3.313   0.252  0.1938  0.3759 -0.1095
 6273SOL    HW224858   1.143   3.238   0.248  0.9894 -0.5723  3.1175
 6273SOL    HW324859   1.191   3.358   0.168 -3.4379 -0.9524 -0.4617
 6273SOL    MW424860   1.193   3.309   0.240 -0.0329 -0.1020 -0.2065
 6274SOL     OW24861   6.355   3.260   0.694  0.0117  0.0287  0.2235
 6274SOL    HW224862   6.385   3.169   0.689  0.7096  0.2181  0.7912
 6274SOL    HW324863   6.357   3.282   0.787 -0.9127  0.3839  0.1681
 6274SOL    MW424864   6.359   3.251   0.705 -0.4646  0.4369  0.2374
 6275SOL     OW24865   3.673   1.305   3.635 -0.3293  0.0066  0.2375
 6275SOL    HW224866   3.703   1.339   3.550 -1.9173 -0.1874 -0.4281
 6275SOL    HW324867   3.745   1.326   3.695  0.3264  1.2139 -0.9045
 6275SOL    MW424868   3.687   1.312   3.632 -0.3245  0.8996  0.9920
 6276SOL     OW24869   0.909   4.752   4.307 -0.7839  0.5571 -0.2282
 6276SOL    HW224870   0.898   4.762   4.401 -1.8628 -0.5059 -0.2071
 6276SOL    HW324871   0.937   4.838   4.276 -0.6194  0.9721  1.0322
 6276SOL    MW424872   0.911   4.765   4.315  0.1660 -0.1999 -0.9227
 6277SOL     OW24873   1.237   4.851   3.779 -0.0405 -0.4108  0.4663
 6277SOL    HW224874   1.179   4.894   3.715 -0.7742 -2.3153 -0.2504
 6277SOL    HW324875   1.219   4.896   3.862 -1.3403  0.1306 -0.0753
 6277SOL    MW424876   1.227   4.862   3.781 -0.5861  0.2069 -0.6944
 6278SOL     OW24877   5.784   1.867   5.846  0.1964  0.3683 -0.1830
 6278SOL    HW224878   5.823   1.928   5.783 -0.6653 -0.5219 -1.6421
 6278SOL    HW324879   5.706   1.913   5.879 -0.0513  0.3378 -0.7251
 6278SOL    MW424880   5.779   1.881   5.842 -0.2998 -0.0517 -0.0524
 6279SOL     OW24881   3.060   4.477   5.089  0.2364  0.6578 -0.0905
 6279SOL    HW224882   3.090   4.522   5.010  0.5006  0.7571  0.0643
 6279SOL    HW324883   3.120   4.507   5.158 -0.6241  1.3770  0.3682
 6279SOL    MW424884   3.072   4.487   5.088  0.2910  0.4796 -0.0869
 6280SOL     OW24885   4.770   4.606   3.421 -0.1407 -0.0651  0.6544
 6280SOL    HW224886   4.740   4.516   3.410 -0.4772  0.0293  0.7952
 6280SOL    HW324887   4.819   4.625   3.341 -1.7833  0.3056 -0.2978
 6280SOL    MW424888   4.773   4.597   3.409 -0.3525 -0.9307 -0.4071
 6281SOL     OW24889   2.532   2.362   1.621  0.8909 -0.0026 -0.0909
 6281SOL    HW224890   2.612   2.331   1.664  1.3530 -0.0314 -0.9422
 6281SOL    HW324891   2.563   2.422   1.553  0.0502  1.8985  1.1198
 6281SOL    MW424892   2.547   2.366   1.618  0.5944 -0.2512 -0.5113
 6282SOL     OW24893   5.541   5.018   4.626  0.1943  0.3998  0.4554
 6282SOL    HW224894   5.447   5.032   4.617  0.1143 -0.3608 -0.0199
 6282SOL    HW324895   5.551   4.971   4.708 -0.2536 -2.8012 -1.1601
 6282SOL    MW424896   5.530   5.014   4.635  0.0246  0.1747  0.0165
 6283SOL     OW24897   2.614   0.040   5.316 -0.1447 -0.4437  0.3322
 6283SOL    HW224898   2.655  -0.011   5.386  3.6894  0.1574 -1.2156
 6283SOL    HW324899   2.600   0.126   5.355  3.5309  0.4145  0.1668
 6283SOL    MW424900   2.618   0.045   5.330 -0.6226 -0.2820  0.1254
 6284SOL     OW24901   0.771   0.658   4.252  0.0099  1.2240  0.1087
 6284SOL    HW224902   0.676   0.672   4.250  0.0785  2.6445  2.6030
 6284SOL    HW324903   0.781   0.568   4.284 -0.5002  1.2968  0.4893
 6284SOL    MW424904   0.760   0.648   4.256 -0.0642  0.2462 -0.1761
 6285SOL     OW24905   2.480   3.818   4.870  0.2890 -0.1385 -0.4129
 6285SOL    HW224906   2.491   3.881   4.941 -1.3540  0.7928 -0.9288
 6285SOL    HW324907   2.528   3.856   4.796 -0.2463  0.2484 -0.5658
 6285SOL    MW424908   2.488   3.831   4.870  0.5918  0.1195  0.3812
 6286SOL     OW24909   4.087   5.630   1.571 -0.2129 -0.5077 -0.6159
 6286SOL    HW224910   4.127   5.697   1.515  1.7608 -0.2878  0.9217
 6286SOL    HW324911   4.118   5.547   1.535 -0.6846 -0.4853 -1.0848
 6286SOL    MW424912   4.097   5.628   1.559  0.5385 -0.0799 -0.0291
 6287SOL     OW24913   2.032   0.035   2.830  1.2142  0.2765  0.5828
 6287SOL    HW224914   2.081   0.114   2.855 -0.0825  0.9144  1.2268
 6287SOL    HW324915   2.054  -0.028   2.898  2.8960 -0.2421 -0.3691
 6287SOL    MW424916   2.041   0.037   2.842  0.0053 -0.2306  0.4440
 6288SOL     OW24917   1.510   5.324   4.430  0.0758  0.2485  0.5257
 6288SOL    HW224918   1.495   5.272   4.351 -1.7544 -0.9093  1.5575
 6288SOL    HW324919   1.528   5.412   4.397 -0.8828 -0.1446 -1.1986
 6288SOL    MW424920   1.510   5.329   4.415 -0.0893  0.4991  0.1254
 6289SOL     OW24921   2.480   4.371   1.186 -0.6160  0.2891 -0.1020
 6289SOL    HW224922   2.432   4.296   1.150  1.5515 -0.2521 -2.1329
 6289SOL    HW324923   2.413   4.438   1.199 -2.0614 -0.6321 -2.1918
 6289SOL    MW424924   2.465   4.370   1.183  0.4314  0.1308 -0.3434
 6290SOL     OW24925   5.987   3.868   5.406 -0.3111  0.1438 -0.6546
 6290SOL    HW224926   6.031   3.806   5.350 -0.1021 -0.8253  0.5460
 6290SOL    HW324927   5.936   3.923   5.346  1.8346  0.7702 -1.9904
 6290SOL    MW424928   5.986   3.867   5.391  0.3309 -0.0363  0.5065
 6291SOL     OW24929   1.530   2.869   3.847  0.5094  0.0076  0.9359
 6291SOL    HW224930   1.607   2.923   3.864  0.4409  0.2699  0.4398
 6291SOL    HW324931   1.558   2.806   3.782 -0.2365  1.4466 -0.8661
 6291SOL    MW424932   1.544   2.868   3.841 -0.2220 -0.1442 -0.6935
 6292SOL     OW24933   2.648   1.497   3.794 -0.6409  0.2915 -0.0339
 6292SOL    HW224934   2.578   1.438   3.822  0.2792 -1.0022 -0.3352
 6292SOL    HW324935   2.605   1.581   3.779 -2.2436 -0.6464 -0.8885
 6292SOL    MW424936   2.633   1.500   3.796  0.4114  0.0679 -0.2557
 6293SOL     OW24937   6.293   5.800   2.162  0.0011 -0.6847 -0.0502
 6293SOL    HW224938   6.256   5.778   2.247 -2.8662 -0.4723 -1.1182
 6293SOL    HW324939   6.349   5.725   2.140 -0.1970 -1.3132  1.4487
 6293SOL    MW424940   6.295   5.787   2.170 -0.0490 -0.0254  0.3652
 6294SOL     OW24941   1.769   4.299   5.380 -0.1334 -0.8024  0.0705
 6294SOL    HW224942   1.814   4.219   5.409  1.7802 -0.1914 -1.0215
 6294SOL    HW324943   1.808   4.368   5.433 -0.6428 -0.3935 -0.0856
 6294SOL    MW424944   1.780   4.297   5.391  0.4486 -0.0425 -0.5534
 6295SOL     OW24945   2.675   5.129   3.924 -0.1517 -0.3238  0.8315
 6295SOL    HW224946   2.595   5.122   3.976 -0.6095  0.1349  0.2057
 6295SOL    HW324947   2.746   5.111   3.986 -0.6753  0.3982  1.6612
 6295SOL    MW424948   2.674   5.126   3.939  1.2075 -0.7574  0.4311
 6296SOL     OW24949   4.675   3.083   5.538  0.7918  0.1445 -0.2650
 6296SOL    HW224950   4.662   3.178   5.533 -0.1202 -0.0357 -2.4232
 6296SOL    HW324951   4.729   3.070   5.616 -0.4230  2.2753  1.0146
 6296SOL    MW424952   4.681   3.094   5.547 -0.0607 -0.3344  0.2157
 6297SOL     OW24953   2.845   2.391   5.323  0.4032  0.1679 -0.2094
 6297SOL    HW224954   2.892   2.331   5.265  0.4611 -0.1535  0.1634
 6297SOL    HW324955   2.914   2.434   5.374  0.2854 -0.8120  0.8320
 6297SOL    MW424956   2.860   2.388   5.322 -0.0600 -0.0156  0.3739
 6298SOL     OW24957   2.094   6.360   4.341  0.3423  0.2740 -0.0139
 6298SOL    HW224958   2.145   6.290   4.383  0.9398 -0.0646 -1.2686
 6298SOL    HW324959   2.140   6.441   4.365  0.0187  0.2057  0.9021
 6298SOL    MW424960   2.107   6.362   4.350 -0.0984  0.1886  0.3505
 6299SOL     OW24961   5.526   5.837   5.656 -0.5870 -0.3577 -0.4929
 6299SOL    HW224962   5.435   5.826   5.682 -0.2834  0.2493  0.9420
 6299SOL    HW324963   5.522   5.886   5.574 -1.5528 -0.0960 -0.3026
 6299SOL    MW424964   5.513   5.842   5.649  0.0463 -0.5047 -0.4221
 6300SOL     OW24965   4.207   3.707   0.781 -0.6140 -0.1131  0.3007
 6300SOL    HW224966   4.118   3.737   0.761 -0.2511  2.0304  1.5820
 6300SOL    HW324967   4.227   3.746   0.866  1.0864 -1.6515  0.6641
 6300SOL    MW424968   4.198   3.716   0.789  0.3170  0.4637  0.7205
 6301SOL     OW24969   3.751   4.807   4.549 -0.1453  0.3337  0.0513
 6301SOL    HW224970   3.733   4.768   4.463 -0.2526  0.4004  0.0421
 6301SOL    HW324971   3.837   4.847   4.540  0.4780 -0.8886  0.4124
 6301SOL    MW424972   3.760   4.807   4.536  0.3293  0.4342 -0.3198
 6302SOL     OW24973   2.721   3.596   3.948  0.1196 -0.4177  0.5500
 6302SOL    HW224974   2.675   3.542   3.885 -0.6732 -1.0282  1.6196
 6302SOL    HW324975   2.725   3.543   4.028  1.2282  0.2673  0.9847
 6302SOL    MW424976   2.716   3.582   3.950 -0.0674 -0.1824 -0.0464
 6303SOL     OW24977   1.561   1.368   0.885 -0.1166 -0.7636  0.0499
 6303SOL    HW224978   1.655   1.376   0.899 -0.3111  1.1693  0.5310
 6303SOL    HW324979   1.543   1.421   0.808 -0.9234 -0.2880  0.5435
 6303SOL    MW424980   1.571   1.376   0.877  0.1836  0.6353  0.0679
 6304SOL     OW24981   0.631   5.255   2.300  0.3515  0.3637 -0.4735
 6304SOL    HW224982   0.705   5.253   2.240  0.6219 -0.1949 -0.1324
 6304SOL    HW324983   0.557   5.224   2.248  0.3667  0.8574 -0.7967
 6304SOL    MW424984   0.631   5.251   2.285  0.1083 -0.3544 -0.5686
 6305SOL     OW24985   1.162   3.397   0.655  0.3262 -0.0430  0.2735
 6305SOL    HW224986   1.157   3.308   0.619 -0.8457  0.1615 -0.1297
 6305SOL    HW324987   1.167   3.384   0.750 -0.4755 -0.5505  0.2635
 6305SOL    MW424988   1.162   3.383   0.663  0.3396  0.0296  0.4436
 6306SOL     OW24989   5.996   5.737   2.126 -0.2605 -0.3618  0.0430
 6306SOL    HW224990   6.077   5.745   2.176  0.5559 -0.1117 -1.2894
 6306SOL    HW324991   6.010   5.661   2.069 -1.0232 -0.4075 -0.0969
 6306SOL    MW424992   6.008   5.728   2.125 -0.0800 -0.7228 -0.6344
 6307SOL     OW24993   5.868   4.435   2.018 -0.1746  0.2464 -0.1933
 6307SOL    HW224994   5.778   4.408   2.004  0.1510 -0.5239 -0.9490
 6307SOL    HW324995   5.917   4.391   1.948  0.7753  0.6823  0.1774
 6307SOL    MW424996   5.863   4.426   2.007  0.0175 -0.2565  0.0029
 6308SOL     OW24997   4.420   3.966   5.255 -0.2467 -0.5006  0.4841
 6308SOL    HW224998   4.463   4.050   5.242  0.3534 -1.0136 -1.0327
 6308SOL    HW324999   4.390   3.940   5.168 -1.8133 -1.1423  1.1676
 6308SOL    MW425000   4.421   3.974   5.242 -0.6741  0.1098  0.1626
 6309SOL     OW25001   0.586   6.040   3.812  0.0485 -0.2753  0.2608
 6309SOL    HW225002   0.554   6.028   3.723  1.0351 -1.9534  0.0909
 6309SOL    HW325003   0.511   6.019   3.867 -0.3275 -0.0524 -0.1617
 6309SOL    MW425004   0.572   6.035   3.808  0.0398  0.6014  0.3162
 6310SOL     OW25005   5.280   2.787   5.158  0.3237 -0.1692 -0.0344
 6310SOL    HW225006   5.298   2.815   5.247 -0.1810  0.8028 -0.2276
 6310SOL    HW325007   5.186   2.802   5.146  0.2890 -0.7463 -0.5763
 6310SOL    MW425008   5.270   2.792   5.168 -0.0684  0.3817  0.0636
 6311SOL     OW25009   4.788   2.042   2.129 -0.5405 -0.1578 -0.8690
 6311SOL    HW225010   4.857   2.066   2.068 -0.9642  0.9045 -0.9424
 6311SOL    HW325011   4.795   1.946   2.136  0.1331 -0.1961 -1.8271
 6311SOL    MW425012   4.798   2.032   2.122 -0.2878 -0.5718  0.3795
 6312SOL     OW25013   4.196   4.417   3.745 -0.3077 -0.1180  0.3397
 6312SOL    HW225014   4.238   4.485   3.797 -1.2241  0.7851 -0.0712
 6312SOL    HW325015   4.222   4.335   3.787  1.8084  0.3958  0.1182
 6312SOL    MW425016   4.205   4.415   3.758 -0.1682 -0.5564 -0.2278
 6313SOL     OW25017   5.382   1.760   6.110 -0.0655 -0.0794 -0.2709
 6313SOL    HW225018   5.453   1.696   6.121  0.6746  0.7309 -0.2282
 6313SOL    HW325019   5.311   1.710   6.069 -0.0005 -1.2539  0.9644
 6313SOL    MW425020   5.382   1.745   6.106  0.6638 -0.2249 -0.3125
 6314SOL     OW25021   3.702   4.444   2.671  0.6299  0.0693  0.5087
 6314SOL    HW225022   3.654   4.391   2.734  1.1741  1.4099  2.1081
 6314SOL    HW325023   3.760   4.498   2.724 -0.6639  3.0841 -0.9395
 6314SOL    MW425024   3.704   4.444   2.686 -0.6375  0.2158 -0.4608
 6315SOL     OW25025   2.136   1.554   2.163 -0.3348  0.1262  0.0017
 6315SOL    HW225026   2.225   1.586   2.180 -0.4464 -0.4069  1.9060
 6315SOL    HW325027   2.145   1.458   2.162 -0.8290  0.0796 -0.1669
 6315SOL    MW425028   2.149   1.545   2.165 -0.1595  0.1337 -0.1963
 6316SOL     OW25029   3.007   2.636   2.667 -0.1714 -0.1780 -0.4637
 6316SOL    HW225030   3.099   2.615   2.683 -0.2458 -0.8739 -0.8981
 6316SOL    HW325031   3.009   2.707   2.603  0.0657 -0.0194 -0.2816
 6316SOL    MW425032   3.019   2.642   2.660 -0.1260 -0.6835  0.6358
 6317SOL     OW25033   0.018   0.701   1.524  0.4991  0.1378 -0.1494
 6317SOL    HW225034  -0.031   0.680   1.444 -0.7194 -2.9805  1.2874
 6317SOL    HW325035  -0.043   0.752   1.577  0.9029  1.1968 -0.6681
 6317SOL    MW425036   0.003   0.705   1.520  0.6906  0.2918 -0.0564
 6318SOL     OW25037   0.176   0.049   5.300 -0.7843  0.1973 -0.3521
 6318SOL    HW225038   0.157  -0.004   5.222 -3.5092 -0.2594  0.5268
 6318SOL    HW325039   0.120   0.126   5.292 -0.4576  0.5730  0.7399
 6318SOL    MW425040   0.166   0.052   5.289 -0.3912 -0.9831 -0.0583
 6319SOL     OW25041   5.199   5.658   1.571  0.1046  0.2204 -0.5542
 6319SOL    HW225042   5.210   5.590   1.637 -0.7288  0.4335 -0.1772
 6319SOL    HW325043   5.114   5.638   1.531  0.0794  0.7566 -0.7684
 6319SOL    MW425044   5.189   5.646   1.575  0.1115  0.1020 -0.1189
 6320SOL     OW25045   1.693   1.815   0.711 -0.3627  0.6655  0.0940
 6320SOL    HW225046   1.742   1.733   0.708 -0.8263  0.3865 -0.0479
 6320SOL    HW325047   1.611   1.795   0.665 -1.1525  0.7463  1.4271
 6320SOL    MW425048   1.688   1.802   0.704  0.0001  0.0699  0.5150
 6321SOL     OW25049   3.110   3.176   0.763 -0.3992 -0.6305  0.0646
 6321SOL    HW225050   3.073   3.210   0.682 -1.1383  0.1828  0.7286
 6321SOL    HW325051   3.094   3.081   0.758  0.2092 -0.6928 -1.0457
 6321SOL    MW425052   3.103   3.168   0.752  0.0086  0.2346  0.4819
 6322SOL     OW25053   4.861   6.123   5.886  0.0336 -0.6166  0.4466
 6322SOL    HW225054   4.770   6.153   5.883 -0.0331 -0.5798  1.8769
 6322SOL    HW325055   4.902   6.178   5.953  1.5037  0.3472 -1.1664
 6322SOL    MW425056   4.855   6.134   5.895 -0.9562  0.0962  0.3101
 6323SOL     OW25057   3.606   3.855   3.469 -0.1000  0.5373 -0.7088
 6323SOL    HW225058   3.679   3.818   3.517 -0.0502  1.1318 -0.3149
 6323SOL    HW325059   3.594   3.797   3.394 -1.5540 -1.6978  1.0933
 6323SOL    MW425060   3.614   3.842   3.465  0.2253 -0.1090  0.4703
 6324SOL     OW25061   5.900   3.883   1.976 -0.2987 -0.1758  0.6490
 6324SOL    HW225062   5.894   3.971   2.012  0.0318  1.1717 -2.2450
 6324SOL    HW325063   5.994   3.866   1.969 -0.2499  0.6834 -1.7315
 6324SOL    MW425064   5.911   3.892   1.980  0.6331  0.7675 -0.2972
 6325SOL     OW25065   3.316   4.185   0.918 -0.4885  0.0014 -0.3584
 6325SOL    HW225066   3.352   4.144   0.996 -0.9869 -1.2150 -0.7462
 6325SOL    HW325067   3.354   4.273   0.917  1.5879 -0.8448 -0.1695
 6325SOL    MW425068   3.326   4.191   0.928 -0.1859 -0.5615 -0.0852
 6326SOL     OW25069   1.857   0.565   1.281  0.0401  0.2059  0.2625
 6326SOL    HW225070   1.792   0.616   1.232 -0.3464 -0.4304  0.0873
 6326SOL    HW325071   1.871   0.614   1.361  1.5515  1.8866 -0.9529
 6326SOL    MW425072   1.850   0.578   1.285  0.2363 -0.5424 -0.1399
 6327SOL     OW25073   1.462   1.099   6.343 -0.0072  0.0577  0.2124
 6327SOL    HW225074   1.540   1.058   6.306  0.0420  2.1257 -2.2463
 6327SOL    HW325075   1.429   1.035   6.406  1.2418 -2.7516 -1.7888
 6327SOL    MW425076   1.468   1.085   6.346 -0.0113  0.6778  0.0340
 6328SOL     OW25077   4.278   6.114   3.249  0.5241 -0.3179 -0.4977
 6328SOL    HW225078   4.234   6.087   3.168 -1.0282  1.0643 -0.1673
 6328SOL    HW325079   4.277   6.210   3.246  2.0911 -0.2409  0.3205
 6328SOL    MW425080   4.272   6.124   3.238  0.2845 -0.0250 -0.9218
 6329SOL     OW25081   3.330   5.177   2.775 -0.7027  0.0465 -0.5825
 6329SOL    HW225082   3.393   5.247   2.757  0.1989 -1.0611 -1.9962
 6329SOL    HW325083   3.357   5.142   2.860 -0.8805  1.1013 -0.0816
 6329SOL    MW425084   3.342   5.181   2.783  0.0633  0.3052 -0.2230
 6330SOL     OW25085   2.535   4.760   4.644 -0.1020  0.2152  0.0344
 6330SOL    HW225086   2.596   4.728   4.710 -1.1130 -0.9055  0.4562
 6330SOL    HW325087   2.559   4.712   4.564 -0.7405 -0.6192  0.3293
 6330SOL    MW425088   2.547   4.750   4.642 -0.2044  0.7428 -0.0130
 6331SOL     OW25089   0.900   4.575   5.410 -0.0427  0.5696 -0.4303
 6331SOL    HW225090   0.951   4.497   5.390  2.2248  2.4051 -2.3722
 6331SOL    HW325091   0.813   4.557   5.375 -0.5690 -2.2159  1.9819
 6331SOL    MW425092   0.895   4.563   5.402  0.0964 -0.0944 -0.2787
 6332SOL     OW25093   1.890   0.834   0.595  0.8017  0.5799 -0.2769
 6332SOL    HW225094   1.909   0.764   0.533  3.2883  0.8916  0.0350
 6332SOL    HW325095   1.901   0.914   0.545 -1.1173  0.8335 -0.3873
 6332SOL    MW425096   1.894   0.835   0.580  0.1593  0.0531 -0.0810
 6333SOL     OW25097   2.612   2.889   0.540 -0.7687  0.5649 -0.3352
 6333SOL    HW225098   2.523   2.906   0.509 -0.1441 -1.3153 -3.5003
 6333SOL    HW325099   2.613   2.796   0.561  0.8552  0.1173 -2.1393
 6333SOL    MW425100   2.600   2.879   0.539  1.0452 -0.1552 -0.7828
 6334SOL     OW25101   3.630   0.366   3.434  0.0681 -0.2526  0.2818
 6334SOL    HW225102   3.614   0.361   3.339  0.9438  1.5704  0.0057
 6334SOL    HW325103   3.546   0.395   3.470 -0.4088 -1.3935  0.1536
 6334SOL    MW425104   3.616   0.369   3.426  0.3687 -0.6282  0.2389
 6335SOL     OW25105   4.913   1.127   0.114 -0.4022 -0.4975  0.4938
 6335SOL    HW225106   5.002   1.105   0.144 -0.6680  0.2785  1.9474
 6335SOL    HW325107   4.904   1.080   0.031  1.8630  0.4553 -0.3851
 6335SOL    MW425108   4.924   1.118   0.107  0.8648 -0.7227  0.6692
 6336SOL     OW25109   2.800   2.571   6.071 -0.4106  0.3428 -0.1485
 6336SOL    HW225110   2.773   2.559   6.161 -1.9803 -2.5540 -0.8916
 6336SOL    HW325111   2.859   2.498   6.053 -0.4078  0.6538 -1.5583
 6336SOL    MW425112   2.804   2.560   6.080 -0.0717 -0.3760 -0.2042
 6337SOL     OW25113   2.719   3.792   6.267 -0.5748 -0.2848  0.2149
 6337SOL    HW225114   2.776   3.814   6.193 -0.4255 -2.7115 -0.4960
 6337SOL    HW325115   2.647   3.742   6.227 -1.0385 -0.7754  1.6031
 6337SOL    MW425116   2.717   3.788   6.252 -0.0451 -0.2171  0.0674
 6338SOL     OW25117   5.146   1.773   4.515  0.1724 -0.0455  0.1992
 6338SOL    HW225118   5.132   1.679   4.528 -1.8760  0.2333  0.3975
 6338SOL    HW325119   5.180   1.781   4.426 -2.4380 -0.8249 -0.9550
 6338SOL    MW425120   5.149   1.761   4.505 -0.0157  0.1119 -0.6194
 6339SOL     OW25121   1.970   4.756   5.037 -0.3638  0.2729  0.0233
 6339SOL    HW225122   1.967   4.781   4.945 -2.6213  0.9193  0.2041
 6339SOL    HW325123   1.984   4.661   5.035  1.4430  0.5266 -0.8928
 6339SOL    MW425124   1.971   4.746   5.025 -0.9310  0.6946 -0.1840
 6340SOL     OW25125   2.241   1.521   0.199  0.9986 -0.3501  0.0676
 6340SOL    HW225126   2.282   1.438   0.224  0.8321 -0.9005 -1.4076
 6340SOL    HW325127   2.216   1.561   0.282  1.1757 -1.7281  0.8158
 6340SOL    MW425128   2.243   1.516   0.213 -0.2214 -0.1880 -0.1534
 6341SOL     OW25129   1.560   3.874   0.264 -0.8013 -0.3985  0.4607
 6341SOL    HW225130   1.629   3.893   0.327  0.6963 -0.5385 -1.0773
 6341SOL    HW325131   1.515   3.797   0.300 -0.4952 -0.0258  1.7081
 6341SOL    MW425132   1.563   3.866   0.277 -0.2800 -0.3033 -0.2194
 6342SOL     OW25133   3.569   0.708   4.132 -1.0014 -0.0028  0.5433
 6342SOL    HW225134   3.591   0.615   4.133  1.1253  0.4446 -0.0811
 6342SOL    HW325135   3.559   0.729   4.039 -2.7490  0.1690  0.7267
 6342SOL    MW425136   3.570   0.698   4.120  0.2277  0.4985 -0.3655
 6343SOL     OW25137   3.731   5.487   3.982 -0.3235  0.0165 -0.2725
 6343SOL    HW225138   3.795   5.549   3.946  1.0092 -0.6918  0.8036
 6343SOL    HW325139   3.688   5.535   4.053 -1.2169  0.5733 -1.1465
 6343SOL    MW425140   3.733   5.501   3.986 -0.1764 -0.0692 -0.7215
 6344SOL     OW25141   0.623   2.388   4.904  0.0783  0.1280  0.9129
 6344SOL    HW225142   0.697   2.371   4.963  1.0842 -1.2091 -0.6445
 6344SOL    HW325143   0.568   2.311   4.914  1.4077 -1.2347 -1.4753
 6344SOL    MW425144   0.626   2.376   4.913 -0.3077 -0.7210  0.2345
 6345SOL     OW25145   4.138   2.579   0.727 -0.3984 -0.9051  0.0557
 6345SOL    HW225146   4.069   2.516   0.704 -1.2058 -0.7857  1.9498
 6345SOL    HW325147   4.102   2.627   0.801  0.7735  0.8685 -0.4830
 6345SOL    MW425148   4.124   2.577   0.734  0.0763  0.3208  0.0874
 6346SOL     OW25149   5.340   0.152   4.496  0.3387 -0.0348  0.4284
 6346SOL    HW225150   5.369   0.229   4.544  0.2826 -0.3092  0.9114
 6346SOL    HW325151   5.260   0.180   4.451 -0.3971 -0.1571  1.6144
 6346SOL    MW425152   5.333   0.165   4.496 -0.2928 -0.5791 -0.0583
 6347SOL     OW25153   4.266   5.929   4.975 -0.9025  0.1427  0.0387
 6347SOL    HW225154   4.288   5.957   4.886 -0.2116  0.4274  0.2884
 6347SOL    HW325155   4.179   5.890   4.967 -0.3389 -0.9916 -0.9959
 6347SOL    MW425156   4.257   5.928   4.962 -0.2102  0.1233  0.2588
 6348SOL     OW25157   1.424   3.342   0.410  0.0274  0.6073  0.0151
 6348SOL    HW225158   1.346   3.317   0.360  0.4190  0.6014 -0.6003
 6348SOL    HW325159   1.427   3.437   0.404  0.6019  0.5444 -0.7805
 6348SOL    MW425160   1.414   3.351   0.403  0.4121  0.4718  0.7764
 6349SOL     OW25161   3.931   6.362   1.742  0.1711 -0.3968 -0.0260
 6349SOL    HW225162   4.001   6.403   1.793 -0.7313  0.6444  0.4203
 6349SOL    HW325163   3.932   6.270   1.768  0.7215 -0.1850  0.7082
 6349SOL    MW425164   3.940   6.356   1.752  0.0895 -0.2577 -0.8106
 6350SOL     OW25165   1.237   1.044   1.976  0.0595 -0.2573 -0.4763
 6350SOL    HW225166   1.213   1.097   1.900 -1.5524 -0.1615  0.0772
 6350SOL    HW325167   1.215   0.954   1.950 -0.6325 -0.2058 -0.0765
 6350SOL    MW425168   1.231   1.039   1.962 -0.6021  0.2416  0.5194
 6351SOL     OW25169   2.081   2.872   2.091  0.2837  0.2189 -0.3401
 6351SOL    HW225170   2.144   2.887   2.020 -0.0543 -2.8444 -1.4655
 6351SOL    HW325171   2.027   2.951   2.092  2.3976  1.7822 -1.1757
 6351SOL    MW425172   2.082   2.884   2.082  0.1150  0.0628  0.3000
 6352SOL     OW25173   0.114   2.376   4.793 -0.2158 -0.6129  0.4459
 6352SOL    HW225174   0.148   2.415   4.873  1.9200  2.1544 -1.6443
 6352SOL    HW325175   0.171   2.301   4.776  1.7404  0.9721 -0.3190
 6352SOL    MW425176   0.126   2.371   4.801 -0.2857  0.7515 -0.4027
 6353SOL     OW25177   3.986   4.815   1.379  0.1519 -0.2368 -0.1209
 6353SOL    HW225178   3.957   4.725   1.369 -2.6344  0.5746 -0.1287
 6353SOL    HW325179   4.051   4.812   1.449 -0.4077 -2.1460  0.3754
 6353SOL    MW425180   3.991   4.803   1.387  0.2168 -0.0766  0.0276
 6354SOL     OW25181   5.397   4.948   4.997 -0.2164  0.1058 -0.3133
 6354SOL    HW225182   5.303   4.943   4.986 -0.1542  0.1872 -0.9250
 6354SOL    HW325183   5.423   5.027   4.949  0.2783 -0.4807 -1.0474
 6354SOL    MW425184   5.388   4.958   4.989 -0.2634 -0.5149  0.2806
 6355SOL     OW25185   5.109   1.449   5.244 -0.0727  0.9258 -0.0932
 6355SOL    HW225186   5.159   1.529   5.226  0.7013  0.3123 -0.7467
 6355SOL    HW325187   5.042   1.447   5.175 -0.2906  1.1561  0.1059
 6355SOL    MW425188   5.107   1.459   5.232  0.0829 -0.1052 -0.8348
 6356SOL     OW25189   0.047   5.286   5.317 -0.0447  0.1396  0.9417
 6356SOL    HW225190   0.033   5.305   5.224  0.3621  1.2745  1.0919
 6356SOL    HW325191   0.021   5.195   5.327 -0.2033  0.0317 -0.2651
 6356SOL    MW425192   0.042   5.277   5.306  0.0618  0.2987  0.1994
 6357SOL     OW25193   5.813   4.593   5.375 -0.1364  0.2394 -0.4294
 6357SOL    HW225194   5.813   4.599   5.279 -1.9799  1.2576 -0.4147
 6357SOL    HW325195   5.725   4.564   5.397 -0.5619  2.4574  1.0489
 6357SOL    MW425196   5.802   4.590   5.365 -0.0927  0.4468 -0.2662
 6358SOL     OW25197   4.791   3.144   4.471 -0.2623  0.0179 -0.0886
 6358SOL    HW225198   4.852   3.140   4.397 -0.4534 -0.6689 -0.2187
 6358SOL    HW325199   4.842   3.111   4.545 -0.5681 -0.8823 -0.2686
 6358SOL    MW425200   4.806   3.139   4.471  0.8846 -0.0935  0.1668
 6359SOL     OW25201   0.751   0.786   3.382 -0.1538  0.4319 -0.0224
 6359SOL    HW225202   0.765   0.722   3.313 -1.3540  0.4052 -0.2493
 6359SOL    HW325203   0.663   0.819   3.368  1.0098  3.4958 -1.0187
 6359SOL    MW425204   0.742   0.782   3.371 -0.2257  0.2991  0.3085
 6360SOL     OW25205   0.269   1.012   0.670  0.0423  0.3968 -0.1225
 6360SOL    HW225206   0.199   1.058   0.717 -0.4981  0.3057 -0.8206
 6360SOL    HW325207   0.281   0.931   0.719 -0.2491  0.4765  0.0818
 6360SOL    MW425208   0.261   1.007   0.683 -0.3595 -0.6167  0.2510
 6361SOL     OW25209   3.527   1.763   5.366  0.1994 -0.2106  0.0602
 6361SOL    HW225210   3.507   1.743   5.457 -1.4190  0.4271 -0.1191
 6361SOL    HW325211   3.609   1.812   5.369 -1.0320  1.9138  1.4408
 6361SOL    MW425212   3.535   1.766   5.378 -0.5082  0.1026 -0.1041
 6362SOL     OW25213   5.033   4.230   0.302  0.2526  0.2312  0.5165
 6362SOL    HW225214   5.042   4.291   0.229 -4.5025  0.1853 -0.4225
 6362SOL    HW325215   5.005   4.284   0.376 -0.5636 -0.3490  0.6501
 6362SOL    MW425216   5.030   4.245   0.302 -0.5693 -0.6988 -0.2146
 6363SOL     OW25217   0.614   5.854   1.463 -0.5353  0.0724  0.2161
 6363SOL    HW225218   0.704   5.853   1.430  0.0641 -0.5157  1.7592
 6363SOL    HW325219   0.593   5.947   1.472  0.1185  0.2144  0.3253
 6363SOL    MW425220   0.623   5.866   1.460  0.1297 -0.1476 -0.4663
 6364SOL     OW25221   2.369   0.206   3.665 -0.8174 -0.5140 -0.1676
 6364SOL    HW225222   2.298   0.269   3.651 -0.9647  0.0206  2.4800
 6364SOL    HW325223   2.326   0.130   3.704  0.0129 -0.1409  1.5648
 6364SOL    MW425224   2.354   0.204   3.668  0.1548 -0.1849 -0.6884
 6365SOL     OW25225   2.087   2.759   4.229  0.7604  0.0806 -0.2854
 6365SOL    HW225226   2.128   2.843   4.249 -0.3619  0.8846 -1.1983
 6365SOL    HW325227   2.067   2.721   4.314  0.4279  1.1829  0.1380
 6365SOL    MW425228   2.090   2.765   4.243 -0.2246 -0.7821 -0.1132
 6366SOL     OW25229   3.693   2.877   5.543  0.5373  0.2828  0.0211
 6366SOL    HW225230   3.670   2.902   5.454  1.7252 -0.0459 -0.3911
 6366SOL    HW325231   3.691   2.781   5.542  3.1741  0.1646 -0.4224
 6366SOL    MW425232   3.689   2.868   5.531  0.0480 -0.4543 -0.0695
 6367SOL     OW25233   4.197   1.600   4.889  0.5497 -0.3149 -0.2391
 6367SOL    HW225234   4.253   1.590   4.966 -0.0883  1.3384  0.4776
 6367SOL    HW325235   4.203   1.693   4.866  0.7200 -0.7589 -2.2054
 6367SOL    MW425236   4.205   1.611   4.896  0.4147 -0.3921  0.3013
 6368SOL     OW25237   4.468   2.735   0.564  0.5324 -0.0252 -0.3740
 6368SOL    HW225238   4.381   2.707   0.538  0.2658 -0.9471  1.3538
 6368SOL    HW325239   4.522   2.657   0.554  1.0736  0.4119 -0.9760
 6368SOL    MW425240   4.464   2.721   0.559  0.5122 -0.0706  0.0765
 6369SOL     OW25241   3.385   2.754   4.068  0.1478  0.0261  0.6862
 6369SOL    HW225242   3.454   2.814   4.097  0.6597 -0.0410 -0.3471
 6369SOL    HW325243   3.376   2.692   4.141  1.9188 -0.5919  0.4440
 6369SOL    MW425244   3.393   2.754   4.082  0.1161 -0.1616 -0.1755
 6370SOL     OW25245   2.142  -0.001   2.241 -0.2059  0.5952 -0.3103
 6370SOL    HW225246   2.066  -0.038   2.285  0.4009 -0.5951 -0.2106
 6370SOL    HW325247   2.179   0.061   2.304  2.1037 -2.8554  2.0758
 6370SOL    MW425248   2.137   0.003   2.255 -0.4912  0.7989  0.0892
 6371SOL     OW25249   5.362   6.278   6.125  0.3366 -0.0749  0.0401
 6371SOL    HW225250   5.395   6.365   6.102 -1.0463  0.2250 -0.9558
 6371SOL    HW325251   5.270   6.293   6.149  0.3983 -1.1134  1.0072
 6371SOL    MW425252   5.354   6.292   6.125 -0.2682  0.1984 -0.1387
 6372SOL     OW25253   2.545   3.635   2.844 -0.1183  0.1646  0.5443
 6372SOL    HW225254   2.506   3.548   2.854  1.5911 -0.3932  3.5151
 6372SOL    HW325255   2.471   3.695   2.852 -0.9717 -0.9489  1.3166
 6372SOL    MW425256   2.530   3.632   2.846  0.6880 -0.9095  0.3247
 6373SOL     OW25257   1.623   6.332   5.983 -0.2709  0.3457  0.5312
 6373SOL    HW225258   1.576   6.318   6.066 -0.4323 -0.5981  0.2895
 6373SOL    HW325259   1.553   6.347   5.919 -0.2439 -0.8294  0.2141
 6373SOL    MW425260   1.607   6.332   5.985 -0.0352  0.1679 -0.1155
 6374SOL     OW25261   3.852   6.401   3.736 -0.5921 -0.4448 -0.2603
 6374SOL    HW225262   3.766   6.429   3.704 -0.9306  0.3665  1.2682
 6374SOL    HW325263   3.914   6.462   3.697 -0.5704 -1.5901 -2.1062
 6374SOL    MW425264   3.848   6.412   3.727  0.1314 -0.6097  0.0077
 6375SOL     OW25265   5.196   5.473   0.442  0.5195 -0.1741 -0.3399
 6375SOL    HW225266   5.125   5.450   0.382  0.6462  0.9482 -0.9468
 6375SOL    HW325267   5.261   5.516   0.387 -0.0019  2.2300  0.7596
 6375SOL    MW425268   5.195   5.476   0.427  0.0631 -0.2574 -0.2040
 6376SOL     OW25269   0.933   1.043   2.749 -0.1264  0.1326  0.1737
 6376SOL    HW225270   0.969   0.984   2.815  0.6652 -1.0867 -1.2609
 6376SOL    HW325271   0.960   1.004   2.666 -0.9316  1.6982 -0.8703
 6376SOL    MW425272   0.941   1.030   2.747  0.1899  0.3067  0.0394
 6377SOL     OW25273   2.655   1.627   2.577 -0.4640 -0.0331  0.0011
 6377SOL    HW225274   2.612   1.703   2.615 -0.4842 -0.3564  0.6289
 6377SOL    HW325275   2.600   1.552   2.601 -0.1481 -0.3158 -0.1358
 6377SOL    MW425276   2.642   1.627   2.585 -0.1838 -0.4644  0.0073
 6378SOL     OW25277   3.393   4.491   6.139  0.3080 -0.5116 -0.6090
 6378SOL    HW225278   3.484   4.500   6.109  0.2968  1.3654 -0.2034
 6378SOL    HW325279   3.342   4.482   6.059  0.8390 -1.5179 -0.8426
 6378SOL    MW425280   3.398   4.491   6.125  0.1913 -0.1671 -0.1864
 6379SOL     OW25281   4.987   2.953   2.633 -0.2263 -0.1343  0.2278
 6379SOL    HW225282   5.057   2.917   2.686 -1.2223 -1.0225  0.9799
 6379SOL    HW325283   4.991   2.903   2.551 -0.6629 -0.9632  0.6974
 6379SOL    MW425284   4.997   2.942   2.629  0.6853 -0.3108 -0.1978
 6380SOL     OW25285   2.261   0.099   3.154 -0.1307 -0.3152 -0.3644
 6380SOL    HW225286   2.274   0.168   3.220 -0.2518  0.4871 -1.1637
 6380SOL    HW325287   2.166   0.089   3.147 -0.1765  0.7742 -1.5885
 6380SOL    MW425288   2.250   0.107   3.162  0.3242  0.2638 -0.0092
 6381SOL     OW25289   4.652   4.052   2.528 -0.1485  0.0978  0.0138
 6381SOL    HW225290   4.682   3.974   2.482  0.0383 -0.0947  0.4508
 6381SOL    HW325291   4.640   4.118   2.460 -1.9080 -0.7780 -0.5896
 6381SOL    MW425292   4.654   4.050   2.513  0.4749 -0.0887  0.4978
 6382SOL     OW25293   1.498   4.379   5.047  0.2745 -0.7826 -0.2815
 6382SOL    HW225294   1.550   4.332   5.113  1.3099  0.5612 -0.0933
 6382SOL    HW325295   1.408   4.350   5.063  0.1028  1.0632  3.2602
 6382SOL    MW425296   1.493   4.369   5.058  0.6104 -0.5615  0.0313
 6383SOL     OW25297   1.462   5.901   5.863  0.4550  0.3187 -0.2076
 6383SOL    HW225298   1.414   5.953   5.799 -0.2060 -1.3920 -1.1556
 6383SOL    HW325299   1.397   5.882   5.931  1.6092  3.8001  2.2033
 6383SOL    MW425300   1.447   5.906   5.864  0.0087  0.2788  0.3928
 6384SOL     OW25301   4.909   5.956   0.667  0.1417 -0.0891  0.3980
 6384SOL    HW225302   4.882   6.001   0.586 -1.0416 -1.7568 -0.1955
 6384SOL    HW325303   4.830   5.912   0.697  1.3362 -2.2324  0.6035
 6384SOL    MW425304   4.895   5.956   0.660  0.2134 -0.6747 -0.3088
 6385SOL     OW25305   2.128   3.565   2.349 -0.7374  0.1425  0.2778
 6385SOL    HW225306   2.180   3.498   2.393 -1.7195 -0.2566  0.8513
 6385SOL    HW325307   2.192   3.631   2.322  0.5439 -1.8775 -1.9892
 6385SOL    MW425308   2.143   3.565   2.351 -0.0051 -0.5875 -0.0574
 6386SOL     OW25309   3.737   1.728   0.573 -0.4386 -0.1314  0.3337
 6386SOL    HW225310   3.739   1.679   0.491  1.5775  1.8679 -0.9310
 6386SOL    HW325311   3.789   1.676   0.634 -1.3440 -1.2766  0.1669
 6386SOL    MW425312   3.744   1.715   0.570 -0.5320  0.7208 -0.0775
 6387SOL     OW25313   5.997   6.193   0.552  0.0203 -0.2161  0.0600
 6387SOL    HW225314   5.978   6.186   0.459 -0.0029  0.5905 -0.0038
 6387SOL    HW325315   6.058   6.267   0.559 -1.7625  1.2702  0.8961
 6387SOL    MW425316   6.003   6.202   0.541  0.2395 -0.2195 -0.2835
 6388SOL     OW25317   2.669   0.005   1.053 -0.5969  0.1642  0.3202
 6388SOL    HW225318   2.574   0.010   1.042 -0.6196 -1.2037 -0.3233
 6388SOL    HW325319   2.687  -0.088   1.063  0.9163  0.0821 -2.2480
 6388SOL    MW425320   2.659  -0.006   1.053  0.0924  0.1289 -0.9083
 6389SOL     OW25321   6.060   0.281   5.295 -0.1526  0.3547  0.2317
 6389SOL    HW225322   5.980   0.258   5.248  0.3264 -0.5579 -0.1611
 6389SOL    HW325323   6.129   0.276   5.228  0.9117 -3.1747  1.3722
 6389SOL    MW425324   6.059   0.278   5.280  0.2684 -0.5097 -0.3662
 6390SOL     OW25325   6.350   5.839   0.309  0.6119 -0.6089  0.3154
 6390SOL    HW225326   6.334   5.762   0.363 -0.1077  0.2899  1.4177
 6390SOL    HW325327   6.304   5.821   0.227  0.1918 -1.2031  0.6739
 6390SOL    MW425328   6.342   5.826   0.305 -0.9454  0.4526 -0.2440
 6391SOL     OW25329   3.024   3.988   1.713  0.1377  0.0494 -0.5663
 6391SOL    HW225330   3.019   3.934   1.634  1.1302 -0.7131 -0.1283
 6391SOL    HW325331   2.934   3.995   1.743 -0.2978  0.6083 -1.9230
 6391SOL    MW425332   3.012   3.982   1.706  0.3262  0.1670 -0.0802
 6392SOL     OW25333   5.183   4.648   3.196 -0.0374 -0.1945 -0.0380
 6392SOL    HW225334   5.100   4.695   3.192  0.5832  0.8746 -2.5256
 6392SOL    HW325335   5.159   4.556   3.188 -0.9817  0.2187 -4.1636
 6392SOL    MW425336   5.169   4.642   3.194  0.1176  0.1607  0.3413
 6393SOL     OW25337   4.451   0.995   5.646  0.5027  0.6374 -0.0500
 6393SOL    HW225338   4.541   1.015   5.621  0.3857  1.1834 -0.0490
 6393SOL    HW325339   4.458   0.916   5.700  0.7013 -0.9866 -2.2818
 6393SOL    MW425340   4.464   0.987   5.650 -0.2197 -0.6585 -0.0230
 6394SOL     OW25341   4.821   5.364   4.558 -0.4889  0.3421 -0.4485
 6394SOL    HW225342   4.811   5.282   4.606  0.6569  0.1997 -0.4132
 6394SOL    HW325343   4.742   5.371   4.505  0.4269 -2.0338 -2.2990
 6394SOL    MW425344   4.809   5.355   4.557 -0.3083  0.3226 -0.0306
 6395SOL     OW25345   4.840   0.333   3.796 -0.4880 -0.2080  0.3674
 6395SOL    HW225346   4.770   0.398   3.799  0.2201  0.5603  1.2653
 6395SOL    HW325347   4.907   0.373   3.740  0.6275  0.6082  2.1855
 6395SOL    MW425348   4.840   0.347   3.789  0.5013  0.3173 -0.2734
 6396SOL     OW25349   5.969   2.797   4.511 -0.5761  1.4092 -0.0163
 6396SOL    HW225350   6.016   2.786   4.428 -0.6354 -1.6728  0.2358
 6396SOL    HW325351   5.877   2.810   4.485 -0.3284  2.4850 -0.4175
 6396SOL    MW425352   5.963   2.797   4.496 -0.5205  0.0581 -0.0214
 6397SOL     OW25353   3.815   0.993   1.361 -0.2007 -0.2980 -0.0041
 6397SOL    HW225354   3.767   0.977   1.280 -0.5089  2.8148 -0.5409
 6397SOL    HW325355   3.881   1.058   1.338  1.4156 -1.1981  1.7284
 6397SOL    MW425356   3.818   0.999   1.347  0.0447  0.7637  0.9120
 6398SOL     OW25357   0.562   5.731   3.309  0.1161  0.2489 -0.3042
 6398SOL    HW225358   0.616   5.701   3.382  0.9957 -0.7304 -1.3119
 6398SOL    HW325359   0.479   5.685   3.321  0.7519 -1.0668 -0.6923
 6398SOL    MW425360   0.558   5.721   3.320 -0.4252 -0.3766  0.6147
 6399SOL     OW25361   1.295   0.322   5.694 -0.0064 -0.4613  0.1763
 6399SOL    HW225362   1.249   0.406   5.685  0.4870 -0.0588  1.3089
 6399SOL    HW325363   1.228   0.261   5.722  0.2671  0.3316  2.7747
 6399SOL    MW425364   1.280   0.325   5.696 -0.4188 -0.1305 -0.3132
 6400SOL     OW25365   4.766   1.037   0.332  0.1590 -0.3668  0.3660
 6400SOL    HW225366   4.795   1.081   0.251  0.7083  0.6167  1.0665
 6400SOL    HW325367   4.802   1.092   0.402 -0.7670 -0.9057  1.2789
 6400SOL    MW425368   4.775   1.050   0.330  0.6024  0.0383 -0.1962
 6401SOL     OW25369   0.139   5.340   2.365 -0.4435  0.2937 -0.1395
 6401SOL    HW225370   0.222   5.302   2.392 -0.1896  1.3934  0.7200
 6401SOL    HW325371   0.080   5.265   2.355  0.4850 -0.4433 -0.1625
 6401SOL    MW425372   0.142   5.325   2.367  0.1921 -0.1927  0.2600
 6402SOL     OW25373   6.020   5.882   4.701  0.1985 -0.4301 -0.1182
 6402SOL    HW225374   5.960   5.919   4.765  0.4272 -0.2203 -0.0231
 6402SOL    HW325375   6.105   5.920   4.722  0.3589 -0.6905 -0.2784
 6402SOL    MW425376   6.023   5.892   4.712  0.2662  0.8062  0.1249
 6403SOL     OW25377   0.244   5.391   0.366  0.3412  0.8146 -0.5908
 6403SOL    HW225378   0.317   5.348   0.321  0.5965  0.7200 -0.0925
 6403SOL    HW325379   0.281   5.423   0.448 -0.2242  0.5898 -0.2369
 6403SOL    MW425380   0.258   5.389   0.371 -0.0603  0.4334  0.1788
 6404SOL     OW25381   5.702   1.092   2.207  0.3946 -0.1063  0.1425
 6404SOL    HW225382   5.728   1.028   2.273 -0.0158  0.0643  0.4783
 6404SOL    HW325383   5.671   1.167   2.258 -0.3414 -0.1406 -0.2400
 6404SOL    MW425384   5.702   1.093   2.223 -0.2258  0.6673 -0.2490
 6405SOL     OW25385   5.603   6.289   2.108 -0.4579  0.1378 -0.2967
 6405SOL    HW225386   5.559   6.204   2.107  0.6228 -0.4569 -2.2967
 6405SOL    HW325387   5.532   6.353   2.115 -1.2143 -0.8749  3.0147
 6405SOL    MW425388   5.588   6.287   2.109  0.2970 -0.3163 -0.3953
 6406SOL     OW25389   5.862   5.880   4.466 -0.7683 -0.5903 -0.0845
 6406SOL    HW225390   5.888   5.919   4.549  1.0862 -0.1584 -0.8094
 6406SOL    HW325391   5.797   5.940   4.431 -0.6048 -0.0729  0.4753
 6406SOL    MW425392   5.857   5.893   4.472 -0.6305  0.2387 -0.2290
 6407SOL     OW25393   1.203   6.058   5.748  0.3984  0.0135 -0.1226
 6407SOL    HW225394   1.181   5.976   5.706 -0.7451  0.7634 -1.0548
 6407SOL    HW325395   1.169   6.125   5.689  3.3161  1.2580 -0.5938
 6407SOL    MW425396   1.196   6.056   5.735 -0.3232  0.1353  0.2555
 6408SOL     OW25397   2.206   4.272   3.627 -0.3795  0.0793  0.2744
 6408SOL    HW225398   2.164   4.186   3.626  0.4157 -0.3316  0.8840
 6408SOL    HW325399   2.208   4.296   3.720  0.4096  0.2427  0.2202
 6408SOL    MW425400   2.201   4.264   3.639  0.3357  0.0325 -0.0736
 6409SOL     OW25401   0.678   3.288   3.993  0.1879 -0.0445 -0.0804
 6409SOL    HW225402   0.754   3.289   4.051  0.7082  0.4524 -0.7577
 6409SOL    HW325403   0.657   3.195   3.983  0.9694 -0.2200 -0.2090
 6409SOL    MW425404   0.685   3.276   3.999  0.5689  0.3101 -0.3302
 6410SOL     OW25405   2.503   0.959   0.350 -0.0105 -0.2668  0.4081
 6410SOL    HW225406   2.526   0.981   0.440 -0.3287  0.6311  0.2830
 6410SOL    HW325407   2.571   1.001   0.297 -0.2869 -0.0854  0.1945
 6410SOL    MW425408   2.515   0.968   0.355  0.2617  0.1900  0.6898
 6411SOL     OW25409   5.004   4.756   6.385  0.2976  0.1540  0.1515
 6411SOL    HW225410   4.975   4.844   6.363  0.3852  0.1435  0.0006
 6411SOL    HW325411   4.999   4.753   6.481 -3.0842 -0.7807  0.0905
 6411SOL    MW425412   4.999   4.767   6.395  0.2492 -0.5911  0.2274
 6412SOL     OW25413   4.786   1.449   2.926 -0.2585  0.0246 -0.1598
 6412SOL    HW225414   4.764   1.367   2.968 -0.8978  0.5416  0.5474
 6412SOL    HW325415   4.735   1.515   2.973 -1.8491  0.5277 -2.3786
 6412SOL    MW425416   4.777   1.447   2.937 -0.1542  0.0222 -0.6972
 6413SOL     OW25417   3.971   4.283   5.643 -0.0860  0.2067 -0.0935
 6413SOL    HW225418   3.932   4.266   5.728 -0.7939  1.3076 -0.1777
 6413SOL    HW325419   3.910   4.243   5.580 -0.4401  0.8517 -0.1635
 6413SOL    MW425420   3.958   4.275   5.646  0.0499 -0.4932  0.5352
 6414SOL     OW25421   3.297   0.708   6.409  0.4624 -0.1813  0.2772
 6414SOL    HW225422   3.232   0.751   6.464  1.1477  2.3650 -0.7651
 6414SOL    HW325423   3.377   0.709   6.462  0.7515  0.8949 -0.1610
 6414SOL    MW425424   3.299   0.713   6.423 -0.2899 -0.2627  0.0677
 6415SOL     OW25425   3.414   3.526   3.180  0.2707  0.5418 -0.4898
 6415SOL    HW225426   3.412   3.622   3.175  1.4424  0.5821 -0.3937
 6415SOL    HW325427   3.426   3.507   3.273  1.7922  0.3644 -0.6953
 6415SOL    MW425428   3.415   3.537   3.191 -0.4215 -0.0705  0.6290
 6416SOL     OW25429   0.327   4.810   5.071 -0.1344  0.3230  0.1299
 6416SOL    HW225430   0.324   4.767   4.985  0.8858  0.4051  0.0486
 6416SOL    HW325431   0.244   4.784   5.112 -0.2025 -0.5196 -0.4936
 6416SOL    MW425432   0.315   4.801   5.065 -0.3135  0.7505  0.9008
 6417SOL     OW25433   1.827   0.255   4.470  0.1521 -0.0151 -0.7842
 6417SOL    HW225434   1.920   0.249   4.495 -0.1548 -2.8291  0.0269
 6417SOL    HW325435   1.829   0.288   4.380  2.0572 -1.2334 -1.2612
 6417SOL    MW425436   1.840   0.259   4.462 -0.7264  0.0542 -0.2813
 6418SOL     OW25437   4.261   3.202   2.439  0.1361  0.2354  0.0094
 6418SOL    HW225438   4.179   3.170   2.476  1.9966 -1.0931  3.4272
 6418SOL    HW325439   4.264   3.164   2.351 -1.2840 -2.7357  1.0988
 6418SOL    MW425440   4.251   3.193   2.432  0.6494 -0.6792 -0.6656
 6419SOL     OW25441   5.634   4.379   2.405 -0.6428 -0.1353 -0.4303
 6419SOL    HW225442   5.717   4.338   2.379 -0.5138 -0.2290  0.1039
 6419SOL    HW325443   5.590   4.312   2.458  0.0049  0.7174  1.2778
 6419SOL    MW425444   5.639   4.365   2.409 -0.0388 -0.0394  0.4650
 6420SOL     OW25445   5.444   6.001   3.225  0.5689  0.3129  0.3934
 6420SOL    HW225446   5.441   5.976   3.317 -0.6958 -1.1849 -0.0204
 6420SOL    HW325447   5.434   6.096   3.226  0.9227  0.3621  1.8007
 6420SOL    MW425448   5.442   6.010   3.237 -0.2422  0.3643 -0.3325
 6421SOL     OW25449   5.543   0.935   1.281 -0.0052 -0.1446  0.1057
 6421SOL    HW225450   5.480   0.870   1.312 -0.6578  0.0132 -0.8458
 6421SOL    HW325451   5.628   0.902   1.311 -0.5945  0.1126  2.2172
 6421SOL    MW425452   5.546   0.922   1.289 -0.2405  0.9812 -0.2236
 6422SOL     OW25453   6.380   4.171   0.416  0.3739  0.8930  0.2868
 6422SOL    HW225454   6.294   4.132   0.433  0.7054  0.0288  0.0465
 6422SOL    HW325455   6.410   4.129   0.336  1.3190  0.6703  0.7451
 6422SOL    MW425456   6.373   4.160   0.408  0.0661 -0.4004 -0.1145
 6423SOL     OW25457   1.385   6.202   4.190 -0.4576  0.0407  0.1920
 6423SOL    HW225458   1.339   6.234   4.268 -0.7382 -1.0024  0.4806
 6423SOL    HW325459   1.346   6.116   4.174 -0.0396  0.0258 -0.8007
 6423SOL    MW425460   1.373   6.195   4.198  0.1510 -0.6375  0.4296
 6424SOL     OW25461   0.537   0.993   5.809  0.0870 -0.3607  0.3760
 6424SOL    HW225462   0.557   0.987   5.902  0.7831 -1.2573  0.1829
 6424SOL    HW325463   0.551   0.904   5.776  0.4637  0.0892 -0.7045
 6424SOL    MW425464   0.541   0.980   5.817  0.4917  0.1800  0.3456
 6425SOL     OW25465   0.020   1.686   4.691  0.2594 -0.0336 -0.0820
 6425SOL    HW225466   0.087   1.665   4.626  0.1446 -1.0331  0.1032
 6425SOL    HW325467   0.007   1.604   4.739  0.5926  0.7803  1.4466
 6425SOL    MW425468   0.027   1.672   4.689  0.3554  0.3899  0.1454
 6426SOL     OW25469   1.194   5.975   2.376 -0.3380 -0.5917  0.2256
 6426SOL    HW225470   1.146   5.902   2.338 -0.7761 -0.1454 -0.0982
 6426SOL    HW325471   1.178   5.968   2.470 -1.2836 -0.2923  0.0999
 6426SOL    MW425472   1.186   5.964   2.384  0.1100  0.1980 -0.3863
 6427SOL     OW25473   2.876   1.725   5.101 -0.3273  0.0304  0.1350
 6427SOL    HW225474   2.953   1.698   5.151 -0.6141 -1.2926 -0.1009
 6427SOL    HW325475   2.849   1.808   5.142 -0.0563 -0.5828  1.6274
 6427SOL    MW425476   2.882   1.732   5.113 -0.1393 -0.0005 -0.3071
 6428SOL     OW25477   0.505   2.054   4.420  0.4168 -0.2968 -0.5320
 6428SOL    HW225478   0.601   2.045   4.422  0.4964  0.6433  0.6861
 6428SOL    HW325479   0.489   2.146   4.442 -0.8474 -1.0167  1.8647
 6428SOL    MW425480   0.516   2.065   4.423 -0.1643 -0.1036 -0.4363
 6429SOL     OW25481   2.635   0.925   4.189  0.2282  0.0443 -0.0669
 6429SOL    HW225482   2.694   0.998   4.171 -1.0337  1.7079  2.1186
 6429SOL    HW325483   2.563   0.937   4.127 -0.6461  1.5568  1.1622
 6429SOL    MW425484   2.633   0.936   4.178 -0.2424 -0.2613  0.0082
 6430SOL     OW25485   5.971   1.427   3.344 -0.3825  0.2504  0.7043
 6430SOL    HW225486   6.021   1.508   3.348 -0.9232  0.5357  1.8489
 6430SOL    HW325487   5.968   1.395   3.434 -1.5915 -0.1667  0.5384
 6430SOL    MW425488   5.977   1.433   3.356  0.0625 -0.5239 -0.0689
 6431SOL     OW25489   5.606   5.422   2.598 -0.7675  0.0173 -0.3508
 6431SOL    HW225490   5.546   5.444   2.669 -0.2659 -2.7811  1.0639
 6431SOL    HW325491   5.686   5.472   2.617 -1.2887  0.7564 -0.0689
 6431SOL    MW425492   5.609   5.432   2.610 -0.4508  0.2018  0.4458
 6432SOL     OW25493   4.529   0.879   3.765 -0.4102 -0.8849 -0.5199
 6432SOL    HW225494   4.526   0.973   3.751  0.8350 -0.7223  0.0919
 6432SOL    HW325495   4.584   0.868   3.843  0.2308 -2.1512 -1.1142
 6432SOL    MW425496   4.536   0.890   3.773 -0.0694 -0.0769  0.0917
 6433SOL     OW25497   2.629   4.818   4.100  0.4896 -0.1515  0.0086
 6433SOL    HW225498   2.562   4.875   4.063  0.2268 -0.4063  0.0922
 6433SOL    HW325499   2.629   4.740   4.044  0.0054 -0.5929  0.6083
 6433SOL    MW425500   2.620   4.815   4.088  0.3672 -0.4605 -0.3229
 6434SOL     OW25501   4.930   6.091   4.621  0.5647 -0.0462  0.2782
 6434SOL    HW225502   4.967   6.163   4.569  0.0519  0.5035  0.6498
 6434SOL    HW325503   4.946   6.013   4.568  0.6374  0.4138 -0.4029
 6434SOL    MW425504   4.937   6.090   4.607 -0.1945  0.1856  0.5766
 6435SOL     OW25505   0.185   4.511   5.909 -0.3049 -0.7377  0.0169
 6435SOL    HW225506   0.157   4.584   5.854  0.2765  0.0835  0.7743
 6435SOL    HW325507   0.280   4.521   5.915 -0.2378 -1.4563  0.2761
 6435SOL    MW425508   0.194   4.522   5.903  0.2793  0.0346 -0.1406
 6436SOL     OW25509   5.836   5.493   1.772 -0.5401  0.0319  0.3214
 6436SOL    HW225510   5.923   5.521   1.801 -0.2632 -1.1129  0.6317
 6436SOL    HW325511   5.814   5.553   1.701 -0.2616  1.4489  1.3857
 6436SOL    MW425512   5.844   5.505   1.767  0.3067 -0.6313 -0.1531
 6437SOL     OW25513   3.220   5.833   4.513  0.0597 -0.1170  0.2305
 6437SOL    HW225514   3.270   5.799   4.588 -0.6285 -0.2357  0.6453
 6437SOL    HW325515   3.259   5.919   4.495  0.5276 -0.2838  0.4354
 6437SOL    MW425516   3.232   5.840   4.521 -0.2375 -0.1957  0.6488
 6438SOL     OW25517   4.456   6.026   2.010 -0.6614 -0.0682  0.0450
 6438SOL    HW225518   4.547   5.997   2.004 -0.3339  0.9983 -0.2872
 6438SOL    HW325519   4.460   6.122   2.010 -1.6639  0.0338  1.6893
 6438SOL    MW425520   4.468   6.035   2.009 -0.0895 -0.3228 -0.4538
 6439SOL     OW25521   0.630   5.406   2.855  0.4882 -0.0642 -0.0333
 6439SOL    HW225522   0.628   5.337   2.921  1.4878  0.9783  1.1489
 6439SOL    HW325523   0.638   5.487   2.906 -0.4005  0.9162 -1.3805
 6439SOL    MW425524   0.630   5.408   2.871  0.0535 -0.0709  0.5011
 6440SOL     OW25525   5.377   5.596   3.045  0.1456  0.0978  0.0012
 6440SOL    HW225526   5.286   5.582   3.073  0.4374 -1.0756  0.3961
 6440SOL    HW325527   5.378   5.687   3.014 -1.1333  0.1677  0.0952
 6440SOL    MW425528   5.365   5.606   3.045 -0.0070 -0.1969  0.9273
 6441SOL     OW25529   4.853   1.691   5.235 -0.1378  0.0283  0.0359
 6441SOL    HW225530   4.916   1.727   5.297  1.1983 -2.2473  0.1026
 6441SOL    HW325531   4.885   1.721   5.149  0.9262 -0.8696  0.0930
 6441SOL    MW425532   4.866   1.700   5.232  0.3499 -0.3867  0.1579
 6442SOL     OW25533   0.376   3.868   1.744  0.1861 -0.1561  0.3678
 6442SOL    HW225534   0.389   3.775   1.765  0.7534 -0.2655 -0.4033
 6442SOL    HW325535   0.455   3.893   1.696 -0.6109  0.3178 -0.7635
 6442SOL    MW425536   0.388   3.859   1.740 -0.2483  0.4568 -0.1262
 6443SOL     OW25537   1.692   0.600   4.097  0.1424  0.5988 -0.3952
 6443SOL    HW225538   1.622   0.586   4.161  0.3868 -0.3458 -0.3205
 6443SOL    HW325539   1.681   0.530   4.033  0.0054  1.4356 -1.3060
 6443SOL    MW425540   1.681   0.589   4.097 -0.1524  0.4204 -0.3297
 6444SOL     OW25541   5.502   3.205   3.797  0.3378  0.3771 -0.3239
 6444SOL    HW225542   5.517   3.296   3.771 -0.0354  0.2470 -1.0388
 6444SOL    HW325543   5.442   3.171   3.730 -1.2746  0.2249  1.1336
 6444SOL    MW425544   5.496   3.212   3.785 -0.9202 -0.1094  0.1504
 6445SOL     OW25545   3.013   2.377   5.970  0.4821  0.0810  0.4773
 6445SOL    HW225546   2.952   2.335   5.910  0.2606  0.8752  0.1379
 6445SOL    HW325547   3.037   2.308   6.032  0.3883 -0.6371 -0.2667
 6445SOL    MW425548   3.008   2.362   5.971  0.2997 -0.4151 -0.5971
 6446SOL     OW25549   0.265   6.097   5.223  0.0369 -0.5071 -0.1033
 6446SOL    HW225550   0.346   6.071   5.266 -0.1496  0.2281  0.7032
 6446SOL    HW325551   0.209   6.019   5.227  0.1129 -0.5236  0.7720
 6446SOL    MW425552   0.268   6.083   5.229  0.4549  0.2818 -0.5213
 6447SOL     OW25553   0.150   1.028   5.527 -0.4311 -0.1458 -0.0382
 6447SOL    HW225554   0.125   0.937   5.510 -2.0859  0.0092  1.2330
 6447SOL    HW325555   0.191   1.026   5.613  0.2739  0.2060 -0.3621
 6447SOL    MW425556   0.152   1.016   5.536  0.1470  0.2011  0.1163
 6448SOL     OW25557   4.798   4.934   3.025 -0.4096 -0.0676 -0.0031
 6448SOL    HW225558   4.718   4.883   3.029  0.5309 -1.6601 -0.6644
 6448SOL    HW325559   4.802   4.981   3.109 -1.6671 -0.4967  0.3058
 6448SOL    MW425560   4.788   4.934   3.037 -0.6261 -0.0774  0.0428
 6449SOL     OW25561   3.080   5.801   4.801 -0.8160 -0.5672 -0.5130
 6449SOL    HW225562   3.127   5.877   4.836 -1.2458  0.1610 -1.4596
 6449SOL    HW325563   3.149   5.741   4.773 -0.3322  0.9042 -2.8055
 6449SOL    MW425564   3.095   5.803   4.802 -0.3227  0.4363  0.4352
 6450SOL     OW25565   1.397   5.200   6.087 -0.5694  0.2108 -0.0921
 6450SOL    HW225566   1.349   5.117   6.090 -0.1205 -0.0519 -0.1783
 6450SOL    HW325567   1.339   5.259   6.039 -0.1574 -0.5385 -1.5640
 6450SOL    MW425568   1.383   5.197   6.081  0.4639  0.1326 -0.6654
 6451SOL     OW25569   5.681   1.838   4.288  0.1162 -0.2388 -0.0580
 6451SOL    HW225570   5.694   1.928   4.316 -1.7097 -0.1328  0.5971
 6451SOL    HW325571   5.691   1.840   4.193  2.2952  0.1992  0.1401
 6451SOL    MW425572   5.684   1.850   4.279 -0.2919 -0.6149 -0.1938
 6452SOL     OW25573   2.900   2.004   4.052  0.3755 -0.1337 -0.3724
 6452SOL    HW225574   2.840   2.052   3.996 -0.7684 -1.7205 -0.5526
 6452SOL    HW325575   2.851   1.927   4.081  1.2179  0.1484  2.0916
 6452SOL    MW425576   2.886   2.000   4.049 -0.3767 -0.1382  0.5678
 6453SOL     OW25577   3.394   1.407   3.117 -0.4625  0.4817 -0.1960
 6453SOL    HW225578   3.385   1.393   3.211 -1.1464  0.5202 -0.2435
 6453SOL    HW325579   3.342   1.336   3.077 -1.1049  1.1076 -0.5087
 6453SOL    MW425580   3.386   1.396   3.124  0.3871  0.9270  0.5675
 6454SOL     OW25581   2.673   3.105   1.141  0.5195  0.3452 -0.3351
 6454SOL    HW225582   2.677   3.201   1.135 -1.2922  0.5897  1.2514
 6454SOL    HW325583   2.589   3.087   1.183  1.2433 -1.9121  0.3028
 6454SOL    MW425584   2.663   3.115   1.146  0.7474  0.3892 -0.0841
 6455SOL     OW25585   3.799   3.637   1.400  0.5116  0.1595  0.3423
 6455SOL    HW225586   3.811   3.727   1.431 -0.6045 -0.3684  2.4765
 6455SOL    HW325587   3.714   3.638   1.355  0.6399  0.2224  0.0976
 6455SOL    MW425588   3.789   3.649   1.398  0.1778  0.0523  0.1974
 6456SOL     OW25589   3.970   2.885   5.454  0.4649 -0.0360  0.3921
 6456SOL    HW225590   4.041   2.842   5.501  1.0263  1.4658  0.9826
 6456SOL    HW325591   3.896   2.885   5.515  0.4360 -0.2430  0.3566
 6456SOL    MW425592   3.969   2.879   5.468  0.5736 -0.0377  0.0074
 6457SOL     OW25593   3.491   3.760   2.963  0.1882 -0.1541 -0.5065
 6457SOL    HW225594   3.545   3.686   2.935  0.4141 -0.0759 -0.2767
 6457SOL    HW325595   3.472   3.807   2.882 -0.6108 -0.8921 -0.7654
 6457SOL    MW425596   3.496   3.756   2.948 -0.6873 -0.2348  0.8050
 6458SOL     OW25597   1.418   3.054   6.393 -0.2991 -0.4623 -0.5593
 6458SOL    HW225598   1.498   3.105   6.404 -0.5712 -0.2039  0.3133
 6458SOL    HW325599   1.383   3.082   6.309  0.5612 -0.6301 -0.9803
 6458SOL    MW425600   1.424   3.065   6.384  0.0348 -0.4558 -0.0164
 6459SOL     OW25601   2.857   1.995   0.128 -0.3668  0.1901 -0.0484
 6459SOL    HW225602   2.884   1.997   0.220  0.9303 -0.5637 -0.3884
 6459SOL    HW325603   2.928   1.949   0.083 -0.6571  1.1201 -1.5426
 6459SOL    MW425604   2.870   1.989   0.134  0.1674 -0.3577 -0.2646
 6460SOL     OW25605   0.768   6.260   4.767  0.2042  0.5528 -0.3026
 6460SOL    HW225606   0.733   6.338   4.809 -0.8230 -0.2270  0.3262
 6460SOL    HW325607   0.794   6.289   4.679  0.1771  1.6654  0.0414
 6460SOL    MW425608   0.767   6.274   4.761 -0.1465  0.2663 -0.4126
 6461SOL     OW25609   2.420   4.403   0.844 -0.2906  0.3692  0.2694
 6461SOL    HW225610   2.505   4.392   0.802  0.6953  0.1771  2.1909
 6461SOL    HW325611   2.424   4.489   0.886 -1.0445  0.3631  0.3809
 6461SOL    MW425612   2.432   4.413   0.844 -0.1519 -0.3096 -0.4422
 6462SOL     OW25613   0.534   5.202   3.563  0.4283 -0.2005  0.5497
 6462SOL    HW225614   0.460   5.252   3.598  0.4411  0.6071 -0.5005
 6462SOL    HW325615   0.495   5.146   3.496  0.6807 -0.1924  0.3929
 6462SOL    MW425616   0.519   5.201   3.559 -0.0181 -0.5425 -0.6137
 6463SOL     OW25617   3.917   2.162   3.728 -0.2035 -0.1775 -0.1536
 6463SOL    HW225618   3.830   2.187   3.698 -0.2797  0.9482  0.9442
 6463SOL    HW325619   3.902   2.101   3.801 -0.0747  0.2105  0.1975
 6463SOL    MW425620   3.904   2.157   3.733  0.0030 -0.6128 -0.1431
 6464SOL     OW25621   3.109   1.004   1.214 -0.1139 -0.5483 -0.2281
 6464SOL    HW225622   3.055   0.956   1.277 -1.8523  1.8609  0.2898
 6464SOL    HW325623   3.091   0.962   1.130 -0.9907 -1.2674  0.3061
 6464SOL    MW425624   3.099   0.992   1.211 -0.6471 -0.0062  0.4329
 6465SOL     OW25625   4.359   1.651   2.350 -0.0190  0.1077 -0.5586
 6465SOL    HW225626   4.414   1.622   2.422  0.2042  0.4820 -0.5736
 6465SOL    HW325627   4.341   1.572   2.299  1.8237  0.2380 -1.4607
 6465SOL    MW425628   4.364   1.637   2.353  0.6438  0.2984 -0.3563
 6466SOL     OW25629   1.795   0.006   1.316 -0.0535 -0.2309 -0.7224
 6466SOL    HW225630   1.757   0.017   1.229  0.7151  1.1002 -0.9152
 6466SOL    HW325631   1.773  -0.084   1.341 -0.1143 -0.7036 -2.3736
 6466SOL    MW425632   1.787  -0.004   1.308 -0.1285 -0.1091 -0.0501
 6467SOL     OW25633   2.858   0.066   3.152 -0.1611 -0.0148 -0.6541
 6467SOL    HW225634   2.794  -0.002   3.132 -0.7228 -0.2028  1.5271
 6467SOL    HW325635   2.887   0.046   3.241  0.6384  1.8520 -0.4575
 6467SOL    MW425636   2.854   0.054   3.161 -1.0369  0.4946  0.0729
 6468SOL     OW25637   0.496   3.111   1.206  0.1539 -0.0496 -0.5484
 6468SOL    HW225638   0.577   3.063   1.228  0.9568  1.4495 -0.0962
 6468SOL    HW325639   0.511   3.144   1.118  0.1691  0.5045 -0.3388
 6468SOL    MW425640   0.509   3.109   1.197 -0.2773  0.6026 -0.5126
 6469SOL     OW25641   4.609   0.660   3.085  0.6554  0.2035  0.5540
 6469SOL    HW225642   4.571   0.608   3.156  0.8684 -0.3144  0.2910
 6469SOL    HW325643   4.642   0.596   3.023  1.4938  0.6397  0.5228
 6469SOL    MW425644   4.609   0.645   3.086  0.2317 -0.6800  0.2698
 6470SOL     OW25645   3.332   2.999   4.327  0.0982  0.4631 -0.2998
 6470SOL    HW225646   3.415   2.967   4.293 -0.8757  0.1351 -2.5320
 6470SOL    HW325647   3.307   3.070   4.268 -2.2368 -0.8917 -1.0747
 6470SOL    MW425648   3.339   3.005   4.315 -0.1704 -0.0413 -0.4661
 6471SOL     OW25649   4.149   4.162   1.291  0.0426 -0.0101  0.3029
 6471SOL    HW225650   4.131   4.075   1.255 -1.0463 -0.1684  1.1599
 6471SOL    HW325651   4.187   4.211   1.218 -2.8478 -0.0517 -1.4104
 6471SOL    MW425652   4.152   4.157   1.276 -0.0294  0.4207  0.1576
 6472SOL     OW25653   1.966   1.689   4.442  0.0849  0.4306 -0.2475
 6472SOL    HW225654   2.014   1.647   4.370 -0.4455 -0.7331  0.0572
 6472SOL    HW325655   1.990   1.638   4.520 -1.1695  0.1831  0.0011
 6472SOL    MW425656   1.976   1.677   4.443 -0.1409  0.1357 -0.1186
 6473SOL     OW25657   5.705   0.561   4.996 -0.5444  0.3531  0.1641
 6473SOL    HW225658   5.706   0.556   5.092 -2.8944  0.3763  0.2470
 6473SOL    HW325659   5.650   0.487   4.969  0.4623  0.0703 -1.2141
 6473SOL    MW425660   5.698   0.551   5.005  0.1560  0.1063  0.2289
 6474SOL     OW25661   3.550   0.538   4.863  0.2309 -0.1673 -0.2570
 6474SOL    HW225662   3.458   0.559   4.879  1.0635  2.7027  1.3796
 6474SOL    HW325663   3.579   0.492   4.941  0.0468 -1.8570 -1.1320
 6474SOL    MW425664   3.542   0.535   4.875  0.6412  0.1238  0.0728
 6475SOL     OW25665   1.663   3.821   0.015  0.3839  0.1792 -0.2255
 6475SOL    HW225666   1.759   3.820   0.024  0.2558  0.8002  1.4784
 6475SOL    HW325667   1.631   3.830   0.104 -1.3058 -0.9333 -0.6956
 6475SOL    MW425668   1.672   3.822   0.028 -0.6793 -0.3627  0.4730
 6476SOL     OW25669   2.945   4.488   2.889  0.0311  0.1899 -0.4739
 6476SOL    HW225670   3.015   4.548   2.863 -0.2311  1.1461  0.9261
 6476SOL    HW325671   2.990   4.404   2.904  1.0019  0.9274  0.9446
 6476SOL    MW425672   2.960   4.485   2.888 -0.0570  0.1941  0.1821
 6477SOL     OW25673   3.428   5.409   2.584  0.3760  0.7312 -0.4850
 6477SOL    HW225674   3.342   5.427   2.623  0.5612 -0.5036  0.5832
 6477SOL    HW325675   3.489   5.463   2.635  0.4613  0.0781  0.1258
 6477SOL    MW425676   3.425   5.418   2.596  0.0900  0.4491  0.3220
 6478SOL     OW25677   1.195   0.237   3.209  0.0923  0.3283 -0.0941
 6478SOL    HW225678   1.118   0.293   3.224 -1.2510 -1.2897 -0.6100
 6478SOL    HW325679   1.196   0.224   3.114  0.7109 -0.0895 -0.0320
 6478SOL    MW425680   1.185   0.243   3.198 -0.5259 -0.1044 -0.3889
 6479SOL     OW25681   3.090   5.004   3.176  0.0141  0.0007 -0.0922
 6479SOL    HW225682   3.054   5.088   3.204 -1.1921 -0.5570  0.0998
 6479SOL    HW325683   3.045   4.986   3.093  0.8030 -0.1165 -0.4982
 6479SOL    MW425684   3.079   5.013   3.169 -0.3532 -0.0966  0.3704
 6480SOL     OW25685   5.319   2.192   3.832 -0.0457  0.1504  0.2128
 6480SOL    HW225686   5.249   2.224   3.889 -0.2461 -0.6188  0.4092
 6480SOL    HW325687   5.344   2.268   3.780 -2.7220 -0.1349 -1.6471
 6480SOL    MW425688   5.313   2.206   3.833  0.0867 -0.9817  0.2129
 6481SOL     OW25689   0.997   5.506   0.091  0.5632  0.3971  0.0488
 6481SOL    HW225690   0.915   5.471   0.056  1.9677 -1.7704 -1.3394
 6481SOL    HW325691   1.019   5.578   0.032 -1.5706  2.8527  2.0075
 6481SOL    MW425692   0.989   5.511   0.078 -0.1543  0.0400  0.7666
 6482SOL     OW25693   4.877   4.991   6.339 -0.0860  0.1719 -0.3858
 6482SOL    HW225694   4.819   4.996   6.415 -0.1030 -0.3253 -0.3619
 6482SOL    HW325695   4.898   5.082   6.318 -2.0262  0.4798 -1.2827
 6482SOL    MW425696   4.872   5.004   6.346 -0.3192  0.0711 -0.1008
 6483SOL     OW25697   1.234   2.715   2.895  0.5442  0.5685  0.1704
 6483SOL    HW225698   1.147   2.719   2.935 -0.2942  1.2185 -1.6429
 6483SOL    HW325699   1.288   2.771   2.952 -0.2930  0.4660  1.0982
 6483SOL    MW425700   1.229   2.723   2.908  0.0557 -0.3995 -0.2270
 6484SOL     OW25701   0.133   3.484   0.840 -0.0046  0.1605  0.0180
 6484SOL    HW225702   0.204   3.521   0.893  0.6205 -0.0579 -0.6544
 6484SOL    HW325703   0.062   3.469   0.903  0.6505  0.0957  0.7612
 6484SOL    MW425704   0.133   3.487   0.856 -0.5045  0.7444 -0.3579
 6485SOL     OW25705   4.891   4.520   0.694 -0.1284 -0.5534  0.6034
 6485SOL    HW225706   4.813   4.571   0.673  0.1687 -0.6706 -0.8470
 6485SOL    HW325707   4.913   4.545   0.784 -0.2656  1.5292  0.1013
 6485SOL    MW425708   4.884   4.530   0.703  0.3796  0.3363 -1.0766
 6486SOL     OW25709   3.713   4.978   1.990 -0.3725  0.0823 -0.1291
 6486SOL    HW225710   3.739   4.889   2.013  0.5544  0.0487 -1.2067
 6486SOL    HW325711   3.712   5.025   2.073 -0.1258 -0.7436  0.3537
 6486SOL    MW425712   3.716   4.972   2.004  0.0072 -0.4554 -0.0481
 6487SOL     OW25713   4.168   5.217   0.967  0.3141  0.5493  0.4233
 6487SOL    HW225714   4.141   5.207   1.059  0.7421  2.0049  0.7292
 6487SOL    HW325715   4.088   5.243   0.921 -0.5552 -2.6991 -0.1829
 6487SOL    MW425716   4.154   5.219   0.973 -0.5118 -0.3909  0.2362
 6488SOL     OW25717   0.014   1.630   3.371  0.1004 -0.2233  0.0939
 6488SOL    HW225718   0.060   1.697   3.421  1.0101  0.3914 -1.5049
 6488SOL    HW325719   0.080   1.595   3.311 -1.1548 -0.3079 -1.2891
 6488SOL    MW425720   0.029   1.634   3.370 -0.1925  0.7184  0.0998
 6489SOL     OW25721   4.772   5.667   2.452  0.2221  0.4014  0.4512
 6489SOL    HW225722   4.744   5.754   2.420 -1.1202 -0.7807 -1.9277
 6489SOL    HW325723   4.867   5.667   2.441  0.0260  0.8388 -1.7211
 6489SOL    MW425724   4.781   5.679   2.446 -0.6166 -0.8054  0.3066
 6490SOL     OW25725   3.105   5.108   4.531  0.5893  0.2729  0.3702
 6490SOL    HW225726   3.040   5.055   4.577  1.5080 -0.9674  0.2968
 6490SOL    HW325727   3.178   5.047   4.515  1.9617  1.7326  0.8670
 6490SOL    MW425728   3.106   5.093   4.535  0.4468  0.4401 -0.0256
 6491SOL     OW25729   0.237   4.889   5.408 -0.6077 -0.4109 -0.0348
 6491SOL    HW225730   0.160   4.908   5.461  0.2165 -1.2577  1.5721
 6491SOL    HW325731   0.208   4.823   5.345 -1.2920 -0.4273  0.2941
 6491SOL    MW425732   0.223   4.883   5.407  0.0246  0.5664  0.0254
 6492SOL     OW25733   4.954   3.877   3.740 -0.2000 -0.6300  0.0994
 6492SOL    HW225734   4.867   3.848   3.711 -0.7143  0.5088  0.4381
 6492SOL    HW325735   4.983   3.809   3.800 -0.4647 -1.4628 -0.6947
 6492SOL    MW425736   4.946   3.864   3.744  0.0998 -0.2144  0.2142
 6493SOL     OW25737   3.813   1.709   1.843  0.0939  0.2718  0.2094
 6493SOL    HW225738   3.895   1.669   1.870 -0.4146 -0.2935  0.9725
 6493SOL    HW325739   3.837   1.766   1.770  1.0804 -0.2342  0.1173
 6493SOL    MW425740   3.827   1.711   1.837  0.9806 -0.3154 -0.2273
 6494SOL     OW25741   5.495   3.439   1.034  0.1925  0.1184 -0.8697
 6494SOL    HW225742   5.427   3.373   1.029  0.5351 -0.3497  0.3033
 6494SOL    HW325743   5.480   3.496   0.958 -0.2716 -1.1342 -1.7446
 6494SOL    MW425744   5.484   3.438   1.023 -0.3703 -0.4128 -0.5145
 6495SOL     OW25745   5.593   0.555   1.055  0.2551 -0.4889 -0.2349
 6495SOL    HW225746   5.536   0.614   1.006 -0.0941 -1.0583 -0.5256
 6495SOL    HW325747   5.565   0.564   1.146  1.2665  0.9792 -0.0408
 6495SOL    MW425748   5.581   0.564   1.060  0.1568  0.3198  0.2256
 6496SOL     OW25749   1.699   1.395   2.296 -0.4616 -0.2721  0.3426
 6496SOL    HW225750   1.692   1.453   2.220  0.4966 -2.3415 -1.4206
 6496SOL    HW325751   1.715   1.454   2.369 -1.9373  1.8533 -0.9146
 6496SOL    MW425752   1.700   1.411   2.295 -0.1290  0.0352  0.2595
 6497SOL     OW25753   0.720   3.476   5.400  0.1502 -0.4866  0.4385
 6497SOL    HW225754   0.683   3.537   5.464 -1.8811  1.6680 -2.5046
 6497SOL    HW325755   0.771   3.531   5.341  1.4389 -2.2844 -0.2320
 6497SOL    MW425756   0.722   3.491   5.401 -0.3385 -0.2088  0.0894
 6498SOL     OW25757   4.749   4.898   3.456  0.1316  0.3134  0.2700
 6498SOL    HW225758   4.768   4.805   3.470  2.0586  0.3309 -1.6387
 6498SOL    HW325759   4.714   4.929   3.540  1.7225 -1.5794  1.7225
 6498SOL    MW425760   4.747   4.890   3.469  0.8328  0.3064 -0.2665
 6499SOL     OW25761   0.404   5.070   6.370  0.2263  0.2047  0.2233
 6499SOL    HW225762   0.312   5.091   6.352  0.2772  0.1138 -0.1512
 6499SOL    HW325763   0.409   4.975   6.359  0.7020  0.3899 -1.3226
 6499SOL    MW425764   0.392   5.060   6.366 -0.0317  0.2305  0.4771
 6500SOL     OW25765   0.437   1.194   1.648  0.3910  0.6478  0.1115
 6500SOL    HW225766   0.367   1.167   1.589  0.0698  1.4230  0.1221
 6500SOL    HW325767   0.432   1.132   1.721  0.2580  0.1940 -0.2807
 6500SOL    MW425768   0.427   1.183   1.650  0.1492 -0.1520 -0.1587
 6501SOL     OW25769   2.444   0.934   3.704 -0.1226  0.0536 -0.3495
 6501SOL    HW225770   2.478   1.011   3.660 -1.2709  0.9069  0.2026
 6501SOL    HW325771   2.379   0.968   3.765  1.4981 -1.0798  2.1463
 6501SOL    MW425772   2.440   0.948   3.706  0.4805 -0.3028 -0.2177
 6502SOL     OW25773   1.726   5.484   5.912  0.2783  0.3159 -0.3866
 6502SOL    HW225774   1.637   5.490   5.948  0.6489 -1.5548  1.0347
 6502SOL    HW325775   1.717   5.421   5.840  0.5354 -0.3592  0.1606
 6502SOL    MW425776   1.713   5.476   5.907 -0.2248 -0.8912  0.0961
 6503SOL     OW25777   1.290   3.372   1.356  0.4388 -0.3444  0.4953
 6503SOL    HW225778   1.382   3.349   1.348  0.4208 -0.8011  1.4188
 6503SOL    HW325779   1.243   3.289   1.346  0.1319 -0.1185  0.0421
 6503SOL    MW425780   1.296   3.358   1.354  0.0404 -0.0655  0.9293
 6504SOL     OW25781   4.531   5.414   0.285  0.1420  0.2027 -0.1968
 6504SOL    HW225782   4.504   5.421   0.193  3.1750  0.5090 -1.1852
 6504SOL    HW325783   4.553   5.321   0.296  0.7283  0.3463 -0.1152
 6504SOL    MW425784   4.531   5.402   0.274 -0.1369  0.1146  0.1680
 6505SOL     OW25785   6.302   6.076   5.276 -0.4684 -0.3538  0.0182
 6505SOL    HW225786   6.227   6.103   5.328  0.9173 -1.4229  2.7583
 6505SOL    HW325787   6.371   6.138   5.298 -0.1956  0.0111 -1.6909
 6505SOL    MW425788   6.302   6.088   5.285  0.0262 -0.3859 -0.5062
 6506SOL     OW25789   3.706   5.162   4.790 -0.6944 -0.0583  0.6456
 6506SOL    HW225790   3.645   5.091   4.771  0.4164 -0.8205 -0.2506
 6506SOL    HW325791   3.763   5.127   4.859  0.9116 -0.7434 -0.9435
 6506SOL    MW425792   3.705   5.148   4.796 -0.4215 -0.3984  0.1794
 6507SOL     OW25793   0.389   3.550   2.159  0.0365 -0.0550 -0.1918
 6507SOL    HW225794   0.335   3.574   2.235 -0.2586  0.7118 -0.6235
 6507SOL    HW325795   0.428   3.633   2.131  0.0051 -0.2965 -0.9728
 6507SOL    MW425796   0.387   3.564   2.165 -0.7849  0.0289 -0.3296
 6508SOL     OW25797   6.198   2.295   1.659  0.3060  0.2476 -0.2226
 6508SOL    HW225798   6.234   2.272   1.573 -0.6985  0.9443 -0.8491
 6508SOL    HW325799   6.178   2.388   1.653  0.9199  0.4874  1.0420
 6508SOL    MW425800   6.200   2.304   1.647  0.4465 -0.0541 -0.2397
 6509SOL     OW25801   4.859   0.781   0.971  0.1221 -0.0242  0.4079
 6509SOL    HW225802   4.869   0.698   0.925  2.2338  0.2776  0.2192
 6509SOL    HW325803   4.901   0.845   0.913 -0.6289  1.0263  0.9947
 6509SOL    MW425804   4.865   0.778   0.957  0.5362  0.5090 -0.0355
 6510SOL     OW25805   2.634   3.715   0.211 -0.0590  0.4638  0.0031
 6510SOL    HW225806   2.577   3.684   0.281  0.1310  1.7476  0.7730
 6510SOL    HW325807   2.648   3.639   0.155 -0.9016 -0.3759  0.8987
 6510SOL    MW425808   2.629   3.701   0.213  0.1366  0.3451  0.3059
 6511SOL     OW25809   5.392   0.517   2.577  0.5974  0.2306 -1.1601
 6511SOL    HW225810   5.486   0.525   2.593  0.8565 -0.0358 -2.4592
 6511SOL    HW325811   5.376   0.573   2.501 -0.6047  1.5513  0.0066
 6511SOL    MW425812   5.403   0.526   2.569  0.2022  0.3020  0.1215
 6512SOL     OW25813   0.600   3.510   1.083 -0.2861  0.5468 -0.9243
 6512SOL    HW225814   0.525   3.534   1.028  0.5817  1.2425 -1.8510
 6512SOL    HW325815   0.564   3.453   1.151 -1.5117  0.2206 -1.8261
 6512SOL    MW425816   0.586   3.506   1.085  0.1236  0.1294 -0.2439
 6513SOL     OW25817   5.388   5.595   4.465  0.5597 -0.4886 -0.0266
 6513SOL    HW225818   5.304   5.551   4.455  1.1867 -1.6505 -0.4722
 6513SOL    HW325819   5.404   5.597   4.559 -1.1963  2.2607  0.3425
 6513SOL    MW425820   5.379   5.589   4.476 -0.0892 -0.1409  0.4457
 6514SOL     OW25821   4.626   3.780   2.106  0.0542  0.0846 -0.3778
 6514SOL    HW225822   4.668   3.774   2.021  0.8110 -0.3313  0.0154
 6514SOL    HW325823   4.596   3.690   2.124 -0.4875  0.2588 -0.3976
 6514SOL    MW425824   4.628   3.767   2.097 -0.0982 -0.1880 -0.5411
 6515SOL     OW25825   1.777   1.758   2.079 -0.7666 -0.2040  0.0901
 6515SOL    HW225826   1.718   1.779   2.151 -0.5658 -0.6404  0.3816
 6515SOL    HW325827   1.857   1.807   2.098 -0.5229 -0.7375  0.4426
 6515SOL    MW425828   1.780   1.767   2.091 -0.0568 -0.0778 -0.6701
 6516SOL     OW25829   5.676   0.629   4.657 -0.2202  0.1873 -0.8213
 6516SOL    HW225830   5.766   0.648   4.680 -0.3312  1.2865 -1.2167
 6516SOL    HW325831   5.682   0.571   4.581  0.1479  0.0240 -0.6677
 6516SOL    MW425832   5.688   0.624   4.650  0.7358 -0.5382 -0.1004
 6517SOL     OW25833   3.115   0.819   0.157  0.4734  0.0422  0.7729
 6517SOL    HW225834   3.153   0.903   0.184 -0.8841  1.3918 -1.1853
 6517SOL    HW325835   3.030   0.843   0.119  1.2179 -1.8215 -2.4591
 6517SOL    MW425836   3.109   0.833   0.155 -0.0081 -0.0597 -0.0172
 6518SOL     OW25837   3.854   6.114   5.741 -0.2136 -0.5763  0.3784
 6518SOL    HW225838   3.930   6.074   5.783 -0.3077 -3.0686 -1.6124
 6518SOL    HW325839   3.784   6.104   5.805  0.5144 -0.6498  1.1910
 6518SOL    MW425840   3.855   6.107   5.755 -0.7814 -0.1530 -0.0233
 6519SOL     OW25841   5.405   6.261   3.928 -0.3889  0.3366  0.3892
 6519SOL    HW225842   5.358   6.271   3.846  1.1776 -1.6234 -0.8139
 6519SOL    HW325843   5.374   6.178   3.964  2.2344 -1.2000 -0.6146
 6519SOL    MW425844   5.394   6.252   3.922  0.0197  0.2611 -0.0991
 6520SOL     OW25845   4.981   6.414   3.566 -0.0621 -0.0613  0.5024
 6520SOL    HW225846   5.031   6.461   3.499  0.6075 -1.9153 -0.3671
 6520SOL    HW325847   5.039   6.410   3.642 -0.0376  0.2983  0.5048
 6520SOL    MW425848   4.995   6.420   3.567 -0.1140  0.2912 -0.2259
 6521SOL     OW25849   4.175   3.633   1.633  0.4326 -0.2176  0.0716
 6521SOL    HW225850   4.185   3.727   1.621  0.4326 -0.0176  1.4955
 6521SOL    HW325851   4.255   3.606   1.678  0.1403 -0.7939  0.2485
 6521SOL    MW425852   4.187   3.642   1.637  0.8220 -0.3319 -0.0825
 6522SOL     OW25853   6.180   3.866   4.930 -0.0296 -0.0012  0.3482
 6522SOL    HW225854   6.118   3.899   4.865  1.0260  0.4566 -0.4486
 6522SOL    HW325855   6.252   3.929   4.929  0.2687 -0.2962  1.5617
 6522SOL    MW425856   6.181   3.879   4.921  0.0748 -0.6870 -1.4691
 6523SOL     OW25857   2.898   4.544   0.735  0.1649  0.3338  0.3103
 6523SOL    HW225858   2.870   4.568   0.823  0.3718  0.7338  0.2665
 6523SOL    HW325859   2.865   4.613   0.679  1.3352  0.8844  0.2740
 6523SOL    MW425860   2.890   4.556   0.739  0.2929 -0.1489 -0.2230
 6524SOL     OW25861   4.142   0.834   2.772 -0.0382 -0.1192  0.4103
 6524SOL    HW225862   4.186   0.800   2.694 -3.2017 -0.4813 -1.4144
 6524SOL    HW325863   4.177   0.781   2.844  0.9022 -1.8064 -1.1946
 6524SOL    MW425864   4.152   0.822   2.771 -0.0758 -0.0936 -0.6489
 6525SOL     OW25865   4.224   4.710   5.403  0.1074  0.6690  0.3528
 6525SOL    HW225866   4.163   4.664   5.461  0.8454  0.5167  1.0238
 6525SOL    HW325867   4.267   4.640   5.353  0.9787  0.6324  1.1251
 6525SOL    MW425868   4.222   4.695   5.404  0.1267 -0.4018 -0.1156
 6526SOL     OW25869   3.753   4.169   5.481  0.1742 -0.0073 -0.0568
 6526SOL    HW225870   3.745   4.077   5.503 -2.0449  0.4687  1.5159
 6526SOL    HW325871   3.664   4.203   5.486  0.8628  2.1619 -0.9784
 6526SOL    MW425872   3.740   4.162   5.484  0.0250  0.4499  0.6520
 6527SOL     OW25873   3.815   5.210   0.685 -0.2126  0.1305  0.0353
 6527SOL    HW225874   3.790   5.212   0.593  1.1681 -0.8833 -0.4001
 6527SOL    HW325875   3.733   5.223   0.733 -1.0359  0.0880 -1.3171
 6527SOL    MW425876   3.801   5.212   0.679 -0.2707  0.2824  0.3634
 6528SOL     OW25877   1.744   5.322   4.547  0.0060  0.2211 -0.3404
 6528SOL    HW225878   1.654   5.328   4.516 -0.6847  0.8398  1.6531
 6528SOL    HW325879   1.753   5.393   4.610  1.0767 -1.4011  1.4416
 6528SOL    MW425880   1.734   5.332   4.551 -0.1304 -0.2278  0.0577
 6529SOL     OW25881   2.088   5.243   1.003  0.1223  1.0825 -0.3856
 6529SOL    HW225882   2.107   5.337   1.002  0.2058  1.0807 -2.3548
 6529SOL    HW325883   2.134   5.208   0.927 -1.5038 -0.2054 -0.8436
 6529SOL    MW425884   2.097   5.251   0.993 -0.4532 -0.2109 -0.0906
 6530SOL     OW25885   1.534   4.328   3.388 -0.8192 -0.2273 -0.1526
 6530SOL    HW225886   1.629   4.327   3.402 -0.6296 -0.4566 -1.3154
 6530SOL    HW325887   1.517   4.251   3.334 -1.9695 -1.2891  1.6466
 6530SOL    MW425888   1.544   4.318   3.383  0.0659 -0.9251 -0.4494
 6531SOL     OW25889   1.784   0.020   5.698  0.1883  0.5172  0.5122
 6531SOL    HW225890   1.786  -0.075   5.695  0.2882  0.5369 -0.6042
 6531SOL    HW325891   1.806   0.042   5.788 -0.6466 -0.5307  0.9963
 6531SOL    MW425892   1.787   0.011   5.709 -0.0068  0.1113 -0.1621
 6532SOL     OW25893   2.118   0.330   4.188  0.1874  0.0732 -0.3062
 6532SOL    HW225894   2.146   0.368   4.105 -1.2217  1.3724 -0.2320
 6532SOL    HW325895   2.023   0.322   4.180  0.0249  0.2149  1.1767
 6532SOL    MW425896   2.109   0.334   4.176 -0.0407  0.2789 -0.2097
 6533SOL     OW25897   4.920   3.770   5.293 -0.2863  0.5355  0.1938
 6533SOL    HW225898   4.856   3.780   5.363  0.6106  0.3930  1.0604
 6533SOL    HW325899   4.953   3.681   5.303  0.0799  0.6204 -0.2200
 6533SOL    MW425900   4.916   3.760   5.303 -0.3616  0.4752 -0.4626
 6534SOL     OW25901   1.247   0.033   6.283  0.4100 -0.1298  0.5984
 6534SOL    HW225902   1.170  -0.003   6.240 -0.5309  0.1561  1.9987
 6534SOL    HW325903   1.226   0.126   6.294  1.6317  0.3070 -0.4156
 6534SOL    MW425904   1.234   0.041   6.279  0.1037  0.0957 -0.0273
 6535SOL     OW25905   3.455   3.776   0.057 -0.0187 -0.4871 -0.4937
 6535SOL    HW225906   3.366   3.741   0.052  0.2490 -1.1224 -0.8361
 6535SOL    HW325907   3.454   3.830   0.136 -1.0402  0.4795 -1.1433
 6535SOL    MW425908   3.443   3.778   0.067  0.6844 -0.0298  0.3035
 6536SOL     OW25909   2.425   6.007   1.785 -0.5693  0.0888 -0.4249
 6536SOL    HW225910   2.395   6.097   1.796 -0.0425  0.6849 -3.1690
 6536SOL    HW325911   2.520   6.012   1.793 -0.3794  0.1452 -2.2421
 6536SOL    MW425912   2.433   6.020   1.788  0.1448  0.2796  0.5065
 6537SOL     OW25913   4.987   1.192   4.301 -0.0795 -0.1871 -0.4015
 6537SOL    HW225914   4.909   1.171   4.353 -1.1879 -0.6166 -2.1683
 6537SOL    HW325915   4.960   1.266   4.247  0.0937 -1.4735 -2.3481
 6537SOL    MW425916   4.973   1.199   4.301 -0.1427 -0.1087  0.2984
 6538SOL     OW25917   5.555   0.849   2.099  0.3627  0.0710 -0.3647
 6538SOL    HW225918   5.622   0.917   2.104 -0.1365  0.7474 -2.0790
 6538SOL    HW325919   5.472   0.897   2.103 -0.0784 -0.7402  1.5834
 6538SOL    MW425920   5.553   0.865   2.101  0.5301  0.1894 -0.1340
 6539SOL     OW25921   1.418   6.384   0.054 -0.3040  0.1929 -0.2176
 6539SOL    HW225922   1.371   6.432  -0.014  0.1769  2.8636  1.1704
 6539SOL    HW325923   1.499   6.433   0.065  0.9685 -1.9133  0.2840
 6539SOL    MW425924   1.422   6.397   0.046 -0.0480 -0.2143  0.1190
 6540SOL     OW25925   3.415   0.243   4.030 -0.1416  0.0394 -0.2579
 6540SOL    HW225926   3.456   0.157   4.020 -0.3213  0.0427 -1.0922
 6540SOL    HW325927   3.407   0.276   3.941 -1.9840  0.0298 -0.1258
 6540SOL    MW425928   3.419   0.236   4.017 -0.1596 -0.1011 -0.9200
 6541SOL     OW25929   0.290   3.294   3.980 -0.7163 -0.5629 -0.0748
 6541SOL    HW225930   0.259   3.215   4.026 -0.6118 -0.2469  0.5433
 6541SOL    HW325931   0.359   3.329   4.036  0.9173 -1.3352 -1.4994
 6541SOL    MW425932   0.295   3.288   3.993 -0.5657 -0.5510  0.1518
 6542SOL     OW25933   1.497   5.183   3.482 -0.2393  0.6371 -0.5198
 6542SOL    HW225934   1.428   5.243   3.456  0.2884  0.9412 -1.2458
 6542SOL    HW325935   1.513   5.203   3.574 -1.0113  0.6578 -0.3803
 6542SOL    MW425936   1.490   5.193   3.490  0.0131  0.0171  0.1332
 6543SOL     OW25937   0.248   0.035   5.757 -1.1747 -0.0611  0.3847
 6543SOL    HW225938   0.167   0.061   5.712  0.2145  1.2621 -1.4613
 6543SOL    HW325939   0.316   0.041   5.691  0.5800 -0.5325  2.0502
 6543SOL    MW425940   0.246   0.039   5.743  0.6902  0.5884  0.3444
 6544SOL     OW25941   6.092   1.766   4.018  0.4628 -0.1100  0.3797
 6544SOL    HW225942   6.135   1.843   4.057  0.2974 -0.1250  0.5918
 6544SOL    HW325943   6.102   1.697   4.084 -2.7805  0.7392  1.9529
 6544SOL    MW425944   6.099   1.767   4.032  0.1521 -0.1841 -0.1050
 6545SOL     OW25945   0.952   1.691   3.621 -0.0649 -0.3001 -0.5200
 6545SOL    HW225946   1.045   1.673   3.610 -0.2762 -2.2011  0.3534
 6545SOL    HW325947   0.929   1.748   3.548  1.9696  1.0160 -0.1935
 6545SOL    MW425948   0.961   1.696   3.610  0.5599  0.4565 -0.0801
 6546SOL     OW25949   1.748   3.946   4.682 -0.3779  0.1294  0.1255
 6546SOL    HW225950   1.728   4.030   4.722 -0.8174 -0.3186  0.8738
 6546SOL    HW325951   1.678   3.932   4.618 -0.1438  0.4575 -0.2080
 6546SOL    MW425952   1.736   3.955   4.678  0.0620 -0.4995 -0.2877
 6547SOL     OW25953   5.844   0.222   5.104 -0.3093 -0.3190 -0.0322
 6547SOL    HW225954   5.899   0.158   5.059 -0.9956 -0.9651  0.0299
 6547SOL    HW325955   5.847   0.300   5.049  1.2085 -0.1044  0.3213
 6547SOL    MW425956   5.851   0.224   5.091  0.5064  0.0496  0.2129
 6548SOL     OW25957   0.511   3.345   1.335  0.1345  0.0021 -0.0350
 6548SOL    HW225958   0.453   3.332   1.409 -0.1977  1.4174 -0.0062
 6548SOL    HW325959   0.512   3.261   1.289 -3.5052  0.3784 -1.1526
 6548SOL    MW425960   0.504   3.332   1.339 -0.1720 -0.2644 -0.8983
 6549SOL     OW25961   2.751   1.285   0.027 -0.8572 -0.7716 -0.3544
 6549SOL    HW225962   2.700   1.248  -0.045 -1.1009 -0.7967 -0.1723
 6549SOL    HW325963   2.715   1.373   0.039 -0.2937 -0.4750 -0.7742
 6549SOL    MW425964   2.739   1.292   0.019 -1.0697 -0.3697  0.0461
 6550SOL     OW25965   4.284   3.688   2.734  0.1294 -0.4847 -0.1449
 6550SOL    HW225966   4.218   3.629   2.699  0.6184 -0.6444 -0.8087
 6550SOL    HW325967   4.305   3.747   2.662  1.7188 -1.3209 -0.4196
 6550SOL    MW425968   4.278   3.688   2.720  0.3365 -0.5894  0.2431
 6551SOL     OW25969   4.897   4.345   6.250 -0.6466 -0.0356  0.1132
 6551SOL    HW225970   4.805   4.372   6.247 -0.5121  0.4560  0.2824
 6551SOL    HW325971   4.944   4.415   6.205 -0.6032 -1.5196 -2.3139
 6551SOL    MW425972   4.891   4.358   6.244 -0.0602  0.1623 -0.4085
 6552SOL     OW25973   6.034   5.215   4.803 -0.1171  0.0269 -0.3121
 6552SOL    HW225974   6.034   5.187   4.712 -1.0568 -1.3367  0.0913
 6552SOL    HW325975   5.942   5.229   4.825  0.1165  0.6259  0.3586
 6552SOL    MW425976   6.022   5.213   4.794  0.0412  0.0261 -0.6460
 6553SOL     OW25977   3.021   2.737   6.059 -0.4549  0.2897 -0.3145
 6553SOL    HW225978   2.945   2.680   6.075 -1.0684  1.3122  0.5558
 6553SOL    HW325979   2.983   2.823   6.041  0.4865  0.7458 -0.1742
 6553SOL    MW425980   3.006   2.741   6.059 -0.6129  0.2665  0.9432
 6554SOL     OW25981   2.530   5.052   0.362 -0.0683  0.0003 -0.0797
 6554SOL    HW225982   2.439   5.030   0.384 -1.0487  0.7686 -2.9293
 6554SOL    HW325983   2.577   4.969   0.369 -1.0486 -0.4915  1.0429
 6554SOL    MW425984   2.524   5.038   0.366  0.7995 -0.4029 -0.3981
 6555SOL     OW25985   5.840   1.126   4.921  0.1746  0.3794  0.2917
 6555SOL    HW225986   5.806   1.123   4.832  0.2372 -0.8825  0.2925
 6555SOL    HW325987   5.917   1.183   4.915 -1.9326  3.4810  0.3439
 6555SOL    MW425988   5.846   1.133   4.908  0.1547  0.2959  0.1471
 6556SOL     OW25989   3.224   4.406   0.369 -0.5064  0.2393 -0.1073
 6556SOL    HW225990   3.166   4.457   0.313 -1.5065 -1.0451 -0.2802
 6556SOL    HW325991   3.169   4.381   0.444 -0.5160 -1.8516 -0.7527
 6556SOL    MW425992   3.209   4.410   0.372  0.3368  0.6475  0.1478
 6557SOL     OW25993   1.361   1.049   5.601  0.6802  0.2880 -0.6809
 6557SOL    HW225994   1.374   1.071   5.693  0.7008 -0.5344 -0.4833
 6557SOL    HW325995   1.449   1.028   5.569  0.5967  0.0454 -0.7511
 6557SOL    MW425996   1.375   1.049   5.609 -0.6217 -0.2514 -0.4352
 6558SOL     OW25997   3.833   3.738   2.732  0.1631 -0.7288 -1.0850
 6558SOL    HW225998   3.772   3.805   2.703 -0.2898 -0.7539 -0.2139
 6558SOL    HW325999   3.879   3.710   2.652 -0.9097 -0.6671 -1.7344
 6558SOL    MW426000   3.831   3.743   2.718  0.0202  0.0161 -0.1504
 6559SOL     OW26001   1.078   3.273   2.029  0.3381 -0.7375 -0.2895
 6559SOL    HW226002   1.047   3.357   1.996 -1.0944 -1.7676 -1.6882
 6559SOL    HW326003   1.024   3.257   2.107  0.6234 -0.3679 -0.0122
 6559SOL    MW426004   1.067   3.281   2.035  0.2860  0.3363  0.3720
 6560SOL     OW26005   6.390   5.349   0.598 -0.0248 -0.0166  0.6280
 6560SOL    HW226006   6.383   5.428   0.546  1.7279 -0.8702 -1.0530
 6560SOL    HW326007   6.308   5.344   0.647  0.9654  4.4136  3.2543
 6560SOL    MW426008   6.378   5.359   0.597  0.2794 -0.2072 -0.0433
 6561SOL     OW26009   1.995   0.460   5.702 -0.1938  0.8622  0.4002
 6561SOL    HW226010   1.942   0.468   5.781 -1.7372 -1.3272 -0.3410
 6561SOL    HW326011   1.951   0.515   5.638 -1.3670 -0.5714 -0.0718
 6561SOL    MW426012   1.983   0.468   5.704  0.0112  0.0202  0.2093
 6562SOL     OW26013   0.487   1.395   3.510 -0.0368 -0.2877  0.4802
 6562SOL    HW226014   0.519   1.478   3.473 -1.1547  0.0660  0.2938
 6562SOL    HW326015   0.427   1.361   3.444  0.9584 -1.6303  0.2203
 6562SOL    MW426016   0.484   1.401   3.496  0.1523 -0.0621  0.0205
 6563SOL     OW26017   4.632   6.203   5.453 -0.5270 -0.0675 -0.4924
 6563SOL    HW226018   4.564   6.212   5.520 -0.5460 -0.0914 -0.5087
 6563SOL    HW326019   4.714   6.221   5.500 -0.5264 -0.2389 -0.4272
 6563SOL    MW426020   4.634   6.207   5.468  0.7338  0.1635  0.2749
 6564SOL     OW26021   1.742   6.286   6.380  0.1879 -0.5014 -0.2870
 6564SOL    HW226022   1.817   6.266   6.324 -0.2257 -2.4562 -0.2267
 6564SOL    HW326023   1.675   6.318   6.320  0.7972  0.4920 -0.4473
 6564SOL    MW426024   1.743   6.288   6.365 -0.0732  0.4041 -0.1898
 6565SOL     OW26025   2.146   2.040   5.429 -0.5335 -0.1644  0.2631
 6565SOL    HW226026   2.226   2.014   5.475 -1.1098 -1.3081  0.6602
 6565SOL    HW326027   2.104   2.103   5.488  0.7122  1.5346 -0.5598
 6565SOL    MW426028   2.151   2.045   5.443 -0.2034  0.0973 -0.7358
 6566SOL     OW26029   1.240   3.861   5.561 -0.0031 -0.0463 -0.0443
 6566SOL    HW226030   1.145   3.872   5.554  0.0084 -0.4256 -0.9697
 6566SOL    HW326031   1.263   3.801   5.490  1.2742  2.0856 -1.5417
 6566SOL    MW426032   1.231   3.854   5.551  0.2631  0.1756  0.1635
 6567SOL     OW26033   3.168   6.230   0.145  0.1064  0.1087  0.6429
 6567SOL    HW226034   3.250   6.265   0.178 -0.4387  0.5955  1.5002
 6567SOL    HW326035   3.146   6.285   0.070  0.4057  0.1605  0.5934
 6567SOL    MW426036   3.176   6.242   0.139  0.1590  0.0425  0.3476
 6568SOL     OW26037   1.814   4.361   3.701  0.4723  0.6090  0.1412
 6568SOL    HW226038   1.802   4.276   3.744  0.5207  1.3330  1.6341
 6568SOL    HW326039   1.832   4.339   3.609 -0.8865 -0.9275  0.2104
 6568SOL    MW426040   1.815   4.347   3.695  0.7941  0.3459  0.6827
 6569SOL     OW26041   5.838   4.616   5.099 -0.1755  0.1824  0.9369
 6569SOL    HW226042   5.774   4.615   5.027 -0.5037  1.7288  1.1803
 6569SOL    HW326043   5.920   4.591   5.058 -0.9956 -2.5647  0.7404
 6569SOL    MW426044   5.840   4.612   5.084  0.2262  0.1767 -0.6154
 6570SOL     OW26045   3.731   4.547   1.958  0.7809 -0.1191  0.5259
 6570SOL    HW226046   3.800   4.485   1.982  1.0795  1.0811  3.0763
 6570SOL    HW326047   3.760   4.631   1.993 -0.6219  1.0452 -0.9453
 6570SOL    MW426048   3.744   4.550   1.966 -0.3024 -0.5408  0.4028
 6571SOL     OW26049   0.904   5.958   4.128  0.4053 -0.1878  1.1602
 6571SOL    HW226050   0.916   6.053   4.139  0.5577 -0.1218  0.4872
 6571SOL    HW326051   0.930   5.942   4.037  0.9080 -0.9600  1.4362
 6571SOL    MW426052   0.909   5.969   4.117 -0.1608  0.1533 -0.0804
 6572SOL     OW26053   2.303   0.969   1.400 -0.1421  0.2299 -0.9385
 6572SOL    HW226054   2.304   0.874   1.402 -1.9556  0.1700 -0.7965
 6572SOL    HW326055   2.272   0.991   1.312 -2.4372  0.5557 -0.1308
 6572SOL    MW426056   2.299   0.960   1.389  0.3747 -0.0348 -0.1566
 6573SOL     OW26057   3.256   3.023   4.622 -0.0262  0.6009  0.3045
 6573SOL    HW226058   3.288   2.989   4.539  3.9004  1.2988  1.3175
 6573SOL    HW326059   3.209   3.103   4.599 -0.5028 -0.1123 -1.3279
 6573SOL    MW426060   3.254   3.029   4.608 -0.0634 -0.6034 -0.6566
 6574SOL     OW26061   2.741   4.313   1.101 -0.0868  0.2549  0.0772
 6574SOL    HW226062   2.652   4.346   1.089  0.1505  0.4124 -1.5225
 6574SOL    HW326063   2.756   4.258   1.024  1.4434  0.7822 -0.0302
 6574SOL    MW426064   2.731   4.310   1.089 -0.1465  0.4535  0.1304
 6575SOL     OW26065   1.973   3.952   1.916  0.0729 -0.0235 -0.3865
 6575SOL    HW226066   1.892   3.921   1.874  0.0790 -2.6642  1.2651
 6575SOL    HW326067   2.033   3.968   1.843 -0.7618 -1.7744 -1.5428
 6575SOL    MW426068   1.970   3.950   1.901  0.1384 -0.5704 -0.1544
 6576SOL     OW26069   0.534   3.614   1.742  0.0842 -0.1814  0.3785
 6576SOL    HW226070   0.613   3.642   1.788 -0.3152  0.4290  0.7093
 6576SOL    HW326071   0.552   3.635   1.650  0.2412  0.1075  0.4737
 6576SOL    MW426072   0.547   3.621   1.736 -0.2948  0.1474  0.2489
 6577SOL     OW26073   1.036   3.683   1.438  0.1710 -0.1290  0.0778
 6577SOL    HW226074   1.098   3.736   1.387 -0.6866  1.5081  0.6503
 6577SOL    HW326075   0.997   3.623   1.375  1.3209 -0.2166 -0.5614
 6577SOL    MW426076   1.039   3.682   1.423  0.6015 -0.1560  0.5194
 6578SOL     OW26077   3.400   2.469   6.272  0.4414 -0.0739  0.0313
 6578SOL    HW226078   3.453   2.543   6.300 -0.5070  0.1887  1.2157
 6578SOL    HW326079   3.360   2.497   6.189 -0.2044  0.8990  0.6558
 6578SOL    MW426080   3.401   2.482   6.264  0.0318 -0.1797  0.1595
 6579SOL     OW26081   1.348   5.299   4.029  0.0917 -0.2115  0.3284
 6579SOL    HW226082   1.396   5.256   4.100  0.0805  0.8828  1.0196
 6579SOL    HW326083   1.293   5.229   3.992  0.4306 -0.9037  1.0898
 6579SOL    MW426084   1.347   5.284   4.034  0.5778 -0.0256 -0.5727
 6580SOL     OW26085   3.378   5.950   5.955 -0.6280 -0.7993  0.1010
 6580SOL    HW226086   3.349   5.929   6.044  0.3619 -2.1512  0.1374
 6580SOL    HW326087   3.343   5.879   5.901  2.5214 -2.5798  0.1695
 6580SOL    MW426088   3.370   5.938   5.960  0.7949  0.4346  0.8889
 6581SOL     OW26089   3.604   4.123   1.005 -0.0317 -0.1241 -0.0041
 6581SOL    HW226090   3.604   4.212   0.970  0.5444  0.2596  0.9372
 6581SOL    HW326091   3.696   4.095   0.999  0.0199 -0.1627  0.9193
 6581SOL    MW426092   3.616   4.131   0.999  0.4261 -0.2024 -0.1286
 6582SOL     OW26093   6.214   0.787   1.686 -0.3947 -0.1006  0.3718
 6582SOL    HW226094   6.150   0.720   1.661 -1.0872  1.0015 -0.8980
 6582SOL    HW326095   6.164   0.868   1.690  0.5722  0.4740  1.2306
 6582SOL    MW426096   6.199   0.789   1.683  0.0018  0.0008 -0.2956
 6583SOL     OW26097   3.483   0.222   5.961  0.3104  0.2957 -0.1357
 6583SOL    HW226098   3.473   0.289   6.029 -0.3458  1.3089 -1.1944
 6583SOL    HW326099   3.570   0.186   5.975  0.2409  0.5735  1.1433
 6583SOL    MW426100   3.493   0.226   5.972  0.5469  0.4006 -0.5939
 6584SOL     OW26101   5.370   3.204   2.319 -0.3040  0.4199  0.5170
 6584SOL    HW226102   5.326   3.142   2.376  0.0742 -0.9435 -0.6010
 6584SOL    HW326103   5.367   3.287   2.366 -1.3724 -0.3047  1.7868
 6584SOL    MW426104   5.364   3.207   2.333 -0.3075 -0.1499  0.7304
 6585SOL     OW26105   1.078   2.347   1.197 -0.3219  0.0025  0.3982
 6585SOL    HW226106   1.036   2.314   1.276  1.3984 -0.9077  0.9821
 6585SOL    HW326107   1.056   2.283   1.129  1.7381 -1.6493  1.1772
 6585SOL    MW426108   1.070   2.334   1.199  0.5872 -0.7041 -0.5323
 6586SOL     OW26109   4.974   4.192   3.222  0.0158 -0.3313  0.3554
 6586SOL    HW226110   4.995   4.119   3.281 -0.0961 -0.4404  0.2612
 6586SOL    HW326111   4.882   4.211   3.238 -0.0962 -0.5602  0.0015
 6586SOL    MW426112   4.965   4.185   3.232  0.6216 -0.1508  0.6951
 6587SOL     OW26113   3.839   2.361   1.685 -0.5416 -0.1980  0.2723
 6587SOL    HW226114   3.831   2.291   1.750 -1.6803  1.3104  1.8601
 6587SOL    HW326115   3.907   2.330   1.625 -0.7761 -2.4945  1.0744
 6587SOL    MW426116   3.847   2.348   1.686 -0.4063  0.1089 -0.2219
 6588SOL     OW26117   3.449   3.136   0.521  0.0810  0.7881 -0.2013
 6588SOL    HW226118   3.464   3.044   0.545  0.0974  0.8480  0.0183
 6588SOL    HW326119   3.371   3.133   0.465 -1.3656  0.8841  1.7026
 6588SOL    MW426120   3.440   3.123   0.517 -0.4315 -0.1711 -0.1714
 6589SOL     OW26121   0.683   6.114   0.458 -0.0252 -0.1421  0.1954
 6589SOL    HW226122   0.678   6.181   0.390  1.0978  0.0062  0.2440
 6589SOL    HW326123   0.771   6.077   0.449 -0.7965 -1.9873 -0.1641
 6589SOL    MW426124   0.694   6.118   0.448  0.2626  0.3774 -0.0346
 6590SOL     OW26125   4.805   6.170   4.093  0.3076 -0.1475  0.0159
 6590SOL    HW226126   4.809   6.239   4.159 -0.1892 -0.0778 -0.0241
 6590SOL    HW326127   4.886   6.179   4.043  0.9577 -0.5441  0.9621
 6590SOL    MW426128   4.816   6.180   4.095 -0.4573 -0.1527  0.3649
 6591SOL     OW26129   0.712   4.234   1.346  0.1542  0.1264 -0.5766
 6591SOL    HW226130   0.639   4.294   1.366  0.2786 -0.4658  2.0212
 6591SOL    HW326131   0.671   4.149   1.333  0.3209 -0.2015  0.8562
 6591SOL    MW426132   0.697   4.231   1.347  0.4233 -0.0302 -0.1459
 6592SOL     OW26133   3.509   1.556   4.856 -0.0080 -0.8752  0.1318
 6592SOL    HW226134   3.557   1.611   4.795  1.3112 -2.8498 -0.7394
 6592SOL    HW326135   3.429   1.605   4.876 -1.0917 -0.5184 -4.0782
 6592SOL    MW426136   3.504   1.569   4.851  0.4548 -0.0651 -0.8371
 6593SOL     OW26137   2.086   4.193   3.158  0.3183  0.3384 -0.3730
 6593SOL    HW226138   2.061   4.146   3.238 -0.8738  1.8401  0.1730
 6593SOL    HW326139   2.176   4.221   3.174 -0.6067  2.5642  1.4741
 6593SOL    MW426140   2.095   4.190   3.171 -0.4945  0.4803 -0.1928
 6594SOL     OW26141   2.996   0.445   0.311 -0.1399  0.2081 -0.0059
 6594SOL    HW226142   2.930   0.379   0.333 -0.1931  0.4255  0.4997
 6594SOL    HW326143   3.013   0.432   0.217  0.1605 -0.7949  0.1801
 6594SOL    MW426144   2.990   0.435   0.301 -0.3712  0.2656  0.1590
 6595SOL     OW26145   6.124   5.229   5.953 -0.6232 -0.4476  0.6598
 6595SOL    HW226146   6.204   5.280   5.968 -0.0813 -0.8452 -0.7565
 6595SOL    HW326147   6.075   5.237   6.035  0.5919  0.2943  1.3415
 6595SOL    MW426148   6.128   5.237   5.966 -0.3015  0.5114  0.0729
 6596SOL     OW26149   5.676   4.789   3.172 -0.5937  0.0670 -0.4577
 6596SOL    HW226150   5.719   4.793   3.087 -1.5776 -0.8158 -1.0186
 6596SOL    HW326151   5.711   4.864   3.220  0.8355 -0.0681 -1.2127
 6596SOL    MW426152   5.687   4.799   3.167  0.4908  0.2198 -0.4627
 6597SOL     OW26153   5.832   3.855   5.976 -0.4563 -0.1744  0.1104
 6597SOL    HW226154   5.883   3.933   5.996 -1.6905  0.3803  1.2497
 6597SOL    HW326155   5.835   3.803   6.057 -2.4145  0.3098  0.5602
 6597SOL    MW426156   5.839   3.858   5.990  0.1108 -0.0879 -0.0277
 6598SOL     OW26157   0.086   1.145   0.818  0.0365  0.2952 -0.1759
 6598SOL    HW226158   0.003   1.100   0.833 -0.5153  1.0153 -0.9597
 6598SOL    HW326159   0.066   1.238   0.834  1.2548  0.2606  1.8423
 6598SOL    MW426160   0.072   1.152   0.822 -0.3339 -0.4391 -0.4268
 6599SOL     OW26161   6.199   5.932   2.575  0.1181  0.1765 -0.2305
 6599SOL    HW226162   6.162   5.857   2.528 -1.4612  0.5664  0.3173
 6599SOL    HW326163   6.239   5.893   2.653 -1.9737 -0.0299  0.8138
 6599SOL    MW426164   6.199   5.917   2.579 -0.4334  0.5614  0.1250
 6600SOL     OW26165   0.240   2.741   3.238  0.3077 -0.2699  0.0972
 6600SOL    HW226166   0.230   2.648   3.260 -1.6671 -0.6900 -2.1843
 6600SOL    HW326167   0.321   2.746   3.189 -0.0455 -0.9903 -0.5778
 6600SOL    MW426168   0.249   2.730   3.235 -0.1231 -0.0710 -0.0308
 6601SOL     OW26169   0.503   2.928   2.280 -0.6890 -0.4316  0.0758
 6601SOL    HW226170   0.448   2.978   2.340 -0.2166 -0.3917  0.4776
 6601SOL    HW326171   0.545   2.995   2.226 -1.2125 -0.4730 -0.3960
 6601SOL    MW426172   0.501   2.944   2.281 -0.6998  0.3541 -0.4162
 6602SOL     OW26173   3.192   5.696   3.454 -0.2315 -0.0587 -0.8800
 6602SOL    HW226174   3.225   5.625   3.509 -1.2210 -0.2719 -0.5467
 6602SOL    HW326175   3.241   5.773   3.483 -0.8439 -0.1292  0.4328
 6602SOL    MW426176   3.203   5.697   3.465 -0.1233  0.0964  0.1591
 6603SOL     OW26177   2.950   4.778   3.465  0.0180  0.7507  0.3078
 6603SOL    HW226178   2.924   4.792   3.374  1.5749 -1.1838 -0.4879
 6603SOL    HW326179   2.867   4.770   3.512 -0.8817 -1.0762 -1.4479
 6603SOL    MW426180   2.935   4.779   3.459 -0.1959  0.3305 -0.4846
 6604SOL     OW26181   5.253   4.701   2.391 -0.3321  1.0143  0.5757
 6604SOL    HW226182   5.307   4.629   2.422 -0.1523 -1.0475 -3.6915
 6604SOL    HW326183   5.316   4.767   2.363 -0.1020  0.2031 -0.9406
 6604SOL    MW426184   5.268   4.700   2.391  0.1457  0.3606 -0.1471
 6605SOL     OW26185   0.621   4.052   5.431  0.3022  0.5959 -0.4646
 6605SOL    HW226186   0.652   4.140   5.452 -1.8830  1.2317  0.3734
 6605SOL    HW326187   0.619   4.050   5.335 -0.4317  1.8209 -0.5125
 6605SOL    MW426188   0.625   4.064   5.421 -0.2094  0.6631  0.3446
 6606SOL     OW26189   3.775   1.257   5.229  0.0016  0.2725 -0.1946
 6606SOL    HW226190   3.701   1.251   5.168  0.3295  2.9429 -0.9846
 6606SOL    HW326191   3.763   1.341   5.272  0.0962 -1.2836  3.1643
 6606SOL    MW426192   3.763   1.267   5.227  0.5840  0.0473 -0.5685
 6607SOL     OW26193   1.509   0.698   5.879 -0.4629 -0.0754 -0.5008
 6607SOL    HW226194   1.584   0.736   5.834  0.5135  1.8311  2.4233
 6607SOL    HW326195   1.531   0.705   5.972 -3.4660 -1.2262  0.4215
 6607SOL    MW426196   1.522   0.704   5.886 -0.2222  0.1672  0.1705
 6608SOL     OW26197   5.848   6.119   4.259 -0.2350  0.0871  0.0850
 6608SOL    HW226198   5.875   6.097   4.170 -0.9582  2.0945 -0.6652
 6608SOL    HW326199   5.755   6.098   4.262 -0.6342  1.7205 -0.2354
 6608SOL    MW426200   5.840   6.113   4.248 -0.5867 -0.1301  0.0901
 6609SOL     OW26201   4.775   3.817   5.863 -0.2016 -0.3509  0.4086
 6609SOL    HW226202   4.733   3.831   5.778  0.4313  2.4678  0.4539
 6609SOL    HW326203   4.861   3.782   5.842 -0.3675 -0.4884 -0.0571
 6609SOL    MW426204   4.781   3.814   5.849  0.0361 -0.0821  0.2706
 6610SOL     OW26205   3.539   5.002   4.576  0.2032 -0.6768 -0.0206
 6610SOL    HW226206   3.453   4.977   4.543 -1.4023  0.3517  2.9747
 6610SOL    HW326207   3.579   4.920   4.605 -0.3028 -1.0247 -0.2914
 6610SOL    MW426208   3.533   4.988   4.576 -0.0898  0.0904  0.5446
 6611SOL     OW26209   2.852   6.370   0.773 -0.1630  0.0050 -0.1001
 6611SOL    HW226210   2.858   6.442   0.836  0.5089 -0.8191  0.8222
 6611SOL    HW326211   2.773   6.322   0.800  0.7913 -1.0532  0.9364
 6611SOL    MW426212   2.842   6.373   0.785 -0.0896  0.0381 -0.3994
 6612SOL     OW26213   0.485   2.726   3.118 -0.3059  0.2901  0.1897
 6612SOL    HW226214   0.505   2.809   3.075 -0.6834  0.5621  0.5303
 6612SOL    HW326215   0.465   2.666   3.046 -1.2196  0.8184 -0.0161
 6612SOL    MW426216   0.485   2.729   3.102  0.3797  0.3735  0.5109
 6613SOL     OW26217   0.018   3.452   3.431 -0.3809 -0.8977 -0.8112
 6613SOL    HW226218   0.043   3.496   3.512 -3.4433  1.9167 -1.1989
 6613SOL    HW326219   0.092   3.466   3.372  1.1534 -1.4547  0.8832
 6613SOL    MW426220   0.031   3.460   3.434  0.1260  0.8186  0.9022
 6614SOL     OW26221   5.918   2.477   0.249 -0.3643  0.2872 -0.2993
 6614SOL    HW226222   5.894   2.549   0.191 -0.1589  0.8618  0.3132
 6614SOL    HW326223   5.869   2.402   0.217 -1.5429  0.9928 -0.1945
 6614SOL    MW426224   5.909   2.477   0.237  0.5906 -0.0809 -0.3137
 6615SOL     OW26225   1.719   0.414   1.502  0.3175  0.5855  0.3369
 6615SOL    HW226226   1.742   0.495   1.455 -0.6839  0.0880 -1.0763
 6615SOL    HW326227   1.640   0.436   1.550  2.0828  1.5108  3.0615
 6615SOL    MW426228   1.712   0.428   1.502  0.4627 -0.2221  0.2296
 6616SOL     OW26229   0.669   5.471   2.006  0.3663  0.0169  0.4679
 6616SOL    HW226230   0.701   5.409   1.940 -0.8102  0.7605 -0.8707
 6616SOL    HW326231   0.728   5.459   2.080  3.1515  0.6500 -1.4724
 6616SOL    MW426232   0.681   5.461   2.007 -0.2756  0.1906  0.1394
 6617SOL     OW26233   5.849   4.785   2.582 -0.0715 -0.1363  0.6003
 6617SOL    HW226234   5.828   4.694   2.601  0.6536 -0.7562 -1.3517
 6617SOL    HW326235   5.945   4.787   2.577 -0.1497  0.2839 -1.3024
 6617SOL    MW426236   5.859   4.773   2.584 -0.4371 -0.0964  0.6394
 6618SOL     OW26237   4.387   2.439   0.739  0.6984 -0.0549 -0.2475
 6618SOL    HW226238   4.304   2.487   0.742  0.9059  0.4881 -2.0671
 6618SOL    HW326239   4.433   2.467   0.818  0.5674  2.3725 -0.9319
 6618SOL    MW426240   4.382   2.449   0.750  0.1844  0.2477 -0.1133
 6619SOL     OW26241   3.971   4.619   4.202  0.6237 -0.4759 -0.6579
 6619SOL    HW226242   3.980   4.713   4.216  2.9538 -0.7811  0.3209
 6619SOL    HW326243   3.923   4.588   4.278  2.0219 -0.3652  0.3121
 6619SOL    MW426244   3.966   4.627   4.214 -0.0672  0.3456 -0.3205
 6620SOL     OW26245   4.408   3.845   1.908  0.0879  0.1511 -0.1400
 6620SOL    HW226246   4.331   3.891   1.873  0.2176  1.4232  1.1456
 6620SOL    HW326247   4.438   3.791   1.835 -3.8132 -2.8656  0.1279
 6620SOL    MW426248   4.401   3.844   1.893  0.6208  0.2763 -0.4221
 6621SOL     OW26249   2.633   5.487   2.199  0.1536 -0.3267 -0.1845
 6621SOL    HW226250   2.711   5.449   2.157  0.4822 -0.7365  0.7428
 6621SOL    HW326251   2.648   5.581   2.197  0.1095 -0.3326 -1.0661
 6621SOL    MW426252   2.646   5.494   2.193 -0.6655  0.2780  0.4986
 6622SOL     OW26253   2.203   3.203   1.943 -0.2370  0.0806  0.2549
 6622SOL    HW226254   2.214   3.268   2.012 -0.9595  0.2731  0.1921
 6622SOL    HW326255   2.123   3.155   1.966 -0.3822  0.0209 -0.3419
 6622SOL    MW426256   2.194   3.205   1.955  0.0593 -0.0147 -0.0703
 6623SOL     OW26257   4.905   3.832   0.546  0.3021  0.2932  0.4266
 6623SOL    HW226258   4.955   3.852   0.626  1.7504  0.6504 -0.5396
 6623SOL    HW326259   4.969   3.838   0.475 -0.8937 -0.3253 -0.7461
 6623SOL    MW426260   4.920   3.835   0.547 -0.1974  0.2066 -0.5829
 6624SOL     OW26261   0.482   0.337   0.297  0.3243  0.2034  0.2901
 6624SOL    HW226262   0.496   0.269   0.362  0.0117  1.6590  1.9699
 6624SOL    HW326263   0.414   0.393   0.335  1.3542  2.0626 -0.4661
 6624SOL    MW426264   0.475   0.336   0.311 -0.3247  0.6021  0.2907
 6625SOL     OW26265   4.020   6.338   5.599 -0.4382 -0.8246 -0.0792
 6625SOL    HW226266   3.981   6.268   5.652 -2.3909  1.3830  1.5813
 6625SOL    HW326267   4.065   6.394   5.662  2.2502 -1.1570 -1.5279
 6625SOL    MW426268   4.021   6.336   5.614 -0.4014 -0.4752  0.4382
 6626SOL     OW26269   3.821   4.311   2.966  0.2154  0.2458 -0.3806
 6626SOL    HW226270   3.833   4.405   2.956 -0.6185  0.2564 -1.4233
 6626SOL    HW326271   3.882   4.286   3.037  0.9423  1.4380 -0.5657
 6626SOL    MW426272   3.831   4.320   2.974  0.6276 -0.6627  0.0338
 6627SOL     OW26273   1.595   5.498   3.466  0.6593  0.1870  0.2473
 6627SOL    HW226274   1.678   5.520   3.508  0.8864  0.3046 -0.2535
 6627SOL    HW326275   1.547   5.580   3.462  0.5655  0.1417  0.4324
 6627SOL    MW426276   1.600   5.511   3.471 -0.0369  0.4889  0.6362
 6628SOL     OW26277   6.390   3.957   1.513  0.3139  0.2230  0.2085
 6628SOL    HW226278   6.485   3.952   1.506  0.1912 -1.4587 -1.1657
 6628SOL    HW326279   6.366   3.881   1.566 -0.2809  0.2789  0.0273
 6628SOL    MW426280   6.399   3.946   1.519  0.0972 -0.4975  0.7247
 6629SOL     OW26281   0.562   6.352   1.112 -0.3842  0.2969  0.1943
 6629SOL    HW226282   0.639   6.298   1.129 -0.9466 -0.3355  0.7597
 6629SOL    HW326283   0.577   6.432   1.163  0.6296  0.8734 -0.9504
 6629SOL    MW426284   0.574   6.355   1.121  0.4355  0.3874  0.0296
 6630SOL     OW26285   6.278   4.620   0.322 -0.2755  0.6021  0.0821
 6630SOL    HW226286   6.328   4.577   0.392 -0.8381  0.9672  0.7219
 6630SOL    HW326287   6.290   4.714   0.338  0.2851  0.6910 -0.8244
 6630SOL    MW426288   6.286   4.627   0.334  0.1251  0.3753  0.3201
 6631SOL     OW26289   1.502   3.178   2.229 -0.1128 -0.5725 -0.4623
 6631SOL    HW226290   1.491   3.083   2.220  1.5780 -0.9841  1.2628
 6631SOL    HW326291   1.553   3.203   2.151 -1.0627 -0.9421 -1.2282
 6631SOL    MW426292   1.508   3.169   2.217 -0.3601  0.1950 -0.6893
 6632SOL     OW26293   1.416   3.620   0.369  0.1042 -0.0190 -0.3581
 6632SOL    HW226294   1.338   3.643   0.421 -0.9797 -4.3321  0.3539
 6632SOL    HW326295   1.381   3.596   0.284  0.9271 -0.0465 -0.6936
 6632SOL    MW426296   1.401   3.620   0.365  0.2019 -0.3592 -0.1928
 6633SOL     OW26297   0.534   4.786   1.814  0.3565 -0.3862  0.0016
 6633SOL    HW226298   0.447   4.766   1.847  0.1131  1.7557  0.8704
 6633SOL    HW326299   0.524   4.793   1.720 -0.6329  0.6255  0.1600
 6633SOL    MW426300   0.521   4.785   1.806 -0.0999 -0.3317 -0.0624
 6634SOL     OW26301   1.015   2.788   1.314  0.3109 -0.5154 -0.6216
 6634SOL    HW226302   1.105   2.793   1.283 -0.0850 -1.1466 -1.9504
 6634SOL    HW326303   1.013   2.710   1.370  0.9509  0.4278  0.7504
 6634SOL    MW426304   1.027   2.778   1.317  0.0883 -0.3897 -0.1981
 6635SOL     OW26305   0.891   0.851   4.419 -0.1272 -0.6103  0.7662
 6635SOL    HW226306   0.837   0.796   4.362 -1.0941  0.9879  0.0493
 6635SOL    HW326307   0.981   0.836   4.389 -0.4144 -1.4693  0.3111
 6635SOL    MW426308   0.896   0.842   4.408  0.0749  0.2324 -0.1955
 6636SOL     OW26309   1.662   4.189   4.262 -0.0140 -0.4407 -0.5624
 6636SOL    HW226310   1.739   4.154   4.306 -1.1846 -0.8272  1.2607
 6636SOL    HW326311   1.601   4.116   4.257 -1.3849  0.5546  0.7123
 6636SOL    MW426312   1.664   4.175   4.267 -0.9242  0.3975 -0.0595
 6637SOL     OW26313   4.021   5.577   1.875  0.5670  0.6143  0.1644
 6637SOL    HW226314   3.957   5.634   1.833 -0.6119 -1.3737 -0.8776
 6637SOL    HW326315   4.002   5.584   1.969 -0.9451  0.3512 -0.1003
 6637SOL    MW426316   4.010   5.585   1.882 -0.2116 -0.1639 -0.0024
 6638SOL     OW26317   4.494   5.491   1.380 -0.5394 -0.3794 -0.4935
 6638SOL    HW226318   4.526   5.523   1.296 -0.1307  0.1371 -0.1538
 6638SOL    HW326319   4.526   5.401   1.386 -0.5016 -0.3916 -0.8540
 6638SOL    MW426320   4.502   5.484   1.370  0.1104 -0.0256 -0.0022
 6639SOL     OW26321   2.010   4.851   4.766  0.1763 -0.0151 -0.1500
 6639SOL    HW226322   2.065   4.928   4.756 -0.1316  0.1233 -0.8749
 6639SOL    HW326323   2.068   4.777   4.747  0.5667  0.0006  0.9165
 6639SOL    MW426324   2.025   4.851   4.762 -0.4886 -0.3632 -0.4206
 6640SOL     OW26325   1.715   3.763   2.832  0.9312  0.0981 -0.4981
 6640SOL    HW226326   1.753   3.698   2.772  3.1949  1.5285 -0.7481
 6640SOL    HW326327   1.715   3.844   2.781 -0.1503  0.6793  0.3976
 6640SOL    MW426328   1.720   3.765   2.817  0.2514  0.4362 -0.3989
 6641SOL     OW26329   2.541   3.398   6.281  0.1015 -0.1457 -0.5663
 6641SOL    HW226330   2.596   3.401   6.359  1.3168  0.4574 -1.4216
 6641SOL    HW326331   2.576   3.324   6.230 -1.0704 -0.9229 -0.2867
 6641SOL    MW426332   2.553   3.389   6.285 -0.1825  1.2150  0.2422
 6642SOL     OW26333   3.030   1.675   2.201  0.1907  0.4331 -0.6663
 6642SOL    HW226334   2.979   1.644   2.126 -0.9382  0.3579  0.1057
 6642SOL    HW326335   3.059   1.594   2.244 -0.3577  0.4554 -0.2427
 6642SOL    MW426336   3.027   1.660   2.196  0.3597 -0.3581 -0.1102
 6643SOL     OW26337   0.207   3.783   2.651  0.4048  0.1630  0.2564
 6643SOL    HW226338   0.175   3.706   2.699  0.5352  0.0156  0.1094
 6643SOL    HW326339   0.282   3.813   2.702  1.3143 -0.7342 -0.5070
 6643SOL    MW426340   0.213   3.777   2.664 -0.4925 -0.7235 -0.2221
 6644SOL     OW26341   6.113   5.839   5.105  0.3417  0.0152  0.5228
 6644SOL    HW226342   6.158   5.800   5.180  0.1887 -0.5144  0.3456
 6644SOL    HW326343   6.152   5.795   5.029 -1.1750 -1.2146  0.4040
 6644SOL    MW426344   6.124   5.828   5.105  0.1127 -0.4317  0.0926
 6645SOL     OW26345   1.147   5.269   2.597 -0.5832 -0.1007 -0.3245
 6645SOL    HW226346   1.061   5.288   2.560 -0.9609  0.1950  0.6990
 6645SOL    HW326347   1.177   5.352   2.633  0.1096 -0.2164 -0.6179
 6645SOL    MW426348   1.140   5.282   2.597  0.1228 -0.3559  0.1155
 6646SOL     OW26349   2.567   5.472   0.645  0.7087  0.1689 -0.7035
 6646SOL    HW226350   2.529   5.552   0.610  1.1553  1.2871  1.2252
 6646SOL    HW326351   2.605   5.428   0.569 -2.1068  0.2467 -2.3020
 6646SOL    MW426352   2.567   5.476   0.631  0.5141  0.2959 -0.6921
 6647SOL     OW26353   1.467   6.048   2.830  0.0844 -0.2490  0.2858
 6647SOL    HW226354   1.556   6.071   2.801  0.0104 -0.0530  0.2080
 6647SOL    HW326355   1.428   6.132   2.855 -1.2123  0.2433 -2.8152
 6647SOL    MW426356   1.474   6.062   2.829  0.4412  0.3922  0.2269
 6648SOL     OW26357   1.047   0.594   2.596 -0.2157 -0.0028  0.3455
 6648SOL    HW226358   0.979   0.545   2.550  0.6393 -0.5751 -0.3345
 6648SOL    HW326359   1.059   0.546   2.678 -0.9349  0.3631  0.6785
 6648SOL    MW426360   1.039   0.581   2.601  0.6363 -0.0924 -0.8848
 6649SOL     OW26361   2.686   1.613   6.024  0.5788  0.4674  0.0197
 6649SOL    HW226362   2.620   1.561   6.070  1.0431 -0.9212 -0.8189
 6649SOL    HW326363   2.655   1.617   5.934  1.0107  0.8752 -0.1136
 6649SOL    MW426364   2.674   1.607   6.018  0.2884 -0.7563 -0.7003
 6650SOL     OW26365   6.117   5.988   5.686 -0.0370 -0.4810  0.4528
 6650SOL    HW226366   6.175   6.022   5.754 -0.9882  0.3961  0.8615
 6650SOL    HW326367   6.135   6.042   5.610 -2.4803  2.0220  1.4689
 6650SOL    MW426368   6.127   6.000   5.685 -0.0116  0.0455  0.2462
 6651SOL     OW26369   4.548   2.301   5.189  0.4794  0.6313  0.2420
 6651SOL    HW226370   4.489   2.231   5.220  1.0005 -0.1761 -0.5333
 6651SOL    HW326371   4.490   2.375   5.173 -0.0910  0.3901  1.0863
 6651SOL    MW426372   4.533   2.301   5.191  0.6280  0.3366 -0.3243
 6652SOL     OW26373   0.658   2.360   5.816  0.7173 -0.0839  0.0699
 6652SOL    HW226374   0.633   2.296   5.883  1.7281 -0.5470  0.0248
 6652SOL    HW326375   0.739   2.326   5.779  1.1291  1.0788 -0.1582
 6652SOL    MW426376   0.665   2.347   5.820 -0.1329  0.6126  0.0013
 6653SOL     OW26377   3.085   2.817   2.259 -0.3132  0.4846 -0.0055
 6653SOL    HW226378   3.033   2.887   2.221 -0.7499 -0.8277 -1.9398
 6653SOL    HW326379   3.096   2.753   2.188  2.0238 -0.3385  0.9989
 6653SOL    MW426380   3.080   2.818   2.245  0.2048  0.1455 -0.1841
 6654SOL     OW26381   3.954   2.366   5.449 -0.4773  0.4797  0.1343
 6654SOL    HW226382   4.022   2.375   5.516 -0.6956 -2.2873  0.8735
 6654SOL    HW326383   4.001   2.366   5.366  0.4851 -1.2593  0.6263
 6654SOL    MW426384   3.969   2.367   5.447  0.3747 -0.1865 -0.5058
 6655SOL     OW26385   4.436   2.057   1.236  0.4645 -0.4261  0.5643
 6655SOL    HW226386   4.342   2.037   1.233  0.6912 -1.6852 -2.4321
 6655SOL    HW326387   4.477   1.977   1.268  0.6896 -1.5283 -2.1525
 6655SOL    MW426388   4.429   2.044   1.240 -0.0714 -0.0762 -0.3106
 6656SOL     OW26389   0.931   4.009   5.662  0.3528  0.2214 -0.1237
 6656SOL    HW226390   0.855   3.969   5.704 -0.4530  1.1637 -0.6169
 6656SOL    HW326391   0.914   4.103   5.670  0.9972  0.4266 -1.0849
 6656SOL    MW426392   0.918   4.016   5.668  0.1069 -0.2176  0.0438
 6657SOL     OW26393   0.186   2.291   0.854 -0.0360 -0.1196  0.0389
 6657SOL    HW226394   0.233   2.208   0.865 -0.3321 -0.3746 -0.6035
 6657SOL    HW326395   0.174   2.299   0.760 -3.1958 -1.1593  0.2306
 6657SOL    MW426396   0.191   2.281   0.843 -0.3503  0.3015  0.4495
 6658SOL     OW26397   1.239   3.432   3.325  0.4049  0.3405 -0.2949
 6658SOL    HW226398   1.190   3.410   3.246  1.7276  0.3199 -1.1500
 6658SOL    HW326399   1.192   3.507   3.362 -1.0697 -0.5671 -0.2771
 6658SOL    MW426400   1.226   3.439   3.320 -0.3184 -0.2412  0.0628
 6659SOL     OW26401   1.574   2.368   1.828  0.3648 -0.1268  0.5501
 6659SOL    HW226402   1.497   2.318   1.856  1.8121 -2.4085  0.6663
 6659SOL    HW326403   1.537   2.450   1.793 -2.0405 -0.7904  1.3057
 6659SOL    MW426404   1.559   2.373   1.827 -0.1342 -0.2899  0.5027
 6660SOL     OW26405   5.735   3.754   5.445  0.7036  0.4298  0.5146
 6660SOL    HW226406   5.671   3.804   5.393 -0.2502 -1.0973  0.1597
 6660SOL    HW326407   5.815   3.806   5.440  0.2782  0.9843 -1.4114
 6660SOL    MW426408   5.737   3.767   5.437  0.1548 -0.0402  0.4002
 6661SOL     OW26409   2.033   5.852   0.838 -0.1863 -0.0021  0.0925
 6661SOL    HW226410   2.028   5.902   0.757 -1.7029  1.0541  0.7827
 6661SOL    HW326411   2.108   5.794   0.826  1.5902  2.3235 -0.8238
 6661SOL    MW426412   2.042   5.851   0.826  0.7198 -0.2323 -0.4281
 6662SOL     OW26413   1.570   5.827   5.153  0.1990  0.8138  0.3545
 6662SOL    HW226414   1.498   5.789   5.204  1.0734 -0.1217  0.9128
 6662SOL    HW326415   1.629   5.754   5.137  0.9803  1.5526 -0.1987
 6662SOL    MW426416   1.568   5.813   5.157 -0.1471 -0.4842 -0.5389
 6663SOL     OW26417   1.633   0.055   3.040 -0.2017  0.0467  0.0628
 6663SOL    HW226418   1.560  -0.002   3.064 -0.8330 -0.7232 -3.2663
 6663SOL    HW326419   1.679   0.008   2.970  2.6457  1.1952  1.0018
 6663SOL    MW426420   1.630   0.042   3.034 -0.3994 -0.0312 -0.0930
 6664SOL     OW26421   0.872   4.737   4.583 -0.2217  0.0232 -0.5946
 6664SOL    HW226422   0.880   4.645   4.609  0.8008 -0.0819 -1.2500
 6664SOL    HW326423   0.933   4.783   4.640 -0.7483  0.3106 -0.2547
 6664SOL    MW426424   0.881   4.731   4.594  0.4329  0.1410  0.9983
 6665SOL     OW26425   2.406   2.873   0.938 -0.0440  0.0038 -0.2373
 6665SOL    HW226426   2.495   2.881   0.972  0.7209 -0.8342 -1.9401
 6665SOL    HW326427   2.379   2.785   0.963 -0.7386  0.5125  0.9385
 6665SOL    MW426428   2.414   2.863   0.946  0.8126  0.6254 -0.1687
 6666SOL     OW26429   5.521   6.027   2.093 -0.2129 -0.5719  0.1170
 6666SOL    HW226430   5.523   5.997   2.184  0.8454  0.0452  0.3216
 6666SOL    HW326431   5.605   5.999   2.057  1.2389  2.7416  0.5747
 6666SOL    MW426432   5.533   6.019   2.101  0.0540 -0.2787  0.4867
 6667SOL     OW26433   5.626   1.279   2.392  0.5358 -0.3171  0.0241
 6667SOL    HW226434   5.717   1.262   2.413  0.7221  0.7571  0.1401
 6667SOL    HW326435   5.617   1.374   2.398  0.0103 -0.1298 -2.3573
 6667SOL    MW426436   5.637   1.290   2.395 -0.4368 -0.3513 -0.6138
 6668SOL     OW26437   6.283   4.733   6.205  0.2233 -0.2068 -0.1619
 6668SOL    HW226438   6.225   4.691   6.269  1.5214 -0.1634  1.0978
 6668SOL    HW326439   6.295   4.821   6.239  1.5386 -0.4228 -0.0300
 6668SOL    MW426440   6.277   4.739   6.218 -0.0240 -0.2378 -0.1294
 6669SOL     OW26441   3.432   3.340   1.597  0.1639  0.6952 -0.3203
 6669SOL    HW226442   3.373   3.321   1.670  0.1532  0.8458 -0.2899
 6669SOL    HW326443   3.410   3.274   1.531  0.2683  0.4741 -0.1347
 6669SOL    MW426444   3.421   3.329   1.598  0.2615  0.0261  0.4183
 6670SOL     OW26445   3.981   5.214   4.618  0.6916 -0.2066 -0.0367
 6670SOL    HW226446   3.992   5.128   4.658  0.2746  0.2181  1.0219
 6670SOL    HW326447   3.952   5.270   4.689  0.5040  0.7143 -0.8182
 6670SOL    MW426448   3.979   5.210   4.632 -0.0888 -0.0977  0.0994
 6671SOL     OW26449   4.334   0.756   0.386  0.2613 -0.3085  0.4954
 6671SOL    HW226450   4.380   0.834   0.418  1.4903 -0.5765 -0.5342
 6671SOL    HW326451   4.394   0.684   0.405 -0.3800 -0.8671  0.4339
 6671SOL    MW426452   4.348   0.757   0.393 -0.2286  0.3236 -0.2734
 6672SOL     OW26453   5.254   3.843   0.259  0.2790  0.0799 -0.1061
 6672SOL    HW226454   5.213   3.774   0.311 -0.2031  0.5215  0.1093
 6672SOL    HW326455   5.192   3.860   0.188  1.1983 -0.9339 -1.1933
 6672SOL    MW426456   5.240   3.837   0.256 -0.0010  0.1382  0.1674
 6673SOL     OW26457   4.968   5.813   1.289  0.0165 -0.4016  0.0496
 6673SOL    HW226458   4.905   5.868   1.334  0.5868 -0.0263  0.4080
 6673SOL    HW326459   5.045   5.869   1.277  0.1782 -0.7558 -0.6406
 6673SOL    MW426460   4.970   5.827   1.294 -0.7402 -0.1782  0.5065
 6674SOL     OW26461   3.898   3.557   2.203 -0.6376  0.4960 -0.2046
 6674SOL    HW226462   3.973   3.568   2.144 -0.3464 -0.3532 -0.0049
 6674SOL    HW326463   3.840   3.495   2.157 -0.2027 -0.5203  0.5729
 6674SOL    MW426464   3.900   3.550   2.189  0.2387 -0.5624 -0.4902
 6675SOL     OW26465   6.113   3.742   0.075 -0.0979  0.0889 -0.3077
 6675SOL    HW226466   6.031   3.722   0.120 -0.7669  0.3466 -1.3812
 6675SOL    HW326467   6.181   3.721   0.139 -1.0187  0.6042  0.8760
 6675SOL    MW426468   6.111   3.737   0.089  0.0470 -0.2268 -0.2110
 6676SOL     OW26469   4.580   0.238   4.218 -0.4649 -0.8121  0.4472
 6676SOL    HW226470   4.592   0.286   4.299 -3.2119  0.1945  0.3762
 6676SOL    HW326471   4.667   0.208   4.194  1.1846  2.7844  1.3321
 6676SOL    MW426472   4.593   0.240   4.225  0.0639 -0.1731 -0.2288
 6677SOL     OW26473   6.363   1.610   6.101  0.1374 -0.4055  0.3417
 6677SOL    HW226474   6.407   1.692   6.122  0.1080 -0.3695  0.2639
 6677SOL    HW326475   6.431   1.543   6.110  0.5822 -0.1986 -1.1307
 6677SOL    MW426476   6.378   1.612   6.105  0.1423 -0.0768  0.2884
 6678SOL     OW26477   6.140   6.160   0.853 -0.2921  0.3005  0.5724
 6678SOL    HW226478   6.078   6.215   0.901 -0.6797  1.6314 -1.3767
 6678SOL    HW326479   6.089   6.084   0.825 -0.0174 -0.5952  2.3261
 6678SOL    MW426480   6.125   6.157   0.856  0.0587 -0.1878 -0.2051
 6679SOL     OW26481   2.928   5.793   4.527 -0.1513  0.1164 -0.3679
 6679SOL    HW226482   2.996   5.756   4.473  0.1761  0.4326 -0.1810
 6679SOL    HW326483   2.968   5.803   4.614 -0.2254  0.8927 -0.4132
 6679SOL    MW426484   2.942   5.790   4.532  0.0409 -0.0210  0.0853
 6680SOL     OW26485   0.814   1.045   5.477 -0.3240  0.7441  0.8878
 6680SOL    HW226486   0.846   1.080   5.394  0.7171  1.1989  1.4580
 6680SOL    HW326487   0.875   1.078   5.543 -0.7409 -0.1454  1.7619
 6680SOL    MW426488   0.826   1.054   5.475 -0.9165 -0.1121 -0.1241
 6681SOL     OW26489   5.765   3.490   1.867  0.1588 -0.7095  0.3147
 6681SOL    HW226490   5.677   3.487   1.905  0.4134 -0.4154  0.9157
 6681SOL    HW326491   5.813   3.421   1.913  0.3955 -0.5190  0.3494
 6681SOL    MW426492   5.759   3.480   1.878 -0.7557  0.1463 -0.0918
 6682SOL     OW26493   3.978   5.622   6.280 -0.0634  0.0989  0.5673
 6682SOL    HW226494   3.977   5.551   6.216 -1.9826 -0.0239  0.6819
 6682SOL    HW326495   3.991   5.701   6.227 -1.8075  0.0156 -0.0435
 6682SOL    MW426496   3.979   5.623   6.265  0.1700  0.1931  0.3770
 6683SOL     OW26497   1.674   6.232   4.226 -0.5724  0.1082 -0.3097
 6683SOL    HW226498   1.581   6.226   4.204 -0.6630 -0.1073  0.1029
 6683SOL    HW326499   1.675   6.245   4.321 -0.1294 -3.4951  0.3165
 6683SOL    MW426500   1.662   6.233   4.236  0.1296 -0.5010 -0.3731
 6684SOL     OW26501   4.814   1.335   2.227 -0.2739 -0.3357  0.4389
 6684SOL    HW226502   4.751   1.407   2.228  0.4843  0.3434 -0.2085
 6684SOL    HW326503   4.818   1.306   2.319 -1.4636 -0.3401  0.4998
 6684SOL    MW426504   4.806   1.340   2.240  0.8848 -0.3926 -0.1341
 6685SOL     OW26505   3.455   1.729   5.889  0.5242  0.4571 -0.3382
 6685SOL    HW226506   3.547   1.739   5.911  0.4365 -0.5333  0.5882
 6685SOL    HW326507   3.408   1.752   5.970 -0.0746  1.2788 -0.8947
 6685SOL    MW426508   3.461   1.733   5.903  0.9619  0.1578  0.5894
 6686SOL     OW26509   2.405   1.241   2.047  0.2668 -0.7423 -0.2529
 6686SOL    HW226510   2.373   1.292   1.972  0.2554 -0.0761  0.1933
 6686SOL    HW326511   2.383   1.295   2.123  0.2793 -1.4111  0.2337
 6686SOL    MW426512   2.398   1.255   2.047  0.0398 -0.4594 -0.7033
 6687SOL     OW26513   0.957   5.832   1.775  0.2440 -0.2597  0.2243
 6687SOL    HW226514   0.976   5.922   1.749 -0.0985  0.0090  0.8864
 6687SOL    HW326515   0.868   5.835   1.811 -0.2221 -1.0777 -0.7723
 6687SOL    MW426516   0.948   5.844   1.776  0.3788 -0.1768  0.2656
 6688SOL     OW26517   3.640   6.398   1.785 -0.0316  0.0429 -0.0628
 6688SOL    HW226518   3.719   6.400   1.839  1.1675 -0.5727 -1.7020
 6688SOL    HW326519   3.660   6.334   1.716  0.1091  3.3222 -3.4143
 6688SOL    MW426520   3.653   6.390   1.783  0.7304  0.2107 -0.0387
 6689SOL     OW26521   0.821   2.205   4.149 -0.5452 -0.2146  0.4140
 6689SOL    HW226522   0.742   2.243   4.187  0.0548  0.9458  0.5395
 6689SOL    HW326523   0.799   2.192   4.057 -1.2407 -0.9361  0.6662
 6689SOL    MW426524   0.807   2.208   4.142  0.2352 -0.1288  0.1273
 6690SOL     OW26525   3.230   5.000   4.209  0.1465 -0.1322 -0.3149
 6690SOL    HW226526   3.291   4.946   4.158  0.2193 -0.4558  0.1092
 6690SOL    HW326527   3.263   5.089   4.197  1.5989 -0.4382  1.0893
 6690SOL    MW426528   3.243   5.005   4.200 -0.3807 -0.0561  0.5893
 6691SOL     OW26529   1.205   1.378   5.394  0.4562  0.0019  0.1867
 6691SOL    HW226530   1.220   1.283   5.387 -0.0562 -0.3400  2.6774
 6691SOL    HW326531   1.128   1.395   5.341 -1.4052 -1.6253  2.1931
 6691SOL    MW426532   1.197   1.368   5.386 -0.2852  0.3511  0.0723
 6692SOL     OW26533   1.144   0.660   3.344 -0.0915  0.3952  0.2904
 6692SOL    HW226534   1.192   0.702   3.415  1.1444  0.6261 -0.6516
 6692SOL    HW326535   1.207   0.599   3.305 -1.6912 -2.1610  1.3887
 6692SOL    MW426536   1.159   0.657   3.348  0.5737 -0.2075 -0.3559
 6693SOL     OW26537   2.915   2.381   2.567 -0.5663 -0.0433 -0.2495
 6693SOL    HW226538   2.829   2.393   2.606 -0.4972  0.1373 -0.1495
 6693SOL    HW326539   2.962   2.463   2.586 -0.3371 -0.1832 -0.2037
 6693SOL    MW426540   2.910   2.393   2.575 -0.1459  0.8395 -0.2269
 6694SOL     OW26541   3.763   5.102   4.460 -0.1018 -0.8470  0.2847
 6694SOL    HW226542   3.827   5.126   4.527  1.7373 -1.2358 -1.2391
 6694SOL    HW326543   3.683   5.082   4.509 -0.4338  3.6227  2.0482
 6694SOL    MW426544   3.761   5.102   4.475 -0.0029 -0.2698 -0.3386
 6695SOL     OW26545   2.810   1.098   5.725 -0.1444  0.3931  0.4326
 6695SOL    HW226546   2.845   1.028   5.670 -0.1323  0.2231  0.6542
 6695SOL    HW326547   2.831   1.070   5.814  0.3396  0.9401  0.4945
 6695SOL    MW426548   2.818   1.085   5.730  0.2736 -0.0070  0.2315
 6696SOL     OW26549   1.620   1.887   1.842  0.2436 -0.2049 -0.9066
 6696SOL    HW226550   1.665   1.858   1.921 -2.9129  0.6883  1.4127
 6696SOL    HW326551   1.592   1.806   1.799  2.6157 -0.7186 -1.6239
 6696SOL    MW426552   1.622   1.872   1.847 -0.2209  0.3519  0.6905
 6697SOL     OW26553   2.800   0.482   4.073  0.1711 -0.6658 -0.5794
 6697SOL    HW226554   2.779   0.547   4.140  1.6154  0.5823 -1.2601
 6697SOL    HW326555   2.778   0.525   3.991  0.7779 -1.1965 -1.0238
 6697SOL    MW426556   2.795   0.496   4.071 -0.4537 -0.1743  0.2364
 6698SOL     OW26557   6.316   3.362   2.881 -0.1921 -0.2080  0.4198
 6698SOL    HW226558   6.310   3.393   2.790  2.0208 -0.0730  0.2661
 6698SOL    HW326559   6.365   3.430   2.927  0.9682 -1.4350  1.0842
 6698SOL    MW426560   6.322   3.375   2.875  0.4881 -0.2640  0.0363
 6699SOL     OW26561   4.431   6.084   0.097 -0.2511 -0.2559 -0.1177
 6699SOL    HW226562   4.352   6.119   0.139  0.2481 -1.2044  1.7319
 6699SOL    HW326563   4.407   5.994   0.072  0.2626 -0.5905  0.5656
 6699SOL    MW426564   4.417   6.076   0.099 -0.2831 -0.3753 -0.1727
 6700SOL     OW26565   4.130   3.494   2.641 -0.4803  1.0579  0.0023
 6700SOL    HW226566   4.046   3.449   2.635 -0.2833  0.8607 -1.8718
 6700SOL    HW326567   4.173   3.476   2.557  1.2624  1.4929  0.7570
 6700SOL    MW426568   4.125   3.486   2.629  0.5975 -0.1775 -0.0593
 6701SOL     OW26569   5.333   0.637   0.957 -0.1085 -0.2304 -0.3779
 6701SOL    HW226570   5.291   0.720   0.981 -0.0160  0.0458 -1.1564
 6701SOL    HW326571   5.273   0.598   0.893 -0.4457 -1.0494  0.4109
 6701SOL    MW426572   5.319   0.643   0.952 -0.2855  0.1279 -0.0458
 6702SOL     OW26573   3.201   5.476   3.999 -0.3717 -0.1299 -0.2268
 6702SOL    HW226574   3.248   5.523   3.930 -2.0573 -2.8180 -3.5086
 6702SOL    HW326575   3.111   5.505   3.991 -0.8749 -1.6136 -0.2752
 6702SOL    MW426576   3.196   5.486   3.989  0.0410 -0.1322 -0.3653
 6703SOL     OW26577   6.161   5.702   2.389 -0.3150 -0.1774 -0.5203
 6703SOL    HW226578   6.215   5.628   2.415  0.1784  0.4492  0.2613
 6703SOL    HW326579   6.071   5.671   2.400 -0.1162 -0.7958 -0.6025
 6703SOL    MW426580   6.156   5.689   2.394 -0.1745 -0.0603  0.7666
 6704SOL     OW26581   2.619   4.689   2.374  0.2150 -0.1205 -0.8789
 6704SOL    HW226582   2.679   4.659   2.306 -0.7563 -0.2553 -1.6996
 6704SOL    HW326583   2.674   4.744   2.431  1.7732 -2.4762  0.0457
 6704SOL    MW426584   2.634   4.693   2.373  0.2136 -0.4386 -0.0117
 6705SOL     OW26585   4.126   4.183   5.064  0.1653  0.1040  0.5495
 6705SOL    HW226586   4.205   4.129   5.058 -0.6571 -0.9601 -1.8821
 6705SOL    HW326587   4.063   4.129   5.111 -0.7587 -1.3414 -2.1544
 6705SOL    MW426588   4.128   4.169   5.070 -0.5109  0.4894 -0.3009
 6706SOL     OW26589   4.782   5.190   0.472  0.3717 -0.5059 -0.1798
 6706SOL    HW226590   4.840   5.136   0.526  3.0251  2.4594  0.2655
 6706SOL    HW326591   4.749   5.256   0.533  0.2420  0.5755 -1.3811
 6706SOL    MW426592   4.785   5.192   0.487 -0.8305  0.2749  0.3001
 6707SOL     OW26593   1.438   4.049   5.117  0.1300 -0.2043  0.4939
 6707SOL    HW226594   1.440   4.118   5.183  0.7739 -0.6358  0.9540
 6707SOL    HW326595   1.530   4.020   5.111 -0.0441 -0.6518 -0.0761
 6707SOL    MW426596   1.451   4.054   5.125 -0.1468  0.4722 -0.0738
 6708SOL     OW26597   2.914   2.402   2.019  0.0732 -0.4964  0.5283
 6708SOL    HW226598   2.842   2.403   1.955 -1.4283 -0.8794  2.1350
 6708SOL    HW326599   2.954   2.316   2.008 -0.8882 -0.9985  0.8426
 6708SOL    MW426600   2.910   2.391   2.009  0.4353 -0.0248 -0.6924
 6709SOL     OW26601   2.682   3.946   4.352  0.8302 -0.1158  0.3539
 6709SOL    HW226602   2.614   3.994   4.305  1.4441 -0.7468 -1.2449
 6709SOL    HW326603   2.743   4.015   4.381  0.5180  0.2832  0.0775
 6709SOL    MW426604   2.681   3.962   4.349 -0.0073  0.1028 -0.1124
 6710SOL     OW26605   3.148   4.929   1.719 -0.0172 -0.5726  0.0643
 6710SOL    HW226606   3.231   4.891   1.751  0.9675  0.3957 -1.2272
 6710SOL    HW326607   3.118   4.868   1.652 -0.2605 -0.8276  0.4020
 6710SOL    MW426608   3.155   4.916   1.714 -0.2894 -0.0896 -0.0965
 6711SOL     OW26609   4.676   1.883   0.724  0.1517  0.0850 -0.7839
 6711SOL    HW226610   4.583   1.891   0.744  0.3274  1.4352 -0.3998
 6711SOL    HW326611   4.716   1.862   0.809  0.5276  2.6446 -0.2489
 6711SOL    MW426612   4.669   1.881   0.738 -0.0117 -0.2275  0.0986
 6712SOL     OW26613   3.395   3.786   2.559 -0.3289 -0.0463 -0.3910
 6712SOL    HW226614   3.484   3.796   2.526  0.0576  0.7859  0.8452
 6712SOL    HW326615   3.342   3.843   2.503 -0.0884 -0.4672 -1.0610
 6712SOL    MW426616   3.400   3.795   2.547  0.2766 -0.3208 -0.1452
 6713SOL     OW26617   5.318   4.166   3.398 -0.0228 -0.4307 -0.2602
 6713SOL    HW226618   5.375   4.132   3.329  0.3742  0.1932 -0.2490
 6713SOL    HW326619   5.249   4.101   3.406 -0.6882  0.0013 -2.0182
 6713SOL    MW426620   5.316   4.153   3.390  0.6847 -0.2121  0.3393
 6714SOL     OW26621   1.435   3.297   1.768  0.4759 -0.3520  0.1712
 6714SOL    HW226622   1.428   3.201   1.764 -1.2553 -0.2433 -0.2037
 6714SOL    HW326623   1.446   3.316   1.861  0.5061 -0.8915  0.2819
 6714SOL    MW426624   1.436   3.287   1.780  0.5925 -0.2158  0.0382
 6715SOL     OW26625   0.459   3.673   0.418 -0.1665 -0.1888  0.5324
 6715SOL    HW226626   0.377   3.625   0.415 -0.2257 -0.0286 -1.4435
 6715SOL    HW326627   0.443   3.745   0.480 -1.8394  0.4084 -0.5514
 6715SOL    MW426628   0.446   3.677   0.426 -0.3028 -0.1634  0.0419
 6716SOL     OW26629   5.421   0.597   4.808  0.2443  0.2463 -0.4026
 6716SOL    HW226630   5.513   0.622   4.807  0.3866 -0.2944 -0.7681
 6716SOL    HW326631   5.412   0.530   4.740  0.2812 -2.0880  1.7073
 6716SOL    MW426632   5.432   0.591   4.799 -0.3420  0.8504  0.0144
 6717SOL     OW26633   5.755   5.539   4.954  0.2202  0.3535  0.4490
 6717SOL    HW226634   5.766   5.576   4.867  1.5063 -1.0093 -0.0006
 6717SOL    HW326635   5.790   5.605   5.013  3.6920 -0.5218 -0.4186
 6717SOL    MW426636   5.761   5.552   4.950 -0.0011 -0.2883  0.0490
 6718SOL     OW26637   1.118   3.109   1.646  0.1526 -0.1201  0.1411
 6718SOL    HW226638   1.125   3.203   1.658 -1.3737  0.4812 -2.8853
 6718SOL    HW326639   1.110   3.074   1.735  2.3217  2.3667  1.4595
 6718SOL    MW426640   1.118   3.117   1.660 -0.3803 -0.0273 -0.5701
 6719SOL     OW26641   3.811   2.774   4.126  0.0689  0.2124 -0.0090
 6719SOL    HW226642   3.827   2.793   4.034  1.4925 -1.2316 -0.1112
 6719SOL    HW326643   3.898   2.770   4.165 -0.4864  0.2576  1.2937
 6719SOL    MW426644   3.825   2.776   4.119  0.1983 -0.5100 -0.0056
 6720SOL     OW26645   4.011   1.272   3.242  0.3775 -0.1348  0.5056
 6720SOL    HW226646   4.016   1.347   3.184 -2.7213 -0.4836 -0.3660
 6720SOL    HW326647   4.036   1.197   3.188 -0.1357 -0.1584  0.2948
 6720SOL    MW426648   4.015   1.272   3.227  0.1393 -0.2970  0.0222
 6721SOL     OW26649   4.156   5.775   1.166  0.0498 -0.0490 -0.3622
 6721SOL    HW226650   4.186   5.788   1.256 -1.1229  2.0143 -0.2067
 6721SOL    HW326651   4.157   5.680   1.154  1.4656 -0.3112  1.3641
 6721SOL    MW426652   4.160   5.764   1.176  0.8057  0.3542 -0.1862
 6722SOL     OW26653   3.536   6.400   5.192  0.0407  0.5308 -0.4668
 6722SOL    HW226654   3.566   6.429   5.106  1.7884 -3.5017 -1.4627
 6722SOL    HW326655   3.605   6.426   5.252  2.1491 -2.0972 -1.5166
 6722SOL    MW426656   3.549   6.407   5.188  0.5588  0.6779  0.2146
 6723SOL     OW26657   4.133   0.104   2.400  0.4505 -0.4488  0.2223
 6723SOL    HW226658   4.062   0.042   2.391 -0.4552  0.6120 -0.1464
 6723SOL    HW326659   4.194   0.062   2.461 -0.2325 -1.5850  0.1484
 6723SOL    MW426660   4.132   0.091   2.407 -0.1617  0.0242  0.1030
 6724SOL     OW26661   5.004   1.144   3.120 -0.6638  0.8209 -0.1437
 6724SOL    HW226662   4.948   1.108   3.189 -1.4831  0.9271 -0.7371
 6724SOL    HW326663   5.018   1.235   3.146  1.9311  0.0372  1.6932
 6724SOL    MW426664   4.999   1.151   3.133 -0.2362 -0.5744  0.5881
 6725SOL     OW26665   3.030   5.880   1.986 -0.2001  0.0442 -0.3869
 6725SOL    HW226666   3.088   5.821   1.938 -0.1313  0.0556 -0.3176
 6725SOL    HW326667   3.086   5.952   2.014 -0.3407  0.2810 -0.7090
 6725SOL    MW426668   3.045   5.882   1.983  0.0471 -0.4129  0.3842
 6726SOL     OW26669   6.087   0.715   3.370 -0.0035 -0.0886  0.3256
 6726SOL    HW226670   6.062   0.699   3.461 -1.6048  1.7956  0.2666
 6726SOL    HW326671   6.096   0.810   3.364  1.1765 -0.2628 -1.2445
 6726SOL    MW426672   6.085   0.725   3.382  0.8589  0.1454  0.1331
 6727SOL     OW26673   4.051   5.861   6.164  0.4955  0.1099 -0.2497
 6727SOL    HW226674   4.075   5.835   6.075 -0.2302 -3.8008  0.5002
 6727SOL    HW326675   3.968   5.909   6.154  0.6145  0.0490 -1.6873
 6727SOL    MW426676   4.043   5.864   6.151 -0.5239 -0.0446  0.4323
 6728SOL     OW26677   5.001   4.804   0.239  0.1510  0.2173  0.1536
 6728SOL    HW226678   4.914   4.788   0.275 -0.1954 -2.0333 -1.4767
 6728SOL    HW326679   5.057   4.741   0.285  0.3714 -0.2390 -0.7325
 6728SOL    MW426680   4.997   4.793   0.250  0.1336  0.5421  0.2174
 6729SOL     OW26681   4.728   3.392   5.113  0.7436  0.2546 -0.2480
 6729SOL    HW226682   4.793   3.399   5.043  1.7154  0.6964  0.6665
 6729SOL    HW326683   4.648   3.364   5.069  1.0597  1.4627 -1.6931
 6729SOL    MW426684   4.726   3.389   5.098  0.2225  0.4360 -0.0924
 6730SOL     OW26685   5.507   3.430   1.991  0.4438 -0.0359  0.4922
 6730SOL    HW226686   5.415   3.405   2.000  0.0247  0.0785 -2.4038
 6730SOL    HW326687   5.555   3.366   2.044 -1.2438 -0.5719  1.4416
 6730SOL    MW426688   5.501   3.418   1.999  0.1530  0.1244 -0.9500
 6731SOL     OW26689   3.794   2.026   5.159  0.7648 -0.2370  0.2290
 6731SOL    HW226690   3.885   2.028   5.128  0.7106 -0.9291  0.0208
 6731SOL    HW326691   3.801   1.999   5.250  0.6832 -1.7106 -0.1744
 6731SOL    MW426692   3.807   2.023   5.167 -0.0216  0.2902  0.1666
 6732SOL     OW26693   0.919   6.209   3.544  0.4669 -0.8242  0.3697
 6732SOL    HW226694   0.889   6.169   3.626  1.1298  0.1526  1.1203
 6732SOL    HW326695   0.847   6.265   3.516 -0.7231 -2.9158 -1.0215
 6732SOL    MW426696   0.906   6.211   3.551 -0.2190  0.3951 -0.4858
 6733SOL     OW26697   2.495   1.209   2.584  0.0561 -0.0989 -0.0031
 6733SOL    HW226698   2.565   1.147   2.564 -1.4271 -1.6256 -0.6481
 6733SOL    HW326699   2.444   1.167   2.653 -0.3507  0.9052  0.3351
 6733SOL    MW426700   2.498   1.195   2.590 -0.4221  0.1310  0.0486
 6734SOL     OW26701   3.902   6.043   3.933  0.1414  0.3750 -0.2258
 6734SOL    HW226702   3.922   6.076   3.845  0.9853  0.5187  0.0082
 6734SOL    HW326703   3.931   6.113   3.991  1.4510 -0.5346  0.2524
 6734SOL    MW426704   3.909   6.056   3.929 -0.0012 -0.7974  0.2111
 6735SOL     OW26705   3.314   3.608   4.230  0.0621 -0.3599  0.5682
 6735SOL    HW226706   3.279   3.582   4.315  0.8998 -0.6682  0.8305
 6735SOL    HW326707   3.382   3.673   4.252  1.7192 -1.9346  0.3048
 6735SOL    MW426708   3.319   3.613   4.245 -0.1669 -0.4544 -0.0257
 6736SOL     OW26709   3.012   4.227   1.149  0.3878  0.2057  0.1967
 6736SOL    HW226710   3.011   4.133   1.133  0.6019 -0.6078  4.0011
 6736SOL    HW326711   2.921   4.255   1.136  0.5684 -0.1391 -2.2986
 6736SOL    MW426712   3.000   4.219   1.145  0.1651 -0.7862  0.4424
 6737SOL     OW26713   3.932   3.538   3.046 -0.0130 -0.1294  0.2436
 6737SOL    HW226714   3.993   3.610   3.031  1.2005 -0.9985  0.7770
 6737SOL    HW326715   3.922   3.534   3.142 -0.0217 -0.6944  0.2251
 6737SOL    MW426716   3.939   3.547   3.057  0.3794  0.2034  0.0967
 6738SOL     OW26717   3.348   2.425   1.162  0.6365  0.2095 -0.0847
 6738SOL    HW226718   3.262   2.466   1.151  0.2934 -0.2568  0.7728
 6738SOL    HW326719   3.369   2.390   1.075 -0.7479 -1.0056  0.0270
 6738SOL    MW426720   3.339   2.426   1.149  0.5586  0.2905 -0.0706
 6739SOL     OW26721   2.222   4.504   4.312  0.3879  0.0587 -0.0759
 6739SOL    HW226722   2.144   4.558   4.310  0.0806 -0.3860 -0.3338
 6739SOL    HW326723   2.294   4.565   4.330 -0.2034  0.2661  1.8683
 6739SOL    MW426724   2.221   4.519   4.314 -0.6669 -0.4343 -0.8234
 6740SOL     OW26725   1.561   6.086   4.628  0.2266  0.4597  0.2016
 6740SOL    HW226726   1.619   6.010   4.638 -0.1030  0.2613  0.6105
 6740SOL    HW326727   1.473   6.049   4.634  0.0387  0.6767 -0.9672
 6740SOL    MW426728   1.557   6.071   4.630 -0.2126  0.4246  0.2358
 6741SOL     OW26729   4.882   1.062   5.090  0.4789 -0.5249  0.1309
 6741SOL    HW226730   4.794   1.028   5.076 -0.4026  1.9045 -0.6753
 6741SOL    HW326731   4.940   0.995   5.054 -1.0619 -1.8190 -0.0296
 6741SOL    MW426732   4.878   1.049   5.084  0.4051  0.1874  0.2740
 6742SOL     OW26733   4.251   3.031   6.408 -0.4971  0.0188 -0.2038
 6742SOL    HW226734   4.302   3.111   6.396  1.2124 -0.6617  1.7948
 6742SOL    HW326735   4.260   2.983   6.326 -1.4168  1.7335 -1.3751
 6742SOL    MW426736   4.259   3.035   6.396  0.0613 -0.0502  0.4560
 6743SOL     OW26737   3.993   5.669   3.677  0.2078 -0.6061  0.5728
 6743SOL    HW226738   3.947   5.588   3.696 -2.1660  0.7569  1.0880
 6743SOL    HW326739   3.955   5.733   3.737  1.7292  0.9691 -0.0618
 6743SOL    MW426740   3.982   5.667   3.687  0.3603 -0.1008 -0.2676
 6744SOL     OW26741   5.799   5.548   4.162 -0.2797  0.7767  0.2539
 6744SOL    HW226742   5.839   5.465   4.136 -1.0226  0.6028 -0.3543
 6744SOL    HW326743   5.847   5.614   4.112  0.2700  0.7210  0.6915
 6744SOL    MW426744   5.811   5.546   4.152  0.4407 -0.4309  0.1772
 6745SOL     OW26745   3.618   1.143   2.783  0.6941  0.3800 -0.0188
 6745SOL    HW226746   3.590   1.059   2.821  1.5645 -0.0744 -0.3442
 6745SOL    HW326747   3.699   1.164   2.830  0.4095  1.1163  0.1546
 6745SOL    MW426748   3.625   1.134   2.795 -0.4320  0.7261  0.0154
 6746SOL     OW26749   1.454   3.546   2.234 -0.2436 -0.8810  0.1108
 6746SOL    HW226750   1.395   3.589   2.296  1.3570 -0.2644  1.2878
 6746SOL    HW326751   1.530   3.522   2.287  1.7998  0.8828 -1.8096
 6746SOL    MW426752   1.456   3.548   2.249 -0.5516 -0.1489  0.0149
 6747SOL     OW26753   5.479   3.916   2.560 -0.4803 -0.4256  0.4900
 6747SOL    HW226754   5.444   4.005   2.558  2.5850  0.9039 -0.2631
 6747SOL    HW326755   5.420   3.868   2.618 -2.5218  1.9412  0.5426
 6747SOL    MW426756   5.467   3.921   2.567  0.0060  0.3442  0.3613
 6748SOL     OW26757   0.058   3.480   2.282  0.5622 -0.3750 -0.2429
 6748SOL    HW226758   0.004   3.430   2.220  0.7810 -0.8802 -0.0329
 6748SOL    HW326759   0.083   3.559   2.235 -2.3466  1.0694  0.4080
 6748SOL    MW426760   0.054   3.483   2.268  0.2638 -0.1687  0.6400
 6749SOL     OW26761   4.622   4.358   3.382  0.0360  0.0193 -0.5427
 6749SOL    HW226762   4.653   4.340   3.293  1.7526 -0.9271  0.1813
 6749SOL    HW326763   4.645   4.279   3.431 -3.0075 -0.4590  0.2846
 6749SOL    MW426764   4.629   4.345   3.376 -0.3990  0.4195 -0.1402
 6750SOL     OW26765   1.653   0.725   2.447 -0.3892  0.3143  0.1852
 6750SOL    HW226766   1.628   0.690   2.533  0.9917  0.1036  0.5299
 6750SOL    HW326767   1.618   0.663   2.384  0.2612 -0.5968  0.6991
 6750SOL    MW426768   1.645   0.712   2.450 -0.7500  0.0738 -0.4772
 6751SOL     OW26769   0.871   1.944   3.809 -0.9521  0.1592  0.6750
 6751SOL    HW226770   0.843   1.974   3.722  1.3663  1.5760  0.3204
 6751SOL    HW326771   0.947   1.888   3.791  0.1460  1.2297  1.7915
 6751SOL    MW426772   0.878   1.941   3.795 -0.0345 -0.0146  0.0551
 6752SOL     OW26773   2.810   0.673   3.634  0.1870 -0.2309 -0.0738
 6752SOL    HW226774   2.743   0.628   3.582 -0.2522  1.5594 -1.1333
 6752SOL    HW326775   2.768   0.687   3.719 -2.0010  3.2663 -1.4980
 6752SOL    MW426776   2.795   0.669   3.638 -0.3136 -0.2236  0.1196
 6753SOL     OW26777   5.493   5.702   0.044  0.3932 -0.1027 -0.0759
 6753SOL    HW226778   5.436   5.647  -0.010 -1.5559  2.2505 -0.5697
 6753SOL    HW326779   5.490   5.661   0.131 -2.2826  0.0203 -0.0298
 6753SOL    MW426780   5.485   5.689   0.048 -0.4748  0.0340  0.1532
 6754SOL     OW26781   3.271   0.683   0.625  0.1891 -0.4451 -0.1650
 6754SOL    HW226782   3.243   0.671   0.535 -0.3764  0.6311 -0.1499
 6754SOL    HW326783   3.333   0.611   0.641  0.4494 -0.5370 -1.4606
 6754SOL    MW426784   3.276   0.672   0.616 -0.0677 -0.5408  0.1699
 6755SOL     OW26785   0.112   4.259   3.889  0.0325 -0.3671 -0.0775
 6755SOL    HW226786   0.205   4.245   3.904  0.2859 -0.2299 -1.3579
 6755SOL    HW326787   0.101   4.243   3.795 -1.6137 -2.5492  0.3992
 6755SOL    MW426788   0.123   4.255   3.878  0.1826 -0.1481 -0.1733
 6756SOL     OW26789   6.365   1.439   1.749 -0.0188  0.1398 -0.1944
 6756SOL    HW226790   6.286   1.410   1.795  0.2998 -1.6627 -0.6934
 6756SOL    HW326791   6.429   1.371   1.768  1.3158  1.3871 -0.1174
 6756SOL    MW426792   6.363   1.426   1.757 -0.3595  0.1804  0.7357
 6757SOL     OW26793   1.823   2.493   3.228  0.2685 -0.0873 -0.3687
 6757SOL    HW226794   1.781   2.579   3.221 -0.8361 -0.5945 -0.1276
 6757SOL    HW326795   1.917   2.511   3.215  0.1999  1.3115  0.8362
 6757SOL    MW426796   1.830   2.507   3.225  0.6292 -0.6356  0.1544
 6758SOL     OW26797   3.520   1.270   5.492 -0.1353 -0.0116 -0.4761
 6758SOL    HW226798   3.500   1.205   5.559  0.0821 -1.4378 -1.7334
 6758SOL    HW326799   3.442   1.326   5.489  0.0133  0.3367  1.2030
 6758SOL    MW426800   3.507   1.269   5.500  0.0130  0.1260  0.1067
 6759SOL     OW26801   0.761   0.214   1.177 -0.0377 -0.2135 -0.4618
 6759SOL    HW226802   0.704   0.165   1.238  0.5926  0.2317  0.4989
 6759SOL    HW326803   0.819   0.265   1.234 -0.4493  1.4081 -1.4368
 6759SOL    MW426804   0.761   0.214   1.193  0.4619 -0.0186  0.2574
 6760SOL     OW26805   2.148   2.472   2.447 -0.3378  0.1081  0.0958
 6760SOL    HW226806   2.160   2.380   2.472 -0.7423  0.1446  0.4323
 6760SOL    HW326807   2.205   2.483   2.371  0.4700 -0.1694  0.6327
 6760SOL    MW426808   2.157   2.461   2.440  0.6757  0.1998 -0.1129
 6761SOL     OW26809   4.956   0.347   5.624  0.0412  0.4482 -0.2611
 6761SOL    HW226810   4.984   0.419   5.681 -0.3311  0.5506 -0.2031
 6761SOL    HW326811   5.037   0.315   5.585  0.5309 -0.6483  1.5191
 6761SOL    MW426812   4.970   0.352   5.626  0.3275 -0.0520  0.3906
 6762SOL     OW26813   3.143   2.566   3.931 -0.3893  0.4966 -0.2053
 6762SOL    HW226814   3.148   2.635   3.865 -0.9127 -0.0895 -0.8757
 6762SOL    HW326815   3.169   2.486   3.885  0.2761  0.2383  0.5774
 6762SOL    MW426816   3.147   2.565   3.916 -0.4061  0.4111  0.3426
 6763SOL     OW26817   5.586  -0.002   5.384 -0.4098  0.4169  0.3322
 6763SOL    HW226818   5.574  -0.081   5.437  0.4764  0.8502  1.2120
 6763SOL    HW326819   5.675   0.027   5.403 -0.0382  0.5665 -1.4637
 6763SOL    MW426820   5.596  -0.009   5.394  0.2629  0.4663 -0.3787
 6764SOL     OW26821   0.077   2.388   4.106  0.2889 -0.1059 -0.1800
 6764SOL    HW226822   0.126   2.385   4.025 -0.4821  0.6480 -0.7029
 6764SOL    HW326823   0.052   2.298   4.124  0.0234 -0.2151 -1.0737
 6764SOL    MW426824   0.080   2.376   4.098  0.1831 -0.3247 -0.4012
 6765SOL     OW26825   0.408   1.805   1.701  0.3943  0.3250 -0.0597
 6765SOL    HW226826   0.393   1.784   1.609  0.4427  0.6452 -0.1405
 6765SOL    HW326827   0.344   1.872   1.721 -0.9973 -1.1614  0.6943
 6765SOL    MW426828   0.398   1.811   1.691  0.2370  0.0070 -0.5183
 6766SOL     OW26829   3.963   0.953   5.874  0.2282 -0.4952 -0.6406
 6766SOL    HW226830   4.055   0.976   5.868 -0.0244  0.6213 -0.4178
 6766SOL    HW326831   3.949   0.926   5.965 -0.4435  3.0636  0.4558
 6766SOL    MW426832   3.973   0.953   5.885 -0.0220 -0.2461  0.6879
 6767SOL     OW26833   3.950   0.313   2.485 -0.0735 -0.1057  0.0641
 6767SOL    HW226834   3.938   0.287   2.576 -0.9863 -2.6373 -0.6825
 6767SOL    HW326835   4.012   0.249   2.450  0.7744  1.2228 -0.9534
 6767SOL    MW426836   3.957   0.301   2.492 -0.1748  0.7072  0.0288
 6768SOL     OW26837   1.161   4.164   3.570 -0.2298  0.0457 -0.1095
 6768SOL    HW226838   1.226   4.129   3.630  1.2303  1.9799 -0.4719
 6768SOL    HW326839   1.106   4.221   3.624 -1.7926 -1.6514  0.2166
 6768SOL    MW426840   1.162   4.167   3.585 -0.2122 -0.1336  0.3923
 6769SOL     OW26841   0.160   2.359   3.829  0.1523  0.4432 -0.4238
 6769SOL    HW226842   0.066   2.343   3.839  0.4179 -1.2184 -0.3010
 6769SOL    HW326843   0.201   2.277   3.856  1.6006  0.8465 -1.3040
 6769SOL    MW426844   0.153   2.346   3.834  0.1099 -0.8378 -0.1619
 6770SOL     OW26845   5.854   5.273   3.525 -0.4228  0.3503 -0.0465
 6770SOL    HW226846   5.817   5.243   3.608  0.5243  0.2682  0.3605
 6770SOL    HW326847   5.908   5.200   3.495  1.5706  1.4373  0.7442
 6770SOL    MW426848   5.856   5.259   3.532 -0.0432  0.2324  0.7758
 6771SOL     OW26849   2.764   0.604   4.993 -0.0205  0.3652  0.0706
 6771SOL    HW226850   2.799   0.675   5.047 -0.4753  0.2704  0.5044
 6771SOL    HW326851   2.771   0.526   5.049  0.9815 -0.0413 -0.5974
 6771SOL    MW426852   2.769   0.603   5.008 -0.1500  0.0382 -0.6638
 6772SOL     OW26853   5.280   4.566   6.057 -0.6230 -0.4286 -0.2834
 6772SOL    HW226854   5.262   4.494   5.996 -2.0194 -1.1197  0.8755
 6772SOL    HW326855   5.203   4.569   6.114  0.0544  1.0502  0.6186
 6772SOL    MW426856   5.267   4.557   6.056  0.1038 -0.4942 -0.6050
 6773SOL     OW26857   0.536   1.073   0.040  0.1944  0.3840 -0.3729
 6773SOL    HW226858   0.450   1.038   0.015  0.0163 -1.7590  2.7103
 6773SOL    HW326859   0.598   1.003   0.016  0.6583  0.5641  0.2822
 6773SOL    MW426860   0.533   1.059   0.033 -0.3195 -0.5803  0.0741
 6774SOL     OW26861   2.193   1.339   0.585 -0.1457  0.1765 -0.0313
 6774SOL    HW226862   2.116   1.312   0.536  1.2269  0.1717 -2.3171
 6774SOL    HW326863   2.222   1.260   0.630  0.0176 -0.5147 -1.3059
 6774SOL    MW426864   2.187   1.325   0.585 -0.0216 -0.9487 -0.0087
 6775SOL     OW26865   5.161   1.526   5.584 -0.5649 -0.2683  0.1762
 6775SOL    HW226866   5.121   1.611   5.564 -0.5809 -0.1784  0.5855
 6775SOL    HW326867   5.092   1.462   5.563 -0.5762 -0.1806 -0.0665
 6775SOL    MW426868   5.146   1.529   5.578 -0.1194 -0.4758 -0.3129
 6776SOL     OW26869   3.933   2.433   2.056 -0.0503 -0.1015  0.0999
 6776SOL    HW226870   3.886   2.359   2.095 -0.7284  0.2463 -0.0273
 6776SOL    HW326871   3.866   2.479   2.004  0.7991 -0.4543 -1.3373
 6776SOL    MW426872   3.918   2.430   2.054 -0.6363  0.2367 -0.3273
 6777SOL     OW26873   1.042   2.994   0.396  0.2039  0.1662  0.3067
 6777SOL    HW226874   1.008   3.071   0.349  1.6192 -0.0396 -1.1680
 6777SOL    HW326875   0.967   2.960   0.444 -0.8810  1.4735 -0.3880
 6777SOL    MW426876   1.028   3.000   0.396 -0.0466  0.2400 -0.2292
 6778SOL     OW26877   3.818   2.520   0.756 -0.2448  0.3318  0.3403
 6778SOL    HW226878   3.853   2.442   0.799 -1.6210 -0.1186  0.6915
 6778SOL    HW326879   3.729   2.528   0.790 -0.6756  1.1273 -0.9258
 6778SOL    MW426880   3.811   2.511   0.766  0.6407 -0.2919 -0.1491
 6779SOL     OW26881   2.685   2.920   1.983  0.1261 -0.2039 -0.3086
 6779SOL    HW226882   2.639   2.848   2.027  2.4974 -0.2591  2.3892
 6779SOL    HW326883   2.620   2.990   1.977 -1.7620 -1.9431 -1.5143
 6779SOL    MW426884   2.670   2.919   1.988  0.5422  0.4794  0.2049
 6780SOL     OW26885   5.054   3.634   3.892  0.3671 -0.1714 -0.6318
 6780SOL    HW226886   4.994   3.559   3.891 -0.0582  0.0497  1.4880
 6780SOL    HW326887   5.097   3.628   3.978  0.5266  1.8270 -0.5281
 6780SOL    MW426888   5.051   3.623   3.903 -0.1654 -0.4935  0.1619
 6781SOL     OW26889   5.347   3.790   2.345  0.5052 -0.2350 -0.2964
 6781SOL    HW226890   5.402   3.727   2.298  0.3343 -0.4773 -0.1711
 6781SOL    HW326891   5.397   3.810   2.425 -0.6465 -2.3159  1.0555
 6781SOL    MW426892   5.361   3.784   2.350 -0.1219 -0.1651 -0.4437
 6782SOL     OW26893   5.250   2.356   5.707 -0.6546  0.8234  0.7445
 6782SOL    HW226894   5.319   2.293   5.731  1.5931  2.7209 -0.3056
 6782SOL    HW326895   5.210   2.319   5.629  0.2001  0.3712  0.5021
 6782SOL    MW426896   5.254   2.343   5.700 -0.8116 -0.4960 -0.7445
 6783SOL     OW26897   0.136   0.498   4.806 -0.2743 -0.3921 -0.5140
 6783SOL    HW226898   0.188   0.495   4.726  0.6272 -1.0407  0.0768
 6783SOL    HW326899   0.146   0.587   4.838 -0.1917 -0.2876 -0.8284
 6783SOL    MW426900   0.144   0.509   4.800 -0.2117  0.1245 -0.6863
 6784SOL     OW26901   4.346   0.130   3.709  0.5142  0.8171  0.1243
 6784SOL    HW226902   4.392   0.208   3.678  0.5671  0.0293 -1.9087
 6784SOL    HW326903   4.393   0.104   3.788  2.5492  0.9811 -0.9770
 6784SOL    MW426904   4.358   0.137   3.716  0.6989  0.0399  0.2699
 6785SOL     OW26905   3.431   0.364   2.971  0.0182  0.3308  0.1191
 6785SOL    HW226906   3.462   0.360   3.062  0.7143  0.8063 -0.0882
 6785SOL    HW326907   3.348   0.316   2.972  0.3977 -0.3486  0.8473
 6785SOL    MW426908   3.424   0.357   2.983  1.2100 -0.0552  0.0051
 6786SOL     OW26909   1.243   6.295   1.382  0.4751 -0.1588  0.2830
 6786SOL    HW226910   1.285   6.380   1.368 -2.4845  1.6603  1.3863
 6786SOL    HW326911   1.189   6.282   1.303  0.7854 -0.9495  0.1933
 6786SOL    MW426912   1.241   6.305   1.370  0.5982 -0.1385 -0.1039
 6787SOL     OW26913   0.816   1.078   4.256  0.0213  0.7454  0.1260
 6787SOL    HW226914   0.742   1.041   4.208  0.9570  0.5665 -1.2453
 6787SOL    HW326915   0.852   1.004   4.304  0.7356  0.2585 -1.1097
 6787SOL    MW426916   0.811   1.063   4.256  0.1507  0.3114 -0.3492
 6788SOL     OW26917   3.380   4.270   1.213 -0.0249 -0.4304  0.1082
 6788SOL    HW226918   3.348   4.291   1.300 -1.2272 -2.6223  0.2612
 6788SOL    HW326919   3.466   4.230   1.227  0.6910  0.9992  0.0695
 6788SOL    MW426920   3.387   4.268   1.226 -0.4628 -0.2013 -0.2073
 6789SOL     OW26921   0.133   6.143   5.453 -0.1313 -0.2034  0.3161
 6789SOL    HW226922   0.174   6.143   5.367  1.6165 -0.5410  1.1119
 6789SOL    HW326923   0.135   6.051   5.480  1.8778  0.2123  1.8320
 6789SOL    MW426924   0.139   6.131   5.445 -0.4391 -0.4823 -0.1567
 6790SOL     OW26925   6.075   0.172   2.264  0.0017  0.0932 -0.3183
 6790SOL    HW226926   6.146   0.131   2.314  0.5952  0.6148 -0.7176
 6790SOL    HW326927   6.011   0.197   2.331 -0.0984 -0.9375 -0.0133
 6790SOL    MW426928   6.076   0.170   2.280 -0.1626  0.1881  0.2232
 6791SOL     OW26929   2.180   2.822   1.830  0.2859 -0.4580  0.4672
 6791SOL    HW226930   2.194   2.733   1.861  0.2642 -1.1015 -1.2684
 6791SOL    HW326931   2.268   2.854   1.810  0.3951  0.2884  1.9355
 6791SOL    MW426932   2.194   2.815   1.832  0.3259 -0.0777 -0.0732
 6792SOL     OW26933   5.993   4.089   6.053 -0.0503  0.8778  0.1435
 6792SOL    HW226934   5.984   4.078   6.147 -2.6666 -3.1948 -0.2996
 6792SOL    HW326935   6.081   4.055   6.033  0.0721  0.6601  1.0167
 6792SOL    MW426936   6.003   4.083   6.063  0.0511  0.2981  0.1613
 6793SOL     OW26937   3.454   2.804   5.893  0.6179  0.3658  0.1822
 6793SOL    HW226938   3.474   2.896   5.913  0.6256  0.4061 -0.0035
 6793SOL    HW326939   3.518   2.754   5.943  0.7383  0.4686  0.1321
 6793SOL    MW426940   3.465   2.810   5.902  0.2885 -0.2089  0.1206
 6794SOL     OW26941   2.569   4.937   1.485  0.2334  0.1586 -0.0839
 6794SOL    HW226942   2.563   5.032   1.490  0.7799  0.1752  0.2455
 6794SOL    HW326943   2.512   4.905   1.555  0.7443  0.2557  0.3732
 6794SOL    MW426944   2.561   4.945   1.495  0.0949 -0.3322  0.4709
 6795SOL     OW26945   5.444   3.223   5.125 -0.4242  0.4515  0.1104
 6795SOL    HW226946   5.453   3.209   5.219  1.0521 -0.4443 -0.1329
 6795SOL    HW326947   5.453   3.136   5.087  0.5375  0.9843 -0.9435
 6795SOL    MW426948   5.446   3.210   5.132  0.2013 -0.1705 -0.2198
 6796SOL     OW26949   0.122   4.265   3.570  0.2485  0.0462 -0.7133
 6796SOL    HW226950   0.042   4.243   3.522 -0.7711 -1.7496  1.6139
 6796SOL    HW326951   0.190   4.213   3.527  0.0718  1.0120 -2.2351
 6796SOL    MW426952   0.120   4.255   3.558  0.1029  0.1027  0.7707
 6797SOL     OW26953   4.064   5.513   0.364  0.3261 -0.1343  0.0805
 6797SOL    HW226954   4.126   5.448   0.399 -0.2192 -0.9115 -0.3634
 6797SOL    HW326955   3.978   5.476   0.383 -0.0218  1.0932  0.9781
 6797SOL    MW426956   4.061   5.499   0.371  0.2212 -0.7959 -0.3522
 6798SOL     OW26957   4.859   5.180   5.879 -0.7049 -0.1538  0.1414
 6798SOL    HW226958   4.812   5.123   5.818 -0.7780 -0.6654  0.6700
 6798SOL    HW326959   4.841   5.268   5.848 -1.0093 -0.3965 -0.3850
 6798SOL    MW426960   4.850   5.184   5.867 -0.3971 -0.1556 -0.5801
 6799SOL     OW26961   4.252   1.482   4.600  0.4146  0.3809  0.6222
 6799SOL    HW226962   4.158   1.487   4.587 -0.3878 -2.1747  3.8528
 6799SOL    HW326963   4.266   1.516   4.689  2.5733  0.7731  0.1927
 6799SOL    MW426964   4.242   1.487   4.610  0.2408  0.1811  0.4331
 6800SOL     OW26965   5.739   0.648   3.354 -0.0613  0.0463 -0.2966
 6800SOL    HW226966   5.724   0.638   3.260  1.4026 -1.1502 -0.4402
 6800SOL    HW326967   5.689   0.577   3.394 -1.7720  1.3464 -0.0123
 6800SOL    MW426968   5.730   0.638   3.346  0.4789  0.2355  0.6864
 6801SOL     OW26969   1.270   4.253   0.328 -0.2020  0.0235 -0.1226
 6801SOL    HW226970   1.339   4.265   0.393  1.0186  3.3016 -1.8026
 6801SOL    HW326971   1.300   4.182   0.272  0.3808 -0.4885  0.8150
 6801SOL    MW426972   1.283   4.245   0.330 -0.1282  0.0711 -0.1389
 6802SOL     OW26973   0.027   2.356   3.517 -0.3903  0.4068 -0.2860
 6802SOL    HW226974  -0.027   2.397   3.450 -0.1975  1.5985  0.2481
 6802SOL    HW326975  -0.018   2.377   3.599  0.4170  0.6956  0.0996
 6802SOL    MW426976   0.014   2.364   3.519 -0.6805 -0.2991  0.5942
 6803SOL     OW26977   2.081   4.715   2.796 -0.2788  0.1420 -0.1492
 6803SOL    HW226978   2.115   4.708   2.707 -2.2634  0.2629 -0.9796
 6803SOL    HW326979   2.015   4.645   2.802 -1.5575  1.3532  0.5115
 6803SOL    MW426980   2.077   4.705   2.785  0.5120 -0.0634  0.3094
 6804SOL     OW26981   5.222   3.449   3.471 -0.5020  0.4072 -0.4137
 6804SOL    HW226982   5.219   3.467   3.565  0.6329 -1.0379 -0.0632
 6804SOL    HW326983   5.139   3.484   3.437 -1.0292  0.7559  1.1444
 6804SOL    MW426984   5.211   3.456   3.479  0.0910 -0.2133 -0.2189
 6805SOL     OW26985   3.930   2.751   0.923 -0.3388  0.3333 -0.9389
 6805SOL    HW226986   3.912   2.844   0.937  1.1855  0.5295 -0.0663
 6805SOL    HW326987   3.861   2.722   0.863 -1.9772  1.5620  0.2414
 6805SOL    MW426988   3.919   2.759   0.917 -0.2258 -0.1728 -0.4248
 6806SOL     OW26989   1.265   2.125   5.696 -0.8413 -0.3579  0.0704
 6806SOL    HW226990   1.175   2.098   5.713 -1.7565  2.5163  0.3716
 6806SOL    HW326991   1.290   2.175   5.774  0.7712 -0.4627 -0.3294
 6806SOL    MW426992   1.257   2.128   5.709  0.0967 -0.6588 -0.0730
 6807SOL     OW26993   1.521   0.110   0.856 -0.2035  0.5686 -0.0898
 6807SOL    HW226994   1.494   0.186   0.908  1.0689  0.3655  0.9265
 6807SOL    HW326995   1.470   0.037   0.892 -0.4294  0.6958 -0.1509
 6807SOL    MW426996   1.510   0.110   0.868 -0.2245 -0.4279  0.0121
 6808SOL     OW26997   2.461   5.018   4.529  0.2068 -0.0178 -0.1570
 6808SOL    HW226998   2.507   5.033   4.446  0.5126 -0.0665 -0.0006
 6808SOL    HW326999   2.445   4.924   4.531 -0.0719  0.0289 -0.3018
 6808SOL    MW427000   2.465   5.008   4.518 -1.0141  0.4356 -0.3545
 6809SOL     OW27001   3.891   6.367   2.662 -0.2829  0.2093 -0.2979
 6809SOL    HW227002   3.871   6.413   2.580  1.1327  3.1378  0.8707
 6809SOL    HW327003   3.860   6.426   2.731  1.7466 -0.5024  1.3309
 6809SOL    MW427004   3.884   6.381   2.660  0.2859 -0.6563 -0.7011
 6810SOL     OW27005   0.840   1.924   1.941 -0.0319 -0.2179  0.0277
 6810SOL    HW227006   0.863   1.835   1.967 -0.4506 -0.6434 -1.0091
 6810SOL    HW327007   0.800   1.914   1.854 -2.9094  0.6157  1.1524
 6810SOL    MW427008   0.838   1.911   1.933 -0.2068  0.0033 -0.7828
 6811SOL     OW27009   5.304   4.386   5.609 -0.6200  0.2311  0.4794
 6811SOL    HW227010   5.376   4.381   5.671 -0.5138 -0.0300  0.3383
 6811SOL    HW327011   5.241   4.446   5.649 -1.1552 -0.9445  1.4684
 6811SOL    MW427012   5.305   4.393   5.622 -0.7525 -0.2107 -0.4186
 6812SOL     OW27013   2.858   4.519   3.144 -0.6411 -0.0234 -0.0568
 6812SOL    HW227014   2.888   4.509   3.053 -2.2813 -0.6253 -0.5712
 6812SOL    HW327015   2.793   4.590   3.140 -2.8784 -1.9290  0.0225
 6812SOL    MW427016   2.853   4.527   3.131 -0.3034  0.2185 -0.2032
 6813SOL     OW27017   4.556   2.913   2.529 -0.5157 -0.1218 -0.0619
 6813SOL    HW227018   4.618   2.957   2.470 -2.9219  3.0624 -0.5255
 6813SOL    HW327019   4.478   2.899   2.475 -1.3555 -0.9894  1.3125
 6813SOL    MW427020   4.554   2.917   2.514  0.0608  0.5233 -0.3807
 6814SOL     OW27021   3.713   4.046   5.787  0.3205  0.4264  0.1018
 6814SOL    HW227022   3.675   3.972   5.739  1.9899 -0.1959 -0.3008
 6814SOL    HW327023   3.641   4.078   5.842 -0.2442 -1.9299  0.8202
 6814SOL    MW427024   3.698   4.041   5.788 -0.2441  0.1469  0.3570
 6815SOL     OW27025   5.672   2.422   1.192 -0.0973 -0.3508  0.4234
 6815SOL    HW227026   5.760   2.396   1.164  0.0460  1.0655 -0.4892
 6815SOL    HW327027   5.622   2.340   1.188  1.0820 -1.1221  0.6556
 6815SOL    MW427028   5.677   2.408   1.188 -0.2117  0.2637  0.0273
 6816SOL     OW27029   3.443   1.529   1.995  0.1488  0.0200  0.4928
 6816SOL    HW227030   3.359   1.499   1.960  0.5261 -0.5521  0.0762
 6816SOL    HW327031   3.502   1.529   1.920  0.4441  0.7334  0.7192
 6816SOL    MW427032   3.440   1.525   1.981 -0.1152  0.4013 -0.0240
 6817SOL     OW27033   3.774   6.233   3.151 -0.0925  0.2303 -0.4285
 6817SOL    HW227034   3.833   6.284   3.208  1.0693 -1.4970 -0.0053
 6817SOL    HW327035   3.830   6.206   3.078 -0.4905 -0.9618 -0.3094
 6817SOL    MW427036   3.789   6.236   3.149 -0.2282  0.7767 -0.0501
 6818SOL     OW27037   2.024   2.413   4.346 -0.4451 -0.2439 -0.2676
 6818SOL    HW227038   2.026   2.451   4.434  0.0818 -0.4530 -0.1845
 6818SOL    HW327039   1.938   2.437   4.311 -0.8256 -0.5177  0.4630
 6818SOL    MW427040   2.013   2.421   4.353 -0.3019 -0.4430 -0.0345
 6819SOL     OW27041   0.431   0.574   0.884  0.0295  0.1220 -0.4819
 6819SOL    HW227042   0.458   0.537   0.801  1.6238  0.1926 -0.0199
 6819SOL    HW327043   0.488   0.650   0.897 -2.9507  2.6988 -1.2752
 6819SOL    MW427044   0.442   0.580   0.875 -0.2583 -0.1590  0.2959
 6820SOL     OW27045   1.087   5.048   6.352 -0.6469  0.8989  0.5992
 6820SOL    HW227046   1.095   5.142   6.334 -0.1760  0.7504 -0.0286
 6820SOL    HW327047   1.168   5.025   6.397  0.0981  0.4448 -0.9112
 6820SOL    MW427048   1.099   5.058   6.355  0.1547  0.0714 -0.5277
 6821SOL     OW27049   1.885   4.075   2.942  0.3317 -0.3230 -0.0768
 6821SOL    HW227050   1.907   4.149   2.999  1.1564 -0.2455 -0.4813
 6821SOL    HW327051   1.956   4.072   2.878 -1.9824  1.4904 -3.0012
 6821SOL    MW427052   1.897   4.085   2.941  0.0916  0.6809  0.2615
 6822SOL     OW27053   0.679   0.099   4.158 -0.6301 -0.1961 -0.2104
 6822SOL    HW227054   0.757   0.080   4.107  0.4119  1.0043  0.8686
 6822SOL    HW327055   0.642   0.178   4.118  0.5223  1.0983  1.1786
 6822SOL    MW427056   0.684   0.107   4.146 -0.2745  0.0134 -0.1287
 6823SOL     OW27057   4.200   0.591   4.838 -0.2711  0.1752  0.0078
 6823SOL    HW227058   4.263   0.519   4.836 -1.3722 -0.8657  1.1292
 6823SOL    HW327059   4.146   0.576   4.760 -0.6525 -0.3836  0.3688
 6823SOL    MW427060   4.201   0.579   4.827  0.3437 -0.0085 -0.4712
 6824SOL     OW27061   0.926   5.113   1.069 -0.2099 -0.0078  0.1716
 6824SOL    HW227062   0.895   5.086   1.156 -1.1183 -0.2047 -0.2065
 6824SOL    HW327063   0.992   5.047   1.047 -1.0209 -0.8150  0.0944
 6824SOL    MW427064   0.931   5.101   1.078  0.0328  0.0589 -0.1097
 6825SOL     OW27065   4.672   5.066   5.696 -0.4369 -0.9153 -0.2216
 6825SOL    HW227066   4.678   4.987   5.643 -2.1912 -1.0359 -0.3154
 6825SOL    HW327067   4.578   5.087   5.697  0.0438  1.5953 -0.8282
 6825SOL    MW427068   4.660   5.059   5.689 -0.6566  0.4142  0.2567
 6826SOL     OW27069   0.319   0.624   5.807  0.0129 -0.8638 -0.1309
 6826SOL    HW227070   0.232   0.663   5.811 -0.0385 -0.7390 -1.8331
 6826SOL    HW327071   0.304   0.537   5.770  0.6218 -0.7675 -0.6187
 6826SOL    MW427072   0.306   0.617   5.803  0.1629  0.0914 -0.5583
 6827SOL     OW27073   1.741   2.771   1.259  0.3266 -0.3463 -0.2136
 6827SOL    HW227074   1.723   2.709   1.188  0.0932 -0.3956 -0.1140
 6827SOL    HW327075   1.708   2.727   1.338  2.0729 -1.0085  0.1951
 6827SOL    MW427076   1.734   2.757   1.260  0.4237  0.1231  0.2031
 6828SOL     OW27077   1.161   1.632   1.913 -0.0880  0.1391 -0.0258
 6828SOL    HW227078   1.176   1.553   1.862 -0.7716 -1.5950  2.2577
 6828SOL    HW327079   1.228   1.693   1.883  0.3973 -1.2397 -1.9520
 6828SOL    MW427080   1.172   1.629   1.903 -0.1963 -0.0351 -0.2855
 6829SOL     OW27081   4.425   5.523   4.621 -0.1164 -0.4414  0.6093
 6829SOL    HW227082   4.363   5.548   4.552  0.2644 -0.1783  0.3633
 6829SOL    HW327083   4.493   5.473   4.575 -1.1910 -2.5500  1.1677
 6829SOL    MW427084   4.426   5.520   4.606 -0.1221 -0.1123  0.4921
 6830SOL     OW27085   4.453   4.994   4.076 -0.7434 -0.5271  0.1123
 6830SOL    HW227086   4.435   5.005   3.982 -0.8929 -1.6161  0.0013
 6830SOL    HW327087   4.486   4.904   4.084  0.3172 -0.0779  0.9566
 6830SOL    MW427088   4.455   4.983   4.065  0.1928 -0.3155 -0.3065
 6831SOL     OW27089   4.439   1.168   3.449  0.3769  0.1550  0.0987
 6831SOL    HW227090   4.491   1.091   3.428  0.6414  0.0134  1.2172
 6831SOL    HW327091   4.482   1.207   3.526 -0.1878  0.9889  0.0156
 6831SOL    MW427092   4.452   1.163   3.456 -0.7139  0.2693 -0.3801
 6832SOL     OW27093   2.913   3.793   2.819 -0.6511  0.8917  0.9793
 6832SOL    HW227094   2.876   3.728   2.878  1.0513 -1.1631 -0.0655
 6832SOL    HW327095   2.957   3.856   2.877  1.5551 -1.4297  1.9859
 6832SOL    MW427096   2.914   3.793   2.834  0.3249 -0.1839 -0.5316
 6833SOL     OW27097   3.448   0.188   0.666  0.3021  0.4922  0.0725
 6833SOL    HW227098   3.426   0.106   0.621  0.6313  0.8889 -0.8108
 6833SOL    HW327099   3.527   0.166   0.716  0.9528  0.5163 -0.9129
 6833SOL    MW427100   3.456   0.174   0.667 -0.5634  0.2061  0.0524
 6834SOL     OW27101   1.243   2.791   5.969 -0.8718 -0.2236  0.1589
 6834SOL    HW227102   1.169   2.731   5.961 -0.7589 -0.2294 -0.9986
 6834SOL    HW327103   1.208   2.867   6.015 -1.5461 -0.3149 -0.1992
 6834SOL    MW427104   1.229   2.794   5.974 -0.0738  0.5603  0.3969
 6835SOL     OW27105   6.271   6.361   3.000 -0.2269 -0.8474  0.2976
 6835SOL    HW227106   6.274   6.265   3.006  0.6401 -0.8072  0.5901
 6835SOL    HW327107   6.296   6.380   2.910 -0.2949 -0.8847  0.2702
 6835SOL    MW427108   6.275   6.351   2.989 -0.7189 -0.4178  0.6149
 6836SOL     OW27109   2.990   1.032   6.411 -0.4383  0.3056 -0.5416
 6836SOL    HW227110   3.073   0.993   6.383 -0.5174  0.5387 -1.1188
 6836SOL    HW327111   2.925   0.995   6.351 -0.6286  0.7365 -0.6030
 6836SOL    MW427112   2.992   1.022   6.400  0.1335 -0.2771  0.4487
 6837SOL     OW27113   5.493   4.596   4.428 -0.0283 -0.2936 -0.6470
 6837SOL    HW227114   5.422   4.536   4.449 -0.8201  1.2624  1.6557
 6837SOL    HW327115   5.449   4.676   4.399  0.9464 -0.4044 -2.5399
 6837SOL    MW427116   5.478   4.599   4.427  0.7168  0.6151 -0.3824
 6838SOL     OW27117   6.277   0.603   1.256  0.5026 -0.0813 -0.1289
 6838SOL    HW227118   6.346   0.617   1.191 -1.2643 -0.8111 -2.2864
 6838SOL    HW327119   6.268   0.508   1.260 -0.4011  0.0070  0.0645
 6838SOL    MW427120   6.285   0.592   1.248 -0.0935  0.2813  0.1614
 6839SOL     OW27121   3.533   1.544   4.013 -0.1957  0.4571  0.1229
 6839SOL    HW227122   3.541   1.457   4.053 -2.3919  1.0541  2.0601
 6839SOL    HW327123   3.445   1.544   3.974 -0.3052  1.8777  0.3381
 6839SOL    MW427124   3.522   1.532   4.013  0.0414 -0.2380 -0.0607
 6840SOL     OW27125   6.302   3.132   3.997 -0.2688 -0.1234 -0.1517
 6840SOL    HW227126   6.270   3.211   3.954  0.5319 -0.1456 -0.8174
 6840SOL    HW327127   6.397   3.146   4.006 -0.2652 -0.5752  0.6509
 6840SOL    MW427128   6.311   3.144   3.992 -0.0585 -0.1580 -0.5314
 6841SOL     OW27129   1.237   4.159   3.298  0.0403  0.2420 -0.3678
 6841SOL    HW227130   1.220   4.067   3.275 -0.4130  0.5527 -1.3427
 6841SOL    HW327131   1.232   4.161   3.393  2.1526 -1.1622 -0.1564
 6841SOL    MW427132   1.234   4.147   3.307 -0.0881 -0.0628  0.3067
 6842SOL     OW27133   3.616   2.667   6.344  0.3394 -0.3886 -0.1381
 6842SOL    HW227134   3.606   2.762   6.354 -2.7792 -0.8073  2.7212
 6842SOL    HW327135   3.612   2.633   6.433  2.0192 -3.2246 -1.0287
 6842SOL    MW427136   3.614   2.675   6.357  0.1647 -0.2290 -0.4418
 6843SOL     OW27137   2.262   2.355   2.828 -0.2306  0.1663  0.7844
 6843SOL    HW227138   2.175   2.384   2.801 -0.3055 -1.1825 -0.4761
 6843SOL    HW327139   2.322   2.411   2.779 -0.3841 -1.1134 -0.9256
 6843SOL    MW427140   2.258   2.367   2.818  0.0015 -0.2889  0.0377
 6844SOL     OW27141   5.337   0.219   1.282  0.4978 -0.1510 -0.1911
 6844SOL    HW227142   5.293   0.281   1.339 -0.1225 -1.1618  0.4742
 6844SOL    HW327143   5.357   0.268   1.203 -0.4962  0.7351  0.0880
 6844SOL    MW427144   5.334   0.233   1.279  0.2574 -0.6174 -0.2977
 6845SOL     OW27145   1.071   0.228   0.226 -0.2590  0.6332  0.0857
 6845SOL    HW227146   1.018   0.166   0.178 -0.2648 -0.2263  1.1641
 6845SOL    HW327147   1.144   0.177   0.260 -0.9757  0.8553  2.1467
 6845SOL    MW427148   1.074   0.213   0.224  0.3243 -0.1704 -0.1122
 6846SOL     OW27149   1.215   5.525   0.463 -0.0249 -0.5995  0.6523
 6846SOL    HW227150   1.129   5.549   0.430 -0.0253  1.1475  1.7986
 6846SOL    HW327151   1.215   5.429   0.463 -2.0519 -0.6359  0.8565
 6846SOL    MW427152   1.204   5.515   0.458 -0.4081 -0.2388  0.2639
 6847SOL     OW27153   1.716   4.711   2.018  0.5631 -0.0126 -0.5820
 6847SOL    HW227154   1.810   4.722   2.026  0.6385 -0.7561 -0.4204
 6847SOL    HW327155   1.694   4.641   2.080 -0.5373  2.1612  1.6778
 6847SOL    MW427156   1.725   4.703   2.028  0.1913 -0.1672 -0.0834
 6848SOL     OW27157   4.481   0.491   3.283 -0.3067  0.6498  0.1701
 6848SOL    HW227158   4.552   0.443   3.327 -0.1630  0.8374  0.1451
 6848SOL    HW327159   4.447   0.550   3.350 -1.9447 -0.9976  0.8760
 6848SOL    MW427160   4.486   0.493   3.298 -0.0325  0.0401  0.0207
 6849SOL     OW27161   1.987   2.127   1.894  0.4354  0.2411  0.0323
 6849SOL    HW227162   1.978   2.072   1.972  0.9716  0.8997  0.5718
 6849SOL    HW327163   1.954   2.213   1.920 -0.2964  0.2167 -0.7724
 6849SOL    MW427164   1.982   2.131   1.908 -0.4830 -0.4405  0.1170
 6850SOL     OW27165   5.339   2.572   1.755  0.5389 -0.0902 -0.2947
 6850SOL    HW227166   5.355   2.493   1.806 -0.8176 -0.0208  0.2980
 6850SOL    HW327167   5.425   2.599   1.723  1.1198 -1.3527  0.1572
 6850SOL    MW427168   5.352   2.565   1.758  0.1475  0.3258 -0.5830
 6851SOL     OW27169   0.229   0.378   5.711 -0.2316  0.3393 -0.4319
 6851SOL    HW227170   0.147   0.351   5.753 -0.1122  0.3485 -0.1912
 6851SOL    HW327171   0.294   0.315   5.744 -0.4249 -0.6216 -1.7927
 6851SOL    MW427172   0.227   0.366   5.721  0.3401  0.3085 -0.7751
 6852SOL     OW27173   0.524   4.843   4.337 -0.0842 -0.4319  0.2729
 6852SOL    HW227174   0.566   4.854   4.423  0.2495 -1.2672  0.2250
 6852SOL    HW327175   0.593   4.862   4.274 -0.8039  2.0911  0.1286
 6852SOL    MW427176   0.538   4.847   4.340  0.1986  0.1084  0.1164
 6853SOL     OW27177   4.585   3.711   3.438  0.4933  0.9641  0.5308
 6853SOL    HW227178   4.502   3.691   3.480 -0.0462  1.6123 -0.1903
 6853SOL    HW327179   4.631   3.627   3.435  0.2115  0.7563  1.6581
 6853SOL    MW427180   4.580   3.697   3.443  0.5088 -0.0263 -0.2237
 6854SOL     OW27181   2.352   0.643   3.874  0.4534 -0.0642 -0.0728
 6854SOL    HW227182   2.371   0.550   3.858  1.7499 -0.1309  1.5573
 6854SOL    HW327183   2.383   0.688   3.795 -0.9589 -1.0411 -1.2524
 6854SOL    MW427184   2.359   0.636   3.861  0.1701  0.0096 -0.2283
 6855SOL     OW27185   3.160   1.556   3.425 -0.3853 -0.5872  0.5595
 6855SOL    HW227186   3.248   1.574   3.392  0.2812  1.4485  3.0537
 6855SOL    HW327187   3.105   1.624   3.385 -0.3146 -0.3692  0.8276
 6855SOL    MW427188   3.164   1.567   3.416 -0.2770  0.2967  0.2056
 6856SOL     OW27189   2.153   2.144   5.130 -0.0529  0.1086  0.0939
 6856SOL    HW227190   2.167   2.137   5.225  0.0233  0.4353  0.1094
 6856SOL    HW327191   2.241   2.152   5.094 -0.0935  0.2055  0.0157
 6856SOL    MW427192   2.166   2.144   5.138  0.8028 -0.5127  0.0223
 6857SOL     OW27193   4.330   3.484   1.804 -0.1943 -0.1400 -0.6015
 6857SOL    HW227194   4.355   3.457   1.892 -1.2259  1.0899  0.1059
 6857SOL    HW327195   4.313   3.402   1.757 -2.1656 -0.8103  1.1245
 6857SOL    MW427196   4.331   3.470   1.809  0.1587 -0.8021  0.2592
 6858SOL     OW27197   5.999   1.531   5.018  0.1235 -0.5165  0.4604
 6858SOL    HW227198   5.931   1.596   5.000 -1.4356 -2.0618  0.3963
 6858SOL    HW327199   6.067   1.579   5.065 -0.7243  1.2387 -0.0127
 6858SOL    MW427200   5.999   1.546   5.022 -0.0072  0.4154  0.4416
 6859SOL     OW27201   2.458   3.988   0.804 -0.0439  0.2832 -0.0677
 6859SOL    HW227202   2.497   3.906   0.833 -1.4703 -0.4732 -0.2373
 6859SOL    HW327203   2.438   4.036   0.884  0.7586  0.4667  0.0303
 6859SOL    MW427204   2.461   3.984   0.818 -0.2922 -0.3654  0.4590
 6860SOL     OW27205   1.587   5.564   4.359  0.7411  0.5555 -0.2262
 6860SOL    HW227206   1.539   5.646   4.366 -2.1297 -0.9446 -0.8370
 6860SOL    HW327207   1.630   5.568   4.274 -0.0160  1.1144 -0.5907
 6860SOL    MW427208   1.587   5.575   4.349 -0.2685  0.4778 -0.5754
 6861SOL     OW27209   5.308   2.927   3.850 -0.3093 -0.2081  0.1191
 6861SOL    HW227210   5.353   2.945   3.932 -0.4127 -0.8316  0.3213
 6861SOL    HW327211   5.323   2.833   3.834 -0.9322 -0.2679 -0.1707
 6861SOL    MW427212   5.316   2.917   3.858  0.2926  0.3114  0.3656
 6862SOL     OW27213   5.597   2.145   1.175 -0.2863 -0.2352 -0.1494
 6862SOL    HW227214   5.579   2.118   1.265 -0.6129 -1.2133 -0.4976
 6862SOL    HW327215   5.525   2.109   1.123 -2.1911  3.3924 -0.3583
 6862SOL    MW427216   5.585   2.137   1.180 -0.4952  0.1574 -0.4443
 6863SOL     OW27217   3.939   2.225   5.957  0.1410 -0.6060 -0.0936
 6863SOL    HW227218   4.023   2.187   5.983 -0.1400 -2.0367 -1.0986
 6863SOL    HW327219   3.879   2.201   6.027  0.3688 -0.4044  0.1712
 6863SOL    MW427220   3.942   2.217   5.969  0.1990 -0.1045  0.7260
 6864SOL     OW27221   1.437   1.021   1.284  0.5339  0.0067 -0.1285
 6864SOL    HW227222   1.507   0.973   1.329 -1.2730 -2.0357  0.6869
 6864SOL    HW327223   1.475   1.044   1.199  2.3035 -0.7016  0.4144
 6864SOL    MW427224   1.452   1.017   1.279  0.2109 -0.2782  0.1367
 6865SOL     OW27225   5.912   0.982   0.320  0.0111 -0.2156 -0.1354
 6865SOL    HW227226   5.912   0.981   0.224 -0.5699  2.1450 -0.2183
 6865SOL    HW327227   5.831   0.939   0.345 -0.9321  1.1083 -0.8089
 6865SOL    MW427228   5.901   0.976   0.310 -0.0782  0.2361  0.6120
 6866SOL     OW27229   5.735   3.459   1.237 -0.3393  0.6913  0.2798
 6866SOL    HW227230   5.681   3.435   1.161 -0.1693  0.8376  0.1106
 6866SOL    HW327231   5.718   3.391   1.302  0.1273  0.1210 -0.1866
 6866SOL    MW427232   5.726   3.447   1.235  0.0826 -0.0211  0.2120
 6867SOL     OW27233   4.444   6.302   1.668 -0.4117 -0.1979 -0.0636
 6867SOL    HW227234   4.487   6.217   1.672 -1.5070 -0.8188 -0.7747
 6867SOL    HW327235   4.394   6.308   1.750  4.7064  2.7443  3.4160
 6867SOL    MW427236   4.443   6.292   1.680 -0.0239  0.1674  0.2138
 6868SOL     OW27237   3.293   2.017   1.618  0.4935  0.0768  0.2976
 6868SOL    HW227238   3.327   2.090   1.567 -0.1770  1.4306  1.7004
 6868SOL    HW327239   3.276   2.054   1.705 -3.1548 -0.7986  0.1114
 6868SOL    MW427240   3.295   2.031   1.623 -0.0655  0.3105  0.0197
 6869SOL     OW27241   1.596   4.611   1.735  0.2051  0.5576 -0.2317
 6869SOL    HW227242   1.556   4.526   1.753 -1.1427  1.2750  0.2964
 6869SOL    HW327243   1.606   4.652   1.821  0.2502  1.1833 -0.5283
 6869SOL    MW427244   1.592   4.605   1.749 -0.0879  0.5380 -0.0017
 6870SOL     OW27245   4.564   5.387   4.438 -0.7277 -0.1580  0.3748
 6870SOL    HW227246   4.595   5.470   4.403 -0.3902 -0.5987 -0.3999
 6870SOL    HW327247   4.524   5.343   4.363 -1.8051 -0.2746  1.0009
 6870SOL    MW427248   4.563   5.392   4.423  0.3157 -0.0262 -0.0066
 6871SOL     OW27249   3.561   2.177   4.912 -0.1917 -0.8031 -0.2568
 6871SOL    HW227250   3.584   2.242   4.845  0.8920 -1.1597 -0.2527
 6871SOL    HW327251   3.551   2.095   4.863 -3.9750 -0.2836 -0.6491
 6871SOL    MW427252   3.563   2.175   4.897 -0.0593  0.0943 -0.6666
 6872SOL     OW27253   3.447   1.060   3.954  0.1070 -0.0408 -0.1686
 6872SOL    HW227254   3.362   1.035   3.990  0.7013 -0.0318  1.3251
 6872SOL    HW327255   3.488   0.978   3.930 -0.1844 -0.0663 -0.5966
 6872SOL    MW427256   3.441   1.046   3.956  0.1043 -0.0670 -0.3004
 6873SOL     OW27257   3.499   4.528   5.156 -0.2374  0.0469  0.3825
 6873SOL    HW227258   3.559   4.600   5.136 -1.1404 -0.0071 -3.1738
 6873SOL    HW327259   3.555   4.451   5.158  0.0817  0.1918 -1.3621
 6873SOL    MW427260   3.514   4.528   5.154 -0.3668 -0.0810 -0.3247
 6874SOL     OW27261   0.485   4.746   1.539 -0.3095  0.4800 -0.3601
 6874SOL    HW227262   0.514   4.664   1.499 -1.5161 -0.4192  0.5622
 6874SOL    HW327263   0.439   4.792   1.469  0.2251  0.3187 -0.8296
 6874SOL    MW427264   0.483   4.741   1.525  0.1094 -0.0525  0.4998
 6875SOL     OW27265   3.057   2.190   1.232  0.1952  0.0577  0.6575
 6875SOL    HW227266   2.986   2.231   1.184 -0.1075 -1.3956 -0.1930
 6875SOL    HW327267   3.108   2.263   1.266 -0.5695  1.1266 -0.4087
 6875SOL    MW427268   3.054   2.205   1.230  0.3038 -0.0925  0.1191
 6876SOL     OW27269   2.915   5.750   0.940  0.1276 -0.3129  0.3393
 6876SOL    HW227270   2.843   5.697   0.908  0.7044 -1.4275  0.8357
 6876SOL    HW327271   2.924   5.820   0.875 -1.1442 -0.3645  0.0833
 6876SOL    MW427272   2.907   5.752   0.927 -0.2502  0.3374 -0.0309
 6877SOL     OW27273   4.844   3.561   0.580 -1.1241  0.1555 -0.2876
 6877SOL    HW227274   4.751   3.546   0.596 -1.4508  2.4034  0.3937
 6877SOL    HW327275   4.848   3.651   0.547  0.8357  0.2266  0.0118
 6877SOL    MW427276   4.832   3.571   0.577  0.3494  0.3054 -0.2255
 6878SOL     OW27277   2.985   1.835   6.319 -0.1754  0.1387  0.2576
 6878SOL    HW227278   2.902   1.787   6.320  1.0316 -2.0787  1.1378
 6878SOL    HW327279   3.002   1.853   6.227 -0.8309 -0.8925 -0.0793
 6878SOL    MW427280   2.976   1.831   6.307 -0.0723  0.1155 -0.4099
 6879SOL     OW27281   3.248   5.752   5.831 -0.7851 -0.0087  0.5381
 6879SOL    HW227282   3.253   5.663   5.868  0.7553 -0.2371 -0.1689
 6879SOL    HW327283   3.154   5.773   5.832 -1.4247 -2.3986 -1.0459
 6879SOL    MW427284   3.236   5.743   5.836  0.0728 -0.5090 -0.3897
 6880SOL     OW27285   5.890   0.060   0.210 -0.3301  0.0559  0.2079
 6880SOL    HW227286   5.954   0.102   0.153 -0.5380  0.5489  0.3317
 6880SOL    HW327287   5.852  -0.009   0.156  0.7531 -0.6597  0.3434
 6880SOL    MW427288   5.893   0.057   0.196  0.1211 -0.2520  0.5035
 6881SOL     OW27289   5.322   4.816   1.177 -0.3588  0.1674 -0.2520
 6881SOL    HW227290   5.368   4.863   1.247 -1.6472  1.2517 -0.1002
 6881SOL    HW327291   5.381   4.743   1.156  0.6353  0.5173  1.0956
 6881SOL    MW427292   5.336   4.812   1.184 -0.2302 -0.2842  0.2846
 6882SOL     OW27293   2.427   3.771   3.103 -0.0801  0.3377 -0.7555
 6882SOL    HW227294   2.377   3.690   3.107  1.7984 -0.8436 -0.0468
 6882SOL    HW327295   2.377   3.832   3.158 -0.0066 -1.2511  1.1725
 6882SOL    MW427296   2.414   3.768   3.111 -0.2463 -0.3818  0.9609
 6883SOL     OW27297   4.654   0.366   5.956 -0.3563 -0.0452 -0.0762
 6883SOL    HW227298   4.654   0.318   6.039 -3.0828 -0.7609 -0.4145
 6883SOL    HW327299   4.694   0.451   5.978  1.0967 -1.0270  1.3826
 6883SOL    MW427300   4.659   0.371   5.970  0.1784  0.1398  0.4863
 6884SOL     OW27301   1.580   3.140   4.212  0.9150  0.1354 -0.2314
 6884SOL    HW227302   1.550   3.171   4.127 -0.5010 -0.9714 -0.1593
 6884SOL    HW327303   1.537   3.197   4.275  2.8695  1.7201 -0.2268
 6884SOL    MW427304   1.571   3.152   4.209  0.2928  0.5706  0.8668
 6885SOL     OW27305   0.857   2.674   0.239  0.5611  0.5299  0.5270
 6885SOL    HW227306   0.876   2.661   0.332  0.2642 -0.5368  0.4541
 6885SOL    HW327307   0.805   2.754   0.235  0.7056  0.6606  1.2615
 6885SOL    MW427308   0.853   2.683   0.250  0.6878 -0.0908  0.0381
 6886SOL     OW27309   2.054   6.245   3.006  0.2136  0.0496  0.4224
 6886SOL    HW227310   2.147   6.228   2.991  0.1275 -2.0434  1.8364
 6886SOL    HW327311   2.009   6.170   2.968 -0.6465 -0.5201  2.4537
 6886SOL    MW427312   2.060   6.233   2.999  0.1804 -0.1430  0.0121
 6887SOL     OW27313   4.032   1.934   4.654 -0.1787 -0.1387 -0.3197
 6887SOL    HW227314   3.979   1.854   4.654  0.2585 -0.4344  0.1295
 6887SOL    HW327315   4.047   1.952   4.561 -2.2261  0.7467 -0.5345
 6887SOL    MW427316   4.027   1.926   4.641 -0.2121  0.2555 -0.2301
 6888SOL     OW27317   3.456   0.119   2.078 -0.0331 -0.7142  0.3798
 6888SOL    HW227318   3.512   0.197   2.087  0.0260 -0.8124  0.8817
 6888SOL    HW327319   3.367   0.154   2.070  0.0326 -0.5806  0.2309
 6888SOL    MW427320   3.452   0.134   2.078 -0.3407  0.1268 -0.2048
 6889SOL     OW27321   0.855   4.394   5.154  0.1723 -0.4973  0.3520
 6889SOL    HW227322   0.869   4.318   5.098 -1.1900  1.1049 -2.3638
 6889SOL    HW327323   0.924   4.388   5.221  1.0789 -3.2048 -0.6982
 6889SOL    MW427324   0.866   4.383   5.156  0.0868 -0.0754  0.0978
 6890SOL     OW27325   3.256   6.391   3.356 -0.1509  0.5983 -0.5309
 6890SOL    HW227326   3.243   6.391   3.261 -2.8898 -0.6073 -0.2438
 6890SOL    HW327327   3.316   6.318   3.372 -0.2938  0.3023 -1.2998
 6890SOL    MW427328   3.262   6.381   3.345  0.1218  0.2104  0.3396
 6891SOL     OW27329   3.069   3.343   5.257  0.6030  0.4674 -0.6821
 6891SOL    HW227330   3.130   3.305   5.194 -0.0775 -1.1589 -0.3855
 6891SOL    HW327331   2.986   3.348   5.211 -0.1128 -1.5277  0.3091
 6891SOL    MW427332   3.066   3.339   5.243  0.1282  0.5961 -0.3639
 6892SOL     OW27333   1.087   5.622   3.927 -0.0494 -0.1292 -0.0881
 6892SOL    HW227334   1.131   5.655   4.006 -0.3115  1.8645 -0.7143
 6892SOL    HW327335   1.022   5.560   3.960  1.2410 -0.9419  1.0685
 6892SOL    MW427336   1.084   5.618   3.942 -0.7214 -0.1603 -0.0016
 6893SOL     OW27337   0.868   2.911   4.510 -0.2179  0.0072 -0.3755
 6893SOL    HW227338   0.875   2.953   4.596  0.3255 -1.8720  0.5487
 6893SOL    HW327339   0.956   2.878   4.492 -0.7364 -1.1733 -0.8073
 6893SOL    MW427340   0.880   2.912   4.519 -0.1048  0.4700  0.0168
 6894SOL     OW27341   1.338   6.308   2.782 -0.1622 -0.3702  0.3096
 6894SOL    HW227342   1.339   6.290   2.688  2.4988 -1.3058  0.4413
 6894SOL    HW327343   1.384   6.391   2.791  1.3430 -1.2309  0.8859
 6894SOL    MW427344   1.344   6.317   2.770  1.1148  0.2128 -0.5340
 6895SOL     OW27345   5.054   2.400   0.690  0.0345 -0.3629  0.1821
 6895SOL    HW227346   5.040   2.402   0.595 -0.5014 -0.0734  0.2625
 6895SOL    HW327347   5.102   2.319   0.705  0.6566 -0.1135 -0.4052
 6895SOL    MW427348   5.059   2.390   0.679 -0.2197  0.1678  0.0409
 6896SOL     OW27349   0.330   2.541   2.942  0.3150 -0.1572  0.0587
 6896SOL    HW227350   0.364   2.568   2.856 -0.3254 -2.6726 -1.0733
 6896SOL    HW327351   0.249   2.590   2.951  0.0281 -0.3653 -1.1236
 6896SOL    MW427352   0.324   2.551   2.932  0.1111  0.2426  0.4608
 6897SOL     OW27353   4.860   3.443   4.871 -0.0041  0.0948  0.5168
 6897SOL    HW227354   4.809   3.428   4.791 -0.4245 -2.9998  1.2438
 6897SOL    HW327355   4.950   3.457   4.840 -0.5463  1.3962 -0.5712
 6897SOL    MW427356   4.865   3.443   4.856  0.4303 -0.2016 -0.9610
 6898SOL     OW27357   1.703   4.191   4.783  0.0559 -0.2807  0.2913
 6898SOL    HW227358   1.662   4.246   4.716  2.7310  0.8275 -0.5726
 6898SOL    HW327359   1.741   4.253   4.845  0.4564 -1.2344  1.0132
 6898SOL    MW427360   1.702   4.206   4.782  0.0772 -0.3161  0.6235
 6899SOL     OW27361   3.042   3.926   1.222  0.3182 -0.2299 -0.3839
 6899SOL    HW227362   3.024   3.834   1.242 -0.2388  0.2327  1.3792
 6899SOL    HW327363   2.975   3.974   1.269  0.1251  1.0776 -1.9089
 6899SOL    MW427364   3.031   3.920   1.231  0.4032  0.1756 -0.1935
 6900SOL     OW27365   4.256   5.393   0.574 -0.3596  0.1053 -0.0977
 6900SOL    HW227366   4.302   5.351   0.647 -0.9519 -1.4190 -0.5540
 6900SOL    HW327367   4.318   5.456   0.539  1.2810 -1.6337 -0.4714
 6900SOL    MW427368   4.270   5.396   0.579 -0.1689 -0.5549  0.1513
 6901SOL     OW27369   2.753   3.279   0.300 -0.4741  0.0620  0.2656
 6901SOL    HW227370   2.756   3.316   0.388 -0.7007 -0.8082  0.6542
 6901SOL    HW327371   2.842   3.248   0.284 -0.8571 -1.5205  0.9862
 6901SOL    MW427372   2.765   3.280   0.310  0.2013 -0.1901  0.1845
 6902SOL     OW27373   0.355   4.001   5.970 -0.6178  0.0425 -0.2259
 6902SOL    HW227374   0.346   3.908   5.991 -0.7203 -0.1639 -1.1623
 6902SOL    HW327375   0.379   4.042   6.054  2.1948 -1.1999 -0.3179
 6902SOL    MW427376   0.357   3.994   5.984 -0.4088 -0.7212 -0.0608
 6903SOL     OW27377   4.256   2.988   4.222  0.2875  0.0984 -0.2418
 6903SOL    HW227378   4.250   3.069   4.274  0.8702  0.5379 -0.8423
 6903SOL    HW327379   4.189   2.998   4.155 -0.5562 -0.5295  0.4780
 6903SOL    MW427380   4.246   3.000   4.220  0.2169  0.2987 -0.5123
 6904SOL     OW27381   4.750   4.800   0.622  0.8121  0.2317 -0.2396
 6904SOL    HW227382   4.657   4.810   0.644  1.0727 -0.4308  1.2671
 6904SOL    HW327383   4.752   4.807   0.527 -0.9890 -1.2434 -0.4608
 6904SOL    MW427384   4.738   4.802   0.612 -0.3745  0.0457 -0.2873
 6905SOL     OW27385   2.012   0.465   1.081  0.4155  0.3498 -0.1283
 6905SOL    HW227386   1.981   0.520   1.152  3.2720  1.6942  0.2193
 6905SOL    HW327387   2.034   0.382   1.122  0.5871  0.5948  0.2770
 6905SOL    MW427388   2.011   0.461   1.095 -0.1419 -0.0088  0.3688
 6906SOL     OW27389   1.104   6.131   3.932  0.2932 -0.2169 -0.0995
 6906SOL    HW227390   1.163   6.056   3.942 -0.9993 -1.4391 -1.1363
 6906SOL    HW327391   1.087   6.160   4.021  0.7636 -1.2034  0.3362
 6906SOL    MW427392   1.110   6.125   3.945 -0.6430 -0.4746  0.0073
 6907SOL     OW27393   2.044   4.966   0.346 -0.1930  0.6805 -0.3850
 6907SOL    HW227394   2.037   4.881   0.303 -1.0305  1.8015 -2.6314
 6907SOL    HW327395   2.030   4.948   0.439  1.0780 -1.7859 -0.6138
 6907SOL    MW427396   2.041   4.953   0.352 -0.1187 -0.1781 -0.9647
 6908SOL     OW27397   0.604   1.311   6.061 -0.5191 -0.1896  0.5355
 6908SOL    HW227398   0.524   1.260   6.074 -0.1102 -0.7175  0.9977
 6908SOL    HW327399   0.654   1.262   5.995 -0.5473  0.1131  0.2839
 6908SOL    MW427400   0.600   1.298   6.054  0.7354 -1.0283 -0.9320
 6909SOL     OW27401   3.475   4.521   0.315  0.1624  0.6331 -0.2699
 6909SOL    HW227402   3.395   4.479   0.346  0.2361 -0.0519 -0.9795
 6909SOL    HW327403   3.497   4.475   0.234  0.0357  2.2901 -1.3031
 6909SOL    MW427404   3.467   4.509   0.309 -0.3417  0.3696 -0.2157
 6910SOL     OW27405   1.446   4.679   5.437  0.6644  0.2460 -0.2296
 6910SOL    HW227406   1.358   4.710   5.417  0.9625  1.7499  0.6283
 6910SOL    HW327407   1.499   4.758   5.439  1.8571 -0.5423  0.2074
 6910SOL    MW427408   1.441   4.693   5.434  0.1508 -0.3722 -0.0893
 6911SOL     OW27409   0.595   1.462   4.707 -0.0623 -0.5108 -0.4766
 6911SOL    HW227410   0.656   1.434   4.775  0.9000 -1.9571 -1.8630
 6911SOL    HW327411   0.650   1.479   4.630 -1.0777  1.3620 -0.8787
 6911SOL    MW427412   0.610   1.461   4.706  0.2014  0.3102  0.1416
 6912SOL     OW27413   1.618   1.186   1.545  0.5597  0.7118  0.2605
 6912SOL    HW227414   1.633   1.094   1.523  0.7762  0.0904  2.7024
 6912SOL    HW327415   1.586   1.225   1.464  1.6228 -1.2258 -1.1733
 6912SOL    MW427416   1.616   1.179   1.532  0.5139 -0.1015 -0.1443
 6913SOL     OW27417   5.913   5.911   2.653 -0.1154  0.0445  0.3171
 6913SOL    HW227418   5.999   5.954   2.661 -0.1965  0.1093  0.9414
 6913SOL    HW327419   5.913   5.872   2.566  0.2603  0.6775  0.0279
 6913SOL    MW427420   5.925   5.912   2.643 -0.3667  0.2083 -0.0944
 6914SOL     OW27421   5.214   4.692   4.804  0.1738 -0.2820  0.0557
 6914SOL    HW227422   5.159   4.623   4.768  0.5426 -1.1116  1.0210
 6914SOL    HW327423   5.154   4.747   4.853 -0.4799  1.3506 -2.3999
 6914SOL    MW427424   5.199   4.690   4.806 -0.0432 -0.2215  0.7671
 6915SOL     OW27425   1.088   4.505   4.313  0.2323  0.0651  0.6856
 6915SOL    HW227426   1.063   4.598   4.310 -1.2009 -0.3148 -0.2476
 6915SOL    HW327427   1.176   4.503   4.275 -0.2086  0.9181 -0.4418
 6915SOL    MW427428   1.096   4.517   4.307  0.2567 -0.0218 -0.2085
 6916SOL     OW27429   2.366   0.559   3.259  0.0867 -0.1427  0.1822
 6916SOL    HW227430   2.429   0.623   3.293  0.4189 -0.8688  0.9665
 6916SOL    HW327431   2.414   0.513   3.189 -0.0967  0.3365 -0.2677
 6916SOL    MW427432   2.381   0.561   3.254  0.3797  0.3709 -0.3732
 6917SOL     OW27433   0.367   0.601   6.108 -0.4574  0.1361 -0.3420
 6917SOL    HW227434   0.412   0.558   6.180 -1.3870 -1.2851 -0.5672
 6917SOL    HW327435   0.415   0.573   6.030 -1.7225 -1.5009 -0.5970
 6917SOL    MW427436   0.379   0.592   6.107 -0.0452  0.5631 -0.7652
 6918SOL     OW27437   2.449   1.470   4.138  0.2040 -0.0767 -0.2104
 6918SOL    HW227438   2.475   1.550   4.092  0.0454 -0.2411 -0.5859
 6918SOL    HW327439   2.380   1.432   4.083 -1.8949  1.1051  1.4470
 6918SOL    MW427440   2.443   1.476   4.125  0.1774 -0.8754  0.3275
 6919SOL     OW27441   4.899   4.594   0.977 -0.1373 -0.6463  0.1557
 6919SOL    HW227442   4.986   4.621   1.008 -0.5115 -0.1602  0.7962
 6919SOL    HW327443   4.858   4.676   0.949 -0.1874 -0.9470 -0.6765
 6919SOL    MW427444   4.905   4.608   0.977 -0.4509 -0.1065 -0.4076
 6920SOL     OW27445   1.055   6.260   5.152  0.2113 -0.1826 -0.1203
 6920SOL    HW227446   1.122   6.231   5.214 -1.3748 -1.2904  1.1728
 6920SOL    HW327447   1.057   6.355   5.158  1.0823 -0.2252  0.5312
 6920SOL    MW427448   1.064   6.269   5.161 -0.3153  0.5750 -0.6671
 6921SOL     OW27449   3.116   2.268   6.392 -0.0508  0.1382  0.1529
 6921SOL    HW227450   3.149   2.268   6.482  0.6501 -0.2831 -0.0936
 6921SOL    HW327451   3.052   2.339   6.389  0.5016  0.6672  0.7740
 6921SOL    MW427452   3.112   2.277   6.403  0.0458  0.0465  0.7936
 6922SOL     OW27453   1.277   5.277   1.691  0.1718  0.3980 -0.0728
 6922SOL    HW227454   1.329   5.197   1.685 -0.7571 -0.2702  0.5160
 6922SOL    HW327455   1.258   5.287   1.784  1.8232  2.3486  0.1295
 6922SOL    MW427456   1.281   5.268   1.703  0.4704 -0.3496  0.0836
 6923SOL     OW27457   0.541   5.392   6.233  0.0078  0.5258  0.3669
 6923SOL    HW227458   0.611   5.328   6.246  0.2488  0.5691 -0.6528
 6923SOL    HW327459   0.583   5.467   6.192 -0.7751  0.2036 -1.0949
 6923SOL    MW427460   0.556   5.393   6.229  0.0149 -0.5949  0.2132
 6924SOL     OW27461   1.819   3.793   2.224 -0.5978 -0.3850 -0.1417
 6924SOL    HW227462   1.830   3.883   2.254 -2.7567 -0.1392  0.0490
 6924SOL    HW327463   1.897   3.776   2.170  0.0866  1.4087  0.2199
 6924SOL    MW427464   1.831   3.803   2.221 -0.9776 -0.4933 -0.2780
 6925SOL     OW27465   1.609   3.896   5.882  0.0015 -0.3788 -0.0265
 6925SOL    HW227466   1.588   3.924   5.971  1.9397  3.3374 -0.5306
 6925SOL    HW327467   1.524   3.895   5.837 -0.7728 -0.2975  1.3646
 6925SOL    MW427468   1.595   3.900   5.888  0.4922 -0.2103 -0.4108
 6926SOL     OW27469   3.493   4.852   4.955  0.3311 -0.4522 -0.4435
 6926SOL    HW227470   3.577   4.823   4.992  0.7245  1.0072 -0.1298
 6926SOL    HW327471   3.478   4.792   4.881  0.4477 -2.2439  0.9043
 6926SOL    MW427472   3.502   4.840   4.950  0.0828  0.0002 -0.0365
 6927SOL     OW27473   4.590   4.415   0.723 -0.6916 -0.0354  0.3701
 6927SOL    HW227474   4.632   4.343   0.771  0.9068 -0.0238 -0.9163
 6927SOL    HW327475   4.510   4.378   0.689 -0.8151 -0.6457  1.2795
 6927SOL    MW427476   4.585   4.401   0.725 -0.7210 -0.2944  0.2414
 6928SOL     OW27477   1.266   0.508   0.854 -0.4952 -0.2562 -0.3415
 6928SOL    HW227478   1.310   0.591   0.871 -1.1039 -0.2295  1.1913
 6928SOL    HW327479   1.175   0.522   0.880 -0.7237 -1.2380 -0.5649
 6928SOL    MW427480   1.260   0.520   0.860 -0.4444  0.8143 -0.1506
 6929SOL     OW27481   6.038   6.043   2.347  0.1548 -0.0457 -0.2991
 6929SOL    HW227482   6.060   6.089   2.266 -0.5158  1.1068  0.1457
 6929SOL    HW327483   6.122   6.016   2.383  0.4834 -0.2123 -1.1675
 6929SOL    MW427484   6.052   6.045   2.341  0.6240 -0.1193  0.5765
 6930SOL     OW27485   5.160   0.780   0.500 -0.3346 -0.0492 -0.1810
 6930SOL    HW227486   5.088   0.740   0.451  1.4921 -1.0909 -2.2124
 6930SOL    HW327487   5.131   0.781   0.591 -3.5350  1.0883 -1.1047
 6930SOL    MW427488   5.147   0.775   0.505  0.0961 -0.1570  0.0661
 6931SOL     OW27489   1.368   3.024   0.258 -0.2582 -0.4551  0.0668
 6931SOL    HW227490   1.436   3.087   0.282 -0.8647  1.2293 -2.2454
 6931SOL    HW327491   1.367   3.026   0.162 -1.3594 -2.9090 -0.0427
 6931SOL    MW427492   1.377   3.033   0.248  0.3777 -0.1731 -0.2245
 6932SOL     OW27493   3.558   2.683   4.678 -0.6974 -0.1090  0.2323
 6932SOL    HW227494   3.501   2.618   4.637  2.5259 -1.6587 -2.2748
 6932SOL    HW327495   3.592   2.734   4.605  1.0176  0.8034  1.6012
 6932SOL    MW427496   3.555   2.681   4.663 -0.2653 -0.0232  0.2715
 6933SOL     OW27497   6.142   0.113   1.491 -0.1237  0.4996  0.2755
 6933SOL    HW227498   6.220   0.167   1.496 -1.0632  1.9667 -0.2177
 6933SOL    HW327499   6.070   0.175   1.483 -1.3357 -0.8090  0.5169
 6933SOL    MW427500   6.143   0.128   1.491  0.2970 -0.7485  0.4026
 6934SOL     OW27501   0.182   4.268   0.096 -0.2240 -0.7128  0.4555
 6934SOL    HW227502   0.127   4.341   0.122 -0.5474 -0.5776 -0.5845
 6934SOL    HW327503   0.144   4.192   0.141 -0.6231 -0.4430  0.5763
 6934SOL    MW427504   0.170   4.267   0.105 -0.2520 -0.1890 -0.1442
 6935SOL     OW27505   5.682   0.264   6.053 -0.5720  0.3339  0.1354
 6935SOL    HW227506   5.733   0.218   5.985  1.1529  1.9371  0.2544
 6935SOL    HW327507   5.617   0.314   6.004 -0.3974  0.2252 -0.2157
 6935SOL    MW427508   5.680   0.264   6.038 -0.9403 -0.3998  0.4030
 6936SOL     OW27509   0.333   1.661   6.135  0.2728  0.1837 -0.3391
 6936SOL    HW227510   0.318   1.755   6.120  1.1172  0.5691  1.0415
 6936SOL    HW327511   0.371   1.657   6.223  2.8729 -1.1731 -1.4143
 6936SOL    MW427512   0.336   1.673   6.145  0.0106 -0.0970  0.0137
 6937SOL     OW27513   3.880   0.784   2.777 -0.0625  0.0362 -0.2401
 6937SOL    HW227514   3.974   0.804   2.785 -0.2855  0.8010  0.8068
 6937SOL    HW327515   3.877   0.693   2.748  1.0273 -0.5624  1.3452
 6937SOL    MW427516   3.892   0.775   2.775  0.0979  0.3441 -0.3330
 6938SOL     OW27517   3.097   1.226   4.040 -0.4327  0.4269 -0.4563
 6938SOL    HW227518   3.138   1.139   4.045 -1.0763  0.1065 -0.5846
 6938SOL    HW327519   3.133   1.264   3.960 -0.6042  0.0310 -0.7281
 6938SOL    MW427520   3.107   1.219   4.030 -0.4702  0.1198 -0.2182
 6939SOL     OW27521   2.612   5.072   0.616  0.2247  0.0141 -0.1673
 6939SOL    HW227522   2.560   5.035   0.545  0.3113 -1.6756  0.5958
 6939SOL    HW327523   2.674   5.130   0.572 -1.6193  1.3269 -1.1824
 6939SOL    MW427524   2.613   5.075   0.601  0.0753  0.1657 -1.1013
 6940SOL     OW27525   3.289   3.396   2.971  0.0880  0.6262 -0.3554
 6940SOL    HW227526   3.260   3.455   2.902 -0.2006  1.7270  0.6654
 6940SOL    HW327527   3.301   3.453   3.047  0.9070 -0.4677  0.3602
 6940SOL    MW427528   3.287   3.411   2.972 -0.2455  0.0444 -0.2201
 6941SOL     OW27529   2.023   1.628   1.010  0.1915 -0.3810 -0.2723
 6941SOL    HW227530   2.081   1.573   1.064  3.2443  0.1801 -2.6747
 6941SOL    HW327531   2.054   1.717   1.027 -2.7797  0.4623  1.3774
 6941SOL    MW427532   2.035   1.632   1.019  0.6928 -0.0440 -0.1096
 6942SOL     OW27533   1.322   0.836   4.550 -0.0513  0.4292  0.1749
 6942SOL    HW227534   1.394   0.840   4.613 -0.5886  0.7976  0.7802
 6942SOL    HW327535   1.365   0.836   4.465  0.8012 -2.4327  0.5168
 6942SOL    MW427536   1.337   0.837   4.547  0.2218 -0.5253  0.3438
 6943SOL     OW27537   3.064   3.147   1.272  0.3399  0.7639  0.9789
 6943SOL    HW227538   3.143   3.139   1.326  0.9958 -0.9991 -0.1308
 6943SOL    HW327539   3.064   3.067   1.219 -1.8577  1.0421  0.4794
 6943SOL    MW427540   3.075   3.135   1.272 -0.2065 -0.0563 -0.4198
 6944SOL     OW27541   4.419   3.422   3.294  0.6392 -0.5988 -0.4896
 6944SOL    HW227542   4.447   3.331   3.294 -0.2339 -0.9101 -1.9791
 6944SOL    HW327543   4.336   3.422   3.342 -1.4972 -1.4176 -3.8600
 6944SOL    MW427544   4.412   3.410   3.300 -0.5620  0.3187 -0.5900
 6945SOL     OW27545   1.926   2.015   1.402  0.5881  0.4179 -0.0533
 6945SOL    HW227546   1.957   1.964   1.476  1.3566  0.6721 -0.1909
 6945SOL    HW327547   2.005   2.052   1.364  0.1646  0.6099 -0.7648
 6945SOL    MW427548   1.940   2.013   1.406 -0.6563 -0.3114  0.2886
 6946SOL     OW27549   0.179   2.709   6.184  0.2077 -0.1788 -0.3512
 6946SOL    HW227550   0.091   2.705   6.219  1.1741  0.7868  2.4539
 6946SOL    HW327551   0.205   2.801   6.193  1.4754 -0.4311 -1.1555
 6946SOL    MW427552   0.171   2.721   6.190 -0.5674  0.3628  0.4537
 6947SOL     OW27553   1.882   5.913   3.223 -0.3121 -0.5413  0.9719
 6947SOL    HW227554   1.846   5.829   3.197 -1.2243 -0.4439  1.8438
 6947SOL    HW327555   1.898   5.960   3.140 -2.8821 -0.3201  0.5394
 6947SOL    MW427556   1.880   5.908   3.209 -0.1044 -0.8069  0.3135
 6948SOL     OW27557   1.066   3.645   5.037  0.2344  0.5804 -0.6367
 6948SOL    HW227558   1.067   3.668   5.129 -1.2923  0.2166 -0.4994
 6948SOL    HW327559   1.073   3.549   5.036  0.1346  0.5737 -0.8894
 6948SOL    MW427560   1.067   3.635   5.049 -0.0909  0.9714  0.4572
 6949SOL     OW27561   2.631   0.521   3.518  0.3651 -0.0605 -0.6617
 6949SOL    HW227562   2.667   0.451   3.572  1.7401  0.7155 -0.5263
 6949SOL    HW327563   2.615   0.481   3.433 -0.4846 -0.9451 -0.1024
 6949SOL    MW427564   2.634   0.507   3.514 -0.3776  0.1795 -0.1890
 6950SOL     OW27565   4.036   4.939   0.099  0.3001  0.3432 -0.1538
 6950SOL    HW227566   4.052   4.983   0.182  1.3944 -2.3399  1.1930
 6950SOL    HW327567   3.943   4.920   0.099  0.5220 -0.9666  1.2677
 6950SOL    MW427568   4.026   4.942   0.110 -0.1027  0.4931  0.5797
 6951SOL     OW27569   0.365   0.354   2.041  0.4721  0.2172  0.0283
 6951SOL    HW227570   0.411   0.431   2.008  0.9564 -0.6125 -1.2942
 6951SOL    HW327571   0.342   0.377   2.132 -0.9234  2.5671 -0.8284
 6951SOL    MW427572   0.368   0.368   2.049 -0.1619 -0.1045  0.4002
 6952SOL     OW27573   1.952   2.152   2.999  0.0111  0.6368  0.6429
 6952SOL    HW227574   1.970   2.064   2.965  1.0510 -0.1124  2.9566
 6952SOL    HW327575   1.908   2.137   3.083  0.4753  2.3202  1.2205
 6952SOL    MW427576   1.948   2.138   3.006  0.3073  0.2633 -0.1085
 6953SOL     OW27577   2.248   3.222   0.454 -0.1559 -0.3398  0.4454
 6953SOL    HW227578   2.329   3.243   0.406  0.5269  0.4779  1.8872
 6953SOL    HW327579   2.212   3.147   0.407  0.9039 -0.0951 -0.8391
 6953SOL    MW427580   2.254   3.215   0.441  0.0937 -0.1626 -0.1389
 6954SOL     OW27581   4.655   2.921   6.349 -0.4736 -0.5818  0.1776
 6954SOL    HW227582   4.631   2.968   6.429  0.0269 -2.1655  1.2957
 6954SOL    HW327583   4.597   2.958   6.282 -1.4511  0.2360  1.4161
 6954SOL    MW427584   4.644   2.932   6.351  0.0565 -0.3479 -0.0166
 6955SOL     OW27585   1.001   4.160   4.470  0.3916 -0.5121  0.1150
 6955SOL    HW227586   1.093   4.169   4.446  0.5947 -0.9773  0.6981
 6955SOL    HW327587   0.978   4.244   4.510  0.5562 -0.3890 -0.0496
 6955SOL    MW427588   1.010   4.173   4.473 -0.4262 -0.5939 -0.1845
 6956SOL     OW27589   4.362   5.517   5.289  0.0939 -0.4663  0.3833
 6956SOL    HW227590   4.290   5.576   5.265  0.5334  0.2011  0.6662
 6956SOL    HW327591   4.433   5.576   5.314  0.3960 -1.1237  1.1045
 6956SOL    MW427592   4.361   5.533   5.289 -0.4132  0.3981 -0.1589
 6957SOL     OW27593   1.664   2.870   0.130  0.0086 -0.3111 -0.1953
 6957SOL    HW227594   1.591   2.845   0.074 -0.6109  1.0712 -0.0445
 6957SOL    HW327595   1.691   2.788   0.172 -0.2088 -1.1763 -1.6727
 6957SOL    MW427596   1.658   2.856   0.128 -0.3594 -0.2326 -0.5632
 6958SOL     OW27597   1.428   0.371   3.278  0.1995 -0.6361 -0.2811
 6958SOL    HW227598   1.405   0.362   3.370 -0.6111  0.4716 -0.3458
 6958SOL    HW327599   1.364   0.317   3.232 -1.4294  1.2108 -0.3542
 6958SOL    MW427600   1.416   0.363   3.284  0.0631  0.2533 -0.9162
 6959SOL     OW27601   4.758   0.389   4.742 -0.0443  0.3846 -0.1812
 6959SOL    HW227602   4.821   0.405   4.673  0.8450  1.2545  0.8012
 6959SOL    HW327603   4.678   0.433   4.712 -0.6702 -1.7735 -2.0142
 6959SOL    MW427604   4.756   0.397   4.729 -0.0408  0.3898 -0.3572
 6960SOL     OW27605   4.704   4.725   6.232 -0.2253 -0.0385  0.3920
 6960SOL    HW227606   4.792   4.759   6.218 -0.5709  1.4469  1.5517
 6960SOL    HW327607   4.648   4.784   6.182 -0.8947  1.6018  2.8879
 6960SOL    MW427608   4.708   4.737   6.224 -0.2984 -0.6617 -0.1893
 6961SOL     OW27609   1.563   1.631   1.731  0.5497 -0.4167  0.5804
 6961SOL    HW227610   1.545   1.643   1.638  0.2487 -2.0632  0.3833
 6961SOL    HW327611   1.655   1.605   1.735  0.7062  0.1515  0.8064
 6961SOL    MW427612   1.573   1.629   1.719  0.1556 -0.3752  0.7052
 6962SOL     OW27613   0.252   5.106   5.673 -0.1641 -0.3325  0.4844
 6962SOL    HW227614   0.281   5.183   5.625  0.1739 -0.6020  0.2555
 6962SOL    HW327615   0.156   5.114   5.675 -0.1092  0.3180  0.8488
 6962SOL    MW427616   0.243   5.117   5.667 -0.2421 -0.2459  0.1904
 6963SOL     OW27617   0.213   4.842   3.886 -0.1549  0.2863 -0.4981
 6963SOL    HW227618   0.121   4.840   3.860  0.1253 -2.2351 -1.5695
 6963SOL    HW327619   0.215   4.801   3.972  0.0948 -0.8426 -1.0322
 6963SOL    MW427620   0.201   4.837   3.894 -0.0042  0.5413  0.5126
 6964SOL     OW27621   2.717   3.651   2.566 -0.1245 -0.2057  0.0983
 6964SOL    HW227622   2.640   3.662   2.620 -0.8537  0.8247 -1.0976
 6964SOL    HW327623   2.767   3.581   2.608 -0.3866  0.8920  2.3566
 6964SOL    MW427624   2.714   3.643   2.578  1.0434 -0.1400 -0.0449
 6965SOL     OW27625   3.612   2.123   3.383 -0.1509 -0.0657 -0.1172
 6965SOL    HW227626   3.583   2.124   3.292 -1.0518  1.7194  0.1450
 6965SOL    HW327627   3.557   2.058   3.425  0.8811 -1.5707 -0.9985
 6965SOL    MW427628   3.601   2.115   3.376  0.0067  0.2870  0.3874
 6966SOL     OW27629   1.215   0.502   5.267  0.5780  0.7591 -0.1380
 6966SOL    HW227630   1.191   0.503   5.175 -1.0805  1.3101  0.2782
 6966SOL    HW327631   1.146   0.453   5.310  0.5735  1.7200  1.0013
 6966SOL    MW427632   1.203   0.495   5.260  0.8129  0.0798  0.1943
 6967SOL     OW27633   1.821   3.382   4.906  0.1450 -0.1734 -0.1360
 6967SOL    HW227634   1.817   3.477   4.907 -0.9285 -0.1991  1.1183
 6967SOL    HW327635   1.914   3.361   4.896  0.4487  1.0108  0.1159
 6967SOL    MW427636   1.832   3.392   4.905 -0.0413  0.1202  0.1424
 6968SOL     OW27637   2.425   4.251   4.819  0.1395 -0.1403 -0.1150
 6968SOL    HW227638   2.491   4.308   4.857 -2.2507  1.5901  1.7950
 6968SOL    HW327639   2.380   4.212   4.894  0.6761 -3.4658 -1.3562
 6968SOL    MW427640   2.428   4.254   4.834 -0.3519 -0.1958  0.0881
 6969SOL     OW27641   5.008   4.668   3.598  0.1318 -0.0745  0.6401
 6969SOL    HW227642   4.972   4.626   3.519 -0.2438  0.7142  0.3824
 6969SOL    HW327643   4.935   4.671   3.659  0.0416  0.5496  0.5112
 6969SOL    MW427644   4.994   4.663   3.595 -0.4360 -0.1777 -0.0319
 6970SOL     OW27645   1.573   6.007   6.346 -0.7896  0.2348 -0.0379
 6970SOL    HW227646   1.584   6.081   6.287  0.6139 -1.5290 -2.1484
 6970SOL    HW327647   1.505   6.035   6.408 -1.0735  2.8272 -1.3929
 6970SOL    MW427648   1.566   6.020   6.346 -0.1433  0.7668  0.0751
 6971SOL     OW27649   3.893   0.550   5.747  0.5720  0.7470 -0.1975
 6971SOL    HW227650   3.883   0.643   5.726  0.7752  0.8907  0.3285
 6971SOL    HW327651   3.921   0.549   5.838 -0.6028  0.1225  0.1747
 6971SOL    MW427652   3.895   0.562   5.756 -0.1238 -0.9685  0.1753
 6972SOL     OW27653   0.702   0.360   2.971 -1.0754 -0.0305 -0.3506
 6972SOL    HW227654   0.628   0.302   2.990 -0.3296 -0.4888  1.3234
 6972SOL    HW327655   0.693   0.432   3.034 -0.4147  0.2136 -0.5304
 6972SOL    MW427656   0.691   0.362   2.982 -0.3257  0.4222 -0.2047
 6973SOL     OW27657   4.998   1.792   0.641 -0.4263 -0.4387  0.0323
 6973SOL    HW227658   4.924   1.834   0.598  0.2629  2.7476  1.6359
 6973SOL    HW327659   5.062   1.779   0.570 -2.1982 -2.8932 -1.2911
 6973SOL    MW427660   4.997   1.796   0.626 -0.7000 -0.1447 -0.2353
 6974SOL     OW27661   0.396   3.124   3.789  0.2821  1.0265  0.7303
 6974SOL    HW227662   0.459   3.079   3.844 -0.7747 -1.4920  0.0255
 6974SOL    HW327663   0.344   3.177   3.849  2.1806  2.1689  1.4608
 6974SOL    MW427664   0.397   3.125   3.804  0.3778  0.3759 -0.2129
 6975SOL     OW27665   5.137   4.651   4.268  0.2018 -0.4624 -0.2655
 6975SOL    HW227666   5.087   4.573   4.290 -1.2652  0.2886 -0.8004
 6975SOL    HW327667   5.074   4.723   4.276  0.8407  0.3785 -2.2718
 6975SOL    MW427668   5.122   4.651   4.272 -0.1168 -0.2443  0.6883
 6976SOL     OW27669   4.637   1.397   0.985 -0.1487  0.3223  0.5017
 6976SOL    HW227670   4.672   1.321   1.032  0.0851  0.2514  0.2129
 6976SOL    HW327671   4.714   1.452   0.969  0.2145 -0.7950 -1.9830
 6976SOL    MW427672   4.652   1.394   0.989 -0.1574  0.2076 -0.0841
 6977SOL     OW27673   3.605   5.316   1.298  0.0536  0.3869  0.2314
 6977SOL    HW227674   3.591   5.391   1.241  1.1075  0.8606  0.5830
 6977SOL    HW327675   3.651   5.252   1.243 -1.6613 -0.4112 -0.3515
 6977SOL    MW427676   3.609   5.317   1.283 -0.0017  0.0252 -0.5712
 6978SOL     OW27677   3.757   3.841   6.162  0.6925  0.7065  0.2726
 6978SOL    HW227678   3.752   3.799   6.248 -2.2239  2.3778  1.0531
 6978SOL    HW327679   3.666   3.851   6.135  1.4891  1.5651 -2.3836
 6978SOL    MW427680   3.744   3.836   6.169  0.1002 -0.4074 -0.1070
 6979SOL     OW27681   2.492   2.256   5.162 -1.0721  0.0039 -0.4384
 6979SOL    HW227682   2.506   2.342   5.202 -1.1569  0.5168 -1.4485
 6979SOL    HW327683   2.446   2.276   5.080  1.8863 -0.6331 -2.4198
 6979SOL    MW427684   2.487   2.270   5.156 -0.2700 -0.3256  0.2334
 6980SOL     OW27685   0.193   4.705   4.134 -0.0888 -0.6793 -1.1554
 6980SOL    HW227686   0.149   4.629   4.097  0.1580 -2.0824  1.2538
 6980SOL    HW327687   0.139   4.731   4.209  0.2981  1.0158 -1.4119
 6980SOL    MW427688   0.180   4.698   4.139 -0.2282  1.1152 -0.1155
 6981SOL     OW27689   6.162   4.958   1.103  0.4290  0.1699  0.2328
 6981SOL    HW227690   6.104   5.026   1.068  0.8294  1.8023  2.4609
 6981SOL    HW327691   6.245   5.003   1.119  1.2274 -1.2621  0.2987
 6981SOL    MW427692   6.165   4.973   1.101  0.3303  0.4518 -0.1506
 6982SOL     OW27693   1.636   2.314   6.295  0.0155 -0.0206  0.3876
 6982SOL    HW227694   1.632   2.290   6.203 -0.2877  2.2324 -0.2394
 6982SOL    HW327695   1.558   2.273   6.334  0.0620 -0.8476 -0.3573
 6982SOL    MW427696   1.625   2.305   6.288  0.4287  0.2000 -0.3844
 6983SOL     OW27697   0.258   6.209   5.903 -0.0478 -0.1430  0.5432
 6983SOL    HW227698   0.213   6.277   5.853 -0.5856 -0.1507  1.0045
 6983SOL    HW327699   0.339   6.250   5.931 -0.0457  0.0785  0.2257
 6983SOL    MW427700   0.262   6.224   5.900  0.1970 -0.4181 -0.0894
 6984SOL     OW27701   1.527   0.587   1.361  0.6287  0.1533 -0.4425
 6984SOL    HW227702   1.453   0.533   1.333  1.3850 -0.4795 -1.3140
 6984SOL    HW327703   1.514   0.600   1.455  0.2705 -1.3207 -0.2668
 6984SOL    MW427704   1.516   0.581   1.370  0.2067  0.3471  0.3521
 6985SOL     OW27705   0.623   1.876   4.047  0.4272  0.6226  0.2286
 6985SOL    HW227706   0.575   1.958   4.059 -2.2228 -0.8673  0.5951
 6985SOL    HW327707   0.584   1.838   3.968  2.2670  0.1187 -0.4715
 6985SOL    MW427708   0.611   1.882   4.038 -0.0118  0.7246  0.0153
 6986SOL     OW27709   2.784   0.225   0.344 -0.1308 -0.3601  0.4576
 6986SOL    HW227710   2.730   0.257   0.272  0.3053 -0.4246  0.0946
 6986SOL    HW327711   2.848   0.168   0.302  1.7288  1.5331  0.5088
 6986SOL    MW427712   2.786   0.222   0.329 -0.5494  0.7584  0.1135
 6987SOL     OW27713   0.914   5.496   4.519 -0.1887 -0.4201  0.6565
 6987SOL    HW227714   0.892   5.531   4.432  1.2694 -2.3797 -0.5906
 6987SOL    HW327715   0.917   5.573   4.576  2.5604  1.5654 -1.8335
 6987SOL    MW427716   0.912   5.510   4.515  0.3751 -0.1902 -0.2366
 6988SOL     OW27717   1.949   4.028   3.360 -0.1086  0.0157 -0.1312
 6988SOL    HW227718   1.862   3.988   3.354 -0.1026  0.1791 -1.7947
 6988SOL    HW327719   1.933   4.117   3.391 -0.9146  1.0055 -3.0206
 6988SOL    MW427720   1.936   4.035   3.363  0.3763 -0.5375 -0.0493
 6989SOL     OW27721   0.265   4.784   0.242 -0.8747  0.4858 -0.3545
 6989SOL    HW227722   0.286   4.870   0.279  1.9459 -0.0457 -0.5106
 6989SOL    HW327723   0.264   4.725   0.317  3.4361 -0.3351 -0.6755
 6989SOL    MW427724   0.268   4.788   0.257  0.3822  0.0758  0.1464
 6990SOL     OW27725   5.825   2.373   3.365  0.0707 -0.6502 -0.3571
 6990SOL    HW227726   5.775   2.453   3.381  0.5264 -0.3516 -0.4009
 6990SOL    HW327727   5.915   2.403   3.352  0.1647 -1.1209 -0.8643
 6990SOL    MW427728   5.831   2.387   3.365  0.1862 -0.3866 -0.8298
 6991SOL     OW27729   6.402   0.201   1.445 -0.0033  0.0047 -0.2152
 6991SOL    HW227730   6.424   0.255   1.521 -1.6451 -0.4975  0.6724
 6991SOL    HW327731   6.363   0.262   1.382  0.7216  0.2990 -0.3932
 6991SOL    MW427732   6.400   0.216   1.446  0.3581 -0.4515 -0.5028
 6992SOL     OW27733   1.697   5.887   1.765  0.2349 -0.5077 -0.1666
 6992SOL    HW227734   1.727   5.879   1.675  2.6401 -1.8025  0.6489
 6992SOL    HW327735   1.660   5.801   1.786  0.1396 -0.3770  0.2226
 6992SOL    MW427736   1.696   5.874   1.756 -0.0324  0.8526 -0.1360
 6993SOL     OW27737   1.834   5.429   6.346 -0.0470  1.1554 -0.5286
 6993SOL    HW227738   1.902   5.432   6.279  0.5639  1.7804  0.1024
 6993SOL    HW327739   1.765   5.375   6.308  1.4037 -0.7447 -0.6069
 6993SOL    MW427740   1.834   5.422   6.332  0.5879  0.2716 -0.5537
 6994SOL     OW27741   2.292   0.982   4.701 -0.0192 -0.6957 -0.1045
 6994SOL    HW227742   2.297   1.025   4.616  1.7241 -2.4654 -0.9675
 6994SOL    HW327743   2.354   1.029   4.756  0.3055 -0.7771 -0.3997
 6994SOL    MW427744   2.301   0.994   4.697  0.2577 -0.1338 -0.0107
 6995SOL     OW27745   3.264   3.002   3.983 -0.2283  0.1745  0.6661
 6995SOL    HW227746   3.286   2.910   3.999 -1.3878 -0.0261  1.1897
 6995SOL    HW327747   3.306   3.022   3.899 -4.1131 -2.4215 -2.2991
 6995SOL    MW427748   3.272   2.992   3.974  0.1152  0.1892  0.0709
 6996SOL     OW27749   6.003   3.349   0.247  0.3745 -0.3307 -0.2369
 6996SOL    HW227750   5.931   3.397   0.287  0.0179 -1.3841  0.4238
 6996SOL    HW327751   5.974   3.331   0.158 -0.8839 -2.1158  0.4876
 6996SOL    MW427752   5.990   3.353   0.240  0.0267 -0.1459 -0.2900
 6997SOL     OW27753   5.835   3.130   5.449  0.2767 -0.0600  0.3038
 6997SOL    HW227754   5.820   3.086   5.366  1.1810  1.2093 -0.5721
 6997SOL    HW327755   5.881   3.065   5.503 -0.5596 -0.9817 -0.0705
 6997SOL    MW427756   5.839   3.116   5.446 -0.6534 -0.0077 -0.9296
 6998SOL     OW27757   5.772   5.142   2.363  0.2968 -0.2020 -0.5360
 6998SOL    HW227758   5.744   5.146   2.455  1.2755 -0.3890 -0.2065
 6998SOL    HW327759   5.863   5.112   2.368 -0.0533 -1.5662 -1.6471
 6998SOL    MW427760   5.781   5.138   2.376 -0.1767  0.2281 -0.1771
 6999SOL     OW27761   0.244   2.961   0.235 -0.0192  0.1988  0.0050
 6999SOL    HW227762   0.186   2.885   0.237  0.5277 -0.2138  0.2970
 6999SOL    HW327763   0.321   2.932   0.188  0.3301  0.4740  0.3938
 6999SOL    MW427764   0.247   2.947   0.229 -0.1464 -0.1122  0.3206
 7000SOL     OW27765   2.585   2.476   5.291  0.2507  0.9445  0.6778
 7000SOL    HW227766   2.677   2.462   5.313  0.1181  0.8779  1.1977
 7000SOL    HW327767   2.585   2.495   5.197  0.8728  1.7020  0.8267
 7000SOL    MW427768   2.597   2.477   5.281  0.1626 -0.6131 -0.0774
 7001SOL     OW27769   1.004   4.263   4.948  0.3195  0.2146 -0.4799
 7001SOL    HW227770   1.029   4.318   4.874  1.9387 -0.8129 -0.7460
 7001SOL    HW327771   0.973   4.182   4.908 -1.4185  0.6540 -0.0754
 7001SOL    MW427772   1.004   4.259   4.933 -0.0536 -0.1118 -0.3476
 7002SOL     OW27773   0.745   6.152   1.220 -0.3333 -0.5813 -0.0007
 7002SOL    HW227774   0.712   6.157   1.310 -1.3535 -0.5018 -0.3684
 7002SOL    HW327775   0.727   6.062   1.193  0.8948 -0.9010  0.2083
 7002SOL    MW427776   0.738   6.141   1.229  0.0722  0.1047  0.2351
 7003SOL     OW27777   1.063   4.003   0.561  0.0880  0.6514  0.6151
 7003SOL    HW227778   1.137   3.990   0.621  1.3876  1.1268 -0.8392
 7003SOL    HW327779   0.988   4.019   0.619  1.2231  0.7637  2.1128
 7003SOL    MW427780   1.062   4.003   0.577 -0.1224 -0.0347 -0.5359
 7004SOL     OW27781   3.269   0.955   2.938 -0.0090  0.3450 -0.4906
 7004SOL    HW227782   3.290   0.923   3.025  1.0406 -0.1812 -0.9161
 7004SOL    HW327783   3.214   0.887   2.899 -1.2247  0.9845  0.0529
 7004SOL    MW427784   3.264   0.942   2.944  0.1930 -0.1862 -0.5582
 7005SOL     OW27785   6.344   0.847   3.981 -0.2174 -0.0801 -0.0209
 7005SOL    HW227786   6.287   0.783   4.024 -0.9465 -0.9457 -2.1412
 7005SOL    HW327787   6.288   0.923   3.967 -1.2456 -1.2360 -2.8673
 7005SOL    MW427788   6.329   0.848   3.985 -0.1592 -0.5975  0.1098
 7006SOL     OW27789   3.439   3.261   5.934  0.3163 -0.0102 -0.6549
 7006SOL    HW227790   3.350   3.227   5.932  0.2310  0.2422 -2.4377
 7006SOL    HW327791   3.444   3.311   6.015  0.6764 -4.6572  2.5821
 7006SOL    MW427792   3.428   3.263   5.944  0.1284 -0.1683  0.7032
 7007SOL     OW27793   2.229   0.511   0.691 -0.2154 -0.0990 -0.5469
 7007SOL    HW227794   2.213   0.565   0.768 -0.1386 -0.1068 -0.5250
 7007SOL    HW327795   2.143   0.476   0.667 -0.4310  0.8330 -1.1679
 7007SOL    MW427796   2.216   0.513   0.698  0.5374  0.0254  0.0888
 7008SOL     OW27797   4.211   2.179   6.054  0.1680 -0.0026  0.1771
 7008SOL    HW227798   4.228   2.090   6.021  1.8802 -0.1687  1.3296
 7008SOL    HW327799   4.220   2.171   6.149  0.6931  1.4511  0.2803
 7008SOL    MW427800   4.215   2.166   6.062 -0.0646 -0.2459  0.2831
 7009SOL     OW27801   6.158   4.015   4.488 -0.1176  0.4281 -0.1348
 7009SOL    HW227802   6.100   4.009   4.564  0.6153  1.6701  0.5595
 7009SOL    HW327803   6.162   3.926   4.453 -1.0053 -0.0239  0.8729
 7009SOL    MW427804   6.151   4.003   4.493 -0.1956 -0.4500 -0.2504
 7010SOL     OW27805   0.083   3.776   0.332  0.1210 -0.5300 -0.1549
 7010SOL    HW227806   0.139   3.811   0.401 -0.6856 -0.8945  0.7166
 7010SOL    HW327807   0.141   3.764   0.257  0.9598  0.1418  0.3655
 7010SOL    MW427808   0.098   3.779   0.331 -0.1573  0.7038  0.5072
 7011SOL     OW27809   4.794   5.829   2.762 -0.4054  0.5311 -0.0378
 7011SOL    HW227810   4.839   5.744   2.758  0.1694  0.8723 -2.5993
 7011SOL    HW327811   4.755   5.831   2.850  0.0641 -2.1040  0.3301
 7011SOL    MW427812   4.795   5.818   2.773 -0.4919 -0.6645 -0.0359
 7012SOL     OW27813   2.297   1.638   5.951 -0.2286  0.3234  0.2110
 7012SOL    HW227814   2.366   1.656   5.888  0.1595  0.5538  0.7001
 7012SOL    HW327815   2.280   1.722   5.993 -2.1354  0.7200 -1.2157
 7012SOL    MW427816   2.304   1.651   5.948  0.3875 -0.2804 -0.1088
 7013SOL     OW27817   0.439   4.642   0.686 -0.2292 -0.2929 -0.3350
 7013SOL    HW227818   0.487   4.560   0.676 -0.5698 -0.5437  0.0372
 7013SOL    HW327819   0.392   4.632   0.768 -1.4383 -0.3284 -1.0068
 7013SOL    MW427820   0.439   4.630   0.695  0.0891  0.4261  0.1506
 7014SOL     OW27821   5.525   4.676   1.508  0.3221  0.7334  0.2659
 7014SOL    HW227822   5.504   4.749   1.449  0.7848  1.1006  0.5484
 7014SOL    HW327823   5.451   4.616   1.498  1.3848 -0.2719 -2.3230
 7014SOL    MW427824   5.512   4.678   1.499  0.0794  0.6884 -0.0420
 7015SOL     OW27825   0.387   5.437   0.589  0.3992 -0.6833  0.5070
 7015SOL    HW227826   0.446   5.503   0.625 -0.3141 -0.5211  1.4135
 7015SOL    HW327827   0.315   5.432   0.652 -0.2888 -1.2680 -0.3040
 7015SOL    MW427828   0.385   5.445   0.602 -0.0604 -0.4123  0.0503
 7016SOL     OW27829   0.459   0.444   5.078  0.0310 -0.1281 -0.0974
 7016SOL    HW227830   0.519   0.474   5.010 -0.6266 -0.3589 -0.7941
 7016SOL    HW327831   0.418   0.525   5.111  2.2615  0.2788  1.9222
 7016SOL    MW427832   0.461   0.459   5.074  0.3943  0.6606  0.5886
 7017SOL     OW27833   5.074   4.683   3.994 -0.4769 -0.3269  0.6742
 7017SOL    HW227834   5.153   4.709   3.946  0.8127 -2.4114  1.5281
 7017SOL    HW327835   5.107   4.649   4.077 -2.1323 -2.7002  0.4450
 7017SOL    MW427836   5.089   4.682   3.998 -0.0740  0.7049  0.2260
 7018SOL     OW27837   2.212   3.096   3.329 -0.0833  0.5779  0.0037
 7018SOL    HW227838   2.236   3.103   3.421 -0.6590 -0.2956  0.2292
 7018SOL    HW327839   2.270   3.028   3.294 -1.1844 -0.4820  0.1970
 7018SOL    MW427840   2.223   3.088   3.336 -0.1770 -0.2548  0.1962
 7019SOL     OW27841   4.625   2.466   4.029 -0.2704  0.0548  0.0787
 7019SOL    HW227842   4.536   2.499   4.020  0.8126  3.1150 -0.4446
 7019SOL    HW327843   4.657   2.457   3.939 -0.0263 -1.0326  0.2605
 7019SOL    MW427844   4.617   2.469   4.016  0.5900 -0.2840 -0.3746
 7020SOL     OW27845   4.092   2.429   0.099  0.1917 -0.1935  0.2257
 7020SOL    HW227846   4.055   2.372   0.031 -1.2023 -0.2407  0.9910
 7020SOL    HW327847   4.127   2.504   0.050  0.0881 -0.6838 -0.6238
 7020SOL    MW427848   4.092   2.431   0.084 -0.0798 -0.3839  0.0891
 7021SOL     OW27849   4.656   4.032   3.786  0.3506 -0.3304  0.4120
 7021SOL    HW227850   4.596   4.024   3.860  0.8383 -0.2319  0.8286
 7021SOL    HW327851   4.652   3.947   3.742  0.5454 -0.6196  0.9381
 7021SOL    MW427852   4.648   4.020   3.790  0.6735 -0.5662  0.6567
 7022SOL     OW27853   4.472   2.281   5.584 -0.2944 -0.0266 -0.1524
 7022SOL    HW227854   4.554   2.329   5.570 -0.3885  0.5141  1.0532
 7022SOL    HW327855   4.496   2.213   5.647 -0.6057 -0.3660 -0.3978
 7022SOL    MW427856   4.486   2.278   5.591 -0.1499  0.2729 -0.4808
 7023SOL     OW27857   1.015   4.684   4.989  0.0941 -0.3747  0.2012
 7023SOL    HW227858   1.020   4.612   4.926 -1.3653 -0.2176 -0.1300
 7023SOL    HW327859   0.922   4.694   5.005  0.3304  0.9984  0.7694
 7023SOL    MW427860   1.004   4.676   4.983 -0.3576 -0.2712 -0.3922
 7024SOL     OW27861   3.278   1.809   2.057 -0.1753  0.0166 -0.2616
 7024SOL    HW227862   3.347   1.743   2.060 -1.0006 -0.8483  2.1636
 7024SOL    HW327863   3.200   1.765   2.090 -1.3536  1.5770 -0.8283
 7024SOL    MW427864   3.277   1.795   2.062 -0.4191  0.1552 -0.9821
 7025SOL     OW27865   2.559   6.408   3.471  0.3532  0.4849 -0.5161
 7025SOL    HW227866   2.620   6.479   3.490  0.9204  0.1206 -0.9453
 7025SOL    HW327867   2.557   6.402   3.376 -0.8459  0.9027 -0.5303
 7025SOL    MW427868   2.567   6.416   3.461 -0.0252  0.0975  0.1666
 7026SOL     OW27869   5.514   0.694   0.618 -0.0655 -0.3334 -0.6157
 7026SOL    HW227870   5.542   0.746   0.693  0.4726  0.0694 -1.0805
 7026SOL    HW327871   5.421   0.713   0.609 -0.0070  0.0639 -0.3963
 7026SOL    MW427872   5.505   0.703   0.627  0.0313 -0.2521 -0.3271
 7027SOL     OW27873   4.157   3.335   5.941 -0.0994  0.0712  0.3944
 7027SOL    HW227874   4.087   3.306   5.999  0.6448 -1.4877  0.5515
 7027SOL    HW327875   4.184   3.420   5.977 -1.6726  0.5587  0.5085
 7027SOL    MW427876   4.151   3.342   5.953  0.1184  0.2564  0.4682
 7028SOL     OW27877   3.335   4.158   5.254 -0.4164  0.0120  0.3620
 7028SOL    HW227878   3.271   4.171   5.184 -0.6380 -0.3489  0.4959
 7028SOL    HW327879   3.301   4.084   5.305 -1.6543  1.9052  2.4534
 7028SOL    MW427880   3.322   4.150   5.251  0.0321  0.2467  0.4105
 7029SOL     OW27881   1.123   2.859   4.401  0.4875  0.3262  0.0807
 7029SOL    HW227882   1.158   2.893   4.319 -0.7541 -0.6668 -0.9212
 7029SOL    HW327883   1.160   2.771   4.409  1.1620  0.6802  0.9685
 7029SOL    MW427884   1.132   2.852   4.392  0.3857 -0.8845 -0.3670
 7030SOL     OW27885   1.084   3.001   1.959  0.5482  0.0272 -0.4534
 7030SOL    HW227886   1.173   2.966   1.962  0.4940 -0.0740 -0.0181
 7030SOL    HW327887   1.095   3.095   1.969  0.5003 -0.1293  1.2107
 7030SOL    MW427888   1.097   3.009   1.960 -0.2563  0.2453 -0.4066
 7031SOL     OW27889   5.997   4.315   5.388 -0.0404 -0.1802  0.0285
 7031SOL    HW227890   5.926   4.379   5.395  0.3455  0.1442  1.2159
 7031SOL    HW327891   6.077   4.368   5.389  0.3074 -0.6672  1.6180
 7031SOL    MW427892   5.998   4.330   5.389 -0.5273  0.1045  0.5191
 7032SOL     OW27893   3.385   2.680   2.952  0.4648  0.0794  0.1394
 7032SOL    HW227894   3.475   2.660   2.977  0.7869  1.0081 -0.2365
 7032SOL    HW327895   3.381   2.775   2.949 -1.3163  0.2416  3.0299
 7032SOL    MW427896   3.396   2.690   2.955  0.0705  0.3206  0.3013
 7033SOL     OW27897   5.448   0.107   6.060  0.1065  0.3422  0.1300
 7033SOL    HW227898   5.540   0.121   6.082  0.1774  1.2874 -0.7341
 7033SOL    HW327899   5.447   0.094   5.965 -0.5029 -1.0549  0.2920
 7033SOL    MW427900   5.460   0.107   6.051 -0.5419  0.0594 -0.5547
 7034SOL     OW27901   1.192   4.339   1.192  0.7584  0.4648  0.0789
 7034SOL    HW227902   1.247   4.263   1.211 -1.8296 -1.3653  0.8717
 7034SOL    HW327903   1.143   4.314   1.114 -3.5508 -0.9290  2.8796
 7034SOL    MW427904   1.193   4.325   1.184 -0.4552 -0.4600 -0.1973
 7035SOL     OW27905   2.839   3.943   0.644  0.2492 -0.1666 -0.5066
 7035SOL    HW227906   2.831   4.008   0.714  0.4602 -1.0505  0.3606
 7035SOL    HW327907   2.929   3.952   0.614  0.2218  0.0712 -0.5234
 7035SOL    MW427908   2.850   3.953   0.650 -0.1502  0.4721 -0.3424
 7036SOL     OW27909   1.418   0.103   4.463 -0.2021 -0.5062  0.3881
 7036SOL    HW227910   1.383   0.108   4.551 -0.5102 -1.3285  0.3187
 7036SOL    HW327911   1.501   0.055   4.472 -0.1038 -0.3628  0.2659
 7036SOL    MW427912   1.425   0.097   4.476  0.4729  0.2783  0.0656
 7037SOL     OW27913   0.464   3.812   0.731  0.0374  0.2758  0.4852
 7037SOL    HW227914   0.445   3.832   0.822 -1.0314  0.4965  0.2306
 7037SOL    HW327915   0.544   3.862   0.712  0.0363  0.5568  1.1806
 7037SOL    MW427916   0.472   3.821   0.740  0.1467 -0.1214 -0.1497
 7038SOL     OW27917   0.241   3.562   4.821 -0.0937 -0.0954 -0.2729
 7038SOL    HW227918   0.160   3.612   4.812 -0.2560 -0.2616  0.2549
 7038SOL    HW327919   0.217   3.485   4.872  0.6183  0.4208  0.8988
 7038SOL    MW427920   0.227   3.559   4.826  0.6087 -0.2460 -0.2730
 7039SOL     OW27921   2.958   6.298   0.529 -0.3998 -0.2908  0.7228
 7039SOL    HW227922   2.935   6.312   0.621 -0.5616 -0.3805  0.6954
 7039SOL    HW327923   3.015   6.372   0.507 -0.2132 -0.3644  0.9465
 7039SOL    MW427924   2.963   6.310   0.539  0.3884 -0.8708  0.4182
 7040SOL     OW27925   1.383   2.168   2.962 -0.3857  0.7108  0.0086
 7040SOL    HW227926   1.464   2.209   2.994 -0.5820 -0.1672  1.7287
 7040SOL    HW327927   1.395   2.075   2.977 -1.7776  0.5791  0.4439
 7040SOL    MW427928   1.395   2.161   2.968  0.0196  0.4170 -0.4881
 7041SOL     OW27929   1.440   1.447   5.699  0.1262  0.2008  0.1693
 7041SOL    HW227930   1.450   1.482   5.787 -0.1888  1.5074 -0.2965
 7041SOL    HW327931   1.346   1.428   5.691  0.0523  0.6446 -0.0744
 7041SOL    MW427932   1.429   1.449   5.710  0.2845 -0.1370 -0.0231
 7042SOL     OW27933   0.621   4.445   2.639 -0.2977 -0.1479  0.0747
 7042SOL    HW227934   0.601   4.471   2.549  0.2053 -3.4852 -1.1687
 7042SOL    HW327935   0.566   4.367   2.653  1.7874 -1.4717  1.5047
 7042SOL    MW427936   0.611   4.438   2.629 -0.0712  0.1528 -0.3572
 7043SOL     OW27937   1.413   2.440   4.580  0.1612 -0.7500 -0.4461
 7043SOL    HW227938   1.422   2.504   4.651 -0.4708 -0.2254 -0.8345
 7043SOL    HW327939   1.503   2.421   4.554  0.3567  1.3771 -1.5544
 7043SOL    MW427940   1.426   2.446   4.586  0.7426 -0.3245  0.6162
 7044SOL     OW27941   1.054   0.980   0.107 -0.4301  0.4654  0.3299
 7044SOL    HW227942   1.026   1.024   0.187 -0.1135 -0.1703  0.7941
 7044SOL    HW327943   1.031   1.042   0.037  0.9360  1.8421  1.0331
 7044SOL    MW427944   1.047   0.994   0.108 -0.2147 -0.0101 -0.2655
 7045SOL     OW27945   5.298   3.929   4.759 -0.1435  0.2894 -0.0516
 7045SOL    HW227946   5.226   3.891   4.811  1.1744  0.6958  2.1985
 7045SOL    HW327947   5.364   3.860   4.756 -1.1076 -0.6766 -3.4599
 7045SOL    MW427948   5.297   3.915   4.766  0.0382 -0.6207  0.1815
 7046SOL     OW27949   1.543   2.682   3.616  0.0773 -0.5536 -0.5204
 7046SOL    HW227950   1.550   2.719   3.528  0.6960 -0.3546 -0.3947
 7046SOL    HW327951   1.481   2.610   3.607 -0.7035  0.1469 -0.8882
 7046SOL    MW427952   1.536   2.677   3.603 -0.0006 -0.3526 -0.8456
 7047SOL     OW27953   5.979   2.646   2.929  0.0936 -0.6563  0.5572
 7047SOL    HW227954   5.898   2.693   2.907  0.6328 -0.2553 -0.6680
 7047SOL    HW327955   6.048   2.694   2.882  0.7317 -2.3543 -0.3329
 7047SOL    MW427956   5.977   2.659   2.920 -0.1260 -0.0650  0.0482
 7048SOL     OW27957   1.828   5.630   4.478 -0.2169  0.2738 -0.1910
 7048SOL    HW227958   1.746   5.598   4.441  0.3757 -1.9108  0.2475
 7048SOL    HW327959   1.894   5.610   4.412 -0.1585  3.4337 -1.2334
 7048SOL    MW427960   1.826   5.623   4.464 -0.6500 -0.2657  0.1462
 7049SOL     OW27961   2.177   1.174   4.966  0.7358  0.0198 -0.4192
 7049SOL    HW227962   2.117   1.167   5.040 -1.4847  1.2855 -1.9852
 7049SOL    HW327963   2.247   1.231   4.997  1.6424 -2.0795  1.6872
 7049SOL    MW427964   2.178   1.180   4.980 -1.0193 -0.7677 -0.3454
 7050SOL     OW27965   3.847   4.607   0.743 -0.2398  0.2287  0.3141
 7050SOL    HW227966   3.777   4.669   0.760  0.5309  1.1629  0.1416
 7050SOL    HW327967   3.902   4.650   0.678  1.3570  0.1922  1.5827
 7050SOL    MW427968   3.845   4.621   0.737  0.0766 -0.3042 -0.7028
 7051SOL     OW27969   0.438   4.400   4.177 -0.2797  0.2331  0.1380
 7051SOL    HW227970   0.410   4.478   4.226  0.8886  1.0444 -0.4489
 7051SOL    HW327971   0.405   4.327   4.229 -2.0089  1.1126  0.3355
 7051SOL    MW427972   0.430   4.401   4.191  0.1543 -0.1853 -0.5168
 7052SOL     OW27973   0.931   0.170   3.067 -0.1482  0.5166  0.0752
 7052SOL    HW227974   0.906   0.137   3.153 -0.6659 -0.4753 -0.4303
 7052SOL    HW327975   0.868   0.240   3.048 -0.1057  0.6561  0.4540
 7052SOL    MW427976   0.919   0.175   3.076  0.4851  0.4519  0.7462
 7053SOL     OW27977   5.816   1.462   4.149 -0.1383  0.1914  0.3116
 7053SOL    HW227978   5.854   1.377   4.171 -0.1866 -0.3492 -1.5429
 7053SOL    HW327979   5.877   1.526   4.186  1.3241 -0.6615 -0.5458
 7053SOL    MW427980   5.829   1.459   4.157 -0.0546  0.2687 -0.0780
 7054SOL     OW27981   5.083   0.917   0.768  0.4700  0.4586 -0.4962
 7054SOL    HW227982   5.169   0.941   0.802 -0.4876  1.1376  1.6646
 7054SOL    HW327983   5.057   0.992   0.714  0.9850  0.5308 -0.6480
 7054SOL    MW427984   5.090   0.930   0.766  0.1878 -0.5345  0.0676
 7055SOL     OW27985   1.943   0.978   6.092  0.2610 -0.3820  0.1815
 7055SOL    HW227986   1.866   0.981   6.148 -0.7324  0.3669 -1.1529
 7055SOL    HW327987   1.913   0.936   6.011  1.0706  0.4936 -0.6068
 7055SOL    MW427988   1.929   0.973   6.088  0.6300  0.1135 -0.0912
 7056SOL     OW27989   4.562   4.807   3.066 -0.2861  0.6964 -0.4463
 7056SOL    HW227990   4.546   4.766   3.151 -1.7373 -0.3152 -1.1600
 7056SOL    HW327991   4.475   4.817   3.027  0.1369  3.2273 -0.9127
 7056SOL    MW427992   4.549   4.803   3.072  0.5828 -0.4316  0.1941
 7057SOL     OW27993   4.574   0.473   0.038  0.3939 -0.5952  0.1568
 7057SOL    HW227994   4.499   0.425   0.003  0.7458 -1.7788  0.9876
 7057SOL    HW327995   4.636   0.478  -0.035 -0.4176  0.2923 -0.5036
 7057SOL    MW427996   4.572   0.468   0.024  0.3073  0.5755  0.1146
 7058SOL     OW27997   3.892   1.689   4.650  0.9005  0.6832  0.2718
 7058SOL    HW227998   3.907   1.629   4.723  1.7534 -1.6989 -1.7093
 7058SOL    HW327999   3.802   1.671   4.622  0.5039  1.7391  0.8295
 7058SOL    MW428000   3.882   1.678   4.656 -0.1969 -0.3052 -0.4812
 7059SOL     OW28001   1.743   3.073   3.920 -0.3883 -0.2703 -0.0179
 7059SOL    HW228002   1.824   3.060   3.871 -0.9856 -1.3840 -0.7491
 7059SOL    HW328003   1.768   3.063   4.012  0.6914  1.5548 -0.0742
 7059SOL    MW428004   1.757   3.070   3.926 -0.2525  0.2362  0.5845
 7060SOL     OW28005   4.233   1.007   5.870  0.1252 -0.2354 -0.8757
 7060SOL    HW228006   4.227   1.021   5.965 -1.1993  0.0753 -0.9852
 7060SOL    HW328007   4.322   0.976   5.856  0.8182  1.1063  0.2985
 7060SOL    MW428008   4.244   1.005   5.881  0.3126 -0.3696  0.0915
 7061SOL     OW28009   3.264   2.211   0.477 -0.1036  0.6764  0.3240
 7061SOL    HW228010   3.245   2.227   0.569 -0.4467 -0.3245  0.4364
 7061SOL    HW328011   3.351   2.248   0.464 -0.0263  0.7663  1.0672
 7061SOL    MW428012   3.273   2.218   0.487  0.1252 -0.3511  0.2190
 7062SOL     OW28013   1.755   0.949   3.200 -0.2044  0.3675 -0.4488
 7062SOL    HW228014   1.807   0.933   3.279  0.3015  0.4601 -0.7640
 7062SOL    HW328015   1.669   0.974   3.234 -0.1683 -0.1796  0.0717
 7062SOL    MW428016   1.750   0.950   3.215 -0.4309  0.6207 -0.3821
 7063SOL     OW28017   0.421   2.858   1.143  0.5768  0.2687  0.3922
 7063SOL    HW228018   0.424   2.941   1.190  0.0097  0.6449 -0.2381
 7063SOL    HW328019   0.354   2.807   1.189  1.1519  0.0290  0.9797
 7063SOL    MW428020   0.413   2.862   1.156  0.1999  0.4874 -0.0943
 7064SOL     OW28021   4.403   1.401   1.411 -0.7218  0.0550  0.0264
 7064SOL    HW228022   4.420   1.422   1.319  1.6970 -2.4446 -0.2245
 7064SOL    HW328023   4.342   1.328   1.407  0.0433 -0.6094  0.3468
 7064SOL    MW428024   4.397   1.394   1.398  0.0855 -0.3216 -0.1480
 7065SOL     OW28025   4.273   3.716   2.317 -0.7547 -0.3447  0.0273
 7065SOL    HW228026   4.243   3.627   2.338  0.8510 -0.8078  0.5656
 7065SOL    HW328027   4.326   3.741   2.393  2.3429 -0.6639 -1.8360
 7065SOL    MW428028   4.276   3.707   2.330  0.4348  0.1214 -0.4349
 7066SOL     OW28029   0.498   4.198   0.865  0.1877 -0.0227  0.1183
 7066SOL    HW228030   0.519   4.125   0.923  1.4055 -1.3973 -1.9535
 7066SOL    HW328031   0.489   4.273   0.925  0.8485 -1.4469  2.1226
 7066SOL    MW428032   0.500   4.198   0.881  0.0108  0.4417 -0.2759
 7067SOL     OW28033   0.650   0.873   1.515  0.2394  0.4930  0.6094
 7067SOL    HW228034   0.589   0.845   1.583 -0.0051 -1.2591 -0.2917
 7067SOL    HW328035   0.724   0.910   1.563 -0.5817  0.6818  1.7662
 7067SOL    MW428036   0.652   0.874   1.530 -0.0690  0.0669  0.2966
 7068SOL     OW28037   2.600   2.682   5.666 -0.2914  0.1418 -0.1761
 7068SOL    HW228038   2.524   2.685   5.609 -0.8049  0.5746  0.5199
 7068SOL    HW328039   2.674   2.699   5.608 -0.7815  0.3555 -0.7468
 7068SOL    MW428040   2.600   2.685   5.651  0.0854 -0.1332  0.6668
 7069SOL     OW28041   1.061   2.630   4.115 -0.2865  0.0862  0.5908
 7069SOL    HW228042   1.057   2.536   4.134  2.0478 -0.3194 -0.4976
 7069SOL    HW328043   1.148   2.656   4.144  0.1374  1.2926 -1.5640
 7069SOL    MW428044   1.072   2.621   4.121 -0.1995 -0.6503 -0.0301
 7070SOL     OW28045   0.017   2.084   1.611 -0.8021 -0.1010 -0.6037
 7070SOL    HW228046  -0.021   2.008   1.567  0.7937 -1.0193 -0.4706
 7070SOL    HW328047   0.028   2.149   1.541 -0.6358 -0.6156 -1.0625
 7070SOL    MW428048   0.014   2.083   1.596 -0.4846  0.2716 -0.4305
 7071SOL     OW28049   2.032   2.783   0.344  0.2163  0.4221 -0.3068
 7071SOL    HW228050   2.079   2.866   0.335 -0.0250  0.3032 -4.0270
 7071SOL    HW328051   1.968   2.800   0.412  1.4817  2.6101  0.4645
 7071SOL    MW428052   2.030   2.796   0.352 -0.1134  0.1119  0.6302
 7072SOL     OW28053   0.736   1.077   3.050  0.3327 -0.2433 -0.5024
 7072SOL    HW228054   0.676   1.100   3.121 -0.5195 -1.1434 -0.9144
 7072SOL    HW328055   0.699   1.119   2.973  0.1328 -0.9418 -0.7912
 7072SOL    MW428056   0.724   1.086   3.049  0.5363 -0.7714  0.6374
 7073SOL     OW28057   5.451   2.163   5.819  0.3674  0.0593  0.3663
 7073SOL    HW228058   5.416   2.074   5.816 -0.1454  0.2722 -1.8156
 7073SOL    HW328059   5.481   2.174   5.909 -0.3570 -2.0005  0.9190
 7073SOL    MW428060   5.450   2.153   5.830  0.0284 -0.1223  0.5329
 7074SOL     OW28061   1.674   0.297   5.133 -0.3185 -0.6765 -0.3052
 7074SOL    HW228062   1.673   0.325   5.225 -0.5143 -0.6642 -0.3110
 7074SOL    HW328063   1.640   0.207   5.135 -2.3573  0.0208 -0.5895
 7074SOL    MW428064   1.669   0.289   5.146  1.0105 -0.1841  0.1321
 7075SOL     OW28065   6.423   3.498   1.398  0.1567  0.3743 -0.1758
 7075SOL    HW228066   6.381   3.515   1.313  0.6531 -1.5233 -0.8666
 7075SOL    HW328067   6.360   3.444   1.445 -0.6521  2.4502  1.2286
 7075SOL    MW428068   6.409   3.493   1.393  0.1904  0.8735 -0.5958
 7076SOL     OW28069   0.917   3.831   2.314 -0.7797  0.1987  0.2536
 7076SOL    HW228070   0.934   3.739   2.337 -0.6093 -0.1171 -1.0491
 7076SOL    HW328071   0.983   3.880   2.361 -1.1259 -0.3059  1.2889
 7076SOL    MW428072   0.928   3.825   2.323  0.1813  0.2362 -0.3529
 7077SOL     OW28073   3.788   1.076   5.432  0.1679  0.0203 -0.1830
 7077SOL    HW228074   3.851   1.095   5.501 -0.9019 -0.8367  1.0855
 7077SOL    HW328075   3.792   1.152   5.374  0.7904  0.9754  1.0632
 7077SOL    MW428076   3.796   1.088   5.434  0.3742 -0.2963 -0.2102
 7078SOL     OW28077   4.034  -0.007   5.267  0.1004 -0.0496 -0.0737
 7078SOL    HW228078   4.122  -0.046   5.266  0.7750  1.3337 -1.8901
 7078SOL    HW328079   4.050   0.086   5.283 -1.0025  0.2781 -0.7722
 7078SOL    MW428080   4.048  -0.000   5.269  0.1341  0.0091  0.3668
 7079SOL     OW28081   6.392   3.548   3.117 -0.3263 -0.6173  0.1208
 7079SOL    HW228082   6.343   3.630   3.121 -0.8270 -0.8392 -1.0762
 7079SOL    HW328083   6.327   3.480   3.137 -0.3091 -0.8399 -0.5508
 7079SOL    MW428084   6.377   3.550   3.120  0.3018  0.4154  0.1072
 7080SOL     OW28085   0.676   5.025   3.726  0.3066 -0.5390  0.4119
 7080SOL    HW228086   0.632   5.098   3.683  0.5889 -1.1504 -0.9758
 7080SOL    HW328087   0.722   5.065   3.800 -0.7545  0.4405  0.5772
 7080SOL    MW428088   0.676   5.040   3.730 -0.1022 -0.1299 -0.0635
 7081SOL     OW28089   2.227   0.987   0.410 -0.2237  0.9538 -0.4626
 7081SOL    HW228090   2.214   0.996   0.504  1.3725  0.6696 -0.1907
 7081SOL    HW328091   2.320   0.968   0.400 -0.7178 -1.0679 -1.9401
 7081SOL    MW428092   2.238   0.985   0.421  0.1762 -0.2182 -0.3132
 7082SOL     OW28093   4.227   1.103   2.798 -0.2561 -0.2046  0.0937
 7082SOL    HW228094   4.266   1.092   2.885 -0.9231  0.6619  0.5223
 7082SOL    HW328095   4.189   1.018   2.778  0.4484 -0.5922  0.3714
 7082SOL    MW428096   4.227   1.090   2.807 -0.0451 -0.6683 -0.2475
 7083SOL     OW28097   5.202   0.515   2.295  0.1279  0.6758 -0.0603
 7083SOL    HW228098   5.285   0.499   2.250 -0.6211  0.3380 -1.3758
 7083SOL    HW328099   5.174   0.601   2.264 -0.4173  0.4249 -0.2773
 7083SOL    MW428100   5.209   0.525   2.285  0.3371  0.0567 -0.2876
 7084SOL     OW28101   6.283   2.799   1.554 -0.0939 -0.2596  0.6378
 7084SOL    HW228102   6.216   2.734   1.578 -1.0311 -0.1291 -1.3797
 7084SOL    HW328103   6.339   2.752   1.491 -0.7416  0.7893 -0.7899
 7084SOL    MW428104   6.281   2.784   1.549  0.4431  0.3754 -0.0877
 7085SOL     OW28105   0.320   5.272   4.283  0.7264  0.5490 -0.3138
 7085SOL    HW228106   0.251   5.329   4.318  0.3159  0.2379 -0.6093
 7085SOL    HW328107   0.307   5.189   4.329  1.0246  0.5472 -0.2338
 7085SOL    MW428108   0.309   5.269   4.294 -0.1285 -0.1176  0.0263
 7086SOL     OW28109   4.742   1.348   3.416 -0.5523 -0.2794 -0.0135
 7086SOL    HW228110   4.679   1.358   3.487 -0.7664 -0.5013 -0.1730
 7086SOL    HW328111   4.822   1.318   3.459 -1.0710 -1.7742 -0.0157
 7086SOL    MW428112   4.744   1.345   3.431 -0.4988 -0.1682  0.1138
 7087SOL     OW28113   0.190   1.931   3.290 -0.2477 -0.6407  0.0781
 7087SOL    HW228114   0.121   1.906   3.228 -1.1063  0.3289  0.5984
 7087SOL    HW328115   0.155   1.907   3.375  0.4279 -0.8977  0.2878
 7087SOL    MW428116   0.176   1.925   3.293 -0.6855 -0.0014 -0.0470
 7088SOL     OW28117   2.044   4.395   1.239  0.3783 -0.0113 -0.5028
 7088SOL    HW228118   2.094   4.320   1.273  0.2632  0.1022 -0.0720
 7088SOL    HW328119   1.980   4.413   1.308  1.3619  1.4081  0.0841
 7088SOL    MW428120   2.042   4.387   1.253 -0.2095 -0.0002 -0.1979
 7089SOL     OW28121   4.358   3.263   4.721  0.0897  0.5072  0.1429
 7089SOL    HW228122   4.414   3.207   4.668 -0.2290  1.3736 -1.1401
 7089SOL    HW328123   4.390   3.352   4.705  0.1086  0.7846  1.5614
 7089SOL    MW428124   4.369   3.268   4.712  0.3663 -0.0504  0.2429
 7090SOL     OW28125   6.326   1.299   6.152 -0.1086 -0.3542  0.2320
 7090SOL    HW228126   6.359   1.328   6.067  0.4065 -0.1475  0.5033
 7090SOL    HW328127   6.249   1.246   6.131  0.1798 -0.5347 -0.3778
 7090SOL    MW428128   6.320   1.296   6.138  0.5982 -0.0805 -0.0387
 7091SOL     OW28129   3.603   4.151   0.470  0.7154  0.0351 -0.1014
 7091SOL    HW228130   3.526   4.188   0.514 -0.0769  0.6934 -1.9309
 7091SOL    HW328131   3.653   4.110   0.540 -0.4224  1.0985  1.4090
 7091SOL    MW428132   3.599   4.150   0.485 -0.2263 -0.1669  0.2772
 7092SOL     OW28133   5.463   0.440   5.335 -0.2259  0.1388  0.3184
 7092SOL    HW228134   5.394   0.479   5.281  0.8019  0.6539 -0.6670
 7092SOL    HW328135   5.436   0.459   5.425 -2.4305 -1.4879  0.0939
 7092SOL    MW428136   5.450   0.448   5.340  0.2461 -0.3766 -0.1466
 7093SOL     OW28137   5.794   3.311   0.865 -0.5778  0.0226  0.0901
 7093SOL    HW228138   5.787   3.249   0.938  1.3240 -0.0369  0.2754
 7093SOL    HW328139   5.707   3.352   0.860 -0.6789  0.2932  2.6172
 7093SOL    MW428140   5.781   3.308   0.874  0.3017 -0.4020  0.2301
 7094SOL     OW28141   1.166   0.427   6.025 -0.4777 -0.4296 -0.5545
 7094SOL    HW228142   1.135   0.341   6.055  0.0958 -0.9044 -1.2828
 7094SOL    HW328143   1.259   0.428   6.049 -1.1285  1.2898  2.3322
 7094SOL    MW428144   1.174   0.415   6.032  0.3629 -0.0635 -0.1647
 7095SOL     OW28145   1.226   4.703   2.245  0.3575  0.4373  0.4087
 7095SOL    HW228146   1.319   4.708   2.224  0.3408  0.6782  0.3842
 7095SOL    HW328147   1.190   4.644   2.180  0.6420 -0.3423  0.9478
 7095SOL    MW428148   1.234   4.696   2.234 -0.5530 -0.1009  0.1438
 7096SOL     OW28149   1.961   4.219   6.335  0.5809 -0.1744 -0.4995
 7096SOL    HW228150   1.942   4.232   6.428  2.8836 -0.2286  0.0263
 7096SOL    HW328151   1.912   4.289   6.291  0.3580  0.5692  0.8677
 7096SOL    MW428152   1.952   4.230   6.341 -0.2159  0.3171 -0.2667
 7097SOL     OW28153   5.404   3.199   5.445 -0.4561  0.9827  0.1471
 7097SOL    HW228154   5.474   3.264   5.446  0.2527  0.3048 -1.4400
 7097SOL    HW328155   5.346   3.225   5.516  1.6545  1.2910  1.8557
 7097SOL    MW428156   5.406   3.211   5.454  0.6934  0.2344 -0.6545
 7098SOL     OW28157   3.108   3.794   1.906  0.0180  0.0884  0.2796
 7098SOL    HW228158   3.078   3.857   1.841  0.7369 -0.4221 -0.5802
 7098SOL    HW328159   3.102   3.709   1.862 -0.1225 -0.3539  1.1194
 7098SOL    MW428160   3.103   3.791   1.892 -0.0145  0.4137  0.7635
 7099SOL     OW28161   0.660   4.541   1.427  0.0608  0.0603 -0.1286
 7099SOL    HW228162   0.709   4.618   1.398  0.9214 -0.9317 -1.4519
 7099SOL    HW328163   0.605   4.518   1.352 -0.8642 -0.1086  0.5799
 7099SOL    MW428164   0.659   4.548   1.413  0.3725 -0.0384 -0.3993
 7100SOL     OW28165   4.775   1.546   1.451 -0.3754 -0.1728  0.3621
 7100SOL    HW228166   4.761   1.575   1.361  1.1646 -2.2807 -0.6529
 7100SOL    HW328167   4.796   1.453   1.443  1.7915 -0.0065  2.6681
 7100SOL    MW428168   4.776   1.538   1.438 -0.3732 -0.1501  0.2404
 7101SOL     OW28169   3.884   3.749   5.756 -0.0080 -0.6875 -0.0927
 7101SOL    HW228170   3.946   3.782   5.691  0.5095 -1.5806 -0.0784
 7101SOL    HW328171   3.927   3.764   5.840 -0.9825  1.1179  0.1312
 7101SOL    MW428172   3.898   3.755   5.759  0.4749 -0.0325 -0.0133
 7102SOL     OW28173   1.442   6.241   6.204 -0.1609  0.1702  0.4007
 7102SOL    HW228174   1.373   6.291   6.248  0.6217  0.4367  1.3621
 7102SOL    HW328175   1.394   6.178   6.150 -1.2024 -0.5760  2.0691
 7102SOL    MW428176   1.426   6.240   6.203  0.1733 -0.3534  0.0596
 7103SOL     OW28177   2.831   5.455   4.504 -0.3658  0.1118  0.2004
 7103SOL    HW228178   2.874   5.500   4.431 -0.2978 -0.3172 -0.0304
 7103SOL    HW328179   2.897   5.393   4.536 -0.7368 -0.3979 -0.0149
 7103SOL    MW428180   2.845   5.452   4.499 -0.0172  0.1694  0.0125
 7104SOL     OW28181   0.486   1.238   3.912  0.1139 -0.0147  0.3082
 7104SOL    HW228182   0.485   1.304   3.981  0.2506  0.7402 -0.4000
 7104SOL    HW328183   0.569   1.252   3.867  0.9481 -1.7736  1.1733
 7104SOL    MW428184   0.497   1.249   3.915  0.4199 -0.7176  0.7506
 7105SOL     OW28185   0.744   0.375   0.278  0.0810  0.0891  0.9153
 7105SOL    HW228186   0.757   0.468   0.296 -0.3677  0.4565 -0.4835
 7105SOL    HW328187   0.649   0.364   0.273  0.1132  0.2229 -1.7755
 7105SOL    MW428188   0.734   0.386   0.279  0.4106 -0.1553 -0.4610
 7106SOL     OW28189   2.251   2.847   0.707 -0.1173  0.3358  0.6924
 7106SOL    HW228190   2.319   2.849   0.774  0.7866  0.5688 -0.2036
 7106SOL    HW328191   2.228   2.938   0.693 -0.2913  0.2893  0.6686
 7106SOL    MW428192   2.256   2.859   0.714  0.4200 -0.0947  0.0742
 7107SOL     OW28193   1.658   0.737   1.139 -0.0046  0.2695 -0.2021
 7107SOL    HW228194   1.622   0.698   1.059  1.3723 -1.4275 -0.0734
 7107SOL    HW328195   1.597   0.712   1.208 -1.5930  2.3672 -0.7736
 7107SOL    MW428196   1.645   0.728   1.138 -0.0081  0.8441  0.3234
 7108SOL     OW28197   3.679   4.366   5.731  0.1734  0.1375  0.1869
 7108SOL    HW228198   3.627   4.367   5.811  1.2241  1.3030  0.8741
 7108SOL    HW328199   3.702   4.274   5.719  0.2712 -0.0066  1.3982
 7108SOL    MW428200   3.675   4.354   5.740  0.1194  0.1764 -0.1278
 7109SOL     OW28201   2.104   0.126   0.941  0.0205 -0.0270  0.2971
 7109SOL    HW228202   2.046   0.063   0.984 -1.6583  1.5316  0.4498
 7109SOL    HW328203   2.058   0.150   0.860  0.2573  1.4934  0.5792
 7109SOL    MW428204   2.090   0.121   0.936  0.0409  0.3086 -0.0702
 7110SOL     OW28205   3.139   2.566   3.366 -0.1867 -0.8645  0.2681
 7110SOL    HW228206   3.045   2.563   3.382 -0.0450  0.3125  1.5307
 7110SOL    HW328207   3.162   2.659   3.375  0.9562 -1.0058 -0.9213
 7110SOL    MW428208   3.130   2.578   3.370 -0.3464  0.0319  0.8433
 7111SOL     OW28209   1.646   5.644   4.838 -0.0449  0.6220 -0.2906
 7111SOL    HW228210   1.645   5.629   4.933 -1.9974  0.4008 -0.2928
 7111SOL    HW328211   1.717   5.588   4.805 -0.2455 -0.3785  0.8996
 7111SOL    MW428212   1.655   5.634   4.846 -0.2061  0.3068  0.7951
 7112SOL     OW28213   2.881   2.079   4.821  0.1862  0.2387 -0.1978
 7112SOL    HW228214   2.806   2.046   4.871  0.4984  0.4608  0.4264
 7112SOL    HW328215   2.906   2.160   4.866  0.1813  0.7023 -0.9975
 7112SOL    MW428216   2.874   2.085   4.833 -0.0023  0.1008  0.4086
 7113SOL     OW28217   0.800   2.368   0.232 -0.2025 -0.4719 -0.0894
 7113SOL    HW228218   0.778   2.459   0.253  0.6120 -0.5441  1.1429
 7113SOL    HW328219   0.715   2.328   0.210 -0.6805  0.3665  0.1673
 7113SOL    MW428220   0.786   2.375   0.232  0.2887  0.0610 -0.4869
 7114SOL     OW28221   2.154   3.990   1.716  0.0035  0.0709  0.0746
 7114SOL    HW228222   2.222   3.931   1.684 -1.4215 -2.1443  0.8428
 7114SOL    HW328223   2.175   4.075   1.678  1.8429 -1.0560 -1.5989
 7114SOL    MW428224   2.165   3.994   1.707  0.3275  0.1547  0.0166
 7115SOL     OW28225   4.315   5.085   1.366 -0.1074  0.3224  0.4487
 7115SOL    HW228226   4.399   5.129   1.371  0.2418 -0.1515 -0.9785
 7115SOL    HW328227   4.327   5.016   1.301 -0.8541 -1.4123  2.0686
 7115SOL    MW428228   4.327   5.082   1.358  0.2038  0.0807 -0.8609
 7116SOL     OW28229   0.259   5.505   1.739 -0.3163  0.1336 -0.1836
 7116SOL    HW228230   0.308   5.560   1.678 -1.5954  2.8785  1.1051
 7116SOL    HW328231   0.324   5.481   1.806  0.4712 -0.7735 -1.2306
 7116SOL    MW428232   0.274   5.509   1.740  0.0422  0.1458  0.0187
 7117SOL     OW28233   5.784   0.601   1.601  0.5190  0.0384  0.0378
 7117SOL    HW228234   5.781   0.505   1.602  3.2335 -0.2014 -2.2372
 7117SOL    HW328235   5.875   0.623   1.621 -0.4213  2.3196  2.3661
 7117SOL    MW428236   5.795   0.591   1.604 -0.1590 -0.0111 -0.7907
 7118SOL     OW28237   2.931   4.400   6.139  0.4855 -1.2821 -0.2263
 7118SOL    HW228238   2.888   4.475   6.098  0.9468 -0.6162  0.4800
 7118SOL    HW328239   2.881   4.324   6.108 -0.4246 -0.6352 -0.4009
 7118SOL    MW428240   2.919   4.399   6.129  0.3808  0.2262 -0.3043
 7119SOL     OW28241   1.379   3.138   6.134  0.1120  0.1993  0.0269
 7119SOL    HW228242   1.375   3.233   6.125  0.2806  0.1222 -1.0347
 7119SOL    HW328243   1.448   3.112   6.073 -0.4595 -0.6692 -0.2640
 7119SOL    MW428244   1.388   3.147   6.125  0.5892 -0.0170  0.0627
 7120SOL     OW28245   0.374   2.961   0.515  0.2143  0.0355  0.8442
 7120SOL    HW228246   0.316   2.901   0.564  0.4022 -0.0012  1.0254
 7120SOL    HW328247   0.326   2.981   0.435  0.3896 -0.8187  0.5100
 7120SOL    MW428248   0.360   2.955   0.511  0.0376  0.2043 -0.5845
 7121SOL     OW28249   2.484   6.326   5.100 -0.0474 -0.6334 -0.1448
 7121SOL    HW228250   2.540   6.357   5.029  0.1221 -1.8315 -0.5528
 7121SOL    HW328251   2.504   6.384   5.173 -0.5620  0.9308 -1.1906
 7121SOL    MW428252   2.494   6.338   5.100  0.0252 -0.3625 -0.0213
 7122SOL     OW28253   3.448   5.898   5.623 -0.1493 -0.1326 -0.1358
 7122SOL    HW228254   3.403   5.871   5.703 -2.3682 -0.0957 -1.3078
 7122SOL    HW328255   3.507   5.825   5.602 -2.0347 -1.6826 -0.2840
 7122SOL    MW428256   3.450   5.885   5.631 -0.2864 -0.3076  0.1159
 7123SOL     OW28257   2.293   3.381   4.003  0.6205  0.6695  0.3343
 7123SOL    HW228258   2.352   3.452   3.978  0.6200  0.5744  0.0555
 7123SOL    HW328259   2.254   3.409   4.086  1.9621  0.1998  1.1442
 7123SOL    MW428260   2.295   3.394   4.011  0.2812  0.6057  0.3204
 7124SOL     OW28261   1.121   6.260   4.858  0.0923  0.0301 -0.1911
 7124SOL    HW228262   1.038   6.303   4.876 -0.1474 -0.6623  0.3720
 7124SOL    HW328263   1.157   6.237   4.944  0.5528 -0.2506 -0.4499
 7124SOL    MW428264   1.115   6.262   4.871 -0.0484  0.0115  0.2169
 7125SOL     OW28265   4.933   3.904   1.426  0.7924 -0.2787  0.6177
 7125SOL    HW228266   5.022   3.908   1.463  1.7432 -0.2503 -1.5264
 7125SOL    HW328267   4.927   3.981   1.370 -0.6148 -0.2824  0.7336
 7125SOL    MW428268   4.944   3.915   1.424  0.2778  0.0467  0.2804
 7126SOL     OW28269   0.518   3.806   2.707 -0.0317 -0.5680  0.3845
 7126SOL    HW228270   0.489   3.766   2.789  1.1880 -0.5737  0.8285
 7126SOL    HW328271   0.552   3.892   2.733  2.3476 -1.3992  0.2230
 7126SOL    MW428272   0.519   3.812   2.721  0.3321  0.3675  0.3656
 7127SOL     OW28273   2.680   4.001   2.292 -0.4608 -0.5234  0.3221
 7127SOL    HW228274   2.652   4.088   2.320 -2.0449 -1.1649  0.8968
 7127SOL    HW328275   2.690   3.952   2.374  1.9663 -0.4887  0.1078
 7127SOL    MW428276   2.677   4.006   2.307  0.4641  0.1597 -0.7107
 7128SOL     OW28277   4.683   1.669   0.140  0.7923 -0.4764  0.0627
 7128SOL    HW228278   4.719   1.587   0.104  0.0823 -2.1319  2.7782
 7128SOL    HW328279   4.698   1.661   0.234 -2.0378  1.1267  0.7465
 7128SOL    MW428280   4.690   1.657   0.148 -0.3070 -0.1991  0.1720
 7129SOL     OW28281   1.917   2.749   5.994 -0.1992 -0.0375  0.4698
 7129SOL    HW228282   1.840   2.709   6.034 -0.3567 -1.4315 -1.0857
 7129SOL    HW328283   1.990   2.726   6.051 -0.5366 -1.2384  0.4482
 7129SOL    MW428284   1.916   2.741   6.007  0.1506 -0.8820 -0.2089
 7130SOL     OW28285   3.809   1.918   0.124 -0.3944  0.1134  0.1926
 7130SOL    HW228286   3.868   1.968   0.181  1.2376 -0.6407 -0.7409
 7130SOL    HW328287   3.750   1.873   0.183 -0.2505  1.1448  1.1646
 7130SOL    MW428288   3.809   1.919   0.139 -0.3483 -0.0118 -0.4220
 7131SOL     OW28289   3.106   3.324   3.346 -0.0052  0.2046  0.1484
 7131SOL    HW228290   3.093   3.308   3.440 -0.7171  0.3028  0.0699
 7131SOL    HW328291   3.069   3.411   3.331  0.0099  0.1436 -0.2469
 7131SOL    MW428292   3.099   3.334   3.356  0.3332  0.0949  0.2002
 7132SOL     OW28293   3.375   1.534   6.204 -0.5934 -0.4815 -0.0378
 7132SOL    HW228294   3.354   1.627   6.196  1.6790  0.0221 -0.7715
 7132SOL    HW328295   3.344   1.510   6.292  1.0796  1.6576  1.2488
 7132SOL    MW428296   3.368   1.543   6.215  0.3817 -0.0827  0.0152
 7133SOL     OW28297   4.630   5.775   5.594  0.0521  0.3491 -0.2918
 7133SOL    HW228298   4.683   5.804   5.668 -1.2444 -0.2269  0.9100
 7133SOL    HW328299   4.644   5.680   5.590 -1.6659  0.0216  0.7214
 7133SOL    MW428300   4.639   5.766   5.603  0.1385 -0.1310  0.2276
 7134SOL     OW28301   2.622   5.821   2.652  0.3605 -0.0193  0.4086
 7134SOL    HW228302   2.616   5.770   2.733  0.3157 -1.1917 -0.3093
 7134SOL    HW328303   2.541   5.799   2.605  0.4139  0.6112  0.0110
 7134SOL    MW428304   2.610   5.811   2.657  0.1410 -0.0134 -0.4288
 7135SOL     OW28305   0.922   4.892   5.592  0.3322  0.1089 -0.9230
 7135SOL    HW228306   0.848   4.951   5.608  1.3618  0.9538  1.0655
 7135SOL    HW328307   0.890   4.830   5.527 -1.4848  1.6005 -1.5219
 7135SOL    MW428308   0.908   4.892   5.585 -0.1895 -0.5648 -0.2059
 7136SOL     OW28309   2.914   5.764   2.811  0.7325  0.1000 -0.0710
 7136SOL    HW228310   3.007   5.782   2.824  0.5494  0.1250  1.3606
 7136SOL    HW328311   2.882   5.739   2.898 -0.9119  1.5679 -0.1917
 7136SOL    MW428312   2.922   5.763   2.824 -0.2859 -0.1392 -0.4143
 7137SOL     OW28313   1.072   4.361   5.395 -0.3289  0.2300  0.2778
 7137SOL    HW228314   1.165   4.386   5.393  0.0982 -1.2557 -0.3517
 7137SOL    HW328315   1.072   4.269   5.368 -2.1808  0.7490 -1.8212
 7137SOL    MW428316   1.084   4.352   5.391  0.0402  0.3412 -0.4125
 7138SOL     OW28317   4.508   4.127   0.439 -0.4715  0.3131 -0.0412
 7138SOL    HW228318   4.600   4.100   0.445 -0.9561 -1.1032  1.8955
 7138SOL    HW328319   4.475   4.080   0.362 -0.2112 -1.3182  0.8022
 7138SOL    MW428320   4.516   4.117   0.430 -0.3170 -0.0649  0.0221
 7139SOL     OW28321   1.236   1.282   1.093  0.0267 -0.2054  0.1159
 7139SOL    HW228322   1.181   1.232   1.153 -0.9932  1.4899  0.6512
 7139SOL    HW328323   1.182   1.294   1.015  0.7852 -1.0958 -0.5694
 7139SOL    MW428324   1.222   1.277   1.091 -0.0886  0.2605  0.5359
 7140SOL     OW28325   5.084   4.482   4.653 -0.0223 -0.4771 -0.6300
 7140SOL    HW228326   5.164   4.452   4.608 -0.5310 -2.2821 -0.4287
 7140SOL    HW328327   5.032   4.524   4.584 -0.2916 -2.1965 -1.5360
 7140SOL    MW428328   5.088   4.483   4.638 -0.2793 -0.3350  0.1215
 7141SOL     OW28329   4.947   3.530   6.427 -0.4188  0.1493 -0.7243
 7141SOL    HW228330   4.904   3.588   6.364  2.1679  0.4275 -2.3769
 7141SOL    HW328331   5.041   3.549   6.417  0.3176 -2.2419  0.8151
 7141SOL    MW428332   4.954   3.540   6.418  0.0390 -0.7734  0.4197
 7142SOL     OW28333   2.791   0.649   2.650 -0.1814  0.0853 -0.2418
 7142SOL    HW228334   2.709   0.607   2.677  0.3578  0.2556  1.8628
 7142SOL    HW328335   2.859   0.598   2.694  0.5260  2.6721  1.9115
 7142SOL    MW428336   2.789   0.637   2.660 -0.2893 -0.4735 -0.6469
 7143SOL     OW28337   2.383   1.626   1.953  0.3492  0.1448 -0.3245
 7143SOL    HW228338   2.451   1.581   1.902 -0.8385 -3.3513  0.8488
 7143SOL    HW328339   2.429   1.659   2.030  1.2167  0.5932 -1.0199
 7143SOL    MW428340   2.398   1.624   1.956  0.1130 -0.2403  0.2116
 7144SOL     OW28341   4.273   0.768   2.538  0.1063 -0.2993  0.3383
 7144SOL    HW228342   4.345   0.796   2.482  0.0312  0.6171  0.6819
 7144SOL    HW328343   4.203   0.830   2.519  0.6153  1.0780  2.6171
 7144SOL    MW428344   4.273   0.780   2.528 -0.3710 -0.0371  0.3888
 7145SOL     OW28345   6.003   3.087   1.873  0.8571  0.8917 -0.4191
 7145SOL    HW228346   5.993   3.032   1.794 -0.0699  1.1219 -0.4828
 7145SOL    HW328347   6.051   3.032   1.935  3.0480  1.2702 -1.6738
 7145SOL    MW428348   6.008   3.072   1.870  0.3803 -0.0917 -0.3639
 7146SOL     OW28349   2.274   2.189   0.595  0.6671 -0.0013 -0.4947
 7146SOL    HW228350   2.269   2.253   0.524 -0.3902  2.4923  1.6566
 7146SOL    HW328351   2.183   2.166   0.613  0.8766 -0.2527  0.2998
 7146SOL    MW428352   2.261   2.195   0.588  0.2279  0.0173  0.6737
 7147SOL     OW28353   1.582   4.945   5.135  0.2493 -0.4055 -0.1529
 7147SOL    HW228354   1.643   4.884   5.178 -0.1954 -0.6725  0.1020
 7147SOL    HW328355   1.639   5.013   5.100  0.7596 -0.9709 -0.4585
 7147SOL    MW428356   1.598   4.946   5.136  0.1638 -0.0439 -0.0906
 7148SOL     OW28357   4.185   6.137   5.166  0.0566 -0.5313 -0.2709
 7148SOL    HW228358   4.205   6.064   5.107  2.4656  0.1139 -0.3842
 7148SOL    HW328359   4.153   6.206   5.108  2.3748  0.0876 -0.9235
 7148SOL    MW428360   4.184   6.136   5.151  0.1013 -0.0555 -0.5227
 7149SOL     OW28361   1.244   5.229   3.026 -0.5220 -0.6471 -0.1180
 7149SOL    HW228362   1.323   5.179   3.008  0.1615 -0.4152  1.9925
 7149SOL    HW328363   1.205   5.185   3.102 -1.6918  0.0590 -0.2930
 7149SOL    MW428364   1.249   5.216   3.034 -0.3208 -0.2990 -0.2911
 7150SOL     OW28365   0.318   4.095   2.505 -0.2842  0.1186  0.5665
 7150SOL    HW228366   0.384   4.045   2.456 -0.8545 -1.0660  0.9866
 7150SOL    HW328367   0.274   4.148   2.438  0.0335 -0.2679  0.0417
 7150SOL    MW428368   0.321   4.096   2.489  0.2021  0.3899  0.5182
 7151SOL     OW28369   3.179   4.593   4.846  0.7681  0.1330  0.0810
 7151SOL    HW228370   3.155   4.556   4.761  0.8263  0.4064 -0.0555
 7151SOL    HW328371   3.269   4.562   4.861  0.8159  0.2154 -0.0313
 7151SOL    MW428372   3.188   4.584   4.837  0.1910  0.0630 -0.1402
 7152SOL     OW28373   0.792   1.273   2.654  0.1255  0.3804 -0.1805
 7152SOL    HW228374   0.716   1.257   2.711  0.2102 -3.0354 -0.8611
 7152SOL    HW328375   0.854   1.204   2.676  1.4268  0.7881 -2.3569
 7152SOL    MW428376   0.790   1.262   2.665 -0.3218 -0.1076  0.2086
 7153SOL     OW28377   3.581   5.276   2.813  0.1565  0.4935  0.2210
 7153SOL    HW228378   3.592   5.224   2.893  1.1223  0.4623  0.0794
 7153SOL    HW328379   3.636   5.233   2.748  0.5601  1.3900 -0.0490
 7153SOL    MW428380   3.589   5.264   2.815 -0.2108  0.6589  0.1098
 7154SOL     OW28381   1.119   0.890   2.562 -0.4114  0.0571 -0.1681
 7154SOL    HW228382   1.066   0.814   2.588 -0.0236 -0.1867 -0.0881
 7154SOL    HW328383   1.161   0.863   2.480 -0.3590  0.2278 -0.1976
 7154SOL    MW428384   1.117   0.876   2.554  0.1954  0.5994  0.2791
 7155SOL     OW28385   1.197   3.998   1.478 -0.3353 -0.4208  0.7498
 7155SOL    HW228386   1.201   3.936   1.405 -1.1511  0.5854 -0.1774
 7155SOL    HW328387   1.177   3.943   1.554 -2.9338 -1.1579 -0.3461
 7155SOL    MW428388   1.195   3.983   1.479 -0.1214  0.1486 -0.0266
 7156SOL     OW28389   6.276   3.175   2.361 -0.4657  0.4957  0.0359
 7156SOL    HW228390   6.290   3.214   2.448 -0.3841 -0.9164  0.6853
 7156SOL    HW328391   6.214   3.104   2.377 -0.5320  0.2898 -1.0964
 7156SOL    MW428392   6.270   3.171   2.375 -0.2358 -0.3200  0.3968
 7157SOL     OW28393   5.513   3.642   4.303  0.4248 -0.4517  0.2844
 7157SOL    HW228394   5.512   3.614   4.395  2.1981  4.2245  2.0000
 7157SOL    HW328395   5.605   3.643   4.279  0.2527  1.4864 -0.4099
 7157SOL    MW428396   5.525   3.638   4.312  0.6560  0.2477 -0.3063
 7158SOL     OW28397   2.439   5.663   0.491  0.1981 -0.0375  0.1910
 7158SOL    HW228398   2.418   5.756   0.483  0.6274  0.0504  0.0493
 7158SOL    HW328399   2.420   5.626   0.404  1.7347  0.2758 -0.3098
 7158SOL    MW428400   2.434   5.670   0.478  0.0420 -0.2455  0.1041
 7159SOL     OW28401   6.069   0.802   5.851 -0.0807  0.1593 -0.1141
 7159SOL    HW228402   6.024   0.878   5.888  0.1572  0.3355 -0.1832
 7159SOL    HW328403   6.036   0.795   5.762  1.6896  1.6821 -0.9627
 7159SOL    MW428404   6.059   0.811   5.844  0.8477 -0.0505 -0.5773
 7160SOL     OW28405   6.072   6.290   0.006 -0.1513  0.0631 -0.3414
 7160SOL    HW228406   6.029   6.334  -0.068 -0.6939  1.2815  0.6515
 7160SOL    HW328407   6.135   6.354   0.038  0.0682 -0.4454  0.2588
 7160SOL    MW428408   6.075   6.304  -0.000  0.0125  0.4487 -0.5035
 7161SOL     OW28409   5.884   2.236   2.601 -0.3829  0.2809  1.0500
 7161SOL    HW228410   5.933   2.188   2.667 -0.3574  0.2769  1.0281
 7161SOL    HW328411   5.792   2.218   2.622 -0.3656 -0.4161  0.5696
 7161SOL    MW428412   5.878   2.227   2.612 -0.6170 -0.0077 -0.2995
 7162SOL     OW28413   3.511   1.478   5.774 -0.0389  0.2468  0.1773
 7162SOL    HW228414   3.449   1.405   5.770  1.4704 -1.1054  0.4491
 7162SOL    HW328415   3.464   1.546   5.823 -1.1900 -0.8443  0.6567
 7162SOL    MW428416   3.496   1.478   5.780 -0.2785 -0.2440  0.3495
 7163SOL     OW28417   0.484   2.890   0.123  0.7538 -0.2322 -0.2739
 7163SOL    HW228418   0.518   2.802   0.137  0.9275 -0.1574 -0.2268
 7163SOL    HW328419   0.544   2.947   0.171  0.7100 -0.0773 -0.4036
 7163SOL    MW428420   0.496   2.886   0.131  0.2390  0.1033  0.5383
 7164SOL     OW28421   3.251   2.066   1.905  0.0472 -0.4496  0.3980
 7164SOL    HW228422   3.322   2.106   1.956  1.3919 -1.6474 -0.4410
 7164SOL    HW328423   3.249   1.975   1.935 -0.6635 -0.6006 -0.0946
 7164SOL    MW428424   3.260   2.060   1.916  0.6051 -0.2285  0.0534
 7165SOL     OW28425   6.416   1.013   1.127  0.5229 -0.1402 -0.3987
 7165SOL    HW228426   6.370   1.030   1.045 -0.3287  0.9236  0.2617
 7165SOL    HW328427   6.354   1.040   1.195  1.9533  0.8848  0.5493
 7165SOL    MW428428   6.402   1.019   1.126  0.0778 -0.0546  0.4028
 7166SOL     OW28429   3.681   3.976   2.725 -0.0025 -0.1033  0.4004
 7166SOL    HW228430   3.655   4.028   2.649 -1.5994  1.6587  2.0298
 7166SOL    HW328431   3.772   3.999   2.741  1.4263 -2.8014 -2.6409
 7166SOL    MW428432   3.689   3.986   2.717 -0.5696 -0.7463  0.6902
 7167SOL     OW28433   1.108   5.327   6.315  0.4952  0.1246  0.4834
 7167SOL    HW228434   1.195   5.357   6.290 -0.4266  1.4703 -1.2988
 7167SOL    HW328435   1.079   5.389   6.382  0.2710  0.6608 -0.1071
 7167SOL    MW428436   1.116   5.339   6.321  0.5013  0.0258  0.5378
 7168SOL     OW28437   1.987   0.829   2.535 -0.3043  0.3359 -0.1018
 7168SOL    HW228438   1.938   0.910   2.524  0.1384  0.7845  1.0594
 7168SOL    HW328439   1.962   0.797   2.622  0.2507 -0.2680 -0.1507
 7168SOL    MW428440   1.977   0.835   2.545  0.4342  0.3378  0.6734
 7169SOL     OW28441   2.874   5.229   1.692 -0.0436  0.0373 -0.5162
 7169SOL    HW228442   2.842   5.140   1.679  1.7517 -1.1222  2.1902
 7169SOL    HW328443   2.807   5.285   1.651 -0.2009 -2.4923 -4.2200
 7169SOL    MW428444   2.861   5.225   1.685 -0.2117 -0.0791 -0.3065
 7170SOL     OW28445   5.561   2.515   4.479  0.0913  0.3527 -0.0212
 7170SOL    HW228446   5.643   2.565   4.481  0.2624  0.1273 -1.0997
 7170SOL    HW328447   5.559   2.476   4.392 -1.4662  0.8518 -0.2333
 7170SOL    MW428448   5.572   2.517   4.468  0.0233  0.1220 -0.0977
 7171SOL     OW28449   4.398   2.543   5.208 -0.1908  0.0095  0.9673
 7171SOL    HW228450   4.447   2.597   5.146  0.5141 -2.4922 -0.8290
 7171SOL    HW328451   4.306   2.554   5.183 -0.1782  1.2046  1.3865
 7171SOL    MW428452   4.392   2.551   5.197 -0.7966  0.0080  0.7489
 7172SOL     OW28453   1.758   3.596   0.344 -0.2936 -0.4097  0.6708
 7172SOL    HW228454   1.806   3.515   0.328  2.6658  1.0240  1.5981
 7172SOL    HW328455   1.785   3.655   0.274 -3.6052 -0.5302 -0.9159
 7172SOL    MW428456   1.768   3.593   0.333 -0.2351  0.1714 -0.1822
 7173SOL     OW28457   2.375   0.745   5.930  0.5665 -0.5217 -0.0730
 7173SOL    HW228458   2.418   0.707   5.854 -0.0291  0.9280 -1.1945
 7173SOL    HW328459   2.300   0.793   5.893  0.1357  0.0366  1.4502
 7173SOL    MW428460   2.370   0.746   5.915 -0.0781  0.2027  0.1720
 7174SOL     OW28461   1.738   3.896   1.295 -0.4013  0.5210  0.0877
 7174SOL    HW228462   1.795   3.885   1.220  0.1331 -0.8682  0.6574
 7174SOL    HW328463   1.736   3.991   1.311  1.5640  0.6256 -0.0887
 7174SOL    MW428464   1.745   3.907   1.287 -0.3525  0.1050 -0.0777
 7175SOL     OW28465   2.766   5.774   2.199  0.1049  0.6631  0.5381
 7175SOL    HW228466   2.849   5.745   2.237 -0.3252 -0.8145  0.4231
 7175SOL    HW328467   2.787   5.797   2.109  0.2993 -0.3157  0.3209
 7175SOL    MW428468   2.780   5.773   2.192 -0.2505  0.8760  0.4894
 7176SOL     OW28469   2.969   3.964   3.227  0.4375  0.1165 -0.1198
 7176SOL    HW228470   2.900   3.898   3.229 -1.6010  2.0037 -1.8810
 7176SOL    HW328471   3.004   3.965   3.316 -2.4173 -0.3600  1.1257
 7176SOL    MW428472   2.964   3.956   3.239 -0.3867 -0.0669  0.3293
 7177SOL     OW28473   0.623   3.485   6.242  0.2857  0.4012  0.3362
 7177SOL    HW228474   0.637   3.482   6.337  0.5745 -0.7713  0.2723
 7177SOL    HW328475   0.598   3.395   6.219 -0.6085  0.8662 -0.5836
 7177SOL    MW428476   0.621   3.472   6.251 -0.1330  0.2925  0.4660
 7178SOL     OW28477   6.028   2.356   2.376  0.6711  0.3280  0.2606
 7178SOL    HW228478   6.033   2.443   2.416  0.0094  1.0133 -1.0658
 7178SOL    HW328479   6.003   2.298   2.448  0.6065  1.3205  1.0618
 7178SOL    MW428480   6.025   2.360   2.391  0.3504 -0.0882 -0.1908
 7179SOL     OW28481   5.812   2.461   1.955 -0.3348  0.7015  0.2116
 7179SOL    HW228482   5.756   2.512   2.013  0.2228  0.3803  1.0503
 7179SOL    HW328483   5.866   2.407   2.013  2.9369  3.0740 -0.3267
 7179SOL    MW428484   5.812   2.460   1.970  0.1488  0.4377 -0.4198
 7180SOL     OW28485   0.756   2.577   1.963  0.2834  0.5877  0.6144
 7180SOL    HW228486   0.732   2.579   2.055  1.6385  0.8395  0.9895
 7180SOL    HW328487   0.725   2.661   1.928 -0.6873  0.2785  0.6983
 7180SOL    MW428488   0.749   2.589   1.970 -0.0057 -0.2482  0.2352
 7181SOL     OW28489   2.556   1.109   3.113 -0.3659  0.4723 -0.2158
 7181SOL    HW228490   2.619   1.078   3.179 -2.3162 -0.9083  1.1284
 7181SOL    HW328491   2.609   1.158   3.050  1.7160  1.2709  1.9948
 7181SOL    MW428492   2.571   1.111   3.113  0.3124 -0.3091  0.4464
 7182SOL     OW28493   1.983   4.667   0.466  0.0238  0.4334  0.6128
 7182SOL    HW228494   1.933   4.681   0.546  1.0210 -0.3224  1.3907
 7182SOL    HW328495   1.924   4.617   0.409  0.0859 -1.0579  1.7801
 7182SOL    MW428496   1.968   4.662   0.469  0.4997 -0.0098 -0.2222
 7183SOL     OW28497   2.456   6.285   5.503  0.5317 -0.3245  0.0664
 7183SOL    HW228498   2.507   6.239   5.435 -0.3141  0.0149 -0.8275
 7183SOL    HW328499   2.407   6.351   5.455  0.6546  0.5885  1.1612
 7183SOL    MW428500   2.456   6.287   5.487 -0.5674 -0.0098 -0.3829
 7184SOL     OW28501   1.588   2.839   2.638  0.2014 -0.2083  0.1693
 7184SOL    HW228502   1.495   2.838   2.615  0.3289  2.2221 -0.8116
 7184SOL    HW328503   1.621   2.753   2.612 -1.4740 -0.5914 -0.8116
 7184SOL    MW428504   1.580   2.828   2.632 -0.3801  0.2335  0.1684
 7185SOL     OW28505   1.415   0.175   2.232 -0.3617 -0.0282 -0.5568
 7185SOL    HW228506   1.484   0.168   2.166  1.1467  1.3086  0.8089
 7185SOL    HW328507   1.379   0.263   2.220 -1.3400 -0.4307 -0.7316
 7185SOL    MW428508   1.419   0.186   2.221 -0.4924 -0.6823 -0.0263
 7186SOL     OW28509   4.256   1.206   2.064  0.3754  0.0356 -0.3699
 7186SOL    HW228510   4.351   1.216   2.053  0.6958 -0.0909  1.8945
 7186SOL    HW328511   4.224   1.296   2.077  0.4588 -0.0620  0.5895
 7186SOL    MW428512   4.264   1.219   2.064  0.7150  0.0969  0.6126
 7187SOL     OW28513   0.085   0.755   4.559  0.1972  0.2212 -0.8012
 7187SOL    HW228514   0.045   0.768   4.645 -0.5255 -1.1490 -0.9041
 7187SOL    HW328515   0.011   0.760   4.498  0.6838  1.0455 -1.3397
 7187SOL    MW428516   0.070   0.758   4.562  0.0623  0.1392 -0.1458
 7188SOL     OW28517   1.425   1.263   1.976 -0.0336 -0.1160  0.4267
 7188SOL    HW228518   1.496   1.259   1.912  0.7027 -0.8050  1.2559
 7188SOL    HW328519   1.380   1.179   1.968  1.0304 -0.8664  1.8545
 7188SOL    MW428520   1.428   1.252   1.966 -0.0807 -0.2824 -0.3129
 7189SOL     OW28521   4.653   4.470   0.456  0.3333 -0.1383  0.5797
 7189SOL    HW228522   4.652   4.434   0.545  0.4589 -1.6200  0.0106
 7189SOL    HW328523   4.744   4.493   0.440  0.2119  0.6790  1.0364
 7189SOL    MW428524   4.664   4.468   0.466 -0.2071 -0.3608  0.6102
 7190SOL     OW28525   1.276   4.927   1.388  0.1039 -0.4048 -0.2848
 7190SOL    HW228526   1.267   4.905   1.295 -0.9487 -0.5907 -0.1534
 7190SOL    HW328527   1.208   4.993   1.403 -0.5362 -1.2446  0.6176
 7190SOL    MW428528   1.265   4.933   1.377  0.3012  0.7123 -0.0307
 7191SOL     OW28529   1.728   4.748   2.480  0.1095  0.4649  0.0607
 7191SOL    HW228530   1.692   4.660   2.491  1.6432 -0.2428 -0.2866
 7191SOL    HW328531   1.715   4.789   2.566 -0.2815 -0.2324  0.3482
 7191SOL    MW428532   1.722   4.742   2.493  0.3897  0.1128 -0.4317
 7192SOL     OW28533   6.312   1.972   5.602 -0.6264 -0.6090 -0.1155
 7192SOL    HW228534   6.336   1.885   5.636  1.0960  0.4160  1.4914
 7192SOL    HW328535   6.396   2.014   5.582 -1.4394  0.5838 -1.1887
 7192SOL    MW428536   6.326   1.966   5.604 -0.0077 -0.1809  0.3849
 7193SOL     OW28537   6.258   1.055   0.883 -0.2478 -0.3485  0.8326
 7193SOL    HW228538   6.189   1.031   0.945 -0.3401 -2.0930  0.1269
 7193SOL    HW328539   6.212   1.071   0.800  0.0582 -0.0979  0.7092
 7193SOL    MW428540   6.243   1.054   0.880 -0.0789  0.0194  0.6034
 7194SOL     OW28541   3.237   4.207   3.597  0.6501  0.2160  0.3862
 7194SOL    HW228542   3.290   4.130   3.576  1.1698  0.7423 -0.2587
 7194SOL    HW328543   3.181   4.178   3.669  1.2442 -0.5901  0.5414
 7194SOL    MW428544   3.236   4.193   3.604  0.3247  0.6009  0.8251
 7195SOL     OW28545   4.304   1.876   0.546 -0.1379  0.1360 -0.3615
 7195SOL    HW228546   4.365   1.938   0.506  1.7696 -0.5549  1.3417
 7195SOL    HW328547   4.309   1.798   0.490  0.1255  0.2756 -0.5347
 7195SOL    MW428548   4.312   1.874   0.533 -0.6139 -0.2065 -0.4142
 7196SOL     OW28549   5.723   5.140   3.757 -0.7110  0.9221  0.2647
 7196SOL    HW228550   5.755   5.070   3.813  0.2929  1.1652  0.0121
 7196SOL    HW328551   5.679   5.201   3.816 -0.4830  0.7079  0.6547
 7196SOL    MW428552   5.721   5.139   3.772 -0.3126 -0.1841 -0.2457
 7197SOL     OW28553   4.882   0.032   0.726 -0.1315 -0.4285 -0.6860
 7197SOL    HW228554   4.886  -0.028   0.800 -0.5069 -0.2791 -0.5405
 7197SOL    HW328555   4.973   0.048   0.702 -0.0345 -1.6200 -1.1813
 7197SOL    MW428556   4.894   0.026   0.732 -0.1879  0.2303 -0.0483
 7198SOL     OW28557   2.305   4.612   3.872 -0.1158 -0.6942  0.1476
 7198SOL    HW228558   2.259   4.660   3.941  0.7018  0.1621  0.1259
 7198SOL    HW328559   2.241   4.548   3.840 -0.8026 -0.4959  1.0782
 7198SOL    MW428560   2.290   4.610   3.877 -0.2800 -0.4079 -0.3117
 7199SOL     OW28561   5.817   0.060   3.029  0.0378 -0.2146 -0.2369
 7199SOL    HW228562   5.748   0.027   3.087 -0.2685  1.6933  0.5336
 7199SOL    HW328563   5.769   0.093   2.953  0.0432  1.4219  0.4470
 7199SOL    MW428564   5.801   0.060   3.027  0.6618 -0.2582  0.0724
 7200SOL     OW28565   4.436   3.242   5.819 -0.5340  0.5682  0.5981
 7200SOL    HW228566   4.360   3.289   5.855 -1.0304  1.3086 -1.3065
 7200SOL    HW328567   4.495   3.311   5.790  0.2136 -0.0122  0.7093
 7200SOL    MW428568   4.434   3.257   5.820  0.0102  0.0899  0.1171
 7201SOL     OW28569   4.861   2.259   1.357  0.0169  0.0390  0.6889
 7201SOL    HW228570   4.955   2.277   1.361 -0.1288  1.2175 -0.5764
 7201SOL    HW328571   4.829   2.314   1.286 -1.0510 -2.8230 -1.2508
 7201SOL    MW428572   4.869   2.268   1.348  0.4271 -0.7648  0.7118
 7202SOL     OW28573   1.757   3.481   1.481  0.2540 -0.0168  0.4342
 7202SOL    HW228574   1.726   3.467   1.570 -1.8091 -2.7545 -0.5724
 7202SOL    HW328575   1.797   3.398   1.455  0.3952  0.5440 -1.3455
 7202SOL    MW428576   1.758   3.469   1.489 -0.1182  0.6673  0.0465
 7203SOL     OW28577   1.846   5.400   0.649  0.2347  0.1360  0.4642
 7203SOL    HW228578   1.784   5.360   0.710  1.3800 -0.5595  1.2206
 7203SOL    HW328579   1.861   5.488   0.683  1.8189 -0.6639  1.9667
 7203SOL    MW428580   1.840   5.406   0.662  0.2515 -0.8137 -0.0216
 7204SOL     OW28581   3.580   5.559   0.856 -0.8120 -0.5829  0.4558
 7204SOL    HW228582   3.641   5.582   0.786 -0.1373  0.6570  1.4299
 7204SOL    HW328583   3.494   5.564   0.815 -0.3566 -1.2570 -0.6410
 7204SOL    MW428584   3.577   5.562   0.842 -0.1805  0.1387 -0.2531
 7205SOL     OW28585   6.106   6.256   2.552 -0.1619 -0.0387  0.1282
 7205SOL    HW228586   6.084   6.199   2.479  0.3031  1.2564 -1.0705
 7205SOL    HW328587   6.114   6.198   2.628 -1.6251 -1.2941 -0.6335
 7205SOL    MW428588   6.104   6.241   2.553 -0.1261 -0.1438 -0.5893
 7206SOL     OW28589   4.649   5.829   1.543  0.0040 -0.2149  0.3562
 7206SOL    HW228590   4.682   5.740   1.546  0.8709  0.1087  0.9432
 7206SOL    HW328591   4.725   5.882   1.520 -1.1096  0.1188 -3.0316
 7206SOL    MW428592   4.663   5.824   1.541  0.3014  0.2257  0.2101
 7207SOL     OW28593   3.435   5.847   1.771 -0.2145  0.7489  0.4096
 7207SOL    HW228594   3.509   5.905   1.783  0.4614  0.0957 -0.4496
 7207SOL    HW328595   3.466   5.780   1.710 -1.1555 -0.1660  0.8916
 7207SOL    MW428596   3.449   5.846   1.765  0.7076 -0.2298  0.0888
 7208SOL     OW28597   3.412   0.063   2.346 -0.2590  0.7416 -0.1037
 7208SOL    HW228598   3.425   0.076   2.252  0.4448  2.7682  0.2267
 7208SOL    HW328599   3.497   0.082   2.385  0.1924 -2.5543  0.8167
 7208SOL    MW428600   3.425   0.067   2.339  0.4613 -0.5960  0.2676
 7209SOL     OW28601   0.914   2.202   3.124 -0.0664  0.1233  0.0550
 7209SOL    HW228602   0.898   2.111   3.148 -0.6564  0.1712 -0.1398
 7209SOL    HW328603   0.841   2.250   3.164  0.5631  0.5917  0.6721
 7209SOL    MW428604   0.902   2.197   3.133  0.2110 -0.6775 -0.2720
 7210SOL     OW28605   0.926   3.271   4.101  0.6800  0.3560 -0.2845
 7210SOL    HW228606   0.945   3.197   4.044 -0.7226 -0.6830  0.5359
 7210SOL    HW328607   0.934   3.236   4.189 -0.0539  1.1619  0.1149
 7210SOL    MW428608   0.929   3.257   4.105 -0.3265 -0.4452 -0.3944
 7211SOL     OW28609   2.873   1.062   2.755  0.8033  0.3840  0.0611
 7211SOL    HW228610   2.813   1.079   2.683  0.6262  0.9132  0.3321
 7211SOL    HW328611   2.959   1.087   2.721  0.7690  0.3101 -0.0809
 7211SOL    MW428612   2.877   1.067   2.741  0.5948  0.1082 -0.1151
 7212SOL     OW28613   2.806   5.639   4.765 -0.3775 -0.7160 -0.3410
 7212SOL    HW228614   2.874   5.697   4.797 -1.1680  0.3626 -0.5500
 7212SOL    HW328615   2.845   5.596   4.688  0.7082 -1.5707  0.6556
 7212SOL    MW428616   2.820   5.641   4.759  0.6399 -0.2993  0.9547
 7213SOL     OW28617   4.949   0.452   4.100  0.5928  0.2029 -0.3858
 7213SOL    HW228618   5.027   0.398   4.083 -0.8812 -1.9186 -0.7848
 7213SOL    HW328619   4.919   0.479   4.013  0.7095  0.7800 -0.2501
 7213SOL    MW428620   4.955   0.448   4.086 -0.3075  0.0339  0.1274
 7214SOL     OW28621   3.453   3.339   3.857  0.3453  0.4105  0.1049
 7214SOL    HW228622   3.494   3.267   3.904  1.3744  0.7152 -0.3090
 7214SOL    HW328623   3.514   3.360   3.786 -0.3123  1.1687 -0.2581
 7214SOL    MW428624   3.466   3.332   3.854 -0.2063  0.5882  0.0757
 7215SOL     OW28625   2.249   5.939   2.679  0.1174 -0.7807 -0.5234
 7215SOL    HW228626   2.238   6.026   2.639  0.1876 -0.8202 -0.6291
 7215SOL    HW328627   2.225   5.951   2.770  1.6268 -0.2953 -0.1684
 7215SOL    MW428628   2.244   5.952   2.686 -0.0030 -0.1265  0.0907
 7216SOL     OW28629   3.265   6.291   0.695  0.0560 -0.7043 -0.4905
 7216SOL    HW228630   3.328   6.293   0.624  0.7385  0.8683  0.0988
 7216SOL    HW328631   3.218   6.374   0.688 -0.5068 -0.9350  0.3437
 7216SOL    MW428632   3.267   6.302   0.685  0.0272  0.5392  0.0603
 7217SOL     OW28633   2.982   0.683   4.413 -0.0762  0.8400 -0.6407
 7217SOL    HW228634   2.972   0.778   4.417  1.8861  1.0801  2.0160
 7217SOL    HW328635   2.927   0.650   4.484  0.6965  0.2169 -0.3058
 7217SOL    MW428636   2.973   0.691   4.423 -0.5826 -0.7743  0.4181
 7218SOL     OW28637   3.225   5.484   0.416  0.1514  0.3457 -0.4213
 7218SOL    HW228638   3.173   5.551   0.459  0.4831  0.3223  0.0217
 7218SOL    HW328639   3.273   5.442   0.487  1.8229  1.2807 -0.9482
 7218SOL    MW428640   3.225   5.487   0.431  0.1439  0.1422  0.1800
 7219SOL     OW28641   3.571   4.742   0.754  0.3519  0.4222  0.7880
 7219SOL    HW228642   3.557   4.762   0.846  1.3126  0.1649  1.0007
 7219SOL    HW328643   3.626   4.813   0.722  1.6522 -0.5024  0.9116
 7219SOL    MW428644   3.576   4.754   0.762 -0.3352  0.4247 -0.7806
 7220SOL     OW28645   5.093   5.777   3.596  0.3643  0.5630  0.2206
 7220SOL    HW228646   5.109   5.728   3.676  0.2667  0.9554  0.4855
 7220SOL    HW328647   5.112   5.715   3.525 -0.8118 -0.1866  0.5436
 7220SOL    MW428648   5.098   5.763   3.597  0.9230 -0.1045 -1.1052
 7221SOL     OW28649   4.849   5.995   1.483  0.3164  0.0968 -0.0595
 7221SOL    HW228650   4.834   6.064   1.419  0.2141 -0.2566 -0.4187
 7221SOL    HW328651   4.940   6.005   1.509  0.5904 -0.2640 -0.8603
 7221SOL    MW428652   4.859   6.006   1.478 -0.0473  1.0894  0.3724
 7222SOL     OW28653   5.619   2.786   1.078 -0.4021  0.5975  1.2483
 7222SOL    HW228654   5.551   2.851   1.059  0.3387  1.2097  0.6742
 7222SOL    HW328655   5.700   2.825   1.047 -0.1972 -1.4305 -1.1596
 7222SOL    MW428656   5.620   2.800   1.071 -0.1472  0.1884  0.8068
 7223SOL     OW28657   0.303   4.761   2.814 -0.0173 -0.3219  0.6190
 7223SOL    HW228658   0.272   4.718   2.734 -1.4704  0.6649  0.6182
 7223SOL    HW328659   0.384   4.714   2.836  0.0965 -1.0153 -1.0747
 7223SOL    MW428660   0.310   4.749   2.806  0.4536 -0.1345 -0.1935
 7224SOL     OW28661   1.249   4.611   5.119  0.2775 -0.3612 -0.1604
 7224SOL    HW228662   1.164   4.618   5.077  0.2294 -1.4591 -0.2880
 7224SOL    HW328663   1.239   4.656   5.203 -0.2233  0.0893 -0.4567
 7224SOL    MW428664   1.237   4.618   5.125 -0.6995  0.5371  0.3460
 7225SOL     OW28665   4.544   5.967   0.323  0.1811  0.0132  0.3684
 7225SOL    HW228666   4.514   6.018   0.398 -1.0227 -0.4983  0.2699
 7225SOL    HW328667   4.501   6.008   0.248 -0.3616 -0.7819  0.2269
 7225SOL    MW428668   4.534   5.979   0.323 -0.1050 -0.4862  0.3820
 7226SOL     OW28669   5.668   2.492   6.235  0.2973  0.1684 -0.2737
 7226SOL    HW228670   5.618   2.430   6.287 -0.0687  1.8031  1.4270
 7226SOL    HW328671   5.756   2.489   6.272 -0.3093  2.4159  1.5860
 7226SOL    MW428672   5.673   2.483   6.247  0.5207 -0.1422  0.6219
 7227SOL     OW28673   4.889   3.053   5.702 -0.5250  0.0485  0.0933
 7227SOL    HW228674   4.924   3.135   5.737  2.5696 -0.3508 -1.7003
 7227SOL    HW328675   4.882   2.996   5.779  0.2832  1.0343  0.9391
 7227SOL    MW428676   4.893   3.057   5.717  0.0569 -0.4205 -0.3992
 7228SOL     OW28677   2.435   4.904   1.903 -0.4490  0.4437 -0.1307
 7228SOL    HW228678   2.398   4.842   1.966  1.0780  0.8644  1.2220
 7228SOL    HW328679   2.525   4.919   1.932  0.3271  0.6709 -2.4123
 7228SOL    MW428680   2.442   4.898   1.915 -0.2180  0.1980 -0.3504
 7229SOL     OW28681   0.794   2.028   6.049 -0.5652 -0.3431  0.8591
 7229SOL    HW228682   0.868   2.026   5.989  1.2421  0.1633  2.9550
 7229SOL    HW328683   0.769   1.936   6.059  0.8966 -0.7098  1.3971
 7229SOL    MW428684   0.800   2.016   6.042 -0.4636 -0.0806  0.2935
 7230SOL     OW28685   0.017   5.212   3.601 -0.5385  0.0611  0.0796
 7230SOL    HW228686  -0.047   5.177   3.540  0.8184 -0.0523 -1.3445
 7230SOL    HW328687   0.026   5.144   3.668 -1.9432  0.1241  0.3647
 7230SOL    MW428688   0.010   5.198   3.602 -0.3526  0.3124 -0.3394
 7231SOL     OW28689   4.223   6.191   0.269 -0.0505 -0.2587  0.0721
 7231SOL    HW228690   4.170   6.201   0.190 -0.6737  0.1079  0.5354
 7231SOL    HW328691   4.164   6.152   0.333  0.4667 -0.5981  0.3469
 7231SOL    MW428692   4.209   6.187   0.267  0.5333  0.6511 -0.0345
 7232SOL     OW28693   3.981   2.506   2.812 -0.4608 -0.0993  0.8093
 7232SOL    HW228694   3.987   2.555   2.730  1.6087 -0.2727  0.8106
 7232SOL    HW328695   3.961   2.572   2.879  2.6830  0.9303  0.8743
 7232SOL    MW428696   3.979   2.521   2.810  0.1286 -0.4162  0.2859
 7233SOL     OW28697   2.885   1.633   2.898 -0.8992 -0.2145  0.7387
 7233SOL    HW228698   2.879   1.562   2.962 -2.1284  0.5252  1.4907
 7233SOL    HW328699   2.919   1.707   2.948  2.0615 -0.6548 -0.4202
 7233SOL    MW428700   2.889   1.634   2.913 -0.2169  0.2775  0.4474
 7234SOL     OW28701   2.658   0.994   5.000  0.1135 -0.1948 -0.0163
 7234SOL    HW228702   2.731   1.049   5.028 -0.3191  0.6478 -0.5091
 7234SOL    HW328703   2.593   1.003   5.071  0.7467 -1.4970  0.7605
 7234SOL    MW428704   2.659   1.003   5.013  0.4895  0.0949 -0.2730
 7235SOL     OW28705   0.849   3.223   2.608 -0.1677  0.0321  0.0939
 7235SOL    HW228706   0.913   3.268   2.662  0.8252  0.3912 -1.3438
 7235SOL    HW328707   0.830   3.284   2.537 -0.0597 -1.1346 -0.9657
 7235SOL    MW428708   0.855   3.237   2.606  0.2069 -0.2760 -0.0198
 7236SOL     OW28709   2.232   1.834   2.808 -0.6206 -0.4617 -0.2261
 7236SOL    HW228710   2.218   1.914   2.757  1.6774 -0.3244 -0.7484
 7236SOL    HW328711   2.237   1.764   2.743 -0.5193 -0.7253  0.0620
 7236SOL    MW428712   2.231   1.835   2.793 -0.1812 -0.5709 -0.0969
 7237SOL     OW28713   0.662   0.226   1.818 -0.0087  0.5321 -0.4978
 7237SOL    HW228714   0.724   0.259   1.882 -0.6964  0.2756  0.3091
 7237SOL    HW328715   0.617   0.304   1.785  0.5944  0.6992 -0.9501
 7237SOL    MW428716   0.664   0.240   1.822  0.2806  0.2237 -0.2117
 7238SOL     OW28717   1.931   1.354   4.451  0.1899  0.1562 -0.5503
 7238SOL    HW228718   1.846   1.390   4.477  1.5438  3.1897  0.0197
 7238SOL    HW328719   1.955   1.296   4.524 -0.3944  1.0582  0.3907
 7238SOL    MW428720   1.923   1.351   4.464  0.5962  0.0517  0.1508
 7239SOL     OW28721   1.070   4.902   1.975  0.3137  0.1640  1.1802
 7239SOL    HW228722   0.999   4.865   2.028  1.1535 -1.5034  1.2118
 7239SOL    HW328723   1.150   4.876   2.021  0.9931  3.0806  1.8581
 7239SOL    MW428724   1.071   4.893   1.988  0.7643 -0.0721 -0.2666
 7240SOL     OW28725   5.008   2.375   5.236 -0.2789 -0.8794  0.4451
 7240SOL    HW228726   5.075   2.369   5.305  2.5046  2.6374 -1.5974
 7240SOL    HW328727   5.041   2.320   5.165  0.0202  0.1425 -0.2285
 7240SOL    MW428728   5.021   2.367   5.236 -0.2254  0.0630  0.1068
 7241SOL     OW28729   5.749   4.468   2.855  0.1201 -0.0129  0.1824
 7241SOL    HW228730   5.805   4.511   2.789 -0.1230  1.1192  0.6935
 7241SOL    HW328731   5.762   4.375   2.839  0.8099  0.2344 -0.8491
 7241SOL    MW428732   5.758   4.462   2.844  0.3795 -0.4909 -0.1134
 7242SOL     OW28733   3.692   3.567   2.899 -0.3339 -0.1404 -0.3090
 7242SOL    HW228734   3.753   3.542   2.968 -0.9312 -0.6725  0.0371
 7242SOL    HW328735   3.740   3.632   2.847  0.3917 -0.2890  0.1592
 7242SOL    MW428736   3.706   3.572   2.902 -0.0089  0.6464  0.0355
 7243SOL     OW28737   3.023   3.618   0.829 -0.2835 -0.7086 -0.1395
 7243SOL    HW228738   3.091   3.673   0.868 -2.6937  1.4143  1.4148
 7243SOL    HW328739   3.038   3.531   0.867  0.7577  0.0469  1.2839
 7243SOL    MW428740   3.034   3.614   0.839 -0.3790 -0.4596 -0.1574
 7244SOL     OW28741   4.531   4.719   4.118 -0.1106  0.4174  0.4960
 7244SOL    HW228742   4.456   4.670   4.083  0.5523 -1.6366  1.7513
 7244SOL    HW328743   4.557   4.670   4.196  0.5316  2.9184  1.9789
 7244SOL    MW428744   4.524   4.706   4.124  0.4140  0.0867 -0.5070
 7245SOL     OW28745   4.435   5.736   4.285 -0.0755 -0.1905 -0.1693
 7245SOL    HW228746   4.459   5.731   4.192 -0.7915 -0.3213 -0.3507
 7245SOL    HW328747   4.359   5.679   4.294 -0.8909  0.9133  0.1993
 7245SOL    MW428748   4.428   5.728   4.274  0.5457  0.0787  0.0243
 7246SOL     OW28749   3.724   1.841   2.296 -0.5526  0.2525 -0.7333
 7246SOL    HW228750   3.663   1.912   2.276 -0.7061  0.2821 -0.1739
 7246SOL    HW328751   3.809   1.885   2.307 -0.5184  0.2670 -1.0501
 7246SOL    MW428752   3.727   1.856   2.295  0.4469 -0.7676 -0.3370
 7247SOL     OW28753   0.564   2.477   6.099 -0.0428  0.3675  0.4240
 7247SOL    HW228754   0.569   2.383   6.084  0.0716  0.0710  2.0821
 7247SOL    HW328755   0.614   2.516   6.027  0.3258 -0.8576 -0.0094
 7247SOL    MW428756   0.571   2.470   6.088 -0.3727 -0.3287  0.3947
 7248SOL     OW28757   2.666   2.783   5.931 -0.3503  0.7737 -0.0085
 7248SOL    HW228758   2.684   2.748   5.844  0.6238  1.6687 -0.2022
 7248SOL    HW328759   2.726   2.736   5.989  1.6393  2.6379 -0.4084
 7248SOL    MW428760   2.676   2.772   5.927 -0.5420  0.2071 -0.1577
 7249SOL     OW28761   0.900   3.828   1.644 -0.1687  0.0008  0.7184
 7249SOL    HW228762   0.972   3.816   1.706 -0.6030 -2.1062  0.8797
 7249SOL    HW328763   0.937   3.806   1.558 -0.0463  1.1536  0.4572
 7249SOL    MW428764   0.914   3.824   1.641  0.2347  0.2032 -0.4769
 7250SOL     OW28765   4.366   1.981   1.600 -0.0329 -0.1990 -0.1204
 7250SOL    HW228766   4.442   1.923   1.594  1.0004  1.0254  0.5591
 7250SOL    HW328767   4.371   2.018   1.688 -0.5237  1.0779 -0.6030
 7250SOL    MW428768   4.377   1.978   1.611  0.0078 -0.4427  0.5027
 7251SOL     OW28769   2.142   4.256   4.575 -0.3727 -0.5477 -0.1865
 7251SOL    HW228770   2.052   4.257   4.543 -0.1059  2.2004 -1.0996
 7251SOL    HW328771   2.140   4.310   4.654  0.4873 -0.2549 -0.3526
 7251SOL    MW428772   2.130   4.263   4.581  0.0382  0.1339 -0.2348
 7252SOL     OW28773   0.099   5.523   4.577  0.1994  0.3140 -0.3171
 7252SOL    HW228774   0.015   5.482   4.599  0.2062  1.6432  2.5006
 7252SOL    HW328775   0.157   5.501   4.650  2.3755 -0.4834 -2.1289
 7252SOL    MW428776   0.096   5.514   4.589 -0.5275 -0.6062  0.4964
 7253SOL     OW28777   3.237   1.463   4.672  0.1575 -0.0370  0.1746
 7253SOL    HW228778   3.162   1.480   4.729 -0.7569 -1.6905 -0.4460
 7253SOL    HW328779   3.253   1.547   4.629 -0.4797  0.6910  1.2894
 7253SOL    MW428780   3.229   1.476   4.674  0.2771  0.0843 -0.4743
 7254SOL     OW28781   3.552   3.023   6.030 -0.2639  0.0371 -0.0057
 7254SOL    HW228782   3.505   3.106   6.039 -0.1523 -0.0630  1.8526
 7254SOL    HW328783   3.604   3.034   5.950 -0.0404  1.8779  0.3361
 7254SOL    MW428784   3.553   3.036   6.020 -0.0837  0.7053 -0.1685
 7255SOL     OW28785   1.930   2.870   3.784  0.6190 -0.3960  0.2126
 7255SOL    HW228786   2.021   2.852   3.757  0.2257  0.4470 -1.9268
 7255SOL    HW328787   1.883   2.881   3.701 -0.8165  2.1188  1.2416
 7255SOL    MW428788   1.936   2.869   3.769  0.5517  0.3120  0.7928
 7256SOL     OW28789   2.729   1.083   0.228 -0.1984 -0.2209 -0.1888
 7256SOL    HW228790   2.738   1.146   0.156 -1.4931  0.3543  0.1269
 7256SOL    HW328791   2.774   1.005   0.197 -0.0010  0.3070 -1.2744
 7256SOL    MW428792   2.736   1.081   0.214  0.2833 -0.3667  0.4006
 7257SOL     OW28793   1.167   2.727   5.297 -0.2060  0.1134  0.3025
 7257SOL    HW228794   1.173   2.632   5.307 -0.6367 -0.1280 -1.4142
 7257SOL    HW328795   1.250   2.751   5.255  0.0873  0.5649  1.1296
 7257SOL    MW428796   1.179   2.718   5.293 -0.4846 -0.1446  0.1431
 7258SOL     OW28797   3.385   3.757   5.068  0.4845 -0.3694 -0.2618
 7258SOL    HW228798   3.350   3.668   5.076  0.1277 -0.2474 -0.3968
 7258SOL    HW328799   3.479   3.746   5.057  0.1895 -0.8889 -2.8427
 7258SOL    MW428800   3.392   3.744   5.068 -0.9528  0.3422 -0.0198
 7259SOL     OW28801   4.551   5.629   1.141  0.4943  0.2952  0.0261
 7259SOL    HW228802   4.500   5.595   1.068  0.6298  1.8580 -0.8412
 7259SOL    HW328803   4.626   5.570   1.148  0.7455  0.4194 -1.4425
 7259SOL    MW428804   4.554   5.616   1.132 -0.3878  0.7111 -0.2456
 7260SOL     OW28805   4.039   2.183   3.149 -0.0718 -0.6138 -0.4521
 7260SOL    HW228806   4.117   2.132   3.168  0.6386  0.0539 -1.5203
 7260SOL    HW328807   3.967   2.132   3.188  1.0896 -0.0413  2.7492
 7260SOL    MW428808   4.040   2.170   3.157 -0.5335 -0.5423  0.2518
 7261SOL     OW28809   3.016  -0.007   1.320  0.0010  0.3145  0.5998
 7261SOL    HW228810   3.029   0.082   1.288  0.9177  0.4304  1.2354
 7261SOL    HW328811   2.922  -0.012   1.339 -0.1833  0.9058 -0.1087
 7261SOL    MW428812   3.005   0.004   1.319  0.1690 -0.7059 -0.2096
 7262SOL     OW28813   4.579   5.150   2.331  0.3737  0.2721 -0.1857
 7262SOL    HW228814   4.570   5.054   2.335 -0.4145  0.3197 -0.5832
 7262SOL    HW328815   4.490   5.182   2.349  0.5900  0.9266 -0.2801
 7262SOL    MW428816   4.566   5.141   2.334 -0.0487 -0.5713 -0.2820
 7263SOL     OW28817   1.315   5.904   0.758  0.1186 -0.2876 -0.2334
 7263SOL    HW228818   1.337   5.811   0.752  0.4112 -0.3279  1.2357
 7263SOL    HW328819   1.244   5.909   0.822  0.6894  0.5791  0.3629
 7263SOL    MW428820   1.308   5.893   0.765  0.0375  0.1253 -0.0908
 7264SOL     OW28821   6.321   1.206   5.529  0.1994  0.1043 -0.1475
 7264SOL    HW228822   6.395   1.153   5.558  0.1977  0.0108 -0.3121
 7264SOL    HW328823   6.304   1.266   5.602 -0.3345 -0.6814  0.3878
 7264SOL    MW428824   6.328   1.207   5.543  0.4455  0.1853  0.3828
 7265SOL     OW28825   5.310   3.828   3.862  0.4044  0.5776  0.3509
 7265SOL    HW228826   5.319   3.813   3.767  2.9500 -0.7542  0.7153
 7265SOL    HW328827   5.360   3.908   3.878  1.4191 -0.1212  0.7629
 7265SOL    MW428828   5.318   3.836   3.851 -0.1118  0.2194  0.1179
 7266SOL     OW28829   0.337   3.058   2.844 -0.0627 -0.0418  0.6511
 7266SOL    HW228830   0.255   3.015   2.872  0.0660 -0.8166 -0.1091
 7266SOL    HW328831   0.406   3.001   2.878  0.1997  0.9175  1.7892
 7266SOL    MW428832   0.335   3.045   2.853 -0.0128  0.4961  0.0027
 7267SOL     OW28833   5.332   2.894   5.402 -0.0758  0.3845  0.2650
 7267SOL    HW228834   5.337   2.990   5.403  1.0532  0.4202 -2.0569
 7267SOL    HW328835   5.253   2.874   5.452 -0.9010  2.5685 -0.0444
 7267SOL    MW428836   5.323   2.904   5.409  0.2830 -0.3169 -0.4730
 7268SOL     OW28837   2.241   5.972   0.085 -0.3229  0.0530  0.2356
 7268SOL    HW228838   2.332   5.944   0.074 -0.7210 -2.0511  1.8853
 7268SOL    HW328839   2.246   6.049   0.141  0.4646  0.3735 -0.2617
 7268SOL    MW428840   2.254   5.979   0.091  0.5843 -0.3780  0.5161
 7269SOL     OW28841   0.651   1.585   0.471  0.1920 -0.3641  0.1511
 7269SOL    HW228842   0.679   1.552   0.386  0.2942 -1.8435  0.7420
 7269SOL    HW328843   0.557   1.598   0.463  0.3257  0.3140 -0.4339
 7269SOL    MW428844   0.642   1.583   0.459 -0.2738  0.0157  0.0849
 7270SOL     OW28845   6.116   5.937   3.239 -0.1608  0.4638  0.0582
 7270SOL    HW228846   6.077   5.882   3.171  0.1955  0.4675 -0.1515
 7270SOL    HW328847   6.043   5.992   3.269 -0.5475 -0.2040  0.3622
 7270SOL    MW428848   6.101   5.937   3.234  0.4006  0.2876 -0.2364
 7271SOL     OW28849   1.711   4.606   3.624 -0.2185  0.3183  0.3892
 7271SOL    HW228850   1.747   4.523   3.654  0.1742  0.3742  0.0741
 7271SOL    HW328851   1.627   4.614   3.671 -1.0174 -1.0094 -0.7488
 7271SOL    MW428852   1.705   4.596   3.634 -0.0776 -0.5565 -0.0702
 7272SOL     OW28853   3.357   2.384   5.011  0.1753 -0.4732 -0.1201
 7272SOL    HW228854   3.433   2.327   4.996  2.0972  1.9646 -0.3529
 7272SOL    HW328855   3.306   2.379   4.931  1.7576  0.1071 -1.2191
 7272SOL    MW428856   3.360   2.376   4.999 -0.6994 -0.5395 -0.2200
 7273SOL     OW28857   4.914   0.653   4.315  0.6771 -0.1613  0.0455
 7273SOL    HW228858   4.886   0.729   4.265 -1.8904 -0.7575  0.4111
 7273SOL    HW328859   4.933   0.586   4.250  0.7908  0.1349 -0.2241
 7273SOL    MW428860   4.913   0.654   4.300 -0.3377  0.4475 -0.7435
 7274SOL     OW28861   1.441   0.278   1.480 -0.2760  0.1874 -0.2983
 7274SOL    HW228862   1.454   0.319   1.394 -2.6306 -0.2716 -0.9311
 7274SOL    HW328863   1.368   0.327   1.519 -1.6474 -1.9064 -0.1129
 7274SOL    MW428864   1.433   0.290   1.474 -0.2210  0.1916  0.9590
 7275SOL     OW28865   4.472   2.799   0.824  0.0254  0.5206  0.0815
 7275SOL    HW228866   4.485   2.772   0.733 -0.4702 -0.0642  0.1790
 7275SOL    HW328867   4.550   2.850   0.845 -0.2279  1.3477 -0.9256
 7275SOL    MW428868   4.484   2.802   0.815  0.3297 -0.2983 -0.1445
 7276SOL     OW28869   2.718   0.076   3.903  0.0678 -0.3647 -0.2063
 7276SOL    HW228870   2.747   0.002   3.955  0.3358 -0.0869  0.0393
 7276SOL    HW328871   2.692   0.142   3.967 -0.0185 -0.1871 -0.4232
 7276SOL    MW428872   2.718   0.075   3.918  0.3907  0.3438  0.0017
 7277SOL     OW28873   2.037   2.409   4.641  0.3072 -0.0403  0.4288
 7277SOL    HW228874   2.076   2.450   4.718 -0.0442  0.5298  0.3083
 7277SOL    HW328875   1.944   2.407   4.660  0.2873 -0.4678  0.2830
 7277SOL    MW428876   2.030   2.414   4.654 -0.1417  0.2472  0.4235
 7278SOL     OW28877   2.012   5.187   4.068 -0.1102  0.3691 -0.3012
 7278SOL    HW228878   1.985   5.234   3.989 -0.7706 -0.4432 -0.5745
 7278SOL    HW328879   1.932   5.144   4.099  0.3053  0.0724  0.3920
 7278SOL    MW428880   1.998   5.188   4.062 -0.4398  0.0432 -0.3135
 7279SOL     OW28881   3.692   5.123   5.863 -0.0044 -0.6956  0.2340
 7279SOL    HW228882   3.685   5.183   5.788  2.9957  0.3671  0.7028
 7279SOL    HW328883   3.660   5.173   5.937  0.3261 -0.5055  0.2466
 7279SOL    MW428884   3.687   5.137   5.863  0.0663 -0.1934  0.4198
 7280SOL     OW28885   5.810   1.431   5.194  0.4934  0.0887  0.1812
 7280SOL    HW228886   5.875   1.460   5.131  0.8862 -0.0245  0.5267
 7280SOL    HW328887   5.747   1.380   5.143 -0.1668  1.4529 -0.4272
 7280SOL    MW428888   5.810   1.428   5.179 -0.5116  0.6264  0.2295
 7281SOL     OW28889   2.031   2.127   4.290  0.2059  0.1523  0.4138
 7281SOL    HW228890   1.947   2.154   4.328  0.3683  1.0412  0.1727
 7281SOL    HW328891   2.067   2.207   4.252  1.4183 -0.0995  0.9804
 7281SOL    MW428892   2.024   2.141   4.290  0.2227  0.1252 -0.2835
 7282SOL     OW28893   0.182   0.964   2.015 -0.5176  0.1056 -0.5011
 7282SOL    HW228894   0.206   0.871   2.014 -1.7363 -0.2397 -2.7546
 7282SOL    HW328895   0.094   0.965   2.053 -1.1937  0.1061 -2.0130
 7282SOL    MW428896   0.174   0.952   2.020 -0.2398 -0.1415 -0.8520
 7283SOL     OW28897   1.114   1.299   2.812 -0.0405  0.0103 -0.6489
 7283SOL    HW228898   1.039   1.239   2.810  0.9150 -1.2358 -0.3554
 7283SOL    HW328899   1.115   1.333   2.901  0.5440 -1.0480 -0.2385
 7283SOL    MW428900   1.104   1.295   2.823 -0.0736 -0.3928 -0.7367
 7284SOL     OW28901   3.283   4.981   0.731  0.0598 -0.4190  0.2249
 7284SOL    HW228902   3.332   4.912   0.687 -2.1447 -1.3405 -0.9130
 7284SOL    HW328903   3.235   5.026   0.662  0.3122  1.3528  1.1256
 7284SOL    MW428904   3.283   4.978   0.716 -0.4112 -0.7635  1.3870
 7285SOL     OW28905   1.552   2.413   2.120 -0.2284 -0.0841 -0.1585
 7285SOL    HW228906   1.587   2.410   2.031  1.0658 -1.8115  0.3414
 7285SOL    HW328907   1.610   2.473   2.167  1.9150 -2.5138  0.5283
 7285SOL    MW428908   1.564   2.420   2.115 -0.0230  0.2140  0.2572
 7286SOL     OW28909   4.351   2.294   4.856 -0.0468 -0.9160  0.0345
 7286SOL    HW228910   4.263   2.329   4.874 -0.4913 -1.6722 -0.5756
 7286SOL    HW328911   4.339   2.239   4.779  0.7863 -1.7463  0.4774
 7286SOL    MW428912   4.337   2.291   4.848 -0.1792 -0.8086 -0.4867
 7287SOL     OW28913   1.002   6.071   1.163  0.2652  0.3921 -0.2009
 7287SOL    HW228914   0.921   6.116   1.186  0.4560  0.9461 -0.5865
 7287SOL    HW328915   0.987   6.035   1.076  1.0803  2.1674 -1.1227
 7287SOL    MW428916   0.989   6.072   1.155  0.2635  0.1989 -0.9180
 7288SOL     OW28917   1.246   3.898   3.695 -0.0328 -0.1554  0.4128
 7288SOL    HW228918   1.226   3.847   3.774 -1.7035 -1.1924 -0.6055
 7288SOL    HW328919   1.266   3.832   3.629 -0.3203  0.6056 -0.4568
 7288SOL    MW428920   1.246   3.882   3.697 -0.1207  0.4672  0.3174
 7289SOL     OW28921   4.472   2.479   0.051  0.0093 -0.3559 -0.2351
 7289SOL    HW228922   4.489   2.403  -0.006  0.1421 -0.7768  0.3537
 7289SOL    HW328923   4.552   2.531   0.046  0.0335 -0.4085 -0.4076
 7289SOL    MW428924   4.485   2.476   0.042  0.3155  0.1981 -0.0569
 7290SOL     OW28925   1.334   3.837   5.837 -0.3674  0.4995 -0.2596
 7290SOL    HW228926   1.325   3.801   5.749  0.4651 -0.2203 -0.0626
 7290SOL    HW328927   1.258   3.894   5.847  0.0149  1.3560 -1.7952
 7290SOL    MW428928   1.323   3.840   5.827  1.0298  0.1567  0.9429
 7291SOL     OW28929   4.263   5.430   1.942 -0.0191 -0.5237 -0.3103
 7291SOL    HW228930   4.318   5.362   1.903  2.8136  1.9738 -1.0393
 7291SOL    HW328931   4.205   5.458   1.871  0.3661 -0.6409 -0.6748
 7291SOL    MW428932   4.263   5.424   1.928 -0.0226  0.1545  1.1494
 7292SOL     OW28933   4.281   2.594   6.089  0.0651  0.2397  0.3625
 7292SOL    HW228934   4.297   2.689   6.089 -0.3103  0.3053  0.0947
 7292SOL    HW328935   4.368   2.555   6.083  0.1896  0.5786 -0.0422
 7292SOL    MW428936   4.295   2.601   6.088 -0.7512 -0.1297 -0.0972
 7293SOL     OW28937   2.661   4.266   2.369  0.1168  0.1945  0.2906
 7293SOL    HW228938   2.746   4.279   2.327 -0.1904 -0.1476 -0.4523
 7293SOL    HW328939   2.601   4.323   2.320 -0.4078 -0.8330 -0.2840
 7293SOL    MW428940   2.664   4.276   2.357  0.2708  0.1087  0.3681
 7294SOL     OW28941   1.852   4.448   6.207  0.0326  0.2018  0.1419
 7294SOL    HW228942   1.906   4.522   6.180 -1.3384  0.7444 -1.2913
 7294SOL    HW328943   1.828   4.405   6.124  0.1282 -1.3667  0.8925
 7294SOL    MW428944   1.856   4.452   6.192  0.0467  0.2772 -0.3731
 7295SOL     OW28945   1.049   0.262   4.982  0.0089  0.2077  0.3725
 7295SOL    HW228946   1.090   0.348   4.991 -1.4673  0.8837  1.1904
 7295SOL    HW328947   1.057   0.222   5.069  0.1009 -0.1855  0.1827
 7295SOL    MW428948   1.055   0.268   4.995  0.7589 -0.1955  0.1642
 7296SOL     OW28949   1.432   1.617   5.923  0.5666 -0.2457 -0.2838
 7296SOL    HW228950   1.353   1.662   5.953  1.1751  0.6349  0.0453
 7296SOL    HW328951   1.470   1.676   5.857 -0.5727 -1.9849 -2.6409
 7296SOL    MW428952   1.427   1.631   5.918 -0.3140  0.4190 -0.1256
 7297SOL     OW28953   1.327   3.867   6.366  0.6534  0.0003 -0.1787
 7297SOL    HW228954   1.331   3.917   6.447 -0.5369  0.6713 -0.5176
 7297SOL    HW328955   1.397   3.903   6.312  0.0602  1.0458 -0.2677
 7297SOL    MW428956   1.337   3.878   6.369  0.0939  0.2509 -0.2479
 7298SOL     OW28957   3.284   2.608   2.702  0.3092 -0.2851  0.6347
 7298SOL    HW228958   3.310   2.616   2.794  1.6924  1.5911  0.1362
 7298SOL    HW328959   3.299   2.516   2.681  2.4596 -0.1980  1.5993
 7298SOL    MW428960   3.289   2.597   2.712  0.5577  0.6211  0.1110
 7299SOL     OW28961   1.948   1.679   3.568 -0.4012 -0.0771 -0.3952
 7299SOL    HW228962   2.036   1.702   3.599 -0.5458 -1.4188  1.1308
 7299SOL    HW328963   1.943   1.584   3.579 -2.1297  0.0073 -0.2314
 7299SOL    MW428964   1.959   1.669   3.573 -0.3454 -0.3466  0.1321
 7300SOL     OW28965   0.907   4.053   4.801  0.0872 -0.4957 -0.0295
 7300SOL    HW228966   0.897   3.974   4.853 -1.4565 -0.2214  0.1546
 7300SOL    HW328967   0.944   4.023   4.718  2.1347 -0.9992  0.9927
 7300SOL    MW428968   0.911   4.039   4.797 -0.1517  0.1660 -0.1355
 7301SOL     OW28969   6.166   1.703   3.360  0.3198 -0.6781 -0.6183
 7301SOL    HW228970   6.151   1.711   3.454  0.6512 -2.2215 -0.4081
 7301SOL    HW328971   6.261   1.695   3.351  0.2774 -0.6777 -1.0766
 7301SOL    MW428972   6.176   1.703   3.371 -0.2135  0.0883 -0.0220
 7302SOL     OW28973   5.742   3.952   3.012 -0.3688 -0.4463 -0.1372
 7302SOL    HW228974   5.723   3.888   2.944  1.0838 -0.9791 -0.0831
 7302SOL    HW328975   5.703   3.916   3.092  0.0796 -1.0593 -0.1922
 7302SOL    MW428976   5.734   3.939   3.013 -0.3006  0.4914  0.4447
 7303SOL     OW28977   0.400   2.092   0.798  0.1251 -0.1475 -0.1557
 7303SOL    HW228978   0.456   2.126   0.729 -0.3966 -0.1886 -0.6009
 7303SOL    HW328979   0.436   2.130   0.879  1.2011 -0.6966 -0.3523
 7303SOL    MW428980   0.412   2.101   0.800 -0.5098 -0.6804  0.1382
 7304SOL     OW28981   1.761   3.522   5.634  0.2159 -0.1555  0.2846
 7304SOL    HW228982   1.744   3.580   5.559 -0.6066 -1.2840 -0.4236
 7304SOL    HW328983   1.811   3.577   5.695 -0.3915  1.2486 -0.4284
 7304SOL    MW428984   1.765   3.537   5.632 -0.0374  0.4680 -0.2708
 7305SOL     OW28985   0.748   0.549   0.015  0.5754 -0.6871  0.2831
 7305SOL    HW228986   0.789   0.613   0.073 -0.4329  0.5755 -0.3518
 7305SOL    HW328987   0.765   0.464   0.057  1.2110  0.0592  1.5889
 7305SOL    MW428988   0.756   0.546   0.028 -0.1025 -0.4190 -0.2697
 7306SOL     OW28989   3.131   3.085   2.708 -0.0423 -0.5207  0.0778
 7306SOL    HW228990   3.160   3.054   2.794 -0.2157 -1.9463 -0.3564
 7306SOL    HW328991   3.105   3.006   2.661  1.1627  0.0893 -1.7263
 7306SOL    MW428992   3.132   3.071   2.713  0.1639 -0.1166 -0.5045
 7307SOL     OW28993   3.961   1.914   0.388  0.7817 -0.1371  0.0329
 7307SOL    HW228994   3.912   1.876   0.460  3.3369 -0.2173  1.8554
 7307SOL    HW328995   4.004   1.991   0.425  2.8378 -0.6440 -1.0913
 7307SOL    MW428996   3.961   1.919   0.402 -0.5119  0.0007 -0.2220
 7308SOL     OW28997   5.554   2.671   4.112 -0.3285 -0.1847  0.4468
 7308SOL    HW228998   5.596   2.597   4.154  2.3240  0.1565 -1.3892
 7308SOL    HW328999   5.559   2.742   4.176  0.1287 -0.6871  0.9722
 7308SOL    MW429000   5.560   2.671   4.126 -0.0181 -0.6166  0.6189
 7309SOL     OW29001   0.850   2.830   4.085 -0.7128 -0.1186 -0.1733
 7309SOL    HW229002   0.781   2.801   4.145  0.5599  0.6107  1.7294
 7309SOL    HW329003   0.915   2.759   4.087 -0.3334  0.2295 -0.1388
 7309SOL    MW429004   0.849   2.817   4.093  0.4905 -0.0250 -0.0017
 7310SOL     OW29005   5.174   0.554   6.191 -0.1656 -0.3819  0.3541
 7310SOL    HW229006   5.101   0.544   6.131  0.2051 -0.1446 -0.1472
 7310SOL    HW329007   5.211   0.466   6.199  1.1104 -0.0702 -1.4952
 7310SOL    MW429008   5.169   0.541   6.184 -0.1430 -0.0756  0.4478
 7311SOL     OW29009   1.357   0.703   5.562  0.3402 -0.5021  0.0060
 7311SOL    HW229010   1.309   0.664   5.635  1.1257 -1.3670  0.0800
 7311SOL    HW329011   1.419   0.764   5.603 -0.1958  0.0854 -0.0433
 7311SOL    MW429012   1.359   0.706   5.577 -0.3128 -0.3064  0.0753
 7312SOL     OW29013   3.369   0.479   3.555 -0.2291  0.3794 -0.0008
 7312SOL    HW229014   3.356   0.573   3.540 -1.2759  0.3586  0.5975
 7312SOL    HW329015   3.280   0.443   3.556  0.1568 -0.6033 -0.1092
 7312SOL    MW429016   3.355   0.487   3.553 -0.2120 -0.1565  0.2692
 7313SOL     OW29017   3.764   2.556   1.872 -0.4353  0.0888 -0.9783
 7313SOL    HW229018   3.800   2.511   1.796  2.1138 -0.9603  0.7332
 7313SOL    HW329019   3.812   2.638   1.877 -1.3005  0.6091 -1.0526
 7313SOL    MW429020   3.775   2.561   1.863  0.5027 -0.5537 -0.1340
 7314SOL     OW29021   5.901   6.073   3.659  0.0151  0.1331 -0.3744
 7314SOL    HW229022   5.840   5.999   3.664  1.1102 -0.7268  2.1242
 7314SOL    HW329023   5.988   6.032   3.657  0.6035  1.3628 -1.2919
 7314SOL    MW429024   5.905   6.058   3.659  0.0109  0.0610  0.5503
 7315SOL     OW29025   2.461   5.622   5.991 -0.1828 -0.2931  0.0519
 7315SOL    HW229026   2.452   5.687   6.061  3.2928  1.9507 -1.3349
 7315SOL    HW329027   2.547   5.583   6.006  0.5264  0.0355 -2.6842
 7315SOL    MW429028   2.471   5.626   6.002 -0.5245  0.5932 -0.1803
 7316SOL     OW29029   4.411   3.253   0.887 -0.2022  0.1601 -0.4021
 7316SOL    HW229030   4.449   3.315   0.825 -0.4896  0.2191 -0.5229
 7316SOL    HW329031   4.371   3.186   0.831 -1.5569  0.8601 -0.3105
 7316SOL    MW429032   4.410   3.252   0.871 -0.1259 -0.0162  0.7891
 7317SOL     OW29033   1.983   2.494   0.663  0.6837 -0.6785  0.2206
 7317SOL    HW229034   1.974   2.409   0.706 -1.7892 -0.4908  0.2200
 7317SOL    HW329035   2.025   2.474   0.580  0.2075 -1.9153  0.2502
 7317SOL    MW429036   1.987   2.480   0.658 -0.1826  0.3539 -0.0681
 7318SOL     OW29037   4.304   6.208   1.154 -0.5519 -0.0912 -0.0328
 7318SOL    HW229038   4.311   6.116   1.127  0.8213  0.3464 -1.3230
 7318SOL    HW329039   4.382   6.222   1.207 -0.7890  0.3271  0.2044
 7318SOL    MW429040   4.315   6.197   1.157 -0.2933 -0.6661  0.1179
 7319SOL     OW29041   5.494   0.632   2.238 -0.0849  0.3467 -0.1506
 7319SOL    HW229042   5.501   0.721   2.201 -0.6369  0.8117  0.8284
 7319SOL    HW329043   5.476   0.577   2.162  0.5774  1.0169 -0.8236
 7319SOL    MW429044   5.493   0.637   2.223  0.1566 -0.3174  0.2349
 7320SOL     OW29045   0.776   4.066   4.321  0.2126  0.6396  0.1498
 7320SOL    HW229046   0.850   4.095   4.374  0.1236  1.0993  0.0221
 7320SOL    HW329047   0.802   3.980   4.288  0.9538  1.0703 -0.4086
 7320SOL    MW429048   0.789   4.058   4.324  0.1362  0.3556 -0.2333
 7321SOL     OW29049   6.040   4.332   1.137 -0.9810 -0.2171 -0.2420
 7321SOL    HW229050   6.070   4.251   1.095 -0.9431  0.4872 -1.6336
 7321SOL    HW329051   5.945   4.327   1.132 -0.9727  0.7444 -2.2552
 7321SOL    MW429052   6.032   4.320   1.131  0.4548 -0.4809 -0.3293
 7322SOL     OW29053   0.952   6.185   2.472 -0.2127  0.4387  0.1911
 7322SOL    HW229054   0.929   6.268   2.512  2.1742  0.7688  1.0463
 7322SOL    HW329055   1.008   6.209   2.397 -0.4943 -0.3647 -0.2954
 7322SOL    MW429056   0.956   6.199   2.467 -0.2303 -0.1332 -0.8340
 7323SOL     OW29057   6.360   0.217   3.740  0.5204 -0.0605  0.2400
 7323SOL    HW229058   6.363   0.203   3.834 -0.4359 -1.0348  0.1525
 7323SOL    HW329059   6.423   0.154   3.705  0.2318 -0.3261  0.1875
 7323SOL    MW429060   6.369   0.207   3.748  0.6845  0.1508  0.3749
 7324SOL     OW29061   1.615   2.350   1.541  0.0439 -0.3549 -0.6164
 7324SOL    HW229062   1.608   2.444   1.521  0.2608  0.5218  2.8108
 7324SOL    HW329063   1.587   2.343   1.632  0.1878 -3.6506 -0.7133
 7324SOL    MW429064   1.610   2.362   1.550  0.1925  0.6678  0.6966
 7325SOL     OW29065   0.470   3.401   4.125  0.6462 -0.5902  0.5330
 7325SOL    HW229066   0.551   3.367   4.088  0.5131 -0.4643  0.1291
 7325SOL    HW329067   0.478   3.496   4.117  0.1689 -0.5975 -0.1241
 7325SOL    MW429068   0.482   3.409   4.119  0.4087 -0.3740  0.3547
 7326SOL     OW29069   0.108   0.776   3.594  0.6429  0.0476  0.1488
 7326SOL    HW229070   0.074   0.771   3.505 -1.0824 -1.3540  0.8428
 7326SOL    HW329071   0.170   0.850   3.591 -0.5722  1.0804 -1.7846
 7326SOL    MW429072   0.112   0.785   3.582 -0.2423  0.0473 -0.1324
 7327SOL     OW29073   5.600   3.363   3.529 -0.5220 -0.1960  0.5638
 7327SOL    HW229074   5.545   3.407   3.463  1.7756  0.2521 -1.2019
 7327SOL    HW329075   5.622   3.279   3.489  0.4306 -0.1639  1.0032
 7327SOL    MW429076   5.596   3.358   3.515  0.3627  0.0144  0.2377
 7328SOL     OW29077   2.787   4.618   2.147 -0.0729 -0.2311 -0.0443
 7328SOL    HW229078   2.870   4.652   2.114  0.0490 -1.0867 -0.6601
 7328SOL    HW329079   2.727   4.624   2.073  0.0903 -1.7946 -0.3267
 7328SOL    MW429080   2.790   4.623   2.133 -0.1203 -0.6758 -0.4407
 7329SOL     OW29081   4.060   4.485   6.059  0.0345 -0.0736 -0.1069
 7329SOL    HW229082   4.016   4.480   6.144 -1.6676  1.1604 -0.8535
 7329SOL    HW329083   4.011   4.552   6.011  1.0352 -0.6444 -2.0141
 7329SOL    MW429084   4.048   4.494   6.064 -0.2981 -0.2932 -0.1257
 7330SOL     OW29085   5.745   6.307   3.396  0.2648  0.0715  0.1603
 7330SOL    HW229086   5.820   6.259   3.361 -0.4409 -0.5876 -0.4779
 7330SOL    HW329087   5.695   6.332   3.319 -1.7654 -2.1273  0.6685
 7330SOL    MW429088   5.749   6.304   3.382  0.6298  0.2489  0.2144
 7331SOL     OW29089   2.781   5.734   1.894  0.1198  0.5437  0.1733
 7331SOL    HW229090   2.867   5.707   1.861  1.4349  2.6841  1.6042
 7331SOL    HW329091   2.772   5.825   1.865 -1.6794  0.3795  0.1139
 7331SOL    MW429092   2.791   5.742   1.885  0.2320 -0.6047  0.0268
 7332SOL     OW29093   3.948   3.982   5.928  0.2364  0.1510 -0.4885
 7332SOL    HW229094   3.886   3.963   5.857 -0.5119  3.1297 -0.7694
 7332SOL    HW329095   3.915   4.063   5.968  2.6682  0.5732  0.8665
 7332SOL    MW429096   3.935   3.990   5.924 -0.0871  0.3216 -0.1987
 7333SOL     OW29097   1.701   5.926   4.276 -0.4313  0.1836  0.1988
 7333SOL    HW229098   1.625   5.914   4.333  1.3617 -0.8378  2.5547
 7333SOL    HW329099   1.707   6.020   4.262 -0.5525  0.5715  2.3909
 7333SOL    MW429100   1.692   5.937   4.282  0.5473 -0.4121  0.4326
 7334SOL     OW29101   4.012   2.443   0.505  0.5137  0.1650 -0.4364
 7334SOL    HW229102   3.938   2.382   0.502  0.9015 -0.3192 -0.2885
 7334SOL    HW329103   3.990   2.510   0.439 -0.4986  0.5482  0.2602
 7334SOL    MW429104   3.999   2.444   0.496  0.3155  0.4258  0.4509
 7335SOL     OW29105   4.111   3.121   4.710 -0.1367 -0.4283 -0.0868
 7335SOL    HW229106   4.142   3.049   4.766  1.6572 -0.5623 -1.1606
 7335SOL    HW329107   4.171   3.193   4.729 -1.3392  0.4939  0.2852
 7335SOL    MW429108   4.123   3.121   4.720 -0.1350 -0.4962  0.0133
 7336SOL     OW29109   0.135   0.172   0.080  0.1138  0.5198 -0.3502
 7336SOL    HW229110   0.059   0.192   0.135 -0.6419  0.8050 -1.4682
 7336SOL    HW329111   0.170   0.091   0.117 -1.3739 -0.2049 -0.4354
 7336SOL    MW429112   0.129   0.164   0.092  0.0555  0.0930 -0.2534
 7337SOL     OW29113   6.268   4.787   1.936 -0.0342  0.1087  0.1762
 7337SOL    HW229114   6.198   4.722   1.926 -0.4575  0.6322 -0.2974
 7337SOL    HW329115   6.330   4.766   1.867 -0.5322  0.6478 -0.4560
 7337SOL    MW429116   6.267   4.776   1.926  0.1763 -0.6821 -0.4936
 7338SOL     OW29117   2.287   1.246   0.273 -0.3451  0.5984 -0.3607
 7338SOL    HW229118   2.309   1.217   0.184  1.4461  1.4487 -0.2401
 7338SOL    HW329119   2.291   1.166   0.326 -0.1398  0.2856 -0.8431
 7338SOL    MW429120   2.291   1.232   0.268 -0.7469  0.0300  0.3132
 7339SOL     OW29121   2.556   1.265   0.699  0.1732 -0.3924 -0.2449
 7339SOL    HW229122   2.621   1.290   0.633  2.8711 -1.3307  1.8516
 7339SOL    HW329123   2.545   1.170   0.687 -0.5127 -0.3084 -0.3152
 7339SOL    MW429124   2.563   1.256   0.689  0.3987 -0.5601  0.1073
 7340SOL     OW29125   2.354   4.202   2.853 -0.0103 -0.2341  0.3107
 7340SOL    HW229126   2.399   4.223   2.771 -0.0982 -2.1317 -0.2755
 7340SOL    HW329127   2.368   4.278   2.909  0.0919  1.0943 -1.4427
 7340SOL    MW429128   2.362   4.215   2.849  0.1705 -0.6669  0.1771
 7341SOL     OW29129   3.494   4.800   0.249 -0.0390  0.0325  0.0220
 7341SOL    HW229130   3.481   4.705   0.257  1.0022 -0.0768  0.5291
 7341SOL    HW329131   3.588   4.811   0.243 -0.1194  1.0816  0.4546
 7341SOL    MW429132   3.504   4.789   0.249  0.2448 -0.0327  0.4443
 7342SOL     OW29133   0.997   1.711   2.835  0.2211 -0.4285 -0.0658
 7342SOL    HW229134   0.902   1.701   2.830  0.2159 -0.2906 -0.2664
 7342SOL    HW329135   1.033   1.645   2.776  0.1963  0.4685 -1.1228
 7342SOL    MW429136   0.990   1.701   2.827 -0.1800  0.2797  0.3833
 7343SOL     OW29137   1.904   1.189   1.558  0.4678  0.0828  0.4231
 7343SOL    HW229138   1.927   1.197   1.650 -0.9055  0.4800  0.7554
 7343SOL    HW329139   1.808   1.187   1.557  0.4311  1.0752 -1.0643
 7343SOL    MW429140   1.895   1.189   1.570  0.5036  0.2520  0.6356
 7344SOL     OW29141   1.691   4.957   2.683  0.0343  0.2360 -0.0255
 7344SOL    HW229142   1.638   5.035   2.665 -1.4394 -0.9861 -1.2346
 7344SOL    HW329143   1.634   4.901   2.735  0.5936 -0.6116 -0.3110
 7344SOL    MW429144   1.676   4.960   2.688 -0.2792 -0.3587  0.3164
 7345SOL     OW29145   6.004   4.112   0.154  0.0400  0.2929 -0.3251
 7345SOL    HW229146   6.098   4.117   0.135  0.1488  0.9785  0.3238
 7345SOL    HW329147   5.988   4.186   0.213 -0.7964 -0.1581  0.0302
 7345SOL    MW429148   6.014   4.122   0.159  0.4644  0.0058 -0.0701
 7346SOL     OW29149   6.099   4.947   5.879  0.0214 -0.0591 -0.0843
 7346SOL    HW229150   6.095   4.949   5.784  2.3380 -0.6024 -0.2610
 7346SOL    HW329151   6.102   5.039   5.906 -0.6223  0.0935 -0.5329
 7346SOL    MW429152   6.099   4.959   5.870  0.0212  0.9397 -0.6010
 7347SOL     OW29153   6.215   3.539   6.087 -0.0326  0.5254  0.5750
 7347SOL    HW229154   6.169   3.565   6.167 -0.1702 -0.5933  0.8804
 7347SOL    HW329155   6.258   3.457   6.110 -1.5408 -0.8004 -1.0079
 7347SOL    MW429156   6.215   3.532   6.101  0.2680 -0.4604 -0.0160
 7348SOL     OW29157   0.972   1.235   3.434 -0.1121 -0.1543 -0.0166
 7348SOL    HW229158   1.030   1.294   3.386  0.2485 -0.1878  0.3699
 7348SOL    HW329159   0.986   1.150   3.393  0.2619 -0.2007  0.1946
 7348SOL    MW429160   0.982   1.231   3.422  0.6604 -0.6827 -0.3588
 7349SOL     OW29161   4.322   0.289   5.882  0.1210  0.0515  0.3252
 7349SOL    HW229162   4.381   0.214   5.869 -0.5628 -0.5718  0.7481
 7349SOL    HW329163   4.360   0.358   5.829  1.6694 -0.1015  1.1675
 7349SOL    MW429164   4.335   0.288   5.874  0.2321 -0.3287  0.4212
 7350SOL     OW29165   4.661   1.392   1.872  0.2132  0.2529 -0.4742
 7350SOL    HW229166   4.755   1.407   1.865  0.4667 -1.3752 -1.0829
 7350SOL    HW329167   4.629   1.397   1.782 -0.1175 -0.0918 -0.3795
 7350SOL    MW429168   4.669   1.394   1.859  0.5273 -0.5594 -0.2159
 7351SOL     OW29169   1.259   1.720   3.644  0.5189  0.0728  0.5074
 7351SOL    HW229170   1.258   1.807   3.684 -1.0646  2.2234 -3.6281
 7351SOL    HW329171   1.351   1.705   3.622  0.6330  1.4253 -0.0205
 7351SOL    MW429172   1.271   1.729   3.647 -0.2328 -0.6535  0.2816
 7352SOL     OW29173   1.290   3.245   5.684  0.0025 -0.1698  0.0550
 7352SOL    HW229174   1.329   3.330   5.703  1.4788 -0.4538 -1.4510
 7352SOL    HW329175   1.328   3.219   5.600 -1.2556 -1.8221 -0.0637
 7352SOL    MW429176   1.301   3.253   5.676  0.4957 -0.2277  0.4711
 7353SOL     OW29177   1.522   5.672   1.844  0.2158 -0.1769  0.4742
 7353SOL    HW229178   1.519   5.587   1.801  1.2191 -0.9278  1.7883
 7353SOL    HW329179   1.457   5.665   1.914 -1.5471  1.1005 -0.9416
 7353SOL    MW429180   1.513   5.660   1.848 -0.0622  0.5300  0.1661
 7354SOL     OW29181   5.955   5.986   6.115 -0.2341 -0.5772 -0.1031
 7354SOL    HW229182   5.997   5.972   6.200 -0.3769  0.8049  0.2197
 7354SOL    HW329183   5.886   6.050   6.132 -1.7646 -1.9624 -0.8467
 7354SOL    MW429184   5.952   5.993   6.128  0.6777 -0.0854 -0.3055
 7355SOL     OW29185   3.602   1.854   2.990 -0.2741 -0.4106  0.1257
 7355SOL    HW229186   3.681   1.905   2.972  0.1530 -0.6143  1.3290
 7355SOL    HW329187   3.532   1.901   2.944 -0.1511  2.0788  2.2303
 7355SOL    MW429188   3.603   1.867   2.981  0.8644 -0.4170  0.3656
 7356SOL     OW29189   3.573   6.266   3.647  0.1148  0.8373 -0.3405
 7356SOL    HW229190   3.517   6.243   3.721 -0.2380  1.0271 -0.5466
 7356SOL    HW329191   3.554   6.358   3.631  0.0665  0.7491 -0.7803
 7356SOL    MW429192   3.563   6.275   3.655  0.0104  0.3326 -0.2147
 7357SOL     OW29193   2.147   6.245   0.666  0.2357  0.6163 -0.0933
 7357SOL    HW229194   2.136   6.220   0.757  0.2416 -1.5061 -0.6179
 7357SOL    HW329195   2.234   6.212   0.642 -0.3830 -0.2797 -1.2568
 7357SOL    MW429196   2.157   6.237   0.675  0.2574  0.1056 -0.1292
 7358SOL     OW29197   4.841   1.171   4.754  0.3651 -0.5191 -0.6648
 7358SOL    HW229198   4.821   1.176   4.661 -1.1165  0.9483 -0.3241
 7358SOL    HW329199   4.756   1.181   4.797  1.0781 -0.6954  0.8567
 7358SOL    MW429200   4.827   1.173   4.748  0.2666 -0.4044 -0.2674
 7359SOL     OW29201   3.380   5.648   0.651  0.3577  0.0852 -0.5120
 7359SOL    HW229202   3.285   5.643   0.640  0.2065  2.3212 -0.6904
 7359SOL    HW329203   3.413   5.665   0.563  0.8283  0.4018 -0.2773
 7359SOL    MW429204   3.371   5.649   0.638  0.1871  0.1743 -0.3372
 7360SOL     OW29205   1.204   3.145   4.987  0.3015 -0.0998  0.0084
 7360SOL    HW229206   1.135   3.078   4.980 -1.9698  2.1802 -0.9784
 7360SOL    HW329207   1.242   3.148   4.899  1.8827 -1.4693  0.5950
 7360SOL    MW429208   1.200   3.136   4.974  0.5427 -0.2597  0.1685
 7361SOL     OW29209   0.279   5.389   4.027 -0.4376  0.0256 -0.4097
 7361SOL    HW229210   0.320   5.349   4.103 -0.4098 -0.5972 -0.7400
 7361SOL    HW329211   0.265   5.316   3.967 -0.4051  0.5187 -1.0249
 7361SOL    MW429212   0.282   5.374   4.029  0.8227  0.2169  0.1535
 7362SOL     OW29213   3.630   4.510   3.602 -0.4521 -0.0483 -0.1338
 7362SOL    HW229214   3.561   4.463   3.648  1.0310 -2.6725 -0.4196
 7362SOL    HW329215   3.709   4.494   3.654  0.3847  0.9068 -1.0694
 7362SOL    MW429216   3.631   4.502   3.615 -0.1938  0.3157  0.4606
 7363SOL     OW29217   4.157   2.880   2.642  0.1276  0.5144 -0.2086
 7363SOL    HW229218   4.116   2.966   2.651  0.4387  0.9135 -2.2595
 7363SOL    HW329219   4.086   2.824   2.610  0.7236  0.8367 -2.2030
 7363SOL    MW429220   4.142   2.884   2.639 -0.0559  0.1015 -0.0893
 7364SOL     OW29221   4.709   2.917   0.866  0.1410  0.2001  0.3321
 7364SOL    HW229222   4.762   2.856   0.917 -1.3944 -0.8593  0.7380
 7364SOL    HW329223   4.686   2.986   0.928  0.1321  0.0633  0.4850
 7364SOL    MW429224   4.713   2.918   0.881  0.5501  0.5893  0.4753
 7365SOL     OW29225   3.732   2.594   5.146  0.2398  0.2822  1.1131
 7365SOL    HW229226   3.799   2.598   5.214  1.6322  2.2713 -0.2442
 7365SOL    HW329227   3.654   2.631   5.187  0.8590  0.8277  1.8368
 7365SOL    MW429228   3.730   2.599   5.160  0.1849 -0.7306 -0.2206
 7366SOL     OW29229   2.356   4.618   5.539  0.5779 -0.0408 -0.3801
 7366SOL    HW229230   2.386   4.631   5.629  1.8490 -0.8849 -0.6630
 7366SOL    HW329231   2.288   4.551   5.546 -0.1259  0.7005  0.0682
 7366SOL    MW429232   2.351   4.611   5.552 -0.4818 -0.1287  0.9057
 7367SOL     OW29233   0.938   1.886   3.422  0.5452 -0.0255  0.0564
 7367SOL    HW229234   1.024   1.916   3.451  0.5125 -0.9046  1.1176
 7367SOL    HW329235   0.876   1.945   3.465  0.6325  2.1306 -2.5559
 7367SOL    MW429236   0.941   1.897   3.432 -0.1946 -0.3187 -0.0646
 7368SOL     OW29237   3.625   0.373   5.059 -0.0183 -0.1042 -0.5199
 7368SOL    HW229238   3.683   0.391   5.132 -1.3312  0.4362  0.4257
 7368SOL    HW329239   3.670   0.305   5.009  0.6795 -0.8597  1.0643
 7368SOL    MW429240   3.638   0.366   5.062 -0.0814 -0.7634  0.0350
 7369SOL     OW29241   3.993   4.543   2.448  0.4865 -0.0136 -0.0833
 7369SOL    HW229242   3.937   4.480   2.402 -0.7329  1.8459 -1.2517
 7369SOL    HW329243   4.012   4.500   2.532  0.6296 -2.3872 -1.2576
 7369SOL    MW429244   3.988   4.529   2.453 -1.1946  0.3956  0.1623
 7370SOL     OW29245   5.954   1.467   1.002 -0.1963 -0.4696  0.1751
 7370SOL    HW229246   5.890   1.447   1.070 -0.4918 -0.1438 -0.0029
 7370SOL    HW329247   6.032   1.418   1.028 -0.5492 -0.9658  0.3364
 7370SOL    MW429248   5.956   1.458   1.014  0.2122  0.3187  0.0634
 7371SOL     OW29249   5.215   5.843   0.904  0.3509 -0.1976  0.2374
 7371SOL    HW229250   5.278   5.907   0.870  0.1924 -0.2228 -0.1158
 7371SOL    HW329251   5.202   5.782   0.831 -3.5341  2.2974 -1.5086
 7371SOL    MW429252   5.222   5.843   0.890 -0.0523  0.0886  0.0212
 7372SOL     OW29253   4.750   3.995   5.576 -0.2838  0.1355 -0.0106
 7372SOL    HW229254   4.683   4.064   5.575 -1.5268 -1.0026  0.9616
 7372SOL    HW329255   4.797   4.006   5.494 -0.8111  1.7869 -0.1322
 7372SOL    MW429256   4.747   4.006   5.565  0.1481 -1.1644 -0.0542
 7373SOL     OW29257   0.165   0.796   6.148 -0.3693 -0.2467  0.2730
 7373SOL    HW229258   0.237   0.734   6.143  0.4752  0.7620 -0.4053
 7373SOL    HW329259   0.088   0.742   6.169  0.0691 -1.7133 -1.6675
 7373SOL    MW429260   0.164   0.781   6.150 -0.1267 -0.3926 -0.0876
 7374SOL     OW29261   6.174   3.399   5.207  0.5595  0.0618  0.2769
 7374SOL    HW229262   6.115   3.381   5.133  0.0593  0.2328  0.6338
 7374SOL    HW329263   6.170   3.319   5.260 -0.9523  0.8316  1.3808
 7374SOL    MW429264   6.165   3.386   5.204 -0.1349  0.3960 -0.1755
 7375SOL     OW29265   1.541   5.149   3.046 -0.0609 -0.0818  0.2461
 7375SOL    HW229266   1.528   5.218   3.111  0.6248  1.0322 -0.7585
 7375SOL    HW329267   1.604   5.090   3.087 -0.8531 -0.2646  1.2239
 7375SOL    MW429268   1.548   5.151   3.060  0.5749 -0.2308  0.0186
 7376SOL     OW29269   4.044   0.732   1.892  0.2850  0.1619 -0.7034
 7376SOL    HW229270   4.099   0.694   1.824 -0.3242 -0.5834 -0.7916
 7376SOL    HW329271   4.019   0.818   1.857 -1.8751 -1.0905 -2.4943
 7376SOL    MW429272   4.048   0.738   1.879  0.2765  0.6152  0.8076
 7377SOL     OW29273   2.373   6.023   1.198 -0.2671  0.3325 -0.0281
 7377SOL    HW229274   2.420   6.019   1.282  0.1039  0.4290 -0.2299
 7377SOL    HW329275   2.311   5.950   1.202 -0.1963  0.2891  0.2983
 7377SOL    MW429276   2.371   6.013   1.210  0.2909  0.1699 -0.1039
 7378SOL     OW29277   3.613   3.434   4.577  0.1302  0.1493 -0.2113
 7378SOL    HW229278   3.701   3.410   4.548  0.1722  0.0141  0.0260
 7378SOL    HW329279   3.607   3.528   4.561 -0.3044 -0.1240 -1.8608
 7378SOL    MW429280   3.624   3.443   4.571  0.5074 -0.1619 -0.8354
 7379SOL     OW29281   4.465   5.270   4.186 -0.2175 -0.3518 -0.2857
 7379SOL    HW229282   4.491   5.181   4.163 -1.1761 -0.3535 -1.4532
 7379SOL    HW329283   4.369   5.268   4.185 -0.2513  0.5920  0.1121
 7379SOL    MW429284   4.456   5.258   4.183  0.0123 -0.0197  0.1192
 7380SOL     OW29285   2.079   4.864   0.927  0.3946 -0.3684  0.2459
 7380SOL    HW229286   2.159   4.841   0.880  1.4131 -1.1409  2.2038
 7380SOL    HW329287   2.041   4.780   0.952  0.3845 -0.0186  1.5123
 7380SOL    MW429288   2.085   4.850   0.924  0.2415 -0.1221 -0.2565
 7381SOL     OW29289   0.017   0.166   4.635  0.8020  0.0147 -0.2655
 7381SOL    HW229290   0.064   0.160   4.718  1.0883  0.2319 -0.4109
 7381SOL    HW329291   0.047   0.091   4.585 -1.2212 -1.5810  0.7481
 7381SOL    MW429292   0.027   0.155   4.640 -0.0617 -0.1750  0.0795
 7382SOL     OW29293   2.595   5.207   1.470 -0.1285  0.0642  0.0079
 7382SOL    HW229294   2.521   5.260   1.499  0.5495  0.4412  1.0644
 7382SOL    HW329295   2.596   5.218   1.375 -1.2255  0.3131  0.0108
 7382SOL    MW429296   2.585   5.215   1.461  0.1618 -0.1029 -0.2681
 7383SOL     OW29297   3.211   3.612   5.626  0.2406 -0.0932  0.2839
 7383SOL    HW229298   3.212   3.586   5.533  0.1970 -1.7785  0.7240
 7383SOL    HW329299   3.290   3.573   5.663  0.2926  0.6292  0.9532
 7383SOL    MW429300   3.221   3.604   5.618 -0.4365  0.1272 -0.0055
 7384SOL     OW29301   4.166   0.889   4.829 -0.2079 -0.0218 -0.0751
 7384SOL    HW229302   4.088   0.911   4.779  0.1991 -1.1530 -1.2745
 7384SOL    HW329303   4.171   0.793   4.825  0.3939 -0.0780  1.3053
 7384SOL    MW429304   4.157   0.879   4.822 -0.1617  0.0053 -0.7082
 7385SOL     OW29305   4.498   0.106   0.338  0.4321 -0.7483 -0.1831
 7385SOL    HW229306   4.561   0.050   0.294 -1.2992 -1.1842 -2.3031
 7385SOL    HW329307   4.420   0.104   0.282 -0.0630  3.0709  0.0735
 7385SOL    MW429308   4.496   0.098   0.325 -0.3863 -0.4635 -0.3228
 7386SOL     OW29309   5.090   2.074   0.151 -0.1399  0.2760  0.4358
 7386SOL    HW229310   5.101   1.992   0.103 -0.6247 -0.2210  1.1545
 7386SOL    HW329311   5.176   2.115   0.148  0.3613 -0.7091  0.8720
 7386SOL    MW429312   5.103   2.069   0.144  0.5888  0.6418 -0.1975
 7387SOL     OW29313   4.189   5.327   4.135 -0.4157 -0.1988  0.2394
 7387SOL    HW229314   4.207   5.333   4.041 -1.1413  0.0666  0.1129
 7387SOL    HW329315   4.094   5.316   4.140 -0.5394  0.9980  0.9791
 7387SOL    MW429316   4.179   5.327   4.123 -0.1293  0.0298 -0.5800
 7388SOL     OW29317   2.683   4.344   3.807 -0.6593  0.2485  0.1222
 7388SOL    HW229318   2.770   4.333   3.767 -0.0037  0.6376  1.3821
 7388SOL    HW329319   2.677   4.273   3.871 -1.5721 -0.1962 -0.4432
 7388SOL    MW429320   2.694   4.333   3.810  0.2064 -0.5877 -0.0708
 7389SOL     OW29321   1.510   4.881   3.955  0.4521  0.2274 -0.2019
 7389SOL    HW229322   1.531   4.962   3.909 -0.0454  1.1002  1.0479
 7389SOL    HW329323   1.593   4.834   3.962  0.8752  0.9493 -0.3531
 7389SOL    MW429324   1.524   4.885   3.950 -0.0890 -0.6200 -0.1135
 7390SOL     OW29325   6.337   4.360   2.289  0.4773  0.0437  1.0096
 7390SOL    HW229326   6.386   4.282   2.263 -1.1367 -0.4755 -0.6521
 7390SOL    HW329327   6.246   4.341   2.265 -0.0957  2.1131  1.3330
 7390SOL    MW429328   6.331   4.347   2.283 -0.6433  0.1299  0.3690
 7391SOL     OW29329   0.436   2.453   1.705  0.0533  0.2593  0.2137
 7391SOL    HW229330   0.347   2.482   1.683 -1.3535 -1.2805  3.3139
 7391SOL    HW329331   0.491   2.529   1.686 -1.9310  1.4113 -1.4250
 7391SOL    MW429332   0.431   2.467   1.699  0.0716 -0.1236 -0.1162
 7392SOL     OW29333   3.724   5.182   0.406  0.3440 -0.4783  0.0204
 7392SOL    HW229334   3.637   5.156   0.377 -0.0672  0.3824  0.4395
 7392SOL    HW329335   3.782   5.115   0.371 -0.4201 -0.7652 -0.7350
 7392SOL    MW429336   3.720   5.170   0.398  0.2824  0.2017  0.1572
 7393SOL     OW29337   3.333   4.075   3.248  0.5532 -0.0862  0.1939
 7393SOL    HW229338   3.295   4.160   3.225 -0.2253 -1.0183 -2.1595
 7393SOL    HW329339   3.428   4.090   3.244  0.4345  0.7422  0.1855
 7393SOL    MW429340   3.341   4.088   3.245 -0.2689  0.4977 -0.0469
 7394SOL     OW29341   1.761   2.285   1.245  0.1655  0.4059 -0.0357
 7394SOL    HW229342   1.671   2.285   1.214 -0.5801  1.4136  1.9361
 7394SOL    HW329343   1.800   2.206   1.207 -1.8096 -0.5696 -0.1539
 7394SOL    MW429344   1.754   2.275   1.236  0.1015  0.2309 -0.2651
 7395SOL     OW29345   5.530   3.171   1.313  0.4830  0.1349  0.4826
 7395SOL    HW229346   5.486   3.144   1.232 -0.8265  1.7644  0.6074
 7395SOL    HW329347   5.508   3.102   1.376 -0.6827  0.1580  0.1334
 7395SOL    MW429348   5.521   3.158   1.311 -0.0063 -0.0619 -0.2502
 7396SOL     OW29349   5.616   3.055   5.888 -0.4953  0.0726  0.2352
 7396SOL    HW229350   5.600   3.074   5.795 -1.5038 -0.9358  0.1882
 7396SOL    HW329351   5.705   3.086   5.903  0.2138 -1.0040 -1.4423
 7396SOL    MW429352   5.626   3.061   5.878  0.0915 -0.1413 -0.1448
 7397SOL     OW29353   0.637   3.798   0.020 -0.1257 -0.0312  0.0398
 7397SOL    HW229354   0.544   3.790  -0.002 -0.0808 -0.0548 -0.1437
 7397SOL    HW329355   0.647   3.745   0.099  0.0504 -1.3987 -0.8501
 7397SOL    MW429356   0.626   3.790   0.027  0.2376 -0.2983  0.4324
 7398SOL     OW29357   3.847   0.973   0.302  0.6562 -0.4312  0.3100
 7398SOL    HW229358   3.763   1.018   0.293  1.6708  1.7379  1.1120
 7398SOL    HW329359   3.860   0.964   0.396  1.2908 -0.8279  0.1936
 7398SOL    MW429360   3.838   0.978   0.313 -0.0591  0.1773 -0.0525
 7399SOL     OW29361   2.943   6.191   2.871 -0.0342 -0.7565 -0.2526
 7399SOL    HW229362   2.948   6.126   2.801  1.9277 -1.2368  0.2750
 7399SOL    HW329363   3.032   6.196   2.905 -0.2943  1.6515  0.2421
 7399SOL    MW429364   2.955   6.183   2.866 -0.1155 -0.1142 -0.7860
 7400SOL     OW29365   3.851   4.361   2.301 -0.5143  0.4665  0.0279
 7400SOL    HW229366   3.868   4.338   2.210 -1.1684  1.1842 -0.2880
 7400SOL    HW329367   3.830   4.277   2.344 -2.1664  0.3391 -0.9394
 7400SOL    MW429368   3.850   4.346   2.295 -0.8907 -0.3189  0.7782
 7401SOL     OW29369   2.483   5.225   0.811  0.2003 -0.4150 -0.3771
 7401SOL    HW229370   2.489   5.313   0.772  0.2134  0.2288  1.0143
 7401SOL    HW329371   2.538   5.171   0.755  0.0288  0.4115 -1.3865
 7401SOL    MW429372   2.491   5.230   0.798  0.4449  0.4270  0.1706
 7402SOL     OW29373   1.329   2.936   4.597  0.2291 -0.4881  0.2854
 7402SOL    HW229374   1.291   3.008   4.646  1.0852  2.1609 -2.5912
 7402SOL    HW329375   1.260   2.909   4.537 -0.3744 -2.7863  1.8940
 7402SOL    MW429376   1.315   2.942   4.596 -0.2391  0.2161 -0.0940
 7403SOL     OW29377   1.055   0.483   3.044 -0.2471  0.5307 -0.5814
 7403SOL    HW229378   0.992   0.510   3.111 -0.6337  1.2468 -1.2179
 7403SOL    HW329379   1.137   0.523   3.071  0.1303 -0.9462  0.6130
 7403SOL    MW429380   1.058   0.492   3.057  0.1769  0.1914 -0.1073
 7404SOL     OW29381   5.790   4.167   2.848  0.1681 -0.0508  0.2721
 7404SOL    HW229382   5.710   4.168   2.794  0.1388  1.8983  0.2822
 7404SOL    HW329383   5.771   4.104   2.917 -0.6878 -0.8960 -0.6911
 7404SOL    MW429384   5.777   4.159   2.850  0.4506  0.6150  0.3870
 7405SOL     OW29385   3.549   2.055   2.212  0.0356 -0.6446  0.1837
 7405SOL    HW229386   3.475   2.009   2.251  0.5934 -2.0095 -0.3017
 7405SOL    HW329387   3.579   2.116   2.280 -0.0628 -1.7695  1.2561
 7405SOL    MW429388   3.543   2.057   2.226 -0.4483  0.5687 -0.3013
 7406SOL     OW29389   0.597   4.580   2.384 -0.4486 -0.2008 -0.5948
 7406SOL    HW229390   0.683   4.595   2.346  0.3702 -1.8246  0.4808
 7406SOL    HW329391   0.544   4.546   2.312  0.4774 -1.2976 -0.7892
 7406SOL    MW429392   0.601   4.578   2.370 -0.6006  0.3579  0.3534
 7407SOL     OW29393   1.405   2.477   0.870 -0.6330 -0.0294 -0.4008
 7407SOL    HW229394   1.477   2.414   0.871 -0.3749  0.0273  3.8591
 7407SOL    HW329395   1.335   2.435   0.920 -1.2571  2.1647  0.7199
 7407SOL    MW429396   1.406   2.463   0.877  0.3358 -0.5523  0.1389
 7408SOL     OW29397   2.123   6.138   1.470  0.3425 -0.4998  0.4149
 7408SOL    HW229398   2.065   6.157   1.544  1.0698 -1.0629  1.1559
 7408SOL    HW329399   2.148   6.224   1.436  0.6713 -0.2034  1.3793
 7408SOL    MW429400   2.119   6.152   1.475  0.3148  0.2621  0.4803
 7409SOL     OW29401   1.652   5.659   2.991 -0.2848  0.1681 -0.0959
 7409SOL    HW229402   1.685   5.658   2.901 -0.9732  1.2428 -0.3678
 7409SOL    HW329403   1.731   5.648   3.045  0.8762  4.1439 -0.6728
 7409SOL    MW429404   1.667   5.657   2.987 -0.3481  0.4114  0.5657
 7410SOL     OW29405   5.194   0.254   5.065  0.5404  0.1386 -0.6120
 7410SOL    HW229406   5.110   0.264   5.110  1.9382  0.0619  2.1871
 7410SOL    HW329407   5.208   0.160   5.061  0.5660  0.1554 -0.9284
 7410SOL    MW429408   5.185   0.243   5.070  0.3065  0.0527  0.4750
 7411SOL     OW29409   2.248   0.839   5.595  0.3863 -0.1977  0.1025
 7411SOL    HW229410   2.213   0.892   5.524 -2.0119 -1.0011  0.6078
 7411SOL    HW329411   2.211   0.752   5.580 -1.1050 -0.1374  2.8968
 7411SOL    MW429412   2.239   0.834   5.583  0.4912  0.1156 -0.5412
 7412SOL     OW29413   5.773   5.146   0.838 -0.0315  0.3719  0.0260
 7412SOL    HW229414   5.735   5.058   0.846 -1.4757  0.7223 -2.1653
 7412SOL    HW329415   5.755   5.187   0.922 -1.9631 -0.4858  0.0773
 7412SOL    MW429416   5.766   5.140   0.850 -0.3719 -0.6482 -0.1874
 7413SOL     OW29417   0.586   1.274   0.521  0.3280 -0.4738 -0.5258
 7413SOL    HW229418   0.503   1.250   0.478 -0.9146  0.2011  1.3611
 7413SOL    HW329419   0.652   1.265   0.452 -1.1867 -1.7863 -1.8967
 7413SOL    MW429420   0.584   1.270   0.506 -0.5093  0.3964 -0.3990
 7414SOL     OW29421   1.050   2.586   1.490 -0.2018  0.1048  0.1082
 7414SOL    HW229422   1.036   2.652   1.557 -1.6803  2.1423 -2.0304
 7414SOL    HW329423   1.020   2.504   1.530 -0.3522  1.0915  2.1326
 7414SOL    MW429424   1.044   2.584   1.504  0.0328  0.1374 -0.5884
 7415SOL     OW29425   2.308   4.477   6.087 -0.1146  0.0251 -0.4929
 7415SOL    HW229426   2.396   4.514   6.095 -0.2992  0.2715  0.6046
 7415SOL    HW329427   2.280   4.462   6.177 -1.0337 -0.4459 -0.8442
 7415SOL    MW429428   2.316   4.480   6.100  0.4466  0.2124  0.0756
 7416SOL     OW29429   4.326   0.621   4.311  0.0168  0.2315  0.4052
 7416SOL    HW229430   4.294   0.695   4.361  1.5786  1.7129 -0.6895
 7416SOL    HW329431   4.271   0.548   4.338 -1.0048  1.5868  2.1464
 7416SOL    MW429432   4.315   0.621   4.321  0.2125 -0.2928 -0.4458
 7417SOL     OW29433   5.337   4.073   2.964  0.1824  0.0028 -0.5141
 7417SOL    HW229434   5.293   4.150   3.001  0.1974  0.2961 -1.0988
 7417SOL    HW329435   5.277   4.001   2.981 -0.1567  0.2647 -0.5777
 7417SOL    MW429436   5.323   4.074   2.971  0.3464 -0.0110  0.2301
 7418SOL     OW29437   5.064   5.814   2.997 -0.2928  0.8798 -0.4214
 7418SOL    HW229438   5.076   5.794   2.904 -2.1967  1.5714 -0.8657
 7418SOL    HW329439   5.022   5.900   2.997 -2.1811  0.0126  0.9910
 7418SOL    MW429440   5.060   5.823   2.984 -0.0770  0.3817  0.5309
 7419SOL     OW29441   5.602   6.367   3.170 -0.2158  0.0670 -0.7261
 7419SOL    HW229442   5.556   6.317   3.102 -2.2020 -1.0089  1.2952
 7419SOL    HW329443   5.540   6.434   3.196 -0.0660 -0.4349  1.0064
 7419SOL    MW429444   5.588   6.369   3.164 -0.1644  0.4526 -0.1503
 7420SOL     OW29445   3.944   1.966   1.050 -1.1339  0.3178  0.2686
 7420SOL    HW229446   3.995   2.012   0.983 -2.1979  0.6386 -0.3398
 7420SOL    HW329447   3.853   1.977   1.023 -1.5013 -0.8362  0.9617
 7420SOL    MW429448   3.939   1.973   1.038  0.2920  0.0362 -0.0468
 7421SOL     OW29449   0.803   0.191   1.562  0.1191 -0.0292  0.0763
 7421SOL    HW229450   0.888   0.167   1.601  0.3591  0.9823  0.2215
 7421SOL    HW329451   0.746   0.206   1.637  0.1316  0.3648  0.0112
 7421SOL    MW429452   0.807   0.190   1.577 -0.3853  0.3490 -0.0408
 7422SOL     OW29453   3.695   0.511   0.623 -0.6660 -0.4044  0.0139
 7422SOL    HW229454   3.748   0.452   0.677 -0.5449  0.0937  0.4569
 7422SOL    HW329455   3.609   0.469   0.620 -0.0101 -1.7324 -1.5548
 7422SOL    MW429456   3.690   0.498   0.630  0.4329 -0.2164 -0.1159
 7423SOL     OW29457   1.169   1.471   3.720  0.4463 -0.1149  0.2256
 7423SOL    HW229458   1.207   1.558   3.712  3.7817 -1.0287  3.2970
 7423SOL    HW329459   1.242   1.415   3.745 -2.2418 -2.9804  2.5155
 7423SOL    MW429460   1.184   1.475   3.722 -0.1053 -0.2870 -0.2055
 7424SOL     OW29461   4.248   0.503   2.918  0.5229  0.6234  0.5303
 7424SOL    HW229462   4.158   0.526   2.939  0.1296  0.5917 -1.0022
 7424SOL    HW329463   4.293   0.587   2.909  1.2067  0.6582  3.2883
 7424SOL    MW429464   4.242   0.517   2.920  0.7337  0.0882  0.1232
 7425SOL     OW29465   1.590   3.384   3.039  0.3541 -0.1190 -0.1531
 7425SOL    HW229466   1.544   3.453   2.992  0.8677 -0.4022 -1.1008
 7425SOL    HW329467   1.580   3.306   2.984  1.0274 -0.4401  0.1586
 7425SOL    MW429468   1.583   3.382   3.026 -0.1753  0.8488  0.1674
 7426SOL     OW29469   5.685   2.778   5.874 -0.1520 -0.1922  0.1909
 7426SOL    HW229470   5.674   2.770   5.779  1.3504  2.8104 -0.3442
 7426SOL    HW329471   5.637   2.858   5.897 -0.8867 -1.1223  2.0889
 7426SOL    MW429472   5.677   2.788   5.865 -0.9380 -0.4572 -0.2276
 7427SOL     OW29473   5.176   2.395   4.323  0.0514 -0.8351 -0.0064
 7427SOL    HW229474   5.187   2.339   4.246  2.3162 -0.5567  0.0511
 7427SOL    HW329475   5.208   2.343   4.396  4.0647  0.9730 -0.1915
 7427SOL    MW429476   5.181   2.381   4.323 -0.7071  0.2678 -0.0554
 7428SOL     OW29477   0.551   3.772   2.126 -0.2718  0.6064 -0.2370
 7428SOL    HW229478   0.534   3.820   2.207  2.5539  1.4688 -0.0193
 7428SOL    HW329479   0.576   3.840   2.063 -1.1839 -0.1706 -1.4678
 7428SOL    MW429480   0.552   3.788   2.129  0.7847  0.2112  0.7608
 7429SOL     OW29481   1.368   4.146   1.272  0.3371 -0.1001 -0.0754
 7429SOL    HW229482   1.383   4.078   1.206 -1.3197 -0.6638  0.0727
 7429SOL    HW329483   1.310   4.105   1.336 -2.3279  1.9314 -0.9581
 7429SOL    MW429484   1.362   4.131   1.272 -0.0876  0.5223  0.0473
 7430SOL     OW29485   5.196   0.576   4.938  0.4847 -0.1758 -0.4147
 7430SOL    HW229486   5.274   0.597   4.886 -0.2072  0.2044 -1.3322
 7430SOL    HW329487   5.152   0.507   4.888  0.5352 -0.8183  0.4077
 7430SOL    MW429488   5.200   0.570   4.924  0.1736  0.3542  0.1406
 7431SOL     OW29489   5.111   4.929   4.953  0.4626  0.0254 -0.1892
 7431SOL    HW229490   5.078   4.909   5.040  0.6376 -0.5365 -0.2467
 7431SOL    HW329491   5.066   5.009   4.928 -0.4415 -0.4222 -0.0380
 7431SOL    MW429492   5.100   4.937   4.961  0.1069  0.3797  0.1609
 7432SOL     OW29493   0.906   5.693   4.704 -0.0185 -0.2417 -0.0507
 7432SOL    HW229494   0.811   5.687   4.712 -0.0086 -1.3766 -0.5586
 7432SOL    HW329495   0.928   5.778   4.741 -1.2314  0.0411  0.0591
 7432SOL    MW429496   0.897   5.703   4.710  0.4013  0.3133  0.1808
 7433SOL     OW29497   5.089   5.264   3.054 -0.3208 -0.2703 -0.5472
 7433SOL    HW229498   5.129   5.177   3.055  0.6667  0.1638 -1.2636
 7433SOL    HW329499   5.025   5.260   2.982 -0.3638 -0.4376 -0.5006
 7433SOL    MW429500   5.086   5.252   3.045  0.3041  0.0349  0.0353
 7434SOL     OW29501   1.775   1.619   2.435  0.0689  0.0710 -0.3816
 7434SOL    HW229502   1.869   1.635   2.446  0.0500 -0.6649  1.0241
 7434SOL    HW329503   1.737   1.639   2.520 -0.7599 -1.5596 -0.3307
 7434SOL    MW429504   1.782   1.624   2.448  0.1405 -0.6022 -0.0961
 7435SOL     OW29505   1.613   3.153   0.414  0.0582  0.2161  0.5597
 7435SOL    HW229506   1.558   3.231   0.405 -0.4099 -0.1911 -0.2029
 7435SOL    HW329507   1.568   3.099   0.479 -1.0415 -0.5835 -0.7972
 7435SOL    MW429508   1.600   3.156   0.421 -0.1477 -0.1626 -0.0205
 7436SOL     OW29509   0.858   4.351   2.904  0.2284  0.0550 -0.2705
 7436SOL    HW229510   0.878   4.362   2.811 -1.7576 -0.3242 -0.7877
 7436SOL    HW329511   0.903   4.424   2.947  0.1962  0.9268 -1.6711
 7436SOL    MW429512   0.867   4.362   2.897  0.4034  0.4021 -0.0444
 7437SOL     OW29513   1.169   1.542   1.051  0.2655  0.3250  0.4066
 7437SOL    HW229514   1.202   1.459   1.087  0.5021  0.7004  1.0822
 7437SOL    HW329515   1.248   1.592   1.033  0.1264  0.3332 -0.1763
 7437SOL    MW429516   1.184   1.537   1.054 -0.3500 -0.4524  0.2473
 7438SOL     OW29517   1.706   3.043   1.263  0.2079  0.3761  0.3342
 7438SOL    HW229518   1.703   2.948   1.254  0.1536  0.3583  0.5221
 7438SOL    HW329519   1.722   3.076   1.175 -1.3144  0.2674 -0.0098
 7438SOL    MW429520   1.708   3.035   1.250 -0.4588 -0.7723  0.4790
 7439SOL     OW29521   5.672   4.552   6.294 -0.0254  0.1607  0.3751
 7439SOL    HW229522   5.599   4.498   6.264  0.9729 -0.9360 -0.1536
 7439SOL    HW329523   5.722   4.572   6.214  0.5785  0.4001  0.8022
 7439SOL    MW429524   5.669   4.548   6.279 -0.2403  0.0874  0.7221
 7440SOL     OW29525   4.451   6.242   2.552 -0.1831 -0.2549 -0.5322
 7440SOL    HW229526   4.408   6.326   2.536 -0.6560 -0.7359 -1.9873
 7440SOL    HW329527   4.479   6.213   2.465 -0.1332 -1.6542 -0.0719
 7440SOL    MW429528   4.449   6.249   2.539 -0.3237  0.9007 -0.8675
 7441SOL     OW29529   5.238   4.318   3.049 -0.3484 -0.3844  0.1672
 7441SOL    HW229530   5.177   4.284   3.114  0.1318 -2.6331 -0.4762
 7441SOL    HW329531   5.182   4.353   2.980 -0.9118 -1.6746 -0.0436
 7441SOL    MW429532   5.223   4.318   3.049 -0.3814  0.1833 -0.2423
 7442SOL     OW29533   2.459   5.674   4.964 -0.7726 -0.7372  0.6638
 7442SOL    HW229534   2.516   5.744   4.999 -1.4297  0.0912  0.1268
 7442SOL    HW329535   2.517   5.622   4.908 -0.2967 -0.5590  0.9825
 7442SOL    MW429536   2.474   5.677   4.962  0.6087  0.6147  0.2999
 7443SOL     OW29537   5.182   4.601   2.827 -0.3027  0.2375 -0.2544
 7443SOL    HW229538   5.267   4.585   2.868 -0.4093 -1.0784 -0.4944
 7443SOL    HW329539   5.176   4.533   2.759 -1.1833  0.8525 -0.8019
 7443SOL    MW429540   5.193   4.590   2.823  0.7006 -0.5780 -0.2908
 7444SOL     OW29541   1.540   5.843   0.450  0.9548  0.3324  0.2371
 7444SOL    HW229542   1.565   5.783   0.380 -0.5152 -0.3459  0.2612
 7444SOL    HW329543   1.502   5.787   0.518 -0.4741  1.2394  0.2448
 7444SOL    MW429544   1.538   5.828   0.449  0.3914  0.1688 -0.2583
 7445SOL     OW29545   3.713   3.883   5.468  0.8159 -0.0230  0.1329
 7445SOL    HW229546   3.788   3.877   5.409  0.8736  1.4726  0.0126
 7445SOL    HW329547   3.637   3.867   5.412  1.0035 -1.2946  0.2089
 7445SOL    MW429548   3.713   3.880   5.453 -0.2314 -0.2775  0.3424
 7446SOL     OW29549   1.462   1.494   4.957  0.1143 -0.2244  0.0660
 7446SOL    HW229550   1.439   1.586   4.968  0.7462 -0.0369 -0.1129
 7446SOL    HW329551   1.381   1.452   4.928 -0.6223 -0.0373  1.7061
 7446SOL    MW429552   1.448   1.501   4.955 -0.2550 -0.3168 -0.1347
 7447SOL     OW29553   3.173   1.194   5.482  0.6230  0.2735  0.0269
 7447SOL    HW229554   3.221   1.120   5.445  2.3099  0.3613  1.8584
 7447SOL    HW329555   3.138   1.161   5.565 -1.3184  0.6677 -0.5755
 7447SOL    MW429556   3.175   1.180   5.488  0.0054  0.1596 -0.4495
 7448SOL     OW29557   2.337   1.598   4.997 -0.0607 -0.5402  0.0537
 7448SOL    HW229558   2.416   1.635   5.037 -0.0302  0.9239 -1.2844
 7448SOL    HW329559   2.268   1.614   5.062  0.6200 -1.4052  1.0264
 7448SOL    MW429560   2.338   1.605   5.011 -0.1550  1.0655  0.1233
 7449SOL     OW29561   4.031   4.574   1.107  0.4627 -0.8035  0.4672
 7449SOL    HW229562   3.992   4.535   1.186  0.2689  0.6915  1.1365
 7449SOL    HW329563   4.122   4.592   1.132  0.4777 -0.5832  0.2501
 7449SOL    MW429564   4.038   4.571   1.121  0.0846  0.8139 -0.3744
 7450SOL     OW29565   0.122   1.484   1.300 -0.3234 -0.0653 -0.1091
 7450SOL    HW229566   0.142   1.504   1.391  0.1180 -0.8131 -0.0297
 7450SOL    HW329567   0.155   1.395   1.288  0.1942  0.2578 -1.1759
 7450SOL    MW429568   0.129   1.475   1.311  0.3711  0.0312 -0.0101
 7451SOL     OW29569   5.436   3.902   4.343  0.4690  0.7805  0.3041
 7451SOL    HW229570   5.456   3.810   4.323 -0.8843  0.5616 -0.1728
 7451SOL    HW329571   5.485   3.921   4.423 -0.0922 -0.7030  1.0308
 7451SOL    MW429572   5.445   3.892   4.351  0.3287 -0.6671  0.3128
 7452SOL     OW29573   5.001   0.620   3.840 -0.0045  0.0136  0.0647
 7452SOL    HW229574   5.072   0.653   3.894 -1.6064  1.1626  1.5849
 7452SOL    HW329575   4.950   0.697   3.816  1.3744 -0.1739 -4.4674
 7452SOL    MW429576   5.004   0.634   3.844 -0.5169 -0.4055 -0.2495
 7453SOL     OW29577   1.336   4.416   5.426 -0.0950  0.1626  0.4833
 7453SOL    HW229578   1.401   4.486   5.432  1.5387 -0.8627 -2.8864
 7453SOL    HW329579   1.387   4.338   5.403 -2.2422 -1.3120  0.4825
 7453SOL    MW429580   1.352   4.415   5.424  0.1687  0.0526  0.0049
 7454SOL     OW29581   0.259   1.445   2.028 -0.3336  0.4827  0.2515
 7454SOL    HW229582   0.267   1.533   2.065  0.3883  0.4870  0.1106
 7454SOL    HW329583   0.305   1.451   1.944 -0.2034 -0.0488  0.2822
 7454SOL    MW429584   0.266   1.458   2.022 -0.0410 -0.2705  0.0809
 7455SOL     OW29585   1.318   0.546   2.838 -0.3005  0.2434  0.2294
 7455SOL    HW229586   1.322   0.550   2.934 -0.1742 -1.0077  0.2998
 7455SOL    HW329587   1.299   0.635   2.810 -1.1250  0.4680  1.4584
 7455SOL    MW429588   1.316   0.558   2.847  0.0398 -0.5666  0.2390
 7456SOL     OW29589   4.656   0.544   3.860 -0.0758  0.3429 -0.4504
 7456SOL    HW229590   4.622   0.615   3.915  1.3270  1.7675 -1.3566
 7456SOL    HW329591   4.672   0.585   3.775 -0.0041 -1.2697 -1.2461
 7456SOL    MW429592   4.653   0.559   3.856  0.5793 -0.0195 -0.3408
 7457SOL     OW29593   5.517   0.632   6.083 -0.2158  0.0598 -0.2507
 7457SOL    HW229594   5.456   0.573   6.038 -0.7529  0.6305 -0.2862
 7457SOL    HW329595   5.519   0.601   6.173  0.9249 -1.1424 -0.6513
 7457SOL    MW429596   5.510   0.620   6.089  0.7738 -0.2227  0.3046
 7458SOL     OW29597   6.178   0.773   4.924 -0.0108  0.2544 -0.1276
 7458SOL    HW229598   6.232   0.699   4.896 -0.5249 -0.8204  1.5862
 7458SOL    HW329599   6.105   0.775   4.862  0.1172 -0.5430 -0.3150
 7458SOL    MW429600   6.176   0.763   4.912 -0.5159  0.5629  0.2051
 7459SOL     OW29601   4.686   5.906   2.309  0.4917 -0.4711  0.1157
 7459SOL    HW229602   4.652   5.926   2.397 -0.0177 -0.0633 -0.1643
 7459SOL    HW329603   4.778   5.932   2.313  0.2796  0.2737  0.3021
 7459SOL    MW429604   4.694   5.912   2.321  1.0325 -0.5045 -0.3012
 7460SOL     OW29605   4.955   1.459   0.428 -0.1064 -0.1407 -0.5113
 7460SOL    HW229606   5.025   1.429   0.370 -0.2863 -0.0275 -0.7887
 7460SOL    HW329607   5.001   1.504   0.500  0.1232 -0.4303 -0.4780
 7460SOL    MW429608   4.971   1.461   0.430 -0.1715  0.3188  0.2570
 7461SOL     OW29609   5.920   0.730   6.089  0.3032  0.6178 -0.1602
 7461SOL    HW229610   5.852   0.733   6.021 -0.0897 -0.4298  0.1670
 7461SOL    HW329611   5.899   0.652   6.140  0.5617  1.4369  1.2199
 7461SOL    MW429612   5.908   0.720   6.087 -0.0497 -0.5502  0.5998
 7462SOL     OW29613   0.963   2.354   1.604 -0.6140  0.1265 -0.3236
 7462SOL    HW229614   0.946   2.301   1.526  0.8576 -1.2196  0.2164
 7462SOL    HW329615   1.055   2.338   1.624  0.1225  3.4579 -0.5025
 7462SOL    MW429616   0.973   2.345   1.596 -0.6565 -0.0480 -0.2857
 7463SOL     OW29617   1.534   1.261   3.103 -0.0566 -0.1679 -0.0977
 7463SOL    HW229618   1.458   1.208   3.129 -1.6897  1.6401 -0.9658
 7463SOL    HW329619   1.564   1.221   3.022 -0.8833 -0.1614 -0.4185
 7463SOL    MW429620   1.528   1.248   3.096  0.0176 -0.2031 -0.0758
 7464SOL     OW29621   3.572   5.863   4.280  0.1030  0.9014 -0.0539
 7464SOL    HW229622   3.578   5.828   4.368 -1.8015 -0.4646 -0.3957
 7464SOL    HW329623   3.511   5.937   4.288  0.3594  1.1199 -0.1264
 7464SOL    MW429624   3.565   5.868   4.292 -0.2978 -0.0413  0.3033
 7465SOL     OW29625   2.070   4.701   5.700 -0.1125  0.5219 -0.1515
 7465SOL    HW229626   2.152   4.710   5.651 -0.4401  0.7258 -0.6713
 7465SOL    HW329627   2.084   4.625   5.756  0.5249  0.7097 -0.0485
 7465SOL    MW429628   2.083   4.692   5.701 -0.1935  0.0447  0.2662
 7466SOL     OW29629   2.337   2.953   2.922  0.4601  0.6121  0.2537
 7466SOL    HW229630   2.243   2.968   2.907 -0.0283 -1.3645  1.0951
 7466SOL    HW329631   2.370   3.039   2.950 -0.8661  1.5870 -0.9972
 7466SOL    MW429632   2.329   2.966   2.924  0.2665 -0.6596 -0.1483
 7467SOL     OW29633   6.178   3.898   1.918 -0.2375 -0.9392  0.0840
 7467SOL    HW229634   6.200   3.861   1.833 -1.3306 -2.6980  0.5087
 7467SOL    HW329635   6.217   3.985   1.918  0.6714 -1.3118 -1.7945
 7467SOL    MW429636   6.186   3.904   1.907 -0.2458 -0.1181 -0.6749
 7468SOL     OW29637   5.206   2.591   0.190 -0.1373 -0.0963  0.4419
 7468SOL    HW229638   5.111   2.607   0.192 -0.1206  1.1028 -2.6341
 7468SOL    HW329639   5.230   2.603   0.099  3.3510  1.8174  1.4380
 7468SOL    MW429640   5.196   2.595   0.178 -0.2954 -0.0212 -0.1993
 7469SOL     OW29641   5.035   4.478   2.304  0.3333  0.5421  0.0958
 7469SOL    HW229642   5.123   4.515   2.315  1.0349 -1.2197  0.8419
 7469SOL    HW329643   5.045   4.413   2.234 -0.0408 -0.5442  1.0107
 7469SOL    MW429644   5.048   4.474   2.296 -0.1018 -0.1073 -0.3407
 7470SOL     OW29645   5.238   4.469   1.838 -0.5409  0.6605 -0.2963
 7470SOL    HW229646   5.160   4.426   1.873  1.1389 -1.7403  0.8069
 7470SOL    HW329647   5.255   4.541   1.899 -1.1119  0.3471  0.2398
 7470SOL    MW429648   5.230   4.473   1.851  0.4993  0.1708  0.1435
 7471SOL     OW29649   6.327   4.079   0.728  0.1478  0.5150 -0.6272
 7471SOL    HW229650   6.272   4.103   0.802  1.3976 -1.8116  1.1836
 7471SOL    HW329651   6.383   4.155   0.713  1.4334  0.3023  2.3843
 7471SOL    MW429652   6.327   4.092   0.735  0.1087  0.6640  0.4388
 7472SOL     OW29653   6.070   4.594   1.873  0.0547  0.0861 -0.6009
 7472SOL    HW229654   5.999   4.651   1.904 -0.3663 -0.4845 -0.5048
 7472SOL    HW329655   6.056   4.511   1.919  1.4264  0.3002  0.2715
 7472SOL    MW429656   6.059   4.591   1.883  0.4726 -0.1797  0.0289
 7473SOL     OW29657   0.594   3.563   0.733 -0.0902  0.4183  0.4692
 7473SOL    HW229658   0.542   3.642   0.719 -0.4940 -0.1714 -1.7916
 7473SOL    HW329659   0.546   3.494   0.687  2.0819 -0.3809 -0.7369
 7473SOL    MW429660   0.581   3.564   0.725 -0.2865 -0.2450 -0.1007
 7474SOL     OW29661   4.396   5.060   4.875  0.4502 -0.5891  0.0396
 7474SOL    HW229662   4.383   5.135   4.817 -0.5404 -0.0189  0.9668
 7474SOL    HW329663   4.484   5.073   4.912  0.2327  0.1964  0.2998
 7474SOL    MW429664   4.406   5.071   4.872  0.2760 -0.3321  0.0521
 7475SOL     OW29665   6.081   3.194   3.422  0.0564 -0.4057  0.1379
 7475SOL    HW229666   6.168   3.194   3.462  0.4756 -3.3345 -0.5190
 7475SOL    HW329667   6.021   3.202   3.496  0.8721 -1.1086  0.9065
 7475SOL    MW429668   6.085   3.195   3.437  0.3203  0.0002 -0.0692
 7476SOL     OW29669   3.890   2.987   5.129  0.0533 -0.5290 -0.2427
 7476SOL    HW229670   3.981   2.972   5.155 -0.2115  0.1704  1.2317
 7476SOL    HW329671   3.893   3.001   5.035  1.6799  0.9285 -0.0142
 7476SOL    MW429672   3.902   2.987   5.120 -0.1063  0.1064 -0.6711
 7477SOL     OW29673   1.819   4.141   0.670  0.6481  0.2267  0.7384
 7477SOL    HW229674   1.874   4.215   0.695  1.3303 -0.3468  0.9619
 7477SOL    HW329675   1.763   4.176   0.601  0.5603  1.1056  1.2315
 7477SOL    MW429676   1.819   4.155   0.664  0.2390  0.2716  0.4010
 7478SOL     OW29677   3.561   1.305   4.852 -0.5750  0.2075  0.1430
 7478SOL    HW229678   3.527   1.394   4.858  0.2177  0.4689  1.1421
 7478SOL    HW329679   3.652   1.312   4.883 -1.5791 -1.5354  4.2044
 7478SOL    MW429680   3.569   1.318   4.857  0.0321 -0.0180  0.6885
 7479SOL     OW29681   1.830   0.249   3.065  0.4241 -0.0340 -0.1657
 7479SOL    HW229682   1.762   0.184   3.079  1.0983 -0.3437  2.0323
 7479SOL    HW329683   1.855   0.239   2.973 -1.4936 -0.8602 -0.6241
 7479SOL    MW429684   1.825   0.239   3.054  0.2394  0.1724  0.4713
 7480SOL     OW29685   2.131   0.668   1.721 -0.2240  0.1769 -0.4177
 7480SOL    HW229686   2.201   0.651   1.784 -1.4207  0.3321  1.0045
 7480SOL    HW329687   2.176   0.675   1.637  1.2210 -2.1861  0.0543
 7480SOL    MW429688   2.147   0.666   1.718  0.1129 -0.0367  0.4258
 7481SOL     OW29689   4.489   0.735   0.124 -0.5334  0.6763  0.0652
 7481SOL    HW229690   4.502   0.647   0.089  3.9904  1.2001 -0.1336
 7481SOL    HW329691   4.454   0.721   0.212 -0.3961 -1.2453 -0.1540
 7481SOL    MW429692   4.486   0.722   0.131 -0.2476 -0.2178  0.3414
 7482SOL     OW29693   4.648   2.471   1.663 -0.0183  0.1710  0.0177
 7482SOL    HW229694   4.692   2.386   1.665  0.2687  0.3330  1.2345
 7482SOL    HW329695   4.715   2.533   1.691 -0.3216  0.7624 -0.5481
 7482SOL    MW429696   4.662   2.468   1.667 -0.0718 -0.3491 -0.1249
 7483SOL     OW29697   0.439   2.984   5.413 -0.0777 -0.0466  0.1472
 7483SOL    HW229698   0.430   2.903   5.363 -0.0773 -0.1624  0.3296
 7483SOL    HW329699   0.533   2.995   5.425 -0.1028 -0.5571  0.9665
 7483SOL    MW429700   0.450   2.974   5.408  0.2743 -0.0217 -0.5727
 7484SOL     OW29701   3.908   0.221   5.494 -0.2286  0.1751 -0.3665
 7484SOL    HW229702   3.897   0.242   5.587 -0.5749 -0.8708 -0.1566
 7484SOL    HW329703   3.998   0.190   5.487 -0.0576  0.6840 -0.4743
 7484SOL    MW429704   3.918   0.220   5.505  0.0532  0.5184  0.2231
 7485SOL     OW29705   1.284   3.715   3.509 -0.1861  0.3540 -0.1841
 7485SOL    HW229706   1.337   3.661   3.568  0.1399  1.7010  0.8023
 7485SOL    HW329707   1.195   3.682   3.518  0.2527 -1.1312 -0.9255
 7485SOL    MW429708   1.280   3.704   3.518  0.1205  0.5860  0.2847
 7486SOL     OW29709   0.246   4.200   1.155  0.4370  0.5553 -0.1345
 7486SOL    HW229710   0.305   4.224   1.226 -0.3734  1.2195  0.3379
 7486SOL    HW329711   0.257   4.106   1.145  0.8103  0.5122  0.6468
 7486SOL    MW429712   0.255   4.191   1.163  0.4847 -0.3310  0.3192
 7487SOL     OW29713   1.980   3.160   2.908 -0.0271  0.3183  0.1056
 7487SOL    HW229714   1.942   3.093   2.965  1.6559 -0.2626  0.6165
 7487SOL    HW329715   1.924   3.237   2.922 -0.6362 -0.2960  1.2800
 7487SOL    MW429716   1.967   3.161   2.918 -0.0919 -0.0553 -0.0125
 7488SOL     OW29717   1.539   4.035   2.032 -0.2687 -0.3097 -0.2876
 7488SOL    HW229718   1.609   4.071   1.978 -0.5893  0.1388 -0.4120
 7488SOL    HW329719   1.542   3.941   2.016  0.2638 -0.2838 -0.3359
 7488SOL    MW429720   1.549   4.027   2.023  0.0461  0.1488  0.2522
 7489SOL     OW29721   3.596   1.961   4.102 -0.3947 -0.4999 -0.3597
 7489SOL    HW229722   3.650   1.941   4.178  1.0349  0.6789 -1.0159
 7489SOL    HW329723   3.608   1.887   4.044 -0.8305 -1.0188  0.2028
 7489SOL    MW429724   3.604   1.949   4.105  0.1907 -0.6620 -0.0817
 7490SOL     OW29725   2.113   0.332   2.832 -0.7503  0.3491 -0.7596
 7490SOL    HW229726   2.031   0.373   2.805 -1.0353 -0.6191 -1.4191
 7490SOL    HW329727   2.151   0.393   2.895 -0.7347  2.0155 -2.3340
 7490SOL    MW429728   2.107   0.345   2.837 -0.0582  0.1325  0.3545
 7491SOL     OW29729   5.529   1.526   4.986 -0.3103 -0.3315  0.0243
 7491SOL    HW229730   5.530   1.438   5.024 -1.5817  0.3547  1.7242
 7491SOL    HW329731   5.564   1.582   5.055  1.5647  0.4116 -1.4383
 7491SOL    MW429732   5.534   1.522   5.000 -0.0441 -0.5424  0.3552
 7492SOL     OW29733   3.871   5.724   3.921  0.2585 -0.3248  0.0345
 7492SOL    HW229734   3.791   5.773   3.903  0.9235  0.9913  0.5329
 7492SOL    HW329735   3.882   5.729   4.016  1.6009  0.6268 -0.1407
 7492SOL    MW429736   3.862   5.731   3.931  0.2203 -0.1614 -0.3189
 7493SOL     OW29737   3.065   1.781   1.327 -0.0914 -0.7123  0.3265
 7493SOL    HW229738   3.159   1.768   1.342  0.7926  3.2165 -0.8261
 7493SOL    HW329739   3.040   1.850   1.388 -1.9451 -0.8348 -0.2430
 7493SOL    MW429740   3.074   1.788   1.337 -0.1155  0.0500 -0.4797
 7494SOL     OW29741   1.324   2.016   5.443  0.3565  0.0828  0.2087
 7494SOL    HW229742   1.335   2.060   5.527 -0.0840 -1.7352  1.2701
 7494SOL    HW329743   1.235   2.038   5.415  0.2432  0.1096  0.5871
 7494SOL    MW429744   1.314   2.024   5.450  0.5692 -0.4670  0.1164
 7495SOL     OW29745   3.343   6.083   5.208 -0.0032  0.6587 -0.6700
 7495SOL    HW229746   3.295   6.071   5.290  0.8934  1.3207 -0.0291
 7495SOL    HW329747   3.326   6.174   5.183  0.8687  0.8855 -0.4613
 7495SOL    MW429748   3.334   6.094   5.215 -0.3823 -0.1066  0.1085
 7496SOL     OW29749   2.911   5.491   0.104  0.6124 -0.2204  0.5232
 7496SOL    HW229750   2.976   5.426   0.130 -1.0463 -1.6876  1.2611
 7496SOL    HW329751   2.959   5.573   0.101  2.8888 -1.5035 -0.8587
 7496SOL    MW429752   2.926   5.493   0.107  0.3127 -0.1596 -0.1493
 7497SOL     OW29753   5.270   5.959   1.980 -0.4172  0.0988 -0.2646
 7497SOL    HW229754   5.342   5.983   2.038 -0.7034 -1.7823  0.9351
 7497SOL    HW329755   5.310   5.956   1.893  0.8101 -0.2972  0.2925
 7497SOL    MW429756   5.284   5.962   1.976  0.5382  0.2119 -0.3881
 7498SOL     OW29757   3.165   5.434   2.688  0.2943  0.4739  0.7680
 7498SOL    HW229758   3.104   5.498   2.651  1.3548  1.6131  0.9203
 7498SOL    HW329759   3.187   5.469   2.774  2.2283  0.8493  0.1630
 7498SOL    MW429760   3.160   5.447   2.694 -0.5799 -0.2034  0.0066
 7499SOL     OW29761   5.782   2.352   2.242 -0.5067  0.0895 -0.1712
 7499SOL    HW229762   5.863   2.338   2.291  0.4311  0.4508 -1.5847
 7499SOL    HW329763   5.738   2.266   2.244  0.8940 -0.6971 -1.1138
 7499SOL    MW429764   5.787   2.338   2.249 -0.0135 -0.6856 -0.0728
 7500SOL     OW29765   0.398   6.203   0.420  0.6432  0.8722 -0.2614
 7500SOL    HW229766   0.470   6.206   0.357  1.2894 -1.4321  0.2509
 7500SOL    HW329767   0.389   6.293   0.452  2.4424  1.4583 -1.2790
 7500SOL    MW429768   0.406   6.215   0.416 -0.1699 -0.3742  0.3709
 7501SOL     OW29769   6.113   2.318   5.528  0.2922  0.3814 -0.0566
 7501SOL    HW229770   6.130   2.394   5.472 -0.3643  1.5767  1.3046
 7501SOL    HW329771   6.141   2.243   5.475 -3.1952  1.0913 -3.3022
 7501SOL    MW429772   6.119   2.318   5.514 -0.1176  0.2957 -0.2706
 7502SOL     OW29773   5.319   0.735   0.249  0.1497  0.0823 -0.3129
 7502SOL    HW229774   5.409   0.713   0.274  0.6629  1.6784 -0.6511
 7502SOL    HW329775   5.272   0.742   0.332  0.5632  0.1648 -0.0837
 7502SOL    MW429776   5.325   0.733   0.263  0.1245  0.8974  0.2647
 7503SOL     OW29777   1.087   1.961   1.329 -0.5379 -0.1046  0.2618
 7503SOL    HW229778   1.035   1.946   1.250 -1.4935  0.0510  0.8432
 7503SOL    HW329779   1.070   1.885   1.384 -0.0460 -0.1089  0.4137
 7503SOL    MW429780   1.078   1.949   1.326 -0.5235  0.1389  0.1153
 7504SOL     OW29781   3.670   3.196   0.357 -0.0603  0.2114  0.1523
 7504SOL    HW229782   3.710   3.274   0.396  1.3875 -0.0225 -0.7829
 7504SOL    HW329783   3.600   3.172   0.418  0.7579  1.0801  1.4906
 7504SOL    MW429784   3.666   3.203   0.370  0.1394 -0.2873  0.7991
 7505SOL     OW29785   2.914   0.591   1.843  0.1589 -0.2827  0.2012
 7505SOL    HW229786   2.839   0.574   1.901 -1.3852  0.9945 -1.3215
 7505SOL    HW329787   2.950   0.673   1.875  1.3414 -1.1782  1.2914
 7505SOL    MW429788   2.909   0.599   1.855  0.1088  0.0558  0.2001
 7506SOL     OW29789   5.416   6.131   4.588 -0.0416  0.4822 -0.1025
 7506SOL    HW229790   5.424   6.161   4.679  0.7844 -1.1530  0.4006
 7506SOL    HW329791   5.415   6.211   4.537  0.6164  1.4186  1.2763
 7506SOL    MW429792   5.417   6.145   4.594 -0.2338 -0.2279 -0.1965
 7507SOL     OW29793   2.133   4.297   0.436  0.1954 -0.4996 -0.7247
 7507SOL    HW229794   2.126   4.344   0.353  0.5376  1.7011  0.4362
 7507SOL    HW329795   2.165   4.362   0.499  1.8612 -2.5813  0.7389
 7507SOL    MW429796   2.136   4.312   0.433  0.0429 -0.0320 -0.2650
 7508SOL     OW29797   2.419   6.082   4.694  0.5451  0.5443  0.0480
 7508SOL    HW229798   2.485   6.013   4.689 -0.2440 -0.1489 -1.6284
 7508SOL    HW329799   2.400   6.090   4.787  1.5630 -0.6192  0.3862
 7508SOL    MW429800   2.425   6.074   4.706 -0.3993 -0.5492  0.0205
 7509SOL     OW29801   0.419   3.655   6.330  0.3714  0.5952  0.6767
 7509SOL    HW229802   0.486   3.597   6.291  0.8063  0.8281  1.0741
 7509SOL    HW329803   0.376   3.600   6.395  0.9199  0.7675  1.1966
 7509SOL    MW429804   0.422   3.640   6.333  0.4790 -0.4338 -0.1969
 7510SOL     OW29805   3.241   1.090   0.268 -0.2514  0.2495 -0.1320
 7510SOL    HW229806   3.225   1.121   0.358  2.6251  0.7369  0.2957
 7510SOL    HW329807   3.192   1.152   0.214 -0.5580  1.0689  1.0215
 7510SOL    MW429808   3.232   1.103   0.273  0.4287 -0.7253  0.4654
 7511SOL     OW29809   4.115   4.987   2.042 -0.4901  0.2832  0.2435
 7511SOL    HW229810   4.180   5.057   2.040 -0.1570  0.0423  1.6981
 7511SOL    HW329811   4.056   5.008   1.969 -1.1405  2.8071  1.3819
 7511SOL    MW429812   4.116   4.999   2.032 -0.4525  0.3718 -0.3527
 7512SOL     OW29813   2.125   3.355   4.952 -0.6659 -0.7899 -0.3404
 7512SOL    HW229814   2.154   3.272   4.990  0.1736 -0.7418 -0.8580
 7512SOL    HW329815   2.094   3.405   5.027  1.6227 -0.4262  0.4342
 7512SOL    MW429816   2.125   3.350   4.967  0.3437  0.2691  0.3400
 7513SOL     OW29817   5.222   1.808   1.852 -0.1002 -0.4103  0.0124
 7513SOL    HW229818   5.156   1.760   1.902 -0.0997  1.1375  1.6034
 7513SOL    HW329819   5.235   1.755   1.773 -2.0539 -1.5800  0.3957
 7513SOL    MW429820   5.215   1.794   1.848 -0.2019  0.2483 -0.9122
 7514SOL     OW29821   1.337   0.459   3.533  0.0038  0.2825 -0.7336
 7514SOL    HW229822   1.250   0.496   3.545  0.2422  0.5355  0.3156
 7514SOL    HW329823   1.389   0.529   3.493 -0.4794 -0.1524 -2.1761
 7514SOL    MW429824   1.333   0.473   3.529 -0.3885  0.5352 -0.2109
 7515SOL     OW29825   2.300   2.449   0.829  0.1798 -0.2848 -0.1363
 7515SOL    HW229826   2.312   2.355   0.814 -1.6202 -0.5616 -0.0124
 7515SOL    HW329827   2.300   2.487   0.741 -4.2874 -1.1418 -0.7594
 7515SOL    MW429828   2.302   2.442   0.816 -0.6060 -0.1740  0.7132
 7516SOL     OW29829   3.907   5.124   2.798  0.2891  0.4093 -0.3901
 7516SOL    HW229830   3.928   5.062   2.867 -0.7433  0.3705 -0.0837
 7516SOL    HW329831   3.960   5.201   2.818  3.7067 -1.2303 -2.3214
 7516SOL    MW429832   3.917   5.126   2.810 -0.0235  0.6512 -0.2455
 7517SOL     OW29833   5.349   6.270   1.310  0.1992  0.0499 -0.0757
 7517SOL    HW229834   5.328   6.362   1.322 -0.6651 -0.1814  0.2712
 7517SOL    HW329835   5.364   6.261   1.216 -1.1617  0.2755 -0.3397
 7517SOL    MW429836   5.348   6.281   1.299  0.0495 -0.9170  0.2026
 7518SOL     OW29837   5.016   1.834   5.030  0.2020 -0.2696  0.2501
 7518SOL    HW229838   5.026   1.821   4.935 -1.1634 -0.7578  0.1456
 7518SOL    HW329839   5.105   1.834   5.064  0.6947 -0.4671 -0.9957
 7518SOL    MW429840   5.029   1.832   5.022  0.9215  0.0229 -0.1919
 7519SOL     OW29841   6.180   0.431   5.708 -0.7387  0.1818 -0.0630
 7519SOL    HW229842   6.162   0.458   5.798  0.1926  0.2438  0.1092
 7519SOL    HW329843   6.199   0.512   5.661  2.8342 -0.0872  0.6272
 7519SOL    MW429844   6.180   0.445   5.714  0.2056 -0.1568  0.5221
 7520SOL     OW29845   4.447   2.402   0.317 -0.1655 -0.9148 -0.0161
 7520SOL    HW229846   4.357   2.383   0.345 -0.4884  1.5420  0.8199
 7520SOL    HW329847   4.436   2.449   0.234  0.4988 -2.4055 -0.9940
 7520SOL    MW429848   4.434   2.406   0.310 -0.0420  0.0371 -0.1043
 7521SOL     OW29849   2.775   2.174   1.590  0.1441 -0.6361  0.6100
 7521SOL    HW229850   2.839   2.110   1.559 -0.1219  0.0726 -1.5742
 7521SOL    HW329851   2.829   2.250   1.614  0.2598 -0.6457  0.3919
 7521SOL    MW429852   2.791   2.176   1.589 -0.1648 -0.6122 -0.1287
 7522SOL     OW29853   0.336   2.961   1.480  0.2325 -0.3941 -0.3816
 7522SOL    HW229854   0.359   3.041   1.528 -0.6477 -0.3585  0.0013
 7522SOL    HW329855   0.256   2.984   1.432  0.4067 -0.8133 -0.8818
 7522SOL    MW429856   0.329   2.974   1.480 -0.0504  0.4542  0.4681
 7523SOL     OW29857   1.652   3.073   6.014 -0.0270  0.0262  0.4163
 7523SOL    HW229858   1.742   3.042   6.020  1.1532  2.6417 -1.6533
 7523SOL    HW329859   1.631   3.068   5.920 -1.2651  1.4320  0.5857
 7523SOL    MW429860   1.661   3.068   6.002 -0.3134  0.6480  0.5494
 7524SOL     OW29861   4.879   5.775   5.148  0.1632 -0.5021  0.0246
 7524SOL    HW229862   4.787   5.750   5.137 -0.3148  0.8717  0.6142
 7524SOL    HW329863   4.877   5.844   5.214  1.7195 -0.9853  0.6242
 7524SOL    MW429864   4.867   5.781   5.155 -0.2763 -0.7875  0.5569
 7525SOL     OW29865   1.104   4.474   2.079  0.2743 -0.2178 -0.2545
 7525SOL    HW229866   1.120   4.380   2.092 -2.4255 -0.6804  0.3635
 7525SOL    HW329867   1.027   4.477   2.021  1.3504  1.6730 -1.6955
 7525SOL    MW429868   1.096   4.462   2.073  0.1384 -0.2825  0.0687
 7526SOL     OW29869   6.403   1.309   3.859  0.4767  0.3283 -0.1059
 7526SOL    HW229870   6.360   1.267   3.785 -0.2233 -0.9802  0.9961
 7526SOL    HW329871   6.491   1.272   3.861 -0.0550 -0.9651  0.7044
 7526SOL    MW429872   6.408   1.298   3.850  0.2545 -0.5826 -0.3401
 7527SOL     OW29873   0.428   0.011   5.489 -0.5410  0.1115 -0.5774
 7527SOL    HW229874   0.358   0.013   5.423  0.0076 -0.1514 -1.1779
 7527SOL    HW329875   0.416  -0.073   5.533 -0.0036 -0.3804 -1.3515
 7527SOL    MW429876   0.417  -0.000   5.486 -0.1443 -0.1099  0.3652
 7528SOL     OW29877   3.311   1.598   0.612 -0.5484 -0.0271 -0.4996
 7528SOL    HW229878   3.343   1.571   0.526  0.1144 -0.8234 -0.0142
 7528SOL    HW329879   3.351   1.536   0.673 -2.9472 -1.0517  0.1511
 7528SOL    MW429880   3.320   1.586   0.608 -0.9548 -0.0565 -0.2985
 7529SOL     OW29881   5.196   3.116   0.405 -0.4470  0.2776 -0.3139
 7529SOL    HW229882   5.208   3.139   0.313  0.2142  2.6565  0.2742
 7529SOL    HW329883   5.124   3.172   0.434 -2.1006 -1.9756  0.1687
 7529SOL    MW429884   5.188   3.127   0.397  0.1081  0.0307 -0.1054
 7530SOL     OW29885   2.968   5.113   3.562  0.7516 -0.0528 -0.9004
 7530SOL    HW229886   3.041   5.064   3.600 -0.1005 -0.3158  0.4492
 7530SOL    HW329887   2.894   5.052   3.565  0.1896  0.6024 -1.1685
 7530SOL    MW429888   2.968   5.098   3.567 -0.3142  0.7354  0.2950
 7531SOL     OW29889   5.969   0.035   6.245  0.0594 -1.1890  0.3818
 7531SOL    HW229890   6.017   0.027   6.162 -0.8938 -1.2252 -0.1846
 7531SOL    HW329891   5.996   0.120   6.280 -1.9830  0.4620 -1.6413
 7531SOL    MW429892   5.979   0.045   6.239 -0.3405 -0.3037  0.1427
 7532SOL     OW29893   5.032   2.570   4.040  0.1363 -0.2605  0.3986
 7532SOL    HW229894   5.118   2.602   4.068 -0.2322  0.6851  0.5046
 7532SOL    HW329895   5.024   2.601   3.949 -1.0267  1.7048  1.1180
 7532SOL    MW429896   5.043   2.579   4.031  0.1165 -0.5978 -0.0851
 7533SOL     OW29897   3.357   5.879   3.553 -0.2063 -0.0676  0.7441
 7533SOL    HW229898   3.429   5.816   3.550 -0.6609 -0.5647 -1.8920
 7533SOL    HW329899   3.397   5.962   3.529 -0.3553 -0.1704  0.1412
 7533SOL    MW429900   3.372   5.882   3.550  0.3718 -0.0203  0.2626
 7534SOL     OW29901   3.209   6.113   2.369  0.3223 -0.1610  0.0024
 7534SOL    HW229902   3.126   6.155   2.393 -0.3652 -1.2864 -0.3378
 7534SOL    HW329903   3.213   6.034   2.423  0.8838 -0.4342 -0.4252
 7534SOL    MW429904   3.199   6.108   2.379 -0.7788 -0.2432  0.2172
 7535SOL     OW29905   1.099   5.726   2.321 -0.3117 -0.5548  0.2881
 7535SOL    HW229906   1.063   5.721   2.409 -1.5961  0.0586 -0.1658
 7535SOL    HW329907   1.028   5.695   2.264  0.2353 -0.2712 -0.5787
 7535SOL    MW429908   1.085   5.721   2.325 -0.2110 -0.3893  0.1481
 7536SOL     OW29909   2.390   5.662   1.518 -0.1069 -0.1846 -0.1591
 7536SOL    HW229910   2.325   5.732   1.517 -0.0022 -0.0884 -0.2889
 7536SOL    HW329911   2.436   5.674   1.601  0.6206  0.5605 -0.6542
 7536SOL    MW429912   2.388   5.673   1.529 -0.4299 -0.3692  0.2240
 7537SOL     OW29913   6.257   4.014   2.813  0.2331 -0.2235 -0.3798
 7537SOL    HW229914   6.352   4.029   2.807  0.6996 -2.6732  0.0019
 7537SOL    HW329915   6.224   4.092   2.858  2.2382  0.1439  0.6035
 7537SOL    MW429916   6.265   4.026   2.818 -0.4812 -0.3481 -0.2616
 7538SOL     OW29917   1.206   2.296   5.196 -0.2149  0.2683  0.4102
 7538SOL    HW229918   1.292   2.274   5.161 -0.5949 -1.0528  0.2663
 7538SOL    HW329919   1.162   2.341   5.124  0.0578  0.1978  0.1974
 7538SOL    MW429920   1.211   2.299   5.182 -0.3275 -0.7636  0.9101
 7539SOL     OW29921   0.842   5.129   4.863 -0.1690 -0.2287 -0.2459
 7539SOL    HW229922   0.841   5.220   4.834  2.3797  0.0019  0.1638
 7539SOL    HW329923   0.782   5.128   4.938 -0.1962  1.1221 -0.2186
 7539SOL    MW429924   0.834   5.141   4.869 -0.1659 -0.6484 -0.5318
 7540SOL     OW29925   0.983   1.065   0.366 -0.9619 -0.0833 -0.1217
 7540SOL    HW229926   0.932   1.015   0.430 -0.2000  0.8410  1.2691
 7540SOL    HW329927   1.065   1.084   0.411 -0.6936  1.2304 -1.1085
 7540SOL    MW429928   0.987   1.061   0.381 -0.5610 -0.0645 -0.0128
 7541SOL     OW29929   0.500   5.681   2.076 -0.4428  0.1792 -0.5959
 7541SOL    HW229930   0.524   5.744   2.145 -0.8192  0.0359 -0.3343
 7541SOL    HW329931   0.552   5.603   2.097 -0.4878  0.1673 -0.5311
 7541SOL    MW429932   0.510   5.679   2.088 -0.1197 -0.5087 -0.0121
 7542SOL     OW29933   6.289   3.154   4.283  0.2148 -0.2610  0.4872
 7542SOL    HW229934   6.359   3.210   4.314 -0.4896 -0.1644  1.9717
 7542SOL    HW329935   6.294   3.161   4.187  0.3254  2.1323  0.5935
 7542SOL    MW429936   6.299   3.162   4.274  0.2602 -0.0409  0.2250
 7543SOL     OW29937   5.535   4.658   5.908  0.1778 -0.1360  0.4882
 7543SOL    HW229938   5.594   4.601   5.958 -1.2299 -1.1815  1.0357
 7543SOL    HW329939   5.474   4.692   5.973 -1.1460 -0.8107 -0.3441
 7543SOL    MW429940   5.535   4.655   5.923  0.4629 -0.4204 -0.4680
 7544SOL     OW29941   6.165   3.455   1.993 -0.3108 -0.3224  0.6463
 7544SOL    HW229942   6.088   3.399   2.003 -0.0650 -0.8954 -0.5535
 7544SOL    HW329943   6.237   3.404   2.029 -0.1732 -0.5819  0.0144
 7544SOL    MW429944   6.164   3.441   1.999  0.0045  0.3191  0.2698
 7545SOL     OW29945   3.049   0.350   1.430 -0.0653  0.8617 -0.2028
 7545SOL    HW229946   3.025   0.323   1.341  0.9060 -0.1402 -0.1753
 7545SOL    HW329947   3.095   0.433   1.418  0.1576  0.6754 -0.6428
 7545SOL    MW429948   3.052   0.357   1.417  0.3948 -0.1908 -0.1439
 7546SOL     OW29949   2.481   4.487   3.691  0.5122 -0.1755 -0.2043
 7546SOL    HW229950   2.426   4.514   3.765  0.9884  2.3002 -0.6590
 7546SOL    HW329951   2.550   4.434   3.730  1.0192  1.4510  1.2532
 7546SOL    MW429952   2.483   4.483   3.706  0.2073 -0.5051  0.4419
 7547SOL     OW29953   3.188   0.824   5.498  0.3769 -0.0261 -0.1625
 7547SOL    HW229954   3.216   0.884   5.429  1.5895  2.5407  2.3623
 7547SOL    HW329955   3.093   0.831   5.498  0.4491  1.1454 -0.5478
 7547SOL    MW429956   3.179   0.833   5.489 -0.1750 -0.3197 -0.0814
 7548SOL     OW29957   6.299   2.016   2.155 -0.1029  0.7020 -0.3889
 7548SOL    HW229958   6.270   2.102   2.184  2.5456  1.8372 -0.9033
 7548SOL    HW329959   6.292   2.019   2.059 -0.7071  0.0431 -0.3774
 7548SOL    MW429960   6.294   2.028   2.146  0.4675 -0.2917  0.4632
 7549SOL     OW29961   5.943   5.343   6.149  0.3577 -0.3255  0.7015
 7549SOL    HW229962   5.934   5.437   6.162  0.3381 -0.3194  0.6471
 7549SOL    HW329963   6.015   5.317   6.206  0.6062 -0.2149  0.4428
 7549SOL    MW429964   5.951   5.352   6.158 -0.2140  0.2390  0.0846
 7550SOL     OW29965   3.059   4.991   1.998  0.2919  0.0619 -0.5571
 7550SOL    HW229966   3.088   4.993   1.907  0.4190  0.3250 -0.5101
 7550SOL    HW329967   2.982   5.048   2.000  1.3637  1.5422 -0.1238
 7550SOL    MW429968   3.052   4.999   1.987 -0.1008  0.2503 -0.2648
 7551SOL     OW29969   2.839   1.558   3.619  0.4113 -0.1726 -0.4374
 7551SOL    HW229970   2.781   1.519   3.683 -0.3070 -0.4611 -1.2564
 7551SOL    HW329971   2.781   1.603   3.557  1.1487  1.2290 -0.1648
 7551SOL    MW429972   2.824   1.559   3.619 -0.1102 -0.4488  0.2972
 7552SOL     OW29973   3.251   0.651   4.533  0.0645 -0.1076 -0.0620
 7552SOL    HW229974   3.170   0.663   4.483 -0.0088  1.5106  0.3918
 7552SOL    HW329975   3.315   0.622   4.468 -0.3516  0.6967 -0.8551
 7552SOL    MW429976   3.249   0.648   4.517 -0.1341  0.6557 -0.0717
 7553SOL     OW29977   0.511   5.716   1.709  0.5851  0.3170 -0.5210
 7553SOL    HW229978   0.487   5.794   1.760  1.2746  1.2223 -1.5416
 7553SOL    HW329979   0.553   5.750   1.630 -2.3467 -0.9192 -2.8207
 7553SOL    MW429980   0.513   5.731   1.705 -0.0339 -0.3533  0.6460
 7554SOL     OW29981   3.195   5.465   1.560 -0.2421  0.7196  0.1964
 7554SOL    HW229982   3.176   5.480   1.467 -1.7246 -3.2699 -0.3240
 7554SOL    HW329983   3.283   5.427   1.561 -0.5454  0.0059  0.3073
 7554SOL    MW429984   3.204   5.462   1.548 -0.2155  0.2157  0.1212
 7555SOL     OW29985   6.094   3.713   1.446 -0.2608 -0.4293  0.0092
 7555SOL    HW229986   6.009   3.749   1.471 -0.2807 -0.7188  0.3691
 7555SOL    HW329987   6.080   3.618   1.443 -0.3406 -0.3892 -1.4318
 7555SOL    MW429988   6.081   3.705   1.449 -0.1261  0.1141 -0.0149
 7556SOL     OW29989   3.591   1.191   4.374 -0.4644  0.0522  0.5100
 7556SOL    HW229990   3.535   1.260   4.410  0.7666  0.5007  1.6672
 7556SOL    HW329991   3.540   1.110   4.386 -1.8835  0.7159 -0.7780
 7556SOL    MW429992   3.577   1.189   4.381  0.1850  0.1122 -0.6852
 7557SOL     OW29993   4.052   4.724   0.582 -0.0769  0.1187 -0.2179
 7557SOL    HW229994   4.070   4.817   0.597  1.0070  0.0013 -0.6546
 7557SOL    HW329995   4.126   4.679   0.622 -0.8868 -0.6075  0.5057
 7557SOL    MW429996   4.064   4.730   0.589 -0.0331 -0.1562 -0.1472
 7558SOL     OW29997   2.194   3.715   2.835 -0.0321  1.0427  0.0614
 7558SOL    HW229998   2.250   3.785   2.867 -1.1876  2.0969 -0.1448
 7558SOL    HW329999   2.135   3.695   2.908  0.8392 -0.3385  0.4179
 7558SOL    MW430000   2.193   3.722   2.849  0.4987 -0.8497 -0.0386
 7559SOL     OW30001   3.849   1.269   4.911  0.8946  0.0312 -0.2490
 7559SOL    HW230002   3.896   1.248   4.991  0.9372 -0.9776 -0.5289
 7559SOL    HW330003   3.885   1.354   4.884  1.2277  0.1440  0.5217
 7559SOL    MW430004   3.860   1.278   4.918 -0.0866  0.1978 -0.5090
 7560SOL     OW30005   5.061   1.754   5.445  0.4203  0.2174 -0.3617
 7560SOL    HW230006   5.132   1.734   5.384  0.6947  1.9022 -0.6478
 7560SOL    HW330007   5.073   1.846   5.466  0.0541 -0.1917  1.9124
 7560SOL    MW430008   5.072   1.763   5.440 -0.2348 -0.3067  0.2835
 7561SOL     OW30009   6.094   6.252   6.018 -0.0644 -0.1970  0.5146
 7561SOL    HW230010   6.188   6.263   6.025 -0.5141  3.9504  3.8306
 7561SOL    HW330011   6.074   6.173   6.069  1.4270  0.7591  2.6869
 7561SOL    MW430012   6.104   6.243   6.025  0.9293 -0.6149  0.1268
 7562SOL     OW30013   3.548   2.919   0.680 -0.6021  0.0902  0.2818
 7562SOL    HW230014   3.632   2.873   0.674 -0.1715  0.8921 -0.1875
 7562SOL    HW330015   3.487   2.856   0.716 -0.4137 -1.3506 -1.7398
 7562SOL    MW430016   3.551   2.905   0.684  0.5366 -0.2541  0.2527
 7563SOL     OW30017   4.974   0.141   3.925  0.1320  0.0829  0.0021
 7563SOL    HW230018   4.924   0.213   3.888 -0.1060 -0.0106  0.1441
 7563SOL    HW330019   4.929   0.062   3.895  0.5631 -0.0135 -0.4011
 7563SOL    MW430020   4.962   0.140   3.916  0.0143 -0.4968  0.2788
 7564SOL     OW30021   2.642   3.771   1.936  0.0188 -0.4998  0.0799
 7564SOL    HW230022   2.696   3.712   1.989  1.0989 -0.3812 -0.8527
 7564SOL    HW330023   2.578   3.713   1.893 -0.5545 -0.6528  1.1124
 7564SOL    MW430024   2.640   3.755   1.937  0.4849 -0.5580 -0.6364
 7565SOL     OW30025   5.709   5.190   6.286 -0.0048 -0.8177 -0.0086
 7565SOL    HW230026   5.764   5.142   6.348  2.2354 -0.1505 -1.3928
 7565SOL    HW330027   5.730   5.282   6.302 -0.3914 -0.5731 -0.8555
 7565SOL    MW430028   5.719   5.196   6.297 -0.1418 -0.0888  0.4248
 7566SOL     OW30029   6.213   1.544   1.562  0.0547 -0.3159  0.1083
 7566SOL    HW230030   6.258   1.500   1.634  0.1264 -0.2983  0.0741
 7566SOL    HW330031   6.120   1.542   1.587  0.3291  2.4526  1.7180
 7566SOL    MW430032   6.207   1.538   1.575 -0.0364 -0.1203 -0.2874
 7567SOL     OW30033   6.129   2.563   1.644  0.0767  0.4536  0.3225
 7567SOL    HW230034   6.044   2.545   1.603 -0.0156  0.0745  0.6693
 7567SOL    HW330035   6.107   2.598   1.730  0.2445 -1.0377  1.0163
 7567SOL    MW430036   6.114   2.565   1.650  0.3346 -0.7628  0.9161
 7568SOL     OW30037   1.664   0.427   3.666  0.2057  0.0014 -0.2354
 7568SOL    HW230038   1.670   0.449   3.573  0.9612 -0.8146 -0.3920
 7568SOL    HW330039   1.754   0.412   3.692  0.0279  0.5384  0.7228
 7568SOL    MW430040   1.677   0.428   3.657  0.1561  0.5435 -0.2707
 7569SOL     OW30041   1.587   2.152   6.076 -0.2439  0.5807  0.5829
 7569SOL    HW230042   1.517   2.192   6.024  0.4874  1.0341 -0.0828
 7569SOL    HW330043   1.661   2.147   6.016 -0.7084 -3.2692  0.1074
 7569SOL    MW430044   1.587   2.157   6.061 -0.2587 -0.1290  0.0353
 7570SOL     OW30045   5.835   6.045   4.861 -0.3446 -0.1010  0.4438
 7570SOL    HW230046   5.805   6.125   4.817 -0.1712 -0.3938 -0.2184
 7570SOL    HW330047   5.763   6.022   4.921  0.5526  1.8451  2.4117
 7570SOL    MW430048   5.821   6.053   4.863 -0.4679 -0.7380  0.2179
 7571SOL     OW30049   1.402   4.672   0.066  0.0236 -0.0293 -0.1258
 7571SOL    HW230050   1.442   4.624  -0.006 -0.9336  0.3954 -0.9670
 7571SOL    HW330051   1.358   4.604   0.118  1.4906 -0.4555  0.6246
 7571SOL    MW430052   1.401   4.656   0.063 -0.2603 -0.0604 -0.5580
 7572SOL     OW30053   3.465   2.866   0.344  0.3484  0.6147 -0.5776
 7572SOL    HW230054   3.560   2.865   0.355  0.4070  3.0490 -0.4378
 7572SOL    HW330055   3.451   2.842   0.252  1.3141  2.7254 -1.3417
 7572SOL    MW430056   3.476   2.862   0.333 -0.5122 -0.6912 -0.2702
 7573SOL     OW30057   4.232   2.850   1.322 -0.0410  0.0704 -0.0155
 7573SOL    HW230058   4.137   2.856   1.315 -0.0579 -0.4120 -0.1914
 7573SOL    HW330059   4.253   2.761   1.294  0.4342  0.0670  0.3426
 7573SOL    MW430060   4.223   2.839   1.317 -0.5040 -0.2690  0.7931
 7574SOL     OW30061   3.697   1.170   0.112  0.4894  0.3494  0.0309
 7574SOL    HW230062   3.790   1.191   0.122  0.8360 -1.2843  0.5954
 7574SOL    HW330063   3.696   1.094   0.054 -0.3993 -0.2984  0.8621
 7574SOL    MW430064   3.709   1.163   0.106 -0.2706 -0.4273 -0.1667
 7575SOL     OW30065   4.408   4.007   6.356 -0.1383 -0.3172 -0.2647
 7575SOL    HW230066   4.414   4.076   6.290  0.3360  0.1413  0.2454
 7575SOL    HW330067   4.315   3.983   6.358 -0.4248  0.7897  0.0385
 7575SOL    MW430068   4.397   4.013   6.347 -0.2984 -0.2844 -0.3089
 7576SOL     OW30069   0.205   4.956   2.527  0.4553 -0.2912 -0.3615
 7576SOL    HW230070   0.149   4.921   2.596  0.7342 -0.1018 -0.0372
 7576SOL    HW330071   0.262   4.884   2.502  0.2158 -0.4202 -0.5405
 7576SOL    MW430072   0.205   4.942   2.533  0.1371  0.2225  0.0114
 7577SOL     OW30073   4.117   2.073   0.594 -0.0427  0.4167 -0.0054
 7577SOL    HW230074   4.175   2.003   0.565  0.4812  0.6479  0.4612
 7577SOL    HW330075   4.143   2.149   0.542  0.3406  0.6167  0.4615
 7577SOL    MW430076   4.128   2.074   0.583 -0.4777 -0.0426  0.2346
 7578SOL     OW30077   3.212   2.993   1.935  0.2919  0.0959  0.1554
 7578SOL    HW230078   3.287   3.047   1.960 -0.5924  1.0452  0.7951
 7578SOL    HW330079   3.241   2.903   1.953  1.8333  0.3065 -1.0746
 7578SOL    MW430080   3.226   2.988   1.941  0.5235 -0.2904 -0.3433
 7579SOL     OW30081   5.110   0.168   3.360 -0.0342 -0.1830 -0.7486
 7579SOL    HW230082   5.058   0.114   3.300 -3.1770 -1.0271  2.3563
 7579SOL    HW330083   5.071   0.255   3.353 -1.4022 -0.5996  0.8853
 7579SOL    MW430084   5.098   0.172   3.351  0.4034  0.2603 -0.2805
 7580SOL     OW30085   6.304   1.383   3.453  0.1358  0.6848 -0.0784
 7580SOL    HW230086   6.356   1.461   3.432 -0.2056  0.8534 -0.3057
 7580SOL    HW330087   6.280   1.347   3.368  0.2220  0.3751  0.0280
 7580SOL    MW430088   6.308   1.389   3.439 -0.2510  0.2716  0.3985
 7581SOL     OW30089   4.486   2.300   3.402  0.1994  0.4266  0.3095
 7581SOL    HW230090   4.483   2.204   3.398 -0.7342  0.4774 -0.6104
 7581SOL    HW330091   4.448   2.329   3.319  0.0209  1.6035  0.7806
 7581SOL    MW430092   4.481   2.291   3.390 -0.5952 -0.3586  0.1342
 7582SOL     OW30093   4.056   6.093   0.479 -0.1831  0.4807 -0.1045
 7582SOL    HW230094   4.045   6.174   0.528 -0.6432 -0.4505  1.4095
 7582SOL    HW330095   4.071   6.026   0.546  1.8312 -0.4510 -1.3814
 7582SOL    MW430096   4.056   6.095   0.494 -0.1912 -0.2416  0.4886
 7583SOL     OW30097   1.658   2.652   1.705 -0.2276 -0.5490 -0.5290
 7583SOL    HW230098   1.747   2.656   1.739  0.4014 -1.3763 -1.9817
 7583SOL    HW330099   1.604   2.691   1.773  1.1617 -0.6873  0.6902
 7583SOL    MW430100   1.663   2.657   1.718 -0.1194  0.2697  0.2873
 7584SOL     OW30101   3.028   3.131   4.064 -0.1088  0.3771  0.1643
 7584SOL    HW230102   2.979   3.083   3.998 -0.6627  1.1545 -0.0063
 7584SOL    HW330103   3.120   3.109   4.046 -0.2235  0.8033 -1.0669
 7584SOL    MW430104   3.034   3.122   4.053 -0.1620  0.7786 -0.2854
 7585SOL     OW30105   5.744   5.250   1.085  0.3267  0.6404 -0.0136
 7585SOL    HW230106   5.689   5.327   1.096  1.3932  1.4456 -0.1268
 7585SOL    HW330107   5.730   5.198   1.164  0.3448  1.4369  0.5195
 7585SOL    MW430108   5.735   5.254   1.097 -0.8320  0.0411  0.2133
 7586SOL     OW30109   4.753   3.424   4.629  0.5065 -0.4475  0.1818
 7586SOL    HW230110   4.782   3.368   4.557 -1.2503  0.7344 -1.5465
 7586SOL    HW330111   4.675   3.468   4.595  1.2364  2.3214  1.7978
 7586SOL    MW430112   4.747   3.422   4.615 -0.1191  0.1202 -0.5949
 7587SOL     OW30113   4.458   5.572   3.406 -0.1543 -0.1436  0.2955
 7587SOL    HW230114   4.405   5.498   3.376  0.9780 -0.5082 -0.8859
 7587SOL    HW330115   4.442   5.640   3.342  1.1787 -0.4336 -0.3760
 7587SOL    MW430116   4.449   5.571   3.394  0.3743  0.2814  0.3025
 7588SOL     OW30117   5.833   0.120   3.548  0.4461 -0.0985  0.1863
 7588SOL    HW230118   5.898   0.107   3.478 -0.1155 -0.4188 -0.2915
 7588SOL    HW330119   5.808   0.031   3.574 -0.7476 -0.0123 -0.5555
 7588SOL    MW430120   5.838   0.106   3.542  0.3053  0.6414 -0.4737
 7589SOL     OW30121   2.218   4.162   2.320  0.2935  0.2343 -0.0719
 7589SOL    HW230122   2.194   4.075   2.352 -1.5391  1.0076  0.8140
 7589SOL    HW330123   2.205   4.157   2.225 -0.6818 -0.2035  0.0760
 7589SOL    MW430124   2.213   4.150   2.311  0.3593  0.1080  0.1725
 7590SOL     OW30125   4.605   6.383   6.136  0.0488 -0.2290  0.6669
 7590SOL    HW230126   4.638   6.472   6.124  0.4520 -0.7219 -3.1905
 7590SOL    HW330127   4.513   6.395   6.162  0.4894  1.2412  1.6889
 7590SOL    MW430128   4.597   6.396   6.138  0.1048 -0.1326 -0.0127
 7591SOL     OW30129   5.091   2.763   5.746 -0.4843  0.2143  0.7863
 7591SOL    HW230130   5.122   2.847   5.779 -1.1449  1.1178 -0.7879
 7591SOL    HW330131   5.008   2.747   5.791 -0.5097  0.5523  0.8550
 7591SOL    MW430132   5.084   2.772   5.756 -0.9550 -0.5716  0.8386
 7592SOL     OW30133   4.645   4.850   2.340 -0.6634 -0.3590  0.7758
 7592SOL    HW230134   4.583   4.848   2.413 -1.0383 -0.5715  0.4562
 7592SOL    HW330135   4.729   4.875   2.380 -0.5178 -1.9279  1.5356
 7592SOL    MW430136   4.648   4.853   2.355  0.2876  0.1157 -0.7221
 7593SOL     OW30137   6.287   1.751   2.323  0.2770 -0.4108  0.5615
 7593SOL    HW230138   6.288   1.833   2.275  2.4455  0.6720  2.2791
 7593SOL    HW330139   6.217   1.761   2.388  0.1991 -0.1201  0.4313
 7593SOL    MW430140   6.278   1.763   2.325 -0.6704  0.4678 -0.0233
 7594SOL     OW30141   5.315   1.079   6.074 -0.4326  0.2432  0.0840
 7594SOL    HW230142   5.410   1.071   6.075 -0.3990  0.2658  1.9289
 7594SOL    HW330143   5.284   0.998   6.033  0.3774  0.3534 -0.7639
 7594SOL    MW430144   5.323   1.067   6.069 -0.5482  0.2360 -0.0466
 7595SOL     OW30145   5.910   5.725   5.943 -0.3761  0.9220 -0.0391
 7595SOL    HW230146   5.929   5.818   5.932 -1.7726  1.0988 -1.2133
 7595SOL    HW330147   5.881   5.696   5.857  1.2772 -0.9485 -0.0331
 7595SOL    MW430148   5.909   5.734   5.930 -0.4454 -0.0198 -0.4332
 7596SOL     OW30149   0.937   1.547   6.330 -0.0916  0.4559 -0.0192
 7596SOL    HW230150   0.939   1.481   6.261  0.5701  1.4105 -0.9349
 7596SOL    HW330151   0.982   1.506   6.404  2.8405  0.8464 -1.4790
 7596SOL    MW430152   0.943   1.533   6.331 -0.0416  0.0327  0.4382
 7597SOL     OW30153   1.651   4.863   0.893  0.0295  0.9235 -0.1202
 7597SOL    HW230154   1.579   4.802   0.882  2.3039 -1.7574 -1.5453
 7597SOL    HW330155   1.631   4.935   0.833 -1.0398 -0.2132 -1.2026
 7597SOL    MW430156   1.639   4.864   0.884 -0.7404 -0.6731  0.0000
 7598SOL     OW30157   4.996   4.262   0.575 -0.5315  0.2822  0.2010
 7598SOL    HW230158   5.092   4.265   0.574 -0.5181  0.4794 -1.6443
 7598SOL    HW330159   4.970   4.347   0.609 -0.0902 -0.5125  2.7040
 7598SOL    MW430160   5.005   4.274   0.579  0.2884  0.2214  0.1898
 7599SOL     OW30161   4.499   0.655   0.815 -0.5595  0.1953 -0.5509
 7599SOL    HW230162   4.525   0.723   0.878 -0.6763 -0.5919  0.3774
 7599SOL    HW330163   4.407   0.674   0.796 -0.6822  0.1152 -0.0521
 7599SOL    MW430164   4.491   0.667   0.821 -0.2759  0.0459 -0.0134
 7600SOL     OW30165   4.172   2.753   3.981 -0.3000 -0.0077  0.3428
 7600SOL    HW230166   4.117   2.830   3.998 -2.3027 -1.3271  0.1213
 7600SOL    HW330167   4.116   2.695   3.929  0.8088 -2.0424  1.3232
 7600SOL    MW430168   4.157   2.756   3.976  0.3626  0.1310  0.1863
 7601SOL     OW30169   5.961   4.343   5.917 -0.2624  0.6266  0.2807
 7601SOL    HW230170   5.999   4.315   5.834 -0.8518  1.9026 -0.4468
 7601SOL    HW330171   5.967   4.265   5.973 -1.6772 -0.9152 -1.5744
 7601SOL    MW430172   5.967   4.329   5.913  0.0073  0.2412 -0.2009
 7602SOL     OW30173   0.781   0.549   1.675  0.0762 -0.6171  0.2690
 7602SOL    HW230174   0.778   0.594   1.590 -1.2326  0.4750  0.8618
 7602SOL    HW330175   0.693   0.514   1.686 -0.1273  0.2725  1.6886
 7602SOL    MW430176   0.769   0.551   1.665  0.9656  0.1723 -0.4098
 7603SOL     OW30177   2.396   2.619   1.024  0.1828  0.0494 -0.3613
 7603SOL    HW230178   2.371   2.570   1.102  0.9859 -0.2713 -0.2934
 7603SOL    HW330179   2.365   2.565   0.951 -0.0828  0.0831 -0.2755
 7603SOL    MW430180   2.389   2.606   1.024 -0.1462  0.1979 -0.4310
 7604SOL     OW30181   5.233   3.123   2.723  0.4811  0.5733 -0.3775
 7604SOL    HW230182   5.194   3.201   2.761  2.1289  0.9990  0.5005
 7604SOL    HW330183   5.158   3.071   2.692 -0.9989  0.2640  3.2527
 7604SOL    MW430184   5.218   3.126   2.724  0.6141  0.1508  0.0679
 7605SOL     OW30185   5.434   5.707   5.386  0.8309  0.4590 -0.0380
 7605SOL    HW230186   5.430   5.639   5.454  2.2632 -0.4138 -0.7841
 7605SOL    HW330187   5.355   5.760   5.401 -1.8239 -2.8812 -1.0215
 7605SOL    MW430188   5.423   5.705   5.397 -0.3592  0.0523  0.3196
 7606SOL     OW30189   2.768   2.427   0.732 -0.4181 -0.0955 -0.1368
 7606SOL    HW230190   2.844   2.420   0.675 -1.2801  2.0243 -1.7149
 7606SOL    HW330191   2.796   2.485   0.803  0.2638 -1.6866  0.9420
 7606SOL    MW430192   2.781   2.434   0.734  0.4921 -0.2166  0.1319
 7607SOL     OW30193   0.788   2.674   4.929 -0.0228  0.0093  0.1544
 7607SOL    HW230194   0.800   2.610   4.859 -1.0076  0.6693 -0.6482
 7607SOL    HW330195   0.771   2.757   4.883  2.0031  1.0462  1.1567
 7607SOL    MW430196   0.787   2.677   4.914 -0.0054  0.8902  0.0776
 7608SOL     OW30197   0.291   3.840   0.131  0.1752  0.3007 -0.3924
 7608SOL    HW230198   0.336   3.925   0.129  1.8387 -0.5442 -0.3828
 7608SOL    HW330199   0.264   3.826   0.040  2.5623 -0.4834 -1.0413
 7608SOL    MW430200   0.294   3.850   0.119  0.1165  0.0757  0.2464
 7609SOL     OW30201   5.378   1.358   5.644 -0.0208 -0.2267 -0.0654
 7609SOL    HW230202   5.454   1.397   5.601 -0.0158  0.6326  0.6850
 7609SOL    HW330203   5.306   1.417   5.623 -0.0383  0.1414  0.9978
 7609SOL    MW430204   5.379   1.371   5.635  0.0494 -0.6791 -0.6723
 7610SOL     OW30205   2.683   5.881   1.388 -0.2723 -0.1292  0.0420
 7610SOL    HW230206   2.658   5.822   1.318  0.6614  0.0972 -0.4986
 7610SOL    HW330207   2.725   5.825   1.453  0.0936 -0.1500 -0.2084
 7610SOL    MW430208   2.685   5.866   1.388  0.1238 -0.2580  0.5652
 7611SOL     OW30209   3.372   2.184   1.380 -0.3782  0.5268 -0.3022
 7611SOL    HW230210   3.361   2.237   1.301  0.2338 -0.4065 -1.0404
 7611SOL    HW330211   3.458   2.209   1.413 -0.1695  0.1439 -0.5468
 7611SOL    MW430212   3.382   2.194   1.374 -0.6043 -0.2255  0.0465
 7612SOL     OW30213   4.293   3.006   0.773  0.5265  0.1472 -0.3312
 7612SOL    HW230214   4.359   2.937   0.782  0.9259  0.5130 -0.4133
 7612SOL    HW330215   4.219   2.963   0.730  1.0052 -0.0849 -0.9337
 7612SOL    MW430216   4.292   2.991   0.769 -0.1332 -0.2746  0.4082
 7613SOL     OW30217   0.729   1.137   4.958 -0.0087  0.1139 -0.8347
 7613SOL    HW230218   0.637   1.126   4.981  0.6901  0.3600  2.6976
 7613SOL    HW330219   0.776   1.120   5.040  3.0108  1.1779 -2.1991
 7613SOL    MW430220   0.723   1.134   4.972  0.2614  0.5307  0.2843
 7614SOL     OW30221   5.999   4.089   3.351  0.0251  0.0768  0.2709
 7614SOL    HW230222   5.975   4.174   3.313  1.6508 -0.5241 -2.3733
 7614SOL    HW330223   6.005   4.030   3.276 -1.5661 -2.5805  2.0857
 7614SOL    MW430224   5.997   4.093   3.336 -0.0545  0.1851 -0.3682
 7615SOL     OW30225   0.222   3.060   1.971 -0.1000 -0.3652 -0.4876
 7615SOL    HW230226   0.266   3.141   1.997 -1.6546 -0.1841  1.8650
 7615SOL    HW330227   0.144   3.088   1.923 -0.7474 -0.4308  0.5039
 7615SOL    MW430228   0.218   3.074   1.968  0.0027 -0.0556  0.7243
 7616SOL     OW30229   4.756   0.529   2.882  0.0193 -0.4327  0.0859
 7616SOL    HW230230   4.728   0.439   2.868 -1.3076 -0.0419  0.0403
 7616SOL    HW330231   4.851   0.524   2.892 -0.0786 -1.8788  0.5039
 7616SOL    MW430232   4.765   0.516   2.882  0.3407  0.3382 -0.4094
 7617SOL     OW30233   1.081   1.435   4.982  0.1766  0.2755 -0.2165
 7617SOL    HW230234   1.115   1.517   4.947  0.1486  0.3594 -0.0448
 7617SOL    HW330235   1.147   1.370   4.959  0.7225  0.5287  0.5916
 7617SOL    MW430236   1.094   1.437   4.974 -0.7701  0.2802 -0.2111
 7618SOL     OW30237   2.838   6.031   5.292  0.8886 -0.4808 -0.1425
 7618SOL    HW230238   2.889   5.994   5.363  0.7983 -0.5611 -0.1184
 7618SOL    HW330239   2.902   6.072   5.234  0.9837 -0.6214 -0.1369
 7618SOL    MW430240   2.853   6.031   5.294  0.2999 -0.6106  0.2224
 7619SOL     OW30241   2.510   1.634   5.769 -0.0434  0.3300  0.5685
 7619SOL    HW230242   2.546   1.585   5.695 -1.2633 -0.3957  0.4342
 7619SOL    HW330243   2.533   1.725   5.750  0.8640  0.0028  0.0115
 7619SOL    MW430244   2.518   1.640   5.756 -0.0001  0.2868  0.2732
 7620SOL     OW30245   0.062   0.628   0.699 -0.3621 -0.0723  0.5509
 7620SOL    HW230246  -0.018   0.671   0.672 -0.6189  0.0873  1.5170
 7620SOL    HW330247   0.124   0.699   0.715 -0.0034 -0.1963 -0.2387
 7620SOL    MW430248   0.060   0.643   0.698 -0.2255  0.5269  0.0810
 7621SOL     OW30249   1.855   3.050   4.184 -0.1353  0.5057 -0.3091
 7621SOL    HW230250   1.771   3.068   4.227 -0.5320  0.8512 -1.2159
 7621SOL    HW330251   1.857   2.954   4.175  0.6402  0.2517  1.8058
 7621SOL    MW430252   1.844   3.039   4.189  0.4288 -0.0358  0.5665
 7622SOL     OW30253   1.817   0.372   5.922  0.3312  0.3569 -0.0052
 7622SOL    HW230254   1.827   0.279   5.946  0.7550  0.5092  0.4134
 7622SOL    HW330255   1.728   0.377   5.886  0.8688 -0.5353 -1.5494
 7622SOL    MW430256   1.806   0.360   5.920 -0.0274 -0.1347 -0.2409
 7623SOL     OW30257   1.708   0.280   1.841  0.3562  0.3960 -0.9372
 7623SOL    HW230258   1.729   0.292   1.748  0.0810 -0.3447 -1.1066
 7623SOL    HW330259   1.748   0.196   1.863  0.7130  0.7330 -0.2896
 7623SOL    MW430260   1.716   0.270   1.831 -0.0412 -0.1171  0.3021
 7624SOL     OW30261   1.353   0.310   4.902  0.5130 -0.2025  0.2473
 7624SOL    HW230262   1.410   0.367   4.850  0.1562  0.1234  0.2158
 7624SOL    HW330263   1.268   0.354   4.902 -0.2337 -1.5333 -1.1898
 7624SOL    MW430264   1.349   0.323   4.895  0.5126  0.7627 -0.1862
 7625SOL     OW30265   0.736   2.537   4.443 -0.4502 -0.3437  0.2023
 7625SOL    HW230266   0.688   2.606   4.398  0.7118 -0.3976 -1.2301
 7625SOL    HW330267   0.707   2.456   4.402  0.4023 -0.4235 -0.2795
 7625SOL    MW430268   0.726   2.536   4.432 -0.0106 -0.4551 -0.1314
 7626SOL     OW30269   0.245   1.130   3.858 -0.0024 -0.1015  0.2045
 7626SOL    HW230270   0.337   1.157   3.854  0.2121 -0.8803 -3.3278
 7626SOL    HW330271   0.248   1.040   3.889  0.2233  0.3604  1.6108
 7626SOL    MW430272   0.257   1.122   3.862 -0.2822 -0.1757 -0.0597
 7627SOL     OW30273   2.705   5.149   1.220 -0.0713  0.0449  0.0297
 7627SOL    HW230274   2.637   5.089   1.192  0.3224 -0.7125  0.6495
 7627SOL    HW330275   2.778   5.093   1.246  0.4085  0.7950  0.3603
 7627SOL    MW430276   2.706   5.134   1.220  0.1588 -0.8830  0.0273
 7628SOL     OW30277   0.078   1.565   4.019  0.0556  0.2466 -0.0326
 7628SOL    HW230278   0.026   1.524   3.949  0.4742  0.4962 -0.4977
 7628SOL    HW330279   0.166   1.571   3.982 -0.0693  1.9176 -0.1228
 7628SOL    MW430280   0.083   1.560   4.005 -0.5079 -0.0786  0.4707
 7629SOL     OW30281   1.807   2.074   3.231  0.4587 -0.3901  0.8214
 7629SOL    HW230282   1.877   2.081   3.297  0.5894  1.7202  0.5178
 7629SOL    HW330283   1.729   2.050   3.282  0.7199  0.4515  1.6520
 7629SOL    MW430284   1.806   2.072   3.247 -0.0765 -0.0614  0.0542
 7630SOL     OW30285   3.017   5.277   2.323 -0.2281 -0.2329  0.2095
 7630SOL    HW230286   2.962   5.317   2.390 -0.1059 -1.8697  1.3545
 7630SOL    HW330287   2.958   5.220   2.274  0.2337 -1.2940  0.8556
 7630SOL    MW430288   3.002   5.275   2.325  0.1391 -0.2534 -1.0919
 7631SOL     OW30289   4.463   4.938   1.759  0.2778 -0.4085  0.3298
 7631SOL    HW230290   4.548   4.979   1.773  0.7631 -0.9480 -0.8851
 7631SOL    HW330291   4.476   4.846   1.784  0.6694 -0.9773 -1.7673
 7631SOL    MW430292   4.476   4.931   1.764 -0.0609 -0.1524 -0.0722
 7632SOL     OW30293   0.042   4.040   0.198  0.5167  0.0879  0.7932
 7632SOL    HW230294  -0.039   4.060   0.151  0.9776 -0.9271 -0.4711
 7632SOL    HW330295   0.029   3.952   0.234  0.8059  0.1957  1.1766
 7632SOL    MW430296   0.030   4.031   0.197 -0.6187 -0.4297  0.0460
 7633SOL     OW30297   4.056   4.571   3.547  0.1192  0.1161 -0.3376
 7633SOL    HW230298   4.118   4.519   3.597  2.1394  0.9893 -1.7960
 7633SOL    HW330299   4.048   4.653   3.596  1.4632  0.6568 -0.9890
 7633SOL    MW430300   4.063   4.575   3.560  0.2333 -0.2608 -0.1093
 7634SOL     OW30301   0.881   1.756   4.149  0.3504 -0.1187  0.7090
 7634SOL    HW230302   0.875   1.664   4.123 -1.8300 -0.3389  1.7419
 7634SOL    HW330303   0.837   1.804   4.079 -1.7414 -0.2904  1.8193
 7634SOL    MW430304   0.874   1.750   4.136 -0.6167  0.1545 -0.1535
 7635SOL     OW30305   1.333   1.970   1.128 -0.3774  0.0976 -0.0475
 7635SOL    HW230306   1.366   1.882   1.144  0.6513  0.3364 -0.7755
 7635SOL    HW330307   1.391   2.027   1.178 -0.9851  0.3859  0.3508
 7635SOL    MW430308   1.345   1.966   1.137 -0.3654  0.1078  0.6316
 7636SOL     OW30309   4.318   2.081   5.009 -0.2778 -0.2981  0.3006
 7636SOL    HW230310   4.340   2.153   4.950  0.5218  0.7007  1.7528
 7636SOL    HW330311   4.286   2.012   4.951  0.0996  0.7663 -1.2538
 7636SOL    MW430312   4.316   2.081   4.994 -0.0151 -0.1873  0.4593
 7637SOL     OW30313   0.485   4.569   2.861  0.9126  0.4047  0.1707
 7637SOL    HW230314   0.514   4.532   2.778 -0.8065 -0.6537 -0.0090
 7637SOL    HW330315   0.524   4.513   2.928  0.1867 -0.3626 -0.0324
 7637SOL    MW430316   0.494   4.557   2.859 -0.0377  0.0925  0.1750
 7638SOL     OW30317   3.584   5.274   0.836  0.2440 -0.4432 -0.2860
 7638SOL    HW230318   3.585   5.368   0.854 -0.2341 -0.9960  3.4904
 7638SOL    HW330319   3.492   5.249   0.849  0.8555 -1.8068  1.8600
 7638SOL    MW430320   3.572   5.283   0.840  0.9004  0.0430 -0.5400
 7639SOL     OW30321   5.953   1.647   5.857  0.0506  0.0792  0.2946
 7639SOL    HW230322   5.979   1.671   5.768 -1.4685 -0.7160 -0.4071
 7639SOL    HW330323   5.873   1.697   5.873 -0.7646 -1.1954  0.4357
 7639SOL    MW430324   5.946   1.657   5.848  0.2470  1.1950  0.5521
 7640SOL     OW30325   5.677   2.161   3.552 -0.1653  0.8478 -0.1903
 7640SOL    HW230326   5.603   2.104   3.532 -0.1279  0.6029  0.3453
 7640SOL    HW330327   5.719   2.177   3.468 -0.6641  0.7592 -0.4543
 7640SOL    MW430328   5.673   2.155   3.538 -0.5775 -0.3726  0.1896
 7641SOL     OW30329   5.649   1.485   5.839 -0.2115  0.6474  0.1980
 7641SOL    HW230330   5.582   1.509   5.902 -0.1805  2.9773 -0.5304
 7641SOL    HW330331   5.730   1.524   5.874 -0.0197  1.1542 -0.7564
 7641SOL    MW430332   5.651   1.494   5.852  0.0685  0.0061 -0.0015
 7642SOL     OW30333   4.361   1.434   0.215 -0.1092 -0.2223 -0.0728
 7642SOL    HW230334   4.449   1.397   0.222  0.4816  1.1831  0.3823
 7642SOL    HW330335   4.324   1.393   0.137 -0.0479 -2.7747  1.1335
 7642SOL    MW430336   4.368   1.424   0.206 -0.4474  0.1683 -0.0483
 7643SOL     OW30337   3.561   3.249   4.800  0.3285 -0.4111 -0.7465
 7643SOL    HW230338   3.584   3.288   4.716  0.2143  0.4857 -0.3706
 7643SOL    HW330339   3.559   3.155   4.783  0.8014 -0.2717 -1.6235
 7643SOL    MW430340   3.564   3.241   4.787 -0.1286  0.2408 -0.0633
 7644SOL     OW30341   3.460   6.122   1.387 -0.2823  0.1514  0.1048
 7644SOL    HW230342   3.412   6.140   1.306 -1.1689  0.9821  0.7961
 7644SOL    HW330343   3.411   6.052   1.429  0.6867 -0.9078 -0.4827
 7644SOL    MW430344   3.448   6.115   1.381 -0.7945  0.1612  0.2373
 7645SOL     OW30345   5.302   1.675   4.909  0.0345 -0.5292 -0.3540
 7645SOL    HW230346   5.378   1.621   4.931  1.2042  1.3824  0.5868
 7645SOL    HW330347   5.238   1.614   4.872  1.2462 -2.5294  0.7158
 7645SOL    MW430348   5.303   1.660   4.907 -0.5532  0.4200 -0.0019
 7646SOL     OW30349   5.069   4.929   3.563 -0.2188  0.3806  0.3200
 7646SOL    HW230350   5.038   4.839   3.563 -0.2469  0.3859  0.6848
 7646SOL    HW330351   5.006   4.977   3.510  2.1171 -0.5450 -3.6642
 7646SOL    MW430352   5.057   4.924   3.556  0.1084  0.0848  0.3925
 7647SOL     OW30353   4.245   0.748   0.874  0.7418  0.0984 -0.0489
 7647SOL    HW230354   4.253   0.768   0.967  0.1468  1.5128 -0.2611
 7647SOL    HW330355   4.228   0.833   0.833 -2.0303 -0.8495 -1.0846
 7647SOL    MW430356   4.244   0.762   0.881 -0.3130  0.7814 -0.0375
 7648SOL     OW30357   2.444   3.683   6.200 -0.0593 -0.1769 -0.4752
 7648SOL    HW230358   2.478   3.655   6.115  0.7220 -1.8429  0.3368
 7648SOL    HW330359   2.455   3.607   6.256  0.2300  1.1524  1.3492
 7648SOL    MW430360   2.450   3.670   6.196  0.0951 -0.1502 -0.0307
 7649SOL     OW30361   2.910   2.253   0.357 -0.3844  0.0310 -0.8492
 7649SOL    HW230362   2.921   2.340   0.396 -0.0934  0.4010 -1.7329
 7649SOL    HW330363   2.833   2.262   0.301 -1.9012 -0.9860  0.9559
 7649SOL    MW430364   2.901   2.266   0.354  0.5185 -0.1289 -0.0679
 7650SOL     OW30365   0.667   0.840   6.335 -0.0562 -0.0271 -0.2742
 7650SOL    HW230366   0.624   0.782   6.398  0.1220  1.1352  0.9498
 7650SOL    HW330367   0.755   0.804   6.325 -0.0257 -0.1072  0.2857
 7650SOL    MW430368   0.673   0.827   6.342  0.4535 -0.3503 -0.0790
 7651SOL     OW30369   0.348   4.113   3.850  0.5913  0.3401  0.0485
 7651SOL    HW230370   0.432   4.144   3.816  0.0499  1.6077 -0.1758
 7651SOL    HW330371   0.331   4.032   3.801  1.1077  0.7033 -0.7519
 7651SOL    MW430372   0.357   4.106   3.839  0.2542  0.6827  0.8898
 7652SOL     OW30373   5.598   3.950   6.402 -0.0119 -0.4788 -0.9452
 7652SOL    HW230374   5.654   3.960   6.479 -0.9804  2.5793 -0.5078
 7652SOL    HW330375   5.654   3.976   6.328 -0.3880  1.2349 -0.6661
 7652SOL    MW430376   5.613   3.954   6.402 -0.0832 -0.2871 -0.5890
 7653SOL     OW30377   3.151   0.344   1.690  0.5045 -0.3587 -0.0787
 7653SOL    HW230378   3.238   0.375   1.665 -0.3896  2.6102  0.1013
 7653SOL    HW330379   3.102   0.342   1.608  0.1797  0.0724  0.1002
 7653SOL    MW430380   3.156   0.348   1.676  0.0428  0.7013  0.1165
 7654SOL     OW30381   6.053   1.344   3.609 -0.1843  0.2016  0.2582
 7654SOL    HW230382   6.125   1.350   3.546 -2.4784  1.3738 -2.5054
 7654SOL    HW330383   6.044   1.250   3.626  0.6833 -0.1289 -0.9727
 7654SOL    MW430384   6.061   1.333   3.603  0.6207 -0.4527 -0.0452
 7655SOL     OW30385   5.172   3.501   4.541 -0.6170 -0.4677  0.2410
 7655SOL    HW230386   5.098   3.516   4.481 -0.3846 -0.8079 -0.1335
 7655SOL    HW330387   5.132   3.500   4.628 -0.9323  0.2392  0.1167
 7655SOL    MW430388   5.157   3.503   4.545 -0.1806 -0.3408 -0.0527
 7656SOL     OW30389   0.930   5.090   2.298  0.5009 -0.2603 -0.1066
 7656SOL    HW230390   0.882   5.026   2.245  0.7159 -1.7221  1.3897
 7656SOL    HW330391   1.022   5.076   2.275  0.4947  0.0117 -0.3007
 7656SOL    MW430392   0.936   5.080   2.288 -0.1412  0.2538 -0.2724
 7657SOL     OW30393   0.426   2.447   0.578  0.3088 -0.1633 -0.1455
 7657SOL    HW230394   0.448   2.478   0.490  2.2019 -2.1359 -0.4454
 7657SOL    HW330395   0.491   2.489   0.635 -1.0199  1.2482  0.3823
 7657SOL    MW430396   0.437   2.457   0.574  0.0925  0.0087  0.1572
 7658SOL     OW30397   2.336   1.899   4.249 -0.3951 -0.0932 -0.2910
 7658SOL    HW230398   2.321   1.840   4.322 -0.9114  1.6984  1.1326
 7658SOL    HW330399   2.251   1.905   4.204  0.2252 -2.1788 -1.9003
 7658SOL    MW430400   2.323   1.892   4.252  0.1146 -0.1461 -0.0744
 7659SOL     OW30401   5.710   3.141   4.774 -0.6883  0.1302 -0.2794
 7659SOL    HW230402   5.653   3.217   4.783  0.0005  0.4631  1.9177
 7659SOL    HW330403   5.655   3.074   4.734 -1.8299  1.2140 -0.5939
 7659SOL    MW430404   5.695   3.142   4.770 -0.1222 -0.4497  0.0716
 7660SOL     OW30405   5.490   5.006   2.914  0.5087 -0.0740 -0.3197
 7660SOL    HW230406   5.414   5.015   2.857  1.0024 -0.0642 -0.9801
 7660SOL    HW330407   5.542   4.936   2.875  2.2618  1.7997 -1.5345
 7660SOL    MW430408   5.487   4.998   2.902  0.0664 -0.2172  0.4974
 7661SOL     OW30409   5.083   4.859   0.948  0.4844 -0.1470  0.6617
 7661SOL    HW230410   5.139   4.936   0.951  0.0567  0.1617  0.7431
 7661SOL    HW330411   5.120   4.805   0.877  1.3896 -0.3469  1.2584
 7661SOL    MW430412   5.096   4.862   0.939  0.0949  0.0334  0.2991
 7662SOL     OW30413   4.344   6.390   2.911 -0.2974 -0.2454  0.2321
 7662SOL    HW230414   4.274   6.365   2.971  0.8175  1.9234  2.6843
 7662SOL    HW330415   4.421   6.344   2.944 -0.1158 -0.9725 -1.1365
 7662SOL    MW430416   4.345   6.381   2.924  0.0282 -0.4408 -0.6220
 7663SOL     OW30417   2.246   4.898   3.555  0.5720 -0.1841 -0.2635
 7663SOL    HW230418   2.320   4.949   3.522  0.4719 -0.2425 -0.5772
 7663SOL    HW330419   2.182   4.964   3.584  0.9553 -0.1309  0.4857
 7663SOL    MW430420   2.247   4.913   3.555 -0.0208 -0.3593  0.1941
 7664SOL     OW30421   1.611   6.285   2.102 -0.5676  0.4986  0.2309
 7664SOL    HW230422   1.614   6.209   2.045  3.1311  2.3066 -2.4105
 7664SOL    HW330423   1.615   6.249   2.191  1.2911 -2.4403 -0.8866
 7664SOL    MW430424   1.612   6.270   2.106 -0.5411  0.0821 -0.1048
 7665SOL     OW30425   1.415   0.020   1.847  0.2312 -0.0567 -0.2315
 7665SOL    HW230426   1.504  -0.009   1.825  0.3894  1.3838 -1.6815
 7665SOL    HW330427   1.427   0.109   1.880 -0.4524 -0.7286  2.0342
 7665SOL    MW430428   1.429   0.028   1.849  0.7928  0.1974 -0.3228
 7666SOL     OW30429   4.659   2.130   0.842  0.7531 -0.3460 -0.0344
 7666SOL    HW230430   4.728   2.133   0.908  2.2236 -0.7619 -1.4998
 7666SOL    HW330431   4.672   2.048   0.796 -0.7527 -0.4413 -0.3532
 7666SOL    MW430432   4.670   2.120   0.845  0.1260 -0.2275  0.3180
 7667SOL     OW30433   2.359   0.328   0.522 -0.5370  0.0371 -0.4480
 7667SOL    HW230434   2.312   0.382   0.585 -1.3034 -1.2230  0.0951
 7667SOL    HW330435   2.450   0.359   0.526 -0.9826  1.3839 -0.2937
 7667SOL    MW430436   2.365   0.340   0.531 -0.0447 -0.1828  0.1372
 7668SOL     OW30437   0.186   3.027   3.633  0.6384  0.3148  0.4622
 7668SOL    HW230438   0.217   2.975   3.559 -1.7005 -0.9583  0.2615
 7668SOL    HW330439   0.265   3.066   3.670  2.4684 -2.6020 -0.0095
 7668SOL    MW430440   0.201   3.025   3.628  0.4665 -0.0360 -0.5862
 7669SOL     OW30441   3.949   4.135   2.778 -0.3543  0.1679  0.0225
 7669SOL    HW230442   4.016   4.081   2.820 -1.8394 -1.3344  0.5708
 7669SOL    HW330443   3.915   4.191   2.848 -1.6445 -1.1389  0.5037
 7669SOL    MW430444   3.953   4.135   2.792  0.1731  0.0789 -0.1458
 7670SOL     OW30445   5.393   4.960   2.321 -0.0204 -0.1909 -0.4001
 7670SOL    HW230446   5.409   5.004   2.405  1.6590 -1.5599  0.0435
 7670SOL    HW330447   5.467   4.986   2.266 -1.0488  0.6019 -1.4551
 7670SOL    MW430448   5.405   4.969   2.325  0.4342 -0.3347 -0.0586
 7671SOL     OW30449   5.889   2.482   1.553  0.4939 -0.1278  0.5315
 7671SOL    HW230450   5.919   2.444   1.471 -0.5276 -1.0373  0.5484
 7671SOL    HW330451   5.869   2.407   1.609 -1.1419  0.4059  0.7267
 7671SOL    MW430452   5.890   2.467   1.550  0.1245 -0.2434  0.3428
 7672SOL     OW30453   3.321   2.451   5.282  0.1337 -0.4222 -0.0442
 7672SOL    HW230454   3.324   2.406   5.198  2.1227 -0.6800  0.0929
 7672SOL    HW330455   3.364   2.390   5.343  2.4135  1.3394  0.2708
 7672SOL    MW430456   3.327   2.437   5.279 -0.0965 -0.2376  0.2105
 7673SOL     OW30457   3.132   2.658   5.654 -0.1235  0.7555 -0.3333
 7673SOL    HW230458   3.226   2.664   5.637 -0.2629  1.1197 -0.9835
 7673SOL    HW330459   3.093   2.726   5.600 -0.5163  2.4906  1.9675
 7673SOL    MW430460   3.140   2.668   5.645 -0.5955 -0.3391 -0.5554
 7674SOL     OW30461   4.507   1.208   6.162  0.3061 -0.2069  0.4224
 7674SOL    HW230462   4.412   1.208   6.148  0.0157 -0.0571  2.1209
 7674SOL    HW330463   4.517   1.227   6.255  2.0587  0.8591  0.0552
 7674SOL    MW430464   4.496   1.210   6.172 -0.1417  0.2223  0.3920
 7675SOL     OW30465   1.928   2.053   3.765  0.4279  0.2143  0.4865
 7675SOL    HW230466   1.948   2.146   3.778  1.7401  0.3988 -2.3275
 7675SOL    HW330467   2.010   2.008   3.782  0.3163 -0.2271 -0.1269
 7675SOL    MW430468   1.941   2.059   3.769  0.1546  0.2723  0.3683
 7676SOL     OW30469   0.215   6.366   1.557  0.0252 -0.0953  0.5805
 7676SOL    HW230470   0.171   6.336   1.637 -1.3612 -1.4077 -0.6029
 7676SOL    HW330471   0.150   6.353   1.488  0.4731  2.8012 -0.5291
 7676SOL    MW430472   0.200   6.360   1.558 -0.8099 -0.3273  0.2527
 7677SOL     OW30473   3.733   4.495   1.690  0.3775 -0.1348  0.0714
 7677SOL    HW230474   3.710   4.496   1.783 -1.4199 -3.1658 -0.2049
 7677SOL    HW330475   3.687   4.570   1.653  1.8323  1.6579  1.6814
 7677SOL    MW430476   3.724   4.505   1.698 -0.7902 -0.0505 -0.3851
 7678SOL     OW30477   0.425   5.253   0.177  0.1848  0.5891 -0.6965
 7678SOL    HW230478   0.429   5.181   0.113 -0.4987 -0.0642 -0.0208
 7678SOL    HW330479   0.396   5.328   0.126  2.4893  0.8576 -1.7775
 7678SOL    MW430480   0.422   5.253   0.162 -0.0382 -0.6821  0.5759
 7679SOL     OW30481   5.951   2.673   3.219 -0.1238 -0.0889 -0.0202
 7679SOL    HW230482   5.935   2.764   3.195  2.9801  0.3764 -0.6658
 7679SOL    HW330483   5.946   2.626   3.136  0.0409 -0.2201  0.0447
 7679SOL    MW430484   5.948   2.679   3.205  0.3409 -0.1781 -0.4853
 7680SOL     OW30485   3.487   3.744   5.336 -0.0596  0.1496  0.1581
 7680SOL    HW230486   3.436   3.777   5.262 -0.5246 -1.0835 -0.0966
 7680SOL    HW330487   3.517   3.657   5.308  2.2800  0.8452  0.2795
 7680SOL    MW430488   3.484   3.737   5.323  0.0071  0.0841  0.3446
 7681SOL     OW30489   1.200   0.572   2.361 -0.1205 -0.5578 -0.2674
 7681SOL    HW230490   1.117   0.593   2.319  0.1220 -0.5176 -0.7338
 7681SOL    HW330491   1.177   0.551   2.451 -0.5317  0.3769 -0.1394
 7681SOL    MW430492   1.186   0.572   2.368  0.1893  0.1553 -0.0794
 7682SOL     OW30493   2.176   2.033   1.714 -0.1440  0.4269  0.5155
 7682SOL    HW230494   2.108   2.074   1.768 -0.4529 -1.2580  1.4782
 7682SOL    HW330495   2.200   2.101   1.651 -3.4035  0.8325 -0.4945
 7682SOL    MW430496   2.170   2.047   1.713 -0.2580  0.0404 -0.0890
 7683SOL     OW30497   4.892   4.948   3.880 -0.5336 -0.1331  0.1430
 7683SOL    HW230498   4.872   4.864   3.840  2.1716 -0.6256 -0.3734
 7683SOL    HW330499   4.951   4.927   3.952  0.1985  1.2933  0.0049
 7683SOL    MW430500   4.897   4.934   3.884  0.4529 -0.6285  0.7263
 7684SOL     OW30501   3.024   1.327   6.201  0.2911  0.6840 -0.0331
 7684SOL    HW230502   3.001   1.404   6.148  1.0587  0.7124 -0.3378
 7684SOL    HW330503   3.026   1.360   6.291 -2.8065  0.2540  0.3160
 7684SOL    MW430504   3.021   1.342   6.206 -0.0407  0.6715  0.2496
 7685SOL     OW30505   0.342   2.619   1.349  0.0916 -0.1585 -0.0581
 7685SOL    HW230506   0.326   2.552   1.283 -0.5232  0.8774 -1.0056
 7685SOL    HW330507   0.438   2.626   1.353  0.1562 -1.0734  0.0432
 7685SOL    MW430508   0.353   2.611   1.340 -0.6745  0.1251 -0.2036
 7686SOL     OW30509   2.106   1.278   4.723  0.4511 -0.0739 -0.0571
 7686SOL    HW230510   2.060   1.203   4.684  0.0113 -0.0323  0.3640
 7686SOL    HW330511   2.134   1.246   4.809 -0.6348  0.5526  0.5453
 7686SOL    MW430512   2.103   1.264   4.730  0.1753 -0.1390  0.2436
 7687SOL     OW30513   6.286   2.312   6.209  0.3345  0.3034  0.4537
 7687SOL    HW230514   6.198   2.305   6.172  0.1429 -0.5821  1.0377
 7687SOL    HW330515   6.344   2.309   6.133 -0.0517 -1.4685  0.1902
 7687SOL    MW430516   6.282   2.311   6.194  0.0279 -0.5850  0.2396
 7688SOL     OW30517   2.140   4.960   3.926  0.9526  0.0326  0.8237
 7688SOL    HW230518   2.060   4.925   3.888  2.2061 -0.6440 -1.3769
 7688SOL    HW330519   2.111   5.030   3.984 -1.2014 -0.1391  0.0231
 7688SOL    MW430520   2.126   4.964   3.929 -0.4274  0.2444 -0.0248
 7689SOL     OW30521   3.875   4.759   2.693 -0.2011  0.0934 -0.3962
 7689SOL    HW230522   3.791   4.766   2.647 -1.5531  0.4928  1.9610
 7689SOL    HW330523   3.933   4.820   2.647 -1.3601  0.2200 -1.7386
 7689SOL    MW430524   3.872   4.768   2.681  0.2179 -0.2539 -0.1038
 7690SOL     OW30525   1.974   0.300   1.499 -0.4431 -0.2119  0.0661
 7690SOL    HW230526   2.009   0.256   1.422 -3.0086 -0.7121 -0.9198
 7690SOL    HW330527   1.893   0.341   1.468  1.0344  4.1294  1.2507
 7690SOL    MW430528   1.968   0.300   1.485  0.3397 -0.0538 -0.1679
 7691SOL     OW30529   0.031   4.490   4.010 -0.6039  0.7201 -0.2984
 7691SOL    HW230530   0.027   4.451   4.098  2.2922  2.2963  0.6636
 7691SOL    HW330531   0.081   4.427   3.958 -0.4853  0.7637 -0.2360
 7691SOL    MW430532   0.037   4.476   4.015  0.5663 -0.3336 -0.3399
 7692SOL     OW30533   4.136   0.259   5.230  0.6668 -0.2173  0.2475
 7692SOL    HW230534   4.105   0.347   5.207  0.4373 -0.9961 -2.7997
 7692SOL    HW330535   4.217   0.275   5.279 -0.5744  1.6816  1.8498
 7692SOL    MW430536   4.143   0.273   5.233  0.3351  0.7344 -0.2001
 7693SOL     OW30537   3.384   4.367   2.830 -0.2432  0.4940 -0.0319
 7693SOL    HW230538   3.369   4.340   2.740  0.0170  0.8544 -0.1825
 7693SOL    HW330539   3.350   4.456   2.835 -1.7505 -0.0805  0.6495
 7693SOL    MW430540   3.377   4.375   2.819 -0.1444  0.1849 -0.0951
 7694SOL     OW30541   1.051   0.334   2.137  0.3208  0.3135 -0.2565
 7694SOL    HW230542   1.044   0.275   2.212  0.2164  1.8727  1.0266
 7694SOL    HW330543   0.998   0.410   2.161  0.9425  1.2101 -1.5731
 7694SOL    MW430544   1.043   0.337   2.150  0.2620 -0.0754  0.3279
 7695SOL     OW30545   2.321   3.323   1.224  0.0650 -0.6638 -0.1397
 7695SOL    HW230546   2.276   3.373   1.156 -0.1540 -1.2595 -0.4399
 7695SOL    HW330547   2.410   3.357   1.224 -0.5066  0.9786  0.8916
 7695SOL    MW430548   2.327   3.334   1.215  0.0867 -0.0711 -0.6360
 7696SOL     OW30549   6.300   6.053   1.489  0.0106 -0.0983 -0.0942
 7696SOL    HW230550   6.242   5.986   1.525  1.3757 -0.5481  1.3632
 7696SOL    HW330551   6.360   6.005   1.432  0.3916 -0.0048  0.2178
 7696SOL    MW430552   6.300   6.038   1.486  0.8348 -0.5821  0.3245
 7697SOL     OW30553   1.628   5.295   4.895 -0.0664  0.0824 -0.7594
 7697SOL    HW230554   1.673   5.243   4.961  1.2327  1.6966 -0.3025
 7697SOL    HW330555   1.539   5.305   4.928 -0.9557 -3.3255 -1.7676
 7697SOL    MW430556   1.622   5.290   4.908 -0.3771 -0.6029 -0.1712
 7698SOL     OW30557   3.454   4.682   6.362  0.2861 -0.1186  0.2271
 7698SOL    HW230558   3.486   4.628   6.289  1.4616  1.5410 -0.5513
 7698SOL    HW330559   3.517   4.666   6.432  0.2814 -0.2146  0.2111
 7698SOL    MW430560   3.466   4.672   6.362  0.2250 -0.7673  0.4012
 7699SOL     OW30561   5.995   5.334   1.564 -0.4940 -0.2794  0.6306
 7699SOL    HW230562   6.015   5.241   1.561  0.0437 -0.1603  0.0534
 7699SOL    HW330563   5.907   5.341   1.527 -1.7783 -0.8403  3.3914
 7699SOL    MW430564   5.986   5.323   1.558  0.2523 -0.4951  0.3309
 7700SOL     OW30565   0.582   5.668   0.645  0.2497 -0.2850 -0.0680
 7700SOL    HW230566   0.678   5.672   0.644  0.3090 -1.3998 -1.2881
 7700SOL    HW330567   0.555   5.759   0.630  1.1350 -0.1181 -0.7888
 7700SOL    MW430568   0.591   5.681   0.643  0.4866 -0.2509  0.5087
 7701SOL     OW30569   5.955   0.736   5.312  0.3224  0.2646  0.4879
 7701SOL    HW230570   5.952   0.817   5.262  1.7721  0.1416  0.1538
 7701SOL    HW330571   5.867   0.701   5.305 -0.3272  1.8070  0.6479
 7701SOL    MW430572   5.943   0.742   5.304 -0.1836 -0.0116 -0.0742
 7702SOL     OW30573   3.663   4.506   6.275 -0.2821  0.1915  0.2437
 7702SOL    HW230574   3.703   4.584   6.313 -0.0749 -0.1764  0.7866
 7702SOL    HW330575   3.632   4.455   6.350 -0.3479 -0.2886 -0.1031
 7702SOL    MW430576   3.664   4.510   6.290 -0.0037 -0.1537 -0.1017
 7703SOL     OW30577   5.113   2.653   4.710 -0.3739 -0.0029 -0.7686
 7703SOL    HW230578   5.156   2.645   4.625 -0.1811 -0.3316 -0.6398
 7703SOL    HW330579   5.181   2.632   4.774 -0.0115  1.9836 -0.4272
 7703SOL    MW430580   5.127   2.649   4.707 -0.1741 -0.0189  0.0508
 7704SOL     OW30581   0.719   3.867   5.750  0.0300  0.5704  0.4258
 7704SOL    HW230582   0.675   3.949   5.726 -0.1200  0.2467 -0.4438
 7704SOL    HW330583   0.690   3.850   5.839 -0.0372  1.4035  0.5732
 7704SOL    MW430584   0.709   3.876   5.758  0.1251  0.4843  0.4503
 7705SOL     OW30585   0.738   4.628   5.044 -0.0562  0.5425 -0.0131
 7705SOL    HW230586   0.682   4.583   4.981 -0.4141  0.9509  0.0094
 7705SOL    HW330587   0.785   4.558   5.089 -1.2350  0.1277  0.6175
 7705SOL    MW430588   0.737   4.613   5.042  0.0606  0.1869  0.2288
 7706SOL     OW30589   2.534   0.120   2.195 -0.4366 -0.4573  0.1106
 7706SOL    HW230590   2.497   0.115   2.284  0.0095 -2.2216  0.2219
 7706SOL    HW330591   2.457   0.119   2.138 -0.7446  0.9604  0.4394
 7706SOL    MW430592   2.519   0.119   2.200 -0.6364 -0.0422 -0.4362
 7707SOL     OW30593   4.545   6.046   1.704  0.1108  0.1284  0.4028
 7707SOL    HW230594   4.452   6.030   1.718 -0.2871  1.4900 -0.5440
 7707SOL    HW330595   4.573   5.975   1.645 -0.0890 -0.8046  1.3951
 7707SOL    MW430596   4.537   6.035   1.698  0.0275  0.1505 -0.0110
 7708SOL     OW30597   4.971   1.335   5.954  0.4207  0.6476  0.2010
 7708SOL    HW230598   4.959   1.424   5.922  0.0525  0.5160 -0.0311
 7708SOL    HW330599   5.036   1.297   5.895 -0.2369  0.4140 -0.3908
 7708SOL    MW430600   4.978   1.342   5.942 -0.1308  0.2943 -0.3276
 7709SOL     OW30601   6.284   2.188   1.055  0.6056  0.0615 -0.1386
 7709SOL    HW230602   6.238   2.159   1.135  0.7821  0.0998 -0.0228
 7709SOL    HW330603   6.263   2.121   0.990  0.8064 -0.1974  0.0587
 7709SOL    MW430604   6.275   2.175   1.057 -0.2926 -0.3752 -0.2399
 7710SOL     OW30605   4.145   2.625   5.109  0.0318  0.2843  1.0655
 7710SOL    HW230606   4.103   2.625   5.023 -0.3479 -0.4401  1.2471
 7710SOL    HW330607   4.074   2.607   5.170  0.6952 -1.7016  1.3228
 7710SOL    MW430608   4.130   2.623   5.106  0.8055 -0.1287 -0.3175
 7711SOL     OW30609   5.626   0.885   3.120  0.4725 -0.1989 -0.9347
 7711SOL    HW230610   5.547   0.851   3.078 -0.3142  1.0201 -0.4969
 7711SOL    HW330611   5.602   0.897   3.212  1.3723 -0.4255 -0.6647
 7711SOL    MW430612   5.613   0.882   3.126  0.4155 -0.2130  0.6954
 7712SOL     OW30613   3.038   3.000   6.326  0.5848 -0.5558 -0.3789
 7712SOL    HW230614   3.064   3.015   6.417 -0.6947 -2.0291  0.2892
 7712SOL    HW330615   3.006   3.084   6.296  2.7892  0.4432 -0.1301
 7712SOL    MW430616   3.037   3.013   6.334 -0.1955  0.0585  0.3079
 7713SOL     OW30617   2.675   0.482   1.951 -0.0132 -0.4772 -0.1634
 7713SOL    HW230618   2.671   0.418   2.022  1.2553 -2.0456 -1.3981
 7713SOL    HW330619   2.626   0.441   1.879  0.9362 -0.1560 -1.0256
 7713SOL    MW430620   2.668   0.468   1.951 -0.2794 -0.0091 -0.2668
 7714SOL     OW30621   1.308   2.440   3.520 -0.0008  0.1293  0.6576
 7714SOL    HW230622   1.277   2.352   3.541 -1.8703  0.7078  0.4818
 7714SOL    HW330623   1.241   2.476   3.463  0.6075  1.7693  0.9400
 7714SOL    MW430624   1.295   2.433   3.515  0.0534 -0.5475 -0.2167
 7715SOL     OW30625   0.941   2.209   1.002  0.1844 -0.3675  0.1823
 7715SOL    HW230626   0.967   2.134   0.949  2.4258  1.1275 -0.9623
 7715SOL    HW330627   0.852   2.229   0.974 -0.2120 -2.1628  0.0556
 7715SOL    MW430628   0.933   2.202   0.991 -0.0879 -0.2169  0.0111
 7716SOL     OW30629   4.930   2.801   0.981  0.5299  0.1070 -0.0785
 7716SOL    HW230630   4.977   2.765   0.906  0.6310 -1.2245  0.5984
 7716SOL    HW330631   4.896   2.724   1.028  1.2458  0.8390  1.7382
 7716SOL    MW430632   4.932   2.786   0.977  0.5645 -0.0740 -0.0386
 7717SOL     OW30633   5.613   4.236   5.419  0.4469  0.3759  0.2518
 7717SOL    HW230634   5.599   4.326   5.450 -0.5540  0.7486 -1.1822
 7717SOL    HW330635   5.586   4.182   5.493 -0.7578  1.2515  0.4925
 7717SOL    MW430636   5.607   4.241   5.433 -0.3285  0.0661 -0.4839
 7718SOL     OW30637   5.438   3.068   4.045 -0.1977  0.0095  0.1342
 7718SOL    HW230638   5.377   3.135   4.077  0.4082 -0.1128  1.6191
 7718SOL    HW330639   5.466   3.100   3.960 -1.8997  0.3396 -0.3346
 7718SOL    MW430640   5.433   3.081   4.038  0.2678  0.0505 -0.5874
 7719SOL     OW30641   0.147   2.071   2.094  0.1478 -0.0823 -0.3327
 7719SOL    HW230642   0.165   2.165   2.103 -1.3192  0.2549 -0.8053
 7719SOL    HW330643   0.055   2.061   2.117  0.2701 -1.4159 -0.3236
 7719SOL    MW430644   0.138   2.082   2.098 -0.1994  0.0928  0.7520
 7720SOL     OW30645   0.235   2.267   5.267  0.4945  0.2831 -0.2525
 7720SOL    HW230646   0.242   2.272   5.363 -1.2278  1.1215 -0.1301
 7720SOL    HW330647   0.287   2.341   5.235  1.1330 -0.0403  0.0123
 7720SOL    MW430648   0.243   2.277   5.276 -0.6702 -0.3863  0.0576
 7721SOL     OW30649   4.455   0.335   2.458 -0.0092 -0.3863  0.1450
 7721SOL    HW230650   4.372   0.382   2.459  0.7902  1.1359 -0.8914
 7721SOL    HW330651   4.518   0.398   2.422  1.4520 -1.7229  0.2512
 7721SOL    MW430652   4.453   0.349   2.453 -0.1475 -1.0076 -0.0394
 7722SOL     OW30653   4.830   1.777   2.222  0.0528 -0.0837 -0.0719
 7722SOL    HW230654   4.740   1.755   2.202  0.4096 -1.6125 -0.0943
 7722SOL    HW330655   4.840   1.759   2.316  0.5928 -0.9097 -0.2770
 7722SOL    MW430656   4.820   1.772   2.232  0.5477  0.1563 -0.5359
 7723SOL     OW30657   4.352   3.572   5.818 -0.3703 -0.2413  0.6752
 7723SOL    HW230658   4.292   3.524   5.761  0.1427  1.4451 -1.4356
 7723SOL    HW330659   4.439   3.541   5.793 -0.1261  0.6453  0.4001
 7723SOL    MW430660   4.356   3.561   5.807 -0.0168 -0.4773 -0.3312
 7724SOL     OW30661   2.741   4.026   1.811 -0.3885 -0.2469  0.1886
 7724SOL    HW230662   2.667   4.074   1.773 -0.2906  0.1958  0.5395
 7724SOL    HW330663   2.701   3.955   1.860 -0.5989  0.1216  0.5598
 7724SOL    MW430664   2.726   4.023   1.812  0.1459  0.3722 -0.2987
 7725SOL     OW30665   0.297   1.605   5.727 -0.0947  0.1611  0.3215
 7725SOL    HW230666   0.210   1.568   5.742 -0.2144  1.3313  3.1078
 7725SOL    HW330667   0.334   1.617   5.814  1.9591  1.8259 -0.6728
 7725SOL    MW430668   0.290   1.602   5.740 -0.3753 -0.3508  0.3183
 7726SOL     OW30669   5.824   1.282   1.996 -0.0345 -0.2248 -0.8517
 7726SOL    HW230670   5.790   1.219   2.060  2.3973 -0.2032  0.5776
 7726SOL    HW330671   5.864   1.228   1.928  1.3407 -0.2789 -0.0318
 7726SOL    MW430672   5.825   1.267   1.996 -0.4477  0.3478 -0.4560
 7727SOL     OW30673   3.356   3.916   1.958  0.2066 -0.2006 -0.1480
 7727SOL    HW230674   3.309   4.000   1.963  0.1998 -0.1687 -0.7092
 7727SOL    HW330675   3.288   3.851   1.944  0.2639 -0.2400 -0.2416
 7727SOL    MW430676   3.341   3.919   1.957  0.3032 -0.3826  0.0365
 7728SOL     OW30677   0.362   4.605   6.294  0.7244  0.3098  0.7330
 7728SOL    HW230678   0.279   4.560   6.312  0.7665  0.6611  1.9106
 7728SOL    HW330679   0.418   4.537   6.255 -0.2440  0.1823 -0.5020
 7728SOL    MW430680   0.358   4.590   6.291  0.2774 -0.0174 -0.6726
 7729SOL     OW30681   4.510   1.766   3.932 -0.1185 -0.0721 -0.1238
 7729SOL    HW230682   4.501   1.739   3.841 -1.1108  0.2879 -0.1348
 7729SOL    HW330683   4.540   1.857   3.928  0.2730 -0.1945 -0.0807
 7729SOL    MW430684   4.513   1.774   3.920 -0.9466 -0.4432  0.3097
 7730SOL     OW30685   2.103   6.005   2.170 -0.7002 -0.1332 -0.2343
 7730SOL    HW230686   2.092   5.994   2.076  0.3195  1.1945 -0.5444
 7730SOL    HW330687   2.196   5.990   2.186 -1.0621 -1.5133  0.7689
 7730SOL    MW430688   2.114   6.002   2.160 -0.5431  0.5189  0.2351
 7731SOL     OW30689   0.654   1.649   2.351  0.2332  0.2836  0.5615
 7731SOL    HW230690   0.701   1.601   2.419 -1.2019 -0.8990  0.7710
 7731SOL    HW330691   0.661   1.594   2.273  0.9953  1.1391  0.0045
 7731SOL    MW430692   0.661   1.635   2.350 -0.1150 -0.4486 -0.3326
 7732SOL     OW30693   5.194   1.026   3.439 -0.3325 -0.2552  0.0336
 7732SOL    HW230694   5.256   1.095   3.463 -0.5174  1.3313 -3.4420
 7732SOL    HW330695   5.240   0.975   3.372 -1.0636 -2.1302  0.8897
 7732SOL    MW430696   5.208   1.029   3.433  0.5009  0.2613  0.2180
 7733SOL     OW30697   2.418   1.662   0.012  0.2096  0.4067 -0.0307
 7733SOL    HW230698   2.350   1.630   0.072  1.2293 -0.5205  0.6752
 7733SOL    HW330699   2.373   1.723  -0.046 -1.3458 -0.6445  0.0354
 7733SOL    MW430700   2.403   1.666   0.013 -0.4194 -0.1860  0.4581
 7734SOL     OW30701   4.989   5.424   5.562  0.3238  0.0114 -0.6341
 7734SOL    HW230702   4.950   5.343   5.530 -0.5196  1.1415 -2.6525
 7734SOL    HW330703   4.940   5.444   5.642 -2.0242  0.3489 -2.0460
 7734SOL    MW430704   4.977   5.416   5.568 -0.4131  0.2249 -0.0520
 7735SOL     OW30705   5.646   3.276   1.705  0.8489 -0.5140  0.7019
 7735SOL    HW230706   5.565   3.318   1.677  0.4190 -1.2266  0.8358
 7735SOL    HW330707   5.691   3.342   1.756  1.7910  0.9338 -1.8277
 7735SOL    MW430708   5.641   3.290   1.708  0.2235 -0.3915  0.1079
 7736SOL     OW30709   1.271   1.329   2.455  0.1275 -0.1276 -0.0758
 7736SOL    HW230710   1.289   1.255   2.513  1.1745  0.0638 -0.1541
 7736SOL    HW330711   1.317   1.309   2.374 -1.5971 -0.5552 -0.9989
 7736SOL    MW430712   1.279   1.317   2.452 -0.2916  0.0107  0.2208
 7737SOL     OW30713   0.809   1.303   2.107  0.0506 -0.0866  0.0036
 7737SOL    HW230714   0.757   1.381   2.086  0.7811  0.0095 -1.6075
 7737SOL    HW330715   0.757   1.230   2.075 -0.5256 -0.2796  1.3027
 7737SOL    MW430716   0.795   1.304   2.100  0.4478 -0.3351  0.0835
 7738SOL     OW30717   0.781   4.709   2.822  0.3995 -0.7204 -0.2734
 7738SOL    HW230718   0.736   4.657   2.754 -1.9349  0.0731  0.5809
 7738SOL    HW330719   0.710   4.751   2.871  2.1435  1.8135  0.2471
 7738SOL    MW430720   0.766   4.708   2.819 -0.1852 -0.0831 -0.5079
 7739SOL     OW30721   0.912   3.774   6.304 -0.6508 -0.4907 -0.4880
 7739SOL    HW230722   0.977   3.844   6.306 -1.2528  0.1267 -1.5325
 7739SOL    HW330723   0.846   3.800   6.368  0.1215 -1.1357  0.5983
 7739SOL    MW430724   0.912   3.787   6.312  0.5252 -0.3862  0.0775
 7740SOL     OW30725   4.180   3.902   6.127  0.0149 -0.1995 -0.2175
 7740SOL    HW230726   4.183   3.903   6.223 -0.3389 -0.6298 -0.2004
 7740SOL    HW330727   4.104   3.847   6.106  0.3534 -0.4729 -0.7441
 7740SOL    MW430728   4.170   3.895   6.137  0.1226  0.4989 -0.1234
 7741SOL     OW30729   2.947   5.427   3.639 -0.7219  0.0025 -0.5393
 7741SOL    HW230730   3.028   5.467   3.672 -0.1665 -0.6112 -1.1174
 7741SOL    HW330731   2.973   5.339   3.614 -1.8833 -0.6924  0.5606
 7741SOL    MW430732   2.961   5.421   3.640  0.4752 -0.3832 -0.2037
 7742SOL     OW30733   5.741   0.252   4.567  0.0847  0.2496  0.5586
 7742SOL    HW230734   5.670   0.208   4.613  0.0271 -0.1440  0.1104
 7742SOL    HW330735   5.702   0.333   4.535 -1.0500 -1.2167 -2.1260
 7742SOL    MW430736   5.727   0.257   4.568  0.3619 -0.7964 -1.1858
 7743SOL     OW30737   2.430   2.702   6.070 -0.3541  0.0099 -0.5825
 7743SOL    HW230738   2.514   2.688   6.026 -0.1352 -1.7097  0.2751
 7743SOL    HW330739   2.366   2.659   6.014 -0.5985  0.8171 -0.9393
 7743SOL    MW430740   2.432   2.695   6.057  0.1936 -0.3528  0.3668
 7744SOL     OW30741   3.714   0.754   4.898 -0.1576 -0.5484 -0.1715
 7744SOL    HW230742   3.670   0.673   4.870  0.6529 -0.9061 -0.4278
 7744SOL    HW330743   3.760   0.729   4.978  1.0817 -0.6691 -0.9044
 7744SOL    MW430744   3.714   0.740   4.905 -0.0175 -0.0026 -0.4023
 7745SOL     OW30745   5.391   5.972   1.710 -0.2441  0.6744  0.1855
 7745SOL    HW230746   5.422   5.882   1.701 -0.0058  0.3256  3.4282
 7745SOL    HW330747   5.462   6.025   1.675  0.9114 -0.3548  0.8783
 7745SOL    MW430748   5.404   5.967   1.704  0.4282  0.7334  0.0132
 7746SOL     OW30749   5.566   1.285   1.846 -0.7029 -0.3532  0.2926
 7746SOL    HW230750   5.638   1.290   1.908 -0.8189 -1.6727  0.5575
 7746SOL    HW330751   5.586   1.210   1.790 -1.8498 -0.7301  0.3566
 7746SOL    MW430752   5.578   1.276   1.847 -0.1855  0.4917  0.1786
 7747SOL     OW30753   5.569   1.261   1.022  0.4063  0.0276 -0.1172
 7747SOL    HW230754   5.628   1.187   1.035 -1.6985 -1.3885  2.2284
 7747SOL    HW330755   5.486   1.221   0.993 -0.5029  1.5533  0.2597
 7747SOL    MW430756   5.566   1.246   1.020 -0.0728 -0.3288 -0.1638
 7748SOL     OW30757   0.438   1.913   3.134 -0.1644  0.5932  0.0268
 7748SOL    HW230758   0.457   2.004   3.113  0.0333  0.1627 -1.7764
 7748SOL    HW330759   0.358   1.917   3.188 -0.0745  1.8256  0.0899
 7748SOL    MW430760   0.430   1.925   3.138 -0.3732 -0.4414  0.0975
 7749SOL     OW30761   1.620   0.737   0.254  0.2284 -0.3339 -0.4533
 7749SOL    HW230762   1.701   0.786   0.238 -1.1205  2.3204  0.3002
 7749SOL    HW330763   1.628   0.660   0.198  2.9191  0.2271 -1.0007
 7749SOL    MW430764   1.632   0.734   0.244 -0.0460  0.4108 -0.3705
 7750SOL     OW30765   5.184   2.313   1.938 -0.3051 -0.0804  0.0358
 7750SOL    HW230766   5.262   2.272   1.902 -0.3310  0.3641 -0.5392
 7750SOL    HW330767   5.210   2.344   2.024  0.1628  0.1038 -0.1718
 7750SOL    MW430768   5.197   2.311   1.945 -0.0300 -0.0520  0.0187
 7751SOL     OW30769   5.488   1.643   4.610  0.0615 -0.1657  0.1390
 7751SOL    HW230770   5.411   1.636   4.667 -0.3572  0.0441 -0.3889
 7751SOL    HW330771   5.538   1.716   4.647 -0.5929  0.4709 -0.1871
 7751SOL    MW430772   5.484   1.652   4.622 -0.0200  0.0171  0.2011
 7752SOL     OW30773   5.758   1.026   5.696  0.1598 -0.0462  0.1301
 7752SOL    HW230774   5.691   0.961   5.715 -0.5312  0.8167  0.7559
 7752SOL    HW330775   5.753   1.039   5.602 -2.0311  1.5071  0.3900
 7752SOL    MW430776   5.749   1.019   5.686 -0.4305 -0.6477  0.3599
 7753SOL     OW30777   3.825   5.744   1.751 -0.0304 -0.3499  0.0926
 7753SOL    HW230778   3.819   5.739   1.655 -0.5580  2.2344 -0.0695
 7753SOL    HW330779   3.763   5.677   1.782 -1.0246 -0.1711 -1.3818
 7753SOL    MW430780   3.816   5.734   1.742 -0.2627 -0.1968  0.0020
 7754SOL     OW30781   6.237   0.378   4.651 -0.1375  0.5566 -0.3861
 7754SOL    HW230782   6.306   0.315   4.626  1.6863  1.4794  1.9311
 7754SOL    HW330783   6.164   0.323   4.680  1.6637 -0.6585  2.2579
 7754SOL    MW430784   6.237   0.362   4.652 -0.1610  0.7603 -0.3521
 7755SOL     OW30785   1.946   3.924   5.812  0.4830 -0.0484 -0.0611
 7755SOL    HW230786   2.027   3.886   5.779  0.5667  0.1590 -0.0945
 7755SOL    HW330787   1.892   3.848   5.837  0.3080 -0.2186 -0.9382
 7755SOL    MW430788   1.949   3.909   5.811  0.2855 -0.4353  0.3447
 7756SOL     OW30789   5.829   4.905   1.604  0.3200  0.1848  0.0028
 7756SOL    HW230790   5.749   4.858   1.628 -0.4724 -0.8500 -3.9987
 7756SOL    HW330791   5.892   4.836   1.585  0.9827  0.9062 -0.4699
 7756SOL    MW430792   5.827   4.890   1.605  0.4642  0.3155 -0.1649
 7757SOL     OW30793   2.116   1.303   3.199 -0.4943  0.0137 -0.4010
 7757SOL    HW230794   2.174   1.265   3.133 -0.8741  1.0129 -1.3451
 7757SOL    HW330795   2.036   1.250   3.194 -0.2216 -0.4216 -0.1646
 7757SOL    MW430796   2.113   1.291   3.190  0.7607  0.3691  0.5281
 7758SOL     OW30797   3.693   2.992   1.501  0.2495  0.3834  0.5211
 7758SOL    HW230798   3.745   3.057   1.453  0.4492 -0.3373 -0.2638
 7758SOL    HW330799   3.650   3.042   1.570  1.0650  1.2029  0.4556
 7758SOL    MW430800   3.694   3.007   1.504  0.1264 -0.1809 -0.2943
 7759SOL     OW30801   1.950   2.873   1.016 -0.3468  0.1835  0.3812
 7759SOL    HW230802   1.974   2.807   1.081  0.9330 -0.4132 -0.6557
 7759SOL    HW330803   1.958   2.828   0.932 -0.2012  1.4457 -0.3023
 7759SOL    MW430804   1.954   2.858   1.013  0.5046  0.3450 -0.1092
 7760SOL     OW30805   5.296   3.636   3.041  0.0312  0.3295  0.0656
 7760SOL    HW230806   5.283   3.661   2.950 -2.1312 -0.5993  0.0515
 7760SOL    HW330807   5.381   3.674   3.065  1.0791 -0.1693 -2.5646
 7760SOL    MW430808   5.305   3.645   3.032 -0.6683 -0.6482  0.1577
 7761SOL     OW30809   4.913   5.067   3.286  0.0671  0.2514 -0.8993
 7761SOL    HW230810   4.868   5.012   3.350  0.9321  0.3522 -0.1937
 7761SOL    HW330811   4.978   5.010   3.246 -0.6052  0.1335 -1.8488
 7761SOL    MW430812   4.915   5.053   3.289 -0.1818  0.5252 -0.1539
 7762SOL     OW30813   0.582   4.082   5.150  0.3627  0.5870  0.2472
 7762SOL    HW230814   0.490   4.101   5.168  0.5487  1.0762  0.7242
 7762SOL    HW330815   0.596   4.115   5.061 -0.0222  0.1520  0.0266
 7762SOL    MW430816   0.572   4.089   5.141  0.5134  0.1070  0.6050
 7763SOL     OW30817   1.910   0.642   5.233 -0.1316  0.6115 -0.4780
 7763SOL    HW230818   1.893   0.553   5.200  2.8484  0.1899 -1.1604
 7763SOL    HW330819   1.874   0.641   5.321  0.2003 -1.4521 -0.3044
 7763SOL    MW430820   1.903   0.630   5.240  0.9063  0.0465  0.7169
 7764SOL     OW30821   5.611   4.259   3.394  0.3476 -0.4578 -0.2178
 7764SOL    HW230822   5.564   4.286   3.315  2.3099  0.0347 -1.2553
 7764SOL    HW330823   5.581   4.321   3.461 -0.6910 -0.3400 -0.7611
 7764SOL    MW430824   5.601   4.271   3.392 -0.3020 -0.2477  0.4217
 7765SOL     OW30825   5.548   4.219   4.008  0.9342 -0.2836  0.0040
 7765SOL    HW230826   5.519   4.307   4.029  0.9128 -0.0637 -0.9234
 7765SOL    HW330827   5.630   4.231   3.960  1.8197 -0.8357  1.2974
 7765SOL    MW430828   5.555   4.232   4.005  0.8069  0.1787  0.5281
 7766SOL     OW30829   2.498   4.360   2.169  0.1144  0.0265  0.2861
 7766SOL    HW230830   2.407   4.388   2.183  0.4370  0.1811  2.6129
 7766SOL    HW330831   2.491   4.282   2.115 -1.4440 -0.1190  0.6370
 7766SOL    MW430832   2.485   4.354   2.164  0.9426 -0.2529 -0.1836
 7767SOL     OW30833   5.369   1.974   0.509 -0.1114 -0.1276  0.2645
 7767SOL    HW230834   5.426   1.977   0.432 -1.7788  0.6878 -0.9876
 7767SOL    HW330835   5.339   2.065   0.520 -1.9290 -0.6930  0.2764
 7767SOL    MW430836   5.373   1.987   0.501  0.1092 -0.0014 -0.1420
 7768SOL     OW30837   2.632   4.532   1.503  0.1113 -0.2654 -0.5017
 7768SOL    HW230838   2.633   4.598   1.433  0.2748  0.9323  0.5916
 7768SOL    HW330839   2.542   4.534   1.536  0.5042  0.5198  0.5434
 7768SOL    MW430840   2.620   4.541   1.498 -0.1538 -0.9403 -0.1350
 7769SOL     OW30841   4.257   5.962   4.387  0.1662 -0.1296  0.1128
 7769SOL    HW230842   4.321   5.899   4.354 -1.0622 -1.4777  0.1950
 7769SOL    HW330843   4.228   6.010   4.309 -0.3107 -1.0338 -0.2839
 7769SOL    MW430844   4.261   5.960   4.373 -0.3803 -0.2493  0.2291
 7770SOL     OW30845   0.700   5.126   0.904 -0.2506  0.1677 -0.2115
 7770SOL    HW230846   0.764   5.119   0.975 -1.5402  3.2681  1.4670
 7770SOL    HW330847   0.627   5.071   0.932  0.6319 -1.4907 -0.9962
 7770SOL    MW430848   0.699   5.118   0.917 -0.4457 -0.1666  0.1737
 7771SOL     OW30849   3.495   4.821   1.285 -0.8380 -0.5224  0.1611
 7771SOL    HW230850   3.545   4.856   1.358 -0.5745 -2.0887  0.7740
 7771SOL    HW330851   3.404   4.846   1.304 -0.5773  0.4504  0.1763
 7771SOL    MW430852   3.489   4.829   1.297 -0.4101  0.3488  0.1471
 7772SOL     OW30853   3.641   0.598   6.020 -0.3401  0.2743 -0.3322
 7772SOL    HW230854   3.625   0.507   6.047  0.4683  0.3489  0.4422
 7772SOL    HW330855   3.606   0.603   5.931  0.5515 -1.0931 -0.8011
 7772SOL    MW430856   3.634   0.587   6.012  0.5903 -0.2747 -0.7725
 7773SOL     OW30857   4.471   2.099   5.381  0.5148  0.4047 -0.2176
 7773SOL    HW230858   4.378   2.102   5.358  1.1061  3.6757 -3.0712
 7773SOL    HW330859   4.479   2.155   5.459  0.1259  0.1704 -0.0074
 7773SOL    MW430860   4.460   2.107   5.388  0.1761 -0.2150  0.0052
 7774SOL     OW30861   2.374   5.814   6.202 -0.3549 -0.1718  0.7135
 7774SOL    HW230862   2.323   5.869   6.143  1.7715  0.7334 -0.3829
 7774SOL    HW330863   2.312   5.748   6.233 -1.7919 -0.0823 -1.7468
 7774SOL    MW430864   2.359   5.812   6.198  0.1370 -0.2291  0.0524
 7775SOL     OW30865   6.263   1.467   1.308 -0.1617  0.0977  0.0214
 7775SOL    HW230866   6.241   1.494   1.397 -0.3342  1.1794 -0.3238
 7775SOL    HW330867   6.359   1.463   1.307 -0.1706 -0.2258  0.3343
 7775SOL    MW430868   6.273   1.470   1.319 -0.2483 -0.0944  0.0342
 7776SOL     OW30869   6.299   4.090   4.005  0.5589 -0.1127 -0.6082
 7776SOL    HW230870   6.253   4.085   3.921  1.1223  1.9887 -1.1096
 7776SOL    HW330871   6.390   4.107   3.981  0.6347  1.0449  0.4100
 7776SOL    MW430872   6.305   4.091   3.991  0.1409 -0.6485 -0.6798
 7777SOL     OW30873   6.354   2.685   4.174 -0.5668  0.5018 -0.4234
 7777SOL    HW230874   6.410   2.696   4.098 -0.4771  1.8574 -0.1795
 7777SOL    HW330875   6.294   2.760   4.172  0.5499  1.5626  1.7517
 7777SOL    MW430876   6.353   2.696   4.164  0.1246  0.4652 -0.8805
 7778SOL     OW30877   6.046   3.368   2.812  0.6338 -0.3834 -0.0770
 7778SOL    HW230878   5.995   3.367   2.892 -0.9077  1.0922 -0.9807
 7778SOL    HW330879   6.135   3.391   2.839 -0.1342  1.3654  1.0871
 7778SOL    MW430880   6.051   3.371   2.826  0.0219 -0.1615 -0.2071
 7779SOL     OW30881   5.750   2.839   3.989 -0.3304 -0.8161 -0.4321
 7779SOL    HW230882   5.701   2.902   3.936 -1.2176 -0.8387  0.3291
 7779SOL    HW330883   5.687   2.771   4.011 -0.3214 -0.2494  1.5521
 7779SOL    MW430884   5.735   2.839   3.985  0.5245 -0.7025 -0.1059
 7780SOL     OW30885   2.779   5.358   2.915  0.4711 -0.1685 -0.0287
 7780SOL    HW230886   2.758   5.398   2.831  0.4769 -1.7269 -0.8079
 7780SOL    HW330887   2.866   5.320   2.903  0.5826 -0.1838  0.7698
 7780SOL    MW430888   2.788   5.358   2.902  0.2291 -0.1168 -0.4166
 7781SOL     OW30889   2.220   3.739   4.881  0.0155  0.3861 -0.7897
 7781SOL    HW230890   2.314   3.757   4.884 -0.2439  1.7658 -0.4990
 7781SOL    HW330891   2.214   3.643   4.879  1.3690  0.2016  1.4727
 7781SOL    MW430892   2.232   3.729   4.881 -0.0847 -0.4678 -0.4231
 7782SOL     OW30893   2.490   3.069   2.271  0.0322  0.0074 -0.3069
 7782SOL    HW230894   2.541   2.990   2.288 -0.4674 -0.2259  0.1114
 7782SOL    HW330895   2.511   3.128   2.344  0.5136  0.3240 -0.6911
 7782SOL    MW430896   2.500   3.067   2.283  0.1940 -0.0996  0.0371
 7783SOL     OW30897   5.390   5.462   0.914 -0.5930  0.6969 -0.4649
 7783SOL    HW230898   5.382   5.367   0.904  0.6993  0.4976  0.1552
 7783SOL    HW330899   5.313   5.487   0.966  0.3565 -0.4325  1.6239
 7783SOL    MW430900   5.379   5.453   0.920  0.6549  0.4092  0.5352
 7784SOL     OW30901   3.389   1.133   1.528 -0.5411  0.3704 -0.2049
 7784SOL    HW230902   3.375   1.196   1.599  0.2393  3.0013 -2.2334
 7784SOL    HW330903   3.476   1.098   1.544 -0.7472  0.2300  0.6453
 7784SOL    MW430904   3.399   1.137   1.539 -0.0683  0.5169  0.0747
 7785SOL     OW30905   3.340   3.629   6.047 -0.0543  0.3429 -0.0881
 7785SOL    HW230906   3.398   3.589   6.111 -0.4125  1.0994  0.7430
 7785SOL    HW330907   3.382   3.614   5.962  0.0050 -1.4218  0.2259
 7785SOL    MW430908   3.353   3.622   6.044 -0.3065  0.2550 -0.1308
 7786SOL     OW30909   4.273   0.028   2.645 -0.4485 -0.3132 -0.2955
 7786SOL    HW230910   4.267   0.120   2.671 -0.9116 -0.8998  1.9212
 7786SOL    HW330911   4.304  -0.017   2.724  3.0222 -1.6979 -2.2432
 7786SOL    MW430912   4.276   0.034   2.659 -0.0732  0.4309 -0.0120
 7787SOL     OW30913   1.640   4.155   6.144  0.2577 -0.3842  0.3939
 7787SOL    HW230914   1.717   4.134   6.091 -1.1730 -1.3554 -1.4188
 7787SOL    HW330915   1.590   4.073   6.147 -2.0778  0.8565 -0.9529
 7787SOL    MW430916   1.643   4.142   6.137  0.0162  0.2673  0.0772
 7788SOL     OW30917   0.943   5.500   3.282  0.2260 -0.3672  0.2536
 7788SOL    HW230918   0.882   5.528   3.350  0.6506  1.6579 -0.1463
 7788SOL    HW330919   0.966   5.580   3.235  2.5950 -1.1517 -0.0941
 7788SOL    MW430920   0.938   5.514   3.285  0.1239  0.0384  0.1108
 7789SOL     OW30921   3.265   3.516   3.979 -0.4276 -0.0288 -0.3141
 7789SOL    HW230922   3.325   3.463   3.927 -0.5527  1.6181 -2.2752
 7789SOL    HW330923   3.313   3.536   4.059  0.2021 -1.7003 -0.2326
 7789SOL    MW430924   3.279   3.512   3.983 -0.0708  0.0017  0.3219
 7790SOL     OW30925   0.819   4.803   1.610 -0.6293  0.0933  0.3465
 7790SOL    HW230926   0.777   4.724   1.643 -1.1340 -0.5579 -1.7104
 7790SOL    HW330927   0.750   4.868   1.607 -1.1120 -0.4337 -1.2305
 7790SOL    MW430928   0.805   4.801   1.614  0.6767 -0.3706 -0.7045
 7791SOL     OW30929   2.991   2.082   4.355 -0.2730 -0.6679  0.1741
 7791SOL    HW230930   2.913   2.070   4.409 -0.8504 -0.4638 -0.5904
 7791SOL    HW330931   2.961   2.062   4.266  0.2741  0.4624 -0.2813
 7791SOL    MW430932   2.977   2.078   4.350 -0.6388  0.4966  0.1867
 7792SOL     OW30933   4.369   5.105   3.051  0.3881  0.5016 -0.1329
 7792SOL    HW230934   4.330   5.018   3.061 -0.6162  0.9066 -0.3935
 7792SOL    HW330935   4.450   5.101   3.102  0.1834 -0.4830  0.1310
 7792SOL    MW430936   4.374   5.093   3.059 -0.4482  0.0688 -0.4650
 7793SOL     OW30937   2.017   4.196   5.231 -0.0672  0.3366  0.2803
 7793SOL    HW230938   2.075   4.191   5.155  0.4699  0.1011  0.6980
 7793SOL    HW330939   2.025   4.286   5.263 -1.7854  1.0417 -1.0723
 7793SOL    MW430940   2.026   4.207   5.225  0.3316  0.0170 -0.6043
 7794SOL     OW30941   1.967   3.321   5.685  0.1901 -0.6790 -0.1368
 7794SOL    HW230942   1.968   3.345   5.777  1.7840  1.2791 -0.6051
 7794SOL    HW330943   1.892   3.369   5.649 -0.0062 -0.8891 -0.0155
 7794SOL    MW430944   1.957   3.330   5.692 -0.5711  0.6621 -0.5360
 7795SOL     OW30945   5.517   5.462   2.130  0.7769 -0.0671  0.2716
 7795SOL    HW230946   5.435   5.497   2.164  1.3448  1.5948  0.0381
 7795SOL    HW330947   5.550   5.531   2.072  3.2123  0.1643  1.7851
 7795SOL    MW430948   5.511   5.476   2.127  0.2380 -0.1790  0.0053
 7796SOL     OW30949   2.561   4.545   6.153  0.1966 -0.1098  0.1788
 7796SOL    HW230950   2.565   4.462   6.104 -0.7532  0.1022 -0.2803
 7796SOL    HW330951   2.636   4.595   6.120  2.8808 -2.0064  2.8591
 7796SOL    MW430952   2.572   4.540   6.142 -0.2523  0.1303 -0.0205
 7797SOL     OW30953   5.370   1.892   1.444 -0.2524 -0.1416 -0.2930
 7797SOL    HW230954   5.292   1.946   1.460 -0.8685 -0.6221 -1.5972
 7797SOL    HW330955   5.363   1.866   1.353  2.1877  0.9622 -0.8663
 7797SOL    MW430956   5.359   1.896   1.434 -0.2017  0.3446  0.1319
 7798SOL     OW30957   4.633   3.671   6.053 -0.3501  0.2867 -0.0818
 7798SOL    HW230958   4.689   3.722   5.993 -0.1974  0.9456  0.6008
 7798SOL    HW330959   4.654   3.580   6.035  0.0652  0.4961 -0.6770
 7798SOL    MW430960   4.643   3.666   6.043 -0.0562  0.3459 -0.7048
 7799SOL     OW30961   0.958   3.079   4.716 -0.5385 -0.5519 -0.6006
 7799SOL    HW230962   0.891   3.124   4.767 -1.0543 -1.0002 -0.8820
 7799SOL    HW330963   0.986   3.006   4.772  0.5136  0.2695 -0.0151
 7799SOL    MW430964   0.953   3.075   4.731 -0.0953  0.0944  0.0781
 7800SOL     OW30965   0.687   4.852   3.972  0.0583  0.2996 -0.3522
 7800SOL    HW230966   0.699   4.793   4.046 -0.8950 -0.5549 -0.8468
 7800SOL    HW330967   0.771   4.853   3.927  0.2072 -0.3540 -0.0962
 7800SOL    MW430968   0.699   4.844   3.976 -0.4069  0.0801 -0.3942
 7801SOL     OW30969   0.531   5.414   4.427 -0.1238  0.4739  0.0618
 7801SOL    HW230970   0.605   5.382   4.376 -0.7517 -0.2373 -0.4153
 7801SOL    HW330971   0.454   5.374   4.387 -0.6531  0.0894  1.4131
 7801SOL    MW430972   0.531   5.405   4.415 -0.3146  0.0455  0.1943
 7802SOL     OW30973   0.571   2.417   2.496 -0.1048 -0.2294 -0.0324
 7802SOL    HW230974   0.540   2.328   2.477 -0.6208 -0.1526  0.4112
 7802SOL    HW330975   0.626   2.440   2.422 -2.0247  0.0519 -1.4349
 7802SOL    MW430976   0.574   2.408   2.484 -0.3821 -0.1519 -0.5550
 7803SOL     OW30977   5.633   0.904   0.777 -0.1956  0.1864  0.8302
 7803SOL    HW230978   5.573   0.959   0.728  1.8917  1.4954 -0.3971
 7803SOL    HW330979   5.646   0.950   0.860 -0.6849  0.0348  0.9907
 7803SOL    MW430980   5.627   0.917   0.781  0.1726 -0.3093 -0.6014
 7804SOL     OW30981   0.022   3.141   6.354 -0.1896 -0.0324  0.5392
 7804SOL    HW230982   0.038   3.185   6.437  1.5552 -0.5886  0.5479
 7804SOL    HW330983   0.022   3.211   6.289  1.7000  0.1231  0.6537
 7804SOL    MW430984   0.024   3.156   6.356 -0.2843 -0.0444  0.0111
 7805SOL     OW30985   0.627   4.065   2.785  0.2004  0.3734 -0.1852
 7805SOL    HW230986   0.573   4.125   2.734  1.5581  0.3418 -1.7767
 7805SOL    HW330987   0.716   4.082   2.754  0.8403 -1.1016  0.7465
 7805SOL    MW430988   0.632   4.075   2.774  0.0542 -0.4239 -0.5762
 7806SOL     OW30989   0.843   3.064   4.286  0.4110 -0.3082  0.2482
 7806SOL    HW230990   0.860   3.011   4.209  2.1565  1.4006 -0.6225
 7806SOL    HW330991   0.853   3.004   4.360  1.5797 -1.3452 -0.7260
 7806SOL    MW430992   0.847   3.049   4.286 -0.5190 -0.2180  0.0805
 7807SOL     OW30993   3.252   4.247   4.592 -0.0153  0.1309 -0.5336
 7807SOL    HW230994   3.314   4.174   4.586  0.2592  0.3088  0.1619
 7807SOL    HW330995   3.184   4.217   4.652  0.1562  0.4946 -0.1572
 7807SOL    MW430996   3.251   4.233   4.599  0.0760  0.9122  0.1282
 7808SOL     OW30997   5.369   0.293   2.738  0.0347  0.2302 -0.1821
 7808SOL    HW230998   5.406   0.216   2.694 -0.1280 -0.2981  0.5894
 7808SOL    HW330999   5.372   0.362   2.672  0.3543 -0.3902 -0.8276
 7808SOL    MW431000   5.374   0.292   2.723 -0.4088 -0.1441  0.2298
 7809SOL     OW31001   0.932   2.184   1.384 -0.0056 -0.4518  0.1099
 7809SOL    HW231002   0.856   2.185   1.325  0.0454  2.1946 -0.0370
 7809SOL    HW331003   0.973   2.099   1.369 -1.1534 -0.6725 -2.1686
 7809SOL    MW431004   0.928   2.173   1.374  0.0801  0.1200  0.4108
 7810SOL     OW31005   0.227   1.510   4.318  0.1501 -0.3619  0.0937
 7810SOL    HW231006   0.227   1.602   4.345 -3.0333 -0.3659  0.5513
 7810SOL    HW331007   0.191   1.512   4.229  0.5928 -1.1397 -0.1086
 7810SOL    MW431008   0.222   1.523   4.309  0.6529  0.1317  0.3871
 7811SOL     OW31009   1.997   2.988   4.984  0.0479 -0.0873  0.0896
 7811SOL    HW231010   1.941   2.996   5.062  0.3597 -1.4829  0.4976
 7811SOL    HW331011   2.083   3.016   5.014  0.2399 -0.9209  0.3743
 7811SOL    MW431012   2.001   2.992   4.998 -0.4966 -0.1559 -0.4311
 7812SOL     OW31013   4.439   3.095   1.292  0.1628 -0.4914 -0.3458
 7812SOL    HW231014   4.370   3.029   1.300 -0.5709  0.4476  1.7736
 7812SOL    HW331015   4.395   3.178   1.312  1.5104  0.3914 -0.8715
 7812SOL    MW431016   4.424   3.097   1.295  0.3015 -0.0049  0.3755
 7813SOL     OW31017   0.164   1.067   3.594 -0.1258 -0.0106 -0.2461
 7813SOL    HW231018   0.069   1.060   3.596 -0.1460  0.4535  0.6673
 7813SOL    HW331019   0.188   1.099   3.681  0.7590  1.2440 -0.9298
 7813SOL    MW431020   0.155   1.070   3.606 -0.2709  0.2490 -0.2129
 7814SOL     OW31021   2.244   0.575   0.263 -0.3701  0.0470  0.1940
 7814SOL    HW231022   2.242   0.480   0.259  0.4606  0.0354 -0.0928
 7814SOL    HW331023   2.333   0.597   0.290 -0.4128  0.7553 -0.1987
 7814SOL    MW431024   2.255   0.566   0.266  0.4324 -0.4127 -0.1917
 7815SOL     OW31025   5.808   4.789   5.585 -0.2799  0.1299  0.0750
 7815SOL    HW231026   5.872   4.774   5.654 -1.7904  0.3541  1.5976
 7815SOL    HW331027   5.821   4.716   5.524  2.2576  0.8842 -0.3911
 7815SOL    MW431028   5.818   4.777   5.586  0.1567 -0.1181 -0.2353
 7816SOL     OW31029   2.406   2.013   0.319 -0.1809 -0.3730  0.1206
 7816SOL    HW231030   2.451   2.064   0.386  0.9314 -0.2401 -0.7029
 7816SOL    HW331031   2.473   1.956   0.284 -1.2125 -1.8351  0.4410
 7816SOL    MW431032   2.421   2.012   0.323  0.1326 -0.5174 -0.1844
 7817SOL     OW31033   6.091   0.212   0.031  0.4125 -0.3003  0.6097
 7817SOL    HW231034   6.045   0.296   0.026  2.5219  0.8470 -1.6632
 7817SOL    HW331035   6.176   0.233   0.070  1.1008 -1.3011 -0.3089
 7817SOL    MW431036   6.096   0.226   0.036  0.0025 -0.2842  0.1909
 7818SOL     OW31037   3.666   4.793   4.132  0.3340  0.3200  0.2162
 7818SOL    HW231038   3.686   4.722   4.072  0.5142  1.3887 -1.0443
 7818SOL    HW331039   3.658   4.751   4.218  1.2352 -1.0829 -0.3545
 7818SOL    MW431040   3.668   4.778   4.136  0.0586 -0.0003  0.7277
 7819SOL     OW31041   1.627   1.380   4.490 -0.4628  0.1397  0.3697
 7819SOL    HW231042   1.621   1.293   4.529  0.1079  0.1938  0.5873
 7819SOL    HW331043   1.592   1.438   4.558 -0.7960  0.0870  0.2445
 7819SOL    MW431044   1.621   1.376   4.504  0.0337 -0.2987 -0.3405
 7820SOL     OW31045   3.443   0.557   1.851  0.0438 -0.2226 -0.6328
 7820SOL    HW231046   3.444   0.499   1.775 -0.0371 -1.3025  0.1725
 7820SOL    HW331047   3.518   0.615   1.838  1.8396 -2.3014 -0.1273
 7820SOL    MW431048   3.453   0.557   1.839  0.2905  0.3703  0.1992
 7821SOL     OW31049   2.576   0.093   5.836 -0.0028 -0.0847  0.4160
 7821SOL    HW231050   2.575   0.007   5.793 -0.4160 -0.1385  0.5346
 7821SOL    HW331051   2.501   0.139   5.801  0.8459  0.6521 -0.4891
 7821SOL    MW431052   2.566   0.088   5.826  0.2140 -0.5663 -0.3555
 7822SOL     OW31053   0.480   0.867   3.395 -0.3669  0.0724 -0.1493
 7822SOL    HW231054   0.474   0.887   3.489 -0.5569 -0.5545 -0.0224
 7822SOL    HW331055   0.432   0.785   3.385  2.3353 -1.6043 -0.2405
 7822SOL    MW431056   0.473   0.859   3.406 -0.0330  1.1700 -0.0238
 7823SOL     OW31057   5.041   1.084   6.278 -0.0102 -0.6919  0.7204
 7823SOL    HW231058   5.087   1.154   6.231 -0.1840 -1.3851 -0.5187
 7823SOL    HW331059   5.111   1.033   6.319  0.1906 -0.5357  0.5746
 7823SOL    MW431060   5.056   1.086   6.278 -0.1997  0.3315 -0.0452
 7824SOL     OW31061   3.185   0.243   2.122 -0.6288 -0.2484 -0.5035
 7824SOL    HW231062   3.116   0.283   2.069  1.3033  0.9390 -2.2766
 7824SOL    HW331063   3.224   0.315   2.171  1.6040 -0.1792 -2.2367
 7824SOL    MW431064   3.181   0.257   2.121 -0.0509  0.0918  0.0716
 7825SOL     OW31065   3.717   1.558   4.285  0.0829  0.1412 -0.2393
 7825SOL    HW231066   3.722   1.640   4.236  2.0876 -0.4513 -1.1327
 7825SOL    HW331067   3.704   1.585   4.376  3.3452  1.6854 -0.0767
 7825SOL    MW431068   3.716   1.572   4.290 -0.0295 -0.0046  0.0051
 7826SOL     OW31069   4.545   4.688   4.776  0.3998  0.0605  0.2844
 7826SOL    HW231070   4.492   4.753   4.822 -0.6142  1.6869 -2.8349
 7826SOL    HW331071   4.582   4.634   4.845 -1.8001  1.5768  2.8731
 7826SOL    MW431072   4.543   4.690   4.791  0.3272 -0.2502  0.7249
 7827SOL     OW31073   1.911   0.563   6.114  0.5124 -0.4632 -0.3044
 7827SOL    HW231074   2.006   0.564   6.126  0.3156 -2.5813  2.3786
 7827SOL    HW331075   1.895   0.490   6.055  0.5077 -0.9909  0.3356
 7827SOL    MW431076   1.921   0.553   6.108 -0.1809  0.3120 -0.3591
 7828SOL     OW31077   1.601   5.692   3.780 -0.1392  0.0525 -0.0082
 7828SOL    HW231078   1.574   5.706   3.689 -0.1047  0.7234  0.0819
 7828SOL    HW331079   1.526   5.648   3.819 -0.2358 -0.0603 -0.3127
 7828SOL    MW431080   1.587   5.688   3.773  0.4553 -0.5460 -0.5512
 7829SOL     OW31081   1.462   5.052   1.640 -0.1851  0.3256 -0.2069
 7829SOL    HW231082   1.408   4.976   1.660 -0.4326  0.4583 -0.3749
 7829SOL    HW331083   1.533   5.048   1.704  1.5812 -1.8110 -2.1254
 7829SOL    MW431084   1.465   5.041   1.651  1.1369 -0.1861 -0.5261
 7830SOL     OW31085   3.985   1.988   3.525 -0.3909 -0.2235 -0.1019
 7830SOL    HW231086   3.955   2.040   3.600 -0.8135 -0.9206  0.2220
 7830SOL    HW331087   4.067   2.029   3.499 -0.2419  0.0316  0.7438
 7830SOL    MW431088   3.992   2.001   3.532 -0.0556 -0.1712 -0.0017
 7831SOL     OW31089   2.379   2.163   0.878 -0.3500  0.0615  0.6039
 7831SOL    HW231090   2.471   2.139   0.869 -0.7425 -0.8462 -1.5872
 7831SOL    HW331091   2.336   2.123   0.802 -2.6726 -0.0727  1.9173
 7831SOL    MW431092   2.385   2.155   0.866  0.5939  0.1981 -0.1063
 7832SOL     OW31093   1.228   1.690   4.379 -0.2417 -0.5905  0.0398
 7832SOL    HW231094   1.250   1.768   4.328  0.0786 -0.0745  0.9504
 7832SOL    HW331095   1.185   1.632   4.316  0.7035 -0.2319 -0.9685
 7832SOL    MW431096   1.225   1.693   4.364 -0.6170  0.5149  0.1710
 7833SOL     OW31097   2.845   2.687   0.943  0.0008  0.1665  0.1942
 7833SOL    HW231098   2.795   2.765   0.921 -1.3830 -1.3304 -2.5870
 7833SOL    HW331099   2.793   2.644   1.011 -0.2661  0.6975  0.3327
 7833SOL    MW431100   2.831   2.691   0.949 -0.1293 -0.4950 -0.4665
 7834SOL     OW31101   3.010   5.097   0.033  0.2553  0.1735  0.5105
 7834SOL    HW231102   3.033   5.185   0.005 -0.3669  0.6076  1.3303
 7834SOL    HW331103   2.916   5.090   0.015  0.6657 -1.0618 -1.4631
 7834SOL    MW431104   3.000   5.107   0.027 -0.2643  0.1837 -0.8041
 7835SOL     OW31105   0.598   3.484   2.735  0.1905  0.4369 -0.0609
 7835SOL    HW231106   0.529   3.544   2.762  0.0350  1.0227 -1.6666
 7835SOL    HW331107   0.671   3.504   2.793 -0.4850  0.8482  0.6709
 7835SOL    MW431108   0.598   3.495   2.746  0.0617 -0.1909  0.2323
 7836SOL     OW31109   3.283   1.298   5.781 -0.2686 -0.6534  0.1580
 7836SOL    HW231110   3.278   1.219   5.728 -1.3635 -0.7222  0.3504
 7836SOL    HW331111   3.251   1.271   5.867 -0.7739  0.0304  0.1880
 7836SOL    MW431112   3.278   1.284   5.785 -0.0645 -0.3828  0.0380
 7837SOL     OW31113   5.150   1.940   4.007 -0.5950 -0.2065 -0.0372
 7837SOL    HW231114   5.235   1.958   3.969 -1.1177  0.6387 -0.8484
 7837SOL    HW331115   5.169   1.892   4.088  0.5720 -1.2276 -0.8933
 7837SOL    MW431116   5.164   1.936   4.013  0.3246  0.9538 -0.0302
 7838SOL     OW31117   3.130   5.131   5.840 -0.8369 -0.4038  0.2600
 7838SOL    HW231118   3.088   5.048   5.820 -2.0617  0.9694 -3.9186
 7838SOL    HW331119   3.207   5.134   5.783 -0.7491  1.2306  0.3993
 7838SOL    MW431120   3.135   5.121   5.830  0.0674  0.5224  0.1083
 7839SOL     OW31121   4.042   2.606   1.122 -0.3787  0.2993  0.0638
 7839SOL    HW231122   4.134   2.627   1.109  0.0144 -1.3603 -0.0363
 7839SOL    HW331123   3.995   2.662   1.060  0.5858  0.8551 -0.1741
 7839SOL    MW431124   4.048   2.616   1.112  0.1180  0.2588 -0.2694
 7840SOL     OW31125   2.222   5.545   2.887  0.4114 -0.3193  0.0486
 7840SOL    HW231126   2.215   5.557   2.982  1.0134  0.8364 -0.0285
 7840SOL    HW331127   2.198   5.454   2.872  1.7345 -0.9600  1.4851
 7840SOL    MW431128   2.218   5.535   2.898  0.1253 -0.1067  0.2844
 7841SOL     OW31129   0.817   5.418   5.775  0.3285  0.3399 -0.1734
 7841SOL    HW231130   0.722   5.415   5.788  0.5163 -0.2604  1.2300
 7841SOL    HW331131   0.848   5.332   5.805  1.2280  0.1706 -1.5029
 7841SOL    MW431132   0.808   5.406   5.781  0.6045  0.3769  0.4010
 7842SOL     OW31133   1.588   1.585   4.681 -0.2469  0.1361 -0.0010
 7842SOL    HW231134   1.624   1.531   4.751  0.9938 -1.0317 -1.4775
 7842SOL    HW331135   1.493   1.584   4.696 -0.3443 -2.9688 -0.2735
 7842SOL    MW431136   1.580   1.578   4.692  0.2890  0.1208 -0.2963
 7843SOL     OW31137   5.185   1.124   0.172 -0.1481  0.3243  0.3256
 7843SOL    HW231138   5.214   1.078   0.251  0.4113  1.3494  0.7418
 7843SOL    HW331139   5.255   1.109   0.108 -0.0379  0.4773  0.4112
 7843SOL    MW431140   5.198   1.116   0.174  0.0191 -0.4864  0.1621
 7844SOL     OW31141   4.519   2.792   2.950  0.4107 -0.5461 -0.2327
 7844SOL    HW231142   4.567   2.732   2.893  0.9083  0.8869 -1.3827
 7844SOL    HW331143   4.427   2.771   2.935  0.5825 -2.2358  0.7824
 7844SOL    MW431144   4.513   2.781   2.940  0.2604  0.2627  0.3829
 7845SOL     OW31145   4.283   2.874   6.117  0.2340 -0.0071  0.0981
 7845SOL    HW231146   4.357   2.933   6.102 -0.4201  0.3940 -1.6581
 7845SOL    HW331147   4.205   2.926   6.098 -0.4167 -1.0304 -0.1461
 7845SOL    MW431148   4.283   2.888   6.113 -0.0205 -0.1338 -0.0772
 7846SOL     OW31149   3.230   2.433   5.815  0.5318 -0.2065  0.5771
 7846SOL    HW231150   3.181   2.493   5.759  1.1007 -0.5284 -0.2918
 7846SOL    HW331151   3.173   2.418   5.890 -0.4869 -0.1906 -0.1720
 7846SOL    MW431152   3.216   2.439   5.818  0.0200 -0.1698  0.6580
 7847SOL     OW31153   4.294   5.889   6.302 -0.2090 -0.0349  0.0024
 7847SOL    HW231154   4.207   5.869   6.269 -1.2938 -0.7346  3.0138
 7847SOL    HW331155   4.346   5.811   6.284 -0.8210 -0.4660  0.1021
 7847SOL    MW431156   4.289   5.876   6.295  0.4365  0.1467 -0.5671
 7848SOL     OW31157   1.309   2.683   4.720  0.2271  0.0096  0.1185
 7848SOL    HW231158   1.384   2.708   4.773  0.6581  2.2714 -1.4004
 7848SOL    HW331159   1.297   2.756   4.659 -2.0511 -1.1222 -0.9383
 7848SOL    MW431160   1.317   2.696   4.719 -0.0305  0.2267 -0.1577
 7849SOL     OW31161   1.506   5.185   1.393 -0.2767 -0.1192 -0.2196
 7849SOL    HW231162   1.464   5.154   1.474  1.3355  1.3460  1.2449
 7849SOL    HW331163   1.597   5.202   1.418 -0.1702  2.1388 -1.8494
 7849SOL    MW431164   1.512   5.183   1.407 -0.4365 -0.1952 -0.0510
 7850SOL     OW31165   3.144   6.168   3.612 -0.1560 -0.3199 -0.3242
 7850SOL    HW231166   3.225   6.179   3.563 -0.5377  0.7151 -0.7497
 7850SOL    HW331167   3.093   6.105   3.561  0.2270 -0.7126 -0.2333
 7850SOL    MW431168   3.148   6.161   3.599 -0.2723 -0.1784 -0.1903
 7851SOL     OW31169   5.987   4.200   0.643  0.4663  0.1291 -0.2205
 7851SOL    HW231170   5.963   4.266   0.578  1.0985  1.4425  0.8281
 7851SOL    HW331171   6.015   4.125   0.592 -1.7086  0.0675 -1.4775
 7851SOL    MW431172   5.987   4.199   0.628  0.1307  0.1847  0.0297
 7852SOL     OW31173   1.443   0.054   1.273 -0.2437 -0.3788 -0.2267
 7852SOL    HW231174   1.442   0.013   1.187 -0.3970 -1.1345  0.1292
 7852SOL    HW331175   1.371   0.117   1.271  2.1903  2.6138 -2.0516
 7852SOL    MW431176   1.433   0.057   1.261 -0.0575  0.0704  0.5734
 7853SOL     OW31177   1.848   1.316   5.895  0.3999 -0.2773  0.1832
 7853SOL    HW231178   1.906   1.386   5.922 -1.3499  0.0360  3.7004
 7853SOL    HW331179   1.800   1.352   5.820  2.1079  0.7996 -0.4390
 7853SOL    MW431180   1.849   1.330   5.888 -0.5937 -0.0550  0.2147
 7854SOL     OW31181   3.348   2.564   4.294 -0.4930  0.4111  0.5904
 7854SOL    HW231182   3.296   2.500   4.246 -0.6826  1.5222 -0.7390
 7854SOL    HW331183   3.439   2.541   4.273 -0.4038 -1.0164  2.2549
 7854SOL    MW431184   3.353   2.552   4.285  0.3817  0.0198 -0.7066
 7855SOL     OW31185   5.887   0.652   3.600 -0.0007 -0.0237  0.2790
 7855SOL    HW231186   5.905   0.558   3.605 -1.8019 -0.3547  2.6684
 7855SOL    HW331187   5.823   0.660   3.530 -1.1513 -0.8985  1.1766
 7855SOL    MW431188   5.881   0.641   3.592  0.0081 -0.6229 -0.6448
 7856SOL     OW31189   1.281   3.858   0.716  0.7904 -0.7143  0.0688
 7856SOL    HW231190   1.371   3.827   0.714  1.0104 -0.0891 -0.0138
 7856SOL    HW331191   1.248   3.832   0.802  1.4929  0.2463  0.6499
 7856SOL    MW431192   1.288   3.851   0.727 -0.6341  0.3280 -0.8539
 7857SOL     OW31193   0.359   4.287   0.473 -0.4724 -0.2962  0.2946
 7857SOL    HW231194   0.299   4.249   0.537 -0.9021 -0.4052 -0.1656
 7857SOL    HW331195   0.436   4.312   0.524 -1.0896  0.2730  0.9749
 7857SOL    MW431196   0.361   4.285   0.488  0.5371  1.1018  0.4516
 7858SOL     OW31197   0.789   4.759   1.259 -0.2311  0.1705 -0.1379
 7858SOL    HW231198   0.772   4.728   1.171  3.2576 -1.5755 -0.3693
 7858SOL    HW331199   0.791   4.855   1.251  0.2143  0.0388 -2.0173
 7858SOL    MW431200   0.787   4.768   1.246 -0.3951  0.4918  0.1934
 7859SOL     OW31201   6.239   2.175   2.499 -0.0339  0.4975  0.1680
 7859SOL    HW231202   6.257   2.226   2.421  0.1575 -0.0906 -0.1796
 7859SOL    HW331203   6.210   2.239   2.564  1.1814  1.1770  0.0686
 7859SOL    MW431204   6.237   2.190   2.498  0.7854  0.3016  0.6993
 7860SOL     OW31205   0.431   5.020   3.880 -0.0224  0.0855  0.2602
 7860SOL    HW231206   0.365   4.951   3.891 -0.2379  0.2645  0.0845
 7860SOL    HW331207   0.507   4.975   3.843 -0.7428  0.2362 -1.4736
 7860SOL    MW431208   0.432   5.005   3.877 -0.0294 -0.2142 -0.1491
 7861SOL     OW31209   2.865   2.353   3.259 -0.0782 -0.0459  0.3233
 7861SOL    HW231210   2.916   2.366   3.179  1.3657  0.0231  1.2205
 7861SOL    HW331211   2.792   2.297   3.233  0.7915 -0.6499 -0.8768
 7861SOL    MW431212   2.862   2.347   3.245  0.2654 -0.2338 -0.4192
 7862SOL     OW31213   3.685   2.882   2.776 -0.2817  0.5988 -0.2323
 7862SOL    HW231214   3.760   2.924   2.818 -0.1002  2.4834 -2.2774
 7862SOL    HW331215   3.612   2.942   2.791 -0.5270  0.5995 -1.3516
 7862SOL    MW431216   3.685   2.896   2.784 -0.3589 -0.5208  0.1299
 7863SOL     OW31217   1.890   1.814   6.279 -0.4928  0.6492  0.3719
 7863SOL    HW231218   1.812   1.779   6.235 -1.9477  1.2669  2.3018
 7863SOL    HW331219   1.863   1.902   6.307  1.8193  1.9374 -1.1699
 7863SOL    MW431220   1.876   1.821   6.277  0.3556  0.3537  0.1129
 7864SOL     OW31221   1.229   5.241   5.509  0.7828  0.3499  0.8935
 7864SOL    HW231222   1.275   5.205   5.433 -0.3510  0.6768  0.0323
 7864SOL    HW331223   1.176   5.312   5.474 -1.6514 -1.0507  1.5421
 7864SOL    MW431224   1.228   5.245   5.495  0.1740 -0.6188  0.3645
 7865SOL     OW31225   3.278   1.675   2.979 -0.6041 -0.3858 -0.2329
 7865SOL    HW231226   3.322   1.663   2.894 -0.8985  3.2459 -1.0690
 7865SOL    HW331227   3.288   1.591   3.023  2.5162 -1.4088 -2.5066
 7865SOL    MW431228   3.285   1.662   2.973 -0.1818 -0.1415  0.0590
 7866SOL     OW31229   6.246   0.340   2.853 -0.1736  0.4517 -0.4343
 7866SOL    HW231230   6.298   0.329   2.933 -0.1260  1.3061 -0.3320
 7866SOL    HW331231   6.158   0.312   2.878 -0.3019  1.2776  0.1180
 7866SOL    MW431232   6.242   0.335   2.867  0.4040  0.3362  0.4431
 7867SOL     OW31233   2.307   3.958   0.265  0.0483  0.1316  0.5658
 7867SOL    HW231234   2.348   4.045   0.260 -0.1440  0.1645 -0.5712
 7867SOL    HW331235   2.320   3.920   0.178 -0.8011 -0.5560  0.7280
 7867SOL    MW431236   2.315   3.965   0.253 -0.1062  0.3140  0.5686
 7868SOL     OW31237   5.265   5.627   1.949  0.0936  0.0749  0.4483
 7868SOL    HW231238   5.239   5.717   1.967 -1.4184 -0.4187  0.9099
 7868SOL    HW331239   5.246   5.580   2.030  0.3894 -0.7560  0.0464
 7868SOL    MW431240   5.259   5.633   1.962 -0.5133 -0.1996 -0.0389
 7869SOL     OW31241   0.431   4.264   2.668  0.1587  0.6263  0.0760
 7869SOL    HW231242   0.375   4.206   2.617 -0.6708  0.3300  1.2784
 7869SOL    HW331243   0.371   4.311   2.726  1.1196  0.3125  1.3826
 7869SOL    MW431244   0.416   4.262   2.669 -0.1677  0.3861 -0.0735
 7870SOL     OW31245   1.988   4.973   0.050  0.5221 -0.2197 -0.1732
 7870SOL    HW231246   1.960   4.989  -0.040 -0.8505  0.1284  0.2973
 7870SOL    HW331247   2.066   5.028   0.060 -0.3298  1.1383 -0.6256
 7870SOL    MW431248   1.995   4.983   0.039 -0.3313 -0.6831 -0.0584
 7871SOL     OW31249   2.416   0.377   1.824  0.4538  0.0566  0.3704
 7871SOL    HW231250   2.382   0.464   1.846 -0.2529 -0.1832  0.2666
 7871SOL    HW331251   2.344   0.336   1.776  1.4662  0.0848 -1.2263
 7871SOL    MW431252   2.402   0.383   1.821 -0.1115  0.1499 -0.1852
 7872SOL     OW31253   2.809   1.548   0.769  0.0950  0.3154  0.0989
 7872SOL    HW231254   2.892   1.570   0.729 -0.2509 -0.6845 -1.2454
 7872SOL    HW331255   2.832   1.519   0.858  0.9075  2.1577  0.5345
 7872SOL    MW431256   2.823   1.547   0.776  0.0893  0.3652  0.4854
 7873SOL     OW31257   0.581   0.473   2.443  0.0264 -0.3787  0.4780
 7873SOL    HW231258   0.502   0.466   2.388  2.1069  0.8967 -3.0182
 7873SOL    HW331259   0.577   0.561   2.480  0.2557  0.0550 -0.5085
 7873SOL    MW431260   0.570   0.484   2.441 -0.4073  0.0538 -0.5421
 7874SOL     OW31261   0.516   4.040   4.755 -0.1815  0.1456 -0.5621
 7874SOL    HW231262   0.571   4.106   4.797 -0.7471  0.1287  0.2214
 7874SOL    HW331263   0.578   3.975   4.722  0.2543 -0.1792  0.8327
 7874SOL    MW431264   0.532   4.040   4.756  0.0440  0.7813 -0.5110
 7875SOL     OW31265   1.176   5.482   5.232  0.1453  0.2014  0.5080
 7875SOL    HW231266   1.103   5.526   5.276 -0.1485  0.9485 -0.7022
 7875SOL    HW331267   1.137   5.404   5.193  0.1397  0.2276  0.4618
 7875SOL    MW431268   1.161   5.478   5.233  0.3123  0.3291  0.7752
 7876SOL     OW31269   2.819   0.776   5.236 -0.4083 -0.0977 -0.4142
 7876SOL    HW231270   2.895   0.829   5.211 -0.2375 -0.1799 -0.0766
 7876SOL    HW331271   2.761   0.839   5.280 -1.0584  0.2208 -1.6730
 7876SOL    MW431272   2.822   0.792   5.239 -0.2031  0.1876  0.3759
 7877SOL     OW31273   6.087   4.393   0.828  0.4195  0.2257  0.7124
 7877SOL    HW231274   6.108   4.339   0.904 -0.6121  0.9795  1.5711
 7877SOL    HW331275   6.063   4.331   0.760  1.9570 -0.4892  0.7940
 7877SOL    MW431276   6.087   4.378   0.829 -0.0664 -0.0194  0.7840
 7878SOL     OW31277   3.404   5.673   4.715 -0.2173  0.1265  0.2370
 7878SOL    HW231278   3.475   5.685   4.652 -0.9661 -2.0660 -1.1655
 7878SOL    HW331279   3.350   5.603   4.676 -1.9815  0.2838  2.2447
 7878SOL    MW431280   3.406   5.665   4.701  0.2578  0.4622  0.0596
 7879SOL     OW31281   6.388   0.506   5.970 -0.1796 -0.6194  0.2448
 7879SOL    HW231282   6.421   0.543   5.888  0.3718 -1.0305  0.2749
 7879SOL    HW331283   6.293   0.522   5.967  0.2145  2.7669  1.2411
 7879SOL    MW431284   6.380   0.513   5.959  0.2775 -0.1936  0.6157
 7880SOL     OW31285   3.251   5.993   4.940 -0.2852  0.2415 -0.3464
 7880SOL    HW231286   3.306   6.042   4.880  1.9374 -0.6612  0.8282
 7880SOL    HW331287   3.282   6.018   5.027 -2.9283  0.9785  0.4877
 7880SOL    MW431288   3.262   6.003   4.944 -0.3515 -0.6052  0.2908
 7881SOL     OW31289   1.038   2.313   4.701 -0.5458 -0.2200 -0.1977
 7881SOL    HW231290   1.087   2.295   4.621 -0.6978  1.2919 -0.6501
 7881SOL    HW331291   0.972   2.243   4.705  1.4567 -2.1942  0.3303
 7881SOL    MW431292   1.035   2.301   4.691 -0.3020 -0.0186 -0.0309
 7882SOL     OW31293   0.094   5.776   4.947  0.0907  0.1426 -0.0148
 7882SOL    HW231294   0.134   5.690   4.949 -0.1930 -0.0050 -0.6869
 7882SOL    HW331295   0.001   5.760   4.931 -0.0970  0.5348  0.6107
 7882SOL    MW431296   0.087   5.763   4.945  0.0100 -0.2270  0.7889
 7883SOL     OW31297   4.737   0.823   5.894  0.0242  0.0623  0.1895
 7883SOL    HW231298   4.764   0.770   5.969  0.1364 -0.8350 -0.4652
 7883SOL    HW331299   4.729   0.912   5.929 -0.8923 -0.5050  1.4838
 7883SOL    MW431300   4.740   0.828   5.908 -0.3371  0.1513  0.7477
 7884SOL     OW31301   5.169   4.357   2.614  1.2579 -0.4460 -0.4591
 7884SOL    HW231302   5.244   4.405   2.577  1.8280 -2.8876 -2.7555
 7884SOL    HW331303   5.113   4.339   2.538 -0.0860 -1.3958  0.7242
 7884SOL    MW431304   5.172   4.361   2.599 -0.0867  0.5367 -0.1488
 7885SOL     OW31305   4.901   6.076   2.669  0.6925 -0.3760  0.1650
 7885SOL    HW231306   4.878   5.986   2.689 -1.1410  0.3851  1.8227
 7885SOL    HW331307   4.991   6.085   2.700  0.1112 -1.0466  2.2444
 7885SOL    MW431308   4.910   6.065   2.676 -0.1038  0.4241 -0.1845
 7886SOL     OW31309   4.934   2.586   5.077 -0.0163 -0.2913  0.6053
 7886SOL    HW231310   4.947   2.503   5.123 -1.5534 -0.3650  0.9747
 7886SOL    HW331311   4.842   2.609   5.095  0.0057  0.8305 -0.5613
 7886SOL    MW431312   4.923   2.578   5.085 -0.0254 -0.2478  0.3040
 7887SOL     OW31313   1.595   5.298   6.258 -0.2476 -0.0373  0.2847
 7887SOL    HW231314   1.629   5.218   6.299 -1.1873 -0.2132  0.7486
 7887SOL    HW331315   1.540   5.266   6.186 -2.4711  0.0511  1.8479
 7887SOL    MW431316   1.593   5.283   6.254 -0.4747  0.1390  0.1644
 7888SOL     OW31317   3.474   3.901   4.339 -0.0777  0.3505  0.5084
 7888SOL    HW231318   3.527   3.845   4.396 -1.0514  0.4854  1.5789
 7888SOL    HW331319   3.538   3.942   4.280  0.9773  0.2816  1.5605
 7888SOL    MW431320   3.490   3.899   4.338  0.8484  0.3138 -0.3625
 7889SOL     OW31321   6.016   2.344   1.343  0.2191  0.2425  0.0398
 7889SOL    HW231322   5.981   2.256   1.360 -0.2286  0.3628 -0.2282
 7889SOL    HW331323   6.107   2.339   1.370  0.0848 -0.1810  0.4435
 7889SOL    MW431324   6.023   2.331   1.349  0.1370 -0.0072  0.6056
 7890SOL     OW31325   6.396   4.467   2.902  0.2476 -0.0095 -0.0690
 7890SOL    HW231326   6.475   4.412   2.897 -0.8857 -1.8297  0.9486
 7890SOL    HW331327   6.357   4.444   2.986 -1.6345  0.5046 -0.7694
 7890SOL    MW431328   6.401   4.456   2.913  0.0321 -0.3601 -0.0569
 7891SOL     OW31329   4.661   0.764   5.347  0.7547 -0.1167 -0.4228
 7891SOL    HW231330   4.608   0.841   5.368 -0.1675 -0.4022 -1.5914
 7891SOL    HW331331   4.734   0.768   5.409 -0.4076  0.5089  0.9835
 7891SOL    MW431332   4.664   0.775   5.358  0.2042  0.4352 -0.6107
 7892SOL     OW31333   3.089   0.526   4.137 -0.2708 -0.1286  0.6769
 7892SOL    HW231334   2.995   0.508   4.139 -0.2695 -0.1019  1.2240
 7892SOL    HW331335   3.129   0.449   4.178 -0.1114  0.1852  1.1157
 7892SOL    MW431336   3.082   0.513   4.143  0.8534 -0.2740  0.5926
 7893SOL     OW31337   6.316   4.410   5.648 -0.1202  0.3004 -0.7333
 7893SOL    HW231338   6.377   4.484   5.639  2.3163 -1.5036  0.0791
 7893SOL    HW331339   6.293   4.388   5.557 -0.6527  1.7980 -1.0012
 7893SOL    MW431340   6.321   4.417   5.635  0.0680 -0.3033  0.0352
 7894SOL     OW31341   2.017   0.864   5.113  0.3250 -0.1377  0.0386
 7894SOL    HW231342   1.991   0.781   5.151  0.0645  0.0896  0.3672
 7894SOL    HW331343   2.017   0.849   5.019 -3.0361  0.3927 -0.1688
 7894SOL    MW431344   2.014   0.851   5.106  0.0360  0.7455  0.7611
 7895SOL     OW31345   6.410   3.339   6.142  0.0938 -0.2782 -0.3992
 7895SOL    HW231346   6.457   3.408   6.098  1.8589 -1.0636  0.1765
 7895SOL    HW331347   6.407   3.267   6.079 -2.2696  0.4544 -1.2267
 7895SOL    MW431348   6.415   3.338   6.128 -0.2056 -0.3541  0.1363
 7896SOL     OW31349   1.935   3.704   2.471  0.3066 -0.1224  0.1718
 7896SOL    HW231350   1.880   3.730   2.398  0.2450 -0.1799  0.1978
 7896SOL    HW331351   2.013   3.667   2.431  0.8761  1.0760  0.1161
 7896SOL    MW431352   1.938   3.703   2.456  0.0911  0.7605  0.7924
 7897SOL     OW31353   0.563   2.950   2.931 -0.3045 -0.1573  0.1664
 7897SOL    HW231354   0.589   2.900   2.854 -1.6969  1.2781 -1.3213
 7897SOL    HW331355   0.617   3.028   2.928 -1.9330  0.9997 -0.7409
 7897SOL    MW431356   0.573   2.954   2.921  0.3766  0.0994  0.3178
 7898SOL     OW31357   2.787   1.451   2.408 -0.3118 -0.2439 -0.0353
 7898SOL    HW231358   2.755   1.526   2.458 -0.8902  0.4714 -1.4023
 7898SOL    HW331359   2.882   1.450   2.423 -0.4218  0.2061  0.7168
 7898SOL    MW431360   2.795   1.460   2.416  0.4702  0.0455  0.1830
 7899SOL     OW31361   3.765   4.726   3.499  0.4335 -0.8092 -0.5831
 7899SOL    HW231362   3.746   4.635   3.523  0.4147 -0.7678 -0.4366
 7899SOL    HW331363   3.690   4.754   3.447 -0.1748 -0.4752  0.4512
 7899SOL    MW431364   3.753   4.717   3.496  0.5059  0.6129  0.1856
 7900SOL     OW31365   4.467   6.362   4.179  0.1502 -0.0655 -0.2665
 7900SOL    HW231366   4.499   6.368   4.269  0.0141  0.2334 -0.2382
 7900SOL    HW331367   4.374   6.384   4.185  0.2816  0.5967 -0.5707
 7900SOL    MW431368   4.459   6.366   4.192  0.7481  0.3925 -0.0642
 7901SOL     OW31369   2.019   1.501   4.009 -0.3455  0.2206 -0.0058
 7901SOL    HW231370   2.027   1.524   4.102 -0.6317  1.0858 -0.1806
 7901SOL    HW331371   1.976   1.578   3.969  0.3591  0.1300 -0.9671
 7901SOL    MW431372   2.014   1.514   4.016 -0.2377  0.2304  0.2890
 7902SOL     OW31373   2.502   3.858   2.628 -0.5632  0.7644 -0.0381
 7902SOL    HW231374   2.567   3.921   2.597  1.0680 -0.1388  1.3784
 7902SOL    HW331375   2.477   3.890   2.714 -0.8796  0.2922  0.0512
 7902SOL    MW431376   2.507   3.871   2.635 -0.2117  0.1015 -0.1744
 7903SOL     OW31377   3.258   0.619   5.135 -0.1496 -0.3364  0.2453
 7903SOL    HW231378   3.248   0.690   5.071 -1.3748  0.1799  0.9840
 7903SOL    HW331379   3.206   0.547   5.099  0.3005 -0.5292 -0.0237
 7903SOL    MW431380   3.250   0.619   5.122  1.2473  0.2732 -0.4206
 7904SOL     OW31381   3.111   0.309   0.044  0.6233 -0.3316  0.2911
 7904SOL    HW231382   3.085   0.229  -0.001  1.9060 -0.4794 -0.2297
 7904SOL    HW331383   3.094   0.379  -0.019  0.3276 -0.2935  0.4136
 7904SOL    MW431384   3.105   0.308   0.030 -0.0855  0.1203  0.0326
 7905SOL     OW31385   0.238   2.565   4.297 -0.8375  0.7776  0.1440
 7905SOL    HW231386   0.152   2.533   4.269 -1.2057  1.6901  0.1799
 7905SOL    HW331387   0.248   2.535   4.387  0.3288 -2.1436 -0.8379
 7905SOL    MW431388   0.228   2.557   4.305  0.2799 -0.8471  0.5447
 7906SOL     OW31389   3.008   3.400   4.011 -0.5609  0.0735  0.5977
 7906SOL    HW231390   3.016   3.308   4.037 -0.8119  0.4608  2.1573
 7906SOL    HW331391   3.096   3.424   3.981 -0.7421 -0.9387 -0.8330
 7906SOL    MW431392   3.021   3.391   4.011 -0.0641  0.0894  0.3400
 7907SOL     OW31393   5.321   5.464   1.734  0.4471  0.2091  0.1091
 7907SOL    HW231394   5.300   5.516   1.812  1.4872  0.5672  0.1705
 7907SOL    HW331395   5.320   5.374   1.765 -3.8165 -0.1913 -0.5125
 7907SOL    MW431396   5.318   5.459   1.748  0.7326  0.5621 -0.3381
 7908SOL     OW31397   3.204   3.950   5.420  0.1637  0.3629  0.5750
 7908SOL    HW231398   3.117   3.936   5.457  0.2310 -1.5739  0.1189
 7908SOL    HW331399   3.265   3.924   5.489  0.3117 -1.0409 -0.0448
 7908SOL    MW431400   3.200   3.945   5.434  0.0907  0.1289 -0.5949
 7909SOL     OW31401   1.485   3.328   4.406 -0.4017  0.0750 -0.1799
 7909SOL    HW231402   1.552   3.396   4.402 -0.5788  0.3554  1.2761
 7909SOL    HW331403   1.506   3.278   4.484 -0.8937 -0.9058 -0.6605
 7909SOL    MW431404   1.497   3.330   4.416 -0.6025 -0.2938 -0.4353
 7910SOL     OW31405   3.556   2.179   5.317 -0.2357 -0.0187  0.0690
 7910SOL    HW231406   3.610   2.179   5.396  0.6695  1.3952 -0.5000
 7910SOL    HW331407   3.617   2.153   5.247  0.0602  2.5296 -0.7350
 7910SOL    MW431408   3.571   2.175   5.318 -0.1790 -0.1499 -0.5501
 7911SOL     OW31409   0.160   2.720   1.126  0.1523 -0.5702  0.3591
 7911SOL    HW231410   0.075   2.751   1.095 -0.2881 -1.4254  0.6751
 7911SOL    HW331411   0.198   2.675   1.050  0.4991  0.1575  0.0993
 7911SOL    MW431412   0.153   2.718   1.112  0.4651  0.1301  0.5485
 7912SOL     OW31413   0.988   4.196   1.636  0.1248  0.2037 -0.3208
 7912SOL    HW231414   0.993   4.237   1.550  1.2298  0.7496 -0.0173
 7912SOL    HW331415   1.009   4.104   1.620  1.0606  0.4452 -0.5558
 7912SOL    MW431416   0.992   4.189   1.623 -0.3893  0.4627 -1.0111
 7913SOL     OW31417   2.651   2.061   5.277 -0.1243 -0.1536  0.1666
 7913SOL    HW231418   2.593   2.127   5.239 -0.4075 -0.8321 -0.6416
 7913SOL    HW331419   2.602   2.024   5.350 -1.2400 -1.5023 -1.1908
 7913SOL    MW431420   2.637   2.065   5.281 -0.1605 -0.7933 -0.0560
 7914SOL     OW31421   4.426   0.036   5.774  0.4392 -0.1379  0.0133
 7914SOL    HW231422   4.417   0.071   5.686 -0.0394 -2.1374 -0.7803
 7914SOL    HW331423   4.501  -0.023   5.769  1.7132  1.2574  1.5010
 7914SOL    MW431424   4.435   0.033   5.762  0.3216 -0.4695  0.0791
 7915SOL     OW31425   6.165   0.200   4.334 -0.2317  0.3718  0.7273
 7915SOL    HW231426   6.188   0.120   4.288  1.8537  0.4624  1.4845
 7915SOL    HW331427   6.074   0.189   4.359 -0.6652 -0.7420 -1.1926
 7915SOL    MW431428   6.156   0.188   4.331 -0.3312 -0.0426  0.2552
 7916SOL     OW31429   4.790   1.720   3.543  0.8369 -0.1884  0.2980
 7916SOL    HW231430   4.825   1.660   3.477 -0.0185 -0.6861  0.2817
 7916SOL    HW331431   4.866   1.771   3.572  1.6840 -1.6172  0.6797
 7916SOL    MW431432   4.805   1.719   3.538  0.2697 -0.2153 -0.0496
 7917SOL     OW31433   0.589   2.335   4.234  0.0429 -0.0856 -0.1534
 7917SOL    HW231434   0.542   2.348   4.317  0.5986 -1.6534  0.4247
 7917SOL    HW331435   0.562   2.249   4.204 -0.2936  0.5325 -1.7321
 7917SOL    MW431436   0.579   2.326   4.241  0.0039  0.4008 -0.2585
 7918SOL     OW31437   0.488   5.520   3.874 -0.2292 -0.4027  0.1192
 7918SOL    HW231438   0.456   5.490   3.959 -1.0882  3.8084  1.5554
 7918SOL    HW331439   0.415   5.507   3.814 -0.5250 -1.1654  0.6357
 7918SOL    MW431440   0.474   5.515   3.877  0.2083  0.6791  0.3649
 7919SOL     OW31441   2.187   0.081   5.423 -0.0568  0.1930 -0.1119
 7919SOL    HW231442   2.092   0.073   5.420  0.0567 -1.2313 -0.6943
 7919SOL    HW331443   2.204   0.174   5.409 -1.3704  0.5804  0.6847
 7919SOL    MW431444   2.177   0.093   5.421 -0.1353  0.1066  0.6509
 7920SOL     OW31445   2.646   4.424   4.929  0.1872  0.4756 -0.4370
 7920SOL    HW231446   2.716   4.436   4.865 -0.7628  0.1675 -1.5654
 7920SOL    HW331447   2.690   4.425   5.014  1.2764  2.5090 -0.9902
 7920SOL    MW431448   2.661   4.425   4.932  0.8067  0.4759  0.1257
 7921SOL     OW31449   3.944   6.022   4.270  0.1808 -0.0677  0.1458
 7921SOL    HW231450   3.864   6.044   4.317 -0.4367  1.4789 -1.4967
 7921SOL    HW331451   4.014   6.063   4.321 -0.5322  2.1486 -0.5341
 7921SOL    MW431452   3.943   6.030   4.283 -0.1898 -0.2836  0.1063
 7922SOL     OW31453   4.479   3.654   4.937  0.2663  0.7212 -0.0113
 7922SOL    HW231454   4.445   3.565   4.948  0.5812  0.6283  0.2517
 7922SOL    HW331455   4.564   3.641   4.894  1.1305  0.7531  1.6097
 7922SOL    MW431456   4.486   3.640   4.932  0.5788 -0.3016  0.1314
 7923SOL     OW31457   5.185   2.103   1.611  0.6128 -0.6657  0.2244
 7923SOL    HW231458   5.258   2.107   1.673  0.0198 -0.9635  0.9579
 7923SOL    HW331459   5.111   2.071   1.663 -0.2625  0.4281 -0.3073
 7923SOL    MW431460   5.185   2.099   1.626 -0.2160 -0.2756  0.4706
 7924SOL     OW31461   5.318   3.357   1.347 -0.0591 -0.5234 -0.0062
 7924SOL    HW231462   5.395   3.310   1.316  0.3276  0.1183 -0.0342
 7924SOL    HW331463   5.245   3.298   1.327  0.4002 -1.0572 -0.1469
 7924SOL    MW431464   5.318   3.343   1.340  0.1140 -0.8890  0.7495
 7925SOL     OW31465   4.994   5.304   5.067 -0.8023  0.0795 -0.4956
 7925SOL    HW231466   5.060   5.304   5.136 -0.1864 -0.6828 -1.0734
 7925SOL    HW331467   4.911   5.307   5.114 -0.3904 -0.1327  0.2665
 7925SOL    MW431468   4.992   5.305   5.082  0.5244 -0.0190 -0.0020
 7926SOL     OW31469   5.904   1.579   1.565  0.4178  0.0373  0.6662
 7926SOL    HW231470   5.840   1.650   1.561  1.1633  0.6767 -0.4482
 7926SOL    HW331471   5.852   1.499   1.569 -0.4363  0.6101  1.6045
 7926SOL    MW431472   5.889   1.578   1.565  0.5839  0.2786  0.1067
 7927SOL     OW31473   2.210   0.555   2.990 -0.0729 -0.2689  0.6015
 7927SOL    HW231474   2.194   0.602   3.072  0.6493  2.6567 -0.8013
 7927SOL    HW331475   2.201   0.622   2.922  1.1134 -2.1937 -1.5933
 7927SOL    MW431476   2.206   0.570   2.992  0.2253  0.3601  0.5934
 7928SOL     OW31477   4.258   1.481   2.126 -0.2328  0.6394 -0.2321
 7928SOL    HW231478   4.178   1.515   2.085  0.0692  0.4297 -1.0102
 7928SOL    HW331479   4.329   1.530   2.085  0.0688  0.4905  0.1106
 7928SOL    MW431480   4.257   1.492   2.115  0.3323 -0.1076 -0.2216
 7929SOL     OW31481   0.635   0.545   3.173 -0.3462 -0.2072 -0.1596
 7929SOL    HW231482   0.615   0.619   3.116 -1.8062 -1.1348 -0.8943
 7929SOL    HW331483   0.729   0.553   3.189 -0.5118  1.9346 -0.0081
 7929SOL    MW431484   0.645   0.555   3.167  0.0192 -0.5383  0.1450
 7930SOL     OW31485   5.811   1.774   4.715  0.0410 -0.0418 -0.2774
 7930SOL    HW231486   5.834   1.777   4.808  1.5292 -0.1257 -0.6249
 7930SOL    HW331487   5.748   1.846   4.704  0.9226  0.8875  0.5158
 7930SOL    MW431488   5.806   1.784   4.726  0.2817 -0.7113 -0.2089
 7931SOL     OW31489   0.536   3.209   5.201 -0.6488 -0.0315 -0.1421
 7931SOL    HW231490   0.543   3.299   5.169  1.2641  0.1332  0.6069
 7931SOL    HW331491   0.452   3.205   5.246 -1.9843  0.6093 -2.3961
 7931SOL    MW431492   0.526   3.220   5.202 -0.2512  0.0087  0.2065
 7932SOL     OW31493   4.970   6.307   1.502  0.2983  0.3424  0.1547
 7932SOL    HW231494   5.042   6.367   1.519  0.9387 -0.3708  0.0275
 7932SOL    HW331495   4.898   6.363   1.474  0.2983  1.2189  1.7818
 7932SOL    MW431496   4.970   6.322   1.500  0.3834  0.1694 -0.5089
 7933SOL     OW31497   0.323   5.335   5.514  0.3635  0.1318  0.7510
 7933SOL    HW231498   0.370   5.368   5.437 -0.0673  0.7899  0.7609
 7933SOL    HW331499   0.238   5.378   5.510  0.1487 -0.2344  1.3136
 7933SOL    MW431500   0.318   5.345   5.504  0.6187 -0.3653  0.0989
 7934SOL     OW31501   1.879   3.849   3.964 -0.4603  0.5699  0.0806
 7934SOL    HW231502   1.919   3.918   4.015 -0.4097  0.7463 -0.1975
 7934SOL    HW331503   1.866   3.777   4.026  2.7096 -0.5284 -0.3346
 7934SOL    MW431504   1.882   3.848   3.979 -0.8299  0.5069 -0.1776
 7935SOL     OW31505   2.167   0.462   4.946 -0.3302  0.1394 -0.3694
 7935SOL    HW231506   2.208   0.547   4.962 -1.9751  0.4722  2.8105
 7935SOL    HW331507   2.231   0.398   4.977  0.7706  0.1010 -2.4665
 7935SOL    MW431508   2.181   0.465   4.952  0.2401  0.9522  0.0780
 7936SOL     OW31509   1.855   0.089   5.952 -0.4923  0.1436 -0.5608
 7936SOL    HW231510   1.803   0.066   6.029  0.1548  0.2809 -0.0695
 7936SOL    HW331511   1.938   0.043   5.965  0.1465  1.2896 -0.4660
 7936SOL    MW431512   1.859   0.080   5.964  0.3584  0.5875  0.1553
 7937SOL     OW31513   3.153   0.503   6.276  0.0334 -0.4308 -0.2601
 7937SOL    HW231514   3.199   0.579   6.311 -1.7192 -0.0504  1.4277
 7937SOL    HW331515   3.207   0.472   6.203  0.9335  2.2644 -0.8286
 7937SOL    MW431516   3.166   0.509   6.271 -0.1772 -0.6747  0.2106
 7938SOL     OW31517   5.850   5.843   2.384 -0.1454 -0.1449 -0.4117
 7938SOL    HW231518   5.920   5.909   2.374 -1.7581  1.7962  0.3797
 7938SOL    HW331519   5.855   5.791   2.303  1.3499  0.7770 -0.9713
 7938SOL    MW431520   5.860   5.845   2.372 -0.2026 -0.3539 -0.3866
 7939SOL     OW31521   5.631   4.914   0.573  0.3171 -0.1382  0.5413
 7939SOL    HW231522   5.707   4.971   0.562  0.2845 -0.4345 -1.8035
 7939SOL    HW331523   5.607   4.889   0.483 -1.5007 -1.4263  1.3272
 7939SOL    MW431524   5.638   4.918   0.560  0.1928 -0.0172  0.2308
 7940SOL     OW31525   2.411   6.284   6.234 -0.0493  0.0614 -0.2196
 7940SOL    HW231526   2.469   6.225   6.282 -0.6116 -0.7527 -0.5199
 7940SOL    HW331527   2.468   6.354   6.203  0.4119  0.3651  1.2330
 7940SOL    MW431528   2.426   6.285   6.236  0.0394 -0.3916  0.0970
 7941SOL     OW31529   5.892   1.397   0.373 -0.9588 -0.3459 -0.0360
 7941SOL    HW231530   5.841   1.350   0.307  0.9451 -1.3409 -0.8766
 7941SOL    HW331531   5.972   1.423   0.327 -0.0636 -0.0947  1.5831
 7941SOL    MW431532   5.896   1.394   0.358  0.3605 -0.3376 -0.3419
 7942SOL     OW31533   0.516   1.968   0.417 -0.0008 -0.2255  0.0113
 7942SOL    HW231534   0.524   2.043   0.477 -0.9710  0.6590 -0.9324
 7942SOL    HW331535   0.561   1.996   0.338  0.0934 -0.8552 -0.1600
 7942SOL    MW431536   0.523   1.981   0.415  0.2663 -0.2903  0.5026
 7943SOL     OW31537   3.626   5.556   5.755  0.0146  0.6952  0.2421
 7943SOL    HW231538   3.641   5.595   5.669  0.3972 -0.3285 -0.1691
 7943SOL    HW331539   3.633   5.462   5.740 -0.5326  0.4780  1.2794
 7943SOL    MW431540   3.629   5.549   5.742 -0.3554 -0.5926 -0.1293
 7944SOL     OW31541   4.398   3.510   3.046  0.5130 -0.6314 -0.7715
 7944SOL    HW231542   4.365   3.438   2.992  2.1530 -0.8521 -1.5175
 7944SOL    HW331543   4.409   3.471   3.133  0.4662 -1.0175 -0.9367
 7944SOL    MW431544   4.395   3.495   3.051 -0.5986 -0.2076 -0.3505
 7945SOL     OW31545   6.148   3.309   3.181  0.0683 -0.2013 -0.3162
 7945SOL    HW231546   6.065   3.322   3.135  0.0162 -1.2056 -0.5323
 7945SOL    HW331547   6.123   3.273   3.266  0.2361  0.4485  0.0160
 7945SOL    MW431548   6.134   3.306   3.186 -0.4337 -0.0070 -0.3610
 7946SOL     OW31549   2.065   3.746   1.277 -0.1231 -0.1129 -0.5079
 7946SOL    HW231550   2.012   3.747   1.357 -0.0585 -0.7549 -0.4474
 7946SOL    HW331551   2.012   3.791   1.213  0.0542  0.8918  0.0359
 7946SOL    MW431552   2.051   3.752   1.279  0.0038 -0.0796  0.1941
 7947SOL     OW31553   1.531   4.347   1.792  0.0102 -0.2527 -0.1761
 7947SOL    HW231554   1.465   4.288   1.756  1.3873 -1.4640 -0.8005
 7947SOL    HW331555   1.605   4.291   1.813  0.1971  0.7734  2.2748
 7947SOL    MW431556   1.532   4.332   1.790 -0.0395  0.1924 -0.5849
 7948SOL     OW31557   5.797   3.457   4.608 -0.0548 -0.4715 -0.6536
 7948SOL    HW231558   5.890   3.444   4.592  0.0439  0.2656 -0.7397
 7948SOL    HW331559   5.753   3.399   4.547  0.3479 -0.6099 -0.8149
 7948SOL    MW431560   5.804   3.448   4.598  0.0239 -0.3993  0.0796
 7949SOL     OW31561   4.858   0.070   4.573  0.1698  0.0238  0.0819
 7949SOL    HW231562   4.763   0.065   4.576  0.2085 -0.8765  0.0286
 7949SOL    HW331563   4.887   0.031   4.656  0.5414 -1.9437 -0.9126
 7949SOL    MW431564   4.849   0.064   4.584 -0.0467 -0.2273 -0.4666
 7950SOL     OW31565   0.413   4.845   3.657 -0.0373 -0.2511 -0.2286
 7950SOL    HW231566   0.439   4.935   3.678 -0.0386 -0.9017  3.2605
 7950SOL    HW331567   0.492   4.793   3.671 -1.0378 -1.2540  2.6336
 7950SOL    MW431568   0.427   4.850   3.662  0.3932  0.1963 -0.4134
 7951SOL     OW31569   3.776   0.404   5.299  0.0095 -0.0115  0.6127
 7951SOL    HW231570   3.835   0.362   5.362 -0.4671 -0.5689  0.6960
 7951SOL    HW331571   3.807   0.494   5.294  2.6541 -0.8959 -1.4167
 7951SOL    MW431572   3.788   0.410   5.307  0.2518  0.4639 -0.5800
 7952SOL     OW31573   5.371   2.149   1.816 -0.1846 -0.5032  0.0360
 7952SOL    HW231574   5.430   2.201   1.762 -1.5097 -2.6190 -3.8698
 7952SOL    HW331575   5.421   2.069   1.836  0.1501  0.0918  1.7304
 7952SOL    MW431576   5.386   2.145   1.812  0.0860 -0.6561 -0.0956
 7953SOL     OW31577   0.031   5.202   3.250  0.0536 -0.2336  0.1699
 7953SOL    HW231578   0.111   5.239   3.286 -0.2336 -0.7665  1.4217
 7953SOL    HW331579  -0.039   5.251   3.291 -0.3376  1.8425 -2.6645
 7953SOL    MW431580   0.033   5.213   3.260 -0.4318 -0.4385 -0.6444
 7954SOL     OW31581   5.865   4.308   2.300 -0.2406 -0.2009  0.2378
 7954SOL    HW231582   5.936   4.327   2.362 -0.3530  1.0973 -0.0185
 7954SOL    HW331583   5.872   4.375   2.233 -0.4013 -1.3260 -0.9488
 7954SOL    MW431584   5.875   4.319   2.299 -0.0021  0.0585  0.2737
 7955SOL     OW31585   0.572   3.374   2.296  0.2781 -0.3309 -0.3050
 7955SOL    HW231586   0.506   3.418   2.241  0.8117 -1.3349 -1.8267
 7955SOL    HW331587   0.581   3.287   2.257  1.7418 -0.5840  0.5278
 7955SOL    MW431588   0.564   3.368   2.283  0.0291  0.4806 -0.5530
 7956SOL     OW31589   1.643   1.158   0.412 -0.4504  0.5593 -0.0039
 7956SOL    HW231590   1.620   1.183   0.322  0.9860  1.6574 -0.1119
 7956SOL    HW331591   1.733   1.125   0.405 -0.9368 -1.0152  0.7818
 7956SOL    MW431592   1.652   1.157   0.399  0.9241  0.4260 -0.5164
 7957SOL     OW31593   4.767   0.236   5.340  0.0356  0.3626  0.0558
 7957SOL    HW231594   4.726   0.313   5.380  1.1431  0.5505  0.8584
 7957SOL    HW331595   4.697   0.171   5.339 -0.8280  1.2626 -0.3411
 7957SOL    MW431596   4.752   0.238   5.345 -0.3957 -0.0187 -0.3526
 7958SOL     OW31597   1.851   3.753   1.494 -0.1043  0.2044  0.1226
 7958SOL    HW231598   1.773   3.785   1.448 -0.8308 -2.4371 -0.6923
 7958SOL    HW331599   1.833   3.660   1.508  0.2571  0.6831  5.5481
 7958SOL    MW431600   1.838   3.745   1.490  0.3763 -0.0260  0.1904
 7959SOL     OW31601   1.516   0.670   3.441  0.0358  0.1013  0.0608
 7959SOL    HW231602   1.512   0.709   3.528 -0.8843 -1.2147  0.6389
 7959SOL    HW331603   1.607   0.681   3.414  0.1373  1.2828  0.8168
 7959SOL    MW431604   1.527   0.677   3.448 -0.0392  0.0414  0.4894
 7960SOL     OW31605   2.976   0.338   3.049 -0.6601  0.0547 -0.2299
 7960SOL    HW231606   2.904   0.276   3.059 -0.5361 -0.4391 -2.0374
 7960SOL    HW331607   2.956   0.387   2.970  0.7573  0.2396 -0.5109
 7960SOL    MW431608   2.964   0.336   3.040 -0.2876 -0.1385  0.3492
 7961SOL     OW31609   2.526   0.989   4.451 -0.0674  0.7590  0.0381
 7961SOL    HW231610   2.465   1.057   4.424  0.5292  0.3231 -2.6874
 7961SOL    HW331611   2.571   0.964   4.371  2.5739 -0.0637  1.6450
 7961SOL    MW431612   2.524   0.995   4.437 -0.0756 -0.3166 -0.2665
 7962SOL     OW31613   1.565   3.494   0.096  0.1545 -0.1101  0.3732
 7962SOL    HW231614   1.611   3.492   0.180 -1.7340  1.6602  1.5357
 7962SOL    HW331615   1.590   3.412   0.054  2.3361 -0.3792  1.9783
 7962SOL    MW431616   1.574   3.483   0.101  0.5429  0.2362  0.1349
 7963SOL     OW31617   2.750   4.665   5.729  0.1715 -0.0626  0.1061
 7963SOL    HW231618   2.733   4.584   5.681 -1.0570  0.1012  0.2294
 7963SOL    HW331619   2.757   4.637   5.821 -1.4714  0.0775  0.3115
 7963SOL    MW431620   2.749   4.651   5.735  0.1474 -0.6356 -0.2429
 7964SOL     OW31621   1.499   2.042   3.339 -0.2832  0.2981  0.4504
 7964SOL    HW231622   1.493   2.130   3.376  0.2645  0.1058  1.0161
 7964SOL    HW331623   1.432   1.992   3.385 -0.0765  0.2332  0.6835
 7964SOL    MW431624   1.490   2.047   3.350 -0.1162 -0.4058 -0.4957
 7965SOL     OW31625   3.649   6.323   4.913 -0.0006  0.2890 -0.6955
 7965SOL    HW231626   3.610   6.289   4.832  1.2322  1.0949 -1.6554
 7965SOL    HW331627   3.645   6.249   4.974  2.5357 -1.6983 -2.7092
 7965SOL    MW431628   3.643   6.308   4.910 -0.1317  0.3012 -0.6067
 7966SOL     OW31629   2.175   5.640   0.757  0.1784  0.1472 -0.2414
 7966SOL    HW231630   2.163   5.579   0.684 -2.1439  0.8093 -0.4999
 7966SOL    HW331631   2.150   5.590   0.834 -2.1260  0.8083 -0.4982
 7966SOL    MW431632   2.170   5.625   0.757  0.1442  0.0052  0.6087
 7967SOL     OW31633   0.477   1.911   2.517  0.4290  0.7016  0.2290
 7967SOL    HW231634   0.417   1.974   2.557  0.8553 -0.1534  2.3512
 7967SOL    HW331635   0.562   1.933   2.555  0.8258 -0.2844 -0.0681
 7967SOL    MW431636   0.481   1.922   2.528  0.1670  0.1255  0.3180
 7968SOL     OW31637   2.831   4.552   0.998  0.1572  0.3722 -0.3176
 7968SOL    HW231638   2.816   4.466   1.038 -0.1569  0.8653  0.6570
 7968SOL    HW331639   2.853   4.609   1.071 -1.0525  1.4531 -0.7483
 7968SOL    MW431640   2.832   4.548   1.013 -0.5912  0.0833 -0.3695
 7969SOL     OW31641   0.075   2.020   1.282 -0.6266  0.0821  0.2632
 7969SOL    HW231642   0.157   2.039   1.237 -0.2755 -2.5953 -0.4427
 7969SOL    HW331643   0.101   1.974   1.362 -1.4185  0.1593  0.5799
 7969SOL    MW431644   0.089   2.016   1.287 -0.0370 -1.1588  0.1096
 7970SOL     OW31645   1.717   1.904   2.345 -0.1971 -0.5297 -0.0507
 7970SOL    HW231646   1.622   1.894   2.332 -0.3361  0.4201  0.1505
 7970SOL    HW331647   1.748   1.815   2.363 -1.2552 -0.6815  1.1654
 7970SOL    MW431648   1.708   1.890   2.346  0.0852 -0.2764  0.0134
 7971SOL     OW31649   4.865   3.125   4.944 -0.0558 -0.0911  0.6657
 7971SOL    HW231650   4.898   3.158   4.860  0.6023 -0.9916  0.5573
 7971SOL    HW331651   4.934   3.147   5.007  0.5163 -1.4548  0.5455
 7971SOL    MW431652   4.878   3.132   4.942 -0.2702 -0.0293 -0.0996
 7972SOL     OW31653   3.359   0.864   3.196 -0.0936  0.4909  0.3920
 7972SOL    HW231654   3.270   0.851   3.226  0.0607 -0.4817  0.4463
 7972SOL    HW331655   3.383   0.950   3.230 -2.0643  2.2623 -2.2540
 7972SOL    MW431656   3.351   0.874   3.204  0.3626  0.0007  0.0275
 7973SOL     OW31657   5.821   1.016   5.421 -1.0699  0.1041  0.3380
 7973SOL    HW231658   5.758   1.048   5.357 -0.1531  2.7676  0.6377
 7973SOL    HW331659   5.906   1.028   5.378 -0.5790 -0.1921  1.2111
 7973SOL    MW431660   5.824   1.022   5.407  0.6408 -0.3019 -0.5880
 7974SOL     OW31661   2.511   5.680   3.585  0.1778 -0.0038  0.2905
 7974SOL    HW231662   2.565   5.615   3.541 -0.3085  0.2993 -0.7703
 7974SOL    HW331663   2.488   5.639   3.669 -1.8803 -2.1337 -1.1689
 7974SOL    MW431664   2.515   5.666   3.591 -0.1592  0.7365 -0.1810
 7975SOL     OW31665   0.553   0.860   4.628  0.3125  0.1161  0.0412
 7975SOL    HW231666   0.609   0.935   4.611  0.6540 -0.1902 -0.2002
 7975SOL    HW331667   0.466   0.887   4.598  0.2601  0.7010  0.6982
 7975SOL    MW431668   0.549   0.874   4.622 -0.7141 -0.1173 -0.2806
 7976SOL     OW31669   3.616   3.719   4.498 -0.3927 -0.2804  0.1568
 7976SOL    HW231670   3.705   3.732   4.530  0.2542  0.6931 -1.8744
 7976SOL    HW331671   3.563   3.712   4.577  1.5550 -1.6338  1.4416
 7976SOL    MW431672   3.621   3.720   4.512 -0.1417  0.5138 -0.2259
 7977SOL     OW31673   5.854   6.391   5.460  0.1562  0.0312 -0.3609
 7977SOL    HW231674   5.935   6.387   5.511  0.4416  1.2084 -0.6972
 7977SOL    HW331675   5.882   6.379   5.370  0.0735  1.3408 -0.5690
 7977SOL    MW431676   5.868   6.389   5.455 -0.3712  0.1019 -0.1238
 7978SOL     OW31677   4.258   4.049   2.868  0.1189  0.2214 -0.2476
 7978SOL    HW231678   4.326   4.107   2.902 -1.5498  1.2896  1.5190
 7978SOL    HW331679   4.285   3.962   2.895  1.4558  0.4482 -0.7926
 7978SOL    MW431680   4.271   4.045   2.876  0.3863  0.1451 -0.3194
 7979SOL     OW31681   1.635   0.266   1.268 -0.0975 -0.9749 -0.0510
 7979SOL    HW231682   1.665   0.311   1.347  1.2428 -0.9995 -0.5270
 7979SOL    HW331683   1.598   0.184   1.300 -3.3563  0.6860  0.9258
 7979SOL    MW431684   1.634   0.261   1.283  0.0891 -0.6861 -0.3372
 7980SOL     OW31685   0.960   3.407   0.474  0.0242  0.1421  0.1436
 7980SOL    HW231686   0.968   3.481   0.414 -0.4593 -0.2393 -0.4019
 7980SOL    HW331687   1.034   3.417   0.534 -0.2159  1.2390  0.2814
 7980SOL    MW431688   0.971   3.418   0.474  0.2980  0.3975 -0.7465
 7981SOL     OW31689   2.879   2.682   3.703  0.1233 -0.6052  0.2330
 7981SOL    HW231690   2.865   2.643   3.789 -0.4229  0.4700  0.6538
 7981SOL    HW331691   2.921   2.613   3.651  0.7948 -1.1478  1.4624
 7981SOL    MW431692   2.883   2.668   3.707 -0.0030 -0.2068 -1.0776
 7982SOL     OW31693   5.625   4.791   1.749 -0.0914 -0.2118  0.1187
 7982SOL    HW231694   5.567   4.865   1.732  1.6338  0.6723 -2.4967
 7982SOL    HW331695   5.595   4.721   1.691 -2.3188 -2.1348  3.2327
 7982SOL    MW431696   5.614   4.791   1.739  0.0518 -0.3566 -0.6138
 7983SOL     OW31697   6.324   4.594   2.489 -0.1262  0.0996 -0.0683
 7983SOL    HW231698   6.309   4.529   2.558 -0.6899  0.8229  0.4983
 7983SOL    HW331699   6.318   4.544   2.408  0.4569 -0.7450  0.3931
 7983SOL    MW431700   6.321   4.579   2.487  0.1995  0.5587  0.4090
 7984SOL     OW31701   1.527   3.985   3.662  0.4407  0.3364 -0.3014
 7984SOL    HW231702   1.441   3.967   3.700  0.1183 -0.6233 -1.4439
 7984SOL    HW331703   1.573   3.901   3.668  0.4739  0.2370 -1.7662
 7984SOL    MW431704   1.522   3.971   3.668 -0.6026 -0.3964 -0.2090
 7985SOL     OW31705   0.662   4.419   4.399  0.2008  0.5659  0.2253
 7985SOL    HW231706   0.641   4.334   4.438 -1.0074  0.3163 -0.8967
 7985SOL    HW331707   0.579   4.464   4.394  0.6226  1.3064 -0.3632
 7985SOL    MW431708   0.649   4.413   4.403 -0.0562 -0.0079 -0.2620
 7986SOL     OW31709   2.848   5.564   0.691  0.1320 -0.1708 -0.1225
 7986SOL    HW231710   2.803   5.584   0.609  1.5667 -0.8732 -1.1274
 7986SOL    HW331711   2.818   5.476   0.715 -0.8779  0.3356  0.5585
 7986SOL    MW431712   2.839   5.555   0.684 -0.2941  1.0192  0.0312
 7987SOL     OW31713   5.974   1.081   3.669  0.2559  0.4045 -0.0953
 7987SOL    HW231714   5.988   1.037   3.585 -1.0946 -2.4396  1.0401
 7987SOL    HW331715   5.880   1.096   3.673  0.2228 -0.0180  1.1232
 7987SOL    MW431716   5.963   1.077   3.659 -0.3570 -0.1363  0.0437
 7988SOL     OW31717   3.507   4.786   3.804 -0.1772 -0.6664 -0.1091
 7988SOL    HW231718   3.444   4.801   3.874 -0.7360  0.1412 -0.7620
 7988SOL    HW331719   3.555   4.709   3.831 -1.3595 -1.2271  0.4742
 7988SOL    MW431720   3.505   4.778   3.817 -0.3279  0.4709  0.3009
 7989SOL     OW31721   2.634   0.969   1.318  0.2348  0.0349 -0.2640
 7989SOL    HW231722   2.631   0.891   1.373 -0.2457  0.6565  0.6177
 7989SOL    HW331723   2.660   1.039   1.377  0.5965  0.5570 -1.0302
 7989SOL    MW431724   2.637   0.968   1.333 -0.2405  0.0188 -0.2639
 7990SOL     OW31725   5.186   1.388   0.943  0.1256 -0.1358  0.0609
 7990SOL    HW231726   5.153   1.356   0.860 -1.4187 -1.2142  1.0494
 7990SOL    HW331727   5.194   1.483   0.930 -2.3920  0.0589 -0.5915
 7990SOL    MW431728   5.183   1.396   0.930 -0.6686  0.2863 -0.3158
 7991SOL     OW31729   2.092   5.986   1.895  0.2843 -0.4361  0.5895
 7991SOL    HW231730   2.157   6.054   1.876  0.1325 -0.9631 -2.2775
 7991SOL    HW331731   2.009   6.023   1.863 -0.2547 -0.9995  1.3115
 7991SOL    MW431732   2.089   6.000   1.888  0.1715  0.2131 -0.3052
 7992SOL     OW31733   2.058   4.084   4.880  0.0904  0.1864 -0.6171
 7992SOL    HW231734   2.144   4.097   4.919  0.1195  0.7180 -0.8475
 7992SOL    HW331735   2.009   4.164   4.901 -0.4476 -0.2378 -0.2299
 7992SOL    MW431736   2.063   4.097   4.888  0.4145 -0.3301 -1.0526
 7993SOL     OW31737   4.847   3.019   2.913  0.2110 -0.2353 -0.9245
 7993SOL    HW231738   4.898   3.033   2.833  0.1658 -4.0489 -1.7997
 7993SOL    HW331739   4.863   2.927   2.936 -3.0120 -0.4214  1.1364
 7993SOL    MW431740   4.856   3.009   2.905  0.3842  0.6055  0.2032
 7994SOL     OW31741   0.861   0.407   2.470  0.1379  0.5510 -0.4112
 7994SOL    HW231742   0.784   0.405   2.414  0.8440  0.2577 -1.4104
 7994SOL    HW331743   0.894   0.317   2.470  0.2275  0.5796  0.3614
 7994SOL    MW431744   0.855   0.395   2.463  0.2751  0.7092 -0.0713
 7995SOL     OW31745   4.929   1.107   1.575  0.1931 -0.0876  0.4828
 7995SOL    HW231746   4.891   1.169   1.512 -1.7983 -0.3169  1.3773
 7995SOL    HW331747   4.857   1.088   1.635  1.0148 -2.5421  0.7869
 7995SOL    MW431748   4.914   1.112   1.574 -0.2074  0.1269  0.1096
 7996SOL     OW31749   2.019   5.601   2.718 -0.1376 -0.3054  0.4899
 7996SOL    HW231750   2.053   5.548   2.646 -0.7609  0.3723 -0.3209
 7996SOL    HW331751   2.090   5.602   2.783  1.7788  1.7311 -1.4658
 7996SOL    MW431752   2.033   5.594   2.717 -0.1855 -0.6176  0.3531
 7997SOL     OW31753   1.566   4.509   2.451  0.1601 -0.0477 -0.2976
 7997SOL    HW231754   1.569   4.415   2.468 -1.0143  0.1617  1.2455
 7997SOL    HW331755   1.488   4.540   2.497  0.8648  1.7887 -0.2519
 7997SOL    MW431756   1.556   4.501   2.459  0.9630 -0.2353 -0.4742
 7998SOL     OW31757   2.834   3.955   4.704  0.3621  0.1518  0.3339
 7998SOL    HW231758   2.885   3.957   4.623 -0.7302  1.6327 -0.3512
 7998SOL    HW331759   2.751   3.997   4.682 -1.0100 -1.7405  1.5510
 7998SOL    MW431760   2.830   3.961   4.690 -0.5113  0.1655  0.1198
 7999SOL     OW31761   4.734   2.173   4.987 -0.2393 -0.0853  0.3469
 7999SOL    HW231762   4.707   2.215   4.905 -0.8142 -0.0376  0.5547
 7999SOL    HW331763   4.674   2.208   5.053  0.7344  0.5087  0.9468
 7999SOL    MW431764   4.722   2.183   4.985  0.6593 -0.3179  0.0825
 8000SOL     OW31765   3.975   3.970   3.380  0.2333 -0.1256  0.3728
 8000SOL    HW231766   3.951   3.981   3.288 -0.2192  0.8611  0.5915
 8000SOL    HW331767   4.042   4.036   3.396 -1.3751  1.3655  1.3215
 8000SOL    MW431768   3.980   3.980   3.370 -0.0995 -0.3704  0.0143
 8001SOL     OW31769   4.586   3.723   5.332 -0.1849  0.3819 -0.0086
 8001SOL    HW231770   4.567   3.721   5.238  0.9067  1.0158 -0.2574
 8001SOL    HW331771   4.581   3.816   5.356  0.0617  0.2834  0.4376
 8001SOL    MW431772   4.583   3.735   5.323 -0.4173  0.3091 -0.2178
 8002SOL     OW31773   2.448   2.664   5.438  0.0400 -0.0176  0.4271
 8002SOL    HW231774   2.486   2.607   5.370  0.9295  0.3461  0.5993
 8002SOL    HW331775   2.441   2.749   5.396 -2.5578 -0.4956 -0.2719
 8002SOL    MW431776   2.452   2.667   5.423  0.3284 -0.3887  0.1942
 8003SOL     OW31777   1.991   6.227   5.553  0.7438  0.9007  0.6190
 8003SOL    HW231778   1.932   6.280   5.499 -0.4487 -0.8897  0.0438
 8003SOL    HW331779   1.932   6.168   5.600  2.0130 -0.1134  0.9754
 8003SOL    MW431780   1.975   6.226   5.552 -0.1432  0.2802  0.5434
 8004SOL     OW31781   3.903   4.460   3.303  0.0334  0.1242  0.1581
 8004SOL    HW231782   3.942   4.496   3.383  0.7586 -0.6310  0.1586
 8004SOL    HW331783   3.915   4.366   3.311 -0.0642  0.0254 -0.7552
 8004SOL    MW431784   3.909   4.452   3.315  0.0146 -0.3394  0.4895
 8005SOL     OW31785   6.328   2.208   0.617 -0.1287  0.0267 -0.5470
 8005SOL    HW231786   6.354   2.237   0.530  1.1558 -1.2037 -0.6077
 8005SOL    HW331787   6.341   2.285   0.673  0.3417  0.4272 -1.2003
 8005SOL    MW431788   6.333   2.222   0.613  0.4020  0.1842  0.0024
 8006SOL     OW31789   4.931   2.117   2.456  0.1496 -0.0503  0.1916
 8006SOL    HW231790   4.843   2.114   2.419 -0.1984 -1.6790  1.0511
 8006SOL    HW331791   4.937   2.038   2.510  2.5679 -0.6884 -0.8472
 8006SOL    MW431792   4.920   2.106   2.458  0.5351 -0.1417 -0.0521
 8007SOL     OW31793   0.875   0.452   4.073  0.3975 -0.3423 -0.1318
 8007SOL    HW231794   0.800   0.433   4.017  1.7148 -0.1903 -2.0442
 8007SOL    HW331795   0.869   0.545   4.092 -0.4391 -0.5349  0.6019
 8007SOL    MW431796   0.865   0.461   4.069 -0.5921 -0.0158 -0.6105
 8008SOL     OW31797   1.222   3.767   0.967  0.0318  0.1708  0.2319
 8008SOL    HW231798   1.232   3.680   1.006  1.8219  0.5177  0.6157
 8008SOL    HW331799   1.129   3.772   0.943 -0.0660 -1.9006  0.0435
 8008SOL    MW431800   1.211   3.756   0.969  0.2243  0.1545  0.0677
 8009SOL     OW31801   5.385   5.144   6.121  0.7397  0.0843  0.2199
 8009SOL    HW231802   5.391   5.057   6.161  1.9914 -0.1511 -0.4343
 8009SOL    HW331803   5.391   5.127   6.027  0.8941  0.8660  0.0857
 8009SOL    MW431804   5.387   5.130   6.114  0.6098 -0.5334 -0.1093
 8010SOL     OW31805   4.221   3.517   1.234 -0.3220 -0.0613 -1.0322
 8010SOL    HW231806   4.135   3.514   1.276 -0.4781 -1.1185 -1.3810
 8010SOL    HW331807   4.252   3.606   1.248 -1.4907  0.3426 -0.9323
 8010SOL    MW431808   4.214   3.528   1.242 -0.0525 -0.4962  0.4495
 8011SOL     OW31809   5.215   6.075   4.324 -0.3896  0.1092 -0.7334
 8011SOL    HW231810   5.230   6.064   4.230  0.5341  1.0930 -0.7335
 8011SOL    HW331811   5.265   6.005   4.365  1.8652  1.5235 -0.8836
 8011SOL    MW431812   5.224   6.064   4.317 -0.3702 -0.5585 -0.5748
 8012SOL     OW31813   5.021   4.587   6.165 -0.0836  0.3314 -0.6445
 8012SOL    HW231814   5.015   4.636   6.248 -1.1586 -0.3112 -0.3186
 8012SOL    HW331815   4.983   4.646   6.100 -1.7681 -0.1714 -0.1804
 8012SOL    MW431816   5.015   4.601   6.168 -0.2865  0.1188  0.4270
 8013SOL     OW31817   5.653   0.745   5.682 -0.5560 -0.7397  0.3352
 8013SOL    HW231818   5.729   0.691   5.662  0.9410  1.5720 -0.5145
 8013SOL    HW331819   5.580   0.683   5.684  0.9509 -2.6838 -1.2060
 8013SOL    MW431820   5.653   0.729   5.680  0.3878  0.4414 -0.2213
 8014SOL     OW31821   0.874   5.084   0.127 -0.2850 -0.4711 -0.1232
 8014SOL    HW231822   0.793   5.112   0.084 -0.1759 -0.8021 -0.5524
 8014SOL    HW331823   0.935   5.066   0.055 -0.6258 -2.6570  0.0573
 8014SOL    MW431824   0.871   5.085   0.112  0.1057  0.3110  0.8422
 8015SOL     OW31825   6.107   2.612   3.441  0.3259  0.4212  0.4171
 8015SOL    HW231826   6.054   2.620   3.361 -0.7222 -0.0468  1.0414
 8015SOL    HW331827   6.126   2.703   3.466  0.4128  0.5764 -0.2058
 8015SOL    MW431828   6.102   2.625   3.434  0.4817  0.1350  0.0456
 8016SOL     OW31829   6.234   3.081   0.994  0.5113 -0.4358 -0.5240
 8016SOL    HW231830   6.274   3.168   1.000 -0.1857 -0.1425  0.0204
 8016SOL    HW331831   6.308   3.021   0.983  0.8686  0.4359 -3.7323
 8016SOL    MW431832   6.249   3.084   0.993  0.3201  0.0099  0.2932
 8017SOL     OW31833   5.975   3.221   2.449  0.0163  0.9411  0.0359
 8017SOL    HW231834   5.909   3.205   2.383 -2.2375  1.4217  2.0276
 8017SOL    HW331835   6.035   3.283   2.408 -0.6953  0.4501 -1.8640
 8017SOL    MW431836   5.974   3.227   2.435  0.0759 -0.3242 -0.1303
 8018SOL     OW31837   1.575   5.072   0.440  0.1393 -0.0055  0.1601
 8018SOL    HW231838   1.661   5.097   0.406  0.1998 -1.1378 -0.5863
 8018SOL    HW331839   1.580   5.088   0.534  0.7546  1.0516 -0.0375
 8018SOL    MW431840   1.587   5.078   0.448  0.0202  0.0805 -0.6356
 8019SOL     OW31841   1.652   1.170   2.846 -0.4064  0.3991  0.1221
 8019SOL    HW231842   1.698   1.253   2.834 -0.8336  0.6860  0.4203
 8019SOL    HW331843   1.711   1.104   2.810 -1.4242  1.1260 -3.1777
 8019SOL    MW431844   1.666   1.173   2.840 -0.7170  0.1143  0.2597
 8020SOL     OW31845   2.294   0.700   1.330  0.4627 -0.5301  0.2488
 8020SOL    HW231846   2.356   0.655   1.274  0.4030 -0.9019  0.4799
 8020SOL    HW331847   2.241   0.630   1.368  0.6804 -0.3054  0.9791
 8020SOL    MW431848   2.295   0.685   1.328  0.3034  0.1939  0.1782
 8021SOL     OW31849   3.239   3.495   5.079 -0.7543  0.3218 -0.1916
 8021SOL    HW231850   3.211   3.524   5.166 -0.4858  0.8139 -0.2667
 8021SOL    HW331851   3.166   3.518   5.022 -1.0673 -0.2942 -0.0497
 8021SOL    MW431852   3.225   3.502   5.083  0.3984 -0.0469 -0.6388
 8022SOL     OW31853   2.710   2.822   2.342  0.1504 -0.0075 -0.4302
 8022SOL    HW231854   2.755   2.870   2.411 -0.0345  0.4430 -0.6162
 8022SOL    HW331855   2.759   2.740   2.333 -0.1710 -0.3369  0.6253
 8022SOL    MW431856   2.722   2.817   2.350 -0.5755  0.1333  0.1596
 8023SOL     OW31857   5.094   5.585   3.389  0.0667 -0.0127 -0.2586
 8023SOL    HW231858   5.045   5.516   3.432 -0.8959  0.9266  0.2077
 8023SOL    HW331859   5.107   5.553   3.299 -1.5597 -0.2400 -0.4455
 8023SOL    MW431860   5.089   5.572   3.383  0.2090  0.3725 -0.3590
 8024SOL     OW31861   5.167   2.291   5.441  0.2082  0.0632 -1.2092
 8024SOL    HW231862   5.254   2.264   5.409  0.3783 -0.4886 -0.3267
 8024SOL    HW331863   5.118   2.210   5.447  0.5249 -0.0309  0.9005
 8024SOL    MW431864   5.172   2.277   5.437  0.0384  0.0566 -0.0604
 8025SOL     OW31865   4.535   4.229   5.296  0.6573 -0.0528  0.1701
 8025SOL    HW231866   4.612   4.275   5.262  0.7005  0.3956  0.8343
 8025SOL    HW331867   4.550   4.225   5.391  0.5614 -1.2788  0.1540
 8025SOL    MW431868   4.547   4.234   5.304  0.2350  0.3948  0.1393
 8026SOL     OW31869   2.663   1.616   0.367  0.4459  0.2413 -0.0348
 8026SOL    HW231870   2.593   1.661   0.413  0.7756  0.5713  0.1492
 8026SOL    HW331871   2.666   1.529   0.407  1.0759  0.6946  0.9506
 8026SOL    MW431872   2.654   1.610   0.378 -0.5813  0.7788  0.1975
 8027SOL     OW31873   0.612   4.624   5.406  0.3476 -0.0938 -0.3876
 8027SOL    HW231874   0.632   4.661   5.319  1.3710 -0.7653 -0.4569
 8027SOL    HW331875   0.562   4.545   5.387  2.2743 -1.3483 -0.5073
 8027SOL    MW431876   0.608   4.618   5.392 -0.5380 -0.5143  1.0303
 8028SOL     OW31877   3.234   2.355   4.771  0.4492  0.3283  0.1161
 8028SOL    HW231878   3.174   2.429   4.766  0.0973 -0.0166 -1.1335
 8028SOL    HW331879   3.302   2.374   4.707 -0.1215 -0.8142 -0.8678
 8028SOL    MW431880   3.235   2.367   4.762 -1.2543  0.1399 -0.4110
 8029SOL     OW31881   1.652   4.306   4.537 -0.0092 -0.1953 -0.6865
 8029SOL    HW231882   1.721   4.371   4.551  0.2336 -0.3552 -1.1083
 8029SOL    HW331883   1.693   4.241   4.480 -0.8845  0.3199 -1.9361
 8029SOL    MW431884   1.667   4.306   4.532  0.4554 -0.1112 -0.3816
 8030SOL     OW31885   0.019   5.211   0.189  0.0117 -0.0171 -0.2176
 8030SOL    HW231886   0.051   5.300   0.197  1.0405 -0.3195 -0.7869
 8030SOL    HW331887   0.031   5.173   0.276  1.0026 -0.0537 -0.3622
 8030SOL    MW431888   0.025   5.218   0.202  0.1908  0.0185 -0.2609
 8031SOL     OW31889   3.018   3.683   0.541  0.2900  0.3913 -0.3298
 8031SOL    HW231890   2.999   3.655   0.630 -2.0197  0.5922 -0.7135
 8031SOL    HW331891   3.068   3.764   0.552  1.9977 -0.7477  0.7448
 8031SOL    MW431892   3.022   3.690   0.554  0.2831  0.3839 -0.0637
 8032SOL     OW31893   0.898   2.582   0.826  0.2001 -0.3906  0.1043
 8032SOL    HW231894   0.909   2.567   0.920  2.2210 -4.1119 -0.5178
 8032SOL    HW331895   0.947   2.663   0.810  0.6456 -0.1890  2.1267
 8032SOL    MW431896   0.906   2.591   0.837 -0.0222  0.0833  0.2414
 8033SOL     OW31897   5.418   1.827   6.378  0.7151 -0.1905 -0.2065
 8033SOL    HW231898   5.400   1.812   6.285 -0.8076  0.2254 -0.0200
 8033SOL    HW331899   5.466   1.750   6.406 -0.0916 -1.0236 -1.0160
 8033SOL    MW431900   5.422   1.815   6.369 -0.1106 -0.4042 -0.5043
 8034SOL     OW31901   3.988   6.383   3.298  0.9758 -0.1784  0.6642
 8034SOL    HW231902   4.078   6.386   3.267  1.2534 -0.6714  1.3873
 8034SOL    HW331903   3.968   6.473   3.323  1.5098 -0.1854  1.1425
 8034SOL    MW431904   3.997   6.395   3.297 -0.5591  0.3637  0.0421
 8035SOL     OW31905   4.833   3.429   1.936  0.1938  0.2947  0.2136
 8035SOL    HW231906   4.890   3.365   1.979  2.0597 -0.6637 -3.3253
 8035SOL    HW331907   4.748   3.386   1.932  1.0154 -1.3506 -0.6569
 8035SOL    MW431908   4.830   3.415   1.941  0.6626  0.3490 -0.0198
 8036SOL     OW31909   5.308   5.889   6.137 -0.1493 -0.0369 -0.0709
 8036SOL    HW231910   5.235   5.883   6.200  0.6366  0.8852  0.9669
 8036SOL    HW331911   5.282   5.959   6.077 -0.4835 -0.2760 -0.2096
 8036SOL    MW431912   5.295   5.897   6.138 -0.2539 -0.2020  0.5586
 8037SOL     OW31913   2.984   0.598   5.914  0.4014 -0.4168  0.4322
 8037SOL    HW231914   3.026   0.540   5.851  0.5953 -0.6864  0.8001
 8037SOL    HW331915   2.951   0.539   5.982 -2.2504 -0.4190 -0.7267
 8037SOL    MW431916   2.985   0.583   5.915  0.3974 -0.5384 -0.4137
 8038SOL     OW31917   6.108   2.726   0.990 -0.0957 -0.3856 -0.0141
 8038SOL    HW231918   6.144   2.715   1.078 -0.5099 -1.6791  0.0088
 8038SOL    HW331919   6.175   2.692   0.932 -0.3650 -0.7548 -0.1115
 8038SOL    MW431920   6.121   2.720   0.994  0.0374 -0.2728 -0.0074
 8039SOL     OW31921   3.049   0.044   4.512  0.0470  0.3306  0.3623
 8039SOL    HW231922   3.092  -0.028   4.466 -0.5475 -1.8048  2.9116
 8039SOL    HW331923   2.985   0.077   4.449  0.9248 -0.7625 -1.1943
 8039SOL    MW431924   3.046   0.039   4.498  0.0864  0.4412 -0.0831
 8040SOL     OW31925   3.535   5.783   6.259  0.3067 -0.2214 -0.3051
 8040SOL    HW231926   3.467   5.850   6.265  1.2931  0.7951  0.0191
 8040SOL    HW331927   3.517   5.736   6.178 -2.5645 -2.0313  1.2184
 8040SOL    MW431928   3.524   5.786   6.249  0.3430 -0.4724  0.1602
 8041SOL     OW31929   0.240   2.079   0.428 -0.0688 -0.1663  0.7645
 8041SOL    HW231930   0.224   2.059   0.336 -1.5381 -1.8171  1.2997
 8041SOL    HW331931   0.333   2.060   0.441  0.5320  1.5534 -0.6704
 8041SOL    MW431932   0.250   2.074   0.418 -0.2505 -0.5431 -0.4558
 8042SOL     OW31933   4.626   0.930   2.844 -0.1725  0.3929 -0.3783
 8042SOL    HW231934   4.667   0.865   2.787 -1.7247 -3.0254  2.1222
 8042SOL    HW331935   4.621   1.009   2.789  0.3938 -1.9439 -4.1633
 8042SOL    MW431936   4.631   0.932   2.829  0.4220 -0.0481 -0.0115
 8043SOL     OW31937   4.130  -0.000   1.519 -0.4490  0.2749  0.6219
 8043SOL    HW231938   4.076  -0.014   1.442  1.0317  2.2056 -0.8679
 8043SOL    HW331939   4.076  -0.030   1.593 -1.4784 -2.7596 -1.1875
 8043SOL    MW431940   4.116  -0.006   1.519 -0.7279 -0.3961 -0.0474
 8044SOL     OW31941   1.204   2.584   4.438 -0.0671 -0.1732  0.4868
 8044SOL    HW231942   1.155   2.513   4.396  0.0534 -0.5634  0.9869
 8044SOL    HW331943   1.283   2.541   4.473  0.4407  0.3710  0.0329
 8044SOL    MW431944   1.208   2.569   4.437 -0.0480  0.5887  0.5057
 8045SOL     OW31945   0.587   5.040   4.137 -0.4278  0.0291  0.0337
 8045SOL    HW231946   0.500   5.053   4.100  1.0313 -0.2536 -3.9136
 8045SOL    HW331947   0.634   4.988   4.072  3.3518  2.0432  0.8504
 8045SOL    MW431948   0.582   5.035   4.124 -0.6151 -0.1059  0.4698
 8046SOL     OW31949   4.100   0.363   1.372  0.5432 -0.3451  0.2443
 8046SOL    HW231950   4.105   0.389   1.280 -0.9712  1.3381  0.6058
 8046SOL    HW331951   4.177   0.307   1.384  0.2560 -1.4341 -2.2743
 8046SOL    MW431952   4.111   0.359   1.362  0.7825  0.2030 -0.6240
 8047SOL     OW31953   4.224   4.386   0.304 -0.1237 -0.1562  0.0911
 8047SOL    HW231954   4.209   4.341   0.387  1.2418  2.2515  1.7667
 8047SOL    HW331955   4.292   4.334   0.260 -0.9154 -1.4940  0.3979
 8047SOL    MW431956   4.231   4.373   0.309 -0.4740 -0.3401 -0.3997
 8048SOL     OW31957   0.046   6.376   3.206  0.3536 -0.7192  0.1542
 8048SOL    HW231958  -0.004   6.397   3.127  0.6745 -1.0575 -0.1443
 8048SOL    HW331959   0.119   6.323   3.175 -0.4059 -2.2562  0.8550
 8048SOL    MW431960   0.049   6.371   3.192  0.5847 -0.7427  0.1622
 8049SOL     OW31961   1.584   5.443   2.621  0.3353 -0.3458 -0.1089
 8049SOL    HW231962   1.631   5.433   2.539 -1.1744 -2.7265 -0.7789
 8049SOL    HW331963   1.503   5.488   2.597  0.9211  1.0963  0.5251
 8049SOL    MW431964   1.579   5.448   2.607  0.1514 -0.2901  0.1061
 8050SOL     OW31965   3.732   3.714   6.427  0.6127 -0.3649  0.3932
 8050SOL    HW231966   3.647   3.755   6.443  1.3532  0.7294  1.7262
 8050SOL    HW331967   3.779   3.722   6.510  3.0327  1.5240 -1.0159
 8050SOL    MW431968   3.727   3.720   6.440  0.7583 -0.3871  0.6193
 8051SOL     OW31969   3.904   4.152   3.728  0.1347 -0.4199  0.4644
 8051SOL    HW231970   3.973   4.086   3.729  1.3116  0.7602  0.0469
 8051SOL    HW331971   3.869   4.150   3.639  1.6473  0.9434 -0.2129
 8051SOL    MW431972   3.908   4.143   3.717 -0.4677  0.0253  0.3420
 8052SOL     OW31973   5.974   0.755   4.734  0.1649 -0.0578  0.5140
 8052SOL    HW231974   6.044   0.715   4.683 -1.4579 -2.4840  0.0239
 8052SOL    HW331975   5.949   0.833   4.684  0.4348 -0.8758 -0.9582
 8052SOL    MW431976   5.980   0.760   4.721  0.0845  0.4453  0.1544
 8053SOL     OW31977   2.998   2.886   5.504 -0.4987  0.4137 -0.1649
 8053SOL    HW231978   3.038   2.924   5.426 -0.2990  2.7262  0.9785
 8053SOL    HW331979   2.931   2.827   5.470 -0.0298  0.9151 -2.0756
 8053SOL    MW431980   2.994   2.883   5.489  0.6089  0.0781  0.4457
 8054SOL     OW31981   3.944   1.639   5.929  0.0311  0.7065  0.2566
 8054SOL    HW231982   3.979   1.704   5.868  1.6616 -1.1553 -0.9471
 8054SOL    HW331983   3.904   1.573   5.872 -1.2105  0.4296  1.4097
 8054SOL    MW431984   3.943   1.639   5.913  0.6327  0.0189  0.2464
 8055SOL     OW31985   4.829   5.412   3.865  0.0148 -0.0964  0.0254
 8055SOL    HW231986   4.757   5.411   3.802  0.0827 -0.3891 -0.0498
 8055SOL    HW331987   4.786   5.413   3.950 -0.0840 -0.8283 -0.0115
 8055SOL    MW431988   4.814   5.412   3.868  0.2606 -0.0983 -0.1662
 8056SOL     OW31989   5.833   4.864   4.399  0.3535 -0.1013 -0.2399
 8056SOL    HW231990   5.917   4.832   4.430  0.0189 -0.6787  0.0916
 8056SOL    HW331991   5.769   4.831   4.462  0.0147  1.5378  0.3220
 8056SOL    MW431992   5.836   4.855   4.411  0.2975  0.1698  0.4732
 8057SOL     OW31993   4.931   0.600   6.061 -0.6187  1.0984 -0.2602
 8057SOL    HW231994   4.936   0.598   5.966  1.2167 -0.4571 -0.1948
 8057SOL    HW331995   4.937   0.693   6.084 -1.2359  1.4957 -1.6479
 8057SOL    MW431996   4.933   0.612   6.052  0.5548  0.5137 -0.1502
 8058SOL     OW31997   4.829   6.381   5.148  0.0149 -0.1304  0.1537
 8058SOL    HW231998   4.870   6.421   5.072  0.6217  1.1484  1.0980
 8058SOL    HW331999   4.860   6.434   5.222 -2.5102  0.2731  1.0318
 8058SOL    MW432000   4.838   6.394   5.148 -0.3069  0.0853 -0.0488
 8059SOL     OW32001   1.131   1.493   0.113  0.0793 -0.4294 -0.0494
 8059SOL    HW232002   1.182   1.571   0.091  0.7052 -0.8429 -0.0574
 8059SOL    HW332003   1.095   1.511   0.199  2.8108 -1.4072  1.4052
 8059SOL    MW432004   1.133   1.506   0.121  0.4796  1.0249 -0.2346
 8060SOL     OW32005   0.599   3.176   4.370  0.6920 -0.0465  0.1988
 8060SOL    HW232006   0.616   3.232   4.445  0.5195 -0.7393  0.7678
 8060SOL    HW332007   0.685   3.142   4.345  0.8054  0.5238 -0.1906
 8060SOL    MW432008   0.612   3.179   4.377  0.1702  0.1370 -0.2477
 8061SOL     OW32009   0.106   1.991   0.760 -0.0776  0.0124 -0.2428
 8061SOL    HW232010   0.177   2.051   0.740 -0.3646 -0.0541 -1.5295
 8061SOL    HW332011   0.026   2.038   0.735 -0.2788 -1.0583 -1.7403
 8061SOL    MW432012   0.105   2.005   0.754  0.5782  0.4146  0.1205
 8062SOL     OW32013   4.683   3.824   2.392 -0.2226 -0.0858 -0.3376
 8062SOL    HW232014   4.656   3.796   2.304 -0.0060  0.0782 -0.4575
 8062SOL    HW332015   4.738   3.752   2.424 -0.6946 -0.3630 -0.1425
 8062SOL    MW432016   4.687   3.811   2.385 -0.2854  0.0770  0.7253
 8063SOL     OW32017   0.273   6.150   4.123 -0.1860 -0.1564  0.7229
 8063SOL    HW232018   0.328   6.153   4.201  0.9128 -0.2813 -0.0310
 8063SOL    HW332019   0.269   6.241   4.093 -1.9920  0.1850  1.8300
 8063SOL    MW432020   0.280   6.163   4.130 -0.4105 -0.1737  0.3938
 8064SOL     OW32021   0.454   2.290   3.158 -0.4132 -0.5954 -0.2174
 8064SOL    HW232022   0.367   2.251   3.167 -1.5578  2.1047  1.9036
 8064SOL    HW332023   0.459   2.314   3.065 -1.6061 -1.4910 -0.5457
 8064SOL    MW432024   0.443   2.288   3.147  1.0975 -0.4722 -0.7106
 8065SOL     OW32025   6.013   1.300   5.864 -0.2263  0.1758  0.1790
 8065SOL    HW232026   5.960   1.300   5.785 -1.7289  1.2199  1.1223
 8065SOL    HW332027   5.961   1.350   5.928  1.9265  1.3131  1.1522
 8065SOL    MW432028   5.999   1.306   5.862  0.4141 -0.3400 -0.1215
 8066SOL     OW32029   5.892   0.353   3.238  0.3001  0.4209  0.3476
 8066SOL    HW232030   5.937   0.369   3.155 -0.4425  1.5248  0.1443
 8066SOL    HW332031   5.870   0.440   3.272 -1.3516 -0.0597  0.6059
 8066SOL    MW432032   5.895   0.366   3.232  0.2123  0.3120 -0.5345
 8067SOL     OW32033   3.708   2.383   4.726  0.2545  0.0729  0.1334
 8067SOL    HW232034   3.775   2.317   4.742 -1.4508 -1.5765  0.9557
 8067SOL    HW332035   3.729   2.454   4.787  2.1426  0.3558 -0.7967
 8067SOL    MW432036   3.719   2.384   4.736 -0.5752  0.4613 -0.2979
 8068SOL     OW32037   3.887   3.554   3.336  0.0272 -0.6171  0.3464
 8068SOL    HW232038   3.908   3.611   3.410 -2.3201  1.5423 -0.5129
 8068SOL    HW332039   3.799   3.579   3.311  0.0908 -2.4971 -2.1246
 8068SOL    MW432040   3.878   3.565   3.342 -0.3039  0.3155  0.8298
 8069SOL     OW32041   0.704   4.315   0.411  0.4504 -0.3035  0.1680
 8069SOL    HW232042   0.666   4.303   0.324  1.9116  1.5003 -0.7802
 8069SOL    HW332043   0.791   4.276   0.406 -0.1932 -2.0335  1.5078
 8069SOL    MW432044   0.710   4.308   0.399 -0.1350 -0.2032  0.4805
 8070SOL     OW32045   2.569   6.130   5.312  0.4131 -0.0749  0.5018
 8070SOL    HW232046   2.647   6.078   5.328 -0.5142 -1.1493  1.8329
 8070SOL    HW332047   2.584   6.172   5.228  1.7361 -1.5117 -0.0220
 8070SOL    MW432048   2.581   6.129   5.303  0.3836  0.2344  0.5800
 8071SOL     OW32049   4.714   4.782   0.318 -0.0946  0.3407 -0.4808
 8071SOL    HW232050   4.690   4.702   0.271  0.3800  0.5980 -1.1748
 8071SOL    HW332051   4.708   4.851   0.252 -1.3770  1.0366  0.3286
 8071SOL    MW432052   4.710   4.780   0.303  0.1530 -0.0721 -0.4471
 8072SOL     OW32053   5.217   2.549   2.555 -0.0207  0.1514 -0.6960
 8072SOL    HW232054   5.287   2.608   2.526  1.3352 -1.0918 -0.1116
 8072SOL    HW332055   5.149   2.607   2.589  1.3933  1.3967  0.1552
 8072SOL    MW432056   5.217   2.565   2.556 -0.2021 -0.0778  0.0367
 8073SOL     OW32057   1.049   0.428   1.789 -0.3006 -0.2581  0.2640
 8073SOL    HW232058   0.976   0.472   1.745 -0.5373 -1.3992 -0.5140
 8073SOL    HW332059   1.014   0.402   1.874 -0.4408  0.2280  0.3573
 8073SOL    MW432060   1.035   0.431   1.794  0.1031 -0.0797  0.6745
 8074SOL     OW32061   5.168   4.930   5.995 -0.2005 -0.1933 -0.4158
 8074SOL    HW232062   5.172   5.025   6.007 -2.5178 -0.1275  0.3477
 8074SOL    HW332063   5.250   4.898   6.032 -0.1342  1.3845  0.9308
 8074SOL    MW432064   5.180   4.938   6.002  0.7271  0.6793 -0.0158
 8075SOL     OW32065   3.147   2.617   4.489 -0.0086 -0.2171 -0.2944
 8075SOL    HW232066   3.222   2.606   4.431 -0.3189 -0.1098 -0.7152
 8075SOL    HW332067   3.082   2.555   4.456 -0.5992  0.6382 -0.7548
 8075SOL    MW432068   3.149   2.607   4.477 -0.0582  0.1701 -0.4081
 8076SOL     OW32069   5.330   4.669   2.029  0.2707  0.1295 -0.1813
 8076SOL    HW232070   5.305   4.634   2.114  0.6141 -2.0682 -0.9010
 8076SOL    HW332071   5.422   4.695   2.039  0.1753  0.3104  0.2358
 8076SOL    MW432072   5.339   4.668   2.041 -0.1660 -0.5237 -0.0447
 8077SOL     OW32073   5.673   3.119   3.419 -0.1172  0.3563 -0.3589
 8077SOL    HW232074   5.590   3.071   3.414  1.2301 -2.1651 -0.1606
 8077SOL    HW332075   5.699   3.131   3.328  0.9921 -2.1536 -0.4581
 8077SOL    MW432076   5.665   3.114   3.406 -0.6040  0.3414 -0.1709
 8078SOL     OW32077   3.610   5.947   4.801  0.9930 -0.4793 -0.1723
 8078SOL    HW232078   3.688   5.988   4.839  1.0823  0.4136 -1.2666
 8078SOL    HW332079   3.580   5.886   4.868  1.0275  1.1630  1.4182
 8078SOL    MW432080   3.616   5.945   4.815  0.2978  0.5080 -0.2624
 8079SOL     OW32081   4.067   6.178   0.045 -0.3410 -0.1031 -0.3092
 8079SOL    HW232082   4.032   6.089   0.048  0.6252 -0.5210 -0.8722
 8079SOL    HW332083   4.098   6.189  -0.045  2.6073 -0.4424  0.5482
 8079SOL    MW432084   4.067   6.168   0.033  0.1678  0.0164 -0.1212
 8080SOL     OW32085   4.296   6.283   3.755 -0.1240  0.0128 -0.3215
 8080SOL    HW232086   4.376   6.236   3.731  0.1891 -0.1937  1.0363
 8080SOL    HW332087   4.310   6.372   3.721 -0.2821 -0.5645 -2.0006
 8080SOL    MW432088   4.309   6.289   3.747 -0.6169  0.5730  0.5638
 8081SOL     OW32089   4.331   1.597   2.655  0.1954 -0.1584  0.0364
 8081SOL    HW232090   4.310   1.504   2.656 -1.4851  0.1538 -0.9232
 8081SOL    HW332091   4.249   1.639   2.630  0.9114  1.5895  0.4817
 8081SOL    MW432092   4.317   1.590   2.652  0.0965 -0.0826 -0.1745
 8082SOL     OW32093   4.626   5.829   6.418 -0.1225 -0.7207 -0.1942
 8082SOL    HW232094   4.590   5.787   6.496  0.9086 -1.2545  0.0122
 8082SOL    HW332095   4.708   5.782   6.401  2.2249  2.4503  1.3066
 8082SOL    MW432096   4.632   5.817   6.426  0.2862 -0.5318  0.4841
 8083SOL     OW32097   1.334   3.175   4.749 -0.7864 -0.5063  0.0720
 8083SOL    HW232098   1.291   3.255   4.719  0.1308 -1.2985 -3.9388
 8083SOL    HW332099   1.425   3.184   4.720 -0.0776 -2.0198  1.6566
 8083SOL    MW432100   1.341   3.186   4.741 -0.0865  0.2565 -0.2448
 8084SOL     OW32101   6.028   2.823   2.608 -0.8906  0.2958  0.4809
 8084SOL    HW232102   6.002   2.909   2.641 -0.3269  0.2960  0.9335
 8084SOL    HW332103   6.097   2.842   2.545 -2.3218  0.3412 -1.1504
 8084SOL    MW432104   6.034   2.837   2.604  0.0995  0.3983  0.1680
 8085SOL     OW32105   5.635   4.697   3.613 -0.1397 -0.1168 -0.0640
 8085SOL    HW232106   5.656   4.661   3.527  1.6628  2.8484 -1.0096
 8085SOL    HW332107   5.602   4.785   3.595 -2.1481 -0.3054  2.2056
 8085SOL    MW432108   5.633   4.704   3.599 -0.2586  0.7695  0.7041
 8086SOL     OW32109   4.623   3.282   0.063 -0.3902 -0.2937 -0.1819
 8086SOL    HW232110   4.641   3.197   0.103 -0.6115  0.2514  1.1141
 8086SOL    HW332111   4.639   3.345   0.132  1.6093  0.8996 -1.6344
 8086SOL    MW432112   4.627   3.279   0.077  0.2575 -0.2076  0.1703
 8087SOL     OW32113   5.463   5.429   4.142  0.3101  0.0656  0.3267
 8087SOL    HW232114   5.501   5.360   4.088 -0.0494 -0.0816  0.2561
 8087SOL    HW332115   5.485   5.404   4.232 -1.1366 -0.9888  0.4292
 8087SOL    MW432116   5.471   5.417   4.147 -0.5244  0.0687  0.0282
 8088SOL     OW32117   0.777   2.987   0.514  0.2493 -0.0630 -0.3081
 8088SOL    HW232118   0.778   3.070   0.562  2.2184 -0.9361  1.3157
 8088SOL    HW332119   0.775   2.920   0.583 -0.8469 -1.3977 -1.5713
 8088SOL    MW432120   0.777   2.989   0.530  0.5515 -0.3889  0.1066
 8089SOL     OW32121   5.313   2.555   4.886  0.4339 -0.1128  0.2866
 8089SOL    HW232122   5.371   2.515   4.821  1.9400  0.6540  1.1245
 8089SOL    HW332123   5.294   2.484   4.947  2.0844  0.0813  1.0729
 8089SOL    MW432124   5.318   2.540   4.885 -0.2469  0.1736  0.3465
 8090SOL     OW32125   2.458   1.332   2.328 -0.4604 -0.2294 -0.0299
 8090SOL    HW232126   2.498   1.278   2.396  0.3461 -1.7490 -1.6021
 8090SOL    HW332127   2.530   1.387   2.295 -1.2546  1.8236  1.4906
 8090SOL    MW432128   2.473   1.332   2.332 -0.2656  0.0606 -0.2734
 8091SOL     OW32129   3.361   2.069   3.959 -0.0556 -0.0957  0.0482
 8091SOL    HW232130   3.443   2.023   3.975  0.5947  0.1634 -2.2840
 8091SOL    HW332131   3.385   2.162   3.961 -0.8868  0.1363  2.1950
 8091SOL    MW432132   3.375   2.075   3.962  0.0443  0.0661  0.4134
 8092SOL     OW32133   2.527   6.185   3.860 -0.6292 -0.9415  0.6291
 8092SOL    HW232134   2.469   6.111   3.840 -0.7044 -0.9809  0.9948
 8092SOL    HW332135   2.514   6.201   3.953 -1.0215 -0.1159  0.4400
 8092SOL    MW432136   2.518   6.177   3.870 -0.6556 -0.1831  0.7441
 8093SOL     OW32137   1.251   1.158   3.120  0.0496 -0.1599  0.4420
 8093SOL    HW232138   1.160   1.185   3.126  0.3597  0.7958  0.9513
 8093SOL    HW332139   1.250   1.065   3.146 -0.6253  0.1525  1.6055
 8093SOL    MW432140   1.239   1.149   3.124 -0.2935  0.1611 -0.0606
 8094SOL     OW32141   2.347   5.746   0.947 -0.5197 -0.2022  0.0436
 8094SOL    HW232142   2.323   5.682   0.880  1.1146 -0.0561 -0.7276
 8094SOL    HW332143   2.438   5.726   0.969 -0.0110  1.7427 -0.0960
 8094SOL    MW432144   2.356   5.735   0.941  0.7012 -0.0340  0.2301
 8095SOL     OW32145   2.072   0.240   1.236  0.2866 -0.0795 -0.3609
 8095SOL    HW232146   2.050   0.155   1.198  0.1315  1.0841 -3.1655
 8095SOL    HW332147   2.167   0.246   1.227  0.2593  0.1731 -0.4924
 8095SOL    MW432148   2.082   0.230   1.230 -0.2769 -0.0232 -0.1930
 8096SOL     OW32149   3.387   1.008   1.888 -0.0298 -0.6914  0.2740
 8096SOL    HW232150   3.404   0.929   1.837  0.2522  0.1801 -1.0432
 8096SOL    HW332151   3.468   1.059   1.880  0.5934 -1.1196  2.8191
 8096SOL    MW432152   3.400   1.004   1.881 -0.6042  0.3413  0.2906
 8097SOL     OW32153   4.142   4.870   1.589 -0.3043 -0.0249  0.4433
 8097SOL    HW232154   4.168   4.954   1.628 -0.3313 -1.3788  3.6988
 8097SOL    HW332155   4.075   4.836   1.649 -1.6684 -1.5685 -1.8217
 8097SOL    MW432156   4.136   4.877   1.602  0.1314  0.0609 -0.7524
 8098SOL     OW32157   3.504   4.126   5.945 -0.9390  0.4206  0.1318
 8098SOL    HW232158   3.452   4.144   5.867  0.8793 -1.3893 -1.6176
 8098SOL    HW332159   3.489   4.033   5.963  0.9317  0.0652  0.0922
 8098SOL    MW432160   3.495   4.116   5.937  0.9388 -0.1294 -0.5407
 8099SOL     OW32161   3.064   4.885   2.465  0.0531 -0.0965 -0.1836
 8099SOL    HW232162   2.981   4.887   2.417  0.1625 -0.8003 -0.4252
 8099SOL    HW332163   3.094   4.794   2.456  1.6550  0.5079 -1.5043
 8099SOL    MW432164   3.057   4.873   2.457 -0.3100  0.0068 -0.3700
 8100SOL     OW32165   2.228   1.468   3.419  0.5741  0.1260  0.1882
 8100SOL    HW232166   2.193   1.403   3.358  0.5234  1.6494 -1.4956
 8100SOL    HW332167   2.160   1.477   3.486 -0.7953  0.5903 -1.1975
 8100SOL    MW432168   2.214   1.461   3.420 -0.6347 -0.4869  0.1797
 8101SOL     OW32169   4.642   4.872   2.645 -0.1386 -0.0236  0.3037
 8101SOL    HW232170   4.721   4.899   2.692 -0.8465  1.6958  0.5718
 8101SOL    HW332171   4.624   4.783   2.678  0.7383  0.2050  1.4689
 8101SOL    MW432172   4.650   4.864   2.655 -0.0818 -0.0413 -0.0551
 8102SOL     OW32173   1.361   2.600   0.250  0.5385  0.4683 -0.3142
 8102SOL    HW232174   1.278   2.646   0.240  0.6201  0.7363  0.1706
 8102SOL    HW332175   1.418   2.663   0.294  0.5817 -0.1627  0.5697
 8102SOL    MW432176   1.358   2.614   0.255  0.2834  0.4238 -0.9002
 8103SOL     OW32177   0.904   2.732   1.688 -0.1944 -0.4908  0.1059
 8103SOL    HW232178   0.817   2.694   1.672  0.2936 -1.9889  0.8092
 8103SOL    HW332179   0.896   2.823   1.660 -1.6362 -0.9222 -1.0023
 8103SOL    MW432180   0.891   2.739   1.682  0.2479  0.2660  0.0092
 8104SOL     OW32181   2.601   2.605   0.602 -0.0765 -0.0119  0.0872
 8104SOL    HW232182   2.510   2.575   0.611 -0.3351 -0.4100 -2.7566
 8104SOL    HW332183   2.653   2.536   0.643 -1.0017 -0.9081 -0.1889
 8104SOL    MW432184   2.596   2.592   0.608 -0.2519  0.0021  0.5990
 8105SOL     OW32185   2.146   4.252   6.018  0.1868 -0.8009  0.2430
 8105SOL    HW232186   2.200   4.188   5.972  1.2389  1.3495 -1.7224
 8105SOL    HW332187   2.208   4.317   6.051 -0.9931  1.9427 -2.3915
 8105SOL    MW432188   2.161   4.253   6.016  0.1767  0.4612  0.2521
 8106SOL     OW32189   4.170   3.481   2.383 -0.7458  0.1527  0.2614
 8106SOL    HW232190   4.189   3.388   2.375 -2.7250 -0.4893  2.3479
 8106SOL    HW332191   4.077   3.489   2.362 -0.8767  1.4710  1.2172
 8106SOL    MW432192   4.160   3.470   2.379  0.2455 -0.2800 -0.8615
 8107SOL     OW32193   3.736   4.974   0.067  0.3950 -0.0524 -0.3673
 8107SOL    HW232194   3.760   5.005  -0.021  0.8600 -0.2629 -0.3162
 8107SOL    HW332195   3.686   5.046   0.105  0.6349  0.2496 -0.6139
 8107SOL    MW432196   3.733   4.988   0.060  0.0714 -0.5874  0.2008
 8108SOL     OW32197   2.468   2.075   3.014 -0.0483 -0.2492 -0.1109
 8108SOL    HW232198   2.502   2.092   2.926  0.2715 -2.9855 -0.6253
 8108SOL    HW332199   2.373   2.085   3.006  0.0866  0.8498 -0.4032
 8108SOL    MW432200   2.460   2.078   3.001  0.9615  0.6957 -0.6114
 8109SOL     OW32201   6.431   0.838   2.732  0.2151 -0.1590 -0.0402
 8109SOL    HW232202   6.494   0.786   2.782  3.3671  0.7691 -2.7277
 8109SOL    HW332203   6.357   0.779   2.718  0.1848 -1.1941  3.5493
 8109SOL    MW432204   6.430   0.824   2.737 -0.3333  0.2305  0.0571
 8110SOL     OW32205   1.698   5.352   3.939  0.5954 -0.3285  0.0481
 8110SOL    HW232206   1.773   5.304   3.904  0.7369  0.7554 -1.2349
 8110SOL    HW332207   1.643   5.368   3.862 -1.3088 -1.6586  1.0417
 8110SOL    MW432208   1.700   5.348   3.924  0.2513  0.1046  0.2880
 8111SOL     OW32209   1.325   6.119   0.557 -0.1322  0.2792 -0.2443
 8111SOL    HW232210   1.252   6.175   0.585  2.2438  2.1578  2.8987
 8111SOL    HW332211   1.331   6.052   0.624  1.9825  1.1764  0.5520
 8111SOL    MW432212   1.316   6.118   0.569 -0.0673  0.1271 -0.5370
 8112SOL     OW32213   2.959   5.634   4.262  0.3780  0.1699 -0.7075
 8112SOL    HW232214   2.900   5.702   4.231  0.3481 -0.1637 -1.4073
 8112SOL    HW332215   2.942   5.559   4.204  0.2857 -0.4902  0.1435
 8112SOL    MW432216   2.949   5.633   4.251  0.5303 -0.2120  0.1310
 8113SOL     OW32217   0.801   0.389   2.025  0.1357  0.0291  0.3949
 8113SOL    HW232218   0.759   0.342   2.097 -0.5376 -1.0553 -0.6617
 8113SOL    HW332219   0.729   0.436   1.982  0.4563  0.3211  0.1696
 8113SOL    MW432220   0.786   0.389   2.029  0.3329 -0.2012  0.5800
 8114SOL     OW32221   0.897   4.462   1.904 -0.1537 -0.2357 -0.2435
 8114SOL    HW232222   0.914   4.377   1.865 -1.3923 -0.2976 -0.6895
 8114SOL    HW332223   0.841   4.507   1.840 -0.0598  0.6527  0.2855
 8114SOL    MW432224   0.892   4.457   1.890 -0.1701  0.0827  0.1144
 8115SOL     OW32225   2.449   4.678   0.946 -0.0772  0.5235 -0.1715
 8115SOL    HW232226   2.517   4.745   0.942  2.0282 -1.5519 -0.8809
 8115SOL    HW332227   2.456   4.643   1.035 -0.2350  0.3046 -0.2460
 8115SOL    MW432228   2.459   4.683   0.957  0.2175  0.6786 -0.0315
 8116SOL     OW32229   0.762   2.981   5.500  0.1218 -0.2695 -0.1404
 8116SOL    HW232230   0.837   2.974   5.442  1.1840 -0.4187  1.1870
 8116SOL    HW332231   0.753   3.075   5.516 -0.9171 -0.1242 -1.4395
 8116SOL    MW432232   0.771   2.993   5.495  0.3239 -0.0501 -0.9307
 8117SOL     OW32233   4.386   2.327   2.127 -0.1362 -0.6696 -0.7632
 8117SOL    HW232234   4.390   2.413   2.169  0.4831 -0.5950 -0.9538
 8117SOL    HW332235   4.370   2.346   2.035  2.7781 -0.5586 -1.3435
 8117SOL    MW432236   4.385   2.341   2.120  0.1359  0.2113  0.1978
 8118SOL     OW32237   5.890   2.912   1.058 -0.3356 -0.5446  0.2170
 8118SOL    HW232238   5.952   2.952   1.118  0.2250 -0.8724 -0.1312
 8118SOL    HW332239   5.939   2.839   1.018 -0.9093 -0.7449 -0.1311
 8118SOL    MW432240   5.905   2.907   1.060  0.0242 -0.2743  0.6300
 8119SOL     OW32241   2.528   2.951   4.415 -0.4150 -0.3001  0.3060
 8119SOL    HW232242   2.519   2.973   4.323  0.0241  0.6620  0.4740
 8119SOL    HW332243   2.492   2.863   4.423 -0.9769 -0.1695 -0.6714
 8119SOL    MW432244   2.522   2.942   4.404 -0.7112  0.5112 -0.2378
 8120SOL     OW32245   0.665   0.104   5.972  0.0544 -0.1977  0.1453
 8120SOL    HW232246   0.760   0.108   5.976  0.0908  1.0528 -1.2726
 8120SOL    HW332247   0.636   0.149   6.052  0.6536  0.0635  0.2244
 8120SOL    MW432248   0.673   0.111   5.983  0.1289 -0.2875  0.1108
 8121SOL     OW32249   6.283   2.388   3.791  0.1395 -0.1050 -0.2744
 8121SOL    HW232250   6.267   2.477   3.823 -2.5595 -0.2955 -0.8678
 8121SOL    HW332251   6.197   2.357   3.762  1.3309 -2.2560 -1.7963
 8121SOL    MW432252   6.270   2.396   3.791 -0.2096  0.3584  0.2657
 8122SOL     OW32253   0.558   0.258   5.750 -0.3445 -0.7014 -0.0614
 8122SOL    HW232254   0.602   0.206   5.683  3.3879  0.6264  1.1627
 8122SOL    HW332255   0.570   0.208   5.830 -0.2804  0.1225  0.4483
 8122SOL    MW432256   0.565   0.244   5.751 -0.5649  0.0955  0.2923
 8123SOL     OW32257   2.335   6.062   5.672  0.1142  0.5868 -0.1065
 8123SOL    HW232258   2.294   6.148   5.685 -2.2288 -0.2687 -1.2337
 8123SOL    HW332259   2.373   6.067   5.584  0.1141  0.5228 -0.1099
 8123SOL    MW432260   2.335   6.074   5.662  0.1805  0.4775  0.2757
 8124SOL     OW32261   1.607   3.345   5.767 -0.1716 -0.1960 -0.0197
 8124SOL    HW232262   1.609   3.259   5.724  0.0964 -1.2189  1.9357
 8124SOL    HW332263   1.668   3.398   5.715  1.4511 -1.8735  0.0464
 8124SOL    MW432264   1.616   3.340   5.755  0.3614 -0.3861  0.0266
 8125SOL     OW32265   5.767   6.175   6.143 -0.7023  0.1660  0.0694
 8125SOL    HW232266   5.710   6.213   6.076  0.7082 -0.0000 -1.2798
 8125SOL    HW332267   5.709   6.123   6.197 -1.8461  0.0445 -1.2325
 8125SOL    MW432268   5.752   6.173   6.141 -0.3786  0.1883 -0.3807
 8126SOL     OW32269   2.179   2.748   3.080  0.1011 -0.2104 -0.0691
 8126SOL    HW232270   2.171   2.773   2.988  2.3618 -1.1801 -0.6100
 8126SOL    HW332271   2.256   2.796   3.111 -0.8731  0.4286  1.4749
 8126SOL    MW432272   2.188   2.758   3.072 -0.3975 -0.1021 -0.2899
 8127SOL     OW32273   1.368   5.968   5.020 -0.7385  0.5664  0.2206
 8127SOL    HW232274   1.445   5.919   5.049 -0.4007  0.9585 -0.0136
 8127SOL    HW332275   1.367   5.956   4.925 -0.4715  1.2814  0.1254
 8127SOL    MW432276   1.378   5.960   5.011 -0.1814  0.2733  0.0727
 8128SOL     OW32277   3.410   1.608   2.735  0.6894 -0.8565  0.9486
 8128SOL    HW232278   3.498   1.639   2.715  0.3814 -1.0600 -0.8910
 8128SOL    HW332279   3.353   1.658   2.677 -0.4539 -0.5937  2.2424
 8128SOL    MW432280   3.414   1.619   2.725  0.6151 -0.0962 -0.1995
 8129SOL     OW32281   1.767   2.449   5.387  0.1095  0.1815  0.3987
 8129SOL    HW232282   1.682   2.443   5.343 -0.1362 -1.1192  1.0022
 8129SOL    HW332283   1.831   2.440   5.316 -0.1863  2.5792 -0.2647
 8129SOL    MW432284   1.764   2.447   5.372  0.4600 -0.0112  0.0936
 8130SOL     OW32285   2.450   1.360   3.221 -0.4634  0.1478  0.1793
 8130SOL    HW232286   2.472   1.267   3.216 -0.3215  0.0292  2.2800
 8130SOL    HW332287   2.417   1.381   3.133 -2.0059 -2.2719  0.0712
 8130SOL    MW432288   2.448   1.350   3.209  0.3083  0.1225  0.5385
 8131SOL     OW32289   2.184   5.822   4.649 -0.5995 -0.1517  0.3927
 8131SOL    HW232290   2.209   5.899   4.699  0.4103 -0.1669 -0.0786
 8131SOL    HW332291   2.260   5.801   4.596 -0.0604 -2.6750  1.9852
 8131SOL    MW432292   2.197   5.829   4.649  0.2110  0.1744 -0.1126
 8132SOL     OW32293   6.092   3.321   0.656 -0.0341  0.1097  0.3796
 8132SOL    HW232294   6.185   3.298   0.659 -0.2530 -0.6635  2.1490
 8132SOL    HW332295   6.055   3.262   0.590  0.8450  1.0012 -0.9644
 8132SOL    MW432296   6.099   3.310   0.648  0.0390  0.4221  0.3624
 8133SOL     OW32297   5.922   6.021   4.007 -0.2727 -0.1208  0.1495
 8133SOL    HW232298   5.998   6.064   3.968 -0.1984  0.9263  1.3896
 8133SOL    HW332299   5.847   6.057   3.960 -0.0270 -1.4738 -1.3751
 8133SOL    MW432300   5.922   6.031   3.996  0.2299  0.1744 -0.6088
 8134SOL     OW32301   3.276   4.923   2.661 -0.1711 -0.3420  0.0330
 8134SOL    HW232302   3.301   5.009   2.695  0.6548 -0.4375 -0.3026
 8134SOL    HW332303   3.246   4.939   2.572  2.0128 -0.6345 -0.8070
 8134SOL    MW432304   3.275   4.936   2.654 -0.6124  0.1888  0.1904
 8135SOL     OW32305   5.016   4.327   5.717  0.3575 -0.2028  0.2043
 8135SOL    HW232306   4.928   4.338   5.753  0.1624 -0.3778 -0.2114
 8135SOL    HW332307   5.074   4.349   5.789 -0.0250  0.2353  0.3833
 8135SOL    MW432308   5.012   4.331   5.731  0.8423 -0.5251 -0.1115
 8136SOL     OW32309   1.832   5.539   5.519  0.0880 -0.0681  0.0566
 8136SOL    HW232310   1.880   5.456   5.510 -1.2125 -0.8301 -0.2004
 8136SOL    HW332311   1.884   5.602   5.471  1.3186 -0.6417  0.5891
 8136SOL    MW432312   1.845   5.536   5.511 -0.2676 -0.2182 -0.2759
 8137SOL     OW32313   4.798   3.923   1.669 -0.0509  0.6337  0.0605
 8137SOL    HW232314   4.820   3.847   1.724  0.8719  0.0459 -1.0518
 8137SOL    HW332315   4.850   3.909   1.589  0.7560  2.8431  0.1404
 8137SOL    MW432316   4.808   3.911   1.666 -0.1560 -0.0580 -0.3917
 8138SOL     OW32317   1.829   2.078   6.310 -0.5518 -0.4295  0.3601
 8138SOL    HW232318   1.888   2.145   6.344  0.1276 -0.1279 -1.2877
 8138SOL    HW332319   1.753   2.127   6.278 -0.4708 -0.5362  0.0000
 8138SOL    MW432320   1.826   2.093   6.310  0.3134 -0.0491 -0.1008
 8139SOL     OW32321   5.132   5.557   5.342  0.7346  0.2761 -0.4102
 8139SOL    HW232322   5.141   5.650   5.321  2.8182  0.1992 -0.0843
 8139SOL    HW332323   5.117   5.556   5.437  0.9998  0.2785 -0.3668
 8139SOL    MW432324   5.131   5.570   5.352  0.3682 -0.2647  0.5363
 8140SOL     OW32325   6.004   6.290   3.821  0.3467  0.1946 -0.7725
 8140SOL    HW232326   5.941   6.235   3.774 -0.1750  0.6072 -0.5692
 8140SOL    HW332327   6.047   6.340   3.752 -0.1611  0.5373 -0.8470
 8140SOL    MW432328   6.001   6.289   3.805 -0.3329 -0.3485 -0.1063
 8141SOL     OW32329   6.341   0.903   2.128  0.1241 -0.3810 -0.4283
 8141SOL    HW232330   6.313   0.846   2.056 -1.6650  0.4208 -0.4168
 8141SOL    HW332331   6.364   0.842   2.199 -2.5908 -1.1759 -0.1067
 8141SOL    MW432332   6.340   0.887   2.128 -0.2062  0.1065  0.2506
 8142SOL     OW32333   2.361   1.593   2.317 -0.1371  0.3908 -0.2920
 8142SOL    HW232334   2.432   1.638   2.270 -0.2776  1.0879  0.1473
 8142SOL    HW332335   2.390   1.502   2.323 -0.1004  0.2850 -1.7009
 8142SOL    MW432336   2.374   1.587   2.311  0.0116  0.2636  0.1923
 8143SOL     OW32337   0.998   3.298   3.748  0.4262 -0.1509  0.2803
 8143SOL    HW232338   0.915   3.286   3.794 -0.1706 -0.0254 -0.7396
 8143SOL    HW332339   1.064   3.294   3.817 -0.4764  0.5687  1.2237
 8143SOL    MW432340   0.996   3.296   3.763  0.0158 -0.0645  0.3185
 8144SOL     OW32341   3.910   3.352   2.653 -0.0241  0.3382 -0.5131
 8144SOL    HW232342   3.919   3.329   2.746 -0.9735 -0.6843 -0.6446
 8144SOL    HW332343   3.818   3.377   2.644 -0.0684 -0.0878 -1.2873
 8144SOL    MW432344   3.899   3.352   2.664 -0.0038 -0.6552  0.5201
 8145SOL     OW32345   0.841   3.664   1.124  0.2879  0.0680 -0.7826
 8145SOL    HW232346   0.891   3.589   1.156 -1.7376 -0.4844  1.2817
 8145SOL    HW332347   0.752   3.632   1.114 -0.1511  1.5865 -2.2498
 8145SOL    MW432348   0.836   3.650   1.127  0.2029 -1.1664 -0.3516
 8146SOL     OW32349   4.132   2.941   1.064 -0.0850 -0.4909 -0.2128
 8146SOL    HW232350   4.189   2.879   1.109  1.3520  1.3225  0.5888
 8146SOL    HW332351   4.170   2.949   0.976  1.5045  1.3044  0.5571
 8146SOL    MW432352   4.145   2.934   1.058  0.5191  0.4123 -0.2472
 8147SOL     OW32353   6.204   2.772   4.817  0.3643  0.3996 -0.7911
 8147SOL    HW232354   6.291   2.795   4.852  0.1253  0.8714 -0.4963
 8147SOL    HW332355   6.174   2.852   4.775 -0.4501  0.6181  0.1780
 8147SOL    MW432356   6.212   2.786   4.816 -0.4383  0.2121  0.3533
 8148SOL     OW32357   5.346   4.250   5.357 -0.6666 -0.3425  0.1810
 8148SOL    HW232358   5.322   4.314   5.424 -1.9546 -1.5543  0.9309
 8148SOL    HW332359   5.442   4.251   5.356 -0.6626  1.2977  0.4467
 8148SOL    MW432360   5.356   4.258   5.366 -0.2009  0.1282  0.2267
 8149SOL     OW32361   3.070   1.004   4.720 -0.2120  0.2532 -0.5625
 8149SOL    HW232362   3.141   1.033   4.662  0.1589  2.0208  0.7051
 8149SOL    HW332363   3.111   0.941   4.779  0.1407  0.7179 -0.3066
 8149SOL    MW432364   3.085   0.999   4.720  0.4376 -0.1136 -0.8449
 8150SOL     OW32365   5.520   3.725   3.180  0.2759  0.6179  0.2870
 8150SOL    HW232366   5.519   3.667   3.257  2.1212  0.2782  0.0997
 8150SOL    HW332367   5.494   3.811   3.214 -1.1712 -0.0014  0.8246
 8150SOL    MW432368   5.516   3.729   3.195 -0.3282 -0.2893 -0.1111
 8151SOL     OW32369   2.567   0.990   0.642 -0.3425 -0.1025  0.6240
 8151SOL    HW232370   2.654   0.951   0.653 -0.2783  0.2161  1.3118
 8151SOL    HW332371   2.510   0.937   0.699 -0.8212 -0.9768 -0.6221
 8151SOL    MW432372   2.571   0.978   0.651 -0.0126 -0.3133 -0.1404
 8152SOL     OW32373   0.115   0.051   3.582  0.4678 -0.1906 -0.4940
 8152SOL    HW232374   0.174   0.006   3.643 -0.3706 -0.7127 -0.0555
 8152SOL    HW332375   0.049  -0.014   3.559 -0.1303  0.4813 -0.7316
 8152SOL    MW432376   0.114   0.037   3.587 -0.2861  0.2298  0.0993
 8153SOL     OW32377   2.941   1.985   0.383 -0.0638 -0.2380 -0.2965
 8153SOL    HW232378   3.033   1.965   0.398 -0.1398 -1.4813 -1.3162
 8153SOL    HW332379   2.937   2.081   0.384  1.5324 -0.1018 -1.7342
 8153SOL    MW432380   2.953   1.995   0.385 -0.3668  0.3793 -0.2621
 8154SOL     OW32381   1.160   0.916   0.696 -0.4711 -0.2441 -0.3746
 8154SOL    HW232382   1.098   0.964   0.642 -0.8726 -0.5501 -0.1913
 8154SOL    HW332383   1.238   0.905   0.641  0.0778  1.5893 -0.0527
 8154SOL    MW432384   1.162   0.921   0.682  0.7951  0.4598  0.2561
 8155SOL     OW32385   4.125   0.010   5.833  0.0064  0.0342  0.2217
 8155SOL    HW232386   4.083   0.078   5.886 -1.9917 -0.6004 -0.4527
 8155SOL    HW332387   4.213   0.044   5.815  0.4267  0.7317  3.0430
 8155SOL    MW432388   4.131   0.023   5.838  0.5673  0.6996  0.5766
 8156SOL     OW32389   2.228   6.273   5.204 -0.0073  0.7594  0.0336
 8156SOL    HW232390   2.200   6.347   5.258 -0.1906  1.3307 -0.8226
 8156SOL    HW332391   2.282   6.312   5.135 -1.2960  0.2990 -1.2864
 8156SOL    MW432392   2.232   6.288   5.202 -0.9594  0.2689 -0.2999
 8157SOL     OW32393   6.376   2.834   6.343 -0.5551  0.3494  0.2459
 8157SOL    HW232394   6.302   2.856   6.286 -0.4924 -1.0950 -0.4462
 8157SOL    HW332395   6.425   2.916   6.351 -2.2475  1.3447  0.7753
 8157SOL    MW432396   6.373   2.848   6.336 -0.2180 -0.5675  0.0699
 8158SOL     OW32397   1.976   5.400   1.450 -0.0740  0.0442  0.2961
 8158SOL    HW232398   1.948   5.471   1.508 -1.0504 -0.0375 -0.0483
 8158SOL    HW332399   2.053   5.363   1.493 -0.3986  0.3962  1.2186
 8158SOL    MW432400   1.982   5.405   1.463 -1.0767  0.0798 -0.0461
 8159SOL     OW32401   2.261   4.782   4.099  0.2712  0.0040  0.0023
 8159SOL    HW232402   2.207   4.832   4.037 -0.4146  1.3984  1.6595
 8159SOL    HW332403   2.224   4.802   4.185  1.4418 -1.5745  0.9245
 8159SOL    MW432404   2.249   4.791   4.102 -0.4505  0.1540 -0.3317
 8160SOL     OW32405   4.240   0.459   2.236  0.2179 -0.7517 -0.9104
 8160SOL    HW232406   4.162   0.473   2.182 -0.4345  1.4648  0.4611
 8160SOL    HW332407   4.207   0.450   2.325  1.4577 -0.9823 -0.4537
 8160SOL    MW432408   4.225   0.460   2.240  0.0541  0.0280  0.4763
 8161SOL     OW32409   0.047   5.090   0.454  0.2113 -0.0520  0.4284
 8161SOL    HW232410   0.073   5.019   0.513 -1.8656 -1.2456 -0.0230
 8161SOL    HW332411   0.041   5.167   0.512 -0.5080 -0.9116  1.5392
 8161SOL    MW432412   0.050   5.091   0.470  0.0106  0.4440  0.1838
 8162SOL     OW32413   1.504   4.133   3.182  0.1112 -0.1667 -0.8238
 8162SOL    HW232414   1.412   4.137   3.206  0.6836  1.1806  1.5507
 8162SOL    HW332415   1.505   4.109   3.090 -2.5775 -0.5407 -0.8113
 8162SOL    MW432416   1.492   4.131   3.173 -0.2443  0.2025 -0.6021
 8163SOL     OW32417   5.160   3.101   0.102 -0.0245 -0.8511 -0.2456
 8163SOL    HW232418   5.230   3.036   0.096  1.2143  0.4143  0.1504
 8163SOL    HW332419   5.203   3.185   0.090 -1.7420 -0.1104 -1.7682
 8163SOL    MW432420   5.175   3.103   0.099 -0.0962 -0.3707 -0.0508
 8164SOL     OW32421   0.787   4.208   5.940 -0.2304  0.1000  0.3151
 8164SOL    HW232422   0.788   4.139   6.007 -0.9125  0.7286  0.9961
 8164SOL    HW332423   0.711   4.188   5.886  0.1946 -0.2839 -0.1466
 8164SOL    MW432424   0.777   4.196   5.942 -0.6065 -0.1706  0.0850
 8165SOL     OW32425   1.404   2.493   2.481  0.7434  0.5835  0.5003
 8165SOL    HW232426   1.381   2.475   2.572 -0.8859  3.0562  0.6688
 8165SOL    HW332427   1.500   2.495   2.480  0.7971 -0.1203  2.0022
 8165SOL    MW432428   1.414   2.491   2.493  0.3732 -0.4972 -0.4835
 8166SOL     OW32429   2.918   5.107   2.625  0.2831  0.2473 -0.3280
 8166SOL    HW232430   2.933   5.152   2.708 -0.2474 -1.6575  0.8627
 8166SOL    HW332431   3.002   5.065   2.605 -0.1120 -0.8653  0.2739
 8166SOL    MW432432   2.931   5.107   2.634 -0.1654 -0.1290  0.4419
 8167SOL     OW32433   0.205   3.723   3.362 -0.3035 -0.9992  0.3937
 8167SOL    HW232434   0.164   3.737   3.448  0.7868  1.3047  0.6089
 8167SOL    HW332435   0.138   3.749   3.299  0.0439  0.6650  0.6792
 8167SOL    MW432436   0.191   3.728   3.365  0.0849 -0.7011  0.1407
 8168SOL     OW32437   4.670   5.433   4.082  0.4341 -0.1233 -0.5028
 8168SOL    HW232438   4.730   5.411   4.153 -0.2848  0.4285  0.2988
 8168SOL    HW332439   4.594   5.377   4.096 -1.0665  2.1145  1.0863
 8168SOL    MW432440   4.668   5.423   4.094  0.3098  0.0768 -0.0151
 8169SOL     OW32441   2.908   6.409   0.251  0.3967 -0.2029 -0.5851
 8169SOL    HW232442   3.003   6.408   0.266  0.0849 -1.7177  1.7770
 8169SOL    HW332443   2.881   6.318   0.259 -1.4544  0.3747  0.3253
 8169SOL    MW432444   2.917   6.397   0.254  0.2018  0.5191 -0.2182
 8170SOL     OW32445   4.410   3.582   4.166 -0.4425 -0.3859  0.1359
 8170SOL    HW232446   4.449   3.515   4.110 -2.0903 -0.5200 -0.9196
 8170SOL    HW332447   4.362   3.533   4.232 -1.7220 -0.2902 -0.6900
 8170SOL    MW432448   4.409   3.567   4.167  0.1634  0.0544 -0.3231
 8171SOL     OW32449   6.127   5.290   2.416 -0.0741 -0.1272 -0.0030
 8171SOL    HW232450   6.159   5.227   2.353 -0.6032  0.5613 -0.9842
 8171SOL    HW332451   6.190   5.363   2.412 -1.3043  0.9182 -1.4252
 8171SOL    MW432452   6.139   5.292   2.407  0.2236 -0.5695  0.0788
 8172SOL     OW32453   1.355   4.789   1.691  0.4511 -0.1169 -0.1841
 8172SOL    HW232454   1.315   4.792   1.778 -0.0582  0.8038 -0.4339
 8172SOL    HW332455   1.438   4.743   1.704  0.6558  0.5179  0.9093
 8172SOL    MW432456   1.361   4.784   1.704 -0.1203  0.3821 -0.5160
 8173SOL     OW32457   2.687   1.357   4.228 -0.3277 -0.4931 -0.1590
 8173SOL    HW232458   2.745   1.396   4.162  0.5747  1.2975  1.5855
 8173SOL    HW332459   2.599   1.383   4.200  0.0663  0.5549 -0.4952
 8173SOL    MW432460   2.683   1.366   4.215 -0.5582  0.4369 -0.1486
 8174SOL     OW32461   3.773   1.007   3.169  0.0468  0.0977  0.8084
 8174SOL    HW232462   3.806   1.067   3.103  0.2774 -1.8108 -0.9132
 8174SOL    HW332463   3.838   1.011   3.239  2.3982 -1.2010 -1.1263
 8174SOL    MW432464   3.786   1.015   3.170  0.1662 -0.0977  0.5312
 8175SOL     OW32465   4.474   4.206   2.985 -0.1900 -0.2671 -0.0754
 8175SOL    HW232466   4.521   4.182   2.905 -0.0531  1.7995 -0.6722
 8175SOL    HW332467   4.439   4.293   2.967  0.0528  0.3668  2.2034
 8175SOL    MW432468   4.476   4.214   2.972  0.7178 -1.0795  0.5887
 8176SOL     OW32469   3.572   5.529   1.128  0.0318  0.0162 -0.2625
 8176SOL    HW232470   3.554   5.545   1.036  0.0203  1.1142 -0.0747
 8176SOL    HW332471   3.513   5.588   1.175 -1.1579 -1.6869  0.5063
 8176SOL    MW432472   3.562   5.539   1.122  0.4458 -0.4677  0.0462
 8177SOL     OW32473   0.448   0.051   1.879  0.1994 -0.4390 -0.5590
 8177SOL    HW232474   0.531   0.092   1.854  0.9879 -0.7339  1.3948
 8177SOL    HW332475   0.384   0.122   1.875  1.3250  0.8419  1.6878
 8177SOL    MW432476   0.451   0.066   1.875  0.4325  0.6703 -0.0381
 8178SOL     OW32477   1.209   1.999   4.597  0.2807 -0.3899  0.3137
 8178SOL    HW232478   1.303   1.983   4.598 -0.0446 -3.1288 -1.9571
 8178SOL    HW332479   1.201   2.088   4.563  2.0201  0.2055  1.3289
 8178SOL    MW432480   1.220   2.009   4.593 -0.0827  0.8787 -0.8310
 8179SOL     OW32481   4.893   4.931   2.774  0.4647 -0.9149  0.0164
 8179SOL    HW232482   4.982   4.895   2.772  0.3949 -1.1104  0.3362
 8179SOL    HW332483   4.870   4.932   2.867  1.5461  2.6348  0.3999
 8179SOL    MW432484   4.902   4.926   2.786  0.4557 -0.2181  0.2048
 8180SOL     OW32485   1.666   1.203   1.843 -0.4801  0.0175 -0.7557
 8180SOL    HW232486   1.653   1.176   1.752 -1.4531  0.4528 -0.7536
 8180SOL    HW332487   1.759   1.226   1.847  0.2535 -2.6227 -0.9226
 8180SOL    MW432488   1.677   1.202   1.831  0.0490  0.4925  0.1660
 8181SOL     OW32489   5.643   4.840   4.873  0.2122 -0.9751  0.7801
 8181SOL    HW232490   5.630   4.779   4.800  0.7262 -2.8145  2.1560
 8181SOL    HW332491   5.558   4.846   4.916  0.2524 -0.9936  0.8616
 8181SOL    MW432492   5.630   4.833   4.869  0.5541  0.8154  0.0880
 8182SOL     OW32493   5.517   5.218   5.567 -0.3409 -0.0960  0.1491
 8182SOL    HW232494   5.466   5.141   5.542  0.4868 -0.2067 -1.2896
 8182SOL    HW332495   5.602   5.183   5.593 -0.3235  0.2585  0.5885
 8182SOL    MW432496   5.522   5.203   5.567  0.1079 -0.3695 -0.2588
 8183SOL     OW32497   5.885   5.038   0.536  0.5260  0.2643 -0.8479
 8183SOL    HW232498   5.939   4.960   0.553 -0.2574 -0.4984 -1.7023
 8183SOL    HW332499   5.938   5.111   0.567  1.6528 -0.5359 -0.8010
 8183SOL    MW432500   5.899   5.037   0.542  0.6857 -0.4607  0.1046
 8184SOL     OW32501   2.363   4.527   1.531  0.4102  0.0301 -0.2449
 8184SOL    HW232502   2.363   4.619   1.556 -0.6807  0.0393 -0.2291
 8184SOL    HW332503   2.341   4.527   1.437 -0.7960 -0.2482  0.0124
 8184SOL    MW432504   2.360   4.539   1.522 -0.1509 -0.1140  0.3302
 8185SOL     OW32505   1.777   1.610   5.260  0.3969 -0.1666  0.1739
 8185SOL    HW232506   1.693   1.564   5.257  0.4254 -0.1947 -0.2032
 8185SOL    HW332507   1.813   1.589   5.347 -0.4750  0.7310  0.7775
 8185SOL    MW432508   1.771   1.601   5.271  0.0800  0.3365 -0.7414
 8186SOL     OW32509   4.336   2.141   3.913  0.5930 -0.0220  0.4705
 8186SOL    HW232510   4.311   2.222   3.869  2.5238 -0.0140 -0.7346
 8186SOL    HW332511   4.416   2.163   3.961 -1.0665 -0.2261  3.5216
 8186SOL    MW432512   4.344   2.154   3.913  0.4040 -0.9081 -0.1559
 8187SOL     OW32513   0.795   3.388   0.880  0.1982  1.1296  0.6104
 8187SOL    HW232514   0.725   3.445   0.911 -0.8210  1.1742 -1.5688
 8187SOL    HW332515   0.771   3.369   0.789  2.2982 -0.0088  0.2445
 8187SOL    MW432516   0.782   3.393   0.872 -0.2238  0.0613 -0.0806
 8188SOL     OW32517   2.348   0.312   1.174  0.1597 -0.0568 -0.2213
 8188SOL    HW232518   2.352   0.256   1.096  0.1850 -1.4094  0.7337
 8188SOL    HW332519   2.381   0.397   1.143  0.8119 -0.7463 -1.5229
 8188SOL    MW432520   2.353   0.316   1.159 -0.1154 -0.3607 -0.4067
 8189SOL     OW32521   1.893   0.774   5.901  0.3068  0.2327  0.5701
 8189SOL    HW232522   1.885   0.702   5.964  1.9120 -1.5226 -1.0964
 8189SOL    HW332523   1.988   0.787   5.892  0.0878  1.0161 -0.8074
 8189SOL    MW432524   1.905   0.766   5.908  0.1869  0.1540 -0.3174
 8190SOL     OW32525   4.275   1.632   5.943  0.0445  0.0327  0.3576
 8190SOL    HW232526   4.194   1.605   5.899  0.4522 -0.6118 -0.0168
 8190SOL    HW332527   4.284   1.570   6.016  0.1148  0.2056  0.4946
 8190SOL    MW432528   4.265   1.620   5.946 -0.0450  0.2129  0.0472
 8191SOL     OW32529   5.645   4.605   0.798  0.8101  0.0798  0.2580
 8191SOL    HW232530   5.614   4.625   0.709  1.2905 -0.1065  0.0461
 8191SOL    HW332531   5.565   4.595   0.849  0.5176 -0.3950 -0.2831
 8191SOL    MW432532   5.630   4.607   0.793 -0.3228 -0.3937 -0.4487
 8192SOL     OW32533   0.125   5.180   6.018  0.4942  0.3792 -0.0337
 8192SOL    HW232534   0.214   5.210   6.005  0.8393 -0.0971  1.1052
 8192SOL    HW332535   0.134   5.086   6.035 -0.0423  0.6258  1.7721
 8192SOL    MW432536   0.138   5.172   6.018 -0.5793 -0.0775 -0.9564
 8193SOL     OW32537   4.166   5.942   3.914  0.2717  0.2493  0.6835
 8193SOL    HW232538   4.075   5.969   3.926 -0.5771 -1.3973 -1.5096
 8193SOL    HW332539   4.174   5.861   3.964  0.1245 -0.3584 -0.2761
 8193SOL    MW432540   4.155   5.935   3.922 -0.0849 -0.3044 -0.0628
 8194SOL     OW32541   1.212   0.438   1.558  0.1169 -0.0498  0.0027
 8194SOL    HW232542   1.189   0.412   1.647 -0.2122 -0.4835 -0.2081
 8194SOL    HW332543   1.173   0.524   1.547  0.4342  0.1474  0.3877
 8194SOL    MW432544   1.204   0.446   1.569  0.0127 -0.0615 -0.2150
 8195SOL     OW32545   5.420   5.430   2.834  0.0837 -0.2262 -0.4125
 8195SOL    HW232546   5.383   5.480   2.907 -0.8169  0.4187 -1.2753
 8195SOL    HW332547   5.501   5.392   2.869 -0.5493 -0.2949  1.0319
 8195SOL    MW432548   5.426   5.432   2.848 -0.1397  0.9249  0.2661
 8196SOL     OW32549   1.397   2.374   4.913 -0.0825  0.1140 -0.3942
 8196SOL    HW232550   1.462   2.333   4.856 -0.0741 -1.2964  0.5678
 8196SOL    HW332551   1.448   2.421   4.979  0.0013 -1.0903  0.4303
 8196SOL    MW432552   1.412   2.375   4.914 -0.2695  0.0461 -0.1385
 8197SOL     OW32553   1.355   4.931   1.962  0.0519 -0.4189  0.5411
 8197SOL    HW232554   1.323   5.015   1.994  0.4917  0.1362 -0.4186
 8197SOL    HW332555   1.390   4.887   2.040  1.4551  1.0473  0.7829
 8197SOL    MW432556   1.356   4.936   1.977  0.5101  0.2263  0.1251
 8198SOL     OW32557   2.817   3.123   5.529 -0.2736  0.2414 -0.2703
 8198SOL    HW232558   2.825   3.096   5.438  2.4537  2.4023 -0.7859
 8198SOL    HW332559   2.866   3.057   5.578 -0.0452  0.1568 -0.6070
 8198SOL    MW432560   2.824   3.111   5.524 -0.9895 -0.0592 -0.3379
 8199SOL     OW32561   1.289   2.266   2.312  0.1848  0.5382 -0.7737
 8199SOL    HW232562   1.219   2.235   2.369 -0.4426 -0.0086 -1.8204
 8199SOL    HW332563   1.341   2.324   2.368  1.3529 -2.2226  1.2351
 8199SOL    MW432564   1.287   2.270   2.327 -0.5990 -0.4068 -0.1143
 8200SOL     OW32565   5.590   2.841   5.304  0.1945  0.1845  0.4494
 8200SOL    HW232566   5.516   2.841   5.365 -0.4831  0.2075 -0.3565
 8200SOL    HW332567   5.587   2.754   5.264  1.2366 -0.1946  1.1405
 8200SOL    MW432568   5.579   2.829   5.307  0.8399  0.0573  0.0335
 8201SOL     OW32569   6.209   3.020   2.076  0.0564 -0.1381 -0.1316
 8201SOL    HW232570   6.142   2.954   2.095  0.0695  0.2892  1.5683
 8201SOL    HW332571   6.280   2.999   2.137  0.1177  1.3391  0.3289
 8201SOL    MW432572   6.210   3.008   2.086  0.4345  0.7252 -0.4284
 8202SOL     OW32573   1.656   3.502   3.581 -0.1899 -0.3817 -0.1041
 8202SOL    HW232574   1.661   3.459   3.496  1.3714  2.2316 -1.4344
 8202SOL    HW332575   1.720   3.456   3.635 -0.1308 -1.1095 -0.7681
 8202SOL    MW432576   1.665   3.490   3.577  0.2425 -0.0678 -0.3265
 8203SOL     OW32577   0.885   5.208   4.018 -0.2987  0.5847  0.0768
 8203SOL    HW232578   0.919   5.292   4.048  0.7806  0.5173 -0.8961
 8203SOL    HW332579   0.819   5.232   3.953 -0.7886  0.6840  0.6006
 8203SOL    MW432580   0.880   5.222   4.013  0.2116 -0.0878 -0.1614
 8204SOL     OW32581   4.695   5.573   2.164  0.0956  0.0684 -0.1915
 8204SOL    HW232582   4.674   5.590   2.256 -0.0276  0.7254 -0.3310
 8204SOL    HW332583   4.648   5.492   2.143  0.9885 -0.6771  0.6118
 8204SOL    MW432584   4.686   5.565   2.173  0.4943  0.0256  0.8195
 8205SOL     OW32585   4.020   3.477   1.408 -0.4365  0.0135 -0.2912
 8205SOL    HW232586   4.073   3.508   1.481 -1.8292  0.2001  0.6802
 8205SOL    HW332587   3.945   3.537   1.406 -0.6131 -0.2279 -1.6323
 8205SOL    MW432588   4.017   3.489   1.417 -0.1624 -0.0730 -0.1844
 8206SOL     OW32589   5.304   0.805   4.235 -0.2589 -0.2280  0.1282
 8206SOL    HW232590   5.247   0.821   4.310  0.3536 -1.7251  0.9650
 8206SOL    HW332591   5.364   0.736   4.265  1.2466  0.4846 -1.0983
 8206SOL    MW432592   5.304   0.798   4.249  0.1225 -0.0239 -0.2775
 8207SOL     OW32593   4.600   5.137   0.840  0.0898 -0.3656  0.0846
 8207SOL    HW232594   4.624   5.153   0.931 -1.0246  0.2085  0.2928
 8207SOL    HW332595   4.645   5.205   0.791  0.4564 -0.4961  0.2373
 8207SOL    MW432596   4.609   5.148   0.845 -0.2475 -0.2472 -0.1895
 8208SOL     OW32597   4.821   6.349   4.293  0.0402  0.0885  0.3777
 8208SOL    HW232598   4.903   6.326   4.337  0.4700  0.9226  0.0247
 8208SOL    HW332599   4.833   6.439   4.265 -1.3052  0.4757  0.9975
 8208SOL    MW432600   4.833   6.358   4.295  0.0536  0.1006  0.0320
 8209SOL     OW32601   4.755   6.366   3.895  0.3757  0.4854 -0.3016
 8209SOL    HW232602   4.671   6.411   3.898  0.6423  0.9695  0.0204
 8209SOL    HW332603   4.747   6.296   3.960  0.7017  1.3913  0.7358
 8209SOL    MW432604   4.743   6.363   3.904  0.4095  0.4636  0.3250
 8210SOL     OW32605   2.601   2.415   2.398  0.1117 -0.1279  0.0329
 8210SOL    HW232606   2.585   2.335   2.348 -0.1201  1.0116 -1.8132
 8210SOL    HW332607   2.617   2.384   2.487 -1.0413 -2.1437 -0.3863
 8210SOL    MW432608   2.601   2.400   2.403 -0.9093 -0.2482 -0.7071
 8211SOL     OW32609   2.614   4.147   5.600  0.5568 -0.2754 -1.5986
 8211SOL    HW232610   2.658   4.224   5.636 -2.1286  0.2589  0.9232
 8211SOL    HW332611   2.628   4.079   5.666 -0.6891 -0.6568 -1.7102
 8211SOL    MW432612   2.622   4.148   5.614  0.3503 -0.3622  0.2994
 8212SOL     OW32613   0.971   2.945   5.036  0.1636 -0.2698  0.1189
 8212SOL    HW232614   0.994   2.887   4.963  2.2082  0.8213 -0.1666
 8212SOL    HW332615   0.886   2.982   5.011 -0.1876 -1.5560 -0.6676
 8212SOL    MW432616   0.963   2.942   5.023 -0.0044  0.7197 -0.1947
 8213SOL     OW32617   2.758   5.687   1.570 -0.6171 -0.3827  0.0673
 8213SOL    HW232618   2.723   5.611   1.617 -0.3190 -1.3612 -1.2330
 8213SOL    HW332619   2.827   5.720   1.627  0.3531 -2.0882 -0.0250
 8213SOL    MW432620   2.762   5.681   1.584  0.0934 -0.1580 -0.2221
 8214SOL     OW32621   2.582   0.497   0.537 -0.4754  0.3662 -0.4956
 8214SOL    HW232622   2.541   0.580   0.563 -1.3662 -0.2551  0.1544
 8214SOL    HW332623   2.627   0.517   0.455 -1.2364  1.3332 -0.6927
 8214SOL    MW432624   2.582   0.511   0.529 -0.0980 -0.8461 -0.0893
 8215SOL     OW32625   2.679   5.507   2.696 -0.1436  0.1060 -0.1520
 8215SOL    HW232626   2.654   5.526   2.605  0.8444  1.6937 -0.1421
 8215SOL    HW332627   2.617   5.557   2.749  1.0915  1.6313 -0.0638
 8215SOL    MW432628   2.668   5.516   2.691 -0.9723  0.3517  0.6756
 8216SOL     OW32629   2.693   0.700   3.884 -0.5118  0.4767  0.3719
 8216SOL    HW232630   2.598   0.711   3.876 -0.5453  1.3619  1.5856
 8216SOL    HW332631   2.726   0.789   3.897  0.4611  0.1482  0.2551
 8216SOL    MW432632   2.685   0.713   3.885 -0.2510 -0.8732 -0.2806
 8217SOL     OW32633   6.071   5.496   5.580 -0.4087  0.1438  0.5952
 8217SOL    HW232634   5.987   5.504   5.625 -0.3396  0.7895  0.6215
 8217SOL    HW332635   6.115   5.579   5.597  0.0961 -0.0587  0.2987
 8217SOL    MW432636   6.066   5.508   5.588  0.7658 -0.1630  0.5187
 8218SOL     OW32637   0.419   5.959   4.010 -0.0591  0.0335 -0.0394
 8218SOL    HW232638   0.370   6.029   4.053  0.3685 -1.4251  3.0761
 8218SOL    HW332639   0.352   5.898   3.979 -0.3552 -0.0339  0.7061
 8218SOL    MW432640   0.404   5.960   4.012  0.2548 -0.6982 -0.1184
 8219SOL     OW32641   5.570   5.589   5.929  0.0875 -0.1599  0.3550
 8219SOL    HW232642   5.571   5.572   5.834 -1.1066  0.1643  0.2655
 8219SOL    HW332643   5.619   5.516   5.967  0.6318 -0.2617 -0.5217
 8219SOL    MW432644   5.577   5.577   5.921 -0.4856 -0.0151  0.2393
 8220SOL     OW32645   1.178   6.254   0.778 -0.0846  1.1054 -0.1940
 8220SOL    HW232646   1.223   6.311   0.840  0.1854  0.1709  0.4811
 8220SOL    HW332647   1.116   6.204   0.830  2.1564 -1.8155 -0.0868
 8220SOL    MW432648   1.176   6.255   0.793  0.4133  0.4117 -0.2606
 8221SOL     OW32649   4.882   4.519   1.874  0.0210 -0.4749 -0.5208
 8221SOL    HW232650   4.922   4.545   1.957  0.5186 -0.5683 -0.7322
 8221SOL    HW332651   4.872   4.425   1.881  0.7915 -0.5892 -0.8821
 8221SOL    MW432652   4.886   4.510   1.886 -0.0231 -0.1554 -0.3928
 8222SOL     OW32653   5.524   4.724   5.631 -0.5158  0.2576 -0.0315
 8222SOL    HW232654   5.618   4.742   5.628 -0.2077 -1.1651 -3.4368
 8222SOL    HW332655   5.509   4.689   5.719  2.4634 -0.9961  0.0987
 8222SOL    MW432656   5.535   4.722   5.642  0.4533  0.4019 -0.0516
 8223SOL     OW32657   2.068   0.953   2.962 -0.2024  0.2587 -0.4696
 8223SOL    HW232658   2.116   0.898   2.900  0.3334 -1.1207  1.1130
 8223SOL    HW332659   1.977   0.949   2.933  0.1374  0.2340 -1.5754
 8223SOL    MW432660   2.063   0.945   2.950  0.2515 -0.0336 -0.4245
 8224SOL     OW32661   5.668   5.140   1.560 -0.1034 -0.2096  0.0806
 8224SOL    HW232662   5.725   5.067   1.584 -0.8587 -0.8473 -0.0172
 8224SOL    HW332663   5.660   5.191   1.640  2.3532  1.1506 -0.4374
 8224SOL    MW432664   5.675   5.137   1.574 -0.1527  1.0636  0.1345
 8225SOL     OW32665   5.202   0.747   5.721 -0.0824 -0.6222 -0.3411
 8225SOL    HW232666   5.256   0.787   5.653  0.6414  0.7133  0.9584
 8225SOL    HW332667   5.251   0.760   5.802 -1.6036 -0.7986  0.6610
 8225SOL    MW432668   5.216   0.754   5.722 -0.2201 -0.0062 -0.1582
 8226SOL     OW32669   2.866   0.337   0.621  0.2259 -0.1596  0.3911
 8226SOL    HW232670   2.831   0.251   0.599 -0.2020 -0.0541  0.6507
 8226SOL    HW332671   2.821   0.398   0.562 -0.8759  0.1148  1.4769
 8226SOL    MW432672   2.855   0.334   0.610  0.8722  0.0342  0.1023
 8227SOL     OW32673   0.442   5.250   6.016 -0.3309  0.0878 -0.0088
 8227SOL    HW232674   0.448   5.160   6.048 -1.6143 -0.0922 -0.2252
 8227SOL    HW332675   0.450   5.304   6.095  1.6121 -0.1438 -0.0092
 8227SOL    MW432676   0.444   5.245   6.031 -0.3349  0.8643  0.2193
 8228SOL     OW32677   2.262   1.443   0.975 -0.2718 -0.6561 -0.1313
 8228SOL    HW232678   2.276   1.481   0.888 -0.5975  0.5793  0.3274
 8228SOL    HW332679   2.345   1.455   1.020 -0.8053  0.9447  0.5082
 8228SOL    MW432680   2.275   1.450   0.969 -0.0879  0.2945 -0.0256
 8229SOL     OW32681   3.569   3.175   1.275  0.4907 -0.0353  0.5466
 8229SOL    HW232682   3.564   3.090   1.230  2.6310 -0.0972  0.2762
 8229SOL    HW332683   3.655   3.173   1.319  0.3405  1.7687  1.0079
 8229SOL    MW432684   3.580   3.163   1.275  0.9125 -0.0928  0.0678
 8230SOL     OW32685   3.695   6.169   1.536 -0.4119 -0.2847  0.0690
 8230SOL    HW232686   3.774   6.121   1.511 -0.5253 -0.9929  1.0155
 8230SOL    HW332687   3.629   6.139   1.473  0.3230  1.2450 -1.5314
 8230SOL    MW432688   3.696   6.159   1.524  0.8591 -0.7847 -0.2643
 8231SOL     OW32689   0.650   2.779   4.296  0.1467  0.2176 -0.0617
 8231SOL    HW232690   0.592   2.851   4.271  1.2138  0.7467 -1.1324
 8231SOL    HW332691   0.706   2.816   4.364 -0.2476 -0.0594  0.4229
 8231SOL    MW432692   0.650   2.793   4.302 -0.7818 -0.6275 -0.0229
 8232SOL     OW32693   1.926   3.014   5.953 -0.0566  0.3786 -0.0714
 8232SOL    HW232694   1.949   2.922   5.965 -1.5003 -0.2148 -1.4667
 8232SOL    HW332695   1.941   3.031   5.860  0.3293  1.6166  0.1925
 8232SOL    MW432696   1.931   3.004   5.942 -0.5347  0.9135 -0.0069
 8233SOL     OW32697   2.746   3.871   3.474 -0.4083  0.2587  0.0478
 8233SOL    HW232698   2.718   3.962   3.467 -1.1053  0.0516  0.0006
 8233SOL    HW332699   2.731   3.848   3.566  3.3038  1.2670  1.0653
 8233SOL    MW432700   2.740   3.880   3.485  0.3332  0.2918  0.4941
 8234SOL     OW32701   2.285   3.922   6.192  0.0876  0.0561 -0.4277
 8234SOL    HW232702   2.193   3.895   6.190  0.3293 -0.8013 -0.6261
 8234SOL    HW332703   2.334   3.840   6.196  0.8337  0.5249  0.6060
 8234SOL    MW432704   2.279   3.908   6.192  0.4931  0.0635 -0.2387
 8235SOL     OW32705   5.147   1.019   1.743  0.8150  0.1076  0.2844
 8235SOL    HW232706   5.154   0.925   1.728 -1.2321 -0.6492  3.0170
 8235SOL    HW332707   5.071   1.046   1.692 -0.6619 -0.5333  2.0288
 8235SOL    MW432708   5.138   1.010   1.735  0.0565  0.2535 -0.0265
 8236SOL     OW32709   3.965   1.222   1.336  0.5037  0.0474 -0.2519
 8236SOL    HW232710   3.918   1.292   1.382 -4.4547 -2.1632 -1.2961
 8236SOL    HW332711   3.953   1.242   1.243  0.5127 -1.2702 -0.5553
 8236SOL    MW432712   3.957   1.234   1.330  0.2142  0.0197  0.0883
 8237SOL     OW32713   3.170   4.367   2.237  0.2137 -0.1772  0.2520
 8237SOL    HW232714   3.075   4.375   2.233  0.2508 -0.3281 -1.3429
 8237SOL    HW332715   3.203   4.434   2.178  1.0716 -0.7552  0.0485
 8237SOL    MW432716   3.162   4.377   2.229  0.6386  0.2955 -0.5474
 8238SOL     OW32717   4.052   2.998   4.025  0.2295 -0.0449 -0.1403
 8238SOL    HW232718   3.979   2.961   3.976 -0.6566  0.6012  0.6764
 8238SOL    HW332719   4.017   3.075   4.068  0.5155 -1.4166  2.8028
 8238SOL    MW432720   4.038   3.003   4.024  0.3151  0.1597  0.2353
 8239SOL     OW32721   3.461   6.061   6.417  0.1274  0.4412 -0.0936
 8239SOL    HW232722   3.419   5.983   6.454  0.1995  0.2236 -0.4651
 8239SOL    HW332723   3.517   6.094   6.488  0.4259 -0.0921 -0.0746
 8239SOL    MW432724   3.463   6.055   6.431 -0.5012  0.1410 -0.4052
 8240SOL     OW32725   4.129   3.911   1.527  0.0152 -0.3039  0.1297
 8240SOL    HW232726   4.197   3.892   1.462  0.5351 -0.9232  0.8321
 8240SOL    HW332727   4.126   4.006   1.532 -0.5269 -0.2267 -1.3048
 8240SOL    MW432728   4.137   3.921   1.519  0.3085 -0.1023 -0.0396
 8241SOL     OW32729   0.839   5.285   2.670 -0.3880  0.5534 -0.0171
 8241SOL    HW232730   0.858   5.290   2.763  0.3893  0.4315 -0.1619
 8241SOL    HW332731   0.849   5.193   2.648  0.0273  0.6692 -0.3349
 8241SOL    MW432732   0.843   5.274   2.679 -0.0917 -0.2935  0.0690
 8242SOL     OW32733   5.445   5.623   2.401 -0.4634  0.5425 -0.4252
 8242SOL    HW232734   5.473   5.558   2.466 -0.3942  2.5910  1.7255
 8242SOL    HW332735   5.372   5.581   2.355 -0.7547 -0.8771  1.2144
 8242SOL    MW432736   5.439   5.609   2.404 -0.3357 -0.1860 -0.5891
 8243SOL     OW32737   3.170   5.848   2.785 -0.0112 -0.6416  0.1941
 8243SOL    HW232738   3.232   5.779   2.810 -1.2020 -1.3724  1.2626
 8243SOL    HW332739   3.167   5.843   2.690  0.9416 -1.1586  0.1782
 8243SOL    MW432740   3.178   5.838   2.776  0.0890  0.4362 -0.5654
 8244SOL     OW32741   2.800   0.249   5.816 -0.9445  0.3867  0.2563
 8244SOL    HW232742   2.799   0.272   5.723  0.6863  1.2039  0.4139
 8244SOL    HW332743   2.751   0.167   5.821  0.0882 -0.3766 -1.5208
 8244SOL    MW432744   2.793   0.241   5.804 -0.3957 -0.1756 -0.1478
 8245SOL     OW32745   3.474   3.103   1.955 -0.0409  0.3473  0.1134
 8245SOL    HW232746   3.532   3.122   1.881  1.6827  1.3204  1.6066
 8245SOL    HW332747   3.534   3.090   2.029 -1.6959 -0.4339  1.3763
 8245SOL    MW432748   3.490   3.104   1.955 -0.0296  0.4580 -0.3709
 8246SOL     OW32749   2.962   0.186   2.492 -0.7431 -0.3784 -0.2957
 8246SOL    HW232750   3.007   0.149   2.417  1.6672  1.4932  0.1184
 8246SOL    HW332751   2.937   0.110   2.545  1.2164 -1.5534 -0.9726
 8246SOL    MW432752   2.964   0.171   2.489  0.3274 -0.4566 -0.0145
 8247SOL     OW32753   4.846   1.992   2.940  0.2988 -0.2395 -0.3403
 8247SOL    HW232754   4.767   1.959   2.982  0.8081 -0.8498  0.1536
 8247SOL    HW332755   4.839   2.088   2.949  0.5182 -0.3630  1.3742
 8247SOL    MW432756   4.834   2.001   2.947  0.0161 -0.7389 -0.3285
 8248SOL     OW32757   2.274   3.497   4.747 -0.2884 -0.2474  0.2326
 8248SOL    HW232758   2.215   3.454   4.809  0.1017  1.1854  1.6751
 8248SOL    HW332759   2.360   3.493   4.789  0.2274 -0.2993 -0.7870
 8248SOL    MW432760   2.278   3.491   4.761  0.0514  0.0054 -0.3128
 8249SOL     OW32761   5.375   2.648   0.630 -0.4559  0.4520  0.1109
 8249SOL    HW232762   5.421   2.570   0.661  0.4527  0.8424 -0.2236
 8249SOL    HW332763   5.422   2.721   0.671 -1.0994  0.8461  0.1687
 8249SOL    MW432764   5.387   2.648   0.640  0.4362 -0.3943 -0.1352
 8250SOL     OW32765   2.813   3.331   5.135  0.0449 -0.0397  0.2528
 8250SOL    HW232766   2.861   3.359   5.057  1.4616  0.0594  1.1306
 8250SOL    HW332767   2.723   3.362   5.120  0.3637  0.2683 -1.1734
 8250SOL    MW432768   2.807   3.339   5.123 -0.6221 -0.0143  0.2924
 8251SOL     OW32769   3.739   3.457   6.337 -0.1801 -0.9138  0.8401
 8251SOL    HW232770   3.827   3.446   6.371 -0.4525 -1.8022  1.2887
 8251SOL    HW332771   3.710   3.542   6.372  0.1604 -1.0393  1.4367
 8251SOL    MW432772   3.747   3.467   6.346 -0.1440  1.0006  0.3702
 8252SOL     OW32773   2.363   0.644   1.896 -0.0788  0.2617  0.3562
 8252SOL    HW232774   2.395   0.640   1.986  1.1006  1.2962  0.0194
 8252SOL    HW332775   2.431   0.692   1.849 -0.4300 -0.6970 -1.2026
 8252SOL    MW432776   2.376   0.650   1.902  0.2357  0.5789  0.1100
 8253SOL     OW32777   6.105   1.359   1.802 -0.2335 -0.0262 -0.3199
 8253SOL    HW232778   6.053   1.437   1.825  0.3170  0.4682 -0.7278
 8253SOL    HW332779   6.041   1.287   1.802 -0.6019  0.2651  0.8967
 8253SOL    MW432780   6.090   1.360   1.805  0.3335 -0.3360 -0.4596
 8254SOL     OW32781   1.547   2.256   0.534 -0.2990  0.0027 -0.4797
 8254SOL    HW232782   1.565   2.321   0.466 -1.2581  0.7268 -0.0769
 8254SOL    HW332783   1.534   2.174   0.487  0.1549  0.2580 -1.0681
 8254SOL    MW432784   1.548   2.254   0.519 -0.1445  0.5142 -0.0618
 8255SOL     OW32785   0.087   5.415   6.242  0.0512  0.1266 -0.2416
 8255SOL    HW232786   0.009   5.440   6.292  0.3575 -0.7920  0.7541
 8255SOL    HW332787   0.161   5.439   6.299  0.4095 -0.9019 -0.2537
 8255SOL    MW432788   0.087   5.421   6.256  0.2455 -0.1260 -0.2756
 8256SOL     OW32789   2.743   0.823   2.861  0.7933  0.0104 -0.1922
 8256SOL    HW232790   2.741   0.765   2.784 -1.1264  0.2771 -0.3821
 8256SOL    HW332791   2.776   0.906   2.828 -1.1394  0.4893 -1.0485
 8256SOL    MW432792   2.747   0.826   2.847  0.0681 -0.2362  0.2022
 8257SOL     OW32793   2.759   5.456   5.002  0.4133  0.3015 -0.1108
 8257SOL    HW232794   2.854   5.456   4.990  0.5846 -1.7466  0.8408
 8257SOL    HW332795   2.732   5.367   4.979 -0.8555 -0.0359  2.3773
 8257SOL    MW432796   2.768   5.444   4.997  0.3178  0.2146 -0.1380
 8258SOL     OW32797   1.478   5.743   0.181 -0.3329  0.1405  0.1533
 8258SOL    HW232798   1.550   5.695   0.139 -0.2080 -0.3472  0.9027
 8258SOL    HW332799   1.402   5.686   0.169 -0.6358  0.7031 -0.7288
 8258SOL    MW432800   1.477   5.729   0.174 -0.0356 -0.8161 -0.0474
 8259SOL     OW32801   1.451   0.993   3.648  0.3064 -0.2999  0.2704
 8259SOL    HW232802   1.540   0.984   3.680  0.4271  1.1413  0.3960
 8259SOL    HW332803   1.432   1.087   3.655 -0.8249 -0.4256 -0.7944
 8259SOL    MW432804   1.460   1.004   3.653 -0.0315 -0.8998 -0.4146
 8260SOL     OW32805   3.371   0.353   5.236  0.2119  0.3190 -0.5488
 8260SOL    HW232806   3.442   0.361   5.172  0.7588  2.4526  0.2363
 8260SOL    HW332807   3.400   0.282   5.294  0.1089 -1.0529 -2.0983
 8260SOL    MW432808   3.384   0.344   5.235  0.2978 -0.2746  0.1778
 8261SOL     OW32809   2.112   5.379   5.775 -0.0863 -0.2437 -0.1858
 8261SOL    HW232810   2.131   5.451   5.835  0.8259  0.2777 -1.0610
 8261SOL    HW332811   2.049   5.325   5.821 -0.8729  1.1689  0.4621
 8261SOL    MW432812   2.106   5.382   5.789 -0.0026  0.3236  0.1680
 8262SOL     OW32813   0.954   0.556   4.814 -0.0368  0.0382  0.2335
 8262SOL    HW232814   0.979   0.492   4.747  0.6001 -0.5620  1.0147
 8262SOL    HW332815   0.941   0.637   4.766  0.3239 -0.4026 -0.6336
 8262SOL    MW432816   0.956   0.558   4.799  0.2041 -0.1889 -0.3135
 8263SOL     OW32817   5.155   0.245   5.473 -0.2149  0.1857  0.6535
 8263SOL    HW232818   5.130   0.178   5.409  0.0971  0.8641 -0.1806
 8263SOL    HW332819   5.249   0.233   5.485 -0.3793 -0.3849  1.5244
 8263SOL    MW432820   5.164   0.235   5.466 -0.8445 -0.0612  0.1581
 8264SOL     OW32821   4.721   5.263   3.524 -0.1627  0.5000  0.1700
 8264SOL    HW232822   4.812   5.276   3.499 -0.0654  0.6967  0.6240
 8264SOL    HW332823   4.722   5.189   3.584 -0.4437 -0.2166 -0.6835
 8264SOL    MW432824   4.733   5.255   3.528 -0.2759  0.0450  0.0251
 8265SOL     OW32825   5.850   2.085   2.366  0.6801  0.4336 -0.3324
 8265SOL    HW232826   5.854   2.135   2.447 -0.4866 -0.7768  0.5183
 8265SOL    HW332827   5.931   2.034   2.365 -0.4158 -1.5209  1.4781
 8265SOL    MW432828   5.861   2.085   2.377  0.6814  0.0484 -0.0644
 8266SOL     OW32829   2.506   0.623   2.127  0.5091 -0.1025 -0.4390
 8266SOL    HW232830   2.513   0.705   2.176 -0.5988  0.4884 -1.2353
 8266SOL    HW332831   2.585   0.621   2.073  0.2747  0.7332 -0.8284
 8266SOL    MW432832   2.517   0.634   2.127 -0.0176 -0.4026  0.1194
 8267SOL     OW32833   1.408   4.918   4.346  0.0835 -0.2386  0.1320
 8267SOL    HW232834   1.479   4.864   4.379  0.5685  0.3346  0.0344
 8267SOL    HW332835   1.342   4.916   4.416  0.4623 -0.2474  0.4923
 8267SOL    MW432836   1.408   4.910   4.360  0.3224 -0.3925 -0.2361
 8268SOL     OW32837   5.486   5.210   0.046 -0.3303 -0.7320  0.0854
 8268SOL    HW232838   5.551   5.211  -0.024 -0.0200 -0.2105  0.3795
 8268SOL    HW332839   5.534   5.235   0.124 -0.8524 -0.4810  0.3323
 8268SOL    MW432840   5.501   5.213   0.047 -0.9203 -0.3037  0.0021
 8269SOL     OW32841   3.966   4.327   0.219  0.3378 -0.2961  0.4868
 8269SOL    HW232842   4.059   4.329   0.239  0.0321  0.4492  1.9082
 8269SOL    HW332843   3.922   4.341   0.303 -1.1331 -3.0932  0.3263
 8269SOL    MW432844   3.972   4.329   0.232 -0.8871 -0.2296  0.7194
 8270SOL     OW32845   2.393   1.462   5.501  0.0266  0.3445  0.1958
 8270SOL    HW232846   2.328   1.447   5.571 -0.0633 -1.1768 -0.1837
 8270SOL    HW332847   2.477   1.446   5.543 -0.0752 -1.5389 -0.2383
 8270SOL    MW432848   2.395   1.458   5.516  0.3622 -0.8922  0.5046
 8271SOL     OW32849   2.295   3.849   0.548  0.2273  0.3054 -0.0879
 8271SOL    HW232850   2.352   3.773   0.557  0.2858  0.5336  2.0184
 8271SOL    HW332851   2.312   3.882   0.460  1.5743 -1.0338 -0.3638
 8271SOL    MW432852   2.305   3.844   0.538 -0.5782  0.2334  0.5343
 8272SOL     OW32853   2.242   1.030   3.869 -0.1161  0.0167 -0.0370
 8272SOL    HW232854   2.180   0.978   3.818 -0.7674 -0.5451  1.2784
 8272SOL    HW332855   2.235   0.996   3.958  0.9076  1.0363  0.4694
 8272SOL    MW432856   2.233   1.019   3.874 -0.3609  0.1402 -0.3397
 8273SOL     OW32857   2.201   3.807   5.780  0.2899  0.0774 -0.4551
 8273SOL    HW232858   2.245   3.725   5.801 -0.6881 -0.4859 -0.5740
 8273SOL    HW332859   2.272   3.865   5.750  1.3142  0.0006  1.6624
 8273SOL    MW432860   2.216   3.804   5.779 -0.4669 -0.4772  0.2049
 8274SOL     OW32861   2.926   0.038   4.255 -0.4283  0.4378  0.7177
 8274SOL    HW232862   3.002   0.085   4.222 -0.0652 -1.3511 -1.1750
 8274SOL    HW332863   2.960  -0.046   4.283 -1.9028 -1.3873 -2.4455
 8274SOL    MW432864   2.940   0.033   4.254  0.7666  0.2559 -0.1625
 8275SOL     OW32865   0.173   0.719   2.959  0.0748 -0.0788 -0.3712
 8275SOL    HW232866   0.143   0.659   3.027  2.5358 -1.0241 -0.0107
 8275SOL    HW332867   0.236   0.776   3.004  0.5095  0.3701 -1.5159
 8275SOL    MW432868   0.177   0.719   2.974 -0.1041  1.2280  0.8108
 8276SOL     OW32869   1.619   6.199   0.201 -0.2928  0.0752  0.5786
 8276SOL    HW232870   1.637   6.222   0.110 -0.4834  0.7009  0.6944
 8276SOL    HW332871   1.676   6.124   0.219 -0.7253 -0.4725 -0.2528
 8276SOL    MW432872   1.629   6.192   0.191 -0.0279 -0.5267 -0.0337
 8277SOL     OW32873   2.647   0.917   5.393 -0.4936 -0.0203  0.3441
 8277SOL    HW232874   2.578   0.957   5.340 -0.6329  0.1826  0.6743
 8277SOL    HW332875   2.614   0.924   5.483  0.8031  1.8356  0.7278
 8277SOL    MW432876   2.633   0.923   5.398 -0.0407  0.0450  0.2600
 8278SOL     OW32877   5.356   0.044   4.116  0.0103 -0.1390 -0.2335
 8278SOL    HW232878   5.438   0.094   4.119  0.5409 -1.0038  2.2325
 8278SOL    HW332879   5.370  -0.021   4.048  0.9718  0.3875 -0.5510
 8278SOL    MW432880   5.369   0.042   4.108  0.3180  0.5032 -0.4538
 8279SOL     OW32881   5.179   1.778   0.410  0.4153  0.1697  0.4529
 8279SOL    HW232882   5.163   1.794   0.317  2.4860 -1.6471 -0.2949
 8279SOL    HW332883   5.235   1.852   0.437  1.0746 -0.0872 -0.1685
 8279SOL    MW432884   5.185   1.790   0.401 -0.6275  0.3264  0.0033
 8280SOL     OW32885   1.045   6.242   3.273  0.5164  0.1762 -0.1635
 8280SOL    HW232886   1.029   6.193   3.353 -1.5491 -0.6165 -0.9941
 8280SOL    HW332887   1.122   6.296   3.293  2.6703 -2.9849  0.9705
 8280SOL    MW432888   1.053   6.243   3.286  0.7266 -1.0414  0.2049
 8281SOL     OW32889   4.858   2.192   5.389 -0.2955  0.6490 -0.2176
 8281SOL    HW232890   4.866   2.122   5.324  0.5937 -0.6997  1.2652
 8281SOL    HW332891   4.876   2.273   5.340  0.0919 -0.2819 -1.6801
 8281SOL    MW432892   4.861   2.194   5.374  0.3617 -0.0607  0.5352
 8282SOL     OW32893   3.925   3.099   2.308  0.1761  0.0417 -0.1113
 8282SOL    HW232894   3.972   3.017   2.292 -0.9479 -0.6578  0.0998
 8282SOL    HW332895   3.957   3.158   2.239 -0.4974 -1.2070 -1.5488
 8282SOL    MW432896   3.936   3.096   2.297 -0.5154  0.5842 -0.2550
 8283SOL     OW32897   5.052   4.322   2.854 -0.0153  0.4632  0.0872
 8283SOL    HW232898   5.080   4.311   2.763  1.3871  0.8221  0.4488
 8283SOL    HW332899   5.006   4.241   2.875  0.1242  0.1503 -0.7789
 8283SOL    MW432900   5.050   4.310   2.844 -0.1639  0.4954 -0.0846
 8284SOL     OW32901   0.637   1.332   1.495 -0.3485 -0.1390 -0.0458
 8284SOL    HW232902   0.583   1.262   1.533  0.1300 -0.7097 -0.4011
 8284SOL    HW332903   0.574   1.397   1.466 -0.7230  0.7257  2.4455
 8284SOL    MW432904   0.621   1.331   1.496  0.0439 -0.1913  0.5457
 8285SOL     OW32905   4.135   2.158   2.152  0.2601 -0.4066  0.3792
 8285SOL    HW232906   4.173   2.108   2.080  1.3898  1.6571 -0.5444
 8285SOL    HW332907   4.188   2.237   2.157 -2.6661  1.7301  0.3648
 8285SOL    MW432908   4.147   2.161   2.143 -0.2258  0.0666  0.1151
 8286SOL     OW32909   6.364   2.492   3.273  0.4732 -0.1579 -0.3148
 8286SOL    HW232910   6.369   2.585   3.294 -0.3226 -0.2252  0.2294
 8286SOL    HW332911   6.454   2.468   3.249  1.0578  0.3633  1.2330
 8286SOL    MW432912   6.377   2.501   3.273  0.8071  0.0916 -0.3061
 8287SOL     OW32913   3.146   5.378   0.179 -0.3549 -0.2170 -0.4808
 8287SOL    HW232914   3.178   5.288   0.170 -0.7563 -0.2869 -1.2936
 8287SOL    HW332915   3.179   5.407   0.264 -0.3593 -1.1883 -0.1371
 8287SOL    MW432916   3.154   5.370   0.189  0.3918  0.1056 -0.2970
 8288SOL     OW32917   4.561   3.587   1.077  0.5449 -0.5854 -0.5443
 8288SOL    HW232918   4.550   3.624   1.165 -2.2317  0.4695 -1.2353
 8288SOL    HW332919   4.591   3.497   1.092 -1.1964 -0.8925  1.5737
 8288SOL    MW432920   4.563   3.580   1.091 -0.0330 -0.0334 -0.4774
 8289SOL     OW32921   2.979   5.172   3.997 -0.1267 -0.2866  0.0231
 8289SOL    HW232922   3.032   5.210   3.926 -0.1824 -0.6136 -0.1978
 8289SOL    HW332923   2.990   5.077   3.986  0.2402 -0.3291  0.7437
 8289SOL    MW432924   2.987   5.164   3.986  0.6312 -0.1542  0.6467
 8290SOL     OW32925   4.611   0.486   5.388  0.5408 -0.0882  0.1719
 8290SOL    HW232926   4.520   0.489   5.418  0.0914  0.1500 -1.1709
 8290SOL    HW332927   4.638   0.578   5.384  0.7617 -0.1453  0.3270
 8290SOL    MW432928   4.603   0.498   5.392  0.1963 -0.3936 -0.3249
 8291SOL     OW32929   6.253   3.571   4.647 -0.0020 -0.0358 -0.5649
 8291SOL    HW232930   6.192   3.513   4.601 -0.1582 -0.3789  0.0606
 8291SOL    HW332931   6.335   3.521   4.651 -0.8179 -1.3857  2.2475
 8291SOL    MW432932   6.256   3.557   4.641 -0.1263 -0.0965  0.2960
 8292SOL     OW32933   2.390   1.774   0.762  0.2393  0.1567 -0.7657
 8292SOL    HW232934   2.391   1.678   0.758 -0.2148  0.2000 -2.9984
 8292SOL    HW332935   2.297   1.797   0.752  0.4594  0.8381 -1.3619
 8292SOL    MW432936   2.378   1.764   0.760  0.4829  0.3834  0.1909
 8293SOL     OW32937   1.489   0.591   5.360  0.1613 -0.0048 -0.4980
 8293SOL    HW232938   1.442   0.610   5.441  0.3899  0.8752 -0.5707
 8293SOL    HW332939   1.423   0.551   5.303  0.2727 -1.7446  0.5140
 8293SOL    MW432940   1.474   0.588   5.363  0.0125 -0.1413  0.1217
 8294SOL     OW32941   0.760   2.461   6.313 -0.0449  0.0730 -0.3580
 8294SOL    HW232942   0.848   2.427   6.299 -1.2362 -2.9751 -1.2131
 8294SOL    HW332943   0.724   2.469   6.224 -1.6035 -1.7917  0.0350
 8294SOL    MW432944   0.767   2.458   6.299 -0.0998 -0.1712 -0.1847
 8295SOL     OW32945   1.921   1.845   5.855  0.3740 -0.4538 -0.1678
 8295SOL    HW232946   1.927   1.804   5.769  0.8724 -0.8927  0.0751
 8295SOL    HW332947   1.886   1.777   5.912  2.1769 -0.9067  0.4624
 8295SOL    MW432948   1.917   1.831   5.851  0.6678  0.0191  0.1466
 8296SOL     OW32949   1.406   0.936   0.568 -0.0791 -0.0211  0.2158
 8296SOL    HW232950   1.483   0.881   0.561 -0.4879 -0.6608  0.5980
 8296SOL    HW332951   1.434   1.010   0.623  0.9220  1.0201 -1.5985
 8296SOL    MW432952   1.420   0.939   0.574 -0.1492  0.3179 -0.2642
 8297SOL     OW32953   1.899   2.088   1.083 -0.3843 -0.1179 -1.0211
 8297SOL    HW232954   1.829   2.031   1.051  0.4517 -0.6488 -1.9654
 8297SOL    HW332955   1.912   2.152   1.012  0.2577 -0.1855 -0.9712
 8297SOL    MW432956   1.891   2.089   1.069  0.6965  0.0739 -0.0944
 8298SOL     OW32957   0.201   4.260   2.310  0.2860  0.6840 -0.1786
 8298SOL    HW232958   0.244   4.222   2.233  0.7153  0.0021  0.3801
 8298SOL    HW332959   0.233   4.350   2.314  2.3523 -0.0363  0.6960
 8298SOL    MW432960   0.211   4.267   2.300  0.4338 -0.6333 -0.6925
 8299SOL     OW32961   5.642   3.913   1.377 -0.3655  0.3111  0.2760
 8299SOL    HW232962   5.590   3.833   1.373 -2.4973  1.5691  0.6865
 8299SOL    HW332963   5.653   3.940   1.285  1.9814 -1.3379 -0.0046
 8299SOL    MW432964   5.637   3.906   1.364 -0.6779 -0.1189 -0.2096
 8300SOL     OW32965   5.197   6.187   3.153  0.1221  0.4004 -0.1653
 8300SOL    HW232966   5.129   6.131   3.115  0.7492 -1.4845  1.3509
 8300SOL    HW332967   5.199   6.164   3.245  0.6659  2.7320  0.4692
 8300SOL    MW432968   5.189   6.176   3.160 -0.3755 -0.1124  0.1873
 8301SOL     OW32969   2.960   6.056   1.438 -0.3313 -0.2929  0.4557
 8301SOL    HW232970   2.984   6.141   1.475 -0.9593  0.2484 -0.3590
 8301SOL    HW332971   2.867   6.065   1.415 -0.1593 -0.8885 -0.5102
 8301SOL    MW432972   2.951   6.068   1.440 -0.1551 -0.5108  0.4137
 8302SOL     OW32973   5.838   3.337   5.179 -0.2772 -0.5808  0.4934
 8302SOL    HW232974   5.839   3.394   5.256 -2.7226  1.2309 -0.6774
 8302SOL    HW332975   5.790   3.259   5.207 -0.6215 -0.1960  0.9940
 8302SOL    MW432976   5.832   3.334   5.193  0.1492  0.0730  0.5534
 8303SOL     OW32977   0.555   5.714   5.522 -0.2281  0.1101  0.3562
 8303SOL    HW232978   0.529   5.762   5.600 -1.9994 -0.6260  0.2632
 8303SOL    HW332979   0.479   5.660   5.500  1.0241 -1.3698 -0.5902
 8303SOL    MW432980   0.541   5.713   5.529  0.6036  0.5776 -0.1442
 8304SOL     OW32981   3.937   2.197   0.253  0.1772  0.2316  0.1513
 8304SOL    HW232982   3.896   2.227   0.334 -1.7995 -0.6797 -0.4556
 8304SOL    HW332983   3.978   2.275   0.216  0.0055  0.9260  1.3623
 8304SOL    MW432984   3.937   2.211   0.259 -0.1517 -0.5513  0.1575
 8305SOL     OW32985   2.239   0.291   0.289  0.0170  0.0893  0.1715
 8305SOL    HW232986   2.284   0.285   0.373 -1.4294  0.8461  1.0420
 8305SOL    HW332987   2.153   0.253   0.306 -0.5156  0.8277 -0.7996
 8305SOL    MW432988   2.234   0.285   0.302  1.0143 -0.1724  0.2898
 8306SOL     OW32989   0.993   2.268   2.725 -0.2417 -0.6861  0.3272
 8306SOL    HW232990   1.001   2.179   2.759 -0.8144 -0.4742  1.0287
 8306SOL    HW332991   0.901   2.276   2.700  0.1374 -0.8013 -1.2036
 8306SOL    MW432992   0.982   2.257   2.726 -0.6016  0.3602  0.0655
 8307SOL     OW32993   3.666   1.455   3.031 -0.0541 -0.5835  0.3316
 8307SOL    HW232994   3.578   1.433   3.061 -0.3329 -0.1276 -0.1281
 8307SOL    HW332995   3.652   1.512   2.955  0.6293  0.2302  0.7886
 8307SOL    MW432996   3.653   1.460   3.025  0.4836 -0.2011  0.1105
 8308SOL     OW32997   2.533   6.133   0.029 -0.3125 -0.0233  0.1543
 8308SOL    HW232998   2.524   6.139   0.124 -1.2553  1.3615  0.0110
 8308SOL    HW332999   2.626   6.150   0.013 -0.5036  1.8521  0.7290
 8308SOL    MW433000   2.544   6.136   0.040  0.0073  0.1550  0.3252
 8309SOL     OW33001   1.986   0.088   3.701 -0.1338  0.0178 -0.4745
 8309SOL    HW233002   1.971   0.069   3.608  0.4023  0.5826 -0.6825
 8309SOL    HW333003   2.080   0.072   3.713  0.1595  1.6354 -0.4488
 8309SOL    MW433004   1.997   0.083   3.690  1.0869  0.7024  0.3958
 8310SOL     OW33005   4.980   4.401   4.228  0.2429 -0.1312  0.6509
 8310SOL    HW233006   4.917   4.425   4.160  0.3828 -0.5930  0.3485
 8310SOL    HW333007   4.937   4.330   4.276  0.4195 -0.2674  0.6093
 8310SOL    MW433008   4.966   4.395   4.225 -0.6218 -0.0033 -0.0989
 8311SOL     OW33009   5.627   0.224   4.108 -0.2253 -0.7261 -0.1529
 8311SOL    HW233010   5.721   0.241   4.120 -0.4116  2.4352 -2.0948
 8311SOL    HW333011   5.620   0.188   4.020 -0.9260  0.7814 -0.7440
 8311SOL    MW433012   5.638   0.221   4.098  0.6980 -0.2575  0.4226
 8312SOL     OW33013   2.963   5.608   2.580  0.2836 -0.0105  0.1652
 8312SOL    HW233014   2.917   5.662   2.643 -1.7196  2.1530 -2.8859
 8312SOL    HW333015   2.904   5.534   2.564  0.4999 -0.2157  0.2912
 8312SOL    MW433016   2.949   5.605   2.586 -1.0533 -0.2225  0.3983
 8313SOL     OW33017   4.977   3.235   2.083  0.3996  0.2809 -0.1143
 8313SOL    HW233018   5.062   3.265   2.053 -0.3880  0.9453 -1.8400
 8313SOL    HW333019   4.957   3.160   2.029  0.9907 -1.5828  2.0922
 8313SOL    MW433020   4.985   3.229   2.072  0.4774 -0.6485  0.6795
 8314SOL     OW33021   4.713   5.063   6.113 -0.6809  0.4849  0.9798
 8314SOL    HW233022   4.757   5.061   6.028 -0.3284 -2.0199  1.1194
 8314SOL    HW333023   4.780   5.033   6.175 -1.6764 -0.3782  1.6786
 8314SOL    MW433024   4.728   5.059   6.110 -0.4922 -0.2621 -0.1920
 8315SOL     OW33025   3.059   4.765   0.005  0.1659 -0.4374 -0.2814
 8315SOL    HW233026   3.067   4.684   0.055  2.5067 -0.2733 -0.2544
 8315SOL    HW333027   3.091   4.833   0.065  1.2563  0.0193 -1.3282
 8315SOL    MW433028   3.064   4.763   0.019 -0.7386  0.7162  0.3600
 8316SOL     OW33029   0.054   3.403   5.531  0.3227  0.3305  0.1909
 8316SOL    HW233030   0.080   3.484   5.574  0.0306  0.3565  0.3222
 8316SOL    HW333031   0.124   3.341   5.551  0.3734  0.4500  0.3824
 8316SOL    MW433032   0.066   3.405   5.539 -0.2694  0.3850 -0.1984
 8317SOL     OW33033   4.508   1.430   3.572  0.3227  0.1357  0.0268
 8317SOL    HW233034   4.432   1.433   3.515 -0.4530 -1.6371  0.8792
 8317SOL    HW333035   4.501   1.509   3.626 -0.3814  0.4786 -0.5557
 8317SOL    MW433036   4.497   1.441   3.572 -0.0712  0.2535  0.0816
 8318SOL     OW33037   6.142   4.942   3.603 -0.3525 -0.2203 -0.4267
 8318SOL    HW233038   6.122   4.864   3.551  0.8115 -0.8663  0.0575
 8318SOL    HW333039   6.236   4.936   3.620 -0.3164  1.1170 -0.0866
 8318SOL    MW433040   6.152   4.931   3.599  0.8990 -0.1596 -0.4024
 8319SOL     OW33041   5.015   1.819   1.241  0.4629 -0.1235 -0.8230
 8319SOL    HW233042   5.017   1.779   1.328  2.0175  0.4613 -0.5376
 8319SOL    HW333043   5.108   1.833   1.220  0.1203 -0.3481 -2.6287
 8319SOL    MW433044   5.028   1.816   1.250  0.2069  0.1210 -0.0229
 8320SOL     OW33045   5.458   5.172   1.183 -0.3727  0.0767  0.3524
 8320SOL    HW233046   5.481   5.099   1.240 -1.8618  0.9843  2.2240
 8320SOL    HW333047   5.411   5.131   1.110 -1.8989 -0.8541  1.7641
 8320SOL    MW433048   5.455   5.157   1.181 -0.4782  0.1569  0.3500
 8321SOL     OW33049   6.005   1.872   2.120 -0.3580  0.6533  0.4671
 8321SOL    HW233050   6.072   1.926   2.162  1.1128  0.7831 -1.8525
 8321SOL    HW333051   5.996   1.796   2.178  0.7461  1.3230  1.5715
 8321SOL    MW433052   6.013   1.869   2.134  0.3249  0.2091  0.2348
 8322SOL     OW33053   0.615   6.276   0.227 -0.0724  0.7761 -0.2213
 8322SOL    HW233054   0.694   6.255   0.178 -1.3199 -1.1543 -1.5486
 8322SOL    HW333055   0.565   6.334   0.169  0.4337  2.2081  0.7205
 8322SOL    MW433056   0.619   6.281   0.213  0.2600  0.3272  0.8190
 8323SOL     OW33057   3.750   2.021   5.833  0.0741 -0.3814 -0.1637
 8323SOL    HW233058   3.770   2.080   5.759  0.4832  0.0999  0.3246
 8323SOL    HW333059   3.682   1.963   5.799 -1.7787  1.6102 -0.0871
 8323SOL    MW433060   3.744   2.021   5.818  0.3420 -0.2114 -0.3711
 8324SOL     OW33061   3.316   5.248   4.117 -0.1303  0.0265 -0.2897
 8324SOL    HW233062   3.339   5.299   4.194 -0.9721 -0.4016  0.2654
 8324SOL    HW333063   3.267   5.309   4.062 -0.7244 -0.0401  0.1561
 8324SOL    MW433064   3.312   5.263   4.120  0.3938 -0.1733 -0.2603
 8325SOL     OW33065   0.362   0.291   3.801  0.2273  0.8297  0.0759
 8325SOL    HW233066   0.354   0.281   3.706 -4.9063  0.4373  0.2675
 8325SOL    HW333067   0.398   0.208   3.831  1.1485  0.6464 -1.4291
 8325SOL    MW433068   0.365   0.279   3.792 -0.5059 -0.0241  0.2921
 8326SOL     OW33069   0.505   3.980   6.256  0.7084 -0.3291 -0.0776
 8326SOL    HW233070   0.574   3.930   6.301 -0.1429 -0.6142  0.9607
 8326SOL    HW333071   0.433   3.918   6.247  0.2789  0.2103 -0.3916
 8326SOL    MW433072   0.505   3.965   6.261 -0.4673 -0.5016  0.4081
 8327SOL     OW33073   1.205   3.095   0.587  0.0107 -0.1237 -0.6627
 8327SOL    HW233074   1.294   3.062   0.575 -0.2422 -0.5678 -1.3498
 8327SOL    HW333075   1.155   3.058   0.514 -0.6916  0.2940 -0.4054
 8327SOL    MW433076   1.210   3.086   0.576 -0.3111 -0.1570  0.2329
 8328SOL     OW33077   4.342   5.299   5.746  0.0091 -0.1770 -0.0016
 8328SOL    HW233078   4.364   5.271   5.835  0.7632  1.0848  0.2378
 8328SOL    HW333079   4.311   5.220   5.703 -0.1627 -0.8580  1.3168
 8328SOL    MW433080   4.341   5.285   5.752 -0.1613 -0.3084  0.5040
 8329SOL     OW33081   1.676   2.446   3.838 -0.4437 -0.1448 -0.1373
 8329SOL    HW233082   1.621   2.513   3.878 -1.1928  0.0429 -1.4305
 8329SOL    HW333083   1.712   2.487   3.759 -0.1611 -0.9506 -0.4429
 8329SOL    MW433084   1.674   2.460   3.833  0.6329 -0.0322  0.0297
 8330SOL     OW33085   1.379   3.157   5.435  0.0795  0.4669  0.0376
 8330SOL    HW233086   1.346   3.198   5.355 -0.5699 -0.1657 -0.0349
 8330SOL    HW333087   1.473   3.151   5.421 -0.1406 -0.7974 -1.2782
 8330SOL    MW433088   1.387   3.161   5.422 -0.1823  0.2742 -0.4206
 8331SOL     OW33089   5.071   4.134   6.412 -0.0486  0.1080  0.8186
 8331SOL    HW233090   4.983   4.173   6.412  0.0373  0.3067  1.3723
 8331SOL    HW333091   5.056   4.042   6.434 -0.2235 -0.1179 -0.2050
 8331SOL    MW433092   5.057   4.127   6.415  0.1541  1.0116  0.0629
 8332SOL     OW33093   3.995   6.090   2.600 -0.4701 -0.5688  0.1516
 8332SOL    HW233094   3.973   6.182   2.586 -1.6053 -0.6011  1.6007
 8332SOL    HW333095   4.083   6.092   2.638 -1.3255  0.0772  2.2026
 8332SOL    MW433096   4.004   6.102   2.603  0.0134 -0.2083 -0.4108
 8333SOL     OW33097   4.058   2.862   2.211  0.1267  0.2658 -0.1185
 8333SOL    HW233098   4.017   2.855   2.125  1.3775  1.9450 -0.9109
 8333SOL    HW333099   4.057   2.773   2.245 -3.2786  0.0274 -0.4368
 8333SOL    MW433100   4.052   2.850   2.204  0.6834  0.4465 -0.7506
 8334SOL     OW33101   1.776   5.963   0.256  0.4860  0.0400  0.0453
 8334SOL    HW233102   1.763   5.887   0.312 -0.5013  1.2969  1.5931
 8334SOL    HW333103   1.791   5.926   0.169  1.3288 -1.9504  0.9634
 8334SOL    MW433104   1.776   5.948   0.252 -0.4240  0.3981  0.0586
 8335SOL     OW33105   3.911   4.082   5.230 -0.5078  0.0713  0.1966
 8335SOL    HW233106   3.854   4.129   5.290 -1.2590 -0.7632  0.1462
 8335SOL    HW333107   3.978   4.043   5.287  0.0633  1.0879  0.2485
 8335SOL    MW433108   3.913   4.083   5.246  0.0363 -0.1559  1.0529
 8336SOL     OW33109   4.558   1.315   5.337 -0.5595 -0.2853 -0.4313
 8336SOL    HW233110   4.626   1.331   5.403  0.3842 -0.6426 -1.3014
 8336SOL    HW333111   4.597   1.345   5.255 -1.7776  0.2767 -0.8265
 8336SOL    MW433112   4.572   1.321   5.335 -0.3643 -0.6154 -0.3120
 8337SOL     OW33113   0.271   2.961   0.926  0.4347  0.0482 -0.4369
 8337SOL    HW233114   0.338   2.951   0.858  0.7163 -2.5874  0.1508
 8337SOL    HW333115   0.313   2.930   1.006 -1.1421 -0.6235  0.1630
 8337SOL    MW433116   0.286   2.956   0.928  0.8424 -0.8694  0.3754
 8338SOL     OW33117   3.999   0.278   4.768  0.2481  0.2053 -0.1503
 8338SOL    HW233118   4.018   0.198   4.719  1.0031  0.5335 -0.4149
 8338SOL    HW333119   4.054   0.271   4.846 -0.6860 -0.1503  0.4942
 8338SOL    MW433120   4.009   0.267   4.772 -0.0114 -0.2497  0.2437
 8339SOL     OW33121   4.721   4.962   1.862 -0.1415 -0.2925 -0.7711
 8339SOL    HW233122   4.669   4.941   1.939 -0.2664  1.6183 -0.2691
 8339SOL    HW333123   4.772   4.884   1.844 -0.4545 -0.9279  0.9646
 8339SOL    MW433124   4.721   4.949   1.870  0.1593  0.1043 -0.1065
 8340SOL     OW33125   3.457   2.227   2.021  0.1374 -0.4483  0.1734
 8340SOL    HW233126   3.420   2.306   2.061 -0.9083 -0.3008 -1.0101
 8340SOL    HW333127   3.492   2.177   2.095 -2.0664 -0.3898  1.3605
 8340SOL    MW433128   3.457   2.231   2.036  0.0232 -0.3462  0.6726
 8341SOL     OW33129   4.543   1.226   2.046  0.3598 -0.7286  0.5611
 8341SOL    HW233130   4.585   1.279   1.978 -0.3191  0.1934  0.8372
 8341SOL    HW333131   4.586   1.141   2.040  0.7273 -0.4825 -0.6249
 8341SOL    MW433132   4.554   1.222   2.036 -0.4025 -1.0273 -0.0300
 8342SOL     OW33133   5.702   0.608   2.999  0.6427 -0.3196 -0.4422
 8342SOL    HW233134   5.792   0.602   2.967 -0.3956 -1.2396 -3.4713
 8342SOL    HW333135   5.662   0.525   2.974 -1.0479  0.0034  0.9978
 8342SOL    MW433136   5.709   0.596   2.992 -0.0233 -0.1139  0.2494
 8343SOL     OW33137   2.883   5.010   0.946 -0.4145 -0.1810 -0.2576
 8343SOL    HW233138   2.970   4.976   0.966 -0.1430  0.1500 -0.8370
 8343SOL    HW333139   2.894   5.106   0.947 -0.4939 -0.1490 -1.4854
 8343SOL    MW433140   2.896   5.018   0.949  0.0331  0.4886 -0.2850
 8344SOL     OW33141   2.433   1.032   6.017 -0.5688  0.1735 -0.0988
 8344SOL    HW233142   2.462   0.955   5.969  3.4413 -0.1554  2.3454
 8344SOL    HW333143   2.459   1.107   5.962 -1.4939 -0.1684 -1.0229
 8344SOL    MW433144   2.440   1.032   6.004  0.1537 -0.4556  0.8170
 8345SOL     OW33145   5.938   0.373   5.565 -0.7703 -0.4652 -0.5684
 8345SOL    HW233146   6.017   0.408   5.606  0.0530 -1.5844 -1.1163
 8345SOL    HW333147   5.964   0.359   5.474 -2.5759  2.0729 -1.5807
 8345SOL    MW433148   5.952   0.376   5.558 -0.0362  0.0402 -0.2597
 8346SOL     OW33149   2.020   1.179   3.729  0.3704  0.1837  0.1915
 8346SOL    HW233150   2.003   1.191   3.822 -0.8306 -1.8651  0.2943
 8346SOL    HW333151   2.110   1.147   3.725  0.8785  1.4871  0.4959
 8346SOL    MW433152   2.030   1.177   3.741 -0.0592 -0.1853  0.2153
 8347SOL     OW33153   3.810   6.335   0.221 -0.1828  0.0912 -0.3767
 8347SOL    HW233154   3.832   6.242   0.225 -2.7107 -0.6469 -1.4782
 8347SOL    HW333155   3.861   6.375   0.291  1.0208 -2.1031  0.0825
 8347SOL    MW433156   3.819   6.328   0.230 -0.4158 -0.0480  0.3952
 8348SOL     OW33157   4.809   6.413   2.967  0.1735  0.3147 -0.3217
 8348SOL    HW233158   4.805   6.452   2.880  2.5503  0.2319 -0.5180
 8348SOL    HW333159   4.730   6.358   2.972  0.1311  0.1012 -2.5132
 8348SOL    MW433160   4.798   6.411   2.956 -0.7205  0.5976 -0.4168
 8349SOL     OW33161   2.049   5.466   0.327  0.0835  0.0726 -0.6473
 8349SOL    HW233162   2.019   5.547   0.284 -2.5424 -1.2256 -1.4851
 8349SOL    HW333163   2.001   5.396   0.282  0.8635 -1.8037  1.2630
 8349SOL    MW433164   2.038   5.468   0.315 -0.1375  0.2570 -0.3938
 8350SOL     OW33165   5.040   1.556   6.411 -0.3846 -0.0045 -0.3123
 8350SOL    HW233166   5.073   1.526   6.326 -1.0156  0.4572 -0.7277
 8350SOL    HW333167   4.965   1.499   6.428 -0.5486  0.2188 -0.2915
 8350SOL    MW433168   5.035   1.544   6.402 -0.3069  0.4641  0.6181
 8351SOL     OW33169   6.047   0.763   3.806 -0.3855 -0.1874  0.2505
 8351SOL    HW233170   6.065   0.857   3.795  2.9289 -0.9059 -1.8184
 8351SOL    HW333171   5.989   0.741   3.732 -1.6959  0.2655  1.1004
 8351SOL    MW433172   6.042   0.773   3.795  0.1223 -0.4103 -0.5030
 8352SOL     OW33173   1.989   4.976   5.654 -0.2561 -0.5625 -0.2443
 8352SOL    HW233174   2.004   4.884   5.676 -1.9882 -0.3811  2.0074
 8352SOL    HW333175   1.921   5.005   5.715  0.1732  2.2002 -0.9400
 8352SOL    MW433176   1.982   4.968   5.665  0.1356  0.3545  0.0613
 8353SOL     OW33177   3.717   5.335   5.294 -0.3102  0.2760  0.0670
 8353SOL    HW233178   3.623   5.352   5.302 -0.1775  1.6039 -0.8201
 8353SOL    HW333179   3.723   5.243   5.268 -1.3758  0.2251 -0.0436
 8353SOL    MW433180   3.705   5.325   5.292 -0.1195  0.4300  0.3819
 8354SOL     OW33181   2.277   6.367   4.028 -0.2759  0.0586 -0.0976
 8354SOL    HW233182   2.363   6.348   4.067  0.1098  0.4996 -0.7161
 8354SOL    HW333183   2.215   6.322   4.085  0.3459 -0.0585  0.5053
 8354SOL    MW433184   2.280   6.358   4.041 -0.0927  0.1037 -0.2536
 8355SOL     OW33185   0.763   6.226   5.809 -0.1367 -0.1584  0.1234
 8355SOL    HW233186   0.800   6.155   5.862 -1.2901  0.5559  2.0008
 8355SOL    HW333187   0.685   6.253   5.857 -0.2146  1.8137 -1.0002
 8355SOL    MW433188   0.757   6.220   5.822 -0.2056 -0.4783  0.4082
 8356SOL     OW33189   4.793   3.332   5.368  0.5267  0.0544  0.4801
 8356SOL    HW233190   4.758   3.347   5.280 -0.0220  1.0410  0.8439
 8356SOL    HW333191   4.862   3.398   5.378  0.9017 -0.3606  0.6171
 8356SOL    MW433192   4.797   3.343   5.358 -0.4084  0.1062 -0.6014
 8357SOL     OW33193   6.068   4.766   5.290  0.1567 -0.1369 -0.7125
 8357SOL    HW233194   5.994   4.708   5.306 -0.6831  0.7513 -1.2742
 8357SOL    HW333195   6.029   4.847   5.259  1.2323  1.1043  0.9975
 8357SOL    MW433196   6.053   4.769   5.288 -0.0726  0.5723  0.1100
 8358SOL     OW33197   4.260   3.356   2.843 -0.1319 -0.4229 -0.0366
 8358SOL    HW233198   4.213   3.403   2.774  2.8861  0.0493 -1.9620
 8358SOL    HW333199   4.292   3.277   2.800 -0.2510 -1.3690  1.5602
 8358SOL    MW433200   4.258   3.352   2.828 -0.0276 -0.2431  0.0507
 8359SOL     OW33201   3.535   1.879   4.853  0.1448 -0.2032  0.6434
 8359SOL    HW233202   3.541   1.870   4.758  0.6319 -0.6506  0.7172
 8359SOL    HW333203   3.447   1.848   4.875  0.7298 -1.9934  0.5584
 8359SOL    MW433204   3.524   1.874   4.844 -0.4786 -0.6341  0.5060
 8360SOL     OW33205   1.127   1.289   6.001  0.0598 -0.5038  0.1240
 8360SOL    HW233206   1.195   1.305   5.935 -0.1687  0.1450  0.0457
 8360SOL    HW333207   1.175   1.291   6.084  0.0878  0.3363  0.0991
 8360SOL    MW433208   1.142   1.291   6.003 -0.3528  0.0168  0.6087
 8361SOL     OW33209   2.189   4.689   5.294  0.1904  0.4076  0.1603
 8361SOL    HW233210   2.130   4.763   5.280  1.0052  0.9170 -0.6956
 8361SOL    HW333211   2.258   4.723   5.352  0.7740  0.4510 -0.5400
 8361SOL    MW433212   2.191   4.703   5.300 -0.9175  0.0789 -0.4026
 8362SOL     OW33213   0.527   0.423   1.699  0.0097  0.0676  0.6852
 8362SOL    HW233214   0.456   0.482   1.726  0.7911  0.9411  0.8911
 8362SOL    HW333215   0.508   0.404   1.607 -0.9559 -0.4149  0.9623
 8362SOL    MW433216   0.515   0.429   1.691  0.2262  1.0134  0.0757
 8363SOL     OW33217   2.498   2.138   4.282  0.2404 -0.8307  0.4588
 8363SOL    HW233218   2.478   2.049   4.252 -0.1120  0.0420 -2.0670
 8363SOL    HW333219   2.412   2.177   4.301  0.3038 -0.5897  0.2491
 8363SOL    MW433220   2.484   2.131   4.281  0.2645  0.1183  0.5035
 8364SOL     OW33221   1.196   4.993   2.255  0.2876  0.2786  0.4793
 8364SOL    HW233222   1.230   4.906   2.272 -0.2321  0.0245  0.2384
 8364SOL    HW333223   1.269   5.052   2.274  1.1657 -0.2998 -0.9524
 8364SOL    MW433224   1.210   4.990   2.260  0.1438 -0.3552  0.3835
 8365SOL     OW33225   5.293   4.287   0.590  0.5256  0.2225 -0.4658
 8365SOL    HW233226   5.295   4.236   0.671 -1.6068  1.1845  0.2592
 8365SOL    HW333227   5.365   4.252   0.538  1.1008 -1.3486  1.2807
 8365SOL    MW433228   5.303   4.276   0.594  0.1530 -0.3798  0.1749
 8366SOL     OW33229   2.463   1.460   2.671 -0.6713 -0.0167  0.1225
 8366SOL    HW233230   2.488   1.373   2.639 -0.6988 -0.1679  0.5088
 8366SOL    HW333231   2.453   1.449   2.765  1.3136  0.8709  0.4970
 8366SOL    MW433232   2.465   1.447   2.679 -0.0228 -0.1553  0.1226
 8367SOL     OW33233   0.939   2.992   2.867 -0.1549  0.0151 -0.0576
 8367SOL    HW233234   0.920   2.908   2.826  0.1135 -0.3758  0.6070
 8367SOL    HW333235   0.858   3.042   2.859  0.0490  0.1574 -1.5422
 8367SOL    MW433236   0.926   2.987   2.860  0.2119  0.3252 -0.2879
 8368SOL     OW33237   4.792   2.837   4.908 -0.1009  0.1680  0.3249
 8368SOL    HW233238   4.844   2.765   4.873 -0.5210 -0.0292  0.0979
 8368SOL    HW333239   4.844   2.915   4.891 -0.1065  0.0280 -0.3639
 8368SOL    MW433240   4.806   2.838   4.902  0.1969 -0.6990 -0.8533
 8369SOL     OW33241   0.959   5.275   2.926 -0.8018  0.1701 -0.5743
 8369SOL    HW233242   1.043   5.232   2.940 -1.0950 -0.2649 -0.1302
 8369SOL    HW333243   0.898   5.228   2.983 -1.7361 -0.6997 -2.2194
 8369SOL    MW433244   0.962   5.263   2.935 -0.2263 -0.4982  0.0384
 8370SOL     OW33245   2.145   5.517   0.994 -0.1667 -0.6589 -0.1444
 8370SOL    HW233246   2.091   5.547   1.067 -0.5682 -1.0191 -0.2917
 8370SOL    HW333247   2.231   5.502   1.032 -0.7357 -2.2861  0.5778
 8370SOL    MW433248   2.149   5.519   1.009  0.0606 -0.0375  0.0568
 8371SOL     OW33249   1.125   6.191   4.580 -0.2341 -0.0031 -1.0778
 8371SOL    HW233250   1.039   6.199   4.539 -0.0933  2.7243 -1.0533
 8371SOL    HW333251   1.117   6.241   4.662  1.2885  0.0433 -0.9290
 8371SOL    MW433252   1.113   6.199   4.586  0.2047 -0.6700 -0.6040
 8372SOL     OW33253   0.121   3.956   1.907 -0.2171  0.2710  0.3968
 8372SOL    HW233254   0.103   3.868   1.940 -2.3390 -0.1660 -1.7183
 8372SOL    HW333255   0.175   3.943   1.829 -1.1991  0.7677 -0.3843
 8372SOL    MW433256   0.126   3.943   1.901  0.3398 -0.0145 -0.2818
 8373SOL     OW33257   5.576   3.120   0.229 -0.1708  0.0053 -0.1143
 8373SOL    HW233258   5.564   3.215   0.241 -0.5851 -0.0242 -0.2798
 8373SOL    HW333259   5.595   3.111   0.136 -2.8987 -0.3265 -0.7124
 8373SOL    MW433260   5.577   3.132   0.218  0.0687 -0.5672 -0.1513
 8374SOL     OW33261   6.381   1.096   0.073  0.4049  0.1797 -0.0736
 8374SOL    HW233262   6.436   1.146   0.013  0.7404  0.7640  0.7029
 8374SOL    HW333263   6.292   1.110   0.041  0.0542  4.1488  1.9736
 8374SOL    MW433264   6.376   1.105   0.061 -0.0885  0.1515 -0.0025
 8375SOL     OW33265   1.227   0.701   3.843 -0.4994 -0.2360  0.0060
 8375SOL    HW233266   1.180   0.702   3.760 -1.0069 -0.7629  0.2725
 8375SOL    HW333267   1.188   0.628   3.891  1.5373 -1.5708 -0.2800
 8375SOL    MW433268   1.215   0.692   3.839  0.1059 -0.3104 -0.4421
 8376SOL     OW33269   2.652   5.690   4.422  0.1047 -1.2599 -0.3556
 8376SOL    HW233270   2.746   5.697   4.441  0.2712  0.7985 -1.6137
 8376SOL    HW333271   2.648   5.647   4.336  0.0574  0.3348 -1.1961
 8376SOL    MW433272   2.664   5.685   4.413  0.2061 -0.3043  0.0883
 8377SOL     OW33273   2.761   5.100   4.677  0.2770 -0.2916  0.6088
 8377SOL    HW233274   2.750   5.131   4.767  0.5405 -0.8077  0.8184
 8377SOL    HW333275   2.706   5.159   4.625  1.6398  1.2452  0.8579
 8377SOL    MW433276   2.752   5.112   4.682 -0.0353  0.0766 -0.2712
 8378SOL     OW33277   4.106   0.171   0.941  0.0817  0.1304  0.2642
 8378SOL    HW233278   4.063   0.085   0.935  0.2055  0.0910 -0.0713
 8378SOL    HW333279   4.152   0.180   0.858  0.6731  0.1958  0.5945
 8378SOL    MW433280   4.107   0.161   0.929 -0.0585  0.9143  0.0979
 8379SOL     OW33281   4.645   4.633   0.070  0.1126 -0.2255  0.1470
 8379SOL    HW233282   4.643   4.673  -0.017  1.3399 -0.1564  0.1378
 8379SOL    HW333283   4.574   4.568   0.068 -0.5725  0.5195 -0.5219
 8379SOL    MW433284   4.635   4.629   0.059 -0.1871 -0.4439  0.3393
 8380SOL     OW33285   3.405   6.360   4.188 -0.0344 -0.3248  0.0194
 8380SOL    HW233286   3.338   6.330   4.127  0.8413  0.9732 -1.6691
 8380SOL    HW333287   3.472   6.400   4.132 -1.0909  4.7800  1.9248
 8380SOL    MW433288   3.405   6.361   4.172  0.1886 -0.4803 -0.1962
 8381SOL     OW33289   3.899   3.709   2.441 -0.3613  0.5209 -0.6753
 8381SOL    HW233290   3.888   3.632   2.386 -1.2458  1.7225 -2.2896
 8381SOL    HW333291   3.940   3.774   2.384  1.3150  0.9533  0.9398
 8381SOL    MW433292   3.903   3.708   2.426  0.3925 -0.5320  0.7886
 8382SOL     OW33293   3.563   2.931   4.164 -0.0821 -0.2754  0.0696
 8382SOL    HW233294   3.570   3.014   4.117 -0.3985  1.6108  3.0738
 8382SOL    HW333295   3.649   2.891   4.153  0.3937  0.8864 -0.6916
 8382SOL    MW433296   3.576   2.937   4.156  0.3333  0.2557  0.9064
 8383SOL     OW33297   0.511   5.184   3.051 -0.1032 -0.8715 -0.1570
 8383SOL    HW233298   0.602   5.156   3.062  0.9126  0.6936 -3.4140
 8383SOL    HW333299   0.482   5.140   2.971 -1.2137  0.8481 -0.7570
 8383SOL    MW433300   0.519   5.174   3.042  0.0799 -0.1200  0.4568
 8384SOL     OW33301   4.713   2.198   1.598  0.0939 -0.0738 -0.7058
 8384SOL    HW233302   4.765   2.230   1.524  0.4193  0.2389 -0.3452
 8384SOL    HW333303   4.623   2.194   1.564 -0.0881  1.8782 -0.5856
 8384SOL    MW433304   4.708   2.202   1.584 -0.1814  0.3480  0.0427
 8385SOL     OW33305   1.896   1.709   3.874 -0.5747 -0.7910 -0.0794
 8385SOL    HW233306   1.894   1.694   3.779 -1.3781 -0.8991 -0.0510
 8385SOL    HW333307   1.840   1.785   3.888 -0.7427 -0.9877  0.3438
 8385SOL    MW433308   1.888   1.717   3.863  0.5856 -0.2683  0.0584
 8386SOL     OW33309   1.511   1.587   4.006  0.1924 -0.0321 -0.3741
 8386SOL    HW233310   1.527   1.623   4.094 -0.7613  0.9408 -0.5715
 8386SOL    HW333311   1.421   1.556   4.009  0.1102  0.1273 -1.0483
 8386SOL    MW433312   1.501   1.588   4.018 -0.2090 -0.1002 -0.0183
 8387SOL     OW33313   1.412   5.598   5.779 -0.8880  0.1671 -0.1896
 8387SOL    HW233314   1.348   5.663   5.750  0.0312  0.8537 -0.7442
 8387SOL    HW333315   1.432   5.623   5.870 -1.1397  0.1766 -0.1381
 8387SOL    MW433316   1.406   5.610   5.787 -0.3839  0.3174 -0.4950
 8388SOL     OW33317   2.404   1.230   1.264 -0.5102  0.0015  0.1851
 8388SOL    HW233318   2.318   1.200   1.235 -1.2387  2.0252  0.0856
 8388SOL    HW333319   2.459   1.152   1.263 -1.6121 -0.8615 -2.4784
 8388SOL    MW433320   2.400   1.216   1.260  0.2531  0.6948  0.0541
 8389SOL     OW33321   4.170   5.730   2.287  0.1093 -0.2092  0.0744
 8389SOL    HW233322   4.122   5.800   2.331  1.2179 -0.3337  1.5610
 8389SOL    HW333323   4.257   5.766   2.273 -0.1794 -0.2146 -2.0070
 8389SOL    MW433324   4.175   5.744   2.291 -0.0693 -0.1358  0.0642
 8390SOL     OW33325   3.237   0.203   5.789 -0.3108 -0.0641 -0.0295
 8390SOL    HW233326   3.221   0.123   5.839  0.9637 -0.8371 -0.7717
 8390SOL    HW333327   3.291   0.174   5.715  0.8766  1.6129  0.1147
 8390SOL    MW433328   3.242   0.188   5.786 -0.2858 -0.2089 -0.0878
 8391SOL     OW33329   3.355   4.228   2.596 -0.2945  0.1239 -0.2622
 8391SOL    HW233330   3.292   4.194   2.532 -0.3826 -1.0292  0.4275
 8391SOL    HW333331   3.436   4.181   2.579 -0.4123 -0.4487  0.6897
 8391SOL    MW433332   3.357   4.217   2.585  0.7214  0.1207 -0.1827
 8392SOL     OW33333   3.958   6.084   1.417  0.6956  0.4730 -0.3385
 8392SOL    HW233334   3.977   6.088   1.323 -0.2193 -1.9343 -0.7041
 8392SOL    HW333335   4.044   6.084   1.459  1.3669 -2.3655 -1.4759
 8392SOL    MW433336   3.972   6.085   1.410  0.0060  0.2019  0.1976
 8393SOL     OW33337   0.323   2.841   3.489 -1.3496  0.9527 -0.1969
 8393SOL    HW233338   0.300   2.788   3.565 -1.5898  0.8487 -0.3413
 8393SOL    HW333339   0.298   2.787   3.414  0.4226  0.3414 -0.3948
 8393SOL    MW433340   0.317   2.827   3.490  0.2777 -0.1183 -0.0723
 8394SOL     OW33341   5.610   2.625   0.382  0.1329 -0.1741  0.4997
 8394SOL    HW233342   5.529   2.599   0.425  0.1246 -0.5924  0.2327
 8394SOL    HW333343   5.583   2.655   0.295 -0.0152  1.9360  1.2055
 8394SOL    MW433344   5.596   2.626   0.376 -0.7533  0.1078 -0.1213
 8395SOL     OW33345   1.919   6.377   3.426 -0.3572  0.0427  0.2175
 8395SOL    HW233346   1.929   6.456   3.374 -2.4326  0.0218 -0.3288
 8395SOL    HW333347   1.843   6.333   3.387  0.7975 -2.2958  0.4172
 8395SOL    MW433348   1.910   6.381   3.414  0.1511  0.7630 -0.1315
 8396SOL     OW33349   1.210   2.417   0.480  0.0486  0.1899 -0.0889
 8396SOL    HW233350   1.199   2.467   0.399 -2.7238  0.5273  0.3903
 8396SOL    HW333351   1.199   2.326   0.454  0.3325  0.2023 -0.2568
 8396SOL    MW433352   1.207   2.412   0.466  0.7035  0.4077  0.1859
 8397SOL     OW33353   2.954   1.741   3.299 -0.2657 -0.2729 -0.0810
 8397SOL    HW233354   2.874   1.691   3.283 -0.8734  0.1069  1.5768
 8397SOL    HW333355   2.938   1.786   3.381  0.2250  2.7334 -1.5085
 8397SOL    MW433356   2.942   1.740   3.308  0.6810  0.5997 -0.4147
 8398SOL     OW33357   4.974   3.459   0.288 -0.3851 -0.6467 -0.2076
 8398SOL    HW233358   4.892   3.494   0.323 -0.3201 -1.0115  0.3116
 8398SOL    HW333359   4.965   3.470   0.193 -0.0038  1.5847 -0.0483
 8398SOL    MW433360   4.962   3.465   0.280 -0.3688 -0.0260 -0.6544
 8399SOL     OW33361   1.984   4.829   2.074  0.2025 -0.3894 -0.3074
 8399SOL    HW233362   2.078   4.824   2.094  0.1628  1.8983  0.6461
 8399SOL    HW333363   1.980   4.881   1.994 -0.2444 -0.9336 -0.6425
 8399SOL    MW433364   1.996   4.835   2.066  0.0010 -0.3682  0.3926
 8400SOL     OW33365   3.839   0.367   4.515  0.1900 -0.3883  0.9841
 8400SOL    HW233366   3.913   0.384   4.574 -0.7034  0.9303  1.7748
 8400SOL    HW333367   3.762   0.366   4.572 -0.5846 -0.1377 -0.0278
 8400SOL    MW433368   3.839   0.369   4.531 -0.5940  0.2047  0.1938
 8401SOL     OW33369   2.610   1.891   5.778 -0.0442 -0.4980 -0.3115
 8401SOL    HW233370   2.652   1.963   5.825  2.2727 -2.1454  0.3062
 8401SOL    HW333371   2.628   1.909   5.686  1.0269 -0.5682 -0.1249
 8401SOL    MW433372   2.618   1.903   5.772  0.0411 -0.6777  0.4251
 8402SOL     OW33373   2.114   5.105   4.776  0.5276 -0.6284 -0.0565
 8402SOL    HW233374   2.105   5.197   4.752  0.0782 -0.5608  0.3583
 8402SOL    HW333375   2.208   5.090   4.777  0.5916 -0.7647 -2.3039
 8402SOL    MW433376   2.125   5.115   4.773 -0.3630 -0.2645 -0.1448
 8403SOL     OW33377   5.108   5.082   0.203  0.9875 -0.2737 -0.3437
 8403SOL    HW233378   5.044   5.011   0.217  0.9431  0.0595  1.2711
 8403SOL    HW333379   5.059   5.162   0.220  2.1869 -0.0652  2.6784
 8403SOL    MW433380   5.093   5.083   0.207 -0.1868  0.0921 -0.0863
 8404SOL     OW33381   6.147   5.214   6.275  0.0519 -0.3115 -0.0849
 8404SOL    HW233382   6.209   5.281   6.306 -0.7462  0.0671  0.7537
 8404SOL    HW333383   6.088   5.200   6.349 -1.4983  0.0951 -1.1776
 8404SOL    MW433384   6.147   5.221   6.289  0.5293  0.1851 -0.0443
 8405SOL     OW33385   4.938   1.494   2.503  0.3999  0.2748 -0.1314
 8405SOL    HW233386   4.981   1.485   2.588 -2.4619 -1.8378  1.2752
 8405SOL    HW333387   4.902   1.583   2.503  1.3860  0.6877  0.3351
 8405SOL    MW433388   4.939   1.504   2.514 -0.0508  0.1253  0.4736
 8406SOL     OW33389   4.841   5.547   5.339  0.4226 -0.0082 -0.7072
 8406SOL    HW233390   4.882   5.613   5.284 -0.3800 -0.6618 -2.1660
 8406SOL    HW333391   4.913   5.506   5.387  1.0175  1.2859 -0.4709
 8406SOL    MW433392   4.856   5.550   5.338 -0.1737  0.0534  0.1203
 8407SOL     OW33393   0.133   3.667   1.846  0.3582  0.6106  0.2821
 8407SOL    HW233394   0.056   3.613   1.825  1.2553 -0.7140  0.2815
 8407SOL    HW333395   0.140   3.663   1.941  0.2766  0.9574  0.3044
 8407SOL    MW433396   0.124   3.659   1.856  0.5888 -0.4023  0.3610
 8408SOL     OW33397   0.698   6.130   3.141 -0.1460 -0.0133 -0.0092
 8408SOL    HW233398   0.749   6.050   3.153  1.1070  0.7931  0.2066
 8408SOL    HW333399   0.762   6.195   3.115 -0.8785  1.2954  1.3057
 8408SOL    MW433400   0.713   6.128   3.139 -0.1555  0.2535  0.7325
 8409SOL     OW33401   0.305   0.966   5.097  0.1904 -0.2045  0.1087
 8409SOL    HW233402   0.297   1.017   5.016  1.8953 -0.4748 -0.2663
 8409SOL    HW333403   0.234   0.998   5.152 -1.2812 -0.2978 -1.6302
 8409SOL    MW433404   0.295   0.977   5.093 -0.9372  0.4207  0.7071
 8410SOL     OW33405   0.975   2.073   5.816  0.5293  0.3655 -0.3856
 8410SOL    HW233406   0.941   1.990   5.783  1.4022 -0.3834  0.5371
 8410SOL    HW333407   0.943   2.139   5.754  1.2931 -0.8607 -2.1807
 8410SOL    MW433408   0.967   2.071   5.803 -0.0729  0.1087 -0.2588
 8411SOL     OW33409   1.071   0.662   1.483  0.1483  0.1616 -0.0160
 8411SOL    HW233410   1.098   0.754   1.477 -1.3581  0.7369  1.3257
 8411SOL    HW333411   0.981   0.661   1.451 -0.5532 -0.4421  1.8175
 8411SOL    MW433412   1.063   0.674   1.478  0.1475 -0.1754  0.7027
 8412SOL     OW33413   6.079   2.677   6.083 -0.4415  0.3051  0.3787
 8412SOL    HW233414   6.040   2.626   6.012 -0.4134  1.5742 -0.5851
 8412SOL    HW333415   6.173   2.665   6.071 -0.4363 -1.3365  1.6426
 8412SOL    MW433416   6.086   2.668   6.072 -0.1937 -0.0699 -0.6062
 8413SOL     OW33417   0.639   3.098   1.535 -0.3008  0.2308 -0.6061
 8413SOL    HW233418   0.722   3.090   1.583 -1.6020 -1.1946  1.5620
 8413SOL    HW333419   0.626   3.011   1.497 -0.8300  0.4422 -0.9139
 8413SOL    MW433420   0.649   3.085   1.536 -0.2742 -0.0717 -0.5435
 8414SOL     OW33421   1.234   3.161   3.413  0.4597  0.0851  0.3981
 8414SOL    HW233422   1.147   3.140   3.446  0.2734 -0.6445 -0.5198
 8414SOL    HW333423   1.227   3.251   3.382  0.1422  0.1602  0.6816
 8414SOL    MW433424   1.222   3.170   3.413 -0.4421 -0.0003  0.2205
 8415SOL     OW33425   0.468   1.574   1.417  0.4325  0.2477  0.7153
 8415SOL    HW233426   0.432   1.558   1.330  3.4145  1.3715 -0.8821
 8415SOL    HW333427   0.523   1.651   1.406  1.5571 -0.0485  3.4348
 8415SOL    MW433428   0.470   1.582   1.405  0.1063 -0.1108  0.1492
 8416SOL     OW33429   1.961   3.836   4.552  0.1667 -0.3887  0.2253
 8416SOL    HW233430   1.921   3.888   4.622  0.3307 -1.1491  0.9039
 8416SOL    HW333431   1.939   3.746   4.574 -1.4692 -0.5466 -1.8025
 8416SOL    MW433432   1.953   3.831   4.564 -0.0267  0.1897  0.5514
 8417SOL     OW33433   5.755   1.639   5.385 -0.1070 -0.5272 -0.5703
 8417SOL    HW233434   5.764   1.564   5.325 -0.2915  0.3753 -1.7560
 8417SOL    HW333435   5.728   1.599   5.468  0.8594 -1.8821 -0.8647
 8417SOL    MW433436   5.753   1.624   5.388 -0.0570  0.3811 -0.0838
 8418SOL     OW33437   0.486   0.192   3.073 -0.3343  0.0176  0.6961
 8418SOL    HW233438   0.393   0.183   3.055 -0.2565  0.2368  0.1721
 8418SOL    HW333439   0.522   0.104   3.058 -0.0853  0.4195 -1.3858
 8418SOL    MW433440   0.479   0.179   3.069 -0.1443 -0.5519 -0.5199
 8419SOL     OW33441   6.308   3.652   2.493  0.1189  0.1048 -0.1383
 8419SOL    HW233442   6.314   3.597   2.571  1.9441 -0.1399 -0.4143
 8419SOL    HW333443   6.354   3.603   2.426  2.9831  2.4631 -0.0695
 8419SOL    MW433444   6.315   3.638   2.495 -0.0155 -0.3795 -0.3360
 8420SOL     OW33445   5.033   2.933   0.660 -0.1337  0.7485  0.0519
 8420SOL    HW233446   4.964   2.868   0.647  0.6893 -0.3340  0.9315
 8420SOL    HW333447   5.042   2.976   0.575 -0.4513 -0.5331 -0.6569
 8420SOL    MW433448   5.025   2.930   0.647 -0.3182 -0.1727 -0.2077
 8421SOL     OW33449   6.269   5.065   2.870 -0.5591 -0.2404 -0.2894
 8421SOL    HW233450   6.300   4.993   2.926  1.5689  0.2338 -0.7555
 8421SOL    HW333451   6.293   5.144   2.918 -2.7408  0.2284  0.1470
 8421SOL    MW433452   6.276   5.066   2.884  0.1719  0.1195 -0.1844
 8422SOL     OW33453   3.558   6.250   2.382 -0.1326 -0.1576  0.2731
 8422SOL    HW233454   3.537   6.211   2.467 -0.1605 -1.6592 -0.3850
 8422SOL    HW333455   3.492   6.319   2.371  0.7856  1.1063  2.1022
 8422SOL    MW433456   3.546   6.254   2.392  0.1055 -0.2177  0.0024
 8423SOL     OW33457   2.763   0.493   3.175  0.1330  0.0080 -0.0991
 8423SOL    HW233458   2.708   0.421   3.205 -1.0234  1.0463  0.3565
 8423SOL    HW333459   2.827   0.451   3.117 -1.9477 -1.1096 -1.7692
 8423SOL    MW433460   2.764   0.478   3.171  1.0745  0.4635 -0.2146
 8424SOL     OW33461   0.302   0.955   6.357  0.1056  0.7076 -0.1953
 8424SOL    HW233462   0.238   1.025   6.368  0.5319  0.7157  4.1958
 8424SOL    HW333463   0.259   0.891   6.300 -2.5048  2.1306  0.0467
 8424SOL    MW433464   0.288   0.956   6.351 -0.4834 -0.2408  1.0487
 8425SOL     OW33465   2.291   4.571   1.277  0.3755  0.0903  0.1317
 8425SOL    HW233466   2.200   4.543   1.272  0.0666  1.1043 -0.1022
 8425SOL    HW333467   2.287   4.667   1.276  1.4294  0.1485  0.3225
 8425SOL    MW433468   2.278   4.580   1.276 -0.4153 -0.0120  0.6599
 8426SOL     OW33469   6.034   3.748   0.570 -0.1443 -0.2057  0.7066
 8426SOL    HW233470   6.032   3.729   0.664  3.0704 -0.7079  0.7854
 8426SOL    HW333471   6.083   3.676   0.532 -0.6041  0.4629 -1.2717
 8426SOL    MW433472   6.040   3.736   0.577 -0.0667 -0.2100  0.3657
 8427SOL     OW33473   5.358   4.815   4.283  0.8432  1.7959 -0.1134
 8427SOL    HW233474   5.401   4.784   4.203  1.1212  1.0023  0.3284
 8427SOL    HW333475   5.271   4.777   4.279  1.9688 -1.3752  1.6650
 8427SOL    MW433476   5.352   4.806   4.272  0.3014  0.4311 -0.5288
 8428SOL     OW33477   5.301   3.482   2.694 -1.0485  0.4340 -0.1264
 8428SOL    HW233478   5.367   3.415   2.678 -2.4346 -0.9718 -0.2849
 8428SOL    HW333479   5.272   3.509   2.606 -0.7485  1.0005 -0.0585
 8428SOL    MW433480   5.306   3.477   2.680 -0.1403  0.0129 -0.1884
 8429SOL     OW33481   1.514   3.576   3.905  0.4473  0.1373 -0.0313
 8429SOL    HW233482   1.582   3.514   3.932 -0.5579 -1.3226 -0.6847
 8429SOL    HW333483   1.445   3.565   3.970 -0.0987 -0.0725 -0.6386
 8429SOL    MW433484   1.514   3.566   3.917 -0.0345  0.1402 -0.5625
 8430SOL     OW33485   1.339   2.577   1.737 -0.8121  0.0746 -0.6037
 8430SOL    HW233486   1.246   2.582   1.762 -1.2253 -3.8763 -0.7238
 8430SOL    HW333487   1.338   2.579   1.641 -0.7529 -0.0425 -0.6061
 8430SOL    MW433488   1.326   2.578   1.727  0.3384 -0.2273 -1.1372
 8431SOL     OW33489   0.079   0.649   3.865 -0.0502 -0.5250 -0.2538
 8431SOL    HW233490   0.053   0.631   3.775 -1.3979 -1.0175  0.2161
 8431SOL    HW333491   0.018   0.716   3.895  2.4867  2.2442 -0.7329
 8431SOL    MW433492   0.068   0.655   3.857  0.0457 -0.0363 -0.2436
 8432SOL     OW33493   2.520   3.526   4.846  0.1184  0.1378 -0.0552
 8432SOL    HW233494   2.542   3.619   4.841  0.1237  0.1272 -0.2293
 8432SOL    HW333495   2.526   3.505   4.939 -0.2511  0.4017  0.0315
 8432SOL    MW433496   2.524   3.536   4.858 -0.5921 -0.4964  0.1557
 8433SOL     OW33497   4.851   3.866   0.249 -0.0034 -0.6052  0.7260
 8433SOL    HW233498   4.774   3.810   0.261 -0.1965 -0.3051  0.9176
 8433SOL    HW333499   4.814   3.954   0.239  0.2361 -0.6247 -0.5037
 8433SOL    MW433500   4.836   3.870   0.249  0.6304  0.1296 -0.2226
 8434SOL     OW33501   2.687   5.891   3.348  0.4457 -0.6917 -0.1146
 8434SOL    HW233502   2.617   5.910   3.411  1.3583  0.8643  0.4910
 8434SOL    HW333503   2.727   5.810   3.380  1.0202  0.1640  1.4910
 8434SOL    MW433504   2.683   5.883   3.361 -0.0830  0.3193  0.1754
 8435SOL     OW33505   0.835   2.137   4.716  0.5284  0.6494  0.1309
 8435SOL    HW233506   0.747   2.160   4.746  0.8927  1.0288  0.9483
 8435SOL    HW333507   0.822   2.104   4.627 -0.6399 -0.8746  0.8162
 8435SOL    MW433508   0.822   2.136   4.708  0.1662  1.2411  0.3501
 8436SOL     OW33509   0.194   5.536   0.992 -0.4647 -0.5939  0.4692
 8436SOL    HW233510   0.186   5.491   0.908 -0.3586 -1.4989  0.9371
 8436SOL    HW333511   0.158   5.623   0.975 -3.3610 -1.7378  0.2721
 8436SOL    MW433512   0.188   5.542   0.978  0.1560  0.3628 -0.0848
 8437SOL     OW33513   6.220   0.675   5.595 -0.0179 -0.0772 -0.0646
 8437SOL    HW233514   6.235   0.647   5.505 -0.2919  1.8442 -0.7589
 8437SOL    HW333515   6.141   0.730   5.591 -1.1335 -1.4355  1.6796
 8437SOL    MW433516   6.211   0.679   5.583  0.0165 -0.7757  0.4108
 8438SOL     OW33517   1.729   5.020   3.415 -0.2772 -0.1573  0.6885
 8438SOL    HW233518   1.805   5.073   3.438  0.0629  0.0788 -0.8924
 8438SOL    HW333519   1.654   5.077   3.433  0.0351  0.4745  0.0181
 8438SOL    MW433520   1.729   5.034   3.420  0.2498  0.2968  0.1934
 8439SOL     OW33521   6.070   3.406   4.548  0.3989 -0.2948 -0.4868
 8439SOL    HW233522   6.087   3.362   4.464  0.7706 -1.4469  0.1605
 8439SOL    HW333523   6.055   3.334   4.609  1.2517  0.4820  0.6713
 8439SOL    MW433524   6.071   3.390   4.545 -0.1360  0.1035  0.1411
 8440SOL     OW33525   4.332   1.737   6.345 -0.2277 -0.2203  0.5528
 8440SOL    HW233526   4.362   1.738   6.436 -0.9144  0.0250  0.7813
 8440SOL    HW333527   4.268   1.807   6.340 -2.3452 -2.0310  0.6504
 8440SOL    MW433528   4.328   1.746   6.357 -0.6793  0.9293  0.0821
 8441SOL     OW33529   5.531   3.628   2.185  0.0607 -0.2444  0.1828
 8441SOL    HW233530   5.596   3.580   2.237  0.2297 -1.3275 -0.9709
 8441SOL    HW333531   5.526   3.579   2.103 -1.7148  0.2311 -0.0209
 8441SOL    MW433532   5.539   3.615   2.181  0.3347 -0.2839 -0.8125
 8442SOL     OW33533   2.925   0.552   5.440  0.0708  0.0610  0.2586
 8442SOL    HW233534   3.015   0.581   5.432 -0.4438  1.6699 -0.1006
 8442SOL    HW333535   2.875   0.614   5.387 -1.3301 -0.3060  1.0961
 8442SOL    MW433536   2.930   0.564   5.432  0.6711 -0.1822  0.0209
 8443SOL     OW33537   2.880   1.209   3.254  0.1407  0.2609  0.3734
 8443SOL    HW233538   2.849   1.225   3.343  1.4215  0.6998  0.7582
 8443SOL    HW333539   2.975   1.205   3.262  0.4081  2.0057 -1.2259
 8443SOL    MW433540   2.889   1.210   3.267  0.5006 -0.0092 -0.3258
 8444SOL     OW33541   5.575   1.698   0.828 -0.7785 -0.3938  0.1119
 8444SOL    HW233542   5.625   1.778   0.814  3.1111 -2.4022  1.0741
 8444SOL    HW333543   5.581   1.681   0.922 -1.4230 -1.8449 -0.0748
 8444SOL    MW433544   5.583   1.706   0.839  0.6443 -0.1527 -0.4080
 8445SOL     OW33545   2.059   5.191   5.054  0.9710 -0.8269 -0.0608
 8445SOL    HW233546   2.101   5.129   5.114  0.0965 -2.2174 -0.8302
 8445SOL    HW333547   2.093   5.167   4.968 -1.0581 -1.7290 -0.6500
 8445SOL    MW433548   2.069   5.180   5.051  0.2821  0.3024  0.3125
 8446SOL     OW33549   3.953   3.960   3.087 -0.3666 -0.5725 -0.1670
 8446SOL    HW233550   3.980   3.898   3.020 -2.7910 -1.2429 -0.6139
 8446SOL    HW333551   3.858   3.959   3.083 -0.5124  1.9172  0.9885
 8446SOL    MW433552   3.944   3.952   3.078 -0.4591  0.5234 -0.2829
 8447SOL     OW33553   1.003   0.948   3.392 -0.1839  0.1471  0.6557
 8447SOL    HW233554   1.064   0.931   3.320 -1.3487  1.1631 -0.6458
 8447SOL    HW333555   0.942   0.874   3.389 -0.6217  0.5134  0.1232
 8447SOL    MW433556   1.003   0.936   3.382  0.5907 -0.3638 -0.2785
 8448SOL     OW33557   3.271   6.204   6.042  0.8625 -0.2602 -0.1841
 8448SOL    HW233558   3.267   6.275   5.977  0.1809 -0.7827 -0.7297
 8448SOL    HW333559   3.318   6.134   5.997  1.7794 -0.0675  0.4517
 8448SOL    MW433560   3.277   6.204   6.027 -0.2741  0.1183  0.1151
 8449SOL     OW33561   1.569   0.392   0.181 -0.1821 -0.9672 -0.2283
 8449SOL    HW233562   1.577   0.382   0.276 -3.7951 -3.0681  0.0623
 8449SOL    HW333563   1.620   0.319   0.145  2.8527  0.9476 -0.1905
 8449SOL    MW433564   1.577   0.381   0.189  0.6704  0.0696 -0.6816
 8450SOL     OW33565   5.307   2.316   2.216 -0.1054 -0.5724 -0.3722
 8450SOL    HW233566   5.229   2.300   2.269 -0.5434 -1.0075 -1.1419
 8450SOL    HW333567   5.357   2.234   2.222  0.1483 -0.3997 -0.1225
 8450SOL    MW433568   5.303   2.303   2.224 -0.3455 -0.3041  0.8724
 8451SOL     OW33569   2.160   0.221   6.207  1.1461 -0.0338  0.6030
 8451SOL    HW233570   2.091   0.156   6.224  1.6580 -0.9644 -0.7018
 8451SOL    HW333571   2.193   0.199   6.120  0.5306  2.7473 -0.4335
 8451SOL    MW433572   2.155   0.209   6.198  0.4671  0.0180 -0.0906
 8452SOL     OW33573   5.641   3.009   2.484  0.0971 -0.2976  0.1411
 8452SOL    HW233574   5.615   3.101   2.472 -1.9502 -0.7364  0.8724
 8452SOL    HW333575   5.653   3.000   2.578 -3.9870 -1.7253  0.7116
 8452SOL    MW433576   5.639   3.020   2.494 -0.0555 -0.0479  0.5624
 8453SOL     OW33577   5.285   1.344   1.819 -0.4691  0.0724  0.0656
 8453SOL    HW233578   5.373   1.308   1.831  1.1576  2.5154 -3.0610
 8453SOL    HW333579   5.285   1.423   1.873 -1.9711 -1.4005  2.4103
 8453SOL    MW433580   5.297   1.349   1.828  0.4915 -0.3244  0.3096
 8454SOL     OW33581   3.111   4.276   2.929  0.1380 -0.3719 -0.8369
 8454SOL    HW233582   3.098   4.182   2.944  1.6073 -0.4379  0.2215
 8454SOL    HW333583   3.199   4.282   2.892 -0.5931  0.4718 -2.5164
 8454SOL    MW433584   3.121   4.264   2.926 -0.4137 -0.6628  0.5901
 8455SOL     OW33585   5.141   4.894   2.568 -0.6309  0.5192  0.0569
 8455SOL    HW233586   5.054   4.913   2.532 -1.5462 -1.4057  1.0818
 8455SOL    HW333587   5.174   4.821   2.516  0.1954  0.9233 -0.0129
 8455SOL    MW433588   5.134   4.887   2.556 -0.4269  0.7917  0.0972
 8456SOL     OW33589   3.905   5.414   3.214 -0.0839  1.2855 -0.8074
 8456SOL    HW233590   3.951   5.466   3.279  0.5030  0.3105 -0.4204
 8456SOL    HW333591   3.953   5.331   3.211 -1.5540  0.3927 -0.6971
 8456SOL    MW433592   3.917   5.410   3.222 -0.3524 -0.2761 -0.2229
 8457SOL     OW33593   2.904   5.373   4.197 -0.2277  0.1245  0.2628
 8457SOL    HW233594   2.821   5.359   4.244  0.4943 -0.6850  1.3732
 8457SOL    HW333595   2.915   5.293   4.145  0.0387  0.0446  0.4374
 8457SOL    MW433596   2.894   5.360   4.196 -0.2161  0.1208 -0.1928
 8458SOL     OW33597   1.465   1.923   6.186  0.3797 -0.5428  0.1557
 8458SOL    HW233598   1.509   2.005   6.161  0.1012 -0.1473  0.9452
 8458SOL    HW333599   1.532   1.856   6.174  0.6484 -0.1868 -0.3927
 8458SOL    MW433600   1.480   1.925   6.181  0.0625 -0.0479  0.4832
 8459SOL     OW33601   1.713   1.102   5.299  0.3236  0.6754  0.4764
 8459SOL    HW233602   1.679   1.013   5.301 -0.6543  0.9939 -0.5401
 8459SOL    HW333603   1.766   1.106   5.220 -0.6787  1.3184 -0.1968
 8459SOL    MW433604   1.715   1.091   5.289 -0.7707 -0.3866  0.2426
 8460SOL     OW33605   1.611   5.354   0.274 -0.2767  0.3669  0.1938
 8460SOL    HW233606   1.577   5.281   0.222 -0.7168 -0.3312  1.4078
 8460SOL    HW333607   1.705   5.357   0.254 -0.0186 -1.3080  0.9777
 8460SOL    MW433608   1.619   5.345   0.264 -0.1793 -0.4306  0.3408
 8461SOL     OW33609   3.484   4.021   5.075 -0.2922  0.4329  0.4443
 8461SOL    HW233610   3.446   4.076   5.143 -1.8686  1.5112 -1.2320
 8461SOL    HW333611   3.420   3.951   5.062 -0.5012  0.7999 -0.6052
 8461SOL    MW433612   3.471   4.019   5.082  0.7227 -0.2387  0.0770
 8462SOL     OW33613   0.588   2.709   3.533  0.2350 -0.2895  0.2644
 8462SOL    HW233614   0.514   2.764   3.505  0.4138 -0.0344  0.2836
 8462SOL    HW333615   0.553   2.620   3.533  0.3003 -0.3366 -1.0433
 8462SOL    MW433616   0.573   2.705   3.529  0.2083  0.5664 -0.4170
 8463SOL     OW33617   2.388   1.492   2.960 -0.2572 -0.5301  0.1080
 8463SOL    HW233618   2.446   1.568   2.972  0.0398 -0.1237 -3.0770
 8463SOL    HW333619   2.301   1.524   2.987  0.3933 -0.1550  1.9007
 8463SOL    MW433620   2.384   1.506   2.965 -0.1681  0.6304 -0.3943
 8464SOL     OW33621   2.649   3.737   4.584 -0.1572 -0.1718  0.5539
 8464SOL    HW233622   2.674   3.824   4.554  2.4705 -1.4462 -1.4059
 8464SOL    HW333623   2.578   3.710   4.526 -0.7551  0.4931  0.9603
 8464SOL    MW433624   2.643   3.745   4.573  0.3365  0.0504 -0.2612
 8465SOL     OW33625   4.462   2.110   4.345  0.0298 -0.1812  0.3065
 8465SOL    HW233626   4.485   2.018   4.357 -0.0137 -0.1104  0.9613
 8465SOL    HW333627   4.367   2.110   4.333  0.3429 -0.5466 -3.1137
 8465SOL    MW433628   4.453   2.098   4.345  0.0388  0.1498 -0.1583
 8466SOL     OW33629   0.813   4.078   6.416  0.2262 -0.7254 -0.8095
 8466SOL    HW233630   0.870   4.031   6.477  0.9301  0.9959 -0.0780
 8466SOL    HW333631   0.828   4.170   6.435 -2.5534 -0.1852 -0.8805
 8466SOL    MW433632   0.823   4.084   6.426  0.7630  0.2776  0.0357
 8467SOL     OW33633   3.940   1.522   3.061 -0.0123 -0.5796 -0.3890
 8467SOL    HW233634   3.846   1.516   3.043 -0.5850 -2.5597  2.5532
 8467SOL    HW333635   3.982   1.478   2.987 -1.3611  0.0298 -1.5716
 8467SOL    MW433636   3.933   1.516   3.049  0.4296 -0.0603 -0.3227
 8468SOL     OW33637   6.254   2.896   0.177  0.1400  0.4623 -0.2056
 8468SOL    HW233638   6.292   2.848   0.103  0.2273  1.9269 -1.1625
 8468SOL    HW333639   6.194   2.959   0.136  0.2998  1.4011  0.9564
 8468SOL    MW433640   6.251   2.898   0.162  0.4504  0.3707 -0.4196
 8469SOL     OW33641   1.539   1.501   5.221  0.4386 -0.3770 -0.0896
 8469SOL    HW233642   1.532   1.502   5.126 -0.8587  1.4337 -0.0383
 8469SOL    HW333643   1.463   1.552   5.251 -0.5206 -2.8563  2.0377
 8469SOL    MW433644   1.528   1.508   5.213  0.2817  0.2792  0.3619
 8470SOL     OW33645   1.207   4.597   0.608 -0.2888  0.2778  0.0184
 8470SOL    HW233646   1.117   4.590   0.576  0.4981 -0.4610 -2.2218
 8470SOL    HW333647   1.210   4.536   0.682 -1.1266 -1.3290 -1.2063
 8470SOL    MW433648   1.196   4.588   0.614 -0.4398 -0.1612 -0.1110
 8471SOL     OW33649   5.026   5.728   5.649  0.2460  0.7146  0.3128
 8471SOL    HW233650   5.089   5.771   5.706 -0.2980  0.2788  1.2687
 8471SOL    HW333651   4.941   5.756   5.682 -0.1199 -0.8561  0.7956
 8471SOL    MW433652   5.023   5.738   5.661 -0.5489  0.0533 -0.3370
 8472SOL     OW33653   4.933   1.330   5.031  0.4633  0.3689 -0.1647
 8472SOL    HW233654   4.849   1.361   5.065  1.2746  1.5823  0.7956
 8472SOL    HW333655   4.929   1.235   5.042 -0.0981  0.5495  1.5254
 8472SOL    MW433656   4.921   1.322   5.037 -0.0319 -0.2729 -0.5663
 8473SOL     OW33657   6.206   5.524   0.261  0.2308  0.3227 -0.0100
 8473SOL    HW233658   6.297   5.499   0.244  0.1621 -0.1294  0.2724
 8473SOL    HW333659   6.191   5.599   0.203  1.7610  2.5133  2.2348
 8473SOL    MW433660   6.216   5.530   0.251  0.2849 -0.2807  0.4533
 8474SOL     OW33661   5.879   3.511   5.394  0.1913 -0.0530 -0.1210
 8474SOL    HW233662   5.822   3.587   5.403  0.8175  0.5341 -0.8970
 8474SOL    HW333663   5.948   3.525   5.459  0.6970  0.4417 -0.7306
 8474SOL    MW433664   5.881   3.523   5.404  0.0098  0.4372  0.0180
 8475SOL     OW33665   2.246   1.723   1.566 -0.2365 -0.4668  0.0075
 8475SOL    HW233666   2.235   1.689   1.477 -0.0951 -1.8718  0.4983
 8475SOL    HW333667   2.160   1.756   1.590 -0.1075  0.6184 -0.8974
 8475SOL    MW433668   2.233   1.723   1.557  0.9333 -0.4094 -0.4329
 8476SOL     OW33669   5.262   4.101   2.661  0.2324  0.2319  0.1276
 8476SOL    HW233670   5.344   4.144   2.685  0.0352  0.7538 -0.1325
 8476SOL    HW333671   5.204   4.172   2.634 -0.5084 -0.0742  0.8806
 8476SOL    MW433672   5.265   4.116   2.661 -0.1325 -0.5454  0.2665
 8477SOL     OW33673   5.665   2.773   6.236 -0.3637 -0.1349  0.4070
 8477SOL    HW233674   5.738   2.809   6.186 -0.0031 -0.6577  0.5477
 8477SOL    HW333675   5.666   2.680   6.215 -1.9349  0.0709 -0.7896
 8477SOL    MW433676   5.675   2.766   6.227 -0.7907  0.0540  0.2761
 8478SOL     OW33677   2.489   5.379   1.832  0.1043  0.2152  0.6520
 8478SOL    HW233678   2.518   5.470   1.827  0.8820  0.1577  2.9890
 8478SOL    HW333679   2.411   5.375   1.777  0.1317  2.2666  0.4131
 8478SOL    MW433680   2.483   5.390   1.824 -0.1734  0.0624  0.6381
 8479SOL     OW33681   1.767   4.769   4.174 -0.2645 -0.0674 -0.1408
 8479SOL    HW233682   1.709   4.709   4.125 -1.3965  1.8428 -1.2687
 8479SOL    HW333683   1.739   4.761   4.265 -0.9241 -0.6679 -0.3887
 8479SOL    MW433684   1.756   4.760   4.179  0.5719 -0.4871 -0.0720
 8480SOL     OW33685   0.064   5.576   5.686  0.4405 -0.0446 -0.2101
 8480SOL    HW233686   0.157   5.597   5.682  0.2610  1.2691  1.3359
 8480SOL    HW333687   0.037   5.571   5.594  1.8064  0.7043 -0.6873
 8480SOL    MW433688   0.073   5.578   5.673 -0.0349  0.1776 -0.1086
 8481SOL     OW33689   2.685   3.057   3.111  0.2575  0.6972 -0.0464
 8481SOL    HW233690   2.715   2.993   3.046  0.2607 -0.0985  0.7207
 8481SOL    HW333691   2.757   3.064   3.173 -0.1491  0.6538  0.4411
 8481SOL    MW433692   2.698   3.049   3.110  0.1619 -0.3111 -0.0846
 8482SOL     OW33693   2.771   4.156   6.093 -0.0214 -0.0314 -0.6544
 8482SOL    HW233694   2.676   4.155   6.110  0.3999  0.6199  2.1985
 8482SOL    HW333695   2.798   4.065   6.105  0.2292  0.3573  2.7223
 8482SOL    MW433696   2.762   4.143   6.097  0.2653  0.4487 -0.3349
 8483SOL     OW33697   3.183   2.003   0.028  0.2279 -0.6931 -0.3472
 8483SOL    HW233698   3.133   1.948  -0.033 -0.2646  1.2440 -1.7934
 8483SOL    HW333699   3.148   2.091   0.015  1.1712  0.0347  1.6900
 8483SOL    MW433700   3.172   2.007   0.018  0.0089 -0.0881  0.5837
 8484SOL     OW33701   4.291   6.115   4.161 -0.2552 -0.0498  0.2461
 8484SOL    HW233702   4.299   6.074   4.075  0.0706  1.2242 -0.3660
 8484SOL    HW333703   4.364   6.178   4.164 -0.1150 -0.2427  1.5562
 8484SOL    MW433704   4.302   6.118   4.150 -0.2444 -0.7252  0.8592
 8485SOL     OW33705   4.785   5.494   0.162 -0.0604  0.9003  0.3103
 8485SOL    HW233706   4.763   5.465   0.074  0.5474  0.4032  0.3129
 8485SOL    HW333707   4.704   5.483   0.212 -0.7540  2.3202 -0.4468
 8485SOL    MW433708   4.772   5.489   0.157  0.7734 -0.0490 -0.1231
 8486SOL     OW33709   3.847   2.271   4.358  0.2140  0.0455 -0.1214
 8486SOL    HW233710   3.933   2.228   4.361  0.7570  1.0149 -1.2288
 8486SOL    HW333711   3.857   2.348   4.414 -0.8442 -1.3070  2.0871
 8486SOL    MW433712   3.860   2.275   4.366 -0.0418  0.2100  0.0519
 8487SOL     OW33713   4.307   3.836   0.539 -0.0548  0.3238  0.1068
 8487SOL    HW233714   4.293   3.810   0.629  0.2123 -0.8352 -0.1738
 8487SOL    HW333715   4.401   3.828   0.525 -0.2216 -0.6195 -0.5890
 8487SOL    MW433716   4.318   3.831   0.549 -0.0519 -0.5928  0.3807
 8488SOL     OW33717   5.304   3.739   1.457  0.1108 -0.0300 -0.1592
 8488SOL    HW233718   5.399   3.723   1.454  0.4077  1.4066  0.6010
 8488SOL    HW333719   5.269   3.686   1.386  1.2134 -2.2545  0.8395
 8488SOL    MW433720   5.312   3.730   1.447 -0.0372 -0.3880 -0.3686
 8489SOL     OW33721   3.877   5.418   3.644 -0.0746 -0.1384  0.4060
 8489SOL    HW233722   3.911   5.331   3.662  1.4646  0.0645 -1.2593
 8489SOL    HW333723   3.794   5.422   3.692  0.4140 -2.0416  1.5139
 8489SOL    MW433724   3.871   5.407   3.653 -0.4799  0.5166 -0.1194
 8490SOL     OW33725   2.053   3.436   0.483  0.4099  0.3566  0.1058
 8490SOL    HW233726   2.136   3.390   0.480  0.8638  1.0643  1.1355
 8490SOL    HW333727   2.076   3.529   0.476 -0.2600  0.5828  0.7083
 8490SOL    MW433728   2.067   3.442   0.481 -0.4793  0.2650 -0.1753
 8491SOL     OW33729   1.461   6.059   1.414  0.1677 -0.6968  0.3392
 8491SOL    HW233730   1.471   6.089   1.505  0.6522 -1.7970  0.6645
 8491SOL    HW333731   1.407   6.126   1.373  1.5499  0.8590  0.9130
 8491SOL    MW433732   1.455   6.072   1.421 -0.4271 -0.7674  0.1219
 8492SOL     OW33733   0.374   3.719   6.056 -0.2636  0.8704 -0.3063
 8492SOL    HW233734   0.385   3.708   6.150 -1.7505  1.5501 -0.0337
 8492SOL    HW333735   0.464   3.723   6.022  0.2890  0.5565  1.0594
 8492SOL    MW433736   0.388   3.718   6.064  0.4474 -0.0611 -0.2623
 8493SOL     OW33737   2.765   2.103   4.549  0.4185  0.2994 -0.0981
 8493SOL    HW233738   2.778   2.099   4.644 -2.1744 -0.3189  0.3061
 8493SOL    HW333739   2.709   2.180   4.536  0.5214  0.2158 -1.1088
 8493SOL    MW433740   2.759   2.113   4.560 -0.5343  0.2694  0.5409
 8494SOL     OW33741   4.976   1.760   1.570  0.4357 -0.0402  0.0648
 8494SOL    HW233742   4.913   1.689   1.560  0.2940  0.2355 -1.1903
 8494SOL    HW333743   5.055   1.717   1.604  0.1038 -0.6593  0.0757
 8494SOL    MW433744   4.978   1.745   1.573 -0.6817  0.3276  0.1294
 8495SOL     OW33745   0.937   2.379   0.602 -0.1903 -0.4264  0.1390
 8495SOL    HW233746   1.026   2.360   0.575  0.2133  1.7978 -0.3190
 8495SOL    HW333747   0.946   2.425   0.686 -0.8277  0.5414 -0.3049
 8495SOL    MW433748   0.950   2.383   0.610  0.9020 -0.3191  0.2068
 8496SOL     OW33749   0.421   0.871   4.226  0.5768 -0.0281 -0.0060
 8496SOL    HW233750   0.340   0.921   4.225  0.7527  0.3235 -1.9886
 8496SOL    HW333751   0.395   0.783   4.251 -0.6120 -0.1564 -1.5423
 8496SOL    MW433752   0.407   0.866   4.229  0.6131  0.5037 -0.6536
 8497SOL     OW33753   0.160   1.686   5.064  0.3551  0.1080 -0.0313
 8497SOL    HW233754   0.072   1.691   5.027 -0.3960 -1.8466  1.3764
 8497SOL    HW333755   0.147   1.689   5.158  1.7704 -0.5742  0.2123
 8497SOL    MW433756   0.147   1.687   5.071  0.2267 -0.7166 -0.4887
 8498SOL     OW33757   2.370   5.090   3.826  0.2464  0.1292  0.6478
 8498SOL    HW233758   2.429   5.020   3.796 -0.5031 -0.1742 -0.1571
 8498SOL    HW333759   2.292   5.044   3.857 -0.5678  0.6188 -0.5943
 8498SOL    MW433760   2.368   5.075   3.826  0.4111  0.0052 -0.0077
 8499SOL     OW33761   0.398   4.030   4.122  0.1161  0.0662 -0.0911
 8499SOL    HW233762   0.363   4.069   4.043 -1.1179 -0.0210  0.3961
 8499SOL    HW333763   0.376   4.092   4.192  0.5771 -0.1860  0.2927
 8499SOL    MW433764   0.391   4.043   4.121 -0.5179 -0.0737 -0.3007
 8500SOL     OW33765   2.481   5.534   3.827 -0.1173  0.6306  0.1507
 8500SOL    HW233766   2.570   5.501   3.819 -0.8167 -1.5432  0.4548
 8500SOL    HW333767   2.426   5.456   3.812 -1.9369  1.7726  0.6049
 8500SOL    MW433768   2.485   5.519   3.824  0.3620 -0.0305  0.1346
 8501SOL     OW33769   3.621   6.136   5.931  0.5027 -0.0484  0.4080
 8501SOL    HW233770   3.558   6.066   5.947 -0.7764  1.0310  0.2122
 8501SOL    HW333771   3.603   6.165   5.841  1.7649 -0.1947  0.0847
 8501SOL    MW433772   3.611   6.131   5.921  0.2676 -0.0911  0.2370
 8502SOL     OW33773   5.411   5.616   4.740  0.2115  0.4287  0.2097
 8502SOL    HW233774   5.335   5.674   4.739  0.1244  0.4020 -2.3330
 8502SOL    HW333775   5.486   5.675   4.746  0.1002  0.8270 -1.7062
 8502SOL    MW433776   5.411   5.632   4.740  0.0972 -0.0774 -0.2490
 8503SOL     OW33777   1.698   4.094   5.701 -0.3811  0.2882 -0.4887
 8503SOL    HW233778   1.679   4.048   5.783 -1.4920  1.3106 -0.1548
 8503SOL    HW333779   1.627   4.068   5.642 -0.7021  1.1192 -0.4757
 8503SOL    MW433780   1.686   4.084   5.704  0.2696 -0.5938  0.2636
 8504SOL     OW33781   1.785   1.176   4.261 -0.2426 -0.2803  0.4983
 8504SOL    HW233782   1.745   1.104   4.310 -1.0987  0.8865  1.5831
 8504SOL    HW333783   1.790   1.247   4.325 -0.2258  0.8972 -0.7936
 8504SOL    MW433784   1.781   1.176   4.276 -0.3003 -0.2955 -0.0848
 8505SOL     OW33785   0.462   1.964   5.921 -0.3391  0.1273  0.0543
 8505SOL    HW233786   0.448   1.943   5.829 -1.1196 -0.6874  0.3461
 8505SOL    HW333787   0.379   1.944   5.964 -0.5480  2.1630  0.6760
 8505SOL    MW433788   0.449   1.958   5.914 -0.3951  0.1109  0.4158
 8506SOL     OW33789   1.853   2.822   0.535 -0.2167  0.6308  0.1398
 8506SOL    HW233790   1.770   2.777   0.527 -0.8466  1.4719  1.5343
 8506SOL    HW333791   1.887   2.797   0.621  0.9824  0.3084 -0.3970
 8506SOL    MW433792   1.847   2.813   0.546  0.4642  0.3966  0.2221
 8507SOL     OW33793   5.852   5.540   2.700 -0.0727 -0.5084 -0.1264
 8507SOL    HW233794   5.878   5.557   2.610 -0.0467  0.4893  0.0559
 8507SOL    HW333795   5.805   5.619   2.727  1.1643 -0.1684  1.1857
 8507SOL    MW433796   5.849   5.553   2.692  0.0191 -0.0506  0.1362
 8508SOL     OW33797   4.798   1.077   3.649 -0.6362 -0.4909  0.4015
 8508SOL    HW233798   4.869   1.117   3.598  0.1902  0.1509  2.0015
 8508SOL    HW333799   4.786   1.135   3.724 -2.6621 -0.7631  0.3635
 8508SOL    MW433800   4.806   1.090   3.652 -0.4238  0.2885  0.4534
 8509SOL     OW33801   5.178   1.132   1.405  0.6937 -0.1397  0.1954
 8509SOL    HW233802   5.114   1.112   1.473 -0.6314 -0.1807 -1.0330
 8509SOL    HW333803   5.167   1.226   1.388  2.7414  0.4650  1.7141
 8509SOL    MW433804   5.168   1.142   1.412  0.0373  0.2953  0.2151
 8510SOL     OW33805   4.859   1.562   3.750  0.2113  0.1225 -0.1938
 8510SOL    HW233806   4.827   1.618   3.679 -0.2149 -0.0940 -0.1799
 8510SOL    HW333807   4.874   1.622   3.823  0.3697  0.3066 -0.3774
 8510SOL    MW433808   4.857   1.577   3.750 -0.2052 -0.1751  0.3666
 8511SOL     OW33809   6.158   5.753   4.210  0.0615  0.1913 -0.2061
 8511SOL    HW233810   6.137   5.694   4.283  1.8502  0.8916  0.9542
 8511SOL    HW333811   6.149   5.841   4.248  0.5102  0.5806 -0.9934
 8511SOL    MW433812   6.154   5.757   4.225 -0.0953  0.0139 -0.3595
 8512SOL     OW33813   5.625   3.566   5.614 -0.4713 -0.0631 -0.0850
 8512SOL    HW233814   5.670   3.620   5.550 -1.7872 -2.1793 -2.9914
 8512SOL    HW333815   5.540   3.608   5.626 -0.7013 -0.3364 -0.7291
 8512SOL    MW433816   5.620   3.579   5.607 -0.2110  0.2724 -0.5573
 8513SOL     OW33817   4.948   2.221   3.205 -0.2260 -0.5151  0.1777
 8513SOL    HW233818   5.027   2.275   3.206 -0.7471  0.2590 -0.0246
 8513SOL    HW333819   4.913   2.227   3.293 -1.4545  1.2526 -0.3799
 8513SOL    MW433820   4.954   2.229   3.216 -0.2482  0.0818  0.1626
 8514SOL     OW33821   2.851   6.108   3.294 -0.2383 -0.0342  0.0806
 8514SOL    HW233822   2.818   6.165   3.224 -0.6061 -1.4912 -0.9595
 8514SOL    HW333823   2.779   6.048   3.312  0.7557 -1.3047 -0.0718
 8514SOL    MW433824   2.837   6.108   3.288  0.0177 -0.2443 -0.0568
 8515SOL     OW33825   3.123   5.211   1.789  0.0066  0.3406 -0.0156
 8515SOL    HW233826   3.051   5.240   1.733 -1.2711  0.9246  1.8343
 8515SOL    HW333827   3.146   5.125   1.754 -2.4063 -0.3984  0.0252
 8515SOL    MW433828   3.117   5.203   1.777  0.7142 -0.3767 -0.2902
 8516SOL     OW33829   5.287   4.698   3.673  0.2081  0.1421 -0.0825
 8516SOL    HW233830   5.344   4.709   3.597  1.6425 -2.2188  0.5639
 8516SOL    HW333831   5.198   4.707   3.637  0.8771  1.5671 -1.5371
 8516SOL    MW433832   5.283   4.701   3.658 -0.0866 -0.0245 -0.3015
 8517SOL     OW33833   3.904   5.337   1.419  0.2753  0.0198 -0.4767
 8517SOL    HW233834   3.823   5.360   1.373 -0.0815 -0.7457 -0.2339
 8517SOL    HW333835   3.896   5.244   1.438  1.2025 -0.0582 -0.4203
 8517SOL    MW433836   3.892   5.328   1.415 -0.1162  0.0701 -0.1089
 8518SOL     OW33837   3.993   3.697   6.062 -0.3256  0.5352 -0.7617
 8518SOL    HW233838   3.933   3.768   6.088 -0.8644  0.8780 -2.7373
 8518SOL    HW333839   3.935   3.623   6.043 -0.0729  0.5801 -1.7842
 8518SOL    MW433840   3.977   3.697   6.063 -0.7513  0.1090 -0.2991
 8519SOL     OW33841   3.669   5.838   2.160  0.0242  0.1576 -0.1984
 8519SOL    HW233842   3.746   5.856   2.106  0.7664  0.0166  0.7769
 8519SOL    HW333843   3.617   5.918   2.154  0.6085  0.5405 -0.2933
 8519SOL    MW433844   3.672   5.851   2.152  0.0596 -0.2813  0.3025
 8520SOL     OW33845   1.178   0.875   3.130 -0.3294  0.4140  0.4738
 8520SOL    HW233846   1.162   0.795   3.179  1.0904 -0.9763 -1.2037
 8520SOL    HW333847   1.102   0.884   3.072  0.6796 -1.2503 -1.2060
 8520SOL    MW433848   1.166   0.866   3.129 -0.4943  0.2891  0.3682
 8521SOL     OW33849   0.808   6.280   1.678  0.5220 -0.1141 -0.5075
 8521SOL    HW233850   0.815   6.365   1.722  1.6508 -0.5875  0.2775
 8521SOL    HW333851   0.745   6.231   1.731 -1.1003  0.6230 -1.6715
 8521SOL    MW433852   0.801   6.284   1.691  0.2833 -0.0903  0.3189
 8522SOL     OW33853   5.954   4.028   1.725  0.0562  0.8021  0.1079
 8522SOL    HW233854   6.039   4.065   1.702  0.3120  0.4893  0.5305
 8522SOL    HW333855   5.966   3.996   1.815 -0.9101  2.0352  0.7003
 8522SOL    MW433856   5.967   4.029   1.734 -0.4117 -0.4109 -0.4767
 8523SOL     OW33857   5.874   5.954   0.150 -0.1171 -0.1671  0.4141
 8523SOL    HW233858   5.856   5.913   0.235  0.3220  1.3334  1.2757
 8523SOL    HW333859   5.810   5.915   0.090 -0.2970 -1.4094  1.3736
 8523SOL    MW433860   5.864   5.943   0.153  0.8482 -0.2448 -0.0917
 8524SOL     OW33861   0.433   2.068   2.013 -0.4468  0.2426  0.0758
 8524SOL    HW233862   0.343   2.044   2.034 -0.4585  1.9454  2.2888
 8524SOL    HW333863   0.485   2.036   2.087  0.2527  2.1825  0.4743
 8524SOL    MW433864   0.428   2.060   2.025  0.2499 -0.0630  0.7212
 8525SOL     OW33865   4.846   1.460   4.755 -0.8681  0.3913 -0.4433
 8525SOL    HW233866   4.852   1.366   4.773 -2.7454  0.5261  1.2886
 8525SOL    HW333867   4.781   1.467   4.686 -0.0249  0.3884 -1.2537
 8525SOL    MW433868   4.839   1.449   4.748 -0.6644 -0.0444 -0.2235
 8526SOL     OW33869   1.591   2.368   3.104  0.0689  0.5524  0.4010
 8526SOL    HW233870   1.587   2.424   3.026 -0.0002  0.7581  0.5491
 8526SOL    HW333871   1.672   2.392   3.147 -0.5276  1.3998  1.0923
 8526SOL    MW433872   1.601   2.379   3.099  0.7143  0.0192  0.0460
 8527SOL     OW33873   4.599   4.069   4.691 -0.1619  0.1337 -0.1141
 8527SOL    HW233874   4.687   4.034   4.684 -0.5877 -1.3804  1.5685
 8527SOL    HW333875   4.557   4.046   4.608  0.7555  0.1161 -0.5794
 8527SOL    MW433876   4.605   4.062   4.679 -0.4582  0.0511 -0.0832
 8528SOL     OW33877   4.515   0.935   2.310 -0.2760 -0.0036  1.0324
 8528SOL    HW233878   4.466   1.006   2.352 -0.6135 -0.3038  1.1525
 8528SOL    HW333879   4.604   0.944   2.345 -0.4830 -0.0722  1.5926
 8528SOL    MW433880   4.521   0.946   2.321  0.1870 -0.5470  0.3521
 8529SOL     OW33881   0.374   3.620   1.337  0.1626 -0.2813  0.2278
 8529SOL    HW233882   0.454   3.655   1.376 -0.2148  1.6625 -0.6192
 8529SOL    HW333883   0.321   3.592   1.412  2.4510 -3.8314  0.7716
 8529SOL    MW433884   0.377   3.621   1.352 -0.0120 -0.3384  0.8331
 8530SOL     OW33885   2.607   1.508   2.194 -0.1632 -0.6483  0.0234
 8530SOL    HW233886   2.631   1.469   2.109 -1.0211  0.1718 -0.6093
 8530SOL    HW333887   2.691   1.520   2.239  0.4176 -0.0842 -1.1636
 8530SOL    MW433888   2.621   1.504   2.188  0.1351 -0.2632 -0.1398
 8531SOL     OW33889   2.876   6.352   2.654 -0.7896 -0.2342 -0.0821
 8531SOL    HW233890   2.845   6.282   2.596 -1.6651 -0.0051  0.0938
 8531SOL    HW333891   2.888   6.309   2.739  1.7500 -0.8688 -0.6826
 8531SOL    MW433892   2.873   6.337   2.658  0.2605 -0.2878  0.5101
 8532SOL     OW33893   2.822   3.968   0.327 -0.7204 -0.5963  0.0374
 8532SOL    HW233894   2.760   3.897   0.340 -1.2475 -0.1693 -0.0825
 8532SOL    HW333895   2.810   3.993   0.235 -0.4810 -0.4113  0.0566
 8532SOL    MW433896   2.812   3.962   0.316  0.2973 -0.3955  0.4998
 8533SOL     OW33897   1.310   1.628   5.294  0.0693 -0.7839 -0.3552
 8533SOL    HW233898   1.282   1.541   5.323 -1.6269 -0.4146 -0.8201
 8533SOL    HW333899   1.328   1.676   5.374  1.8958 -1.7997 -0.0962
 8533SOL    MW433900   1.309   1.623   5.308  0.0861  0.1434  0.4883
 8534SOL     OW33901   1.034   6.089   1.677  0.0702  0.0364 -0.5592
 8534SOL    HW233902   1.098   6.152   1.710 -1.1626  0.6352  0.7927
 8534SOL    HW333903   0.953   6.140   1.667 -1.0484 -1.3807  0.9002
 8534SOL    MW433904   1.031   6.104   1.680  0.1990  0.1820  0.0047
 8535SOL     OW33905   0.832   0.100   0.425 -0.0433  0.2160 -0.2853
 8535SOL    HW233906   0.835   0.185   0.381 -0.4002  1.4010  1.8349
 8535SOL    HW333907   0.743   0.094   0.460  0.7744  0.3340  2.0120
 8535SOL    MW433908   0.821   0.110   0.424  0.3002  0.1761 -0.9473
 8536SOL     OW33909   3.427   0.464   0.719  0.4176 -0.4582  0.1517
 8536SOL    HW233910   3.491   0.480   0.788 -0.0973 -1.1808  0.8169
 8536SOL    HW333911   3.425   0.368   0.710 -0.8662 -0.4705  0.4447
 8536SOL    MW433912   3.435   0.453   0.727 -0.0370 -0.1915  0.1402
 8537SOL     OW33913   6.288   0.815   0.619  0.0398 -0.5496 -0.9563
 8537SOL    HW233914   6.219   0.831   0.683 -0.2531  0.5123 -1.5266
 8537SOL    HW333915   6.242   0.784   0.541 -0.0545  2.0874 -2.0389
 8537SOL    MW433916   6.273   0.813   0.617 -0.3365  0.7821  0.8246
 8538SOL     OW33917   5.520   4.331   5.771  0.5740  0.0621  0.0947
 8538SOL    HW233918   5.583   4.402   5.763  1.3346 -0.5209  0.7618
 8538SOL    HW333919   5.556   4.274   5.838 -0.3455 -0.6261  0.0285
 8538SOL    MW433920   5.533   4.333   5.778 -0.2636 -0.3143  0.6579
 8539SOL     OW33921   1.861   0.561   3.071 -0.2557  0.3715 -0.1126
 8539SOL    HW233922   1.816   0.606   3.000  0.0197 -0.3702 -0.7752
 8539SOL    HW333923   1.848   0.468   3.052 -0.0551  0.1619  0.7319
 8539SOL    MW433924   1.854   0.554   3.059  0.6675  0.1233  0.2561
 8540SOL     OW33925   5.308   5.372   1.295  0.0312 -0.3979  0.6731
 8540SOL    HW233926   5.238   5.316   1.329  0.8469 -1.6059  0.4202
 8540SOL    HW333927   5.372   5.311   1.258  1.4889  0.6332  1.3980
 8540SOL    MW433928   5.307   5.357   1.295 -0.3032  0.2504 -0.3313
 8541SOL     OW33929   2.880   3.064   5.264 -0.4286 -0.4735 -0.6304
 8541SOL    HW233930   2.812   3.013   5.221 -0.9232 -0.2304 -0.1505
 8541SOL    HW333931   2.872   3.152   5.225 -1.5227  0.0095  0.6265
 8541SOL    MW433932   2.870   3.069   5.253  0.0006  0.0855  0.0790
 8542SOL     OW33933   1.657   1.089   5.574  0.4246 -0.5699  0.0891
 8542SOL    HW233934   1.631   1.175   5.609 -1.2747 -0.7469 -0.6581
 8542SOL    HW333935   1.663   1.103   5.480  2.4111 -0.7361  0.1594
 8542SOL    MW433936   1.654   1.102   5.567  0.0419  0.1773 -0.2863
 8543SOL     OW33937   1.016   1.145   6.296  0.3483 -0.0733 -0.0127
 8543SOL    HW233938   1.024   1.064   6.247  1.5192 -0.2447  0.4195
 8543SOL    HW333939   0.952   1.197   6.247 -0.3276 -1.2009 -0.3507
 8543SOL    MW433940   1.009   1.141   6.283  0.5502 -0.3240  0.3831
 8544SOL     OW33941   5.432   6.257   4.823 -0.0733  0.2634 -0.0434
 8544SOL    HW233942   5.492   6.326   4.795  1.0670 -1.6227 -2.7909
 8544SOL    HW333943   5.475   6.215   4.897  1.3308 -0.0721 -1.0045
 8544SOL    MW433944   5.446   6.260   4.829 -0.3703 -0.2073  0.3227
 8545SOL     OW33945   4.335   3.649   3.556  0.2219  0.5019 -0.4970
 8545SOL    HW233946   4.307   3.565   3.519  1.6517  0.2651 -1.1170
 8545SOL    HW333947   4.259   3.706   3.546 -1.2277 -1.0260  1.0775
 8545SOL    MW433948   4.321   3.645   3.550  0.4481  0.0749  0.0117
 8546SOL     OW33949   2.914   1.907   3.514  0.2637  0.0335 -0.0875
 8546SOL    HW233950   2.928   2.001   3.499  1.6902 -0.3166 -1.1681
 8546SOL    HW333951   2.882   1.902   3.604 -0.3072  1.5894 -0.1779
 8546SOL    MW433952   2.912   1.919   3.524 -0.9163 -0.1031 -0.0952
 8547SOL     OW33953   0.322   4.148   3.384  0.7031  0.1996  0.0929
 8547SOL    HW233954   0.384   4.206   3.427 -1.2280  1.0180  2.0054
 8547SOL    HW333955   0.356   4.060   3.401  1.7366  0.6396  0.3811
 8547SOL    MW433956   0.334   4.144   3.392  0.0394  0.6487  0.2469
 8548SOL     OW33957   5.637   1.359   1.462 -0.3775 -0.0892  0.0570
 8548SOL    HW233958   5.687   1.329   1.538 -1.2470 -0.0735  0.6494
 8548SOL    HW333959   5.587   1.282   1.434  0.3128 -0.2382 -0.8304
 8548SOL    MW433960   5.637   1.345   1.468  0.4835  0.2011  0.7750
 8549SOL     OW33961   4.894   4.621   4.504 -0.1529 -0.4413  0.3256
 8549SOL    HW233962   4.864   4.685   4.569  0.9137 -0.0878  0.4771
 8549SOL    HW333963   4.827   4.552   4.507 -0.5150 -0.0690  1.2558
 8549SOL    MW433964   4.881   4.620   4.513  0.0806  0.0051 -0.3236
 8550SOL     OW33965   3.580   0.544   0.965 -0.4906  0.3711 -0.0176
 8550SOL    HW233966   3.671   0.569   0.951 -0.1710 -0.4865  0.4863
 8550SOL    HW333967   3.533   0.627   0.967  0.4696  0.9142  1.0400
 8550SOL    MW433968   3.586   0.558   0.963  0.4131  0.3012 -0.0699
 8551SOL     OW33969   2.221   4.687   4.663  0.3479  0.2939 -0.1152
 8551SOL    HW233970   2.292   4.744   4.692  0.7472  0.1404 -0.7761
 8551SOL    HW333971   2.264   4.621   4.609 -0.2075 -0.2091  0.0448
 8551SOL    MW433972   2.236   4.686   4.660 -0.4139 -0.0839  0.2163
 8552SOL     OW33973   0.380   6.204   1.258 -0.1721  0.3191 -0.1517
 8552SOL    HW233974   0.454   6.237   1.208 -0.4958  1.4155  0.0620
 8552SOL    HW333975   0.303   6.247   1.219 -0.4356  1.1302  1.1990
 8552SOL    MW433976   0.379   6.214   1.246  1.2898  0.0718  0.4602
 8553SOL     OW33977   0.189   4.378   1.867 -0.0023  0.3219  0.2000
 8553SOL    HW233978   0.098   4.404   1.886 -0.1797  0.8876 -1.3004
 8553SOL    HW333979   0.241   4.456   1.886  0.1084  0.1687  0.5341
 8553SOL    MW433980   0.184   4.391   1.872 -0.0169 -0.0174  0.2184
 8554SOL     OW33981   6.110   1.038   5.382 -0.1608 -0.3766  0.4082
 8554SOL    HW233982   6.170   0.998   5.319  0.0197 -0.6898  0.7733
 8554SOL    HW333983   6.168   1.087   5.441 -0.3575  0.2032  0.1256
 8554SOL    MW433984   6.126   1.040   5.381 -0.1501 -0.1524  0.3988
 8555SOL     OW33985   1.492   1.757   1.205  0.6109 -0.3247 -0.5672
 8555SOL    HW233986   1.464   1.715   1.286 -1.2182  0.7141 -0.6164
 8555SOL    HW333987   1.484   1.689   1.138  0.4595 -0.7036 -0.1701
 8555SOL    MW433988   1.488   1.743   1.207  0.3659  0.2612 -0.5434
 8556SOL     OW33989   2.946   0.619   6.421 -0.0972  0.0014 -0.2478
 8556SOL    HW233990   2.857   0.591   6.398  0.1170  0.1096 -1.2597
 8556SOL    HW333991   3.001   0.583   6.351  0.6380  0.0820  0.2766
 8556SOL    MW433992   2.941   0.610   6.409 -0.3677 -0.2809  0.1453
 8557SOL     OW33993   2.187   5.273   5.400 -0.2173 -0.1017 -0.0536
 8557SOL    HW233994   2.231   5.329   5.335 -2.8120  0.0312 -1.8292
 8557SOL    HW333995   2.255   5.253   5.464  2.5350 -0.2998 -2.8270
 8557SOL    MW433996   2.202   5.278   5.400  0.4245  0.3683 -0.0323
 8558SOL     OW33997   2.650   0.278   3.298  0.4125  0.1495 -0.0561
 8558SOL    HW233998   2.711   0.236   3.358  0.9070  0.6750 -0.1783
 8558SOL    HW333999   2.564   0.262   3.336  0.7182  0.4933  0.8079
 8558SOL    MW434000   2.647   0.270   3.311 -0.2237  0.0247  0.2298
 8559SOL     OW34001   0.198   0.773   2.547 -0.3744  0.2872  0.0126
 8559SOL    HW234002   0.155   0.832   2.609 -0.2790  0.0677  0.2878
 8559SOL    HW334003   0.164   0.686   2.569 -0.3907  0.2175 -0.2857
 8559SOL    MW434004   0.188   0.769   2.558  0.4885 -0.3557 -0.5681
 8560SOL     OW34005   4.055   0.972   2.492  0.3502  0.6280 -0.0345
 8560SOL    HW234006   4.074   1.043   2.431  1.1177  0.7456  0.3378
 8560SOL    HW334007   3.969   0.994   2.529  0.4514  1.2026 -0.1352
 8560SOL    MW434008   4.046   0.984   2.489 -0.6769  0.5824  0.3415
 8561SOL     OW34009   3.694   0.456   3.153  0.1039 -0.4585  0.5056
 8561SOL    HW234010   3.749   0.381   3.174 -0.9299 -1.3561  0.1127
 8561SOL    HW334011   3.712   0.520   3.223 -0.1465 -1.6940  1.7424
 8561SOL    MW434012   3.703   0.455   3.165  0.4214  0.2089 -0.2793
 8562SOL     OW34013   0.796   4.272   5.452 -0.5847 -0.1775 -0.0512
 8562SOL    HW234014   0.833   4.297   5.536 -0.0371 -2.6078  0.5126
 8562SOL    HW334015   0.870   4.235   5.403 -1.3070 -0.7239 -0.7737
 8562SOL    MW434016   0.811   4.270   5.456 -0.2246 -0.0468  0.1046
 8563SOL     OW34017   2.346   1.822   3.094  0.2293  0.2842 -0.5826
 8563SOL    HW234018   2.430   1.868   3.091 -0.1283  0.9301 -0.8538
 8563SOL    HW334019   2.315   1.823   3.003 -0.3848  0.6326 -0.3734
 8563SOL    MW434020   2.353   1.828   3.081  0.5570  0.7794  0.0214
 8564SOL     OW34021   5.137   2.100   4.786  0.3432  0.1398  0.5977
 8564SOL    HW234022   5.053   2.054   4.785  0.6426 -0.4196 -0.9885
 8564SOL    HW334023   5.132   2.158   4.862 -2.0182  1.1396 -0.2433
 8564SOL    MW434024   5.125   2.102   4.796 -0.2691  0.1373  0.4530
 8565SOL     OW34025   0.616   2.704   3.911  0.2272 -0.2011  0.0874
 8565SOL    HW234026   0.700   2.710   3.865  0.9860 -0.3876  1.3997
 8565SOL    HW334027   0.628   2.634   3.975 -0.6102  0.4007  0.9369
 8565SOL    MW434028   0.628   2.695   3.913 -0.3891 -0.1668 -0.2623
 8566SOL     OW34029   3.777   0.388   1.625 -0.2257  0.1194  0.2661
 8566SOL    HW234030   3.872   0.396   1.636 -0.1903 -0.7793  0.6395
 8566SOL    HW334031   3.765   0.306   1.578 -0.7550  0.8650 -0.9556
 8566SOL    MW434032   3.788   0.378   1.620 -0.5100  0.6525 -0.0957
 8567SOL     OW34033   2.561   1.168   6.270 -0.8150  0.1187 -0.3030
 8567SOL    HW234034   2.498   1.235   6.299 -0.7340  1.3078 -2.6447
 8567SOL    HW334035   2.510   1.111   6.212 -0.7370 -1.6012  1.2275
 8567SOL    MW434036   2.546   1.169   6.266  0.0827 -0.4250  0.7519
 8568SOL     OW34037   5.525   3.934   4.063  0.6147  0.3913 -0.0513
 8568SOL    HW234038   5.493   3.923   4.152  0.2294 -0.0018 -0.2318
 8568SOL    HW334039   5.550   4.026   4.057 -0.0733  0.6056  0.2377
 8568SOL    MW434040   5.524   3.945   4.074  0.1252 -0.2060  0.1704
 8569SOL     OW34041   5.368   0.222   2.396 -0.2018 -0.6794  0.2088
 8569SOL    HW234042   5.402   0.162   2.462 -0.1336 -1.9978 -0.9794
 8569SOL    HW334043   5.274   0.202   2.391 -0.4154  0.1561  0.6346
 8569SOL    MW434044   5.360   0.211   2.404  1.0602 -0.0904 -0.3279
 8570SOL     OW34045   0.026   6.046   4.028 -0.0875  0.4989 -0.2484
 8570SOL    HW234046   0.116   6.077   4.030  0.4558 -0.7766 -2.1879
 8570SOL    HW334047   0.032   5.955   4.058 -0.5139  0.0470 -1.4697
 8570SOL    MW434048   0.039   6.038   4.033 -0.1200  0.5190 -0.2415
 8571SOL     OW34049   1.045   1.523   2.369 -0.6632 -0.7577 -0.2918
 8571SOL    HW234050   1.073   1.521   2.278 -1.6015  0.6635 -0.6386
 8571SOL    HW334051   1.029   1.431   2.391  2.0081 -1.4018 -0.7253
 8571SOL    MW434052   1.046   1.510   2.360 -0.0686 -0.1390 -0.3589
 8572SOL     OW34053   0.888   4.344   2.592  0.3774  0.5438  0.0050
 8572SOL    HW234054   0.801   4.377   2.611  0.9559  2.3879 -0.3520
 8572SOL    HW334055   0.944   4.421   2.594  2.1974 -0.7107  1.2554
 8572SOL    MW434056   0.884   4.358   2.595  0.5514  0.1591  0.3882
 8573SOL     OW34057   1.663   0.479   4.528  0.2583 -0.2637 -0.4575
 8573SOL    HW234058   1.740   0.534   4.545 -0.1055  0.1606 -0.1591
 8573SOL    HW334059   1.698   0.390   4.522  0.6950 -0.1641  0.3873
 8573SOL    MW434060   1.678   0.475   4.530 -0.2685  0.2707 -0.0062
 8574SOL     OW34061   4.357   5.286   3.812  0.6472 -0.1120 -0.4393
 8574SOL    HW234062   4.310   5.259   3.733  0.6877 -0.2734 -0.4089
 8574SOL    HW334063   4.436   5.329   3.779  1.0987 -0.9479 -0.4896
 8574SOL    MW434064   4.361   5.288   3.797 -0.0229 -0.3639  0.1792
 8575SOL     OW34065   5.310   0.279   6.240 -0.2339 -0.0280 -0.1293
 8575SOL    HW234066   5.330   0.248   6.328  2.0751  0.8152 -0.2967
 8575SOL    HW334067   5.348   0.214   6.181  1.4513  1.1813 -0.4605
 8575SOL    MW434068   5.317   0.266   6.244 -0.0681  0.2833 -0.0199
 8576SOL     OW34069   2.259   2.285   1.948  0.5983  0.5185 -0.3737
 8576SOL    HW234070   2.179   2.237   1.925  1.6217 -0.7159 -1.5294
 8576SOL    HW334071   2.246   2.372   1.910 -1.0690  1.0656  1.2948
 8576SOL    MW434072   2.247   2.290   1.940 -0.1271 -0.2981 -0.4980
 8577SOL     OW34073   1.201   5.166   0.438 -0.6231  0.6370 -0.6651
 8577SOL    HW234074   1.123   5.188   0.388  1.1908  0.8835 -3.6393
 8577SOL    HW334075   1.214   5.073   0.424  0.2473  0.8304 -1.2284
 8577SOL    MW434076   1.193   5.157   0.429  0.1722  0.5411  0.6418
 8578SOL     OW34077   4.403   5.984   3.461 -0.5158 -0.0461  0.4429
 8578SOL    HW234078   4.363   6.047   3.401 -0.1678  0.8972  1.1864
 8578SOL    HW334079   4.329   5.940   3.503 -0.8237  1.5099  1.6202
 8578SOL    MW434080   4.388   5.987   3.459 -0.8155 -0.1276  0.2181
 8579SOL     OW34081   5.114   3.336   2.841  0.2294  0.1559 -0.0320
 8579SOL    HW234082   5.170   3.401   2.798  1.1663  0.5155  1.6278
 8579SOL    HW334083   5.133   3.347   2.935 -1.8229 -0.4842  0.5042
 8579SOL    MW434084   5.124   3.346   2.848  0.2479 -0.4232  0.2254
 8580SOL     OW34085   6.408   0.301   3.075 -1.1477  0.0862 -0.3343
 8580SOL    HW234086   6.345   0.284   3.145 -2.0143 -0.8654 -1.3182
 8580SOL    HW334087   6.452   0.382   3.102 -2.3089  0.3995  0.7042
 8580SOL    MW434088   6.406   0.310   3.088  0.0324 -0.6086  0.0411
 8581SOL     OW34089   4.253   2.313   0.493  0.3270 -0.4377  0.0554
 8581SOL    HW234090   4.332   2.330   0.544  0.6067  1.0957 -0.8247
 8581SOL    HW334091   4.189   2.376   0.526 -0.4904 -1.5275  0.6152
 8581SOL    MW434092   4.255   2.323   0.504  0.0209  0.1219 -0.2806
 8582SOL     OW34093   4.283   5.741   2.896  0.3114  0.0976 -0.3851
 8582SOL    HW234094   4.343   5.685   2.944 -0.0609 -0.6123 -0.7352
 8582SOL    HW334095   4.202   5.691   2.892  0.7207 -0.4445 -2.9223
 8582SOL    MW434096   4.280   5.727   2.902  0.2674 -0.0400  0.0364
 8583SOL     OW34097   2.087   1.906   4.148  0.0979  0.1545 -0.0015
 8583SOL    HW234098   2.002   1.862   4.149  0.7592 -1.1901 -0.6140
 8583SOL    HW334099   2.069   1.993   4.184 -1.6426  0.1067 -0.6547
 8583SOL    MW434100   2.073   1.912   4.153 -0.1875  0.3010 -0.2944
 8584SOL     OW34101   3.407   3.873   1.690 -0.3101 -0.2784 -0.0846
 8584SOL    HW234102   3.351   3.799   1.666 -0.5129 -0.5227  1.0614
 8584SOL    HW334103   3.386   3.890   1.782 -2.1369  2.8906 -0.9699
 8584SOL    MW434104   3.397   3.865   1.699  0.4743 -0.2086 -0.4451
 8585SOL     OW34105   0.250   4.506   1.207 -0.0323 -0.1402 -0.3951
 8585SOL    HW234106   0.327   4.562   1.211 -0.8381  0.9071  1.3006
 8585SOL    HW334107   0.177   4.564   1.226 -1.1155 -1.3727 -0.6359
 8585SOL    MW434108   0.251   4.521   1.210 -0.1624  0.2933  0.0413
 8586SOL     OW34109   2.104   2.480   1.454  0.0101 -0.6562  0.2600
 8586SOL    HW234110   2.191   2.440   1.450 -0.4073 -1.6337  0.4315
 8586SOL    HW334111   2.116   2.561   1.503  0.8799 -0.6132 -0.0154
 8586SOL    MW434112   2.117   2.485   1.460  0.3944  0.6234 -0.0215
 8587SOL     OW34113   0.638   3.446   0.083 -0.1431 -0.2700  0.1060
 8587SOL    HW234114   0.650   3.516   0.148  0.0777 -1.2463  1.1485
 8587SOL    HW334115   0.618   3.368   0.135  0.7950 -1.2546 -0.9564
 8587SOL    MW434116   0.637   3.445   0.098  0.3486  0.3196 -0.2245
 8588SOL     OW34117   0.489   0.707   2.563 -0.9552 -0.1707 -0.2245
 8588SOL    HW234118   0.394   0.721   2.564 -0.9340  0.0169  1.3134
 8588SOL    HW334119   0.526   0.792   2.589 -0.4167 -0.5022  0.1153
 8588SOL    MW434120   0.481   0.720   2.567  0.4319  0.3556  0.4702
 8589SOL     OW34121   3.487   1.169   5.123  0.2904 -0.2147  0.0424
 8589SOL    HW234122   3.452   1.248   5.164  2.1154  0.0865  1.1286
 8589SOL    HW334123   3.535   1.201   5.047  0.6459 -0.3136  0.2231
 8589SOL    MW434124   3.489   1.184   5.118  0.0739  0.1230 -0.5406
 8590SOL     OW34125   3.482   1.819   4.572  0.0551  0.1867  0.3364
 8590SOL    HW234126   3.399   1.784   4.540 -1.1158  2.9361  0.1390
 8590SOL    HW334127   3.492   1.904   4.529  2.0609  0.7625  1.7466
 8590SOL    MW434128   3.473   1.826   4.562 -0.0149 -0.1202  0.2463
 8591SOL     OW34129   5.536   3.765   6.085  0.7297  0.2479  0.0727
 8591SOL    HW234130   5.611   3.786   6.141  1.9359 -2.0571 -0.5685
 8591SOL    HW334131   5.555   3.809   6.002 -0.2551  2.3022  0.8781
 8591SOL    MW434132   5.548   3.774   6.082 -0.1804 -0.2924 -0.2357
 8592SOL     OW34133   2.993   5.855   5.428  0.6741 -0.3181  0.3308
 8592SOL    HW234134   2.960   5.819   5.511  1.1976 -2.2254 -0.2285
 8592SOL    HW334135   3.044   5.783   5.390 -1.0899 -0.2128 -2.5427
 8592SOL    MW434136   2.995   5.840   5.434 -0.4942  0.9651 -0.0666
 8593SOL     OW34137   6.424   1.810   1.538  0.9152  0.0237 -0.0523
 8593SOL    HW234138   6.499   1.753   1.558  0.2269 -0.7153  0.5220
 8593SOL    HW334139   6.394   1.782   1.452  0.8328 -0.2078  0.0505
 8593SOL    MW434140   6.430   1.799   1.530 -0.0830 -0.3990  0.1808
 8594SOL     OW34141   3.153   5.228   5.539 -0.2817  0.2431 -0.1042
 8594SOL    HW234142   3.061   5.226   5.564 -0.1113  1.9422  0.8134
 8594SOL    HW334143   3.166   5.149   5.486 -1.9121 -0.7346  0.9040
 8594SOL    MW434144   3.143   5.217   5.535 -0.0375 -0.3379  0.4446
 8595SOL     OW34145   5.503   0.497   6.336  0.0851 -0.3322 -0.1151
 8595SOL    HW234146   5.528   0.475   6.425  0.3350  1.5753  0.3248
 8595SOL    HW334147   5.490   0.413   6.293  1.9514 -1.3240  1.1403
 8595SOL    MW434148   5.504   0.483   6.342 -0.1004  0.0301 -0.3805
 8596SOL     OW34149   2.393   2.921   3.908 -0.3013 -0.2001 -0.4745
 8596SOL    HW234150   2.346   2.838   3.917  1.0223 -0.7434  2.2771
 8596SOL    HW334151   2.328   2.988   3.929 -0.4821 -0.7901  0.9371
 8596SOL    MW434152   2.378   2.919   3.912  0.5983 -0.5071  1.0546
 8597SOL     OW34153   6.397   0.396   0.519 -0.0596 -0.3359  0.0494
 8597SOL    HW234154   6.327   0.433   0.465  0.8074 -0.3588 -1.1258
 8597SOL    HW334155   6.421   0.466   0.580 -2.6239 -1.0564  2.0518
 8597SOL    MW434156   6.391   0.410   0.520  0.1293 -0.0896 -0.5064
 8598SOL     OW34157   1.837   3.364   1.945  0.3496 -0.1514 -0.1097
 8598SOL    HW234158   1.929   3.388   1.940  0.4153 -0.1305  0.9552
 8598SOL    HW334159   1.809   3.395   2.031 -0.2970 -1.3787  0.1403
 8598SOL    MW434160   1.845   3.371   1.956 -0.3029 -0.0798  0.2327
 8599SOL     OW34161   4.000   4.418   2.694 -0.1294  0.4560 -0.1895
 8599SOL    HW234162   4.008   4.332   2.652  1.1267  1.1426 -1.4256
 8599SOL    HW334163   3.937   4.404   2.765  1.6057 -1.9816  1.0000
 8599SOL    MW434164   3.992   4.405   2.698 -0.1200  0.4678 -0.3729
 8600SOL     OW34165   5.152   5.455   4.391 -0.2256 -0.0550  0.0475
 8600SOL    HW234166   5.188   5.377   4.349  2.1196  0.3997  1.0541
 8600SOL    HW334167   5.116   5.423   4.474 -0.0154 -0.2030  0.0846
 8600SOL    MW434168   5.152   5.441   4.396  0.0212 -0.2980 -0.4928
 8601SOL     OW34169   3.849   6.234   5.390 -0.0045  0.5277  0.2046
 8601SOL    HW234170   3.903   6.245   5.467  1.5821  0.1867 -0.8100
 8601SOL    HW334171   3.899   6.275   5.319 -1.9479  1.9168 -0.4742
 8601SOL    MW434172   3.863   6.241   5.391  0.2147 -0.0508  0.3310
 8602SOL     OW34173   1.342   4.858   2.606 -0.0013  0.2543 -0.0786
 8602SOL    HW234174   1.399   4.900   2.541 -1.0251  1.3792 -0.2978
 8602SOL    HW334175   1.378   4.885   2.690 -0.2890  1.1385 -0.2184
 8602SOL    MW434176   1.354   4.867   2.609  0.1944  0.1521 -0.0921
 8603SOL     OW34177   3.812   4.920   5.637  0.5801  0.1251  0.1628
 8603SOL    HW234178   3.870   4.973   5.692  1.0701 -0.2274 -0.0084
 8603SOL    HW334179   3.869   4.884   5.569  0.4662 -1.4256  0.8419
 8603SOL    MW434180   3.827   4.922   5.635 -0.7774  0.1129  0.3084
 8604SOL     OW34181   0.807   0.001   2.281  0.1824  0.3843  0.3404
 8604SOL    HW234182   0.771  -0.037   2.200  1.6998 -0.8658  0.1925
 8604SOL    HW334183   0.766   0.087   2.288 -0.2851  0.3574 -1.5526
 8604SOL    MW434184   0.797   0.007   2.271  0.2712  0.2977  0.2680
 8605SOL     OW34185   5.264   6.131   5.128  0.1321  0.5792 -0.4651
 8605SOL    HW234186   5.171   6.134   5.150  0.6632  1.6998  1.9098
 8605SOL    HW334187   5.274   6.052   5.075 -1.8127 -0.7909  1.0908
 8605SOL    MW434188   5.253   6.121   5.124 -0.5254 -0.5045 -0.3660
 8606SOL     OW34189   6.357   5.370   1.437  0.0936  0.6038 -0.2378
 8606SOL    HW234190   6.276   5.422   1.440 -1.0735 -1.1223 -0.0912
 8606SOL    HW334191   6.407   5.409   1.366 -0.8800  1.7001 -0.3666
 8606SOL    MW434192   6.353   5.382   1.428  0.0554 -0.4149  0.2626
 8607SOL     OW34193   5.250   5.201   0.510 -0.2979  0.5866 -0.1350
 8607SOL    HW234194   5.220   5.290   0.490  1.2730  1.5575  1.4844
 8607SOL    HW334195   5.256   5.158   0.425 -0.0433  2.4077 -1.0774
 8607SOL    MW434196   5.247   5.207   0.496 -0.3310  0.0621 -0.2903
 8608SOL     OW34197   6.303   1.159   3.631  0.0759  0.3002 -0.1368
 8608SOL    HW234198   6.278   1.099   3.561 -3.8065  1.0038  0.4640
 8608SOL    HW334199   6.309   1.245   3.589 -1.4858  0.5927  0.1796
 8608SOL    MW434200   6.301   1.162   3.616  0.3483  0.0962  0.4246
 8609SOL     OW34201   2.868   1.329   5.580 -0.2847 -0.7584  0.5354
 8609SOL    HW234202   2.870   1.273   5.658  0.4587  0.0155  1.0981
 8609SOL    HW334203   2.831   1.273   5.511  0.5276 -1.9808  1.0418
 8609SOL    MW434204   2.863   1.314   5.581  0.2377 -0.6256  0.0081
 8610SOL     OW34205   2.413   6.142   5.987 -0.4728  0.0878 -0.1276
 8610SOL    HW234206   2.395   6.203   6.058 -0.0962  0.8947 -0.7081
 8610SOL    HW334207   2.462   6.194   5.922 -0.9802 -0.5653 -1.0644
 8610SOL    MW434208   2.417   6.157   5.988 -0.3975 -0.1752 -0.1591
 8611SOL     OW34209   1.041   4.524   0.958  0.7257  0.1212  0.5722
 8611SOL    HW234210   0.987   4.462   0.909  0.4485  0.4961  0.3953
 8611SOL    HW334211   1.015   4.610   0.924  2.3419  0.2471 -0.4305
 8611SOL    MW434212   1.030   4.527   0.947  0.1698  0.3240  0.1697
 8612SOL     OW34213   0.335   1.215   0.400 -0.0677  0.4902  0.2884
 8612SOL    HW234214   0.260   1.171   0.439 -0.6669  0.7469 -0.5338
 8612SOL    HW334215   0.297   1.287   0.350  0.7239  0.6144 -0.1507
 8612SOL    MW434216   0.320   1.218   0.398  0.2796 -0.4754 -0.2040
 8613SOL     OW34217   0.994   5.726   3.115  0.0917 -0.3070 -0.1418
 8613SOL    HW234218   0.998   5.670   3.037 -1.9320  0.6407 -1.0151
 8613SOL    HW334219   1.081   5.765   3.121  0.3799 -0.6178 -1.7750
 8613SOL    MW434220   1.006   5.723   3.105  0.1020  0.2183  0.7530
 8614SOL     OW34221   3.862   1.985   3.285 -0.1074 -0.0729  0.4954
 8614SOL    HW234222   3.901   1.972   3.371 -1.4056 -1.8285  0.8832
 8614SOL    HW334223   3.776   2.024   3.303 -0.6106 -0.9509  0.0407
 8614SOL    MW434224   3.856   1.989   3.299 -0.1976 -0.6646  0.0362
 8615SOL     OW34225   1.449   4.056   5.595  0.4229 -0.1514  0.5489
 8615SOL    HW234226   1.378   3.991   5.595 -1.0781  1.3823 -0.6259
 8615SOL    HW334227   1.423   4.119   5.662 -1.9476  2.9066 -2.8463
 8615SOL    MW434228   1.436   4.056   5.604  0.1821  0.2807  0.6763
 8616SOL     OW34229   5.253   0.650   2.811 -0.0189  0.6053  0.0057
 8616SOL    HW234230   5.317   0.675   2.878  0.3653 -2.3116  0.8982
 8616SOL    HW334231   5.307   0.616   2.739 -0.5009  1.1744 -0.6310
 8616SOL    MW434232   5.269   0.649   2.810  0.4175  0.7608  0.0313
 8617SOL     OW34233   0.967   5.642   6.039 -0.0112  0.2090 -0.2500
 8617SOL    HW234234   0.977   5.650   6.134  0.4924 -1.6839 -0.1122
 8617SOL    HW334235   0.969   5.548   6.022 -0.2696  0.5034 -2.1306
 8617SOL    MW434236   0.969   5.631   6.049 -0.1975  0.2695 -0.1758
 8618SOL     OW34237   1.242   4.912   3.355 -0.0961  0.2088 -0.0028
 8618SOL    HW234238   1.212   4.822   3.371  0.3242 -0.0011 -0.3787
 8618SOL    HW334239   1.313   4.925   3.418  0.5055 -0.0729 -0.6070
 8618SOL    MW434240   1.247   4.902   3.366  0.0401  0.4289 -0.7842
 8619SOL     OW34241   0.852   1.694   5.459 -0.2160 -0.6782 -0.3339
 8619SOL    HW234242   0.809   1.616   5.423 -0.1410 -0.2301 -1.4429
 8619SOL    HW334243   0.895   1.734   5.383  0.6495 -0.1367  0.4220
 8619SOL    MW434244   0.852   1.689   5.444  0.6018 -0.1318 -0.4463
 8620SOL     OW34245   2.772   3.994   0.031  0.2582  0.4908 -0.0961
 8620SOL    HW234246   2.752   3.930  -0.037  1.1645  0.9268 -0.8093
 8620SOL    HW334247   2.703   4.060   0.023 -0.9073 -0.5594  0.9066
 8620SOL    MW434248   2.760   3.995   0.021 -0.4075 -0.7017  0.1572
 8621SOL     OW34249   3.165   1.002   1.623  0.5331 -0.0806 -0.3536
 8621SOL    HW234250   3.134   1.041   1.705 -1.7645 -0.4235 -0.9811
 8621SOL    HW334251   3.241   1.054   1.598 -0.1219  1.4933  0.8166
 8621SOL    MW434252   3.171   1.014   1.630 -0.6597  0.2699 -0.9636
 8622SOL     OW34253   1.398   0.261   3.723 -0.6597  0.2137 -0.0369
 8622SOL    HW234254   1.490   0.273   3.699 -0.4464  0.3601  0.8177
 8622SOL    HW334255   1.356   0.343   3.697 -0.3316  0.5750  0.5490
 8622SOL    MW434256   1.405   0.274   3.716 -0.6653 -0.3890 -0.0948
 8623SOL     OW34257   4.175   0.567   6.421  0.0639 -0.2490 -0.3602
 8623SOL    HW234258   4.179   0.513   6.501  0.5389 -2.2121 -1.6411
 8623SOL    HW334259   4.256   0.544   6.374  0.4669  1.9023 -0.8078
 8623SOL    MW434260   4.186   0.557   6.426 -0.5066  0.1204  0.4483
 8624SOL     OW34261   3.568   5.048   5.525  0.0570  0.0596 -0.2381
 8624SOL    HW234262   3.521   5.039   5.443 -1.0773 -1.3566  0.5171
 8624SOL    HW334263   3.630   4.975   5.526 -1.6268 -1.4208  1.1909
 8624SOL    MW434264   3.570   5.037   5.515 -0.2625  0.1525 -0.8372
 8625SOL     OW34265   4.796   1.993   1.277 -0.3889 -0.1051  0.2939
 8625SOL    HW234266   4.862   1.923   1.276  0.1474  0.3563  1.6006
 8625SOL    HW334267   4.845   2.072   1.298 -1.1535  0.5101 -0.1830
 8625SOL    MW434268   4.811   1.994   1.279  0.2956  0.0143  0.2496
 8626SOL     OW34269   1.564   5.768   3.500 -0.6200  0.3166  0.1868
 8626SOL    HW234270   1.648   5.814   3.504  1.6938 -3.2804 -1.9053
 8626SOL    HW334271   1.525   5.797   3.417 -0.1422  0.0506 -0.1367
 8626SOL    MW434272   1.570   5.778   3.489 -0.6563 -0.1927  0.3765
 8627SOL     OW34273   4.747   0.461   0.663  0.0338 -0.2789  0.3455
 8627SOL    HW234274   4.741   0.391   0.597  0.0378  0.3569 -0.3457
 8627SOL    HW334275   4.686   0.435   0.732 -0.1141 -0.8648  0.0025
 8627SOL    MW434276   4.739   0.448   0.663 -0.4997  0.3012 -0.6271
 8628SOL     OW34277   1.654   1.384   2.641  0.2081  0.2285 -0.2596
 8628SOL    HW234278   1.615   1.298   2.622  0.0226  0.5050 -1.1584
 8628SOL    HW334279   1.580   1.444   2.643  0.4881  0.6045 -1.0751
 8628SOL    MW434280   1.639   1.380   2.639  0.2270 -0.3622  0.1948
 8629SOL     OW34281   1.013   3.578   3.802 -0.3687  0.1017 -0.4074
 8629SOL    HW234282   1.018   3.486   3.826 -0.3169  0.3392  0.5332
 8629SOL    HW334283   0.920   3.593   3.786 -0.2319 -0.3897 -1.7435
 8629SOL    MW434284   1.001   3.568   3.803 -0.0524  0.2567  0.3686
 8630SOL     OW34285   1.127   5.408   1.320 -0.1172  0.4157 -0.1679
 8630SOL    HW234286   1.222   5.417   1.312  0.1134 -1.8528 -0.7103
 8630SOL    HW334287   1.094   5.428   1.232 -0.1011  0.8042 -0.0856
 8630SOL    MW434288   1.135   5.412   1.307 -0.3970  0.0188 -0.3934
 8631SOL     OW34289   2.928   3.910   5.536 -0.1534  0.3053  0.7092
 8631SOL    HW234290   2.873   3.924   5.458 -2.1224 -0.6948  1.8567
 8631SOL    HW334291   2.915   3.819   5.559  1.6602  0.1577  1.3457
 8631SOL    MW434292   2.919   3.900   5.528 -0.8988  0.6584 -0.3148
 8632SOL     OW34293   5.961   4.073   1.283  0.1848  0.5751 -0.4700
 8632SOL    HW234294   5.928   4.162   1.274 -0.1142  0.4313 -0.8202
 8632SOL    HW334295   5.883   4.017   1.279  0.2004  0.3740  1.2920
 8632SOL    MW434296   5.947   4.077   1.281 -1.1635 -0.4441 -0.5299
 8633SOL     OW34297   5.254   2.838   1.115 -0.3812 -0.2043  0.1116
 8633SOL    HW234298   5.264   2.764   1.055 -1.2838  0.2238 -0.5934
 8633SOL    HW334299   5.207   2.904   1.063  2.2589  1.7103  0.0067
 8633SOL    MW434300   5.249   2.837   1.100  0.3383  0.4276  0.7713
 8634SOL     OW34301   2.528   0.280   5.460  0.5854 -0.8339  0.1325
 8634SOL    HW234302   2.454   0.277   5.399  0.7128  0.1649 -0.0917
 8634SOL    HW334303   2.489   0.257   5.545 -0.0934  0.1179  0.1025
 8634SOL    MW434304   2.513   0.277   5.463 -0.0349  0.3574 -0.2266
 8635SOL     OW34305   5.602   1.963   4.714 -0.6153  0.8126 -0.5862
 8635SOL    HW234306   5.509   1.944   4.725 -0.8572  1.9805 -0.5606
 8635SOL    HW334307   5.608   2.012   4.633 -0.0830  1.1641 -0.3405
 8635SOL    MW434308   5.591   1.967   4.705  0.0735 -0.3066  0.6306
 8636SOL     OW34309   3.489   0.491   4.470 -0.3876  0.2863  0.7656
 8636SOL    HW234310   3.493   0.470   4.377 -1.4459  1.4294  0.4426
 8636SOL    HW334311   3.540   0.571   4.479 -2.8555  1.9605  0.5818
 8636SOL    MW434312   3.497   0.499   4.459 -0.7187  0.3019 -0.2353
 8637SOL     OW34313   5.127   1.380   6.181 -0.8061 -0.8546  0.2612
 8637SOL    HW234314   5.064   1.371   6.110  0.1980 -0.3547 -0.7260
 8637SOL    HW334315   5.212   1.364   6.140 -0.1554  0.0315  1.2139
 8637SOL    MW434316   5.130   1.377   6.166  0.1588  0.0973 -0.0407
 8638SOL     OW34317   4.776   0.299   2.133 -0.3917 -0.0220  0.4715
 8638SOL    HW234318   4.839   0.367   2.108  1.2996 -0.6935  2.6023
 8638SOL    HW334319   4.830   0.224   2.157 -2.1241 -1.3261  0.4876
 8638SOL    MW434320   4.792   0.298   2.133  0.0673  0.2994 -0.3052
 8639SOL     OW34321   3.698   6.191   6.181  0.1382  0.6036  0.0025
 8639SOL    HW234322   3.671   6.151   6.098  0.5079 -2.3266  1.1839
 8639SOL    HW334323   3.624   6.246   6.206 -0.8448 -0.0944 -1.2536
 8639SOL    MW434324   3.685   6.193   6.174  0.8962  0.0945  0.3758
 8640SOL     OW34325   2.633   4.724   1.299  0.5174  0.0812 -0.2452
 8640SOL    HW234326   2.614   4.805   1.348  0.0365 -0.0694 -0.1849
 8640SOL    HW334327   2.632   4.751   1.207  0.4953  0.1730 -0.2183
 8640SOL    MW434328   2.631   4.739   1.294 -0.1543 -0.0931  0.1330
 8641SOL     OW34329   4.489   4.334   3.745 -0.0106 -0.1106  0.1564
 8641SOL    HW234330   4.442   4.376   3.672 -1.3405 -1.3165  0.2719
 8641SOL    HW334331   4.422   4.284   3.791  1.2247 -1.1023  0.9476
 8641SOL    MW434332   4.474   4.333   3.741  0.3257  0.4878 -0.3693
 8642SOL     OW34333   5.581   1.396   4.742  1.1366  0.4507 -0.3853
 8642SOL    HW234334   5.569   1.433   4.830 -0.8294 -0.8293 -0.0500
 8642SOL    HW334335   5.599   1.472   4.687 -0.2365  1.6283  0.7025
 8642SOL    MW434336   5.582   1.411   4.746  0.1675  0.3514  0.0123
 8643SOL     OW34337   1.240   5.323   1.970 -0.5802  0.2600  0.1234
 8643SOL    HW234338   1.200   5.397   2.018 -0.1223  0.3679  0.3400
 8643SOL    HW334339   1.313   5.296   2.025 -1.3381 -1.0090  0.5429
 8643SOL    MW434340   1.244   5.330   1.984  0.3721 -0.2235  0.0802
 8644SOL     OW34341   1.565   5.820   6.152 -0.2217  0.0886 -0.2345
 8644SOL    HW234342   1.572   5.866   6.235 -0.8594 -1.1810  0.5428
 8644SOL    HW334343   1.606   5.879   6.088  0.4866  0.9659  1.0042
 8644SOL    MW434344   1.571   5.834   6.154  0.2086  0.2582  1.5411
 8645SOL     OW34345   0.844   5.617   4.247 -0.0233  0.2187  0.5674
 8645SOL    HW234346   0.835   5.706   4.283  0.9330 -0.0342  1.4652
 8645SOL    HW334347   0.766   5.606   4.193 -0.1052  1.6545  0.3354
 8645SOL    MW434348   0.833   5.627   4.245  0.3941  0.0414 -0.5490
 8646SOL     OW34349   4.927   0.791   0.339  0.0040  0.0824 -0.1679
 8646SOL    HW234350   4.866   0.719   0.324  1.0185 -0.4614 -2.0561
 8646SOL    HW334351   4.871   0.866   0.360 -1.0616 -1.2012  1.7366
 8646SOL    MW434352   4.912   0.792   0.340  0.0322  0.1031 -0.1186
 8647SOL     OW34353   3.767   1.133   0.602  0.0254  0.3281  0.0812
 8647SOL    HW234354   3.748   1.183   0.682 -0.0068  0.7844 -0.2052
 8647SOL    HW334355   3.703   1.164   0.538  0.2601  0.2074 -0.2179
 8647SOL    MW434356   3.756   1.144   0.604 -0.1949 -0.2298  0.4141
 8648SOL     OW34357   2.758   3.413   0.551 -0.0420  0.1281  0.2967
 8648SOL    HW234358   2.744   3.384   0.641 -3.3395  1.9682  0.5385
 8648SOL    HW334359   2.741   3.507   0.553  0.8038  0.4143 -2.1022
 8648SOL    MW434360   2.754   3.422   0.563  0.4620 -0.3579  0.2605
 8649SOL     OW34361   0.869   1.689   0.603 -0.0568  0.0571 -0.5873
 8649SOL    HW234362   0.906   1.642   0.678 -0.1701  0.5014 -0.2477
 8649SOL    HW334363   0.793   1.636   0.577 -1.6514  1.2524  1.3230
 8649SOL    MW434364   0.864   1.676   0.610 -0.0881 -0.2260  0.4000
 8650SOL     OW34365   3.771   0.250   6.258  0.1314 -0.0934  0.3097
 8650SOL    HW234366   3.837   0.310   6.292  0.4110 -0.5334  0.5445
 8650SOL    HW334367   3.770   0.177   6.320  1.3544 -1.4042 -1.1336
 8650SOL    MW434368   3.779   0.248   6.270  0.5289  0.2561 -0.4044
 8651SOL     OW34369   3.169   0.213   4.861 -0.1849 -0.1878  0.0576
 8651SOL    HW234370   3.125   0.139   4.901 -1.6346 -0.1516 -1.3953
 8651SOL    HW334371   3.235   0.174   4.803 -1.6353 -0.4333 -1.5001
 8651SOL    MW434372   3.172   0.198   4.859  0.1749 -0.4663 -0.1324
 8652SOL     OW34373   2.498   3.948   1.106  0.1699  0.5114 -0.1065
 8652SOL    HW234374   2.421   3.898   1.079 -0.1803  1.8604 -1.8560
 8652SOL    HW334375   2.478   4.038   1.078  1.5896  1.2433  1.1311
 8652SOL    MW434376   2.485   3.953   1.099  0.3077  0.1830 -0.2718
 8653SOL     OW34377   3.712   3.895   1.894 -0.3096 -0.1322 -0.1053
 8653SOL    HW234378   3.699   3.972   1.949  1.4163  0.4135 -0.3882
 8653SOL    HW334379   3.709   3.928   1.804  0.5324 -0.3595 -0.2290
 8653SOL    MW434380   3.710   3.909   1.889  0.2300  0.2274  0.0557
 8654SOL     OW34381   2.367   0.221   3.397  0.2158  0.2939  0.0028
 8654SOL    HW234382   2.387   0.191   3.485 -1.9249 -0.7021  0.2136
 8654SOL    HW334383   2.295   0.283   3.408  0.4917  0.8236 -0.9953
 8654SOL    MW434384   2.360   0.225   3.410 -0.1297  0.4862 -0.5349
 8655SOL     OW34385   4.053   2.855   4.584 -0.4409  0.9486  0.3634
 8655SOL    HW234386   4.136   2.809   4.600 -0.9728 -0.0803  0.2700
 8655SOL    HW334387   4.061   2.937   4.633 -0.2817 -0.1817  2.3254
 8655SOL    MW434388   4.065   2.860   4.593 -0.3067  0.1229 -0.1870
 8656SOL     OW34389   4.353   1.258   3.195  0.2252  0.1157  0.0262
 8656SOL    HW234390   4.385   1.221   3.277  0.5778  0.2652 -0.0450
 8656SOL    HW334391   4.364   1.189   3.130 -1.6992 -0.6565  0.4454
 8656SOL    MW434392   4.358   1.244   3.197  0.0395  0.5044  0.4035
 8657SOL     OW34393   1.856   5.680   0.659  0.0792  0.3494  0.0411
 8657SOL    HW234394   1.770   5.696   0.697  0.0723 -1.1316  0.7444
 8657SOL    HW334395   1.917   5.724   0.717 -0.0638 -0.4764  0.8537
 8657SOL    MW434396   1.852   5.688   0.671 -0.8236  0.3299  0.2714
 8658SOL     OW34397   0.824   1.787   0.107 -0.1825  0.0946 -0.4394
 8658SOL    HW234398   0.915   1.787   0.079 -0.2916  1.0032 -0.8202
 8658SOL    HW334399   0.828   1.784   0.203  0.2459  0.3741 -0.4484
 8658SOL    MW434400   0.837   1.787   0.116 -0.4813  1.2506  0.3367
 8659SOL     OW34401   3.271   4.824   5.174 -0.5289 -0.0548  0.1550
 8659SOL    HW234402   3.354   4.817   5.126  0.1809  1.5203  1.0821
 8659SOL    HW334403   3.257   4.736   5.210  1.4092 -0.0546  1.0322
 8659SOL    MW434404   3.280   4.811   5.172  0.4108 -0.5612 -0.3966
 8660SOL     OW34405   2.749   3.307   0.809 -0.2416  0.1424 -0.1892
 8660SOL    HW234406   2.763   3.217   0.779 -0.4653 -0.4524  1.3671
 8660SOL    HW334407   2.829   3.329   0.856  0.2769  1.2010 -1.5107
 8660SOL    MW434408   2.761   3.298   0.811  0.3037 -0.1679  0.6834
 8661SOL     OW34409   1.210   3.387   1.626 -0.4668 -0.0966 -0.0975
 8661SOL    HW234410   1.239   3.396   1.535 -1.4478 -0.8914 -0.5192
 8661SOL    HW334411   1.289   3.365   1.675  0.4555  2.3252 -0.3842
 8661SOL    MW434412   1.224   3.385   1.620  0.2136 -0.5048  0.4094
 8662SOL     OW34413   1.371   6.338   0.989 -0.9775 -0.6997  0.2021
 8662SOL    HW234414   1.430   6.277   1.033  2.1395 -0.0446 -2.6197
 8662SOL    HW334415   1.294   6.343   1.046  1.1626 -2.5378  3.5694
 8662SOL    MW434416   1.368   6.330   1.002 -0.3726 -0.0641  0.4557
 8663SOL     OW34417   0.016   2.458   2.642  0.2756 -0.5871 -0.1211
 8663SOL    HW234418  -0.064   2.420   2.677 -0.1845  0.8381  0.4365
 8663SOL    HW334419   0.000   2.465   2.548 -1.2232  1.7707  0.2274
 8663SOL    MW434420   0.004   2.454   2.634  0.0724 -0.4279 -0.0109
 8664SOL     OW34421   0.875   4.164   1.914  0.1621 -0.1730  0.1715
 8664SOL    HW234422   0.921   4.094   1.959  1.1493 -0.2420 -0.9157
 8664SOL    HW334423   0.872   4.137   1.822 -0.9342  0.4236  0.0029
 8664SOL    MW434424   0.880   4.151   1.907  0.5862  0.4751 -0.2481
 8665SOL     OW34425   4.081   5.717   5.886 -0.0461  0.8941  0.0069
 8665SOL    HW234426   4.006   5.661   5.865  1.1619 -0.5207 -0.7129
 8665SOL    HW334427   4.156   5.659   5.881  1.0613  2.1243  1.3781
 8665SOL    MW434428   4.081   5.702   5.883  0.4153 -0.1446  0.5626
 8666SOL     OW34429   4.008   0.611   4.151  0.3605  0.5786 -0.4763
 8666SOL    HW234430   4.068   0.539   4.168  0.1686  0.7359  1.0460
 8666SOL    HW334431   4.056   0.670   4.093  2.1630  1.2207  1.5359
 8666SOL    MW434432   4.022   0.609   4.146  0.1415 -0.1450 -0.3273
 8667SOL     OW34433   1.977   0.177   3.277  0.3938 -0.5909  0.4047
 8667SOL    HW234434   1.933   0.205   3.197 -0.1053  0.5207  1.0412
 8667SOL    HW334435   2.020   0.256   3.310  1.3207 -1.2273  0.7803
 8667SOL    MW434436   1.977   0.191   3.271 -0.1356 -0.7993 -0.4568
 8668SOL     OW34437   1.116   5.889   5.094 -0.3519 -0.0299 -0.6786
 8668SOL    HW234438   1.202   5.924   5.073 -0.2736 -0.8435 -1.8269
 8668SOL    HW334439   1.073   5.880   5.009 -0.5085 -2.2822 -0.4209
 8668SOL    MW434440   1.122   5.892   5.080 -0.4679 -1.3587 -0.2683
 8669SOL     OW34441   1.772   6.382   4.826 -0.5997 -0.5801 -0.4598
 8669SOL    HW234442   1.810   6.353   4.743  0.1010  0.4335 -0.5065
 8669SOL    HW334443   1.678   6.368   4.816 -0.4417 -1.1914 -1.1258
 8669SOL    MW434444   1.765   6.376   4.814  0.1050 -0.0400  0.4365
 8670SOL     OW34445   0.742   4.005   2.422  0.2614 -0.0202 -0.0796
 8670SOL    HW234446   0.765   4.014   2.514  1.8090  1.1674 -0.5308
 8670SOL    HW334447   0.794   3.931   2.391 -0.2164 -0.3845 -0.0145
 8670SOL    MW434448   0.752   3.996   2.430  0.3258  0.1170 -0.1744
 8671SOL     OW34449   4.775   4.571   4.032 -0.4177  0.0562 -0.4299
 8671SOL    HW234450   4.716   4.640   4.062 -1.9660 -0.8158 -1.3335
 8671SOL    HW334451   4.720   4.493   4.028  1.7523 -1.9289  2.9438
 8671SOL    MW434452   4.760   4.570   4.036  0.1193  0.0417 -0.6666
 8672SOL     OW34453   4.464   5.967   3.958  0.4289  0.2308  0.6345
 8672SOL    HW234454   4.465   6.005   3.870 -0.7675  1.5798  1.1550
 8672SOL    HW334455   4.464   5.872   3.943  1.3725  0.4213 -0.7744
 8672SOL    MW434456   4.464   5.959   3.944 -0.4355  0.0792 -0.3732
 8673SOL     OW34457   1.404   2.604   3.195  0.9141 -0.6735 -0.5579
 8673SOL    HW234458   1.335   2.670   3.198  2.0196  0.4630  0.8575
 8673SOL    HW334459   1.360   2.527   3.158 -1.1829 -0.0736  0.4919
 8673SOL    MW434460   1.389   2.602   3.191  0.3300 -0.0830 -0.0050
 8674SOL     OW34461   4.988   2.161   5.760  0.1497 -0.5756 -0.0453
 8674SOL    HW234462   4.913   2.114   5.797 -1.0298  2.8007  2.3954
 8674SOL    HW334463   5.061   2.137   5.816 -0.1085 -0.6238  0.2763
 8674SOL    MW434464   4.987   2.152   5.772  0.6086  0.3514  0.2080
 8675SOL     OW34465   2.469   4.831   3.819 -0.7834  0.0186 -0.6386
 8675SOL    HW234466   2.403   4.762   3.828 -0.5078 -0.1667 -0.0302
 8675SOL    HW334467   2.534   4.795   3.759 -0.9460 -0.0173 -0.7939
 8675SOL    MW434468   2.469   4.817   3.812  0.4381  0.0139  0.6518
 8676SOL     OW34469   4.922   0.407   1.655  0.5551 -0.3263  0.3035
 8676SOL    HW234470   4.911   0.498   1.683 -0.8235 -0.1938 -0.5508
 8676SOL    HW334471   4.874   0.356   1.720  0.5699 -0.3513  0.2948
 8676SOL    MW434472   4.914   0.412   1.667  0.5002 -0.2397  0.2973
 8677SOL     OW34473   0.339   2.733   5.296 -0.7173  0.0292 -0.2445
 8677SOL    HW234474   0.264   2.701   5.346 -1.4054 -2.3727 -2.5603
 8677SOL    HW334475   0.388   2.654   5.272  0.6952  1.2247 -1.5940
 8677SOL    MW434476   0.336   2.718   5.299  0.3022 -0.5066  0.1753
 8678SOL     OW34477   2.629   4.531   4.357  0.4170 -0.2065 -0.1464
 8678SOL    HW234478   2.548   4.573   4.385 -0.1026 -2.4390  2.1208
 8678SOL    HW334479   2.697   4.597   4.372 -0.8584  1.5367 -1.6206
 8678SOL    MW434480   2.627   4.545   4.363 -0.4530  0.3016 -0.2352
 8679SOL     OW34481   0.343   2.269   6.380 -0.6108 -0.2194  0.1176
 8679SOL    HW234482   0.286   2.287   6.455 -2.2480 -0.4874 -1.0065
 8679SOL    HW334483   0.350   2.352   6.334  0.1020 -0.1359  0.3714
 8679SOL    MW434484   0.336   2.282   6.384  0.2642 -0.7091  0.0213
 8680SOL     OW34485   1.526   0.425   5.860 -0.2667 -0.5385  0.3700
 8680SOL    HW234486   1.514   0.519   5.844  1.4788 -0.2027  0.8002
 8680SOL    HW334487   1.478   0.382   5.790 -0.5139  0.6998 -0.2382
 8680SOL    MW434488   1.518   0.432   5.849 -0.7852 -0.7435  0.4663
 8681SOL     OW34489   2.675   5.598   5.665  0.0085  0.2191  0.1548
 8681SOL    HW234490   2.612   5.527   5.655  0.8492 -0.6052  0.6018
 8681SOL    HW334491   2.760   5.559   5.643  0.1734  1.7819 -2.2669
 8681SOL    MW434492   2.678   5.584   5.661  0.5676 -0.2773  0.5909
 8682SOL     OW34493   5.925   1.985   1.633 -0.1671 -0.6135 -0.0681
 8682SOL    HW234494   5.938   2.071   1.673  0.4769  0.0555 -1.6164
 8682SOL    HW334495   6.009   1.940   1.645  0.2877 -0.1244 -1.2667
 8682SOL    MW434496   5.938   1.991   1.640 -0.1270  0.2360  0.1305
 8683SOL     OW34497   3.043   3.770   2.204 -0.0124  0.2577 -0.5349
 8683SOL    HW234498   3.073   3.768   2.113  0.6255  0.1242 -0.3326
 8683SOL    HW334499   3.026   3.862   2.222  1.8005  0.5621 -0.1955
 8683SOL    MW434500   3.045   3.782   2.194 -0.7229  0.2002 -0.2013
 8684SOL     OW34501   5.258   3.848   1.089 -0.2638  0.2354  0.2989
 8684SOL    HW234502   5.165   3.832   1.108 -0.0944 -0.9412  0.2303
 8684SOL    HW334503   5.288   3.904   1.161 -1.0391  0.6770  0.2834
 8684SOL    MW434504   5.250   3.853   1.101 -0.4117 -0.2915  0.5718
 8685SOL     OW34505   0.116   3.177   1.564  0.2982  0.1950 -0.1374
 8685SOL    HW234506   0.203   3.218   1.565 -0.9831  3.1045  0.3397
 8685SOL    HW334507   0.108   3.140   1.476  2.6381 -1.7418  0.3488
 8685SOL    MW434508   0.127   3.177   1.552  0.1230  0.4498  0.1062
 8686SOL     OW34509   5.208   3.304   4.122 -0.3748 -0.2164  0.0862
 8686SOL    HW234510   5.220   3.396   4.100  0.9226 -0.5977 -0.9108
 8686SOL    HW334511   5.187   3.262   4.039 -0.6738 -0.8811  0.4880
 8686SOL    MW434512   5.207   3.310   4.108 -0.2029  0.2807 -0.1427
 8687SOL     OW34513   6.428   3.490   0.043  0.0204 -0.0199 -0.3545
 8687SOL    HW234514   6.520   3.474   0.062  0.2746 -1.0695 -2.2093
 8687SOL    HW334515   6.393   3.529   0.124  1.3823 -2.3376  1.4938
 8687SOL    MW434516   6.435   3.493   0.056  0.0029 -0.0560 -0.3960
 8688SOL     OW34517   1.963   0.469   0.657  0.2898  0.1348  0.7218
 8688SOL    HW234518   1.939   0.376   0.657 -1.0984  0.4518 -0.3746
 8688SOL    HW334519   1.924   0.503   0.737  0.6609 -0.1829  1.0435
 8688SOL    MW434520   1.955   0.461   0.668 -0.6635  0.1807  0.1654
 8689SOL     OW34521   0.504   0.606   3.667 -0.4900 -0.1390  0.0793
 8689SOL    HW234522   0.487   0.700   3.663 -1.8991 -0.3950 -0.4282
 8689SOL    HW334523   0.418   0.566   3.659 -0.2642 -1.4617  3.0144
 8689SOL    MW434524   0.491   0.613   3.665 -0.0375 -0.1781 -0.2112
 8690SOL     OW34525   5.482   4.159   5.995  0.3300 -0.1486  0.5793
 8690SOL    HW234526   5.419   4.094   6.026  0.5510 -0.2015  0.9243
 8690SOL    HW334527   5.471   4.233   6.055 -0.7455  0.6132 -0.5147
 8690SOL    MW434528   5.472   4.160   6.007  0.0673  0.2741 -0.2900
 8691SOL     OW34529   5.827   1.910   6.165  0.3913 -0.4021  0.4234
 8691SOL    HW234530   5.914   1.919   6.124  0.0263  0.1810 -0.2443
 8691SOL    HW334531   5.827   1.821   6.201  1.6447 -0.0546  1.3344
 8691SOL    MW434532   5.839   1.899   6.164  0.3251 -0.2468 -0.3450
 8692SOL     OW34533   1.355   6.032   3.533  0.4322 -0.7839  0.4443
 8692SOL    HW234534   1.392   6.100   3.590  1.0393 -0.3580 -0.4416
 8692SOL    HW334535   1.431   5.991   3.492 -0.0398  0.3750 -1.7106
 8692SOL    MW434536   1.370   6.036   3.535 -0.3660  0.1972 -0.2180
 8693SOL     OW34537   4.064   0.088   2.105 -0.1241  0.4107  0.3871
 8693SOL    HW234538   3.971   0.109   2.119 -0.4046 -1.5023  1.8282
 8693SOL    HW334539   4.110   0.136   2.175  0.0892  1.8102 -0.6647
 8693SOL    MW434540   4.058   0.097   2.116  0.5079  0.1676  0.0153
 8694SOL     OW34541   1.108   3.302   3.100  0.0895  0.2134  0.7683
 8694SOL    HW234542   1.132   3.348   3.019  1.0413  0.5823  1.2507
 8694SOL    HW334543   1.013   3.316   3.108 -0.1437 -0.3595 -0.5999
 8694SOL    MW434544   1.098   3.310   3.090  0.2351  0.2183  0.1232
 8695SOL     OW34545   2.726   5.495   6.004 -0.2843 -0.5445  0.0948
 8695SOL    HW234546   2.785   5.569   5.990  1.3135 -1.9649 -1.1705
 8695SOL    HW334547   2.756   5.456   6.086 -0.5598 -0.2855  0.3175
 8695SOL    MW434548   2.738   5.500   6.013  0.1517  0.7571 -0.2069
 8696SOL     OW34549   1.451   4.319   0.520 -0.2462  0.4235 -0.3246
 8696SOL    HW234550   1.466   4.295   0.612  1.2425  1.3410 -0.2868
 8696SOL    HW334551   1.394   4.396   0.525 -1.4784 -0.4627 -0.2662
 8696SOL    MW434552   1.446   4.326   0.533  0.1957  0.0711 -0.7533
 8697SOL     OW34553   2.336   0.387   2.287  0.1813 -0.4859 -0.0215
 8697SOL    HW234554   2.421   0.431   2.289  0.0733 -0.1830 -1.1763
 8697SOL    HW334555   2.327   0.356   2.197 -1.1778 -0.0152 -0.0792
 8697SOL    MW434556   2.346   0.389   2.275  0.0712 -0.3189 -0.0985
 8698SOL     OW34557   1.910   1.384   5.170  0.0270 -0.7153 -0.1833
 8698SOL    HW234558   1.851   1.457   5.151  0.8635 -0.2915 -1.2165
 8698SOL    HW334559   1.884   1.315   5.110  0.6089 -0.5071 -0.6828
 8698SOL    MW434560   1.899   1.385   5.160 -0.1889 -0.3167 -0.2154
 8699SOL     OW34561   3.252   6.112   2.848 -0.1556 -0.3351 -0.5327
 8699SOL    HW234562   3.209   6.027   2.844 -1.3889  0.1846  0.9007
 8699SOL    HW334563   3.334   6.095   2.896 -1.2722 -0.4269  1.4324
 8699SOL    MW434564   3.257   6.099   2.854 -0.2682 -0.2427  0.4203
 8700SOL     OW34565   5.871   3.384   6.391  0.0252  0.2304 -0.4619
 8700SOL    HW234566   5.924   3.447   6.343 -1.3956  0.8517 -1.2840
 8700SOL    HW334567   5.866   3.307   6.333 -0.5355  0.4496 -0.7189
 8700SOL    MW434568   5.877   3.382   6.377  0.2546  0.5475 -0.1241
 8701SOL     OW34569   0.242   4.259   3.155  0.1525 -0.2579  0.1827
 8701SOL    HW234570   0.284   4.235   3.237  0.8184 -1.2963 -0.4298
 8701SOL    HW334571   0.161   4.209   3.153  0.0618 -0.1129  0.2861
 8701SOL    MW434572   0.237   4.249   3.165 -0.0950  0.1768  0.0202
 8702SOL     OW34573   2.035   5.842   3.860  0.6288 -0.0045 -0.0443
 8702SOL    HW234574   2.020   5.861   3.953 -0.2904  0.3202 -0.2462
 8702SOL    HW334575   2.123   5.876   3.842 -0.1031  2.1348  0.1433
 8702SOL    MW434576   2.045   5.849   3.870  0.1157 -0.3293 -0.2423
 8703SOL     OW34577   4.446   4.306   1.986  0.2647 -0.4180  0.1628
 8703SOL    HW234578   4.515   4.369   2.006 -0.3486 -0.1479  1.6195
 8703SOL    HW334579   4.469   4.229   2.038 -0.0628 -0.6544 -0.0404
 8703SOL    MW434580   4.458   4.304   1.996  0.0735  0.4468  0.1622
 8704SOL     OW34581   2.324   3.621   2.574 -0.6208 -0.3293  0.5205
 8704SOL    HW234582   2.257   3.600   2.639  0.2251 -1.6519  1.0110
 8704SOL    HW334583   2.382   3.682   2.619  0.1720 -1.5293  1.1747
 8704SOL    MW434584   2.323   3.627   2.589  0.0807  0.6954 -0.6688
 8705SOL     OW34585   0.710   4.293   2.105  0.1304 -0.5150  0.4134
 8705SOL    HW234586   0.773   4.270   2.036  0.1264 -3.8839  1.3522
 8705SOL    HW334587   0.763   4.300   2.184 -0.2930 -0.0139  0.6618
 8705SOL    MW434588   0.725   4.291   2.106  0.4304  0.1617  0.1090
 8706SOL     OW34589   1.011   5.806   0.293 -1.0500  0.4410 -0.1767
 8706SOL    HW234590   0.983   5.816   0.202 -1.7376 -0.6885 -0.1077
 8706SOL    HW334591   1.107   5.808   0.288 -1.0693  0.0468 -0.9744
 8706SOL    MW434592   1.020   5.808   0.280 -0.0790  0.8364 -0.0289
 8707SOL     OW34593   3.565   5.266   6.058 -0.3747  0.0568 -0.0743
 8707SOL    HW234594   3.481   5.231   6.087  0.2186 -0.0042  1.6969
 8707SOL    HW334595   3.600   5.310   6.135  1.2525  0.0029 -0.7497
 8707SOL    MW434596   3.558   5.267   6.072 -0.3631  0.7017  0.3690
 8708SOL     OW34597   3.627   1.521   1.790 -0.5145 -0.2078  0.1272
 8708SOL    HW234598   3.678   1.596   1.822 -0.4248 -0.5367  0.7837
 8708SOL    HW334599   3.579   1.555   1.715 -0.9206  0.6797  0.7591
 8708SOL    MW434600   3.627   1.535   1.785 -0.2645  0.7134 -0.2974
 8709SOL     OW34601   2.698   2.989   2.800  0.7735 -0.3422 -0.4703
 8709SOL    HW234602   2.683   3.084   2.794  0.1161 -0.4363 -0.4058
 8709SOL    HW334603   2.787   2.981   2.835  0.7562  0.2527 -0.2773
 8709SOL    MW434604   2.708   3.001   2.804  0.3719 -0.2974  0.3538
 8710SOL     OW34605   2.243   6.175   4.493  0.0361 -0.2250  0.0605
 8710SOL    HW234606   2.293   6.163   4.573 -0.6227 -1.1792  0.3484
 8710SOL    HW334607   2.300   6.142   4.424  0.4299  0.1843  0.1884
 8710SOL    MW434608   2.257   6.169   4.494  0.2735  0.0330  0.3041
 8711SOL     OW34609   6.189   1.686   5.163  0.2484 -0.0867  0.6166
 8711SOL    HW234610   6.129   1.759   5.177  2.2119  1.2333  2.6324
 8711SOL    HW334611   6.271   1.714   5.202  0.8049 -3.7870  2.5339
 8711SOL    MW434612   6.192   1.699   5.170 -0.4227  0.2634 -0.4681
 8712SOL     OW34613   2.021   6.387   1.178 -0.3578 -0.1485  0.1598
 8712SOL    HW234614   2.101   6.353   1.218 -0.7200 -0.6839  0.4398
 8712SOL    HW334615   1.958   6.393   1.250 -0.2492  1.3279  0.1648
 8712SOL    MW434616   2.023   6.384   1.193 -0.1833  0.4576 -0.1696
 8713SOL     OW34617   1.585   3.604   4.592 -0.0175 -0.3610 -0.0043
 8713SOL    HW234618   1.511   3.660   4.618 -0.1190  0.0592 -1.1662
 8713SOL    HW334619   1.646   3.664   4.550  0.8399 -0.7716  0.6128
 8713SOL    MW434620   1.584   3.620   4.590  0.5289  0.3189 -0.0402
 8714SOL     OW34621   5.963   1.489   0.641  0.1248  0.0891 -0.0472
 8714SOL    HW234622   5.923   1.470   0.556 -0.5068 -0.7252  0.4233
 8714SOL    HW334623   5.924   1.426   0.701  1.2734  0.0364  0.6664
 8714SOL    MW434624   5.953   1.478   0.637  0.0551 -0.5410 -0.2594
 8715SOL     OW34625   4.277   1.073   0.476 -0.0806  0.5146 -0.0595
 8715SOL    HW234626   4.362   1.031   0.460 -0.3438 -0.1721  0.3121
 8715SOL    HW334627   4.225   1.051   0.399  0.4521  1.9648 -0.8706
 8715SOL    MW434628   4.282   1.065   0.463 -0.1014  0.0267 -0.2952
 8716SOL     OW34629   0.157   5.372   2.959 -0.1996  0.0270 -0.2247
 8716SOL    HW234630   0.226   5.408   3.013 -1.1854  0.0335  1.0730
 8716SOL    HW334631   0.106   5.448   2.930 -0.6386 -0.0940  0.2116
 8716SOL    MW434632   0.159   5.386   2.962 -0.5195  0.2298 -0.0235
 8717SOL     OW34633   5.508   5.242   0.792  0.3461 -0.3620 -0.9668
 8717SOL    HW234634   5.600   5.217   0.801  0.2274 -1.2353 -1.9620
 8717SOL    HW334635   5.471   5.177   0.732 -1.1122 -0.4809  0.0007
 8717SOL    MW434636   5.515   5.230   0.785  0.2274 -0.2017 -0.3953
 8718SOL     OW34637   1.786   5.967   2.458 -0.2955 -0.0400 -0.5594
 8718SOL    HW234638   1.793   5.910   2.382 -0.4219 -1.6832  0.6013
 8718SOL    HW334639   1.871   5.960   2.501 -0.5296  0.1472 -0.0579
 8718SOL    MW434640   1.798   5.959   2.454 -0.1626 -0.0800 -0.3993
 8719SOL     OW34641   3.638   0.811   0.719 -0.1221  0.2249  0.2009
 8719SOL    HW234642   3.576   0.858   0.663  0.8387  0.4063 -0.7258
 8719SOL    HW334643   3.644   0.724   0.680 -0.3143 -0.0229  0.7081
 8719SOL    MW434644   3.630   0.805   0.707  0.8026 -0.2092 -0.4541
 8720SOL     OW34645   2.848   3.842   5.802 -0.4855 -0.0461  0.3720
 8720SOL    HW234646   2.935   3.866   5.771 -0.6962  0.0649 -0.1538
 8720SOL    HW334647   2.852   3.747   5.815 -0.1532  0.0263  0.7929
 8720SOL    MW434648   2.860   3.833   5.800  0.0321 -0.7228  0.1674
 8721SOL     OW34649   3.797   2.518   4.495 -0.0131 -0.1732  0.4248
 8721SOL    HW234650   3.735   2.570   4.445 -0.5545 -0.1670  1.0828
 8721SOL    HW334651   3.745   2.481   4.567  1.0549  1.1574  1.9569
 8721SOL    MW434652   3.782   2.520   4.498 -0.3067  0.3239 -0.2866
 8722SOL     OW34653   2.073   1.189   5.792 -0.0145  0.3871 -0.2919
 8722SOL    HW234654   2.031   1.159   5.711 -1.3643 -1.5063  1.0127
 8722SOL    HW334655   2.001   1.222   5.846  0.7352  0.7654  0.5000
 8722SOL    MW434656   2.058   1.189   5.789 -0.1892  0.4263 -0.4032
 8723SOL     OW34657   3.052   4.298   1.405  0.1380 -0.0751  0.0535
 8723SOL    HW234658   3.140   4.312   1.439 -0.0407  1.3101  0.0068
 8723SOL    HW334659   3.065   4.249   1.324  0.9048  0.4410 -0.1417
 8723SOL    MW434660   3.065   4.293   1.399 -0.7888 -0.3417 -0.1986
 8724SOL     OW34661   5.653   1.784   4.003  0.1195 -0.7072 -0.2282
 8724SOL    HW234662   5.565   1.789   3.965 -0.6540  0.4444  1.5759
 8724SOL    HW334663   5.710   1.765   3.928 -1.6771 -1.9410 -1.3859
 8724SOL    MW434664   5.649   1.782   3.988 -0.5076  0.0925  0.1680
 8725SOL     OW34665   3.322   1.749   5.588 -0.1508 -0.0232 -0.0922
 8725SOL    HW234666   3.357   1.725   5.674  0.3661  1.4406  0.1482
 8725SOL    HW334667   3.256   1.816   5.607 -1.3035 -0.9280 -0.7379
 8725SOL    MW434668   3.318   1.755   5.602 -0.1308 -0.0318 -0.2849
 8726SOL     OW34669   1.239   1.151   0.479  0.1538  0.4962 -0.1175
 8726SOL    HW234670   1.285   1.208   0.416  0.8961 -0.2946 -0.3060
 8726SOL    HW334671   1.295   1.074   0.487 -0.4023  0.1758  0.8137
 8726SOL    MW434672   1.252   1.149   0.471 -0.4437 -0.4081  0.1111
 8727SOL     OW34673   1.488   0.062   3.513  0.0881  0.1782  0.5228
 8727SOL    HW234674   1.435   0.133   3.549 -1.4171  0.0811 -1.3069
 8727SOL    HW334675   1.559   0.105   3.466  0.5638  0.3837  1.4310
 8727SOL    MW434676   1.490   0.077   3.511 -0.2252  0.3416 -0.5395
 8728SOL     OW34677   6.051   4.847   3.133 -0.2739  0.0584 -0.5334
 8728SOL    HW234678   6.079   4.937   3.150  0.5798 -0.6238  2.3598
 8728SOL    HW334679   6.130   4.804   3.099  0.4063 -0.3452  1.4263
 8728SOL    MW434680   6.065   4.853   3.131  0.0350 -0.3755  0.1038
 8729SOL     OW34681   1.294   0.561   4.522  0.3468  0.0373  0.0482
 8729SOL    HW234682   1.329   0.544   4.434  0.9841  1.4173  0.0131
 8729SOL    HW334683   1.298   0.656   4.532  1.9583 -0.1705  2.2320
 8729SOL    MW434684   1.299   0.571   4.512  0.2849 -0.1424 -0.0144
 8730SOL     OW34685   1.230   4.285   5.118  0.2334 -0.2727 -0.0892
 8730SOL    HW234686   1.235   4.369   5.163  2.1126 -0.0959 -0.5181
 8730SOL    HW334687   1.164   4.297   5.050  2.3760  1.8455 -1.9885
 8730SOL    MW434688   1.222   4.297   5.115  0.5808 -0.2779  0.1503
 8731SOL     OW34689   4.685   0.334   3.374 -0.1994  0.0016 -0.1000
 8731SOL    HW234690   4.727   0.289   3.447 -0.4379 -0.3668 -0.1915
 8731SOL    HW334691   4.675   0.267   3.306 -0.5195  0.1971 -0.2485
 8731SOL    MW434692   4.690   0.319   3.375  0.0761  0.1944  0.3621
 8732SOL     OW34693   4.226   4.326   5.827 -0.5966  0.2106  0.0326
 8732SOL    HW234694   4.164   4.383   5.873 -1.3607 -1.2428  0.8714
 8732SOL    HW334695   4.254   4.263   5.893  1.1715  0.3220 -0.5552
 8732SOL    MW434696   4.221   4.325   5.842 -0.3199 -0.2588  0.3661
 8733SOL     OW34697   1.263   1.166   3.962  0.1154  0.1407 -0.2140
 8733SOL    HW234698   1.180   1.197   3.999 -0.1969  0.9663 -1.5497
 8733SOL    HW334699   1.248   1.073   3.945 -0.2123  0.0730  0.4151
 8733SOL    MW434700   1.250   1.158   3.965 -0.1315  0.2454 -0.0320
 8734SOL     OW34701   0.942   0.427   5.643  0.8236  0.1140  0.1520
 8734SOL    HW234702   0.964   0.516   5.671  0.1131  0.9902 -1.8896
 8734SOL    HW334703   0.847   0.429   5.631  0.9102 -0.6375 -0.7725
 8734SOL    MW434704   0.932   0.439   5.645  0.0926  0.0206 -0.3826
 8735SOL     OW34705   1.285   5.454   4.670 -0.2743 -0.0047 -0.5850
 8735SOL    HW234706   1.230   5.465   4.748  0.6003  1.0447 -0.0940
 8735SOL    HW334707   1.290   5.359   4.657  0.3144 -0.2536  1.1967
 8735SOL    MW434708   1.278   5.443   4.678 -0.6183  0.5023  0.3173
 8736SOL     OW34709   3.544   0.427   1.354  0.5203 -0.1682 -0.2931
 8736SOL    HW234710   3.572   0.386   1.272  0.9642 -0.8500  0.1865
 8736SOL    HW334711   3.525   0.518   1.330  1.1320 -0.2285 -1.0529
 8736SOL    MW434712   3.545   0.433   1.340 -0.1491 -0.1613 -0.4972
 8737SOL     OW34713   0.040   5.738   1.584 -0.2725 -0.3732  0.4908
 8737SOL    HW234714   0.010   5.688   1.659  0.3664 -2.0468 -0.3350
 8737SOL    HW334715   0.091   5.810   1.622  1.8425 -2.3679  1.6607
 8737SOL    MW434716   0.043   5.741   1.599 -0.0940 -0.2057  0.0861
 8738SOL     OW34717   1.694   2.736   5.153  0.3491  0.0994  0.0947
 8738SOL    HW234718   1.731   2.671   5.093  2.1332  0.0738  1.1649
 8738SOL    HW334719   1.733   2.715   5.238  1.0206  2.5569  0.4635
 8738SOL    MW434720   1.704   2.724   5.156 -0.2616 -0.0871 -0.2200
 8739SOL     OW34721   1.254   1.944   3.459  0.1960  0.5315  0.5284
 8739SOL    HW234722   1.281   1.855   3.439  0.3875  0.8627 -0.8055
 8739SOL    HW334723   1.225   1.980   3.375  1.0665  2.0457  0.8352
 8739SOL    MW434724   1.253   1.937   3.445  0.1895  0.0563 -0.1410
 8740SOL     OW34725   4.569   0.337   1.972  0.5739  0.2397 -0.2689
 8740SOL    HW234726   4.529   0.419   2.001  1.3932  0.7489 -0.5266
 8740SOL    HW334727   4.640   0.322   2.035  0.4839 -0.2247 -0.2776
 8740SOL    MW434728   4.573   0.346   1.984  0.0479  0.3314  0.2674
 8741SOL     OW34729   6.197   5.707   3.819 -0.3643  0.3040 -0.5006
 8741SOL    HW234730   6.257   5.690   3.892  1.4930 -1.4249 -2.2931
 8741SOL    HW334731   6.130   5.639   3.828  0.2239 -0.3278 -0.7204
 8741SOL    MW434732   6.196   5.695   3.830 -0.7537 -0.4508  0.2940
 8742SOL     OW34733   0.704   0.651   0.323  0.0336  0.0728  0.5703
 8742SOL    HW234734   0.645   0.635   0.250  2.1158 -0.7028 -1.0387
 8742SOL    HW334735   0.769   0.712   0.288  1.7923 -1.2960  1.3357
 8742SOL    MW434736   0.705   0.657   0.309  0.3090  0.2190 -0.5161
 8743SOL     OW34737   1.303   0.037   0.287  0.8585 -0.2750 -0.1156
 8743SOL    HW234738   1.353   0.011   0.209  1.1227  3.6005 -1.4414
 8743SOL    HW334739   1.368   0.076   0.345  0.2939 -1.0649  1.0922
 8743SOL    MW434740   1.318   0.039   0.285 -0.1512  0.2933 -0.6077
 8744SOL     OW34741   2.081   3.496   1.922 -0.1552 -0.3034 -0.5257
 8744SOL    HW234742   2.115   3.537   1.842  0.4526 -0.5186 -0.3894
 8744SOL    HW334743   2.066   3.570   1.981 -0.2565 -0.1726 -0.7120
 8744SOL    MW434744   2.084   3.511   1.919  0.6656  0.0171 -0.0153
 8745SOL     OW34745   4.228   5.720   0.756  0.0867 -0.4470 -1.0565
 8745SOL    HW234746   4.161   5.652   0.762 -0.0939 -0.1271  2.5733
 8745SOL    HW334747   4.300   5.689   0.811  1.1535  1.1018 -1.4852
 8745SOL    MW434748   4.229   5.707   0.764  0.7407  0.3038 -0.8257
 8746SOL     OW34749   2.548   0.910   0.019 -0.6800  0.1273  0.3797
 8746SOL    HW234750   2.533   1.001  -0.010 -0.2104 -0.4322 -1.8563
 8746SOL    HW334751   2.465   0.866   0.002 -0.6070 -0.0760  0.5472
 8746SOL    MW434752   2.535   0.917   0.013  0.2330 -0.2833  0.3718
 8747SOL     OW34753   2.133   1.911   0.756  0.4272 -0.0750 -0.2148
 8747SOL    HW234754   2.075   1.979   0.723  0.0451 -0.4547 -0.3403
 8747SOL    HW334755   2.114   1.906   0.850 -2.6366 -2.8477 -0.8004
 8747SOL    MW434756   2.123   1.919   0.764 -0.0057  0.2643  0.3858
 8748SOL     OW34757   2.551   3.242   2.488  0.2675 -0.2395 -0.0396
 8748SOL    HW234758   2.498   3.314   2.454  0.1669  0.0087  0.6268
 8748SOL    HW334759   2.494   3.197   2.551  0.5647 -0.4786  0.0657
 8748SOL    MW434760   2.536   3.245   2.492  0.1126  0.1288 -0.1207
 8749SOL     OW34761   1.576   0.716   6.159  0.2920  0.2778 -0.0110
 8749SOL    HW234762   1.483   0.709   6.180 -0.1899  1.8819 -1.3762
 8749SOL    HW334763   1.613   0.633   6.187 -1.3860 -0.0745  1.3274
 8749SOL    MW434764   1.569   0.704   6.165 -0.3640 -0.2795  0.1151
 8750SOL     OW34765   2.713   1.947   2.277 -0.2029  0.1139  0.2960
 8750SOL    HW234766   2.670   1.964   2.361  0.1941 -2.0982  1.0038
 8750SOL    HW334767   2.806   1.945   2.297  0.0307  1.2835 -0.5585
 8750SOL    MW434768   2.720   1.949   2.290  0.9821  0.4398 -0.5121
 8751SOL     OW34769   0.369   3.665   5.045 -0.1504  0.5842 -0.3887
 8751SOL    HW234770   0.330   3.634   4.963 -0.0866  2.2926 -1.1053
 8751SOL    HW334771   0.323   3.747   5.063  0.9511  1.0385  0.4246
 8751SOL    MW434772   0.358   3.671   5.036 -0.5261  0.0708 -0.0775
 8752SOL     OW34773   4.105   5.141   6.359 -0.5807 -0.5732  0.0851
 8752SOL    HW234774   4.077   5.064   6.409 -1.1116 -0.5447 -0.1637
 8752SOL    HW334775   4.024   5.182   6.330 -0.4030  1.3002  1.9909
 8752SOL    MW434776   4.091   5.136   6.362 -0.1899 -0.5926 -0.3319
 8753SOL     OW34777   3.014   2.889   1.495  0.0137  0.4897  0.4734
 8753SOL    HW234778   3.084   2.836   1.456 -0.6835  1.0249 -1.6233
 8753SOL    HW334779   3.053   2.975   1.508 -0.2949  0.8428 -0.8827
 8753SOL    MW434780   3.028   2.893   1.492 -0.0375 -0.2810 -0.6241
 8754SOL     OW34781   2.694   0.555   6.310  0.3325  0.4038 -0.2548
 8754SOL    HW234782   2.656   0.621   6.252 -0.3436  1.4274  1.2821
 8754SOL    HW334783   2.623   0.533   6.371  1.6518  1.0926  1.6192
 8754SOL    MW434784   2.679   0.561   6.311  0.2681  0.2011 -0.5312
 8755SOL     OW34785   0.525   2.156   1.050 -0.4730  0.6526 -0.2404
 8755SOL    HW234786   0.583   2.204   0.992 -1.4051  4.0396  1.3890
 8755SOL    HW334787   0.487   2.223   1.107 -3.8100 -1.7466  0.6465
 8755SOL    MW434788   0.528   2.171   1.050  0.1286  0.1250  0.4393
 8756SOL     OW34789   4.804   4.815   4.695 -0.1082 -0.0111 -0.7248
 8756SOL    HW234790   4.799   4.908   4.671 -0.5799 -0.2564 -1.6588
 8756SOL    HW334791   4.714   4.792   4.718 -0.3278 -0.6072 -2.0641
 8756SOL    MW434792   4.791   4.825   4.695  0.6749 -0.2367 -0.4320
 8757SOL     OW34793   3.189   4.427   1.077 -0.4991 -0.3765 -0.5055
 8757SOL    HW234794   3.131   4.351   1.087 -0.2918 -0.4432  0.2649
 8757SOL    HW334795   3.277   4.391   1.091 -0.4731  0.1898  1.0374
 8757SOL    MW434796   3.193   4.412   1.080  0.1997  0.3530  0.2672
 8758SOL     OW34797   2.194   2.546   5.517 -0.8332 -0.0968 -0.2346
 8758SOL    HW234798   2.277   2.584   5.489 -1.0420  0.1448 -0.5239
 8758SOL    HW334799   2.139   2.621   5.540 -0.6222 -0.2924  0.9561
 8758SOL    MW434800   2.198   2.561   5.516  0.2881 -0.2206  0.3613
 8759SOL     OW34801   0.468   2.321   4.478  0.5443 -0.1123 -0.3841
 8759SOL    HW234802   0.519   2.356   4.551  4.0758  1.1057 -3.1652
 8759SOL    HW334803   0.381   2.361   4.489  1.4847  1.5330  2.0504
 8759SOL    MW434804   0.463   2.331   4.489 -0.0133 -0.1735 -0.5909
 8760SOL     OW34805   0.550   2.704   2.426 -0.4363 -0.0470  0.2771
 8760SOL    HW234806   0.550   2.790   2.385 -0.9896 -0.0460  0.2681
 8760SOL    HW334807   0.457   2.683   2.438 -0.3866 -1.4118 -1.3624
 8760SOL    MW434808   0.538   2.712   2.422  0.1846  0.2609  0.6261
 8761SOL     OW34809   6.424   3.785   5.156  0.2176  0.0381 -0.0878
 8761SOL    HW234810   6.395   3.838   5.230 -3.8780  0.7534 -1.9380
 8761SOL    HW334811   6.438   3.698   5.194 -3.3985 -0.0644  1.4380
 8761SOL    MW434812   6.422   3.780   5.171 -0.0023  0.4090 -0.0985
 8762SOL     OW34813   2.161   3.400   5.321 -0.1154 -1.3261  0.1288
 8762SOL    HW234814   2.144   3.485   5.282 -1.0259 -0.8119  1.5731
 8762SOL    HW334815   2.178   3.418   5.413  3.7513 -2.2949 -0.2132
 8762SOL    MW434816   2.161   3.413   5.328  0.5199  0.0562  0.6774
 8763SOL     OW34817   1.072   0.518   3.623  0.4255 -0.2407  0.2045
 8763SOL    HW234818   0.988   0.565   3.628  0.2198 -0.3989 -1.2987
 8763SOL    HW334819   1.082   0.478   3.710 -0.4637  0.7555  0.7987
 8763SOL    MW434820   1.062   0.519   3.635 -0.4458 -0.3586  0.0225
 8764SOL     OW34821   4.253   1.498   6.231 -0.2448 -0.0247  0.6492
 8764SOL    HW234822   4.167   1.528   6.200 -0.8977 -1.4086  1.0260
 8764SOL    HW334823   4.296   1.577   6.263 -0.8492  0.9062 -0.7420
 8764SOL    MW434824   4.247   1.512   6.231 -0.3956  0.0848 -0.0415
 8765SOL     OW34825   3.515   0.356   0.297  0.0490 -0.1073 -0.4473
 8765SOL    HW234826   3.506   0.337   0.204 -0.5480 -0.8917 -0.2331
 8765SOL    HW334827   3.433   0.326   0.336 -0.1341  1.1467  0.1875
 8765SOL    MW434828   3.503   0.350   0.290 -0.1807  0.4964  0.5912
 8766SOL     OW34829   3.973   1.221   0.139 -0.5021  0.5002 -0.1199
 8766SOL    HW234830   3.996   1.242   0.049 -0.4637  0.6177 -0.0826
 8766SOL    HW334831   3.965   1.306   0.183 -0.6329  0.4482 -0.0401
 8766SOL    MW434832   3.975   1.235   0.133  0.3067  0.2345 -0.2385
 8767SOL     OW34833   5.072   5.621   4.140  0.0684 -0.0438 -0.5456
 8767SOL    HW234834   4.988   5.667   4.134  0.4620  0.5361 -2.4227
 8767SOL    HW334835   5.077   5.592   4.230 -1.5893  0.9989 -0.0668
 8767SOL    MW434836   5.061   5.624   4.151  0.7301 -0.1727  0.0703
 8768SOL     OW34837   4.194   4.142   2.247 -0.3324 -0.0928 -0.4504
 8768SOL    HW234838   4.162   4.175   2.163 -1.5957  1.0365  0.4167
 8768SOL    HW334839   4.151   4.057   2.257 -0.6070  0.0148 -0.7041
 8768SOL    MW434840   4.184   4.135   2.237 -0.0395 -0.8514 -0.0271
 8769SOL     OW34841   1.252   4.886   3.067  0.3802  0.2739  0.4012
 8769SOL    HW234842   1.162   4.898   3.037  0.1984  0.0930  0.8614
 8769SOL    HW334843   1.251   4.918   3.158  0.8110  0.3963  0.3649
 8769SOL    MW434844   1.240   4.892   3.075  0.2558 -0.1868 -0.5809
 8770SOL     OW34845   5.341   1.420   2.259  0.4845 -0.0281 -0.5626
 8770SOL    HW234846   5.368   1.460   2.176  0.4047  0.6122 -0.2893
 8770SOL    HW334847   5.248   1.442   2.266  0.7637  0.9461  0.2581
 8770SOL    MW434848   5.332   1.428   2.249  0.0079  0.5867 -0.4084
 8771SOL     OW34849   1.422   6.256   5.064 -0.2535  0.2945 -0.5851
 8771SOL    HW234850   1.429   6.161   5.061  2.4661  0.4447 -1.4413
 8771SOL    HW334851   1.438   6.285   4.974  1.2141  1.6340  0.0596
 8771SOL    MW434852   1.425   6.247   5.052 -0.0428  0.2272  0.0043
 8772SOL     OW34853   1.893   5.529   4.721 -0.2173 -0.4622 -0.1823
 8772SOL    HW234854   1.949   5.453   4.704  0.8719 -0.0328  1.2972
 8772SOL    HW334855   1.875   5.565   4.634  1.3623 -0.9560 -0.7594
 8772SOL    MW434856   1.898   5.524   4.707  0.4795  0.4838 -0.1767
 8773SOL     OW34857   0.531   2.735   2.750 -0.0996 -0.3579 -0.1283
 8773SOL    HW234858   0.621   2.720   2.720 -0.3989  2.7865 -3.2924
 8773SOL    HW334859   0.477   2.691   2.685 -0.9255 -1.8270  1.4941
 8773SOL    MW434860   0.536   2.727   2.737 -0.2339  0.5190 -0.1700
 8774SOL     OW34861   5.002   0.811   5.099  0.1106  0.5199 -0.0081
 8774SOL    HW234862   5.065   0.742   5.080 -0.8966 -0.1887 -0.9084
 8774SOL    HW334863   4.929   0.766   5.141 -0.6730  0.9818 -0.8376
 8774SOL    MW434864   5.001   0.796   5.102  0.3050 -0.1305  0.3120
 8775SOL     OW34865   4.290   4.847   4.762 -0.1416 -0.2092  0.3454
 8775SOL    HW234866   4.320   4.928   4.803  2.5341 -1.4921  1.1700
 8775SOL    HW334867   4.333   4.846   4.676 -1.3491 -0.1009 -0.2824
 8775SOL    MW434868   4.299   4.858   4.756 -0.0827  0.3101 -0.2876
 8776SOL     OW34869   2.064   5.272   2.153  0.0052 -0.0806 -0.0469
 8776SOL    HW234870   2.042   5.240   2.066  4.3982  0.1715 -1.4643
 8776SOL    HW334871   2.107   5.356   2.138 -1.4483  1.2927  2.6830
 8776SOL    MW434872   2.067   5.279   2.140  0.8807 -0.7750  0.1157
 8777SOL     OW34873   2.051   3.065   5.688  0.5405  0.0947  0.1283
 8777SOL    HW234874   2.016   3.151   5.665  0.9825  0.3939  0.5531
 8777SOL    HW334875   2.115   3.082   5.757 -1.2155 -0.8219  2.0984
 8777SOL    MW434876   2.055   3.078   5.694  0.0279  0.0048 -0.5350
 8778SOL     OW34877   4.920   4.822   6.044 -0.0048 -0.3781 -0.0652
 8778SOL    HW234878   4.999   4.875   6.060 -1.7326  2.1808  0.6090
 8778SOL    HW334879   4.905   4.829   5.950  0.7774 -1.2270 -0.2634
 8778SOL    MW434880   4.929   4.830   6.034 -0.0840 -0.0938  0.0010
 8779SOL     OW34881   2.782   4.727   4.784  0.0763 -0.1744 -0.2220
 8779SOL    HW234882   2.818   4.755   4.868 -0.7576 -0.7297  0.3385
 8779SOL    HW334883   2.829   4.779   4.719 -0.9702  2.1100  0.7242
 8779SOL    MW434884   2.793   4.737   4.786 -0.6647 -0.4374  0.6232
 8780SOL     OW34885   3.022   3.300   5.818  0.3491  0.1974 -0.4038
 8780SOL    HW234886   3.042   3.207   5.805  1.4088  0.2588  0.5959
 8780SOL    HW334887   3.003   3.333   5.730 -2.3391 -1.4252 -0.5402
 8780SOL    MW434888   3.022   3.292   5.805  0.2432 -0.7451  0.2684
 8781SOL     OW34889   5.843   2.872   2.327  0.1795 -0.5278  0.6495
 8781SOL    HW234890   5.797   2.945   2.368  1.5748  1.4801 -1.1514
 8781SOL    HW334891   5.879   2.822   2.400 -0.5478  0.7543  1.9313
 8781SOL    MW434892   5.842   2.875   2.342  0.6517 -0.4692  0.1264
 8782SOL     OW34893   5.628   5.002   2.186  0.1567 -0.4837  0.2969
 8782SOL    HW234894   5.598   5.069   2.124 -1.3962 -0.4655  1.0249
 8782SOL    HW334895   5.691   5.047   2.241 -1.7482  0.7867  1.5500
 8782SOL    MW434896   5.632   5.017   2.185  0.1805 -0.0825  0.6312
 8783SOL     OW34897   4.667   2.230   0.330  0.2290 -0.3166 -0.1198
 8783SOL    HW234898   4.597   2.287   0.296  0.1472 -0.6059 -0.4362
 8783SOL    HW334899   4.734   2.231   0.261  0.6062  0.0742  0.2429
 8783SOL    MW434900   4.667   2.238   0.317 -0.5458 -0.0331 -0.4713
 8784SOL     OW34901   4.803   3.321   6.276 -0.2958  0.2344 -0.4739
 8784SOL    HW234902   4.736   3.298   6.340 -0.2188  0.8400 -0.1666
 8784SOL    HW334903   4.875   3.356   6.328 -0.0455  0.2961 -0.8563
 8784SOL    MW434904   4.804   3.323   6.291 -0.8327  0.4426  0.4062
 8785SOL     OW34905   2.112   4.154   2.063  0.0756 -0.3795 -0.2967
 8785SOL    HW234906   2.059   4.233   2.073  0.1651 -0.5029  1.3710
 8785SOL    HW334907   2.057   4.095   2.012 -0.3646  0.4008 -0.7500
 8785SOL    MW434908   2.098   4.157   2.057  0.8572 -0.3675  0.7325
 8786SOL     OW34909   3.013   5.596   1.785  0.0957 -0.2146  0.0392
 8786SOL    HW234910   3.098   5.630   1.811  0.7709 -0.9591 -1.1276
 8786SOL    HW334911   3.032   5.528   1.720 -1.2985 -1.4319  0.8229
 8786SOL    MW434912   3.026   5.591   1.780  0.0594 -1.2011  0.3471
 8787SOL     OW34913   3.608   5.714   3.031  0.5280  0.0631  0.4465
 8787SOL    HW234914   3.644   5.739   3.117 -1.4031  0.4309  1.2037
 8787SOL    HW334915   3.634   5.623   3.019  2.7702  0.6579  0.3267
 8787SOL    MW434916   3.616   5.705   3.041 -0.3783 -0.0614  0.1045
 8788SOL     OW34917   5.422   0.204   5.494  0.1834 -0.1201  0.7748
 8788SOL    HW234918   5.429   0.257   5.414 -1.0636 -0.7041  0.2482
 8788SOL    HW334919   5.469   0.124   5.474 -0.3207 -0.3604  0.5272
 8788SOL    MW434920   5.429   0.201   5.481  0.2269 -0.3387 -0.1368
 8789SOL     OW34921   2.058   1.843   2.397  0.1449 -0.4478 -0.5090
 8789SOL    HW234922   2.079   1.749   2.405 -0.7312 -0.5703  0.7035
 8789SOL    HW334923   2.015   1.864   2.480 -0.5615  0.8040 -1.1750
 8789SOL    MW434924   2.055   1.833   2.409 -0.7489 -0.4427 -0.3481
 8790SOL     OW34925   2.362   0.755   5.257 -0.1815  0.2730  0.7907
 8790SOL    HW234926   2.437   0.702   5.286  0.6668  1.7124  1.3363
 8790SOL    HW334927   2.347   0.728   5.167  0.7054 -0.3615  0.8158
 8790SOL    MW434928   2.370   0.745   5.249  0.1345  0.3242 -0.9517
 8791SOL     OW34929   4.184   1.787   3.681  0.0682  0.3733  0.3891
 8791SOL    HW234930   4.178   1.760   3.589 -2.6866 -0.8824  0.8647
 8791SOL    HW334931   4.228   1.872   3.677  0.2598  0.2353 -2.0566
 8791SOL    MW434932   4.189   1.795   3.668 -0.5180  0.2714  0.5272
 8792SOL     OW34933   2.299   0.256   5.039 -0.3761  0.0462  0.1950
 8792SOL    HW234934   2.393   0.249   5.025 -0.2902 -0.2081  0.8413
 8792SOL    HW334935   2.260   0.208   4.966 -0.0913  1.8878 -1.2429
 8792SOL    MW434936   2.306   0.249   5.027  0.5386  0.0001 -0.3136
 8793SOL     OW34937   1.230   2.091   4.844 -0.3785  0.4156 -0.0467
 8793SOL    HW234938   1.239   2.070   4.751  1.0725  2.6880 -0.5066
 8793SOL    HW334939   1.222   2.187   4.847 -1.3032  0.3397  2.1271
 8793SOL    MW434940   1.230   2.101   4.832 -0.4939  0.5311  0.1622
 8794SOL     OW34941   4.112   5.877   1.998 -0.6917 -0.1388  0.5027
 8794SOL    HW234942   4.017   5.893   1.997 -0.2828  2.9303 -1.3652
 8794SOL    HW334943   4.142   5.917   2.079 -0.8669 -0.4599  0.7319
 8794SOL    MW434944   4.103   5.884   2.008 -0.0898 -0.8267  0.5830
 8795SOL     OW34945   3.362   1.110   3.326  0.7716 -0.3151 -0.7499
 8795SOL    HW234946   3.444   1.158   3.316 -0.1725  0.9745 -2.9740
 8795SOL    HW334947   3.294   1.174   3.306 -0.7833 -1.4847  0.5490
 8795SOL    MW434948   3.364   1.125   3.322 -0.1436  0.0343 -0.2628
 8796SOL     OW34949   2.807   2.978   4.485  0.1788 -0.2669  0.4878
 8796SOL    HW234950   2.716   2.972   4.455  0.4673 -0.3240 -0.4163
 8796SOL    HW334951   2.849   2.901   4.446  1.5148  1.7579 -2.4183
 8796SOL    MW434952   2.801   2.967   4.476 -0.0258 -0.1191  0.0726
 8797SOL     OW34953   1.750   2.684   4.461 -0.3823 -0.1471 -0.7749
 8797SOL    HW234954   1.711   2.635   4.533  1.3644 -0.9097 -0.2931
 8797SOL    HW334955   1.743   2.626   4.386  0.9182 -0.8367 -0.3956
 8797SOL    MW434956   1.744   2.670   4.461 -0.4057  0.0415  0.0250
 8798SOL     OW34957   5.350   5.602   3.506 -0.3470  0.1948  0.7542
 8798SOL    HW234958   5.271   5.586   3.454  1.4178  0.9693 -2.3581
 8798SOL    HW334959   5.420   5.558   3.458  1.4222  0.9748  2.4985
 8798SOL    MW434960   5.349   5.594   3.493  0.3883  0.3685 -0.1971
 8799SOL     OW34961   2.483   3.138   4.861  0.2165 -0.5036  0.8460
 8799SOL    HW234962   2.538   3.063   4.882  0.7348 -0.2763  0.3124
 8799SOL    HW334963   2.542   3.201   4.819 -0.1966  0.2362  1.3542
 8799SOL    MW434964   2.498   3.137   4.858  0.2551  0.6601  0.3180
 8800SOL     OW34965   1.817   6.307   5.325  0.5074  0.2465  0.1907
 8800SOL    HW234966   1.878   6.254   5.275 -2.0602 -1.7913 -1.0188
 8800SOL    HW334967   1.849   6.397   5.315  0.7772 -0.1532 -4.2359
 8800SOL    MW434968   1.829   6.312   5.317 -0.3500  1.0061 -0.4306
 8801SOL     OW34969   2.137   0.082   4.855  0.1849  1.0755  0.4140
 8801SOL    HW234970   2.133   0.084   4.759 -2.1195  1.2908  0.4407
 8801SOL    HW334971   2.093   0.001   4.880 -0.0178  1.4426  1.3038
 8801SOL    MW434972   2.130   0.072   4.846 -0.1121  0.0038  0.6984
 8802SOL     OW34973   1.763   3.703   3.285 -0.5529  0.5097 -0.6340
 8802SOL    HW234974   1.751   3.756   3.364  0.9013  0.8973 -0.6496
 8802SOL    HW334975   1.808   3.761   3.223 -0.4340 -0.2192 -1.2487
 8802SOL    MW434976   1.767   3.718   3.287 -0.3177  0.0788  0.3318
 8803SOL     OW34977   4.075   3.593   4.684  0.0416  0.4611 -0.2858
 8803SOL    HW234978   4.068   3.563   4.775 -1.7217 -1.4931 -0.9906
 8803SOL    HW334979   4.161   3.635   4.680  0.6107 -0.2969  2.0281
 8803SOL    MW434980   4.086   3.594   4.696 -0.2637 -1.0696 -0.0973
 8804SOL     OW34981   2.799   4.091   5.055  0.5664  0.9118 -0.1116
 8804SOL    HW234982   2.830   4.151   5.123  0.0078  2.1474 -0.8940
 8804SOL    HW334983   2.857   4.107   4.981 -0.7453  1.9579 -0.9847
 8804SOL    MW434984   2.811   4.101   5.054 -0.2167  0.1649  0.0535
 8805SOL     OW34985   3.066   1.474   5.794  0.0219 -0.1637  0.6196
 8805SOL    HW234986   3.150   1.430   5.782 -0.2059 -0.5504  0.4126
 8805SOL    HW334987   3.046   1.513   5.709  0.4684  0.7902  0.9416
 8805SOL    MW434988   3.074   1.473   5.781 -0.1593  0.5108  0.3302
 8806SOL     OW34989   6.233   3.001   0.421  0.2388  0.0302 -0.8054
 8806SOL    HW234990   6.268   2.993   0.333 -1.0847 -2.2259 -1.2059
 8806SOL    HW334991   6.145   3.037   0.409  0.0673 -0.2502 -0.4222
 8806SOL    MW434992   6.226   3.005   0.408  0.3013 -0.2355 -0.1087
 8807SOL     OW34993   4.126   6.191   6.191  0.3246  0.0849  0.1049
 8807SOL    HW234994   4.096   6.117   6.138  0.3518  0.1449  0.0067
 8807SOL    HW334995   4.204   6.223   6.147  1.1102 -0.6885  0.8981
 8807SOL    MW434996   4.132   6.186   6.178 -0.1044 -0.4502  0.1193
 8808SOL     OW34997   1.839   0.597   5.522 -0.0412  0.5531  0.1241
 8808SOL    HW234998   1.779   0.663   5.557 -1.1889 -0.7210  0.6334
 8808SOL    HW334999   1.782   0.526   5.492  1.1951 -0.6710  0.5757
 8808SOL    MW435000   1.823   0.596   5.523 -0.3251  0.0559  0.1810
 8809SOL     OW35001   5.465   1.795   2.556 -0.1071 -0.3131  0.4547
 8809SOL    HW235002   5.544   1.840   2.586 -0.3706  1.3673 -1.1768
 8809SOL    HW335003   5.496   1.717   2.512  0.5916 -0.0335  0.4448
 8809SOL    MW435004   5.479   1.791   2.554  0.0338 -0.8122 -0.0360
 8810SOL     OW35005   4.705   4.236   3.122 -0.6088 -0.0836 -0.0409
 8810SOL    HW235006   4.618   4.208   3.093 -0.0956 -1.8726  0.0217
 8810SOL    HW335007   4.764   4.206   3.053  0.3258 -1.9704  1.5000
 8810SOL    MW435008   4.702   4.229   3.109 -0.4642  0.9078  0.4442
 8811SOL     OW35009   1.006   4.333   1.390  0.2051  0.0795 -0.2032
 8811SOL    HW235010   0.954   4.413   1.384 -0.6888 -0.5432 -1.0249
 8811SOL    HW335011   1.085   4.354   1.340  0.6195  0.9054  0.7518
 8811SOL    MW435012   1.010   4.346   1.382 -0.5185  0.4333  0.5015
 8812SOL     OW35013   0.259   0.496   5.448 -0.3862  0.0959  0.5543
 8812SOL    HW235014   0.254   0.462   5.537 -1.1511  0.5960  0.7040
 8812SOL    HW335015   0.353   0.502   5.430 -0.1549  1.8993  2.0663
 8812SOL    MW435016   0.271   0.492   5.457 -0.1452 -0.0164  0.0750
 8813SOL     OW35017   1.391   5.198   2.368  0.1703 -0.1021 -0.6535
 8813SOL    HW235018   1.417   5.206   2.460  0.6972  1.5029 -0.9075
 8813SOL    HW335019   1.324   5.265   2.357  0.2704 -0.1319 -1.4817
 8813SOL    MW435020   1.386   5.208   2.379  0.3378  0.3856 -0.4450
 8814SOL     OW35021   5.087   5.034   2.253 -0.5012  0.2045  0.2477
 8814SOL    HW235022   5.173   5.021   2.294 -1.8695  1.3861  3.8949
 8814SOL    HW335023   5.081   5.128   2.240 -1.2485  0.1425  0.1075
 8814SOL    MW435024   5.098   5.045   2.257 -0.0465  0.0470 -0.2423
 8815SOL     OW35025   4.026   2.289   1.480 -0.1553 -0.1139  0.1482
 8815SOL    HW235026   4.005   2.217   1.420 -1.2340  1.2359 -1.1604
 8815SOL    HW335027   4.008   2.368   1.430  1.0733  1.0950  1.5306
 8815SOL    MW435028   4.021   2.290   1.465  0.6589  0.1115 -0.6504
 8816SOL     OW35029   0.859   1.828   5.714 -0.6908 -0.1804 -0.3231
 8816SOL    HW235030   0.815   1.813   5.798 -0.8991  0.4062 -0.3252
 8816SOL    HW335031   0.814   1.768   5.654 -0.0824 -1.1092  0.1152
 8816SOL    MW435032   0.847   1.818   5.717  0.2865 -0.3665 -0.6312
 8817SOL     OW35033   4.204   2.887   4.873 -0.0257 -0.2177 -0.5613
 8817SOL    HW235034   4.228   2.897   4.965  1.0760  0.9876 -0.9579
 8817SOL    HW335035   4.288   2.878   4.828 -0.5478 -0.5026 -1.4831
 8817SOL    MW435036   4.218   2.887   4.879 -0.5078 -0.1101  0.5170
 8818SOL     OW35037   2.204   3.528   1.054  0.2016 -0.2902  0.4186
 8818SOL    HW235038   2.118   3.486   1.059 -0.7717  1.4359 -0.8184
 8818SOL    HW335039   2.237   3.503   0.968  1.3425 -1.5876  1.1919
 8818SOL    MW435040   2.197   3.519   1.043  0.3200 -0.1486  0.0524
 8819SOL     OW35041   4.362   3.993   1.376 -0.4144 -0.4592  0.1349
 8819SOL    HW235042   4.422   4.001   1.450  2.5804  0.0119 -2.1568
 8819SOL    HW335043   4.319   4.079   1.372  0.6826  0.1282  0.3451
 8819SOL    MW435044   4.364   4.006   1.385 -0.7981  0.2395  0.0447
 8820SOL     OW35045   3.860   1.189   4.497  0.4918  0.0696 -0.0387
 8820SOL    HW235046   3.779   1.172   4.449  1.0590 -0.7393 -0.7576
 8820SOL    HW335047   3.859   1.127   4.569  0.1831  0.4868  0.3178
 8820SOL    MW435048   3.849   1.178   4.500 -0.2250 -0.4018 -0.1196
 8821SOL     OW35049   3.610   4.101   0.194 -0.5285  0.1420 -0.0442
 8821SOL    HW235050   3.620   4.134   0.283  0.9335 -0.0726 -0.1048
 8821SOL    HW335051   3.700   4.084   0.165 -1.0857 -1.4657 -0.9233
 8821SOL    MW435052   3.623   4.103   0.202 -0.7036  0.4253 -0.4729
 8822SOL     OW35053   0.517   4.903   0.975  0.7302 -0.3121 -0.0635
 8822SOL    HW235054   0.574   4.852   0.918  0.5296  0.7256 -1.2254
 8822SOL    HW335055   0.430   4.896   0.933  0.1036 -1.3149  1.3070
 8822SOL    MW435056   0.513   4.895   0.962  0.1092 -0.1869 -0.1506
 8823SOL     OW35057   4.124   4.598   2.864 -1.2412 -0.3795 -0.0546
 8823SOL    HW235058   4.087   4.577   2.950 -0.4684 -1.0122  0.1372
 8823SOL    HW335059   4.091   4.529   2.806 -1.7439  0.0344 -0.2669
 8823SOL    MW435060   4.115   4.586   2.868 -0.1693  0.1152 -0.0297
 8824SOL     OW35061   1.035   2.542   3.399  0.4530  0.0184 -0.6068
 8824SOL    HW235062   1.094   2.588   3.340 -0.1961  0.6041 -0.8189
 8824SOL    HW335063   0.966   2.606   3.418  0.3793 -0.3376  0.3729
 8824SOL    MW435064   1.033   2.556   3.394  0.1755 -0.0224  0.3000
 8825SOL     OW35065   1.343   5.084   5.276  0.5649  0.0657  0.0501
 8825SOL    HW235066   1.411   5.022   5.249  1.9050  0.5194  2.1684
 8825SOL    HW335067   1.357   5.161   5.221  1.1534 -0.2164 -0.2049
 8825SOL    MW435068   1.354   5.086   5.266  0.4644 -0.7492  0.0806
 8826SOL     OW35069   3.316   0.069   4.671  0.2415 -0.4275  0.0433
 8826SOL    HW235070   3.298   0.105   4.584  0.0461  1.7709  0.9266
 8826SOL    HW335071   3.411   0.058   4.673  0.1242 -1.7309 -0.8774
 8826SOL    MW435072   3.326   0.073   4.660  0.5083 -0.0981  0.7788
 8827SOL     OW35073   4.971   0.485   2.049 -0.3096  0.1021 -0.3717
 8827SOL    HW235074   5.025   0.535   2.111  0.3388  0.1970 -1.0029
 8827SOL    HW335075   5.033   0.447   1.988 -0.9866  0.6169 -1.4090
 8827SOL    MW435076   4.986   0.487   2.049  0.1948 -0.0371 -0.1149
 8828SOL     OW35077   0.903   6.298   0.174  0.2604 -0.0682  0.5331
 8828SOL    HW235078   0.938   6.279   0.262 -1.5618  1.5746  1.6931
 8828SOL    HW335079   0.939   6.384   0.152  0.1284 -0.1497 -0.0042
 8828SOL    MW435080   0.912   6.307   0.183 -0.0934  0.0052 -0.0093
 8829SOL     OW35081   1.473   4.315   0.802  0.0159  0.5937  0.2096
 8829SOL    HW235082   1.407   4.377   0.833  0.4509  0.9179  0.5088
 8829SOL    HW335083   1.527   4.297   0.879  0.0155 -0.0027  0.0734
 8829SOL    MW435084   1.471   4.321   0.816  0.3979 -0.0499  0.0574
 8830SOL     OW35085   3.776   0.362   2.291  0.1990  0.0937 -0.6692
 8830SOL    HW235086   3.798   0.299   2.222  0.2053  0.2474 -0.8076
 8830SOL    HW335087   3.845   0.350   2.357  0.5952  0.4376 -1.0141
 8830SOL    MW435088   3.788   0.352   2.291 -0.5466 -0.1973 -0.3661
 8831SOL     OW35089   0.191   4.970   1.979  0.0260 -0.3072 -0.4954
 8831SOL    HW235090   0.280   5.006   1.974  0.0754 -0.5176 -1.2323
 8831SOL    HW335091   0.167   4.954   1.888 -0.9473  0.1773 -0.3386
 8831SOL    MW435092   0.200   4.973   1.966  0.3199  0.4381 -0.8381
 8832SOL     OW35093   2.010   2.684   0.056 -0.5848 -0.8101  0.2118
 8832SOL    HW235094   2.043   2.747   0.119 -0.2415  1.9327 -2.5036
 8832SOL    HW335095   2.048   2.600   0.084  3.8576  1.1036  0.7595
 8832SOL    MW435096   2.019   2.681   0.068  0.5840 -0.0722  0.0196
 8833SOL     OW35097   4.039   3.002   6.105  0.5947  0.1109  0.3350
 8833SOL    HW235098   3.999   2.944   6.170 -0.2083  1.9206  1.5042
 8833SOL    HW335099   3.993   2.981   6.023  0.2781 -0.8303  0.7337
 8833SOL    MW435100   4.028   2.991   6.102 -0.1222  0.2748  0.4569
 8834SOL     OW35101   3.224   3.115   6.060 -0.4808 -0.2713 -0.4376
 8834SOL    HW235102   3.261   3.040   6.106 -2.6081 -0.9270  0.3458
 8834SOL    HW335103   3.216   3.183   6.127 -0.2365  0.0246 -0.7070
 8834SOL    MW435104   3.228   3.114   6.075 -0.2902  0.0297  0.3168
 8835SOL     OW35105   1.882   1.177   3.139 -0.5095  0.7407  0.0545
 8835SOL    HW235106   1.875   1.212   3.050 -0.8297  1.1040  0.2160
 8835SOL    HW335107   1.833   1.095   3.137 -0.3289  0.6386 -0.1608
 8835SOL    MW435108   1.875   1.171   3.127 -0.0977  0.6194 -0.4100
 8836SOL     OW35109   4.077   3.747   3.530 -0.2209  0.0693  0.0806
 8836SOL    HW235110   4.072   3.804   3.607 -0.9754  0.8639 -0.5294
 8836SOL    HW335111   4.072   3.807   3.456  0.7277 -0.6698 -0.5939
 8836SOL    MW435112   4.075   3.763   3.530  0.1829 -0.6166 -0.4103
 8837SOL     OW35113   3.696   5.023   3.975  0.4112 -0.0001  0.2474
 8837SOL    HW235114   3.788   5.046   3.978 -0.0482  2.3018 -0.9591
 8837SOL    HW335115   3.684   4.960   4.047  3.1448 -1.4687 -0.4430
 8837SOL    MW435116   3.706   5.018   3.985  0.4552  0.5423  0.0227
 8838SOL     OW35117   0.286   6.308   3.750  0.1188 -0.3886 -0.4107
 8838SOL    HW235118   0.272   6.224   3.707  1.0075 -0.0117 -1.4986
 8838SOL    HW335119   0.226   6.308   3.824 -0.1706 -1.8117 -0.6252
 8838SOL    MW435120   0.276   6.297   3.754  0.4102  0.6101 -0.5259
 8839SOL     OW35121   1.444   1.241   2.256 -0.4698  0.1489 -0.7515
 8839SOL    HW235122   1.504   1.308   2.291 -0.4921 -0.1618 -0.0981
 8839SOL    HW335123   1.442   1.257   2.162  0.4811  0.2914 -0.7531
 8839SOL    MW435124   1.452   1.252   2.248  0.2627  0.4529  0.5911
 8840SOL     OW35125   3.690   0.582   6.332 -0.2420 -0.7678 -0.3163
 8840SOL    HW235126   3.616   0.524   6.314 -0.8844 -0.2484  0.5424
 8840SOL    HW335127   3.657   0.642   6.399  0.7524 -0.1027 -0.4021
 8840SOL    MW435128   3.676   0.582   6.338 -0.1717 -0.0671  0.5031
 8841SOL     OW35129   6.269   2.551   6.400  0.4963 -0.3945 -0.1457
 8841SOL    HW235130   6.304   2.632   6.364 -0.9001  0.5027  0.4524
 8841SOL    HW335131   6.227   2.508   6.325  1.0116 -0.4508 -0.4053
 8841SOL    MW435132   6.268   2.556   6.385  0.5339 -0.0898  0.0915
 8842SOL     OW35133   6.055   4.336   4.949 -0.0733 -0.1820 -0.5136
 8842SOL    HW235134   5.968   4.340   4.989  0.3081  1.0783  0.2385
 8842SOL    HW335135   6.114   4.317   5.022  0.4441  0.4590 -0.7560
 8842SOL    MW435136   6.051   4.334   4.964 -0.1295 -1.0251  0.0702
 8843SOL     OW35137   5.209   5.937   0.427 -0.1288 -0.3695  0.8496
 8843SOL    HW235138   5.175   6.016   0.384 -1.8388 -1.7160 -0.3988
 8843SOL    HW335139   5.302   5.937   0.405 -0.2252  0.9502  0.3189
 8843SOL    MW435140   5.217   5.948   0.419 -0.4636  0.1000 -0.1890
 8844SOL     OW35141   4.644   6.307   3.593 -0.7178 -0.5532 -0.3535
 8844SOL    HW235142   4.669   6.396   3.617 -0.0616 -0.4524 -1.3388
 8844SOL    HW335143   4.703   6.251   3.641 -0.5539 -0.4205 -0.3995
 8844SOL    MW435144   4.655   6.312   3.602  0.1519 -0.3294 -0.0099
 8845SOL     OW35145   4.113   4.739   6.350 -0.0783  0.3206  0.1342
 8845SOL    HW235146   4.115   4.790   6.431 -1.8250 -1.0904  1.1657
 8845SOL    HW335147   4.055   4.665   6.371  0.5349 -0.8285 -1.9895
 8845SOL    MW435148   4.105   4.736   6.364  0.2593 -0.3913  0.2769
 8846SOL     OW35149   1.329   5.645   0.917  0.4676 -0.1406 -0.7017
 8846SOL    HW235150   1.308   5.693   0.997 -0.0958  0.0994 -0.9940
 8846SOL    HW335151   1.247   5.605   0.889  0.2809  1.0878 -2.0345
 8846SOL    MW435152   1.316   5.646   0.924 -0.1779 -0.4413  0.0769
 8847SOL     OW35153   1.846   2.333   3.443  1.0510 -0.8757  0.0365
 8847SOL    HW235154   1.772   2.274   3.458  0.9128 -0.8141 -0.3860
 8847SOL    HW335155   1.827   2.373   3.358  0.2038  1.1720  1.1149
 8847SOL    MW435156   1.833   2.330   3.433 -0.5661  0.1814  0.0975
 8848SOL     OW35157   5.165   1.431   1.377 -0.1349  0.4235 -0.0830
 8848SOL    HW235158   5.086   1.447   1.325 -0.2034  1.8796  0.4415
 8848SOL    HW335159   5.137   1.446   1.468  1.0643  2.4292  0.0024
 8848SOL    MW435160   5.151   1.435   1.382  1.0302 -0.6300  0.1120
 8849SOL     OW35161   1.585   3.706   1.802 -0.1053  0.3392 -0.8765
 8849SOL    HW235162   1.584   3.715   1.898  0.2773 -0.6828 -0.7661
 8849SOL    HW335163   1.613   3.616   1.787  1.2419  0.8977 -1.9724
 8849SOL    MW435164   1.589   3.695   1.813 -0.3776  0.3819 -0.4969
 8850SOL     OW35165   0.974   3.951   0.185 -0.5459  0.4990  0.4379
 8850SOL    HW235166   0.991   4.040   0.217  2.1435 -0.3187  1.6066
 8850SOL    HW335167   1.054   3.902   0.206 -1.7041 -2.0836 -0.6663
 8850SOL    MW435168   0.987   3.956   0.192  0.4734 -1.0705 -1.1757
 8851SOL     OW35169   4.404   0.422   0.953 -0.7584 -0.3482  0.0487
 8851SOL    HW235170   4.382   0.365   0.879  0.9965 -0.9020 -0.1148
 8851SOL    HW335171   4.439   0.501   0.911 -1.5285  0.1260  0.2892
 8851SOL    MW435172   4.406   0.425   0.938  0.4795 -1.0393 -0.6993
 8852SOL     OW35173   5.676   6.051   4.589 -0.4109  0.0645 -0.4691
 8852SOL    HW235174   5.601   6.109   4.578 -0.7459 -0.2595  0.0707
 8852SOL    HW335175   5.744   6.107   4.626 -0.3207  0.4027 -1.1304
 8852SOL    MW435176   5.675   6.066   4.592  0.1465 -0.3068  0.5832
 8853SOL     OW35177   1.395   1.310   4.361  0.4937 -0.5501 -0.3860
 8853SOL    HW235178   1.478   1.345   4.395  0.7010 -0.0728 -1.3344
 8853SOL    HW335179   1.422   1.241   4.301  0.2380 -0.0393 -1.0991
 8853SOL    MW435180   1.410   1.306   4.358 -0.0145  0.2013  0.4397
 8854SOL     OW35181   2.030   2.409   5.258  0.2948 -0.9817  0.0155
 8854SOL    HW235182   2.065   2.412   5.347 -2.2608  0.6828  1.0949
 8854SOL    HW335183   2.023   2.315   5.239  1.4075 -1.3743  1.3244
 8854SOL    MW435184   2.034   2.397   5.268 -0.1605 -0.1550  0.9435
 8855SOL     OW35185   1.462   5.857   3.034  0.3434  0.5174  0.2583
 8855SOL    HW235186   1.481   5.920   2.964 -0.1847 -0.6262 -0.9580
 8855SOL    HW335187   1.518   5.782   3.015 -0.0125  0.0780  0.8937
 8855SOL    MW435188   1.472   5.855   3.022 -0.1383 -0.0176  0.1018
 8856SOL     OW35189   3.902   3.244   1.706  0.3795  0.3085 -0.1367
 8856SOL    HW235190   3.925   3.334   1.729 -0.6882  0.4307  0.5827
 8856SOL    HW335191   3.979   3.209   1.662  1.2454  1.1983  0.6352
 8856SOL    MW435192   3.915   3.252   1.703 -0.0277 -0.2324  0.3717
 8857SOL     OW35193   2.574   2.614   3.369  0.1140 -0.3215  0.1060
 8857SOL    HW235194   2.546   2.606   3.277 -0.1150 -1.4763  0.2584
 8857SOL    HW335195   2.598   2.706   3.379  1.2221 -0.4074 -1.4265
 8857SOL    MW435196   2.573   2.625   3.358  0.1995  0.7970 -0.4291
 8858SOL     OW35197   5.825   2.369   4.857 -0.4595  0.4756 -0.0620
 8858SOL    HW235198   5.825   2.465   4.863 -1.8330  0.5739 -1.1800
 8858SOL    HW335199   5.895   2.349   4.796 -0.2984  0.7756  0.0191
 8858SOL    MW435200   5.834   2.379   4.850  0.2603 -0.4572  0.4027
 8859SOL     OW35201   0.098   3.471   4.070 -0.5142 -0.2782  0.0890
 8859SOL    HW235202   0.029   3.471   4.003 -0.8168  0.2952  0.3966
 8859SOL    HW335203   0.155   3.399   4.044 -1.0363 -0.5437 -0.3669
 8859SOL    MW435204   0.096   3.461   4.058 -0.4714 -0.3266 -0.1109
 8860SOL     OW35205   5.184   5.819   5.442  0.0539  0.7212 -0.8514
 8860SOL    HW235206   5.119   5.791   5.507  1.8962  1.4634  1.4724
 8860SOL    HW335207   5.165   5.911   5.427 -0.2735  0.5898 -1.2541
 8860SOL    MW435208   5.173   5.827   5.449 -0.5387  0.0238 -0.3318
 8861SOL     OW35209   1.810   6.102   1.905 -0.0018  0.5035  0.1588
 8861SOL    HW235210   1.803   6.167   1.835  0.7209 -0.9485 -1.3343
 8861SOL    HW335211   1.757   6.028   1.874  2.2050 -1.1077 -0.0109
 8861SOL    MW435212   1.802   6.101   1.892  0.1149  0.5914  0.4096
 8862SOL     OW35213   0.315   1.907   5.665 -0.3351 -0.1469 -0.3358
 8862SOL    HW235214   0.385   1.904   5.600 -0.3601 -0.4022 -0.3527
 8862SOL    HW335215   0.286   1.816   5.673 -0.3272 -0.1194  0.0367
 8862SOL    MW435216   0.321   1.895   5.658 -0.2458  0.1327 -0.1695
 8863SOL     OW35217   6.150   1.446   0.243 -0.7944 -0.0537 -0.1898
 8863SOL    HW235218   6.153   1.491   0.158 -2.4709 -2.0798 -1.4470
 8863SOL    HW335219   6.223   1.385   0.240 -1.2352 -0.5765 -0.4835
 8863SOL    MW435220   6.160   1.444   0.231 -0.1217 -0.2082 -0.3066
 8864SOL     OW35221   5.503   0.510   1.990 -0.0616  0.4139 -0.1630
 8864SOL    HW235222   5.446   0.546   1.921  1.2508  0.8719 -1.0519
 8864SOL    HW335223   5.586   0.556   1.979  0.6370 -0.5612  0.8019
 8864SOL    MW435224   5.506   0.521   1.979  0.1811 -0.1352 -0.1796
 8865SOL     OW35225   3.158   1.440   2.280 -0.0902  0.0937  0.1114
 8865SOL    HW235226   3.247   1.412   2.303  0.3014  0.6504 -0.6771
 8865SOL    HW335227   3.120   1.365   2.235 -0.3124 -0.4320  1.1328
 8865SOL    MW435228   3.165   1.426   2.277  0.4715  0.3331  0.2093
 8866SOL     OW35229   5.227   4.278   4.276 -0.2071  0.5291  0.2093
 8866SOL    HW235230   5.197   4.188   4.266 -0.2410  0.7284 -1.8860
 8866SOL    HW335231   5.148   4.331   4.266 -0.0184  0.8378  0.3391
 8866SOL    MW435232   5.213   4.273   4.273 -0.5341  0.3576 -0.2981
 8867SOL     OW35233   4.541   6.363   3.294  0.4299 -0.0968 -0.3782
 8867SOL    HW235234   4.611   6.418   3.260 -0.8583  0.8973 -1.5416
 8867SOL    HW335235   4.551   6.368   3.389  1.0146  1.2847 -0.4812
 8867SOL    MW435236   4.551   6.371   3.302 -0.6577 -0.1214 -0.0482
 8868SOL     OW35237   1.481   4.791   2.169  0.0003 -0.4714 -0.0034
 8868SOL    HW235238   1.571   4.778   2.139  0.7492 -0.0952  1.9353
 8868SOL    HW335239   1.490   4.832   2.255 -1.9727 -1.9486  0.9980
 8868SOL    MW435240   1.494   4.795   2.176  0.6953  0.2080  0.3350
 8869SOL     OW35241   0.877   2.676   3.766  0.6710 -0.4989  0.0047
 8869SOL    HW235242   0.851   2.718   3.684 -4.0550  1.4927  2.1183
 8869SOL    HW335243   0.965   2.709   3.783  1.2032  0.2193 -3.4514
 8869SOL    MW435244   0.885   2.686   3.757 -0.1803 -0.5548 -0.0184
 8870SOL     OW35245   3.778   0.111   1.534  0.7801  0.5179 -0.0739
 8870SOL    HW235246   3.726   0.086   1.611 -0.7714 -1.0710 -1.5294
 8870SOL    HW335247   3.856   0.056   1.539  0.5236  0.1723  0.1967
 8870SOL    MW435248   3.781   0.100   1.544  0.5183  0.0084  0.1302
 8871SOL     OW35249   3.398   4.265   5.710 -0.2195 -0.4388 -0.3979
 8871SOL    HW235250   3.320   4.318   5.720 -0.5268 -0.7179 -1.1931
 8871SOL    HW335251   3.436   4.294   5.627 -1.6889 -3.0237 -2.1096
 8871SOL    MW435252   3.393   4.276   5.700  0.3212 -0.3866 -0.1765
 8872SOL     OW35253   5.399   0.535   5.591 -0.2132  0.2466  0.4678
 8872SOL    HW235254   5.368   0.621   5.561  0.0149  0.9940  2.2291
 8872SOL    HW335255   5.341   0.513   5.664  1.9265  0.6531  2.4075
 8872SOL    MW435256   5.387   0.544   5.597  0.1350  0.4625 -0.2945
 8873SOL     OW35257   1.268   3.318   2.805  0.0310  0.4599 -0.3699
 8873SOL    HW235258   1.353   3.276   2.820  0.2639  0.9939 -0.1760
 8873SOL    HW335259   1.213   3.248   2.769  0.5102  0.0747 -0.3675
 8873SOL    MW435260   1.272   3.303   2.802 -0.3414 -0.3667 -0.7115
 8874SOL     OW35261   5.971   3.950   5.086  0.3098  0.9278  0.3394
 8874SOL    HW235262   5.902   3.953   5.020 -0.6518 -1.5291  1.1379
 8874SOL    HW335263   6.048   3.919   5.038 -0.3746 -0.8114  0.2998
 8874SOL    MW435264   5.972   3.946   5.071  0.6734  0.5040 -0.4044
 8875SOL     OW35265   5.975   0.541   0.750  0.3772  0.1592 -0.4337
 8875SOL    HW235266   6.055   0.489   0.750  0.6450  0.5663 -0.8507
 8875SOL    HW335267   5.927   0.511   0.673  0.6655  0.7256 -0.8398
 8875SOL    MW435268   5.979   0.530   0.740 -0.5432  0.3717 -0.1173
 8876SOL     OW35269   0.843   2.316   2.290  0.6015 -0.5496  0.0012
 8876SOL    HW235270   0.786   2.385   2.256  0.2229 -0.7707  0.1791
 8876SOL    HW335271   0.839   2.246   2.225  0.1625 -0.8247  0.3163
 8876SOL    MW435272   0.835   2.316   2.277  0.6784 -0.3178  0.2412
 8877SOL     OW35273   2.340   1.691   4.463 -0.8619  0.4223  0.0571
 8877SOL    HW235274   2.308   1.603   4.447 -0.1293  0.0337  0.6665
 8877SOL    HW335275   2.303   1.716   4.548  0.0606  0.1398  0.5558
 8877SOL    MW435276   2.331   1.683   4.472  0.2133 -0.1118  0.1197
 8878SOL     OW35277   0.864   0.912   0.556 -0.7927 -0.2088 -0.1973
 8878SOL    HW235278   0.794   0.928   0.620  0.5224  1.4547  0.9091
 8878SOL    HW335279   0.885   0.819   0.567  2.2947  0.7021  5.0606
 8878SOL    MW435280   0.857   0.902   0.566  0.6060  0.2399 -0.2473
 8879SOL     OW35281   6.218   0.848   3.614  0.0630  0.3618 -0.2168
 8879SOL    HW235282   6.190   0.793   3.687 -0.2135  2.1848  1.1092
 8879SOL    HW335283   6.313   0.854   3.625  0.0944  0.1432 -0.3683
 8879SOL    MW435284   6.227   0.842   3.625 -0.0696  0.6245  0.2438
 8880SOL     OW35285   2.796   3.045   0.701  0.1897 -0.6005  0.3948
 8880SOL    HW235286   2.744   2.987   0.645  0.8777  0.3233 -1.2897
 8880SOL    HW335287   2.876   2.996   0.718  0.5611 -0.3790 -0.6154
 8880SOL    MW435288   2.799   3.031   0.696  0.4312  0.7538  0.2420
 8881SOL     OW35289   0.460   0.243   2.558  0.1766  0.6470 -0.3590
 8881SOL    HW235290   0.394   0.254   2.627  0.7270  0.8230  0.1453
 8881SOL    HW335291   0.494   0.331   2.543  0.8299  0.4465 -0.0797
 8881SOL    MW435292   0.456   0.256   2.565 -0.0071  0.3546  0.0582
 8882SOL     OW35293   1.778   6.062   1.142  0.8743 -0.2779 -0.0756
 8882SOL    HW235294   1.813   6.098   1.060  2.7480 -0.3804  0.6349
 8882SOL    HW335295   1.794   5.968   1.136 -0.5509 -0.5330 -0.2913
 8882SOL    MW435296   1.785   6.055   1.130  0.4135 -0.3969  0.2031
 8883SOL     OW35297   1.023   4.227   1.014 -0.0129  0.0323  0.1141
 8883SOL    HW235298   1.011   4.173   1.092  0.9034  1.9444  1.6874
 8883SOL    HW335299   1.100   4.192   0.971  0.2995 -0.2024  0.8564
 8883SOL    MW435300   1.031   4.215   1.018 -0.9552 -0.3840  0.0208
 8884SOL     OW35301   4.949   4.153   1.682  0.0948  0.3844 -0.2547
 8884SOL    HW235302   4.868   4.102   1.669 -0.6864  1.6796 -0.6003
 8884SOL    HW335303   5.019   4.088   1.675 -0.9069 -0.7958  0.1927
 8884SOL    MW435304   4.947   4.137   1.680 -0.0059 -0.4105 -0.8581
 8885SOL     OW35305   0.769   5.495   1.139 -0.0383 -0.1593  0.3827
 8885SOL    HW235306   0.741   5.419   1.190 -1.3178  1.5449  2.3995
 8885SOL    HW335307   0.698   5.509   1.076  0.5586 -1.0467 -0.5068
 8885SOL    MW435308   0.756   5.487   1.138  0.3664 -0.3811  0.0168
 8886NA      NA35309   5.822   2.523   0.456  0.4511 -0.5061  0.0448
 8887NA      NA35310   0.673   4.421   4.138  0.1388 -0.1939  0.1435
 8888NA      NA35311   3.589   0.685   5.518  0.5224  0.1362  0.3226
 8889NA      NA35312   1.775   2.184   1.496 -0.3636  0.1000 -0.2997
 8890NA      NA35313   4.813   2.622   4.167 -0.0901 -0.0503  0.1401
 8891NA      NA35314   2.548   5.774   5.541  0.0642 -0.1690 -0.0040
 8892NA      NA35315   1.222   4.710   1.499 -0.0697  0.1818 -0.0456
   6.42900   6.42900   6.42900
