A-SYNC WITH LIG-47 in water
35301
  121NASP     N    1   4.747   0.078   5.287 -1.1037  0.8122  0.0677
  121NASP    H1    2   4.698   0.103   5.372 -0.6798 -0.4678  0.7111
  121NASP    H2    3   4.698   0.115   5.206  0.4728 -2.9881 -2.9247
  121NASP    H3    4   4.834   0.127   5.276 -0.3687 -0.6598 -1.0133
  121NASP    CA    5   4.752  -0.070   5.267 -0.4091 -0.2211  0.1896
  121NASP    HA    6   4.655  -0.117   5.282  0.0293 -0.4195  2.9180
  121NASP    CB    7   4.810  -0.107   5.129  0.4318 -0.3635  0.2366
  121NASP   HB1    8   4.793  -0.215   5.121  1.0464 -0.4077 -0.6156
  121NASP   HB2    9   4.915  -0.078   5.126 -0.0351  1.3579 -0.4441
  121NASP    CG   10   4.737  -0.047   5.006  0.2112  0.0223 -0.1612
  121NASP   OD1   11   4.761  -0.100   4.894 -0.1735 -0.4356  0.3515
  121NASP   OD2   12   4.648   0.036   5.031 -0.1938  0.0530 -0.0374
  121NASP     C   13   4.834  -0.127   5.388 -0.4163  0.9030 -0.6885
  121NASP     O   14   4.911  -0.054   5.453  0.2325  0.4360 -0.4660
  122ASN      N   15   4.831  -0.261   5.408  0.0620  0.1246 -0.2580
  122ASN      H   16   4.780  -0.323   5.347  1.5198 -3.5077  1.8971
  122ASN     CA   17   4.915  -0.333   5.503 -0.1925  0.3447 -0.4072
  122ASN     HA   18   4.917  -0.283   5.600  0.7641  0.5249 -0.5071
  122ASN     CB   19   4.846  -0.471   5.539  0.1680 -0.7941  0.4593
  122ASN    HB1   20   4.829  -0.533   5.451  2.3929 -0.2638 -0.4236
  122ASN    HB2   21   4.746  -0.459   5.580 -0.5326  2.7863 -1.7975
  122ASN     CG   22   4.919  -0.554   5.641  0.5434 -0.9449  0.1995
  122ASN    OD1   23   5.021  -0.524   5.694 -0.0215  0.4469 -0.0713
  122ASN    ND2   24   4.876  -0.675   5.676 -0.1053 -0.0408  0.2769
  122ASN   HD21   25   4.921  -0.730   5.748  0.6273 -0.0299 -0.1672
  122ASN   HD22   26   4.808  -0.716   5.613  2.7042 -0.7596 -2.4931
  122ASN      C   27   5.058  -0.362   5.443 -0.7578  0.8421  0.1765
  122ASN      O   28   5.064  -0.410   5.327  0.1189  0.5757 -0.0456
  123GLU      N   29   5.166  -0.331   5.520 -0.5159 -0.6178  0.3369
  123GLU      H   30   5.142  -0.295   5.612 -1.7766  1.5080 -0.7423
  123GLU     CA   31   5.311  -0.341   5.485  0.1999 -0.3146  0.8207
  123GLU     HA   32   5.321  -0.348   5.377  0.0458  0.6305  0.7423
  123GLU     CB   33   5.391  -0.211   5.508  0.8102  1.0196 -0.3248
  123GLU    HB1   34   5.491  -0.220   5.466  0.4820  0.1699 -0.9621
  123GLU    HB2   35   5.398  -0.188   5.614  1.0919  1.9214 -0.5261
  123GLU     CG   36   5.316  -0.096   5.444 -0.0528 -0.0518  0.3168
  123GLU    HG1   37   5.214  -0.081   5.479 -0.8537 -0.6829 -1.5940
  123GLU    HG2   38   5.304  -0.127   5.340  0.6054 -0.2545  0.2991
  123GLU     CD   39   5.395   0.036   5.444 -0.4797  0.2581 -0.0038
  123GLU    OE1   40   5.516   0.043   5.402  0.0450  0.1836  0.0612
  123GLU    OE2   41   5.326   0.140   5.471  0.1642 -0.2607 -0.4276
  123GLU      C   42   5.378  -0.472   5.532 -0.4497 -0.3680  0.3043
  123GLU      O   43   5.486  -0.507   5.490 -0.3498  0.0686 -0.0591
  124ALA      N   44   5.304  -0.552   5.612 -0.2218  0.0768 -0.4665
  124ALA      H   45   5.217  -0.509   5.639  0.5049  1.0000  0.4681
  124ALA     CA   46   5.337  -0.695   5.634  0.5109  0.6392  0.4786
  124ALA     HA   47   5.445  -0.704   5.636  0.3411 -2.2155  0.7914
  124ALA     CB   48   5.285  -0.739   5.772 -0.6273 -0.2472  0.2175
  124ALA    HB1   49   5.176  -0.739   5.778 -0.7109  0.0064 -0.9559
  124ALA    HB2   50   5.323  -0.662   5.839  1.0482  0.0812 -1.0373
  124ALA    HB3   51   5.331  -0.833   5.802 -0.7115 -0.1161  0.7547
  124ALA      C   52   5.275  -0.787   5.521  0.3725 -0.2494  0.3270
  124ALA      O   53   5.167  -0.754   5.469  0.5794  0.1509  0.1045
  125TYR      N   54   5.355  -0.880   5.484  0.2684  0.6181 -0.3459
  125TYR      H   55   5.438  -0.902   5.537 -0.3301 -3.0752 -0.6726
  125TYR     CA   56   5.310  -0.985   5.386  0.2750  0.4738 -0.0600
  125TYR     HA   57   5.289  -0.940   5.289  0.8613  0.1564 -0.3403
  125TYR     CB   58   5.430  -1.077   5.362 -0.7664 -0.0593  0.2299
  125TYR    HB1   59   5.473  -1.115   5.455  3.3695  1.3728 -0.8832
  125TYR    HB2   60   5.515  -1.024   5.319 -0.6797  1.7641  2.4770
  125TYR     CG   61   5.401  -1.200   5.273  0.0450 -0.4809  0.7581
  125TYR    CD1   62   5.367  -1.324   5.333 -0.2454  0.6967 -0.2740
  125TYR    HD1   63   5.383  -1.341   5.438  0.6452  1.7733 -0.2148
  125TYR    CE1   64   5.329  -1.433   5.251  0.6045  0.1762 -0.4929
  125TYR    HE1   65   5.322  -1.529   5.301  0.8226  0.8213  0.8167
  125TYR     CZ   66   5.324  -1.420   5.114 -0.6551 -0.5514  0.0333
  125TYR     OH   67   5.306  -1.521   5.031 -0.6769 -0.2259 -0.0331
  125TYR     HH   68   5.327  -1.601   5.080  0.5116 -0.0655 -0.2474
  125TYR    CE2   69   5.355  -1.293   5.055  0.2060  0.2722  0.0916
  125TYR    HE2   70   5.337  -1.285   4.949 -2.9517  0.4655  0.5216
  125TYR    CD2   71   5.390  -1.184   5.133 -0.2844 -0.4123 -0.6970
  125TYR    HD2   72   5.407  -1.085   5.093 -0.6536 -0.2105 -0.3596
  125TYR      C   73   5.192  -1.065   5.445 -0.0075 -0.2336 -0.3347
  125TYR      O   74   5.188  -1.088   5.562 -0.6012  0.2946  0.2705
  126GLU      N   75   5.089  -1.078   5.357  0.7105  0.4340 -0.2310
  126GLU      H   76   5.105  -1.070   5.257  1.2236  0.4887 -0.1496
  126GLU     CA   77   4.962  -1.143   5.400  1.0173 -0.5705  0.7485
  126GLU     HA   78   4.948  -1.138   5.508  3.2583  1.4853  1.0215
  126GLU     CB   79   4.840  -1.049   5.346 -0.3287 -0.1649 -0.7217
  126GLU    HB1   80   4.746  -1.101   5.362  0.6136 -1.1172  2.7218
  126GLU    HB2   81   4.852  -1.030   5.240  0.9823  1.3877 -0.3415
  126GLU     CG   82   4.836  -0.922   5.442  0.0843  0.4690 -0.1545
  126GLU    HG1   83   4.926  -0.861   5.434  3.0254 -3.1190  2.1765
  126GLU    HG2   84   4.830  -0.957   5.545 -1.2756  0.6086 -0.1652
  126GLU     CD   85   4.707  -0.842   5.419 -0.0759 -0.5236 -0.1827
  126GLU    OE1   86   4.655  -0.845   5.304 -0.7877  0.3765 -0.2453
  126GLU    OE2   87   4.667  -0.756   5.503 -0.0856 -0.5727 -0.5189
  126GLU      C   88   4.947  -1.287   5.345  0.0535  0.0635 -0.2330
  126GLU      O   89   4.926  -1.312   5.232 -0.0337  0.1854 -0.3534
  127MET      N   90   4.965  -1.378   5.436  1.0326  0.0676 -0.0410
  127MET      H   91   5.011  -1.347   5.520  0.1488  2.2381 -0.2832
  127MET     CA   92   4.929  -1.523   5.416 -0.1897 -0.5693 -0.5970
  127MET     HA   93   4.928  -1.542   5.309 -0.2893  0.0833 -0.7136
  127MET     CB   94   5.046  -1.617   5.468  0.4382  0.0448 -0.4079
  127MET    HB1   95   5.059  -1.607   5.575  1.7727  1.1643 -0.6460
  127MET    HB2   96   5.145  -1.595   5.428  0.8434 -1.9858 -0.6096
  127MET     CG   97   5.010  -1.768   5.445  0.3105 -0.5701 -0.1491
  127MET    HG1   98   4.966  -1.777   5.346  1.0245 -1.5041 -0.3914
  127MET    HG2   99   4.930  -1.777   5.519 -0.6848 -3.0029 -1.4295
  127MET     SD  100   5.148  -1.883   5.486  0.0191  0.0138 -0.2740
  127MET     CE  101   5.241  -1.863   5.332  0.1298 -0.4482 -0.0001
  127MET    HE1  102   5.327  -1.930   5.330  1.1214  0.8185 -0.5635
  127MET    HE2  103   5.256  -1.757   5.313  0.0980  0.0722  2.5360
  127MET    HE3  104   5.178  -1.905   5.254 -0.5813  0.4390  0.0817
  127MET      C  105   4.795  -1.554   5.487 -0.2198  1.3268  0.4000
  127MET      O  106   4.782  -1.526   5.606  0.3434  0.2690  0.2228
  128PRO      N  107   4.690  -1.609   5.418 -0.1993 -0.1119 -0.3829
  128PRO     CD  108   4.686  -1.621   5.270  0.2600  0.3774 -0.0791
  128PRO    HD1  109   4.761  -1.693   5.237  0.7335  0.3854  0.9538
  128PRO    HD2  110   4.720  -1.532   5.216 -1.1481  2.2078  1.8663
  128PRO     CG  111   4.539  -1.658   5.227 -0.6703 -0.6117  0.0010
  128PRO    HG1  112   4.539  -1.724   5.140 -1.1589  0.5128 -0.8831
  128PRO    HG2  113   4.482  -1.567   5.206 -0.9906 -1.1928 -1.8016
  128PRO     CB  114   4.490  -1.719   5.354 -0.4926 -0.1840  0.3671
  128PRO    HB1  115   4.382  -1.705   5.364 -0.1633  1.5921  1.8598
  128PRO    HB2  116   4.520  -1.824   5.355  0.6774  0.1210 -0.6671
  128PRO     CA  117   4.559  -1.648   5.472 -0.9038 -0.4325  0.2902
  128PRO     HA  118   4.511  -1.555   5.500  2.0149  0.9681  1.0085
  128PRO      C  119   4.569  -1.743   5.597  0.1115 -1.2057 -0.3212
  128PRO      O  120   4.642  -1.842   5.596 -0.3460 -0.4752  0.8884
  129SER      N  121   4.488  -1.718   5.705  0.1527  0.5398 -0.1120
  129SER      H  122   4.433  -1.633   5.699  0.1925  0.5023 -1.2425
  129SER     CA  123   4.464  -1.801   5.826  0.0904  0.2560 -0.4012
  129SER     HA  124   4.504  -1.900   5.805 -2.0100 -0.7954  0.2548
  129SER     CB  125   4.540  -1.737   5.948  0.9806  0.0510  0.9565
  129SER    HB1  126   4.641  -1.771   5.926 -0.3955 -2.2717 -2.7264
  129SER    HB2  127   4.515  -1.792   6.039 -2.3513 -0.6378 -0.2481
  129SER     OG  128   4.518  -1.594   5.951  0.1290  0.8856  0.1132
  129SER    HG1  129   4.593  -1.560   6.002 -1.0813  1.5804  1.5373
  129SER      C  130   4.318  -1.826   5.874 -0.1917  0.3616 -0.0752
  129SER      O  131   4.296  -1.901   5.960  0.3113 -0.1522 -0.1035
  130GLU      N  132   4.223  -1.763   5.798  0.3190  0.2418 -0.3431
  130GLU      H  133   4.250  -1.720   5.711 -0.8823  1.6339 -0.0697
  130GLU     CA  134   4.077  -1.779   5.836  0.1909  0.0396  0.1129
  130GLU     HA  135   4.069  -1.798   5.943 -0.0728  3.3403  0.7654
  130GLU     CB  136   4.008  -1.650   5.811 -0.8752 -0.6849  0.1335
  130GLU    HB1  137   3.902  -1.654   5.837 -1.2575  0.7096 -1.0872
  130GLU    HB2  138   4.024  -1.617   5.709  1.0862 -0.6070  0.4329
  130GLU     CG  139   4.069  -1.542   5.901 -0.1109 -0.6604  0.1605
  130GLU    HG1  140   4.178  -1.548   5.896 -0.0560 -0.8089  1.4240
  130GLU    HG2  141   4.052  -1.545   6.008  2.8041 -1.5528  0.6906
  130GLU     CD  142   4.040  -1.396   5.852  0.4565  0.3928  0.1509
  130GLU    OE1  143   3.925  -1.374   5.809 -0.2783 -0.0270 -0.1213
  130GLU    OE2  144   4.133  -1.316   5.876  0.8123  0.4138  0.0082
  130GLU      C  145   4.010  -1.892   5.764 -0.2573 -0.0138 -0.0258
  130GLU      O  146   4.052  -1.941   5.657 -0.1792  0.7006  0.2495
  131GLU      N  147   3.894  -1.927   5.823 -0.0568  0.2365  0.4303
  131GLU      H  148   3.861  -1.878   5.905 -0.8684  1.7804 -0.7673
  131GLU     CA  149   3.817  -2.043   5.777  0.7489  0.0703  0.5609
  131GLU     HA  150   3.866  -2.137   5.801 -1.2397 -2.4975 -4.1366
  131GLU     CB  151   3.682  -2.042   5.841  0.1022  0.2181 -0.1785
  131GLU    HB1  152   3.635  -2.136   5.811  0.2883  0.6744 -1.9830
  131GLU    HB2  153   3.617  -1.960   5.811 -0.4543  0.9728  2.7319
  131GLU     CG  154   3.687  -2.061   5.995  0.3361 -0.4021  0.3794
  131GLU    HG1  155   3.759  -1.999   6.049 -0.3338 -0.2178  1.0711
  131GLU    HG2  156   3.724  -2.163   6.005  1.6273 -0.0791 -0.8084
  131GLU     CD  157   3.550  -2.042   6.070 -0.8151 -0.3639  0.1364
  131GLU    OE1  158   3.541  -2.084   6.190 -0.1773  0.0508 -0.4844
  131GLU    OE2  159   3.453  -1.986   6.015 -0.4247 -0.1920  0.4568
  131GLU      C  160   3.796  -2.048   5.624  0.2911 -0.0676 -0.2984
  131GLU      O  161   3.746  -1.955   5.561 -0.6308 -0.3552 -0.0008
  132GLY      N  162   3.836  -2.156   5.565  0.4692  0.9398  0.3036
  132GLY      H  163   3.877  -2.224   5.628  0.3831  2.3821  2.0102
  132GLY     CA  164   3.863  -2.173   5.422  0.7135 -0.5275  0.3613
  132GLY    HA1  165   3.821  -2.090   5.366 -0.5222 -1.8963 -0.8407
  132GLY    HA2  166   3.812  -2.261   5.382  0.6020 -0.3184  0.0498
  132GLY      C  167   4.015  -2.196   5.391  0.3987  0.6741  0.9520
  132GLY      O  168   4.051  -2.275   5.304 -0.0176 -0.5520 -0.4020
  133TYR      N  169   4.105  -2.141   5.474 -0.1919 -0.4022  0.0893
  133TYR      H  170   4.070  -2.070   5.536 -0.9264  0.1364 -0.9095
  133TYR     CA  171   4.249  -2.177   5.477 -0.2250  0.3591  0.8375
  133TYR     HA  172   4.264  -2.276   5.434 -1.5048 -0.5544  2.3583
  133TYR     CB  173   4.317  -2.074   5.392 -0.2194  0.2562  0.3041
  133TYR    HB1  174   4.423  -2.091   5.415 -0.7724 -2.5629  1.1912
  133TYR    HB2  175   4.296  -1.974   5.431  0.8193  0.5093  0.2677
  133TYR     CG  176   4.305  -2.079   5.239 -0.1504  0.4135 -0.0468
  133TYR    CD1  177   4.279  -1.959   5.165  0.1626  0.0760 -0.7227
  133TYR    HD1  178   4.258  -1.872   5.227  0.2227 -0.4021 -0.0161
  133TYR    CE1  179   4.279  -1.950   5.027 -0.1323  1.1661  0.6190
  133TYR    HE1  180   4.267  -1.858   4.972  1.9453  0.8263 -0.5249
  133TYR     CZ  181   4.285  -2.074   4.960  0.4664 -0.3518  0.2479
  133TYR     OH  182   4.269  -2.071   4.826 -0.2221 -0.0129 -0.4824
  133TYR     HH  183   4.278  -1.984   4.786  0.0516  0.0552 -0.2714
  133TYR    CE2  184   4.314  -2.192   5.028  0.9420 -0.2257 -0.4568
  133TYR    HE2  185   4.323  -2.280   4.967 -0.2807 -0.1109 -0.8333
  133TYR    CD2  186   4.321  -2.196   5.168  0.2712  0.2781  0.4685
  133TYR    HD2  187   4.349  -2.290   5.212  0.0740  0.2930  0.6278
  133TYR      C  188   4.297  -2.188   5.626  1.1896  0.1031  0.3373
  133TYR      O  189   4.301  -2.087   5.695  0.5968  0.4716 -0.1985
  134GLN      N  190   4.350  -2.307   5.671  0.0144  0.0650  0.0964
  134GLN      H  191   4.357  -2.380   5.602  2.5459 -0.1507  0.4669
  134GLN     CA  192   4.380  -2.345   5.814 -0.3668 -1.0842 -0.2496
  134GLN     HA  193   4.292  -2.342   5.878 -0.4272 -4.4533 -0.0174
  134GLN     CB  194   4.404  -2.499   5.824 -1.0876 -0.2007 -0.4525
  134GLN    HB1  195   4.492  -2.530   5.767  0.4079 -0.4754  1.8816
  134GLN    HB2  196   4.317  -2.541   5.776  0.0707 -2.2268 -0.8883
  134GLN     CG  197   4.411  -2.553   5.972  0.0575 -0.0030 -0.0127
  134GLN    HG1  198   4.320  -2.517   6.020 -0.2257  0.5085 -0.9108
  134GLN    HG2  199   4.500  -2.514   6.022  0.7752 -0.5463 -0.8580
  134GLN     CD  200   4.400  -2.699   5.984 -0.2080  0.2062 -0.7075
  134GLN    OE1  201   4.326  -2.766   5.908  0.0099  0.4070 -0.0502
  134GLN    NE2  202   4.466  -2.757   6.085 -0.0374  0.3182  0.0788
  134GLN   HE21  203   4.443  -2.855   6.093 -0.7964  0.2899 -1.7720
  134GLN   HE22  204   4.498  -2.703   6.164  2.3498 -0.3525 -0.3441
  134GLN      C  205   4.490  -2.258   5.871 -0.2796  0.4372  0.1660
  134GLN      O  206   4.575  -2.205   5.798  0.1957  0.9356  0.3758
  135ASP      N  207   4.478  -2.234   6.003 -0.3898  0.0372  0.6699
  135ASP      H  208   4.391  -2.255   6.049 -0.2360  0.8046  1.3281
  135ASP     CA  209   4.572  -2.153   6.090 -0.0557 -0.6782  0.6252
  135ASP     HA  210   4.599  -2.065   6.033  1.4707 -1.8579 -0.5572
  135ASP     CB  211   4.496  -2.094   6.208  0.5660  0.3591 -0.4484
  135ASP    HB1  212   4.411  -2.038   6.170 -1.0942 -3.3381 -2.7078
  135ASP    HB2  213   4.561  -2.024   6.260  0.2767 -0.6950  1.4097
  135ASP     CG  214   4.443  -2.194   6.312 -0.7667 -0.5194 -0.1666
  135ASP    OD1  215   4.391  -2.297   6.269  0.0755  0.3095  0.1070
  135ASP    OD2  216   4.442  -2.169   6.437 -0.3130 -0.4467 -0.3614
  135ASP      C  217   4.695  -2.232   6.121 -0.2662  0.7245  0.5161
  135ASP      O  218   4.740  -2.237   6.236  0.3442 -0.7506 -0.0748
  136TYR      N  219   4.757  -2.280   6.012  0.1549 -0.4393 -0.6496
  136TYR      H  220   4.729  -2.259   5.917 -1.8626 -2.0370 -0.4940
  136TYR     CA  221   4.875  -2.362   6.009 -0.1705  0.3424  0.2438
  136TYR     HA  222   4.867  -2.447   6.078 -0.3110 -1.5249 -1.9630
  136TYR     CB  223   4.927  -2.414   5.874  0.1067 -0.0048 -0.6270
  136TYR    HB1  224   5.015  -2.475   5.897 -0.7665 -0.4242  1.9853
  136TYR    HB2  225   4.957  -2.330   5.811  1.2508 -0.0954 -0.2292
  136TYR     CG  226   4.824  -2.504   5.800  0.0133 -1.2710  0.0185
  136TYR    CD1  227   4.793  -2.463   5.668  0.2750  0.4982 -0.2163
  136TYR    HD1  228   4.832  -2.375   5.620  1.4086  1.0954  1.6822
  136TYR    CE1  229   4.706  -2.545   5.594  0.1408 -0.2350  0.2056
  136TYR    HE1  230   4.697  -2.537   5.487  0.9740 -1.2799  0.0429
  136TYR     CZ  231   4.661  -2.669   5.645 -0.3715 -0.1784  0.2510
  136TYR     OH  232   4.575  -2.745   5.574 -0.2875  0.6440 -0.2678
  136TYR     HH  233   4.572  -2.702   5.488  0.9756 -2.3947 -1.9695
  136TYR    CE2  234   4.685  -2.706   5.774  0.2089  0.0913  0.1258
  136TYR    HE2  235   4.652  -2.801   5.814  2.5429 -0.8699 -0.0711
  136TYR    CD2  236   4.772  -2.621   5.853  0.0621  0.5454  1.3804
  136TYR    HD2  237   4.805  -2.660   5.948  1.0254 -0.9262  0.4953
  136TYR      C  238   4.994  -2.282   6.064  1.0255  0.1380  0.3701
  136TYR      O  239   5.005  -2.157   6.065  0.2618 -0.5533 -0.5708
  137GLU      N  240   5.080  -2.356   6.133  0.3187  0.0780 -0.1018
  137GLU      H  241   5.060  -2.455   6.133 -1.0524  0.3030 -2.2062
  137GLU     CA  242   5.207  -2.314   6.198 -0.3817 -0.1294  0.5115
  137GLU     HA  243   5.189  -2.228   6.264  0.2544  0.3770  0.0436
  137GLU     CB  244   5.256  -2.432   6.283  0.4913  0.4065  0.1555
  137GLU    HB1  245   5.359  -2.416   6.317  1.0199  0.4365 -1.3886
  137GLU    HB2  246   5.260  -2.520   6.219 -3.6715  0.5410 -0.5706
  137GLU     CG  247   5.159  -2.452   6.397 -0.2947 -0.4917 -0.0645
  137GLU    HG1  248   5.059  -2.467   6.357 -0.3463  1.0169 -0.5693
  137GLU    HG2  249   5.148  -2.359   6.452 -0.6140  0.6899 -2.0463
  137GLU     CD  250   5.196  -2.569   6.495  0.0537  0.1334 -0.1750
  137GLU    OE1  251   5.314  -2.612   6.502 -0.7387  0.3579 -0.2792
  137GLU    OE2  252   5.106  -2.621   6.564 -0.1073  0.4879  0.2573
  137GLU      C  253   5.322  -2.278   6.105  0.2085 -0.8733  0.0146
  137GLU      O  254   5.341  -2.340   5.996 -0.2733  0.4398 -0.8331
  138PRO      N  255   5.403  -2.172   6.140  0.0809  0.2313  0.3973
  138PRO     CD  256   5.404  -2.093   6.267 -0.3078 -0.6346  0.3934
  138PRO    HD1  257   5.431  -2.165   6.345 -0.6733 -0.2568  0.8711
  138PRO    HD2  258   5.310  -2.041   6.282  0.2408  0.6221 -0.3960
  138PRO     CG  259   5.515  -1.994   6.257  0.5403  0.1408  0.3204
  138PRO    HG1  260   5.598  -2.026   6.319  0.4073 -0.3372  0.2597
  138PRO    HG2  261   5.490  -1.892   6.287 -0.9042 -0.2430  0.4919
  138PRO     CB  262   5.552  -1.998   6.108  0.3872  0.9718  0.1370
  138PRO    HB1  263   5.499  -1.922   6.050  0.9653  0.7413 -0.7241
  138PRO    HB2  264   5.661  -1.993   6.098  0.4251 -1.3349 -1.5008
  138PRO     CA  265   5.500  -2.127   6.048  0.0969 -0.7743 -0.9365
  138PRO     HA  266   5.465  -2.107   5.947  0.0269  2.5648 -0.3730
  138PRO      C  267   5.612  -2.226   6.022  0.8342  0.2492  0.0677
  138PRO      O  268   5.650  -2.307   6.101 -0.2334  0.3883 -0.2818
  139GLU      N  269   5.674  -2.218   5.904  0.1860  0.4668  0.1751
  139GLU      H  270   5.642  -2.145   5.843 -0.3865  0.0601 -0.0207
  139GLU     CA  271   5.803  -2.287   5.865 -0.2201 -0.2582 -0.4279
  139GLU     HA  272   5.789  -2.388   5.904  0.1317  0.2126  0.9900
  139GLU     CB  273   5.813  -2.294   5.714  0.1979 -0.4189  0.6147
  139GLU    HB1  274   5.912  -2.331   5.687  0.5932 -0.0671  1.5339
  139GLU    HB2  275   5.801  -2.194   5.672  1.7305 -1.5502 -2.9532
  139GLU     CG  276   5.705  -2.381   5.650 -0.1918  0.4196 -0.6552
  139GLU    HG1  277   5.609  -2.333   5.669 -2.0211 -2.0432 -2.9262
  139GLU    HG2  278   5.704  -2.478   5.700 -1.7032  0.6864 -0.1181
  139GLU     CD  279   5.734  -2.394   5.501 -0.2203 -0.0820 -0.2247
  139GLU    OE1  280   5.689  -2.301   5.431  0.7117 -0.1961 -0.3391
  139GLU    OE2  281   5.792  -2.497   5.459  0.4794  0.3171  0.0512
  139GLU      C  282   5.927  -2.244   5.932 -0.6639 -0.3470  0.0019
  139GLU      O  283   5.955  -2.120   5.924 -0.4457  1.2112  0.3256
  140CALA     N  284   6.006  -2.336   5.991 -0.4533 -0.4654  0.8870
  140CALA     H  285   5.972  -2.430   5.979 -0.7811 -0.1787 -0.5373
  140CALA    CA  286   6.132  -2.311   6.061  0.1770  0.4343  0.4724
  140CALA    HA  287   6.106  -2.260   6.153  0.2428  0.8097  0.2857
  140CALA    CB  288   6.193  -2.447   6.096 -0.0929  0.1361  0.0353
  140CALA   HB1  289   6.269  -2.448   6.175 -1.3783  0.3324  1.3055
  140CALA   HB2  290   6.222  -2.500   6.005  2.5283  1.6739 -0.1384
  140CALA   HB3  291   6.119  -2.509   6.146 -0.1250  0.0781 -0.0849
  140CALA     C  292   6.226  -2.215   5.987 -0.4469 -0.3315 -0.1346
  140CALA   OC1  293   6.268  -2.119   6.054 -0.2091 -0.4128  0.1525
  140CALA   OC2  294   6.254  -2.232   5.864 -0.7011  0.2083 -0.1916
  141L47      C  295   0.654   5.314   2.407 -0.2566  0.9452  0.2108
  141L47      H  296   0.694   5.359   2.315  1.1523  0.8050  0.7263
  141L47     H1  297   0.584   5.240   2.366  0.4554  1.4318 -2.0561
  141L47     H2  298   0.734   5.271   2.469  0.1353  0.6552 -0.4758
  141L47     C1  299   0.582   5.423   2.478 -0.9672 -0.0339 -0.1355
  141L47      O  300   0.477   5.398   2.535 -0.0355  0.2506  0.5376
  141L47      N  301   0.634   5.549   2.483 -0.6606 -0.0100 -0.4361
  141L47     C2  302   0.785   5.572   2.472 -0.3978  0.0877  0.4694
  141L47     H3  303   0.816   5.562   2.367  1.3370 -0.7931  1.0313
  141L47     H4  304   0.842   5.504   2.536  3.3745  0.6217 -2.0020
  141L47     C3  305   0.808   5.719   2.522  0.1799  0.1308  0.4399
  141L47     H5  306   0.883   5.760   2.454  0.7362  0.8993  1.4787
  141L47     H6  307   0.847   5.734   2.623 -0.8496 -0.0041  0.8793
  141L47     C4  308   0.666   5.773   2.521 -0.6890 -0.2360  0.1733
  141L47     C5  309   0.575   5.674   2.511 -0.6052  0.0404 -0.4390
  141L47     C6  310   0.437   5.702   2.507 -0.0540 -0.1838  0.3649
  141L47     H7  311   0.374   5.615   2.494 -0.9132  0.2209  1.6657
  141L47     C7  312   0.401   5.839   2.500 -0.3002  0.2135  0.1804
  141L47     H8  313   0.295   5.863   2.494 -0.9761 -2.5913 -0.3149
  141L47     C8  314   0.498   5.939   2.515 -0.4186 -0.3544  0.0928
  141L47     C9  315   0.631   5.911   2.532 -0.9491  0.0532  1.0687
  141L47     H9  316   0.712   5.983   2.538  1.0904 -2.1208  1.3387
  141L47      S  317   0.458   6.112   2.523 -0.0730  0.1902  0.0973
  141L47     O1  318   0.582   6.192   2.541 -0.1413 -0.1498 -0.0214
  141L47     O2  319   0.347   6.112   2.616 -0.3015  0.0101  0.2380
  141L47     N1  320   0.380   6.159   2.381  0.4570  0.1195 -0.7180
  141L47    C10  321   0.341   6.302   2.388 -0.6660 -0.6550 -0.3368
  141L47    H10  322   0.414   6.368   2.339  0.0704 -0.8752  0.4444
  141L47    H11  323   0.346   6.334   2.492  1.7698  0.3602 -0.6914
  141L47    C11  324   0.192   6.333   2.352  0.3964  0.4145 -0.8015
  141L47    H12  325   0.168   6.438   2.371 -2.3837 -0.5415  1.7277
  141L47    H13  326   0.132   6.288   2.431 -0.4763 -0.1977 -1.7817
  141L47    C12  327   0.152   6.300   2.210 -0.7046  0.1568 -0.2751
  141L47    H14  328   0.213   6.363   2.145  0.8265 -0.2984  0.6810
  141L47    H15  329   0.044   6.303   2.193 -1.1066 -1.9294  1.5387
  141L47     N2  330   0.192   6.164   2.167  0.6867  0.1849  0.0336
  141L47    H16  331   0.153   6.088   2.225 -0.5990 -1.3882 -2.6876
  141L47    H17  332   0.138   6.139   2.082  0.5964  0.4902  0.0003
  141L47    C13  333   0.343   6.154   2.141 -0.0499  0.1905  0.3475
  141L47    H18  334   0.387   6.246   2.101 -1.9266  0.3647 -1.5551
  141L47    H19  335   0.364   6.077   2.066  2.4358  3.4023 -2.5984
  141L47    C14  336   0.440   6.114   2.256  0.8802 -0.5027  0.0026
  141L47    H20  337   0.452   6.005   2.250 -3.2542 -1.1303  0.3677
  141L47    H21  338   0.544   6.144   2.237  0.7574 -0.9483 -1.5146
  142SOL     OW  339   0.744   6.325   0.017 -0.3029  0.1408 -0.2223
  142SOL    HW2  340   0.782   6.258   0.073  1.3917  1.3893  0.2113
  142SOL    HW3  341   0.816   6.354  -0.039 -1.3779  0.5441 -1.4505
  142SOL    MW4  342   0.758   6.320   0.017 -0.2211  0.3587 -0.3271
  143SOL     OW  343   3.179   3.026   3.569 -0.0512 -0.0306 -0.8321
  143SOL    HW2  344   3.186   2.991   3.657 -3.1013 -0.0983 -0.5080
  143SOL    HW3  345   3.230   3.107   3.571  1.1754 -0.8061  0.5034
  143SOL    MW4  346   3.187   3.032   3.581 -0.2918 -0.1418 -0.6132
  144SOL     OW  347   1.563   0.307   2.487  0.0013  0.2128 -0.1077
  144SOL    HW2  348   1.616   0.383   2.509 -1.5400  1.2704  0.0647
  144SOL    HW3  349   1.617   0.232   2.512  1.7608  1.2049 -0.7615
  144SOL    MW4  350   1.577   0.307   2.493  0.0301  0.4833 -0.1712
  145SOL     OW  351   0.020   2.571   5.787  0.2951 -0.1358 -0.4097
  145SOL    HW2  352  -0.029   2.648   5.818 -1.2481 -1.3801  0.4100
  145SOL    HW3  353  -0.039   2.498   5.804  2.5195 -1.7724  0.7924
  145SOL    MW4  354   0.006   2.572   5.794  0.3850 -0.5159 -0.1430
  146SOL     OW  355   0.678   5.995   2.899 -0.2324 -0.6694  0.1121
  146SOL    HW2  356   0.699   5.902   2.884  0.8688 -0.6307  1.2488
  146SOL    HW3  357   0.593   5.993   2.943 -0.3843 -1.1192 -0.1921
  146SOL    MW4  358   0.669   5.982   2.903 -0.1072 -0.7237  0.2220
  147SOL     OW  359   4.379   1.492   6.195  0.3275  0.4801 -1.2801
  147SOL    HW2  360   4.447   1.443   6.240  1.9136  0.9310 -3.0602
  147SOL    HW3  361   4.419   1.576   6.174 -0.8347  0.8378 -2.2169
  147SOL    MW4  362   4.393   1.496   6.198  0.3834  0.5867 -1.6386
  148SOL     OW  363   6.011   2.995   1.979 -0.1425 -0.0409  0.2353
  148SOL    HW2  364   6.024   2.900   1.978  1.7633  0.1695  1.1244
  148SOL    HW3  365   5.981   3.016   1.891  2.1416 -1.1689 -0.9051
  148SOL    MW4  366   6.009   2.985   1.968  0.4103 -0.1620  0.2021
  149SOL     OW  367   1.721   3.698   3.165 -0.4201  0.3129  0.1224
  149SOL    HW2  368   1.686   3.611   3.149 -0.6267  0.4857 -0.3759
  149SOL    HW3  369   1.796   3.684   3.223 -1.2390 -0.0737  1.1185
  149SOL    MW4  370   1.726   3.685   3.171 -0.5554  0.2847  0.1881
  150SOL     OW  371   3.398   5.349   3.108 -0.3102 -0.0826 -0.4735
  150SOL    HW2  372   3.336   5.386   3.170  0.6845  0.7539  0.0502
  150SOL    HW3  373   3.426   5.424   3.055 -0.6588 -0.6693 -1.5156
  150SOL    MW4  374   3.394   5.364   3.109 -0.2249 -0.0496 -0.5419
  151SOL     OW  375   5.691   3.224   1.549  0.2233  0.0989 -0.5040
  151SOL    HW2  376   5.656   3.137   1.570  0.5203  0.0712 -0.1171
  151SOL    HW3  377   5.731   3.254   1.631  0.0892  0.6161 -0.6258
  151SOL    MW4  378   5.691   3.217   1.563  0.2448  0.1635 -0.4690
  152SOL     OW  379   1.388   4.245   6.061 -0.6722 -0.4246  0.3019
  152SOL    HW2  380   1.472   4.211   6.092  0.1881  1.4384  0.1687
  152SOL    HW3  381   1.328   4.230   6.133 -0.2021 -1.6591  0.4571
  152SOL    MW4  382   1.391   4.239   6.074 -0.4967 -0.3417  0.3048
  153SOL     OW  383   1.925   5.444   3.382  0.3557  0.0572 -0.4770
  153SOL    HW2  384   1.908   5.530   3.342 -0.9264 -0.4539 -1.0959
  153SOL    HW3  385   1.887   5.451   3.470  0.2823  0.1390 -0.5143
  153SOL    MW4  386   1.918   5.457   3.388  0.1769  0.0005 -0.5636
  154SOL     OW  387   6.007   2.755   0.886  0.0082 -0.4007  0.0967
  154SOL    HW2  388   6.051   2.737   0.969 -2.9246  0.5267  2.0355
  154SOL    HW3  389   5.999   2.851   0.883 -0.6745 -0.4678 -0.8060
  154SOL    MW4  390   6.012   2.766   0.897 -0.4688 -0.2872  0.2334
  155SOL     OW  391   0.460   0.108   4.857  0.2301 -0.1306 -0.3517
  155SOL    HW2  392   0.397   0.091   4.787  0.8623 -1.3600 -0.6490
  155SOL    HW3  393   0.538   0.139   4.812  0.2457  0.2320 -0.0818
  155SOL    MW4  394   0.462   0.110   4.842  0.3156 -0.2449 -0.3553
  156SOL     OW  395   0.923   5.476   5.904 -0.0869 -0.0286 -0.5122
  156SOL    HW2  396   0.947   5.493   5.995 -0.0324 -0.5902 -0.4141
  156SOL    HW3  397   0.866   5.399   5.908 -1.6262  1.0552 -0.7882
  156SOL    MW4  398   0.919   5.468   5.916 -0.2828  0.0403 -0.5357
  157SOL     OW  399   5.461   4.828   4.425  0.1779  0.1546  0.2566
  157SOL    HW2  400   5.470   4.747   4.476 -0.9137 -0.8124 -1.0307
  157SOL    HW3  401   5.404   4.804   4.352 -0.3976  2.1753  0.0008
  157SOL    MW4  402   5.455   4.814   4.422 -0.0421  0.2936  0.0530
  158SOL     OW  403   5.121   2.188   2.144  0.5250 -0.7074  0.0575
  158SOL    HW2  404   5.181   2.224   2.079  0.4898 -1.2312 -0.2618
  158SOL    HW3  405   5.100   2.263   2.200  2.2177 -0.7137  0.7574
  158SOL    MW4  406   5.126   2.203   2.143  0.7437 -0.7774  0.1077
  159SOL     OW  407   1.877   1.820   5.593 -0.0170 -0.0139 -0.5612
  159SOL    HW2  408   1.839   1.898   5.552 -2.0877 -0.8047 -0.2735
  159SOL    HW3  409   1.945   1.792   5.532 -0.9510  0.5750 -1.9303
  159SOL    MW4  410   1.881   1.827   5.579 -0.4135 -0.0406 -0.7038
  160SOL     OW  411   2.477   5.164   5.046 -0.0998  0.0171  0.0304
  160SOL    HW2  412   2.393   5.183   5.006 -1.5952 -4.0128  0.6942
  160SOL    HW3  413   2.461   5.175   5.140  1.2588  2.5274  0.0475
  160SOL    MW4  414   2.464   5.168   5.053 -0.1179 -0.1834  0.1202
  161SOL     OW  415   1.457   3.117   1.016  0.0953  0.2811  0.1559
  161SOL    HW2  416   1.421   3.044   1.067  0.6488 -0.5130 -0.5818
  161SOL    HW3  417   1.477   3.184   1.082 -1.5227  0.2589  0.7264
  161SOL    MW4  418   1.455   3.116   1.031 -0.0452  0.1734  0.1338
  162SOL     OW  419   2.503   0.621   6.067  0.0059  0.0998  0.9164
  162SOL    HW2  420   2.500   0.526   6.052 -1.5483  0.4192 -1.1728
  162SOL    HW3  421   2.583   0.650   6.023 -0.6118  0.0213 -0.2735
  162SOL    MW4  422   2.514   0.612   6.059 -0.2807  0.1316  0.4838
  163SOL     OW  423   0.430   4.626   5.944  0.5213 -0.0040 -0.2390
  163SOL    HW2  424   0.512   4.577   5.934  1.6023  1.9804 -1.9046
  163SOL    HW3  425   0.453   4.698   6.003 -0.8519 -0.9641  1.5994
  163SOL    MW4  426   0.444   4.629   5.951  0.4828  0.1311 -0.2162
  164SOL     OW  427   2.965   0.305   3.834  0.5307 -0.5051  0.3345
  164SOL    HW2  428   2.990   0.299   3.742 -0.0896 -1.9663  0.2427
  164SOL    HW3  429   3.048   0.312   3.881  0.8699 -0.2448 -0.2904
  164SOL    MW4  430   2.979   0.305   3.828  0.4936 -0.6635  0.2400
  165SOL     OW  431   3.859   0.928   3.884 -0.3026  0.2101 -0.6107
  165SOL    HW2  432   3.780   0.897   3.838  0.6915 -0.3043 -2.0373
  165SOL    HW3  433   3.863   1.022   3.863 -2.0866  0.9349  1.8751
  165SOL    MW4  434   3.849   0.937   3.875 -0.4068  0.2378 -0.4709
  166SOL     OW  435   3.560   2.650   5.718  0.6407  0.6419 -0.1272
  166SOL    HW2  436   3.466   2.630   5.719  0.9270 -1.1437 -2.0211
  166SOL    HW3  437   3.583   2.662   5.810 -1.2331  0.0597  0.4653
  166SOL    MW4  438   3.551   2.649   5.730  0.4312  0.3295 -0.2989
  167SOL     OW  439   6.014   4.811   0.269 -0.1730 -0.4391  0.1744
  167SOL    HW2  440   6.020   4.851   0.183 -0.5602 -1.7271 -0.4804
  167SOL    HW3  441   6.105   4.802   0.298 -0.0696  0.6221  0.2288
  167SOL    MW4  442   6.027   4.815   0.262 -0.2105 -0.4690  0.0952
  168SOL     OW  443   3.188   0.883   6.398  0.9669  0.3534 -0.3411
  168SOL    HW2  444   3.107   0.832   6.403  0.0454  1.8730  1.3179
  168SOL    HW3  445   3.253   0.827   6.440  0.2920 -0.0556  0.1887
  168SOL    MW4  446   3.186   0.869   6.404  0.7563  0.5000 -0.0523
  169SOL     OW  447   1.659   5.515   4.006  0.2380  0.0335  0.2709
  169SOL    HW2  448   1.592   5.478   4.064  1.1871 -0.2697  1.1939
  169SOL    HW3  449   1.740   5.472   4.032  0.4049 -1.7270 -2.7223
  169SOL    MW4  450   1.661   5.504   4.017  0.3852 -0.2388 -0.0022
  170SOL     OW  451   0.755   4.192   3.301 -0.6649  0.3843 -0.4049
  170SOL    HW2  452   0.709   4.211   3.219 -0.9557  1.0196 -0.1091
  170SOL    HW3  453   0.710   4.116   3.337 -1.7695  1.2158  0.0604
  170SOL    MW4  454   0.743   4.185   3.295 -0.8490  0.5778 -0.3045
  171SOL     OW  455   5.323   4.715   3.176 -0.6701 -0.1702 -0.3218
  171SOL    HW2  456   5.290   4.719   3.086 -2.6700 -1.5028  0.2915
  171SOL    HW3  457   5.250   4.679   3.227  0.6228 -0.0298  1.7479
  171SOL    MW4  458   5.309   4.711   3.171 -0.7634 -0.3275  0.0322
  172SOL     OW  459   6.360   5.110   2.213  0.0248  0.1641  0.6277
  172SOL    HW2  460   6.361   5.205   2.221 -0.0673  0.1276  1.0954
  172SOL    HW3  461   6.412   5.092   2.135  1.3117  0.5209  1.3814
  172SOL    MW4  462   6.367   5.120   2.204  0.1825  0.2063  0.7889
  173SOL     OW  463   5.323   4.783   6.028  0.5872 -0.3357  0.0150
  173SOL    HW2  464   5.295   4.730   6.103  2.1933 -2.1009 -0.5532
  173SOL    HW3  465   5.246   4.834   6.004 -0.9705 -2.2215  0.7655
  173SOL    MW4  466   5.309   4.783   6.035  0.5936 -0.8174  0.0391
  174SOL     OW  467   1.670   4.762   3.157  0.0400 -0.0476  0.5456
  174SOL    HW2  468   1.660   4.711   3.237  0.4651 -1.2478 -0.1341
  174SOL    HW3  469   1.707   4.700   3.094  0.8399  1.1843 -0.2399
  174SOL    MW4  470   1.673   4.747   3.159  0.2016 -0.0434  0.3523
  175SOL     OW  471   2.738   1.370   5.826 -0.1223 -0.4001  0.0707
  175SOL    HW2  472   2.733   1.278   5.802 -1.8890 -0.7442  1.4679
  175SOL    HW3  473   2.654   1.387   5.870 -0.5579  2.2902 -1.5524
  175SOL    MW4  474   2.726   1.360   5.829 -0.4129 -0.0905  0.0409
  176SOL     OW  475   3.331   2.003   4.824 -0.5634 -0.0542  0.2649
  176SOL    HW2  476   3.358   1.912   4.836 -2.3148 -0.5302  0.9588
  176SOL    HW3  477   3.236   1.998   4.813 -0.8077  1.7720  1.2443
  176SOL    MW4  478   3.322   1.990   4.824 -0.8267  0.1240  0.4857
  177SOL     OW  479   4.588   2.607   1.277 -0.0415 -0.1374 -0.6744
  177SOL    HW2  480   4.644   2.555   1.335  0.9555 -0.2006 -1.6585
  177SOL    HW3  481   4.595   2.563   1.192  0.2628  1.2001 -1.3632
  177SOL    MW4  482   4.596   2.594   1.273  0.1302  0.0307 -0.8951
  178SOL     OW  483   3.169   4.037   6.334 -0.6309 -0.2318  0.0702
  178SOL    HW2  484   3.249   4.036   6.387  1.0913  0.6107 -2.3387
  178SOL    HW3  485   3.121   4.115   6.364 -0.0657 -0.1647  0.8308
  178SOL    MW4  486   3.173   4.047   6.345 -0.3291 -0.1118 -0.1473
  179SOL     OW  487   4.611   5.991   2.566  0.5039 -0.0202  0.0574
  179SOL    HW2  488   4.692   6.041   2.556  0.1185  0.4046 -1.0212
  179SOL    HW3  489   4.557   6.044   2.624  0.7581 -0.0300  0.3096
  179SOL    MW4  490   4.615   6.004   2.573  0.4866  0.0345 -0.0516
  180SOL     OW  491   5.286   4.323   2.397  0.3746 -0.0402 -0.2315
  180SOL    HW2  492   5.310   4.406   2.357 -1.0468  0.7130  0.4496
  180SOL    HW3  493   5.232   4.346   2.472 -1.5473 -1.6126 -1.0427
  180SOL    MW4  494   5.282   4.337   2.401 -0.0665 -0.1483 -0.2487
  181SOL     OW  495   0.828   1.067   0.822 -0.3827  0.1292 -0.2318
  181SOL    HW2  496   0.916   1.047   0.789 -1.0113 -2.3431 -0.5824
  181SOL    HW3  497   0.806   0.994   0.880 -1.9059  1.1138  0.5130
  181SOL    MW4  498   0.837   1.055   0.825 -0.6666 -0.0671 -0.1798
  182SOL     OW  499   4.184   1.894   4.582 -0.2345  0.1427 -0.1362
  182SOL    HW2  500   4.235   1.952   4.525 -0.0411 -0.8803 -1.0415
  182SOL    HW3  501   4.144   1.953   4.646  2.2090  0.9733  0.7473
  182SOL    MW4  502   4.185   1.909   4.583  0.1134  0.1173 -0.1391
  183SOL     OW  503   6.073   0.303   1.550  0.0827 -0.2287 -0.6651
  183SOL    HW2  504   6.023   0.222   1.557  1.0356 -0.7676  0.1266
  183SOL    HW3  505   6.145   0.283   1.491 -0.6575  0.5792 -1.8945
  183SOL    MW4  506   6.076   0.290   1.543  0.1108 -0.1932 -0.7228
  184SOL     OW  507   3.676   5.672   5.427 -0.1713 -0.4068  0.0338
  184SOL    HW2  508   3.771   5.678   5.442 -0.0930 -1.0165 -0.1525
  184SOL    HW3  509   3.641   5.637   5.509 -0.1154 -1.0222 -0.1996
  184SOL    MW4  510   3.684   5.668   5.440 -0.1536 -0.5685 -0.0216
  185SOL     OW  511   5.836   6.312   2.957 -0.4856  0.4214  0.0566
  185SOL    HW2  512   5.925   6.291   2.932 -0.6188 -1.7954  1.2066
  185SOL    HW3  513   5.787   6.230   2.946 -2.1476  1.3059  0.4484
  185SOL    MW4  514   5.841   6.299   2.952 -0.7225  0.2456  0.2600
  186SOL     OW  515   3.592   3.525   4.168  0.0749  0.1311  0.1159
  186SOL    HW2  516   3.662   3.484   4.219 -0.8124 -0.4196  0.9399
  186SOL    HW3  517   3.547   3.452   4.127 -0.8354  0.3458  0.6912
  186SOL    MW4  518   3.595   3.510   4.170 -0.1623  0.0867  0.3005
  187SOL     OW  519   1.844   4.428   0.941 -0.0088  0.2988 -0.1418
  187SOL    HW2  520   1.885   4.343   0.959  3.1589  1.6706 -0.3343
  187SOL    HW3  521   1.770   4.407   0.883  0.1263 -2.3881  0.5421
  187SOL    MW4  522   1.840   4.414   0.935  0.4270  0.1253 -0.0769
  188SOL     OW  523   4.918   6.182   1.916 -0.1720 -0.1416 -0.3522
  188SOL    HW2  524   4.969   6.170   1.836 -0.8729 -1.4620 -0.6257
  188SOL    HW3  525   4.949   6.265   1.952  1.8918 -0.7211 -0.6911
  188SOL    MW4  526   4.929   6.191   1.910  0.0078 -0.3922 -0.4330
  189SOL     OW  527   0.541   2.465   2.700  0.0138  0.0070  0.0553
  189SOL    HW2  528   0.526   2.492   2.791  0.8846 -1.1532  0.5769
  189SOL    HW3  529   0.630   2.430   2.700 -0.6077 -1.7168 -0.8197
  189SOL    MW4  530   0.551   2.464   2.712  0.0467 -0.3735  0.0087
  190SOL     OW  531   2.495   4.960   3.732 -0.1874  0.4458  0.2545
  190SOL    HW2  532   2.496   4.881   3.677 -3.7061  0.1349  0.4054
  190SOL    HW3  533   2.523   4.929   3.818 -0.8794 -0.5215  0.1469
  190SOL    MW4  534   2.499   4.945   3.736 -0.7429  0.2772  0.2602
  191SOL     OW  535   1.187   0.596   5.959 -0.4146 -0.9215 -0.1962
  191SOL    HW2  536   1.156   0.533   5.895 -1.2459 -0.1455 -0.5849
  191SOL    HW3  537   1.109   0.648   5.981  0.2305 -0.0596  0.1232
  191SOL    MW4  538   1.173   0.595   5.953 -0.4392 -0.7054 -0.2053
  192SOL     OW  539   3.968   4.406   2.732  0.2694  0.2731  0.0630
  192SOL    HW2  540   4.012   4.354   2.665  1.4335  0.0572  0.9654
  192SOL    HW3  541   3.966   4.495   2.695  1.4410  0.2778 -0.0253
  192SOL    MW4  542   3.974   4.411   2.718  0.5775  0.2452  0.1704
  193SOL     OW  543   5.221   0.777   5.410 -0.2672  0.0553 -1.1186
  193SOL    HW2  544   5.145   0.766   5.468  0.1561  0.5734 -0.4476
  193SOL    HW3  545   5.280   0.706   5.434 -0.1473  0.1951 -0.9921
  193SOL    MW4  546   5.218   0.766   5.421 -0.1955  0.1421 -1.0133
  194SOL     OW  547   0.672   3.892   2.750 -0.4987  0.0006  0.4691
  194SOL    HW2  548   0.628   3.969   2.786  0.1083  0.6266 -0.1086
  194SOL    HW3  549   0.715   3.851   2.826 -1.7214 -0.4003  0.9700
  194SOL    MW4  550   0.672   3.896   2.765 -0.5799  0.0303  0.4590
  195SOL     OW  551   3.751   1.658   5.794  0.4426  0.4443 -0.3193
  195SOL    HW2  552   3.674   1.628   5.844  0.0195  0.7028 -0.8134
  195SOL    HW3  553   3.792   1.724   5.850 -1.7190  2.9745 -1.5297
  195SOL    MW4  554   3.746   1.662   5.808  0.1016  0.8123 -0.5442
  196SOL     OW  555   2.627   4.254   3.836  0.0020 -0.5611 -0.4773
  196SOL    HW2  556   2.703   4.300   3.801 -1.3810  0.3152 -2.5180
  196SOL    HW3  557   2.663   4.175   3.876  1.8378 -1.6899 -3.9211
  196SOL    MW4  558   2.642   4.250   3.837  0.0618 -0.5944 -1.2009
  197SOL     OW  559   6.118   1.309   6.077 -0.3361 -0.2344  0.5077
  197SOL    HW2  560   6.170   1.311   6.157  1.2844  1.2983 -0.4735
  197SOL    HW3  561   6.038   1.358   6.098  0.5876  1.1746  0.9180
  197SOL    MW4  562   6.115   1.316   6.090 -0.0004  0.1537  0.4323
  198SOL     OW  563   3.864   4.862   6.336 -0.0624 -0.1697  0.0833
  198SOL    HW2  564   3.792   4.864   6.273  0.8468 -0.7452 -0.9949
  198SOL    HW3  565   3.943   4.858   6.282  0.6941 -2.2340  1.2560
  198SOL    MW4  566   3.865   4.862   6.321  0.1574 -0.5180  0.0958
  199SOL     OW  567   3.516   5.204   1.423  0.2959 -0.1800  0.1310
  199SOL    HW2  568   3.504   5.273   1.488 -0.2860 -0.4216  0.2890
  199SOL    HW3  569   3.436   5.206   1.371  1.3841  1.0160 -1.5747
  199SOL    MW4  570   3.504   5.213   1.425  0.3627 -0.0541 -0.0732
  200SOL     OW  571   0.678   2.698   2.082 -0.1655 -0.0565 -0.0129
  200SOL    HW2  572   0.698   2.765   2.147  0.2956 -0.0354 -0.1725
  200SOL    HW3  573   0.724   2.727   2.003 -0.4401 -0.2583 -0.2497
  200SOL    MW4  574   0.686   2.711   2.080 -0.1409 -0.0803 -0.0652
  201SOL     OW  575   0.871   5.802   5.467  0.4394 -0.5899  0.4157
  201SOL    HW2  576   0.791   5.750   5.473  0.4795 -0.7908 -0.5504
  201SOL    HW3  577   0.841   5.893   5.460  0.2947 -0.6540  0.1873
  201SOL    MW4  578   0.856   5.807   5.467  0.4256 -0.6249  0.2581
  202SOL     OW  579   4.772   5.795   2.342  0.0128 -0.1005  0.0483
  202SOL    HW2  580   4.796   5.790   2.435 -2.3630 -1.0649  0.6870
  202SOL    HW3  581   4.838   5.740   2.298 -0.1921 -1.6070  1.4984
  202SOL    MW4  582   4.784   5.787   2.348 -0.3277 -0.4265  0.3239
  203SOL     OW  583   4.724   5.441   1.430  0.0726  0.5586  0.4208
  203SOL    HW2  584   4.755   5.369   1.484  0.4166  0.5281  0.1841
  203SOL    HW3  585   4.700   5.509   1.492 -0.1899  0.2661  0.6419
  203SOL    MW4  586   4.725   5.440   1.445  0.0833  0.5160  0.4187
  204SOL     OW  587   2.171   3.890   3.350  0.2864 -0.1517 -0.4840
  204SOL    HW2  588   2.158   3.966   3.293 -0.5872  0.1019  0.0384
  204SOL    HW3  589   2.173   3.816   3.290 -3.9058 -0.2952 -0.7718
  204SOL    MW4  590   2.169   3.890   3.334 -0.3820 -0.1371 -0.4531
  205SOL     OW  591   4.956   6.456   1.607 -0.4787  0.1857 -0.2402
  205SOL    HW2  592   4.951   6.512   1.529  0.4260  0.9953  0.2584
  205SOL    HW3  593   5.035   6.404   1.594 -0.0728  0.6440  0.3267
  205SOL    MW4  594   4.966   6.457   1.595 -0.3058  0.3530 -0.0996
  206SOL     OW  595   0.598   4.474   4.657 -0.2272 -0.4037 -0.8304
  206SOL    HW2  596   0.674   4.515   4.697 -0.7433 -0.3856  0.1456
  206SOL    HW3  597   0.633   4.396   4.614  0.5328  0.2769 -1.4799
  206SOL    MW4  598   0.613   4.469   4.656 -0.1950 -0.3116 -0.7873
  207SOL     OW  599   3.833   1.323   1.592 -0.0438 -0.3370  0.1335
  207SOL    HW2  600   3.817   1.312   1.498  0.8028  0.4484 -0.1213
  207SOL    HW3  601   3.889   1.401   1.597 -0.9838  0.2781  1.3777
  207SOL    MW4  602   3.839   1.332   1.580 -0.0561 -0.1522  0.2640
  208SOL     OW  603   6.196   2.666   4.641  0.0572  0.3239 -0.0715
  208SOL    HW2  604   6.143   2.676   4.562  0.8007 -0.7065 -0.7427
  208SOL    HW3  605   6.134   2.641   4.709 -0.3204 -1.1771 -0.9136
  208SOL    MW4  606   6.181   2.664   4.640  0.1055 -0.0101 -0.2711
  209SOL     OW  607   3.570   1.110   2.379  0.0129  0.2326  0.5387
  209SOL    HW2  608   3.567   1.075   2.468 -0.0346  1.2652  0.9556
  209SOL    HW3  609   3.651   1.076   2.342  1.3270  1.8052  1.8552
  209SOL    MW4  610   3.580   1.101   2.385  0.1800  0.5764  0.7674
  210SOL     OW  611   1.841   0.614   4.767 -0.7658  0.0714  0.0102
  210SOL    HW2  612   1.924   0.634   4.725 -0.5437 -0.6675  0.0812
  210SOL    HW3  613   1.798   0.551   4.709 -0.9801 -0.0522  0.2954
  210SOL    MW4  614   1.846   0.608   4.754 -0.7647 -0.0424  0.0572
  211SOL     OW  615   3.161   5.745   2.768  0.3513  0.3255  0.3478
  211SOL    HW2  616   3.179   5.655   2.795  0.1977 -0.3182 -1.5650
  211SOL    HW3  617   3.200   5.799   2.837  0.2506 -1.2007  1.6401
  211SOL    MW4  618   3.169   5.741   2.781  0.3177  0.0392  0.2660
  212SOL     OW  619   3.922   3.108   3.033 -0.2645  1.1878 -0.0096
  212SOL    HW2  620   3.944   3.175   2.968 -0.2167  0.3292 -0.9085
  212SOL    HW3  621   4.001   3.100   3.087  0.6307  0.1798 -1.4026
  212SOL    MW4  622   3.935   3.115   3.032 -0.1401  0.9415 -0.3120
  213SOL     OW  623   1.376   0.491   2.267 -0.6210 -0.2688  0.4258
  213SOL    HW2  624   1.466   0.504   2.296  0.1141  0.6868 -1.9907
  213SOL    HW3  625   1.337   0.578   2.268 -1.1660 -0.5072  0.4267
  213SOL    MW4  626   1.383   0.504   2.271 -0.5959 -0.1742  0.1071
  214SOL     OW  627   2.088   4.049   4.010  0.2667 -0.6712 -0.4287
  214SOL    HW2  628   2.076   4.026   4.102  0.7871 -0.3927 -0.2884
  214SOL    HW3  629   2.173   4.014   3.987  1.3643  1.5631 -0.0370
  214SOL    MW4  630   2.097   4.042   4.019  0.4802 -0.3397 -0.3585
  215SOL     OW  631   3.487   3.173   0.307  0.3540  0.2015 -0.0571
  215SOL    HW2  632   3.440   3.113   0.364 -2.3343  1.4006 -0.8682
  215SOL    HW3  633   3.570   3.188   0.352  0.1019 -2.1537  1.3637
  215SOL    MW4  634   3.492   3.167   0.321 -0.0339  0.0489  0.0234
  216SOL     OW  635   1.228   0.210   3.586  0.0180 -0.2545 -0.0417
  216SOL    HW2  636   1.212   0.147   3.657  0.7140 -0.7642 -0.3212
  216SOL    HW3  637   1.275   0.159   3.520 -0.0113  0.3967 -0.5707
  216SOL    MW4  638   1.232   0.195   3.587  0.1060 -0.2358 -0.1484
  217SOL     OW  639   0.789   5.401   0.369  0.2292 -0.3856 -0.6190
  217SOL    HW2  640   0.797   5.346   0.291 -1.7301  0.5312 -1.5328
  217SOL    HW3  641   0.748   5.345   0.435  0.5851 -0.7564 -0.7156
  217SOL    MW4  642   0.785   5.387   0.368  0.0177 -0.3135 -0.7523
  218SOL     OW  643   1.264   5.744   4.480 -0.2126 -0.3730 -0.1373
  218SOL    HW2  644   1.241   5.676   4.417  0.0860  1.1852 -2.0540
  218SOL    HW3  645   1.181   5.772   4.518 -0.6863  0.1015 -1.4591
  218SOL    MW4  646   1.250   5.739   4.476 -0.2357 -0.1048 -0.5646
  219SOL     OW  647   4.256   2.293   0.349  0.3906  0.3377  0.0453
  219SOL    HW2  648   4.313   2.328   0.280  0.2981 -0.0023 -0.2042
  219SOL    HW3  649   4.308   2.222   0.388 -0.3906 -0.9086 -1.1025
  219SOL    MW4  650   4.271   2.288   0.345  0.2753  0.1284 -0.1391
  220SOL     OW  651   5.316   0.914   4.640  0.3262 -0.3973  0.2529
  220SOL    HW2  652   5.239   0.966   4.662  0.5009 -0.4310  0.9652
  220SOL    HW3  653   5.389   0.957   4.685  0.6233 -0.7236  0.0970
  220SOL    MW4  654   5.316   0.926   4.649  0.3885 -0.4448  0.3263
  221SOL     OW  655   2.364   0.986   4.025 -0.0274  0.5290  0.3618
  221SOL    HW2  656   2.407   1.033   3.954  0.4845 -0.3212  0.0922
  221SOL    HW3  657   2.281   0.956   3.987  0.9683 -1.3741 -0.4631
  221SOL    MW4  658   2.359   0.988   4.011  0.1715  0.1657  0.2174
  222SOL     OW  659   3.691   4.950   5.718 -0.1878 -0.2406 -0.0248
  222SOL    HW2  660   3.773   4.989   5.748 -0.4415  3.1668 -3.0022
  222SOL    HW3  661   3.706   4.930   5.626 -2.1844 -1.1100 -0.2180
  222SOL    MW4  662   3.704   4.953   5.710 -0.4847  0.0942 -0.4431
  223SOL     OW  663   6.088   4.123   2.938 -0.6090 -0.2265  0.3828
  223SOL    HW2  664   6.062   4.179   2.864  0.2313 -0.4700 -0.1131
  223SOL    HW3  665   6.089   4.183   3.013 -0.5054  0.2478  0.0121
  223SOL    MW4  666   6.085   4.138   2.938 -0.4845 -0.1960  0.2684
  224SOL     OW  667   3.132   5.914   4.428  0.3811  0.1108 -0.5764
  224SOL    HW2  668   3.146   5.993   4.481  1.4491  0.1267 -0.8582
  224SOL    HW3  669   3.037   5.906   4.421  0.2440  0.7699  0.3556
  224SOL    MW4  670   3.121   5.923   4.434  0.5039  0.1998 -0.4906
  225SOL     OW  671   1.381   2.283   5.131 -0.1550 -0.2643  0.2692
  225SOL    HW2  672   1.397   2.200   5.086 -0.2564 -0.6461  0.9152
  225SOL    HW3  673   1.416   2.350   5.073  0.5611 -0.8172  0.0554
  225SOL    MW4  674   1.388   2.281   5.117 -0.0739 -0.3876  0.3263
  226SOL     OW  675   4.074   1.643   2.462 -0.2406 -0.0534  0.0777
  226SOL    HW2  676   4.014   1.570   2.449 -0.8873  0.5678 -0.5054
  226SOL    HW3  677   4.039   1.691   2.537 -0.2801  0.1141 -0.0461
  226SOL    MW4  678   4.062   1.640   2.470 -0.3311  0.0506 -0.0156
  227SOL     OW  679   3.793   6.177   3.738  0.0656  0.0709 -0.3740
  227SOL    HW2  680   3.857   6.237   3.700  2.1418 -2.0022 -0.4141
  227SOL    HW3  681   3.845   6.100   3.763 -2.1065 -0.8669  1.5980
  227SOL    MW4  682   3.808   6.175   3.736  0.0529 -0.3264 -0.1191
  228SOL     OW  683   2.856   2.968   3.949 -0.5408 -0.2458 -0.0410
  228SOL    HW2  684   2.842   3.009   4.034  1.1299 -0.0378  0.1730
  228SOL    HW3  685   2.817   3.029   3.886 -0.7017  0.2075  0.4894
  228SOL    MW4  686   2.849   2.981   3.952 -0.3416 -0.1586  0.0572
  229SOL     OW  687   2.466   4.247   5.828 -0.0365  0.0735 -0.2189
  229SOL    HW2  688   2.524   4.307   5.782  2.1342 -1.9942 -0.4102
  229SOL    HW3  689   2.466   4.167   5.775 -0.7941 -0.9616  1.2523
  229SOL    MW4  690   2.474   4.245   5.815  0.1499 -0.3359 -0.0500
  230SOL     OW  691   0.227   5.661   0.411 -0.0085 -0.0631 -0.0620
  230SOL    HW2  692   0.159   5.693   0.470 -0.5171  2.3718 -1.8298
  230SOL    HW3  693   0.286   5.735   0.399  0.3101 -0.5949 -2.2476
  230SOL    MW4  694   0.226   5.675   0.417 -0.0336  0.1880 -0.5836
  231SOL     OW  695   3.361   0.798   5.228 -0.1956 -0.0637  0.3840
  231SOL    HW2  696   3.360   0.844   5.144 -0.2653  1.4906  1.2172
  231SOL    HW3  697   3.440   0.830   5.272 -0.9315  0.2263  1.5126
  231SOL    MW4  698   3.371   0.808   5.223 -0.3019  0.1797  0.6428
  232SOL     OW  699   1.963   0.701   4.368  0.5619 -0.1690  0.2651
  232SOL    HW2  700   1.965   0.618   4.321 -0.4726  0.8786 -1.7877
  232SOL    HW3  701   1.877   0.703   4.411  0.8212 -0.3941  0.8034
  232SOL    MW4  702   1.952   0.691   4.367  0.4596 -0.0605  0.0653
  233SOL     OW  703   5.765   1.557   0.923 -0.9461  0.5500 -0.6661
  233SOL    HW2  704   5.788   1.650   0.924 -1.6286  0.7220 -0.6700
  233SOL    HW3  705   5.788   1.527   0.836  0.3598  0.4346 -0.2995
  233SOL    MW4  706   5.771   1.565   0.912 -0.8638  0.5575 -0.6183
  234SOL     OW  707   0.742   3.613   0.326 -0.1679 -0.6093 -0.5658
  234SOL    HW2  708   0.792   3.654   0.256  0.5354 -0.0142  0.2565
  234SOL    HW3  709   0.796   3.539   0.355  0.7825  0.6098  0.9809
  234SOL    MW4  710   0.756   3.609   0.321  0.0503 -0.3699 -0.2533
  235SOL     OW  711   4.506   2.025   5.232 -0.3768  0.7234 -0.4859
  235SOL    HW2  712   4.533   2.040   5.323 -0.3201  1.1029 -0.5646
  235SOL    HW3  713   4.476   2.111   5.201 -1.2045  0.4170 -0.5588
  235SOL    MW4  714   4.506   2.038   5.240 -0.4785  0.7331 -0.5059
  236SOL     OW  715   2.768   4.176   4.311 -0.5994 -0.3262  0.0581
  236SOL    HW2  716   2.822   4.097   4.314  1.3228  0.9625  2.7079
  236SOL    HW3  717   2.704   4.164   4.380 -1.8808 -0.5521 -1.1299
  236SOL    MW4  718   2.767   4.164   4.320 -0.5148 -0.1860  0.2509
  237SOL     OW  719   0.879   3.328   3.989 -0.2101 -0.0257  0.0958
  237SOL    HW2  720   0.911   3.237   3.990  0.1513  0.0978  0.0509
  237SOL    HW3  721   0.890   3.356   3.898  0.0256  0.1810  0.1872
  237SOL    MW4  722   0.885   3.320   3.977 -0.1313  0.0178  0.1020
  238SOL     OW  723   5.571   3.959   4.532 -0.4563  0.2274 -0.0393
  238SOL    HW2  724   5.660   3.925   4.520 -1.1370 -2.5358  1.8870
  238SOL    HW3  725   5.514   3.884   4.514 -2.3630  1.5718  0.0702
  238SOL    MW4  726   5.575   3.945   4.528 -0.7977  0.0402  0.2293
  239SOL     OW  727   6.085   2.685   6.429  0.0607  0.3543 -0.1347
  239SOL    HW2  728   5.995   2.655   6.443  0.6062 -0.9666  0.6099
  239SOL    HW3  729   6.113   2.639   6.350  0.0612  0.8598 -0.4361
  239SOL    MW4  730   6.077   2.675   6.420  0.1328  0.2467 -0.0762
  240SOL     OW  731   3.168   4.942   5.027  0.3889  0.1142 -0.0534
  240SOL    HW2  732   3.096   4.944   4.964 -1.6614 -1.8969  2.0253
  240SOL    HW3  733   3.156   5.020   5.081 -0.6033 -0.4692  0.5990
  240SOL    MW4  734   3.157   4.952   5.026 -0.0125 -0.2281  0.3069
  241SOL     OW  735   2.229   0.698   5.690 -0.2775 -1.1794  0.4073
  241SOL    HW2  736   2.324   0.710   5.684 -0.5152  0.0504 -1.4092
  241SOL    HW3  737   2.216   0.605   5.669  0.4245 -1.0305 -0.7877
  241SOL    MW4  738   2.240   0.687   5.687 -0.2163 -0.9975  0.0100
  242SOL     OW  739   0.429   0.761   3.069  0.6281  0.4361  0.0739
  242SOL    HW2  740   0.468   0.849   3.067  1.0233  0.2567 -1.0708
  242SOL    HW3  741   0.475   0.717   3.141  0.4675  1.1417  0.6218
  242SOL    MW4  742   0.440   0.767   3.079  0.6590  0.5055 -0.0048
  243SOL     OW  743   2.922   0.225   1.832  0.0587  0.6474 -0.6751
  243SOL    HW2  744   2.966   0.154   1.879 -0.2091  0.2439 -1.0152
  243SOL    HW3  745   2.982   0.299   1.836  1.3659 -0.2603 -2.2077
  243SOL    MW4  746   2.936   0.225   1.838  0.1958  0.4744 -0.9221
  244SOL     OW  747   1.498   1.046   4.791  0.0768  0.4539 -0.4654
  244SOL    HW2  748   1.546   1.123   4.761 -0.0238  0.8957  0.4951
  244SOL    HW3  749   1.563   0.976   4.792  0.3765  0.7300 -0.4866
  244SOL    MW4  750   1.513   1.047   4.787  0.1031  0.5486 -0.3414
  245SOL     OW  751   3.234   4.593   1.906  0.3354  0.3788 -0.5846
  245SOL    HW2  752   3.194   4.507   1.890 -1.1168  1.0236 -0.6380
  245SOL    HW3  753   3.162   4.655   1.893  1.3036  1.5913 -0.3308
  245SOL    MW4  754   3.219   4.590   1.902  0.2715  0.6239 -0.5582
  246SOL     OW  755   5.271   6.034   3.206 -0.5212 -0.3464  0.0888
  246SOL    HW2  756   5.298   6.104   3.265 -0.2430  0.3068 -0.8054
  246SOL    HW3  757   5.243   5.963   3.265 -1.9205  0.9089  1.0210
  246SOL    MW4  758   5.271   6.034   3.222 -0.6691 -0.0946  0.0938
  247SOL     OW  759   1.763   4.834   5.388  0.1616  0.3683  0.2394
  247SOL    HW2  760   1.827   4.804   5.324  0.7990  0.0807  1.0030
  247SOL    HW3  761   1.679   4.802   5.354  0.4627  0.3577 -0.5243
  247SOL    MW4  762   1.760   4.826   5.375  0.2855  0.3289  0.2394
  248SOL     OW  763   2.345   2.627   3.670  0.4261 -0.2109 -0.2464
  248SOL    HW2  764   2.309   2.714   3.688  0.4831 -0.3223  0.4562
  248SOL    HW3  765   2.418   2.643   3.611  1.8310  0.4969  1.5562
  248SOL    MW4  766   2.350   2.641   3.665  0.6189 -0.1322  0.0842
  249SOL     OW  767   4.368   0.307   2.148  0.1324 -0.3817  0.8915
  249SOL    HW2  768   4.279   0.293   2.182  0.2022 -0.2854  1.1143
  249SOL    HW3  769   4.386   0.229   2.096 -1.2590  0.9132 -1.6910
  249SOL    MW4  770   4.359   0.295   2.146 -0.0420 -0.1982  0.5802
  250SOL     OW  771   2.502   3.209   1.211  0.4712 -0.0978 -0.0323
  250SOL    HW2  772   2.561   3.284   1.206 -0.5817  0.6832 -1.5401
  250SOL    HW3  773   2.446   3.227   1.287  0.4764  0.4514 -0.1586
  250SOL    MW4  774   2.502   3.221   1.221  0.3330  0.0777 -0.2479
  251SOL     OW  775   2.594   0.760   5.436 -0.3611  0.4044 -0.2213
  251SOL    HW2  776   2.685   0.734   5.449 -0.7625 -1.4714 -0.9511
  251SOL    HW3  777   2.600   0.839   5.382  0.8324  0.5796  0.1329
  251SOL    MW4  778   2.607   0.767   5.430 -0.2566  0.1800 -0.2708
  252SOL     OW  779   2.804   1.696   1.312 -0.0173  0.8478 -0.5038
  252SOL    HW2  780   2.882   1.696   1.367  0.2560  0.8369 -0.8891
  252SOL    HW3  781   2.784   1.788   1.297  0.3150  0.8511 -0.9536
  252SOL    MW4  782   2.811   1.708   1.317  0.0626  0.8468 -0.6140
  253SOL     OW  783   1.975   4.404   1.477 -0.6834  0.4753  0.0058
  253SOL    HW2  784   1.914   4.428   1.408  0.3359 -1.3488 -1.6428
  253SOL    HW3  785   2.049   4.363   1.431  0.8798  0.7945  2.0577
  253SOL    MW4  786   1.977   4.402   1.462 -0.3426  0.2767  0.0590
  254SOL     OW  787   2.217   1.210   4.313  0.0339  0.2604 -0.1777
  254SOL    HW2  788   2.228   1.255   4.396  0.4077  0.0681 -0.1219
  254SOL    HW3  789   2.139   1.250   4.274 -1.2361 -0.8534  1.0662
  254SOL    MW4  790   2.208   1.221   4.319 -0.0843  0.0881 -0.0062
  255SOL     OW  791   6.014   2.727   4.453 -0.4237  0.1915 -0.2743
  255SOL    HW2  792   5.979   2.788   4.519  1.6384  0.9519  0.1984
  255SOL    HW3  793   6.019   2.780   4.373  1.1661  0.6436  0.0843
  255SOL    MW4  794   6.010   2.742   4.451  0.0581  0.3514 -0.1646
  256SOL     OW  795   1.608   1.134   0.857  0.0477 -0.0252  0.3523
  256SOL    HW2  796   1.594   1.220   0.819  0.1324  0.1861  0.7843
  256SOL    HW3  797   1.552   1.133   0.934  0.3288 -0.2114  0.5584
  256SOL    MW4  798   1.599   1.145   0.862  0.0960 -0.0219  0.4365
  257SOL     OW  799   4.319   2.961   1.928  0.1005  0.2581  0.5960
  257SOL    HW2  800   4.226   2.979   1.921  0.1208  0.3604  0.5877
  257SOL    HW3  801   4.358   3.045   1.952  0.3045  0.4333 -0.3188
  257SOL    MW4  802   4.312   2.975   1.930  0.1301  0.2947  0.4742
  258SOL     OW  803   3.718   4.485   1.875  0.0591 -0.2297 -0.2530
  258SOL    HW2  804   3.768   4.506   1.954  0.3212 -0.2495 -0.4111
  258SOL    HW3  805   3.635   4.531   1.886 -0.7789 -1.9240  1.0265
  258SOL    MW4  806   3.714   4.493   1.887 -0.0169 -0.4559 -0.1050
  259SOL     OW  807   4.431   1.797   1.794  0.1137  0.2849 -0.3645
  259SOL    HW2  808   4.369   1.798   1.868  2.3282  1.3045  1.6319
  259SOL    HW3  809   4.503   1.853   1.823  2.6833 -1.9665 -1.9286
  259SOL    MW4  810   4.432   1.805   1.808  0.7449  0.1224 -0.3074
  260SOL     OW  811   5.366   5.004   4.633 -0.5133  0.5689  0.0665
  260SOL    HW2  812   5.404   4.942   4.571  0.6879 -1.6907  2.8219
  260SOL    HW3  813   5.441   5.048   4.672 -1.2981  2.7816 -0.7835
  260SOL    MW4  814   5.381   5.001   4.630 -0.4584  0.5627  0.3179
  261SOL     OW  815   4.352   3.292   4.282  0.2714  0.4178  0.4528
  261SOL    HW2  816   4.306   3.220   4.240 -0.0156  0.6725  0.3267
  261SOL    HW3  817   4.305   3.371   4.254  0.1522  0.6020  1.1482
  261SOL    MW4  818   4.340   3.293   4.273  0.2178  0.4757  0.5279
  262SOL     OW  819   5.471   5.050   6.128  0.1204  0.5944 -0.1707
  262SOL    HW2  820   5.542   5.004   6.173  0.4190  0.5544 -0.6786
  262SOL    HW3  821   5.417   4.981   6.091 -0.7542  0.5891  1.0483
  262SOL    MW4  822   5.473   5.035   6.129  0.0444  0.5884 -0.0769
  263SOL     OW  823   6.207   2.632   3.655  0.8072 -0.3305 -0.0105
  263SOL    HW2  824   6.278   2.682   3.696 -0.0750 -0.3075  1.5826
  263SOL    HW3  825   6.250   2.553   3.620  1.4294 -1.1227  2.3662
  263SOL    MW4  826   6.222   2.628   3.656  0.7729 -0.4320  0.5133
  264SOL     OW  827   0.069   5.064   6.421  0.0041 -0.9536 -0.0494
  264SOL    HW2  828   0.142   5.002   6.410  0.0864 -0.6374 -1.5786
  264SOL    HW3  829   0.035   5.076   6.332 -1.0525 -0.0584  0.4592
  264SOL    MW4  830   0.074   5.058   6.408 -0.1244 -0.7938 -0.1841
  265SOL     OW  831   4.143   3.895   5.269 -0.0898 -0.2558  0.1452
  265SOL    HW2  832   4.215   3.887   5.206  0.0564  1.4869  0.0553
  265SOL    HW3  833   4.109   3.984   5.257 -1.3241 -0.5488  1.1935
  265SOL    MW4  834   4.148   3.906   5.259 -0.2334 -0.0646  0.2716
  266SOL     OW  835   3.115   4.305   5.953 -0.2881 -0.3861 -0.0177
  266SOL    HW2  836   3.155   4.335   5.871 -1.1795 -3.1047 -1.6054
  266SOL    HW3  837   3.024   4.333   5.947 -0.2796 -0.3142  0.1916
  266SOL    MW4  838   3.108   4.313   5.941 -0.4046 -0.7353 -0.1995
  267SOL     OW  839   3.802   0.806   2.215 -0.5519  0.2546  0.2926
  267SOL    HW2  840   3.829   0.797   2.124 -1.7533  1.5120 -0.2339
  267SOL    HW3  841   3.784   0.900   2.226  1.0014  0.3959  2.2757
  267SOL    MW4  842   3.803   0.818   2.205 -0.5055  0.4391  0.4848
  268SOL     OW  843   4.492   3.269   5.884 -0.2736 -0.5775  0.2847
  268SOL    HW2  844   4.423   3.270   5.951  0.9304  0.6527  1.5665
  268SOL    HW3  845   4.567   3.311   5.926  1.4659 -2.3264 -0.8636
  268SOL    MW4  846   4.493   3.275   5.898  0.1148 -0.6460  0.3023
  269SOL     OW  847   3.253   4.208   4.213  0.2816  0.2382  0.4418
  269SOL    HW2  848   3.302   4.203   4.131 -0.3134 -2.0476  0.1533
  269SOL    HW3  849   3.319   4.201   4.281  0.6661  0.8238  0.1350
  269SOL    MW4  850   3.268   4.206   4.211  0.2538  0.0139  0.3632
  270SOL     OW  851   3.684   0.581   1.865 -0.1805  0.0731 -0.1516
  270SOL    HW2  852   3.739   0.522   1.813  1.2650  0.9606  0.3030
  270SOL    HW3  853   3.743   0.652   1.891 -0.9085 -0.1534  2.4195
  270SOL    MW4  854   3.699   0.582   1.862 -0.0858  0.1603  0.2476
  271SOL     OW  855   1.043   2.606   0.629  0.3015  0.0070 -0.4847
  271SOL    HW2  856   1.081   2.681   0.584  1.5301 -1.7001 -2.4409
  271SOL    HW3  857   0.948   2.620   0.622  0.3628  3.1353  2.4394
  271SOL    MW4  858   1.035   2.618   0.622  0.4717  0.1945 -0.3570
  272SOL     OW  859   1.481   6.370   2.503 -0.0024  0.1864  0.1903
  272SOL    HW2  860   1.473   6.320   2.422 -0.6811 -0.0114  0.3731
  272SOL    HW3  861   1.391   6.391   2.527  0.1569 -0.1956  1.1611
  272SOL    MW4  862   1.468   6.366   2.495 -0.0709  0.1099  0.3425
  273SOL     OW  863   4.844   5.483   4.914 -0.1467  0.1431  0.1333
  273SOL    HW2  864   4.806   5.571   4.907  0.7158  0.5303  0.2736
  273SOL    HW3  865   4.824   5.442   4.830  0.0146  0.7046 -0.1856
  273SOL    MW4  866   4.836   5.489   4.902 -0.0116  0.2683  0.1097
  274SOL     OW  867   5.808   0.285   5.152  0.7230  0.3984 -0.3056
  274SOL    HW2  868   5.895   0.261   5.121  1.5553  1.2113  1.2538
  274SOL    HW3  869   5.796   0.235   5.233 -0.9220 -0.8603 -1.2804
  274SOL    MW4  870   5.818   0.275   5.159  0.6158  0.3396 -0.2285
  275SOL     OW  871   3.672   5.537   6.210  0.9777 -0.4348 -0.1850
  275SOL    HW2  872   3.713   5.561   6.127  1.9940  0.4233  0.5354
  275SOL    HW3  873   3.745   5.511   6.266  0.4659  0.3871  0.8901
  275SOL    MW4  874   3.687   5.537   6.207  1.0443 -0.2132  0.0519
  276SOL     OW  875   6.402   4.993   1.370 -0.2285  0.2151 -0.1933
  276SOL    HW2  876   6.310   4.996   1.346 -0.3489  0.0220  0.2259
  276SOL    HW3  877   6.402   4.961   1.461  0.2907 -0.6326 -0.4746
  276SOL    MW4  878   6.390   4.989   1.379 -0.1759  0.0778 -0.1751
  277SOL     OW  879   1.926   5.150   5.698 -0.6376  0.5957  0.3293
  277SOL    HW2  880   1.884   5.164   5.613 -0.4910  1.8373  0.4455
  277SOL    HW3  881   1.880   5.074   5.735 -1.6410  0.8899 -0.2637
  277SOL    MW4  882   1.914   5.142   5.692 -0.7506  0.7983  0.2664
  278SOL     OW  883   2.542   3.155   0.605  0.6157 -0.0654  0.0025
  278SOL    HW2  884   2.601   3.137   0.678  1.2537 -0.3332 -0.5592
  278SOL    HW3  885   2.601   3.176   0.532  0.0601 -1.3165 -0.8368
  278SOL    MW4  886   2.557   3.156   0.605  0.6266 -0.2658 -0.1823
  279SOL     OW  887   5.564   0.345   1.094  0.6132 -0.1999 -0.5817
  279SOL    HW2  888   5.509   0.368   1.168 -1.3415 -2.2603 -1.2562
  279SOL    HW3  889   5.514   0.372   1.017  0.7582 -1.6056 -1.2054
  279SOL    MW4  890   5.550   0.351   1.093  0.3744 -0.6572 -0.7530
  280SOL     OW  891   3.113   2.199   1.852 -0.0151 -0.2681 -0.0600
  280SOL    HW2  892   3.120   2.239   1.765 -0.5811 -0.1472 -0.0504
  280SOL    HW3  893   3.070   2.115   1.837 -1.3017  0.3245  0.2647
  280SOL    MW4  894   3.109   2.193   1.839 -0.2595 -0.1740 -0.0159
  281SOL     OW  895   5.038   5.875   6.084  0.2784 -0.3389  0.5300
  281SOL    HW2  896   5.068   5.793   6.045 -1.2910 -1.1273  0.9110
  281SOL    HW3  897   5.023   5.853   6.176  1.4780  0.8407  1.0394
  281SOL    MW4  898   5.040   5.861   6.091  0.2296 -0.2873  0.6475
  282SOL     OW  899   0.175   5.029   4.870  0.1342  0.5489 -0.7160
  282SOL    HW2  900   0.127   5.003   4.791 -0.1472 -0.9068 -0.0875
  282SOL    HW3  901   0.267   5.014   4.847  0.0022 -0.6996 -0.5013
  282SOL    MW4  902   0.181   5.024   4.856  0.0796  0.1921 -0.6047
  283SOL     OW  903   3.149   1.222   4.945  0.4265  0.4766 -0.7855
  283SOL    HW2  904   3.109   1.172   4.874 -0.1539  0.2365 -0.2968
  283SOL    HW3  905   3.118   1.180   5.025  0.6404  1.0759 -0.3761
  283SOL    MW4  906   3.140   1.210   4.946  0.3781  0.5240 -0.6670
  284SOL     OW  907   2.892   5.911   5.394 -0.0103 -0.2972  0.0136
  284SOL    HW2  908   2.870   5.952   5.478  1.2110  0.5699 -0.0567
  284SOL    HW3  909   2.896   5.984   5.332 -0.4470 -0.8739 -0.7125
  284SOL    MW4  910   2.890   5.926   5.397  0.0932 -0.2589 -0.0915
  285SOL     OW  911   3.487   3.188   3.370  0.5318  0.1234 -0.1923
  285SOL    HW2  912   3.452   3.128   3.304  1.1288  1.1856 -1.5307
  285SOL    HW3  913   3.574   3.153   3.391 -0.1660 -0.9394  1.0326
  285SOL    MW4  914   3.494   3.176   3.364  0.5185  0.1234 -0.2073
  286SOL     OW  915   5.371   0.269   1.663 -0.2233  0.0795  0.0484
  286SOL    HW2  916   5.328   0.186   1.682  0.8662 -0.3501  0.6996
  286SOL    HW3  917   5.316   0.334   1.706 -0.6763 -0.3704  0.1630
  286SOL    MW4  918   5.358   0.267   1.671 -0.1393 -0.0365  0.1495
  287SOL     OW  919   5.069   4.571   2.383  0.0420  0.4903 -0.2717
  287SOL    HW2  920   5.041   4.510   2.315  0.0429  0.0740  0.0983
  287SOL    HW3  921   5.007   4.558   2.454 -0.6778  1.7713 -0.6440
  287SOL    MW4  922   5.057   4.561   2.383 -0.0528  0.6044 -0.2720
  288SOL     OW  923   6.251   0.578   6.076  0.1045 -0.3669  0.1505
  288SOL    HW2  924   6.263   0.670   6.102  0.6160 -0.4317  0.1532
  288SOL    HW3  925   6.322   0.532   6.120  0.3089 -0.6469 -0.4698
  288SOL    MW4  926   6.262   0.584   6.085  0.1990 -0.4124  0.0690
  289SOL     OW  927   3.395   4.303   1.771  0.3738  0.6916  0.0238
  289SOL    HW2  928   3.366   4.235   1.709  1.2920 -0.3636  0.7130
  289SOL    HW3  929   3.321   4.364   1.776 -0.2736  0.0287 -1.0143
  289SOL    MW4  930   3.381   4.302   1.763  0.4095  0.4649 -0.0223
  290SOL     OW  931   5.601   1.030   4.293 -0.0990 -0.0108 -0.0424
  290SOL    HW2  932   5.629   0.948   4.252  0.6523 -0.1848  0.7995
  290SOL    HW3  933   5.508   1.015   4.313 -0.7752  0.4411 -2.5086
  290SOL    MW4  934   5.592   1.017   4.290 -0.0891  0.0259 -0.2567
  291SOL     OW  935   2.653   3.234   3.114  0.2891  0.2344  0.2362
  291SOL    HW2  936   2.611   3.263   3.033 -0.5216 -0.1818  0.4956
  291SOL    HW3  937   2.603   3.156   3.140  2.3816 -1.4081 -0.4381
  291SOL    MW4  938   2.641   3.227   3.107  0.4583 -0.0372  0.1815
  292SOL     OW  939   1.057   5.932   5.659  0.5522 -0.7020 -0.3482
  292SOL    HW2  940   0.992   5.983   5.611  2.9518  0.5113 -2.6189
  292SOL    HW3  941   1.027   5.842   5.653 -1.9219 -0.0051  0.5298
  292SOL    MW4  942   1.045   5.927   5.652  0.5424 -0.4500 -0.5319
  293SOL     OW  943   1.200   3.898   0.694  0.0551  0.3533 -0.1301
  293SOL    HW2  944   1.262   3.846   0.643 -0.1436 -0.1679  0.1559
  293SOL    HW3  945   1.126   3.913   0.634 -0.1118 -0.1294 -0.0479
  293SOL    MW4  946   1.198   3.893   0.679  0.0069  0.2208 -0.0815
  294SOL     OW  947   5.000   1.823   6.087 -0.2430 -0.2039  0.1004
  294SOL    HW2  948   5.027   1.857   6.002  1.3417 -0.2250  0.5664
  294SOL    HW3  949   5.072   1.845   6.146  0.3582 -3.3070  0.6856
  294SOL    MW4  950   5.013   1.830   6.083  0.0454 -0.6161  0.2391
  295SOL     OW  951   5.730   6.043   3.864  0.6000  0.1441  0.1626
  295SOL    HW2  952   5.718   6.033   3.958  2.2974  0.9436  0.5070
  295SOL    HW3  953   5.825   6.052   3.853  0.2797  2.3502 -1.3957
  295SOL    MW4  954   5.741   6.043   3.875  0.7817  0.5407  0.0024
  296SOL     OW  955   1.664   2.220   2.115  0.6124  0.4928  0.0922
  296SOL    HW2  956   1.722   2.216   2.191 -0.6648 -1.0050  1.0514
  296SOL    HW3  957   1.657   2.129   2.084 -1.0561  0.6452 -0.0916
  296SOL    MW4  958   1.670   2.207   2.121  0.2237  0.3153  0.1945
  297SOL     OW  959   0.228   3.607   1.092 -0.2703  0.3613  0.7557
  297SOL    HW2  960   0.278   3.666   1.034 -1.1236  1.4892  1.1185
  297SOL    HW3  961   0.204   3.662   1.166  1.1573 -1.1645  2.4477
  297SOL    MW4  962   0.232   3.622   1.094 -0.1945  0.3088  1.0268
  298SOL     OW  963   1.787   3.095   1.125  0.2175 -0.5387 -0.1866
  298SOL    HW2  964   1.818   3.185   1.115  1.0717 -0.8457 -0.4422
  298SOL    HW3  965   1.835   3.062   1.201  1.8379 -1.5445 -1.5796
  298SOL    MW4  966   1.798   3.102   1.134  0.5440 -0.7119 -0.4041
  299SOL     OW  967   5.204   0.398   1.859 -0.1694  0.1823 -0.0132
  299SOL    HW2  968   5.133   0.459   1.838  0.1893  0.3214 -0.8220
  299SOL    HW3  969   5.158   0.320   1.892 -0.6215  0.9414  1.2292
  299SOL    MW4  970   5.188   0.396   1.861 -0.1817  0.3008  0.0440
  300SOL     OW  971   4.312   0.380   4.590  0.2864  0.3332 -0.2305
  300SOL    HW2  972   4.258   0.353   4.665  0.1435 -0.4405 -0.6065
  300SOL    HW3  973   4.372   0.445   4.627 -0.5836  0.8657  0.2946
  300SOL    MW4  974   4.313   0.385   4.605  0.1528  0.3014 -0.2109
  301SOL     OW  975   1.544   4.609   1.760  0.3378 -0.0915  0.1020
  301SOL    HW2  976   1.532   4.697   1.795 -1.9422  0.6824 -2.3129
  301SOL    HW3  977   1.474   4.557   1.801  0.6061 -0.3442  0.2401
  301SOL    MW4  978   1.533   4.614   1.770  0.0724 -0.0228 -0.1984
  302SOL     OW  979   6.301   6.300   0.170 -0.4461  0.3046  0.3460
  302SOL    HW2  980   6.360   6.273   0.100 -0.4309 -0.6297  0.7084
  302SOL    HW3  981   6.302   6.396   0.167  0.2781  0.2802 -0.3212
  302SOL    MW4  982   6.309   6.309   0.161 -0.3486  0.1781  0.3058
  303SOL     OW  983   5.912   0.831   5.288 -0.4204 -0.0287  0.1665
  303SOL    HW2  984   5.865   0.914   5.291 -1.5995 -0.5814 -1.5989
  303SOL    HW3  985   6.004   0.855   5.283 -0.6938  1.1338  0.5073
  303SOL    MW4  986   5.918   0.845   5.288 -0.6121  0.0518 -0.0215
  304SOL     OW  987   5.829   6.149   3.379 -0.4434  0.4497  0.2234
  304SOL    HW2  988   5.780   6.069   3.399  0.9349 -0.5066 -0.0738
  304SOL    HW3  989   5.869   6.174   3.462 -1.4105  1.2465  0.4721
  304SOL    MW4  990   5.828   6.142   3.392 -0.3892  0.4286  0.2170
  305SOL     OW  991   5.818   1.747   1.192 -0.4856  0.8174  0.0305
  305SOL    HW2  992   5.746   1.686   1.208 -0.8089  1.0388 -0.5511
  305SOL    HW3  993   5.812   1.810   1.264  1.7175 -1.4836  2.4368
  305SOL    MW4  994   5.807   1.747   1.204 -0.2376  0.5430  0.2712
  306SOL     OW  995   5.249   5.532   3.302  0.2427  0.4021 -0.1915
  306SOL    HW2  996   5.192   5.607   3.319 -0.6129 -0.5543  1.4356
  306SOL    HW3  997   5.335   5.570   3.286 -0.0843  1.7227  1.0133
  306SOL    MW4  998   5.253   5.547   3.302  0.0866  0.4502  0.1821
  307SOL     OW  999   2.400   0.738   2.019  0.1130 -0.4566  0.0191
  307SOL    HW2 1000   2.398   0.737   1.923  0.4539 -1.3171  0.0108
  307SOL    HW3 1001   2.482   0.693   2.041  1.0562  1.4641  0.6920
  307SOL    MW4 1002   2.411   0.732   2.009  0.2824 -0.3167  0.1068
  308SOL     OW 1003   0.583   5.297   6.396 -0.2315  0.1516  0.5470
  308SOL    HW2 1004   0.662   5.271   6.444  0.9970  2.3325 -0.1001
  308SOL    HW3 1005   0.592   5.392   6.386 -1.6183  0.1172 -1.8621
  308SOL    MW4 1006   0.595   5.306   6.401 -0.2524  0.4348  0.1438
  309SOL     OW 1007   4.438   5.679   0.113  0.1476 -0.6397  0.1528
  309SOL    HW2 1008   4.515   5.719   0.073  0.2427 -1.7518 -0.8233
  309SOL    HW3 1009   4.469   5.646   0.198  0.9601 -1.7154 -0.5379
  309SOL    MW4 1010   4.452   5.680   0.119  0.2673 -0.9284 -0.0671
  310SOL     OW 1011   3.077   1.988   2.885 -0.3925  0.2645 -0.0579
  310SOL    HW2 1012   3.140   2.057   2.906 -0.6045  0.5316 -0.2802
  310SOL    HW3 1013   3.021   1.983   2.962 -0.7717  0.7928 -0.2893
  310SOL    MW4 1014   3.078   1.997   2.898 -0.4705  0.3694 -0.1177
  311SOL     OW 1015   1.491   3.765   5.305 -0.1695 -0.0037 -0.6478
  311SOL    HW2 1016   1.478   3.688   5.359  1.2010  1.0314  1.2766
  311SOL    HW3 1017   1.426   3.828   5.337 -0.3764  0.1050 -1.2721
  311SOL    MW4 1018   1.481   3.763   5.316 -0.0160  0.1472 -0.4762
  312SOL     OW 1019   5.330   0.562   1.593  0.0061 -0.1430  0.0801
  312SOL    HW2 1020   5.405   0.516   1.555  1.1482  1.5211  0.1991
  312SOL    HW3 1021   5.257   0.542   1.534  0.3615 -2.2963  0.3013
  312SOL    MW4 1022   5.330   0.553   1.580  0.2037 -0.2076  0.1250
  313SOL     OW 1023   1.299   2.840   3.858 -0.4675  0.8058  0.2470
  313SOL    HW2 1024   1.210   2.843   3.823 -0.2994  0.2326 -0.2448
  313SOL    HW3 1025   1.288   2.805   3.947 -0.6239 -0.5844 -0.2845
  313SOL    MW4 1026   1.285   2.836   3.865 -0.4660  0.5468  0.1120
  314SOL     OW 1027   1.263   5.327   2.358 -0.2488  0.3242 -0.3737
  314SOL    HW2 1028   1.290   5.237   2.342  0.5116  0.3858  0.5345
  314SOL    HW3 1029   1.168   5.326   2.346 -0.6648 -1.2142  2.3076
  314SOL    MW4 1030   1.254   5.315   2.354 -0.2033  0.1293  0.0999
  315SOL     OW 1031   4.698   2.115   3.618  0.0422 -0.0651  0.4846
  315SOL    HW2 1032   4.688   2.034   3.667 -0.2654 -0.6236 -0.4759
  315SOL    HW3 1033   4.695   2.184   3.684 -1.6587 -0.7076  1.1353
  315SOL    MW4 1034   4.696   2.113   3.633 -0.2228 -0.2236  0.4437
  316SOL     OW 1035   2.575   5.819   3.400 -0.2739 -0.1198 -0.3701
  316SOL    HW2 1036   2.610   5.901   3.365  0.0708  0.7829  1.9358
  316SOL    HW3 1037   2.648   5.780   3.448 -0.6999 -1.3478 -0.6885
  316SOL    MW4 1038   2.589   5.825   3.402 -0.2846 -0.1627 -0.1078
  317SOL     OW 1039   1.990   2.341   2.015  0.0115  0.0251 -0.0415
  317SOL    HW2 1040   1.912   2.365   1.965  0.0685  1.6910  0.6260
  317SOL    HW3 1041   1.998   2.246   2.001 -2.4084 -0.2955  0.2655
  317SOL    MW4 1042   1.980   2.331   2.006 -0.3002  0.2026  0.0871
  318SOL     OW 1043   4.639   1.208   3.901  0.8060  0.1198 -0.0537
  318SOL    HW2 1044   4.705   1.192   3.968  0.6252 -1.8104 -0.2655
  318SOL    HW3 1045   4.654   1.139   3.836 -0.2958  0.7183 -0.9806
  318SOL    MW4 1046   4.650   1.196   3.901  0.6368 -0.0559 -0.2039
  319SOL     OW 1047   1.209   3.323   1.975  0.4858  0.0317  0.1785
  319SOL    HW2 1048   1.191   3.372   1.894 -2.3341 -0.2126  0.5655
  319SOL    HW3 1049   1.165   3.239   1.963 -0.5226  0.2145  2.1555
  319SOL    MW4 1050   1.201   3.319   1.963 -0.0193  0.0236  0.4904
  320SOL     OW 1051   2.301   3.865   4.679 -0.3043  0.4598 -0.4973
  320SOL    HW2 1052   2.236   3.810   4.636 -0.2860  0.1705 -0.1606
  320SOL    HW3 1053   2.378   3.860   4.623  0.1785 -1.0107  0.2598
  320SOL    MW4 1054   2.302   3.857   4.666 -0.2382  0.2276 -0.3530
  321SOL     OW 1055   3.223   1.735   0.844 -0.0936  0.5227  0.3569
  321SOL    HW2 1056   3.248   1.643   0.833 -0.7269  0.0904  2.2112
  321SOL    HW3 1057   3.127   1.733   0.850 -0.2660  1.5432 -1.3070
  321SOL    MW4 1058   3.214   1.722   0.843 -0.1999  0.6003  0.3820
  322SOL     OW 1059   1.373   1.583   1.897  0.4405  0.0642  0.1934
  322SOL    HW2 1060   1.332   1.543   1.973 -0.9188 -0.5938 -0.8394
  322SOL    HW3 1061   1.463   1.551   1.899  0.2332 -0.4940  1.1375
  322SOL    MW4 1062   1.379   1.573   1.907  0.2338 -0.0963  0.1817
  323SOL     OW 1063   6.331   0.462   2.173  0.0020 -0.2120 -0.1780
  323SOL    HW2 1064   6.238   0.453   2.149  0.1219  0.2376 -0.8415
  323SOL    HW3 1065   6.376   0.471   2.089  0.4513  1.2980  0.1908
  323SOL    MW4 1066   6.325   0.462   2.159  0.0771  0.0466 -0.2169
  324SOL     OW 1067   3.069   1.218   6.215  0.5646  0.0713  0.3811
  324SOL    HW2 1068   2.995   1.257   6.168  0.4966  0.5749  0.8922
  324SOL    HW3 1069   3.031   1.187   6.298  0.6021 -1.1735 -0.0516
  324SOL    MW4 1070   3.054   1.219   6.220  0.5606 -0.0265  0.3915
  325SOL     OW 1071   3.177   5.188   1.913 -0.1994  0.7286  0.3157
  325SOL    HW2 1072   3.159   5.280   1.930  1.0231  1.2338 -0.8978
  325SOL    HW3 1073   3.120   5.165   1.840 -0.5302  0.5064  0.6412
  325SOL    MW4 1074   3.167   5.197   1.906 -0.0818  0.7659  0.1985
  326SOL     OW 1075   0.507   1.458   2.357 -0.1597 -0.0077  0.0877
  326SOL    HW2 1076   0.424   1.432   2.318 -0.2514  1.0446 -0.4610
  326SOL    HW3 1077   0.486   1.536   2.409  0.2929 -0.3351  0.7776
  326SOL    MW4 1078   0.494   1.465   2.359 -0.1121  0.0880  0.1063
  327SOL     OW 1079   3.710   3.119   4.432 -0.4603 -0.5208  0.0991
  327SOL    HW2 1080   3.716   3.139   4.525  0.4529  1.2081 -0.2834
  327SOL    HW3 1081   3.732   3.026   4.426 -0.3258 -0.6127  1.5815
  327SOL    MW4 1082   3.714   3.109   4.443 -0.3221 -0.3048  0.2443
  328SOL     OW 1083   4.921   4.799   5.822 -0.0413 -0.3516 -0.4627
  328SOL    HW2 1084   4.912   4.709   5.790 -1.2276  0.6919 -3.4942
  328SOL    HW3 1085   4.843   4.844   5.788  0.3206  1.7586  1.2769
  328SOL    MW4 1086   4.909   4.793   5.813 -0.1501  0.0645 -0.6332
  329SOL     OW 1087   5.661   3.236   5.830  0.1589 -0.2930 -0.3306
  329SOL    HW2 1088   5.701   3.152   5.810 -1.0316 -0.5868 -1.6079
  329SOL    HW3 1089   5.570   3.216   5.849 -0.0492  0.6624 -0.2449
  329SOL    MW4 1090   5.654   3.222   5.830 -0.0256 -0.2057 -0.4878
  330SOL     OW 1091   4.455   0.212   0.660  0.3580 -0.4173  0.3075
  330SOL    HW2 1092   4.460   0.117   0.670  1.3609 -0.7194 -2.1479
  330SOL    HW3 1093   4.539   0.236   0.620  0.8561  1.8038  2.4672
  330SOL    MW4 1094   4.467   0.202   0.656  0.5560 -0.1641  0.2685
  331SOL     OW 1095   3.936   2.896   0.153  0.4019  0.0749  0.0783
  331SOL    HW2 1096   3.893   2.903   0.239 -0.0771  1.7709 -0.2775
  331SOL    HW3 1097   3.867   2.867   0.094  1.0025 -2.3034  0.4235
  331SOL    MW4 1098   3.921   2.893   0.157  0.4179 -0.0151  0.0769
  332SOL     OW 1099   2.827   2.288   1.013  0.2215 -0.1218 -0.4157
  332SOL    HW2 1100   2.800   2.274   0.922 -0.6061  2.6299 -0.6844
  332SOL    HW3 1101   2.750   2.267   1.065 -1.3522  3.6897 -0.8832
  332SOL    MW4 1102   2.813   2.284   1.008 -0.0954  0.7442 -0.5128
  333SOL     OW 1103   2.280   3.644   5.094 -0.3199  0.1233 -0.1163
  333SOL    HW2 1104   2.329   3.682   5.166 -1.6212 -0.5800  1.1740
  333SOL    HW3 1105   2.259   3.718   5.037  0.0340  0.8076  0.6364
  333SOL    MW4 1106   2.284   3.658   5.096 -0.4449  0.1208  0.1533
  334SOL     OW 1107   1.023   1.724   4.755 -0.8221  0.2826  0.2547
  334SOL    HW2 1108   0.950   1.777   4.722 -2.0795 -0.6960  1.3552
  334SOL    HW3 1109   1.101   1.777   4.738 -1.9628  2.2008  0.7410
  334SOL    MW4 1110   1.024   1.738   4.748 -1.1385  0.4066  0.4641
  335SOL     OW 1111   1.618   4.163   5.765  0.3402  0.3831 -0.2345
  335SOL    HW2 1112   1.668   4.241   5.789  3.5959 -1.1670 -1.4557
  335SOL    HW3 1113   1.660   4.131   5.685 -1.4657 -2.1304 -0.2924
  335SOL    MW4 1114   1.630   4.169   5.758  0.5315 -0.1531 -0.4032
  336SOL     OW 1115   6.403   4.278   4.018  0.1278 -0.7489 -0.3319
  336SOL    HW2 1116   6.312   4.265   3.992  0.5065 -2.2674 -0.9868
  336SOL    HW3 1117   6.446   4.195   4.001  1.5657 -0.2003  0.3675
  336SOL    MW4 1118   6.397   4.266   4.012  0.3675 -0.8768 -0.3260
  337SOL     OW 1119   1.828   4.907   5.823 -0.3738  0.3529  0.5810
  337SOL    HW2 1120   1.833   4.833   5.764  0.9934 -0.7657  2.0296
  337SOL    HW3 1121   1.748   4.892   5.874  0.6797 -1.0049  1.9165
  337SOL    MW4 1122   1.818   4.896   5.822 -0.0545  0.0261  0.9483
  338SOL     OW 1123   4.067   5.197   2.113 -0.2591  0.0063 -0.4539
  338SOL    HW2 1124   4.079   5.175   2.021 -0.1598  0.2712 -0.5034
  338SOL    HW3 1125   4.070   5.113   2.158 -0.0082 -0.0955 -0.6584
  338SOL    MW4 1126   4.069   5.183   2.107 -0.2129  0.0278 -0.4874
  339SOL     OW 1127   1.251   2.789   2.890  0.2013 -0.1066 -0.0873
  339SOL    HW2 1128   1.301   2.772   2.810  2.5430  3.7594  0.3040
  339SOL    HW3 1129   1.180   2.847   2.862 -0.8302 -1.1482  0.2652
  339SOL    MW4 1130   1.248   2.795   2.876  0.3742  0.2661  0.0109
  340SOL     OW 1131   4.604   5.197   4.081  0.4037 -0.1113  0.9177
  340SOL    HW2 1132   4.676   5.256   4.061  2.0920 -2.6035 -1.1576
  340SOL    HW3 1133   4.640   5.134   4.143 -0.5508 -0.3769  1.2309
  340SOL    MW4 1134   4.618   5.196   4.086  0.5005 -0.4751  0.6852
  341SOL     OW 1135   6.135   6.207   1.538 -0.0234 -0.0380 -0.6039
  341SOL    HW2 1136   6.123   6.279   1.475  1.7108 -0.5142 -1.5552
  341SOL    HW3 1137   6.079   6.137   1.505 -1.5107  0.7363  0.1733
  341SOL    MW4 1138   6.126   6.207   1.525  0.0092  0.0013 -0.6268
  342SOL     OW 1139   5.454   0.346   6.097  0.3748  0.0870  0.4194
  342SOL    HW2 1140   5.402   0.335   6.018  0.9885  0.1221  0.0034
  342SOL    HW3 1141   5.544   0.356   6.065  0.8957 -1.7829  1.2198
  342SOL    MW4 1142   5.459   0.346   6.082  0.5245 -0.1551  0.4701
  343SOL     OW 1143   1.505   6.029   5.312 -0.8482 -0.6401 -0.4078
  343SOL    HW2 1144   1.423   6.045   5.359 -0.2497 -0.1122  0.5031
  343SOL    HW3 1145   1.486   6.053   5.221 -1.4569  0.3537 -0.0370
  343SOL    MW4 1146   1.491   6.034   5.306 -0.8495 -0.4393 -0.2387
  344SOL     OW 1147   1.723   3.876   4.687  0.3397  0.0746  0.5453
  344SOL    HW2 1148   1.729   3.781   4.697 -1.8836 -0.0672  1.0349
  344SOL    HW3 1149   1.755   3.893   4.599  1.1816 -1.0538  0.6043
  344SOL    MW4 1150   1.728   3.865   4.677  0.1575 -0.0930  0.6177
  345SOL     OW 1151   0.122   2.551   3.663 -0.0689 -0.3304  0.8240
  345SOL    HW2 1152   0.135   2.484   3.730 -3.1009  0.2665  2.1752
  345SOL    HW3 1153   0.089   2.627   3.711 -0.9154  0.6424 -1.1833
  345SOL    MW4 1154   0.119   2.552   3.678 -0.5806 -0.1233  0.7374
  346SOL     OW 1155   1.721   4.016   0.050  0.0728  0.8206  0.1049
  346SOL    HW2 1156   1.677   3.993   0.132  1.4977  0.0659  0.6986
  346SOL    HW3 1157   1.814   4.011   0.071  0.4998 -0.5492 -1.8421
  346SOL    MW4 1158   1.728   4.012   0.064  0.3171  0.5403 -0.0736
  347SOL     OW 1159   0.078   0.278   1.723 -0.0004  0.0857 -0.4715
  347SOL    HW2 1160  -0.007   0.235   1.721 -0.5173  0.9937  0.7703
  347SOL    HW3 1161   0.140   0.208   1.742 -0.5151 -0.5040 -0.9252
  347SOL    MW4 1162   0.075   0.263   1.725 -0.1365  0.1277 -0.3675
  348SOL     OW 1163   1.995   4.015   6.434 -0.4490  0.3557  0.4612
  348SOL    HW2 1164   2.025   4.100   6.402 -0.5378  0.2054 -0.0290
  348SOL    HW3 1165   1.984   3.962   6.355  1.0116 -0.5707  0.8483
  348SOL    MW4 1166   1.997   4.019   6.420 -0.2680  0.2137  0.4476
  349SOL     OW 1167   0.811   1.965   5.717  0.1246 -0.1956  0.3187
  349SOL    HW2 1168   0.719   1.991   5.717  0.1327  0.3045  3.6186
  349SOL    HW3 1169   0.809   1.870   5.709 -0.6836 -0.1915  0.3422
  349SOL    MW4 1170   0.799   1.956   5.716  0.0191 -0.1291  0.7572
  350SOL     OW 1171   2.386   4.491   1.339 -0.1656 -0.0103 -0.0796
  350SOL    HW2 1172   2.450   4.542   1.289  1.6029 -1.4938  0.5813
  350SOL    HW3 1173   2.311   4.483   1.280  1.1348 -0.1536 -1.7983
  350SOL    MW4 1174   2.384   4.497   1.324  0.2393 -0.2249 -0.2192
  351SOL     OW 1175   5.108   2.950   0.476 -0.1533 -0.1815  0.0870
  351SOL    HW2 1176   5.089   3.043   0.459 -0.5951 -0.4989 -1.3087
  351SOL    HW3 1177   5.156   2.950   0.558 -1.3065  1.1691  0.8079
  351SOL    MW4 1178   5.111   2.962   0.484 -0.3637 -0.0452 -0.0020
  352SOL     OW 1179   3.347   3.861   3.419 -0.3351  0.0676 -0.3853
  352SOL    HW2 1180   3.427   3.892   3.376 -1.0191 -0.4945 -2.1351
  352SOL    HW3 1181   3.374   3.782   3.466 -0.1139 -0.9616 -2.1569
  352SOL    MW4 1182   3.361   3.855   3.420 -0.3962 -0.1424 -0.8499
  353SOL     OW 1183   2.004   6.316   2.934 -0.1035  0.1717  0.2287
  353SOL    HW2 1184   1.970   6.404   2.951 -0.3031  0.1893 -0.2454
  353SOL    HW3 1185   2.065   6.299   3.006  0.2152  0.8514  0.1274
  353SOL    MW4 1186   2.008   6.325   2.946 -0.0878  0.2637  0.1528
  354SOL     OW 1187   4.902   0.930   0.203 -0.7037  0.4845 -0.1306
  354SOL    HW2 1188   4.996   0.915   0.195 -0.9372 -0.7877 -0.6949
  354SOL    HW3 1189   4.873   0.946   0.113 -0.8952  1.8963  0.1456
  354SOL    MW4 1190   4.911   0.930   0.190 -0.7598  0.5029 -0.1686
  355SOL     OW 1191   1.638   4.269   6.405 -0.2175  0.2654  0.2518
  355SOL    HW2 1192   1.622   4.306   6.492 -3.3110 -0.4506  0.1101
  355SOL    HW3 1193   1.698   4.196   6.421  0.8269  1.3315  1.4473
  355SOL    MW4 1194   1.644   4.264   6.419 -0.4879  0.3116  0.3909
  356SOL     OW 1195   0.819   1.583   5.103  0.1526 -0.3420 -0.4542
  356SOL    HW2 1196   0.908   1.574   5.070 -0.3380 -3.0117 -1.2608
  356SOL    HW3 1197   0.809   1.511   5.166 -1.7488 -0.7947 -1.2011
  356SOL    MW4 1198   0.830   1.572   5.107 -0.1630 -0.7540 -0.6592
  357SOL     OW 1199   5.465   0.206   3.942  0.0123 -0.0570 -0.1863
  357SOL    HW2 1200   5.437   0.117   3.963 -1.3090 -0.0386 -1.6989
  357SOL    HW3 1201   5.440   0.218   3.850  0.5510  1.7354 -0.1368
  357SOL    MW4 1202   5.458   0.196   3.932 -0.0910  0.1819 -0.3794
  358SOL     OW 1203   3.992   6.296   3.333  0.2669 -0.5478 -0.2341
  358SOL    HW2 1204   3.996   6.390   3.312  0.7801 -0.5077  0.0199
  358SOL    HW3 1205   4.060   6.257   3.278 -3.6812 -1.7363 -4.9913
  358SOL    MW4 1206   4.002   6.303   3.323 -0.1863 -0.6993 -0.8283
  359SOL     OW 1207   4.825   0.922   1.929  0.4503  0.6803  0.6560
  359SOL    HW2 1208   4.757   0.987   1.947  0.9087  0.8949  1.6562
  359SOL    HW3 1209   4.846   0.934   1.837 -1.8203 -0.3061 -0.0668
  359SOL    MW4 1210   4.819   0.932   1.919  0.2112  0.5785  0.6926
  360SOL     OW 1211   4.218   1.474   0.635  0.8062  0.3777  0.3819
  360SOL    HW2 1212   4.248   1.524   0.559  0.4564  1.3795  0.9011
  360SOL    HW3 1213   4.200   1.539   0.702  0.6285 -0.4651  1.1698
  360SOL    MW4 1214   4.220   1.489   0.634  0.7366  0.3987  0.5544
  361SOL     OW 1215   3.084   2.210   1.132  0.3614  0.6101  0.4056
  361SOL    HW2 1216   3.008   2.232   1.079  0.7498  1.3291  0.1175
  361SOL    HW3 1217   3.085   2.115   1.136  0.3653  0.5309 -0.9635
  361SOL    MW4 1218   3.074   2.201   1.126  0.4132  0.6945  0.1870
  362SOL     OW 1219   0.691   5.517   5.024 -0.5825 -0.2502  0.3126
  362SOL    HW2 1220   0.735   5.483   5.102  0.3937  1.9605  0.8066
  362SOL    HW3 1221   0.603   5.541   5.054 -0.6326 -0.5517  0.4104
  362SOL    MW4 1222   0.685   5.515   5.038 -0.4603  0.0017  0.3907
  363SOL     OW 1223   2.426   2.473   3.898  0.1547  0.7097 -0.3031
  363SOL    HW2 1224   2.454   2.554   3.940 -2.0648  0.6784  1.4383
  363SOL    HW3 1225   2.409   2.497   3.807  0.3074  2.0098 -0.0075
  363SOL    MW4 1226   2.427   2.487   3.892 -0.1180  0.8771 -0.0344
  364SOL     OW 1227   0.779   0.953   4.877 -0.4211  0.3770 -0.0040
  364SOL    HW2 1228   0.860   0.906   4.897 -0.4343  0.9936  1.6762
  364SOL    HW3 1229   0.793   1.041   4.912 -0.6440  1.4834 -2.4860
  364SOL    MW4 1230   0.792   0.959   4.884 -0.4522  0.6044 -0.1098
  365SOL     OW 1231   0.790   4.724   6.014  0.7614  0.5691  0.0649
  365SOL    HW2 1232   0.742   4.790   5.964 -1.0029  0.2392  1.2214
  365SOL    HW3 1233   0.751   4.641   5.988  0.4840  0.3153  1.2128
  365SOL    MW4 1234   0.778   4.722   6.004  0.4920  0.4921  0.3689
  366SOL     OW 1235   5.167   2.511   3.956  0.2030 -0.1566  0.3311
  366SOL    HW2 1236   5.185   2.573   3.885  0.8639 -1.0955 -0.3467
  366SOL    HW3 1237   5.110   2.445   3.916  0.7567 -0.8082  0.5992
  366SOL    MW4 1238   5.162   2.510   3.941  0.3632 -0.3664  0.2770
  367SOL     OW 1239   5.443   0.343   0.084  0.5726 -0.6003 -0.2873
  367SOL    HW2 1240   5.371   0.316   0.028 -0.6166  0.2073  0.7891
  367SOL    HW3 1241   5.415   0.320   0.172  1.5861 -0.1764  0.1596
  367SOL    MW4 1242   5.430   0.337   0.088  0.5494 -0.4378 -0.0863
  368SOL     OW 1243   1.086   4.540   2.043 -0.6366  0.1568 -0.0378
  368SOL    HW2 1244   1.158   4.517   2.100 -1.6957 -1.2166  0.8076
  368SOL    HW3 1245   1.014   4.564   2.102 -0.6024  2.5584 -0.8563
  368SOL    MW4 1246   1.086   4.540   2.058 -0.7718  0.2925 -0.0343
  369SOL     OW 1247   4.129   3.362   3.490  0.7611  0.0143  0.2654
  369SOL    HW2 1248   4.126   3.456   3.510 -0.7630 -0.5194  3.0732
  369SOL    HW3 1249   4.041   3.341   3.459  0.6272 -0.7237  1.0936
  369SOL    MW4 1250   4.117   3.372   3.488  0.5423 -0.1535  0.7451
  370SOL     OW 1251   2.606   3.367   0.125 -0.4361 -0.1238 -0.6123
  370SOL    HW2 1252   2.626   3.457   0.100 -0.3287 -0.1900 -0.7620
  370SOL    HW3 1253   2.572   3.374   0.214  0.8650 -0.0813 -0.0982
  370SOL    MW4 1254   2.604   3.380   0.134 -0.2503 -0.1270 -0.5642
  371SOL     OW 1255   5.839   0.372   3.200 -0.2327  0.5919  0.0771
  371SOL    HW2 1256   5.777   0.351   3.130 -0.8596 -0.0419  0.7925
  371SOL    HW3 1257   5.896   0.439   3.163 -0.0364 -0.2945 -1.3117
  371SOL    MW4 1258   5.838   0.378   3.186 -0.2895  0.3913 -0.0117
  372SOL     OW 1259   2.995   4.413   3.946  0.2934 -0.1456  0.2987
  372SOL    HW2 1260   2.945   4.427   3.866  0.7615  2.2442  0.3507
  372SOL    HW3 1261   2.936   4.438   4.017  1.5611  3.2230  0.3330
  372SOL    MW4 1262   2.981   4.418   3.945  0.5224  0.6142  0.3101
  373SOL     OW 1263   2.208   5.659   2.932 -0.0585 -0.3171 -0.5608
  373SOL    HW2 1264   2.181   5.644   3.023  0.8280  0.3141 -0.1885
  373SOL    HW3 1265   2.295   5.699   2.939 -0.7368  1.4450 -1.6242
  373SOL    MW4 1266   2.216   5.662   2.945 -0.0311 -0.0013 -0.6520
  374SOL     OW 1267   6.200   1.795   0.060 -0.1656  0.3751 -0.0257
  374SOL    HW2 1268   6.178   1.728   0.125  0.3829  0.8965  0.7152
  374SOL    HW3 1269   6.118   1.841   0.044 -0.3853 -0.0026  0.0174
  374SOL    MW4 1270   6.186   1.792   0.066 -0.1222  0.3940  0.0777
  375SOL     OW 1271   1.804   4.686   5.662 -0.6497  0.5237 -0.0751
  375SOL    HW2 1272   1.758   4.732   5.591 -0.6764  1.3280  0.4532
  375SOL    HW3 1273   1.893   4.674   5.628 -0.9843 -0.1839 -0.7207
  375SOL    MW4 1274   1.810   4.690   5.648 -0.6974  0.5364 -0.0906
  376SOL     OW 1275   5.652   1.097   0.348 -0.4309  0.0461 -0.4107
  376SOL    HW2 1276   5.746   1.092   0.367 -0.4018  2.9942  0.6788
  376SOL    HW3 1277   5.626   1.005   0.338  2.1879 -0.9989  1.0678
  376SOL    MW4 1278   5.661   1.084   0.349 -0.0815  0.2972 -0.0719
  377SOL     OW 1279   3.733   5.895   3.143  0.3648  0.1093 -0.6119
  377SOL    HW2 1280   3.738   5.989   3.123  0.0620  0.2461 -0.0563
  377SOL    HW3 1281   3.700   5.891   3.232  1.4778 -0.5081 -0.2096
  377SOL    MW4 1282   3.729   5.907   3.152  0.4717  0.0459 -0.4855
  378SOL     OW 1283   6.281   4.349   5.638  0.0012 -0.3140  0.1976
  378SOL    HW2 1284   6.297   4.292   5.563 -0.7656 -0.5789  0.2221
  378SOL    HW3 1285   6.273   4.289   5.712  0.5443 -0.0683  0.4625
  378SOL    MW4 1286   6.282   4.333   5.638 -0.0283 -0.3166  0.2358
  379SOL     OW 1287   0.109   4.267   4.642  0.0316  0.5774  0.0697
  379SOL    HW2 1288   0.043   4.283   4.574  0.3482 -0.6732 -0.5811
  379SOL    HW3 1289   0.188   4.310   4.609  0.7313 -1.6523 -1.3956
  379SOL    MW4 1290   0.111   4.275   4.628  0.1657  0.1182 -0.2095
  380SOL     OW 1291   1.697   1.624   0.971 -0.5270  0.2487  0.0402
  380SOL    HW2 1292   1.755   1.559   1.010 -0.3445  0.9715  0.9867
  380SOL    HW3 1293   1.618   1.574   0.948 -0.3571 -0.3224  0.6604
  380SOL    MW4 1294   1.694   1.609   0.973 -0.4805  0.2687  0.2469
  381SOL     OW 1295   4.912   6.100   2.169 -0.6139  0.4181 -0.1242
  381SOL    HW2 1296   4.931   6.114   2.076 -0.4456  1.0798  0.0064
  381SOL    HW3 1297   4.821   6.070   2.170 -0.3377 -0.4786 -0.5636
  381SOL    MW4 1298   4.902   6.098   2.157 -0.5552  0.3871 -0.1650
  382SOL     OW 1299   1.931   0.694   2.494  0.0022  0.5788 -0.0203
  382SOL    HW2 1300   1.938   0.752   2.418 -0.6028  0.0292 -0.5098
  382SOL    HW3 1301   1.881   0.744   2.558  2.4247  1.9398  0.9462
  382SOL    MW4 1302   1.925   0.708   2.493  0.2420  0.6859  0.0427
  383SOL     OW 1303   2.373   5.393   3.906  0.3111  0.3736  0.1104
  383SOL    HW2 1304   2.305   5.452   3.873 -0.8198 -0.4432  0.8798
  383SOL    HW3 1305   2.381   5.326   3.838 -1.4043 -0.8333  0.9999
  383SOL    MW4 1306   2.365   5.392   3.893 -0.0645  0.1066  0.3293
  384SOL     OW 1307   0.652   4.881   0.931  0.3389  0.2376  0.1246
  384SOL    HW2 1308   0.607   4.827   0.995  0.4524  1.1539  1.0090
  384SOL    HW3 1309   0.634   4.840   0.847 -0.6130 -0.4407  0.6493
  384SOL    MW4 1310   0.644   4.869   0.928  0.2283  0.2690  0.3105
  385SOL     OW 1311   6.209   5.096   2.657  0.3886 -0.1772 -0.1349
  385SOL    HW2 1312   6.125   5.095   2.611 -0.3059 -0.5756  1.1067
  385SOL    HW3 1313   6.192   5.149   2.735  2.3588  3.1849 -1.7265
  385SOL    MW4 1314   6.195   5.103   2.661  0.5569  0.2138 -0.1811
  386SOL     OW 1315   5.496   2.388   0.251  0.3274  0.6181 -0.6451
  386SOL    HW2 1316   5.405   2.397   0.278  0.3612 -1.9592  0.6300
  386SOL    HW3 1317   5.535   2.329   0.316  3.3379  2.7754 -0.2676
  386SOL    MW4 1318   5.489   2.381   0.263  0.7291  0.5627 -0.4271
  387SOL     OW 1319   3.339   2.943   0.827  0.8598  0.9226 -0.1986
  387SOL    HW2 1320   3.270   2.906   0.882 -0.0290  2.1269 -0.4829
  387SOL    HW3 1321   3.419   2.927   0.877  0.2166  0.8350  0.8383
  387SOL    MW4 1322   3.341   2.936   0.841  0.6576  1.0699 -0.0993
  388SOL     OW 1323   4.429   0.634   5.751  0.3615  0.0765 -0.1496
  388SOL    HW2 1324   4.525   0.634   5.757  0.4062 -2.7331  0.4478
  388SOL    HW3 1325   4.406   0.726   5.743  3.1481  0.8032 -1.0893
  388SOL    MW4 1326   4.439   0.646   5.751  0.7351 -0.1983 -0.1948
  389SOL     OW 1327   6.361   3.779   4.341  0.4282 -0.6684  0.2395
  389SOL    HW2 1328   6.410   3.698   4.353 -1.4323 -1.8676  0.3150
  389SOL    HW3 1329   6.269   3.750   4.341 -0.2657  1.4158 -0.0410
  389SOL    MW4 1330   6.355   3.764   4.343  0.0912 -0.5517  0.2125
  390SOL     OW 1331   6.381   5.904   4.875 -0.4154  0.2436 -0.3455
  390SOL    HW2 1332   6.407   5.982   4.924  0.3841 -0.4606  0.3862
  390SOL    HW3 1333   6.376   5.933   4.784 -1.4335  1.4538  0.0696
  390SOL    MW4 1334   6.383   5.918   4.869 -0.4443  0.3104 -0.1942
  391SOL     OW 1335   0.288   4.563   5.293 -0.2059  0.4819  0.2423
  391SOL    HW2 1336   0.212   4.612   5.326 -1.7480  0.5134 -2.9538
  391SOL    HW3 1337   0.355   4.630   5.277  0.1704  0.5916  2.0649
  391SOL    MW4 1338   0.287   4.578   5.295 -0.3597  0.5006  0.0611
  392SOL     OW 1339   3.794   5.497   4.262  0.1480  0.0083  0.0102
  392SOL    HW2 1340   3.838   5.494   4.347 -0.5703  3.2847  0.6376
  392SOL    HW3 1341   3.721   5.435   4.271  0.5296 -0.2605  1.5180
  392SOL    MW4 1342   3.790   5.488   4.274  0.1036  0.4051  0.2919
  393SOL     OW 1343   4.795   2.824   0.851  0.1349 -0.3208 -0.2719
  393SOL    HW2 1344   4.840   2.903   0.881  0.1564 -0.7119  0.7922
  393SOL    HW3 1345   4.702   2.842   0.865  0.1785 -0.7277  0.6608
  393SOL    MW4 1346   4.789   2.837   0.857  0.1435 -0.4261 -0.0085
  394SOL     OW 1347   3.451   2.734   2.117 -0.4758 -0.2688  0.3639
  394SOL    HW2 1348   3.511   2.675   2.072 -1.5055 -0.7311 -0.4487
  394SOL    HW3 1349   3.427   2.799   2.050 -1.1368 -0.2891  0.5746
  394SOL    MW4 1350   3.456   2.735   2.102 -0.6988 -0.3325  0.2845
  395SOL     OW 1351   3.787   1.085   2.216  0.2606  0.4011 -0.6271
  395SOL    HW2 1352   3.835   1.168   2.205 -0.1576  0.8337  0.6553
  395SOL    HW3 1353   3.705   1.099   2.170  0.5011  0.4141 -1.0614
  395SOL    MW4 1354   3.783   1.098   2.208  0.2372  0.4599 -0.5152
  396SOL     OW 1355   5.734   2.773   4.111  0.4080  0.2465 -0.0529
  396SOL    HW2 1356   5.714   2.690   4.155  0.2247 -0.0865 -0.7436
  396SOL    HW3 1357   5.787   2.822   4.174  1.2545 -0.7530  0.0384
  396SOL    MW4 1358   5.738   2.768   4.125  0.4955  0.0707 -0.1320
  397SOL     OW 1359   5.180   0.893   0.062  0.3614 -0.5353  0.2275
  397SOL    HW2 1360   5.206   0.948   0.136  0.7343 -0.1384 -0.1976
  397SOL    HW3 1361   5.235   0.815   0.071 -1.3451 -1.6305  1.8095
  397SOL    MW4 1362   5.191   0.890   0.073  0.1854 -0.6274  0.3801
  398SOL     OW 1363   1.819   3.085   1.668  0.4217 -0.0572 -0.2690
  398SOL    HW2 1364   1.841   3.004   1.714  0.1202 -0.2929 -0.5390
  398SOL    HW3 1365   1.732   3.069   1.631 -0.6053  1.1421  1.4402
  398SOL    MW4 1366   1.810   3.072   1.670  0.2464  0.0699 -0.0791
  399SOL     OW 1367   0.741   1.736   2.179 -0.2231  0.2851  0.4756
  399SOL    HW2 1368   0.678   1.806   2.196 -0.1236  0.5197 -0.0903
  399SOL    HW3 1369   0.688   1.663   2.148 -0.2273  0.4422  0.1137
  399SOL    MW4 1370   0.726   1.736   2.177 -0.2105  0.3368  0.3532
  400SOL     OW 1371   4.669   1.151   4.967 -0.1222 -0.1960  0.0333
  400SOL    HW2 1372   4.734   1.083   4.948  0.8680  1.1175 -1.6103
  400SOL    HW3 1373   4.682   1.171   5.060 -0.7536 -2.5154  0.6861
  400SOL    MW4 1374   4.680   1.145   4.977 -0.0748 -0.3287 -0.0974
  401SOL     OW 1375   3.787   1.334   4.222 -0.2543 -0.2247  0.9477
  401SOL    HW2 1376   3.742   1.280   4.157  2.2027 -0.4070 -0.7904
  401SOL    HW3 1377   3.734   1.413   4.229 -1.2278 -0.7158 -0.3981
  401SOL    MW4 1378   3.774   1.337   4.214 -0.0586 -0.3135  0.5408
  402SOL     OW 1379   3.461   1.812   3.519  0.5911 -0.1303 -0.0896
  402SOL    HW2 1380   3.478   1.895   3.564 -2.3339  0.3722  0.3262
  402SOL    HW3 1381   3.454   1.748   3.590 -0.4160 -0.0359 -0.0780
  402SOL    MW4 1382   3.462   1.814   3.534  0.0723 -0.0516 -0.0332
  403SOL     OW 1383   1.275   0.671   5.328 -0.0677 -0.6757  0.2003
  403SOL    HW2 1384   1.323   0.746   5.295  1.6460 -0.5529  2.7207
  403SOL    HW3 1385   1.191   0.674   5.281  1.1538  0.8780 -2.1044
  403SOL    MW4 1386   1.270   0.681   5.317  0.3196 -0.4545  0.2288
  404SOL     OW 1387   4.589   3.595   4.260 -0.4943 -0.5945 -0.1826
  404SOL    HW2 1388   4.628   3.608   4.174  0.4015 -0.9980  0.1553
  404SOL    HW3 1389   4.634   3.658   4.316 -2.3107  0.9293 -0.3480
  404SOL    MW4 1390   4.600   3.605   4.256 -0.6157 -0.4467 -0.1599
  405SOL     OW 1391   4.928   6.470   6.384  0.5780 -0.7252 -0.2407
  405SOL    HW2 1392   4.948   6.483   6.291  0.6400 -0.0950 -0.1437
  405SOL    HW3 1393   5.006   6.501   6.429  0.2253 -0.2461  0.0529
  405SOL    MW4 1394   4.941   6.476   6.377  0.5396 -0.5788 -0.1892
  406SOL     OW 1395   3.437   3.561   3.311  0.2686  0.2103 -0.5229
  406SOL    HW2 1396   3.351   3.519   3.306 -0.3472  1.2817  0.5679
  406SOL    HW3 1397   3.437   3.605   3.396  0.7298  2.6854 -1.7151
  406SOL    MW4 1398   3.426   3.562   3.321  0.2482  0.6782 -0.5363
  407SOL     OW 1399   1.934   5.138   0.732 -0.0749 -0.7420 -0.4265
  407SOL    HW2 1400   1.859   5.164   0.786  1.0046  2.3421 -0.2305
  407SOL    HW3 1401   1.995   5.097   0.793 -0.1919 -0.1537  0.0973
  407SOL    MW4 1402   1.932   5.136   0.747  0.0521 -0.2575 -0.3315
  408SOL     OW 1403   1.219   1.689   3.367  0.1750 -0.2712 -0.0113
  408SOL    HW2 1404   1.224   1.660   3.276  0.5951 -0.5288  0.0888
  408SOL    HW3 1405   1.228   1.608   3.418  0.7624 -0.0354  0.2682
  408SOL    MW4 1406   1.221   1.674   3.362  0.3079 -0.2741  0.0388
  409SOL     OW 1407   5.776   6.467   4.146 -0.1874  0.1022 -0.2611
  409SOL    HW2 1408   5.756   6.547   4.098  0.1224 -0.3526 -1.1771
  409SOL    HW3 1409   5.691   6.432   4.172 -0.3310  0.6222 -0.0208
  409SOL    MW4 1410   5.762   6.473   4.143 -0.1655  0.1108 -0.3502
  410SOL     OW 1411   1.920   6.278   5.248 -0.2875  0.7640 -0.6454
  410SOL    HW2 1412   1.939   6.365   5.282  2.6448  0.5114 -1.4293
  410SOL    HW3 1413   1.977   6.269   5.171  1.2199 -2.6403  0.6837
  410SOL    MW4 1414   1.930   6.288   5.242  0.2982  0.2815 -0.5735
  411SOL     OW 1415   4.715   1.170   3.237  0.7481 -0.3771  0.5021
  411SOL    HW2 1416   4.678   1.258   3.240 -1.7690 -1.2099 -1.7982
  411SOL    HW3 1417   4.646   1.114   3.272  0.0953 -1.9055 -2.8975
  411SOL    MW4 1418   4.701   1.174   3.242  0.3299 -0.6886 -0.2500
  412SOL     OW 1419   4.107   3.640   3.529 -0.3802  0.4121 -0.1101
  412SOL    HW2 1420   4.035   3.692   3.565 -0.9382 -0.0087 -0.6020
  412SOL    HW3 1421   4.141   3.693   3.457 -0.2147  0.5959  0.1014
  412SOL    MW4 1422   4.102   3.654   3.525 -0.4320  0.3808 -0.1471
  413SOL     OW 1423   4.862   1.519   2.742  0.2475 -0.3513  0.8296
  413SOL    HW2 1424   4.803   1.449   2.771  1.3550 -1.4219  0.5389
  413SOL    HW3 1425   4.806   1.575   2.688 -0.4097 -1.5990  0.1642
  413SOL    MW4 1426   4.847   1.517   2.739  0.3069 -0.6572  0.7035
  414SOL     OW 1427   4.600   1.672   3.290 -0.0587 -0.1235  0.6786
  414SOL    HW2 1428   4.583   1.707   3.378  2.0434  3.0264  0.0176
  414SOL    HW3 1429   4.550   1.729   3.232  0.6249 -0.4857 -0.2883
  414SOL    MW4 1430   4.591   1.684   3.294  0.3088  0.2443  0.4638
  415SOL     OW 1431   2.713   5.942   6.373 -0.0135 -0.3767 -1.0182
  415SOL    HW2 1432   2.625   5.928   6.338  0.3020 -1.0111 -1.5884
  415SOL    HW3 1433   2.771   5.904   6.307  0.6236 -1.2381  0.0006
  415SOL    MW4 1434   2.709   5.935   6.359  0.1122 -0.5741 -0.9590
  416SOL     OW 1435   4.130   0.606   1.974 -0.2713 -0.0817 -0.7199
  416SOL    HW2 1436   4.155   0.530   1.921  1.0714 -0.1667 -0.0036
  416SOL    HW3 1437   4.211   0.634   2.016 -1.5161 -1.1816  2.8221
  416SOL    MW4 1438   4.144   0.600   1.973 -0.2584 -0.2380 -0.1581
  417SOL     OW 1439   5.581   0.551   5.755  0.9394 -0.2942 -0.4495
  417SOL    HW2 1440   5.606   0.635   5.794  1.0633 -0.6749  0.2954
  417SOL    HW3 1441   5.528   0.575   5.679 -1.3646  0.4509  1.2916
  417SOL    MW4 1442   5.577   0.565   5.750  0.6518 -0.2461 -0.1215
  418SOL     OW 1443   5.659   5.819   1.438 -0.2073  0.0003  0.2737
  418SOL    HW2 1444   5.661   5.754   1.367 -1.0178  0.9725 -0.6669
  418SOL    HW3 1445   5.716   5.890   1.407  0.2095  0.0029  1.0375
  418SOL    MW4 1446   5.667   5.820   1.424 -0.2592  0.1289  0.2504
  419SOL     OW 1447   3.193   3.116   0.637  0.3788  0.3365  0.1223
  419SOL    HW2 1448   3.224   3.098   0.548 -1.9681 -0.1700 -0.6759
  419SOL    HW3 1449   3.246   3.059   0.693  0.8890 -0.4809 -1.1382
  419SOL    MW4 1450   3.204   3.106   0.633  0.1365  0.1618 -0.1493
  420SOL     OW 1451   3.060   4.933   4.265  0.1380 -0.0687  0.1163
  420SOL    HW2 1452   2.985   4.966   4.216  0.1119  1.3624  1.0658
  420SOL    HW3 1453   3.087   4.855   4.217 -0.2950  0.8905 -1.7831
  420SOL    MW4 1454   3.054   4.927   4.252  0.0774  0.2467 -0.0090
  421SOL     OW 1455   4.824   4.496   6.053  0.2923  0.5468 -0.3884
  421SOL    HW2 1456   4.864   4.579   6.078 -0.1177 -0.1056  2.8900
  421SOL    HW3 1457   4.895   4.432   6.056 -0.0746  0.1470  1.1868
  421SOL    MW4 1458   4.838   4.498   6.057  0.1898  0.4080  0.2520
  422SOL     OW 1459   3.944   2.744   5.731 -0.0505  0.5312 -0.0299
  422SOL    HW2 1460   4.011   2.810   5.712 -0.0355  0.6426  0.4024
  422SOL    HW3 1461   3.994   2.664   5.750 -0.0556  0.5054 -0.1233
  422SOL    MW4 1462   3.960   2.742   5.731 -0.0492  0.5425  0.0148
  423SOL     OW 1463   5.885   4.017   5.226 -1.1118 -0.3318 -0.4248
  423SOL    HW2 1464   5.844   3.986   5.307  1.2240  1.6621  1.6601
  423SOL    HW3 1465   5.903   3.937   5.176 -0.3527 -1.9014  2.1666
  423SOL    MW4 1466   5.882   4.002   5.230 -0.7035 -0.2758  0.1922
  424SOL     OW 1467   3.289   5.551   3.605  0.1211  0.0163  0.3353
  424SOL    HW2 1468   3.364   5.527   3.660  1.8559  2.6907 -0.6711
  424SOL    HW3 1469   3.229   5.594   3.665 -0.7604 -2.1730  1.1580
  424SOL    MW4 1470   3.291   5.553   3.620  0.2337  0.0803  0.3110
  425SOL     OW 1471   2.048   4.786   5.949  0.1687  0.2674  0.3152
  425SOL    HW2 1472   2.094   4.869   5.959 -0.6979  0.7584  0.3120
  425SOL    HW3 1473   1.961   4.810   5.916  0.7683 -0.8194 -2.3017
  425SOL    MW4 1474   2.042   4.800   5.946  0.1335  0.1888 -0.0305
  426SOL     OW 1475   6.188   1.900   4.924  0.7581 -0.0637  0.4674
  426SOL    HW2 1476   6.161   1.856   5.005 -1.4195 -0.6485 -0.5119
  426SOL    HW3 1477   6.186   1.993   4.946 -0.4064 -0.1865  0.9417
  426SOL    MW4 1478   6.184   1.906   4.938  0.3171 -0.1571  0.4007
  427SOL     OW 1479   1.619   3.553   4.237 -0.7380 -0.6585  0.5274
  427SOL    HW2 1480   1.642   3.628   4.292 -0.1707 -1.9114  2.0707
  427SOL    HW3 1481   1.549   3.585   4.180 -0.0489  1.2159  0.6758
  427SOL    MW4 1482   1.613   3.567   4.236 -0.5723 -0.5765  0.7506
  428SOL     OW 1483   2.851   6.268   2.225  0.3083 -0.1524 -0.6175
  428SOL    HW2 1484   2.903   6.234   2.153  0.6056  1.0459 -0.9882
  428SOL    HW3 1485   2.817   6.352   2.194 -1.1479 -0.4907 -0.0658
  428SOL    MW4 1486   2.853   6.275   2.212  0.1554 -0.0390 -0.5936
  429SOL     OW 1487   4.990   4.146   1.496 -0.5731  0.0132 -1.1343
  429SOL    HW2 1488   4.983   4.148   1.401  2.9734 -0.2278 -1.5217
  429SOL    HW3 1489   4.962   4.234   1.523 -4.4967 -0.7940 -1.9594
  429SOL    MW4 1490   4.986   4.158   1.487 -0.6228 -0.1251 -1.2943
  430SOL     OW 1491   5.993   3.564   1.365  0.7929 -0.1609 -0.2059
  430SOL    HW2 1492   5.953   3.555   1.452  0.5044  0.2785 -0.2919
  430SOL    HW3 1493   5.962   3.648   1.332  2.2510  0.4797 -0.0383
  430SOL    MW4 1494   5.984   3.574   1.372  0.9472 -0.0184 -0.1952
  431SOL     OW 1495   0.707   2.206   5.266 -0.2090 -0.0277  0.2422
  431SOL    HW2 1496   0.665   2.261   5.200 -0.5050 -0.6928 -0.1268
  431SOL    HW3 1497   0.792   2.247   5.280 -0.4292  0.5323 -0.0166
  431SOL    MW4 1498   0.713   2.219   5.259 -0.2771 -0.0416  0.1594
  432SOL     OW 1499   0.599   2.000   4.076  0.3139  0.1590 -0.6542
  432SOL    HW2 1500   0.618   1.967   4.164  0.3213  2.0974  0.1165
  432SOL    HW3 1501   0.671   1.965   4.023  0.4236 -0.8787  0.1311
  432SOL    MW4 1502   0.611   1.991   4.081  0.3293  0.2778 -0.4489
  433SOL     OW 1503   2.025   4.023   2.005  0.1237 -0.2136 -0.2334
  433SOL    HW2 1504   2.037   3.946   2.060  1.4175  0.1859  0.0896
  433SOL    HW3 1505   1.961   3.996   1.939  2.3302 -2.4562 -1.6506
  433SOL    MW4 1506   2.018   4.010   2.003  0.5855 -0.4568 -0.3777
  434SOL     OW 1507   4.331   1.176   5.618 -0.7294 -0.4226  0.0385
  434SOL    HW2 1508   4.368   1.182   5.706 -1.4746 -0.8301  0.3880
  434SOL    HW3 1509   4.236   1.180   5.632 -0.8298  0.6024 -0.8339
  434SOL    MW4 1510   4.323   1.177   5.632 -0.8410 -0.3411 -0.0305
  435SOL     OW 1511   0.843   6.150   5.812  0.9435 -0.4819 -0.1603
  435SOL    HW2 1512   0.772   6.125   5.753  0.6891 -3.1093  1.0953
  435SOL    HW3 1513   0.801   6.155   5.898  1.9351 -0.2548  0.3201
  435SOL    MW4 1514   0.828   6.147   5.816  1.0408 -0.7986  0.0688
  436SOL     OW 1515   3.411   1.356   4.379 -0.2135  0.2293  0.1870
  436SOL    HW2 1516   3.342   1.391   4.436 -0.5931  1.4331 -0.9557
  436SOL    HW3 1517   3.373   1.278   4.340 -0.9453  0.8819 -0.4276
  436SOL    MW4 1518   3.397   1.350   4.382 -0.3602  0.4742 -0.0449
  437SOL     OW 1519   0.068   4.015   3.918  0.0143  0.6639  0.2486
  437SOL    HW2 1520   0.144   4.037   3.865 -1.1652  1.2755 -1.2377
  437SOL    HW3 1521   0.104   3.965   3.992  1.7365  0.0976 -0.9173
  437SOL    MW4 1522   0.082   4.011   3.921  0.0859  0.6699 -0.1013
  438SOL     OW 1523   2.481   3.004   2.512  0.0634 -0.7910 -0.1802
  438SOL    HW2 1524   2.569   2.978   2.543 -0.5325 -1.1468  1.3153
  438SOL    HW3 1525   2.437   2.921   2.495  0.0202 -0.6102 -0.9720
  438SOL    MW4 1526   2.487   2.989   2.514 -0.0209 -0.8140 -0.0874
  439SOL     OW 1527   2.080   2.639   0.516  0.0542 -0.0629 -0.3474
  439SOL    HW2 1528   2.032   2.721   0.529 -1.1281 -0.7720 -0.0637
  439SOL    HW3 1529   2.080   2.626   0.422 -0.2615 -0.0217 -0.3544
  439SOL    MW4 1530   2.074   2.648   0.506 -0.1434 -0.1510 -0.3109
  440SOL     OW 1531   4.289   1.429   2.651  0.1272  0.0566 -0.1674
  440SOL    HW2 1532   4.215   1.474   2.609  0.9210  1.2317 -0.3680
  440SOL    HW3 1533   4.340   1.500   2.692  0.5719 -0.8410  0.8769
  440SOL    MW4 1534   4.286   1.444   2.651  0.2906  0.0932 -0.0561
  441SOL     OW 1535   1.749   1.502   0.077  0.3473 -0.1367 -0.3267
  441SOL    HW2 1536   1.669   1.539   0.115  0.2677 -2.4124  1.9913
  441SOL    HW3 1537   1.731   1.498  -0.017 -1.8168  0.4080  0.0081
  441SOL    MW4 1538   1.736   1.506   0.069  0.0513 -0.3651  0.0233
  442SOL     OW 1539   0.943   6.414   0.747  0.2705  0.4246 -0.1724
  442SOL    HW2 1540   0.952   6.440   0.838  2.8664 -0.2995 -0.1486
  442SOL    HW3 1541   0.901   6.489   0.704 -0.5397  0.9617  1.4824
  442SOL    MW4 1542   0.939   6.427   0.753  0.5061  0.3999  0.0491
  443SOL     OW 1543   3.070   0.112   4.687 -0.0788 -0.4364 -0.0993
  443SOL    HW2 1544   2.989   0.161   4.700  1.4376  2.1459  0.2668
  443SOL    HW3 1545   3.089   0.120   4.594  1.3480  1.8142  0.3097
  443SOL    MW4 1546   3.062   0.120   4.677  0.3095  0.2012  0.0029
  444SOL     OW 1547   5.592   3.665   4.036  0.1072 -0.0761 -0.4843
  444SOL    HW2 1548   5.652   3.705   3.973 -0.3291 -0.7189 -1.3368
  444SOL    HW3 1549   5.555   3.590   3.989  0.1086 -0.8497  0.6928
  444SOL    MW4 1550   5.595   3.660   4.021  0.0498 -0.2629 -0.4415
  445SOL     OW 1551   4.076   2.176   2.748 -1.0370  0.0080  0.1696
  445SOL    HW2 1552   4.138   2.106   2.730  0.5230  2.0242 -3.1026
  445SOL    HW3 1553   4.128   2.244   2.791 -2.1678 -0.1140  1.8417
  445SOL    MW4 1554   4.091   2.176   2.752 -0.9803  0.2579 -0.0415
  446SOL     OW 1555   2.673   5.100   2.805 -0.7733  0.1759 -0.0689
  446SOL    HW2 1556   2.677   5.101   2.900  0.2647 -0.8563 -0.0761
  446SOL    HW3 1557   2.693   5.009   2.781  1.3344  0.8913 -1.3184
  446SOL    MW4 1558   2.676   5.088   2.814 -0.3583  0.1341 -0.2347
  447SOL     OW 1559   3.698   4.196   1.832  0.0899 -0.2624 -0.1913
  447SOL    HW2 1560   3.699   4.140   1.754  0.3217 -1.6677  0.7853
  447SOL    HW3 1561   3.692   4.285   1.797  1.0523 -0.8020 -1.8405
  447SOL    MW4 1562   3.697   4.201   1.817  0.2474 -0.5190 -0.2800
  448SOL     OW 1563   3.489   0.374   3.073  0.3178  0.4337 -0.0677
  448SOL    HW2 1564   3.498   0.349   3.164 -0.2590  0.6586  0.0568
  448SOL    HW3 1565   3.422   0.443   3.073  0.9640  1.0767 -0.5496
  448SOL    MW4 1566   3.481   0.380   3.085  0.3269  0.5482 -0.1149
  449SOL     OW 1567   4.181   3.091   4.127  0.4885  0.2092 -0.5238
  449SOL    HW2 1568   4.198   3.010   4.176  0.5328  1.1591  1.1166
  449SOL    HW3 1569   4.087   3.105   4.138  0.4164  0.1873 -1.1188
  449SOL    MW4 1570   4.171   3.082   4.135  0.4848  0.3316 -0.3859
  450SOL     OW 1571   3.249   0.643   2.218 -0.3764 -0.0893  0.3525
  450SOL    HW2 1572   3.285   0.600   2.140 -2.5284  1.1498 -1.4511
  450SOL    HW3 1573   3.298   0.725   2.225  1.2811 -1.1064  1.6835
  450SOL    MW4 1574   3.260   0.648   2.209 -0.4417 -0.0600  0.2901
  451SOL     OW 1575   4.753   2.147   2.306 -0.4334  0.4551  0.2945
  451SOL    HW2 1576   4.782   2.173   2.394 -1.0267  0.5227  0.4762
  451SOL    HW3 1577   4.816   2.080   2.278 -1.5444 -1.2972  1.7355
  451SOL    MW4 1578   4.765   2.141   2.314 -0.6583  0.2328  0.5086
  452SOL     OW 1579   3.100   2.018   6.075 -0.0382 -0.2050 -0.5148
  452SOL    HW2 1580   3.106   1.925   6.093  1.5308 -0.2648 -1.2293
  452SOL    HW3 1581   3.060   2.024   5.988 -0.2330 -0.2006 -0.4259
  452SOL    MW4 1582   3.096   2.007   6.066  0.1431 -0.2123 -0.5973
  453SOL     OW 1583   4.854   4.334   4.147  0.2593 -0.6604 -0.3277
  453SOL    HW2 1584   4.947   4.358   4.150 -0.4449  2.5322 -0.0265
  453SOL    HW3 1585   4.831   4.338   4.054  0.2992 -0.8430 -0.3447
  453SOL    MW4 1586   4.863   4.338   4.135  0.1717 -0.2633 -0.2902
  454SOL     OW 1587   4.484   4.736   3.682 -0.1045 -0.0535 -0.8241
  454SOL    HW2 1588   4.401   4.705   3.719 -1.0369  0.4581 -2.3914
  454SOL    HW3 1589   4.547   4.669   3.707 -0.8757 -0.2537  0.7617
  454SOL    MW4 1590   4.481   4.723   3.690 -0.3293 -0.0124 -0.8217
  455SOL     OW 1591   5.847   2.600   1.733 -0.2829  0.0495  0.0789
  455SOL    HW2 1592   5.867   2.583   1.641 -0.7963  0.1182 -0.0492
  455SOL    HW3 1593   5.932   2.600   1.776  0.0617  0.9579 -0.5478
  455SOL    MW4 1594   5.861   2.598   1.726 -0.3052  0.1784 -0.0207
  456SOL     OW 1595   2.105   5.076   1.768  0.0733  0.1185 -0.4395
  456SOL    HW2 1596   2.131   5.135   1.697 -0.0684 -1.1126 -1.5510
  456SOL    HW3 1597   2.115   4.988   1.731 -0.6485 -0.5369  0.8522
  456SOL    MW4 1598   2.110   5.072   1.753 -0.0406 -0.1304 -0.4157
  457SOL     OW 1599   5.372   4.327   3.324  0.1664 -0.2300  0.4713
  457SOL    HW2 1600   5.457   4.342   3.365  0.7574  0.2669 -0.8687
  457SOL    HW3 1601   5.343   4.242   3.358  0.2719  0.4867  2.4360
  457SOL    MW4 1602   5.379   4.318   3.334  0.2583 -0.0698  0.5537
  458SOL     OW 1603   1.034   5.075   5.347  0.1500 -0.3741 -0.2529
  458SOL    HW2 1604   1.072   5.034   5.424 -1.3962  1.4287  1.5806
  458SOL    HW3 1605   1.069   5.163   5.346 -0.4734 -0.1172 -1.1513
  458SOL    MW4 1606   1.043   5.081   5.357 -0.1363 -0.1023 -0.1296
  459SOL     OW 1607   6.219   5.228   4.848 -0.2568  0.6935 -0.2750
  459SOL    HW2 1608   6.172   5.308   4.875 -0.2610  0.4572  0.4448
  459SOL    HW3 1609   6.277   5.209   4.922 -3.6025 -2.6569  1.8229
  459SOL    MW4 1610   6.221   5.236   4.861 -0.6988  0.2203  0.0968
  460SOL     OW 1611   3.901   3.110   4.171 -0.5394 -0.5157  0.4041
  460SOL    HW2 1612   3.927   3.083   4.259 -1.6518  0.6688  1.1397
  460SOL    HW3 1613   3.813   3.145   4.182 -0.1672  0.9803 -0.8951
  460SOL    MW4 1614   3.893   3.111   4.184 -0.6371 -0.1621  0.3297
  461SOL     OW 1615   5.600   4.632   3.689  0.7272 -0.2863  0.0283
  461SOL    HW2 1616   5.666   4.604   3.753  0.4060 -0.3723  0.3278
  461SOL    HW3 1617   5.517   4.606   3.729  0.6016 -2.0752 -1.2472
  461SOL    MW4 1618   5.598   4.625   3.703  0.6683 -0.5337 -0.1005
  462SOL     OW 1619   5.242   6.416   6.201  0.5221 -0.1853  0.4394
  462SOL    HW2 1620   5.183   6.343   6.185 -1.1393  0.9382  1.1759
  462SOL    HW3 1621   5.301   6.417   6.125 -0.7778 -0.9973 -0.6157
  462SOL    MW4 1622   5.242   6.407   6.189  0.1314 -0.1442  0.3974
  463SOL     OW 1623   3.463   6.023   5.259 -0.0241  0.1000 -0.3535
  463SOL    HW2 1624   3.487   6.079   5.185 -1.3622  0.6606 -0.3892
  463SOL    HW3 1625   3.515   6.056   5.332  1.3453 -0.4859 -1.0179
  463SOL    MW4 1626   3.473   6.035   5.259 -0.0199  0.0967 -0.4459
  464SOL     OW 1627   1.968   4.197   4.632 -0.1863  0.0148  0.0631
  464SOL    HW2 1628   1.940   4.289   4.629 -2.0162 -0.4303  1.4466
  464SOL    HW3 1629   1.990   4.182   4.724  2.7888 -0.2754 -0.5848
  464SOL    MW4 1630   1.967   4.208   4.644 -0.0352 -0.0822  0.1601
  465SOL     OW 1631   4.724   1.325   5.799 -0.7817 -0.4801  0.1464
  465SOL    HW2 1632   4.809   1.283   5.806  0.1642  1.0964 -1.1787
  465SOL    HW3 1633   4.705   1.328   5.705 -0.0577  3.2639 -0.0342
  465SOL    MW4 1634   4.732   1.320   5.787 -0.5614  0.2219 -0.0523
  466SOL     OW 1635   1.079   4.238   6.122 -0.2590  0.3136 -0.4888
  466SOL    HW2 1636   1.043   4.315   6.166 -3.2868 -0.8941 -0.6164
  466SOL    HW3 1637   1.050   4.247   6.031 -0.8575 -1.0620 -0.4504
  466SOL    MW4 1638   1.071   4.250   6.116 -0.7374 -0.0272 -0.5006
  467SOL     OW 1639   3.018   2.646   3.015  0.2659 -0.2246  0.2856
  467SOL    HW2 1640   2.933   2.686   2.994 -0.1691 -0.5404  1.3602
  467SOL    HW3 1641   3.066   2.717   3.058  0.5284 -0.0609 -0.2775
  467SOL    MW4 1642   3.013   2.661   3.018  0.2431 -0.2447  0.3531
  468SOL     OW 1643   0.809   2.975   5.594  0.0896  0.4537 -0.3339
  468SOL    HW2 1644   0.800   2.922   5.515 -0.1215  0.0772 -0.0601
  468SOL    HW3 1645   0.871   2.926   5.648  1.5067  1.5166 -0.9386
  468SOL    MW4 1646   0.816   2.961   5.591  0.2487  0.5442 -0.3776
  469SOL     OW 1647   4.499   4.387   4.622  0.3422  0.6115  0.4245
  469SOL    HW2 1648   4.523   4.324   4.690 -0.7258 -0.8553 -0.4952
  469SOL    HW3 1649   4.475   4.466   4.670 -2.9214 -1.1586  2.0334
  469SOL    MW4 1650   4.499   4.389   4.637 -0.2293  0.1844  0.5154
  470SOL     OW 1651   1.652   5.548   4.781  0.1443 -0.2400  0.3895
  470SOL    HW2 1652   1.595   5.586   4.715  1.6441 -1.3160 -1.6316
  470SOL    HW3 1653   1.644   5.454   4.770  0.0577 -0.4787  2.1348
  470SOL    MW4 1654   1.644   5.541   4.771  0.3307 -0.4135  0.3531
  471SOL     OW 1655   6.023   3.137   2.690 -0.6041  0.7366 -0.2326
  471SOL    HW2 1656   6.107   3.103   2.720 -0.7646 -0.8798 -1.4581
  471SOL    HW3 1657   6.034   3.232   2.688  0.7432  0.6222  0.8669
  471SOL    MW4 1658   6.035   3.145   2.693 -0.4475  0.5082 -0.2492
  472SOL     OW 1659   0.568   6.469   1.867  0.6529 -0.3056 -0.2939
  472SOL    HW2 1660   0.545   6.472   1.959  2.6071 -1.1652  0.2783
  472SOL    HW3 1661   0.486   6.484   1.821 -1.0837 -3.2285  1.5235
  472SOL    MW4 1662   0.554   6.471   1.873  0.6816 -0.8046  0.0213
  473SOL     OW 1663   4.575   1.324   6.332 -0.5895 -0.1501  0.0909
  473SOL    HW2 1664   4.599   1.233   6.347 -0.1939 -0.0763 -0.0709
  473SOL    HW3 1665   4.656   1.373   6.346 -0.8679  0.2115  0.4829
  473SOL    MW4 1666   4.589   1.319   6.336 -0.5740 -0.0926  0.1212
  474SOL     OW 1667   1.622   4.037   3.585  0.2515  0.6347 -0.4289
  474SOL    HW2 1668   1.700   4.085   3.557  1.4466 -0.8751  0.1656
  474SOL    HW3 1669   1.595   3.988   3.507  0.4363  0.4784 -0.3957
  474SOL    MW4 1670   1.629   4.036   3.571  0.4335  0.4148 -0.3461
  475SOL     OW 1671   4.768   4.062   4.251 -0.0101 -0.2046  0.1926
  475SOL    HW2 1672   4.718   4.012   4.186 -0.9307  0.6684  0.2095
  475SOL    HW3 1673   4.778   4.149   4.213 -1.1056  0.5209  1.4427
  475SOL    MW4 1674   4.763   4.067   4.238 -0.2761  0.0063  0.3598
  476SOL     OW 1675   0.966   1.484   0.982  0.1969 -0.0344  0.7586
  476SOL    HW2 1676   0.935   1.565   0.942 -0.5980 -0.4870  0.4228
  476SOL    HW3 1677   0.906   1.468   1.055  1.0815  0.3027  1.5741
  476SOL    MW4 1678   0.954   1.492   0.986  0.2087 -0.0496  0.8219
  477SOL     OW 1679   5.727   4.683   1.000  0.0005  0.4862 -0.1607
  477SOL    HW2 1680   5.792   4.690   1.070  1.1346 -0.0567 -1.1190
  477SOL    HW3 1681   5.685   4.769   0.998  1.7122  1.3595 -0.4759
  477SOL    MW4 1682   5.730   4.695   1.009  0.3760  0.5298 -0.3288
  478SOL     OW 1683   1.289   4.730   1.505  0.0055 -0.7090 -0.3405
  478SOL    HW2 1684   1.214   4.701   1.557  0.0362 -1.3453 -0.6379
  478SOL    HW3 1685   1.337   4.649   1.486  0.0027 -0.4840 -1.3470
  478SOL    MW4 1686   1.286   4.715   1.509  0.0092 -0.7633 -0.5125
  479SOL     OW 1687   3.337   1.801   2.750 -0.4315 -0.2285 -0.6071
  479SOL    HW2 1688   3.274   1.852   2.698  0.0056 -0.5341 -1.4511
  479SOL    HW3 1689   3.348   1.851   2.831  0.1978  1.1710 -1.5273
  479SOL    MW4 1690   3.330   1.814   2.754 -0.2908 -0.0842 -0.8399
  480SOL     OW 1691   5.573   2.906   0.129  0.2568 -0.3594 -0.2908
  480SOL    HW2 1692   5.627   2.870   0.058  1.0725  0.0649  0.1049
  480SOL    HW3 1693   5.636   2.932   0.196 -0.4291  0.3133  0.1048
  480SOL    MW4 1694   5.589   2.905   0.128  0.2739 -0.2147 -0.1864
  481SOL     OW 1695   5.772   4.513   5.819  0.0338  0.6814  0.5649
  481SOL    HW2 1696   5.832   4.442   5.843 -0.3990  0.3708  0.7485
  481SOL    HW3 1697   5.767   4.509   5.724  1.2551  1.5030  0.4393
  481SOL    MW4 1698   5.780   4.503   5.810  0.1379  0.7488  0.5725
  482SOL     OW 1699   0.149   3.170   5.910  0.9335 -0.0059 -0.1713
  482SOL    HW2 1700   0.144   3.216   5.994  0.0648  0.8753 -0.6877
  482SOL    HW3 1701   0.196   3.089   5.930  0.1316 -0.1376  1.3011
  482SOL    MW4 1702   0.154   3.165   5.924  0.7131  0.0930 -0.0451
  483SOL     OW 1703   1.451   5.127   1.230 -0.4420 -0.4728 -0.1974
  483SOL    HW2 1704   1.537   5.087   1.239 -0.4021 -0.7040 -1.4369
  483SOL    HW3 1705   1.389   5.054   1.236 -0.4788 -0.4734 -0.5908
  483SOL    MW4 1706   1.454   5.112   1.232 -0.4416 -0.5034 -0.4128
  484SOL     OW 1707   6.207   1.047   5.510  0.3771 -0.7955 -0.7721
  484SOL    HW2 1708   6.145   1.028   5.580  1.2964 -0.1707  0.2418
  484SOL    HW3 1709   6.224   1.141   5.519  1.3001 -0.9164 -1.1710
  484SOL    MW4 1710   6.201   1.057   5.520  0.6202 -0.7291 -0.6909
  485SOL     OW 1711   1.630   0.845   5.377  0.2381 -0.2834  0.5524
  485SOL    HW2 1712   1.631   0.879   5.288  0.2180 -0.5131  0.4641
  485SOL    HW3 1713   1.704   0.887   5.420  2.4524 -2.8275 -0.5544
  485SOL    MW4 1714   1.640   0.855   5.371  0.5276 -0.6494  0.3948
  486SOL     OW 1715   3.612   0.769   4.871 -0.0885  0.0796 -0.4289
  486SOL    HW2 1716   3.569   0.684   4.876 -1.0571  0.5454 -0.7497
  486SOL    HW3 1717   3.661   0.766   4.789  0.0335 -0.2363 -0.3468
  486SOL    MW4 1718   3.613   0.757   4.861 -0.2002  0.0994 -0.4604
  487SOL     OW 1719   5.260   0.971   3.931  0.0573  0.2514  0.8483
  487SOL    HW2 1720   5.184   0.925   3.966 -0.6686  0.5291 -0.2777
  487SOL    HW3 1721   5.331   0.907   3.933 -0.5321 -0.4126  0.7672
  487SOL    MW4 1722   5.259   0.957   3.936 -0.1163  0.2005  0.6891
  488SOL     OW 1723   3.584   6.211   5.962 -0.0377 -0.1680 -0.0470
  488SOL    HW2 1724   3.582   6.119   5.990  1.8117 -0.0579  0.6377
  488SOL    HW3 1725   3.502   6.248   5.993 -0.2349 -1.2908  0.8469
  488SOL    MW4 1726   3.573   6.204   5.970  0.1803 -0.3016  0.1613
  489SOL     OW 1727   2.344   2.125   1.334 -0.2175 -0.1946 -0.2617
  489SOL    HW2 1728   2.347   2.221   1.338  2.5755 -0.2206  2.2840
  489SOL    HW3 1729   2.388   2.103   1.253  1.4849  0.7291  0.3559
  489SOL    MW4 1730   2.350   2.135   1.324  0.3756 -0.0762  0.1557
  490SOL     OW 1731   1.300   4.951   5.286  0.1410  0.1786 -0.1560
  490SOL    HW2 1732   1.309   4.857   5.303 -1.8723 -0.5187 -2.4423
  490SOL    HW3 1733   1.216   4.974   5.326 -0.1160  0.6484 -0.9523
  490SOL    MW4 1734   1.290   4.942   5.294 -0.1585  0.1486 -0.5627
  491SOL     OW 1735   0.015   3.002   1.323 -0.0400 -0.2993 -0.1842
  491SOL    HW2 1736   0.045   3.057   1.250 -1.3586  2.8151  1.4458
  491SOL    HW3 1737   0.094   2.958   1.354  2.0918  3.7000  0.7742
  491SOL    MW4 1738   0.029   3.004   1.317  0.0673  0.6393  0.1573
  492SOL     OW 1739   0.532   3.336   0.866 -0.0675  0.0855 -0.1337
  492SOL    HW2 1740   0.476   3.307   0.794 -2.2614  0.0807  1.4802
  492SOL    HW3 1741   0.544   3.429   0.851  3.4203 -0.6112 -2.9686
  492SOL    MW4 1742   0.526   3.344   0.855  0.1032 -0.0070 -0.2948
  493SOL     OW 1743   4.592   4.202   4.824 -0.3461 -0.8866 -0.1073
  493SOL    HW2 1744   4.670   4.151   4.804  1.2589  1.1474  0.5421
  493SOL    HW3 1745   4.521   4.138   4.828  1.0753 -2.6885 -1.7365
  493SOL    MW4 1746   4.593   4.187   4.822  0.0532 -0.8560 -0.2366
  494SOL     OW 1747   6.139   0.640   4.704  0.0565  0.6336 -0.2418
  494SOL    HW2 1748   6.076   0.608   4.769 -0.8175  1.6435 -0.5588
  494SOL    HW3 1749   6.122   0.734   4.698  2.3931  1.1497  0.4784
  494SOL    MW4 1750   6.128   0.648   4.712  0.2494  0.8349 -0.1886
  495SOL     OW 1751   2.416   3.290   5.299 -0.1588 -0.1258 -0.0181
  495SOL    HW2 1752   2.463   3.373   5.312  1.3679 -1.0379  0.4906
  495SOL    HW3 1753   2.389   3.292   5.207  1.0959  0.3335 -0.3957
  495SOL    MW4 1754   2.418   3.302   5.289  0.2081 -0.1856 -0.0008
  496SOL     OW 1755   1.657   0.938   5.137  0.3130  0.1654  0.1343
  496SOL    HW2 1756   1.743   0.900   5.120 -0.1713 -1.1320  0.4533
  496SOL    HW3 1757   1.673   1.033   5.141  1.4732  0.0589 -1.1872
  496SOL    MW4 1758   1.671   0.946   5.135  0.4022 -0.0198  0.0021
  497SOL     OW 1759   0.572   0.281   3.070  0.3637 -0.3406 -0.4294
  497SOL    HW2 1760   0.589   0.299   3.162 -0.0841 -0.7782 -0.2568
  497SOL    HW3 1761   0.639   0.219   3.044  0.6738  0.0127 -0.4824
  497SOL    MW4 1762   0.583   0.275   3.079  0.3455 -0.3518 -0.4136
  498SOL     OW 1763   4.872   1.582   2.037  0.3594  0.3867  0.0616
  498SOL    HW2 1764   4.825   1.632   2.104  0.5514 -1.1656  1.4050
  498SOL    HW3 1765   4.814   1.585   1.960 -1.8114 -1.0812  1.5056
  498SOL    MW4 1766   4.858   1.589   2.035  0.0984 -0.0117  0.4294
  499SOL     OW 1767   3.230   0.285   3.966  0.0315  0.0844 -0.1515
  499SOL    HW2 1768   3.271   0.201   3.945  1.2603  0.8878 -1.0573
  499SOL    HW3 1769   3.298   0.350   3.950 -1.2653  1.3711 -0.6209
  499SOL    MW4 1770   3.244   0.282   3.961  0.0225  0.3602 -0.3330
  500SOL     OW 1771   2.020   1.302   6.205 -0.0910 -0.2529 -0.0490
  500SOL    HW2 1772   2.058   1.285   6.119  1.9622 -1.9863  1.1296
  500SOL    HW3 1773   2.094   1.302   6.265 -1.7576 -2.8044  2.2394
  500SOL    MW4 1774   2.035   1.300   6.201 -0.0400 -0.8182  0.4084
  501SOL     OW 1775   4.829   3.571   6.186 -0.0214 -0.6873  0.5824
  501SOL    HW2 1776   4.804   3.529   6.269 -3.2381  0.0709  0.1270
  501SOL    HW3 1777   4.795   3.513   6.118 -0.4683  0.3751 -0.1277
  501SOL    MW4 1778   4.821   3.558   6.188 -0.5048 -0.4471  0.4286
  502SOL     OW 1779   4.094   0.822   2.296  0.1033 -0.2225  0.3247
  502SOL    HW2 1780   4.084   0.894   2.358 -1.0421  0.5094 -0.6612
  502SOL    HW3 1781   4.006   0.784   2.289  0.9671 -2.8662  2.0981
  502SOL    MW4 1782   4.081   0.827   2.303  0.0662 -0.4747  0.4286
  503SOL     OW 1783   3.494   2.688   4.459  0.1263  0.0169  0.5172
  503SOL    HW2 1784   3.469   2.779   4.474 -0.6871 -0.0695 -0.2467
  503SOL    HW3 1785   3.430   2.638   4.510  0.0936 -0.1439  0.3183
  503SOL    MW4 1786   3.482   2.693   4.468  0.0147 -0.0157  0.3902
  504SOL     OW 1787   5.101   2.702   0.794 -0.0884  0.0671 -0.2017
  504SOL    HW2 1788   5.029   2.726   0.734 -0.3998  0.9220  0.4884
  504SOL    HW3 1789   5.172   2.675   0.736 -0.4207  0.7846 -0.9758
  504SOL    MW4 1790   5.101   2.702   0.778 -0.1733  0.2745 -0.2128
  505SOL     OW 1791   1.565   3.940   6.262  0.1004 -0.3307  0.2131
  505SOL    HW2 1792   1.621   3.964   6.335  0.6520 -1.5295  0.2056
  505SOL    HW3 1793   1.598   3.991   6.188 -1.0093  1.5655  0.9410
  505SOL    MW4 1794   1.576   3.950   6.262  0.0268 -0.2387  0.3081
  506SOL     OW 1795   5.548   4.526   1.560 -0.1827 -0.8252 -0.3905
  506SOL    HW2 1796   5.544   4.579   1.639 -1.4614 -0.3773 -0.7294
  506SOL    HW3 1797   5.464   4.480   1.557 -0.4181 -0.3563 -1.7945
  506SOL    MW4 1798   5.536   4.527   1.570 -0.3825 -0.7043 -0.6205
  507SOL     OW 1799   6.117   5.145   6.426 -0.3659 -0.0817  0.6401
  507SOL    HW2 1800   6.033   5.191   6.422  0.1738  0.8657 -0.2472
  507SOL    HW3 1801   6.164   5.188   6.498 -0.8933 -1.0913  1.6163
  507SOL    MW4 1802   6.113   5.157   6.435 -0.3643 -0.0899  0.6518
  508SOL     OW 1803   0.198   1.031   2.356 -0.1422  0.0701 -0.1058
  508SOL    HW2 1804   0.249   0.994   2.284  0.2504  0.8549 -0.2520
  508SOL    HW3 1805   0.155   0.956   2.397 -2.1376 -0.2220 -2.4903
  508SOL    MW4 1806   0.199   1.016   2.352 -0.3537  0.1351 -0.4397
  509SOL     OW 1807   6.194   1.126   0.615  0.2571  0.5112  0.2306
  509SOL    HW2 1808   6.229   1.109   0.527  0.0484 -0.0622  0.2591
  509SOL    HW3 1809   6.245   1.070   0.673 -0.2831  0.1426  0.3518
  509SOL    MW4 1810   6.206   1.117   0.611  0.1583  0.3869  0.2503
  510SOL     OW 1811   3.087   2.028   0.618  0.2272 -0.3487 -0.7774
  510SOL    HW2 1812   3.157   2.075   0.664 -1.4057 -0.0768  1.6152
  510SOL    HW3 1813   3.051   2.092   0.556  0.2260  0.4623  0.0504
  510SOL    MW4 1814   3.091   2.042   0.616  0.0116 -0.2058 -0.3525
  511SOL     OW 1815   0.263   0.929   0.648 -0.0841 -0.4680 -0.7968
  511SOL    HW2 1816   0.205   0.999   0.618  1.0291  2.4553  3.0978
  511SOL    HW3 1817   0.220   0.893   0.725  0.4087 -2.7373 -1.4872
  511SOL    MW4 1818   0.250   0.933   0.654  0.1278 -0.3817 -0.3740
  512SOL     OW 1819   0.048   0.481   1.938  0.4967 -0.0627  0.0459
  512SOL    HW2 1820   0.085   0.422   1.873 -0.5203 -0.9243  0.2138
  512SOL    HW3 1821   0.111   0.552   1.945  1.8836 -1.2471  0.0104
  512SOL    MW4 1822   0.061   0.483   1.930  0.5455 -0.3326  0.0634
  513SOL     OW 1823   2.318   1.481   0.448  0.2812  0.4557 -0.6855
  513SOL    HW2 1824   2.284   1.398   0.413  0.8253  0.2860 -0.8300
  513SOL    HW3 1825   2.248   1.514   0.504 -0.7948  0.9262 -2.2309
  513SOL    MW4 1826   2.305   1.474   0.450  0.2110  0.4954 -0.9085
  514SOL     OW 1827   5.045   1.039   5.651 -0.3581  0.2341  0.0645
  514SOL    HW2 1828   5.009   0.964   5.699  2.8975 -1.6111 -0.1283
  514SOL    HW3 1829   5.131   1.053   5.690  0.1657  2.2547 -1.6574
  514SOL    MW4 1830   5.052   1.031   5.663  0.1405  0.2572 -0.1881
  515SOL     OW 1831   5.481   2.458   2.112  0.1514 -0.2752  0.5234
  515SOL    HW2 1832   5.489   2.430   2.203  0.7775 -0.6111  0.3743
  515SOL    HW3 1833   5.527   2.542   2.108  0.7567 -0.6067  0.3711
  515SOL    MW4 1834   5.488   2.465   2.123  0.3139 -0.3632  0.4837
  516SOL     OW 1835   0.257   3.852   3.447 -0.0008 -0.0735  0.0832
  516SOL    HW2 1836   0.253   3.942   3.478  2.3606  0.0359  0.2268
  516SOL    HW3 1837   0.293   3.858   3.359  1.3199 -0.9185  0.5317
  516SOL    MW4 1838   0.261   3.864   3.440  0.4850 -0.1706  0.1613
  517SOL     OW 1839   2.585   1.836   0.397 -0.0572  0.1967  0.6754
  517SOL    HW2 1840   2.619   1.918   0.362 -1.4933  0.6783  0.3237
  517SOL    HW3 1841   2.648   1.770   0.370 -0.2230  0.8020 -1.3730
  517SOL    MW4 1842   2.597   1.838   0.389 -0.2685  0.3401  0.3587
  518SOL     OW 1843   1.516   3.762   1.641  0.0873  0.0668  0.0678
  518SOL    HW2 1844   1.551   3.828   1.700  1.6998 -0.4636 -0.2441
  518SOL    HW3 1845   1.497   3.687   1.697  0.1362  0.1028  0.1326
  518SOL    MW4 1846   1.518   3.761   1.656  0.3065  0.0016  0.0352
  519SOL     OW 1847   5.483   1.258   2.462  0.2404  0.3478  0.2300
  519SOL    HW2 1848   5.431   1.181   2.485  1.4498 -0.6301 -0.1903
  519SOL    HW3 1849   5.573   1.229   2.469  0.8369  0.1200 -4.7897
  519SOL    MW4 1850   5.488   1.244   2.466  0.4787  0.1887 -0.4877
  520SOL     OW 1851   2.261   6.389   0.272 -0.6010  0.1030 -0.1767
  520SOL    HW2 1852   2.211   6.311   0.298 -1.3292  0.5470 -0.2210
  520SOL    HW3 1853   2.214   6.462   0.313  1.4081  0.3638  1.8938
  520SOL    MW4 1854   2.248   6.388   0.281 -0.4320  0.1960  0.0906
  521SOL     OW 1855   5.219   5.807   3.360  0.6402 -0.1884  0.4475
  521SOL    HW2 1856   5.288   5.833   3.421  0.0102 -0.5039  1.3173
  521SOL    HW3 1857   5.140   5.851   3.393  0.8528  2.4234 -2.0619
  521SOL    MW4 1858   5.217   5.817   3.373  0.5851  0.1146  0.2312
  522SOL     OW 1859   1.129   1.417   3.169 -0.4668 -0.2312 -0.3000
  522SOL    HW2 1860   1.101   1.368   3.247 -0.4251 -0.1347 -0.2241
  522SOL    HW3 1861   1.115   1.356   3.096 -0.3542 -0.3800 -0.1982
  522SOL    MW4 1862   1.123   1.402   3.170 -0.4465 -0.2381 -0.2766
  523SOL     OW 1863   0.133   2.625   2.047  0.0681 -0.2578 -0.1702
  523SOL    HW2 1864   0.175   2.601   2.130 -0.7193  0.4578  0.4680
  523SOL    HW3 1865   0.205   2.637   1.986  0.7027 -0.3285  0.5421
  523SOL    MW4 1866   0.148   2.624   2.050  0.0480 -0.1727  0.0080
  524SOL     OW 1867   0.998   3.217   2.261 -0.1706  0.2151  0.1055
  524SOL    HW2 1868   0.908   3.201   2.233  0.3398 -1.0317 -1.0015
  524SOL    HW3 1869   1.049   3.153   2.211  1.2161  0.1971  1.4703
  524SOL    MW4 1870   0.993   3.206   2.250  0.0797  0.0482  0.1395
  525SOL     OW 1871   1.107   2.752   5.605 -0.0048  0.6934  0.0929
  525SOL    HW2 1872   1.091   2.812   5.532  0.1680  0.0643 -0.4717
  525SOL    HW3 1873   1.051   2.784   5.675 -3.3660 -1.0070 -1.5745
  525SOL    MW4 1874   1.098   2.764   5.605 -0.4255  0.3861 -0.2016
  526SOL     OW 1875   4.279   1.241   4.630 -0.1135 -0.4228 -0.3597
  526SOL    HW2 1876   4.201   1.277   4.672 -0.8305 -1.0679 -1.1025
  526SOL    HW3 1877   4.348   1.306   4.647 -1.3484  1.3245 -1.6662
  526SOL    MW4 1878   4.278   1.255   4.638 -0.3710 -0.2774 -0.6300
  527SOL     OW 1879   0.257   5.541   3.087  0.0057 -0.6614 -0.1660
  527SOL    HW2 1880   0.219   5.610   3.142  0.4013  0.3672 -1.1560
  527SOL    HW3 1881   0.264   5.581   3.001  0.1712 -1.9831 -0.7798
  527SOL    MW4 1882   0.253   5.556   3.083  0.0798 -0.7001 -0.3776
  528SOL     OW 1883   3.822   4.298   3.915 -0.1146 -1.0608 -0.6878
  528SOL    HW2 1884   3.729   4.318   3.898 -0.5021 -1.5192  0.7304
  528SOL    HW3 1885   3.850   4.367   3.976 -0.1228 -2.0781  0.4959
  528SOL    MW4 1886   3.813   4.310   3.921 -0.1668 -1.2555 -0.3445
  529SOL     OW 1887   4.074   0.921   4.858 -0.9283  0.5717 -0.1141
  529SOL    HW2 1888   4.011   0.989   4.882 -0.1254  0.8472  1.3023
  529SOL    HW3 1889   4.144   0.969   4.813 -1.9296  0.1927 -2.2377
  529SOL    MW4 1890   4.075   0.937   4.855 -0.9545  0.5580 -0.2074
  530SOL     OW 1891   1.117   2.935   3.455  0.1082 -0.2726  0.5342
  530SOL    HW2 1892   1.052   2.997   3.421  0.4824 -0.6788 -1.0425
  530SOL    HW3 1893   1.198   2.958   3.409  0.0717 -2.3988 -0.7338
  530SOL    MW4 1894   1.119   2.946   3.444  0.1527 -0.6067  0.1589
  531SOL     OW 1895   0.103   0.096   4.979  0.3801 -0.2326  0.0096
  531SOL    HW2 1896   0.152   0.125   4.902  0.6833  0.1879  0.3533
  531SOL    HW3 1897   0.028   0.048   4.944  0.6305 -0.2272 -0.5391
  531SOL    MW4 1898   0.099   0.093   4.964  0.4532 -0.1764 -0.0175
  532SOL     OW 1899   0.834   1.845   0.422 -0.5380 -0.0103 -0.2144
  532SOL    HW2 1900   0.794   1.760   0.441 -1.1254  0.0486 -1.1365
  532SOL    HW3 1901   0.797   1.904   0.488 -1.9099  0.0179 -0.9790
  532SOL    MW4 1902   0.824   1.842   0.433 -0.7965  0.0012 -0.4370
  533SOL     OW 1903   1.110   3.665   0.503 -0.0483 -0.1938  0.3299
  533SOL    HW2 1904   1.043   3.605   0.470 -1.6718  1.2745  0.8189
  533SOL    HW3 1905   1.073   3.752   0.489  2.2969  0.7596 -0.4896
  533SOL    MW4 1906   1.097   3.669   0.497  0.0469  0.1258  0.2863
  534SOL     OW 1907   1.070   1.010   5.153  0.0258  0.2991 -0.1229
  534SOL    HW2 1908   1.161   0.984   5.166  0.5796  2.4467  0.7025
  534SOL    HW3 1909   1.033   1.009   5.242 -0.8054 -0.6046 -0.4573
  534SOL    MW4 1910   1.077   1.006   5.167 -0.0108  0.4632 -0.0581
  535SOL     OW 1911   3.859   2.111   1.692 -0.1386 -0.3914 -0.0719
  535SOL    HW2 1912   3.843   2.114   1.786 -0.3468  2.8962 -0.1062
  535SOL    HW3 1913   3.793   2.051   1.658 -1.0290 -0.4826  1.7164
  535SOL    MW4 1914   3.848   2.104   1.700 -0.2835  0.0303  0.1595
  536SOL     OW 1915   5.371   5.076   2.355 -0.4675  0.0343 -0.5927
  536SOL    HW2 1916   5.380   5.160   2.401 -1.1564  0.3677 -1.0419
  536SOL    HW3 1917   5.286   5.082   2.312 -0.6665 -1.0290 -0.3762
  536SOL    MW4 1918   5.361   5.088   2.355 -0.5846 -0.0620 -0.6234
  537SOL     OW 1919   4.334   3.795   0.503 -0.0857 -0.2670  0.3405
  537SOL    HW2 1920   4.362   3.870   0.451 -0.3709  1.0593  2.0290
  537SOL    HW3 1921   4.392   3.724   0.476  0.8637  0.8163 -0.5534
  537SOL    MW4 1922   4.345   3.796   0.493  0.0019  0.0509  0.4453
  538SOL     OW 1923   1.702   4.608   4.909 -0.0429  0.2114 -0.0046
  538SOL    HW2 1924   1.622   4.650   4.879 -1.2842 -1.5094  0.6958
  538SOL    HW3 1925   1.740   4.570   4.830  1.0137  2.4022 -0.6174
  538SOL    MW4 1926   1.696   4.608   4.895 -0.0672  0.2734  0.0069
  539SOL     OW 1927   1.017   3.013   3.120  0.2412  0.0707  0.6011
  539SOL    HW2 1928   0.947   2.949   3.131  0.4916 -0.9633 -2.5826
  539SOL    HW3 1929   1.095   2.970   3.155 -0.0709 -0.2496  0.9091
  539SOL    MW4 1930   1.018   2.999   3.126  0.2331 -0.1080  0.2217
  540SOL     OW 1931   3.460   0.236   2.677 -0.2172  0.0889 -0.2951
  540SOL    HW2 1932   3.515   0.250   2.754  0.9322  2.3702 -1.4243
  540SOL    HW3 1933   3.377   0.280   2.698 -0.2518 -0.1129 -0.0067
  540SOL    MW4 1934   3.456   0.244   2.690 -0.0701  0.3633 -0.4060
  541SOL     OW 1935   0.398   4.336   1.691 -0.4269  0.3238 -0.1072
  541SOL    HW2 1936   0.420   4.393   1.765  0.8287  0.9257 -0.9224
  541SOL    HW3 1937   0.308   4.360   1.669 -0.9085 -0.0253  1.3558
  541SOL    MW4 1938   0.389   4.347   1.698 -0.3248  0.3572 -0.0217
  542SOL     OW 1939   6.413   5.693   0.968  1.0821 -0.0264  0.2272
  542SOL    HW2 1940   6.335   5.657   0.926  0.0516  1.8347  0.4260
  542SOL    HW3 1941   6.426   5.638   1.045 -0.9936  0.4997  1.0256
  542SOL    MW4 1942   6.405   5.681   0.973  0.6723  0.2886  0.3588
  543SOL     OW 1943   6.328   2.399   3.993  0.8431 -0.0091  0.2447
  543SOL    HW2 1944   6.245   2.443   3.977  1.2587  1.0140  0.8419
  543SOL    HW3 1945   6.348   2.417   4.085  0.7570 -1.9222  0.6855
  543SOL    MW4 1946   6.320   2.407   4.003  0.8866 -0.1265  0.3816
  544SOL     OW 1947   3.292   5.024   6.181 -0.1714  0.5128  0.2157
  544SOL    HW2 1948   3.321   5.078   6.255  0.4915  1.1191 -0.4736
  544SOL    HW3 1949   3.331   4.938   6.198 -1.4638  0.1261  1.4667
  544SOL    MW4 1950   3.301   5.020   6.193 -0.2544  0.5418  0.2898
  545SOL     OW 1951   5.591   2.309   0.881  0.2049 -0.0036 -0.8414
  545SOL    HW2 1952   5.631   2.288   0.797  0.3335 -1.6100 -0.4022
  545SOL    HW3 1953   5.498   2.295   0.868  0.2660 -0.6564 -0.6170
  545SOL    MW4 1954   5.584   2.305   0.868  0.2299 -0.3017 -0.7538
  546SOL     OW 1955   1.400   1.177   3.557  0.0235  0.1490  0.0091
  546SOL    HW2 1956   1.417   1.225   3.477 -0.1032  1.7843  0.9186
  546SOL    HW3 1957   1.477   1.121   3.569  1.2543  1.7726  0.0522
  546SOL    MW4 1958   1.412   1.176   3.548  0.1692  0.5790  0.1348
  547SOL     OW 1959   6.013   2.525   0.738 -0.0351  0.2180  0.1556
  547SOL    HW2 1960   5.999   2.615   0.766  0.2614  0.3890 -0.2286
  547SOL    HW3 1961   6.024   2.531   0.643  0.5137 -0.1509  0.1877
  547SOL    MW4 1962   6.013   2.537   0.729  0.0764  0.1919  0.1091
  548SOL     OW 1963   5.356   4.946   0.506 -0.2507 -0.5568  0.4951
  548SOL    HW2 1964   5.325   5.035   0.516 -1.5478 -0.4544 -2.9732
  548SOL    HW3 1965   5.402   4.927   0.588  0.3585  3.3514  1.2615
  548SOL    MW4 1966   5.358   4.955   0.518 -0.3414 -0.0276  0.1386
  549SOL     OW 1967   1.325   2.781   0.762  0.1286  0.4438  0.1545
  549SOL    HW2 1968   1.398   2.843   0.763 -1.0160  1.8693 -1.1851
  549SOL    HW3 1969   1.367   2.695   0.761  1.7972  0.9885  4.0409
  549SOL    MW4 1970   1.340   2.778   0.762  0.1978  0.7037  0.4905
  550SOL     OW 1971   0.748   3.376   4.628 -0.5551  0.4011 -0.5039
  550SOL    HW2 1972   0.757   3.356   4.721 -1.0909  1.9984 -0.0878
  550SOL    HW3 1973   0.814   3.320   4.585 -0.9935 -1.1037  0.7011
  550SOL    MW4 1974   0.758   3.366   4.634 -0.6837  0.4133 -0.2900
  551SOL     OW 1975   2.720   2.701   2.096 -0.4176  0.0288  0.4800
  551SOL    HW2 1976   2.651   2.693   2.030 -0.7559 -1.6815  0.9689
  551SOL    HW3 1977   2.794   2.740   2.050 -1.5489  1.4789 -0.1781
  551SOL    MW4 1978   2.720   2.705   2.081 -0.6115 -0.0055  0.4577
  552SOL     OW 1979   2.829   6.167   0.072 -0.4023 -0.5346 -0.3953
  552SOL    HW2 1980   2.767   6.209   0.131  0.2007 -1.4976  0.9645
  552SOL    HW3 1981   2.779   6.099   0.027 -0.9603  0.4638 -1.3272
  552SOL    MW4 1982   2.815   6.164   0.074 -0.3964 -0.5299 -0.3388
  553SOL     OW 1983   2.160   3.073   3.433  0.0182  0.6967  0.4394
  553SOL    HW2 1984   2.133   2.992   3.389 -0.2695  1.4464 -0.8144
  553SOL    HW3 1985   2.247   3.054   3.466 -0.4344 -0.4470  1.0402
  553SOL    MW4 1986   2.168   3.060   3.431 -0.0794  0.6447  0.3532
  554SOL     OW 1987   0.555   1.858   0.914 -0.2506  0.2696 -0.6583
  554SOL    HW2 1988   0.495   1.785   0.930  0.6178 -0.8339 -2.1170
  554SOL    HW3 1989   0.515   1.907   0.843  0.5806 -0.5566 -1.7396
  554SOL    MW4 1990   0.542   1.855   0.907 -0.0264  0.0150 -0.9934
  555SOL     OW 1991   2.883   0.428   5.590  0.6221  0.4147  0.2427
  555SOL    HW2 1992   2.890   0.481   5.511 -1.5672 -0.0943 -0.3728
  555SOL    HW3 1993   2.944   0.355   5.576 -0.4545 -0.2164 -1.4869
  555SOL    MW4 1994   2.892   0.425   5.578  0.1912  0.2643 -0.0667
  556SOL     OW 1995   3.645   2.981   5.252  0.0464 -0.2072 -0.2363
  556SOL    HW2 1996   3.711   3.039   5.292 -0.4414  0.7063 -0.7357
  556SOL    HW3 1997   3.597   2.945   5.327 -0.1582  0.6486  0.0510
  556SOL    MW4 1998   3.648   2.984   5.267 -0.0449  0.0262 -0.2643
  557SOL     OW 1999   1.416   3.087   3.848 -0.6165 -0.3468 -0.5081
  557SOL    HW2 2000   1.358   3.011   3.853 -0.1044 -0.6726  1.3490
  557SOL    HW3 2001   1.369   3.156   3.895 -0.4278  0.0279 -0.8638
  557SOL    MW4 2002   1.402   3.087   3.855 -0.5240 -0.3403 -0.3100
  558SOL     OW 2003   6.376   4.573   0.358 -0.2068 -0.2621  0.2223
  558SOL    HW2 2004   6.394   4.515   0.284 -1.8761 -1.1408  0.4466
  558SOL    HW3 2005   6.338   4.515   0.425  0.2183  0.7045  1.3373
  558SOL    MW4 2006   6.373   4.558   0.357 -0.3709 -0.2505  0.3990
  559SOL     OW 2007   5.472   1.105   0.088  0.2529 -0.9321 -0.4159
  559SOL    HW2 2008   5.404   1.129   0.151  1.0647 -0.4530  0.3137
  559SOL    HW3 2009   5.554   1.133   0.130  0.6747  1.8660 -2.7794
  559SOL    MW4 2010   5.474   1.112   0.102  0.4156 -0.4997 -0.6314
  560SOL     OW 2011   0.215   4.124   3.123  0.3554 -0.1682 -0.3234
  560SOL    HW2 2012   0.240   4.034   3.105 -0.8514 -1.0305  1.9205
  560SOL    HW3 2013   0.122   4.128   3.100  0.0372  0.0623  0.9033
  560SOL    MW4 2014   0.206   4.113   3.118  0.1542 -0.2516  0.1345
  561SOL     OW 2015   1.731   6.245   0.262 -0.0797 -0.0807 -0.4598
  561SOL    HW2 2016   1.742   6.329   0.307 -0.2826 -0.1880 -0.2050
  561SOL    HW3 2017   1.724   6.268   0.170 -2.0852  0.3720 -0.2390
  561SOL    MW4 2018   1.731   6.260   0.256 -0.3711 -0.0351 -0.3970
  562SOL     OW 2019   1.670   4.561   3.390  0.0133 -0.2256 -0.3532
  562SOL    HW2 2020   1.621   4.483   3.363 -1.6973  0.8524 -0.4731
  562SOL    HW3 2021   1.619   4.599   3.461 -1.2608  2.7425 -2.6013
  562SOL    MW4 2022   1.657   4.556   3.396 -0.3805  0.3082 -0.6656
  563SOL     OW 2023   2.975   1.306   3.613  0.5185 -0.4485  0.1627
  563SOL    HW2 2024   3.015   1.229   3.653  2.7553  0.6004  0.0797
  563SOL    HW3 2025   2.954   1.278   3.523 -1.5650 -1.8266  0.9969
  563SOL    MW4 2026   2.978   1.292   3.606  0.5387 -0.4920  0.2618
  564SOL     OW 2027   5.988   3.158   0.642  0.0611 -0.1602 -0.1773
  564SOL    HW2 2028   6.017   3.066   0.642 -0.1398 -0.2246  0.0155
  564SOL    HW3 2029   6.006   3.189   0.553  1.7537  0.1327  0.2300
  564SOL    MW4 2030   5.994   3.150   0.630  0.2579 -0.1300 -0.0981
  565SOL     OW 2031   4.395   5.445   3.592 -0.3267 -0.0085 -0.3668
  565SOL    HW2 2032   4.340   5.369   3.609  0.0723 -0.1344  0.3879
  565SOL    HW3 2033   4.452   5.418   3.520  0.7467 -0.9335  0.7804
  565SOL    MW4 2034   4.395   5.432   3.585 -0.1324 -0.1472 -0.1159
  566SOL     OW 2035   3.280   3.106   4.127  0.1666 -0.1980 -0.0485
  566SOL    HW2 2036   3.342   3.125   4.198 -1.3776  0.1401  1.2933
  566SOL    HW3 2037   3.208   3.168   4.142 -1.1819 -1.5606 -0.6268
  566SOL    MW4 2038   3.279   3.117   4.139 -0.2151 -0.3332  0.0523
  567SOL     OW 2039   0.985   3.045   0.515  0.0711  0.0925  0.0353
  567SOL    HW2 2040   0.932   3.026   0.592 -0.5358  0.7221 -0.2133
  567SOL    HW3 2041   1.029   2.962   0.495  0.4638 -0.0103  1.2127
  567SOL    MW4 2042   0.984   3.032   0.523  0.0428  0.1620  0.1578
  568SOL     OW 2043   1.576   0.552   5.777 -0.4247 -0.3834  0.0228
  568SOL    HW2 2044   1.583   0.558   5.682 -0.6067 -0.9630 -0.0303
  568SOL    HW3 2045   1.586   0.642   5.808 -0.8012 -0.1323 -0.5735
  568SOL    MW4 2046   1.578   0.565   5.769 -0.4984 -0.4267 -0.0629
  569SOL     OW 2047   0.889   4.537   6.240 -0.5009  0.3479  0.2309
  569SOL    HW2 2048   0.897   4.593   6.162 -1.4801  0.2959  0.0753
  569SOL    HW3 2049   0.795   4.520   6.247 -1.1995  3.9671  3.9457
  569SOL    MW4 2050   0.878   4.543   6.230 -0.7223  0.8186  0.7005
  570SOL     OW 2051   1.342   0.060   3.398 -0.6161 -0.7411  0.1315
  570SOL    HW2 2052   1.422   0.011   3.418 -0.1386 -0.4640 -1.0034
  570SOL    HW3 2053   1.272  -0.005   3.404 -0.6644 -0.5896  3.2088
  570SOL    MW4 2054   1.344   0.045   3.402 -0.5595 -0.6846  0.3878
  571SOL     OW 2055   1.055   2.294   2.261  0.2336  0.6254  0.7091
  571SOL    HW2 2056   0.972   2.303   2.308 -0.7024 -0.5610 -0.6670
  571SOL    HW3 2057   1.057   2.203   2.232  1.1582  1.1036 -0.8336
  571SOL    MW4 2058   1.044   2.283   2.264  0.2321  0.5319  0.3240
  572SOL     OW 2059   5.539   0.461   5.276 -0.2369 -0.6537 -0.0471
  572SOL    HW2 2060   5.506   0.385   5.229 -1.7187  1.1340 -2.0282
  572SOL    HW3 2061   5.568   0.521   5.208 -1.3441  1.5507  1.3416
  572SOL    MW4 2062   5.539   0.459   5.261 -0.5785 -0.1270 -0.1252
  573SOL     OW 2063   6.394   5.742   2.391  0.8253 -0.5673 -0.3137
  573SOL    HW2 2064   6.378   5.729   2.298  0.6289 -1.3902 -0.1727
  573SOL    HW3 2065   6.313   5.782   2.424  0.1450 -1.9944 -0.1611
  573SOL    MW4 2066   6.381   5.745   2.383  0.7096 -0.8642 -0.2749
  574SOL     OW 2067   2.164   3.576   1.105  0.4200 -0.2142 -0.0613
  574SOL    HW2 2068   2.242   3.631   1.100  1.0844 -1.2238 -2.2574
  574SOL    HW3 2069   2.099   3.622   1.051 -0.3291  0.2936  1.2269
  574SOL    MW4 2070   2.166   3.589   1.097  0.4088 -0.2804 -0.1811
  575SOL     OW 2071   2.414   3.635   3.940  0.4862 -0.0157  0.6414
  575SOL    HW2 2072   2.446   3.626   3.850  1.6967  1.1569  0.9305
  575SOL    HW3 2073   2.379   3.724   3.944 -0.6734 -0.4676  1.0224
  575SOL    MW4 2074   2.413   3.645   3.928  0.4929  0.0794  0.7298
  576SOL     OW 2075   5.695   6.205   5.859 -0.3143  0.3118  0.4556
  576SOL    HW2 2076   5.675   6.137   5.795  2.1640 -0.4109  0.3361
  576SOL    HW3 2077   5.695   6.286   5.808  0.7068 -0.1378 -0.3062
  576SOL    MW4 2078   5.692   6.207   5.844  0.1474  0.1571  0.3393
  577SOL     OW 2079   5.662   1.007   1.385 -0.7156  0.0833  0.6306
  577SOL    HW2 2080   5.716   0.948   1.332  0.0413 -0.4945  1.9889
  577SOL    HW3 2081   5.685   1.095   1.355  1.6913 -0.1018  1.7727
  577SOL    MW4 2082   5.672   1.011   1.374 -0.2982 -0.0174  0.9605
  578SOL     OW 2083   2.423   5.219   1.944 -0.0372 -0.1114 -0.9229
  578SOL    HW2 2084   2.369   5.145   1.973  0.4678 -0.2135 -0.2139
  578SOL    HW3 2085   2.501   5.215   2.000 -0.4444  1.5467 -0.2116
  578SOL    MW4 2086   2.426   5.208   1.955 -0.0243  0.0939 -0.7355
  579SOL     OW 2087   0.361   4.505   1.987  0.4310 -0.2850  0.6423
  579SOL    HW2 2088   0.384   4.555   2.065  0.7760  0.3699  0.1308
  579SOL    HW3 2089   0.305   4.565   1.936  1.0001 -0.3466 -0.0653
  579SOL    MW4 2090   0.356   4.520   1.990  0.5516 -0.2068  0.4814
  580SOL     OW 2091   0.488   3.160   3.470 -0.7201  0.2447 -0.3090
  580SOL    HW2 2092   0.534   3.243   3.467 -1.8763  0.9158 -0.0679
  580SOL    HW3 2093   0.546   3.099   3.425  1.6089  0.4091  2.1927
  580SOL    MW4 2094   0.502   3.163   3.464 -0.5653  0.3549  0.0529
  581SOL     OW 2095   3.937   1.492   3.195 -0.1710  0.3810  0.3897
  581SOL    HW2 2096   3.970   1.494   3.106 -1.0923 -1.0175 -0.0073
  581SOL    HW3 2097   4.014   1.474   3.249  0.1260 -0.3638 -0.2718
  581SOL    MW4 2098   3.951   1.490   3.191 -0.2533  0.0982  0.2500
  582SOL     OW 2099   2.737   3.773   5.045 -0.1020 -0.1364  0.1714
  582SOL    HW2 2100   2.733   3.726   4.961 -0.6170  1.3129 -0.6651
  582SOL    HW3 2101   2.809   3.835   5.034  0.1805 -0.3030  1.0238
  582SOL    MW4 2102   2.746   3.775   5.032 -0.1327  0.0328  0.1735
  583SOL     OW 2103   3.897   1.029   5.026  0.3266  0.0129 -0.3083
  583SOL    HW2 2104   3.837   1.103   5.031  0.8161  0.3849  0.1676
  583SOL    HW3 2105   3.845   0.954   5.056 -0.0859  0.2142 -0.5193
  583SOL    MW4 2106   3.882   1.029   5.031  0.3368  0.0885 -0.2733
  584SOL     OW 2107   6.317   5.389   2.213  0.4536  0.9009 -0.6738
  584SOL    HW2 2108   6.276   5.441   2.282  1.3184  2.0966 -1.0201
  584SOL    HW3 2109   6.249   5.378   2.147 -0.0084  0.8212 -0.1833
  584SOL    MW4 2110   6.303   5.394   2.213  0.5067  1.0481 -0.6548
  585SOL     OW 2111   3.675   5.236   1.051 -0.1579  0.8507  0.1515
  585SOL    HW2 2112   3.666   5.323   1.091  0.4798  0.8439  0.3141
  585SOL    HW3 2113   3.588   5.218   1.016 -0.7992  0.7878  1.6761
  585SOL    MW4 2114   3.662   5.245   1.052 -0.1584  0.8415  0.3741
  586SOL     OW 2115   1.276   4.892   1.282  0.4656 -0.0411  0.5148
  586SOL    HW2 2116   1.261   4.841   1.361 -1.7445  0.6409  0.6040
  586SOL    HW3 2117   1.346   4.845   1.236 -0.0613 -1.9857  1.5763
  586SOL    MW4 2118   1.283   4.879   1.286  0.1045 -0.2077  0.6666
  587SOL     OW 2119   2.923   2.920   1.947 -0.3941  0.0921 -0.3201
  587SOL    HW2 2120   3.016   2.896   1.954 -0.6252 -0.8661 -0.3854
  587SOL    HW3 2121   2.924   3.008   1.908  0.4652 -0.1193 -0.8069
  587SOL    MW4 2122   2.936   2.929   1.943 -0.3113 -0.0623 -0.3929
  588SOL     OW 2123   1.966   4.298   2.063  0.5592 -0.5776  0.1175
  588SOL    HW2 2124   1.992   4.208   2.043  1.9636 -0.7716  2.4464
  588SOL    HW3 2125   2.038   4.352   2.032 -0.0714 -0.2617 -0.8502
  588SOL    MW4 2126   1.979   4.293   2.057  0.6613 -0.5615  0.2971
  589SOL     OW 2127   2.447   1.353   0.642 -0.2761  0.0819  0.3951
  589SOL    HW2 2128   2.428   1.402   0.562  1.1894 -1.4280 -0.9454
  589SOL    HW3 2129   2.371   1.369   0.698 -1.0988  1.6157 -1.0659
  589SOL    MW4 2130   2.434   1.362   0.639 -0.1913  0.0850  0.0255
  590SOL     OW 2131   0.396   1.356   6.176 -0.4007  0.1474  0.1538
  590SOL    HW2 2132   0.334   1.398   6.236 -1.5639 -1.0187 -0.2063
  590SOL    HW3 2133   0.480   1.397   6.197 -1.2553  1.6885  0.7239
  590SOL    MW4 2134   0.399   1.367   6.187 -0.6669  0.1969  0.1815
  591SOL     OW 2135   1.236   5.434   2.897 -0.5375 -0.3470  0.0849
  591SOL    HW2 2136   1.330   5.438   2.879 -0.1965  0.2094  1.7749
  591SOL    HW3 2137   1.194   5.447   2.812  0.8982  1.3813 -0.4117
  591SOL    MW4 2138   1.243   5.436   2.884 -0.3031 -0.0456  0.2423
  592SOL     OW 2139   1.398   1.858   3.596 -0.9121  0.3286  0.6996
  592SOL    HW2 2140   1.432   1.887   3.680 -1.2356  2.7266  0.0896
  592SOL    HW3 2141   1.303   1.872   3.602 -1.2317 -1.6464  0.7004
  592SOL    MW4 2142   1.390   1.864   3.608 -0.9969  0.3844  0.6192
  593SOL     OW 2143   3.015   3.912   5.520  0.3341  0.4938 -0.7514
  593SOL    HW2 2144   2.928   3.880   5.542  1.0172 -0.2970  1.0110
  593SOL    HW3 2145   3.033   3.980   5.585  1.1269  0.4765 -0.9419
  593SOL    MW4 2146   3.006   3.917   5.532  0.5289  0.3871 -0.5440
  594SOL     OW 2147   1.840   6.261   3.720 -0.0643  0.4896  0.1288
  594SOL    HW2 2148   1.769   6.284   3.780  0.3779  0.8849  0.5110
  594SOL    HW3 2149   1.885   6.344   3.704 -1.2254  0.7534 -2.1699
  594SOL    MW4 2150   1.837   6.275   3.726 -0.1591  0.5766 -0.1240
  595SOL     OW 2151   0.080   3.007   3.627 -0.1579  0.1246  0.4593
  595SOL    HW2 2152   0.112   2.966   3.707  1.2539 -0.2406 -0.2622
  595SOL    HW3 2153   0.097   3.101   3.641  4.3812 -0.2337 -1.1030
  595SOL    MW4 2154   0.086   3.014   3.640  0.6272  0.0291  0.1580
  596SOL     OW 2155   4.420   2.845   1.354 -0.1702 -0.4675  0.5519
  596SOL    HW2 2156   4.455   2.761   1.327 -0.3858  0.1179 -1.7395
  596SOL    HW3 2157   4.418   2.898   1.274  1.3745  2.2541  2.1486
  596SOL    MW4 2158   4.424   2.841   1.340  0.0052 -0.0312  0.4603
  597SOL     OW 2159   1.187   0.090   1.257  0.1057 -0.2140  0.2267
  597SOL    HW2 2160   1.186   0.022   1.189  0.5945  1.0201 -1.0638
  597SOL    HW3 2161   1.197   0.172   1.209  1.7237  0.6204  1.8523
  597SOL    MW4 2162   1.188   0.092   1.242  0.3837  0.0589  0.2709
  598SOL     OW 2163   2.671   1.411   0.847  0.2361 -0.1426  0.6971
  598SOL    HW2 2164   2.684   1.495   0.893  2.0400 -0.5025  0.9346
  598SOL    HW3 2165   2.609   1.431   0.778 -2.4143  0.4855  3.0843
  598SOL    MW4 2166   2.665   1.425   0.844  0.1244 -0.1072  1.0434
  599SOL     OW 2167   0.522   4.525   0.734  1.0511 -0.6873  0.6720
  599SOL    HW2 2168   0.570   4.598   0.695  0.1089 -0.4386 -0.0508
  599SOL    HW3 2169   0.577   4.448   0.717  0.5158 -0.6519 -1.5399
  599SOL    MW4 2170   0.536   4.524   0.727  0.8561 -0.6498  0.2848
  600SOL     OW 2171   4.205   2.461   2.255  0.1525 -0.0616 -0.0685
  600SOL    HW2 2172   4.269   2.509   2.307  0.0908 -1.2170  1.1155
  600SOL    HW3 2173   4.225   2.486   2.165  1.9809 -0.0248  0.2975
  600SOL    MW4 2174   4.216   2.470   2.250  0.3856 -0.2092  0.1360
  601SOL     OW 2175   3.868   0.427   0.164  0.0149  0.7685 -0.3277
  601SOL    HW2 2176   3.828   0.340   0.169  0.1841  0.7072  0.0142
  601SOL    HW3 2177   3.962   0.410   0.162  0.1397  0.6903 -4.9474
  601SOL    MW4 2178   3.875   0.413   0.165  0.0537  0.7501 -0.8921
  602SOL     OW 2179   0.170   2.461   1.600  0.4699 -0.6099  0.3162
  602SOL    HW2 2180   0.148   2.483   1.510  0.3266 -0.7168  0.3252
  602SOL    HW3 2181   0.101   2.401   1.628 -0.3496  0.6029  1.0011
  602SOL    MW4 2182   0.158   2.456   1.592  0.3429 -0.4640  0.4078
  603SOL     OW 2183   2.622   0.251   0.857  0.1669 -0.3116 -0.0723
  603SOL    HW2 2184   2.536   0.248   0.899  0.6360 -0.2906  0.9186
  603SOL    HW3 2185   2.650   0.342   0.868  0.5672 -0.4595  0.1287
  603SOL    MW4 2186   2.614   0.263   0.864  0.2816 -0.3283  0.0850
  604SOL     OW 2187   4.896   3.803   5.024 -0.4647 -0.0895  0.1857
  604SOL    HW2 2188   4.967   3.866   5.011 -1.0636  0.3300 -1.4120
  604SOL    HW3 2189   4.933   3.720   4.996  0.1311 -0.3609  1.6964
  604SOL    MW4 2190   4.910   3.801   5.018 -0.4651 -0.0700  0.1742
  605SOL     OW 2191   2.032   4.104   4.890 -0.0724 -0.2188  0.4016
  605SOL    HW2 2192   2.068   4.178   4.939  0.4858 -1.2696  1.6456
  605SOL    HW3 2193   1.943   4.094   4.924 -0.8791  1.1180 -1.2249
  605SOL    MW4 2194   2.025   4.112   4.901 -0.1052 -0.1811  0.3511
  606SOL     OW 2195   0.906   4.814   4.206  0.5268  0.4749 -0.1630
  606SOL    HW2 2196   0.931   4.906   4.201 -0.1739  0.6305 -3.5536
  606SOL    HW3 2197   0.987   4.765   4.195  0.5919  0.7876 -1.1788
  606SOL    MW4 2198   0.920   4.820   4.204  0.4429  0.5367 -0.7444
  607SOL     OW 2199   1.860   4.616   3.655 -0.0124 -0.0377  0.0670
  607SOL    HW2 2200   1.876   4.607   3.561  1.4701 -0.0788  0.2947
  607SOL    HW3 2201   1.781   4.564   3.671  0.2449 -0.7909 -1.0041
  607SOL    MW4 2202   1.852   4.608   3.644  0.2171 -0.1425 -0.0442
  608SOL     OW 2203   4.809   5.227   3.648 -0.0656  0.2881  0.1423
  608SOL    HW2 2204   4.717   5.239   3.675  0.0924 -1.1876  1.4357
  608SOL    HW3 2205   4.858   5.285   3.705 -0.0549 -0.1426  0.5745
  608SOL    MW4 2206   4.803   5.236   3.659 -0.0433  0.0366  0.3699
  609SOL     OW 2207   5.351   2.175   0.906  0.2539  0.0883 -0.0179
  609SOL    HW2 2208   5.402   2.095   0.892  2.4638  1.3966 -0.0087
  609SOL    HW3 2209   5.289   2.178   0.833  1.6193 -0.5520 -1.2484
  609SOL    MW4 2210   5.350   2.165   0.895  0.7256  0.1764 -0.1790
  610SOL     OW 2211   2.239   3.746   4.274 -0.3609 -0.1365  0.5530
  610SOL    HW2 2212   2.322   3.786   4.301 -1.4452  1.9480  1.0588
  610SOL    HW3 2213   2.249   3.653   4.294  1.5678  0.1831  1.2962
  610SOL    MW4 2214   2.251   3.739   4.281 -0.2495  0.1807  0.7178
  611SOL     OW 2215   5.948   0.826   5.013 -0.1005 -0.1983  0.1072
  611SOL    HW2 2216   5.947   0.738   4.976 -1.7641 -0.6117  1.0233
  611SOL    HW3 2217   5.941   0.812   5.108 -1.1427  0.9232  0.2179
  611SOL    MW4 2218   5.947   0.813   5.021 -0.4575 -0.1049  0.2427
  612SOL     OW 2219   0.848   2.386   2.991 -0.4404  0.6122 -1.0196
  612SOL    HW2 2220   0.882   2.475   3.002 -1.2787  0.8405 -0.1591
  612SOL    HW3 2221   0.814   2.385   2.902  1.2698  0.5421 -1.7218
  612SOL    MW4 2222   0.848   2.398   2.981 -0.3253  0.6331 -0.9987
  613SOL     OW 2223   3.420   5.762   3.450  0.0160  0.8030  0.0027
  613SOL    HW2 2224   3.510   5.751   3.482  0.3129 -0.4830 -1.1984
  613SOL    HW3 2225   3.370   5.696   3.497 -0.0476  0.6472 -0.2838
  613SOL    MW4 2226   3.426   5.752   3.461  0.0467  0.6128 -0.1936
  614SOL     OW 2227   1.798   2.399   5.032 -0.1533 -0.1552 -0.3120
  614SOL    HW2 2228   1.775   2.306   5.043  1.4137 -0.3701  1.8838
  614SOL    HW3 2229   1.828   2.405   4.941 -1.6041 -1.4671 -0.9231
  614SOL    MW4 2230   1.799   2.387   5.021 -0.1380 -0.3567 -0.1029
  615SOL     OW 2231   6.324   2.762   3.383  0.6087  0.0763  0.2711
  615SOL    HW2 2232   6.414   2.732   3.376  0.6794 -0.0978  1.6925
  615SOL    HW3 2233   6.330   2.851   3.419  0.1991 -0.4662  1.7811
  615SOL    MW4 2234   6.337   2.770   3.387  0.5640 -0.0182  0.6579
  616SOL     OW 2235   1.153   3.053   2.109 -0.1310  0.3519  0.2383
  616SOL    HW2 2236   1.238   3.017   2.135  0.7686  1.5568 -0.9157
  616SOL    HW3 2237   1.158   3.059   2.014  0.0936  4.0966  0.3187
  616SOL    MW4 2238   1.165   3.049   2.100  0.0173  1.0050  0.0967
  617SOL     OW 2239   1.263   4.545   2.533  0.5992  0.2374  0.0344
  617SOL    HW2 2240   1.310   4.466   2.507 -0.0646 -0.2487  0.2818
  617SOL    HW3 2241   1.315   4.582   2.605  0.9300  0.0464 -0.1051
  617SOL    MW4 2242   1.276   4.539   2.539  0.5553  0.1480  0.0487
  618SOL     OW 2243   6.424   0.799   3.768 -0.2009  0.0842  0.1704
  618SOL    HW2 2244   6.423   0.894   3.753 -1.7278  0.4115  1.9546
  618SOL    HW3 2245   6.455   0.790   3.858  2.8780 -1.3674 -0.8786
  618SOL    MW4 2246   6.428   0.810   3.778  0.0039 -0.0641  0.2674
  619SOL     OW 2247   0.799   2.373   2.354  0.1610  0.9290  0.3334
  619SOL    HW2 2248   0.729   2.307   2.349  2.0435 -1.2826  1.1515
  619SOL    HW3 2249   0.767   2.437   2.417 -1.2061  0.0824  0.5533
  619SOL    MW4 2250   0.785   2.372   2.362  0.2290  0.5255  0.4703
  620SOL     OW 2251   0.556   0.580   5.584 -0.4821 -0.2318  0.0099
  620SOL    HW2 2252   0.521   0.500   5.621 -0.9456 -0.0936 -0.1148
  620SOL    HW3 2253   0.500   0.649   5.619 -0.4710 -0.0280 -0.3693
  620SOL    MW4 2254   0.544   0.579   5.593 -0.5418 -0.1866 -0.0566
  621SOL     OW 2255   1.978   0.386   3.955  0.0190  0.6358 -0.0884
  621SOL    HW2 2256   1.930   0.462   3.921  1.3158  0.9089 -1.4173
  621SOL    HW3 2257   1.926   0.311   3.929  0.9305  0.8366 -2.8155
  621SOL    MW4 2258   1.965   0.386   3.947  0.3104  0.6984 -0.6235
  622SOL     OW 2259   2.114   4.534   5.824 -0.8233  0.1958 -0.2017
  622SOL    HW2 2260   2.092   4.560   5.735  0.3472  0.6902 -0.3654
  622SOL    HW3 2261   2.122   4.616   5.872  0.6855  0.0648 -0.1811
  622SOL    MW4 2262   2.112   4.548   5.819 -0.4698  0.2437 -0.2206
  623SOL     OW 2263   2.410   3.019   3.589 -0.9459  0.2458  0.6824
  623SOL    HW2 2264   2.416   3.058   3.676  0.6336 -0.0983  0.7711
  623SOL    HW3 2265   2.492   2.970   3.580 -1.1790  0.1001 -0.9094
  623SOL    MW4 2266   2.422   3.018   3.600 -0.7682  0.1811  0.4841
  624SOL     OW 2267   1.828   1.485   0.466  0.1579  0.3649 -0.1313
  624SOL    HW2 2268   1.861   1.429   0.396  0.3035  0.2691  0.0156
  624SOL    HW3 2269   1.745   1.519   0.431  0.6835  1.0691 -0.7380
  624SOL    MW4 2270   1.821   1.482   0.452  0.2464  0.4452 -0.1920
  625SOL     OW 2271   6.387   2.063   5.544 -0.0742  0.4400  0.2645
  625SOL    HW2 2272   6.358   2.015   5.467 -0.6349  1.2013 -0.0035
  625SOL    HW3 2273   6.308   2.071   5.598 -0.0357  1.2480  0.2054
  625SOL    MW4 2274   6.373   2.058   5.541 -0.1431  0.6471  0.2214
  626SOL     OW 2275   4.044   4.972   3.110  0.3387  0.1270 -0.0697
  626SOL    HW2 2276   4.137   4.947   3.107 -0.0717 -1.5047  0.1641
  626SOL    HW3 2277   4.022   4.972   3.203  0.5828  2.5044  0.0398
  626SOL    MW4 2278   4.054   4.969   3.122  0.3167  0.2254 -0.0244
  627SOL     OW 2279   0.929   3.201   1.212  0.6465  0.1965 -0.7375
  627SOL    HW2 2280   0.867   3.177   1.282 -0.3133  0.3033 -1.5197
  627SOL    HW3 2281   0.886   3.274   1.167  1.7828  0.8776 -0.7400
  627SOL    MW4 2282   0.915   3.207   1.216  0.6698  0.3004 -0.8411
  628SOL     OW 2283   1.631   4.949   6.184  0.9339 -0.4991 -0.3240
  628SOL    HW2 2284   1.645   4.856   6.169 -1.1347 -0.8061 -0.7367
  628SOL    HW3 2285   1.704   4.977   6.239  2.8340 -1.8255 -2.0749
  628SOL    MW4 2286   1.642   4.941   6.189  0.9117 -0.7146 -0.6095
  629SOL     OW 2287   5.475   3.366   4.752 -0.3718 -0.4101 -0.0852
  629SOL    HW2 2288   5.560   3.400   4.724 -0.2866 -0.4700  0.1027
  629SOL    HW3 2289   5.442   3.431   4.814 -0.7701 -0.0410 -0.6725
  629SOL    MW4 2290   5.482   3.379   4.757 -0.4131 -0.3693 -0.1379
  630SOL     OW 2291   0.202   0.145   3.038  0.2720 -0.1802  0.0412
  630SOL    HW2 2292   0.266   0.110   3.100  1.2190  1.6705  0.1738
  630SOL    HW3 2293   0.210   0.240   3.046 -2.2599  0.1231 -0.2150
  630SOL    MW4 2294   0.211   0.153   3.047  0.0629  0.1040  0.0249
  631SOL     OW 2295   3.862   2.161   1.969  0.4157  0.4116  0.0742
  631SOL    HW2 2296   3.879   2.246   2.009  2.6169  0.7815 -1.4964
  631SOL    HW3 2297   3.776   2.135   2.003 -0.7597  3.6636 -0.1007
  631SOL    MW4 2298   3.853   2.169   1.979  0.5510  0.8895 -0.1561
  632SOL     OW 2299   4.230   5.601   5.445 -0.0726 -0.3815 -0.5056
  632SOL    HW2 2300   4.242   5.513   5.480 -2.6037 -1.0474 -1.1259
  632SOL    HW3 2301   4.140   5.624   5.470 -0.2667  1.0692 -2.3619
  632SOL    MW4 2302   4.220   5.593   5.453 -0.4322 -0.2779 -0.8324
  633SOL     OW 2303   1.531   3.528   0.825 -0.2893  0.0351  0.2689
  633SOL    HW2 2304   1.445   3.511   0.786 -0.2607 -0.6621  0.5078
  633SOL    HW3 2305   1.549   3.619   0.802 -0.8018 -0.0051 -0.3376
  633SOL    MW4 2306   1.522   3.538   0.817 -0.3531 -0.0622  0.2204
  634SOL     OW 2307   3.661   6.070   4.313 -0.1766 -0.4734  0.3345
  634SOL    HW2 2308   3.753   6.089   4.332 -0.2049  0.2448 -0.2499
  634SOL    HW3 2309   3.664   5.996   4.252 -0.0175 -0.8761  0.8122
  634SOL    MW4 2310   3.674   6.063   4.308 -0.1593 -0.4317  0.3205
  635SOL     OW 2311   5.996   2.548   3.411 -0.0972 -0.1313 -0.2248
  635SOL    HW2 2312   5.967   2.491   3.482  1.2494 -1.7957 -0.9369
  635SOL    HW3 2313   5.915   2.582   3.373 -0.9295 -1.2422  0.5012
  635SOL    MW4 2314   5.981   2.545   3.415 -0.0293 -0.4974 -0.2230
  636SOL     OW 2315   5.693   3.689   5.549 -0.4636 -0.3121  0.3042
  636SOL    HW2 2316   5.750   3.634   5.495 -0.3149 -0.3877  0.5413
  636SOL    HW3 2317   5.732   3.776   5.544 -0.2331 -0.3969  0.5999
  636SOL    MW4 2318   5.705   3.693   5.541 -0.4136 -0.3332  0.3745
  637SOL     OW 2319   0.031   2.514   5.501  0.5359 -0.0707  0.2615
  637SOL    HW2 2320   0.018   2.542   5.592 -0.4104 -0.0887  0.1380
  637SOL    HW3 2321   0.088   2.582   5.464 -0.3036  0.7728  0.4595
  637SOL    MW4 2322   0.037   2.527   5.508  0.3003  0.0382  0.2713
  638SOL     OW 2323   3.565   2.721   4.193 -0.2445  0.1556 -0.3738
  638SOL    HW2 2324   3.534   2.648   4.140  1.9592 -2.1974  1.3458
  638SOL    HW3 2325   3.532   2.703   4.281  2.2860 -0.1776  0.5914
  638SOL    MW4 2326   3.557   2.709   4.197  0.3801 -0.1988 -0.0196
  639SOL     OW 2327   5.341   4.355   3.992 -0.6007  0.1762 -0.0012
  639SOL    HW2 2328   5.260   4.354   4.042  0.3650 -1.3763  1.6430
  639SOL    HW3 2329   5.334   4.433   3.937 -1.8510  1.9018  2.3976
  639SOL    MW4 2330   5.329   4.365   3.992 -0.6382  0.1991  0.5322
  640SOL     OW 2331   0.301   2.970   5.717 -0.3176  0.7089  0.1043
  640SOL    HW2 2332   0.370   2.930   5.664 -2.1140 -1.7950 -0.5507
  640SOL    HW3 2333   0.333   2.964   5.807  1.3703  2.0263 -0.3550
  640SOL    MW4 2334   0.314   2.964   5.722 -0.3319  0.5523 -0.0427
  641SOL     OW 2335   4.716   5.727   2.962 -0.2188  0.4266  0.1458
  641SOL    HW2 2336   4.675   5.674   3.030 -0.0882 -0.0950 -0.1812
  641SOL    HW3 2337   4.642   5.765   2.914 -0.3196 -0.1432 -0.1546
  641SOL    MW4 2338   4.701   5.725   2.965 -0.2149  0.2826  0.0630
  642SOL     OW 2339   3.162   4.051   3.488 -0.3926 -0.5940 -0.0606
  642SOL    HW2 2340   3.128   4.086   3.570  0.0292  3.4038 -1.3471
  642SOL    HW3 2341   3.242   4.005   3.512 -0.5200  0.0728  1.8185
  642SOL    MW4 2342   3.168   4.050   3.502 -0.3538  0.0215  0.0176
  643SOL     OW 2343   3.617   2.591   3.899  0.2490 -0.0291  0.4269
  643SOL    HW2 2344   3.657   2.664   3.851 -2.7944  2.7745  1.7531
  643SOL    HW3 2345   3.573   2.539   3.832 -0.8718  1.7493 -0.3046
  643SOL    MW4 2346   3.616   2.594   3.884 -0.3004  0.5754  0.5054
  644SOL     OW 2347   3.327   1.474   1.081  0.3896 -0.1924  0.4514
  644SOL    HW2 2348   3.255   1.418   1.050 -0.1462  0.2950  0.7918
  644SOL    HW3 2349   3.386   1.481   1.006 -0.0321 -0.4269  0.0944
  644SOL    MW4 2350   3.325   1.468   1.067  0.2633 -0.1591  0.4492
  645SOL     OW 2351   3.061   0.895   0.682  0.1570 -0.4297 -0.7243
  645SOL    HW2 2352   3.121   0.899   0.756 -1.0730  0.4634  0.2666
  645SOL    HW3 2353   3.063   0.803   0.656  0.4709 -0.8135  0.5483
  645SOL    MW4 2354   3.069   0.883   0.688  0.0362 -0.3625 -0.4257
  646SOL     OW 2355   0.536   3.561   4.670  0.0184 -0.6610  0.0535
  646SOL    HW2 2356   0.579   3.639   4.707 -1.2754  0.3854 -0.5672
  646SOL    HW3 2357   0.609   3.501   4.650  1.1815  0.8815 -0.5918
  646SOL    MW4 2358   0.552   3.563   4.672  0.0012 -0.3194 -0.1136
  647SOL     OW 2359   0.889   1.393   2.018 -0.1449  0.2652  0.1177
  647SOL    HW2 2360   0.961   1.393   2.082  1.1604 -0.7059 -1.2731
  647SOL    HW3 2361   0.921   1.447   1.946 -2.5975  3.4547  1.2270
  647SOL    MW4 2362   0.903   1.400   2.017 -0.2963  0.5579  0.0806
  648SOL     OW 2363   0.223   2.951   0.709  0.2656  0.1831 -0.1804
  648SOL    HW2 2364   0.135   2.920   0.731  1.0614 -2.2387 -0.1261
  648SOL    HW3 2365   0.241   2.912   0.623  1.8941 -0.7702  0.5594
  648SOL    MW4 2366   0.214   2.942   0.700  0.5854 -0.2622 -0.0756
  649SOL     OW 2367   2.534   3.064   5.646 -0.5756 -0.1681  0.3625
  649SOL    HW2 2368   2.467   3.072   5.578 -0.5455 -2.3936  0.0120
  649SOL    HW3 2369   2.611   3.033   5.601 -0.0517 -0.0909  1.1750
  649SOL    MW4 2370   2.535   3.061   5.631 -0.5025 -0.4516  0.4234
  650SOL     OW 2371   1.560   0.644   2.541 -0.5955 -0.0751  0.4491
  650SOL    HW2 2372   1.543   0.738   2.546 -0.2025 -0.0025  0.4693
  650SOL    HW3 2373   1.542   0.613   2.630 -2.4122 -0.3252  0.0393
  650SOL    MW4 2374   1.555   0.653   2.554 -0.7834 -0.0985  0.3977
  651SOL     OW 2375   1.876   1.448   1.097 -0.2061  0.4521 -0.2885
  651SOL    HW2 2376   1.966   1.457   1.127 -0.2695 -2.6891  1.2519
  651SOL    HW3 2377   1.869   1.357   1.070 -3.3760  0.0339  1.4580
  651SOL    MW4 2378   1.887   1.437   1.098 -0.6327 -0.0175  0.1452
  652SOL     OW 2379   4.217   0.146   2.842 -0.0968  0.3139  0.3912
  652SOL    HW2 2380   4.201   0.190   2.759  1.5257  0.3057  0.0368
  652SOL    HW3 2381   4.309   0.164   2.861  0.1774 -1.5607  1.0525
  652SOL    MW4 2382   4.227   0.154   2.834  0.1535  0.0655  0.4317
  653SOL     OW 2383   3.795   0.373   3.599 -0.0452 -0.0467  0.5198
  653SOL    HW2 2384   3.746   0.300   3.560  0.9632 -0.0669 -0.7501
  653SOL    HW3 2385   3.779   0.447   3.540  0.7642  0.1641  0.5561
  653SOL    MW4 2386   3.786   0.373   3.586  0.1946 -0.0215  0.3571
  654SOL     OW 2387   4.296   6.216   6.320 -0.2525 -0.2862 -0.1872
  654SOL    HW2 2388   4.208   6.247   6.340 -0.0516  0.1564  0.0182
  654SOL    HW3 2389   4.326   6.271   6.247 -0.1738 -0.4883 -0.3106
  654SOL    MW4 2390   4.289   6.227   6.313 -0.2156 -0.2545 -0.1764
  655SOL     OW 2391   5.946   5.162   5.662 -0.3106  0.8870  0.4031
  655SOL    HW2 2392   5.946   5.070   5.688 -2.8609  0.8063  0.2885
  655SOL    HW3 2393   5.866   5.174   5.612  0.8158  2.7999 -1.1125
  655SOL    MW4 2394   5.936   5.152   5.659 -0.4985  1.1287  0.1880
  656SOL     OW 2395   1.720   0.567   4.170 -0.2083 -0.1373 -0.1001
  656SOL    HW2 2396   1.746   0.612   4.089 -0.1348  1.0263  0.5404
  656SOL    HW3 2397   1.794   0.510   4.190 -0.6647 -1.2094 -1.3899
  656SOL    MW4 2398   1.734   0.566   4.162 -0.2588 -0.1252 -0.1858
  657SOL     OW 2399   3.314   5.744   0.792  0.0875 -0.5354 -0.3416
  657SOL    HW2 2400   3.382   5.695   0.746 -0.1760  0.6106 -2.0412
  657SOL    HW3 2401   3.237   5.736   0.736 -0.8927 -0.8794  1.0014
  657SOL    MW4 2402   3.313   5.736   0.778 -0.0766 -0.4296 -0.3887
  658SOL     OW 2403   5.087   4.955   1.840 -1.3144  0.1882 -0.5719
  658SOL    HW2 2404   5.066   4.879   1.894 -2.1095  0.3410 -0.6557
  658SOL    HW3 2405   5.141   4.920   1.769  0.1674  0.0671  0.5647
  658SOL    MW4 2406   5.092   4.940   1.838 -1.2238  0.1924 -0.4330
  659SOL     OW 2407   2.423   3.294   4.476  0.2931 -0.1310  0.3213
  659SOL    HW2 2408   2.419   3.268   4.384  1.2751  0.7358  0.0199
  659SOL    HW3 2409   2.423   3.211   4.524 -2.0508 -0.5886 -0.3321
  659SOL    MW4 2410   2.422   3.279   4.470  0.1134 -0.0770  0.1953
  660SOL     OW 2411   4.889   5.161   4.335 -0.0941  0.0938  0.1843
  660SOL    HW2 2412   4.903   5.156   4.430  0.7261  2.5531  0.2775
  660SOL    HW3 2413   4.815   5.104   4.319 -2.1491  1.7698  2.7926
  660SOL    MW4 2414   4.881   5.153   4.346 -0.2570  0.6394  0.5408
  661SOL     OW 2415   0.768   3.513   2.581 -0.0116  0.6096 -0.2411
  661SOL    HW2 2416   0.782   3.493   2.489  1.9011 -0.2301  0.1954
  661SOL    HW3 2417   0.796   3.435   2.628 -0.1912  1.3150  1.1052
  661SOL    MW4 2418   0.773   3.500   2.575  0.2170  0.5919 -0.0059
  662SOL     OW 2419   5.896   5.377   1.568  0.2976 -0.1680 -0.0744
  662SOL    HW2 2420   5.840   5.432   1.624  1.2342 -0.3993  1.1351
  662SOL    HW3 2421   5.872   5.287   1.592  1.3182 -0.2714  0.6192
  662SOL    MW4 2422   5.885   5.372   1.579  0.5558 -0.2122  0.1767
  663SOL     OW 2423   3.799   1.323   0.898  0.1058 -0.0886  0.0941
  663SOL    HW2 2424   3.768   1.346   0.810 -1.0375 -0.4603  0.3756
  663SOL    HW3 2425   3.736   1.257   0.929  1.0810 -0.7213  0.7955
  663SOL    MW4 2426   3.786   1.317   0.891  0.0836 -0.2211  0.2238
  664SOL     OW 2427   3.624   2.062   2.862 -0.1907 -0.1188  0.2153
  664SOL    HW2 2428   3.652   2.146   2.827 -1.5355 -0.0206 -0.6882
  664SOL    HW3 2429   3.696   2.035   2.919  0.5753  1.2939 -0.0345
  664SOL    MW4 2430   3.637   2.069   2.865 -0.2671  0.0806  0.0632
  665SOL     OW 2431   4.654   2.841   5.253 -0.5431 -0.3509 -0.0671
  665SOL    HW2 2432   4.571   2.871   5.290 -0.3918  1.4853 -1.1066
  665SOL    HW3 2433   4.667   2.895   5.174  1.7299 -0.4278  0.1699
  665SOL    MW4 2434   4.645   2.852   5.247 -0.2233 -0.1188 -0.1730
  666SOL     OW 2435   3.607   0.081   6.264  0.5252  0.2879  0.2800
  666SOL    HW2 2436   3.573  -0.008   6.274  1.8117 -0.1126  1.3747
  666SOL    HW3 2437   3.651   0.081   6.179 -1.2922  0.5314 -0.7031
  666SOL    MW4 2438   3.608   0.069   6.254  0.4552  0.2672  0.2948
  667SOL     OW 2439   6.347   3.409   2.880 -0.1005 -0.4108  0.0373
  667SOL    HW2 2440   6.345   3.426   2.786 -3.2801  0.5748  0.1653
  667SOL    HW3 2441   6.421   3.461   2.912 -1.2322  2.3587 -1.4593
  667SOL    MW4 2442   6.357   3.418   2.872 -0.6693  0.0846 -0.1432
  668SOL     OW 2443   5.926   0.266   5.609  0.0969 -0.4884 -0.1496
  668SOL    HW2 2444   5.994   0.325   5.576 -0.3665  0.0442 -0.1653
  668SOL    HW3 2445   5.903   0.212   5.533  0.1498 -0.3318 -0.2785
  668SOL    MW4 2446   5.932   0.267   5.595  0.0427 -0.3975 -0.1687
  669SOL     OW 2447   3.850   5.032   0.260 -0.0643 -0.0608 -0.0822
  669SOL    HW2 2448   3.889   5.110   0.298 -0.6517  0.1897  0.0150
  669SOL    HW3 2449   3.913   4.962   0.280  1.7407  0.7687 -2.3628
  669SOL    MW4 2450   3.864   5.033   0.268  0.0963  0.0817 -0.3702
  670SOL     OW 2451   1.957   1.035   3.358 -0.4089  0.5660  0.0480
  670SOL    HW2 2452   2.005   1.005   3.435  2.5677  0.2341 -1.7984
  670SOL    HW3 2453   1.976   1.128   3.352  1.4209  0.1437 -1.5475
  670SOL    MW4 2454   1.966   1.043   3.367  0.2252  0.4665 -0.4061
  671SOL     OW 2455   0.797   5.294   6.197  0.2387  0.4041  0.4569
  671SOL    HW2 2456   0.779   5.274   6.105  0.9129 -3.1595  0.9800
  671SOL    HW3 2457   0.711   5.293   6.239  0.1068  0.0062  0.1847
  671SOL    MW4 2458   0.783   5.291   6.191  0.3102 -0.1185  0.4900
  672SOL     OW 2459   6.101   4.519   5.995 -0.3174 -0.0398 -0.0793
  672SOL    HW2 2460   6.176   4.464   6.017  0.8879  0.4445 -2.5109
  672SOL    HW3 2461   6.036   4.459   5.959  0.2740 -0.1262 -1.0476
  672SOL    MW4 2462   6.102   4.504   5.993 -0.0803  0.0127 -0.5279
  673SOL     OW 2463   5.127   4.399   4.140  0.4282  0.0388  0.2474
  673SOL    HW2 2464   5.138   4.325   4.199  2.5693  1.4322  1.7449
  673SOL    HW3 2465   5.162   4.474   4.188 -0.8129  1.8784 -1.5411
  673SOL    MW4 2466   5.133   4.399   4.154  0.5470  0.4654  0.2090
  674SOL     OW 2467   5.928   1.336   0.205  0.3193  0.4748  0.2218
  674SOL    HW2 2468   5.937   1.248   0.242  2.3275  0.1834 -0.8212
  674SOL    HW3 2469   6.018   1.370   0.203 -0.1119  1.6370 -1.5132
  674SOL    MW4 2470   5.941   1.329   0.209  0.5274  0.5897 -0.1447
  675SOL     OW 2471   3.355   5.167   0.453  0.1270 -0.5652 -0.3558
  675SOL    HW2 2472   3.402   5.092   0.490 -0.3617 -1.2471 -1.0728
  675SOL    HW3 2473   3.275   5.174   0.504  1.1624  0.8827  1.1668
  675SOL    MW4 2474   3.351   5.158   0.464  0.1991 -0.4641 -0.2495
  676SOL     OW 2475   2.930   4.877   0.447 -0.3917  0.1724 -0.4521
  676SOL    HW2 2476   2.983   4.805   0.413 -1.4025 -0.9487  0.2545
  676SOL    HW3 2477   2.938   4.947   0.382 -0.7802 -1.2095 -2.0239
  676SOL    MW4 2478   2.938   4.877   0.434 -0.5763 -0.1578 -0.5662
  677SOL     OW 2479   1.750   2.799   4.873  0.1183 -1.0264  0.4196
  677SOL    HW2 2480   1.692   2.794   4.796  1.8367 -0.3452 -0.9859
  677SOL    HW3 2481   1.758   2.893   4.890  1.9638 -0.9913 -0.3841
  677SOL    MW4 2482   1.743   2.811   4.865  0.5885 -0.9319  0.1281
  678SOL     OW 2483   0.006   5.480   1.176  0.1174  0.0738  0.0121
  678SOL    HW2 2484   0.062   5.544   1.218  1.9377 -0.9896 -0.6782
  678SOL    HW3 2485  -0.007   5.412   1.242 -0.1249  0.1838  0.0781
  678SOL    MW4 2486   0.011   5.479   1.190  0.3256 -0.0520 -0.0703
  679SOL     OW 2487   0.229   5.521   3.910  0.7123  0.1690 -0.5310
  679SOL    HW2 2488   0.262   5.602   3.947  1.5085 -0.4109  0.0543
  679SOL    HW3 2489   0.227   5.537   3.815 -0.4023  1.3111 -0.3415
  679SOL    MW4 2490   0.233   5.534   3.902  0.6703  0.2432 -0.4288
  680SOL     OW 2491   2.155   2.357   0.147 -0.4885  0.2731 -0.1742
  680SOL    HW2 2492   2.126   2.322   0.063  0.2972  0.1000 -0.3802
  680SOL    HW3 2493   2.173   2.280   0.201  1.7671  0.2773 -0.8087
  680SOL    MW4 2494   2.154   2.343   0.143 -0.0872  0.2508 -0.2851
  681SOL     OW 2495   2.522   1.474   6.008  0.1105  0.3074 -0.1420
  681SOL    HW2 2496   2.472   1.522   6.075 -0.9114 -0.0550 -0.6308
  681SOL    HW3 2497   2.457   1.452   5.941  0.9608 -0.0638 -0.8574
  681SOL    MW4 2498   2.507   1.478   6.008  0.0878  0.2106 -0.3009
  682SOL     OW 2499   0.005   3.970   5.375  0.3885 -0.0432 -0.1166
  682SOL    HW2 2500  -0.061   4.035   5.399 -0.1609 -0.6685  0.0954
  682SOL    HW3 2501   0.057   3.959   5.454  0.5588  0.2250 -0.1901
  682SOL    MW4 2502   0.003   3.977   5.388  0.3385 -0.0903 -0.0983
  683SOL     OW 2503   3.528   3.970   3.647 -0.1706 -0.6533 -0.1422
  683SOL    HW2 2504   3.502   4.052   3.606 -0.3745 -0.9593 -0.6260
  683SOL    HW3 2505   3.447   3.933   3.682 -0.7016 -2.2367 -2.7581
  683SOL    MW4 2506   3.514   3.976   3.646 -0.2676 -0.9026 -0.5512
  684SOL     OW 2507   5.788   1.925   0.383  0.5888 -0.4857  0.5839
  684SOL    HW2 2508   5.822   2.002   0.338  0.4089 -0.1859  0.9611
  684SOL    HW3 2509   5.795   1.855   0.318  1.7356 -0.3900  0.5755
  684SOL    MW4 2510   5.794   1.926   0.369  0.7164 -0.4335  0.6326
  685SOL     OW 2511   1.569   1.411   4.944 -0.6763 -0.6493 -0.2787
  685SOL    HW2 2512   1.482   1.382   4.970 -0.6983 -2.1611 -1.8717
  685SOL    HW3 2513   1.590   1.360   4.866  1.3048  0.2712 -0.4293
  685SOL    MW4 2514   1.561   1.401   4.937 -0.4178 -0.7273 -0.5088
  686SOL     OW 2515   5.139   1.416   0.495 -0.3491 -0.2134 -0.1828
  686SOL    HW2 2516   5.155   1.390   0.585 -2.4774 -1.0765  0.0196
  686SOL    HW3 2517   5.101   1.504   0.502 -0.1774 -0.1326 -0.2643
  686SOL    MW4 2518   5.136   1.424   0.508 -0.6072 -0.3166 -0.1668
  687SOL     OW 2519   4.110   0.098   1.713 -0.0567  0.0357 -0.0575
  687SOL    HW2 2520   4.039   0.042   1.744 -0.1234  0.1743  0.0398
  687SOL    HW3 2521   4.110   0.172   1.773  1.3534 -0.8370  1.0834
  687SOL    MW4 2522   4.101   0.100   1.725  0.1206 -0.0611  0.1059
  688SOL     OW 2523   0.912   4.791   4.911 -0.2891  0.5949 -0.2087
  688SOL    HW2 2524   0.978   4.722   4.902  0.8829  1.5109  1.0044
  688SOL    HW3 2525   0.955   4.870   4.878 -0.9830  1.0933  0.0537
  688SOL    MW4 2526   0.926   4.793   4.906 -0.2260  0.7815 -0.0140
  689SOL     OW 2527   3.157   4.340   5.378  0.2199  0.7576 -1.0119
  689SOL    HW2 2528   3.145   4.335   5.283 -1.7398 -0.5837 -0.7541
  689SOL    HW3 2529   3.079   4.299   5.414  1.7017 -0.3571  1.1693
  689SOL    MW4 2530   3.145   4.334   5.370  0.1568  0.4336 -0.6901
  690SOL     OW 2531   3.021   1.260   0.277  0.1644 -0.3781 -0.6776
  690SOL    HW2 2532   3.114   1.277   0.291  0.1459  0.7731 -1.7171
  690SOL    HW3 2533   2.988   1.232   0.362  1.2910  0.0666 -0.0753
  690SOL    MW4 2534   3.029   1.259   0.290  0.3106 -0.1675 -0.7353
  691SOL     OW 2535   1.173   3.061   0.104 -0.4237  0.1046  0.3835
  691SOL    HW2 2536   1.117   2.984   0.094  1.4251 -1.3859  0.9346
  691SOL    HW3 2537   1.251   3.028   0.148  0.5564  2.2622  0.3686
  691SOL    MW4 2538   1.176   3.047   0.108 -0.0505  0.1926  0.4543
  692SOL     OW 2539   1.501   6.037   2.572  0.1739  0.1788  0.6443
  692SOL    HW2 2540   1.561   5.984   2.624 -0.1613 -0.8277  0.0269
  692SOL    HW3 2541   1.522   6.127   2.595  1.9516 -0.1528  0.4109
  692SOL    MW4 2542   1.511   6.042   2.582  0.3642  0.0023  0.5320
  693SOL     OW 2543   4.207   2.985   1.477  1.0194 -0.1232  0.5506
  693SOL    HW2 2544   4.265   2.926   1.428  2.3504  1.3941  0.2138
  693SOL    HW3 2545   4.158   2.928   1.536  3.0717 -1.4467  1.0450
  693SOL    MW4 2546   4.208   2.970   1.478  1.4658 -0.0976  0.5714
  694SOL     OW 2547   2.206   3.599   1.983  0.8040 -0.4847  0.3213
  694SOL    HW2 2548   2.113   3.584   2.000  1.0985  0.6344  3.5681
  694SOL    HW3 2549   2.241   3.513   1.961 -0.6932 -1.2175  0.6844
  694SOL    MW4 2550   2.199   3.586   1.982  0.6453 -0.4337  0.7976
  695SOL     OW 2551   6.032   4.941   4.629 -0.1974 -0.2640 -0.6414
  695SOL    HW2 2552   6.048   4.944   4.723  0.5953  1.0923 -0.7979
  695SOL    HW3 2553   6.008   5.031   4.605  0.8909 -0.2775 -1.9348
  695SOL    MW4 2554   6.031   4.953   4.638  0.0507 -0.0868 -0.8327
  696SOL     OW 2555   6.113   1.872   2.406  0.1333  0.4275  0.0676
  696SOL    HW2 2556   6.151   1.927   2.338  0.3387 -0.9900 -1.0022
  696SOL    HW3 2557   6.057   1.931   2.456  0.1463  1.5485 -1.1902
  696SOL    MW4 2558   6.111   1.887   2.404  0.1621  0.3884 -0.2395
  697SOL     OW 2559   2.434   2.336   5.485 -0.0438  0.5039 -0.3989
  697SOL    HW2 2560   2.425   2.424   5.448  2.1527  0.2427 -1.6872
  697SOL    HW3 2561   2.528   2.325   5.500 -0.0594 -2.1778 -1.7290
  697SOL    MW4 2562   2.445   2.346   5.482  0.2439  0.1156 -0.7443
  698SOL     OW 2563   2.958   6.437   4.343 -0.8720 -0.1661 -0.1945
  698SOL    HW2 2564   2.959   6.432   4.248 -0.3641  0.8124 -0.2540
  698SOL    HW3 2565   2.961   6.346   4.372 -0.1735 -0.4416 -1.1075
  698SOL    MW4 2566   2.958   6.425   4.335 -0.7128 -0.0733 -0.3228
  699SOL     OW 2567   4.728   2.240   2.990 -0.0270 -0.1803  0.0346
  699SOL    HW2 2568   4.808   2.190   3.007  1.0827  1.4463 -0.1531
  699SOL    HW3 2569   4.686   2.247   3.076  1.3437  1.0353  0.6529
  699SOL    MW4 2570   4.733   2.235   3.004  0.3003  0.1947  0.0914
  700SOL     OW 2571   1.039   3.998   0.250  0.4381  0.4593  0.1447
  700SOL    HW2 2572   1.124   3.964   0.222  0.1412 -0.1744  0.0037
  700SOL    HW3 2573   1.015   4.061   0.182 -0.6648 -1.6739 -1.5406
  700SOL    MW4 2574   1.047   4.002   0.237  0.2534  0.0943 -0.0963
  701SOL     OW 2575   4.097   6.170   4.103  1.0025  0.1869 -0.3875
  701SOL    HW2 2576   4.015   6.177   4.055 -0.3490 -0.1837  1.7591
  701SOL    HW3 2577   4.110   6.256   4.143  0.8193 -0.1965  0.5264
  701SOL    MW4 2578   4.088   6.182   4.102  0.8000  0.0874  0.0163
  702SOL     OW 2579   0.425   1.236   1.952 -0.1994 -0.3125  0.3928
  702SOL    HW2 2580   0.368   1.251   2.027 -0.2739 -1.0193  0.4842
  702SOL    HW3 2581   0.513   1.232   1.989 -0.1440  0.1966  0.3260
  702SOL    MW4 2582   0.429   1.237   1.967 -0.2019 -0.3386  0.3960
  703SOL     OW 2583   5.622   1.922   1.565 -0.6005 -0.0762  0.3909
  703SOL    HW2 2584   5.587   1.885   1.646 -1.2679 -1.2070 -0.3865
  703SOL    HW3 2585   5.663   1.848   1.521 -1.4540  0.2006 -0.9255
  703SOL    MW4 2586   5.623   1.907   1.570 -0.8012 -0.1889  0.1146
  704SOL     OW 2587   4.494   0.410   3.057  0.0195 -0.2885  0.2107
  704SOL    HW2 2588   4.546   0.470   3.111  0.0176 -0.7093  0.6812
  704SOL    HW3 2589   4.403   0.431   3.078 -0.0837  1.3438 -1.5623
  704SOL    MW4 2590   4.489   0.421   3.067  0.0056 -0.1286  0.0388
  705SOL     OW 2591   2.788   0.613   4.133  0.0425 -0.2890  0.0950
  705SOL    HW2 2592   2.780   0.590   4.040  1.2796 -0.1612 -0.0566
  705SOL    HW3 2593   2.808   0.530   4.176 -1.1692 -0.4698  0.3674
  705SOL    MW4 2594   2.789   0.599   4.126  0.0458 -0.2960  0.1109
  706SOL     OW 2595   4.755   1.319   4.733  0.4565 -0.4892  0.1853
  706SOL    HW2 2596   4.739   1.231   4.701 -0.5098  0.2220 -1.3976
  706SOL    HW3 2597   4.847   1.320   4.757  0.4431 -1.9595  0.3542
  706SOL    MW4 2598   4.765   1.308   4.732  0.3273 -0.5894 -0.0013
  707SOL     OW 2599   1.745   0.303   0.809  0.1920 -0.3496  0.2165
  707SOL    HW2 2600   1.709   0.222   0.775  1.0778 -0.6464 -0.0408
  707SOL    HW3 2601   1.674   0.342   0.860 -0.2125 -1.3133  0.3980
  707SOL    MW4 2602   1.731   0.298   0.811  0.2555 -0.5159  0.2065
  708SOL     OW 2603   0.876   3.357   0.090  0.6437 -0.0279  0.5673
  708SOL    HW2 2604   0.927   3.438   0.095  1.6762 -0.6140 -0.2503
  708SOL    HW3 2605   0.914   3.301   0.157  1.5851 -0.7333 -0.5291
  708SOL    MW4 2606   0.888   3.361   0.100  0.9041 -0.1983  0.3147
  709SOL     OW 2607   4.607   3.234   2.721 -0.3720  0.1268 -0.2316
  709SOL    HW2 2608   4.647   3.254   2.805  0.4631 -0.4927 -0.4648
  709SOL    HW3 2609   4.569   3.147   2.732 -0.9933  0.3922 -0.2476
  709SOL    MW4 2610   4.608   3.225   2.733 -0.3438  0.0801 -0.2644
  710SOL     OW 2611   0.951   1.141   1.416 -0.1360  0.0427  0.4356
  710SOL    HW2 2612   0.994   1.129   1.500  0.2473 -1.6292  0.0330
  710SOL    HW3 2613   0.909   1.227   1.423 -0.9210 -0.4421  2.6929
  710SOL    MW4 2614   0.951   1.151   1.428 -0.1890 -0.2418  0.6803
  711SOL     OW 2615   0.710   1.657   1.721  0.0485 -0.4189  0.4004
  711SOL    HW2 2616   0.795   1.672   1.763  1.0426 -0.4918 -1.4566
  711SOL    HW3 2617   0.706   1.724   1.653 -0.5901 -1.5067 -0.6569
  711SOL    MW4 2618   0.721   1.668   1.718  0.0954 -0.5720  0.0159
  712SOL     OW 2619   1.942   0.433   4.302  0.3536  0.2565  0.0745
  712SOL    HW2 2620   2.005   0.382   4.252 -0.6968 -1.1037  0.0945
  712SOL    HW3 2621   1.892   0.368   4.352 -2.7284  0.9796 -1.8023
  712SOL    MW4 2622   1.943   0.418   4.302 -0.1916  0.1724 -0.1705
  713SOL     OW 2623   1.286   0.207   4.655  0.4914  0.4481 -0.0153
  713SOL    HW2 2624   1.241   0.218   4.571 -0.2615  0.0143  0.3190
  713SOL    HW3 2625   1.235   0.140   4.701 -0.0354  1.7558  1.4024
  713SOL    MW4 2626   1.273   0.200   4.650  0.3226  0.5634  0.2159
  714SOL     OW 2627   1.051   1.794   4.147  0.0796 -0.1361 -0.2878
  714SOL    HW2 2628   0.994   1.868   4.168 -1.6214 -0.8077 -2.1636
  714SOL    HW3 2629   1.004   1.717   4.181  0.8489 -0.5259 -0.0944
  714SOL    MW4 2630   1.037   1.794   4.154 -0.0433 -0.2761 -0.5098
  715SOL     OW 2631   1.005   6.211   3.227 -0.3376  0.2736  0.1627
  715SOL    HW2 2632   0.943   6.184   3.295 -2.1794  2.1398 -0.6707
  715SOL    HW3 2633   0.980   6.159   3.150  0.6265 -0.5788  0.4017
  715SOL    MW4 2634   0.994   6.200   3.226 -0.4534  0.4073  0.0843
  716SOL     OW 2635   0.774   4.760   3.964  0.0360  0.7588 -0.0543
  716SOL    HW2 2636   0.791   4.798   4.050 -0.1933 -0.0785  0.3828
  716SOL    HW3 2637   0.706   4.694   3.981  2.6092 -2.1525 -0.1247
  716SOL    MW4 2638   0.767   4.756   3.978  0.3452  0.2642 -0.0059
  717SOL     OW 2639   2.961   3.669   0.468  0.3361  0.0682 -0.2274
  717SOL    HW2 2640   3.047   3.680   0.510 -0.4002  0.3332  1.2908
  717SOL    HW3 2641   2.931   3.583   0.498 -1.0808  1.1069  1.5660
  717SOL    MW4 2642   2.969   3.659   0.478  0.0520  0.2402  0.2095
  718SOL     OW 2643   0.316   5.309   5.553 -0.3557  0.5000 -0.0397
  718SOL    HW2 2644   0.388   5.246   5.555  0.8707  1.8689  0.3865
  718SOL    HW3 2645   0.275   5.301   5.638 -0.8780 -0.4483 -0.3647
  718SOL    MW4 2646   0.320   5.300   5.564 -0.2628  0.5555 -0.0263
  719SOL     OW 2647   0.525   0.510   0.091  0.3148  0.6005 -0.5297
  719SOL    HW2 2648   0.619   0.505   0.105  0.4158 -1.0765 -1.4808
  719SOL    HW3 2649   0.514   0.575   0.022  0.8991  0.0436 -1.1679
  719SOL    MW4 2650   0.536   0.518   0.083  0.4052  0.3058 -0.7394
  720SOL     OW 2651   4.264   1.161   4.374 -0.4481 -0.2953 -0.4767
  720SOL    HW2 2652   4.252   1.186   4.466 -2.2089 -0.9917 -0.4876
  720SOL    HW3 2653   4.217   1.078   4.365 -2.1624  0.7938 -2.4750
  720SOL    MW4 2654   4.256   1.153   4.385 -0.9066 -0.2435 -0.7418
  721SOL     OW 2655   3.468   3.148   5.124 -0.2273  0.0505 -0.2040
  721SOL    HW2 2656   3.419   3.109   5.051 -1.2014  0.1459  0.3894
  721SOL    HW3 2657   3.535   3.082   5.145  0.0804  0.0338 -1.1918
  721SOL    MW4 2658   3.470   3.134   5.117 -0.3152  0.0609 -0.2560
  722SOL     OW 2659   2.044   6.156   0.978  0.2406  0.4298 -0.3302
  722SOL    HW2 2660   2.018   6.232   1.029  0.6260  1.9576 -2.2671
  722SOL    HW3 2661   2.021   6.179   0.888  0.0681 -1.9073 -0.9324
  722SOL    MW4 2662   2.038   6.169   0.973  0.2687  0.3230 -0.6652
  723SOL     OW 2663   3.253   0.198   2.198  0.3099 -0.2599  0.3555
  723SOL    HW2 2664   3.307   0.202   2.119  0.3291  2.6023  0.4046
  723SOL    HW3 2665   3.316   0.193   2.270  0.3046 -2.1554  0.2866
  723SOL    MW4 2666   3.269   0.198   2.197  0.3118 -0.1324  0.3529
  724SOL     OW 2667   3.893   3.347   6.323 -0.3749  0.1542  0.4781
  724SOL    HW2 2668   3.982   3.324   6.297 -0.3438  1.6994 -0.9425
  724SOL    HW3 2669   3.871   3.283   6.391  1.6213 -0.5640  0.5235
  724SOL    MW4 2670   3.902   3.335   6.328 -0.1074  0.2633  0.2966
  725SOL     OW 2671   5.566   3.365   0.922  0.4126  0.4747 -0.0168
  725SOL    HW2 2672   5.644   3.373   0.867  0.5263 -2.3958 -0.4146
  725SOL    HW3 2673   5.516   3.295   0.882 -1.9815  1.6393  0.7652
  725SOL    MW4 2674   5.570   3.357   0.909  0.1117  0.2496  0.0339
  726SOL     OW 2675   4.540   5.131   0.555 -0.2258 -0.8257 -0.4520
  726SOL    HW2 2676   4.562   5.127   0.648  0.2907  0.5647 -0.5064
  726SOL    HW3 2677   4.555   5.042   0.524 -0.7384 -1.4021  0.8579
  726SOL    MW4 2678   4.545   5.118   0.564 -0.2253 -0.7183 -0.2864
  727SOL     OW 2679   6.086   1.749   2.085 -0.0216 -0.3294  0.1805
  727SOL    HW2 2680   6.004   1.799   2.088  0.4539  0.4253  0.7752
  727SOL    HW3 2681   6.107   1.744   1.991 -1.4073 -1.6398 -0.0931
  727SOL    MW4 2682   6.078   1.755   2.073 -0.1417 -0.4027  0.2229
  728SOL     OW 2683   5.489   1.839   3.655 -0.4036 -0.3006  0.3050
  728SOL    HW2 2684   5.531   1.773   3.600 -0.6355 -0.1679 -0.0285
  728SOL    HW3 2685   5.456   1.788   3.730  1.5072 -0.2254  1.2665
  728SOL    MW4 2686   5.490   1.823   3.658 -0.1821 -0.2731  0.3879
  729SOL     OW 2687   0.905   2.547   4.766 -0.2753 -0.5136  0.4791
  729SOL    HW2 2688   0.989   2.593   4.766 -1.3565  1.6001  1.5703
  729SOL    HW3 2689   0.852   2.594   4.701 -1.3148 -0.3811  1.3950
  729SOL    MW4 2690   0.909   2.559   4.757 -0.5551 -0.2173  0.7439
  730SOL     OW 2691   2.193   2.505   1.292 -0.6413 -0.0500  0.0499
  730SOL    HW2 2692   2.200   2.588   1.340 -1.5566 -0.3627  0.7506
  730SOL    HW3 2693   2.212   2.528   1.201  0.6530  0.6406  0.4704
  730SOL    MW4 2694   2.196   2.519   1.286 -0.5913 -0.0001  0.1978
  731SOL     OW 2695   4.678   2.617   5.660  0.1562  0.6992  0.7991
  731SOL    HW2 2696   4.745   2.585   5.720  0.9928 -0.4175 -0.6627
  731SOL    HW3 2697   4.721   2.687   5.612  1.1289 -1.3883 -1.6305
  731SOL    MW4 2698   4.693   2.622   5.662  0.3949  0.2765  0.2857
  732SOL     OW 2699   0.838   4.637   1.616  0.5237 -0.3350  0.4140
  732SOL    HW2 2700   0.848   4.663   1.524  1.3761 -0.2922  0.5136
  732SOL    HW3 2701   0.842   4.541   1.613  0.2998 -0.3443  0.3818
  732SOL    MW4 2702   0.840   4.627   1.603  0.6066 -0.3306  0.4229
  733SOL     OW 2703   1.080   5.312   0.101  0.4690  0.2161  0.0289
  733SOL    HW2 2704   1.062   5.404   0.081  0.2700  0.2780  0.4810
  733SOL    HW3 2705   1.103   5.274   0.017 -1.8296  0.1209 -0.6280
  733SOL    MW4 2706   1.081   5.319   0.088  0.1395  0.2117  0.0019
  734SOL     OW 2707   6.262   0.256   4.617  0.3316 -0.0675  0.0932
  734SOL    HW2 2708   6.247   0.300   4.700 -2.3428 -1.4635  0.4597
  734SOL    HW3 2709   6.192   0.289   4.560  1.3932 -0.0370 -1.2330
  734SOL    MW4 2710   6.251   0.266   4.620  0.1188 -0.2477 -0.0334
  735SOL     OW 2711   1.558   0.594   0.379 -0.1585  0.1188 -0.0090
  735SOL    HW2 2712   1.580   0.539   0.454  0.5414  1.4024  0.7579
  735SOL    HW3 2713   1.547   0.682   0.416 -3.0317  0.2465 -0.9057
  735SOL    MW4 2714   1.559   0.599   0.394 -0.4453  0.3050 -0.0262
  736SOL     OW 2715   0.370   2.586   4.020 -0.5057  0.5958 -0.0783
  736SOL    HW2 2716   0.443   2.603   3.961  0.1383 -0.4105  0.4069
  736SOL    HW3 2717   0.350   2.493   4.007 -2.4118  1.0685 -0.9815
  736SOL    MW4 2718   0.377   2.576   4.011 -0.6722  0.5254 -0.1335
  737SOL     OW 2719   2.680   1.705   1.746 -0.4042  0.1031 -0.4102
  737SOL    HW2 2720   2.724   1.640   1.691 -0.2327  0.0708 -0.2356
  737SOL    HW3 2721   2.595   1.665   1.767 -0.3179 -0.0458 -0.3428
  737SOL    MW4 2722   2.674   1.691   1.742 -0.3702  0.0792 -0.3783
  738SOL     OW 2723   0.039   4.372   2.555 -0.9000  0.7738  0.1742
  738SOL    HW2 2724   0.023   4.287   2.598 -3.0335  0.4295 -1.1413
  738SOL    HW3 2725  -0.045   4.418   2.562 -0.0760  2.3887 -0.0629
  738SOL    MW4 2726   0.025   4.367   2.562 -1.0728  0.9414 -0.0307
  739SOL     OW 2727   5.914   0.279   2.770 -0.1529  0.0759  0.4767
  739SOL    HW2 2728   5.841   0.223   2.796 -0.5225  0.2268 -0.2126
  739SOL    HW3 2729   5.891   0.366   2.803 -0.4863  0.2089 -0.0976
  739SOL    MW4 2730   5.901   0.283   2.778 -0.2457  0.1133  0.3100
  740SOL     OW 2731   2.882   1.337   1.265  0.3231 -0.0561  0.3181
  740SOL    HW2 2732   2.916   1.268   1.208  0.3645  1.3645 -1.4668
  740SOL    HW3 2733   2.862   1.409   1.205  0.4910  1.5685  2.1388
  740SOL    MW4 2734   2.884   1.337   1.249  0.3507  0.3457  0.3228
  741SOL     OW 2735   0.368   0.695   2.569 -0.2750  0.1051  0.1351
  741SOL    HW2 2736   0.438   0.694   2.503  0.6814 -0.5918  1.1204
  741SOL    HW3 2737   0.413   0.680   2.652 -1.7438 -1.9359  0.6429
  741SOL    MW4 2738   0.383   0.693   2.571 -0.3426 -0.2562  0.3321
  742SOL     OW 2739   5.588   0.981   5.237 -0.0726 -0.2479  0.2727
  742SOL    HW2 2740   5.627   1.060   5.274 -1.6726 -0.1999  2.0172
  742SOL    HW3 2741   5.530   0.948   5.306 -0.8973 -1.8808 -1.1172
  742SOL    MW4 2742   5.585   0.987   5.251 -0.3925 -0.4570  0.3195
  743SOL     OW 2743   2.451   6.375   2.753  0.6276 -0.1366  0.4610
  743SOL    HW2 2744   2.462   6.462   2.714 -0.5333  0.5975  1.7181
  743SOL    HW3 2745   2.357   6.359   2.751  0.9068 -2.1091 -1.2245
  743SOL    MW4 2746   2.440   6.384   2.748  0.5113 -0.3000  0.4045
  744SOL     OW 2747   2.787   4.505   0.578  0.1014 -0.7112 -0.7117
  744SOL    HW2 2748   2.704   4.475   0.615  0.4320 -2.4673 -1.3245
  744SOL    HW3 2749   2.854   4.462   0.631  0.6287  0.1284 -0.6757
  744SOL    MW4 2750   2.785   4.495   0.590  0.2146 -0.8322 -0.7878
  745SOL     OW 2751   6.050   1.012   1.336 -0.1660 -0.2779  0.1330
  745SOL    HW2 2752   6.013   1.067   1.266 -0.4397 -0.7714 -0.1122
  745SOL    HW3 2753   5.976   0.961   1.368  0.2164 -0.9687 -0.0771
  745SOL    MW4 2754   6.035   1.013   1.331 -0.1517 -0.4341  0.0729
  746SOL     OW 2755   2.194   2.959   1.183  0.2855 -0.2868 -0.4475
  746SOL    HW2 2756   2.224   2.889   1.125  0.5755 -0.4841 -0.0657
  746SOL    HW3 2757   2.106   2.931   1.210 -0.0828  0.0789 -1.2203
  746SOL    MW4 2758   2.186   2.946   1.179  0.2752 -0.2646 -0.4991
  747SOL     OW 2759   1.362   6.005   1.151  0.5912  0.7450  0.1980
  747SOL    HW2 2760   1.318   6.031   1.069  0.7198  0.7059  0.1160
  747SOL    HW3 2761   1.399   5.919   1.132  1.0024  0.9313  0.1521
  747SOL    MW4 2762   1.361   5.997   1.137  0.6624  0.7644  0.1811
  748SOL     OW 2763   3.699   0.543   3.036  0.1313 -0.5470 -0.6649
  748SOL    HW2 2764   3.690   0.557   2.942  0.7299 -0.7544 -0.7582
  748SOL    HW3 2765   3.636   0.473   3.056 -2.1692  1.4721 -0.3624
  748SOL    MW4 2766   3.689   0.535   3.027 -0.0932 -0.3080 -0.6373
  749SOL     OW 2767   4.189   6.350   5.845 -0.4781  0.7555  0.3954
  749SOL    HW2 2768   4.139   6.426   5.816 -0.3571  0.7105  0.0643
  749SOL    HW3 2769   4.228   6.377   5.928  0.9304  1.6521 -0.5134
  749SOL    MW4 2770   4.187   6.363   5.852 -0.2763  0.8678  0.2318
  750SOL     OW 2771   2.078   3.810   2.187 -0.2806  0.7409  0.0255
  750SOL    HW2 2772   2.111   3.732   2.144 -0.9998  0.3765  0.1216
  750SOL    HW3 2773   2.155   3.866   2.197  0.1046  0.3602 -0.7085
  750SOL    MW4 2774   2.092   3.807   2.182 -0.3246  0.6426 -0.0586
  751SOL     OW 2775   3.664   5.181   4.336 -0.3768  0.6979 -0.0269
  751SOL    HW2 2776   3.637   5.162   4.247 -1.1928  0.3862  0.2779
  751SOL    HW3 2777   3.749   5.137   4.345 -2.0956 -2.7812  0.5864
  751SOL    MW4 2778   3.672   5.173   4.326 -0.7112  0.1977  0.0942
  752SOL     OW 2779   3.284   1.849   3.941 -0.0939  0.0181 -0.0999
  752SOL    HW2 2780   3.241   1.784   3.996  0.6842  0.1079  0.6403
  752SOL    HW3 2781   3.377   1.839   3.960  0.2313 -0.1961 -1.6931
  752SOL    MW4 2782   3.291   1.839   3.951  0.0516  0.0017 -0.2125
  753SOL     OW 2783   0.932   5.078   5.667 -0.7591  0.1888  0.1891
  753SOL    HW2 2784   0.921   5.166   5.631 -1.5986  0.0555  0.1131
  753SOL    HW3 2785   1.016   5.048   5.630 -0.0679  1.2515  0.8501
  753SOL    MW4 2786   0.942   5.085   5.657 -0.7787  0.3114  0.2663
  754SOL     OW 2787   0.361   6.414   4.164 -0.2946  0.0699 -0.4976
  754SOL    HW2 2788   0.348   6.319   4.159 -0.9795  0.1621 -0.6843
  754SOL    HW3 2789   0.398   6.429   4.251  0.0689 -0.3931 -0.5672
  754SOL    MW4 2790   0.364   6.403   4.175 -0.3370  0.0210 -0.5314
  755SOL     OW 2791   0.666   2.621   2.514  0.3537  0.0704  0.5964
  755SOL    HW2 2792   0.746   2.649   2.558 -0.2804  0.2848  1.6415
  755SOL    HW3 2793   0.627   2.557   2.573  0.9143 -1.7982 -0.9747
  755SOL    MW4 2794   0.671   2.616   2.528  0.3440 -0.1479  0.5270
  756SOL     OW 2795   3.013   4.353   2.415 -0.3260  0.4103 -0.8810
  756SOL    HW2 2796   2.994   4.259   2.415  0.2903  0.2787 -1.2158
  756SOL    HW3 2797   2.938   4.393   2.459 -1.3810 -0.0703 -2.1772
  756SOL    MW4 2798   3.001   4.346   2.421 -0.3839  0.3295 -1.0962
  757SOL     OW 2799   0.657   0.527   4.226 -0.3941  0.2086  0.0828
  757SOL    HW2 2800   0.698   0.441   4.235  1.1954  0.8702 -0.3780
  757SOL    HW3 2801   0.711   0.585   4.280 -0.6208  1.1605 -0.6725
  757SOL    MW4 2802   0.670   0.524   4.235 -0.2143  0.4215 -0.0776
  758SOL     OW 2803   4.344   0.477   2.714 -0.1023 -0.6193  0.6155
  758SOL    HW2 2804   4.438   0.464   2.726 -0.0469 -0.9111 -0.1181
  758SOL    HW3 2805   4.337   0.556   2.660 -0.2594 -0.9188  0.1968
  758SOL    MW4 2806   4.355   0.486   2.708 -0.1157 -0.6974  0.4635
  759SOL     OW 2807   3.057   0.456   2.874  0.0197 -0.2009  0.2429
  759SOL    HW2 2808   3.103   0.511   2.811 -0.4586 -0.2350 -0.1504
  759SOL    HW3 2809   3.121   0.391   2.902 -0.0152 -0.7857 -0.9480
  759SOL    MW4 2810   3.071   0.455   2.869 -0.0480 -0.2825  0.0338
  760SOL     OW 2811   2.182   6.378   2.730 -0.4048 -0.7093 -0.1707
  760SOL    HW2 2812   2.122   6.348   2.799 -1.5623 -0.6675 -1.1214
  760SOL    HW3 2813   2.148   6.464   2.705 -0.9948 -1.4114 -1.8969
  760SOL    MW4 2814   2.169   6.386   2.736 -0.6353 -0.7964 -0.5239
  761SOL     OW 2815   2.488   1.268   4.491 -0.1506  0.6916 -0.6042
  761SOL    HW2 2816   2.575   1.279   4.451 -0.1764  2.0703 -0.3071
  761SOL    HW3 2817   2.507   1.245   4.582 -0.1029 -0.0992 -0.8074
  761SOL    MW4 2818   2.502   1.266   4.498 -0.1477  0.7691 -0.5918
  762SOL     OW 2819   0.567   0.582   2.064  0.7328  0.4800  0.4406
  762SOL    HW2 2820   0.660   0.574   2.045  1.0971  2.2302  1.3172
  762SOL    HW3 2821   0.538   0.659   2.014 -1.0231 -1.7611 -2.3254
  762SOL    MW4 2822   0.575   0.591   2.055  0.5492  0.4153  0.1913
  763SOL     OW 2823   4.546   0.124   6.416 -0.3914  0.0714 -0.4099
  763SOL    HW2 2824   4.538   0.172   6.499 -1.2532 -0.3623 -0.2251
  763SOL    HW3 2825   4.616   0.169   6.369 -0.7269  1.0937  0.0384
  763SOL    MW4 2826   4.554   0.136   6.421 -0.5493  0.1491 -0.3264
  764SOL     OW 2827   3.837   1.650   3.666 -0.2163 -0.7186 -0.0343
  764SOL    HW2 2828   3.796   1.587   3.607  2.5413 -0.9079 -1.9879
  764SOL    HW3 2829   3.821   1.735   3.626 -0.1671 -0.6218  0.1490
  764SOL    MW4 2830   3.830   1.653   3.653  0.1540 -0.7308 -0.2678
  765SOL     OW 2831   5.898   3.080   6.137  0.6511 -0.3358 -0.0690
  765SOL    HW2 2832   5.884   3.174   6.125  1.5048 -0.2695 -0.5883
  765SOL    HW3 2833   5.851   3.040   6.063 -1.0735 -0.4400  1.0248
  765SOL    MW4 2834   5.890   3.087   6.125  0.5362 -0.3408  0.0068
  766SOL     OW 2835   6.081   0.453   5.504 -0.1918 -0.1224 -0.0723
  766SOL    HW2 2836   6.084   0.539   5.546 -0.5103  0.5421 -1.3917
  766SOL    HW3 2837   6.048   0.469   5.416 -0.0979 -1.5772 -0.4029
  766SOL    MW4 2838   6.077   0.467   5.498 -0.2215 -0.2267 -0.2900
  767SOL     OW 2839   0.437   5.480   3.525  0.0181 -0.6553 -0.1837
  767SOL    HW2 2840   0.461   5.388   3.522  2.4267 -0.1302  0.6676
  767SOL    HW3 2841   0.456   5.514   3.438 -0.0732 -0.7800 -0.2519
  767SOL    MW4 2842   0.443   5.473   3.513  0.3238 -0.6024 -0.0804
  768SOL     OW 2843   3.569   1.645   2.801  0.2700  0.3051  0.5295
  768SOL    HW2 2844   3.510   1.715   2.771  1.3563  0.5644 -1.2043
  768SOL    HW3 2845   3.626   1.629   2.725  2.5317  0.2021  2.1449
  768SOL    MW4 2846   3.569   1.652   2.787  0.7117  0.3257  0.5139
  769SOL     OW 2847   2.228   6.210   2.291  0.4140  0.2450 -0.0492
  769SOL    HW2 2848   2.198   6.126   2.256  2.1310 -0.1468 -0.6918
  769SOL    HW3 2849   2.279   6.188   2.368 -0.4119  0.8466  0.6910
  769SOL    MW4 2850   2.231   6.196   2.296  0.5316  0.2726 -0.0363
  770SOL     OW 2851   5.639   2.404   1.853  0.2517 -0.3712 -0.0130
  770SOL    HW2 2852   5.640   2.410   1.949  1.2854 -0.9855  0.0253
  770SOL    HW3 2853   5.722   2.443   1.826 -0.3553  0.4538 -0.7107
  770SOL    MW4 2854   5.650   2.410   1.862  0.3080 -0.3434 -0.1000
  771SOL     OW 2855   3.537   0.753   2.666 -0.3985 -0.1295  0.1410
  771SOL    HW2 2856   3.544   0.848   2.674  1.7078 -0.2772  0.6302
  771SOL    HW3 2857   3.553   0.736   2.573  1.6417 -0.0946  0.4217
  771SOL    MW4 2858   3.540   0.763   2.655  0.1485 -0.1444  0.2426
  772SOL     OW 2859   5.560   0.771   0.843  0.3164 -0.4129  0.1341
  772SOL    HW2 2860   5.582   0.855   0.802 -0.4664 -0.3896 -0.2554
  772SOL    HW3 2861   5.610   0.771   0.924 -0.4944  0.9111  0.6702
  772SOL    MW4 2862   5.570   0.782   0.848  0.1061 -0.2351  0.1534
  773SOL     OW 2863   3.640   4.936   0.417  0.0861 -0.5208  0.7964
  773SOL    HW2 2864   3.639   4.988   0.498  0.1363 -0.7933  0.9735
  773SOL    HW3 2865   3.707   4.977   0.363 -1.7321  1.3366 -0.2190
  773SOL    MW4 2866   3.649   4.948   0.421 -0.1472 -0.3117  0.6858
  774SOL     OW 2867   4.789   2.883   2.449 -0.1124 -0.0969  0.2439
  774SOL    HW2 2868   4.825   2.920   2.530 -1.4271 -2.2344  1.9596
  774SOL    HW3 2869   4.821   2.792   2.449 -0.7343 -0.3425 -1.2634
  774SOL    MW4 2870   4.798   2.876   2.460 -0.3679 -0.4113  0.2714
  775SOL     OW 2871   5.589   4.986   6.410 -0.8609 -0.6555 -0.0444
  775SOL    HW2 2872   5.580   4.977   6.505 -0.7199 -0.1613  0.0170
  775SOL    HW3 2873   5.501   4.971   6.376 -1.0670 -0.0805  0.2230
  775SOL    MW4 2874   5.576   4.983   6.418 -0.8695 -0.5144 -0.0010
  776SOL     OW 2875   3.694   3.649   2.915 -0.0784  0.7490  0.1194
  776SOL    HW2 2876   3.724   3.581   2.974 -0.9385 -0.9699 -1.3082
  776SOL    HW3 2877   3.609   3.676   2.951 -0.7166 -0.4668 -0.3870
  776SOL    MW4 2878   3.687   3.643   2.927 -0.2761  0.3618 -0.1357
  777SOL     OW 2879   0.261   0.887   3.300 -0.0993 -0.4396  0.6334
  777SOL    HW2 2880   0.170   0.894   3.272  0.2677 -1.4617 -0.9531
  777SOL    HW3 2881   0.312   0.892   3.219  1.1251 -1.9112  1.2497
  777SOL    MW4 2882   0.256   0.888   3.286  0.1107 -0.7686  0.5054
  778SOL     OW 2883   0.177   2.139   5.987 -0.5774  0.1552  0.6841
  778SOL    HW2 2884   0.129   2.221   5.977  0.8497  0.7967 -1.5747
  778SOL    HW3 2885   0.209   2.119   5.899  1.5574 -1.3039  1.7118
  778SOL    MW4 2886   0.175   2.147   5.974 -0.1075  0.0473  0.5216
  779SOL     OW 2887   2.373   4.157   3.747 -0.6715 -0.0765 -0.0324
  779SOL    HW2 2888   2.301   4.207   3.786 -0.9990  0.1191 -0.8818
  779SOL    HW3 2889   2.452   4.204   3.775 -0.9623  0.8329 -0.6788
  779SOL    MW4 2890   2.374   4.170   3.756 -0.7531  0.0693 -0.2298
  780SOL     OW 2891   0.550   6.334   5.806  0.1478 -0.0560 -0.2872
  780SOL    HW2 2892   0.469   6.383   5.794  0.9788  0.8759 -2.6076
  780SOL    HW3 2893   0.522   6.244   5.821 -1.3324  0.2338 -1.1173
  780SOL    MW4 2894   0.536   6.328   5.806  0.0622  0.1052 -0.7029
  781SOL     OW 2895   6.168   5.516   4.103 -0.1259  0.5838 -0.1235
  781SOL    HW2 2896   6.168   5.425   4.073 -0.4170  0.0147  1.5157
  781SOL    HW3 2897   6.111   5.561   4.041 -1.7610 -0.8051  0.2909
  781SOL    MW4 2898   6.161   5.510   4.090 -0.3800  0.3255  0.1475
  782SOL     OW 2899   0.356   5.805   2.103 -0.3791 -0.1933  0.3572
  782SOL    HW2 2900   0.404   5.859   2.041 -1.8350 -0.5420 -1.1328
  782SOL    HW3 2901   0.274   5.784   2.059 -0.8545 -1.6674  1.8339
  782SOL    MW4 2902   0.351   5.809   2.089 -0.6339 -0.4338  0.3555
  783SOL     OW 2903   0.534   2.026   5.707 -0.0474  0.3512  0.0138
  783SOL    HW2 2904   0.536   2.023   5.611  1.7797 -0.5763  0.0443
  783SOL    HW3 2905   0.499   1.941   5.733 -2.2786  1.2397  0.2174
  783SOL    MW4 2906   0.529   2.015   5.698 -0.1007  0.3461  0.0447
  784SOL     OW 2907   0.565   4.505   0.337  0.1217 -0.5862  0.4791
  784SOL    HW2 2908   0.493   4.444   0.355 -2.1519  2.0095  0.8236
  784SOL    HW3 2909   0.523   4.591   0.332  3.1807  1.0329  0.2489
  784SOL    MW4 2910   0.550   4.508   0.339  0.2253 -0.0301  0.4942
  785SOL     OW 2911   0.574   2.585   3.827  0.0881  0.3089  0.7406
  785SOL    HW2 2912   0.558   2.680   3.830 -1.3774  0.1472 -0.7657
  785SOL    HW3 2913   0.632   2.573   3.752 -0.2164 -0.0500  0.5648
  785SOL    MW4 2914   0.579   2.596   3.818 -0.1454  0.2402  0.5186
  786SOL     OW 2915   5.312   0.254   5.877 -0.2724  0.4157  0.3556
  786SOL    HW2 2916   5.346   0.164   5.875  2.0607  1.2520  0.3839
  786SOL    HW3 2917   5.219   0.244   5.853 -0.0203 -1.9507  0.0625
  786SOL    MW4 2918   5.304   0.241   5.874  0.0686  0.2138  0.3206
  787SOL     OW 2919   1.220   3.495   4.162 -0.3025  0.2389  0.1905
  787SOL    HW2 2920   1.288   3.530   4.104  0.0710  0.5496  0.8033
  787SOL    HW3 2921   1.242   3.530   4.248 -1.4382  0.6078  0.3388
  787SOL    MW4 2922   1.232   3.504   4.166 -0.4030  0.3286  0.2909
  788SOL     OW 2923   1.860   0.715   5.101  0.0169  0.1911  0.1678
  788SOL    HW2 2924   1.943   0.706   5.053 -0.1973 -0.3712 -0.1095
  788SOL    HW3 2925   1.811   0.635   5.079 -1.0096  0.9650 -0.4679
  788SOL    MW4 2926   1.864   0.703   5.092 -0.1468  0.2190  0.0474
  789SOL     OW 2927   2.458   0.988   4.281 -0.1055 -0.0721 -0.2754
  789SOL    HW2 2928   2.428   0.982   4.190 -2.0788 -0.2357  0.3477
  789SOL    HW3 2929   2.404   1.056   4.320  1.7394  1.0569  0.4409
  789SOL    MW4 2930   2.447   0.996   4.274 -0.1225  0.0553 -0.0987
  790SOL     OW 2931   5.689   4.347   4.877  0.3809  0.6252 -0.4837
  790SOL    HW2 2932   5.758   4.283   4.860  2.5528  2.7904 -0.3030
  790SOL    HW3 2933   5.702   4.415   4.811  0.3051  2.4718  1.2823
  790SOL    MW4 2934   5.700   4.347   4.866  0.6574  1.1545 -0.2269
  791SOL     OW 2935   2.830   4.265   6.135 -1.0299  0.6537 -0.4873
  791SOL    HW2 2936   2.848   4.349   6.092 -0.0121  0.7066 -0.0143
  791SOL    HW3 2937   2.872   4.274   6.221  1.6209 -1.3299 -1.4224
  791SOL    MW4 2938   2.838   4.278   6.141 -0.5458  0.3990 -0.5483
  792SOL     OW 2939   0.746   5.255   5.912 -0.7089  0.1424 -0.4153
  792SOL    HW2 2940   0.671   5.200   5.888  0.4381 -1.9935  0.6653
  792SOL    HW3 2941   0.822   5.197   5.903  0.3834  0.9635  2.5407
  792SOL    MW4 2942   0.746   5.240   5.907 -0.4135 -0.0311  0.1173
  793SOL     OW 2943   3.371   3.139   3.872  0.7566  0.1241  0.1031
  793SOL    HW2 2944   3.345   3.142   3.964 -1.2327 -2.5848 -0.2532
  793SOL    HW3 2945   3.324   3.212   3.831 -0.7623 -0.4781  0.7275
  793SOL    MW4 2946   3.362   3.149   3.879  0.2937 -0.3128  0.1385
  794SOL     OW 2947   4.825   0.891   4.973  0.1346 -0.1374 -0.2754
  794SOL    HW2 2948   4.918   0.872   4.963  0.3325  1.1282 -1.1600
  794SOL    HW3 2949   4.784   0.852   4.896  0.2804  1.2073 -1.0809
  794SOL    MW4 2950   4.832   0.884   4.961  0.1800  0.2070 -0.4984
  795SOL     OW 2951   2.904   4.918   4.868 -0.3994 -0.0833 -0.1138
  795SOL    HW2 2952   2.944   4.956   4.790  1.3966 -1.4245  0.0940
  795SOL    HW3 2953   2.885   4.994   4.925  0.2218  0.7266 -0.9626
  795SOL    MW4 2954   2.906   4.933   4.865 -0.0805 -0.1534 -0.1983
  796SOL     OW 2955   1.687   5.829   1.973 -0.2197 -0.3176 -0.4973
  796SOL    HW2 2956   1.646   5.743   1.966 -1.0662  0.0555 -0.2362
  796SOL    HW3 2957   1.777   5.815   1.942 -0.0181 -1.5271  0.5194
  796SOL    MW4 2958   1.693   5.816   1.968 -0.3048 -0.4279 -0.3287
  797SOL     OW 2959   1.233   4.978   5.017  0.0009 -0.1905  0.3620
  797SOL    HW2 2960   1.258   4.969   5.109  2.2414  0.4540 -0.1279
  797SOL    HW3 2961   1.209   5.070   5.008 -0.5089 -0.3209  0.3464
  797SOL    MW4 2962   1.233   4.989   5.028  0.2292 -0.1227  0.2953
  798SOL     OW 2963   3.356   3.668   2.665  0.0603 -0.1024  0.0883
  798SOL    HW2 2964   3.295   3.716   2.720  2.8084  0.7899  2.6501
  798SOL    HW3 2965   3.375   3.588   2.715  1.2877 -0.1258 -0.3763
  798SOL    MW4 2966   3.350   3.664   2.679  0.5848  0.0122  0.3650
  799SOL     OW 2967   0.453   3.343   4.840 -0.2514  0.4496 -0.1421
  799SOL    HW2 2968   0.472   3.411   4.775 -2.6206 -1.0534 -2.6049
  799SOL    HW3 2969   0.538   3.304   4.860  0.5620  0.8385 -2.5543
  799SOL    MW4 2970   0.467   3.347   4.834 -0.4567  0.3026 -0.7853
  800SOL     OW 2971   6.058   4.854   3.856 -0.0614  0.0939 -0.2114
  800SOL    HW2 2972   5.979   4.907   3.866 -0.8726 -1.2505  0.9125
  800SOL    HW3 2973   6.121   4.892   3.918  0.0267  0.8990 -0.7913
  800SOL    MW4 2974   6.056   4.866   3.866 -0.1568  0.0228 -0.1396
  801SOL     OW 2975   6.132   3.334   1.652  0.1517  0.3182  0.0119
  801SOL    HW2 2976   6.179   3.399   1.600  1.7699 -0.5006  0.3866
  801SOL    HW3 2977   6.199   3.273   1.681 -1.0588 -0.5353  1.1604
  801SOL    MW4 2978   6.147   3.334   1.649  0.2055  0.0975  0.2129
  802SOL     OW 2979   3.829   3.172   5.333 -0.3780 -0.0664  0.1552
  802SOL    HW2 2980   3.863   3.162   5.245  0.8461 -0.5323  0.6639
  802SOL    HW3 2981   3.856   3.259   5.360  1.8449 -0.9918  1.1233
  802SOL    MW4 2982   3.837   3.182   5.325  0.0768 -0.2499  0.3500
  803SOL     OW 2983   3.834   0.420   3.877 -0.7538 -0.3973 -0.0429
  803SOL    HW2 2984   3.813   0.384   3.791 -0.5642  0.6796 -0.5545
  803SOL    HW3 2985   3.770   0.490   3.889  1.7057  2.2076 -1.1318
  803SOL    MW4 2986   3.823   0.424   3.867 -0.4043  0.0885 -0.2540
  804SOL     OW 2987   0.868   0.550   5.462 -0.0485  0.1713  0.6896
  804SOL    HW2 2988   0.937   0.606   5.496  1.9187 -1.1200 -0.9483
  804SOL    HW3 2989   0.840   0.498   5.537 -0.0839  1.4958  1.6312
  804SOL    MW4 2990   0.873   0.551   5.476  0.2064  0.1757  0.5977
  805SOL     OW 2991   0.702   5.683   1.526  0.4456  0.2794 -0.0017
  805SOL    HW2 2992   0.773   5.623   1.548  0.7173  0.6971  0.2813
  805SOL    HW3 2993   0.625   5.627   1.517  0.5248 -0.0156  1.0456
  805SOL    MW4 2994   0.701   5.668   1.528  0.4919  0.2956  0.1738
  806SOL     OW 2995   3.794   3.086   3.290 -0.4113  0.1221  0.2739
  806SOL    HW2 2996   3.877   3.049   3.320 -0.8316 -1.4942 -0.4564
  806SOL    HW3 2997   3.808   3.103   3.197 -1.6685 -2.6739 -0.5160
  806SOL    MW4 2998   3.807   3.083   3.282 -0.6326 -0.4601  0.0733
  807SOL     OW 2999   5.829   1.866   6.410 -0.0142  0.5670  0.0965
  807SOL    HW2 3000   5.907   1.922   6.406  1.1194 -0.9435  0.4432
  807SOL    HW3 3001   5.831   1.816   6.328  0.0652 -0.3543  0.6489
  807SOL    MW4 3002   5.840   1.867   6.398  0.1458  0.2461  0.2151
  808SOL     OW 3003   1.328   5.340   1.416 -0.3497  0.5720 -0.2693
  808SOL    HW2 3004   1.401   5.359   1.476  0.5031 -0.7324 -0.8414
  808SOL    HW3 3005   1.370   5.301   1.339 -1.7391 -1.3347 -0.1323
  808SOL    MW4 3006   1.343   5.337   1.414 -0.4205  0.1483 -0.3267
  809SOL     OW 3007   3.508   4.162   4.381  0.1174 -0.3519 -0.0410
  809SOL    HW2 3008   3.555   4.118   4.451 -0.4582 -2.2404 -0.7724
  809SOL    HW3 3009   3.544   4.123   4.301  0.4058  1.3879 -0.8058
  809SOL    MW4 3010   3.519   4.151   4.379  0.0795 -0.3716 -0.2384
  810SOL     OW 3011   5.017   5.775   1.649 -0.1310 -0.4866  0.1393
  810SOL    HW2 3012   5.098   5.758   1.696  1.0077  0.7277 -1.2682
  810SOL    HW3 3013   5.001   5.869   1.661 -1.2340 -0.6672  0.2336
  810SOL    MW4 3014   5.025   5.785   1.657 -0.1263 -0.3502 -0.0339
  811SOL     OW 3015   4.990   0.937   3.031 -0.6541  0.4310  0.5028
  811SOL    HW2 3016   4.980   0.890   3.114  0.0063  3.3915  2.3833
  811SOL    HW3 3017   5.032   1.020   3.055 -0.4743  1.4330 -2.8117
  811SOL    MW4 3018   4.994   0.941   3.045 -0.5433  0.9538  0.3136
  812SOL     OW 3019   4.821   6.309   3.225 -0.1187  0.2894  0.2666
  812SOL    HW2 3020   4.807   6.316   3.319  0.0962  0.3237  0.2954
  812SOL    HW3 3021   4.854   6.220   3.212  2.1159  1.0305  0.5020
  812SOL    MW4 3022   4.823   6.298   3.236  0.2045  0.3917  0.3014
  813SOL     OW 3023   4.936   1.521   1.040 -0.7684 -0.5784  0.2828
  813SOL    HW2 3024   4.849   1.500   1.006  0.4677 -2.8927 -1.8428
  813SOL    HW3 3025   4.923   1.532   1.134 -3.0334 -3.1723  0.4112
  813SOL    MW4 3026   4.923   1.520   1.048 -0.9042 -1.2260  0.0193
  814SOL     OW 3027   4.846   3.611   0.563 -0.1207 -0.8205 -0.1815
  814SOL    HW2 3028   4.789   3.644   0.493  0.3855 -0.3306 -0.3747
  814SOL    HW3 3029   4.838   3.677   0.632 -1.0325 -1.5681  0.4605
  814SOL    MW4 3030   4.837   3.624   0.562 -0.1742 -0.8545 -0.1223
  815SOL     OW 3031   1.467   1.111   5.727 -0.1936 -0.2109  0.2681
  815SOL    HW2 3032   1.442   1.019   5.722  0.9023 -0.5781  1.1857
  815SOL    HW3 3033   1.444   1.138   5.816 -1.2527  0.6571 -0.2320
  815SOL    MW4 3034   1.460   1.103   5.738 -0.1888 -0.1448  0.3232
  816SOL     OW 3035   0.979   3.918   0.509 -0.1940 -0.3961  0.3701
  816SOL    HW2 3036   1.015   3.938   0.423 -0.0897 -1.2985  0.1924
  816SOL    HW3 3037   0.889   3.888   0.492 -0.5629  0.5093  0.6833
  816SOL    MW4 3038   0.972   3.916   0.495 -0.2289 -0.3957  0.3880
  817SOL     OW 3039   3.259   5.932   2.582  0.0667  0.1542  0.9112
  817SOL    HW2 3040   3.320   5.885   2.525 -1.9384 -1.0309 -0.4136
  817SOL    HW3 3041   3.227   5.866   2.643 -0.7977  0.4210  0.7665
  817SOL    MW4 3042   3.263   5.917   2.582 -0.3119  0.0330  0.7173
  818SOL     OW 3043   6.392   0.647   0.510 -0.2999 -0.0108  0.1201
  818SOL    HW2 3044   6.476   0.683   0.482 -0.0707  0.4165  1.2832
  818SOL    HW3 3045   6.327   0.705   0.471  0.0218  0.8478  0.8227
  818SOL    MW4 3046   6.395   0.659   0.501 -0.2272  0.1589  0.3662
  819SOL     OW 3047   5.116   4.944   1.313  0.3451 -0.1508  0.3898
  819SOL    HW2 3048   5.033   4.987   1.332 -0.1980 -1.1400  0.3249
  819SOL    HW3 3049   5.112   4.923   1.219  0.0848 -1.3544  0.6427
  819SOL    MW4 3050   5.105   4.947   1.303  0.2391 -0.4401  0.4146
  820SOL     OW 3051   3.076   2.086   1.391 -0.2957 -0.5409  0.2039
  820SOL    HW2 3052   2.981   2.074   1.397 -0.5277  0.2105 -1.5494
  820SOL    HW3 3053   3.088   2.147   1.319  1.3343  2.1329  2.5257
  820SOL    MW4 3054   3.065   2.093   1.383 -0.1112 -0.0889  0.2789
  821SOL     OW 3055   2.623   2.195   4.008  0.5331  0.0526 -0.2271
  821SOL    HW2 3056   2.623   2.143   3.927  1.5880 -2.2832  1.1632
  821SOL    HW3 3057   2.668   2.276   3.984  1.6409 -0.9547 -1.7800
  821SOL    MW4 3058   2.629   2.199   3.994  0.8185 -0.3885 -0.2486
  822SOL     OW 3059   1.546   2.333   3.595  0.4091 -0.0922  0.2999
  822SOL    HW2 3060   1.570   2.250   3.552  1.7164  1.1044 -1.4285
  822SOL    HW3 3061   1.622   2.390   3.581 -1.6251  2.4341 -1.4014
  822SOL    MW4 3062   1.559   2.330   3.587  0.3132  0.3990 -0.1526
  823SOL     OW 3063   2.463   2.098   1.625 -0.1407 -0.2413  0.3101
  823SOL    HW2 3064   2.472   2.185   1.664 -0.5250 -0.2221  0.3607
  823SOL    HW3 3065   2.423   2.115   1.540  1.5391 -0.1919 -0.5164
  823SOL    MW4 3066   2.459   2.112   1.619  0.0303 -0.2323  0.2077
  824SOL     OW 3067   4.482   5.162   6.342 -0.3348 -0.4890  0.3901
  824SOL    HW2 3068   4.399   5.194   6.376  0.2631 -0.1660  1.5869
  824SOL    HW3 3069   4.486   5.070   6.369  1.1575  0.3187  3.3725
  824SOL    MW4 3070   4.472   5.154   6.350 -0.0590 -0.3398  0.9415
  825SOL     OW 3071   0.069   3.984   1.314  0.2278 -0.1049  0.1524
  825SOL    HW2 3072   0.052   4.007   1.406 -1.5886 -1.9047  0.3399
  825SOL    HW3 3073   0.124   3.906   1.320  0.6225  0.1335 -0.3295
  825SOL    MW4 3074   0.074   3.977   1.327  0.0402 -0.3109  0.1135
  826SOL     OW 3075   0.023   1.898   1.365  0.5249  0.2649 -0.5177
  826SOL    HW2 3076   0.077   1.935   1.435  0.6298  0.2828 -0.6085
  826SOL    HW3 3077   0.000   1.810   1.396  0.6723  0.2274 -0.5157
  826SOL    MW4 3078   0.027   1.891   1.378  0.5582  0.2623 -0.5294
  827SOL     OW 3079   2.788   0.124   1.074 -0.4480 -0.0881 -0.7113
  827SOL    HW2 3080   2.737   0.168   1.006 -1.8307  0.0636  0.3690
  827SOL    HW3 3081   2.864   0.180   1.088 -1.8916  1.7510  0.2551
  827SOL    MW4 3082   2.791   0.137   1.067 -0.8209  0.1746 -0.4412
  828SOL     OW 3083   1.169   3.773   1.141 -0.3732  0.0248  0.2531
  828SOL    HW2 3084   1.254   3.782   1.098 -0.6258  0.3100 -0.2016
  828SOL    HW3 3085   1.181   3.812   1.227 -0.4240  1.3909 -0.3220
  828SOL    MW4 3086   1.182   3.779   1.146 -0.4132  0.2427  0.1172
  829SOL     OW 3087   2.093   5.512   0.809 -0.3951  0.2619  0.5486
  829SOL    HW2 3088   2.179   5.553   0.802  0.0985 -0.8628 -0.4122
  829SOL    HW3 3089   2.076   5.477   0.721 -1.2526 -0.6426  1.0488
  829SOL    MW4 3090   2.102   5.513   0.796 -0.4431 -0.0058  0.4878
  830SOL     OW 3091   4.076   3.288   2.463  0.5266  0.0413  0.7451
  830SOL    HW2 3092   4.110   3.364   2.509 -0.0662  0.6164  0.2625
  830SOL    HW3 3093   4.151   3.253   2.415  1.0224 -0.2571  1.7208
  830SOL    MW4 3094   4.091   3.293   2.463  0.5138  0.0778  0.8102
  831SOL     OW 3095   2.585   4.814   4.007 -0.3520 -0.1484  0.5347
  831SOL    HW2 3096   2.572   4.721   4.026  0.4086 -0.5559 -0.8291
  831SOL    HW3 3097   2.679   4.827   4.012 -0.2025 -0.0616 -1.8078
  831SOL    MW4 3098   2.595   4.804   4.010 -0.2319 -0.1907  0.0457
  832SOL     OW 3099   0.885   3.261   0.906 -0.3090 -0.3530  0.4332
  832SOL    HW2 3100   0.949   3.212   0.958  1.2024  0.5299 -0.5449
  832SOL    HW3 3101   0.839   3.315   0.971  1.2026  0.3642  0.9780
  832SOL    MW4 3102   0.887   3.262   0.922  0.0899 -0.1419  0.3760
  833SOL     OW 3103   2.618   2.979   2.175  0.5014  0.3076 -0.3560
  833SOL    HW2 3104   2.659   2.899   2.207 -0.2039  0.9019  2.2916
  833SOL    HW3 3105   2.678   3.049   2.203  0.0885  0.8499 -0.7957
  833SOL    MW4 3106   2.631   2.978   2.183  0.3539  0.4576 -0.0647
  834SOL     OW 3107   1.170   5.380   4.124 -0.3659  0.0117  0.2047
  834SOL    HW2 3108   1.161   5.375   4.029  0.6324  0.1500  0.0880
  834SOL    HW3 3109   1.262   5.357   4.140 -0.7986 -1.1159  1.2284
  834SOL    MW4 3110   1.181   5.376   4.113 -0.2913 -0.1189  0.3244
  835SOL     OW 3111   0.689   6.300   2.829  0.0718 -0.1012 -0.5727
  835SOL    HW2 3112   0.698   6.207   2.852  0.2084 -0.4409 -1.9336
  835SOL    HW3 3113   0.596   6.311   2.811 -0.2308  0.4252  1.1097
  835SOL    MW4 3114   0.678   6.289   2.830  0.0499 -0.0766 -0.5303
  836SOL     OW 3115   4.567   4.132   2.969 -0.2937  0.5982 -0.0667
  836SOL    HW2 3116   4.573   4.222   2.939  1.5803  0.6496  0.3754
  836SOL    HW3 3117   4.657   4.100   2.969 -0.7286 -0.7490  1.3494
  836SOL    MW4 3118   4.580   4.139   2.965 -0.1038  0.4272  0.1785
  837SOL     OW 3119   1.283   1.385   2.604  0.3278 -0.0274  0.1656
  837SOL    HW2 3120   1.236   1.468   2.614  0.6559  0.1356  0.3910
  837SOL    HW3 3121   1.287   1.349   2.693  0.8843  0.1027  0.1976
  837SOL    MW4 3122   1.278   1.391   2.617  0.4445  0.0113  0.1995
  838SOL     OW 3123   4.110   3.740   6.217  0.1583  0.5502 -0.0567
  838SOL    HW2 3124   4.184   3.752   6.276  0.4053  0.5844 -0.3690
  838SOL    HW3 3125   4.033   3.737   6.274  0.5332 -1.0657  0.4092
  838SOL    MW4 3126   4.109   3.741   6.232  0.2404  0.3415 -0.0365
  839SOL     OW 3127   3.148   3.538   4.388  0.1273 -0.3646 -0.5642
  839SOL    HW2 3128   3.205   3.613   4.404 -1.8921  0.8631  1.3592
  839SOL    HW3 3129   3.156   3.522   4.294  0.0392  2.8068 -1.2299
  839SOL    MW4 3130   3.157   3.546   4.378 -0.1508  0.2158 -0.3983
  840SOL     OW 3131   4.806   6.118   1.222  0.3182 -0.6364  0.0163
  840SOL    HW2 3132   4.802   6.165   1.305  0.3676 -1.3282  0.4173
  840SOL    HW3 3133   4.830   6.184   1.158  0.6523 -0.1719  0.6143
  840SOL    MW4 3134   4.808   6.133   1.224  0.3688 -0.6664  0.1481
  841SOL     OW 3135   0.492   2.965   1.562  0.4702 -0.0580  0.3461
  841SOL    HW2 3136   0.459   3.050   1.533  0.3606  0.0584  0.8090
  841SOL    HW3 3137   0.422   2.929   1.616  0.6072 -0.3445  0.3335
  841SOL    MW4 3138   0.479   2.972   1.565  0.4738 -0.0804  0.4055
  842SOL     OW 3139   3.519   4.405   5.191  0.6388 -0.0614 -0.1910
  842SOL    HW2 3140   3.527   4.315   5.160  2.2477  0.8247 -2.6702
  842SOL    HW3 3141   3.438   4.437   5.152  1.2414  0.2199 -1.2396
  842SOL    MW4 3142   3.509   4.398   5.182  0.9306  0.0926 -0.6565
  843SOL     OW 3143   5.927   5.275   4.007 -0.5019 -0.0384  0.4937
  843SOL    HW2 3144   6.013   5.279   3.966 -0.6241  2.6102  0.2996
  843SOL    HW3 3145   5.890   5.192   3.977  0.8813  0.0699 -1.7722
  843SOL    MW4 3146   5.933   5.265   3.997 -0.3355  0.3254  0.1691
  844SOL     OW 3147   5.015   0.513   2.905 -0.0005  0.4172  0.7462
  844SOL    HW2 3148   5.035   0.457   2.980 -1.6468 -0.8626  0.2979
  844SOL    HW3 3149   5.079   0.488   2.839  0.1969  0.1199  1.0470
  844SOL    MW4 3150   5.026   0.502   2.906 -0.1917  0.2091  0.7267
  845SOL     OW 3151   5.552   5.775   5.933 -0.3398  0.8167  0.4379
  845SOL    HW2 3152   5.573   5.767   6.026 -1.0077 -2.0569  0.4415
  845SOL    HW3 3153   5.583   5.694   5.894 -0.3540  1.8253 -1.8270
  845SOL    MW4 3154   5.559   5.763   5.940 -0.4298  0.5707  0.1396
  846SOL     OW 3155   1.103   4.737   5.968 -0.3839  0.8430 -0.3777
  846SOL    HW2 3156   1.018   4.694   5.960 -1.1097  2.2134 -0.4085
  846SOL    HW3 3157   1.134   4.746   5.877  0.2254 -0.4063 -0.3242
  846SOL    MW4 3158   1.096   4.732   5.955 -0.3993  0.8590 -0.3747
  847SOL     OW 3159   4.708   4.098   2.636 -0.4452 -0.0558  0.5537
  847SOL    HW2 3160   4.638   4.046   2.675 -0.1875 -0.8269  0.0297
  847SOL    HW3 3161   4.762   4.126   2.710 -1.1384  0.3012  0.9299
  847SOL    MW4 3162   4.706   4.095   2.651 -0.5027 -0.1104  0.5342
  848SOL     OW 3163   1.767   6.465   0.442 -0.2018 -0.0327 -0.3112
  848SOL    HW2 3164   1.735   6.529   0.378 -1.5445  1.5828  1.8288
  848SOL    HW3 3165   1.842   6.508   0.482  1.3974 -1.5418 -1.5387
  848SOL    MW4 3166   1.773   6.479   0.439 -0.1680 -0.0187 -0.1908
  849SOL     OW 3167   3.514   3.662   1.349 -0.0550 -0.6812  0.0896
  849SOL    HW2 3168   3.497   3.686   1.440  3.7532  1.9149  0.3115
  849SOL    HW3 3169   3.583   3.596   1.354 -0.1351 -0.8550 -0.9144
  849SOL    MW4 3170   3.521   3.656   1.361  0.4369 -0.3616 -0.0136
  850SOL     OW 3171   5.525   1.738   4.773  0.2581 -0.3076  0.1552
  850SOL    HW2 3172   5.495   1.652   4.744  1.1711 -0.3806 -0.6367
  850SOL    HW3 3173   5.452   1.797   4.754  0.0836 -0.7057 -0.4387
  850SOL    MW4 3174   5.511   1.734   4.766  0.3556 -0.3698 -0.0276
  851SOL     OW 3175   6.280   2.345   5.307  0.3209  0.0793 -0.4024
  851SOL    HW2 3176   6.355   2.298   5.343 -0.5587 -0.1132  1.2333
  851SOL    HW3 3177   6.280   2.429   5.353 -0.6717 -0.0713 -0.1029
  851SOL    MW4 3178   6.290   2.350   5.318  0.0739  0.0340 -0.1471
  852SOL     OW 3179   5.838   4.321   1.492 -0.7035  0.0948 -0.3637
  852SOL    HW2 3180   5.873   4.251   1.436  1.1073  1.4490 -1.0240
  852SOL    HW3 3181   5.763   4.281   1.536  0.5183 -2.4174 -0.3509
  852SOL    MW4 3182   5.833   4.307   1.491 -0.3034 -0.0580 -0.4492
  853SOL     OW 3183   3.632   5.089   2.773  0.2296 -0.0217  0.5316
  853SOL    HW2 3184   3.694   5.057   2.708 -0.5319  0.4159 -0.4325
  853SOL    HW3 3185   3.685   5.105   2.851  1.4357  0.8633 -0.4334
  853SOL    MW4 3186   3.647   5.087   2.775  0.2883  0.1528  0.2771
  854SOL     OW 3187   1.099   4.649   0.869 -0.1699  0.0985 -0.1266
  854SOL    HW2 3188   1.048   4.725   0.899 -0.6814 -0.6822  1.0628
  854SOL    HW3 3189   1.034   4.579   0.858  0.3900 -0.3710 -0.5104
  854SOL    MW4 3190   1.083   4.650   0.872 -0.1635 -0.0665 -0.0203
  855SOL     OW 3191   3.772   6.245   6.435 -0.0105 -0.2089  0.4367
  855SOL    HW2 3192   3.772   6.150   6.452 -0.4350  0.0720  2.2527
  855SOL    HW3 3193   3.781   6.252   6.340  0.6794 -2.0586  0.3074
  855SOL    MW4 3194   3.773   6.233   6.425  0.0245 -0.4159  0.6593
  856SOL     OW 3195   2.741   3.473   2.738 -0.2855  0.0082  0.4632
  856SOL    HW2 3196   2.687   3.412   2.789  0.2113  2.3993  4.2818
  856SOL    HW3 3197   2.679   3.539   2.706 -0.4801 -1.0570 -1.4715
  856SOL    MW4 3198   2.726   3.474   2.740 -0.2456  0.1831  0.7118
  857SOL     OW 3199   4.567   4.900   6.389  0.2920  0.2454  0.0934
  857SOL    HW2 3200   4.639   4.904   6.453  0.7314  0.2490 -0.3961
  857SOL    HW3 3201   4.542   4.807   6.388  0.7003  0.1327 -0.1758
  857SOL    MW4 3202   4.574   4.888   6.397  0.4038  0.2310 -0.0067
  858SOL     OW 3203   2.170   0.252   4.776 -0.0305 -0.0852  0.5360
  858SOL    HW2 3204   2.260   0.227   4.752 -1.0803 -2.4288 -1.4168
  858SOL    HW3 3205   2.147   0.318   4.711 -0.0707 -0.2977  0.3310
  858SOL    MW4 3206   2.179   0.257   4.764 -0.1743 -0.4225  0.2513
  859SOL     OW 3207   4.440   1.868   5.498 -0.0200  0.3003  0.0800
  859SOL    HW2 3208   4.377   1.796   5.497 -0.0500  0.2983  0.9577
  859SOL    HW3 3209   4.391   1.941   5.536  0.4442  0.3531  0.5866
  859SOL    MW4 3210   4.425   1.868   5.503  0.0373  0.3070  0.2627
  860SOL     OW 3211   3.731   5.759   2.716  0.1062 -0.5353  0.6515
  860SOL    HW2 3212   3.746   5.853   2.724 -1.0501 -0.1321 -1.2870
  860SOL    HW3 3213   3.636   5.751   2.704  0.3946 -1.6867 -1.4780
  860SOL    MW4 3214   3.720   5.771   2.715 -0.0083 -0.6340  0.1148
  861SOL     OW 3215   1.494   2.673   2.248 -0.5538 -0.6096 -0.2590
  861SOL    HW2 3216   1.452   2.620   2.315 -2.2679 -0.2870 -1.0060
  861SOL    HW3 3217   1.530   2.610   2.186  0.8597 -0.9031  0.8056
  861SOL    MW4 3218   1.493   2.658   2.248 -0.5934 -0.6058 -0.2171
  862SOL     OW 3219   2.512   0.582   5.257 -0.2363  0.1684 -0.3421
  862SOL    HW2 3220   2.541   0.638   5.329 -0.5249  0.1698 -0.2276
  862SOL    HW3 3221   2.578   0.512   5.253  0.8698  1.2057 -1.3182
  862SOL    MW4 3222   2.525   0.580   5.266 -0.1285  0.3054 -0.4558
  863SOL     OW 3223   4.858   2.787   6.194  0.5853  0.1233 -0.2301
  863SOL    HW2 3224   4.909   2.706   6.189  2.1256  1.0641 -0.4843
  863SOL    HW3 3225   4.819   2.786   6.281  0.3011 -1.0478 -0.3542
  863SOL    MW4 3226   4.860   2.776   6.205  0.7510  0.0929 -0.2800
  864SOL     OW 3227   5.494   5.444   0.926  0.0618  0.4041 -0.7900
  864SOL    HW2 3228   5.486   5.483   0.839 -1.7957  1.0919 -0.3790
  864SOL    HW3 3229   5.466   5.353   0.914  2.9987 -0.5116 -1.4737
  864SOL    MW4 3230   5.489   5.437   0.913  0.2042  0.3741 -0.8260
  865SOL     OW 3231   3.208   1.013   0.478  0.3145 -0.3165 -0.1375
  865SOL    HW2 3232   3.157   0.973   0.549  2.8862 -0.3946  1.8164
  865SOL    HW3 3233   3.279   0.951   0.461  2.0791  1.5129  0.1508
  865SOL    MW4 3234   3.211   1.000   0.485  0.8866 -0.0854  0.1583
  866SOL     OW 3235   4.001   2.609   4.760 -0.1005 -0.2562  0.7111
  866SOL    HW2 3236   3.993   2.547   4.687  2.5981  1.0790 -0.8971
  866SOL    HW3 3237   3.987   2.556   4.838  0.1854 -2.4806 -0.6498
  866SOL    MW4 3238   3.998   2.594   4.760  0.2933 -0.3735  0.3194
  867SOL     OW 3239   5.903   4.079   1.018 -0.2460 -0.1348 -0.1671
  867SOL    HW2 3240   5.837   4.109   1.080  0.3844  0.5189  0.1992
  867SOL    HW3 3241   5.960   4.155   1.004  1.0454 -0.9603  0.3359
  867SOL    MW4 3242   5.902   4.093   1.025  0.0076 -0.1574 -0.0524
  868SOL     OW 3243   3.216   2.782   3.466  0.0224  0.1813  0.1284
  868SOL    HW2 3244   3.199   2.873   3.489 -0.1629 -0.0430  0.9162
  868SOL    HW3 3245   3.131   2.748   3.438 -0.7353 -0.6635  3.1055
  868SOL    MW4 3246   3.203   2.790   3.465 -0.1020  0.0402  0.6251
  869SOL     OW 3247   1.279   2.037   4.441 -0.3840  0.2231  0.0223
  869SOL    HW2 3248   1.238   2.123   4.450  0.9796  0.7642  1.5331
  869SOL    HW3 3249   1.256   1.991   4.521 -1.2596 -0.9227 -0.8607
  869SOL    MW4 3250   1.271   2.042   4.453 -0.3196  0.1433  0.1051
  870SOL     OW 3251   4.899   1.558   1.310 -0.1835 -0.0679  0.3264
  870SOL    HW2 3252   4.833   1.625   1.327 -0.7819 -0.6010  0.1270
  870SOL    HW3 3253   4.872   1.483   1.363  0.2878 -0.2812  0.2731
  870SOL    MW4 3254   4.887   1.557   1.319 -0.2003 -0.1664  0.2931
  871SOL     OW 3255   3.396   0.501   3.960 -0.0181 -0.2856  0.1797
  871SOL    HW2 3256   3.484   0.530   3.935 -0.1599  1.3514  1.3886
  871SOL    HW3 3257   3.337   0.553   3.907 -0.2704 -0.1912  0.5471
  871SOL    MW4 3258   3.400   0.511   3.950 -0.0701 -0.0571  0.3877
  872SOL     OW 3259   0.015   3.638   5.935  0.5741 -0.1794  0.2956
  872SOL    HW2 3260  -0.019   3.691   5.864  0.7629 -0.5251 -0.0572
  872SOL    HW3 3261  -0.057   3.632   5.998  0.6340  0.6882  0.4554
  872SOL    MW4 3262   0.001   3.644   5.934  0.6069 -0.1105  0.2701
  873SOL     OW 3263   2.786   3.574   5.222 -0.1023 -0.0839  0.1648
  873SOL    HW2 3264   2.757   3.633   5.152 -0.6388 -0.7070 -0.1555
  873SOL    HW3 3265   2.881   3.572   5.215 -0.1691 -0.4577 -0.8235
  873SOL    MW4 3266   2.794   3.581   5.212 -0.1819 -0.2155 -0.0078
  874SOL     OW 3267   4.511   3.878   3.621  0.1877  0.0522  0.1640
  874SOL    HW2 3268   4.459   3.810   3.664  2.1188 -1.1327  0.8081
  874SOL    HW3 3269   4.450   3.922   3.561 -1.4896 -1.2656  0.8254
  874SOL    MW4 3270   4.496   3.875   3.618  0.2212 -0.2780  0.3362
  875SOL     OW 3271   5.491   2.039   3.863 -0.4922  0.4560 -0.6817
  875SOL    HW2 3272   5.569   2.072   3.908 -0.4417  0.9687 -1.1239
  875SOL    HW3 3273   5.526   1.989   3.789 -0.5540  1.7970 -1.6696
  875SOL    MW4 3274   5.506   2.037   3.859 -0.4937  0.7006 -0.8704
  876SOL     OW 3275   6.347   4.632   1.900 -0.6638 -0.0705  0.6210
  876SOL    HW2 3276   6.344   4.606   1.992 -2.0653 -0.9119  0.3707
  876SOL    HW3 3277   6.439   4.625   1.875 -0.5366 -1.6808  1.4562
  876SOL    MW4 3278   6.358   4.628   1.909 -0.8319 -0.3939  0.6982
  877SOL     OW 3279   2.894   6.155   1.422  0.1744 -0.0105  0.2012
  877SOL    HW2 3280   2.874   6.139   1.515 -1.4831  0.1244 -0.0983
  877SOL    HW3 3281   2.862   6.077   1.377  2.5641 -0.8684 -0.1210
  877SOL    MW4 3282   2.887   6.143   1.429  0.2710 -0.1059  0.1192
  878SOL     OW 3283   3.909   4.655   0.105  0.2671 -0.3322 -0.0343
  878SOL    HW2 3284   4.000   4.631   0.091  0.2980 -1.1936  1.5178
  878SOL    HW3 3285   3.896   4.733   0.051  2.1340  0.2550  0.3208
  878SOL    MW4 3286   3.919   4.662   0.096  0.5175 -0.3684  0.2173
  879SOL     OW 3287   5.921   4.450   0.050 -0.0609 -0.2505 -0.7369
  879SOL    HW2 3288   5.960   4.459  -0.037  0.8788  0.2826 -0.2809
  879SOL    HW3 3289   5.848   4.512   0.051  0.3615  0.2588 -0.9202
  879SOL    MW4 3290   5.916   4.460   0.039  0.1188 -0.1129 -0.7009
  880SOL     OW 3291   5.212   6.012   1.058  0.4934  0.3117  0.0653
  880SOL    HW2 3292   5.292   5.966   1.035  0.6256  0.3596  0.4244
  880SOL    HW3 3293   5.187   5.976   1.143 -0.1296 -0.0491 -0.2542
  880SOL    MW4 3294   5.219   6.001   1.066  0.4286  0.2704  0.0705
  881SOL     OW 3295   3.706   6.204   5.501  0.0972 -0.3106  0.0232
  881SOL    HW2 3296   3.713   6.110   5.516  0.8403 -0.1629  0.6025
  881SOL    HW3 3297   3.719   6.244   5.587 -0.0671  0.3326 -0.2422
  881SOL    MW4 3298   3.708   6.197   5.514  0.1735 -0.2063  0.0646
  882SOL     OW 3299   2.025   1.170   2.128 -0.1045  0.0227 -0.2768
  882SOL    HW2 3300   1.995   1.202   2.213  2.8266  0.0214  0.8904
  882SOL    HW3 3301   1.980   1.087   2.116  0.4951 -0.7213  2.0619
  882SOL    MW4 3302   2.015   1.163   2.138  0.3613 -0.0756  0.1858
  883SOL     OW 3303   3.557   1.023   5.679 -0.1648  0.5023 -0.0802
  883SOL    HW2 3304   3.595   0.967   5.747  0.2988  0.8733 -0.0318
  883SOL    HW3 3305   3.494   1.077   5.726  0.7923  1.3866  0.2338
  883SOL    MW4 3306   3.554   1.022   5.694  0.0226  0.6680 -0.0324
  884SOL     OW 3307   4.629   4.306   5.553 -1.1172 -0.2742  0.0847
  884SOL    HW2 3308   4.604   4.278   5.641  0.4539 -1.0133  0.3275
  884SOL    HW3 3309   4.640   4.401   5.561  1.4026 -0.5881  1.3777
  884SOL    MW4 3310   4.627   4.315   5.566 -0.5774 -0.4131  0.2873
  885SOL     OW 3311   0.709   1.162   2.041 -0.2046  0.1903  0.3024
  885SOL    HW2 3312   0.750   1.093   1.990  0.5655  0.2912  0.7737
  885SOL    HW3 3313   0.764   1.239   2.026 -1.8883  1.1381 -1.4386
  885SOL    MW4 3314   0.722   1.163   2.033 -0.3251  0.3287  0.1349
  886SOL     OW 3315   2.129   4.843   3.288 -0.1703  0.2205  0.2267
  886SOL    HW2 3316   2.036   4.864   3.293  0.1545  2.1597 -0.8984
  886SOL    HW3 3317   2.157   4.835   3.379 -1.2634  0.4105  0.5971
  886SOL    MW4 3318   2.120   4.845   3.300 -0.2717  0.5014  0.1271
  887SOL     OW 3319   4.799   1.272   5.315 -1.0871 -0.1803  0.0535
  887SOL    HW2 3320   4.886   1.237   5.338 -1.8261 -0.9679  1.8621
  887SOL    HW3 3321   4.817   1.341   5.252  0.9791  0.5222  1.3003
  887SOL    MW4 3322   4.813   1.276   5.310 -0.9120 -0.1915  0.4567
  888SOL     OW 3323   2.326   5.402   4.344 -0.2609  0.3034 -0.2346
  888SOL    HW2 3324   2.347   5.375   4.254 -1.5735 -3.2866  0.3970
  888SOL    HW3 3325   2.392   5.359   4.398  1.0010  3.0623  0.6093
  888SOL    MW4 3326   2.338   5.393   4.339 -0.2676  0.1938 -0.0399
  889SOL     OW 3327   2.397   4.575   0.295 -0.5271  0.0949  0.5114
  889SOL    HW2 3328   2.423   4.529   0.215 -2.3716 -0.8815  0.4283
  889SOL    HW3 3329   2.480   4.601   0.335  0.4796 -0.6785 -0.9756
  889SOL    MW4 3330   2.412   4.572   0.290 -0.6376 -0.1360  0.3043
  890SOL     OW 3331   4.649   4.997   4.289 -0.1599  0.5271  0.3254
  890SOL    HW2 3332   4.630   4.903   4.291  2.8434 -0.1605  1.5756
  890SOL    HW3 3333   4.613   5.031   4.371  0.6695  0.0016  0.9190
  890SOL    MW4 3334   4.642   4.989   4.300  0.3457  0.3670  0.5687
  891SOL     OW 3335   4.948   4.045   5.297  0.3696  0.0498 -0.0257
  891SOL    HW2 3336   4.863   4.030   5.256  1.3496 -1.9236 -1.5370
  891SOL    HW3 3337   4.939   4.130   5.341 -2.2769  0.0028 -0.2986
  891SOL    MW4 3338   4.935   4.054   5.298  0.1498 -0.2168 -0.2611
  892SOL     OW 3339   4.779   2.828   5.523 -0.2125 -0.1358  0.2443
  892SOL    HW2 3340   4.743   2.887   5.457 -3.6162 -1.7568  0.4615
  892SOL    HW3 3341   4.831   2.885   5.580 -1.9002  2.3625 -0.5483
  892SOL    MW4 3342   4.781   2.843   5.522 -0.8842 -0.0200  0.1684
  893SOL     OW 3343   4.993   6.483   4.509  0.1433 -0.0919 -0.3101
  893SOL    HW2 3344   4.901   6.468   4.488  0.0443 -0.3729  0.2944
  893SOL    HW3 3345   5.031   6.395   4.517  0.2905  0.0062  0.1475
  893SOL    MW4 3346   4.986   6.469   4.508  0.1497 -0.1160 -0.1700
  894SOL     OW 3347   1.709   3.986   4.201 -0.5129  0.0454  0.4327
  894SOL    HW2 3348   1.731   4.069   4.157  1.3761 -1.3559 -1.4899
  894SOL    HW3 3349   1.759   3.988   4.282 -1.3942  1.2328  0.9862
  894SOL    MW4 3350   1.718   3.997   4.206 -0.3800  0.0172  0.2521
  895SOL     OW 3351   3.696   3.828   3.460 -0.4176  0.5341 -0.1605
  895SOL    HW2 3352   3.711   3.734   3.471  0.5076  0.5087 -1.3598
  895SOL    HW3 3353   3.625   3.849   3.520 -0.3731 -0.8577  0.4064
  895SOL    MW4 3354   3.689   3.819   3.469 -0.2896  0.3472 -0.2440
  896SOL     OW 3355   4.153   5.547   0.378  0.1975 -0.6125  0.1252
  896SOL    HW2 3356   4.109   5.610   0.320  0.5947 -0.2321  0.2337
  896SOL    HW3 3357   4.210   5.496   0.319  1.5743  0.6200  0.3366
  896SOL    MW4 3358   4.155   5.548   0.363  0.4315 -0.3997  0.1674
  897SOL     OW 3359   5.798   0.543   6.216  0.0726 -0.6830 -0.0503
  897SOL    HW2 3360   5.866   0.476   6.215 -0.7486 -1.5344 -0.3596
  897SOL    HW3 3361   5.740   0.518   6.288  0.6143  0.6095  0.8843
  897SOL    MW4 3362   5.800   0.531   6.225  0.0357 -0.6248  0.0322
  898SOL     OW 3363   4.757   5.209   5.026  0.1935 -0.2168 -0.0990
  898SOL    HW2 3364   4.757   5.305   5.022 -1.8391 -0.1785 -0.5348
  898SOL    HW3 3365   4.763   5.189   5.120 -2.2423  0.4882  0.2933
  898SOL    MW4 3366   4.758   5.219   5.038 -0.3960 -0.1187 -0.1047
  899SOL     OW 3367   0.670   4.500   5.898  0.1697 -0.0675  0.1890
  899SOL    HW2 3368   0.641   4.460   5.816  0.0297  0.1498  0.1302
  899SOL    HW3 3369   0.632   4.445   5.967 -2.1568  1.3686  0.1507
  899SOL    MW4 3370   0.661   4.487   5.896 -0.1558  0.1507  0.1762
  900SOL     OW 3371   2.581   1.769   3.809  0.3244 -0.1210  0.5026
  900SOL    HW2 3372   2.600   1.733   3.723  0.5246  0.8228  0.1381
  900SOL    HW3 3373   2.613   1.859   3.805 -2.8971  1.1495  0.3380
  900SOL    MW4 3374   2.588   1.776   3.797 -0.0742  0.1712  0.4328
  901SOL     OW 3375   6.325   2.848   0.453  0.5145 -0.1521  0.0146
  901SOL    HW2 3376   6.376   2.768   0.447 -1.4777 -1.5650  0.9555
  901SOL    HW3 3377   6.390   2.918   0.445  2.1700 -1.7958 -2.0438
  901SOL    MW4 3378   6.340   2.847   0.451  0.4700 -0.5554 -0.1328
  902SOL     OW 3379   2.903   2.714   3.731  0.4181 -0.2074 -0.2653
  902SOL    HW2 3380   2.943   2.628   3.745  0.8381  0.1714  0.9204
  902SOL    HW3 3381   2.964   2.776   3.771  0.6832  0.7764 -2.0800
  902SOL    MW4 3382   2.917   2.711   3.738  0.5085 -0.0276 -0.3483
  903SOL     OW 3383   0.062   1.321   6.382  0.0183 -0.5578  0.1956
  903SOL    HW2 3384  -0.032   1.333   6.365  0.2325  0.7135 -0.2072
  903SOL    HW3 3385   0.065   1.276   6.467 -0.9668  1.5318  1.4361
  903SOL    MW4 3386   0.050   1.316   6.391 -0.0834 -0.1144  0.3061
  904SOL     OW 3387   3.551   6.274   0.991 -0.0429  0.1506 -0.4728
  904SOL    HW2 3388   3.591   6.339   0.933 -0.1170  0.6610  0.0316
  904SOL    HW3 3389   3.458   6.279   0.972 -0.0449  0.1695 -0.4577
  904SOL    MW4 3390   3.544   6.284   0.981 -0.0530  0.2204 -0.4043
  905SOL     OW 3391   1.044   2.312   4.671 -0.4287 -0.0037 -0.2650
  905SOL    HW2 3392   0.993   2.392   4.670 -1.7368 -0.7923 -2.1831
  905SOL    HW3 3393   1.111   2.325   4.604 -0.2997 -0.3075 -0.1994
  905SOL    MW4 3394   1.046   2.324   4.662 -0.5843 -0.1478 -0.5095
  906SOL     OW 3395   5.099   4.231   0.962 -0.1835  0.8576 -0.1323
  906SOL    HW2 3396   5.190   4.202   0.954 -0.9320 -1.8512  0.0818
  906SOL    HW3 3397   5.080   4.272   0.878  0.8235  0.1916 -0.7123
  906SOL    MW4 3398   5.109   4.233   0.950 -0.1494  0.4123 -0.1806
  907SOL     OW 3399   4.393   2.173   6.055 -0.2070  0.3875 -0.1761
  907SOL    HW2 3400   4.375   2.252   6.004  0.3347  1.8151  1.7257
  907SOL    HW3 3401   4.475   2.140   6.020 -1.0345 -0.0290 -1.7774
  907SOL    MW4 3402   4.402   2.179   6.044 -0.2447  0.5209 -0.1365
  908SOL     OW 3403   0.755   3.088   1.957 -0.4325 -0.0464 -0.1072
  908SOL    HW2 3404   0.771   3.001   1.920 -1.0806 -0.3728  0.3561
  908SOL    HW3 3405   0.792   3.148   1.893 -1.9111 -0.5716 -1.5206
  908SOL    MW4 3406   0.762   3.084   1.944 -0.7131 -0.1588 -0.2325
  909SOL     OW 3407   4.523   3.411   4.478 -0.0517 -0.0913 -0.0191
  909SOL    HW2 3408   4.586   3.462   4.428  2.0370 -1.7867  0.7131
  909SOL    HW3 3409   4.473   3.363   4.412  0.0506  0.5800 -0.5935
  909SOL    MW4 3410   4.525   3.412   4.463  0.2374 -0.2264  0.0017
  910SOL     OW 3411   5.720   5.297   2.963 -0.3066 -0.1431  0.5473
  910SOL    HW2 3412   5.804   5.276   2.923 -0.3358 -0.7341  0.7734
  910SOL    HW3 3413   5.739   5.367   3.025 -0.1116  0.2003  0.1047
  910SOL    MW4 3414   5.733   5.303   2.966 -0.2847 -0.1758  0.5187
  911SOL     OW 3415   4.094   1.375   4.191  0.0722  0.7463 -0.5408
  911SOL    HW2 3416   3.999   1.375   4.204  0.2210  2.1323  0.9043
  911SOL    HW3 3417   4.107   1.403   4.101 -0.8836  2.6417 -0.1382
  911SOL    MW4 3418   4.084   1.378   4.181 -0.0343  1.1792 -0.2970
  912SOL     OW 3419   4.651   6.194   4.535 -0.1754 -0.1338 -0.2296
  912SOL    HW2 3420   4.613   6.135   4.471 -0.2124 -1.4362  0.9453
  912SOL    HW3 3421   4.581   6.209   4.599 -0.5283  2.0802 -1.0347
  912SOL    MW4 3422   4.637   6.188   4.535 -0.2268 -0.0135 -0.1808
  913SOL     OW 3423   4.076   1.790   3.911  0.2733 -0.1308 -0.4935
  913SOL    HW2 3424   4.147   1.738   3.875  1.0142  0.6339 -0.1735
  913SOL    HW3 3425   4.117   1.845   3.978 -0.6669  0.1231 -0.0979
  913SOL    MW4 3426   4.091   1.791   3.915  0.2470  0.0036 -0.3991
  914SOL     OW 3427   2.196   2.271   2.643  0.2173  0.7000 -0.1724
  914SOL    HW2 3428   2.284   2.307   2.648 -0.2826  1.8588  1.2071
  914SOL    HW3 3429   2.161   2.305   2.561  0.6798  1.1820 -0.1755
  914SOL    MW4 3430   2.203   2.280   2.633  0.2123  0.9165  0.0092
  915SOL     OW 3431   5.148   3.186   5.938 -0.4657 -0.4428 -0.2445
  915SOL    HW2 3432   5.131   3.266   5.986 -0.8218  0.0901 -1.2149
  915SOL    HW3 3433   5.090   3.121   5.978 -0.8817  0.0330 -0.0670
  915SOL    MW4 3434   5.138   3.188   5.949 -0.5676 -0.3097 -0.3491
  916SOL     OW 3435   3.515   2.235   3.333  0.0480 -0.1979  0.3907
  916SOL    HW2 3436   3.463   2.311   3.307  0.9385 -0.2295 -1.6731
  916SOL    HW3 3437   3.581   2.270   3.393  0.2702  0.6219 -0.3138
  916SOL    MW4 3438   3.517   2.250   3.337  0.1948 -0.0939  0.0255
  917SOL     OW 3439   0.413   4.445   4.875  0.4309  0.0513 -0.3437
  917SOL    HW2 3440   0.439   4.443   4.783  0.8884 -0.1264 -0.2134
  917SOL    HW3 3441   0.351   4.518   4.881  0.3011 -0.0194 -0.8170
  917SOL    MW4 3442   0.408   4.455   4.864  0.4741  0.0186 -0.3890
  918SOL     OW 3443   6.188   6.291   2.558  0.3369  0.6436  0.4309
  918SOL    HW2 3444   6.121   6.345   2.599 -1.1961 -1.9364  1.5927
  918SOL    HW3 3445   6.261   6.291   2.620 -0.0369  0.6412  0.8736
  918SOL    MW4 3446   6.189   6.298   2.571  0.0853  0.3029  0.6426
  919SOL     OW 3447   4.956   1.726   4.172 -0.0007  0.6174  0.6329
  919SOL    HW2 3448   5.030   1.719   4.232  0.5435  0.1600 -0.0687
  919SOL    HW3 3449   4.908   1.644   4.182  0.7096  0.0606 -0.3259
  919SOL    MW4 3450   4.959   1.714   4.181  0.1648  0.4836  0.4138
  920SOL     OW 3451   0.638   1.827   4.302  0.2390  0.1570  0.5533
  920SOL    HW2 3452   0.601   1.814   4.389 -0.6407 -0.0262  0.1712
  920SOL    HW3 3453   0.714   1.769   4.298 -0.4337 -0.7665  0.7800
  920SOL    MW4 3454   0.643   1.818   4.313  0.0342  0.0110  0.5328
  921SOL     OW 3455   1.512   4.239   4.194 -0.5491 -0.7285 -0.0828
  921SOL    HW2 3456   1.469   4.194   4.267 -4.7061 -0.9926 -2.3527
  921SOL    HW3 3457   1.490   4.185   4.118 -1.6932  2.5384 -2.2863
  921SOL    MW4 3458   1.503   4.226   4.194 -1.2485 -0.3323 -0.6730
  922SOL     OW 3459   5.425   2.734   2.425  0.0517 -0.2532 -0.3681
  922SOL    HW2 3460   5.380   2.657   2.461 -0.0222 -0.3761 -0.7145
  922SOL    HW3 3461   5.490   2.697   2.365 -0.4877 -0.0284 -1.1090
  922SOL    MW4 3462   5.428   2.719   2.422 -0.0292 -0.2398 -0.5115
  923SOL     OW 3463   4.221   1.544   6.422  0.0134 -0.0217 -0.3319
  923SOL    HW2 3464   4.128   1.528   6.405 -0.0083  0.3086 -0.5471
  923SOL    HW3 3465   4.261   1.540   6.335 -0.0198  1.2152 -0.4218
  923SOL    MW4 3466   4.214   1.541   6.408  0.0062  0.1851 -0.3721
  924SOL     OW 3467   2.016   0.681   3.320  0.9286 -0.5450  0.5222
  924SOL    HW2 3468   2.070   0.721   3.251  1.9259 -1.0655  0.9953
  924SOL    HW3 3469   2.077   0.664   3.391  0.3238 -2.0252  0.7034
  924SOL    MW4 3470   2.031   0.684   3.320  0.9804 -0.8090  0.6085
  925SOL     OW 3471   6.035   5.467   4.865  0.8269  0.4157  0.4171
  925SOL    HW2 3472   6.076   5.540   4.818  1.3815  0.9995  1.7795
  925SOL    HW3 3473   6.059   5.480   4.956 -1.5742  0.2440  1.1585
  925SOL    MW4 3474   6.043   5.478   4.871  0.5833  0.4701  0.6946
  926SOL     OW 3475   5.877   4.262   4.064  0.4273 -0.2620  0.2629
  926SOL    HW2 3476   5.864   4.167   4.069 -0.1145 -0.1396  1.9942
  926SOL    HW3 3477   5.794   4.295   4.028 -0.3387 -0.2930  1.8938
  926SOL    MW4 3478   5.864   4.254   4.060  0.2548 -0.2500  0.7065
  927SOL     OW 3479   4.955   2.989   5.688 -0.7496  0.2865 -0.4104
  927SOL    HW2 3480   4.958   2.938   5.768 -2.7222 -0.5822 -0.8363
  927SOL    HW3 3481   5.035   2.965   5.641 -0.7103 -0.9644  0.2580
  927SOL    MW4 3482   4.966   2.979   5.692 -1.0047  0.0069 -0.3784
  928SOL     OW 3483   4.812   2.604   1.592  0.3125  0.2765 -0.1234
  928SOL    HW2 3484   4.763   2.687   1.599 -0.9227 -0.4326 -0.1137
  928SOL    HW3 3485   4.758   2.548   1.537  1.2172 -0.4854 -0.2679
  928SOL    MW4 3486   4.798   2.608   1.586  0.2689  0.0824 -0.1411
  929SOL     OW 3487   2.385   6.351   3.978 -0.0175 -0.3021 -0.1117
  929SOL    HW2 3488   2.293   6.378   3.986  0.0273 -0.1818 -0.0110
  929SOL    HW3 3489   2.393   6.278   4.040 -0.0299 -0.2745 -0.0771
  929SOL    MW4 3490   2.374   6.345   3.988 -0.0133 -0.2826 -0.0939
  930SOL     OW 3491   2.797   3.832   0.622  0.1344 -0.8007  0.3126
  930SOL    HW2 3492   2.847   3.767   0.572  1.9351  0.1331  0.7985
  930SOL    HW3 3493   2.844   3.838   0.706 -0.5624  0.4212  0.6399
  930SOL    MW4 3494   2.810   3.824   0.627  0.2800 -0.5163  0.4199
  931SOL     OW 3495   6.240   5.260   0.221  0.0759  0.3009  0.2699
  931SOL    HW2 3496   6.182   5.268   0.296 -0.2254  1.2523 -0.0381
  931SOL    HW3 3497   6.320   5.222   0.256 -0.4634 -0.3379  0.8421
  931SOL    MW4 3498   6.243   5.256   0.235 -0.0350  0.3421  0.3048
  932SOL     OW 3499   0.701   2.413   3.227  0.4339 -0.3276 -0.9498
  932SOL    HW2 3500   0.740   2.336   3.269 -0.1151  0.2606  0.7322
  932SOL    HW3 3501   0.733   2.410   3.137 -0.3799 -3.0783 -1.2481
  932SOL    MW4 3502   0.711   2.402   3.221  0.2541 -0.6129 -0.7672
  933SOL     OW 3503   3.128   2.792   2.453 -0.8350  0.3699  0.3926
  933SOL    HW2 3504   3.104   2.700   2.466  1.8289 -0.9945 -2.7790
  933SOL    HW3 3505   3.206   2.805   2.507  1.3634 -0.7322 -2.2745
  933SOL    MW4 3506   3.135   2.781   2.462 -0.1935  0.0445 -0.3777
  934SOL     OW 3507   4.124   1.399   3.923 -0.2195  0.7418  0.3796
  934SOL    HW2 3508   4.074   1.324   3.892  0.4313  0.0920  0.8531
  934SOL    HW3 3509   4.203   1.360   3.962  1.3849  1.7729 -1.6244
  934SOL    MW4 3510   4.128   1.384   3.924  0.0780  0.7921  0.1776
  935SOL     OW 3511   5.332   0.221   4.915  0.1648  0.4160  0.4930
  935SOL    HW2 3512   5.355   0.203   5.006 -1.2530 -0.0515  0.7780
  935SOL    HW3 3513   5.264   0.158   4.894  2.4383 -1.4763 -1.8459
  935SOL    MW4 3514   5.326   0.211   4.924  0.2777  0.1046  0.2220
  936SOL     OW 3515   1.180   2.988   2.480  0.7119 -0.0979 -0.4432
  936SOL    HW2 3516   1.211   2.908   2.520  2.7339  0.4074 -0.9037
  936SOL    HW3 3517   1.114   2.959   2.416 -0.2606 -1.1480  0.9841
  936SOL    MW4 3518   1.175   2.974   2.477  0.8504 -0.1698 -0.3156
  937SOL     OW 3519   5.120   2.823   5.826 -0.6253 -0.5475  0.1175
  937SOL    HW2 3520   5.117   2.746   5.770 -1.2676 -0.0028 -0.6183
  937SOL    HW3 3521   5.177   2.885   5.780  0.4058 -0.8063  1.0118
  937SOL    MW4 3522   5.127   2.821   5.812 -0.5740 -0.5098  0.1384
  938SOL     OW 3523   0.507   2.581   0.564  0.4163  0.0164  0.4073
  938SOL    HW2 3524   0.591   2.624   0.582  0.5970  0.3089 -1.0191
  938SOL    HW3 3525   0.527   2.487   0.568  1.1005  0.0764 -1.0668
  938SOL    MW4 3526   0.521   2.574   0.567  0.5304  0.0629  0.0246
  939SOL     OW 3527   3.442   5.496   4.578 -0.3281 -0.1130  0.2556
  939SOL    HW2 3528   3.438   5.481   4.673  0.4043  2.6707  0.8018
  939SOL    HW3 3529   3.481   5.582   4.569 -0.4854 -0.2570 -2.6206
  939SOL    MW4 3530   3.446   5.505   4.590 -0.2522  0.2353 -0.0518
  940SOL     OW 3531   5.658   5.100   0.695  0.1529 -0.3902 -0.1659
  940SOL    HW2 3532   5.616   5.164   0.638 -0.4695  0.2887  1.0428
  940SOL    HW3 3533   5.749   5.129   0.701 -0.0958  0.3017  0.2656
  940SOL    MW4 3534   5.665   5.112   0.688  0.0380 -0.2093  0.0505
  941SOL     OW 3535   3.825   5.421   6.437  0.1575 -0.0537  0.1387
  941SOL    HW2 3536   3.912   5.459   6.440  0.3658  0.1538 -3.7622
  941SOL    HW3 3537   3.840   5.327   6.429 -0.0436 -0.1412  0.7333
  941SOL    MW4 3538   3.838   5.413   6.436  0.1584 -0.0379 -0.2976
  942SOL     OW 3539   1.581   4.304   1.560  0.1326 -0.4188 -0.4578
  942SOL    HW2 3540   1.665   4.332   1.595  0.0144 -0.1767 -0.3659
  942SOL    HW3 3541   1.537   4.260   1.633  0.2161 -0.6240 -0.5311
  942SOL    MW4 3542   1.586   4.301   1.574  0.1280 -0.4139 -0.4553
  943SOL     OW 3543   3.558   3.386   3.894  0.5066  0.1786 -0.0827
  943SOL    HW2 3544   3.510   3.468   3.883 -1.7694 -1.1232 -0.4295
  943SOL    HW3 3545   3.502   3.320   3.855  1.5232 -1.7992  1.6131
  943SOL    MW4 3546   3.544   3.388   3.887  0.3404 -0.2541  0.0953
  944SOL     OW 3547   1.790   6.215   3.457  0.0972  0.5030 -0.2779
  944SOL    HW2 3548   1.806   6.228   3.550  0.5860 -0.2080 -0.2520
  944SOL    HW3 3549   1.851   6.275   3.413 -0.9766  1.7174 -0.1418
  944SOL    MW4 3550   1.800   6.225   3.463  0.0200  0.5694 -0.2566
  945SOL     OW 3551   4.936   2.611   2.404  0.1911  0.1040  1.0215
  945SOL    HW2 3552   4.888   2.541   2.447  1.5624 -1.7541 -0.2993
  945SOL    HW3 3553   5.005   2.566   2.355 -0.5496  2.1391 -2.1786
  945SOL    MW4 3554   4.939   2.596   2.403  0.2743  0.1274  0.4250
  946SOL     OW 3555   5.767   3.025   3.552 -0.3288 -0.3807  0.1043
  946SOL    HW2 3556   5.852   3.054   3.519  1.0038 -3.8786 -0.0222
  946SOL    HW3 3557   5.714   3.010   3.474 -0.3775 -0.0080  0.0676
  946SOL    MW4 3558   5.771   3.027   3.538 -0.1594 -0.7930  0.0828
  947SOL     OW 3559   2.919   3.664   2.833 -0.2797 -0.0509  0.2429
  947SOL    HW2 3560   2.950   3.612   2.908  0.5198  0.6550  0.4039
  947SOL    HW3 3561   2.868   3.601   2.781  1.6919 -1.3473 -0.2221
  947SOL    MW4 3562   2.916   3.649   2.836  0.0859 -0.1288  0.2028
  948SOL     OW 3563   5.262   3.657   4.672  0.0699 -0.2323  0.0445
  948SOL    HW2 3564   5.304   3.624   4.751  0.4536  1.1938  0.4637
  948SOL    HW3 3565   5.334   3.666   4.609 -0.0693 -0.3869 -0.1395
  948SOL    MW4 3566   5.277   3.654   4.674  0.1022 -0.0646  0.0756
  949SOL     OW 3567   1.790   2.456   6.089  0.0244 -0.4487  0.1965
  949SOL    HW2 3568   1.881   2.461   6.117 -0.3461  1.8793  1.2393
  949SOL    HW3 3569   1.792   2.477   5.996  0.4477  1.1806  0.5492
  949SOL    MW4 3570   1.802   2.459   6.080  0.0313  0.0734  0.3806
  950SOL     OW 3571   4.062   4.812   0.304  0.2067 -0.0649 -0.0960
  950SOL    HW2 3572   4.115   4.846   0.232 -0.5667  1.8767  0.1808
  950SOL    HW3 3573   4.012   4.741   0.266  0.9258 -0.0578 -1.0869
  950SOL    MW4 3574   4.063   4.807   0.290  0.1996  0.1922 -0.1902
  951SOL     OW 3575   1.615   1.483   1.919 -0.7268 -0.1219  0.1679
  951SOL    HW2 3576   1.586   1.393   1.931 -1.1325  0.2582  2.4735
  951SOL    HW3 3577   1.710   1.478   1.914 -0.8100 -0.7982 -1.4606
  951SOL    MW4 3578   1.624   1.471   1.920 -0.7913 -0.1610  0.2573
  952SOL     OW 3579   4.364   5.579   4.653 -0.0548 -0.1234  0.2971
  952SOL    HW2 3580   4.426   5.523   4.700  1.1109  0.7198 -0.1990
  952SOL    HW3 3581   4.348   5.534   4.571  0.1998 -0.1674  0.2699
  952SOL    MW4 3582   4.370   5.566   4.649  0.1326 -0.0179  0.2281
  953SOL     OW 3583   0.092   5.708   5.291 -0.4370 -0.0588 -0.2209
  953SOL    HW2 3584   0.173   5.673   5.327  0.3030  0.1722 -1.5797
  953SOL    HW3 3585   0.104   5.803   5.293 -1.6520  0.0987  1.6981
  953SOL    MW4 3586   0.104   5.716   5.296 -0.4997 -0.0075 -0.1470
  954SOL     OW 3587   2.686   1.287   1.483  0.4642  0.1093  0.0741
  954SOL    HW2 3588   2.628   1.246   1.418  0.1528  0.4033  0.1618
  954SOL    HW3 3589   2.769   1.299   1.436 -0.4811  2.6860 -1.1660
  954SOL    MW4 3590   2.689   1.283   1.468  0.2984  0.4881 -0.0779
  955SOL     OW 3591   2.160   5.012   6.246  0.0177 -0.3617  0.2123
  955SOL    HW2 3592   2.152   4.916   6.243  0.3810 -0.4265  1.2539
  955SOL    HW3 3593   2.162   5.033   6.339 -1.7331  0.8053  0.0392
  955SOL    MW4 3594   2.159   5.002   6.258 -0.1654 -0.2163  0.3269
  956SOL     OW 3595   1.444   4.656   3.589 -0.8159  0.1822  0.2218
  956SOL    HW2 3596   1.418   4.569   3.618  1.0513 -0.0617  1.2949
  956SOL    HW3 3597   1.468   4.703   3.669  3.3057 -0.1025 -0.6204
  956SOL    MW4 3598   1.444   4.651   3.604 -0.0257  0.1124  0.2523
  957SOL     OW 3599   5.357   2.665   1.129 -0.4006 -0.7751 -0.0708
  957SOL    HW2 3600   5.263   2.656   1.142 -0.5851  0.1353 -0.6524
  957SOL    HW3 3601   5.392   2.577   1.142 -0.9939 -0.6734  2.6276
  957SOL    MW4 3602   5.349   2.653   1.132 -0.5032 -0.6416  0.2085
  958SOL     OW 3603   0.844   2.320   1.183  0.6767 -0.1884  0.0270
  958SOL    HW2 3604   0.752   2.295   1.192  0.4987  0.4955  0.2426
  958SOL    HW3 3605   0.888   2.278   1.257  0.6347 -0.9219 -0.3567
  958SOL    MW4 3606   0.838   2.311   1.194  0.6476 -0.1950  0.0048
  959SOL     OW 3607   4.889   2.225   1.011  0.4165 -0.1223  0.4644
  959SOL    HW2 3608   4.877   2.306   0.961  0.9818  0.7998  1.7732
  959SOL    HW3 3609   4.976   2.232   1.049  0.0869 -0.8775  1.4114
  959SOL    MW4 3610   4.899   2.236   1.009  0.4476 -0.1003  0.7620
  960SOL     OW 3611   0.814   0.508   3.246 -0.3704 -0.4901 -0.4111
  960SOL    HW2 3612   0.851   0.578   3.301 -1.2310  0.3119 -0.8320
  960SOL    HW3 3613   0.870   0.506   3.169 -2.0472  1.8421 -1.8153
  960SOL    MW4 3614   0.826   0.517   3.243 -0.7052 -0.0766 -0.6519
  961SOL     OW 3615   3.504   1.093   3.211 -0.1001  0.0926 -0.4943
  961SOL    HW2 3616   3.578   1.059   3.161 -1.1294 -1.4406 -1.0790
  961SOL    HW3 3617   3.536   1.173   3.251  1.2008  0.6593 -2.5005
  961SOL    MW4 3618   3.518   1.099   3.209 -0.0643 -0.0349 -0.8361
  962SOL     OW 3619   4.171   0.293   2.615  0.3656  0.3487 -0.5854
  962SOL    HW2 3620   4.234   0.361   2.640 -0.2494  0.4938  0.6193
  962SOL    HW3 3621   4.187   0.279   2.522  0.1866  2.4940 -0.9859
  962SOL    MW4 3622   4.181   0.300   2.606  0.2608  0.6509 -0.4793
  963SOL     OW 3623   3.478   3.668   0.435  0.3249  0.2189 -0.1554
  963SOL    HW2 3624   3.516   3.613   0.366  0.6600 -0.0392  0.2313
  963SOL    HW3 3625   3.472   3.610   0.511  0.3232  0.6109  0.1442
  963SOL    MW4 3626   3.482   3.653   0.436  0.3689  0.2366 -0.0648
  964SOL     OW 3627   5.294   3.314   2.078 -0.1784  0.3254  0.4246
  964SOL    HW2 3628   5.199   3.313   2.063 -0.0562  2.1057 -0.7406
  964SOL    HW3 3629   5.332   3.306   1.990  0.7669 -0.0420  0.8537
  964SOL    MW4 3630   5.286   3.312   2.064 -0.0376  0.5119  0.3275
  965SOL     OW 3631   0.242   5.646   2.833 -0.1761  0.0227 -0.7694
  965SOL    HW2 3632   0.328   5.688   2.827 -0.1524  0.0238 -0.4484
  965SOL    HW3 3633   0.242   5.581   2.763  0.8069 -1.2681  0.3700
  965SOL    MW4 3634   0.253   5.643   2.823 -0.0433 -0.1475 -0.5767
  966SOL     OW 3635   4.567   3.305   6.245 -0.0352  0.1576 -0.1144
  966SOL    HW2 3636   4.526   3.308   6.159  0.6752 -1.0092 -0.5260
  966SOL    HW3 3637   4.545   3.217   6.278  0.1830  0.3815  0.6377
  966SOL    MW4 3638   4.558   3.294   6.238  0.0873  0.0332 -0.0695
  967SOL     OW 3639   5.316   5.314   2.499 -0.5347 -0.3054 -0.3144
  967SOL    HW2 3640   5.237   5.308   2.553 -0.1575  1.9414  0.5926
  967SOL    HW3 3641   5.318   5.405   2.470  1.1227 -0.6137 -1.3148
  967SOL    MW4 3642   5.306   5.325   2.502 -0.2663 -0.0496 -0.3267
  968SOL     OW 3643   4.442   3.094   4.896  0.7017  0.5428 -0.1968
  968SOL    HW2 3644   4.490   3.130   4.822  0.2057 -0.3049 -0.9560
  968SOL    HW3 3645   4.510   3.066   4.957  1.1135  1.3518 -0.2715
  968SOL    MW4 3646   4.458   3.095   4.894  0.6906  0.5377 -0.3068
  969SOL     OW 3647   0.582   2.006   1.957  0.1976 -0.2754  0.3549
  969SOL    HW2 3648   0.577   2.007   2.052 -0.9213  0.1140  0.3119
  969SOL    HW3 3649   0.541   1.923   1.932  0.1881 -0.2266  0.2075
  969SOL    MW4 3650   0.576   1.995   1.966  0.0487 -0.2176  0.3298
  970SOL     OW 3651   4.694   0.838   3.830 -0.2025 -0.9664 -0.1129
  970SOL    HW2 3652   4.713   0.893   3.754  0.9414 -0.8304  0.2550
  970SOL    HW3 3653   4.598   0.833   3.832 -0.3195  0.4898 -0.5311
  970SOL    MW4 3654   4.683   0.845   3.820 -0.0670 -0.7563 -0.1195
  971SOL     OW 3655   2.551   3.853   5.252  0.0851  0.1375 -0.7491
  971SOL    HW2 3656   2.608   3.845   5.176  1.8551  0.9881  0.4064
  971SOL    HW3 3657   2.609   3.838   5.327 -1.2098  1.0577  0.4954
  971SOL    MW4 3658   2.566   3.850   5.252  0.1478  0.3711 -0.4324
  972SOL     OW 3659   1.107   1.909   3.596  0.1069 -0.4191 -0.0698
  972SOL    HW2 3660   1.046   1.844   3.560 -0.6226  0.8621 -1.2085
  972SOL    HW3 3661   1.086   1.913   3.689 -1.5466 -0.0345 -0.4304
  972SOL    MW4 3662   1.097   1.901   3.603 -0.2075 -0.1993 -0.2676
  973SOL     OW 3663   5.425   4.848   2.482  0.0158 -0.5509  0.2028
  973SOL    HW2 3664   5.454   4.887   2.564 -0.3407 -1.9534  1.0149
  973SOL    HW3 3665   5.380   4.920   2.437  1.4584  0.6253  0.5612
  973SOL    MW4 3666   5.423   4.863   2.487  0.1591 -0.5807  0.3572
  974SOL     OW 3667   5.464   0.518   1.897 -0.3100 -0.5980  0.0226
  974SOL    HW2 3668   5.375   0.484   1.890 -0.3033 -1.2401  2.2928
  974SOL    HW3 3669   5.460   0.604   1.856 -2.1754 -0.3060  0.7249
  974SOL    MW4 3670   5.452   0.525   1.891 -0.5552 -0.6442  0.4148
  975SOL     OW 3671   0.065   5.060   3.959 -0.1959  0.3885  0.2388
  975SOL    HW2 3672   0.111   5.122   4.016 -0.0109 -0.2032  0.7541
  975SOL    HW3 3673   0.030   5.114   3.888  0.2705  1.0256  0.4772
  975SOL    MW4 3674   0.067   5.075   3.957 -0.1100  0.3945  0.3382
  976SOL     OW 3675   4.561   1.003   2.567  0.4021 -0.4095 -0.2257
  976SOL    HW2 3676   4.545   0.964   2.482  4.2611  1.3081 -1.9834
  976SOL    HW3 3677   4.563   1.098   2.551 -1.2436  0.1524  2.3331
  976SOL    MW4 3678   4.559   1.011   2.554  0.6941 -0.1087 -0.1200
  977SOL     OW 3679   0.855   0.375   1.901  0.0973 -0.9912  0.0960
  977SOL    HW2 3680   0.883   0.466   1.891 -3.0389 -0.0195 -0.9950
  977SOL    HW3 3681   0.936   0.325   1.907  1.9322  1.7764 -0.0699
  977SOL    MW4 3682   0.869   0.380   1.901 -0.0744 -0.4979 -0.0698
  978SOL     OW 3683   5.451   4.569   2.014  0.4354 -0.1183  0.2976
  978SOL    HW2 3684   5.395   4.641   2.044 -1.9442 -1.5636 -0.4359
  978SOL    HW3 3685   5.488   4.600   1.932 -1.2520  0.0125 -0.4572
  978SOL    MW4 3686   5.448   4.583   2.007 -0.1012 -0.2917  0.1013
  979SOL     OW 3687   1.840   5.991   5.907  0.3800 -0.7644  0.2700
  979SOL    HW2 3688   1.845   5.915   5.849 -0.2931 -2.5375  2.3775
  979SOL    HW3 3689   1.781   6.051   5.862 -0.4901 -2.2633 -0.6856
  979SOL    MW4 3690   1.833   5.989   5.893  0.1764 -1.1961  0.4220
  980SOL     OW 3691   6.223   0.705   4.394 -0.1246  0.0698 -0.1254
  980SOL    HW2 3692   6.316   0.704   4.417 -0.3519 -0.8955  0.8377
  980SOL    HW3 3693   6.177   0.723   4.476 -0.8677 -1.6662 -0.1074
  980SOL    MW4 3694   6.229   0.707   4.408 -0.2527 -0.2866  0.0041
  981SOL     OW 3695   2.245   3.110   3.069  0.6230  0.3227 -0.0380
  981SOL    HW2 3696   2.182   3.167   3.113  0.6756  1.3226 -1.2160
  981SOL    HW3 3697   2.279   3.163   2.997 -0.1653 -1.5571 -1.8789
  981SOL    MW4 3698   2.241   3.125   3.065  0.5259  0.2066 -0.4363
  982SOL     OW 3699   5.870   3.718   6.232  0.1699 -0.1572 -0.5988
  982SOL    HW2 3700   5.950   3.678   6.266 -1.0016 -0.8995  1.4880
  982SOL    HW3 3701   5.806   3.647   6.232 -1.0286  0.8840 -0.2357
  982SOL    MW4 3702   5.872   3.703   6.237 -0.1428 -0.1178 -0.2756
  983SOL     OW 3703   0.059   1.606   0.861 -0.3160  0.0567  0.5685
  983SOL    HW2 3704   0.060   1.518   0.825 -1.3465 -0.2749  1.2954
  983SOL    HW3 3705  -0.035   1.627   0.870 -0.0985  1.4143 -0.0536
  983SOL    MW4 3706   0.046   1.597   0.857 -0.4233  0.1921  0.5823
  984SOL     OW 3707   2.106   2.072   3.878  0.2412 -0.6241  0.0144
  984SOL    HW2 3708   2.014   2.100   3.870  0.8768  1.1988 -1.7161
  984SOL    HW3 3709   2.138   2.120   3.954  0.2165  0.1423 -0.4498
  984SOL    MW4 3710   2.098   2.082   3.887  0.3218 -0.2824 -0.2752
  985SOL     OW 3711   0.666   0.845   3.471  0.3809 -0.2516  0.0481
  985SOL    HW2 3712   0.592   0.905   3.475 -0.2654 -1.0163 -0.2821
  985SOL    HW3 3713   0.741   0.897   3.502 -0.4119  0.3350  1.0347
  985SOL    MW4 3714   0.666   0.860   3.476  0.1910 -0.2751  0.1347
  986SOL     OW 3715   1.005   4.846   1.214 -0.1689  0.8264 -0.0518
  986SOL    HW2 3716   0.981   4.880   1.128  0.7370  3.3012  0.6052
  986SOL    HW3 3717   1.099   4.856   1.219  0.1189 -1.4288  0.4293
  986SOL    MW4 3718   1.014   4.852   1.203 -0.0114  0.8554  0.0984
  987SOL     OW 3719   1.048   4.990   6.153  0.1850 -0.0108  0.2976
  987SOL    HW2 3720   1.079   4.905   6.121  2.6425  0.4767  1.1366
  987SOL    HW3 3721   1.020   5.037   6.074 -2.1584 -1.8641 -0.0789
  987SOL    MW4 3722   1.049   4.985   6.138  0.2001 -0.1910  0.3587
  988SOL     OW 3723   1.018   5.462   3.701 -0.6295  0.2627 -0.2265
  988SOL    HW2 3724   1.000   5.556   3.708 -0.8925  0.2674 -0.9745
  988SOL    HW3 3725   1.102   5.457   3.655  0.2446  0.1708  1.3098
  988SOL    MW4 3726   1.027   5.474   3.696 -0.5489  0.2512 -0.1225
  989SOL     OW 3727   5.169   1.640   1.391 -0.0167 -0.4962 -0.1590
  989SOL    HW2 3728   5.076   1.619   1.403 -0.0094 -0.3008  0.2769
  989SOL    HW3 3729   5.215   1.572   1.440  0.0572 -0.3943 -0.0864
  989SOL    MW4 3730   5.163   1.628   1.399 -0.0060 -0.4570 -0.0919
  990SOL     OW 3731   0.611   5.142   4.824 -0.1445 -0.0409 -0.2038
  990SOL    HW2 3732   0.638   5.116   4.912  0.7070  0.1140 -0.4184
  990SOL    HW3 3733   0.687   5.186   4.787 -2.0186  4.6371  0.8286
  990SOL    MW4 3734   0.624   5.145   4.831 -0.2794  0.5967 -0.0959
  991SOL     OW 3735   2.322   6.351   6.190 -0.4859  0.1575 -0.1020
  991SOL    HW2 3736   2.265   6.393   6.254  1.0384 -0.2982  1.6453
  991SOL    HW3 3737   2.408   6.348   6.233  1.0176  1.2113 -2.7641
  991SOL    MW4 3738   2.326   6.356   6.204 -0.0865  0.2364 -0.2227
  992SOL     OW 3739   5.581   5.381   4.855 -0.2403  0.3112  0.1065
  992SOL    HW2 3740   5.621   5.418   4.776 -0.4040 -1.3364 -0.7971
  992SOL    HW3 3741   5.502   5.433   4.868 -0.9834 -0.3187 -1.6879
  992SOL    MW4 3742   5.576   5.393   4.846 -0.3599  0.0107 -0.2495
  993SOL     OW 3743   2.530   1.911   5.085 -0.6011 -0.0947  0.3267
  993SOL    HW2 3744   2.545   1.970   5.159  1.2144 -0.2078  0.1056
  993SOL    HW3 3745   2.618   1.895   5.050 -1.4512  0.6804 -2.4120
  993SOL    MW4 3746   2.544   1.917   5.090 -0.4737 -0.0073 -0.0638
  994SOL     OW 3747   0.808   3.192   3.585  0.0792  0.6593  0.1430
  994SOL    HW2 3748   0.863   3.192   3.507  1.0351  0.3819  0.7975
  994SOL    HW3 3749   0.738   3.255   3.565 -1.2117 -1.2821 -1.9471
  994SOL    MW4 3750   0.806   3.200   3.572  0.0350  0.3666 -0.0464
  995SOL     OW 3751   2.328   4.891   4.503  0.6136 -0.0896 -0.0982
  995SOL    HW2 3752   2.292   4.898   4.591 -1.1568 -3.0553 -0.4492
  995SOL    HW3 3753   2.393   4.961   4.498  0.2732  0.6402  3.2804
  995SOL    MW4 3754   2.332   4.901   4.514  0.3351 -0.3846  0.3012
  996SOL     OW 3755   0.274   1.789   4.905 -0.2220  0.3747 -0.4770
  996SOL    HW2 3756   0.324   1.714   4.873  0.2966  1.0965 -1.4107
  996SOL    HW3 3757   0.184   1.771   4.878 -0.1504 -0.0558 -0.4322
  996SOL    MW4 3758   0.269   1.777   4.897 -0.1442  0.4131 -0.5943
  997SOL     OW 3759   1.106   0.634   3.099 -0.3979  0.1817  0.5613
  997SOL    HW2 3760   1.034   0.683   3.139 -0.3184 -0.5504  1.6484
  997SOL    HW3 3761   1.063   0.561   3.053 -0.4905  1.0322 -0.7480
  997SOL    MW4 3762   1.091   0.631   3.098 -0.3997  0.1974  0.5320
  998SOL     OW 3763   5.896   4.001   2.152  0.3397 -1.0491 -0.1976
  998SOL    HW2 3764   5.906   3.944   2.076 -2.1627 -0.7873 -0.8144
  998SOL    HW3 3765   5.835   3.954   2.209  0.0578 -0.0110  0.3723
  998SOL    MW4 3766   5.889   3.987   2.150 -0.0277 -0.8776 -0.2038
  999SOL     OW 3767   3.395   0.904   6.012  0.5172 -0.3315 -0.2531
  999SOL    HW2 3768   3.318   0.920   6.067 -0.2728 -1.6198 -0.9406
  999SOL    HW3 3769   3.417   0.990   5.976  0.6848  0.4340  1.5699
  999SOL    MW4 3770   3.387   0.917   6.015  0.4350 -0.4005 -0.1033
 1000SOL     OW 3771   6.390   6.409   3.126 -0.1123 -0.6410 -0.2056
 1000SOL    HW2 3772   6.326   6.472   3.092  0.6975  0.0195 -0.5435
 1000SOL    HW3 3773   6.472   6.458   3.129  0.3549 -1.4375  0.3444
 1000SOL    MW4 3774   6.392   6.424   3.122  0.0562 -0.6590 -0.1776
 1001SOL     OW 3775   3.677   3.174   5.565 -0.2087 -0.1811  0.5300
 1001SOL    HW2 3776   3.721   3.110   5.621  0.0596  0.2009  0.7596
 1001SOL    HW3 3777   3.724   3.169   5.482 -0.1983 -0.2934  0.5421
 1001SOL    MW4 3778   3.689   3.165   5.562 -0.1719 -0.1455  0.5619
 1002SOL     OW 3779   5.935   3.351   5.890  0.3416 -0.0998 -0.3271
 1002SOL    HW2 3780   5.847   3.337   5.856 -0.2145  1.4989  0.3445
 1002SOL    HW3 3781   5.982   3.271   5.869 -1.4098 -1.1913 -0.2637
 1002SOL    MW4 3782   5.930   3.339   5.883  0.0371 -0.0329 -0.2301
 1003SOL     OW 3783   4.026   4.078   5.795 -0.2628  0.0685 -0.2575
 1003SOL    HW2 3784   4.030   4.014   5.865 -0.4734 -0.8785 -1.0932
 1003SOL    HW3 3785   4.057   4.031   5.717 -1.1950  0.7235 -1.0520
 1003SOL    MW4 3786   4.031   4.064   5.794 -0.4135  0.0300 -0.4726
 1004SOL     OW 3787   0.300   5.879   4.559  0.2578  1.0231 -0.5109
 1004SOL    HW2 3788   0.255   5.805   4.519  2.3089 -0.0416 -0.9413
 1004SOL    HW3 3789   0.263   5.884   4.647 -0.1477 -0.3128 -0.5809
 1004SOL    MW4 3790   0.289   5.870   4.565  0.4749  0.7064 -0.5769
 1005SOL     OW 3791   1.176   1.638   2.627  0.4629  0.1964  0.1930
 1005SOL    HW2 3792   1.156   1.644   2.720  0.6247 -0.2262  0.2568
 1005SOL    HW3 3793   1.098   1.675   2.584 -0.2522 -0.9424  0.4574
 1005SOL    MW4 3794   1.163   1.643   2.633  0.3899 -0.0096  0.2363
 1006SOL     OW 3795   2.587   6.072   2.964  0.1936 -0.5721  0.1925
 1006SOL    HW2 3796   2.600   6.123   2.884 -0.5380 -0.8541 -0.1135
 1006SOL    HW3 3797   2.629   6.123   3.033 -0.9944  0.7261 -0.0131
 1006SOL    MW4 3798   2.594   6.085   2.962 -0.0597 -0.4380  0.1250
 1007SOL     OW 3799   5.384   4.325   3.045  0.1000  0.3152  0.1914
 1007SOL    HW2 3800   5.368   4.341   3.138  0.3088  2.5123 -0.0930
 1007SOL    HW3 3801   5.472   4.358   3.030 -0.3125  0.9404 -0.9779
 1007SOL    MW4 3802   5.393   4.332   3.056  0.0732  0.6876 -0.0004
 1008SOL     OW 3803   4.204   6.335   1.350 -0.5163 -0.3467  0.4199
 1008SOL    HW2 3804   4.137   6.401   1.365 -0.8969  0.4170 -3.4483
 1008SOL    HW3 3805   4.155   6.259   1.317  0.3221 -0.0789 -1.6152
 1008SOL    MW4 3806   4.189   6.334   1.347 -0.4559 -0.2106 -0.3590
 1009SOL     OW 3807   2.939   6.304   4.927 -0.1676 -0.1648 -0.6136
 1009SOL    HW2 3808   2.949   6.332   4.836 -1.6630  2.3843 -0.0928
 1009SOL    HW3 3809   2.953   6.209   4.925  0.9454 -0.0266 -3.2812
 1009SOL    MW4 3810   2.942   6.295   4.915 -0.2180  0.1897 -0.8968
 1010SOL     OW 3811   1.692   4.280   2.084  0.0386  0.3379  0.0797
 1010SOL    HW2 3812   1.672   4.372   2.066  1.8521  1.2043  1.9909
 1010SOL    HW3 3813   1.788   4.276   2.085  0.0049 -1.3548  0.9472
 1010SOL    MW4 3814   1.702   4.292   2.082  0.2735  0.2289  0.4463
 1011SOL     OW 3815   6.227   6.038   6.099  0.1846 -0.0929  0.6762
 1011SOL    HW2 3816   6.150   6.030   6.044  0.0338  1.8056  0.5542
 1011SOL    HW3 3817   6.193   6.066   6.184  0.6495 -0.3893  0.9677
 1011SOL    MW4 3818   6.212   6.040   6.103  0.2261  0.1185  0.6986
 1012SOL     OW 3819   2.093   3.718   1.722  0.0944  1.0922 -0.0492
 1012SOL    HW2 3820   2.004   3.684   1.732  0.3420 -0.1799 -1.7706
 1012SOL    HW3 3821   2.144   3.671   1.788 -0.2452  0.7884  0.0001
 1012SOL    MW4 3822   2.088   3.708   1.732  0.0823  0.8843 -0.2698
 1013SOL     OW 3823   0.953   5.903   1.571 -0.0532 -0.1004 -0.1382
 1013SOL    HW2 3824   0.979   5.968   1.636  1.6486  1.5741 -2.3392
 1013SOL    HW3 3825   1.025   5.841   1.568  1.1406  1.2655 -2.1152
 1013SOL    MW4 3826   0.966   5.903   1.579  0.3289  0.3008 -0.6894
 1014SOL     OW 3827   3.657   0.722   6.413 -0.3632 -0.2283  0.1496
 1014SOL    HW2 3828   3.572   0.727   6.457  0.0118  1.5955  0.7114
 1014SOL    HW3 3829   3.636   0.726   6.319 -0.8581  1.1881  0.3066
 1014SOL    MW4 3830   3.643   0.723   6.406 -0.3790  0.1992  0.2445
 1015SOL     OW 3831   3.583   6.114   3.586  0.0361  0.1433 -0.0691
 1015SOL    HW2 3832   3.634   6.136   3.664 -1.2575  0.9731  0.5737
 1015SOL    HW3 3833   3.503   6.074   3.620  0.1851 -1.0484 -1.0584
 1015SOL    MW4 3834   3.580   6.111   3.601 -0.1149  0.0955 -0.1148
 1016SOL     OW 3835   4.259   3.373   0.610  0.1587 -0.1497  0.0192
 1016SOL    HW2 3836   4.252   3.337   0.521 -2.3326 -0.2838  0.1944
 1016SOL    HW3 3837   4.295   3.301   0.662 -1.0545 -1.0777 -0.3777
 1016SOL    MW4 3838   4.263   3.359   0.605 -0.3301 -0.2898 -0.0100
 1017SOL     OW 3839   6.139   5.194   0.472  0.7760  0.1470  0.4457
 1017SOL    HW2 3840   6.157   5.284   0.497  1.4193 -0.5923  2.9688
 1017SOL    HW3 3841   6.220   5.147   0.493  0.0762 -1.2058  0.2327
 1017SOL    MW4 3842   6.152   5.199   0.478  0.7685 -0.1291  0.7505
 1018SOL     OW 3843   2.092   2.593   0.236  0.3424 -0.4683 -0.0166
 1018SOL    HW2 3844   2.179   2.632   0.237 -0.0696  0.4764  1.4639
 1018SOL    HW3 3845   2.107   2.504   0.204  1.6608  0.0456 -0.9507
 1018SOL    MW4 3846   2.105   2.586   0.232  0.4620 -0.2759  0.0555
 1019SOL     OW 3847   5.421   1.535   2.037 -0.1515  0.1714  0.1354
 1019SOL    HW2 3848   5.380   1.453   2.062  0.5703  0.0777  1.0489
 1019SOL    HW3 3849   5.494   1.510   1.980 -0.1382  0.2060  0.1368
 1019SOL    MW4 3850   5.425   1.521   2.033 -0.0545  0.1636  0.2561
 1020SOL     OW 3851   0.632   0.983   6.370 -0.0596  0.0124 -0.1561
 1020SOL    HW2 3852   0.663   0.951   6.454  1.9294  3.2176  0.4815
 1020SOL    HW3 3853   0.543   1.015   6.387 -0.1229 -0.4504  0.3913
 1020SOL    MW4 3854   0.624   0.983   6.383  0.1945  0.3742  0.0002
 1021SOL     OW 3855   5.726   5.221   3.380 -0.0583 -0.0029  0.0738
 1021SOL    HW2 3856   5.760   5.256   3.463  3.2586 -1.0829 -0.6717
 1021SOL    HW3 3857   5.649   5.170   3.405 -0.1612  1.1133  2.2422
 1021SOL    MW4 3858   5.721   5.219   3.395  0.3657  0.0019  0.2615
 1022SOL     OW 3859   1.404   3.791   2.596 -0.0288 -0.1407  0.1569
 1022SOL    HW2 3860   1.431   3.701   2.609  0.6407 -0.0549 -0.6196
 1022SOL    HW3 3861   1.480   3.843   2.621 -0.6450  0.2514  1.2914
 1022SOL    MW4 3862   1.418   3.786   2.601 -0.0217 -0.0776  0.2041
 1023SOL     OW 3863   1.716   5.516   0.678  0.1694  0.3493 -0.5798
 1023SOL    HW2 3864   1.644   5.509   0.616 -0.8617  0.9709  0.5052
 1023SOL    HW3 3865   1.768   5.590   0.645 -0.0442  0.3096 -1.0125
 1023SOL    MW4 3866   1.713   5.525   0.666  0.0052  0.4261 -0.4938
 1024SOL     OW 3867   1.487   4.824   3.822  0.3159 -0.1553  0.6478
 1024SOL    HW2 3868   1.411   4.821   3.881 -1.2659  0.6672 -1.2263
 1024SOL    HW3 3869   1.505   4.917   3.812 -0.7062 -0.1430 -1.6107
 1024SOL    MW4 3870   1.479   4.836   3.829 -0.0277 -0.0451  0.1025
 1025SOL     OW 3871   5.656   0.411   1.695 -0.3510 -0.0115  0.0610
 1025SOL    HW2 3872   5.587   0.452   1.747 -0.0992 -0.8203  1.0493
 1025SOL    HW3 3873   5.611   0.340   1.649 -0.4858  0.4421 -0.5273
 1025SOL    MW4 3874   5.641   0.407   1.696 -0.3356 -0.0584  0.1138
 1026SOL     OW 3875   3.965   1.470   0.304  0.1397  0.0275 -0.2423
 1026SOL    HW2 3876   3.961   1.405   0.374 -0.8984 -3.4201 -3.2142
 1026SOL    HW3 3877   4.057   1.470   0.276 -0.1513 -1.6962 -1.3898
 1026SOL    MW4 3878   3.977   1.461   0.310 -0.0356 -0.6548 -0.7858
 1027SOL     OW 3879   3.772   0.299   2.426 -0.1262  0.1122  0.4755
 1027SOL    HW2 3880   3.760   0.249   2.507 -0.0828 -1.1243 -0.2409
 1027SOL    HW3 3881   3.684   0.325   2.400 -0.1721  0.2478  0.7746
 1027SOL    MW4 3882   3.759   0.296   2.433 -0.1266 -0.0330  0.4204
 1028SOL     OW 3883   1.908   4.407   5.480 -0.1707  0.7399  0.2522
 1028SOL    HW2 3884   1.816   4.418   5.455 -0.4465 -2.1155 -0.3584
 1028SOL    HW3 3885   1.905   4.354   5.560  0.9450  0.3374  0.0473
 1028SOL    MW4 3886   1.895   4.402   5.487 -0.0599  0.3100  0.1446
 1029SOL     OW 3887   6.276   6.210   3.635  0.4138  0.0214  0.4427
 1029SOL    HW2 3888   6.304   6.119   3.644  1.9160  0.5836  1.9984
 1029SOL    HW3 3889   6.308   6.236   3.548  0.2286 -0.8390  0.1074
 1029SOL    MW4 3890   6.284   6.201   3.625  0.5876 -0.0179  0.6037
 1030SOL     OW 3891   5.645   5.497   5.581 -0.0040  0.1728 -0.2808
 1030SOL    HW2 3892   5.677   5.406   5.583  0.9167  0.4909 -0.2150
 1030SOL    HW3 3893   5.661   5.530   5.669 -1.6231 -0.0087  0.1146
 1030SOL    MW4 3894   5.652   5.489   5.593 -0.0962  0.1908 -0.2199
 1031SOL     OW 3895   1.389   0.592   1.539 -0.0660 -0.2108  0.1347
 1031SOL    HW2 3896   1.305   0.572   1.581  0.2792 -0.6332  0.6274
 1031SOL    HW3 3897   1.447   0.521   1.565  0.1575 -0.4962 -1.0708
 1031SOL    MW4 3898   1.385   0.580   1.548  0.0090 -0.3042  0.0406
 1032SOL     OW 3899   3.692   3.443   1.395 -0.2318  0.1434  0.4031
 1032SOL    HW2 3900   3.749   3.432   1.472  0.7779 -1.3786 -0.4895
 1032SOL    HW3 3901   3.636   3.366   1.396 -1.2552  0.8775  0.4280
 1032SOL    MW4 3902   3.692   3.431   1.405 -0.2336  0.0394  0.2886
 1033SOL     OW 3903   3.792   1.764   5.545 -0.7360  0.6623  0.3027
 1033SOL    HW2 3904   3.869   1.709   5.531 -1.2979 -0.5451  1.6326
 1033SOL    HW3 3905   3.765   1.743   5.634 -2.7484  0.8722 -0.2220
 1033SOL    MW4 3906   3.799   1.754   5.555 -1.0756  0.5307  0.4089
 1034SOL     OW 3907   0.492   2.649   5.087 -0.1339 -0.0453 -0.0707
 1034SOL    HW2 3908   0.521   2.725   5.138  2.2252 -0.5355 -0.5661
 1034SOL    HW3 3909   0.450   2.687   5.010  1.9845  0.8637 -0.8593
 1034SOL    MW4 3910   0.491   2.664   5.084  0.4568  0.0099 -0.2401
 1035SOL     OW 3911   0.883   3.786   0.164  0.2412 -0.2027  0.2838
 1035SOL    HW2 3912   0.821   3.826   0.104 -0.7367 -0.4436  1.1018
 1035SOL    HW3 3913   0.943   3.856   0.189 -1.3034  0.7357  1.5139
 1035SOL    MW4 3914   0.883   3.800   0.160 -0.0916 -0.1107  0.5540
 1036SOL     OW 3915   1.582   0.380   1.594  0.3298 -0.0551  0.8287
 1036SOL    HW2 3916   1.530   0.313   1.639 -0.3885 -0.4249 -0.4938
 1036SOL    HW3 3917   1.623   0.429   1.664 -0.8992 -0.4892  1.9008
 1036SOL    MW4 3918   1.580   0.377   1.609  0.0729 -0.1612  0.7957
 1037SOL     OW 3919   4.045   5.915   3.282 -0.5545  0.1410  0.0932
 1037SOL    HW2 3920   4.096   5.992   3.255 -1.0056  0.2471 -0.4826
 1037SOL    HW3 3921   4.033   5.865   3.202  0.9823 -1.3159  0.6941
 1037SOL    MW4 3922   4.050   5.919   3.268 -0.4113 -0.0372  0.0965
 1038SOL     OW 3923   5.478   1.294   1.183  0.4966 -0.3724  0.1869
 1038SOL    HW2 3924   5.408   1.256   1.236  0.3435 -1.4273 -0.7274
 1038SOL    HW3 3925   5.433   1.353   1.122  0.4394 -0.7590 -0.1480
 1038SOL    MW4 3926   5.463   1.297   1.182  0.4688 -0.5626  0.0221
 1039SOL     OW 3927   5.845   4.701   3.109 -0.0882  0.3166 -0.1314
 1039SOL    HW2 3928   5.867   4.778   3.056 -1.1885  0.6060 -0.1952
 1039SOL    HW3 3929   5.754   4.680   3.085  0.0603 -0.7633  0.1805
 1039SOL    MW4 3930   5.836   4.708   3.099 -0.2138  0.2123 -0.0987
 1040SOL     OW 3931   4.235   0.672   4.705 -0.0162  0.2880  0.1030
 1040SOL    HW2 3932   4.260   0.739   4.768 -0.3648 -0.9110  1.5815
 1040SOL    HW3 3933   4.155   0.707   4.664  0.5179  1.3217 -0.0832
 1040SOL    MW4 3934   4.228   0.686   4.708  0.0082  0.2662  0.2735
 1041SOL     OW 3935   4.552   4.441   0.741 -0.5280  0.5589 -0.5949
 1041SOL    HW2 3936   4.500   4.378   0.691 -1.1904  0.5257  0.1099
 1041SOL    HW3 3937   4.531   4.422   0.832  0.6291  0.6394 -0.2909
 1041SOL    MW4 3938   4.542   4.430   0.746 -0.4627  0.5652 -0.4618
 1042SOL     OW 3939   6.111   4.386   3.504  1.0467  0.2827 -0.4254
 1042SOL    HW2 3940   6.169   4.432   3.444  0.0098  1.1308 -0.8104
 1042SOL    HW3 3941   6.073   4.455   3.558  0.7009 -0.2994  0.0936
 1042SOL    MW4 3942   6.113   4.401   3.503  0.8643  0.3178 -0.4077
 1043SOL     OW 3943   1.657   0.577   2.292  0.0527 -0.3766 -0.0821
 1043SOL    HW2 3944   1.719   0.505   2.286  0.8538  0.1763  1.2156
 1043SOL    HW3 3945   1.647   0.593   2.386  0.5293  1.7343 -0.3465
 1043SOL    MW4 3946   1.664   0.569   2.304  0.2213 -0.0251  0.0543
 1044SOL     OW 3947   4.216   2.615   1.147  0.2493  0.5050 -0.0905
 1044SOL    HW2 3948   4.240   2.558   1.221  3.2739  1.5618 -0.0945
 1044SOL    HW3 3949   4.133   2.654   1.172 -0.8883 -2.2799  0.8392
 1044SOL    MW4 3950   4.208   2.612   1.160  0.4983  0.2770  0.0316
 1045SOL     OW 3951   4.622   6.025   4.911 -0.1234 -0.0041  0.5721
 1045SOL    HW2 3952   4.595   6.111   4.879 -1.1407  0.1279  1.7437
 1045SOL    HW3 3953   4.578   5.962   4.854 -2.9883  0.2062  2.3936
 1045SOL    MW4 3954   4.613   6.028   4.899 -0.6356  0.0411  0.9670
 1046SOL     OW 3955   2.178   0.653   2.641  0.0294  0.5240 -0.4110
 1046SOL    HW2 3956   2.095   0.684   2.605  0.1803  1.5281  0.0961
 1046SOL    HW3 3957   2.207   0.587   2.578 -1.6293 -0.5869 -0.0895
 1046SOL    MW4 3958   2.171   0.648   2.628 -0.1695  0.5099 -0.3017
 1047SOL     OW 3959   2.864   0.635   0.397  0.3230 -0.0526  0.4429
 1047SOL    HW2 3960   2.787   0.680   0.433  0.6089 -0.2569  1.3471
 1047SOL    HW3 3961   2.931   0.703   0.393  0.0872  0.1395 -0.4014
 1047SOL    MW4 3962   2.863   0.650   0.402  0.3296 -0.0542  0.4508
 1048SOL     OW 3963   4.800   1.519   0.695 -0.4553  0.2741  0.4043
 1048SOL    HW2 3964   4.843   1.604   0.700 -0.4490  0.2971 -0.0546
 1048SOL    HW3 3965   4.770   1.503   0.785  0.1939  0.4183  0.6553
 1048SOL    MW4 3966   4.802   1.528   0.708 -0.3688  0.2962  0.3769
 1049SOL     OW 3967   4.728   2.553   3.429  0.0966 -0.4134 -0.3840
 1049SOL    HW2 3968   4.712   2.645   3.410 -0.5343 -0.4838 -0.2339
 1049SOL    HW3 3969   4.640   2.516   3.441  0.3062 -1.1561 -1.0334
 1049SOL    MW4 3970   4.714   2.560   3.428  0.0410 -0.5207 -0.4499
 1050SOL     OW 3971   1.816   0.545   1.361 -0.6068 -0.0412  0.0997
 1050SOL    HW2 3972   1.854   0.458   1.363 -0.6071 -0.1125 -1.4669
 1050SOL    HW3 3973   1.745   0.539   1.296 -0.7283  1.0730  0.1015
 1050SOL    MW4 3974   1.811   0.533   1.353 -0.6229  0.0964 -0.1068
 1051SOL     OW 3975   3.603   5.066   0.668 -0.0643  0.1104 -0.2976
 1051SOL    HW2 3976   3.519   5.022   0.683 -0.0562  0.2475  0.1836
 1051SOL    HW3 3977   3.580   5.157   0.651 -0.0116  0.1629 -0.0935
 1051SOL    MW4 3978   3.589   5.072   0.668 -0.0563  0.1354 -0.2072
 1052SOL     OW 3979   5.569   0.832   0.364 -0.1225  0.0383 -0.3018
 1052SOL    HW2 3980   5.481   0.812   0.396  0.6135 -0.7097  1.4115
 1052SOL    HW3 3981   5.625   0.825   0.442  2.0686 -3.3927 -1.9486
 1052SOL    MW4 3982   5.565   0.828   0.379  0.2637 -0.5131 -0.2930
 1053SOL     OW 3983   0.891   2.780   4.116 -0.1149  0.6664 -0.2121
 1053SOL    HW2 3984   0.832   2.852   4.092 -1.0156  0.2345  0.5970
 1053SOL    HW3 3985   0.840   2.701   4.096  0.4273  0.2706 -0.0369
 1053SOL    MW4 3986   0.876   2.779   4.110 -0.1622  0.5572 -0.0822
 1054SOL     OW 3987   3.576   3.783   0.785  0.0836  0.2401  0.5874
 1054SOL    HW2 3988   3.646   3.812   0.726 -1.0217  0.7504 -0.5223
 1054SOL    HW3 3989   3.573   3.688   0.774  0.2497  0.2766  0.2131
 1054SOL    MW4 3990   3.585   3.774   0.776 -0.0403  0.3122  0.3916
 1055SOL     OW 3991   0.149   4.658   1.098 -0.4044  0.0623  0.0875
 1055SOL    HW2 3992   0.083   4.633   1.162 -2.2830  3.6316 -0.2012
 1055SOL    HW3 3993   0.196   4.731   1.139 -0.5457  1.3485 -1.8936
 1055SOL    MW4 3994   0.147   4.664   1.111 -0.6709  0.7029 -0.2120
 1056SOL     OW 3995   4.236   6.095   1.488 -0.4495 -0.2948  0.0459
 1056SOL    HW2 3996   4.237   6.191   1.496  0.9315 -0.2706 -0.1990
 1056SOL    HW3 3997   4.283   6.064   1.565 -0.6212 -0.7666 -0.0350
 1056SOL    MW4 3998   4.242   6.104   1.499 -0.2900 -0.3538  0.0029
 1057SOL     OW 3999   0.986   2.173   1.366 -0.4795  0.1991  0.1063
 1057SOL    HW2 4000   1.018   2.184   1.456 -1.4440 -1.0884  0.6407
 1057SOL    HW3 4001   1.064   2.181   1.311  0.1077  1.1066  1.0457
 1057SOL    MW4 4002   1.001   2.175   1.371 -0.5293  0.1490  0.3007
 1058SOL     OW 4003   2.508   2.179   0.726 -0.2744  0.1352  0.0114
 1058SOL    HW2 4004   2.534   2.090   0.750 -1.6294  0.2027  1.9266
 1058SOL    HW3 4005   2.517   2.182   0.631  0.8757 -1.6790  0.0256
 1058SOL    MW4 4006   2.513   2.168   0.717 -0.3015 -0.0953  0.2659
 1059SOL     OW 4007   6.289   0.062   0.570  0.0872  0.9165  0.4859
 1059SOL    HW2 4008   6.249   0.138   0.614  0.7923  1.3527  0.3893
 1059SOL    HW3 4009   6.340   0.019   0.638  1.0939  1.5311  0.1383
 1059SOL    MW4 4010   6.290   0.067   0.585  0.3130  1.0551  0.4273
 1060SOL     OW 4011   4.923   6.109   4.898  0.3663 -0.3118  0.0720
 1060SOL    HW2 4012   4.876   6.191   4.881  1.1577  0.2419  0.5385
 1060SOL    HW3 4013   4.854   6.043   4.899 -0.2889  0.3427 -0.2873
 1060SOL    MW4 4014   4.907   6.111   4.896  0.3842 -0.1524  0.0861
 1061SOL     OW 4015   2.421   2.544   6.321  0.5775  0.2062 -0.3298
 1061SOL    HW2 4016   2.403   2.553   6.227  1.1258 -0.1310 -0.4707
 1061SOL    HW3 4017   2.516   2.551   6.328  0.5594 -0.0153  0.1746
 1061SOL    MW4 4018   2.431   2.546   6.309  0.6475  0.1325 -0.2819
 1062SOL     OW 4019   1.932   5.213   5.256 -0.0375  0.0902 -0.2525
 1062SOL    HW2 4020   1.968   5.290   5.300 -0.2545  0.0931 -0.0777
 1062SOL    HW3 4021   1.874   5.173   5.321  2.4060 -1.9641  0.8007
 1062SOL    MW4 4022   1.929   5.218   5.270  0.2562 -0.1804 -0.0905
 1063SOL     OW 4023   6.350   1.277   5.551  0.0850  0.2283 -0.1320
 1063SOL    HW2 4024   6.432   1.264   5.502  0.8277  1.2416  0.7683
 1063SOL    HW3 4025   6.329   1.370   5.538 -2.0054 -0.4289 -1.9176
 1063SOL    MW4 4026   6.358   1.288   5.543 -0.0928  0.2753 -0.2488
 1064SOL     OW 4027   2.382   2.108   1.060 -0.0965 -0.1740  0.4733
 1064SOL    HW2 4028   2.299   2.061   1.058  0.0598 -0.4340 -1.0040
 1064SOL    HW3 4029   2.363   2.192   1.018  0.5242 -0.4982 -0.4849
 1064SOL    MW4 4030   2.368   2.113   1.054  0.0060 -0.2511  0.1520
 1065SOL     OW 4031   0.430   2.430   3.348  0.1932 -0.5126 -0.2123
 1065SOL    HW2 4032   0.440   2.351   3.401  0.6983 -0.3385 -0.0414
 1065SOL    HW3 4033   0.518   2.448   3.316  0.0795 -0.0136 -0.2489
 1065SOL    MW4 4034   0.443   2.422   3.350  0.2448 -0.4238 -0.1946
 1066SOL     OW 4035   4.986   4.850   2.560 -0.2015 -0.3438 -0.4684
 1066SOL    HW2 4036   4.988   4.945   2.549  0.9697 -0.2988  0.0231
 1066SOL    HW3 4037   5.075   4.827   2.588 -0.9842 -1.3327  1.3805
 1066SOL    MW4 4038   4.998   4.859   2.562 -0.1503 -0.4683 -0.1596
 1067SOL     OW 4039   2.005   5.610   1.168 -0.5435 -0.1628 -0.5420
 1067SOL    HW2 4040   1.982   5.654   1.086  0.6536  0.7649 -0.4022
 1067SOL    HW3 4041   2.099   5.624   1.178 -0.8167  0.5559  1.4618
 1067SOL    MW4 4042   2.014   5.617   1.158 -0.4216  0.0544 -0.2592
 1068SOL     OW 4043   3.972   2.486   1.011 -0.5523  0.3657  0.2742
 1068SOL    HW2 4044   3.982   2.494   1.106 -1.1073 -1.9779  0.6058
 1068SOL    HW3 4045   3.897   2.541   0.990  0.5321  2.1665  0.9092
 1068SOL    MW4 4046   3.963   2.494   1.021 -0.4824  0.2941  0.4017
 1069SOL     OW 4047   3.059   2.099   4.701 -0.3114 -0.1235 -0.1860
 1069SOL    HW2 4048   2.972   2.078   4.737  0.8780 -1.6996  2.0415
 1069SOL    HW3 4049   3.068   2.040   4.626 -0.9257 -0.3900 -0.0654
 1069SOL    MW4 4050   3.048   2.088   4.696 -0.2356 -0.3666  0.1238
 1070SOL     OW 4051   5.332   5.581   2.456 -0.3983  0.3739 -0.4011
 1070SOL    HW2 4052   5.393   5.561   2.385 -0.4379 -1.3420 -0.0083
 1070SOL    HW3 4053   5.379   5.645   2.510  0.0071  0.9855 -1.4438
 1070SOL    MW4 4054   5.347   5.587   2.454 -0.3500  0.2282 -0.4869
 1071SOL     OW 4055   5.787   5.446   3.862 -0.2880 -0.2754  0.0448
 1071SOL    HW2 4056   5.828   5.377   3.915  0.4578  0.4383  0.4098
 1071SOL    HW3 4057   5.827   5.527   3.893  0.2776  0.1584 -1.7096
 1071SOL    MW4 4058   5.798   5.447   3.873 -0.1150 -0.1240 -0.1385
 1072SOL     OW 4059   5.117   0.886   5.028 -0.0986  0.5758  0.6080
 1072SOL    HW2 4060   5.108   0.801   5.071 -0.1917  0.8176  1.0843
 1072SOL    HW3 4061   5.158   0.867   4.944 -1.9597 -0.1559 -0.1605
 1072SOL    MW4 4062   5.121   0.872   5.023 -0.3564  0.5111  0.5695
 1073SOL     OW 4063   3.792   0.174   0.949 -0.5482 -0.5431  0.2326
 1073SOL    HW2 4064   3.820   0.119   1.023 -1.9393 -0.6580  0.7190
 1073SOL    HW3 4065   3.734   0.117   0.898 -1.1056  0.1232  0.1122
 1073SOL    MW4 4066   3.788   0.159   0.952 -0.8053 -0.4703  0.2809
 1074SOL     OW 4067   2.186   1.112   1.042  0.1559  1.0373 -0.1491
 1074SOL    HW2 4068   2.246   1.038   1.043  0.4997  1.3150  1.2854
 1074SOL    HW3 4069   2.106   1.078   1.000  0.6934  0.1843 -0.5002
 1074SOL    MW4 4070   2.183   1.098   1.037  0.2721  0.9614 -0.0062
 1075SOL     OW 4071   3.734   1.892   4.512 -0.0232  0.0595 -0.7491
 1075SOL    HW2 4072   3.773   1.953   4.575 -0.5294  0.2917 -0.6584
 1075SOL    HW3 4073   3.808   1.839   4.481 -0.0381 -1.5401  1.6407
 1075SOL    MW4 4074   3.749   1.893   4.516 -0.0920 -0.1209 -0.4219
 1076SOL     OW 4075   4.023   1.181   5.605 -0.6198 -0.0665  0.3443
 1076SOL    HW2 4076   3.936   1.209   5.632 -0.8307 -1.5397  1.3396
 1076SOL    HW3 4077   4.038   1.100   5.654  1.9096  0.8928  1.3133
 1076SOL    MW4 4078   4.014   1.174   5.615 -0.3139 -0.1343  0.6035
 1077SOL     OW 4079   3.301   5.906   1.021  0.0532 -0.3800  0.1209
 1077SOL    HW2 4080   3.390   5.899   1.054  0.0888  0.0124  0.1069
 1077SOL    HW3 4081   3.303   5.861   0.936  0.3796  0.1449 -0.1524
 1077SOL    MW4 4082   3.313   5.899   1.014  0.1010 -0.2590  0.0830
 1078SOL     OW 4083   5.883   2.561   0.163  0.4317  0.5008  0.0688
 1078SOL    HW2 4084   5.794   2.543   0.130  1.3117 -1.0336 -1.6843
 1078SOL    HW3 4085   5.871   2.582   0.255 -1.7192 -0.1132 -0.0224
 1078SOL    MW4 4086   5.870   2.561   0.171  0.2640  0.2173 -0.1745
 1079SOL     OW 4087   2.371   5.229   3.670  0.1511 -0.3102  0.0687
 1079SOL    HW2 4088   2.423   5.149   3.675 -0.0226 -0.3986  0.5731
 1079SOL    HW3 4089   2.300   5.208   3.608 -1.0165 -1.2287  1.6312
 1079SOL    MW4 4090   2.368   5.216   3.663 -0.0259 -0.4431  0.3414
 1080SOL     OW 4091   3.188   2.120   3.929  0.0992 -0.1515 -0.3032
 1080SOL    HW2 4092   3.100   2.095   3.901  0.3098  0.9563 -2.1153
 1080SOL    HW3 4093   3.239   2.039   3.920 -0.1379 -0.1507 -2.0406
 1080SOL    MW4 4094   3.183   2.106   3.924  0.0957 -0.0053 -0.7715
 1081SOL     OW 4095   3.618   6.444   3.139 -0.4491  0.9319  0.1855
 1081SOL    HW2 4096   3.656   6.486   3.217 -0.4630  3.4566 -1.0538
 1081SOL    HW3 4097   3.565   6.372   3.174 -0.4870  1.9808  2.5065
 1081SOL    MW4 4098   3.616   6.440   3.154 -0.4559  1.4034  0.3282
 1082SOL     OW 4099   5.690   1.845   2.003  0.3588  0.3085  0.1648
 1082SOL    HW2 4100   5.740   1.781   1.952  0.1639  0.4703 -0.2336
 1082SOL    HW3 4101   5.690   1.924   1.948  0.3087  0.5427  0.5014
 1082SOL    MW4 4102   5.696   1.847   1.989  0.3265  0.3607  0.1566
 1083SOL     OW 4103   0.922   1.403   6.247 -0.6842  0.6649  0.0046
 1083SOL    HW2 4104   0.949   1.470   6.310 -1.1358  0.9926 -0.1441
 1083SOL    HW3 4105   0.989   1.335   6.254  0.3381  1.5827 -0.5709
 1083SOL    MW4 4106   0.935   1.403   6.256 -0.6089  0.8292 -0.0910
 1084SOL     OW 4107   5.474   2.233   5.543  0.2231  0.4223  0.1619
 1084SOL    HW2 4108   5.407   2.259   5.480  1.1514  0.0552 -1.0166
 1084SOL    HW3 4109   5.553   2.221   5.491  0.6725 -1.3696  1.1528
 1084SOL    MW4 4110   5.475   2.235   5.528  0.4049  0.1374  0.1371
 1085SOL     OW 4111   2.627   6.099   4.055 -0.0282 -0.0448  0.0305
 1085SOL    HW2 4112   2.709   6.050   4.062  0.8072  1.4627  1.8251
 1085SOL    HW3 4113   2.648   6.186   4.091 -2.0127  0.8970 -0.9164
 1085SOL    MW4 4114   2.641   6.104   4.061 -0.1798  0.2784  0.1423
 1086SOL     OW 4115   2.300   4.004   2.271 -0.3615  0.5798  0.0336
 1086SOL    HW2 4116   2.311   4.088   2.226  1.0776  1.6992  2.2781
 1086SOL    HW3 4117   2.346   3.941   2.216  0.4520  1.6910 -0.6134
 1086SOL    MW4 4118   2.308   4.007   2.258 -0.0643  0.8741  0.2444
 1087SOL     OW 4119   5.862   3.811   5.962  0.5439  0.1318  0.5095
 1087SOL    HW2 4120   5.916   3.736   5.939 -0.1141 -0.7506  1.7296
 1087SOL    HW3 4121   5.854   3.807   6.057  0.9097  2.0532  0.6661
 1087SOL    MW4 4122   5.868   3.801   5.971  0.5054  0.2689  0.6912
 1088SOL     OW 4123   6.107   5.035   3.428 -0.7563  0.1544 -0.3168
 1088SOL    HW2 4124   6.026   5.009   3.384 -1.3753 -0.5221  1.1761
 1088SOL    HW3 4125   6.126   4.963   3.488  0.6353  0.5884 -0.2011
 1088SOL    MW4 4126   6.099   5.022   3.430 -0.6544  0.1224 -0.1046
 1089SOL     OW 4127   2.103   1.817   2.255  0.3263 -0.5192  0.2276
 1089SOL    HW2 4128   2.022   1.849   2.217  0.2986 -0.3931  0.3929
 1089SOL    HW3 4129   2.141   1.761   2.187 -1.6113 -3.5088  1.3791
 1089SOL    MW4 4130   2.098   1.814   2.241  0.0670 -0.8970  0.4013
 1090SOL     OW 4131   0.617   1.347   0.035  0.0668  0.0274  0.0177
 1090SOL    HW2 4132   0.635   1.352  -0.059  0.5752 -0.8508  0.0533
 1090SOL    HW3 4133   0.691   1.298   0.070  0.1925  0.8603  0.9740
 1090SOL    MW4 4134   0.629   1.341   0.027  0.1504  0.0214  0.1486
 1091SOL     OW 4135   4.816   2.883   4.819 -0.2687  0.3676 -0.2474
 1091SOL    HW2 4136   4.778   2.800   4.792  2.2207 -0.9793  0.1523
 1091SOL    HW3 4137   4.817   2.936   4.739 -1.3654 -0.1629 -0.6345
 1091SOL    MW4 4138   4.811   2.879   4.805 -0.0850  0.1199 -0.2458
 1092SOL     OW 4139   2.286   2.007   2.953 -0.1420 -0.2176  0.1133
 1092SOL    HW2 4140   2.291   1.977   3.043 -0.2440 -0.2226  0.1169
 1092SOL    HW3 4141   2.204   2.056   2.947  1.1410  2.2194  0.7643
 1092SOL    MW4 4142   2.276   2.010   2.964  0.0138  0.1033  0.1996
 1093SOL     OW 4143   4.728   0.632   0.039  0.2392  0.2906  0.4300
 1093SOL    HW2 4144   4.794   0.604  -0.024 -0.9462  0.7059 -1.0622
 1093SOL    HW3 4145   4.776   0.643   0.121  1.5031 -2.0449  0.0916
 1093SOL    MW4 4146   4.743   0.630   0.041  0.2496  0.0373  0.1885
 1094SOL     OW 4147   0.487   1.986   0.686  0.2719  0.3021 -0.0013
 1094SOL    HW2 4148   0.561   2.016   0.632  0.7072 -1.1594 -0.2551
 1094SOL    HW3 4149   0.453   1.910   0.639  0.3899 -0.7492  1.5585
 1094SOL    MW4 4150   0.492   1.980   0.672  0.3449 -0.0294  0.1710
 1095SOL     OW 4151   5.435   1.432   4.895 -0.0168  0.4570 -0.2978
 1095SOL    HW2 4152   5.494   1.491   4.942 -1.0998  0.4500  1.1631
 1095SOL    HW3 4153   5.414   1.364   4.960 -0.4285 -0.3801 -1.2845
 1095SOL    MW4 4154   5.440   1.431   4.910 -0.2140  0.3457 -0.2352
 1096SOL     OW 4155   6.008   6.194   3.616  0.0449  0.3664  0.4594
 1096SOL    HW2 4156   5.961   6.275   3.593 -1.2764 -0.8087 -1.2966
 1096SOL    HW3 4157   6.100   6.220   3.619 -0.2683  1.8226 -0.8092
 1096SOL    MW4 4158   6.014   6.208   3.613 -0.1708  0.4035  0.0604
 1097SOL     OW 4159   1.002   0.360   3.970 -0.1863  0.1286  0.6775
 1097SOL    HW2 4160   1.017   0.273   4.006 -0.0676  0.1454  0.6697
 1097SOL    HW3 4161   1.061   0.417   4.020 -0.4283  0.2398  0.8368
 1097SOL    MW4 4162   1.012   0.356   3.982 -0.2026  0.1455  0.6975
 1098SOL     OW 4163   6.003   3.870   1.247 -0.2503 -0.0828 -0.6353
 1098SOL    HW2 4164   5.980   3.962   1.260 -1.1242 -0.4600  0.6207
 1098SOL    HW3 4165   6.061   3.849   1.321 -2.1710 -1.2291  0.6184
 1098SOL    MW4 4166   6.008   3.879   1.259 -0.6190 -0.2838 -0.3042
 1099SOL     OW 4167   5.118   0.620   5.182  0.3140 -0.1822 -0.1912
 1099SOL    HW2 4168   5.170   0.671   5.244  1.5081 -0.2912 -1.0704
 1099SOL    HW3 4169   5.178   0.553   5.150 -0.7940 -1.2034 -0.1836
 1099SOL    MW4 4170   5.133   0.618   5.186  0.3254 -0.3313 -0.3062
 1100SOL     OW 4171   0.016   3.506   1.357  0.2737 -0.1432 -0.1896
 1100SOL    HW2 4172   0.029   3.415   1.384  1.3347 -0.4211 -1.5296
 1100SOL    HW3 4173  -0.032   3.499   1.274  0.8995  0.4937 -0.6095
 1100SOL    MW4 4174   0.011   3.493   1.350  0.4963 -0.0958 -0.4218
 1101SOL     OW 4175   4.809   0.919   1.272  0.2892  0.0770  0.2432
 1101SOL    HW2 4176   4.742   0.933   1.338  0.6049  0.3116  0.5121
 1101SOL    HW3 4177   4.851   0.837   1.298 -2.1447 -2.0444 -1.8102
 1101SOL    MW4 4178   4.805   0.910   1.284  0.0097 -0.1719  0.0077
 1102SOL     OW 4179   5.561   0.954   3.637 -0.1841 -0.0136  0.1330
 1102SOL    HW2 4180   5.548   1.040   3.678 -0.2830 -0.3202  0.7536
 1102SOL    HW3 4181   5.651   0.955   3.606 -0.4916  0.7044 -0.8118
 1102SOL    MW4 4182   5.571   0.966   3.638 -0.2377  0.0407  0.0902
 1103SOL     OW 4183   2.066   5.924   1.463  0.1869  0.2062 -0.1539
 1103SOL    HW2 4184   2.128   5.894   1.529  0.2807 -1.2193 -0.8755
 1103SOL    HW3 4185   2.118   5.937   1.384 -0.4042 -0.9145 -0.7423
 1103SOL    MW4 4186   2.081   5.922   1.462  0.1213 -0.1297 -0.3267
 1104SOL     OW 4187   3.417   4.085   2.926  0.6869  0.0101 -0.2340
 1104SOL    HW2 4188   3.482   4.045   2.868 -1.7664 -1.0556 -2.4889
 1104SOL    HW3 4189   3.373   4.011   2.968  0.3181  0.6433  0.5211
 1104SOL    MW4 4190   3.420   4.070   2.924  0.3146 -0.0470 -0.4319
 1105SOL     OW 4191   1.088   5.502   4.807 -0.4564 -0.3514  0.2287
 1105SOL    HW2 4192   0.996   5.521   4.790  0.1326  0.7633 -2.1046
 1105SOL    HW3 4193   1.127   5.587   4.828  0.5560 -0.2737 -1.7401
 1105SOL    MW4 4194   1.081   5.516   4.807 -0.2451 -0.1941 -0.3389
 1106SOL     OW 4195   2.818   1.709   0.275  0.2543 -0.1556 -0.5930
 1106SOL    HW2 4196   2.819   1.613   0.272  0.4519 -0.1576 -0.4732
 1106SOL    HW3 4197   2.805   1.735   0.184 -2.9171 -0.3216 -0.2821
 1106SOL    MW4 4198   2.817   1.700   0.262 -0.1380 -0.1778 -0.5362
 1107SOL     OW 4199   1.341   0.935   5.136  0.3722 -0.3333  0.6942
 1107SOL    HW2 4200   1.409   0.973   5.191  0.7043  0.0905  0.0177
 1107SOL    HW3 4201   1.378   0.852   5.105  0.0187 -0.7742  1.4297
 1107SOL    MW4 4202   1.355   0.929   5.139  0.3694 -0.3356  0.7020
 1108SOL     OW 4203   3.661   6.446   0.762  0.0060 -0.0886  0.5385
 1108SOL    HW2 4204   3.568   6.456   0.742  0.0326 -0.0341  0.4447
 1108SOL    HW3 4205   3.695   6.388   0.694  0.3012  0.8510 -0.1309
 1108SOL    MW4 4206   3.653   6.439   0.751  0.0484  0.0426  0.4378
 1109SOL     OW 4207   1.118   0.974   1.276 -0.3466 -0.9358  0.4095
 1109SOL    HW2 4208   1.055   1.030   1.322  0.4708  2.6766 -2.4334
 1109SOL    HW3 4209   1.180   0.948   1.344 -0.7830  1.6580  1.9463
 1109SOL    MW4 4210   1.118   0.978   1.291 -0.2963 -0.1170  0.2372
 1110SOL     OW 4211   5.592   2.619   3.537 -0.4744 -0.1082 -0.2754
 1110SOL    HW2 4212   5.578   2.687   3.603 -0.1216  0.2698 -0.5818
 1110SOL    HW3 4213   5.554   2.540   3.575  0.9905 -0.2345  1.0007
 1110SOL    MW4 4214   5.585   2.617   3.551 -0.2346 -0.0750 -0.1475
 1111SOL     OW 4215   3.561   5.144   3.216 -0.1364 -0.3248  0.8407
 1111SOL    HW2 4216   3.512   5.205   3.160  0.4836 -0.4480  0.1445
 1111SOL    HW3 4217   3.567   5.189   3.300 -2.5440 -0.8459  1.3644
 1111SOL    MW4 4218   3.555   5.158   3.219 -0.3723 -0.4098  0.8179
 1112SOL     OW 4219   5.419   1.381   5.905 -0.4579  0.3103 -0.2393
 1112SOL    HW2 4220   5.441   1.410   5.993  3.0948  1.2323 -1.2593
 1112SOL    HW3 4221   5.418   1.461   5.852  4.4035 -0.5521 -2.1474
 1112SOL    MW4 4222   5.422   1.395   5.910  0.6522  0.3181 -0.6256
 1113SOL     OW 4223   0.512   4.123   2.818  0.2698 -0.3712  0.0917
 1113SOL    HW2 4224   0.577   4.192   2.829 -0.6655  0.3119  1.8547
 1113SOL    HW3 4225   0.428   4.169   2.820 -0.2997 -1.2848 -1.6345
 1113SOL    MW4 4226   0.509   4.138   2.820  0.0713 -0.4016  0.0966
 1114SOL     OW 4227   5.724   1.205   6.200  0.6911 -0.4186  0.3129
 1114SOL    HW2 4228   5.631   1.184   6.210 -0.2359  2.1401 -1.6366
 1114SOL    HW3 4229   5.770   1.125   6.223 -1.9373 -1.5967  1.9846
 1114SOL    MW4 4230   5.717   1.192   6.205  0.2220 -0.2364  0.2763
 1115SOL     OW 4231   2.054   5.111   2.222 -0.4216 -0.3295 -0.0726
 1115SOL    HW2 4232   2.001   5.156   2.289  1.4681  2.5251 -0.3094
 1115SOL    HW3 4233   2.007   5.125   2.140  0.1874  1.4668 -0.1589
 1115SOL    MW4 4234   2.041   5.119   2.220 -0.0919  0.2841 -0.1153
 1116SOL     OW 4235   3.895   4.731   2.958  0.1445 -0.4772 -0.1214
 1116SOL    HW2 4236   3.956   4.803   2.967  1.2843 -1.3272 -0.8011
 1116SOL    HW3 4237   3.821   4.755   3.014  1.2433  0.4075  0.9955
 1116SOL    MW4 4238   3.893   4.743   2.966  0.4399 -0.4726 -0.0637
 1117SOL     OW 4239   3.515   0.644   0.672 -0.3678  0.1705 -0.1382
 1117SOL    HW2 4240   3.516   0.722   0.727  0.1209  1.0665 -1.4049
 1117SOL    HW3 4241   3.571   0.581   0.718  0.3040  1.0196  0.2092
 1117SOL    MW4 4242   3.522   0.646   0.686 -0.2147  0.4008 -0.2595
 1118SOL     OW 4243   6.043   5.689   4.407  0.2962 -0.2044 -0.1735
 1118SOL    HW2 4244   6.087   5.612   4.444 -1.8024 -1.8361 -0.8641
 1118SOL    HW3 4245   6.114   5.742   4.371  1.8300 -1.8550  0.2465
 1118SOL    MW4 4246   6.058   5.686   4.407  0.2217 -0.6375 -0.2092
 1119SOL     OW 4247   3.361   3.860   5.494  0.2433  0.2304 -0.2487
 1119SOL    HW2 4248   3.337   3.838   5.584 -0.1547 -1.2409 -0.6721
 1119SOL    HW3 4249   3.429   3.926   5.502 -0.3319  0.6827  1.1112
 1119SOL    MW4 4250   3.367   3.866   5.507  0.1149  0.0960 -0.1251
 1120SOL     OW 4251   0.770   1.321   3.048  0.0970 -0.0424  0.0747
 1120SOL    HW2 4252   0.776   1.414   3.068  0.3396  0.1965 -1.0709
 1120SOL    HW3 4253   0.860   1.294   3.031 -0.0704 -0.3043 -0.3973
 1120SOL    MW4 4254   0.782   1.330   3.048  0.1069 -0.0454 -0.1387
 1121SOL     OW 4255   5.957   2.034   1.149 -0.2680  0.1292 -0.1670
 1121SOL    HW2 4256   5.886   2.015   1.210  1.0457 -3.1757  0.5263
 1121SOL    HW3 4257   5.914   2.046   1.064 -1.7405 -0.2591  0.4922
 1121SOL    MW4 4258   5.942   2.033   1.146 -0.2890 -0.3581  0.0115
 1122SOL     OW 4259   5.842   3.950   0.584  0.0967 -0.3404 -0.2529
 1122SOL    HW2 4260   5.927   3.969   0.545 -0.4475  0.6763 -0.9848
 1122SOL    HW3 4261   5.779   3.991   0.525 -1.0630 -2.7935 -0.8609
 1122SOL    MW4 4262   5.845   3.958   0.571 -0.1281 -0.5299 -0.4297
 1123SOL     OW 4263   5.790   2.164   4.268 -0.8141 -0.3757 -0.6493
 1123SOL    HW2 4264   5.695   2.167   4.279 -0.7855  0.6999 -0.5454
 1123SOL    HW3 4265   5.809   2.074   4.242 -2.2148  0.0660 -3.7054
 1123SOL    MW4 4266   5.780   2.152   4.266 -0.9951 -0.1755 -1.0388
 1124SOL     OW 4267   2.000   2.372   1.596  0.0611  0.5130 -0.1286
 1124SOL    HW2 4268   1.986   2.366   1.501  0.1258 -2.0571 -0.0470
 1124SOL    HW3 4269   2.093   2.352   1.608 -0.1564 -0.1351  0.5320
 1124SOL    MW4 4270   2.011   2.368   1.585  0.0410  0.0884 -0.0307
 1125SOL     OW 4271   2.003   4.355   0.198 -0.3406  0.2094 -0.3018
 1125SOL    HW2 4272   2.025   4.448   0.208  0.1355 -0.0888  1.7945
 1125SOL    HW3 4273   1.927   4.342   0.255 -0.9297 -0.5472 -1.2143
 1125SOL    MW4 4274   1.996   4.366   0.207 -0.3555  0.0702 -0.1456
 1126SOL     OW 4275   0.340   5.134   2.179 -0.6667  0.0082 -0.1878
 1126SOL    HW2 4276   0.409   5.131   2.112 -0.0157  1.1193  0.4058
 1126SOL    HW3 4277   0.324   5.043   2.201  1.3429 -0.2534  0.3774
 1126SOL    MW4 4278   0.347   5.122   2.173 -0.3157  0.1203 -0.0349
 1127SOL     OW 4279   1.684   5.057   5.071  0.1797  0.2396 -0.1019
 1127SOL    HW2 4280   1.644   5.036   5.155  0.3471  0.2133 -0.0274
 1127SOL    HW3 4281   1.719   5.145   5.083  1.9359 -0.4949  0.5151
 1127SOL    MW4 4282   1.684   5.066   5.084  0.4335  0.1392 -0.0106
 1128SOL     OW 4283   4.259   3.399   4.848 -0.1261 -0.2748 -0.2474
 1128SOL    HW2 4284   4.166   3.419   4.843 -0.2983 -0.8718  0.4161
 1128SOL    HW3 4285   4.265   3.328   4.912  0.7171 -0.6715 -0.7472
 1128SOL    MW4 4286   4.248   3.392   4.856 -0.0376 -0.4059 -0.2258
 1129SOL     OW 4287   6.377   0.429   0.339 -0.2328  0.1195  0.0464
 1129SOL    HW2 4288   6.372   0.496   0.407 -0.5497  0.7493 -0.5855
 1129SOL    HW3 4289   6.385   0.478   0.257  2.8760 -0.6003 -0.2218
 1129SOL    MW4 4290   6.378   0.444   0.337  0.1355  0.1076 -0.0723
 1130SOL     OW 4291   6.334   6.425   5.631 -0.3159  0.3778 -0.6519
 1130SOL    HW2 4292   6.425   6.410   5.604  0.4519 -0.0034  1.9261
 1130SOL    HW3 4293   6.333   6.515   5.665 -0.5746 -0.0590  0.5287
 1130SOL    MW4 4294   6.346   6.435   5.632 -0.2487  0.2698 -0.1560
 1131SOL     OW 4295   2.408   0.618   1.245 -0.0357 -0.3672 -0.3248
 1131SOL    HW2 4296   2.333   0.593   1.300  1.1686  0.7532  1.9839
 1131SOL    HW3 4297   2.441   0.536   1.210 -1.4245 -1.0236 -0.1447
 1131SOL    MW4 4298   2.402   0.604   1.248 -0.0601 -0.3060  0.0036
 1132SOL     OW 4299   0.352   4.142   3.862 -0.1667 -0.2649 -0.6808
 1132SOL    HW2 4300   0.341   4.236   3.849 -0.1757 -0.2560 -0.6123
 1132SOL    HW3 4301   0.346   4.130   3.957 -0.8538 -0.4231 -0.7358
 1132SOL    MW4 4302   0.350   4.153   3.873 -0.2586 -0.2846 -0.6790
 1133SOL     OW 4303   2.516   0.129   3.362  0.3979  0.1251  0.7494
 1133SOL    HW2 4304   2.555   0.209   3.325 -0.0790  0.5535  1.1654
 1133SOL    HW3 4305   2.455   0.099   3.295  0.5031  0.1607  0.6365
 1133SOL    MW4 4306   2.513   0.136   3.348  0.3489  0.1864  0.7894
 1134SOL     OW 4307   0.756   3.602   4.298 -0.1106 -0.3005 -0.6688
 1134SOL    HW2 4308   0.826   3.579   4.237  0.1444 -1.1594 -0.0711
 1134SOL    HW3 4309   0.792   3.583   4.385  1.0819  4.6410  0.2256
 1134SOL    MW4 4310   0.770   3.597   4.301  0.0804  0.2381 -0.4719
 1135SOL     OW 4311   3.756   0.187   4.868  0.6290 -0.4092 -0.0506
 1135SOL    HW2 4312   3.736   0.133   4.944  1.7737  0.5010  0.9375
 1135SOL    HW3 4313   3.763   0.276   4.903 -2.1296  0.6102 -1.7633
 1135SOL    MW4 4314   3.754   0.192   4.882  0.4160 -0.1546 -0.1462
 1136SOL     OW 4315   0.663   4.521   4.963 -0.0912  0.3090 -0.2182
 1136SOL    HW2 4316   0.712   4.452   4.919  0.9655  1.0882 -0.3221
 1136SOL    HW3 4317   0.572   4.492   4.961  0.3682 -1.2450  0.0775
 1136SOL    MW4 4318   0.657   4.508   4.957  0.1089  0.2068 -0.1929
 1137SOL     OW 4319   0.145   2.944   1.935 -0.4166  0.2564  0.0330
 1137SOL    HW2 4320   0.113   3.006   2.000 -0.1279  2.6187 -1.9360
 1137SOL    HW3 4321   0.233   2.919   1.966 -0.3261  1.2493  0.5983
 1137SOL    MW4 4322   0.153   2.949   1.948 -0.3666  0.6991 -0.1522
 1138SOL     OW 4323   5.986   1.099   4.358  0.1322  0.0571 -0.4126
 1138SOL    HW2 4324   5.953   1.186   4.338 -2.6386 -1.2416 -1.9995
 1138SOL    HW3 4325   6.024   1.068   4.276 -2.0267 -1.4443 -0.9366
 1138SOL    MW4 4326   5.987   1.107   4.345 -0.5182 -0.3124 -0.6911
 1139SOL     OW 4327   2.211   0.314   4.082  0.4334 -0.0459  0.2773
 1139SOL    HW2 4328   2.272   0.264   4.027 -0.8629 -1.2224 -0.1535
 1139SOL    HW3 4329   2.140   0.338   4.023 -1.2727 -1.8164  1.4881
 1139SOL    MW4 4330   2.210   0.310   4.067  0.0372 -0.4347  0.3802
 1140SOL     OW 4331   2.982   4.096   5.726 -0.1455  0.5155 -0.4786
 1140SOL    HW2 4332   2.901   4.075   5.772 -0.7413  2.4616 -0.5371
 1140SOL    HW3 4333   3.037   4.139   5.792 -0.1519  1.4075 -1.0445
 1140SOL    MW4 4334   2.979   4.099   5.741 -0.2249  0.8899 -0.5610
 1141SOL     OW 4335   3.385   1.580   4.225  0.3843  0.1422  1.1317
 1141SOL    HW2 4336   3.346   1.501   4.265 -1.0528  0.2082 -0.0548
 1141SOL    HW3 4337   3.313   1.642   4.221  0.9952  0.8088  0.2029
 1141SOL    MW4 4338   3.370   1.577   4.230  0.2753  0.2389  0.8526
 1142SOL     OW 4339   1.771   2.168   2.742  0.3501 -0.2572  0.0613
 1142SOL    HW2 4340   1.701   2.140   2.683  1.5686  0.1655 -1.6388
 1142SOL    HW3 4341   1.786   2.260   2.720  1.4289 -0.3379  0.4077
 1142SOL    MW4 4342   1.764   2.177   2.731  0.6532 -0.2121 -0.1173
 1143SOL     OW 4343   1.975   6.311   1.188 -0.2584  0.0228 -0.1216
 1143SOL    HW2 4344   2.040   6.314   1.258  0.9928 -0.7101 -1.2285
 1143SOL    HW3 4345   1.893   6.287   1.233  0.6086 -0.8992  1.0281
 1143SOL    MW4 4346   1.973   6.308   1.203  0.0211 -0.1955 -0.1159
 1144SOL     OW 4347   0.313   1.117   5.682 -0.7370 -0.2216 -0.0445
 1144SOL    HW2 4348   0.344   1.064   5.608 -1.5305 -0.0763 -0.4898
 1144SOL    HW3 4349   0.298   1.204   5.644 -0.3008  0.0906  0.4868
 1144SOL    MW4 4350   0.315   1.122   5.667 -0.7841 -0.1612 -0.0332
 1145SOL     OW 4351   1.503   0.343   0.960  0.2054  0.0869 -0.1941
 1145SOL    HW2 4352   1.463   0.256   0.953 -0.9064  0.5657 -0.0087
 1145SOL    HW3 4353   1.565   0.335   1.033  1.9101 -1.1871 -1.6866
 1145SOL    MW4 4354   1.506   0.330   0.969  0.2836 -0.0180 -0.3665
 1146SOL     OW 4355   3.019   2.875   0.384 -0.2228 -0.7368 -0.0798
 1146SOL    HW2 4356   3.033   2.792   0.338  0.9033 -0.4831 -0.2316
 1146SOL    HW3 4357   2.928   2.899   0.363  0.2887 -0.5430 -2.3657
 1146SOL    MW4 4358   3.009   2.868   0.375 -0.0068 -0.6777 -0.4014
 1147SOL     OW 4359   5.014   5.301   1.693 -0.5325  0.1489  0.1738
 1147SOL    HW2 4360   5.077   5.228   1.694 -1.1663 -0.4355 -1.2251
 1147SOL    HW3 4361   5.013   5.332   1.784  0.6620 -0.7884  0.5380
 1147SOL    MW4 4362   5.023   5.295   1.705 -0.4586 -0.0519  0.0373
 1148SOL     OW 4363   4.351   1.829   3.655 -0.1792 -0.5185 -0.3582
 1148SOL    HW2 4364   4.316   1.750   3.695 -1.9596  0.0946 -0.5881
 1148SOL    HW3 4365   4.393   1.876   3.727 -0.0752 -1.1584  0.0004
 1148SOL    MW4 4366   4.352   1.825   3.670 -0.4004 -0.5220 -0.3412
 1149SOL     OW 4367   1.521   0.796   2.963 -0.7511  0.4119  0.5731
 1149SOL    HW2 4368   1.616   0.785   2.966 -0.7270  0.3480 -0.0948
 1149SOL    HW3 4369   1.486   0.727   3.019 -0.3893  0.7758  1.2623
 1149SOL    MW4 4370   1.529   0.786   2.971 -0.7002  0.4515  0.5759
 1150SOL     OW 4371   0.540   2.565   5.738  0.0053 -0.2402 -0.2096
 1150SOL    HW2 4372   0.488   2.485   5.746  3.2663 -2.3876  1.6840
 1150SOL    HW3 4373   0.606   2.545   5.672  1.2285  0.6287  0.7006
 1150SOL    MW4 4374   0.542   2.552   5.730  0.5969 -0.4089  0.1603
 1151SOL     OW 4375   2.257   2.429   0.593  0.1062  0.5128 -0.0957
 1151SOL    HW2 4376   2.226   2.511   0.553 -0.1394  0.7819  0.6217
 1151SOL    HW3 4377   2.347   2.420   0.562 -0.5720 -0.1266 -1.9806
 1151SOL    MW4 4378   2.265   2.439   0.584 -0.0157  0.4640 -0.2498
 1152SOL     OW 4379   3.306   2.241   3.654 -0.0910 -0.1697 -0.2043
 1152SOL    HW2 4380   3.247   2.182   3.607  1.9754 -0.8788 -2.0473
 1152SOL    HW3 4381   3.372   2.183   3.692  2.1717  0.8835 -2.3139
 1152SOL    MW4 4382   3.307   2.226   3.653  0.4802 -0.1243 -0.7258
 1153SOL     OW 4383   3.920   6.434   4.531 -0.1150  0.0216 -0.6982
 1153SOL    HW2 4384   3.993   6.432   4.593 -0.7757  0.1888  0.1121
 1153SOL    HW3 4385   3.927   6.351   4.484 -0.3513 -0.7155  0.5160
 1153SOL    MW4 4386   3.931   6.423   4.533 -0.2333 -0.0536 -0.4311
 1154SOL     OW 4387   1.614   0.180   3.694  0.4274 -0.0830  0.0984
 1154SOL    HW2 4388   1.572   0.126   3.627 -1.5406  2.0284 -0.4710
 1154SOL    HW3 4389   1.688   0.220   3.649  1.0535 -1.1476  0.1379
 1154SOL    MW4 4390   1.618   0.178   3.679  0.2503  0.0551  0.0285
 1155SOL     OW 4391   2.792   1.980   1.277 -0.1961  0.2636 -0.0084
 1155SOL    HW2 4392   2.723   1.992   1.211 -0.7840  1.8879  0.8470
 1155SOL    HW3 4393   2.750   2.002   1.360  1.1610  0.5679  0.6299
 1155SOL    MW4 4394   2.777   1.985   1.279 -0.0946  0.5181  0.1887
 1156SOL     OW 4395   5.932   5.881   4.776 -0.1490  0.6777  0.2759
 1156SOL    HW2 4396   5.963   5.845   4.859  0.0675  0.1304 -0.0355
 1156SOL    HW3 4397   5.843   5.912   4.795  0.4684  2.0121  1.1070
 1156SOL    MW4 4398   5.924   5.880   4.789 -0.0390  0.7816  0.3445
 1157SOL     OW 4399   3.332   1.973   0.936  0.2136 -0.2273  0.0100
 1157SOL    HW2 4400   3.310   1.880   0.945 -0.3178 -0.2288 -1.0859
 1157SOL    HW3 4401   3.378   1.995   1.017  0.8472 -1.5867  0.0461
 1157SOL    MW4 4402   3.335   1.964   0.948  0.2271 -0.4069 -0.1298
 1158SOL     OW 4403   5.041   5.486   6.244  0.8625 -0.1435 -0.2809
 1158SOL    HW2 4404   5.024   5.400   6.205  0.1405 -0.5187  0.8239
 1158SOL    HW3 4405   5.110   5.524   6.189  2.8130 -2.3377  0.4488
 1158SOL    MW4 4406   5.048   5.479   6.232  1.0246 -0.4825 -0.0389
 1159SOL     OW 4407   4.475   5.204   4.738  0.4523  0.4058 -0.1870
 1159SOL    HW2 4408   4.480   5.198   4.642  1.0730  0.7297 -0.1780
 1159SOL    HW3 4409   4.531   5.132   4.769 -0.2205 -0.0753 -0.0580
 1159SOL    MW4 4410   4.483   5.193   4.729  0.4455  0.3851 -0.1688
 1160SOL     OW 4411   4.649   4.118   0.218  0.0451 -0.2184 -0.1888
 1160SOL    HW2 4412   4.712   4.115   0.146 -0.5309 -0.4482 -0.6895
 1160SOL    HW3 4413   4.572   4.074   0.184  0.3140 -1.7837  1.1062
 1160SOL    MW4 4414   4.647   4.112   0.204  0.0046 -0.4552 -0.0840
 1161SOL     OW 4415   2.701   3.804   2.362  0.3083 -0.3304  0.2049
 1161SOL    HW2 4416   2.713   3.832   2.271 -2.3907 -0.2521 -0.2187
 1161SOL    HW3 4417   2.690   3.886   2.410 -1.7355 -0.3968 -0.0500
 1161SOL    MW4 4418   2.701   3.819   2.356 -0.3174 -0.3288  0.1154
 1162SOL     OW 4419   1.960   5.831   1.835 -0.2352  0.5988 -0.1914
 1162SOL    HW2 4420   1.984   5.923   1.851 -0.9031  0.6155  0.7943
 1162SOL    HW3 4421   2.016   5.782   1.895  1.1017  0.2367 -1.6785
 1162SOL    MW4 4422   1.971   5.837   1.845 -0.1469  0.5532 -0.2575
 1163SOL     OW 4423   3.129   2.712   4.795 -0.3635 -0.1619  0.2460
 1163SOL    HW2 4424   3.137   2.788   4.853 -0.8430  1.3380 -1.5698
 1163SOL    HW3 4425   3.097   2.642   4.852 -1.9401  1.5501  1.5891
 1163SOL    MW4 4426   3.126   2.713   4.810 -0.6348  0.2619  0.1836
 1164SOL     OW 4427   0.805   5.206   0.137  0.5591  0.6100  0.0717
 1164SOL    HW2 4428   0.895   5.219   0.108  0.7177 -1.1647 -0.3339
 1164SOL    HW3 4429   0.795   5.111   0.145 -1.3947  0.7362 -0.2900
 1164SOL    MW4 4430   0.816   5.195   0.134  0.3223  0.3925 -0.0295
 1165SOL     OW 4431   4.894   3.559   2.786 -0.0373 -0.0530  0.0659
 1165SOL    HW2 4432   4.836   3.522   2.852  0.9253 -0.4800  0.6953
 1165SOL    HW3 4433   4.848   3.545   2.703 -0.8007 -0.4244  0.5439
 1165SOL    MW4 4434   4.880   3.552   2.784 -0.0110 -0.1583  0.2120
 1166SOL     OW 4435   4.497   6.227   1.039  0.6964  0.3389  1.0636
 1166SOL    HW2 4436   4.544   6.146   1.017 -0.1142  0.1124  0.0798
 1166SOL    HW3 4437   4.555   6.297   1.012  0.6493  0.0630  0.1979
 1166SOL    MW4 4438   4.511   6.225   1.033  0.5832  0.2726  0.8196
 1167SOL     OW 4439   4.612   1.844   5.717 -0.1241 -0.2661 -0.7405
 1167SOL    HW2 4440   4.634   1.756   5.748 -0.7799 -0.3442 -0.4783
 1167SOL    HW3 4441   4.562   1.830   5.637  0.4447 -0.1038 -1.1275
 1167SOL    MW4 4442   4.608   1.831   5.710 -0.1356 -0.2550 -0.7570
 1168SOL     OW 4443   4.396   0.821   3.830 -0.9205  0.2238 -0.2454
 1168SOL    HW2 4444   4.370   0.912   3.817  0.1667  0.6181  0.1973
 1168SOL    HW3 4445   4.405   0.786   3.741  1.2970  1.3635 -0.5481
 1168SOL    MW4 4446   4.394   0.829   3.816 -0.4845  0.4262 -0.2269
 1169SOL     OW 4447   1.528   6.468   1.116  0.4022 -0.5548 -0.0508
 1169SOL    HW2 4448   1.518   6.402   1.184  1.8035 -1.7492 -0.9404
 1169SOL    HW3 4449   1.621   6.492   1.120  0.2157  0.3283 -0.6842
 1169SOL    MW4 4450   1.539   6.462   1.126  0.5625 -0.5959 -0.2517
 1170SOL     OW 4451   1.881   1.826   1.607  1.2795 -0.0149  0.2393
 1170SOL    HW2 4452   1.881   1.746   1.555 -1.1408 -0.2554  0.4966
 1170SOL    HW3 4453   1.930   1.803   1.687  0.0238 -1.5013  0.6290
 1170SOL    MW4 4454   1.887   1.812   1.611  0.7945 -0.2427  0.3247
 1171SOL     OW 4455   6.286   0.806   0.240  0.7069 -0.1218 -0.0718
 1171SOL    HW2 4456   6.331   0.794   0.157  1.6931 -1.9322  0.6633
 1171SOL    HW3 4457   6.210   0.749   0.236 -0.3778  1.2929 -0.4621
 1171SOL    MW4 4458   6.282   0.797   0.229  0.6939 -0.1740 -0.0263
 1172SOL     OW 4459   0.806   2.830   1.856  0.0558 -0.4540  0.0142
 1172SOL    HW2 4460   0.754   2.806   1.779 -0.5810  0.8624  0.0097
 1172SOL    HW3 4461   0.884   2.775   1.850 -0.6875 -1.4826 -0.7264
 1172SOL    MW4 4462   0.809   2.819   1.845 -0.1263 -0.4160 -0.0841
 1173SOL     OW 4463   0.875   2.379   4.987  0.5425 -0.8841 -0.5390
 1173SOL    HW2 4464   0.897   2.432   4.911 -0.0767  0.1686 -0.0082
 1173SOL    HW3 4465   0.958   2.340   5.014  1.0071 -0.2058 -0.9675
 1173SOL    MW4 4466   0.889   2.381   4.981  0.5221 -0.6557 -0.5255
 1174SOL     OW 4467   2.277   4.157   2.758 -0.2613  0.2058  0.2952
 1174SOL    HW2 4468   2.221   4.087   2.790  0.6423 -0.2541  0.8895
 1174SOL    HW3 4469   2.310   4.199   2.837 -1.0372  1.5258 -0.0432
 1174SOL    MW4 4470   2.274   4.154   2.773 -0.2445  0.3192  0.3289
 1175SOL     OW 4471   0.071   4.957   2.881 -0.5589  0.3421  0.3724
 1175SOL    HW2 4472   0.044   4.866   2.873  0.6479  0.0076 -0.1429
 1175SOL    HW3 4473  -0.010   5.008   2.870 -1.2750 -0.6598  0.8843
 1175SOL    MW4 4474   0.057   4.952   2.878 -0.4942  0.1658  0.3720
 1176SOL     OW 4475   3.195   5.281   4.869 -0.0993  0.2186  0.2799
 1176SOL    HW2 4476   3.212   5.241   4.783  0.1118  0.9936 -0.0433
 1176SOL    HW3 4477   3.245   5.227   4.930 -1.3711 -1.2124  0.1224
 1176SOL    MW4 4478   3.204   5.268   4.866 -0.2392  0.1321  0.2165
 1177SOL     OW 4479   1.837   3.568   1.757  0.6521 -0.0298 -0.0637
 1177SOL    HW2 4480   1.787   3.488   1.736  2.4416 -0.5619 -2.8619
 1177SOL    HW3 4481   1.806   3.632   1.693  1.8023  0.3708 -0.2343
 1177SOL    MW4 4482   1.826   3.566   1.746  1.0400 -0.0472 -0.4554
 1178SOL     OW 4483   0.829   2.732   5.116 -0.0738  0.7251  0.2345
 1178SOL    HW2 4484   0.752   2.740   5.061 -1.6006  0.1437  2.1541
 1178SOL    HW3 4485   0.871   2.651   5.088  0.9494  1.9524 -2.0415
 1178SOL    MW4 4486   0.824   2.723   5.105 -0.1403  0.8103  0.1875
 1179SOL     OW 4487   5.063   6.212   6.114  0.1433  0.3869 -0.2987
 1179SOL    HW2 4488   4.978   6.198   6.154  0.7016  2.9800  2.0132
 1179SOL    HW3 4489   5.108   6.127   6.123 -0.8289  0.0519  1.9581
 1179SOL    MW4 4490   5.058   6.199   6.120  0.0887  0.6849  0.3041
 1180SOL     OW 4491   2.957   3.881   6.100 -0.4328  0.3244 -0.3776
 1180SOL    HW2 4492   2.872   3.903   6.137 -0.3613  0.8601 -0.5323
 1180SOL    HW3 4493   2.988   3.807   6.154 -0.9101  0.2422 -0.2108
 1180SOL    MW4 4494   2.950   3.874   6.112 -0.4863  0.3842 -0.3760
 1181SOL     OW 4495   3.334   3.472   5.563 -0.0860 -0.5057  0.0669
 1181SOL    HW2 4496   3.376   3.438   5.484 -0.6671  0.2822 -0.5975
 1181SOL    HW3 4497   3.270   3.536   5.531 -0.1050  0.0650  1.1919
 1181SOL    MW4 4498   3.331   3.476   5.549 -0.1652 -0.3264  0.1277
 1182SOL     OW 4499   1.524   1.454   2.906 -0.3632  0.2774 -0.0628
 1182SOL    HW2 4500   1.557   1.505   2.832 -0.7886 -0.2567 -0.6267
 1182SOL    HW3 4501   1.593   1.460   2.972  0.5677 -0.2703 -0.9637
 1182SOL    MW4 4502   1.537   1.462   2.905 -0.2965  0.1347 -0.2561
 1183SOL     OW 4503   4.300   1.345   5.984 -0.1105 -0.3676 -0.0446
 1183SOL    HW2 4504   4.337   1.399   6.054 -0.1771  0.0820 -0.3500
 1183SOL    HW3 4505   4.338   1.381   5.904 -0.1187 -0.8075 -0.2512
 1183SOL    MW4 4506   4.310   1.357   5.983 -0.1204 -0.3663 -0.1122
 1184SOL     OW 4507   3.755   2.686   1.365  0.5996  0.1619  0.2223
 1184SOL    HW2 4508   3.784   2.644   1.445 -0.0328 -1.0934 -0.1754
 1184SOL    HW3 4509   3.676   2.638   1.340  0.2423  1.1459 -0.6399
 1184SOL    MW4 4510   3.748   2.674   1.372  0.4690  0.1261  0.0560
 1185SOL     OW 4511   1.198   4.019   4.697 -0.5105  0.3366 -0.0274
 1185SOL    HW2 4512   1.150   3.978   4.769  0.2089  0.9816  0.8432
 1185SOL    HW3 4513   1.195   4.113   4.716  3.5105  0.3054  1.7446
 1185SOL    MW4 4514   1.191   4.026   4.709  0.1150  0.4176  0.3213
 1186SOL     OW 4515   4.268   1.582   1.317 -0.5729  0.2143  0.1227
 1186SOL    HW2 4516   4.340   1.644   1.324 -0.7224  0.5244 -0.9462
 1186SOL    HW3 4517   4.305   1.498   1.345  0.6366  0.0556 -1.7564
 1186SOL    MW4 4518   4.282   1.579   1.322 -0.4331  0.2343 -0.2662
 1187SOL     OW 4519   4.502   0.864   2.346  0.2889 -0.0576  0.3338
 1187SOL    HW2 4520   4.440   0.839   2.277 -0.4979  0.2602  0.9092
 1187SOL    HW3 4521   4.581   0.892   2.299 -0.6849  1.3918 -0.5049
 1187SOL    MW4 4522   4.504   0.865   2.331  0.0566  0.1756  0.2991
 1188SOL     OW 4523   6.393   5.693   4.643 -0.8490  0.2043  0.4137
 1188SOL    HW2 4524   6.351   5.682   4.728 -0.5813  0.5264  0.5931
 1188SOL    HW3 4525   6.371   5.782   4.616  0.2845  0.6434  0.8456
 1188SOL    MW4 4526   6.385   5.703   4.651 -0.6641  0.3047  0.4943
 1189SOL     OW 4527   1.555   6.359   3.503  0.1861  0.1260  0.1190
 1189SOL    HW2 4528   1.633   6.317   3.467 -0.1214  1.1348 -1.9005
 1189SOL    HW3 4529   1.524   6.299   3.571  1.3421 -1.4775 -0.7025
 1189SOL    MW4 4530   1.561   6.345   3.507  0.2980  0.0475 -0.2558
 1190SOL     OW 4531   0.079   4.171   2.345  0.0732 -0.9384  0.7467
 1190SOL    HW2 4532  -0.004   4.214   2.364 -0.1476 -0.1237 -1.6299
 1190SOL    HW3 4533   0.055   4.096   2.291  0.9195  0.8999 -2.4528
 1190SOL    MW4 4534   0.065   4.166   2.340  0.1557 -0.5883  0.0110
 1191SOL     OW 4535   1.930   3.010   1.415  0.2116 -0.0167 -0.1489
 1191SOL    HW2 4536   2.020   3.012   1.446  1.1451  2.0235 -2.5787
 1191SOL    HW3 4537   1.882   3.067   1.475  1.2225  1.2601 -0.5206
 1191SOL    MW4 4538   1.936   3.018   1.427  0.4682  0.4210 -0.5186
 1192SOL     OW 4539   2.914   2.192   2.071 -0.1747 -0.2862  0.6169
 1192SOL    HW2 4540   2.878   2.103   2.079  1.3163 -0.7875  2.4665
 1192SOL    HW3 4541   2.978   2.186   2.000  0.1499 -0.7927  0.9463
 1192SOL    MW4 4542   2.918   2.179   2.062  0.0649 -0.4192  0.9044
 1193SOL     OW 4543   5.331   4.020   0.580 -0.0839  0.2919  0.0692
 1193SOL    HW2 4544   5.396   3.958   0.613  0.3397  0.2174 -0.8766
 1193SOL    HW3 4545   5.247   3.978   0.600  0.1533  0.2572  1.0406
 1193SOL    MW4 4546   5.328   4.006   0.587  0.0033  0.2775  0.0726
 1194SOL     OW 4547   2.788   6.117   1.668 -0.2329  0.3467 -0.3295
 1194SOL    HW2 4548   2.803   6.032   1.710 -1.6242  0.1316 -0.1959
 1194SOL    HW3 4549   2.820   6.182   1.730  1.7812 -0.0883 -0.8587
 1194SOL    MW4 4550   2.794   6.114   1.681 -0.1507  0.2609 -0.3817
 1195SOL     OW 4551   6.387   0.644   5.576 -0.3474  0.0833 -0.5136
 1195SOL    HW2 4552   6.408   0.735   5.596 -2.6020  0.5157  0.1985
 1195SOL    HW3 4553   6.412   0.596   5.655  1.0019  0.0184 -0.9531
 1195SOL    MW4 4554   6.393   0.650   5.589 -0.4669  0.1318 -0.4776
 1196SOL     OW 4555   5.694   4.538   4.673 -0.2188 -0.2185 -0.4302
 1196SOL    HW2 4556   5.601   4.559   4.665 -0.5809 -0.2674  2.4564
 1196SOL    HW3 4557   5.727   4.539   4.584 -2.0884  3.7408 -1.2976
 1196SOL    MW4 4558   5.686   4.541   4.661 -0.5133  0.2974 -0.1638
 1197SOL     OW 4559   2.784   2.281   1.538 -0.2966  0.0564  0.2324
 1197SOL    HW2 4560   2.758   2.309   1.450 -0.6067  0.4438  0.4428
 1197SOL    HW3 4561   2.774   2.359   1.593 -3.8298 -1.0044  1.3911
 1197SOL    MW4 4562   2.779   2.295   1.534 -0.8037 -0.0324  0.4130
 1198SOL     OW 4563   4.755   0.636   6.086 -0.2381  0.4788  0.2868
 1198SOL    HW2 4564   4.834   0.615   6.036  1.6043  0.6397  2.9219
 1198SOL    HW3 4565   4.737   0.727   6.064  0.1689  0.3617 -0.5491
 1198SOL    MW4 4566   4.763   0.645   6.077  0.0587  0.4845  0.5242
 1199SOL     OW 4567   3.717   1.241   4.930 -1.0290  0.2668  0.5057
 1199SOL    HW2 4568   3.629   1.268   4.955 -0.9624 -0.7709  2.0377
 1199SOL    HW3 4569   3.706   1.197   4.845 -2.1225 -0.4854  1.0165
 1199SOL    MW4 4570   3.704   1.238   4.922 -1.1645  0.0306  0.7753
 1200SOL     OW 4571   0.522   5.256   0.995 -0.6476  0.1257  0.6669
 1200SOL    HW2 4572   0.549   5.187   1.055  1.1639 -0.9958 -1.2942
 1200SOL    HW3 4573   0.462   5.213   0.934  0.1879  0.3287 -0.3322
 1200SOL    MW4 4574   0.517   5.241   0.995 -0.2983  0.0046  0.2763
 1201SOL     OW 4575  -0.002   1.517   3.191 -0.2024 -0.6206 -0.4020
 1201SOL    HW2 4576   0.035   1.557   3.112  0.0193  0.4284  0.2087
 1201SOL    HW3 4577   0.026   1.575   3.262  0.2745 -1.9771  0.5592
 1201SOL    MW4 4578   0.006   1.530   3.190 -0.1102 -0.6612 -0.1946
 1202SOL     OW 4579   4.993   2.922   2.243 -0.2722  0.5069  0.1377
 1202SOL    HW2 4580   5.044   2.841   2.234 -0.6013  0.4760 -2.0938
 1202SOL    HW3 4581   4.943   2.910   2.323  1.6054 -0.3805  1.2376
 1202SOL    MW4 4582   4.993   2.910   2.252 -0.0679  0.3858 -0.0116
 1203SOL     OW 4583   0.173   3.462   2.069 -0.1875 -0.8339  0.3859
 1203SOL    HW2 4584   0.099   3.459   2.130  0.3050  0.2512  1.0770
 1203SOL    HW3 4585   0.178   3.555   2.044  0.4383 -1.0454 -0.2891
 1203SOL    MW4 4586   0.164   3.474   2.074 -0.0400 -0.7187  0.3880
 1204SOL     OW 4587   1.423   4.506   0.698  0.1025 -0.2621 -0.2992
 1204SOL    HW2 4588   1.437   4.581   0.640 -1.7697  0.0837 -0.3536
 1204SOL    HW3 4589   1.334   4.477   0.679  1.0173 -3.0275 -0.8387
 1204SOL    MW4 4590   1.413   4.512   0.687 -0.0238 -0.5814 -0.3776
 1205SOL     OW 4591   0.172   5.429   4.739 -0.4153 -0.4988 -1.0621
 1205SOL    HW2 4592   0.179   5.512   4.692  0.8581  0.3506  0.5313
 1205SOL    HW3 4593   0.262   5.405   4.760 -0.8279 -1.8252 -0.7096
 1205SOL    MW4 4594   0.185   5.437   4.735 -0.3018 -0.5618 -0.8054
 1206SOL     OW 4595   2.087   3.972   4.285 -0.2456  0.4729 -0.1249
 1206SOL    HW2 4596   2.146   4.031   4.332 -0.1278  1.1601 -1.0875
 1206SOL    HW3 4597   2.130   3.887   4.288  1.2573  1.1306 -1.5186
 1206SOL    MW4 4598   2.100   3.969   4.291 -0.0317  0.6503 -0.4358
 1207SOL     OW 4599   3.187   3.945   4.779  0.6502  0.3182 -0.2650
 1207SOL    HW2 4600   3.235   3.873   4.820 -0.3308  0.6472  1.5890
 1207SOL    HW3 4601   3.234   4.024   4.807  1.6005  0.4569 -2.1192
 1207SOL    MW4 4602   3.200   3.946   4.788  0.6462  0.3799 -0.2650
 1208SOL     OW 4603   4.076   3.491   2.105  0.4291 -0.4393 -0.7006
 1208SOL    HW2 4604   4.002   3.485   2.166  1.2323  0.2729  0.3892
 1208SOL    HW3 4605   4.037   3.474   2.019 -0.8508 -0.8718 -0.0689
 1208SOL    MW4 4606   4.061   3.488   2.102  0.3662 -0.4024 -0.4735
 1209SOL     OW 4607   2.735   4.327   5.746 -0.2851 -0.0735  0.4996
 1209SOL    HW2 4608   2.720   4.236   5.773 -1.0762 -0.3050 -0.6521
 1209SOL    HW3 4609   2.701   4.331   5.656 -0.5683  1.4473  0.6568
 1209SOL    MW4 4610   2.728   4.316   5.738 -0.4268  0.0966  0.3684
 1210SOL     OW 4611   2.018   4.171   3.640  0.3368  0.2413  0.5249
 1210SOL    HW2 4612   1.970   4.148   3.560  1.3935  0.5232 -0.2082
 1210SOL    HW3 4613   1.950   4.178   3.707 -0.8433  2.0276 -0.7580
 1210SOL    MW4 4614   2.002   4.169   3.638  0.3205  0.5142  0.2589
 1211SOL     OW 4615   4.529   3.562   0.847 -0.4290  0.2293  0.0460
 1211SOL    HW2 4616   4.574   3.599   0.923  1.4548 -0.1336 -0.8584
 1211SOL    HW3 4617   4.466   3.630   0.821 -0.4487  0.7396  1.3321
 1211SOL    MW4 4618   4.526   3.576   0.854 -0.1831  0.2487  0.0964
 1212SOL     OW 4619   0.505   1.273   1.544  0.1165 -0.1364  0.7838
 1212SOL    HW2 4620   0.589   1.301   1.581  0.4835  0.5728 -0.5347
 1212SOL    HW3 4621   0.442   1.337   1.577  0.4846  0.6399  0.0207
 1212SOL    MW4 4622   0.507   1.285   1.553  0.2135  0.0596  0.5092
 1213SOL     OW 4623   5.846   6.295   2.600  0.1108  0.2693  0.0975
 1213SOL    HW2 4624   5.884   6.335   2.522  2.1189  1.1396  1.4388
 1213SOL    HW3 4625   5.770   6.349   2.621 -2.5325 -1.8717 -3.0060
 1213SOL    MW4 4626   5.841   6.307   2.592  0.0270  0.1017 -0.1350
 1214SOL     OW 4627   5.104   1.199   3.069  0.0107  0.0435 -1.0414
 1214SOL    HW2 4628   5.116   1.230   2.979  1.4609  0.8607 -0.6143
 1214SOL    HW3 4629   5.032   1.252   3.103  0.8311  1.2319 -1.0990
 1214SOL    MW4 4630   5.096   1.210   3.061  0.3102  0.3081 -0.9927
 1215SOL     OW 4631   3.912   4.689   2.687  0.4480  0.5987  0.1167
 1215SOL    HW2 4632   3.900   4.699   2.782 -0.7838 -0.9013  0.1633
 1215SOL    HW3 4633   3.883   4.772   2.650 -0.9595  0.5059  0.9431
 1215SOL    MW4 4634   3.907   4.701   2.695  0.0998  0.3886  0.2319
 1216SOL     OW 4635   5.083   0.064   4.918  0.2097 -0.4688  0.0438
 1216SOL    HW2 4636   5.108  -0.001   4.853 -0.0076 -1.0759  0.5571
 1216SOL    HW3 4637   5.017   0.118   4.874  1.3936  0.2935 -0.8554
 1216SOL    MW4 4638   5.078   0.063   4.904  0.3373 -0.4484 -0.0071
 1217SOL     OW 4639   1.149   1.830   0.464  0.2261  0.3929  0.0353
 1217SOL    HW2 4640   1.189   1.911   0.432 -0.5475 -0.3876 -3.3236
 1217SOL    HW3 4641   1.058   1.854   0.481 -0.0452  0.2556 -1.1211
 1217SOL    MW4 4642   1.142   1.844   0.462  0.0883  0.2718 -0.5604
 1218SOL     OW 4643   4.847   3.307   4.766  0.2002  0.1879  0.2883
 1218SOL    HW2 4644   4.941   3.314   4.783  0.2162  0.1500  0.2163
 1218SOL    HW3 4645   4.806   3.367   4.828  0.1551 -1.0352  1.4845
 1218SOL    MW4 4646   4.854   3.316   4.776  0.1963  0.0215  0.4366
 1219SOL     OW 4647   3.005   6.427   3.533  0.0701 -0.5120  0.2311
 1219SOL    HW2 4648   2.913   6.442   3.512  0.1785  0.3861  0.3377
 1219SOL    HW3 4649   3.005   6.346   3.584 -0.7879  0.0219  1.1201
 1219SOL    MW4 4650   2.993   6.419   3.537 -0.0288 -0.3231  0.3625
 1220SOL     OW 4651   4.790   2.436   2.553  0.3073  0.3474  0.2909
 1220SOL    HW2 4652   4.807   2.461   2.644  1.8105  0.9657 -0.1294
 1220SOL    HW3 4653   4.832   2.351   2.544  0.0106  0.2083  0.2153
 1220SOL    MW4 4654   4.797   2.428   2.564  0.4665  0.4106  0.2255
 1221SOL     OW 4655   4.862   2.455   2.086  0.3451 -0.0753 -0.4991
 1221SOL    HW2 4656   4.862   2.437   1.992 -0.1002 -1.4432 -0.2635
 1221SOL    HW3 4657   4.950   2.429   2.115  0.4745  0.3246 -0.5275
 1221SOL    MW4 4658   4.874   2.449   2.078  0.3034 -0.2030 -0.4717
 1222SOL     OW 4659   4.641   0.415   0.282 -0.2039  0.4736  0.0103
 1222SOL    HW2 4660   4.711   0.373   0.232  1.5372  1.6891  1.3065
 1222SOL    HW3 4661   4.591   0.465   0.217  1.5062  1.3642 -0.6614
 1222SOL    MW4 4662   4.643   0.416   0.267  0.2515  0.7514  0.0927
 1223SOL     OW 4663   4.759   1.417   1.537  0.2001  0.0482 -0.1428
 1223SOL    HW2 4664   4.795   1.405   1.625  0.4892  1.8006  0.0187
 1223SOL    HW3 4665   4.668   1.444   1.552 -0.0871 -0.7307 -0.4344
 1223SOL    MW4 4666   4.752   1.419   1.551  0.2003  0.1766 -0.1600
 1224SOL     OW 4667   6.186   4.732   2.355 -0.5690 -0.1098  0.2317
 1224SOL    HW2 4668   6.136   4.764   2.280  0.3911  1.9534  0.4051
 1224SOL    HW3 4669   6.267   4.783   2.355 -0.3461 -0.3210  2.4369
 1224SOL    MW4 4670   6.190   4.743   2.345 -0.4129  0.1345  0.5455
 1225SOL     OW 4671   4.920   0.139   3.142 -0.2798 -0.0081 -0.0667
 1225SOL    HW2 4672   4.888   0.180   3.223 -0.1994  0.1057 -0.0930
 1225SOL    HW3 4673   4.901   0.046   3.154 -0.3222  0.0157  0.0587
 1225SOL    MW4 4674   4.913   0.132   3.154 -0.2748  0.0100 -0.0536
 1226SOL     OW 4675   6.018   4.383   0.502  0.3457 -0.1646 -0.3197
 1226SOL    HW2 4676   6.049   4.388   0.412 -2.3606 -1.0298 -1.3900
 1226SOL    HW3 4677   5.924   4.402   0.497  0.2207  0.4814  2.4425
 1226SOL    MW4 4678   6.010   4.387   0.490 -0.0278 -0.1935 -0.0965
 1227SOL     OW 4679   3.610   3.909   3.221 -0.1952  0.0760 -0.1692
 1227SOL    HW2 4680   3.602   4.003   3.235  2.4626  0.3669 -0.0853
 1227SOL    HW3 4681   3.645   3.876   3.304 -1.6668 -1.1208  0.0175
 1227SOL    MW4 4682   3.614   3.917   3.234 -0.0387 -0.0435 -0.1335
 1228SOL     OW 4683   2.264   4.046   5.434  0.3377  0.8156  0.2584
 1228SOL    HW2 4684   2.229   4.132   5.411 -0.0876  0.5707 -0.0130
 1228SOL    HW3 4685   2.249   3.992   5.356 -0.8494  0.0564  0.9834
 1228SOL    MW4 4686   2.257   4.050   5.421  0.1250  0.6831  0.3182
 1229SOL     OW 4687   2.903   2.155   0.169  0.9152 -0.3118  0.1589
 1229SOL    HW2 4688   2.893   2.247   0.143 -0.8604 -0.4868  0.1138
 1229SOL    HW3 4689   2.913   2.108   0.086 -1.4074 -0.4799 -0.1098
 1229SOL    MW4 4690   2.903   2.161   0.154  0.3745 -0.3570  0.1175
 1230SOL     OW 4691   1.396   3.144   2.786 -0.5099 -0.2191  0.0221
 1230SOL    HW2 4692   1.456   3.101   2.848 -0.2288 -0.1501 -0.2006
 1230SOL    HW3 4693   1.453   3.178   2.717 -0.5605  1.6503  0.8228
 1230SOL    MW4 4694   1.411   3.143   2.785 -0.4795  0.0367  0.0983
 1231SOL     OW 4695   4.555   4.372   3.718  0.4387  0.0178  0.2396
 1231SOL    HW2 4696   4.499   4.371   3.640  1.2482  0.4852 -0.3568
 1231SOL    HW3 4697   4.498   4.338   3.788 -0.3653 -0.2017 -0.4972
 1231SOL    MW4 4698   4.540   4.367   3.717  0.4394  0.0505  0.0637
 1232SOL     OW 4699   6.419   2.376   0.411  0.0496  0.2406 -0.3308
 1232SOL    HW2 4700   6.335   2.407   0.376 -0.7538 -1.5789 -0.1298
 1232SOL    HW3 4701   6.395   2.312   0.478  1.5891 -0.8661 -0.7746
 1232SOL    MW4 4702   6.405   2.372   0.415  0.1467 -0.1454 -0.3628
 1233SOL     OW 4703   3.669   1.306   2.842 -0.5939  0.1378 -0.1489
 1233SOL    HW2 4704   3.731   1.360   2.793 -0.7935  0.4273 -0.0913
 1233SOL    HW3 4705   3.649   1.359   2.920 -1.0553  0.1366 -0.2605
 1233SOL    MW4 4706   3.675   1.320   2.846 -0.6811  0.1758 -0.1560
 1234SOL     OW 4707   4.644   0.605   3.162  0.4925  0.7880  0.0992
 1234SOL    HW2 4708   4.732   0.616   3.125 -0.2411  1.5055 -1.5539
 1234SOL    HW3 4709   4.591   0.670   3.116 -1.2897 -0.8391 -0.2947
 1234SOL    MW4 4710   4.649   0.615   3.151  0.1605  0.6680 -0.1709
 1235SOL     OW 4711   5.865   5.438   0.151  0.0496 -0.4702  0.0400
 1235SOL    HW2 4712   5.825   5.475   0.230 -0.9323  4.0990 -2.2261
 1235SOL    HW3 4713   5.840   5.499   0.081  2.9884 -2.7561 -3.3718
 1235SOL    MW4 4714   5.857   5.451   0.152  0.3078 -0.1689 -0.7091
 1236SOL     OW 4715   3.582   1.145   3.599 -0.6348 -0.0439  0.1653
 1236SOL    HW2 4716   3.663   1.151   3.548 -1.1156 -1.9015 -0.8878
 1236SOL    HW3 4717   3.595   1.206   3.672  0.4177  2.0926 -1.6953
 1236SOL    MW4 4718   3.594   1.154   3.602 -0.5593 -0.0071 -0.2191
 1237SOL     OW 4719   4.989   3.330   0.989  0.0030  0.0412  0.0670
 1237SOL    HW2 4720   5.069   3.319   1.041 -0.1016 -0.6177  0.0932
 1237SOL    HW3 4721   4.997   3.418   0.951 -0.0673  0.6636  1.4354
 1237SOL    MW4 4722   5.001   3.340   0.991 -0.0201  0.0364  0.2510
 1238SOL     OW 4723   3.942   5.341   5.585 -0.5349 -0.3870 -0.2101
 1238SOL    HW2 4724   4.010   5.376   5.642 -1.8818 -0.5643  1.6132
 1238SOL    HW3 4725   3.949   5.246   5.595 -0.3513 -0.4588 -0.9176
 1238SOL    MW4 4726   3.952   5.333   5.594 -0.6884 -0.4199 -0.0629
 1239SOL     OW 4727   1.899   2.780   3.009  0.8262 -0.2112 -0.0106
 1239SOL    HW2 4728   1.954   2.808   2.936 -0.5800 -0.5286 -1.2241
 1239SOL    HW3 4729   1.816   2.755   2.969 -1.2628  2.8388  1.9570
 1239SOL    MW4 4730   1.895   2.780   2.994  0.3650  0.1494  0.0889
 1240SOL     OW 4731   4.678   3.688   1.062  0.1223  0.3949  0.2952
 1240SOL    HW2 4732   4.679   3.761   1.124 -2.7291 -0.7173  1.8178
 1240SOL    HW3 4733   4.699   3.612   1.115 -3.0932 -0.6865  0.2251
 1240SOL    MW4 4734   4.681   3.688   1.077 -0.6781  0.1055  0.4869
 1241SOL     OW 4735   0.709   2.270   0.094 -0.6149  0.0852 -0.6186
 1241SOL    HW2 4736   0.783   2.309   0.140 -0.3539 -1.0301 -0.0379
 1241SOL    HW3 4737   0.746   2.240   0.011 -0.0232 -1.7246  0.2342
 1241SOL    MW4 4738   0.724   2.271   0.089 -0.5024 -0.3007 -0.4295
 1242SOL     OW 4739   0.600   1.957   2.237  0.0507 -0.0127 -0.6507
 1242SOL    HW2 4740   0.658   1.991   2.306 -0.4634  0.1158 -0.2732
 1242SOL    HW3 4741   0.517   1.942   2.282 -0.1776 -0.2886 -1.1670
 1242SOL    MW4 4742   0.597   1.960   2.252 -0.0473 -0.0322 -0.6690
 1243SOL     OW 4743   5.249   0.068   3.399 -0.2728  0.2209 -0.0558
 1243SOL    HW2 4744   5.204   0.006   3.342  1.2292  1.0298 -2.2364
 1243SOL    HW3 4745   5.215   0.049   3.486 -1.7023 -1.9536 -1.0041
 1243SOL    MW4 4746   5.239   0.057   3.403 -0.2632  0.0407 -0.4686
 1244SOL     OW 4747   3.287   1.091   5.537  0.2575  0.1436  0.0441
 1244SOL    HW2 4748   3.323   1.150   5.470  2.3531  1.0771  1.8879
 1244SOL    HW3 4749   3.248   1.149   5.602  0.0216 -0.6464  0.6193
 1244SOL    MW4 4750   3.287   1.106   5.536  0.5029  0.1625  0.3633
 1245SOL     OW 4751   0.936   3.233   2.547  0.1896  0.1610 -0.2028
 1245SOL    HW2 4752   1.028   3.225   2.571  0.6147  1.2920 -1.3101
 1245SOL    HW3 4753   0.932   3.204   2.456 -0.1920  1.6964 -0.7172
 1245SOL    MW4 4754   0.948   3.228   2.538  0.1953  0.5128 -0.4167
 1246SOL     OW 4755   2.476   0.594   6.341  0.1053  0.4082 -0.3025
 1246SOL    HW2 4756   2.397   0.539   6.338 -0.4006  1.0132  1.0618
 1246SOL    HW3 4757   2.503   0.602   6.249 -0.8984 -0.5492 -0.7087
 1246SOL    MW4 4758   2.469   0.587   6.328 -0.0939  0.3617 -0.1761
 1247SOL     OW 4759   3.469   1.903   4.352 -0.1297 -0.0825 -0.2242
 1247SOL    HW2 4760   3.414   1.839   4.398  0.7053 -0.1609  0.7136
 1247SOL    HW3 4761   3.549   1.907   4.404 -0.0111  1.4571 -0.4755
 1247SOL    MW4 4762   3.473   1.895   4.365 -0.0039  0.1103 -0.1336
 1248SOL     OW 4763   5.571   5.827   2.246  0.0150 -0.1336 -0.4362
 1248SOL    HW2 4764   5.497   5.859   2.194  0.9084  0.0246 -1.6685
 1248SOL    HW3 4765   5.621   5.905   2.266 -0.4328 -0.1670  0.8981
 1248SOL    MW4 4766   5.568   5.841   2.242  0.0738 -0.1171 -0.4228
 1249SOL     OW 4767   1.348   5.636   4.041  0.0923 -0.4756 -0.1765
 1249SOL    HW2 4768   1.344   5.569   4.108 -1.3297  0.6383  0.9294
 1249SOL    HW3 4769   1.393   5.594   3.967  0.9830 -1.9803  1.1547
 1249SOL    MW4 4770   1.353   5.622   4.040  0.0222 -0.5271  0.1451
 1250SOL     OW 4771   3.899   0.535   1.537 -0.0343  0.1935 -0.0180
 1250SOL    HW2 4772   3.840   0.607   1.560  1.5006  1.9189 -1.1377
 1250SOL    HW3 4773   3.885   0.469   1.605 -1.3835  1.6297  1.1702
 1250SOL    MW4 4774   3.890   0.536   1.549 -0.0098  0.6106 -0.0090
 1251SOL     OW 4775   4.915   0.696   3.600 -0.9858 -0.7887 -0.5686
 1251SOL    HW2 4776   4.929   0.791   3.601 -0.4077 -0.8769  0.2097
 1251SOL    HW3 4777   4.823   0.686   3.574 -1.2614  0.0065  0.0535
 1251SOL    MW4 4778   4.905   0.707   3.597 -0.9459 -0.6954 -0.3838
 1252SOL     OW 4779   5.326   2.430   4.643  0.5776  0.6607  0.0219
 1252SOL    HW2 4780   5.274   2.434   4.563  0.0881  1.0812  0.3614
 1252SOL    HW3 4781   5.409   2.472   4.620  0.5661  0.4811 -0.3569
 1252SOL    MW4 4782   5.330   2.436   4.629  0.5115  0.6925  0.0167
 1253SOL     OW 4783   0.507   5.683   1.050  0.4443 -0.2608 -0.3651
 1253SOL    HW2 4784   0.601   5.662   1.048  0.3728 -1.2930  2.3620
 1253SOL    HW3 4785   0.464   5.602   1.022  0.3661 -0.2311 -0.3320
 1253SOL    MW4 4786   0.514   5.670   1.046  0.4245 -0.3931 -0.0009
 1254SOL     OW 4787   0.751   5.308   0.768 -0.0469 -0.1250 -0.5218
 1254SOL    HW2 4788   0.675   5.267   0.808 -0.1481  0.7331  0.1903
 1254SOL    HW3 4789   0.804   5.235   0.736 -0.7810 -0.7559 -0.3196
 1254SOL    MW4 4790   0.748   5.293   0.769 -0.1571 -0.0950 -0.4012
 1255SOL     OW 4791   5.874   1.234   5.597 -0.3998 -0.1668 -1.0790
 1255SOL    HW2 4792   5.941   1.293   5.561 -1.4379  2.1031  0.4538
 1255SOL    HW3 4793   5.795   1.288   5.602 -1.4467 -1.7422  0.3240
 1255SOL    MW4 4794   5.873   1.249   5.593 -0.6749 -0.0752 -0.6916
 1256SOL     OW 4795   2.660   1.148   4.001 -0.1647 -0.0223 -0.1557
 1256SOL    HW2 4796   2.645   1.157   4.095  1.2509  0.9547  0.0033
 1256SOL    HW3 4797   2.752   1.122   3.994 -0.7012 -1.7935 -1.2252
 1256SOL    MW4 4798   2.670   1.145   4.013 -0.0487 -0.1271 -0.2759
 1257SOL     OW 4799   5.273   0.235   6.300  0.3962 -0.1468  0.1416
 1257SOL    HW2 4800   5.341   0.268   6.241 -0.7098  0.2275 -0.9691
 1257SOL    HW3 4801   5.268   0.141   6.283  1.3574 -0.3703  1.0095
 1257SOL    MW4 4802   5.281   0.227   6.290  0.3771 -0.1269  0.1096
 1258SOL     OW 4803   4.935   5.814   2.578  0.0566  0.7735 -0.4185
 1258SOL    HW2 4804   4.907   5.904   2.559  0.5359  0.5264 -2.5802
 1258SOL    HW3 4805   4.966   5.817   2.669 -0.0007  2.7753 -0.4233
 1258SOL    MW4 4806   4.936   5.827   2.588  0.1122  1.0050 -0.7044
 1259SOL     OW 4807   0.315   2.005   5.060 -0.5320 -0.2975 -0.6841
 1259SOL    HW2 4808   0.278   1.930   5.015 -0.3709 -1.0522  0.4151
 1259SOL    HW3 4809   0.262   2.015   5.140 -0.2426  0.4473 -0.5682
 1259SOL    MW4 4810   0.303   1.997   5.065 -0.4725 -0.2988 -0.5237
 1260SOL     OW 4811   3.859   0.132   6.082 -1.1970 -0.5521 -0.7566
 1260SOL    HW2 4812   3.931   0.125   6.020 -1.3321 -0.5403 -0.9149
 1260SOL    HW3 4813   3.879   0.210   6.133 -1.4177 -0.1962 -1.2129
 1260SOL    MW4 4814   3.871   0.141   6.081 -1.2439 -0.5036 -0.8377
 1261SOL     OW 4815   1.602   0.513   3.642 -0.3427  0.2167 -0.0686
 1261SOL    HW2 4816   1.580   0.524   3.549 -1.9710  0.0018  0.2509
 1261SOL    HW3 4817   1.535   0.452   3.674  1.1217 -0.9209  0.9115
 1261SOL    MW4 4818   1.590   0.506   3.634 -0.3643  0.0383  0.1028
 1262SOL     OW 4819   5.043   1.026   4.760 -0.6088 -0.1393  0.4306
 1262SOL    HW2 4820   5.061   1.119   4.767  0.2120 -0.1407 -1.2780
 1262SOL    HW3 4821   4.951   1.021   4.732 -0.8873  0.1103  1.2691
 1262SOL    MW4 4822   5.033   1.038   4.758 -0.5373 -0.1066  0.3158
 1263SOL     OW 4823   0.920   0.532   4.579  0.7243  0.0982 -0.6720
 1263SOL    HW2 4824   0.897   0.529   4.672 -0.0664  1.6392 -0.7837
 1263SOL    HW3 4825   0.908   0.442   4.549  1.2009 -0.4752  0.7571
 1263SOL    MW4 4826   0.915   0.520   4.588  0.6828  0.2258 -0.4982
 1264SOL     OW 4827   3.406   0.101   2.441 -0.0810  0.1838 -0.2050
 1264SOL    HW2 4828   3.434   0.009   2.443  1.3449  0.4909 -2.6006
 1264SOL    HW3 4829   3.442   0.138   2.522  1.4413 -0.8395 -0.3730
 1264SOL    MW4 4830   3.415   0.094   2.452  0.3080  0.0893 -0.5432
 1265SOL     OW 4831   3.771   5.126   2.338  0.4160 -0.8417 -0.4989
 1265SOL    HW2 4832   3.676   5.130   2.327  0.3510  0.1082  0.2923
 1265SOL    HW3 4833   3.806   5.167   2.258  0.1326 -0.3428 -0.3709
 1265SOL    MW4 4834   3.763   5.132   2.326  0.3700 -0.6506 -0.3776
 1266SOL     OW 4835   4.678   5.735   4.595  0.2180  0.1660  0.4851
 1266SOL    HW2 4836   4.696   5.645   4.566 -1.7931 -0.6243  1.4767
 1266SOL    HW3 4837   4.691   5.732   4.690  0.7275  1.0937  0.4469
 1266SOL    MW4 4838   4.682   5.722   4.604  0.0199  0.1841  0.6109
 1267SOL     OW 4839   2.103   2.436   5.664  0.1783 -0.1213 -0.3879
 1267SOL    HW2 4840   2.191   2.469   5.679 -0.2650  1.1378 -0.4828
 1267SOL    HW3 4841   2.117   2.353   5.617  1.3425 -0.8003  1.0518
 1267SOL    MW4 4842   2.116   2.429   5.660  0.2734 -0.0448 -0.2105
 1268SOL     OW 4843   1.511   5.684   1.716  0.6273  0.2778 -0.4188
 1268SOL    HW2 4844   1.486   5.656   1.804  0.2745  1.9582  0.0452
 1268SOL    HW3 4845   1.605   5.699   1.722  0.4338  1.4672  0.0214
 1268SOL    MW4 4846   1.520   5.682   1.729  0.5552  0.6565 -0.2995
 1269SOL     OW 4847   0.604   3.981   3.409  0.6322  0.4708 -0.0281
 1269SOL    HW2 4848   0.573   4.017   3.493  1.3637 -0.1813  0.5301
 1269SOL    HW3 4849   0.523   3.967   3.359  0.2290  1.4846  0.3038
 1269SOL    MW4 4850   0.589   3.984   3.413  0.6755  0.5185  0.0893
 1270SOL     OW 4851   6.042   1.454   5.461  0.8580  0.4094  0.6086
 1270SOL    HW2 4852   5.999   1.462   5.376 -0.0220  1.7363  1.1546
 1270SOL    HW3 4853   6.134   1.471   5.442  1.0452 -1.4364 -0.4029
 1270SOL    MW4 4854   6.049   1.457   5.447  0.7666  0.3409  0.5472
 1271SOL     OW 4855   4.848   6.089   0.756 -0.5600 -0.3680  0.3586
 1271SOL    HW2 4856   4.874   6.013   0.705 -0.2514 -0.4515  0.6324
 1271SOL    HW3 4857   4.812   6.150   0.692  1.6100  0.3385 -0.2985
 1271SOL    MW4 4858   4.847   6.087   0.741 -0.2330 -0.2858  0.3081
 1272SOL     OW 4859   0.425   4.000   2.426  0.1804 -0.0642  0.2392
 1272SOL    HW2 4860   0.516   4.031   2.430 -0.1405  0.8423  0.9305
 1272SOL    HW3 4861   0.376   4.063   2.479 -0.7592 -0.9055  0.4005
 1272SOL    MW4 4862   0.430   4.013   2.433  0.0141 -0.0556  0.3517
 1273SOL     OW 4863   4.457   1.174   3.544  0.1281 -0.3212  1.1131
 1273SOL    HW2 4864   4.436   1.267   3.543 -0.9489 -0.5536 -0.5719
 1273SOL    HW3 4865   4.375   1.130   3.566  0.2404 -0.9388  0.3588
 1273SOL    MW4 4866   4.444   1.180   3.547  0.0008 -0.4333  0.7912
 1274SOL     OW 4867   3.190   2.397   4.497  0.0060  0.1177  0.2344
 1274SOL    HW2 4868   3.217   2.307   4.483 -1.7558 -0.0175 -3.3336
 1274SOL    HW3 4869   3.103   2.391   4.536  0.3166  0.3417  0.9908
 1274SOL    MW4 4870   3.182   2.385   4.500 -0.1854  0.1294 -0.1366
 1275SOL     OW 4871   3.488   5.847   0.245  0.6154 -0.1273 -0.3702
 1275SOL    HW2 4872   3.431   5.786   0.291  0.2054  1.6275  1.6249
 1275SOL    HW3 4873   3.566   5.796   0.223  0.5573 -1.2520  1.7922
 1275SOL    MW4 4874   3.491   5.832   0.248  0.5536 -0.0442  0.1783
 1276SOL     OW 4875   2.553   5.507   2.084  0.0739  0.0637  0.2677
 1276SOL    HW2 4876   2.543   5.505   1.988 -0.1754  0.8195  0.2728
 1276SOL    HW3 4877   2.624   5.569   2.099  1.6506 -1.6737  0.4796
 1276SOL    MW4 4878   2.561   5.515   2.073  0.2490 -0.0658  0.2963
 1277SOL     OW 4879   0.105   5.602   5.033  0.1686  0.4105 -0.0079
 1277SOL    HW2 4880   0.181   5.546   5.016 -1.3891 -2.0343  0.6650
 1277SOL    HW3 4881   0.124   5.642   5.118  1.2156  0.7969 -0.4009
 1277SOL    MW4 4882   0.118   5.600   5.042  0.1012  0.1389  0.0291
 1278SOL     OW 4883   0.353   2.961   4.805  0.2749  0.1032  0.3029
 1278SOL    HW2 4884   0.306   2.959   4.722 -0.1179 -1.2586  0.5412
 1278SOL    HW3 4885   0.346   2.872   4.840  2.3664  0.0536  0.7417
 1278SOL    MW4 4886   0.346   2.949   4.799  0.4990 -0.0830  0.3922
 1279SOL     OW 4887   4.522   0.685   0.727 -0.4713 -0.2534 -0.3488
 1279SOL    HW2 4888   4.496   0.768   0.686 -0.9516 -0.3473 -0.2411
 1279SOL    HW3 4889   4.446   0.628   0.715 -1.3425  0.2603  2.2449
 1279SOL    MW4 4890   4.508   0.688   0.720 -0.6496 -0.1980  0.0076
 1280SOL     OW 4891   0.295   4.882   2.282  0.3335  0.3400  0.0058
 1280SOL    HW2 4892   0.328   4.794   2.264 -0.2609 -0.0242  0.6502
 1280SOL    HW3 4893   0.200   4.873   2.280  0.2455  0.5929  1.7355
 1280SOL    MW4 4894   0.287   4.869   2.279  0.2435  0.3253  0.3191
 1281SOL     OW 4895   1.459   1.289   3.794 -0.0031 -0.0145  0.2068
 1281SOL    HW2 4896   1.413   1.234   3.857  0.5244  0.7269  1.2757
 1281SOL    HW3 4897   1.424   1.263   3.709 -1.6617 -0.1586  0.9024
 1281SOL    MW4 4898   1.448   1.278   3.792 -0.1524  0.0643  0.4396
 1282SOL     OW 4899   4.321   0.812   1.812  0.4116  0.6287 -0.1351
 1282SOL    HW2 4900   4.323   0.809   1.907 -0.4596  2.0757 -0.0287
 1282SOL    HW3 4901   4.233   0.781   1.789  1.4457 -2.2038 -0.6748
 1282SOL    MW4 4902   4.309   0.808   1.821  0.4331  0.4459 -0.1923
 1283SOL     OW 4903   5.690   5.788   0.165  0.1512  0.3372  0.1993
 1283SOL    HW2 4904   5.725   5.876   0.180 -3.2695  2.4204 -2.4023
 1283SOL    HW3 4905   5.651   5.763   0.248  0.1949  1.8418  0.7121
 1283SOL    MW4 4906   5.690   5.796   0.178 -0.2943  0.8106 -0.0763
 1284SOL     OW 4907   1.526   2.521   2.665  0.0009 -0.0582  0.3382
 1284SOL    HW2 4908   1.456   2.559   2.613  1.9837  2.4441 -0.7074
 1284SOL    HW3 4909   1.574   2.465   2.605  0.7999  0.8382  0.1172
 1284SOL    MW4 4910   1.523   2.519   2.650  0.3679  0.3902  0.1710
 1285SOL     OW 4911   2.229   4.692   5.106 -0.1516 -0.4774 -0.2791
 1285SOL    HW2 4912   2.301   4.755   5.111 -0.5514 -0.0489  0.1752
 1285SOL    HW3 4913   2.254   4.622   5.168 -0.0300 -0.4284 -0.2723
 1285SOL    MW4 4914   2.242   4.691   5.115 -0.1883 -0.4144 -0.2183
 1286SOL     OW 4915   5.192   6.319   2.603 -0.1682  0.1215 -0.6825
 1286SOL    HW2 4916   5.101   6.330   2.574 -1.5946 -3.8479  1.5327
 1286SOL    HW3 4917   5.207   6.390   2.664 -1.3649  1.4630 -1.8745
 1286SOL    MW4 4918   5.182   6.330   2.607 -0.5143 -0.2252 -0.5475
 1287SOL     OW 4919   2.185   1.808   3.771 -0.0516 -0.1051 -0.0185
 1287SOL    HW2 4920   2.148   1.893   3.795  0.1833 -0.0049 -0.0107
 1287SOL    HW3 4921   2.222   1.822   3.683  0.9848  0.1106  0.4322
 1287SOL    MW4 4922   2.185   1.821   3.763  0.1161 -0.0634  0.0420
 1288SOL     OW 4923   2.651   5.497   2.593  0.1297 -0.1531  0.1477
 1288SOL    HW2 4924   2.593   5.427   2.624  0.3946 -0.1490  0.6773
 1288SOL    HW3 4925   2.708   5.515   2.668 -1.4879  2.3190  0.9169
 1288SOL    MW4 4926   2.651   5.490   2.607 -0.0488  0.1736  0.3191
 1289SOL     OW 4927   2.001   5.202   4.055 -0.0109  0.5181 -1.2143
 1289SOL    HW2 4928   2.043   5.194   4.141 -0.5789  0.6490 -0.9231
 1289SOL    HW3 4929   2.051   5.143   3.998 -0.4799 -0.6049 -0.4827
 1289SOL    MW4 4930   2.013   5.193   4.059 -0.1477  0.3872 -1.0793
 1290SOL     OW 4931   4.617   1.598   4.799 -0.9154  0.1678 -0.1973
 1290SOL    HW2 4932   4.625   1.504   4.814 -0.7282  0.1293 -0.5112
 1290SOL    HW3 4933   4.535   1.608   4.750 -1.6469  0.3183  1.0371
 1290SOL    MW4 4934   4.607   1.587   4.794 -0.9872  0.1826 -0.0759
 1291SOL     OW 4935   0.905   4.494   5.470 -0.3396 -0.0803  0.2575
 1291SOL    HW2 4936   0.871   4.426   5.529 -0.1030 -0.9244 -0.5488
 1291SOL    HW3 4937   0.930   4.566   5.528  0.4401 -1.1168  1.2507
 1291SOL    MW4 4938   0.904   4.494   5.486 -0.2055 -0.3284  0.2821
 1292SOL     OW 4939   4.754   4.460   2.386 -0.1633  0.0750 -0.4131
 1292SOL    HW2 4940   4.743   4.553   2.406 -0.4228 -0.4952  2.4792
 1292SOL    HW3 4941   4.814   4.428   2.453 -0.5826 -1.9817 -0.9545
 1292SOL    MW4 4942   4.760   4.468   2.398 -0.2528 -0.2716 -0.1030
 1293SOL     OW 4943   0.253   2.031   5.345 -0.0644 -0.7790 -0.1376
 1293SOL    HW2 4944   0.338   2.060   5.380 -0.6821 -1.5539  2.2289
 1293SOL    HW3 4945   0.200   2.110   5.342  0.2711 -0.5498 -0.0806
 1293SOL    MW4 4946   0.257   2.045   5.349 -0.1016 -0.8510  0.1822
 1294SOL     OW 4947   3.912   0.780   1.952 -0.0457  0.4314  0.2157
 1294SOL    HW2 4948   3.987   0.722   1.940  0.7849  1.8102 -1.6358
 1294SOL    HW3 4949   3.949   0.869   1.951 -1.5091  1.1010  0.9814
 1294SOL    MW4 4950   3.926   0.784   1.951 -0.1292  0.7016  0.0725
 1295SOL     OW 4951   3.369   4.670   3.428  0.4098  0.3331 -0.2253
 1295SOL    HW2 4952   3.365   4.731   3.355  2.8838  0.3918 -0.3909
 1295SOL    HW3 4953   3.374   4.584   3.387 -2.2373 -0.0124  0.0002
 1295SOL    MW4 4954   3.369   4.667   3.413  0.3870  0.2953 -0.2174
 1296SOL     OW 4955   3.159   1.875   2.058 -0.5290  0.3951  0.0056
 1296SOL    HW2 4956   3.096   1.899   1.990  0.1034  0.4250 -0.5852
 1296SOL    HW3 4957   3.172   1.780   2.047  0.0847  0.5155 -0.3695
 1296SOL    MW4 4958   3.153   1.865   2.047 -0.3646  0.4149 -0.1218
 1297SOL     OW 4959   3.638   6.335   0.260 -0.3171  0.3234  0.1502
 1297SOL    HW2 4960   3.558   6.350   0.210 -0.4229  3.1580  0.9991
 1297SOL    HW3 4961   3.705   6.320   0.193 -1.0185  0.8663 -0.6973
 1297SOL    MW4 4962   3.636   6.335   0.245 -0.4236  0.7690  0.1504
 1298SOL     OW 4963   2.714   5.663   5.623 -0.2127 -0.0455  0.4021
 1298SOL    HW2 4964   2.691   5.674   5.715 -0.4534  0.9966  0.2355
 1298SOL    HW3 4965   2.708   5.569   5.607 -1.3117 -0.1259  1.1581
 1298SOL    MW4 4966   2.710   5.652   5.633 -0.3894  0.0814  0.4799
 1299SOL     OW 4967   4.810   1.453   6.426  0.7110 -0.2646  0.2305
 1299SOL    HW2 4968   4.740   1.511   6.454 -0.9813 -1.6729 -0.8416
 1299SOL    HW3 4969   4.830   1.400   6.503  0.7927  0.3051  0.6075
 1299SOL    MW4 4970   4.804   1.453   6.440  0.4985 -0.3753  0.1388
 1300SOL     OW 4971   4.072   1.483   1.999  0.1282  0.3984  0.9544
 1300SOL    HW2 4972   3.983   1.507   1.974  0.1678  0.4192  0.8307
 1300SOL    HW3 4973   4.128   1.529   1.936  0.3039  1.6323  1.9698
 1300SOL    MW4 4974   4.068   1.492   1.987  0.1566  0.5639  1.0721
 1301SOL     OW 4975   3.381   1.663   3.760  0.6446  0.0037  0.5763
 1301SOL    HW2 4976   3.321   1.713   3.814 -1.1865 -0.3806 -1.0041
 1301SOL    HW3 4977   3.364   1.572   3.784 -0.4944 -0.2008 -0.8645
 1301SOL    MW4 4978   3.371   1.657   3.770  0.2527 -0.0740  0.1777
 1302SOL     OW 4979   5.168   0.899   2.737  0.1031 -0.0686 -0.4412
 1302SOL    HW2 4980   5.093   0.862   2.785 -1.1304  1.2249 -1.2780
 1302SOL    HW3 4981   5.185   0.835   2.668 -0.3997 -0.2689 -0.3911
 1302SOL    MW4 4982   5.160   0.885   2.735 -0.1260  0.0757 -0.5450
 1303SOL     OW 4983   0.957   4.481   4.114 -0.2968 -0.1917  0.1398
 1303SOL    HW2 4984   0.991   4.393   4.132 -0.9011 -1.0102 -2.3732
 1303SOL    HW3 4985   1.017   4.517   4.049 -0.6390  0.8722  0.3922
 1303SOL    MW4 4986   0.969   4.474   4.108 -0.4217 -0.1593 -0.1585
 1304SOL     OW 4987   2.763   2.197   2.587 -0.1875 -0.4276  0.3195
 1304SOL    HW2 4988   2.840   2.194   2.531 -0.4985 -1.4831 -0.0749
 1304SOL    HW3 4989   2.782   2.136   2.658 -1.7491 -3.0593 -1.3063
 1304SOL    MW4 4990   2.775   2.189   2.589 -0.4345 -0.9141  0.0529
 1305SOL     OW 4991   2.602   4.425   0.137 -0.1481  0.5566 -0.0101
 1305SOL    HW2 4992   2.562   4.340   0.156  0.5437  0.2634  0.1775
 1305SOL    HW3 4993   2.692   4.417   0.170  0.4050  0.8199 -1.3602
 1305SOL    MW4 4994   2.609   4.412   0.144  0.0162  0.5527 -0.1635
 1306SOL     OW 4995   0.106   3.862   2.726  0.0063  0.1883  0.0585
 1306SOL    HW2 4996   0.090   3.950   2.691 -1.2644 -0.6065 -1.4886
 1306SOL    HW3 4997   0.195   3.840   2.696 -1.0841 -0.5390 -3.0590
 1306SOL    MW4 4998   0.116   3.871   2.717 -0.3052 -0.0125 -0.5569
 1307SOL     OW 4999   4.731   1.826   3.781  0.5081  0.0758 -0.1320
 1307SOL    HW2 5000   4.703   1.760   3.845 -0.7758  0.1040 -0.6375
 1307SOL    HW3 5001   4.807   1.867   3.822  0.0636 -0.2865  1.1271
 1307SOL    MW4 5002   4.738   1.822   3.795  0.2800  0.0317 -0.0325
 1308SOL     OW 5003   6.111   2.164   2.796 -0.8775 -0.1189 -0.0522
 1308SOL    HW2 5004   6.073   2.076   2.800  0.6291 -0.8665 -1.2416
 1308SOL    HW3 5005   6.173   2.160   2.723  2.3779  0.6328  2.4448
 1308SOL    MW4 5006   6.114   2.152   2.787 -0.2492 -0.1183  0.1203
 1309SOL     OW 5007   5.892   1.385   5.232 -0.5192 -0.5327 -0.3700
 1309SOL    HW2 5008   5.877   1.371   5.139  0.0950 -0.3271 -0.5047
 1309SOL    HW3 5009   5.811   1.427   5.263 -0.0857  1.0005 -1.1829
 1309SOL    MW4 5010   5.880   1.389   5.224 -0.3810 -0.3033 -0.4951
 1310SOL     OW 5011   5.535   5.620   3.315 -0.0807 -0.2933 -0.0105
 1310SOL    HW2 5012   5.609   5.586   3.265 -0.5616 -2.2377  0.5227
 1310SOL    HW3 5013   5.564   5.614   3.407 -0.3202  0.4729  0.1295
 1310SOL    MW4 5014   5.549   5.615   3.321 -0.1757 -0.4488  0.0783
 1311SOL     OW 5015   3.166   0.579   5.240 -0.4190  0.1026 -0.3611
 1311SOL    HW2 5016   3.244   0.632   5.225  0.8259 -2.1127 -2.3935
 1311SOL    HW3 5017   3.190   0.519   5.310  0.3776 -1.6293 -2.0289
 1311SOL    MW4 5018   3.179   0.578   5.247 -0.1497 -0.4182 -0.8493
 1312SOL     OW 5019   2.993   1.644   1.525  0.0666 -0.1273 -0.0956
 1312SOL    HW2 5020   2.967   1.576   1.586  0.6310 -0.0610  0.2253
 1312SOL    HW3 5021   3.077   1.677   1.559 -1.2778  2.3686  1.1395
 1312SOL    MW4 5022   3.001   1.640   1.538 -0.0363  0.2108  0.1097
 1313SOL     OW 5023   3.468   4.416   0.888  0.0784  0.1987  0.5707
 1313SOL    HW2 5024   3.429   4.492   0.931 -0.2354  1.2901 -1.4952
 1313SOL    HW3 5025   3.562   4.433   0.886 -0.0148  0.6797 -0.0981
 1313SOL    MW4 5026   3.475   4.428   0.893  0.0247  0.4062  0.2099
 1314SOL     OW 5027   5.274   0.596   1.107  0.6049  0.4598 -0.1615
 1314SOL    HW2 5028   5.277   0.625   1.198 -1.2151 -1.4288  0.5886
 1314SOL    HW3 5029   5.194   0.635   1.072 -0.0576 -0.8364 -0.1430
 1314SOL    MW4 5030   5.264   0.605   1.114  0.2774  0.0396 -0.0601
 1315SOL     OW 5031   4.060   2.481   5.755  0.5743 -0.3479  0.0365
 1315SOL    HW2 5032   4.056   2.419   5.682  1.0313 -0.9594  0.5279
 1315SOL    HW3 5033   4.015   2.438   5.827 -2.2359  1.3022 -0.5855
 1315SOL    MW4 5034   4.054   2.467   5.755  0.2638 -0.2109  0.0193
 1316SOL     OW 5035   1.828   6.052   6.358 -0.0071 -0.1298  0.2054
 1316SOL    HW2 5036   1.868   6.037   6.444  0.3181  1.3752  0.3538
 1316SOL    HW3 5037   1.862   5.982   6.303  3.2495  1.2623  0.2107
 1316SOL    MW4 5038   1.838   6.041   6.362  0.4654  0.2525  0.2256
 1317SOL     OW 5039   3.576   0.870   1.229 -0.2423  0.2375  0.5486
 1317SOL    HW2 5040   3.510   0.847   1.294 -2.1811  2.0506 -0.6395
 1317SOL    HW3 5041   3.596   0.788   1.185 -3.2220 -0.1576 -0.3251
 1317SOL    MW4 5042   3.570   0.856   1.231 -0.8912  0.4246  0.2766
 1318SOL     OW 5043   4.510   0.158   2.915  0.0865 -0.2309 -0.1986
 1318SOL    HW2 5044   4.558   0.089   2.961  1.1439  0.3476 -0.3967
 1318SOL    HW3 5045   4.475   0.213   2.986 -1.1708 -1.2266 -0.0322
 1318SOL    MW4 5046   4.512   0.156   2.931  0.0601 -0.2860 -0.2028
 1319SOL     OW 5047   1.460   0.382   5.966  0.3678 -0.0670  0.1181
 1319SOL    HW2 5048   1.369   0.398   5.990  0.8163  0.3263  1.7264
 1319SOL    HW3 5049   1.486   0.460   5.918 -0.1783 -0.2512 -0.4903
 1319SOL    MW4 5050   1.451   0.394   5.963  0.3549 -0.0394  0.2500
 1320SOL     OW 5051   3.485   2.432   3.724  0.0161  0.5732 -0.1406
 1320SOL    HW2 5052   3.421   2.363   3.704  0.3643  0.3744 -0.5872
 1320SOL    HW3 5053   3.449   2.510   3.683  0.6814  0.1855 -1.5110
 1320SOL    MW4 5054   3.472   2.433   3.716  0.1498  0.4958 -0.3803
 1321SOL     OW 5055   1.154   4.101   5.096  0.0286  0.2492 -0.2526
 1321SOL    HW2 5056   1.119   4.188   5.078 -0.6928 -0.0037 -0.1068
 1321SOL    HW3 5057   1.249   4.112   5.094 -0.0565  1.0767 -0.0456
 1321SOL    MW4 5058   1.162   4.114   5.093 -0.0778  0.3250 -0.2061
 1322SOL     OW 5059   0.525   1.886   3.403 -0.0530 -0.6339 -0.7094
 1322SOL    HW2 5060   0.504   1.845   3.486 -2.2747 -0.6004 -1.1876
 1322SOL    HW3 5061   0.513   1.980   3.418  0.1765 -0.5691 -0.9097
 1322SOL    MW4 5062   0.521   1.893   3.416 -0.3158 -0.6210 -0.7989
 1323SOL     OW 5063   4.896   2.204   0.395  0.5522  1.3346  0.4832
 1323SOL    HW2 5064   4.940   2.201   0.480  2.7268  0.1949 -0.5943
 1323SOL    HW3 5065   4.920   2.288   0.358 -0.3777  1.8219  0.9418
 1323SOL    MW4 5066   4.905   2.215   0.401  0.7164  1.2485  0.4015
 1324SOL     OW 5067   2.877   5.845   6.178  0.1558 -0.0484 -0.6749
 1324SOL    HW2 5068   2.911   5.758   6.200  0.4760  0.3960  0.7038
 1324SOL    HW3 5069   2.954   5.901   6.178 -0.3074  0.6362  0.7004
 1324SOL    MW4 5070   2.891   5.841   6.181  0.1369  0.1006 -0.3115
 1325SOL     OW 5071   5.561   1.976   0.902  0.1072  0.7408  0.0905
 1325SOL    HW2 5072   5.612   2.036   0.958 -0.1049  0.9348  0.0772
 1325SOL    HW3 5073   5.617   1.961   0.826  0.3561  0.5576  0.3070
 1325SOL    MW4 5074   5.575   1.982   0.900  0.1121  0.7422  0.1173
 1326SOL     OW 5075   1.285   3.439   0.734  0.9229  0.1551 -0.0105
 1326SOL    HW2 5076   1.251   3.351   0.751 -0.7945  0.4707 -1.4463
 1326SOL    HW3 5077   1.214   3.497   0.763  0.5326  0.8955 -2.2345
 1326SOL    MW4 5078   1.271   3.435   0.740  0.6448  0.2944 -0.4934
 1327SOL     OW 5079   4.499   4.040   0.844 -0.5615 -0.1170  0.6551
 1327SOL    HW2 5080   4.594   4.030   0.847 -0.6321 -0.6939  1.3754
 1327SOL    HW3 5081   4.483   4.097   0.768  0.2259 -1.6197 -0.7113
 1327SOL    MW4 5082   4.509   4.046   0.834 -0.4670 -0.3914  0.5699
 1328SOL     OW 5083   2.650   4.102   2.903 -0.5528 -0.2599 -0.2682
 1328SOL    HW2 5084   2.720   4.166   2.894 -0.6153  0.1606  1.6530
 1328SOL    HW3 5085   2.694   4.021   2.928 -0.7273  0.1705  1.6114
 1328SOL    MW4 5086   2.665   4.099   2.905 -0.5841 -0.1476  0.2333
 1329SOL     OW 5087   2.248   0.182   1.988  0.8106  0.2975 -0.4982
 1329SOL    HW2 5088   2.197   0.261   2.004 -0.2943 -0.6463  0.8027
 1329SOL    HW3 5089   2.211   0.146   1.908 -1.8898 -1.3116  1.3357
 1329SOL    MW4 5090   2.236   0.188   1.979  0.3085 -0.0393 -0.0846
 1330SOL     OW 5091   6.014   5.225   4.547  0.3792 -0.1144 -0.1209
 1330SOL    HW2 5092   5.954   5.267   4.608 -0.7430 -0.4617 -0.9375
 1330SOL    HW3 5093   5.981   5.249   4.460  2.0436  0.5284 -0.6116
 1330SOL    MW4 5094   6.002   5.233   4.543  0.4507 -0.0754 -0.2934
 1331SOL     OW 5095   1.301   0.410   0.608  0.0070  0.5371  0.5677
 1331SOL    HW2 5096   1.250   0.460   0.545  0.7564 -1.4674 -1.7551
 1331SOL    HW3 5097   1.354   0.476   0.654 -1.0080  2.1135 -0.4497
 1331SOL    MW4 5098   1.301   0.425   0.606 -0.0280  0.4806  0.1270
 1332SOL     OW 5099   5.670   5.681   5.068  0.5407  0.0742 -0.2641
 1332SOL    HW2 5100   5.722   5.611   5.107  0.1621 -0.0763 -0.0139
 1332SOL    HW3 5101   5.643   5.735   5.143 -0.4761 -0.4087 -0.2594
 1332SOL    MW4 5102   5.673   5.679   5.083  0.3566 -0.0094 -0.2305
 1333SOL     OW 5103   2.276   1.631   3.411 -0.2763  0.0174  0.3940
 1333SOL    HW2 5104   2.236   1.652   3.327  0.3670  0.0066  0.0831
 1333SOL    HW3 5105   2.366   1.608   3.390  0.2819  1.3109  1.2321
 1333SOL    MW4 5106   2.282   1.631   3.397 -0.1178  0.1866  0.4636
 1334SOL     OW 5107   4.026   5.396   2.766 -0.2695 -0.1164  0.2824
 1334SOL    HW2 5108   3.943   5.377   2.811  0.5490  1.1894  2.5408
 1334SOL    HW3 5109   4.092   5.350   2.817  0.5380 -0.2328 -0.8271
 1334SOL    MW4 5110   4.024   5.388   2.779 -0.0550  0.0406  0.4340
 1335SOL     OW 5111   4.217   2.160   5.018 -0.3214 -0.4218 -0.9359
 1335SOL    HW2 5112   4.261   2.077   5.000  1.4365  0.8946 -3.2788
 1335SOL    HW3 5113   4.157   2.172   4.944 -0.2303  0.5995 -0.8538
 1335SOL    MW4 5114   4.215   2.151   5.006 -0.0774 -0.1134 -1.2342
 1336SOL     OW 5115   5.697   6.322   3.197  0.3485 -0.2763 -0.1075
 1336SOL    HW2 5116   5.753   6.337   3.121 -1.5720 -0.3894 -1.6144
 1336SOL    HW3 5117   5.741   6.253   3.246  0.7695 -1.5182 -2.1005
 1336SOL    MW4 5118   5.710   6.315   3.193  0.1506 -0.4551 -0.5693
 1337SOL     OW 5119   1.302   5.010   0.383  0.0526  0.1677 -0.0502
 1337SOL    HW2 5120   1.261   4.930   0.351 -2.0666  0.6560  1.1800
 1337SOL    HW3 5121   1.297   5.003   0.478 -1.8773  2.4765  0.1122
 1337SOL    MW4 5122   1.296   4.999   0.391 -0.4816  0.5367  0.1335
 1338SOL     OW 5123   4.310   6.317   5.503 -0.2794 -0.2519 -0.5773
 1338SOL    HW2 5124   4.389   6.333   5.555 -0.3273 -1.5168 -0.0887
 1338SOL    HW3 5125   4.343   6.292   5.416 -0.1754  0.3881 -0.7282
 1338SOL    MW4 5126   4.325   6.316   5.498 -0.2720 -0.3343 -0.5327
 1339SOL     OW 5127   2.688   1.689   3.547  0.8460 -0.2783 -0.1226
 1339SOL    HW2 5128   2.728   1.609   3.582  4.1695  0.2898 -2.1632
 1339SOL    HW3 5129   2.659   1.665   3.459  0.4833  0.4257 -0.2062
 1339SOL    MW4 5130   2.689   1.675   3.540  1.2366 -0.1105 -0.4029
 1340SOL     OW 5131   3.932   4.510   2.377  0.1188  0.1070  0.1641
 1340SOL    HW2 5132   3.913   4.458   2.298  1.4947 -0.4263  0.1441
 1340SOL    HW3 5133   3.846   4.532   2.413 -0.5378 -2.0163  0.0460
 1340SOL    MW4 5134   3.918   4.506   2.371  0.2137 -0.2435  0.1459
 1341SOL     OW 5135   3.516   6.032   2.973 -0.0833  0.4517 -0.1070
 1341SOL    HW2 5136   3.579   6.081   2.921 -0.9039  0.5675 -1.0151
 1341SOL    HW3 5137   3.570   5.975   3.028  0.8182  0.8282 -0.5761
 1341SOL    MW4 5138   3.531   6.031   2.974 -0.0726  0.5167 -0.2887
 1342SOL     OW 5139   2.146   2.094   5.109 -0.3926  0.3972 -0.2394
 1342SOL    HW2 5140   2.075   2.120   5.168  0.8287 -2.0627  2.5734
 1342SOL    HW3 5141   2.102   2.073   5.026 -2.6373  1.0160  0.7235
 1342SOL    MW4 5142   2.131   2.095   5.105 -0.5276  0.1543  0.2588
 1343SOL     OW 5143   4.114   4.915   5.350  0.3020  0.1648  0.3528
 1343SOL    HW2 5144   4.177   4.978   5.317 -1.1978  0.8238 -1.4082
 1343SOL    HW3 5145   4.166   4.852   5.400  2.5213  0.0201 -1.9827
 1343SOL    MW4 5146   4.129   4.915   5.352  0.3969  0.2327 -0.1877
 1344SOL     OW 5147   2.540   1.183   0.232 -0.0423  0.1675 -0.2925
 1344SOL    HW2 5148   2.607   1.116   0.221  0.2779  0.6055 -1.1181
 1344SOL    HW3 5149   2.474   1.143   0.289 -0.9455 -1.6891 -2.4642
 1344SOL    MW4 5150   2.540   1.169   0.238 -0.1192 -0.0196 -0.6879
 1345SOL     OW 5151   3.513   4.626   2.743 -0.1228  0.1786 -0.2539
 1345SOL    HW2 5152   3.424   4.637   2.709  0.6312 -0.1203 -2.5303
 1345SOL    HW3 5153   3.568   4.619   2.664  1.7130 -1.3046  1.0549
 1345SOL    MW4 5154   3.509   4.627   2.728  0.2189 -0.0565 -0.3816
 1346SOL     OW 5155   3.063   3.741   5.872 -0.8341  0.0278  0.0368
 1346SOL    HW2 5156   3.090   3.662   5.919  0.8348  1.4574  1.6176
 1346SOL    HW3 5157   3.020   3.796   5.938 -0.0873  1.3124 -0.4999
 1346SOL    MW4 5158   3.061   3.738   5.887 -0.5154  0.3859  0.1745
 1347SOL     OW 5159   6.046   4.990   4.896  0.1899  0.2832 -0.2608
 1347SOL    HW2 5160   5.982   4.988   4.967  0.9764 -0.8171  0.4417
 1347SOL    HW3 5161   6.088   5.075   4.903 -1.0625  0.9541 -0.6254
 1347SOL    MW4 5162   6.043   5.001   4.906  0.1285  0.2265 -0.2162
 1348SOL     OW 5163   3.171   0.169   5.738 -0.2059 -0.5614 -0.1250
 1348SOL    HW2 5164   3.089   0.136   5.775 -0.4396  0.1999  0.0597
 1348SOL    HW3 5165   3.223   0.091   5.722 -2.2277 -1.4391 -3.4319
 1348SOL    MW4 5166   3.167   0.154   5.740 -0.5035 -0.5767 -0.5370
 1349SOL     OW 5167   1.261   5.445   3.545 -0.5946 -0.0915 -0.8751
 1349SOL    HW2 5168   1.309   5.364   3.533 -1.8231 -1.0833  0.5971
 1349SOL    HW3 5169   1.326   5.514   3.531  1.4051 -1.3548  1.4655
 1349SOL    MW4 5170   1.276   5.444   3.541 -0.4929 -0.3890 -0.3721
 1350SOL     OW 5171   5.456   1.216   6.266 -0.0001  0.2914  0.3904
 1350SOL    HW2 5172   5.470   1.309   6.248  0.9552  0.2989  1.0808
 1350SOL    HW3 5173   5.471   1.208   6.360  0.8554 -0.7223  0.1800
 1350SOL    MW4 5174   5.460   1.227   6.276  0.2388  0.1587  0.4537
 1351SOL     OW 5175   2.971   5.751   2.547  0.0661  0.0914 -0.0140
 1351SOL    HW2 5176   3.043   5.775   2.605  0.2083 -0.2785 -0.0389
 1351SOL    HW3 5177   2.892   5.781   2.592  0.2085  0.1732  0.1787
 1351SOL    MW4 5178   2.970   5.758   2.561  0.1036  0.0534  0.0081
 1352SOL     OW 5179   2.734   1.922   4.099 -0.5715 -0.4278 -0.0781
 1352SOL    HW2 5180   2.664   1.907   4.163 -0.5730 -0.4223 -0.0783
 1352SOL    HW3 5181   2.733   2.016   4.084  0.4511 -0.1993  1.0879
 1352SOL    MW4 5182   2.724   1.933   4.106 -0.4368 -0.3969  0.0757
 1353SOL     OW 5183   2.908   2.597   4.272  0.2295  0.4227 -0.6281
 1353SOL    HW2 5184   2.998   2.630   4.273  0.7535 -0.7516 -2.7957
 1353SOL    HW3 5185   2.870   2.631   4.191 -1.3802  1.0411  0.3230
 1353SOL    MW4 5186   2.915   2.606   4.261  0.0862  0.3494 -0.7886
 1354SOL     OW 5187   4.887   6.083   4.625 -0.0588 -0.6326 -0.4501
 1354SOL    HW2 5188   4.892   6.131   4.707  0.0337 -1.4102  0.0046
 1354SOL    HW3 5189   4.801   6.107   4.588 -2.1658 -3.6691  2.0211
 1354SOL    MW4 5190   4.876   6.093   4.631 -0.3246 -1.1358 -0.0640
 1355SOL     OW 5191   1.486   0.643   6.311  0.2365 -0.3371  0.1217
 1355SOL    HW2 5192   1.550   0.640   6.240  1.4681 -0.5537  1.2173
 1355SOL    HW3 5193   1.403   0.618   6.269  0.9510 -0.5796 -1.2052
 1355SOL    MW4 5194   1.483   0.639   6.296  0.4933 -0.3977  0.0912
 1356SOL     OW 5195   4.513   1.754   6.155 -0.5183  0.3248  0.3021
 1356SOL    HW2 5196   4.479   1.786   6.071  0.9017  3.5002  0.7847
 1356SOL    HW3 5197   4.600   1.721   6.135 -0.5337  0.2404  0.3766
 1356SOL    MW4 5198   4.520   1.754   6.142 -0.3330  0.7326  0.3756
 1357SOL     OW 5199   1.521   4.215   1.855 -0.1951 -0.2863  0.7212
 1357SOL    HW2 5200   1.467   4.293   1.851  0.8733  0.4244 -0.6851
 1357SOL    HW3 5201   1.590   4.236   1.917  0.5388  0.2121 -0.2395
 1357SOL    MW4 5202   1.523   4.228   1.863  0.0427 -0.1268  0.4089
 1358SOL     OW 5203   1.244   1.908   2.793  0.4416 -0.0163 -0.2830
 1358SOL    HW2 5204   1.294   1.939   2.869  1.1526  0.9715 -1.1137
 1358SOL    HW3 5205   1.311   1.888   2.728 -0.1004 -1.8038 -0.3454
 1358SOL    MW4 5206   1.260   1.910   2.794  0.4639 -0.1218 -0.4009
 1359SOL     OW 5207   3.158   2.081   3.473 -0.5808  0.5245 -0.0950
 1359SOL    HW2 5208   3.202   2.082   3.388  0.4469 -0.2924  0.4000
 1359SOL    HW3 5209   3.186   1.998   3.514  1.3311  2.1628  2.2196
 1359SOL    MW4 5210   3.167   2.070   3.468 -0.1929  0.6329  0.2757
 1360SOL     OW 5211   4.283   4.549   4.208 -0.7194  0.3071  0.0857
 1360SOL    HW2 5212   4.281   4.637   4.169  0.8523 -0.1212 -1.1162
 1360SOL    HW3 5213   4.349   4.503   4.156 -1.0545 -1.3906  1.1149
 1360SOL    MW4 5214   4.292   4.555   4.196 -0.5563  0.0266  0.0629
 1361SOL     OW 5215   3.049   1.877   2.321 -0.1897  0.2212 -0.1613
 1361SOL    HW2 5216   3.112   1.815   2.358  0.0901  0.4221 -0.3018
 1361SOL    HW3 5217   3.071   1.882   2.228 -0.0432  0.7310 -0.1023
 1361SOL    MW4 5218   3.060   1.870   2.314 -0.1335  0.3149 -0.1721
 1362SOL     OW 5219   2.338   0.595   2.415  0.1349 -0.0272  0.2585
 1362SOL    HW2 5220   2.379   0.508   2.409 -0.4110 -0.3092  0.5952
 1362SOL    HW3 5221   2.408   0.651   2.449  0.1688 -0.5670  1.1296
 1362SOL    MW4 5222   2.353   0.591   2.419  0.0674 -0.1356  0.4178
 1363SOL     OW 5223   1.337   2.617   4.701 -0.5006 -0.5987 -0.1131
 1363SOL    HW2 5224   1.293   2.637   4.619  0.8833  0.0883 -0.7279
 1363SOL    HW3 5225   1.266   2.601   4.764 -1.6509  1.5571 -0.7645
 1363SOL    MW4 5226   1.322   2.618   4.699 -0.4698 -0.2236 -0.2801
 1364SOL     OW 5227   3.316   2.308   5.859 -0.3617  0.2359 -0.1330
 1364SOL    HW2 5228   3.402   2.335   5.890 -0.1808 -0.4828  0.0016
 1364SOL    HW3 5229   3.259   2.317   5.935 -0.0185 -1.0545  0.3084
 1364SOL    MW4 5230   3.320   2.313   5.873 -0.2925 -0.0292 -0.0570
 1365SOL     OW 5231   4.731   5.522   0.810 -0.1695 -0.2470 -0.0990
 1365SOL    HW2 5232   4.717   5.616   0.822  1.0440  0.1063 -1.2132
 1365SOL    HW3 5233   4.760   5.514   0.719 -0.9261 -1.7935 -0.2314
 1365SOL    MW4 5234   4.733   5.533   0.800 -0.1093 -0.4044 -0.2635
 1366SOL     OW 5235   0.907   1.604   0.013 -0.0507 -0.3354  0.0160
 1366SOL    HW2 5236   0.853   1.671  -0.027 -0.5064 -1.0726 -0.6450
 1366SOL    HW3 5237   0.868   1.589   0.099 -0.1225  0.0345  0.0481
 1366SOL    MW4 5238   0.895   1.611   0.019 -0.1203 -0.3839 -0.0670
 1367SOL     OW 5239   4.758   3.027   1.256 -0.6978  0.2394  0.6726
 1367SOL    HW2 5240   4.679   3.060   1.299 -0.2426  1.6095  0.4918
 1367SOL    HW3 5241   4.728   2.951   1.206 -2.0630  1.1953 -0.0221
 1367SOL    MW4 5242   4.743   3.021   1.255 -0.8178  0.5463  0.5571
 1368SOL     OW 5243   2.068   5.375   1.036  0.3693  0.0545 -0.1944
 1368SOL    HW2 5244   2.055   5.445   1.101 -1.7259 -1.1696  0.8403
 1368SOL    HW3 5245   2.091   5.420   0.955 -0.8470  1.9442  0.4580
 1368SOL    MW4 5246   2.069   5.390   1.034 -0.0676  0.1423  0.0282
 1369SOL     OW 5247   5.387   2.794   2.050 -0.0643 -0.1950 -0.4260
 1369SOL    HW2 5248   5.403   2.794   1.956 -2.2818  1.0472 -0.8957
 1369SOL    HW3 5249   5.345   2.879   2.067  0.7667 -0.1569  1.7927
 1369SOL    MW4 5250   5.383   2.805   2.040 -0.2472 -0.0261 -0.1953
 1370SOL     OW 5251   0.025   3.561   3.387 -0.1491  0.0381 -0.2623
 1370SOL    HW2 5252   0.022   3.631   3.322 -0.2399  0.7962  0.5369
 1370SOL    HW3 5253  -0.035   3.589   3.456 -0.5488 -1.0565 -0.1423
 1370SOL    MW4 5254   0.017   3.574   3.388 -0.2138 -0.0063 -0.1410
 1371SOL     OW 5255   6.402   0.601   3.333 -0.8717 -0.6465 -0.3277
 1371SOL    HW2 5256   6.349   0.628   3.408  0.2287  0.5159  0.0507
 1371SOL    HW3 5257   6.394   0.505   3.332 -1.1583 -0.6587  1.0886
 1371SOL    MW4 5258   6.394   0.592   3.343 -0.7643 -0.4947 -0.0909
 1372SOL     OW 5259   0.417   4.217   5.036  0.1205 -0.2238 -0.0681
 1372SOL    HW2 5260   0.452   4.134   5.004  1.4347  0.3254 -0.1362
 1372SOL    HW3 5261   0.445   4.281   4.971  1.0836  0.6008  1.1000
 1372SOL    MW4 5262   0.425   4.215   5.023  0.4210 -0.0425  0.0770
 1373SOL     OW 5263   4.513   4.166   3.977  0.0784  0.5563  0.2612
 1373SOL    HW2 5264   4.418   4.159   3.973  0.0075  1.1362  0.8627
 1373SOL    HW3 5265   4.543   4.075   3.987 -0.3638  0.3025 -0.5587
 1373SOL    MW4 5266   4.505   4.153   3.977  0.0107  0.5993  0.2324
 1374SOL     OW 5267   2.292   3.322   1.923  0.3499 -0.2128  0.3595
 1374SOL    HW2 5268   2.365   3.310   1.983 -0.9029 -0.1840  1.9815
 1374SOL    HW3 5269   2.270   3.234   1.893  0.1909 -0.3833  0.9637
 1374SOL    MW4 5270   2.299   3.309   1.927  0.1636 -0.2315  0.6533
 1375SOL     OW 5271   2.367   4.154   6.339 -0.0421  0.3153  0.4457
 1375SOL    HW2 5272   2.407   4.079   6.383 -0.1677  0.0486  0.1050
 1375SOL    HW3 5273   2.440   4.216   6.329  0.7784 -0.9312 -1.8817
 1375SOL    MW4 5274   2.382   4.152   6.344  0.0496  0.1157  0.0937
 1376SOL     OW 5275   0.133   1.856   3.660  0.3492 -0.0347  0.1784
 1376SOL    HW2 5276   0.045   1.843   3.625  0.1747 -0.2914  0.7115
 1376SOL    HW3 5277   0.141   1.792   3.731  2.0314 -2.1258 -1.7424
 1376SOL    MW4 5278   0.123   1.846   3.665  0.5482 -0.3445 -0.0047
 1377SOL     OW 5279   6.258   2.007   2.214  0.2136  0.7540 -0.6400
 1377SOL    HW2 5280   6.352   1.988   2.216 -0.3427 -2.5295 -1.0712
 1377SOL    HW3 5281   6.226   1.963   2.135 -1.7141  1.8150 -0.5055
 1377SOL    MW4 5282   6.266   1.999   2.204 -0.1141  0.4608 -0.6792
 1378SOL     OW 5283   1.085   1.004   3.108  0.1434  0.0039 -0.3166
 1378SOL    HW2 5284   1.154   0.967   3.052  0.2125 -0.8463  0.3177
 1378SOL    HW3 5285   1.117   0.991   3.197 -1.3130 -1.4202  0.0498
 1378SOL    MW4 5286   1.099   0.998   3.112 -0.0397 -0.2962 -0.1846
 1379SOL     OW 5287   5.429   2.506   4.294  0.3053  0.5077  0.3265
 1379SOL    HW2 5288   5.508   2.506   4.241 -0.1687 -1.0420 -0.4473
 1379SOL    HW3 5289   5.457   2.536   4.381  1.6742  0.2491 -0.0147
 1379SOL    MW4 5290   5.443   2.510   4.299  0.4234  0.2691  0.1794
 1380SOL     OW 5291   1.795   0.209   2.638  0.4186 -0.0259  0.5358
 1380SOL    HW2 5292   1.817   0.143   2.572 -0.5858 -0.1857  0.3377
 1380SOL    HW3 5293   1.815   0.293   2.596  1.5570 -0.1773  0.7347
 1380SOL    MW4 5294   1.801   0.212   2.624  0.4363 -0.0670  0.5359
 1381SOL     OW 5295   1.685   1.199   0.518  0.1311  0.0455 -0.4946
 1381SOL    HW2 5296   1.733   1.238   0.445  0.2819  0.7767 -0.0181
 1381SOL    HW3 5297   1.740   1.126   0.547 -0.6472 -1.1973 -2.0500
 1381SOL    MW4 5298   1.699   1.194   0.512  0.0483 -0.0220 -0.6370
 1382SOL     OW 5299   5.522   1.159   2.187 -0.0981 -0.0409 -0.1769
 1382SOL    HW2 5300   5.516   1.182   2.280  0.5373  1.0812 -0.3874
 1382SOL    HW3 5301   5.602   1.203   2.157 -1.0446  0.7840 -1.5813
 1382SOL    MW4 5302   5.532   1.168   2.195 -0.1391  0.2160 -0.3900
 1383SOL     OW 5303   1.230   4.513   3.883  0.0343 -0.2303  0.3118
 1383SOL    HW2 5304   1.165   4.572   3.846 -0.2354 -0.4085  0.5021
 1383SOL    HW3 5305   1.209   4.427   3.847  0.7044 -0.1359 -0.3232
 1383SOL    MW4 5306   1.219   4.510   3.874  0.0871 -0.2414  0.2532
 1384SOL     OW 5307   5.249   4.773   4.760  0.1226  0.4217  0.2650
 1384SOL    HW2 5308   5.270   4.864   4.741 -0.8696  0.9415  1.4960
 1384SOL    HW3 5309   5.263   4.764   4.854 -0.5686 -0.4654  0.3004
 1384SOL    MW4 5310   5.253   4.784   4.770 -0.0995  0.3733  0.4321
 1385SOL     OW 5311   3.336   0.482   0.051 -0.0183 -0.1586  0.2391
 1385SOL    HW2 5312   3.381   0.398   0.063  2.5750  1.2596  1.4756
 1385SOL    HW3 5313   3.294   0.476  -0.034 -0.4048 -2.8920  0.5449
 1385SOL    MW4 5314   3.337   0.470   0.042  0.2729 -0.3321  0.4426
 1386SOL     OW 5315   4.068   2.917   5.378 -0.2172 -0.2154  0.0073
 1386SOL    HW2 5316   4.077   3.011   5.395  0.0407  0.1127 -1.7732
 1386SOL    HW3 5317   4.118   2.902   5.298 -0.7916 -1.7685 -0.0926
 1386SOL    MW4 5318   4.076   2.928   5.370 -0.2590 -0.3771 -0.2408
 1387SOL     OW 5319   2.469   4.700   1.970  0.7670 -0.1426  0.0153
 1387SOL    HW2 5320   2.515   4.776   2.006  0.4424 -1.0463  2.5483
 1387SOL    HW3 5321   2.532   4.628   1.980 -0.0334 -0.7797  0.5898
 1387SOL    MW4 5322   2.483   4.701   1.976  0.6186 -0.3459  0.4253
 1388SOL     OW 5323   2.005   5.531   1.700 -0.3308  0.2039 -0.0661
 1388SOL    HW2 5324   1.927   5.586   1.696  0.2629  1.0564 -0.4085
 1388SOL    HW3 5325   2.026   5.511   1.609 -0.9333 -1.2017  0.0788
 1388SOL    MW4 5326   1.998   5.536   1.687 -0.3320  0.1309 -0.0921
 1389SOL     OW 5327   2.057   2.630   2.706 -0.0721 -0.1697  0.1216
 1389SOL    HW2 5328   2.111   2.591   2.774  1.8654  0.3605 -1.0302
 1389SOL    HW3 5329   2.038   2.719   2.738  2.4551  0.7808 -0.7566
 1389SOL    MW4 5330   2.062   2.637   2.719  0.5169  0.0256 -0.1462
 1390SOL     OW 5331   6.071   1.015   5.990  0.6748  0.3449 -0.1277
 1390SOL    HW2 5332   6.163   0.993   6.005  1.2027  2.7789  0.7202
 1390SOL    HW3 5333   6.070   1.111   5.985 -1.7494  0.3572 -0.6929
 1390SOL    MW4 5334   6.083   1.025   5.991  0.4246  0.6677 -0.0904
 1391SOL     OW 5335   1.186   5.665   0.893 -0.4829 -0.1341 -0.0766
 1391SOL    HW2 5336   1.142   5.600   0.839 -0.2291  0.2489 -0.7575
 1391SOL    HW3 5337   1.162   5.642   0.983 -0.5740 -1.0283 -0.3221
 1391SOL    MW4 5338   1.177   5.653   0.898 -0.4614 -0.2016 -0.1988
 1392SOL     OW 5339   3.684   2.923   4.014  0.1832 -0.0446  0.0497
 1392SOL    HW2 5340   3.659   2.854   4.076  1.0379 -0.4592 -0.0618
 1392SOL    HW3 5341   3.639   2.899   3.933 -0.4831  0.1924  0.3370
 1392SOL    MW4 5342   3.674   2.911   4.011  0.2081 -0.0680  0.0729
 1393SOL     OW 5343   5.837   6.354   0.015 -0.1439  0.1852  0.2448
 1393SOL    HW2 5344   5.873   6.442   0.011 -0.1449  0.1594 -0.3816
 1393SOL    HW3 5345   5.756   6.363   0.066  0.7794  0.2160  1.7743
 1393SOL    MW4 5346   5.831   6.366   0.021 -0.0222  0.1858  0.3639
 1394SOL     OW 5347   3.358   2.448   3.226  0.2542  0.7701 -0.6890
 1394SOL    HW2 5348   3.378   2.500   3.148  1.3622  0.4760 -0.6109
 1394SOL    HW3 5349   3.262   2.446   3.228  0.1816  0.0044 -2.5609
 1394SOL    MW4 5350   3.348   2.455   3.216  0.3908  0.6302 -0.9257
 1395SOL     OW 5351   4.672   0.955   5.569 -0.4466  0.1458  0.0700
 1395SOL    HW2 5352   4.598   0.902   5.540 -0.6305  0.8855 -0.8756
 1395SOL    HW3 5353   4.661   1.038   5.524  1.5019 -0.0669 -0.9327
 1395SOL    MW4 5354   4.661   0.959   5.559 -0.2138  0.2153 -0.1871
 1396SOL     OW 5355   6.190   2.168   4.887  0.5152 -0.2940 -0.3012
 1396SOL    HW2 5356   6.249   2.229   4.930  0.8995 -1.3369  0.7250
 1396SOL    HW3 5357   6.207   2.178   4.794  1.1298  0.5813 -0.1038
 1396SOL    MW4 5358   6.200   2.177   4.881  0.6470 -0.3161 -0.1398
 1397SOL     OW 5359   5.314   2.474   2.475  0.8013  0.1484 -0.0129
 1397SOL    HW2 5360   5.376   2.411   2.510  0.7516  0.5564  0.8477
 1397SOL    HW3 5361   5.239   2.470   2.534  1.1141  1.5470  0.5265
 1397SOL    MW4 5362   5.312   2.465   2.487  0.8360  0.3868  0.1718
 1398SOL     OW 5363   2.563   6.237   1.593  0.0040 -0.2795 -0.3111
 1398SOL    HW2 5364   2.630   6.174   1.621 -0.9322 -1.3700 -0.4547
 1398SOL    HW3 5365   2.500   6.185   1.544 -0.9171  0.7463 -0.2566
 1398SOL    MW4 5366   2.564   6.222   1.590 -0.2410 -0.2880 -0.3228
 1399SOL     OW 5367   6.322   0.403   3.052  0.2863 -0.2165 -0.2348
 1399SOL    HW2 5368   6.390   0.357   3.103  1.5155  0.9657 -0.7286
 1399SOL    HW3 5369   6.370   0.444   2.980 -0.9482  0.7620 -0.5389
 1399SOL    MW4 5370   6.338   0.402   3.050  0.2856  0.0686 -0.3401
 1400SOL     OW 5371   2.361   2.647   0.753  0.2429  0.2655 -0.0120
 1400SOL    HW2 5372   2.376   2.726   0.700  0.2546  1.5155  1.7492
 1400SOL    HW3 5373   2.272   2.620   0.731  0.5382  0.2698 -1.2530
 1400SOL    MW4 5374   2.351   2.654   0.743  0.2834  0.4310  0.0566
 1401SOL     OW 5375   0.343   5.187   3.111 -0.1353 -0.4098  0.2737
 1401SOL    HW2 5376   0.336   5.092   3.105  0.7822 -0.5540  1.1783
 1401SOL    HW3 5377   0.290   5.209   3.188 -0.2355 -0.2063  0.1455
 1401SOL    MW4 5378   0.335   5.177   3.121 -0.0274 -0.4020  0.3761
 1402SOL     OW 5379   1.035   2.581   1.492  0.5660  0.1269  0.2898
 1402SOL    HW2 5380   1.001   2.547   1.410  0.1149 -0.2981  0.6439
 1402SOL    HW3 5381   0.984   2.536   1.560  0.2437  1.1913  0.7848
 1402SOL    MW4 5382   1.024   2.571   1.490  0.4640  0.2113  0.4018
 1403SOL     OW 5383   0.408   2.348   1.498  0.4294 -0.0740 -0.0170
 1403SOL    HW2 5384   0.459   2.287   1.551  0.3651 -0.3563 -0.2786
 1403SOL    HW3 5385   0.325   2.357   1.546  0.0632 -0.9455 -0.4711
 1403SOL    MW4 5386   0.404   2.342   1.512  0.3726 -0.2262 -0.1114
 1404SOL     OW 5387   1.176   5.844   1.920 -0.0652  0.7494 -0.5161
 1404SOL    HW2 5388   1.183   5.795   2.002 -0.2709  0.3901 -0.7148
 1404SOL    HW3 5389   1.185   5.778   1.851  1.2601  1.1916 -0.7988
 1404SOL    MW4 5390   1.178   5.829   1.922  0.0825  0.7603 -0.5796
 1405SOL     OW 5391   4.518   3.341   0.321  0.2138 -0.0045  0.0646
 1405SOL    HW2 5392   4.574   3.312   0.249  0.3313  1.4905 -0.4863
 1405SOL    HW3 5393   4.575   3.338   0.398  1.2304  1.8459 -0.5466
 1405SOL    MW4 5394   4.533   3.337   0.321  0.3634  0.4369 -0.0887
 1406SOL     OW 5395   6.007   0.623   3.153 -0.0561  0.5931 -0.1079
 1406SOL    HW2 5396   6.054   0.624   3.069  0.5638  3.2586  0.1861
 1406SOL    HW3 5397   6.060   0.678   3.211 -1.3196  0.1378  1.5594
 1406SOL    MW4 5398   6.021   0.631   3.149 -0.1410  0.8847  0.1509
 1407SOL     OW 5399   0.447   0.344   4.553  0.0523 -0.0427 -0.2142
 1407SOL    HW2 5400   0.373   0.354   4.613 -0.4267 -0.3682 -0.7447
 1407SOL    HW3 5401   0.420   0.389   4.473 -0.0406 -1.0960 -0.7975
 1407SOL    MW4 5402   0.434   0.351   4.550 -0.0231 -0.2246 -0.3611
 1408SOL     OW 5403   4.816   0.215   3.394  0.6582  0.6789 -0.0558
 1408SOL    HW2 5404   4.836   0.133   3.440  0.5932  0.5184 -0.3085
 1408SOL    HW3 5405   4.880   0.278   3.427  1.9491  0.0486 -1.2576
 1408SOL    MW4 5406   4.827   0.212   3.404  0.8199  0.5745 -0.2477
 1409SOL     OW 5407   2.044   2.386   3.842 -0.8901  0.1978  0.3737
 1409SOL    HW2 5408   1.983   2.314   3.825  0.9018 -1.0146 -1.1998
 1409SOL    HW3 5409   2.098   2.354   3.915 -0.3176  0.0725 -0.1001
 1409SOL    MW4 5410   2.043   2.372   3.850 -0.5781  0.0213  0.1036
 1410SOL     OW 5411   0.064   5.839   3.785  0.2403  0.7270  0.0567
 1410SOL    HW2 5412   0.026   5.752   3.794  1.5316  0.0432 -0.7415
 1410SOL    HW3 5413   0.019   5.878   3.710 -3.2861  2.4531  2.7852
 1410SOL    MW4 5414   0.053   5.832   3.776 -0.0546  0.8645  0.3114
 1411SOL     OW 5415   2.088   3.456   0.234 -0.0605  0.1628 -0.1944
 1411SOL    HW2 5416   2.083   3.461   0.329 -0.2197  2.6776 -0.2683
 1411SOL    HW3 5417   1.999   3.434   0.207 -0.0851 -0.2508  0.2060
 1411SOL    MW4 5418   2.076   3.454   0.243 -0.0848  0.4400 -0.1513
 1412SOL     OW 5419   2.117   2.561   4.451 -0.3353  0.1453  0.0542
 1412SOL    HW2 5420   2.203   2.552   4.491 -0.9444 -2.6318  0.9609
 1412SOL    HW3 5421   2.135   2.586   4.360  1.3472  0.5920  0.4779
 1412SOL    MW4 5422   2.130   2.563   4.444 -0.1936 -0.1622  0.2297
 1413SOL     OW 5423   5.116   4.755   3.783  0.0779  0.7845  0.2249
 1413SOL    HW2 5424   5.066   4.786   3.708 -2.2000 -0.8986  0.9581
 1413SOL    HW3 5425   5.177   4.827   3.801 -1.9519  2.9320 -0.8045
 1413SOL    MW4 5426   5.118   4.769   3.775 -0.4904  0.8458  0.1858
 1414SOL     OW 5427   1.788   3.789   5.955  0.2294 -0.4749  0.2778
 1414SOL    HW2 5428   1.840   3.710   5.937  1.1417  0.2621 -0.4664
 1414SOL    HW3 5429   1.732   3.797   5.878  0.2975 -0.2783  0.2491
 1414SOL    MW4 5430   1.788   3.780   5.942  0.3588 -0.3518  0.1758
 1415SOL     OW 5431   3.509   0.916   5.439 -0.3750 -0.3942 -0.0030
 1415SOL    HW2 5432   3.506   0.963   5.523  0.6251 -0.7806  0.2594
 1415SOL    HW3 5433   3.591   0.868   5.441  0.5276  0.9470 -1.9628
 1415SOL    MW4 5434   3.519   0.916   5.451 -0.1240 -0.2682 -0.2270
 1416SOL     OW 5435   1.957   0.796   1.305  0.1314  0.5952 -0.1027
 1416SOL    HW2 5436   2.050   0.800   1.284  0.0335 -0.4523 -0.8033
 1416SOL    HW3 5437   1.935   0.703   1.301 -1.0642  0.8700 -0.4482
 1416SOL    MW4 5438   1.966   0.784   1.302 -0.0393  0.4933 -0.2407
 1417SOL     OW 5439   1.638   2.719   2.886  0.1129 -0.6862  0.4596
 1417SOL    HW2 5440   1.600   2.682   2.806  0.2257  1.3208 -0.5864
 1417SOL    HW3 5441   1.618   2.654   2.954 -1.1462 -1.8385 -0.9330
 1417SOL    MW4 5442   1.630   2.705   2.885 -0.0383 -0.5734  0.1378
 1418SOL     OW 5443   2.091   2.088   3.271 -0.4616 -0.2343 -0.1016
 1418SOL    HW2 5444   2.084   2.171   3.224 -0.1417  0.1781  0.5658
 1418SOL    HW3 5445   2.070   2.110   3.362  1.1595 -0.5690  0.3842
 1418SOL    MW4 5446   2.087   2.102   3.277 -0.2055 -0.2240  0.0506
 1419SOL     OW 5447   1.379   5.000   0.930 -0.1623 -0.0166  0.6117
 1419SOL    HW2 5448   1.469   5.019   0.955  0.2556 -0.1202 -0.7267
 1419SOL    HW3 5449   1.367   4.908   0.952  1.1479 -0.9408 -2.0083
 1419SOL    MW4 5450   1.389   4.990   0.936  0.0657 -0.1522  0.0895
 1420SOL     OW 5451   0.584   3.223   2.561 -0.4922 -0.5121  0.2075
 1420SOL    HW2 5452   0.536   3.202   2.642  0.0476 -2.5334  0.0503
 1420SOL    HW3 5453   0.634   3.144   2.542 -0.3854  0.0294 -1.9678
 1420SOL    MW4 5454   0.584   3.210   2.569 -0.4069 -0.7074 -0.1003
 1421SOL     OW 5455   0.171   0.330   6.394 -0.0185  0.2840 -0.6593
 1421SOL    HW2 5456   0.263   0.327   6.371  0.0151 -1.4770 -0.5043
 1421SOL    HW3 5457   0.155   0.246   6.438 -1.7292  0.4469 -0.8846
 1421SOL    MW4 5458   0.181   0.318   6.397 -0.2398  0.0732 -0.6686
 1422SOL     OW 5459   5.675   0.644   1.081  0.1562 -0.2002  0.3883
 1422SOL    HW2 5460   5.613   0.626   1.152  0.1504  0.0988  0.4608
 1422SOL    HW3 5461   5.709   0.558   1.057 -1.1058 -0.5027 -0.4138
 1422SOL    MW4 5462   5.671   0.630   1.087 -0.0111 -0.2007  0.2920
 1423SOL     OW 5463   6.324   3.210   5.339  0.2052 -0.8957  0.3876
 1423SOL    HW2 5464   6.389   3.271   5.375  0.2060 -1.0023  0.5699
 1423SOL    HW3 5465   6.258   3.266   5.297  0.0959 -0.7621  0.7384
 1423SOL    MW4 5466   6.324   3.226   5.338  0.1909 -0.8921  0.4580
 1424SOL     OW 5467   0.327   6.310   0.316  0.4130  0.1627 -0.0891
 1424SOL    HW2 5468   0.255   6.288   0.375  1.9904 -0.4344  1.7185
 1424SOL    HW3 5469   0.298   6.390   0.272 -0.8248  0.6695  1.5421
 1424SOL    MW4 5470   0.313   6.317   0.318  0.4578  0.1508  0.3646
 1425SOL     OW 5471   0.254   3.408   1.659  0.2293  0.1538  0.3602
 1425SOL    HW2 5472   0.213   3.371   1.580 -2.0276 -1.1455  2.0178
 1425SOL    HW3 5473   0.214   3.359   1.731  0.5558  2.7961  2.4528
 1425SOL    MW4 5474   0.243   3.396   1.658 -0.0254  0.3310  0.8550
 1426SOL     OW 5475   4.582   3.062   4.129  0.2193  0.2117  0.4582
 1426SOL    HW2 5476   4.590   3.054   4.224  1.8929 -1.4604  0.2307
 1426SOL    HW3 5477   4.573   3.156   4.114  1.5686  0.6655  2.1754
 1426SOL    MW4 5478   4.582   3.074   4.139  0.6181  0.0510  0.6547
 1427SOL     OW 5479   4.803   4.913   3.973  0.1457  0.2478 -0.1791
 1427SOL    HW2 5480   4.856   4.835   3.957 -0.8545 -0.3275 -0.7441
 1427SOL    HW3 5481   4.765   4.899   4.059  0.3186  0.3237 -0.0889
 1427SOL    MW4 5482   4.805   4.901   3.982  0.0365  0.1819 -0.2418
 1428SOL     OW 5483   4.040   4.129   4.060 -0.4543  0.2828  0.4232
 1428SOL    HW2 5484   3.950   4.146   4.031 -0.6144  1.5575  1.5274
 1428SOL    HW3 5485   4.045   4.034   4.068 -0.8981 -0.0032 -2.0373
 1428SOL    MW4 5486   4.028   4.119   4.057 -0.5340  0.4133  0.2442
 1429SOL     OW 5487   4.740   0.354   3.718  0.0127  0.8236 -0.2966
 1429SOL    HW2 5488   4.705   0.443   3.710  0.9305  1.1766 -0.5146
 1429SOL    HW3 5489   4.829   0.360   3.682  1.3335  0.5862  2.6924
 1429SOL    MW4 5490   4.747   0.367   3.712  0.3081  0.8388  0.0690
 1430SOL     OW 5491   3.444   0.480   5.662  0.7173 -0.2467 -0.9821
 1430SOL    HW2 5492   3.400   0.565   5.657 -1.9935 -1.5193 -1.0618
 1430SOL    HW3 5493   3.470   0.471   5.754  0.3901  0.3862 -0.8271
 1430SOL    MW4 5494   3.441   0.490   5.673  0.3165 -0.3311 -0.9722
 1431SOL     OW 5495   0.348   5.078   5.168 -0.0203  0.0366  0.1500
 1431SOL    HW2 5496   0.355   5.035   5.083 -0.1439  0.7572 -0.2391
 1431SOL    HW3 5497   0.272   5.038   5.210 -0.1726 -0.0788 -0.2337
 1431SOL    MW4 5498   0.339   5.067   5.162 -0.0567  0.1164  0.0481
 1432SOL     OW 5499   0.565   5.911   5.345 -0.3415  0.0326  0.0482
 1432SOL    HW2 5500   0.552   5.944   5.256 -1.1734  0.8112  0.4353
 1432SOL    HW3 5501   0.486   5.938   5.392  0.5586  0.5945  1.3038
 1432SOL    MW4 5502   0.553   5.919   5.340 -0.3325  0.2095  0.2649
 1433SOL     OW 5503   3.290   3.734   0.819  0.4551  0.1067 -0.1783
 1433SOL    HW2 5504   3.242   3.746   0.736 -0.4432  1.5607  0.5170
 1433SOL    HW3 5505   3.380   3.757   0.797 -0.0493  1.9837 -0.4362
 1433SOL    MW4 5506   3.295   3.739   0.805  0.2700  0.5462 -0.1206
 1434SOL     OW 5507   2.548   0.394   1.154 -0.0062  0.1676 -0.1719
 1434SOL    HW2 5508   2.623   0.383   1.211  0.0691  1.3690 -0.0160
 1434SOL    HW3 5509   2.581   0.442   1.078 -0.4526  0.0473 -0.4505
 1434SOL    MW4 5510   2.562   0.399   1.152 -0.0552  0.3103 -0.1881
 1435SOL     OW 5511   1.010   5.687   5.256 -0.0041 -0.6366  0.3177
 1435SOL    HW2 5512   0.962   5.660   5.177  2.2094 -0.2205 -1.2770
 1435SOL    HW3 5513   0.943   5.724   5.313 -1.7359 -1.1226 -1.2690
 1435SOL    MW4 5514   0.995   5.688   5.253  0.0595 -0.6458 -0.1021
 1436SOL     OW 5515   2.995   3.274   0.769  0.2300  0.0423  0.4312
 1436SOL    HW2 5516   3.047   3.202   0.735  1.1542  0.9467 -0.1394
 1436SOL    HW3 5517   2.962   3.319   0.691 -1.5661 -0.5897  0.7700
 1436SOL    MW4 5518   2.997   3.270   0.754  0.1149  0.0782  0.4006
 1437SOL     OW 5519   2.274   0.736   4.287  0.5900 -0.5136 -0.1550
 1437SOL    HW2 5520   2.341   0.789   4.330 -0.1384  2.7583 -2.6724
 1437SOL    HW3 5521   2.193   0.757   4.333  0.3107  0.6166 -1.1159
 1437SOL    MW4 5522   2.272   0.746   4.298  0.4570  0.0672 -0.6139
 1438SOL     OW 5523   2.210   2.156   4.706  0.0093  0.3637 -0.1906
 1438SOL    HW2 5524   2.204   2.170   4.612  1.6327  1.1999 -0.2089
 1438SOL    HW3 5525   2.303   2.137   4.721 -0.2354  0.1921  1.2368
 1438SOL    MW4 5526   2.222   2.155   4.696  0.1912  0.4514 -0.0047
 1439SOL     OW 5527   5.912   3.078   1.738 -0.8213  0.5525  0.3535
 1439SOL    HW2 5528   5.963   3.087   1.658  1.1950 -0.2729  1.4679
 1439SOL    HW3 5529   5.882   3.167   1.758  2.0759  1.5208  0.7958
 1439SOL    MW4 5530   5.915   3.091   1.730 -0.1730  0.5713  0.5589
 1440SOL     OW 5531   5.221   2.908   4.800  0.3073  0.1014  0.5993
 1440SOL    HW2 5532   5.212   2.812   4.797  0.2045  0.0437  2.0233
 1440SOL    HW3 5533   5.177   2.938   4.721  0.4725 -1.0394  0.0446
 1440SOL    MW4 5534   5.214   2.899   4.789  0.3155 -0.0567  0.7140
 1441SOL     OW 5535   1.937   0.890   4.150  0.3254  0.2895  0.2961
 1441SOL    HW2 5536   1.875   0.832   4.106 -0.3058  0.6821  0.6451
 1441SOL    HW3 5537   1.962   0.843   4.230 -0.1728  0.4771  0.5697
 1441SOL    MW4 5538   1.932   0.876   4.155  0.1764  0.3660  0.3783
 1442SOL     OW 5539   0.395   3.311   2.121  0.8099  0.3780 -0.2017
 1442SOL    HW2 5540   0.474   3.362   2.105  0.8016  0.3920 -0.1986
 1442SOL    HW3 5541   0.323   3.373   2.109  0.8495  0.7153  1.0939
 1442SOL    MW4 5542   0.396   3.326   2.118  0.8140  0.4244 -0.0303
 1443SOL     OW 5543   3.991   5.808   3.025  0.1243 -0.3153  0.2509
 1443SOL    HW2 5544   3.898   5.820   3.044 -0.0232  0.6789 -0.9279
 1443SOL    HW3 5545   3.993   5.752   2.948  0.4154  0.7158 -0.5244
 1443SOL    MW4 5546   3.979   5.802   3.017  0.1432 -0.0481 -0.0069
 1444SOL     OW 5547   3.525   4.224   3.158 -0.0351 -0.6852  0.4778
 1444SOL    HW2 5548   3.474   4.188   3.086 -1.5474  0.5445  0.8768
 1444SOL    HW3 5549   3.576   4.295   3.118  1.3707 -1.8637  0.0946
 1444SOL    MW4 5550   3.525   4.229   3.144 -0.0491 -0.6784  0.4799
 1445SOL     OW 5551   5.069   1.096   1.978 -0.0588 -0.1261 -0.3232
 1445SOL    HW2 5552   5.107   1.119   1.893  1.5795 -1.2184  0.0791
 1445SOL    HW3 5553   4.983   1.060   1.956  0.4481 -0.6573 -1.5630
 1445SOL    MW4 5554   5.063   1.094   1.964  0.2242 -0.3403 -0.4337
 1446SOL     OW 5555   2.634   0.808   2.792  0.9473 -0.1976  0.3973
 1446SOL    HW2 5556   2.660   0.900   2.796  3.0774 -0.7677  1.0717
 1446SOL    HW3 5557   2.631   0.789   2.698 -0.1093  0.6649  0.2235
 1446SOL    MW4 5558   2.637   0.818   2.780  1.0889 -0.1590  0.4633
 1447SOL     OW 5559   4.093   5.067   1.832 -0.2890 -0.3018 -0.1893
 1447SOL    HW2 5560   4.158   5.023   1.777  0.8034  0.1646  0.7093
 1447SOL    HW3 5561   4.029   4.998   1.852  0.4509 -1.0262 -0.2692
 1447SOL    MW4 5562   4.093   5.052   1.827 -0.0472 -0.3359 -0.0813
 1448SOL     OW 5563   3.238   0.517   3.659  0.3389 -0.7545 -0.4837
 1448SOL    HW2 5564   3.214   0.442   3.712 -0.5052 -0.0880  0.1164
 1448SOL    HW3 5565   3.180   0.587   3.690  0.5243 -0.0860 -1.5937
 1448SOL    MW4 5566   3.227   0.517   3.670  0.2520 -0.5784 -0.5510
 1449SOL     OW 5567   4.135   5.380   1.343 -0.5737 -0.2970 -0.0906
 1449SOL    HW2 5568   4.098   5.336   1.266 -1.5598 -0.2286  0.3292
 1449SOL    HW3 5569   4.141   5.472   1.317 -0.5638 -0.3325 -0.2168
 1449SOL    MW4 5570   4.131   5.386   1.329 -0.7025 -0.2926 -0.0518
 1450SOL     OW 5571   0.906   4.364   3.472 -0.4285 -0.0544 -0.1441
 1450SOL    HW2 5572   0.978   4.305   3.492 -1.0355 -0.2766  1.4956
 1450SOL    HW3 5573   0.857   4.319   3.403 -0.2757 -0.9702  0.3286
 1450SOL    MW4 5574   0.909   4.350   3.465 -0.4885 -0.2045  0.1346
 1451SOL     OW 5575   0.207   3.407   2.927  0.5462  0.4573 -0.0518
 1451SOL    HW2 5576   0.233   3.396   3.018  4.1025 -0.0208 -0.9659
 1451SOL    HW3 5577   0.263   3.477   2.894 -0.3686  0.3584 -1.9864
 1451SOL    MW4 5578   0.218   3.414   2.935  0.8947  0.3812 -0.4277
 1452SOL     OW 5579   3.075   4.321   1.503  0.4985 -0.9723  0.6866
 1452SOL    HW2 5580   3.044   4.411   1.511 -0.6958 -1.0906 -1.7545
 1452SOL    HW3 5581   3.002   4.268   1.536 -0.7071 -1.1222 -1.9531
 1452SOL    MW4 5582   3.061   4.326   1.508  0.1818 -1.0077  0.0162
 1453SOL     OW 5583   2.349   6.297   1.772  0.3446  0.1073 -0.1604
 1453SOL    HW2 5584   2.439   6.281   1.742 -0.0889 -2.2422 -0.4542
 1453SOL    HW3 5585   2.352   6.286   1.867  0.6701  1.8388  0.0506
 1453SOL    MW4 5586   2.361   6.293   1.780  0.3303  0.0257 -0.1713
 1454SOL     OW 5587   4.406   2.655   5.544  0.0439  0.1489 -0.4294
 1454SOL    HW2 5588   4.485   2.614   5.578  0.4145  0.4549 -0.9291
 1454SOL    HW3 5589   4.361   2.586   5.495 -1.5721 -0.9586  2.3480
 1454SOL    MW4 5590   4.410   2.641   5.542 -0.1204  0.0432 -0.1289
 1455SOL     OW 5591   3.695   1.326   3.245 -0.2150  0.0753  0.4307
 1455SOL    HW2 5592   3.777   1.374   3.248  0.1600 -0.5636  0.6567
 1455SOL    HW3 5593   3.631   1.389   3.214 -0.7672  2.1829  5.0101
 1455SOL    MW4 5594   3.697   1.340   3.241 -0.2384  0.2690  1.0647
 1456SOL     OW 5595   5.199   3.928   3.138 -0.3540  0.1830 -0.4225
 1456SOL    HW2 5596   5.257   3.899   3.208 -1.0746 -0.8630 -0.2433
 1456SOL    HW3 5597   5.256   3.977   3.079  0.4908  0.1004  0.3033
 1456SOL    MW4 5598   5.214   3.931   3.139 -0.3376  0.0341 -0.3031
 1457SOL     OW 5599   0.046   1.149   2.156  0.2434 -0.3686  0.2090
 1457SOL    HW2 5600  -0.026   1.198   2.198  0.5599  0.3454 -0.0781
 1457SOL    HW3 5601   0.086   1.100   2.228  0.2518  0.2013  0.5979
 1457SOL    MW4 5602   0.041   1.149   2.171  0.2863 -0.1992  0.2224
 1458SOL     OW 5603   4.841   0.950   6.314  0.0223  0.2310 -0.1056
 1458SOL    HW2 5604   4.876   0.863   6.292  1.0047  1.1090 -2.2827
 1458SOL    HW3 5605   4.897   1.011   6.267 -0.6303  2.1019  1.4016
 1458SOL    MW4 5606   4.853   0.946   6.305  0.0658  0.5937 -0.1939
 1459SOL     OW 5607   1.341   1.438   0.519  0.1630 -0.0127 -0.3820
 1459SOL    HW2 5608   1.302   1.492   0.587  1.7589  0.3744  0.2439
 1459SOL    HW3 5609   1.419   1.486   0.490  1.1808 -1.5791 -0.3681
 1459SOL    MW4 5610   1.346   1.451   0.524  0.5078 -0.1683 -0.2976
 1460SOL     OW 5611   0.511   0.377   0.908  0.2638  0.2240  0.1589
 1460SOL    HW2 5612   0.492   0.306   0.847  0.1818 -0.3627  0.8449
 1460SOL    HW3 5613   0.606   0.376   0.917  0.2553  0.1363  0.2413
 1460SOL    MW4 5614   0.521   0.367   0.901  0.2519  0.1350  0.2603
 1461SOL     OW 5615   5.736   1.295   1.365 -0.2271  0.7168  0.1598
 1461SOL    HW2 5616   5.793   1.266   1.437 -0.1673  0.0078 -0.1666
 1461SOL    HW3 5617   5.796   1.318   1.295 -0.3382 -0.1619 -0.2327
 1461SOL    MW4 5618   5.752   1.294   1.366 -0.2339  0.5073  0.0649
 1462SOL     OW 5619   4.257   2.488   3.286 -0.1230  0.1846 -0.0772
 1462SOL    HW2 5620   4.192   2.424   3.258 -1.3938  1.7338 -0.8277
 1462SOL    HW3 5621   4.294   2.522   3.205  2.5053 -1.4395  0.3286
 1462SOL    MW4 5622   4.253   2.484   3.272  0.0561  0.1747 -0.1227
 1463SOL     OW 5623   4.542   3.167   4.629 -0.1862 -0.5871  0.0119
 1463SOL    HW2 5624   4.623   3.115   4.629  0.4092  0.2741  1.7649
 1463SOL    HW3 5625   4.566   3.248   4.585  0.2827  0.1536  1.5638
 1463SOL    MW4 5626   4.556   3.171   4.623 -0.0458 -0.3758  0.4480
 1464SOL     OW 5627   0.004   2.633   0.888  0.4817 -0.6655  0.4392
 1464SOL    HW2 5628   0.093   2.618   0.856  1.0263 -1.2257  2.0830
 1464SOL    HW3 5629  -0.005   2.728   0.889  0.7347 -0.6222 -0.5595
 1464SOL    MW4 5630   0.015   2.644   0.884  0.5870 -0.7337  0.5243
 1465SOL     OW 5631   5.633   2.406   3.365  0.4131 -0.1913  0.2498
 1465SOL    HW2 5632   5.621   2.430   3.273  1.0617  0.1278  0.2476
 1465SOL    HW3 5633   5.638   2.489   3.412 -2.0500 -0.3219  0.8803
 1465SOL    MW4 5634   5.632   2.420   3.359  0.1737 -0.1664  0.3327
 1466SOL     OW 5635   2.463   2.997   4.350  0.9806  0.1151  0.6379
 1466SOL    HW2 5636   2.476   2.927   4.413  0.1517 -0.8398 -0.2251
 1466SOL    HW3 5637   2.546   3.043   4.348  1.6849 -1.1094  0.9067
 1466SOL    MW4 5638   2.475   2.994   4.358  0.9641 -0.1724  0.5595
 1467SOL     OW 5639   5.418   3.564   2.183 -0.3771  0.1682  0.2372
 1467SOL    HW2 5640   5.393   3.474   2.160 -1.0576  0.2964  0.4663
 1467SOL    HW3 5641   5.468   3.554   2.264  1.6715 -0.2403 -1.0080
 1467SOL    MW4 5642   5.422   3.551   2.191 -0.1966  0.1312  0.1032
 1468SOL     OW 5643   1.294   3.600   0.149  0.4498  0.6464 -0.0982
 1468SOL    HW2 5644   1.337   3.566   0.072  0.1835 -1.4119  0.6115
 1468SOL    HW3 5645   1.201   3.579   0.137  0.3556  0.5959  0.6346
 1468SOL    MW4 5646   1.287   3.593   0.138  0.4022  0.3682  0.0921
 1469SOL     OW 5647   4.760   1.069   2.965  0.3968  0.4728  0.0746
 1469SOL    HW2 5648   4.839   1.018   2.982 -0.6474 -1.0833  0.5082
 1469SOL    HW3 5649   4.739   1.110   3.049  1.6929  2.3896 -0.4662
 1469SOL    MW4 5650   4.767   1.068   2.978  0.4300  0.5204  0.0605
 1470SOL     OW 5651   3.033   6.100   2.754 -1.2232 -0.1972 -0.6436
 1470SOL    HW2 5652   3.126   6.114   2.775 -0.6953 -0.7447 -2.4206
 1470SOL    HW3 5653   2.990   6.181   2.782  0.1936  1.0584 -1.9370
 1470SOL    MW4 5654   3.040   6.113   2.761 -0.9666 -0.1037 -1.0487
 1471SOL     OW 5655   4.919   5.421   4.237 -0.4008  0.0381 -0.3339
 1471SOL    HW2 5656   4.859   5.426   4.163 -2.5082  0.1128  1.2846
 1471SOL    HW3 5657   4.904   5.334   4.275  0.3833  0.1317  0.2253
 1471SOL    MW4 5658   4.909   5.410   4.232 -0.5754  0.0603 -0.0466
 1472SOL     OW 5659   3.686   2.320   2.786  0.1882  0.4117 -0.2298
 1472SOL    HW2 5660   3.647   2.363   2.710  0.0544  1.2530  0.2943
 1472SOL    HW3 5661   3.748   2.385   2.821  0.9457 -0.3278 -0.1719
 1472SOL    MW4 5662   3.689   2.334   2.781  0.2704  0.4251 -0.1530
 1473SOL     OW 5663   3.117   5.385   4.086  0.5872 -0.1238  0.0181
 1473SOL    HW2 5664   3.156   5.359   4.170  2.7282  0.3010 -0.7792
 1473SOL    HW3 5665   3.169   5.460   4.057 -0.4370  0.0646 -1.4632
 1473SOL    MW4 5666   3.129   5.391   4.093  0.7345 -0.0429 -0.2825
 1474SOL     OW 5667   1.599   1.626   3.695 -0.2068 -0.1454  0.0736
 1474SOL    HW2 5668   1.583   1.559   3.628 -0.4656 -0.5974  0.5824
 1474SOL    HW3 5669   1.535   1.695   3.676  0.0600 -0.0371 -0.4534
 1474SOL    MW4 5670   1.589   1.626   3.683 -0.2057 -0.1907  0.0712
 1475SOL     OW 5671   6.393   6.107   0.945  0.4149 -0.1827 -0.1360
 1475SOL    HW2 5672   6.305   6.072   0.936  0.2655  0.3065 -0.6344
 1475SOL    HW3 5673   6.385   6.174   1.013  0.5091 -0.4766  0.1676
 1475SOL    MW4 5674   6.380   6.112   0.953  0.4076 -0.1569 -0.1617
 1476SOL     OW 5675   0.609   4.881   2.331 -0.5703  0.8499  0.6764
 1476SOL    HW2 5676   0.643   4.811   2.386  1.3500  1.7003  0.6569
 1476SOL    HW3 5677   0.540   4.922   2.383 -0.5909 -0.0113  1.3447
 1476SOL    MW4 5678   0.604   4.878   2.345 -0.3196  0.8485  0.7620
 1477SOL     OW 5679   3.377   0.104   4.312 -0.5935  0.1386  0.2796
 1477SOL    HW2 5680   3.396   0.191   4.277 -2.6888 -0.0026 -1.4373
 1477SOL    HW3 5681   3.462   0.068   4.336  0.6298  1.5963 -1.5693
 1477SOL    MW4 5682   3.390   0.111   4.311 -0.7086  0.3123 -0.1909
 1478SOL     OW 5683   1.035   0.940   0.443 -0.9202  0.4411  0.1775
 1478SOL    HW2 5684   1.057   1.024   0.483 -0.5789 -0.0463  1.0620
 1478SOL    HW3 5685   0.981   0.896   0.509 -2.2292  0.4878 -0.8143
 1478SOL    MW4 5686   1.031   0.945   0.457 -1.0479  0.3829  0.1633
 1479SOL     OW 5687   6.246   4.032   3.347 -0.2149  0.3752 -0.4372
 1479SOL    HW2 5688   6.223   3.975   3.274 -0.7905 -0.0770  0.0823
 1479SOL    HW3 5689   6.316   3.985   3.393  0.8492  1.1138 -1.2335
 1479SOL    MW4 5690   6.253   4.018   3.344 -0.1505  0.4130 -0.4737
 1480SOL     OW 5691   0.099   4.673   0.696  0.7853 -0.1004 -0.0172
 1480SOL    HW2 5692   0.030   4.650   0.758  0.4364  1.5338  0.2392
 1480SOL    HW3 5693   0.144   4.590   0.679  0.1914 -0.7853  1.5440
 1480SOL    MW4 5694   0.096   4.659   0.702  0.6609  0.0249  0.2226
 1481SOL     OW 5695   3.129   5.864   1.405 -0.5892  0.0685  0.4602
 1481SOL    HW2 5696   3.214   5.821   1.413  0.1220  0.9869 -1.3986
 1481SOL    HW3 5697   3.065   5.794   1.410  0.3658 -0.8225  0.4234
 1481SOL    MW4 5698   3.132   5.849   1.406 -0.3694  0.0721  0.2101
 1482SOL     OW 5699   0.942   2.205   3.863 -0.1342  0.3167 -0.0988
 1482SOL    HW2 5700   0.950   2.205   3.768 -0.6741 -1.2923 -0.1791
 1482SOL    HW3 5701   1.029   2.180   3.894 -0.0923  0.3412 -0.1966
 1482SOL    MW4 5702   0.955   2.202   3.854 -0.1999  0.1077 -0.1223
 1483SOL     OW 5703   5.901   2.161   3.344  0.5026  0.4920 -0.1765
 1483SOL    HW2 5704   5.919   2.207   3.262 -0.2788  1.0402 -0.0458
 1483SOL    HW3 5705   5.888   2.231   3.408  0.8704  0.0703  0.3710
 1483SOL    MW4 5706   5.902   2.176   3.341  0.4480  0.5087 -0.0870
 1484SOL     OW 5707   0.532   3.066   0.973 -0.5521 -0.0576 -0.7407
 1484SOL    HW2 5708   0.580   3.061   1.056 -2.0131  2.0347  0.3085
 1484SOL    HW3 5709   0.542   3.157   0.945 -1.9323 -0.1856 -1.7179
 1484SOL    MW4 5710   0.540   3.077   0.980 -0.9270  0.2016 -0.7312
 1485SOL     OW 5711   3.957   2.338   5.981 -0.0256  0.6297  0.0153
 1485SOL    HW2 5712   3.938   2.415   6.036 -1.0935  0.2131  0.2626
 1485SOL    HW3 5713   4.023   2.289   6.030  0.5744  1.3265 -0.0871
 1485SOL    MW4 5714   3.963   2.342   5.995 -0.0873  0.6667  0.0344
 1486SOL     OW 5715   5.932   1.071   0.322  0.2520 -0.0549 -0.1749
 1486SOL    HW2 5716   5.942   1.021   0.403 -0.0826  0.0005 -0.0983
 1486SOL    HW3 5717   5.907   1.006   0.256  0.7237 -0.1330 -0.2835
 1486SOL    MW4 5718   5.930   1.056   0.324  0.2701 -0.0579 -0.1791
 1487SOL     OW 5719   6.035   3.589   5.938 -0.2952 -0.1661 -0.1843
 1487SOL    HW2 5720   6.086   3.584   5.857  1.0216 -4.2082  0.6252
 1487SOL    HW3 5721   5.989   3.505   5.942 -3.5712  1.5416  1.3744
 1487SOL    MW4 5722   6.036   3.577   5.928 -0.5537 -0.4741  0.1282
 1488SOL     OW 5723   1.314   6.253   4.223 -0.3546 -0.1514  0.1727
 1488SOL    HW2 5724   1.333   6.168   4.264  0.6583 -0.4958 -0.9592
 1488SOL    HW3 5725   1.322   6.237   4.129  0.7825  1.3990 -0.0368
 1488SOL    MW4 5726   1.318   6.240   4.216 -0.0709  0.0077 -0.0043
 1489SOL     OW 5727   6.250   2.782   2.672  0.2043 -0.1957  0.2762
 1489SOL    HW2 5728   6.254   2.692   2.705 -0.1773 -0.5881 -0.6853
 1489SOL    HW3 5729   6.169   2.785   2.622 -0.3749  1.0428  1.2577
 1489SOL    MW4 5730   6.240   2.770   2.670  0.0775 -0.0841  0.2789
 1490SOL     OW 5731   2.390   0.854   0.785 -0.5498  0.8322  0.0221
 1490SOL    HW2 5732   2.343   0.926   0.744 -0.1410  1.2228  0.2263
 1490SOL    HW3 5733   2.471   0.894   0.819  0.0639  0.1277 -0.5689
 1490SOL    MW4 5734   2.395   0.869   0.784 -0.4149  0.7908 -0.0290
 1491SOL     OW 5735   1.113   1.653   2.911  0.2367  0.0949 -0.4865
 1491SOL    HW2 5736   1.051   1.684   2.977 -0.8950 -2.1132 -0.4084
 1491SOL    HW3 5737   1.197   1.651   2.957  0.1218  1.6933 -0.1358
 1491SOL    MW4 5738   1.116   1.657   2.926  0.0722  0.0145 -0.4299
 1492SOL     OW 5739   0.060   4.641   5.448 -0.0430 -0.6620 -0.4207
 1492SOL    HW2 5740   0.040   4.715   5.390 -1.9691 -0.9574 -0.1966
 1492SOL    HW3 5741   0.007   4.569   5.414 -0.2832 -1.1753  0.9929
 1492SOL    MW4 5742   0.050   4.642   5.436 -0.3288 -0.7687 -0.2046
 1493SOL     OW 5743   1.516   4.760   4.713 -0.0553 -0.0321  0.0424
 1493SOL    HW2 5744   1.551   4.840   4.752  2.6073 -1.1936  0.2831
 1493SOL    HW3 5745   1.444   4.734   4.770  0.7515  0.8016  1.4940
 1493SOL    MW4 5746   1.511   4.767   4.725  0.4024 -0.0754  0.2657
 1494SOL     OW 5747   3.761   3.904   4.349  0.3307  0.8533  0.4685
 1494SOL    HW2 5748   3.680   3.857   4.332 -0.3545  1.8795  0.8253
 1494SOL    HW3 5749   3.830   3.839   4.334 -0.4349  0.4750 -1.6638
 1494SOL    MW4 5750   3.760   3.889   4.345  0.1393  0.9388  0.2342
 1495SOL     OW 5751   4.976   2.572   4.139  0.2148 -0.4533 -1.2871
 1495SOL    HW2 5752   5.028   2.564   4.059 -1.0312 -0.6031 -2.1080
 1495SOL    HW3 5753   4.981   2.665   4.162  1.5161 -0.6021 -0.8524
 1495SOL    MW4 5754   4.984   2.583   4.132  0.2221 -0.4927 -1.3381
 1496SOL     OW 5755   4.993   1.127   1.703  0.2240  0.4151  0.3172
 1496SOL    HW2 5756   4.938   1.066   1.655  0.8838  0.8677 -1.0450
 1496SOL    HW3 5757   5.081   1.112   1.670  0.6306  1.0237  1.0911
 1496SOL    MW4 5758   4.997   1.117   1.693  0.3647  0.5551  0.2396
 1497SOL     OW 5759   6.134   3.579   5.645 -0.4206  0.6314  0.2007
 1497SOL    HW2 5760   6.085   3.511   5.598 -0.6826  1.5139 -0.8679
 1497SOL    HW3 5761   6.109   3.661   5.601  0.3401  1.3524  1.0615
 1497SOL    MW4 5762   6.124   3.581   5.633 -0.3548  0.8429  0.1733
 1498SOL     OW 5763   1.199   4.249   4.348 -0.0838 -0.5367  0.1861
 1498SOL    HW2 5764   1.250   4.319   4.389 -1.8738  1.8375 -1.3893
 1498SOL    HW3 5765   1.121   4.241   4.404  0.0073 -1.1600  0.2336
 1498SOL    MW4 5766   1.195   4.257   4.361 -0.3080 -0.3057 -0.0155
 1499SOL     OW 5767   0.720   2.413   0.758  0.2122 -0.0313  0.5332
 1499SOL    HW2 5768   0.649   2.372   0.708 -0.1749  0.0732  0.9893
 1499SOL    HW3 5769   0.681   2.432   0.844  0.2506  1.6491  0.2207
 1499SOL    MW4 5770   0.706   2.410   0.763  0.1662  0.2042  0.5521
 1500SOL     OW 5771   2.625   3.278   3.979 -0.1015  1.2117  0.5008
 1500SOL    HW2 5772   2.634   3.225   3.899  0.9745  1.3045  0.5412
 1500SOL    HW3 5773   2.531   3.280   3.996 -0.1336 -1.2692  0.8947
 1500SOL    MW4 5774   2.614   3.271   3.970  0.0363  0.8966  0.5581
 1501SOL     OW 5775   3.261   2.389   5.163 -0.5282  0.2646 -0.2125
 1501SOL    HW2 5776   3.167   2.399   5.179 -0.7319  1.3305 -1.8154
 1501SOL    HW3 5777   3.282   2.459   5.101  1.2347 -0.2717 -0.2701
 1501SOL    MW4 5778   3.252   2.400   5.157 -0.3225  0.3345 -0.4316
 1502SOL     OW 5779   3.896   0.759   5.810 -0.4374 -0.1929  0.3432
 1502SOL    HW2 5780   3.928   0.717   5.889 -1.4709  0.1604  0.9682
 1502SOL    HW3 5781   3.834   0.825   5.841 -0.6202  0.1662 -0.7402
 1502SOL    MW4 5782   3.892   0.762   5.824 -0.5979 -0.0989  0.2827
 1503SOL     OW 5783   2.131   1.550   5.581 -0.1558 -0.5252 -0.5270
 1503SOL    HW2 5784   2.100   1.595   5.659  0.1912 -1.1473 -0.0206
 1503SOL    HW3 5785   2.105   1.607   5.509  0.7030  0.7437  0.1153
 1503SOL    MW4 5786   2.124   1.564   5.582  0.0033 -0.4399 -0.3754
 1504SOL     OW 5787   6.229   4.166   1.301  0.0303  0.1123 -0.6554
 1504SOL    HW2 5788   6.227   4.112   1.380 -0.9012  0.3224 -0.5275
 1504SOL    HW3 5789   6.200   4.253   1.331 -0.4687  0.1543 -1.2482
 1504SOL    MW4 5790   6.225   4.171   1.316 -0.1584  0.1455 -0.7167
 1505SOL     OW 5791   4.801   2.357   4.547 -0.5015  0.3713 -0.6241
 1505SOL    HW2 5792   4.827   2.384   4.459  0.0744  0.1270 -0.5339
 1505SOL    HW3 5793   4.708   2.337   4.539 -0.2870 -0.4403 -1.3834
 1505SOL    MW4 5794   4.793   2.358   4.534 -0.3972  0.2320 -0.7124
 1506SOL     OW 5795   1.572   2.117   5.809 -0.2369 -0.2175 -0.2554
 1506SOL    HW2 5796   1.667   2.109   5.800 -0.4127 -2.2448 -0.7850
 1506SOL    HW3 5797   1.559   2.147   5.899  0.9266  1.8305 -0.7163
 1506SOL    MW4 5798   1.583   2.120   5.820 -0.1066 -0.2148 -0.3861
 1507SOL     OW 5799   4.796   3.906   3.027 -0.0227  0.2425 -0.5396
 1507SOL    HW2 5800   4.717   3.860   3.055 -0.9711  2.3293  0.4498
 1507SOL    HW3 5801   4.856   3.900   3.102  1.4271 -2.5293 -1.7755
 1507SOL    MW4 5802   4.794   3.899   3.041  0.0435  0.1521 -0.5721
 1508SOL     OW 5803   4.178   2.687   0.865  0.0306  0.8055 -0.6121
 1508SOL    HW2 5804   4.166   2.626   0.938 -0.6651  0.7520 -0.7623
 1508SOL    HW3 5805   4.090   2.718   0.846 -0.1774 -0.8756 -2.8930
 1508SOL    MW4 5806   4.165   2.683   0.872 -0.0887  0.5767 -0.9328
 1509SOL     OW 5807   3.695   5.741   0.758  0.3773 -0.2032 -0.2813
 1509SOL    HW2 5808   3.777   5.701   0.730 -0.0070  0.0067 -1.8033
 1509SOL    HW3 5809   3.697   5.737   0.853  2.1790 -0.1315 -0.2976
 1509SOL    MW4 5810   3.706   5.735   0.767  0.5643 -0.1660 -0.4842
 1510SOL     OW 5811   4.538   4.727   0.735 -0.3488  0.5663  0.0730
 1510SOL    HW2 5812   4.518   4.634   0.725 -0.6802  0.5232  1.0208
 1510SOL    HW3 5813   4.495   4.752   0.817  2.5224  0.7203  1.6982
 1510SOL    MW4 5814   4.530   4.718   0.745 -0.0137  0.5810  0.4125
 1511SOL     OW 5815   1.237   2.534   6.216 -0.0625  0.2062 -0.0046
 1511SOL    HW2 5816   1.300   2.498   6.153  0.2832  1.1427 -0.2136
 1511SOL    HW3 5817   1.277   2.616   6.245 -1.0164  0.6240  0.1581
 1511SOL    MW4 5818   1.251   2.540   6.212 -0.1427  0.3849 -0.0107
 1512SOL     OW 5819   1.574   5.952   0.715 -0.2749 -0.0263 -0.0828
 1512SOL    HW2 5820   1.595   5.914   0.630  1.2514 -1.6703  0.9596
 1512SOL    HW3 5821   1.602   5.886   0.779 -1.6753  1.0071  1.7008
 1512SOL    MW4 5822   1.581   5.938   0.712 -0.2583 -0.1069  0.2901
 1513SOL     OW 5823   5.374   5.427   4.553 -0.0942 -0.1128  0.0730
 1513SOL    HW2 5824   5.367   5.421   4.648 -0.6187 -0.7075  0.0074
 1513SOL    HW3 5825   5.464   5.401   4.533  0.1932  0.5807  0.4465
 1513SOL    MW4 5826   5.385   5.423   4.563 -0.1255 -0.0998  0.1136
 1514SOL     OW 5827   4.858   2.602   5.882  0.0740 -0.0274 -0.2292
 1514SOL    HW2 5828   4.791   2.556   5.933  0.8406 -0.1465  0.6984
 1514SOL    HW3 5829   4.835   2.695   5.890 -1.7314 -0.1857 -2.4650
 1514SOL    MW4 5830   4.846   2.608   5.889 -0.0630 -0.0640 -0.4018
 1515SOL     OW 5831   6.409   4.416   5.277 -0.4319 -0.5535 -0.1006
 1515SOL    HW2 5832   6.360   4.492   5.245  0.5272  0.6538  1.1813
 1515SOL    HW3 5833   6.480   4.405   5.214  0.5887  0.9042  0.7165
 1515SOL    MW4 5834   6.412   4.424   5.264 -0.1707 -0.2018  0.1763
 1516SOL     OW 5835   4.358   3.655   4.426 -0.1043 -0.0961 -0.7028
 1516SOL    HW2 5836   4.297   3.588   4.456 -0.4500  0.1032 -0.9524
 1516SOL    HW3 5837   4.409   3.613   4.357 -0.0235 -0.2356 -0.5568
 1516SOL    MW4 5838   4.357   3.641   4.421 -0.1392 -0.0882 -0.7165
 1517SOL     OW 5839   6.076   4.763   5.630 -0.3039  0.4598 -0.4014
 1517SOL    HW2 5840   6.067   4.669   5.613 -0.9360  0.5645 -0.6596
 1517SOL    HW3 5841   5.988   4.798   5.621 -0.0380  1.1189 -0.5329
 1517SOL    MW4 5842   6.063   4.755   5.627 -0.3522  0.5606 -0.4528
 1518SOL     OW 5843   2.317   1.914   3.204 -0.1555  0.0030 -0.2382
 1518SOL    HW2 5844   2.265   1.981   3.247 -0.3936  0.4964 -1.2649
 1518SOL    HW3 5845   2.408   1.935   3.226 -0.3218 -0.2339  0.6842
 1518SOL    MW4 5846   2.322   1.925   3.212 -0.2089  0.0368 -0.2519
 1519SOL     OW 5847   2.070   3.969   1.607 -0.6072  0.0265  0.5843
 1519SOL    HW2 5848   2.111   3.959   1.522 -2.1565  0.1847 -0.2106
 1519SOL    HW3 5849   2.074   3.882   1.647 -1.2940 -0.4496 -0.3369
 1519SOL    MW4 5850   2.076   3.956   1.601 -0.9022 -0.0154  0.3579
 1520SOL     OW 5851   0.444   5.174   3.450  0.1645  0.6598 -0.2466
 1520SOL    HW2 5852   0.360   5.132   3.436  0.7301 -0.9946  1.0715
 1520SOL    HW3 5853   0.461   5.163   3.543  0.8818  2.8526 -0.0642
 1520SOL    MW4 5854   0.435   5.167   3.460  0.3338  0.7308 -0.0486
 1521SOL     OW 5855   3.437   1.417   3.902  0.0692  0.2257  0.2208
 1521SOL    HW2 5856   3.448   1.495   3.957 -0.4784  0.6549 -0.2635
 1521SOL    HW3 5857   3.526   1.390   3.881  0.2767  0.3123  0.9638
 1521SOL    MW4 5858   3.450   1.424   3.906  0.0243  0.2938  0.2549
 1522SOL     OW 5859   1.442   2.016   5.051 -0.0662  0.0711  0.4221
 1522SOL    HW2 5860   1.373   2.019   4.985  0.6639  1.8985 -0.3056
 1522SOL    HW3 5861   1.403   1.966   5.123 -2.6881  2.2049  0.6302
 1522SOL    MW4 5862   1.427   2.010   5.052 -0.3158  0.5937  0.3535
 1523SOL     OW 5863   4.341   2.251   4.022  0.0430  0.4116  0.6288
 1523SOL    HW2 5864   4.282   2.324   4.042 -1.0346 -0.5487  1.1020
 1523SOL    HW3 5865   4.428   2.290   4.021 -0.5564  1.8280  0.1966
 1523SOL    MW4 5866   4.345   2.266   4.025 -0.1783  0.4718  0.6342
 1524SOL     OW 5867   1.000   2.833   0.117  0.2201  0.2350  0.2271
 1524SOL    HW2 5868   0.981   2.784   0.197  2.2852  0.4219  0.8938
 1524SOL    HW3 5869   1.000   2.767   0.048  0.6987 -0.3323  0.7552
 1524SOL    MW4 5870   0.997   2.818   0.119  0.5557  0.1848  0.3847
 1525SOL     OW 5871   0.316   3.324   4.367  0.3790 -0.0940  0.3382
 1525SOL    HW2 5872   0.311   3.348   4.459  1.4618  1.7590 -0.0229
 1525SOL    HW3 5873   0.404   3.287   4.356  1.2235  1.9421 -0.3465
 1525SOL    MW4 5874   0.327   3.322   4.378  0.6333  0.4191  0.2002
 1526SOL     OW 5875   5.523   3.526   1.716  0.2801 -0.2179 -0.2156
 1526SOL    HW2 5876   5.534   3.501   1.624 -1.2325 -1.4465 -0.1114
 1526SOL    HW3 5877   5.519   3.621   1.715 -1.1455 -0.2650 -1.6243
 1526SOL    MW4 5878   5.524   3.535   1.704 -0.1076 -0.3862 -0.3877
 1527SOL     OW 5879   2.824   3.669   3.401  0.1235 -0.3815  0.6526
 1527SOL    HW2 5880   2.839   3.740   3.339  0.1073 -1.0600 -0.1478
 1527SOL    HW3 5881   2.763   3.705   3.465 -0.5225  0.0698 -0.1952
 1527SOL    MW4 5882   2.818   3.683   3.401  0.0361 -0.4115  0.4351
 1528SOL     OW 5883   4.086   5.760   5.745  0.7958 -0.0637  0.0785
 1528SOL    HW2 5884   4.147   5.740   5.817 -1.0031  1.9776  2.3553
 1528SOL    HW3 5885   4.137   5.816   5.687  2.1450 -1.3320 -0.0280
 1528SOL    MW4 5886   4.101   5.765   5.747  0.7365  0.0383  0.3649
 1529SOL     OW 5887   2.378   5.238   6.288 -0.2870 -0.4698  0.1419
 1529SOL    HW2 5888   2.461   5.264   6.328  0.0855  2.4506 -2.1901
 1529SOL    HW3 5889   2.401   5.167   6.228  0.4255 -0.1619  0.0419
 1529SOL    MW4 5890   2.392   5.232   6.285 -0.1439 -0.0439 -0.1790
 1530SOL     OW 5891   2.146   6.219   3.123  0.2879 -0.3341 -0.2324
 1530SOL    HW2 5892   2.220   6.159   3.126  0.9913  0.5376  1.5551
 1530SOL    HW3 5893   2.072   6.167   3.154  0.4433 -0.8400 -0.7001
 1530SOL    MW4 5894   2.146   6.204   3.128  0.4012 -0.2858 -0.0583
 1531SOL     OW 5895   3.573   6.398   1.248  0.0082  0.0264 -0.4622
 1531SOL    HW2 5896   3.576   6.350   1.165 -0.7912 -1.5969  0.4236
 1531SOL    HW3 5897   3.547   6.487   1.222 -1.6414 -0.7985 -1.8232
 1531SOL    MW4 5898   3.570   6.404   1.234 -0.3149 -0.2966 -0.5249
 1532SOL     OW 5899   2.489   4.982   1.767  0.3002  0.0852  0.3233
 1532SOL    HW2 5900   2.498   5.066   1.813 -0.7542  0.3830 -0.0038
 1532SOL    HW3 5901   2.417   4.938   1.811  0.2905 -0.2854 -0.0622
 1532SOL    MW4 5902   2.481   4.988   1.778  0.1598  0.0756  0.2293
 1533SOL     OW 5903   2.937   0.919   1.386  0.4727 -0.1079  0.2305
 1533SOL    HW2 5904   2.847   0.911   1.417  0.3413  2.2323  0.5734
 1533SOL    HW3 5905   2.942   0.858   1.313 -1.4100 -0.2310  0.1553
 1533SOL    MW4 5906   2.926   0.910   1.381  0.2070  0.1846  0.2658
 1534SOL     OW 5907   4.307   5.140   4.087  0.2204  0.4838 -0.1810
 1534SOL    HW2 5908   4.307   5.078   4.014 -0.3661  1.6275 -1.1974
 1534SOL    HW3 5909   4.397   5.142   4.118  0.1052 -1.4318  0.3854
 1534SOL    MW4 5910   4.319   5.132   4.082  0.1278  0.3820 -0.2403
 1535SOL     OW 5911   5.344   0.578   3.461  0.4212 -0.2288  0.1430
 1535SOL    HW2 5912   5.434   0.568   3.431  0.1435 -2.5227 -0.0445
 1535SOL    HW3 5913   5.340   0.668   3.493  2.6539  0.0573 -0.2248
 1535SOL    MW4 5914   5.356   0.589   3.462  0.6792 -0.4937  0.0697
 1536SOL     OW 5915   0.001   3.657   0.316  0.4286  0.0635 -0.2812
 1536SOL    HW2 5916  -0.027   3.629   0.229 -0.6363 -1.5283  0.5227
 1536SOL    HW3 5917  -0.081   3.682   0.360  0.5963 -1.6363  1.0872
 1536SOL    MW4 5918  -0.014   3.657   0.310  0.3102 -0.3708  0.0054
 1537SOL     OW 5919   0.856   0.321   2.422 -0.4476 -0.1007  0.0677
 1537SOL    HW2 5920   0.851   0.371   2.341  1.8707 -1.0959 -0.7664
 1537SOL    HW3 5921   0.908   0.244   2.400 -0.8051 -1.0232  2.2152
 1537SOL    MW4 5922   0.862   0.318   2.409 -0.1889 -0.3538  0.2410
 1538SOL     OW 5923   0.888   6.266   0.427  0.0825  0.2340  0.7375
 1538SOL    HW2 5924   0.971   6.228   0.458 -1.2408 -3.2519  0.5149
 1538SOL    HW3 5925   0.833   6.267   0.505 -0.4963 -0.1162  0.3386
 1538SOL    MW4 5926   0.892   6.261   0.442 -0.1685 -0.2721  0.6555
 1539SOL     OW 5927   4.369   0.719   3.571  0.4567 -0.0017  0.3347
 1539SOL    HW2 5928   4.323   0.639   3.599  1.5048  0.1882  2.8859
 1539SOL    HW3 5929   4.319   0.749   3.495 -1.0050 -2.1393  0.3377
 1539SOL    MW4 5930   4.356   0.712   3.565  0.4021 -0.2587  0.6717
 1540SOL     OW 5931   5.318   0.121   0.675 -0.5101 -0.0657  0.1969
 1540SOL    HW2 5932   5.309   0.072   0.593 -1.1948 -0.7404  0.6549
 1540SOL    HW3 5933   5.343   0.055   0.739  0.4176  0.5280  0.4672
 1540SOL    MW4 5934   5.320   0.106   0.673 -0.4780 -0.0764  0.2930
 1541SOL     OW 5935   1.601   4.653   1.475  0.2323  0.3699 -0.0656
 1541SOL    HW2 5936   1.572   4.615   1.558  0.9058  1.5671  0.7579
 1541SOL    HW3 5937   1.663   4.590   1.439  0.0533 -0.0880  0.4239
 1541SOL    MW4 5938   1.605   4.640   1.481  0.2975  0.4674  0.1076
 1542SOL     OW 5939   4.492   3.238   3.539  0.7333 -0.0513 -0.1294
 1542SOL    HW2 5940   4.573   3.221   3.491  0.1377 -0.6588 -0.9365
 1542SOL    HW3 5941   4.518   3.233   3.631  1.9033  1.2222 -0.3693
 1542SOL    MW4 5942   4.506   3.235   3.545  0.8091  0.0366 -0.2675
 1543SOL     OW 5943   5.809   6.280   1.425  0.4716  0.2647 -0.1194
 1543SOL    HW2 5944   5.721   6.298   1.392  0.4024  1.0696  0.4973
 1543SOL    HW3 5945   5.797   6.212   1.491  0.3317  0.2716 -0.1379
 1543SOL    MW4 5946   5.796   6.273   1.429  0.4440  0.3718 -0.0405
 1544SOL     OW 5947   4.276   1.553   4.508 -0.0409 -0.5674  0.4099
 1544SOL    HW2 5948   4.327   1.615   4.560 -0.5033 -1.3568  1.8600
 1544SOL    HW3 5949   4.343   1.499   4.464  0.3640  1.0246 -1.0280
 1544SOL    MW4 5950   4.292   1.554   4.509 -0.0485 -0.4615  0.4115
 1545SOL     OW 5951   3.578   4.544   3.185 -0.0510 -0.3397 -0.2650
 1545SOL    HW2 5952   3.585   4.639   3.175 -0.4512 -0.2989 -0.1768
 1545SOL    HW3 5953   3.568   4.511   3.096 -0.7332 -0.2254 -0.2358
 1545SOL    MW4 5954   3.578   4.552   3.172 -0.1938 -0.3193 -0.2495
 1546SOL     OW 5955   3.507   1.882   5.794  0.0920 -1.1128 -0.4454
 1546SOL    HW2 5956   3.480   1.851   5.708 -1.3213  0.7641 -0.7493
 1546SOL    HW3 5957   3.585   1.936   5.777 -0.8712  0.2392 -0.7824
 1546SOL    MW4 5958   3.514   1.885   5.780 -0.2216 -0.6868 -0.5299
 1547SOL     OW 5959   3.388   6.186   2.210  0.0488  0.4547 -0.1284
 1547SOL    HW2 5960   3.314   6.243   2.187 -1.0724 -0.6199  0.6947
 1547SOL    HW3 5961   3.413   6.212   2.298 -0.1363  0.0221  0.0547
 1547SOL    MW4 5962   3.381   6.197   2.218 -0.1235  0.2558  0.0044
 1548SOL     OW 5963   2.591   4.830   3.447  0.1135  0.2216 -0.3805
 1548SOL    HW2 5964   2.560   4.741   3.430 -1.1561  0.2466  1.4464
 1548SOL    HW3 5965   2.535   4.887   3.394 -1.1788  0.0795  0.7677
 1548SOL    MW4 5966   2.579   4.826   3.438 -0.2245  0.2061  0.0120
 1549SOL     OW 5967   2.106   2.543   4.174 -0.3874  0.5887  0.2124
 1549SOL    HW2 5968   2.129   2.620   4.123 -0.5408 -0.1742 -1.0418
 1549SOL    HW3 5969   2.143   2.470   4.126 -2.6910 -0.4001 -0.2092
 1549SOL    MW4 5970   2.114   2.544   4.161 -0.7115  0.3576 -0.0087
 1550SOL     OW 5971   4.353   1.354   1.407  0.3317 -0.7747 -0.3627
 1550SOL    HW2 5972   4.312   1.340   1.492  1.4867 -2.0307  0.0152
 1550SOL    HW3 5973   4.304   1.298   1.347 -1.2634  0.9981 -0.8345
 1550SOL    MW4 5974   4.341   1.345   1.410  0.2737 -0.7065 -0.3751
 1551SOL     OW 5975   5.882   3.607   3.039  0.5103  0.3615  0.0477
 1551SOL    HW2 5976   5.818   3.658   2.990  0.1895 -2.3525 -2.6239
 1551SOL    HW3 5977   5.830   3.548   3.094  0.7606  0.1098  0.0224
 1551SOL    MW4 5978   5.867   3.606   3.040  0.5010 -0.0298 -0.3081
 1552SOL     OW 5979   0.532   5.139   0.267 -0.7901 -0.4397  0.2067
 1552SOL    HW2 5980   0.444   5.135   0.304 -1.4372  0.7233 -1.1007
 1552SOL    HW3 5981   0.542   5.230   0.239 -0.1098 -1.0667 -1.7875
 1552SOL    MW4 5982   0.521   5.150   0.268 -0.7857 -0.3690 -0.2289
 1553SOL     OW 5983   1.966   2.691   1.389  0.5740  0.1607 -0.7548
 1553SOL    HW2 5984   1.926   2.773   1.418 -0.1576  0.1191 -1.5897
 1553SOL    HW3 5985   1.903   2.654   1.327  0.7433 -1.1962 -0.1674
 1553SOL    MW4 5986   1.952   2.697   1.385  0.4998 -0.0238 -0.7875
 1554SOL     OW 5987   3.460   2.549   1.635 -0.2194 -0.1832 -0.2459
 1554SOL    HW2 5988   3.374   2.590   1.649 -0.5295  0.0089 -2.3671
 1554SOL    HW3 5989   3.440   2.456   1.622 -0.1779 -0.0732 -1.1610
 1554SOL    MW4 5990   3.446   2.542   1.636 -0.2548 -0.1434 -0.6465
 1555SOL     OW 5991   0.805   1.888   3.912 -0.5215  0.1659 -0.0968
 1555SOL    HW2 5992   0.757   1.917   3.834 -1.6781  1.8592  1.1722
 1555SOL    HW3 5993   0.880   1.948   3.917 -0.3108 -0.1015 -0.0463
 1555SOL    MW4 5994   0.808   1.900   3.902 -0.6463  0.3541  0.0773
 1556SOL     OW 5995   3.493   0.662   3.628 -0.6447 -0.0313 -0.5922
 1556SOL    HW2 5996   3.417   0.604   3.630 -1.0723  0.4059 -2.2456
 1556SOL    HW3 5997   3.548   0.626   3.559  1.0675 -0.7874  1.0898
 1556SOL    MW4 5998   3.490   0.650   3.619 -0.4752 -0.0734 -0.5884
 1557SOL     OW 5999   5.898   3.651   4.909 -0.3239  0.0029 -0.1741
 1557SOL    HW2 6000   5.981   3.605   4.909  0.6165  1.5700  2.0320
 1557SOL    HW3 6001   5.834   3.586   4.937  0.8635 -0.1910  2.2625
 1557SOL    MW4 6002   5.900   3.636   4.912 -0.0432  0.1841  0.4384
 1558SOL     OW 6003   4.829   5.264   2.016 -0.6708  0.1262  0.5434
 1558SOL    HW2 6004   4.822   5.287   2.109  1.4342  0.1620  0.7408
 1558SOL    HW3 6005   4.895   5.324   1.982  2.3539 -3.0819  0.2543
 1558SOL    MW4 6006   4.837   5.275   2.024  0.0060 -0.2923  0.5313
 1559SOL     OW 6007   2.113   1.024   2.462 -0.1909  0.0004  0.1462
 1559SOL    HW2 6008   2.200   1.036   2.424 -0.2551 -0.1533 -0.0538
 1559SOL    HW3 6009   2.067   0.969   2.398 -0.7320  0.8285 -0.1973
 1559SOL    MW4 6010   2.119   1.018   2.449 -0.2708  0.0894  0.0745
 1560SOL     OW 6011   2.383   4.014   2.994  0.7865  0.4067 -0.0462
 1560SOL    HW2 6012   2.404   3.922   2.974 -1.0428  0.0465 -0.5278
 1560SOL    HW3 6013   2.461   4.062   2.968  2.1695 -1.0862  1.1094
 1560SOL    MW4 6014   2.396   4.008   2.988  0.7276  0.1622  0.0428
 1561SOL     OW 6015   3.253   0.360   5.944  0.0420  0.5449  0.4549
 1561SOL    HW2 6016   3.213   0.442   5.915 -0.1852  0.4363  0.4514
 1561SOL    HW3 6017   3.233   0.297   5.874  1.9215  0.9494 -0.4923
 1561SOL    MW4 6018   3.245   0.362   5.931  0.2600  0.5839  0.3295
 1562SOL     OW 6019   6.192   4.891   1.209  0.5211 -0.0719  0.0681
 1562SOL    HW2 6020   6.270   4.885   1.154  2.0749  0.1922  2.1553
 1562SOL    HW3 6021   6.157   4.978   1.191  1.2699  0.1923 -0.1511
 1562SOL    MW4 6022   6.198   4.901   1.199  0.8249 -0.0022  0.3145
 1563SOL     OW 6023   0.739   4.337   2.071 -0.1067  0.6885  0.0095
 1563SOL    HW2 6024   0.679   4.281   2.023  0.2563  0.9832 -0.8004
 1563SOL    HW3 6025   0.792   4.277   2.123 -2.4352  0.5200  2.3685
 1563SOL    MW4 6026   0.738   4.322   2.072 -0.3661  0.7051  0.2139
 1564SOL     OW 6027   4.524   2.865   0.804 -0.3396  0.0803  0.5144
 1564SOL    HW2 6028   4.514   2.812   0.724 -0.5191  0.4514  0.2854
 1564SOL    HW3 6029   4.449   2.841   0.858  0.5008 -1.1834  1.1764
 1564SOL    MW4 6030   4.513   2.855   0.800 -0.2524 -0.0375  0.5715
 1565SOL     OW 6031   4.115   0.735   5.077  0.1516  0.2462 -0.3147
 1565SOL    HW2 6032   4.042   0.677   5.100 -0.2337  1.1674  0.8595
 1565SOL    HW3 6033   4.078   0.795   5.012 -1.2266  2.8468  2.6240
 1565SOL    MW4 6034   4.100   0.735   5.072 -0.0811  0.7109  0.2279
 1566SOL     OW 6035   4.139   2.005   6.430 -0.4025 -0.4446  0.1206
 1566SOL    HW2 6036   4.220   2.052   6.411 -1.1918  1.1273  0.4368
 1566SOL    HW3 6037   4.084   2.069   6.475 -0.6983 -2.3591  2.7257
 1566SOL    MW4 6038   4.142   2.020   6.433 -0.5457 -0.4898  0.5060
 1567SOL     OW 6039   1.442   1.515   0.897  0.3178  0.2539  0.4456
 1567SOL    HW2 6040   1.378   1.456   0.937 -0.0957  0.5776  0.2610
 1567SOL    HW3 6041   1.473   1.467   0.820  0.1562  0.1816  0.4256
 1567SOL    MW4 6042   1.438   1.501   0.892  0.2419  0.2871  0.4186
 1568SOL     OW 6043   1.764   5.757   4.367  0.0891 -0.0345 -0.0517
 1568SOL    HW2 6044   1.806   5.671   4.360  1.9053  0.5873  1.9756
 1568SOL    HW3 6045   1.757   5.789   4.277  3.3886 -0.5113 -0.5707
 1568SOL    MW4 6046   1.768   5.750   4.354  0.7641 -0.0153  0.1473
 1569SOL     OW 6047   0.564   4.092   3.114  0.0746 -0.0687 -0.0086
 1569SOL    HW2 6048   0.538   4.001   3.130  0.2165  0.1538  1.6578
 1569SOL    HW3 6049   0.545   4.106   3.021 -2.9024 -0.8813  0.3473
 1569SOL    MW4 6050   0.558   4.082   3.104 -0.2995 -0.1466  0.2582
 1570SOL     OW 6051   2.247   5.471   1.843 -0.5507  0.4131 -0.0098
 1570SOL    HW2 6052   2.174   5.499   1.788 -1.3236 -2.6756 -0.7404
 1570SOL    HW3 6053   2.217   5.389   1.883  2.2424 -0.6489  0.1569
 1570SOL    MW4 6054   2.233   5.464   1.841 -0.2842 -0.1345 -0.0842
 1571SOL     OW 6055   2.743   3.187   0.813  0.3475 -0.0949 -0.2210
 1571SOL    HW2 6056   2.835   3.209   0.825  0.9908 -1.2380 -2.4863
 1571SOL    HW3 6057   2.696   3.264   0.842  1.8382 -0.2295  3.0000
 1571SOL    MW4 6058   2.749   3.200   0.819  0.6291 -0.2635 -0.0949
 1572SOL     OW 6059   6.028   0.281   5.940  0.2499  0.0415  0.3655
 1572SOL    HW2 6060   5.979   0.345   5.888  0.8533 -0.6610 -1.1027
 1572SOL    HW3 6061   6.025   0.317   6.029 -2.7398  0.1161  0.3289
 1572SOL    MW4 6062   6.021   0.294   5.945 -0.0649 -0.0413  0.1670
 1573SOL     OW 6063   4.260   0.373   1.365 -0.4563 -0.5899  0.1041
 1573SOL    HW2 6064   4.254   0.437   1.435 -1.0162  1.2072 -1.4958
 1573SOL    HW3 6065   4.198   0.304   1.390  1.9215 -1.8658  3.0646
 1573SOL    MW4 6066   4.251   0.372   1.377 -0.2164 -0.5212  0.2837
 1574SOL     OW 6067   4.945   4.452   2.603  0.3072  0.3114  0.0498
 1574SOL    HW2 6068   4.911   4.525   2.654 -1.1064 -0.8688  0.8924
 1574SOL    HW3 6069   5.015   4.415   2.656  0.9225  0.9435 -0.3091
 1574SOL    MW4 6070   4.950   4.457   2.616  0.2019  0.2391  0.1136
 1575SOL     OW 6071   1.738   4.463   5.825 -0.5633 -0.5145  0.1914
 1575SOL    HW2 6072   1.739   4.535   5.762 -0.5185 -0.0603  0.7001
 1575SOL    HW3 6073   1.654   4.473   5.871 -0.3389 -0.4921  0.5980
 1575SOL    MW4 6074   1.727   4.474   5.823 -0.5278 -0.4516  0.3122
 1576SOL     OW 6075   0.484   1.749   1.889 -0.2135  0.2010  0.1770
 1576SOL    HW2 6076   0.552   1.727   1.826 -1.7927  0.3041 -1.6281
 1576SOL    HW3 6077   0.404   1.757   1.838 -1.5065  0.6991  2.1371
 1576SOL    MW4 6078   0.483   1.747   1.874 -0.5925  0.2803  0.1975
 1577SOL     OW 6079   3.291   2.663   6.093  0.1337  0.1687  0.7563
 1577SOL    HW2 6080   3.213   2.613   6.070  0.3156  0.3302 -0.2609
 1577SOL    HW3 6081   3.258   2.740   6.139 -0.2375 -0.1887  1.0979
 1577SOL    MW4 6082   3.276   2.666   6.096  0.1088  0.1429  0.6671
 1578SOL     OW 6083   0.618   3.671   2.366 -0.1347  0.5263 -0.3064
 1578SOL    HW2 6084   0.589   3.604   2.428  1.6281 -0.4840 -0.4983
 1578SOL    HW3 6085   0.537   3.705   2.327 -1.1757 -0.0425  1.2677
 1578SOL    MW4 6086   0.603   3.667   2.369 -0.0394  0.3180 -0.1240
 1579SOL     OW 6087   1.403   1.924   3.038  0.6005  0.0257 -0.1146
 1579SOL    HW2 6088   1.385   1.977   3.116 -0.9674 -0.2033 -0.2894
 1579SOL    HW3 6089   1.367   1.838   3.058 -4.3524  1.1111 -2.7162
 1579SOL    MW4 6090   1.396   1.920   3.051 -0.2598  0.1387 -0.4809
 1580SOL     OW 6091   3.695   0.203   0.111  0.5221  0.0852 -0.3287
 1580SOL    HW2 6092   3.748   0.154   0.174  0.8743 -0.0026 -0.6947
 1580SOL    HW3 6093   3.713   0.163   0.027  1.0528  1.0315 -0.6807
 1580SOL    MW4 6094   3.704   0.191   0.108  0.6386  0.1985 -0.4234
 1581SOL     OW 6095   2.520   5.901   1.517  0.9087  0.0993 -0.4682
 1581SOL    HW2 6096   2.481   5.821   1.481 -0.5340 -0.0276  1.2444
 1581SOL    HW3 6097   2.511   5.892   1.612 -0.5318  2.8512 -0.2215
 1581SOL    MW4 6098   2.514   5.889   1.525  0.5283  0.4456 -0.2097
 1582SOL     OW 6099   3.843   6.189   4.021  0.2278 -0.2734 -0.3099
 1582SOL    HW2 6100   3.818   6.179   3.929  0.1968  0.1726 -0.3537
 1582SOL    HW3 6101   3.798   6.118   4.066  0.0474 -0.3503 -0.6052
 1582SOL    MW4 6102   3.834   6.178   4.015  0.1999 -0.2247 -0.3546
 1583SOL     OW 6103   1.260   1.671   3.883 -0.6182 -0.0693  1.0551
 1583SOL    HW2 6104   1.185   1.715   3.844  0.1379  0.6969  0.3943
 1583SOL    HW3 6105   1.297   1.620   3.811  1.2647  1.9857  0.4239
 1583SOL    MW4 6106   1.255   1.670   3.868 -0.2700  0.3029  0.8846
 1584SOL     OW 6107   5.921   5.045   2.507  1.2372  0.7953  0.1473
 1584SOL    HW2 6108   5.990   5.023   2.445 -0.9554 -1.6406 -1.6775
 1584SOL    HW3 6109   5.852   4.980   2.490 -2.0538  3.7574  0.9441
 1584SOL    MW4 6110   5.921   5.033   2.497  0.5137  0.8647  0.0117
 1585SOL     OW 6111   3.703   4.246   2.480 -0.3176 -0.3860  0.1229
 1585SOL    HW2 6112   3.608   4.239   2.485 -0.4978  0.8083 -1.1153
 1585SOL    HW3 6113   3.722   4.337   2.501  0.5720 -0.6536  0.5021
 1585SOL    MW4 6114   3.693   4.257   2.483 -0.2240 -0.2638  0.0096
 1586SOL     OW 6115   6.211   5.283   5.506 -0.5152 -0.1867  0.5203
 1586SOL    HW2 6116   6.243   5.330   5.429 -0.7816 -1.1401 -0.1886
 1586SOL    HW3 6117   6.130   5.242   5.477 -0.7353 -0.3886  1.3811
 1586SOL    MW4 6118   6.204   5.284   5.492 -0.5794 -0.3391  0.5404
 1587SOL     OW 6119   1.844   2.120   1.661  0.0370  0.5191 -0.0369
 1587SOL    HW2 6120   1.866   2.042   1.610 -0.5446  1.3880 -1.6853
 1587SOL    HW3 6121   1.880   2.193   1.611  0.2983  1.3608  1.3163
 1587SOL    MW4 6122   1.852   2.119   1.648 -0.0053  0.7448 -0.0758
 1588SOL     OW 6123   2.481   1.581   2.606 -0.6505 -0.0982  0.0568
 1588SOL    HW2 6124   2.557   1.559   2.553 -0.5668  0.2374  0.0378
 1588SOL    HW3 6125   2.482   1.676   2.612 -2.3475  0.1296 -1.8650
 1588SOL    MW4 6126   2.491   1.591   2.600 -0.8633 -0.0239 -0.1993
 1589SOL     OW 6127   3.188   3.779   0.549 -0.3601 -0.3219 -0.3545
 1589SOL    HW2 6128   3.251   3.757   0.480 -0.5545  1.1995 -1.0625
 1589SOL    HW3 6129   3.218   3.863   0.583 -0.4680 -0.8918  1.2078
 1589SOL    MW4 6130   3.201   3.788   0.544 -0.4000 -0.1964 -0.2418
 1590SOL     OW 6131   2.716   0.512   0.949  0.4471  0.0869  1.0018
 1590SOL    HW2 6132   2.742   0.574   1.017  0.7683  0.4722  0.5323
 1590SOL    HW3 6133   2.728   0.560   0.867  0.8926 -0.6623  0.6214
 1590SOL    MW4 6134   2.721   0.527   0.948  0.5483  0.0389  0.8897
 1591SOL     OW 6135   4.262   0.113   2.407 -0.0215  0.5579 -0.4272
 1591SOL    HW2 6136   4.266   0.033   2.354  2.3444 -0.7836  1.6265
 1591SOL    HW3 6137   4.195   0.094   2.473  0.0969  0.5161 -0.3190
 1591SOL    MW4 6138   4.253   0.100   2.408  0.3063  0.3754 -0.1420
 1592SOL     OW 6139   1.459   3.554   1.832 -0.3405  0.2242 -0.1420
 1592SOL    HW2 6140   1.510   3.510   1.900  2.7130 -0.4495 -2.6271
 1592SOL    HW3 6141   1.404   3.486   1.794 -0.7147  0.1914  0.4494
 1592SOL    MW4 6142   1.459   3.540   1.836  0.0130  0.1310 -0.3919
 1593SOL     OW 6143   6.233   4.309   2.336  0.1049  0.2438  0.1113
 1593SOL    HW2 6144   6.234   4.225   2.290  1.3554  0.5912 -0.5416
 1593SOL    HW3 6145   6.231   4.374   2.267 -0.7311  0.7674  0.6119
 1593SOL    MW4 6146   6.233   4.306   2.321  0.1596  0.3587  0.0912
 1594SOL     OW 6147   2.811   2.959   5.930  0.1841  0.5495 -0.9011
 1594SOL    HW2 6148   2.756   2.988   6.003 -1.0445  0.2281 -1.6717
 1594SOL    HW3 6149   2.894   2.935   5.971 -0.8189 -0.6484  0.5655
 1594SOL    MW4 6150   2.815   2.960   5.945 -0.1104  0.3490 -0.8093
 1595SOL     OW 6151   5.445   6.461   2.179 -0.2674  0.0213 -0.1948
 1595SOL    HW2 6152   5.427   6.526   2.111 -1.1841  1.5885  1.4561
 1595SOL    HW3 6153   5.541   6.458   2.186 -0.1761  0.0437 -1.3261
 1595SOL    MW4 6154   5.455   6.469   2.171 -0.3763  0.2310 -0.1263
 1596SOL     OW 6155   3.537   3.309   3.045  0.3439  0.0973  0.2207
 1596SOL    HW2 6156   3.473   3.320   2.974 -0.1223  0.3676  0.6759
 1596SOL    HW3 6157   3.490   3.259   3.111  0.9089 -0.5035  0.1751
 1596SOL    MW4 6158   3.522   3.304   3.044  0.3569  0.0537  0.2747
 1597SOL     OW 6159  -0.002   3.908   3.524 -0.0682 -0.3432  0.2056
 1597SOL    HW2 6160   0.088   3.876   3.526 -0.2394 -0.9323 -0.9056
 1597SOL    HW3 6161   0.002   3.993   3.568  0.9531 -0.5216  0.4891
 1597SOL    MW4 6162   0.010   3.915   3.530  0.0440 -0.4445  0.0964
 1598SOL     OW 6163   3.677   0.290   5.441  0.2809 -0.0549 -0.0282
 1598SOL    HW2 6164   3.617   0.361   5.461 -2.0644 -2.3385  1.7022
 1598SOL    HW3 6165   3.760   0.333   5.423 -1.0318  3.0898  0.8092
 1598SOL    MW4 6166   3.680   0.305   5.441 -0.2017  0.0587  0.3105
 1599SOL     OW 6167   1.795   4.463   0.425 -0.0568 -0.2061  0.2557
 1599SOL    HW2 6168   1.779   4.556   0.413 -0.0948 -0.2745 -0.2487
 1599SOL    HW3 6169   1.889   4.458   0.444  0.1078 -0.1218 -0.4728
 1599SOL    MW4 6170   1.805   4.475   0.426 -0.0401 -0.2040  0.0930
 1600SOL     OW 6171   2.158   0.957   4.463  0.6912  0.2283  0.0729
 1600SOL    HW2 6172   2.158   1.040   4.415 -0.3539  0.1650 -0.0660
 1600SOL    HW3 6173   2.070   0.952   4.501  0.7819 -0.7694  0.1657
 1600SOL    MW4 6174   2.146   0.968   4.461  0.5653  0.0883  0.0668
 1601SOL     OW 6175   4.425   0.777   3.096  0.2957 -0.0518 -0.0770
 1601SOL    HW2 6176   4.380   0.714   3.040  1.8216  0.1600 -1.6375
 1601SOL    HW3 6177   4.461   0.842   3.035 -0.1770  1.6669  1.3879
 1601SOL    MW4 6178   4.424   0.777   3.080  0.4347  0.2029 -0.0896
 1602SOL     OW 6179   3.565   2.083   3.660 -0.2445  0.2638 -0.1815
 1602SOL    HW2 6180   3.589   2.172   3.633 -0.6494  1.1257  2.0631
 1602SOL    HW3 6181   3.640   2.029   3.634 -0.6896  0.9142 -3.0517
 1602SOL    MW4 6182   3.578   2.088   3.653 -0.3567  0.4634 -0.2640
 1603SOL     OW 6183   6.114   5.829   3.110  0.0453  0.6055 -0.2914
 1603SOL    HW2 6184   6.160   5.830   3.026  0.8098 -0.0265  0.1019
 1603SOL    HW3 6185   6.169   5.881   3.168  0.5156 -0.5204  0.3008
 1603SOL    MW4 6186   6.127   5.836   3.106  0.2082  0.3736 -0.1614
 1604SOL     OW 6187   1.881   1.848   0.483  0.3534 -0.4482 -0.3208
 1604SOL    HW2 6188   1.898   1.793   0.407 -1.2250 -1.0551 -0.2704
 1604SOL    HW3 6189   1.833   1.792   0.543  1.5043  0.0439  1.1154
 1604SOL    MW4 6190   1.877   1.834   0.481  0.2970 -0.4633 -0.1246
 1605SOL     OW 6191   2.110   1.939   0.271 -0.1468 -0.4842 -0.5126
 1605SOL    HW2 6192   2.193   1.982   0.250 -0.5569  0.5209 -0.1062
 1605SOL    HW3 6193   2.115   1.921   0.365 -0.3903 -0.4118 -0.4857
 1605SOL    MW4 6194   2.122   1.942   0.280 -0.2331 -0.3420 -0.4554
 1606SOL     OW 6195   5.112   4.099   4.584  0.0087 -0.2422 -0.1038
 1606SOL    HW2 6196   5.065   4.144   4.655  0.1033 -0.7290  0.2725
 1606SOL    HW3 6197   5.204   4.119   4.600  0.0728 -0.7649  0.2117
 1606SOL    MW4 6198   5.118   4.107   4.596  0.0296 -0.3754 -0.0125
 1607SOL     OW 6199   2.325   6.028   3.084  0.0177 -0.3899  0.2751
 1607SOL    HW2 6200   2.413   6.034   3.046  0.3830 -0.2659  1.1187
 1607SOL    HW3 6201   2.269   6.003   3.011  0.5922  0.5201 -0.4922
 1607SOL    MW4 6202   2.330   6.025   3.070  0.1417 -0.2535  0.2852
 1608SOL     OW 6203   0.451   4.944   4.195  0.4865  0.3959  0.3493
 1608SOL    HW2 6204   0.384   4.998   4.235 -0.2466 -1.5690  1.9818
 1608SOL    HW3 6205   0.517   5.005   4.164 -0.4115  2.1951  1.8318
 1608SOL    MW4 6206   0.451   4.959   4.196  0.2713  0.3740  0.7603
 1609SOL     OW 6207   2.058   0.873   0.679  0.1566  0.6759 -0.5414
 1609SOL    HW2 6208   2.114   0.951   0.678 -0.5874  1.2386 -0.1613
 1609SOL    HW3 6209   1.974   0.905   0.646 -0.0713 -0.0365 -0.6548
 1609SOL    MW4 6210   2.054   0.888   0.675  0.0284  0.6561 -0.5062
 1610SOL     OW 6211   6.405   1.926   5.280  0.3506 -0.0834  1.1587
 1610SOL    HW2 6212   6.489   1.881   5.291 -0.1470 -1.2104  0.5360
 1610SOL    HW3 6213   6.415   1.976   5.200  0.4425 -0.1929  1.1013
 1610SOL    MW4 6214   6.417   1.926   5.271  0.2971 -0.2466  1.0690
 1611SOL     OW 6215   3.733   1.236   5.670 -0.5827 -0.1702 -0.2878
 1611SOL    HW2 6216   3.748   1.238   5.764 -1.9557  1.1430 -0.0624
 1611SOL    HW3 6217   3.675   1.162   5.656  0.8468 -1.3266 -0.3415
 1611SOL    MW4 6218   3.727   1.227   5.680 -0.5753 -0.1495 -0.2652
 1612SOL     OW 6219   1.225   2.430   3.973  0.0814  0.0635 -0.1284
 1612SOL    HW2 6220   1.260   2.517   3.991  0.7155 -0.1826 -0.1528
 1612SOL    HW3 6221   1.294   2.386   3.924  0.3650 -0.9528  1.1361
 1612SOL    MW4 6222   1.238   2.436   3.969  0.2025 -0.1030  0.0352
 1613SOL     OW 6223   5.802   5.314   5.051  0.0557 -0.2797  0.2879
 1613SOL    HW2 6224   5.753   5.356   4.980 -1.0770 -0.0912  1.1544
 1613SOL    HW3 6225   5.829   5.386   5.108 -0.1558 -0.5425  0.7255
 1613SOL    MW4 6226   5.799   5.329   5.049 -0.1216 -0.2895  0.4600
 1614SOL     OW 6227   5.435   3.219   1.290 -0.2850  0.2458 -0.0603
 1614SOL    HW2 6228   5.387   3.287   1.243  0.3326  0.7770  0.0731
 1614SOL    HW3 6229   5.519   3.213   1.245 -0.2270 -0.2352  0.1036
 1614SOL    MW4 6230   5.440   3.227   1.278 -0.1959  0.2524 -0.0211
 1615SOL     OW 6231   6.128   3.215   0.410 -0.3572 -0.1636  0.2676
 1615SOL    HW2 6232   6.221   3.196   0.416 -0.2870  0.3778  1.0416
 1615SOL    HW3 6233   6.124   3.296   0.358 -0.4242 -0.3968 -0.0929
 1615SOL    MW4 6234   6.140   3.223   0.404 -0.3568 -0.1229  0.3222
 1616SOL     OW 6235   4.306   5.812   0.420 -0.5052  0.5510  0.2382
 1616SOL    HW2 6236   4.315   5.722   0.389 -1.3523  1.0776 -1.6973
 1616SOL    HW3 6237   4.368   5.862   0.367 -0.7230  1.2470  0.6218
 1616SOL    MW4 6238   4.315   5.807   0.409 -0.6457  0.7123  0.0335
 1617SOL     OW 6239   3.127   2.316   1.583  0.0223  0.2546 -0.3846
 1617SOL    HW2 6240   3.156   2.385   1.522 -1.0909  1.1573  0.0636
 1617SOL    HW3 6241   3.098   2.245   1.526 -0.8381  1.0191 -0.9296
 1617SOL    MW4 6242   3.127   2.316   1.567 -0.2381  0.4746 -0.3973
 1618SOL     OW 6243   5.616   2.126   2.107 -0.2070 -0.0169 -0.1080
 1618SOL    HW2 6244   5.600   2.122   2.013  0.5869  0.2855 -0.2678
 1618SOL    HW3 6245   5.539   2.085   2.147 -0.8339  0.4165 -0.8545
 1618SOL    MW4 6246   5.604   2.120   2.100 -0.1850  0.0802 -0.2276
 1619SOL     OW 6247   1.627   3.085   5.972  0.5141 -0.1373  0.1791
 1619SOL    HW2 6248   1.548   3.081   6.026  0.0148  2.2421 -0.2481
 1619SOL    HW3 6249   1.673   3.003   5.990 -1.1066 -0.7428  1.8845
 1619SOL    MW4 6250   1.623   3.073   5.981  0.2344  0.0968  0.3477
 1620SOL     OW 6251   2.556   4.408   1.740 -0.0462 -0.0145 -0.3255
 1620SOL    HW2 6252   2.470   4.433   1.773 -0.3296 -0.6330 -0.5824
 1620SOL    HW3 6253   2.581   4.479   1.680  0.4649  1.1196  1.1644
 1620SOL    MW4 6254   2.548   4.421   1.737 -0.0162  0.0535 -0.1628
 1621SOL     OW 6255   0.752   2.724   0.648 -0.2589  0.2928  0.1599
 1621SOL    HW2 6256   0.767   2.684   0.734 -1.5101  0.9093  0.6861
 1621SOL    HW3 6257   0.745   2.818   0.666  2.2011  0.7998 -0.9978
 1621SOL    MW4 6258   0.753   2.731   0.662 -0.0994  0.4410  0.0766
 1622SOL     OW 6259   6.080   3.139   5.795  0.1727 -0.1477  0.3861
 1622SOL    HW2 6260   6.115   3.149   5.706 -0.3122 -0.3920  0.1651
 1622SOL    HW3 6261   6.153   3.102   5.845  0.7549  0.8763  0.3211
 1622SOL    MW4 6262   6.094   3.136   5.790  0.1855 -0.0448  0.3484
 1623SOL     OW 6263   3.541   2.947   1.857  0.1870  0.3594  0.2010
 1623SOL    HW2 6264   3.529   2.891   1.780  2.3410 -0.0705  0.1314
 1623SOL    HW3 6265   3.626   2.988   1.844  0.4345  0.5679  2.1906
 1623SOL    MW4 6266   3.550   2.945   1.845  0.5038  0.3302  0.4543
 1624SOL     OW 6267   3.917   4.741   1.414  0.4704 -0.0824  0.3777
 1624SOL    HW2 6268   3.869   4.692   1.348 -0.8389  0.9511  0.5227
 1624SOL    HW3 6269   3.913   4.685   1.492  1.0205 -0.7823 -0.0859
 1624SOL    MW4 6270   3.910   4.727   1.416  0.3702 -0.0384  0.3357
 1625SOL     OW 6271   0.339   4.112   2.129 -0.4375 -0.2581  0.2208
 1625SOL    HW2 6272   0.377   4.148   2.209  0.5386  2.3778 -1.3082
 1625SOL    HW3 6273   0.285   4.184   2.094  3.7706  1.2319 -4.4646
 1625SOL    MW4 6274   0.337   4.127   2.135  0.2465  0.2862 -0.5992
 1626SOL     OW 6275   3.527   4.606   4.814 -0.1467  0.1017  0.0270
 1626SOL    HW2 6276   3.615   4.639   4.798 -0.1744  0.2476  0.1778
 1626SOL    HW3 6277   3.513   4.618   4.908 -0.6125  0.7756 -0.1255
 1626SOL    MW4 6278   3.537   4.612   4.824 -0.2118  0.2099  0.0268
 1627SOL     OW 6279   6.221   1.276   2.582 -0.7280 -0.2794 -0.0518
 1627SOL    HW2 6280   6.309   1.293   2.614 -0.4829 -2.1224  0.3364
 1627SOL    HW3 6281   6.181   1.363   2.577  1.1475  0.6104 -0.4399
 1627SOL    MW4 6282   6.227   1.290   2.586 -0.4482 -0.4051 -0.0518
 1628SOL     OW 6283   5.524   0.516   0.643  0.3805 -0.2402  0.3180
 1628SOL    HW2 6284   5.485   0.498   0.728 -0.2240  0.9617  0.3253
 1628SOL    HW3 6285   5.450   0.537   0.586  0.8622  0.1340 -0.1856
 1628SOL    MW4 6286   5.509   0.517   0.647  0.3643 -0.0322  0.2525
 1629SOL     OW 6287   3.883   0.745   3.182 -0.0538 -0.2454  0.1353
 1629SOL    HW2 6288   3.832   0.693   3.120  1.4341 -1.2773 -0.2982
 1629SOL    HW3 6289   3.888   0.690   3.261 -0.6986  0.4205  0.6539
 1629SOL    MW4 6290   3.877   0.731   3.185  0.0574 -0.2937  0.1465
 1630SOL     OW 6291   4.231   2.059   1.064  0.5451 -0.5732 -0.3616
 1630SOL    HW2 6292   4.161   1.994   1.061  1.7326 -1.9118 -4.0034
 1630SOL    HW3 6293   4.197   2.134   1.014  0.0796  0.7495  1.8040
 1630SOL    MW4 6294   4.217   2.061   1.057  0.6403 -0.5753 -0.5564
 1631SOL     OW 6295   1.469   1.716   4.741  0.5062 -0.4794 -0.8801
 1631SOL    HW2 6296   1.428   1.636   4.708 -1.4212 -0.4260  1.1447
 1631SOL    HW3 6297   1.511   1.689   4.823 -1.1324  0.6987  0.4324
 1631SOL    MW4 6298   1.469   1.702   4.747  0.0357 -0.3169 -0.4398
 1632SOL     OW 6299   0.021   3.903   2.232 -0.4049  0.1371 -0.1195
 1632SOL    HW2 6300  -0.028   3.958   2.171 -1.2117 -0.8280 -0.3628
 1632SOL    HW3 6301  -0.044   3.875   2.296  0.2917  0.5716  0.7864
 1632SOL    MW4 6302   0.006   3.907   2.232 -0.4194  0.0671 -0.0321
 1633SOL     OW 6303   2.780   3.544   6.143 -0.2179  0.3533  0.7575
 1633SOL    HW2 6304   2.740   3.465   6.180 -2.3197  0.4555 -1.0678
 1633SOL    HW3 6305   2.844   3.572   6.209  0.4080 -2.6731  1.6020
 1633SOL    MW4 6306   2.783   3.537   6.157 -0.4126 -0.0325  0.6281
 1634SOL     OW 6307   2.490   5.681   0.169  0.0805  0.1642  0.2142
 1634SOL    HW2 6308   2.521   5.771   0.178 -0.7587  0.5255 -0.3430
 1634SOL    HW3 6309   2.472   5.671   0.076  0.6752 -0.7656  0.1849
 1634SOL    MW4 6310   2.491   5.691   0.158  0.0483  0.0892  0.1368
 1635SOL     OW 6311   1.967   3.343   1.149 -0.3092 -0.5155 -0.1146
 1635SOL    HW2 6312   1.950   3.354   1.243  1.0686  0.6009  0.0320
 1635SOL    HW3 6313   1.966   3.432   1.114  1.8920 -0.6242 -0.6262
 1635SOL    MW4 6314   1.965   3.356   1.157  0.1630 -0.3826 -0.1627
 1636SOL     OW 6315   1.286   3.765   1.890 -0.0522  0.1670 -0.3834
 1636SOL    HW2 6316   1.342   3.689   1.873  0.7565  1.1352 -2.3534
 1636SOL    HW3 6317   1.278   3.768   1.985  1.4239 -1.2956 -0.1665
 1636SOL    MW4 6318   1.292   3.755   1.900  0.2493  0.1018 -0.6147
 1637SOL     OW 6319   5.091   1.067   2.477 -0.1511  0.5104 -0.3757
 1637SOL    HW2 6320   5.065   0.996   2.419  1.3494  0.8669 -1.5504
 1637SOL    HW3 6321   5.169   1.034   2.522 -0.6727  0.6456  0.6742
 1637SOL    MW4 6322   5.098   1.053   2.475 -0.0220  0.5753 -0.3922
 1638SOL     OW 6323   0.025   3.046   4.523 -0.1410 -0.3890 -0.0749
 1638SOL    HW2 6324   0.117   3.028   4.504  0.5067  1.4234  1.0817
 1638SOL    HW3 6325   0.004   2.989   4.597  1.0878  1.4437  1.8095
 1638SOL    MW4 6326   0.035   3.036   4.531  0.1065  0.0920  0.3263
 1639SOL     OW 6327   5.687   0.973   3.131  0.2705 -0.5355 -0.5645
 1639SOL    HW2 6328   5.642   0.986   3.048 -0.6477  0.7629  0.0996
 1639SOL    HW3 6329   5.620   0.987   3.198  1.6801  1.9933  0.4648
 1639SOL    MW4 6330   5.673   0.977   3.129  0.3354 -0.0305 -0.3411
 1640SOL     OW 6331   1.761   2.571   0.908 -0.1664 -0.5343  0.3385
 1640SOL    HW2 6332   1.719   2.614   0.983  2.1232  1.3195  0.6838
 1640SOL    HW3 6333   1.770   2.480   0.934  1.6623  0.2741  2.9533
 1640SOL    MW4 6334   1.756   2.565   0.921  0.3769 -0.1831  0.7290
 1641SOL     OW 6335   4.313   3.080   3.359 -0.3641 -0.1927  0.3407
 1641SOL    HW2 6336   4.347   3.097   3.271  1.7574 -1.0519  0.9310
 1641SOL    HW3 6337   4.372   3.128   3.417 -0.7273 -0.9830  1.3921
 1641SOL    MW4 6338   4.325   3.089   3.355 -0.1321 -0.4104  0.5573
 1642SOL     OW 6339   3.509   4.317   4.781 -0.9708 -0.0978  0.4302
 1642SOL    HW2 6340   3.515   4.405   4.819 -0.3726 -0.4645  1.2380
 1642SOL    HW3 6341   3.599   4.296   4.755 -1.4327  0.3221 -1.6883
 1642SOL    MW4 6342   3.522   4.326   4.783 -0.9528 -0.0908  0.2573
 1643SOL     OW 6343   5.418   2.036   2.496  0.2908 -0.3005 -0.6222
 1643SOL    HW2 6344   5.474   2.113   2.484  0.5877 -0.2718  0.7516
 1643SOL    HW3 6345   5.378   2.021   2.410 -0.5718  1.9907 -0.6773
 1643SOL    MW4 6346   5.420   2.044   2.483  0.2161  0.0056 -0.4482
 1644SOL     OW 6347   5.319   5.917   5.075 -0.9593  0.0461  0.0400
 1644SOL    HW2 6348   5.294   5.869   4.996 -0.8383  0.6035 -0.3441
 1644SOL    HW3 6349   5.246   5.976   5.091 -0.6843  0.4101 -0.0442
 1644SOL    MW4 6350   5.306   5.918   5.066 -0.9070  0.1677 -0.0218
 1645SOL     OW 6351   0.467   2.929   4.284 -0.0673  0.3417  0.6328
 1645SOL    HW2 6352   0.460   2.964   4.195 -0.3111  0.0615  0.5399
 1645SOL    HW3 6353   0.459   2.834   4.273 -0.4594  0.3307  0.9918
 1645SOL    MW4 6354   0.465   2.921   4.271 -0.1512  0.3032  0.6679
 1646SOL     OW 6355   3.698   0.935   0.931 -0.5183  0.0231 -0.4734
 1646SOL    HW2 6356   3.648   1.015   0.947 -2.1831 -1.2181  0.9271
 1646SOL    HW3 6357   3.773   0.942   0.991 -0.0708  0.9717 -1.1163
 1646SOL    MW4 6358   3.701   0.947   0.941 -0.6789 -0.0155 -0.3735
 1647SOL     OW 6359   2.524   2.627   1.891  0.0214 -0.0968 -0.1149
 1647SOL    HW2 6360   2.528   2.604   1.798 -1.7307  0.4210 -0.3504
 1647SOL    HW3 6361   2.435   2.658   1.905  0.9274  2.2392  1.1891
 1647SOL    MW4 6362   2.513   2.628   1.881 -0.0903  0.2797  0.0261
 1648SOL     OW 6363   1.457   0.893   3.274 -0.0383 -0.6064  0.1218
 1648SOL    HW2 6364   1.547   0.868   3.254  0.1436 -1.3673  1.6926
 1648SOL    HW3 6365   1.417   0.813   3.309 -0.4994  0.3499  1.9527
 1648SOL    MW4 6366   1.463   0.880   3.276 -0.0751 -0.5806  0.5706
 1649SOL     OW 6367   0.789   3.791   3.504 -0.5080 -0.1951 -0.3152
 1649SOL    HW2 6368   0.868   3.841   3.519 -1.2682  0.7488  0.7348
 1649SOL    HW3 6369   0.728   3.853   3.465 -1.0779 -0.6006 -0.0888
 1649SOL    MW4 6370   0.791   3.806   3.501 -0.6835 -0.1241 -0.1468
 1650SOL     OW 6371   0.166   4.920   1.773  0.0937 -0.1916  0.5440
 1650SOL    HW2 6372   0.142   4.983   1.842 -1.1727  3.5474 -2.9293
 1650SOL    HW3 6373   0.260   4.930   1.764  0.1424 -0.0678  1.1148
 1650SOL    MW4 6374   0.175   4.930   1.781 -0.0670  0.3180  0.1611
 1651SOL     OW 6375   2.770   3.859   2.955 -0.1510  0.1577  0.1572
 1651SOL    HW2 6376   2.836   3.806   2.911 -0.5189 -0.3016  0.1430
 1651SOL    HW3 6377   2.694   3.801   2.962 -0.7451  0.8615 -0.3309
 1651SOL    MW4 6378   2.769   3.844   2.950 -0.2779  0.1899  0.0909
 1652SOL     OW 6379   5.620   5.659   3.033 -0.0723  0.2061  0.0768
 1652SOL    HW2 6380   5.586   5.725   3.094 -1.8592  0.8154 -1.4863
 1652SOL    HW3 6381   5.543   5.613   3.001  0.9307 -1.0000 -0.7372
 1652SOL    MW4 6382   5.606   5.662   3.037 -0.1758  0.1273 -0.2369
 1653SOL     OW 6383   4.437   1.368   0.770 -0.6285  0.3528 -0.4842
 1653SOL    HW2 6384   4.373   1.401   0.708  2.0850  1.8518 -2.7325
 1653SOL    HW3 6385   4.483   1.446   0.801  1.0932 -0.7339 -0.1398
 1653SOL    MW4 6386   4.435   1.382   0.766 -0.0433  0.4072 -0.7354
 1654SOL     OW 6387   4.444   3.667   2.256 -0.0983  0.2983 -0.1806
 1654SOL    HW2 6388   4.530   3.649   2.294  0.5595 -0.2233 -1.8311
 1654SOL    HW3 6389   4.431   3.761   2.269  0.9213  0.4648 -0.3018
 1654SOL    MW4 6390   4.454   3.677   2.263  0.1230  0.2514 -0.4144
 1655SOL     OW 6391   0.656   4.725   2.580  0.2308 -0.1475 -0.3494
 1655SOL    HW2 6392   0.580   4.726   2.638  0.9276  2.3187  0.6700
 1655SOL    HW3 6393   0.697   4.640   2.595 -1.1141 -0.6459  0.7195
 1655SOL    MW4 6394   0.652   4.714   2.589  0.1453  0.1121 -0.0739
 1656SOL     OW 6395   0.449   0.321   5.020  0.0714 -0.2586  0.6346
 1656SOL    HW2 6396   0.447   0.253   4.952 -1.3884  0.2240  0.1750
 1656SOL    HW3 6397   0.378   0.381   4.997  0.0105  0.3086  2.1885
 1656SOL    MW4 6398   0.440   0.320   5.008 -0.1293 -0.1201  0.7790
 1657SOL     OW 6399   0.927   4.774   4.490  0.0613 -0.6470 -0.1902
 1657SOL    HW2 6400   0.914   4.768   4.395 -1.6234 -1.5082  0.0746
 1657SOL    HW3 6401   0.892   4.860   4.514  0.7900 -0.2858 -0.3593
 1657SOL    MW4 6402   0.921   4.784   4.481 -0.0649 -0.7130 -0.1776
 1658SOL     OW 6403   4.347   0.088   1.983  0.1207 -0.6512 -0.1029
 1658SOL    HW2 6404   4.372   0.023   1.917 -0.4781  0.7472 -1.7939
 1658SOL    HW3 6405   4.287   0.042   2.041 -1.1901 -1.3570 -1.9274
 1658SOL    MW4 6406   4.343   0.073   1.982 -0.1312 -0.5598 -0.5668
 1659SOL     OW 6407   4.751   4.656   3.348 -0.0931  0.0815  0.1112
 1659SOL    HW2 6408   4.658   4.664   3.330 -0.2840 -1.4704  0.2775
 1659SOL    HW3 6409   4.794   4.690   3.269 -0.7811  0.9625  0.1026
 1659SOL    MW4 6410   4.745   4.661   3.335 -0.2090 -0.0070  0.1320
 1660SOL     OW 6411   5.378   0.716   2.092  0.0275  0.3949  0.4555
 1660SOL    HW2 6412   5.442   0.785   2.081  0.1016  0.2574 -0.0019
 1660SOL    HW3 6413   5.421   0.637   2.060  0.3370 -0.0843  1.9635
 1660SOL    MW4 6414   5.392   0.715   2.087  0.0781  0.3136  0.5941
 1661SOL     OW 6415   6.031   4.281   1.690  0.1124 -0.1114 -0.1347
 1661SOL    HW2 6416   5.968   4.309   1.624  0.1256 -0.4739 -0.3001
 1661SOL    HW3 6417   6.102   4.346   1.684 -0.7475  0.9531  0.8198
 1661SOL    MW4 6418   6.032   4.294   1.681  0.0007 -0.0188 -0.0306
 1662SOL     OW 6419   6.185   3.106   4.392  0.7855 -0.1858 -0.2411
 1662SOL    HW2 6420   6.258   3.093   4.453  1.2612  1.3376 -0.4567
 1662SOL    HW3 6421   6.183   3.200   4.376 -1.9763  0.0059  0.6729
 1662SOL    MW4 6422   6.194   3.116   4.398  0.4838  0.0405 -0.1490
 1663SOL     OW 6423   2.992   4.388   2.130 -0.1667  0.0834  0.2928
 1663SOL    HW2 6424   3.001   4.384   2.226 -0.2421 -0.2073  0.2875
 1663SOL    HW3 6425   2.917   4.331   2.111  1.0998 -1.5249 -0.1298
 1663SOL    MW4 6426   2.983   4.380   2.140 -0.0095 -0.1671  0.2364
 1664SOL     OW 6427   1.813   0.811   2.972 -0.4152 -0.6132  0.1655
 1664SOL    HW2 6428   1.826   0.718   2.954 -0.3128 -0.4921 -0.4112
 1664SOL    HW3 6429   1.898   0.843   3.000 -0.4540 -0.6951  0.3782
 1664SOL    MW4 6430   1.826   0.803   2.974 -0.4068 -0.6080  0.1175
 1665SOL     OW 6431   1.139   5.952   3.591 -0.8735 -0.6729 -0.5391
 1665SOL    HW2 6432   1.233   5.958   3.575 -1.2724  1.6599 -2.3614
 1665SOL    HW3 6433   1.133   5.938   3.686  1.2749  1.0228 -0.0691
 1665SOL    MW4 6434   1.151   5.951   3.602 -0.6427 -0.1414 -0.7175
 1666SOL     OW 6435   6.412   1.758   4.835  0.5016  0.2318 -0.1207
 1666SOL    HW2 6436   6.340   1.811   4.870 -0.2904  0.8860 -2.5876
 1666SOL    HW3 6437   6.385   1.667   4.853  0.0475  0.5333  0.7624
 1666SOL    MW4 6438   6.399   1.753   4.842  0.3372  0.3579 -0.3296
 1667SOL     OW 6439   5.610   2.127   1.826 -0.1942 -0.1780 -0.8566
 1667SOL    HW2 6440   5.520   2.098   1.812 -0.3459  0.0874 -0.4527
 1667SOL    HW3 6441   5.606   2.222   1.819  0.3418 -0.2436 -2.4057
 1667SOL    MW4 6442   5.598   2.136   1.824 -0.1435 -0.1516 -1.0077
 1668SOL     OW 6443   6.412   0.112   6.047 -0.3222 -0.3982  0.1556
 1668SOL    HW2 6444   6.404   0.021   6.073  2.0912 -1.0225 -0.9203
 1668SOL    HW3 6445   6.503   0.120   6.017 -0.7423  2.1108 -0.7176
 1668SOL    MW4 6446   6.423   0.101   6.046 -0.0592 -0.1495 -0.1016
 1669SOL     OW 6447   5.662   6.024   4.136 -0.0943  0.3044  0.2719
 1669SOL    HW2 6448   5.587   6.045   4.191  0.1253  0.6352  0.4480
 1669SOL    HW3 6449   5.731   5.999   4.198  0.0788  0.4375  0.1325
 1669SOL    MW4 6450   5.661   6.023   4.151 -0.0424  0.3656  0.2768
 1670SOL     OW 6451   3.878   3.411   2.294 -0.2903 -0.6042 -0.1013
 1670SOL    HW2 6452   3.932   3.357   2.353 -2.4611 -3.5363 -0.5570
 1670SOL    HW3 6453   3.836   3.475   2.352 -0.1415 -1.5176  1.0644
 1670SOL    MW4 6454   3.880   3.412   2.310 -0.5571 -1.1115 -0.0076
 1671SOL     OW 6455   2.177   3.518   3.970  0.3875 -0.1461  0.6025
 1671SOL    HW2 6456   2.269   3.543   3.967  0.9618 -1.7614  2.5894
 1671SOL    HW3 6457   2.172   3.438   3.918  0.0775 -0.0496  0.4765
 1671SOL    MW4 6458   2.188   3.511   3.963  0.4224 -0.3465  0.8481
 1672SOL     OW 6459   1.996   5.456   4.623 -0.4780  0.5248 -0.0350
 1672SOL    HW2 6460   2.079   5.408   4.621 -0.7865 -0.0926  0.9580
 1672SOL    HW3 6461   2.019   5.544   4.652 -0.1536  0.3714  0.1724
 1672SOL    MW4 6462   2.010   5.461   4.626 -0.4759  0.4231  0.1234
 1673SOL     OW 6463   0.121   3.964   0.345 -0.1966  0.2796 -0.0835
 1673SOL    HW2 6464   0.078   3.880   0.350  1.0362 -0.3264  0.7505
 1673SOL    HW3 6465   0.065   4.024   0.394 -2.2727  0.5347 -2.5314
 1673SOL    MW4 6466   0.108   3.961   0.352 -0.3078  0.2333 -0.2965
 1674SOL     OW 6467   2.499   2.151   4.732 -0.2343 -0.2667  0.4076
 1674SOL    HW2 6468   2.535   2.062   4.737 -0.0795 -0.2455 -0.2853
 1674SOL    HW3 6469   2.471   2.170   4.822  0.7090 -0.6062  0.7913
 1674SOL    MW4 6470   2.500   2.142   4.745 -0.0894 -0.3087  0.3668
 1675SOL     OW 6471   5.419   4.221   4.884  0.3766  0.2992  0.1450
 1675SOL    HW2 6472   5.359   4.259   4.949 -0.7819  0.1107 -0.7877
 1675SOL    HW3 6473   5.499   4.273   4.893 -0.3480  1.3909  0.5716
 1675SOL    MW4 6474   5.421   4.233   4.894  0.1282  0.4184  0.0782
 1676SOL     OW 6475   4.308   0.556   1.557  0.0031  0.1463 -0.2887
 1676SOL    HW2 6476   4.327   0.496   1.629 -0.8160  0.9075  0.5657
 1676SOL    HW3 6477   4.393   0.593   1.534  0.3199 -0.3608  0.0401
 1676SOL    MW4 6478   4.322   0.553   1.563 -0.0631  0.1798 -0.1326
 1677SOL     OW 6479   3.969   4.884   4.362 -0.6897  0.6148 -0.0299
 1677SOL    HW2 6480   3.923   4.902   4.280  0.0236  1.2754 -0.2984
 1677SOL    HW3 6481   3.984   4.790   4.361 -0.7365  0.6090 -0.6307
 1677SOL    MW4 6482   3.965   4.874   4.351 -0.6018  0.7012 -0.1446
 1678SOL     OW 6483   6.041   2.879   3.291 -0.8518 -0.0606  0.2247
 1678SOL    HW2 6484   5.962   2.841   3.252 -1.4255 -0.1190  1.4299
 1678SOL    HW3 6485   6.018   2.969   3.311 -0.2049  0.2905 -0.5479
 1678SOL    MW4 6486   6.027   2.886   3.288 -0.8421 -0.0220  0.2818
 1679SOL     OW 6487   1.122   4.217   3.568  0.0957  0.0796  0.2564
 1679SOL    HW2 6488   1.116   4.124   3.550 -2.0419  0.4475 -1.2979
 1679SOL    HW3 6489   1.151   4.223   3.659  0.0357 -2.0726  0.4478
 1679SOL    MW4 6490   1.125   4.206   3.577 -0.1942 -0.1558  0.0766
 1680SOL     OW 6491   5.999   3.004   6.396 -0.2670 -0.2915  0.1288
 1680SOL    HW2 6492   5.960   3.058   6.465 -0.4936 -0.4482  0.1215
 1680SOL    HW3 6493   5.966   3.042   6.315 -1.3866 -1.1752  0.1509
 1680SOL    MW4 6494   5.990   3.016   6.395 -0.4447 -0.4288  0.1307
 1681SOL     OW 6495   1.360   0.921   0.807  0.1080 -0.3441 -0.0555
 1681SOL    HW2 6496   1.375   0.881   0.721  1.2828 -0.3589  0.1322
 1681SOL    HW3 6497   1.439   0.973   0.822 -0.5573  0.4996  0.5592
 1681SOL    MW4 6498   1.373   0.923   0.797  0.1752 -0.2347  0.0504
 1682SOL     OW 6499   2.540   3.953   1.882  0.9837  0.0952  0.3191
 1682SOL    HW2 6500   2.480   3.926   1.813 -0.7981 -1.4519  2.3575
 1682SOL    HW3 6501   2.530   4.049   1.886 -1.3428 -0.0831  0.4930
 1682SOL    MW4 6502   2.531   3.962   1.874  0.4417 -0.1325  0.6110
 1683SOL     OW 6503   2.206   5.504   5.763  0.1159  0.0893  0.3860
 1683SOL    HW2 6504   2.128   5.483   5.711  0.1474 -0.8103  0.6814
 1683SOL    HW3 6505   2.278   5.503   5.699 -0.1667  1.4245  0.0229
 1683SOL    MW4 6506   2.205   5.501   5.747  0.0828  0.1468  0.3771
 1684SOL     OW 6507   4.473   2.618   5.210 -0.2733 -0.0469  0.4985
 1684SOL    HW2 6508   4.488   2.541   5.266 -0.1975 -0.3509  0.0625
 1684SOL    HW3 6509   4.554   2.668   5.216 -0.8378  0.7738  1.9641
 1684SOL    MW4 6510   4.485   2.614   5.218 -0.3378  0.0212  0.6343
 1685SOL     OW 6511   3.461   6.136   4.115 -0.6124 -0.3624  0.7390
 1685SOL    HW2 6512   3.533   6.133   4.177 -0.2461  0.8916  0.4175
 1685SOL    HW3 6513   3.398   6.197   4.154 -1.1707 -0.8795  0.6725
 1685SOL    MW4 6514   3.462   6.144   4.128 -0.6377 -0.2652  0.6878
 1686SOL     OW 6515   1.492   5.765   1.106 -0.0339  0.2930  0.2370
 1686SOL    HW2 6516   1.512   5.693   1.166  0.2380  2.5402  3.0574
 1686SOL    HW3 6517   1.553   5.753   1.033  1.4052 -1.2121  1.5991
 1686SOL    MW4 6518   1.503   5.754   1.104  0.1918  0.3909  0.7889
 1687SOL     OW 6519   2.715   5.397   5.319 -1.1694  0.2258 -0.4605
 1687SOL    HW2 6520   2.794   5.452   5.312 -1.2747  0.2523 -1.5256
 1687SOL    HW3 6521   2.646   5.449   5.278 -1.3822 -0.4994 -1.0339
 1687SOL    MW4 6522   2.716   5.411   5.313 -1.2114  0.1336 -0.6767
 1688SOL     OW 6523   3.081   3.643   5.492  0.2720 -0.2205  0.2212
 1688SOL    HW2 6524   3.069   3.735   5.514 -0.3908 -0.3613  0.4785
 1688SOL    HW3 6525   3.008   3.598   5.536 -0.1280 -0.7154 -0.9068
 1688SOL    MW4 6526   3.070   3.649   5.501  0.1318 -0.3044  0.1063
 1689SOL     OW 6527   6.012   2.759   2.534  0.0185 -0.9331  0.0709
 1689SOL    HW2 6528   6.006   2.690   2.469 -1.3225 -0.9186  0.1530
 1689SOL    HW3 6529   5.923   2.794   2.541  0.8443  1.5719 -0.7799
 1689SOL    MW4 6530   6.000   2.755   2.527 -0.0495 -0.6007 -0.0305
 1690SOL     OW 6531   1.418   6.034   4.717  0.0006 -0.0914 -0.5248
 1690SOL    HW2 6532   1.484   6.025   4.785  1.3392  1.8155 -1.4607
 1690SOL    HW3 6533   1.439   5.965   4.654  0.9472  0.3043 -0.6615
 1690SOL    MW4 6534   1.429   6.024   4.717  0.3021  0.2124 -0.6663
 1691SOL     OW 6535   3.683   2.636   1.779  0.2729  0.5203  0.4529
 1691SOL    HW2 6536   3.599   2.623   1.736 -0.2296  2.4619  0.7353
 1691SOL    HW3 6537   3.686   2.571   1.849  0.0402 -1.0665 -0.9511
 1691SOL    MW4 6538   3.673   2.626   1.782  0.1759  0.5671  0.3049
 1692SOL     OW 6539   2.901   5.072   1.538  0.2429  0.4058 -0.3250
 1692SOL    HW2 6540   2.857   5.156   1.524 -3.5129 -1.4161 -0.7237
 1692SOL    HW3 6541   2.944   5.054   1.455 -0.0240  1.3662 -0.6891
 1692SOL    MW4 6542   2.901   5.081   1.526 -0.2878  0.2921 -0.4257
 1693SOL     OW 6543   5.902   5.551   5.171  0.0074  0.4695 -0.2148
 1693SOL    HW2 6544   5.917   5.560   5.265 -0.3004  0.4423 -0.1620
 1693SOL    HW3 6545   5.950   5.623   5.132  0.9848 -0.1137 -0.1145
 1693SOL    MW4 6546   5.910   5.562   5.178  0.0958  0.3889 -0.1946
 1694SOL     OW 6547   6.017   5.812   1.196  0.4830  0.0909  0.3606
 1694SOL    HW2 6548   6.009   5.716   1.192  0.9952 -0.0826  2.2342
 1694SOL    HW3 6549   5.927   5.843   1.206  0.2844 -0.1594 -0.5725
 1694SOL    MW4 6550   6.004   5.803   1.197  0.5244  0.0350  0.4847
 1695SOL     OW 6551   1.527   6.365   4.630  0.3847 -0.1130 -0.0841
 1695SOL    HW2 6552   1.589   6.357   4.703  0.4755 -0.3190 -0.1843
 1695SOL    HW3 6553   1.546   6.450   4.591 -0.7868  0.7665  1.1682
 1695SOL    MW4 6554   1.537   6.375   4.634  0.2421 -0.0241  0.0679
 1696SOL     OW 6555   5.715   2.968   4.867 -0.1633 -0.2850 -0.3201
 1696SOL    HW2 6556   5.647   3.010   4.815  1.1164  2.7339  0.1990
 1696SOL    HW3 6557   5.792   3.023   4.853  0.9752 -1.0203  2.4620
 1696SOL    MW4 6558   5.716   2.981   4.859  0.1557  0.0163  0.1155
 1697SOL     OW 6559   6.400   6.049   2.044  0.2107  0.1141 -0.4237
 1697SOL    HW2 6560   6.360   5.968   2.077  1.2955 -0.5038 -0.6056
 1697SOL    HW3 6561   6.357   6.065   1.960  1.8299 -1.7506 -1.6775
 1697SOL    MW4 6562   6.389   6.041   2.038  0.5674 -0.2135 -0.6131
 1698SOL     OW 6563   4.609   5.617   1.167 -0.4962 -0.0078  0.1757
 1698SOL    HW2 6564   4.607   5.545   1.231 -0.0433  0.4126  0.6755
 1698SOL    HW3 6565   4.624   5.695   1.220  0.2157  0.3125 -0.4748
 1698SOL    MW4 6566   4.611   5.618   1.183 -0.3425  0.0899  0.1558
 1699SOL     OW 6567   1.945   2.648   3.459  0.0620 -0.2250  0.1967
 1699SOL    HW2 6568   2.001   2.600   3.521 -0.7799 -0.0732  1.1030
 1699SOL    HW3 6569   1.911   2.722   3.510 -1.7976 -0.8996  0.0147
 1699SOL    MW4 6570   1.948   2.651   3.474 -0.2945 -0.2940  0.2923
 1700SOL     OW 6571   3.738   0.800   5.110 -0.2957 -0.2202 -0.2621
 1700SOL    HW2 6572   3.677   0.781   5.039 -1.0455 -0.7722  0.5008
 1700SOL    HW3 6573   3.791   0.720   5.118  0.4251  0.1967 -0.8162
 1700SOL    MW4 6574   3.737   0.787   5.102 -0.2995 -0.2380 -0.2345
 1701SOL     OW 6575   0.073   1.891   0.909 -0.0706  0.1059  0.1078
 1701SOL    HW2 6576   0.100   1.920   0.995 -0.0857 -0.1709  0.2080
 1701SOL    HW3 6577   0.053   1.798   0.920 -1.2375  0.3313  0.0857
 1701SOL    MW4 6578   0.074   1.882   0.922 -0.2266  0.0992  0.1181
 1702SOL     OW 6579   3.131   3.344   5.197  0.6541  0.0678  1.0124
 1702SOL    HW2 6580   3.128   3.318   5.105 -0.1074  0.3157  0.9611
 1702SOL    HW3 6581   3.224   3.349   5.217  0.8472  0.8294  0.0212
 1702SOL    MW4 6582   3.143   3.342   5.187  0.5791  0.2010  0.8748
 1703SOL     OW 6583   0.623   1.497   2.095  0.2813 -0.3108 -0.0654
 1703SOL    HW2 6584   0.700   1.443   2.076  0.6716  0.3951 -0.5332
 1703SOL    HW3 6585   0.590   1.464   2.179  0.5036 -1.2748 -0.3490
 1703SOL    MW4 6586   0.629   1.485   2.104  0.3621 -0.3449 -0.1646
 1704SOL     OW 6587   1.495   0.443   5.072  0.1159 -0.1729 -0.0741
 1704SOL    HW2 6588   1.503   0.390   5.152 -0.7621  0.3608  0.3789
 1704SOL    HW3 6589   1.486   0.379   5.002  1.6701 -0.6794  0.1306
 1704SOL    MW4 6590   1.495   0.427   5.073  0.2051 -0.1693  0.0127
 1705SOL     OW 6591   5.046   3.719   1.559  0.3015  0.0076  0.1231
 1705SOL    HW2 6592   5.083   3.632   1.572 -1.0773 -0.6048  0.1084
 1705SOL    HW3 6593   5.100   3.776   1.614  1.0437 -0.8909  0.3603
 1705SOL    MW4 6594   5.058   3.715   1.568  0.2175 -0.1918  0.1525
 1706SOL     OW 6595   5.781   1.135   5.353 -0.6426 -0.4351 -0.0439
 1706SOL    HW2 6596   5.797   1.165   5.442  0.3603 -0.3801 -0.2318
 1706SOL    HW3 6597   5.815   1.205   5.297 -2.2320  0.0212 -0.4830
 1706SOL    MW4 6598   5.788   1.148   5.357 -0.7200 -0.3676 -0.1266
 1707SOL     OW 6599   4.452   1.611   0.951  0.0685 -0.1441  0.2964
 1707SOL    HW2 6600   4.365   1.613   0.992 -0.2745  0.3204 -0.4357
 1707SOL    HW3 6601   4.460   1.696   0.908  0.5451 -0.5153 -0.3552
 1707SOL    MW4 6602   4.442   1.622   0.951  0.0862 -0.1318  0.1138
 1708SOL     OW 6603   0.507   4.120   5.893 -0.1630  0.1353 -0.2828
 1708SOL    HW2 6604   0.456   4.110   5.974  0.2413  1.4917  0.1668
 1708SOL    HW3 6605   0.594   4.089   5.916 -0.8400 -2.7435 -1.2190
 1708SOL    MW4 6606   0.512   4.114   5.907 -0.1990 -0.0656 -0.3470
 1709SOL     OW 6607   5.876   4.728   2.778  0.2575 -0.4480 -0.2151
 1709SOL    HW2 6608   5.858   4.821   2.770  4.2560  0.6318  1.0400
 1709SOL    HW3 6609   5.894   4.699   2.688  1.6721  0.7423 -0.3508
 1709SOL    MW4 6610   5.876   4.736   2.765  0.9717 -0.1485 -0.0674
 1710SOL     OW 6611   4.474   0.540   2.259 -0.1928 -0.1472  0.4066
 1710SOL    HW2 6612   4.539   0.513   2.324  0.0820  1.8777  1.0324
 1710SOL    HW3 6613   4.435   0.457   2.229  0.7390 -1.2314  2.0097
 1710SOL    MW4 6614   4.478   0.525   2.264 -0.0336 -0.0231  0.7007
 1711SOL     OW 6615   0.246   0.692   4.144  0.5865 -0.0600  0.7770
 1711SOL    HW2 6616   0.320   0.658   4.094 -0.8434 -0.9542 -0.8651
 1711SOL    HW3 6617   0.232   0.628   4.214  0.0458 -1.0557 -0.2235
 1711SOL    MW4 6618   0.254   0.679   4.147  0.3265 -0.3093  0.4283
 1712SOL     OW 6619   5.709   3.305   3.441  0.2308 -0.0718  0.0951
 1712SOL    HW2 6620   5.717   3.219   3.482  1.6944 -1.6109 -3.0555
 1712SOL    HW3 6621   5.620   3.307   3.406  0.4103 -0.5893 -0.3939
 1712SOL    MW4 6622   5.698   3.294   3.442  0.4476 -0.3432 -0.3851
 1713SOL     OW 6623   2.233   0.540   5.283  0.4145 -0.2501  0.1808
 1713SOL    HW2 6624   2.233   0.447   5.305  0.5295 -1.0505 -2.8228
 1713SOL    HW3 6625   2.325   0.561   5.266  0.1148 -0.2659 -1.5719
 1713SOL    MW4 6626   2.245   0.530   5.284  0.3902 -0.3578 -0.4468
 1714SOL     OW 6627   3.887   5.766   2.420 -0.2438  0.5337  0.6838
 1714SOL    HW2 6628   3.836   5.689   2.445 -0.0765  0.7508  1.7151
 1714SOL    HW3 6629   3.880   5.769   2.324  0.6653 -1.4092  0.5171
 1714SOL    MW4 6630   3.879   5.756   2.410 -0.1018  0.3060  0.7979
 1715SOL     OW 6631   2.408   4.437   6.114 -0.2997  0.2529 -0.2430
 1715SOL    HW2 6632   2.468   4.401   6.180  0.3406 -0.4518 -1.1762
 1715SOL    HW3 6633   2.417   4.378   6.039 -1.0750  0.9858 -0.9317
 1715SOL    MW4 6634   2.417   4.424   6.113 -0.3175  0.2566 -0.4570
 1716SOL     OW 6635   2.105   1.107   1.324  0.2666 -0.4419 -0.8711
 1716SOL    HW2 6636   2.012   1.131   1.318  0.5536  0.5417 -1.6924
 1716SOL    HW3 6637   2.132   1.097   1.233  1.5553  1.7648 -0.8110
 1716SOL    MW4 6638   2.096   1.109   1.312  0.4745 -0.0210 -0.9715
 1717SOL     OW 6639   1.216   1.375   1.034  0.3025 -0.3867 -0.5354
 1717SOL    HW2 6640   1.133   1.415   1.008  0.9242 -0.7541 -3.5423
 1717SOL    HW3 6641   1.200   1.281   1.028  0.6460 -0.4709 -0.1404
 1717SOL    MW4 6642   1.203   1.368   1.030  0.4298 -0.4463 -0.8800
 1718SOL     OW 6643   1.188   5.981   4.350 -0.9551 -0.1927 -0.2370
 1718SOL    HW2 6644   1.147   6.030   4.421  0.3506 -1.1932  1.2837
 1718SOL    HW3 6645   1.219   5.900   4.392  2.3259  0.3741 -1.2632
 1718SOL    MW4 6646   1.187   5.977   4.365 -0.3499 -0.2499 -0.1718
 1719SOL     OW 6647   5.737   4.108   0.800 -0.1527  0.2677  0.7336
 1719SOL    HW2 6648   5.759   4.051   0.726 -2.6083 -1.4606  1.1974
 1719SOL    HW3 6649   5.802   4.087   0.867  0.8718  0.3514 -0.2199
 1719SOL    MW4 6650   5.748   4.098   0.799 -0.3415  0.0507  0.6690
 1720SOL     OW 6651   1.566   3.031   1.544  0.3032  0.0329 -0.1120
 1720SOL    HW2 6652   1.607   3.000   1.464  0.4591  0.0338 -0.0334
 1720SOL    HW3 6653   1.547   3.124   1.528  1.4170  0.3439  0.2768
 1720SOL    MW4 6654   1.569   3.040   1.532  0.4707  0.0740 -0.0503
 1721SOL     OW 6655   3.131   2.847   0.995  0.3152  0.6179  0.2764
 1721SOL    HW2 6656   3.208   2.842   1.052 -0.5302 -0.4839  1.3585
 1721SOL    HW3 6657   3.070   2.904   1.042 -0.0803  0.3474  0.0944
 1721SOL    MW4 6658   3.133   2.854   1.009  0.1515  0.4369  0.3952
 1722SOL     OW 6659   1.170   4.384   0.651 -0.3934 -0.1054 -0.0895
 1722SOL    HW2 6660   1.192   4.310   0.707 -0.3669  1.0153  1.4399
 1722SOL    HW3 6661   1.171   4.348   0.562  2.6654 -1.2704  0.3023
 1722SOL    MW4 6662   1.173   4.369   0.646  0.0137 -0.1112  0.1640
 1723SOL     OW 6663   4.875   1.226   0.777  0.0576 -0.4732  0.1782
 1723SOL    HW2 6664   4.904   1.307   0.734  0.5178 -0.9312 -0.3821
 1723SOL    HW3 6665   4.789   1.209   0.739 -0.3841  0.1675  0.8675
 1723SOL    MW4 6666   4.867   1.235   0.766  0.0600 -0.4491  0.1952
 1724SOL     OW 6667   4.829   3.751   0.810 -0.0463 -0.9340  0.2942
 1724SOL    HW2 6668   4.779   3.709   0.880 -0.6641 -0.7359 -0.0249
 1724SOL    HW3 6669   4.816   3.845   0.824  1.0634 -0.8466  0.8082
 1724SOL    MW4 6670   4.821   3.758   0.821  0.0186 -0.8964  0.3199
 1725SOL     OW 6671   0.942   3.635   4.552  0.3966  0.3424 -0.1998
 1725SOL    HW2 6672   0.934   3.615   4.645  0.8872  0.2260 -0.1801
 1725SOL    HW3 6673   0.984   3.558   4.514  1.1219  0.7965 -0.3411
 1725SOL    MW4 6674   0.947   3.622   4.559  0.5570  0.3869 -0.2158
 1726SOL     OW 6675   5.566   3.312   2.268 -0.4646  0.6902  0.3107
 1726SOL    HW2 6676   5.634   3.371   2.237  0.6097 -0.6360  0.0427
 1726SOL    HW3 6677   5.540   3.348   2.353 -0.1442  1.7683 -0.0300
 1726SOL    MW4 6678   5.572   3.324   2.276 -0.2806  0.6575  0.2304
 1727SOL     OW 6679   3.913   2.055   2.953  0.5858 -0.2119  0.1591
 1727SOL    HW2 6680   3.958   2.109   2.887  0.0596 -0.9403 -0.8105
 1727SOL    HW3 6681   3.858   2.117   3.001  1.0893  0.3506  0.0231
 1727SOL    MW4 6682   3.912   2.070   2.951  0.5828 -0.2338  0.0132
 1728SOL     OW 6683   4.321   5.966   4.124 -0.3059  0.2928 -0.1835
 1728SOL    HW2 6684   4.346   6.048   4.167  0.0769  0.3242 -0.4610
 1728SOL    HW3 6685   4.240   5.988   4.077  0.9134  1.1303 -2.0274
 1728SOL    MW4 6686   4.313   5.980   4.124 -0.0945  0.4074 -0.4634
 1729SOL     OW 6687   5.866   5.788   6.247 -0.3926 -0.0292  0.4677
 1729SOL    HW2 6688   5.845   5.881   6.237  0.4498 -0.0299 -1.6716
 1729SOL    HW3 6689   5.927   5.786   6.321 -0.3607  1.1375  0.5008
 1729SOL    MW4 6690   5.872   5.800   6.256 -0.2773  0.1246  0.1899
 1730SOL     OW 6691   2.611   2.940   1.215 -0.0673 -0.3326 -0.7697
 1730SOL    HW2 6692   2.561   3.018   1.192  0.1122 -0.7443 -2.7751
 1730SOL    HW3 6693   2.546   2.874   1.238 -0.1814  0.7527  2.4041
 1730SOL    MW4 6694   2.596   2.941   1.215 -0.0587 -0.2437 -0.6156
 1731SOL     OW 6695   1.699   1.023   3.864  0.4462  0.1061  0.2289
 1731SOL    HW2 6696   1.780   1.068   3.887  0.8835 -0.7182  0.3620
 1731SOL    HW3 6697   1.659   1.077   3.796 -0.0725  1.7537  1.7620
 1731SOL    MW4 6698   1.704   1.036   3.858  0.4354  0.2147  0.4487
 1732SOL     OW 6699   1.148   6.262   2.245 -0.6333 -0.3476  0.5799
 1732SOL    HW2 6700   1.155   6.357   2.232 -0.4320 -0.2814  1.1793
 1732SOL    HW3 6701   1.168   6.226   2.159 -0.1479  0.1316  0.4853
 1732SOL    MW4 6702   1.151   6.270   2.232 -0.5427 -0.2756  0.6465
 1733SOL     OW 6703   2.627   1.565   1.461 -0.0517 -0.2751  0.1587
 1733SOL    HW2 6704   2.669   1.479   1.468  0.8272 -0.0930 -1.8788
 1733SOL    HW3 6705   2.689   1.617   1.409  0.2876  2.2070  2.8275
 1733SOL    MW4 6706   2.641   1.561   1.455  0.1090  0.0764  0.2420
 1734SOL     OW 6707   6.121   5.059   1.808  0.3884 -0.0288 -0.1224
 1734SOL    HW2 6708   6.183   5.132   1.816 -0.0403  0.3190  0.0919
 1734SOL    HW3 6709   6.073   5.059   1.890  0.4674 -0.6383 -0.0736
 1734SOL    MW4 6710   6.123   5.069   1.820  0.3423 -0.0633 -0.0877
 1735SOL     OW 6711   6.153   0.643   3.496 -0.6606  0.2670  0.1882
 1735SOL    HW2 6712   6.160   0.627   3.590  2.4935  0.7416  0.1447
 1735SOL    HW3 6713   6.148   0.556   3.456  0.2070 -0.0228  0.6992
 1735SOL    MW4 6714   6.153   0.630   3.503 -0.1300  0.2914  0.2499
 1736SOL     OW 6715   0.431   2.231   4.881  0.1208 -0.2130  0.0100
 1736SOL    HW2 6716   0.479   2.150   4.895  0.3778 -0.3429 -1.5349
 1736SOL    HW3 6717   0.470   2.293   4.942  0.7113 -0.9253  0.3671
 1736SOL    MW4 6718   0.442   2.229   4.891  0.2326 -0.3241 -0.1467
 1737SOL     OW 6719   3.103   5.158   3.304 -0.2474 -0.0858 -0.1190
 1737SOL    HW2 6720   3.120   5.252   3.294 -1.3764  0.1970  0.4448
 1737SOL    HW3 6721   3.134   5.119   3.223 -0.0886  0.8276 -0.5041
 1737SOL    MW4 6722   3.109   5.166   3.292 -0.3754  0.0720 -0.0954
 1738SOL     OW 6723   3.916   3.924   3.661 -0.9969 -0.3347 -0.0249
 1738SOL    HW2 6724   3.919   4.008   3.706 -0.6314 -0.2509 -0.1985
 1738SOL    HW3 6725   3.829   3.920   3.622 -1.5072 -0.6343  1.1013
 1738SOL    MW4 6726   3.905   3.934   3.662 -1.0160 -0.3632  0.1008
 1739SOL     OW 6727   5.420   5.805   4.800 -0.5924 -0.2343  0.0002
 1739SOL    HW2 6728   5.349   5.868   4.789  0.6080  1.0797 -0.5550
 1739SOL    HW3 6729   5.397   5.757   4.879 -1.2810  1.2879  0.7802
 1739SOL    MW4 6730   5.407   5.807   4.809 -0.5248  0.1399  0.0299
 1740SOL     OW 6731   2.717   3.377   1.258  0.1010 -0.0236  0.5378
 1740SOL    HW2 6732   2.758   3.397   1.174 -2.7966  1.1381 -0.7365
 1740SOL    HW3 6733   2.705   3.462   1.300  0.9569 -0.5398  1.8855
 1740SOL    MW4 6734   2.721   3.391   1.252 -0.1684  0.0616  0.5475
 1741SOL     OW 6735   3.483   3.711   3.061  0.6264 -0.8094  0.3090
 1741SOL    HW2 6736   3.527   3.780   3.110 -0.9426  0.1288  0.4518
 1741SOL    HW3 6737   3.458   3.647   3.127  2.3630 -1.7382  0.1396
 1741SOL    MW4 6738   3.486   3.711   3.076  0.6485 -0.8082  0.3055
 1742SOL     OW 6739   4.550   2.990   0.136  0.2655  0.9042 -0.2201
 1742SOL    HW2 6740   4.610   2.944   0.076  0.0457  0.6973 -0.2865
 1742SOL    HW3 6741   4.554   2.940   0.217  1.0660  1.5679  0.1653
 1742SOL    MW4 6742   4.559   2.977   0.138  0.3421  0.9645 -0.1780
 1743SOL     OW 6743   1.264   1.698   4.328 -0.0485  0.1873  0.2416
 1743SOL    HW2 6744   1.223   1.766   4.275 -0.2382 -0.1717 -0.0798
 1743SOL    HW3 6745   1.193   1.662   4.381 -0.0319 -0.0338  0.1155
 1743SOL    MW4 6746   1.249   1.702   4.328 -0.0713  0.1108  0.1825
 1744SOL     OW 6747   0.152   0.754   5.022 -0.2496 -0.0637  0.2538
 1744SOL    HW2 6748   0.158   0.836   4.974 -0.5588 -0.0937  0.1624
 1744SOL    HW3 6749   0.208   0.694   4.973  0.8767  0.3886  0.9578
 1744SOL    MW4 6750   0.160   0.757   5.009 -0.1418 -0.0080  0.3346
 1745SOL     OW 6751   2.566   6.165   5.709  0.1207 -0.1430  0.1589
 1745SOL    HW2 6752   2.587   6.176   5.801  0.9677  2.8032 -0.2756
 1745SOL    HW3 6753   2.643   6.123   5.671  0.0410 -0.7474  0.6524
 1745SOL    MW4 6754   2.579   6.161   5.716  0.2219  0.1659  0.1667
 1746SOL     OW 6755   3.940   0.423   5.353  0.2971 -0.0876 -0.4419
 1746SOL    HW2 6756   3.983   0.451   5.434 -1.8927 -1.0456  1.1614
 1746SOL    HW3 6757   4.004   0.364   5.312  0.5465 -1.6511  1.9461
 1746SOL    MW4 6758   3.954   0.419   5.358  0.0411 -0.4203  0.0847
 1747SOL     OW 6759   2.172   2.824   4.063  0.0837  0.0180  0.1322
 1747SOL    HW2 6760   2.250   2.880   4.061  0.0978  0.0386  0.8565
 1747SOL    HW3 6761   2.112   2.869   4.123 -0.9114  0.5398 -1.2090
 1747SOL    MW4 6762   2.174   2.837   4.071 -0.0457  0.0895  0.0508
 1748SOL     OW 6763   5.386   6.003   0.611  0.4631  0.2406 -0.4059
 1748SOL    HW2 6764   5.390   6.047   0.527 -1.2183 -0.1022 -0.7117
 1748SOL    HW3 6765   5.315   6.047   0.658 -0.6207 -1.4576 -0.3582
 1748SOL    MW4 6766   5.377   6.014   0.606  0.0983 -0.0287 -0.4399
 1749SOL     OW 6767   4.321   3.730   3.792  0.6866  0.2159  0.4462
 1749SOL    HW2 6768   4.367   3.646   3.788  1.1221  0.4921 -2.7201
 1749SOL    HW3 6769   4.231   3.709   3.766  0.1745  0.4053  1.9952
 1749SOL    MW4 6770   4.316   3.716   3.788  0.6765  0.2774  0.2328
 1750SOL     OW 6771   5.225   0.987   2.200  0.0083  0.2961  0.2646
 1750SOL    HW2 6772   5.210   1.062   2.142 -0.3201 -0.3474 -0.4974
 1750SOL    HW3 6773   5.270   0.923   2.145 -1.0426 -0.6507  0.4772
 1750SOL    MW4 6774   5.229   0.988   2.185 -0.1737  0.0863  0.1921
 1751SOL     OW 6775   5.455   3.086   4.758 -0.2895  0.3926  0.2587
 1751SOL    HW2 6776   5.369   3.056   4.786  0.1722  0.4019  1.7926
 1751SOL    HW3 6777   5.449   3.182   4.760 -0.0024  0.4077  1.2789
 1751SOL    MW4 6778   5.443   3.095   4.762 -0.1907  0.3958  0.5957
 1752SOL     OW 6779   3.230   1.007   0.878  0.2774  0.4794 -0.6473
 1752SOL    HW2 6780   3.254   1.070   0.811  0.3666  0.1090 -0.9678
 1752SOL    HW3 6781   3.309   0.954   0.891  0.5426  1.0958  0.3764
 1752SOL    MW4 6782   3.243   1.008   0.871  0.3242  0.5119 -0.5545
 1753SOL     OW 6783   4.433   1.383   4.353  0.3859  0.4359 -0.1501
 1753SOL    HW2 6784   4.524   1.357   4.370  0.3056 -0.4998 -1.0736
 1753SOL    HW3 6785   4.384   1.301   4.353 -0.7170  1.0288  1.6180
 1753SOL    MW4 6786   4.439   1.369   4.355  0.2298  0.3906 -0.0387
 1754SOL     OW 6787   3.024   3.268   3.774 -0.2120 -0.1220  0.3263
 1754SOL    HW2 6788   2.993   3.212   3.703 -0.1282 -1.0549  1.0163
 1754SOL    HW3 6789   2.953   3.332   3.786 -0.6384 -0.5340  0.0373
 1754SOL    MW4 6790   3.010   3.269   3.766 -0.2572 -0.2994  0.3792
 1755SOL     OW 6791   1.440   4.132   5.130 -0.0110 -0.0695 -0.1818
 1755SOL    HW2 6792   1.490   4.052   5.113 -2.3398 -1.4784 -1.0759
 1755SOL    HW3 6793   1.485   4.200   5.081  1.3363 -1.1181 -0.4546
 1755SOL    MW4 6794   1.452   4.130   5.121 -0.1405 -0.3937 -0.3357
 1756SOL     OW 6795   6.266   1.922   3.934 -0.6407 -0.2588  0.2834
 1756SOL    HW2 6796   6.243   1.948   4.023  0.3866  2.1982 -0.0994
 1756SOL    HW3 6797   6.205   1.851   3.914 -1.7917  0.0197  2.4390
 1756SOL    MW4 6798   6.255   1.916   3.943 -0.6570  0.1021  0.5173
 1757SOL     OW 6799   6.222   1.685   0.917  0.5145  0.1396 -0.1046
 1757SOL    HW2 6800   6.195   1.768   0.878 -1.4592 -0.9229 -1.1490
 1757SOL    HW3 6801   6.205   1.696   1.011  0.3960  0.9384 -0.2110
 1757SOL    MW4 6802   6.217   1.698   0.925  0.2384  0.1048 -0.2564
 1758SOL     OW 6803   3.639   0.529   4.311  0.0415 -0.7586 -0.1441
 1758SOL    HW2 6804   3.711   0.480   4.271 -0.7738 -1.3158 -0.9691
 1758SOL    HW3 6805   3.560   0.486   4.279 -0.7010  0.8736 -0.5935
 1758SOL    MW4 6806   3.638   0.517   4.302 -0.1640 -0.6168 -0.3122
 1759SOL     OW 6807   3.042   1.141   1.554  0.5769  0.5621  0.2808
 1759SOL    HW2 6808   3.132   1.111   1.538  0.3716  0.9396 -1.9469
 1759SOL    HW3 6809   2.989   1.091   1.493 -0.9670 -0.5644  2.4348
 1759SOL    MW4 6810   3.047   1.131   1.544  0.3461  0.4633  0.2711
 1760SOL     OW 6811   4.924   1.310   2.109  0.3869 -0.0161  0.3380
 1760SOL    HW2 6812   4.915   1.398   2.072 -0.1544  0.7751  2.2011
 1760SOL    HW3 6813   4.976   1.262   2.045  0.8405  1.7064 -0.6574
 1760SOL    MW4 6814   4.930   1.315   2.096  0.3753  0.3156  0.4525
 1761SOL     OW 6815   5.081   0.787   6.243 -0.0971 -0.0185 -0.2393
 1761SOL    HW2 6816   5.135   0.852   6.288  1.0495 -0.3706 -1.0898
 1761SOL    HW3 6817   5.123   0.774   6.158 -1.5729 -0.2306 -0.9694
 1761SOL    MW4 6818   5.093   0.794   6.238 -0.1405 -0.0929 -0.4478
 1762SOL     OW 6819   1.163   4.773   0.643  0.0390  0.3937  0.0171
 1762SOL    HW2 6820   1.152   4.729   0.727  0.4812 -0.6001 -0.4370
 1762SOL    HW3 6821   1.210   4.854   0.665  0.0037  0.2233  0.7445
 1762SOL    MW4 6822   1.168   4.778   0.657  0.0927  0.2401  0.0532
 1763SOL     OW 6823   5.086   2.921   3.568 -0.0339 -0.7395  0.0767
 1763SOL    HW2 6824   5.066   2.906   3.475 -1.7500  0.3133  0.2267
 1763SOL    HW3 6825   5.038   3.000   3.590  1.0177 -0.5051  1.6845
 1763SOL    MW4 6826   5.077   2.929   3.559 -0.1216 -0.5697  0.3086
 1764SOL     OW 6827   4.223   6.272   2.916 -0.1128  0.2488  0.3811
 1764SOL    HW2 6828   4.216   6.312   3.002  0.0964 -1.4769  1.2578
 1764SOL    HW3 6829   4.170   6.192   2.923  2.0120 -1.2805 -0.2052
 1764SOL    MW4 6830   4.215   6.266   2.928  0.1952 -0.1806  0.4194
 1765SOL     OW 6831   3.628   0.191   2.912 -0.2393  0.2461 -0.7184
 1765SOL    HW2 6832   3.585   0.268   2.949 -1.0490 -0.7815  0.6171
 1765SOL    HW3 6833   3.630   0.128   2.985  0.8208 -0.8205 -1.6283
 1765SOL    MW4 6834   3.622   0.193   2.927 -0.2063 -0.0302 -0.6623
 1766SOL     OW 6835   6.185   1.792   5.164  0.4910 -0.3542  0.6896
 1766SOL    HW2 6836   6.201   1.700   5.188 -0.0259 -0.4825  0.5644
 1766SOL    HW3 6837   6.262   1.839   5.196  1.0075 -0.9069  0.2983
 1766SOL    MW4 6838   6.197   1.786   5.171  0.4910 -0.4440  0.6215
 1767SOL     OW 6839   3.932   1.572   6.362  0.1021  0.6854  0.5902
 1767SOL    HW2 6840   3.844   1.567   6.397  0.2076  0.6635  0.8569
 1767SOL    HW3 6841   3.930   1.648   6.304 -0.4678 -0.1428 -0.5154
 1767SOL    MW4 6842   3.920   1.582   6.359  0.0408  0.5733  0.4795
 1768SOL     OW 6843   1.438   5.728   2.666  0.0408  0.2866  0.4918
 1768SOL    HW2 6844   1.356   5.703   2.624  0.1826  0.7756 -0.0903
 1768SOL    HW3 6845   1.412   5.766   2.750 -0.2884 -0.0843  0.5595
 1768SOL    MW4 6846   1.424   5.729   2.671  0.0161  0.3022  0.4239
 1769SOL     OW 6847   5.469   2.444   6.020  0.5553 -0.0696 -0.4192
 1769SOL    HW2 6848   5.469   2.522   6.075 -0.8041 -0.8439  0.7218
 1769SOL    HW3 6849   5.525   2.382   6.066  2.0609  0.3565 -1.5861
 1769SOL    MW4 6850   5.476   2.446   6.033  0.5745 -0.1156 -0.4226
 1770SOL     OW 6851   0.479   5.533   2.184 -0.3915 -0.0043 -0.3348
 1770SOL    HW2 6852   0.443   5.621   2.170 -1.1965 -0.5631 -2.1073
 1770SOL    HW3 6853   0.410   5.487   2.232 -0.7122 -0.1660 -0.9469
 1770SOL    MW4 6854   0.465   5.539   2.189 -0.5401 -0.0994 -0.6494
 1771SOL     OW 6855   2.021   2.433   6.278  0.1121 -0.1196 -0.2626
 1771SOL    HW2 6856   2.063   2.508   6.319 -0.2125 -0.0216 -0.1042
 1771SOL    HW3 6857   2.093   2.378   6.249  0.4050 -1.1515  2.1574
 1771SOL    MW4 6858   2.036   2.436   6.280  0.1079 -0.2428  0.0776
 1772SOL     OW 6859   6.344   2.363   3.559 -0.8393 -0.2632  0.3462
 1772SOL    HW2 6860   6.311   2.298   3.621  0.6130 -1.9572 -0.5496
 1772SOL    HW3 6861   6.424   2.397   3.600 -0.9906  0.1260  0.3160
 1772SOL    MW4 6862   6.350   2.359   3.573 -0.6677 -0.4353  0.2240
 1773SOL     OW 6863   5.215   4.089   3.379  0.2058 -0.2156 -0.1056
 1773SOL    HW2 6864   5.128   4.125   3.397 -0.3544 -0.5726 -1.8717
 1773SOL    HW3 6865   5.216   4.076   3.284  1.9540 -0.8538 -0.0354
 1773SOL    MW4 6866   5.204   4.092   3.369  0.3625 -0.3469 -0.3294
 1774SOL     OW 6867   1.870   4.979   0.263 -0.3539 -0.0504  0.3867
 1774SOL    HW2 6868   1.909   4.960   0.178 -2.0610 -1.1740 -0.2097
 1774SOL    HW3 6869   1.795   5.035   0.243  0.8297  2.0349  1.4912
 1774SOL    MW4 6870   1.865   4.984   0.249 -0.4230  0.0764  0.4537
 1775SOL     OW 6871   6.233   2.047   1.185 -1.3091 -0.2787 -0.7392
 1775SOL    HW2 6872   6.161   1.986   1.173 -1.2893 -0.6978  1.0740
 1775SOL    HW3 6873   6.306   1.993   1.216 -0.8550  0.4508 -0.5055
 1775SOL    MW4 6874   6.233   2.032   1.187 -1.2466 -0.2377 -0.4692
 1776SOL     OW 6875   0.431   5.002   2.496  0.2819  0.8029 -0.6545
 1776SOL    HW2 6876   0.380   4.996   2.577 -0.0629 -1.5978 -0.9849
 1776SOL    HW3 6877   0.369   4.978   2.427  1.0082  1.1592 -1.4446
 1776SOL    MW4 6878   0.416   4.998   2.498  0.3322  0.5331 -0.8024
 1777SOL     OW 6879   4.048   4.592   1.123  0.5168 -1.3572 -0.1834
 1777SOL    HW2 6880   4.060   4.680   1.159 -3.0098 -0.7643 -0.1356
 1777SOL    HW3 6881   4.012   4.606   1.036 -0.4019 -2.7100 -0.0587
 1777SOL    MW4 6882   4.045   4.605   1.116 -0.0697 -1.4575 -0.1606
 1778SOL     OW 6883   2.933   3.003   1.137 -0.1491  0.8957 -0.2774
 1778SOL    HW2 6884   2.888   3.047   1.209 -0.8365 -0.7270  0.3390
 1778SOL    HW3 6885   2.864   2.986   1.073 -0.4865 -1.5308  0.6341
 1778SOL    MW4 6886   2.918   3.007   1.138 -0.2843  0.3614 -0.0758
 1779SOL     OW 6887   6.125   4.715   0.729  0.2192 -0.3811 -0.3016
 1779SOL    HW2 6888   6.041   4.671   0.745 -0.5840  0.4466 -1.9108
 1779SOL    HW3 6889   6.107   4.774   0.656  2.3090 -0.4102 -0.9028
 1779SOL    MW4 6890   6.111   4.717   0.722  0.3889 -0.2758 -0.5933
 1780SOL     OW 6891   2.186   3.860   4.931 -0.0162  0.4144  0.2450
 1780SOL    HW2 6892   2.232   3.855   4.847 -1.7200 -1.9798 -0.6619
 1780SOL    HW3 6893   2.116   3.924   4.917 -0.6524 -0.3953 -0.4016
 1780SOL    MW4 6894   2.183   3.867   4.918 -0.3249 -0.0083  0.0401
 1781SOL     OW 6895   1.764   2.627   2.439  0.6169 -0.2691 -0.4649
 1781SOL    HW2 6896   1.730   2.541   2.414  0.5902 -0.7787  1.1709
 1781SOL    HW3 6897   1.810   2.611   2.521  2.4825  0.9115 -1.2145
 1781SOL    MW4 6898   1.765   2.614   2.447  0.8595 -0.1806 -0.3480
 1782SOL     OW 6899   3.306   2.196   2.295  0.1449 -0.2718  0.2715
 1782SOL    HW2 6900   3.272   2.151   2.372 -0.0906 -2.6706 -1.1464
 1782SOL    HW3 6901   3.398   2.214   2.316  0.3888 -1.9062  0.7014
 1782SOL    MW4 6902   3.314   2.193   2.308  0.1460 -0.8039  0.1411
 1783SOL     OW 6903   5.134   2.008   3.555  0.1570  0.0200  0.0979
 1783SOL    HW2 6904   5.199   2.067   3.595  2.1369 -1.1810 -1.1617
 1783SOL    HW3 6905   5.171   1.987   3.469 -0.2873 -3.2738  0.5785
 1783SOL    MW4 6906   5.148   2.013   3.549  0.3596 -0.5730 -0.0049
 1784SOL     OW 6907   2.131   5.729   3.236 -0.2833 -0.2081 -0.3318
 1784SOL    HW2 6908   2.041   5.720   3.266  0.0003 -0.0313  0.6053
 1784SOL    HW3 6909   2.176   5.774   3.308  0.3440  0.5588 -1.1769
 1784SOL    MW4 6910   2.125   5.734   3.249 -0.1631 -0.0836 -0.3197
 1785SOL     OW 6911   3.439   2.214   4.671 -0.0023  0.1778 -0.1026
 1785SOL    HW2 6912   3.417   2.186   4.582 -1.1898 -0.4009  0.3608
 1785SOL    HW3 6913   3.407   2.144   4.727  0.0734  0.8759  0.8314
 1785SOL    MW4 6914   3.432   2.201   4.667 -0.1490  0.1935  0.0817
 1786SOL     OW 6915   4.318   5.345   2.179 -0.2939  0.0235  0.3636
 1786SOL    HW2 6916   4.260   5.420   2.165  0.4233  0.5459  0.1943
 1786SOL    HW3 6917   4.293   5.283   2.110  0.0090  0.6476 -0.3143
 1786SOL    MW4 6918   4.307   5.347   2.168 -0.1593  0.1748  0.2518
 1787SOL     OW 6919   3.022   6.466   5.153 -0.1598 -0.6809 -0.1097
 1787SOL    HW2 6920   3.112   6.494   5.135 -0.2734 -0.8271 -0.9048
 1787SOL    HW3 6921   2.996   6.415   5.077 -0.5265 -1.6143  0.6203
 1787SOL    MW4 6922   3.030   6.463   5.141 -0.2232 -0.8233 -0.1183
 1788SOL     OW 6923   1.844   1.687   4.865  0.1643 -0.0193 -0.0310
 1788SOL    HW2 6924   1.908   1.719   4.928  0.5122  1.6337 -1.1699
 1788SOL    HW3 6925   1.768   1.744   4.876 -0.0092 -0.1237 -0.6655
 1788SOL    MW4 6926   1.843   1.698   4.875  0.1873  0.1850 -0.2650
 1789SOL     OW 6927   1.637   2.507   5.247  0.0465  0.0488  0.2641
 1789SOL    HW2 6928   1.716   2.520   5.194 -1.5450 -0.2128 -2.3489
 1789SOL    HW3 6929   1.598   2.594   5.254 -0.0147 -0.0033  0.5709
 1789SOL    MW4 6930   1.643   2.520   5.241 -0.1716  0.0074 -0.0402
 1790SOL     OW 6931   2.903   5.303   4.648  0.2517 -0.4213  0.4435
 1790SOL    HW2 6932   2.924   5.211   4.631 -0.9867 -0.7496  0.5812
 1790SOL    HW3 6933   2.896   5.308   4.743 -1.2389 -0.5749  0.3675
 1790SOL    MW4 6934   2.904   5.291   4.658 -0.1084 -0.4849  0.4517
 1791SOL     OW 6935   2.922   4.077   2.387 -0.4046  0.0869  0.0370
 1791SOL    HW2 6936   2.834   4.071   2.426 -0.7718 -3.2157 -1.0362
 1791SOL    HW3 6937   2.978   4.025   2.445  0.5058  0.7729 -0.1984
 1791SOL    MW4 6938   2.918   4.070   2.400 -0.3329 -0.2583 -0.1356
 1792SOL     OW 6939   2.414   3.659   6.347 -0.4092  0.3748 -0.1338
 1792SOL    HW2 6940   2.363   3.725   6.392 -0.5390  0.4346 -0.3639
 1792SOL    HW3 6941   2.374   3.576   6.372 -0.8862  0.4466 -0.6393
 1792SOL    MW4 6942   2.402   3.656   6.356 -0.4893  0.3921 -0.2308
 1793SOL     OW 6943   1.038   3.273   5.524  0.2095  0.0126 -0.1677
 1793SOL    HW2 6944   0.944   3.265   5.511  0.1594  1.1954 -0.6807
 1793SOL    HW3 6945   1.049   3.272   5.619 -0.5795  2.0434 -0.0064
 1793SOL    MW4 6946   1.027   3.272   5.535  0.0988  0.4366 -0.2141
 1794SOL     OW 6947   3.034   1.735   4.758  0.2750  0.3041  0.0080
 1794SOL    HW2 6948   3.080   1.728   4.674 -0.0761 -0.5715 -0.1267
 1794SOL    HW3 6949   3.040   1.647   4.796 -0.4681  0.4211  0.4230
 1794SOL    MW4 6950   3.041   1.722   4.752  0.1306  0.2040  0.0450
 1795SOL     OW 6951   4.903   3.504   4.063 -0.1265 -0.3919  0.9267
 1795SOL    HW2 6952   4.964   3.578   4.070  2.0204 -2.0398  0.6604
 1795SOL    HW3 6953   4.910   3.475   3.972 -1.5609 -0.4600  0.8132
 1795SOL    MW4 6954   4.912   3.510   4.052 -0.0325 -0.6183  0.8766
 1796SOL     OW 6955   3.601   5.950   4.786  0.2092 -0.7522  0.0489
 1796SOL    HW2 6956   3.652   5.892   4.842 -0.7744 -0.2280  1.5417
 1796SOL    HW3 6957   3.566   5.893   4.718  1.6274 -1.3602 -0.2177
 1796SOL    MW4 6958   3.603   5.935   4.784  0.2665 -0.7633  0.2107
 1797SOL     OW 6959   2.053   6.452   0.597 -0.5406 -0.3502  0.3561
 1797SOL    HW2 6960   2.056   6.495   0.511  0.0186  0.0412  0.5670
 1797SOL    HW3 6961   2.037   6.523   0.659  0.2678 -0.4484  0.6955
 1797SOL    MW4 6962   2.051   6.467   0.594 -0.3602 -0.3115  0.4287
 1798SOL     OW 6963   0.158   5.500   6.222 -0.0784 -0.3202  0.0317
 1798SOL    HW2 6964   0.083   5.492   6.281 -0.9196  1.7469 -0.6509
 1798SOL    HW3 6965   0.209   5.420   6.236 -1.0550 -0.6043  2.3944
 1798SOL    MW4 6966   0.155   5.489   6.231 -0.3183 -0.0849  0.2534
 1799SOL     OW 6967   5.536   2.959   4.524 -0.0669 -0.0468  0.2007
 1799SOL    HW2 6968   5.525   3.017   4.448 -0.4048  0.2131  0.4472
 1799SOL    HW3 6969   5.498   3.008   4.597 -0.9596 -0.8348  0.2883
 1799SOL    MW4 6970   5.529   2.973   4.523 -0.2293 -0.1165  0.2447
 1800SOL     OW 6971   1.854   0.324   3.653 -0.1891 -0.2612 -0.1475
 1800SOL    HW2 6972   1.911   0.265   3.703  1.0955  0.5629 -0.6192
 1800SOL    HW3 6973   1.883   0.412   3.677 -2.2452  0.2496  0.7398
 1800SOL    MW4 6974   1.865   0.328   3.663 -0.2909 -0.0850 -0.0926
 1801SOL     OW 6975   0.118   2.033   4.786 -0.2076 -0.8383 -0.2938
 1801SOL    HW2 6976   0.101   2.006   4.696 -1.6177 -0.7943 -0.0610
 1801SOL    HW3 6977   0.197   1.984   4.811  0.3673 -0.6420 -1.6252
 1801SOL    MW4 6978   0.126   2.023   4.778 -0.3178 -0.8066 -0.4388
 1802SOL     OW 6979   3.952   0.068   1.145 -0.3650  0.5239  0.6891
 1802SOL    HW2 6980   3.939  -0.021   1.112 -2.5633  0.7873  0.7193
 1802SOL    HW3 6981   4.028   0.100   1.097 -2.0021  0.0572 -2.4768
 1802SOL    MW4 6982   3.960   0.060   1.134 -0.8711  0.4970  0.2754
 1803SOL     OW 6983   6.082   0.700   5.654 -0.1313  0.1687  0.3424
 1803SOL    HW2 6984   6.064   0.793   5.663  1.6811  0.4248  1.9508
 1803SOL    HW3 6985   6.175   0.694   5.634 -0.4980 -1.2840 -1.2238
 1803SOL    MW4 6986   6.092   0.711   5.653  0.0594  0.0108  0.3479
 1804SOL     OW 6987   4.009   3.706   3.822 -0.2513  0.2480  0.1834
 1804SOL    HW2 6988   3.980   3.781   3.770  0.4760 -1.6028 -3.1750
 1804SOL    HW3 6989   3.940   3.641   3.810  1.1439 -1.1291 -0.6804
 1804SOL    MW4 6990   3.996   3.707   3.814  0.0288 -0.1779 -0.3737
 1805SOL     OW 6991   2.557   4.326   2.534  0.0107  0.3144  0.2480
 1805SOL    HW2 6992   2.635   4.377   2.559  0.3959 -0.6700  1.1453
 1805SOL    HW3 6993   2.484   4.386   2.549  0.4472  0.6118  1.3292
 1805SOL    MW4 6994   2.558   4.341   2.539  0.1191  0.2238  0.5090
 1806SOL     OW 6995   5.097   2.562   1.852 -0.4537 -0.0023 -0.4783
 1806SOL    HW2 6996   5.102   2.509   1.773  0.6446  1.1381 -1.2041
 1806SOL    HW3 6997   5.036   2.633   1.831  0.9249  1.1151 -0.8383
 1806SOL    MW4 6998   5.090   2.564   1.839 -0.1269  0.2956 -0.6215
 1807SOL     OW 6999   2.325   3.326   3.591 -0.3510 -0.4082  0.3008
 1807SOL    HW2 7000   2.329   3.263   3.663 -1.4702 -1.5047 -0.5415
 1807SOL    HW3 7001   2.231   3.339   3.577 -0.1703 -0.6927 -1.3438
 1807SOL    MW4 7002   2.313   3.320   3.599 -0.4748 -0.5904 -0.0273
 1808SOL     OW 7003   1.205   2.006   0.945 -0.8350 -1.2297  0.0971
 1808SOL    HW2 7004   1.220   1.911   0.945  1.6019 -0.9056 -0.0019
 1808SOL    HW3 7005   1.228   2.034   1.033 -1.7845 -0.7293  0.1986
 1808SOL    MW4 7006   1.210   1.997   0.956 -0.6387 -1.1209  0.0974
 1809SOL     OW 7007   1.144   5.145   4.430  0.0408 -0.0589  0.3346
 1809SOL    HW2 7008   1.176   5.220   4.481  0.8117 -0.9610  1.1978
 1809SOL    HW3 7009   1.222   5.094   4.410  0.0294  0.9892 -3.0814
 1809SOL    MW4 7010   1.159   5.148   4.434  0.1410 -0.0396 -0.0022
 1810SOL     OW 7011   0.594   5.642   0.277  0.4735 -0.2958  0.1862
 1810SOL    HW2 7012   0.551   5.559   0.256  0.6105 -0.2598 -0.2498
 1810SOL    HW3 7013   0.560   5.703   0.212  0.3803 -0.0100  0.5014
 1810SOL    MW4 7014   0.584   5.639   0.266  0.4793 -0.2534  0.1702
 1811SOL     OW 7015   4.606   3.003   5.941  0.1017 -0.0909 -0.0725
 1811SOL    HW2 7016   4.563   2.929   5.899 -0.2412 -0.0367  0.1772
 1811SOL    HW3 7017   4.561   3.080   5.906  1.6416  0.1160 -1.7155
 1811SOL    MW4 7018   4.595   3.004   5.931  0.2596 -0.0564 -0.2563
 1812SOL     OW 7019   2.002   2.945   4.264  0.0115  0.1896 -0.5728
 1812SOL    HW2 7020   1.910   2.920   4.270 -0.3736  1.6017 -0.1495
 1812SOL    HW3 7021   2.028   2.962   4.355  0.6314 -0.0033 -0.7124
 1812SOL    MW4 7022   1.993   2.944   4.277  0.0425  0.3505 -0.5353
 1813SOL     OW 7023   0.459   3.638   1.322  0.0469  0.4918  0.9101
 1813SOL    HW2 7024   0.478   3.654   1.415  0.5243  1.5279  0.6441
 1813SOL    HW3 7025   0.509   3.705   1.275  2.3740 -1.9495 -0.3168
 1813SOL    MW4 7026   0.468   3.649   1.328  0.4169  0.3064  0.7131
 1814SOL     OW 7027   1.926   6.346   2.148 -0.3847  0.3710 -0.0312
 1814SOL    HW2 7028   1.831   6.355   2.140 -0.5753 -1.9261 -1.1956
 1814SOL    HW3 7029   1.940   6.255   2.172  1.5848  0.1601 -1.6689
 1814SOL    MW4 7030   1.915   6.335   2.150 -0.1500  0.0401 -0.4009
 1815SOL     OW 7031   1.159   5.834   0.379  0.4433  0.2693  0.0332
 1815SOL    HW2 7032   1.206   5.757   0.413 -2.2596 -0.3815  2.8021
 1815SOL    HW3 7033   1.092   5.851   0.445  0.2523  4.4401 -0.9900
 1815SOL    MW4 7034   1.156   5.826   0.393  0.0615  0.7337  0.2635
 1816SOL     OW 7035   0.588   4.611   1.270 -0.2334  0.2500  0.3519
 1816SOL    HW2 7036   0.682   4.601   1.285 -0.1283  0.7982  0.0781
 1816SOL    HW3 7037   0.562   4.529   1.226  0.7108  1.2650 -2.3112
 1816SOL    MW4 7038   0.597   4.599   1.266 -0.0950  0.4562 -0.0356
 1817SOL     OW 7039   0.647   5.641   5.382 -0.2326  0.2910  1.1001
 1817SOL    HW2 7040   0.565   5.594   5.395  0.1880 -0.6146  0.5404
 1817SOL    HW3 7041   0.620   5.727   5.349 -0.9140 -0.5159 -0.5352
 1817SOL    MW4 7042   0.632   5.646   5.379 -0.2670  0.0651  0.8105
 1818SOL     OW 7043   4.641   2.523   6.238 -0.0224  0.1983 -0.4788
 1818SOL    HW2 7044   4.670   2.502   6.150 -0.5418  0.2206 -0.6593
 1818SOL    HW3 7045   4.707   2.483   6.296  0.4200  0.3501 -0.8748
 1818SOL    MW4 7046   4.653   2.515   6.234 -0.0326  0.2212 -0.5549
 1819SOL     OW 7047   4.814   0.659   1.996  0.3042 -0.1216 -0.0690
 1819SOL    HW2 7048   4.815   0.755   1.987  0.4445 -0.1394 -0.2588
 1819SOL    HW3 7049   4.723   0.635   1.981 -0.3480  0.2260  2.7612
 1819SOL    MW4 7050   4.802   0.669   1.993  0.2366 -0.0781  0.2793
 1820SOL     OW 7051   5.413   0.941   3.258 -0.0421  0.0460  0.8342
 1820SOL    HW2 7052   5.393   0.895   3.339 -0.1156 -0.6879  0.4050
 1820SOL    HW3 7053   5.397   0.877   3.188 -0.6118  0.8666  0.1929
 1820SOL    MW4 7054   5.408   0.927   3.259 -0.1270  0.0575  0.6930
 1821SOL     OW 7055   1.020   4.744   2.996 -0.0337  0.2418 -0.2013
 1821SOL    HW2 7056   1.061   4.710   2.916  1.8557 -2.1141  1.6088
 1821SOL    HW3 7057   1.081   4.811   3.027  0.7770 -0.8757  0.7096
 1821SOL    MW4 7058   1.034   4.748   2.989  0.3226 -0.2165  0.1577
 1822SOL     OW 7059   1.301   5.903   5.795  0.4035  0.0126 -0.2448
 1822SOL    HW2 7060   1.319   5.809   5.803  0.0849  0.1054  3.9153
 1822SOL    HW3 7061   1.211   5.908   5.762  0.8017 -1.0292 -1.5909
 1822SOL    MW4 7062   1.292   5.891   5.792  0.4140 -0.1126  0.1264
 1823SOL     OW 7063   3.540   5.569   5.646 -0.0498  0.5190 -0.3697
 1823SOL    HW2 7064   3.587   5.489   5.622  1.3897  1.8909 -2.6375
 1823SOL    HW3 7065   3.467   5.574   5.584  0.7966  1.6748 -1.3301
 1823SOL    MW4 7066   3.537   5.559   5.635  0.2518  0.8525 -0.7956
 1824SOL     OW 7067   6.133   2.229   0.426 -0.4082 -0.1356  0.0980
 1824SOL    HW2 7068   6.067   2.213   0.360  0.0326  1.0441 -0.6582
 1824SOL    HW3 7069   6.183   2.147   0.431 -1.5621 -0.8429  0.2886
 1824SOL    MW4 7070   6.131   2.216   0.418 -0.5023 -0.0732  0.0233
 1825SOL     OW 7071   0.235   1.453   5.008  0.6346  0.2031  0.2657
 1825SOL    HW2 7072   0.266   1.538   5.040  1.3599 -0.5255  1.5966
 1825SOL    HW3 7073   0.314   1.400   5.003  0.2706 -0.2334 -1.1395
 1825SOL    MW4 7074   0.249   1.457   5.012  0.6822  0.0494  0.2559
 1826SOL     OW 7075   1.323   2.193   6.299  0.6416  0.2113  0.0409
 1826SOL    HW2 7076   1.277   2.260   6.350 -0.0160  0.2351 -0.5611
 1826SOL    HW3 7077   1.326   2.229   6.210  0.3213 -0.5403 -0.2795
 1826SOL    MW4 7078   1.317   2.206   6.294  0.5125  0.1153 -0.0808
 1827SOL     OW 7079   6.221   3.749   0.468  0.1698 -0.2155 -0.0355
 1827SOL    HW2 7080   6.129   3.736   0.489 -0.0803  1.6562  0.2305
 1827SOL    HW3 7081   6.268   3.715   0.544 -0.3164 -0.8485 -0.0119
 1827SOL    MW4 7082   6.215   3.743   0.481  0.0727 -0.0521  0.0027
 1828SOL     OW 7083   6.380   5.435   6.401 -0.0870 -0.0254  0.2419
 1828SOL    HW2 7084   6.293   5.470   6.414  0.2706  2.0309 -2.2888
 1828SOL    HW3 7085   6.369   5.340   6.409 -2.2943  0.2439  1.0541
 1828SOL    MW4 7086   6.367   5.427   6.404 -0.3310  0.2814  0.0152
 1829SOL     OW 7087   2.654   4.053   2.487 -0.2248  0.1261  0.4261
 1829SOL    HW2 7088   2.614   4.139   2.486  1.7680  1.1181  1.0950
 1829SOL    HW3 7089   2.604   4.003   2.551 -2.0787  0.3781 -0.7418
 1829SOL    MW4 7090   2.642   4.058   2.495 -0.2065  0.2902  0.3603
 1830SOL     OW 7091   0.424   3.611   0.713  0.1283  0.7405  0.1271
 1830SOL    HW2 7092   0.427   3.691   0.661  0.7869  0.7644  0.2048
 1830SOL    HW3 7093   0.330   3.596   0.727 -0.3050 -0.5087 -3.0379
 1830SOL    MW4 7094   0.412   3.619   0.708  0.1580  0.5788 -0.2802
 1831SOL     OW 7095   3.778   4.150   3.394  0.3168 -0.1707 -0.0666
 1831SOL    HW2 7096   3.773   4.222   3.332  0.0141  0.5522  0.7745
 1831SOL    HW3 7097   3.860   4.105   3.374 -1.0872 -1.7221 -2.8703
 1831SOL    MW4 7098   3.788   4.154   3.383  0.0916 -0.2800 -0.3256
 1832SOL     OW 7099   4.728   4.551   0.367 -0.5453 -0.5311 -0.1687
 1832SOL    HW2 7100   4.664   4.485   0.342  0.8825 -2.4212  0.9473
 1832SOL    HW3 7101   4.676   4.623   0.403 -2.0930 -1.5129 -0.3834
 1832SOL    MW4 7102   4.713   4.552   0.369 -0.5611 -0.9100 -0.0498
 1833SOL     OW 7103   1.595   5.119   4.439  0.1447 -0.2812  0.2780
 1833SOL    HW2 7104   1.647   5.076   4.506  0.8022 -1.2642 -0.8181
 1833SOL    HW3 7105   1.518   5.064   4.428 -0.7618  0.7417  1.3324
 1833SOL    MW4 7106   1.592   5.106   4.446  0.1119 -0.2760  0.2725
 1834SOL     OW 7107   5.673   2.873   1.347 -0.0583  0.3729  0.0477
 1834SOL    HW2 7108   5.658   2.780   1.360  0.5338  0.2379 -0.2277
 1834SOL    HW3 7109   5.756   2.879   1.301  0.1925  1.0694  0.5669
 1834SOL    MW4 7110   5.682   2.862   1.343  0.0529  0.4470  0.0799
 1835SOL     OW 7111   2.842   5.655   3.977 -0.5831  0.1421  0.1011
 1835SOL    HW2 7112   2.875   5.659   4.067  0.1922  1.4551 -0.2131
 1835SOL    HW3 7113   2.788   5.577   3.975 -1.3994  0.5942  1.9777
 1835SOL    MW4 7114   2.840   5.646   3.989 -0.5885  0.3750  0.3072
 1836SOL     OW 7115   5.606   3.842   6.172 -0.0746 -0.2933  0.7220
 1836SOL    HW2 7116   5.616   3.935   6.148 -0.2075 -0.4647 -0.0073
 1836SOL    HW3 7117   5.601   3.843   6.268  0.2552  0.4236  0.7423
 1836SOL    MW4 7118   5.607   3.855   6.181 -0.0486 -0.2213  0.6285
 1837SOL     OW 7119   0.704   2.067   0.538  0.2809 -0.1916 -0.5713
 1837SOL    HW2 7120   0.785   2.119   0.539 -0.8108  1.5599  0.2196
 1837SOL    HW3 7121   0.661   2.092   0.456 -0.6312  0.8246  0.1884
 1837SOL    MW4 7122   0.709   2.077   0.527  0.0165  0.1736 -0.3667
 1838SOL     OW 7123   1.529   5.091   4.061  0.4256  0.7343  0.2589
 1838SOL    HW2 7124   1.614   5.080   4.104  0.7652 -0.6765 -0.7183
 1838SOL    HW3 7125   1.476   5.019   4.095  0.1020  0.7095 -0.2995
 1838SOL    MW4 7126   1.533   5.080   4.071  0.4277  0.5449  0.0563
 1839SOL     OW 7127   2.284   0.420   0.785  0.1549  0.5634 -0.0620
 1839SOL    HW2 7128   2.312   0.356   0.850  0.3941  1.1643  0.4451
 1839SOL    HW3 7129   2.291   0.504   0.831  0.6239  1.0233 -0.9638
 1839SOL    MW4 7130   2.288   0.423   0.800  0.2484  0.7033 -0.1140
 1840SOL     OW 7131   5.542   5.461   3.980  0.1808  0.6626 -0.1060
 1840SOL    HW2 7132   5.632   5.460   3.947  0.9277 -0.8653  1.8119
 1840SOL    HW3 7133   5.550   5.435   4.072 -2.1292  1.5644  0.4133
 1840SOL    MW4 7134   5.555   5.458   3.988 -0.0255  0.5800  0.2155
 1841SOL     OW 7135   1.429   3.515   5.411  0.1997  0.0092 -0.1077
 1841SOL    HW2 7136   1.474   3.439   5.375 -1.0209 -2.2811  2.8049
 1841SOL    HW3 7137   1.336   3.494   5.403 -0.2084  1.5659  0.1487
 1841SOL    MW4 7138   1.423   3.502   5.405 -0.0152 -0.0876  0.3104
 1842SOL     OW 7139   2.476   5.499   5.162 -0.2996  0.1929 -0.4149
 1842SOL    HW2 7140   2.425   5.562   5.214  0.1691  0.2653 -0.0337
 1842SOL    HW3 7141   2.426   5.418   5.167 -0.5314  0.3426 -0.2904
 1842SOL    MW4 7142   2.463   5.496   5.170 -0.2683  0.2222 -0.3482
 1843SOL     OW 7143   5.474   3.822   4.251 -0.0321  0.0921  0.4519
 1843SOL    HW2 7144   5.423   3.767   4.311  0.2029 -1.0379 -0.3655
 1843SOL    HW3 7145   5.517   3.761   4.192  3.0835  0.9371  1.6762
 1843SOL    MW4 7146   5.473   3.807   4.251  0.4100  0.0545  0.5056
 1844SOL     OW 7147   2.163   5.848   0.644 -0.5753  0.6657  0.0377
 1844SOL    HW2 7148   2.140   5.795   0.568  0.3992  1.2745 -0.7014
 1844SOL    HW3 7149   2.153   5.938   0.615  0.6389  0.9201  0.3463
 1844SOL    MW4 7150   2.158   5.853   0.630 -0.2865  0.7796 -0.0191
 1845SOL     OW 7151   0.729   2.967   0.033 -0.5891 -0.0056 -0.2277
 1845SOL    HW2 7152   0.751   2.996  -0.056  1.5994 -0.7975 -0.0065
 1845SOL    HW3 7153   0.814   2.947   0.073 -1.4133  1.4710  2.4674
 1845SOL    MW4 7154   0.743   2.968   0.027 -0.4091  0.0848  0.1571
 1846SOL     OW 7155   1.665   6.176   5.819 -0.2561 -0.0522  0.0124
 1846SOL    HW2 7156   1.602   6.135   5.760 -2.5333  2.0017  0.8244
 1846SOL    HW3 7157   1.713   6.238   5.764 -0.6940  0.1433 -0.1553
 1846SOL    MW4 7158   1.663   6.179   5.804 -0.6143  0.2446  0.0974
 1847SOL     OW 7159   0.025   4.404   4.863  0.5216  0.3400 -0.2416
 1847SOL    HW2 7160   0.052   4.359   4.782  1.0458 -0.1193  0.1808
 1847SOL    HW3 7161   0.108   4.427   4.905  0.2863  2.2604 -0.7416
 1847SOL    MW4 7162   0.040   4.401   4.858  0.5597  0.5328 -0.2518
 1848SOL     OW 7163   4.386   0.408   1.774 -0.4887 -0.2538 -0.3432
 1848SOL    HW2 7164   4.314   0.369   1.822  0.2948 -0.1800  0.9196
 1848SOL    HW3 7165   4.426   0.470   1.835  0.6150 -0.2641 -1.0174
 1848SOL    MW4 7166   4.382   0.411   1.788 -0.2397 -0.2454 -0.2655
 1849SOL     OW 7167   3.322   5.175   2.708 -0.3071  0.1339 -0.4051
 1849SOL    HW2 7168   3.400   5.122   2.694 -0.6496 -0.7169  0.7205
 1849SOL    HW3 7169   3.268   5.159   2.631 -1.2982 -2.8509  0.7348
 1849SOL    MW4 7170   3.325   5.166   2.696 -0.4831 -0.3721 -0.1062
 1850SOL     OW 7171   0.916   4.863   3.625  0.2600  0.2828  0.0124
 1850SOL    HW2 7172   0.996   4.870   3.572  1.7255  0.6690  2.1314
 1850SOL    HW3 7173   0.939   4.799   3.693 -1.6264 -0.3831  0.0749
 1850SOL    MW4 7174   0.930   4.855   3.627  0.2045  0.2459  0.3002
 1851SOL     OW 7175   1.185   4.214   3.852 -0.1508  0.0936 -0.1927
 1851SOL    HW2 7176   1.123   4.214   3.925 -0.5059 -1.4140 -0.4583
 1851SOL    HW3 7177   1.253   4.153   3.878  0.6773  0.9112 -0.3761
 1851SOL    MW4 7178   1.186   4.206   3.865 -0.0884  0.0026 -0.2519
 1852SOL     OW 7179   2.378   4.614   4.603  0.1497 -0.3560 -0.1177
 1852SOL    HW2 7180   2.330   4.620   4.686 -0.5257 -0.6336 -0.4750
 1852SOL    HW3 7181   2.376   4.702   4.567  1.1570 -0.0578  0.5454
 1852SOL    MW4 7182   2.371   4.626   4.609  0.1935 -0.3533 -0.0774
 1853SOL     OW 7183   1.195   5.285   2.626  0.0695 -0.3152 -0.0006
 1853SOL    HW2 7184   1.221   5.290   2.534  0.0224 -0.0870 -0.0011
 1853SOL    HW3 7185   1.132   5.356   2.638  0.1933 -0.2439  0.2472
 1853SOL    MW4 7186   1.190   5.295   2.616  0.0796 -0.2757  0.0320
 1854SOL     OW 7187   1.665   1.801   6.326 -0.5604 -0.3643 -0.6439
 1854SOL    HW2 7188   1.741   1.840   6.281 -0.7587 -0.6079 -1.2023
 1854SOL    HW3 7189   1.666   1.709   6.299  1.1005 -1.3270  2.2584
 1854SOL    MW4 7190   1.675   1.794   6.316 -0.3674 -0.5235 -0.3347
 1855SOL     OW 7191   0.969   5.824   1.258  0.6161 -0.2210 -0.8197
 1855SOL    HW2 7192   0.908   5.871   1.315  0.1628 -0.3672 -1.1795
 1855SOL    HW3 7193   0.995   5.888   1.192  0.8447 -0.1634 -0.6751
 1855SOL    MW4 7194   0.965   5.838   1.257  0.5865 -0.2327 -0.8481
 1856SOL     OW 7195   1.440   0.070   1.459  0.2490  0.1860  0.1314
 1856SOL    HW2 7196   1.444  -0.025   1.456  0.0777  0.0245  2.8370
 1856SOL    HW3 7197   1.389   0.094   1.382  1.1701 -1.7984 -1.1826
 1856SOL    MW4 7198   1.434   0.061   1.448  0.3480 -0.0971  0.3150
 1857SOL     OW 7199   4.772   4.971   3.499 -0.1754 -0.4718 -0.4086
 1857SOL    HW2 7200   4.758   5.035   3.569  0.0738  0.4248 -1.1540
 1857SOL    HW3 7201   4.793   4.890   3.545 -0.8017 -0.1038  0.5666
 1857SOL    MW4 7202   4.773   4.969   3.514 -0.2252 -0.3050 -0.3783
 1858SOL     OW 7203   4.108   0.391   2.998 -0.2352 -0.4148  0.4565
 1858SOL    HW2 7204   4.132   0.313   2.947 -1.3872 -0.2760 -0.3309
 1858SOL    HW3 7205   4.185   0.449   2.991 -0.3596 -0.4090 -1.1422
 1858SOL    MW4 7206   4.122   0.389   2.990 -0.4036 -0.3957  0.1417
 1859SOL     OW 7207   0.533   3.653   2.697 -0.4972 -0.0111  0.7373
 1859SOL    HW2 7208   0.603   3.592   2.672 -0.1263  1.3119 -1.7591
 1859SOL    HW3 7209   0.579   3.734   2.720 -1.1581  0.5117  0.2351
 1859SOL    MW4 7210   0.549   3.656   2.697 -0.5355  0.2325  0.3417
 1860SOL     OW 7211   0.387   6.309   2.834  0.4096 -0.6828  0.4527
 1860SOL    HW2 7212   0.309   6.341   2.788  1.3507 -0.0167 -0.7259
 1860SOL    HW3 7213   0.389   6.360   2.915  0.6259  0.6752 -0.3632
 1860SOL    MW4 7214   0.377   6.320   2.839  0.5623 -0.4157  0.1896
 1861SOL     OW 7215   0.822   3.209   5.943  0.0845 -0.6606  0.3269
 1861SOL    HW2 7216   0.902   3.217   5.891 -0.2055  2.1769  0.1845
 1861SOL    HW3 7217   0.853   3.185   6.031  0.7272 -3.2745 -0.5026
 1861SOL    MW4 7218   0.837   3.207   5.948  0.1311 -0.6311  0.1987
 1862SOL     OW 7219   6.104   3.493   4.931 -0.2765 -0.4848  0.2849
 1862SOL    HW2 7220   6.079   3.405   4.960  1.2577 -0.8502  0.5743
 1862SOL    HW3 7221   6.179   3.516   4.987  0.1490  0.4807 -0.6576
 1862SOL    MW4 7222   6.111   3.484   4.943 -0.0179 -0.4056  0.1988
 1863SOL     OW 7223   2.343   4.466   5.240  0.7486  0.4026  0.3716
 1863SOL    HW2 7224   2.275   4.422   5.292  0.4845  0.5644  0.1635
 1863SOL    HW3 7225   2.410   4.490   5.304  1.4035 -1.2368  0.3572
 1863SOL    MW4 7226   2.343   4.463   5.255  0.8002  0.2076  0.3422
 1864SOL     OW 7227   6.187   2.192   0.938  0.4124  0.0961 -0.2092
 1864SOL    HW2 7228   6.213   2.136   1.011 -0.2749 -1.4053 -1.0939
 1864SOL    HW3 7229   6.264   2.195   0.881  0.0675 -0.9692 -0.7590
 1864SOL    MW4 7230   6.201   2.185   0.940  0.2763 -0.2426 -0.3985
 1865SOL     OW 7231   2.475   6.347   0.449  0.0228 -0.0188 -0.1651
 1865SOL    HW2 7232   2.407   6.340   0.382  0.7445  0.0995 -0.9284
 1865SOL    HW3 7233   2.427   6.359   0.531 -0.8702  2.6790 -0.9918
 1865SOL    MW4 7234   2.460   6.348   0.451  0.0002  0.3528 -0.3749
 1866SOL     OW 7235   5.833   3.406   0.787 -0.0636 -0.6122  0.1391
 1866SOL    HW2 7236   5.897   3.412   0.858 -0.6026  0.1919  0.5738
 1866SOL    HW3 7237   5.886   3.394   0.708  0.5907 -0.6401  0.5763
 1866SOL    MW4 7238   5.848   3.406   0.786 -0.0484 -0.5098  0.2541
 1867SOL     OW 7239   1.429   6.097   5.055 -0.5183  0.4565 -0.8203
 1867SOL    HW2 7240   1.513   6.112   5.012 -0.0372 -0.3914 -0.2122
 1867SOL    HW3 7241   1.364   6.128   4.992  0.1892 -0.2390 -1.9250
 1867SOL    MW4 7242   1.432   6.103   5.041 -0.3615  0.2528 -0.8858
 1868SOL     OW 7243   2.481   0.231   6.326 -0.5222 -0.3301 -0.1243
 1868SOL    HW2 7244   2.565   0.275   6.312 -0.8510 -0.0331 -1.3428
 1868SOL    HW3 7245   2.503   0.139   6.337 -0.0378 -0.2716 -0.5666
 1868SOL    MW4 7246   2.495   0.225   6.325 -0.5017 -0.2832 -0.3434
 1869SOL     OW 7247   3.601   4.007   2.715 -0.4873  0.0709  0.4699
 1869SOL    HW2 7248   3.660   3.931   2.718 -1.0955 -0.4237  0.2131
 1869SOL    HW3 7249   3.528   3.978   2.660 -0.2297  1.2042 -0.5015
 1869SOL    MW4 7250   3.599   3.993   2.708 -0.5335  0.1552  0.3078
 1870SOL     OW 7251   4.853   0.330   2.210 -0.2075 -0.4529  0.0755
 1870SOL    HW2 7252   4.761   0.337   2.235 -0.3631 -0.1396 -0.5522
 1870SOL    HW3 7253   4.889   0.417   2.228  0.3244 -0.9781  1.6654
 1870SOL    MW4 7254   4.845   0.343   2.215 -0.1578 -0.4808  0.2024
 1871SOL     OW 7255   4.093   0.645   2.572 -0.3740  0.1729 -0.1556
 1871SOL    HW2 7256   4.014   0.600   2.542  0.2652 -0.0216 -1.6898
 1871SOL    HW3 7257   4.130   0.683   2.492 -0.1229  2.2247  0.8781
 1871SOL    MW4 7258   4.087   0.644   2.557 -0.2566  0.4179 -0.2216
 1872SOL     OW 7259   4.096   6.381   2.630 -0.3289 -0.4506  0.2050
 1872SOL    HW2 7260   4.126   6.410   2.716 -1.7727 -1.0859  0.9652
 1872SOL    HW3 7261   4.002   6.363   2.643 -0.5255 -0.7420 -1.4549
 1872SOL    MW4 7262   4.087   6.383   2.643 -0.5453 -0.5729  0.0863
 1873SOL     OW 7263   1.609   3.925   1.847 -0.0199 -0.5595 -0.1903
 1873SOL    HW2 7264   1.604   3.981   1.925 -0.6973 -0.6596 -0.1545
 1873SOL    HW3 7265   1.693   3.947   1.807 -0.9936  1.8084 -1.1391
 1873SOL    MW4 7266   1.619   3.936   1.852 -0.2377 -0.2603 -0.3108
 1874SOL     OW 7267   5.465   2.496   4.956  0.3036  0.1121 -0.1160
 1874SOL    HW2 7268   5.487   2.542   4.875  2.0932  0.8224  0.7185
 1874SOL    HW3 7269   5.415   2.419   4.928 -1.1214  1.5291 -1.6906
 1874SOL    MW4 7270   5.461   2.492   4.942  0.3517  0.3928 -0.2136
 1875SOL     OW 7271   2.932   6.340   2.837 -0.3979  0.0500 -0.1897
 1875SOL    HW2 7272   2.843   6.366   2.863 -0.1518  0.6649  0.0678
 1875SOL    HW3 7273   2.984   6.354   2.916  0.1748  0.9814 -0.7224
 1875SOL    MW4 7274   2.927   6.346   2.851 -0.2899  0.2540 -0.2260
 1876SOL     OW 7275   3.080   5.633   1.785  0.3446  0.0747  1.1718
 1876SOL    HW2 7276   3.072   5.683   1.866 -0.7147 -0.3395  1.3354
 1876SOL    HW3 7277   3.153   5.674   1.738 -0.1305  1.3932  1.5648
 1876SOL    MW4 7278   3.089   5.645   1.789  0.1422  0.1940  1.2453
 1877SOL     OW 7279   4.241   3.057   2.798 -0.6108 -0.0218  0.1990
 1877SOL    HW2 7280   4.229   3.117   2.871  0.5472  1.0959 -0.4843
 1877SOL    HW3 7281   4.166   3.071   2.741 -0.2110  1.0045 -0.0891
 1877SOL    MW4 7282   4.230   3.066   2.800 -0.4052  0.2610  0.0708
 1878SOL     OW 7283   5.076   1.481   3.701  0.5912  0.1325 -0.6795
 1878SOL    HW2 7284   5.162   1.441   3.694  1.1279  0.7549  1.4743
 1878SOL    HW3 7285   5.093   1.574   3.713 -0.3092  0.1556  0.6591
 1878SOL    MW4 7286   5.089   1.488   3.702  0.5433  0.2176 -0.2187
 1879SOL     OW 7287   1.999   3.440   2.363  0.5469  0.2953 -0.4108
 1879SOL    HW2 7288   1.980   3.462   2.272  0.1875 -1.0966 -0.6985
 1879SOL    HW3 7289   1.915   3.414   2.400  0.7807  0.3479  0.1708
 1879SOL    MW4 7290   1.985   3.439   2.356  0.5303  0.1186 -0.3720
 1880SOL     OW 7291   0.466   1.053   4.798  0.1505  0.2423  0.0416
 1880SOL    HW2 7292   0.439   0.985   4.736 -0.9907  1.7182 -1.1559
 1880SOL    HW3 7293   0.390   1.110   4.806  0.7680  0.8968  1.7294
 1880SOL    MW4 7294   0.453   1.051   4.791  0.0814  0.5234  0.1063
 1881SOL     OW 7295   1.864   0.922   5.816 -0.2970  0.1255 -0.1013
 1881SOL    HW2 7296   1.867   0.827   5.802  1.7348  0.1855 -0.2788
 1881SOL    HW3 7297   1.920   0.958   5.747 -0.8869  1.4556  0.0890
 1881SOL    MW4 7298   1.871   0.914   5.805 -0.1068  0.3089 -0.0996
 1882SOL     OW 7299   2.067   6.263   5.678 -0.1183  0.3103  0.1867
 1882SOL    HW2 7300   2.062   6.333   5.743 -4.7368  1.5589 -1.1303
 1882SOL    HW3 7301   2.134   6.291   5.617 -1.2228  3.2960  0.1816
 1882SOL    MW4 7302   2.075   6.276   5.679 -0.8733  0.8689  0.0123
 1883SOL     OW 7303   4.182   1.371   3.287  0.5379 -0.0912  0.3480
 1883SOL    HW2 7304   4.213   1.413   3.366  2.4406 -0.5144 -0.1193
 1883SOL    HW3 7305   4.220   1.422   3.216 -0.3596 -0.2799 -0.2924
 1883SOL    MW4 7306   4.191   1.383   3.288  0.6705 -0.1720  0.2018
 1884SOL     OW 7307   2.246   2.321   2.218 -0.1085  0.8103  0.3112
 1884SOL    HW2 7308   2.309   2.314   2.146 -0.5846  1.0500 -0.1317
 1884SOL    HW3 7309   2.242   2.232   2.254  0.3777  0.7611  0.2558
 1884SOL    MW4 7310   2.254   2.308   2.213 -0.1071  0.8354  0.2455
 1885SOL     OW 7311   2.468   5.317   2.689  0.2714  0.0467  0.2571
 1885SOL    HW2 7312   2.454   5.226   2.715 -1.4888 -1.1589 -3.9228
 1885SOL    HW3 7313   2.397   5.366   2.731 -0.2448 -0.9925  0.6199
 1885SOL    MW4 7314   2.457   5.311   2.698 -0.0289 -0.2495 -0.2465
 1886SOL     OW 7315   5.346   5.892   2.099  0.3570  0.1656 -0.2394
 1886SOL    HW2 7316   5.255   5.895   2.128  0.1528 -0.3293 -0.7918
 1886SOL    HW3 7317   5.353   5.962   2.034  0.0305 -0.5523 -1.0798
 1886SOL    MW4 7318   5.335   5.902   2.094  0.2870  0.0056 -0.4232
 1887SOL     OW 7319   2.283   0.314   0.325  0.2338 -0.2114  0.4647
 1887SOL    HW2 7320   2.253   0.401   0.300 -0.4196 -0.3996  0.5727
 1887SOL    HW3 7321   2.336   0.285   0.251 -2.0758 -0.9680 -1.0155
 1887SOL    MW4 7322   2.286   0.322   0.312 -0.1571 -0.3360  0.2837
 1888SOL     OW 7323   5.804   1.278   2.146  0.2692 -0.3283  0.5083
 1888SOL    HW2 7324   5.830   1.243   2.061 -0.0572  0.3704  0.1157
 1888SOL    HW3 7325   5.785   1.370   2.130 -1.2835 -0.5266  1.0072
 1888SOL    MW4 7326   5.805   1.285   2.133  0.0213 -0.2622  0.5224
 1889SOL     OW 7327   5.693   6.063   2.945  0.6190  0.4203  0.2081
 1889SOL    HW2 7328   5.620   6.040   3.004 -0.6265 -1.3325 -1.8584
 1889SOL    HW3 7329   5.653   6.064   2.858  2.4767  2.5425 -0.7078
 1889SOL    MW4 7330   5.678   6.060   2.942  0.6998  0.4690 -0.1854
 1890SOL     OW 7331   5.727   3.425   4.983 -0.5312  0.0757  0.0443
 1890SOL    HW2 7332   5.636   3.431   5.014 -1.3632  0.3688 -2.2468
 1890SOL    HW3 7333   5.719   3.406   4.889  1.7911  0.3448 -0.2652
 1890SOL    MW4 7334   5.714   3.423   4.975 -0.3345  0.1499 -0.2988
 1891SOL     OW 7335   5.620   5.153   3.778 -0.2144 -0.2096 -0.3593
 1891SOL    HW2 7336   5.569   5.224   3.739  0.7296  0.7964  0.1991
 1891SOL    HW3 7337   5.630   5.089   3.707  0.7161  1.1765 -1.5315
 1891SOL    MW4 7338   5.614   5.154   3.764  0.0329  0.1060 -0.4403
 1892SOL     OW 7339   4.015   5.361   2.382  0.0391 -0.7436 -0.3012
 1892SOL    HW2 7340   4.091   5.419   2.382  0.7293 -1.6172 -0.0883
 1892SOL    HW3 7341   4.019   5.316   2.297  0.5481 -1.7604  0.2378
 1892SOL    MW4 7342   4.025   5.363   2.371  0.1973 -0.9930 -0.2020
 1893SOL     OW 7343   5.728   0.359   4.438  0.1981 -0.0188 -0.2306
 1893SOL    HW2 7344   5.766   0.271   4.444 -0.9355 -0.5621 -0.6698
 1893SOL    HW3 7345   5.637   0.348   4.468  0.1835  1.1109  0.1918
 1893SOL    MW4 7346   5.721   0.346   4.443  0.0466  0.0586 -0.2328
 1894SOL     OW 7347   5.182   4.450   4.577  0.1450  0.2431  0.2577
 1894SOL    HW2 7348   5.155   4.362   4.550 -1.1448  1.2054 -1.8966
 1894SOL    HW3 7349   5.104   4.487   4.620  0.0950  0.8761 -0.3540
 1894SOL    MW4 7350   5.168   4.443   4.579 -0.0318  0.4535 -0.1072
 1895SOL     OW 7351   4.514   3.825   3.106  0.0227  0.3106 -0.0909
 1895SOL    HW2 7352   4.476   3.822   3.019 -2.7717  2.9775  0.8436
 1895SOL    HW3 7353   4.492   3.913   3.139  0.6621 -0.6754  3.3866
 1895SOL    MW4 7354   4.506   3.836   3.099 -0.2616  0.5324  0.4912
 1896SOL     OW 7355   5.464   0.816   1.790 -0.2038  0.0792 -0.3980
 1896SOL    HW2 7356   5.504   0.846   1.872 -0.5249 -1.2057  0.2499
 1896SOL    HW3 7357   5.371   0.811   1.809 -0.3011 -0.0538 -0.8974
 1896SOL    MW4 7358   5.457   0.819   1.803 -0.2590 -0.1079 -0.3784
 1897SOL     OW 7359   3.040   1.136   5.177 -0.1999 -0.3014 -0.0402
 1897SOL    HW2 7360   3.062   1.079   5.251 -1.4708  0.8084  1.2529
 1897SOL    HW3 7361   2.951   1.109   5.152  1.1981 -2.6420 -3.1532
 1897SOL    MW4 7362   3.031   1.125   5.184 -0.1831 -0.4638 -0.2803
 1898SOL     OW 7363   2.594   1.496   0.389 -0.2234  0.0231  0.7288
 1898SOL    HW2 7364   2.634   1.437   0.325  2.4198  0.0358  2.1828
 1898SOL    HW3 7365   2.501   1.478   0.384  0.0581 -1.1955 -1.8550
 1898SOL    MW4 7366   2.587   1.486   0.380  0.1625 -0.1360  0.5797
 1899SOL     OW 7367   3.438   2.577   0.898  0.3398  1.7031 -0.2576
 1899SOL    HW2 7368   3.368   2.525   0.938 -0.2487  1.8266 -1.0832
 1899SOL    HW3 7369   3.397   2.614   0.820  1.4944  1.3368 -1.0540
 1899SOL    MW4 7370   3.423   2.575   0.893  0.4145  1.6711 -0.4716
 1900SOL     OW 7371   5.943   1.573   4.011 -0.3658  0.2402 -0.0224
 1900SOL    HW2 7372   5.989   1.488   4.007  2.6927  1.7276  0.4796
 1900SOL    HW3 7373   5.929   1.588   4.104  0.7838  1.0635  0.0358
 1900SOL    MW4 7374   5.947   1.564   4.023  0.1894  0.5451  0.0515
 1901SOL     OW 7375   4.417   1.652   2.758 -0.3357  0.0909 -0.4530
 1901SOL    HW2 7376   4.341   1.707   2.775  0.2406  0.1551  2.4757
 1901SOL    HW3 7377   4.483   1.713   2.724 -1.3122  0.1334 -2.4404
 1901SOL    MW4 7378   4.416   1.667   2.756 -0.3885  0.1050 -0.3288
 1902SOL     OW 7379   6.029   0.616   1.181  0.3973  0.1094 -0.1409
 1902SOL    HW2 7380   6.117   0.625   1.143  1.6281 -4.3080  1.1369
 1902SOL    HW3 7381   5.987   0.547   1.129 -0.5112 -1.0968  2.0700
 1902SOL    MW4 7382   6.035   0.608   1.169  0.4398 -0.6325  0.3194
 1903SOL     OW 7383   0.642   6.185   4.290  0.1689  0.0781  0.1452
 1903SOL    HW2 7384   0.563   6.131   4.303  0.0864  0.0337 -0.5240
 1903SOL    HW3 7385   0.635   6.217   4.200  0.8093  0.2521  0.1534
 1903SOL    MW4 7386   0.631   6.182   4.280  0.2425  0.0952  0.0580
 1904SOL     OW 7387   3.324   5.027   4.255  0.4634  0.2776  0.4833
 1904SOL    HW2 7388   3.375   4.970   4.313 -1.1560  0.8665  2.5754
 1904SOL    HW3 7389   3.233   5.010   4.279 -0.4650 -0.7611 -3.1478
 1904SOL    MW4 7390   3.319   5.017   4.266  0.1272  0.2182  0.2802
 1905SOL     OW 7391   5.178   5.602   0.807 -0.5554  0.0259  0.6906
 1905SOL    HW2 7392   5.151   5.685   0.847 -2.6909  0.2666 -1.0978
 1905SOL    HW3 7393   5.235   5.628   0.735 -0.9455 -0.0849  0.3432
 1905SOL    MW4 7394   5.182   5.617   0.803 -0.8886  0.0430  0.4088
 1906SOL     OW 7395   4.985   6.071   1.672 -0.5186  1.0931 -0.3838
 1906SOL    HW2 7396   5.079   6.088   1.659 -0.6431  1.4157 -0.9128
 1906SOL    HW3 7397   4.945   6.098   1.589 -1.2699  2.4216  0.3813
 1906SOL    MW4 7398   4.992   6.077   1.659 -0.6342  1.3110 -0.3527
 1907SOL     OW 7399   3.867   0.949   2.645 -0.0018  0.0418  0.2853
 1907SOL    HW2 7400   3.917   0.966   2.725  1.9862 -0.9633 -0.6767
 1907SOL    HW3 7401   3.850   0.855   2.647 -0.1427  0.0497 -0.3870
 1907SOL    MW4 7402   3.871   0.939   2.656  0.2419 -0.0898  0.0696
 1908SOL     OW 7403   3.358   0.212   3.309 -0.0195 -0.2426 -0.1644
 1908SOL    HW2 7404   3.296   0.155   3.264 -0.6009 -2.1451  2.8332
 1908SOL    HW3 7405   3.308   0.291   3.329 -1.4489 -1.5785  1.8172
 1908SOL    MW4 7406   3.343   0.215   3.305 -0.2848 -0.6698  0.4926
 1909SOL     OW 7407   2.320   6.044   0.077  0.0231  0.2714  0.9498
 1909SOL    HW2 7408   2.265   6.064   0.000  0.6183  0.5967  0.6048
 1909SOL    HW3 7409   2.281   6.096   0.147  0.0251  0.6834  0.6509
 1909SOL    MW4 7410   2.307   6.053   0.076  0.1019  0.3687  0.8649
 1910SOL     OW 7411   1.916   3.417   1.411 -0.4484  0.7413  0.8308
 1910SOL    HW2 7412   1.848   3.484   1.400 -1.8701 -0.8847 -1.2860
 1910SOL    HW3 7413   1.998   3.463   1.395 -1.3474  2.0881 -0.1725
 1910SOL    MW4 7414   1.918   3.432   1.407 -0.7546  0.7045  0.4191
 1911SOL     OW 7415   3.769   1.775   2.938  0.2911 -0.0131 -0.1471
 1911SOL    HW2 7416   3.695   1.723   2.907 -0.3260 -0.6845  2.1807
 1911SOL    HW3 7417   3.768   1.761   3.033  2.5087  1.1708  0.0945
 1911SOL    MW4 7418   3.759   1.766   2.947  0.5022  0.0545  0.1919
 1912SOL     OW 7419   2.824   0.372   4.268  0.1961  0.3617 -0.4571
 1912SOL    HW2 7420   2.824   0.395   4.361  0.8456 -0.8097 -0.1412
 1912SOL    HW3 7421   2.916   0.359   4.247  0.0213  0.2538 -1.1792
 1912SOL    MW4 7422   2.836   0.373   4.277  0.2588  0.1929 -0.5107
 1913SOL     OW 7423   5.150   0.694   2.523 -0.1107 -0.0616 -0.4527
 1913SOL    HW2 7424   5.236   0.682   2.483  0.0010  0.2560 -0.3113
 1913SOL    HW3 7425   5.095   0.732   2.453 -0.1494 -0.3132 -0.5579
 1913SOL    MW4 7426   5.154   0.698   2.508 -0.1011 -0.0529 -0.4479
 1914SOL     OW 7427   3.901   3.992   2.195 -0.0594 -0.4548  0.6000
 1914SOL    HW2 7428   3.870   3.985   2.285  0.3430 -0.7692  0.7197
 1914SOL    HW3 7429   3.934   3.905   2.174  1.3600  0.0230  0.7271
 1914SOL    MW4 7430   3.902   3.979   2.204  0.1810 -0.4333  0.6326
 1915SOL     OW 7431   0.003   2.410   3.121  0.2410 -0.3797  0.4209
 1915SOL    HW2 7432  -0.089   2.420   3.147 -0.3561 -1.4102 -1.1290
 1915SOL    HW3 7433   0.040   2.350   3.185 -0.3182 -0.3994  0.7372
 1915SOL    MW4 7434  -0.005   2.403   3.132  0.0884 -0.5182  0.2581
 1916SOL     OW 7435   0.804   3.886   4.415 -0.1153 -0.0097 -0.4139
 1916SOL    HW2 7436   0.713   3.860   4.407  0.3181 -1.2990 -1.5708
 1916SOL    HW3 7437   0.848   3.808   4.449  0.6889  0.3118 -0.6864
 1916SOL    MW4 7438   0.798   3.872   4.419  0.0479 -0.1374 -0.6025
 1917SOL     OW 7439   0.079   2.547   4.917 -0.1630 -0.3947  0.7155
 1917SOL    HW2 7440   0.142   2.488   4.958  1.4893 -0.2094 -1.4037
 1917SOL    HW3 7441   0.056   2.505   4.834 -1.2711  0.5247  0.5256
 1917SOL    MW4 7442   0.084   2.534   4.911 -0.0912 -0.2489  0.4108
 1918SOL     OW 7443   5.756   3.785   3.488 -0.6328 -0.4276  0.5307
 1918SOL    HW2 7444   5.707   3.711   3.524  0.0558 -0.5218  1.3002
 1918SOL    HW3 7445   5.740   3.857   3.549 -0.6538 -0.1694  0.2203
 1918SOL    MW4 7446   5.747   3.785   3.501 -0.5447 -0.4059  0.5912
 1919SOL     OW 7447   2.977   0.106   6.006 -0.1652 -0.1870  0.2804
 1919SOL    HW2 7448   2.977   0.033   5.944  3.6245 -0.2949  0.1771
 1919SOL    HW3 7449   3.004   0.066   6.089  0.2907  0.8301  0.6346
 1919SOL    MW4 7450   2.981   0.091   6.009  0.3949 -0.0670  0.3135
 1920SOL     OW 7451   3.098   2.478   3.682 -0.5131 -0.0429  0.1175
 1920SOL    HW2 7452   3.056   2.413   3.737 -1.4016  0.4420  0.0356
 1920SOL    HW3 7453   3.159   2.429   3.628 -1.5507 -0.8766 -0.3132
 1920SOL    MW4 7454   3.100   2.463   3.682 -0.7672 -0.0889  0.0499
 1921SOL     OW 7455   4.944   3.105   0.795  0.0577  0.3699 -0.4591
 1921SOL    HW2 7456   4.942   3.193   0.831  2.5177  1.6171 -2.9442
 1921SOL    HW3 7457   4.854   3.087   0.768 -0.6150  1.8206  0.7182
 1921SOL    MW4 7458   4.932   3.114   0.796  0.2935  0.7259 -0.6316
 1922SOL     OW 7459   5.532   4.778   5.851  0.3587  0.3638  0.4278
 1922SOL    HW2 7460   5.611   4.795   5.901 -0.2226 -0.7601  1.8230
 1922SOL    HW3 7461   5.463   4.769   5.918 -0.9059  1.1061 -0.7285
 1922SOL    MW4 7462   5.533   4.779   5.867  0.1151  0.3134  0.4593
 1923SOL     OW 7463   0.932   0.482   1.471  0.2100 -0.1464 -0.0689
 1923SOL    HW2 7464   1.009   0.448   1.518 -0.1571 -1.7869 -0.5767
 1923SOL    HW3 7465   0.858   0.462   1.529 -0.0261 -0.3363 -0.4311
 1923SOL    MW4 7466   0.933   0.475   1.485  0.1304 -0.3879 -0.1837
 1924SOL     OW 7467   4.019   4.110   0.024  0.0405 -0.1342 -0.2276
 1924SOL    HW2 7468   4.022   4.097  -0.071  2.0868 -1.7484 -0.0160
 1924SOL    HW3 7469   4.081   4.181   0.040 -0.1456 -0.0062 -0.0668
 1924SOL    MW4 7470   4.027   4.118   0.013  0.2859 -0.3303 -0.1784
 1925SOL     OW 7471   5.220   3.713   2.900 -0.0258 -0.2818  0.0623
 1925SOL    HW2 7472   5.137   3.749   2.868 -0.2769  0.7783  1.7416
 1925SOL    HW3 7473   5.281   3.723   2.827 -0.4204  2.4431  0.0132
 1925SOL    MW4 7474   5.217   3.719   2.886 -0.1110  0.2176  0.2774
 1926SOL     OW 7475   3.285   5.321   0.220  0.2091  0.6535  0.0186
 1926SOL    HW2 7476   3.308   5.261   0.291 -0.6868  0.4180  0.1256
 1926SOL    HW3 7477   3.343   5.297   0.148 -0.2006 -0.4128  0.0308
 1926SOL    MW4 7478   3.296   5.310   0.220  0.0368  0.4817  0.0343
 1927SOL     OW 7479   5.451   6.400   2.896 -0.0276  0.1706 -0.0666
 1927SOL    HW2 7480   5.359   6.406   2.919 -0.4656 -0.4798 -1.5265
 1927SOL    HW3 7481   5.491   6.351   2.968 -1.1123 -0.8627 -0.1394
 1927SOL    MW4 7482   5.444   6.395   2.908 -0.2285 -0.0516 -0.2688
 1928SOL     OW 7483   5.762   1.899   6.075  0.9142 -0.5292  0.2745
 1928SOL    HW2 7484   5.712   1.831   6.031  1.6079 -0.9419  0.1094
 1928SOL    HW3 7485   5.815   1.939   6.005  1.0943 -0.3522  0.5099
 1928SOL    MW4 7486   5.763   1.895   6.060  1.0295 -0.5603  0.2838
 1929SOL     OW 7487   1.602   3.464   3.077  0.2626 -0.6333  0.1426
 1929SOL    HW2 7488   1.530   3.432   3.023 -0.3135 -0.3315  0.7198
 1929SOL    HW3 7489   1.656   3.387   3.093 -0.1579 -0.9497  0.0514
 1929SOL    MW4 7490   1.600   3.450   3.072  0.1311 -0.6353  0.2067
 1930SOL     OW 7491   4.718   3.495   1.264  0.2711  0.2055  0.2721
 1930SOL    HW2 7492   4.710   3.472   1.356 -0.3667 -0.4348  0.0726
 1930SOL    HW3 7493   4.738   3.412   1.220  0.0977  0.4149 -0.2157
 1930SOL    MW4 7494   4.719   3.481   1.270  0.1640  0.1486  0.1814
 1931SOL     OW 7495   2.559   4.557   5.430  0.6231 -0.3739 -0.3875
 1931SOL    HW2 7496   2.545   4.646   5.464 -2.7595 -0.8031 -0.3044
 1931SOL    HW3 7497   2.645   4.560   5.389  0.6164  2.9525 -0.4156
 1931SOL    MW4 7498   2.569   4.569   5.429  0.1759  0.0083 -0.3803
 1932SOL     OW 7499   3.446   6.177   4.703  0.1561 -0.3713 -0.3391
 1932SOL    HW2 7500   3.508   6.249   4.693 -0.6860  0.5550  0.8472
 1932SOL    HW3 7501   3.498   6.105   4.739  0.6813  0.1726  0.0130
 1932SOL    MW4 7502   3.461   6.177   4.706  0.1143 -0.1774 -0.1361
 1933SOL     OW 7503   4.849   4.837   4.871  0.4087 -0.1596  0.0262
 1933SOL    HW2 7504   4.888   4.924   4.877 -0.7424  0.3846 -0.1496
 1933SOL    HW3 7505   4.875   4.805   4.785 -0.7712  0.8389 -0.7358
 1933SOL    MW4 7506   4.857   4.844   4.860  0.1011  0.0439 -0.0975
 1934SOL     OW 7507   4.957   5.113   4.864 -0.0371  0.0542  0.3411
 1934SOL    HW2 7508   5.031   5.159   4.904  0.6536 -0.0464 -0.7829
 1934SOL    HW3 7509   4.882   5.139   4.917  0.4043  2.1561  0.0340
 1934SOL    MW4 7510   4.957   5.123   4.876  0.1122  0.3182  0.1522
 1935SOL     OW 7511   1.031   2.593   6.040  0.3143 -0.2864 -0.3938
 1935SOL    HW2 7512   1.105   2.601   6.100 -1.2227 -1.0643  1.7392
 1935SOL    HW3 7513   1.064   2.537   5.970  1.8036 -0.4393  0.3695
 1935SOL    MW4 7514   1.045   2.587   6.039  0.3080 -0.4092 -0.0117
 1936SOL     OW 7515   5.354   5.048   1.117 -0.6444 -0.8381 -0.1106
 1936SOL    HW2 7516   5.274   5.000   1.096 -1.2120  0.4142 -0.9346
 1936SOL    HW3 7517   5.332   5.100   1.194 -0.5995 -0.5710 -0.2753
 1936SOL    MW4 7518   5.341   5.048   1.124 -0.7134 -0.6376 -0.2410
 1937SOL     OW 7519   3.820   4.460   3.306  0.2270 -0.1154 -0.7513
 1937SOL    HW2 7520   3.884   4.465   3.235  1.2276 -2.8762 -0.1890
 1937SOL    HW3 7521   3.737   4.482   3.265  1.0325  0.1631 -2.3359
 1937SOL    MW4 7522   3.818   4.464   3.291  0.4653 -0.4429 -0.8862
 1938SOL     OW 7523   0.708   4.776   3.439 -0.4230  0.3160 -0.3320
 1938SOL    HW2 7524   0.757   4.837   3.494 -2.4492  1.0019  0.8372
 1938SOL    HW3 7525   0.679   4.830   3.365 -0.5098  0.2678 -0.3330
 1938SOL    MW4 7526   0.710   4.791   3.436 -0.7018  0.4001 -0.1779
 1939SOL     OW 7527   5.558   5.150   1.654  0.1100  0.3846  0.0527
 1939SOL    HW2 7528   5.532   5.191   1.736 -1.9358  0.1962 -0.4590
 1939SOL    HW3 7529   5.654   5.148   1.658  0.0766  0.6510  2.2847
 1939SOL    MW4 7530   5.567   5.155   1.665 -0.1643  0.3949  0.2797
 1940SOL     OW 7531   5.122   4.968   5.987  0.1578 -0.0919 -0.4445
 1940SOL    HW2 7532   5.150   5.058   5.971  0.2251 -0.0482 -0.0873
 1940SOL    HW3 7533   5.053   4.952   5.923 -1.1808  0.8378  0.7236
 1940SOL    MW4 7534   5.117   4.978   5.977 -0.0099  0.0365 -0.2432
 1941SOL     OW 7535   1.062   4.238   0.419  0.0160 -0.2565 -0.0479
 1941SOL    HW2 7536   1.060   4.218   0.326  2.2259 -1.3080  0.0770
 1941SOL    HW3 7537   0.971   4.226   0.448 -0.3364 -2.0124 -1.6612
 1941SOL    MW4 7538   1.049   4.233   0.411  0.2611 -0.6269 -0.2443
 1942SOL     OW 7539   2.921   5.271   2.754  0.2496  0.1259  0.0518
 1942SOL    HW2 7540   2.984   5.204   2.780  0.3151  0.3383  0.4411
 1942SOL    HW3 7541   2.837   5.225   2.748  0.3235 -0.0207  0.1691
 1942SOL    MW4 7542   2.918   5.256   2.757  0.2680  0.1346  0.1186
 1943SOL     OW 7543   5.407   2.763   1.643  0.0789 -0.1633  0.8541
 1943SOL    HW2 7544   5.329   2.819   1.637  0.1262 -0.2083 -0.5701
 1943SOL    HW3 7545   5.479   2.820   1.613  0.3204 -0.6053  0.5817
 1943SOL    MW4 7546   5.407   2.778   1.638  0.1170 -0.2275  0.6303
 1944SOL     OW 7547   0.529   5.808   3.346 -0.1201  0.0923  0.2862
 1944SOL    HW2 7548   0.595   5.791   3.413 -0.6101 -0.2832  0.6839
 1944SOL    HW3 7549   0.530   5.729   3.292  1.3726  1.0189 -1.1150
 1944SOL    MW4 7550   0.538   5.795   3.348  0.0122  0.1650  0.1538
 1945SOL     OW 7551   4.657   2.041   0.751  0.1479 -0.2443  1.0272
 1945SOL    HW2 7552   4.584   1.988   0.784 -0.2999 -1.6281 -1.8185
 1945SOL    HW3 7553   4.732   2.016   0.805 -0.8958 -0.8220  2.2702
 1945SOL    MW4 7554   4.657   2.031   0.762 -0.0489 -0.5031  0.8157
 1946SOL     OW 7555   3.401   5.163   0.959 -0.4418  0.0404  0.4246
 1946SOL    HW2 7556   3.333   5.099   0.937  0.0484 -0.7350  1.1296
 1946SOL    HW3 7557   3.367   5.246   0.925 -1.4290 -0.4527  0.1633
 1946SOL    MW4 7558   3.388   5.165   0.951 -0.5074 -0.1270  0.4832
 1947SOL     OW 7559   5.097   2.187   4.295  0.0325  0.2680 -0.3546
 1947SOL    HW2 7560   5.101   2.143   4.380  0.1157  0.2972 -0.3440
 1947SOL    HW3 7561   5.123   2.277   4.313 -2.7797  1.0846  0.1606
 1947SOL    MW4 7562   5.101   2.193   4.309 -0.3275  0.3796 -0.2852
 1948SOL     OW 7563   2.198   0.713   2.191 -0.2984  0.1279  0.3382
 1948SOL    HW2 7564   2.268   0.732   2.128 -0.8928  0.0676 -0.3558
 1948SOL    HW3 7565   2.244   0.691   2.272  0.4784  0.4495 -0.0027
 1948SOL    MW4 7566   2.213   0.713   2.194 -0.2743  0.1624  0.2016
 1949SOL     OW 7567   3.263   1.526   2.707  0.1253 -0.0758 -0.1870
 1949SOL    HW2 7568   3.344   1.493   2.668 -0.5066 -3.5668  1.1320
 1949SOL    HW3 7569   3.288   1.609   2.748  3.1634 -1.2454  0.5691
 1949SOL    MW4 7570   3.277   1.533   2.707  0.4428 -0.6907  0.0868
 1950SOL     OW 7571   5.425   4.266   4.311  0.0558  0.4553  0.3759
 1950SOL    HW2 7572   5.336   4.243   4.288 -0.0837  0.9701  0.3880
 1950SOL    HW3 7573   5.431   4.247   4.405  0.2922 -0.5925  0.1672
 1950SOL    MW4 7574   5.414   4.260   4.321  0.0686  0.3850  0.3500
 1951SOL     OW 7575   5.632   0.238   5.582 -0.4394  0.0616  0.4302
 1951SOL    HW2 7576   5.608   0.193   5.501 -1.1153  0.4091  0.4351
 1951SOL    HW3 7577   5.550   0.275   5.615 -0.1273  0.1453  1.1397
 1951SOL    MW4 7578   5.618   0.237   5.576 -0.4874  0.1185  0.5244
 1952SOL     OW 7579   4.147   2.598   4.338 -0.1319 -0.3968  0.3190
 1952SOL    HW2 7580   4.202   2.670   4.369 -0.3206 -0.1683  0.1269
 1952SOL    HW3 7581   4.073   2.641   4.296  0.7417 -0.6688 -1.5967
 1952SOL    MW4 7582   4.145   2.613   4.336 -0.0416 -0.4025  0.0409
 1953SOL     OW 7583   1.290   3.873   0.191 -0.4072  0.3779 -0.0660
 1953SOL    HW2 7584   1.378   3.908   0.202 -0.6565  0.4430  2.2700
 1953SOL    HW3 7585   1.302   3.778   0.183 -0.1600  0.2589  1.4796
 1953SOL    MW4 7586   1.303   3.865   0.191 -0.4075  0.3708  0.4462
 1954SOL     OW 7587   0.062   2.720   4.275 -0.0327 -0.4849  0.4872
 1954SOL    HW2 7588  -0.011   2.781   4.285  0.8509  0.3228  2.4295
 1954SOL    HW3 7589   0.020   2.634   4.264 -1.2759  0.0326  1.0326
 1954SOL    MW4 7590   0.047   2.716   4.275 -0.0802 -0.3100  0.8154
 1955SOL     OW 7591   1.749   0.777   3.974 -0.2499  0.0045 -0.0811
 1955SOL    HW2 7592   1.783   0.733   3.896 -1.4159 -0.5540 -0.2963
 1955SOL    HW3 7593   1.716   0.861   3.943  0.0856  0.1556 -0.0320
 1955SOL    MW4 7594   1.749   0.782   3.960 -0.3594 -0.0493 -0.1030
 1956SOL     OW 7595   1.951   6.017   3.120 -0.2072  0.5407  0.4250
 1956SOL    HW2 7596   1.871   6.054   3.081 -1.5060 -1.0714  1.4028
 1956SOL    HW3 7597   1.925   5.992   3.208  0.7784 -1.8886  0.1146
 1956SOL    MW4 7598   1.937   6.019   3.126 -0.2485  0.0075  0.5131
 1957SOL     OW 7599   1.708   2.523   3.457  0.0068  0.5960 -0.2880
 1957SOL    HW2 7600   1.789   2.573   3.465  0.3446  0.5789 -2.8344
 1957SOL    HW3 7601   1.640   2.589   3.448 -0.1438  0.5957  0.7196
 1957SOL    MW4 7602   1.710   2.539   3.457  0.0315  0.5937 -0.4910
 1958SOL     OW 7603   0.599   3.014   5.792 -0.1816  0.1234 -0.2211
 1958SOL    HW2 7604   0.588   3.108   5.803 -1.8357  0.2518 -2.2316
 1958SOL    HW3 7605   0.670   3.005   5.729  0.4063 -0.0134  0.4555
 1958SOL    MW4 7606   0.607   3.025   5.785 -0.3223  0.1223 -0.3971
 1959SOL     OW 7607   6.219   5.842   2.845 -0.1255  0.5193  0.3286
 1959SOL    HW2 7608   6.313   5.861   2.843 -0.4867  2.6865  0.8460
 1959SOL    HW3 7609   6.185   5.880   2.764 -0.4578 -1.0457 -0.2966
 1959SOL    MW4 7610   6.227   5.850   2.834 -0.2170  0.5988  0.3143
 1960SOL     OW 7611   4.180   6.009   4.998  0.8667 -0.1261 -0.1389
 1960SOL    HW2 7612   4.210   6.073   5.062  0.3208 -0.5022  0.5019
 1960SOL    HW3 7613   4.255   5.949   4.988  1.7918  1.1817 -1.5555
 1960SOL    MW4 7614   4.194   6.009   5.005  0.9167 -0.0031 -0.2413
 1961SOL     OW 7615   5.079   4.265   3.034 -0.2251 -0.1828 -0.0924
 1961SOL    HW2 7616   5.056   4.274   3.127 -1.0631 -3.1491  0.1183
 1961SOL    HW3 7617   5.175   4.261   3.034 -0.2176 -0.3067  0.6738
 1961SOL    MW4 7618   5.089   4.265   3.047 -0.3347 -0.5905  0.0365
 1962SOL     OW 7619   3.780   3.241   1.913 -0.3894 -0.4390  0.0532
 1962SOL    HW2 7620   3.794   3.166   1.971  0.5725 -1.0473 -0.9239
 1962SOL    HW3 7621   3.858   3.295   1.924 -1.6863  1.1922  1.8053
 1962SOL    MW4 7622   3.792   3.239   1.922 -0.4336 -0.3040  0.1555
 1963SOL     OW 7623   3.576   5.231   3.515  0.2650  0.2712  0.7258
 1963SOL    HW2 7624   3.492   5.217   3.559  0.6005 -1.0325  1.0125
 1963SOL    HW3 7625   3.606   5.316   3.547 -0.3953  0.2089  1.5464
 1963SOL    MW4 7626   3.569   5.240   3.525  0.2221  0.0909  0.8719
 1964SOL     OW 7627   2.115   1.165   0.124  0.0639  0.0748 -0.7390
 1964SOL    HW2 7628   2.146   1.233   0.065 -2.5176  2.3358  0.3134
 1964SOL    HW3 7629   2.029   1.140   0.089 -1.0595  0.7238  1.3950
 1964SOL    MW4 7630   2.107   1.170   0.111 -0.4249  0.4588 -0.3186
 1965SOL     OW 7631   2.795   3.154   2.620  0.0192 -0.4190  0.1288
 1965SOL    HW2 7632   2.749   3.214   2.561 -0.1486 -0.0299  0.6461
 1965SOL    HW3 7633   2.860   3.110   2.565 -0.5869 -0.5562 -0.4856
 1965SOL    MW4 7634   2.798   3.156   2.605 -0.0829 -0.3858  0.1160
 1966SOL     OW 7635   4.150   2.226   5.281  0.3195 -0.5138  0.0888
 1966SOL    HW2 7636   4.057   2.204   5.268 -0.3354  0.6056  2.3342
 1966SOL    HW3 7637   4.186   2.228   5.193 -1.6849 -1.4066 -0.8316
 1966SOL    MW4 7638   4.142   2.223   5.268 -0.0313 -0.4839  0.2636
 1967SOL     OW 7639   0.675   1.433   4.333 -0.7119  0.1238 -0.1335
 1967SOL    HW2 7640   0.617   1.406   4.262  0.1069 -1.4314 -0.2497
 1967SOL    HW3 7641   0.738   1.361   4.341  0.2392  1.0516  1.0351
 1967SOL    MW4 7642   0.676   1.420   4.324 -0.4784  0.0410  0.0054
 1968SOL     OW 7643   3.245   1.091   1.354  0.5021 -0.0103  0.2961
 1968SOL    HW2 7644   3.195   1.170   1.376  0.1567 -0.2596  0.4249
 1968SOL    HW3 7645   3.213   1.066   1.267  2.5047  1.4821 -0.9453
 1968SOL    MW4 7646   3.234   1.098   1.345  0.7207  0.1537  0.1493
 1969SOL     OW 7647   3.308   5.235   1.235 -0.1983  0.0472  0.2609
 1969SOL    HW2 7648   3.237   5.181   1.270  1.0289 -0.9797  1.2546
 1969SOL    HW3 7649   3.348   5.182   1.167 -0.9384  1.0098 -0.9739
 1969SOL    MW4 7650   3.304   5.221   1.231 -0.1341  0.0387  0.2291
 1970SOL     OW 7651   0.787   0.571   0.126 -0.3061  0.3025 -0.1082
 1970SOL    HW2 7652   0.860   0.605   0.074  0.0038 -0.2861 -0.0675
 1970SOL    HW3 7653   0.829   0.518   0.193 -0.8141 -0.7270 -0.5881
 1970SOL    MW4 7654   0.802   0.569   0.128 -0.3323  0.0890 -0.1661
 1971SOL     OW 7655   0.526   6.078   1.272 -0.0913  0.8632 -0.5174
 1971SOL    HW2 7656   0.478   6.023   1.210 -0.5802 -1.0444  1.4263
 1971SOL    HW3 7657   0.597   6.023   1.304  0.0383  1.7193  0.7480
 1971SOL    MW4 7658   0.529   6.064   1.268 -0.1387  0.7245 -0.0940
 1972SOL     OW 7659   0.832   1.273   5.985  0.5377  0.2283 -0.2029
 1972SOL    HW2 7660   0.777   1.201   6.017  1.7135  0.7218  3.4750
 1972SOL    HW3 7661   0.793   1.352   6.024  1.9399  0.9702 -0.2282
 1972SOL    MW4 7662   0.819   1.274   5.994  0.8779  0.3913  0.2790
 1973SOL     OW 7663   2.792   4.409   4.157 -0.1819 -0.2513  0.0521
 1973SOL    HW2 7664   2.795   4.324   4.201  0.2289 -0.2290  0.0712
 1973SOL    HW3 7665   2.793   4.473   4.229 -3.7678 -0.1917  0.2667
 1973SOL    MW4 7666   2.792   4.407   4.173 -0.6008 -0.2405  0.0829
 1974SOL     OW 7667   5.193   0.585   2.235  0.6291  0.2785 -0.0964
 1974SOL    HW2 7668   5.257   0.628   2.179  0.5854  0.2893 -0.1384
 1974SOL    HW3 7669   5.245   0.530   2.293  0.9041  2.1381  1.5358
 1974SOL    MW4 7670   5.208   0.584   2.235  0.6596  0.5253  0.1134
 1975SOL     OW 7671   2.711   4.526   4.875  0.1723  0.5550  0.4957
 1975SOL    HW2 7672   2.636   4.482   4.915  0.5705 -0.4096  0.1835
 1975SOL    HW3 7673   2.731   4.475   4.797  0.4334  1.4788 -0.0592
 1975SOL    MW4 7674   2.704   4.514   4.870  0.2593  0.5496  0.3813
 1976SOL     OW 7675   2.869   4.294   1.284 -0.4652  0.3335  0.0661
 1976SOL    HW2 7676   2.858   4.201   1.306 -0.3986  0.6982  1.7682
 1976SOL    HW3 7677   2.949   4.321   1.329 -0.0105  1.0341 -1.1069
 1976SOL    MW4 7678   2.878   4.285   1.293 -0.3964  0.4741  0.1359
 1977SOL     OW 7679   0.818   3.287   2.798  0.2950  0.2914  0.1475
 1977SOL    HW2 7680   0.724   3.269   2.793  0.8201 -3.9339  1.5974
 1977SOL    HW3 7681   0.852   3.261   2.712  0.3528 -0.1121  0.2897
 1977SOL    MW4 7682   0.810   3.281   2.786  0.3719 -0.3193  0.3575
 1978SOL     OW 7683   3.654   5.308   5.593 -0.1290 -0.6652 -0.3643
 1978SOL    HW2 7684   3.688   5.305   5.682  0.1862  0.6363 -0.4122
 1978SOL    HW3 7685   3.733   5.313   5.538 -0.3380  0.1572 -0.6055
 1978SOL    MW4 7686   3.669   5.308   5.597 -0.1150 -0.3850 -0.4025
 1979SOL     OW 7687   2.524   2.170   5.823  0.3584  1.0952  0.2759
 1979SOL    HW2 7688   2.502   2.182   5.915 -1.2331  0.7180 -0.0308
 1979SOL    HW3 7689   2.592   2.102   5.822  0.9773  1.6788  1.2018
 1979SOL    MW4 7690   2.530   2.163   5.835  0.2301  1.1225  0.3576
 1980SOL     OW 7691   6.248   4.631   5.235 -0.2583 -0.3939 -0.1272
 1980SOL    HW2 7692   6.221   4.700   5.296 -1.3644 -0.5115 -0.4715
 1980SOL    HW3 7693   6.225   4.666   5.149  1.7432 -0.0089 -0.5676
 1980SOL    MW4 7694   6.242   4.645   5.232 -0.1402 -0.3586 -0.2308
 1981SOL     OW 7695   5.229   2.951   1.544 -0.9995  0.1223  0.2006
 1981SOL    HW2 7696   5.152   2.957   1.488 -0.9726  2.9517  0.3127
 1981SOL    HW3 7697   5.256   3.042   1.557  2.5453 -0.7508 -0.0584
 1981SOL    MW4 7698   5.223   2.964   1.538 -0.5283  0.3804  0.1812
 1982SOL     OW 7699   0.961   6.214   5.479 -0.9934  0.1500  0.1670
 1982SOL    HW2 7700   0.888   6.245   5.533 -0.6945 -2.0465  1.9375
 1982SOL    HW3 7701   1.039   6.229   5.533 -0.2165  1.3217 -1.2049
 1982SOL    MW4 7702   0.962   6.220   5.493 -0.8515  0.0148  0.2196
 1983SOL     OW 7703   2.717   5.396   5.583 -1.0557  0.4101  0.3146
 1983SOL    HW2 7704   2.723   5.398   5.488  1.4822  1.5278  0.4322
 1983SOL    HW3 7705   2.781   5.330   5.610 -1.2337  0.6043  1.2790
 1983SOL    MW4 7706   2.726   5.387   5.574 -0.7443  0.5832  0.4573
 1984SOL     OW 7707   5.546   4.772   3.448  0.1813 -0.0903  0.5014
 1984SOL    HW2 7708   5.540   4.735   3.535 -2.4925  2.0514  1.3832
 1984SOL    HW3 7709   5.478   4.728   3.398 -0.1853  0.6410  0.3393
 1984SOL    MW4 7710   5.536   4.761   3.453 -0.2199  0.2887  0.5964
 1985SOL     OW 7711   2.847   0.617   2.415  0.7315  0.3558 -0.0934
 1985SOL    HW2 7712   2.892   0.696   2.443  1.4283  0.2145 -0.7847
 1985SOL    HW3 7713   2.908   0.546   2.433  0.8612  0.1755 -1.1589
 1985SOL    MW4 7714   2.861   0.618   2.421  0.8406  0.3134 -0.3252
 1986SOL     OW 7715   4.389   1.094   6.150 -0.0457 -0.1993  0.1693
 1986SOL    HW2 7716   4.470   1.091   6.201  0.1964  0.5101 -0.1555
 1986SOL    HW3 7717   4.327   1.142   6.205  0.5804  1.6475 -0.6624
 1986SOL    MW4 7718   4.392   1.100   6.164  0.0689  0.1379  0.0167
 1987SOL     OW 7719   2.655   0.975   5.273  0.3308  0.6943  0.2782
 1987SOL    HW2 7720   2.666   1.054   5.326  0.7141  1.1866 -0.5262
 1987SOL    HW3 7721   2.728   0.976   5.211  0.7104 -0.6254  0.6518
 1987SOL    MW4 7722   2.666   0.985   5.272  0.4315  0.5852  0.2214
 1988SOL     OW 7723   4.566   5.312   3.036  0.0503  0.7727 -0.2649
 1988SOL    HW2 7724   4.653   5.273   3.045 -0.8711 -1.3519  0.1365
 1988SOL    HW3 7725   4.551   5.314   2.941 -0.4525 -1.3673 -0.2809
 1988SOL    MW4 7726   4.576   5.307   3.024 -0.1376  0.2101 -0.2140
 1989SOL     OW 7727   0.093   0.199   0.341  0.0959 -0.4890  0.4544
 1989SOL    HW2 7728   0.054   0.287   0.348 -0.0353 -0.4764 -0.3636
 1989SOL    HW3 7729   0.057   0.152   0.416  0.0741  0.1235  0.8361
 1989SOL    MW4 7730   0.083   0.205   0.352  0.0757 -0.4065  0.3969
 1990SOL     OW 7731   0.596   3.410   3.514  0.2284 -0.3507 -0.3125
 1990SOL    HW2 7732   0.649   3.450   3.445 -0.2188  0.7082 -0.0562
 1990SOL    HW3 7733   0.514   3.459   3.512  0.2847 -0.1744  1.1122
 1990SOL    MW4 7734   0.592   3.421   3.504  0.1768 -0.1877 -0.0907
 1991SOL     OW 7735   2.615   1.478   5.493  0.3163 -0.1250  0.3357
 1991SOL    HW2 7736   2.543   1.530   5.528  0.4390  0.2069  0.0981
 1991SOL    HW3 7737   2.639   1.522   5.411  1.8481  0.7038  1.1902
 1991SOL    MW4 7738   2.609   1.490   5.487  0.5346  0.0281  0.4171
 1992SOL     OW 7739   1.953   6.144   1.851  0.6439 -0.2126 -0.3826
 1992SOL    HW2 7740   1.957   6.177   1.761 -0.4097  1.6488  0.2030
 1992SOL    HW3 7741   1.952   6.223   1.905 -0.4808 -1.2463  1.1718
 1992SOL    MW4 7742   1.954   6.159   1.846  0.3565 -0.1034 -0.1003
 1993SOL     OW 7743   4.584   6.378   1.611 -0.3274  0.1006  0.1132
 1993SOL    HW2 7744   4.515   6.335   1.662 -0.6533  1.1967  0.6165
 1993SOL    HW3 7745   4.569   6.471   1.624  0.5812  0.3704 -0.6835
 1993SOL    MW4 7746   4.573   6.384   1.619 -0.2505  0.2808  0.0745
 1994SOL     OW 7747   5.141   1.636   2.067  0.0474  0.2430 -0.3837
 1994SOL    HW2 7748   5.172   1.588   1.991 -0.5056  0.2700 -0.6332
 1994SOL    HW3 7749   5.046   1.629   2.063  0.0334 -0.2725  0.6507
 1994SOL    MW4 7750   5.133   1.629   2.057 -0.0274  0.1785 -0.2801
 1995SOL     OW 7751   0.868   3.658   1.194  0.5022  0.0946  0.4025
 1995SOL    HW2 7752   0.915   3.699   1.122  2.1912 -0.7798  0.9564
 1995SOL    HW3 7753   0.791   3.713   1.207  2.3474  2.7653  0.7634
 1995SOL    MW4 7754   0.864   3.670   1.186  0.9685  0.3316  0.5232
 1996SOL     OW 7755   3.695   4.195   2.183  0.2258  0.3969  0.0624
 1996SOL    HW2 7756   3.623   4.255   2.161  0.4280  0.5959 -0.0671
 1996SOL    HW3 7757   3.704   4.202   2.278  1.2112  1.7074 -0.0931
 1996SOL    MW4 7758   3.687   4.204   2.193  0.3825  0.5961  0.0248
 1997SOL     OW 7759   1.888   4.743   2.736 -0.0883  0.8344 -0.2842
 1997SOL    HW2 7760   1.928   4.788   2.811  0.8706  0.0213 -0.2863
 1997SOL    HW3 7761   1.854   4.813   2.681  0.3092  1.4936  0.2948
 1997SOL    MW4 7762   1.888   4.758   2.739  0.0907  0.8141 -0.2081
 1998SOL     OW 7763   4.406   0.988   5.022  0.0672 -0.3078  0.7001
 1998SOL    HW2 7764   4.333   1.000   5.082 -0.4831 -0.0322 -0.0195
 1998SOL    HW3 7765   4.469   1.056   5.047  0.3146 -0.8642  1.6509
 1998SOL    MW4 7766   4.405   0.998   5.033  0.0273 -0.3449  0.7306
 1999SOL     OW 7767   3.002   6.178   0.303 -0.3782  0.4587  0.0606
 1999SOL    HW2 7768   3.089   6.212   0.280 -0.6560  0.8934 -0.3527
 1999SOL    HW3 7769   2.958   6.167   0.219 -0.2945 -0.9527  0.1819
 1999SOL    MW4 7770   3.008   6.181   0.289 -0.4038  0.3298  0.0221
 2000SOL     OW 7771   1.479   4.016   4.637  0.3719  0.5090 -0.0882
 2000SOL    HW2 7772   1.542   3.949   4.663 -0.0989  0.0367 -0.1449
 2000SOL    HW3 7773   1.396   3.986   4.675  0.7062  2.6979  2.6707
 2000SOL    MW4 7774   1.476   4.003   4.645  0.3539  0.7355  0.2683
 2001SOL     OW 7775   2.161   2.831   3.775 -0.5197  0.2944 -0.2256
 2001SOL    HW2 7776   2.144   2.820   3.869  0.4874  0.4243 -0.0124
 2001SOL    HW3 7777   2.229   2.899   3.771  1.7383 -1.8463 -0.8148
 2001SOL    MW4 7778   2.168   2.838   3.787 -0.0889  0.0291 -0.2752
 2002SOL     OW 7779   0.165   4.329   0.474  0.2638  0.2898 -0.4161
 2002SOL    HW2 7780   0.072   4.348   0.465  0.0939 -0.1547  0.2866
 2002SOL    HW3 7781   0.185   4.352   0.565  0.9907  0.9995 -0.7442
 2002SOL    MW4 7782   0.155   4.334   0.485  0.3373  0.3248 -0.3667
 2003SOL     OW 7783   0.659   4.748   5.596 -0.1247 -0.2217 -0.1878
 2003SOL    HW2 7784   0.574   4.731   5.635 -0.0121 -1.4194 -0.4254
 2003SOL    HW3 7785   0.654   4.709   5.509  0.0301  1.3628 -0.9587
 2003SOL    MW4 7786   0.647   4.741   5.589 -0.0895 -0.1707 -0.3209
 2004SOL     OW 7787   3.956   0.764   5.537  0.0530  0.3248 -0.5820
 2004SOL    HW2 7788   3.924   0.768   5.627  2.1840 -0.8461  0.3109
 2004SOL    HW3 7789   3.880   0.739   5.485 -1.2678  1.2251  0.8515
 2004SOL    MW4 7790   3.942   0.761   5.542  0.1599  0.2891 -0.2751
 2005SOL     OW 7791   0.912   5.535   1.643 -0.1277 -0.2378 -0.0196
 2005SOL    HW2 7792   0.912   5.599   1.713 -0.0704 -0.9560  0.6556
 2005SOL    HW3 7793   0.914   5.450   1.688 -1.2075 -0.7362 -0.8600
 2005SOL    MW4 7794   0.912   5.532   1.658 -0.2626 -0.3983 -0.0414
 2006SOL     OW 7795   4.793   0.853   0.824  0.1098  0.0775  0.0354
 2006SOL    HW2 7796   4.888   0.853   0.833  0.0610 -1.4587  0.8860
 2006SOL    HW3 7797   4.777   0.832   0.732  0.5534  3.0123 -0.8200
 2006SOL    MW4 7798   4.803   0.850   0.813  0.1619  0.2621  0.0348
 2007SOL     OW 7799   5.115   0.250   2.551 -0.0447 -0.2525  0.4308
 2007SOL    HW2 7800   5.118   0.240   2.456 -0.2265  0.9512  0.2778
 2007SOL    HW3 7801   5.031   0.292   2.568  0.0772 -0.2666  1.1049
 2007SOL    MW4 7802   5.105   0.254   2.541 -0.0526 -0.0956  0.4996
 2008SOL     OW 7803   6.290   2.793   5.833 -0.1146 -0.2617  0.2937
 2008SOL    HW2 7804   6.341   2.845   5.770 -1.2938  2.8622  1.7017
 2008SOL    HW3 7805   6.201   2.793   5.799 -0.9167  2.0561  2.1344
 2008SOL    MW4 7806   6.285   2.800   5.820 -0.3760  0.4563  0.7224
 2009SOL     OW 7807   2.590   1.251   1.735  0.2849 -0.1659  0.3304
 2009SOL    HW2 7808   2.498   1.234   1.717 -0.2116  1.9172  0.6527
 2009SOL    HW3 7809   2.630   1.262   1.649  0.1350 -0.6130  0.2035
 2009SOL    MW4 7810   2.583   1.250   1.721  0.1996  0.0499  0.3562
 2010SOL     OW 7811   0.239   0.992   4.439 -0.1454 -0.8720 -0.5429
 2010SOL    HW2 7812   0.168   1.029   4.491  0.4445 -0.6278  0.1108
 2010SOL    HW3 7813   0.286   0.935   4.499  2.3467  1.6626  0.1760
 2010SOL    MW4 7814   0.236   0.990   4.454  0.2612 -0.5053 -0.3618
 2011SOL     OW 7815   3.807   1.162   3.436  0.4412 -0.2428  0.3630
 2011SOL    HW2 7816   3.769   1.235   3.387  1.0141 -0.0991  0.1328
 2011SOL    HW3 7817   3.851   1.109   3.370 -0.0991 -0.8802  0.5090
 2011SOL    MW4 7818   3.807   1.165   3.421  0.4455 -0.3079  0.3519
 2012SOL     OW 7819   2.899   3.571   6.392  0.0440  0.2310 -0.2995
 2012SOL    HW2 7820   2.953   3.648   6.376 -0.4569  0.5588 -0.4160
 2012SOL    HW3 7821   2.816   3.606   6.425 -0.4189 -0.2199 -0.9569
 2012SOL    MW4 7822   2.895   3.586   6.394 -0.0832  0.2148 -0.4016
 2013SOL     OW 7823   0.577   4.296   2.488 -0.0838 -0.4269 -0.0869
 2013SOL    HW2 7824   0.615   4.209   2.491  0.4973 -0.2096 -0.7846
 2013SOL    HW3 7825   0.484   4.283   2.509 -0.5372 -1.5444 -2.4780
 2013SOL    MW4 7826   0.570   4.283   2.491 -0.0670 -0.5457 -0.4944
 2014SOL     OW 7827   0.113   2.393   2.459  0.4891  0.6457  1.0106
 2014SOL    HW2 7828   0.055   2.458   2.418  0.8730  0.0401 -0.5651
 2014SOL    HW3 7829   0.136   2.431   2.543  0.8724  2.6783  0.0500
 2014SOL    MW4 7830   0.108   2.407   2.465  0.5903  0.8340  0.6759
 2015SOL     OW 7831   4.247   2.837   3.190 -0.1342 -0.1371 -0.0459
 2015SOL    HW2 7832   4.312   2.874   3.131  0.8270  0.4254  1.3045
 2015SOL    HW3 7833   4.229   2.907   3.253  1.3148 -1.7046  2.2526
 2015SOL    MW4 7834   4.253   2.851   3.191  0.1838 -0.2697  0.4355
 2016SOL     OW 7835   4.506   5.144   4.473 -0.3626 -0.1681  0.4454
 2016SOL    HW2 7836   4.419   5.114   4.446 -0.4050  0.3347  0.0009
 2016SOL    HW3 7837   4.524   5.219   4.416  1.1035 -1.3228 -0.6930
 2016SOL    MW4 7838   4.496   5.150   4.462 -0.1748 -0.2541  0.2366
 2017SOL     OW 7839   4.541   1.120   5.880  0.1149 -0.0735 -0.0362
 2017SOL    HW2 7840   4.606   1.186   5.855  0.6033 -0.0618  1.2104
 2017SOL    HW3 7841   4.496   1.158   5.955 -1.3175 -0.1126 -0.8454
 2017SOL    MW4 7842   4.544   1.134   5.886 -0.0097 -0.0771  0.0215
 2018SOL     OW 7843   1.388   0.567   3.057  0.2666 -0.1713 -0.2039
 2018SOL    HW2 7844   1.396   0.476   3.027  0.3197  0.2774 -1.6646
 2018SOL    HW3 7845   1.294   0.582   3.062  0.1735  0.3363 -2.2598
 2018SOL    MW4 7846   1.377   0.557   3.053  0.2613 -0.0451 -0.6679
 2019SOL     OW 7847   4.372   3.855   1.477  0.0732  0.3234  0.1130
 2019SOL    HW2 7848   4.416   3.783   1.431 -1.5533 -0.8561  0.3135
 2019SOL    HW3 7849   4.431   3.877   1.549  0.6006 -0.8273  0.0579
 2019SOL    MW4 7850   4.386   3.848   1.480 -0.0718  0.0160  0.1322
 2020SOL     OW 7851   2.823   1.729   3.926  0.7276  0.3561 -0.1993
 2020SOL    HW2 7852   2.817   1.792   3.998  1.3082  1.4193 -1.0643
 2020SOL    HW3 7853   2.735   1.730   3.887  1.4153  2.7431 -1.9097
 2020SOL    MW4 7854   2.810   1.737   3.930  0.8949  0.8113 -0.5391
 2021SOL     OW 7855   0.483   1.116   2.380 -0.1544 -0.8154 -0.3704
 2021SOL    HW2 7856   0.440   1.055   2.439 -0.2260 -0.2586  0.1575
 2021SOL    HW3 7857   0.573   1.121   2.412  0.7829 -3.0898 -2.3203
 2021SOL    MW4 7858   0.489   1.109   2.392 -0.0402 -1.0420 -0.5580
 2022SOL     OW 7859   0.326   4.419   3.853  0.5548 -0.3903 -0.4274
 2022SOL    HW2 7860   0.241   4.454   3.881 -0.1870 -1.2838 -1.4340
 2022SOL    HW3 7861   0.363   4.487   3.797  1.6892  1.0689  1.9113
 2022SOL    MW4 7862   0.319   4.432   3.849  0.6066 -0.3157 -0.2516
 2023SOL     OW 7863   5.193   0.705   4.815  0.1990 -0.1785  0.2430
 2023SOL    HW2 7864   5.166   0.745   4.733  1.7587  0.7458  0.1428
 2023SOL    HW3 7865   5.168   0.613   4.807 -0.7057  0.1444 -0.7776
 2023SOL    MW4 7866   5.186   0.698   4.803  0.2854 -0.0139  0.0951
 2024SOL     OW 7867   1.830   2.744   0.348  0.0500 -0.4819 -0.0973
 2024SOL    HW2 7868   1.832   2.677   0.415  2.4088 -1.0927 -0.6609
 2024SOL    HW3 7869   1.859   2.699   0.268  2.1117  1.1982 -0.4047
 2024SOL    MW4 7870   1.834   2.729   0.346  0.6332 -0.3408 -0.2122
 2025SOL     OW 7871   0.878   4.344   1.615  0.1181  0.1613 -0.1780
 2025SOL    HW2 7872   0.882   4.322   1.708 -2.1246 -0.9118 -0.2577
 2025SOL    HW3 7873   0.796   4.306   1.585  1.1615 -0.2247 -2.8119
 2025SOL    MW4 7874   0.868   4.336   1.623 -0.0401 -0.0312 -0.5360
 2026SOL     OW 7875   5.632   3.563   3.586  0.3616  0.1738  0.1048
 2026SOL    HW2 7876   5.661   3.498   3.522 -0.3322  0.5039 -0.5614
 2026SOL    HW3 7877   5.681   3.542   3.666 -0.4490 -1.6992  0.1592
 2026SOL    MW4 7878   5.642   3.552   3.588  0.1631 -0.0298  0.0240
 2027SOL     OW 7879   6.190   2.528   6.198 -0.6403  0.2115 -0.3253
 2027SOL    HW2 7880   6.134   2.470   6.147  0.4678  0.0399 -1.4088
 2027SOL    HW3 7881   6.262   2.550   6.139  1.4248 -1.0615  1.5657
 2027SOL    MW4 7882   6.192   2.523   6.184 -0.2216  0.0209 -0.2187
 2028SOL     OW 7883   3.480   4.853   4.426  0.3924  0.6854 -0.2792
 2028SOL    HW2 7884   3.573   4.857   4.449  0.2052  0.7467  0.5008
 2028SOL    HW3 7885   3.464   4.760   4.409  0.5174  0.6207 -0.0538
 2028SOL    MW4 7886   3.491   4.841   4.427  0.3842  0.6849 -0.1465
 2029SOL     OW 7887   2.660   3.565   0.929  0.3397 -0.7056 -0.8190
 2029SOL    HW2 7888   2.604   3.489   0.944  0.3975 -0.7115 -0.6348
 2029SOL    HW3 7889   2.641   3.591   0.839  0.5199 -1.1059 -0.9722
 2029SOL    MW4 7890   2.650   3.558   0.919  0.3711 -0.7592 -0.8149
 2030SOL     OW 7891   0.882   1.186   2.692 -0.4479 -0.2885 -0.4846
 2030SOL    HW2 7892   0.914   1.247   2.758  0.5117  0.6985 -1.8001
 2030SOL    HW3 7893   0.826   1.240   2.636 -0.0459 -0.7489 -1.3380
 2030SOL    MW4 7894   0.879   1.201   2.693 -0.2683 -0.2190 -0.7708
 2031SOL     OW 7895   0.343   5.495   0.869 -0.4878  0.6845  0.0513
 2031SOL    HW2 7896   0.280   5.430   0.898 -1.4068  0.6653 -1.8008
 2031SOL    HW3 7897   0.422   5.445   0.849 -0.4577  0.4580  0.7490
 2031SOL    MW4 7898   0.345   5.480   0.870 -0.6051  0.6521 -0.1010
 2032SOL     OW 7899   0.661   1.543   0.762 -0.1826 -0.4238 -0.1443
 2032SOL    HW2 7900   0.727   1.611   0.776 -1.7632  1.4772 -1.4053
 2032SOL    HW3 7901   0.691   1.496   0.684  0.8055 -1.0882  0.6062
 2032SOL    MW4 7902   0.674   1.546   0.753 -0.2608 -0.2606 -0.2116
 2033SOL     OW 7903   1.704   0.727   4.428  0.4173  0.1584  0.3553
 2033SOL    HW2 7904   1.691   0.653   4.488 -0.0264  1.0161  1.3424
 2033SOL    HW3 7905   1.689   0.690   4.341 -0.3485 -0.7923  0.8723
 2033SOL    MW4 7906   1.701   0.712   4.425  0.2577  0.1461  0.5537
 2034SOL     OW 7907   3.472   6.434   1.523 -0.0968  0.2287 -0.6182
 2034SOL    HW2 7908   3.454   6.342   1.540 -0.5203  0.2454 -0.9578
 2034SOL    HW3 7909   3.512   6.435   1.436  0.2702  0.3291 -0.4508
 2034SOL    MW4 7910   3.475   6.422   1.514 -0.1043  0.2441 -0.6409
 2035SOL     OW 7911   3.906   0.290   4.536 -0.1866  0.2974 -0.1579
 2035SOL    HW2 7912   3.874   0.199   4.531  1.0959 -0.2987  1.6368
 2035SOL    HW3 7913   3.842   0.334   4.592  1.1259 -0.4966  2.0977
 2035SOL    MW4 7914   3.893   0.284   4.542  0.1557  0.1140  0.3765
 2036SOL     OW 7915   3.732   3.550   3.553  0.6919  0.3478 -0.0599
 2036SOL    HW2 7916   3.765   3.477   3.501  0.1107  0.1686 -0.1834
 2036SOL    HW3 7917   3.764   3.534   3.642  1.8624  0.7614 -0.3862
 2036SOL    MW4 7918   3.741   3.538   3.558  0.7697  0.3788 -0.1192
 2037SOL     OW 7919   3.253   0.362   4.603  0.4655  0.2620 -0.0548
 2037SOL    HW2 7920   3.220   0.310   4.529  1.7441 -0.7624  0.0492
 2037SOL    HW3 7921   3.187   0.430   4.616 -1.0580 -1.0639 -0.4939
 2037SOL    MW4 7922   3.240   0.364   4.595  0.4332 -0.0481 -0.0990
 2038SOL     OW 7923   1.979   5.458   5.379 -0.0670  0.0130  0.1494
 2038SOL    HW2 7924   1.914   5.507   5.329 -1.2752 -0.8326  0.8526
 2038SOL    HW3 7925   2.060   5.507   5.367 -0.7864  0.9906 -0.8944
 2038SOL    MW4 7926   1.981   5.471   5.371 -0.3213  0.0304  0.1045
 2039SOL     OW 7927   4.466   1.884   0.878 -0.3720  0.4718 -0.1595
 2039SOL    HW2 7928   4.394   1.929   0.834 -0.4835  0.0886 -0.3762
 2039SOL    HW3 7929   4.467   1.921   0.966 -0.7298  0.5955 -0.2048
 2039SOL    MW4 7930   4.456   1.895   0.884 -0.4339  0.4375 -0.1941
 2040SOL     OW 7931   0.015   3.402   4.205 -0.2983  0.6940 -0.4723
 2040SOL    HW2 7932   0.065   3.458   4.264 -0.4683  0.3194  0.0406
 2040SOL    HW3 7933   0.057   3.316   4.212  0.1909  0.8294 -1.5351
 2040SOL    MW4 7934   0.027   3.398   4.214 -0.2562  0.6624 -0.5449
 2041SOL     OW 7935   1.787   4.584   2.957 -0.4364 -0.0541  0.4391
 2041SOL    HW2 7936   1.792   4.638   2.878 -0.9796 -0.6813 -0.0339
 2041SOL    HW3 7937   1.828   4.502   2.932  1.0464  0.3701  1.3768
 2041SOL    MW4 7938   1.793   4.581   2.944 -0.3124 -0.0809  0.5004
 2042SOL     OW 7939   4.356   1.321   5.115  0.4924 -0.0559  0.0171
 2042SOL    HW2 7940   4.337   1.414   5.132  0.8858  0.0960 -0.3478
 2042SOL    HW3 7941   4.270   1.280   5.110  0.3403 -0.0853  2.1108
 2042SOL    MW4 7942   4.342   1.328   5.116  0.5243 -0.0397  0.2452
 2043SOL     OW 7943   1.000   6.043   2.743  0.7923 -0.3275  0.6477
 2043SOL    HW2 7944   0.964   6.097   2.673  2.0818  0.6062  0.6765
 2043SOL    HW3 7945   1.091   6.027   2.717  1.5110  0.5913  2.3879
 2043SOL    MW4 7946   1.007   6.048   2.731  1.0573 -0.0831  0.8811
 2044SOL     OW 7947   3.139   1.653   5.121 -0.1181 -0.1984 -0.0072
 2044SOL    HW2 7948   3.117   1.569   5.161 -0.4343  0.8571  2.2050
 2044SOL    HW3 7949   3.196   1.631   5.047  0.2835 -2.3064  0.8696
 2044SOL    MW4 7950   3.144   1.639   5.116 -0.1068 -0.3373  0.4003
 2045SOL     OW 7951   1.809   5.275   1.282 -0.3621 -0.0920 -0.2895
 2045SOL    HW2 7952   1.750   5.217   1.330 -1.4889  2.0739  1.0870
 2045SOL    HW3 7953   1.760   5.302   1.205 -0.8783  1.0138  0.4019
 2045SOL    MW4 7954   1.795   5.271   1.278 -0.5789  0.3397 -0.0167
 2046SOL     OW 7955   0.372   1.089   6.420 -0.4255  0.1688  0.5455
 2046SOL    HW2 7956   0.350   1.168   6.468 -0.7304 -0.0903  0.8401
 2046SOL    HW3 7957   0.308   1.084   6.349 -0.8792 -0.2078  0.9762
 2046SOL    MW4 7958   0.361   1.099   6.417 -0.5256  0.0850  0.6412
 2047SOL     OW 7959   1.564   2.744   5.606  0.3499  0.6354  0.1205
 2047SOL    HW2 7960   1.621   2.809   5.563 -0.3826  1.3287  0.1807
 2047SOL    HW3 7961   1.493   2.731   5.543  0.2854  0.1927  0.2887
 2047SOL    MW4 7962   1.562   2.751   5.592  0.2447  0.6684  0.1506
 2048SOL     OW 7963   4.796   0.300   5.686  0.7036 -0.4443 -0.8237
 2048SOL    HW2 7964   4.761   0.389   5.691  0.2540 -0.6463 -0.2543
 2048SOL    HW3 7965   4.889   0.310   5.704  0.6385 -0.1027 -0.6732
 2048SOL    MW4 7966   4.804   0.313   5.689  0.6357 -0.4259 -0.7287
 2049SOL     OW 7967   4.004   3.705   4.959  0.0587 -0.1436 -0.0631
 2049SOL    HW2 7968   3.989   3.799   4.967 -1.4792 -0.2656 -0.9617
 2049SOL    HW3 7969   4.041   3.679   5.043 -0.8603  1.0454  0.7482
 2049SOL    MW4 7970   4.007   3.714   4.971 -0.2655 -0.0028 -0.0746
 2050SOL     OW 7971   2.656   3.272   6.238 -0.0558 -0.2331  0.5776
 2050SOL    HW2 7972   2.591   3.294   6.305 -0.8637 -0.4742 -0.1044
 2050SOL    HW3 7973   2.609   3.282   6.155  1.1112  0.7033 -0.0029
 2050SOL    MW4 7974   2.641   3.276   6.236 -0.0084 -0.1414  0.4110
 2051SOL     OW 7975   4.024   4.565   3.130  0.2579  0.1886 -0.5552
 2051SOL    HW2 7976   4.112   4.549   3.095 -0.4153 -1.7465 -1.5552
 2051SOL    HW3 7977   3.980   4.614   3.061  0.0235 -0.4531 -0.8726
 2051SOL    MW4 7978   4.030   4.569   3.116  0.1381 -0.1514 -0.7290
 2052SOL     OW 7979   0.675   4.004   1.681  0.4110  0.1458 -0.2676
 2052SOL    HW2 7980   0.737   4.046   1.740  2.8420 -0.1029 -2.4706
 2052SOL    HW3 7981   0.712   3.918   1.664 -1.0601 -0.3932 -0.9329
 2052SOL    MW4 7982   0.688   3.998   1.686  0.5376  0.0418 -0.6460
 2053SOL     OW 7983   0.248   4.109   4.378 -0.5275 -0.3279 -0.1265
 2053SOL    HW2 7984   0.177   4.078   4.434 -0.4991 -0.5005 -0.1882
 2053SOL    HW3 7985   0.272   4.194   4.415 -2.3200  0.8435 -1.4615
 2053SOL    MW4 7986   0.242   4.116   4.390 -0.7603 -0.1961 -0.3107
 2054SOL     OW 7987   6.400   6.248   2.732 -0.3559 -0.3436 -1.0494
 2054SOL    HW2 7988   6.443   6.182   2.676  2.2107  0.3657 -0.0539
 2054SOL    HW3 7989   6.462   6.321   2.734 -0.5960 -0.0839  2.1766
 2054SOL    MW4 7990   6.414   6.249   2.725 -0.0490 -0.2157 -0.4924
 2055SOL     OW 7991   3.279   4.260   2.259  0.2289 -0.7431  0.7409
 2055SOL    HW2 7992   3.204   4.317   2.271  0.2578 -0.1397 -1.5475
 2055SOL    HW3 7993   3.316   4.250   2.347 -1.4896  0.3447  1.6359
 2055SOL    MW4 7994   3.274   4.266   2.273  0.0060 -0.5200  0.5571
 2056SOL     OW 7995   3.722   2.049   5.715  0.0771  0.5697  0.6778
 2056SOL    HW2 7996   3.783   2.003   5.658 -1.3878 -0.9225  0.2282
 2056SOL    HW3 7997   3.671   2.105   5.656 -1.3633 -0.8921  0.4593
 2056SOL    MW4 7998   3.724   2.050   5.700 -0.3062  0.1800  0.5897
 2057SOL     OW 7999   2.725   1.121   2.798  0.4109  0.2823 -0.2412
 2057SOL    HW2 8000   2.634   1.121   2.769  0.2029  0.1456  0.3938
 2057SOL    HW3 8001   2.759   1.206   2.769 -0.0048  0.4581 -0.2226
 2057SOL    MW4 8002   2.717   1.132   2.790  0.3286  0.2875 -0.1549
 2058SOL     OW 8003   4.076   1.862   1.168  0.1659 -0.1103 -0.2807
 2058SOL    HW2 8004   4.097   1.781   1.122 -0.1306  0.2681 -1.0917
 2058SOL    HW3 8005   3.986   1.851   1.197 -1.1803  1.2700 -3.4597
 2058SOL    MW4 8006   4.067   1.850   1.166 -0.0509  0.1218 -0.8071
 2059SOL     OW 8007   4.607   3.927   4.049 -0.4768 -0.0456  0.1348
 2059SOL    HW2 8008   4.662   3.857   4.014 -0.3839  0.3106 -0.4489
 2059SOL    HW3 8009   4.522   3.886   4.063 -0.0828 -0.5821  0.9851
 2059SOL    MW4 8010   4.603   3.913   4.046 -0.4125 -0.0694  0.1700
 2060SOL     OW 8011   3.583   3.789   6.069 -0.8986 -0.6672  0.0585
 2060SOL    HW2 8012   3.622   3.875   6.063 -1.7205  0.6070  6.2299
 2060SOL    HW3 8013   3.489   3.804   6.060 -1.2038 -0.3789  2.7461
 2060SOL    MW4 8014   3.576   3.802   6.067 -1.0473 -0.4610  1.2274
 2061SOL     OW 8015   1.989   0.859   2.273 -0.3908  0.0317 -0.3891
 2061SOL    HW2 8016   2.061   0.803   2.243 -0.4359  0.3817 -1.1854
 2061SOL    HW3 8017   1.950   0.893   2.192 -0.1149  1.5367  0.0748
 2061SOL    MW4 8018   1.993   0.856   2.258 -0.3603  0.2765 -0.4330
 2062SOL     OW 8019   5.973   0.548   1.454 -0.7389  0.1580  0.2122
 2062SOL    HW2 8020   6.003   0.462   1.482  3.3672  1.8216  1.7601
 2062SOL    HW3 8021   5.965   0.540   1.359 -1.1327 -2.0654  0.3814
 2062SOL    MW4 8022   5.976   0.536   1.445 -0.2491  0.0842  0.4388
 2063SOL     OW 8023   5.302   6.105   2.928  0.3172 -0.6745 -0.4489
 2063SOL    HW2 8024   5.337   6.048   2.996 -0.9353 -2.0553 -0.9152
 2063SOL    HW3 8025   5.372   6.112   2.864 -0.2960 -3.7820 -1.6154
 2063SOL    MW4 8026   5.316   6.099   2.929  0.0710 -1.2667 -0.6643
 2064SOL     OW 8027   0.731   3.835   5.653 -0.0272 -0.3590 -0.1856
 2064SOL    HW2 8028   0.804   3.896   5.644 -2.0207  2.1699 -0.3944
 2064SOL    HW3 8029   0.730   3.813   5.746  0.6741 -0.0105 -0.0868
 2064SOL    MW4 8030   0.740   3.840   5.664 -0.1977  0.0207 -0.2001
 2065SOL     OW 8031   4.745   3.019   3.270  0.1378 -0.2214 -0.2269
 2065SOL    HW2 8032   4.739   2.960   3.344 -2.2739  0.6529  0.3752
 2065SOL    HW3 8033   4.764   2.963   3.195  2.5381 -1.1262  0.9744
 2065SOL    MW4 8034   4.747   3.004   3.270  0.1363 -0.2254  0.0110
 2066SOL     OW 8035   4.121   2.724   2.830 -0.1684  0.2477 -0.1502
 2066SOL    HW2 8036   4.085   2.812   2.843  0.0071  0.2824  0.0976
 2066SOL    HW3 8037   4.201   2.738   2.779  0.7943  0.4036  1.3430
 2066SOL    MW4 8038   4.127   2.738   2.825 -0.0182  0.2729  0.0795
 2067SOL     OW 8039   6.084   0.978   4.047  0.4907  0.1722  0.2882
 2067SOL    HW2 8040   6.006   1.020   4.011  0.9732  0.9580  0.1343
 2067SOL    HW3 8041   6.137   0.955   3.971 -0.0733 -1.3707  0.3313
 2067SOL    MW4 8042   6.081   0.981   4.032  0.4799  0.0723  0.2736
 2068SOL     OW 8043   5.263   4.825   4.191 -0.5569 -0.1059 -0.7725
 2068SOL    HW2 8044   5.211   4.750   4.217 -2.0870  0.0545 -3.0645
 2068SOL    HW3 8045   5.202   4.899   4.193  0.4923  0.7758 -0.1721
 2068SOL    MW4 8046   5.248   4.825   4.195 -0.6204  0.0316 -0.9957
 2069SOL     OW 8047   2.177   0.292   1.530 -0.3622 -0.0230 -0.2638
 2069SOL    HW2 8048   2.228   0.238   1.470 -1.8166 -0.5250 -1.0880
 2069SOL    HW3 8049   2.242   0.329   1.590  0.7663 -2.0416 -0.1587
 2069SOL    MW4 8050   2.192   0.290   1.530 -0.4052 -0.3556 -0.3587
 2070SOL     OW 8051   6.162   5.458   5.121 -0.0749 -0.0541 -0.6281
 2070SOL    HW2 8052   6.223   5.488   5.188 -0.3925 -2.0208  0.5835
 2070SOL    HW3 8053   6.075   5.479   5.156 -0.2010  0.3371 -1.1570
 2070SOL    MW4 8054   6.158   5.465   5.134 -0.1334 -0.2620 -0.5380
 2071SOL     OW 8055   4.230   5.665   4.885 -0.6791  0.6491  0.3083
 2071SOL    HW2 8056   4.264   5.619   4.808 -0.7042 -0.4270  0.9242
 2071SOL    HW3 8057   4.305   5.712   4.920 -0.4396  0.3627  0.1801
 2071SOL    MW4 8058   4.244   5.665   4.880 -0.6508  0.4693  0.3727
 2072SOL     OW 8059   3.407   1.768   1.903  0.2348  0.1853 -0.7294
 2072SOL    HW2 8060   3.491   1.794   1.940 -0.1814  0.6355 -0.0843
 2072SOL    HW3 8061   3.428   1.696   1.844  0.7618 -1.3643  1.2763
 2072SOL    MW4 8062   3.421   1.762   1.900  0.2495  0.0402 -0.3796
 2073SOL     OW 8063   5.828   4.004   4.127 -0.2577  0.5706  0.3588
 2073SOL    HW2 8064   5.806   3.961   4.044 -0.8959  0.2998  0.6641
 2073SOL    HW3 8065   5.744   4.028   4.165 -0.0594 -0.5189  1.5704
 2073SOL    MW4 8066   5.814   4.001   4.121 -0.3157  0.3912  0.5589
 2074SOL     OW 8067   6.169   4.192   0.085  0.0296  0.2173  0.1613
 2074SOL    HW2 8068   6.258   4.158   0.092  0.2283  0.9083  1.1363
 2074SOL    HW3 8069   6.175   4.262   0.020  0.9021  2.3904  2.4389
 2074SOL    MW4 8070   6.181   4.197   0.077  0.1709  0.5952  0.5904
 2075SOL     OW 8071   3.511   1.280   0.485  0.0037 -0.1085 -0.3514
 2075SOL    HW2 8072   3.439   1.271   0.422  0.5448 -1.5330 -0.8090
 2075SOL    HW3 8073   3.579   1.222   0.451  0.5643 -0.3814  1.1807
 2075SOL    MW4 8074   3.510   1.271   0.472  0.1491 -0.3325 -0.2096
 2076SOL     OW 8075   0.187   3.963   4.987 -0.3468  0.1755  0.0413
 2076SOL    HW2 8076   0.230   4.001   4.910 -1.1112 -1.5638 -1.3105
 2076SOL    HW3 8077   0.138   4.036   5.025 -2.2903  0.5410 -2.8193
 2076SOL    MW4 8078   0.186   3.978   4.982 -0.7040 -0.0057 -0.5145
 2077SOL     OW 8079   5.934   1.262   3.193 -0.2143  0.4314 -0.0981
 2077SOL    HW2 8080   6.011   1.313   3.166 -0.4101 -0.3840 -2.4814
 2077SOL    HW3 8081   5.952   1.173   3.162 -0.0843 -0.9708  3.5323
 2077SOL    MW4 8082   5.947   1.257   3.185 -0.2230  0.1388  0.0664
 2078SOL     OW 8083   2.815   4.765   3.324  0.0454  0.0358 -0.0422
 2078SOL    HW2 8084   2.829   4.801   3.236  1.0777 -0.5307 -0.1248
 2078SOL    HW3 8085   2.729   4.797   3.350 -0.4452 -0.1071 -1.4232
 2078SOL    MW4 8086   2.805   4.774   3.316  0.1169 -0.0578 -0.2353
 2079SOL     OW 8087   3.035   3.435   1.337 -0.5273  0.6520 -0.6272
 2079SOL    HW2 8088   2.991   3.378   1.274  0.0983  0.6616 -1.0791
 2079SOL    HW3 8089   3.115   3.463   1.293  0.3083  0.0532  0.4525
 2079SOL    MW4 8090   3.040   3.431   1.323 -0.3345  0.5743 -0.5444
 2080SOL     OW 8091   0.481   1.240   5.301  0.1004 -0.1347 -0.4865
 2080SOL    HW2 8092   0.518   1.157   5.331  2.3784  0.1999 -2.0871
 2080SOL    HW3 8093   0.506   1.303   5.368 -0.6421 -0.4920  0.1547
 2080SOL    MW4 8094   0.489   1.237   5.314  0.3030 -0.1377 -0.6131
 2081SOL     OW 8095   2.135   5.488   5.003 -0.0219 -0.6103  0.1868
 2081SOL    HW2 8096   2.112   5.481   5.095 -1.4015 -1.0496 -0.1733
 2081SOL    HW3 8097   2.057   5.523   4.960  0.8795  0.4176 -0.7040
 2081SOL    MW4 8098   2.122   5.492   5.009 -0.0850 -0.5326  0.0217
 2082SOL     OW 8099   0.490   6.060   0.451  0.5741  0.3022 -0.1367
 2082SOL    HW2 8100   0.466   6.146   0.486  2.0927  0.4912  0.5129
 2082SOL    HW3 8101   0.550   6.080   0.379 -0.6458 -0.1702 -1.3097
 2082SOL    MW4 8102   0.495   6.074   0.446  0.6135  0.2648 -0.2058
 2083SOL     OW 8103   1.745   1.472   5.977  0.2860 -0.3628 -0.3607
 2083SOL    HW2 8104   1.786   1.397   5.935  1.1342 -0.0987 -0.0277
 2083SOL    HW3 8105   1.770   1.547   5.922  0.9418 -0.0906  0.2954
 2083SOL    MW4 8106   1.753   1.472   5.964  0.4844 -0.2920 -0.2302
 2084SOL     OW 8107   2.889   5.541   4.507  0.0881 -0.0276  0.1202
 2084SOL    HW2 8108   2.885   5.455   4.549 -0.8780 -1.3066 -2.3540
 2084SOL    HW3 8109   2.813   5.542   4.449  2.2459  0.7652 -2.9470
 2084SOL    MW4 8110   2.878   5.530   4.505  0.2454 -0.0918 -0.6109
 2085SOL     OW 8111   2.732   0.165   2.673  0.1715 -0.4459 -0.2033
 2085SOL    HW2 8112   2.758   0.084   2.629  0.9648 -0.2673 -0.0923
 2085SOL    HW3 8113   2.737   0.145   2.767 -1.7484 -0.8975 -0.1546
 2085SOL    MW4 8114   2.736   0.152   2.680  0.0229 -0.4819 -0.1822
 2086SOL     OW 8115   5.522   1.962   5.279 -0.7346 -0.1771  0.2146
 2086SOL    HW2 8116   5.491   1.918   5.200  1.8396 -0.0665 -0.9720
 2086SOL    HW3 8117   5.536   2.053   5.252  0.1205 -0.1261  0.7739
 2086SOL    MW4 8118   5.520   1.968   5.265 -0.2821 -0.1558  0.1318
 2087SOL     OW 8119   4.589   2.648   0.087 -0.0909  0.1013 -0.9355
 2087SOL    HW2 8120   4.544   2.699   0.154  0.6390  0.7905 -0.9429
 2087SOL    HW3 8121   4.551   2.677   0.004 -0.1001  0.1920 -0.8989
 2087SOL    MW4 8122   4.578   2.659   0.085  0.0042  0.2042 -0.9316
 2088SOL     OW 8123   3.395   4.207   3.983  0.2145 -0.4944 -0.4689
 2088SOL    HW2 8124   3.333   4.212   3.911 -1.4607 -1.2989  0.8424
 2088SOL    HW3 8125   3.448   4.130   3.964 -1.5366 -1.9040  0.0830
 2088SOL    MW4 8126   3.394   4.197   3.971 -0.2376 -0.7865 -0.2231
 2089SOL     OW 8127   5.403   3.588   4.905 -0.0994  0.2886 -0.4414
 2089SOL    HW2 8128   5.407   3.527   4.979 -0.3397  0.2496 -0.4609
 2089SOL    HW3 8129   5.461   3.660   4.931  0.7735 -0.2796 -0.7315
 2089SOL    MW4 8130   5.412   3.589   4.918 -0.0159  0.2085 -0.4822
 2090SOL     OW 8131   3.959   0.855   0.220 -0.1841  0.0719  0.4518
 2090SOL    HW2 8132   3.909   0.898   0.150  0.0587 -0.2877  0.0493
 2090SOL    HW3 8133   3.951   0.914   0.295  0.1371  0.8189 -0.0844
 2090SOL    MW4 8134   3.951   0.868   0.220 -0.1097  0.1230  0.3279
 2091SOL     OW 8135   3.725   5.673   0.197 -0.1513 -0.3658  0.0607
 2091SOL    HW2 8136   3.700   5.685   0.106 -2.4006 -2.4496  0.2942
 2091SOL    HW3 8137   3.740   5.579   0.207  0.6154 -0.1224  1.7265
 2091SOL    MW4 8138   3.724   5.662   0.187 -0.3469 -0.6086  0.3113
 2092SOL     OW 8139   2.669   5.847   4.976  0.2666  0.0840 -0.2423
 2092SOL    HW2 8140   2.704   5.773   5.025  0.7755  0.5396  0.1021
 2092SOL    HW3 8141   2.622   5.808   4.903  1.4610 -0.5567 -0.6935
 2092SOL    MW4 8142   2.667   5.832   4.973  0.4913  0.0595 -0.2564
 2093SOL     OW 8143   6.059   0.377   0.232  0.3751 -0.3796 -0.2125
 2093SOL    HW2 8144   5.971   0.343   0.247  0.3919 -0.1190  0.4946
 2093SOL    HW3 8145   6.116   0.321   0.283  0.3724  0.8577  1.2216
 2093SOL    MW4 8146   6.055   0.365   0.240  0.3769 -0.1820  0.0700
 2094SOL     OW 8147   5.206   6.146   0.763 -0.0863  0.1714 -0.2868
 2094SOL    HW2 8148   5.126   6.141   0.711 -0.4433  0.1950  0.2545
 2094SOL    HW3 8149   5.186   6.096   0.842  0.4852  0.0581 -0.2134
 2094SOL    MW4 8150   5.193   6.138   0.767 -0.0580  0.1596 -0.2057
 2095SOL     OW 8151   0.680   0.811   5.447  0.7590 -0.4770 -0.0648
 2095SOL    HW2 8152   0.648   0.726   5.476 -0.2735 -0.1826 -0.3090
 2095SOL    HW3 8153   0.721   0.793   5.362  1.1785 -0.8459  0.2137
 2095SOL    MW4 8154   0.681   0.797   5.439  0.6781 -0.4868 -0.0603
 2096SOL     OW 8155   2.338   4.223   1.626  0.1423  0.4214  0.1769
 2096SOL    HW2 8156   2.308   4.173   1.702 -0.4563 -0.1182 -0.3993
 2096SOL    HW3 8157   2.414   4.271   1.657 -0.5545  0.8181  1.3351
 2096SOL    MW4 8158   2.344   4.223   1.640 -0.0286  0.4026  0.2537
 2097SOL     OW 8159   2.584   1.764   5.985 -0.0025 -0.0906 -0.0613
 2097SOL    HW2 8160   2.638   1.785   5.908  1.2353  1.0038  1.0566
 2097SOL    HW3 8161   2.616   1.679   6.014 -0.9061 -0.8068 -1.0977
 2097SOL    MW4 8162   2.596   1.756   5.978  0.0416 -0.0407 -0.0506
 2098SOL     OW 8163   1.104   2.031   2.418 -0.1534  0.6780  0.0190
 2098SOL    HW2 8164   1.162   1.988   2.480  2.4459  2.4596 -0.9855
 2098SOL    HW3 8165   1.021   2.042   2.465  0.7942 -0.5587  2.1056
 2098SOL    MW4 8166   1.100   2.027   2.432  0.3146  0.7499  0.1618
 2099SOL     OW 8167   0.166   1.149   0.959 -0.5428  0.3622  0.1981
 2099SOL    HW2 8168   0.112   1.198   1.021 -0.3983  0.2908  0.3831
 2099SOL    HW3 8169   0.253   1.190   0.965 -0.5991  0.5446 -0.1737
 2099SOL    MW4 8170   0.170   1.161   0.968 -0.5312  0.3769  0.1734
 2100SOL     OW 8171   3.014   3.469   1.605  0.6923  0.6853 -0.0359
 2100SOL    HW2 8172   3.020   3.452   1.511  0.3861 -1.1592  0.2378
 2100SOL    HW3 8173   2.920   3.461   1.625  1.0099 -1.5244  0.8185
 2100SOL    MW4 8174   3.002   3.466   1.595  0.6938  0.1504  0.1129
 2101SOL     OW 8175   2.859   5.810   0.149 -0.2129  0.2593  0.0250
 2101SOL    HW2 8176   2.797   5.856   0.093 -1.6653 -1.2694  0.2835
 2101SOL    HW3 8177   2.844   5.717   0.130  0.2348 -0.2419  1.9179
 2101SOL    MW4 8178   2.849   5.804   0.139 -0.3455 -0.0085  0.3088
 2102SOL     OW 8179   2.932   5.979   4.985 -0.8098 -0.5395  0.5820
 2102SOL    HW2 8180   2.849   5.932   4.985 -0.9430 -0.3066  0.7260
 2102SOL    HW3 8181   2.990   5.926   4.930 -0.4236 -1.8214  2.1362
 2102SOL    MW4 8182   2.929   5.966   4.978 -0.7764 -0.6779  0.8060
 2103SOL     OW 8183   5.545   6.187   4.660  0.4062  0.5171  0.4995
 2103SOL    HW2 8184   5.465   6.210   4.614 -0.9799 -2.0375  1.4515
 2103SOL    HW3 8185   5.521   6.186   4.753  1.7461  0.5009  0.8690
 2103SOL    MW4 8186   5.532   6.190   4.666  0.4001  0.1779  0.6739
 2104SOL     OW 8187   2.849   2.273   3.227  0.0689 -0.1018  0.8379
 2104SOL    HW2 8188   2.789   2.305   3.294  0.5581  1.0334  0.7535
 2104SOL    HW3 8189   2.925   2.330   3.233 -0.2910  0.7193 -1.3810
 2104SOL    MW4 8190   2.851   2.284   3.237  0.0859  0.1563  0.5340
 2105SOL     OW 8191   1.056   3.732   5.346  0.5646 -0.0829 -0.3687
 2105SOL    HW2 8192   1.025   3.813   5.306  1.4399 -0.4719 -1.9168
 2105SOL    HW3 8193   0.980   3.698   5.392  0.1702  1.5904  0.2856
 2105SOL    MW4 8194   1.042   3.738   5.346  0.6281  0.0865 -0.4866
 2106SOL     OW 8195   5.058   6.407   4.079 -0.2467 -0.1100 -0.3397
 2106SOL    HW2 8196   5.072   6.475   4.145  1.5162  1.6989 -2.4477
 2106SOL    HW3 8197   5.072   6.325   4.127  1.4476  1.1219  1.4576
 2106SOL    MW4 8198   5.062   6.405   4.094  0.2095  0.2912 -0.3807
 2107SOL     OW 8199   2.158   0.435   2.095 -0.3280  0.5092 -0.1175
 2107SOL    HW2 8200   2.089   0.476   2.043  0.7926 -0.0522 -2.1541
 2107SOL    HW3 8201   2.216   0.507   2.119 -2.0503  1.1645  2.5036
 2107SOL    MW4 8202   2.157   0.450   2.091 -0.4074  0.5216 -0.0404
 2108SOL     OW 8203   4.584   2.839   1.552 -0.3548 -0.0447  0.6453
 2108SOL    HW2 8204   4.661   2.894   1.563 -1.4323  1.3876  1.2705
 2108SOL    HW3 8205   4.541   2.873   1.474  0.9352 -2.5058 -1.2937
 2108SOL    MW4 8206   4.589   2.851   1.543 -0.3268 -0.1805  0.4720
 2109SOL     OW 8207   1.491   1.106   5.311 -0.1616 -0.1757  0.0784
 2109SOL    HW2 8208   1.494   1.194   5.274 -0.5076  0.0679  0.6167
 2109SOL    HW3 8209   1.574   1.095   5.357  0.4015 -0.5904 -0.9832
 2109SOL    MW4 8210   1.502   1.116   5.312 -0.1330 -0.1982  0.0094
 2110SOL     OW 8211   1.554   2.724   5.051 -0.7558  0.2705  0.0765
 2110SOL    HW2 8212   1.526   2.632   5.055  0.2183 -0.0033  0.7924
 2110SOL    HW3 8213   1.631   2.724   4.994 -1.5575  0.8695 -1.0506
 2110SOL    MW4 8214   1.560   2.712   5.044 -0.7331  0.3134  0.0222
 2111SOL     OW 8215   2.493   3.573   2.374  0.3219 -0.0962 -0.1659
 2111SOL    HW2 8216   2.416   3.587   2.318 -0.0537 -1.5542 -0.0611
 2111SOL    HW3 8217   2.520   3.661   2.400 -0.6225  0.5067 -1.1262
 2111SOL    MW4 8218   2.486   3.586   2.370  0.1477 -0.2091 -0.2788
 2112SOL     OW 8219   4.280   4.929   2.495  0.0715  0.1141 -0.1245
 2112SOL    HW2 8220   4.311   5.014   2.465 -2.0320  0.6293 -1.0281
 2112SOL    HW3 8221   4.215   4.949   2.562 -0.2512 -0.7724 -0.1554
 2112SOL    MW4 8222   4.275   4.943   2.500 -0.2486  0.0651 -0.2478
 2113SOL     OW 8223   6.163   0.395   3.343  0.3955  0.2359 -0.0314
 2113SOL    HW2 8224   6.129   0.396   3.253 -1.4651  0.9408  0.6140
 2113SOL    HW3 8225   6.139   0.309   3.377  3.5099 -1.1471 -0.9627
 2113SOL    MW4 8226   6.155   0.384   3.336  0.5609  0.1464 -0.0691
 2114SOL     OW 8227   3.960   1.074   4.606  0.2263 -0.2699 -0.5571
 2114SOL    HW2 8228   3.995   0.993   4.642  1.3974  0.9888  1.2880
 2114SOL    HW3 8229   3.974   1.139   4.675  0.1478  1.7101 -2.3244
 2114SOL    MW4 8230   3.966   1.072   4.620  0.3705  0.1574 -0.5468
 2115SOL     OW 8231   1.321   0.714   4.567 -0.0021 -0.5441 -0.2576
 2115SOL    HW2 8232   1.377   0.739   4.494 -0.7751  1.9191 -0.1127
 2115SOL    HW3 8233   1.382   0.690   4.637  0.9374  1.5344 -0.2736
 2115SOL    MW4 8234   1.336   0.714   4.567  0.0199  0.0551 -0.2406
 2116SOL     OW 8235   3.598   1.607   0.275  0.0585 -0.3169 -0.1915
 2116SOL    HW2 8236   3.612   1.701   0.259 -1.0723 -0.2597 -1.0325
 2116SOL    HW3 8237   3.676   1.579   0.322  0.7410  0.9042 -0.5279
 2116SOL    MW4 8238   3.610   1.616   0.279 -0.0007 -0.1483 -0.3468
 2117SOL     OW 8239   0.621   6.379   4.605  0.1966  0.3156  0.3518
 2117SOL    HW2 8240   0.704   6.427   4.598 -0.2264  1.1323  0.7465
 2117SOL    HW3 8241   0.644   6.288   4.589  1.0910  0.5972 -0.0406
 2117SOL    MW4 8242   0.635   6.374   4.602  0.2588  0.4605  0.3521
 2118SOL     OW 8243   0.340   5.860   3.730  0.2382  0.1103 -0.2740
 2118SOL    HW2 8244   0.248   5.855   3.754  0.6391 -2.9841  1.1942
 2118SOL    HW3 8245   0.382   5.902   3.804  0.1358  0.5945 -0.4895
 2118SOL    MW4 8246   0.333   5.865   3.743  0.2776 -0.2341 -0.1087
 2119SOL     OW 8247   2.232   1.367   4.533 -0.3077  0.1891  0.0782
 2119SOL    HW2 8248   2.327   1.359   4.528 -0.3381  0.2047 -0.5753
 2119SOL    HW3 8249   2.211   1.344   4.624  0.3725  0.8077  0.3992
 2119SOL    MW4 8250   2.241   1.363   4.545 -0.2220  0.2728  0.0343
 2120SOL     OW 8251   1.857   4.933   3.260 -0.0629 -0.4672 -0.4115
 2120SOL    HW2 8252   1.831   5.025   3.266 -0.7787 -0.7023  0.1373
 2120SOL    HW3 8253   1.777   4.887   3.233 -1.2679 -1.6372  4.2367
 2120SOL    MW4 8254   1.843   4.939   3.257 -0.3164 -0.6526  0.2742
 2121SOL     OW 8255   3.294   1.811   0.570  0.5322 -0.1572  0.0800
 2121SOL    HW2 8256   3.265   1.901   0.558  1.6579  0.5067  1.9177
 2121SOL    HW3 8257   3.242   1.779   0.644 -0.7914 -1.5117 -1.3388
 2121SOL    MW4 8258   3.283   1.819   0.578  0.5061 -0.2483  0.1352
 2122SOL     OW 8259   2.475   6.405   3.042 -0.0393 -0.8540  0.2828
 2122SOL    HW2 8260   2.469   6.386   2.948 -0.6626 -0.3675  0.2099
 2122SOL    HW3 8261   2.385   6.430   3.066 -0.6220 -3.8316  1.6554
 2122SOL    MW4 8262   2.462   6.406   3.033 -0.1984 -1.1827  0.4543
 2123SOL     OW 8263   0.950   1.427   4.100 -0.6016  0.0559 -0.0204
 2123SOL    HW2 8264   1.036   1.469   4.094  0.0752 -1.3966 -1.1650
 2123SOL    HW3 8265   0.947   1.392   4.189  1.0503 -1.9022 -0.6500
 2123SOL    MW4 8266   0.961   1.428   4.111 -0.2943 -0.3941 -0.2545
 2124SOL     OW 8267   0.194   1.245   5.323 -0.0525  0.1820  0.1554
 2124SOL    HW2 8268   0.194   1.163   5.373 -0.0634  0.3546  0.4392
 2124SOL    HW3 8269   0.286   1.261   5.303 -0.0805 -0.0851 -0.2118
 2124SOL    MW4 8270   0.206   1.236   5.327 -0.0577  0.1695  0.1444
 2125SOL     OW 8271   2.701   4.054   4.019  0.1214 -0.1189 -0.1560
 2125SOL    HW2 8272   2.710   3.981   3.959 -0.4946  1.0779 -1.7835
 2125SOL    HW3 8273   2.612   4.045   4.054 -0.4716  0.5779 -1.4159
 2125SOL    MW4 8274   2.690   4.043   4.016 -0.0381  0.1309 -0.5370
 2126SOL     OW 8275   5.627   4.943   1.918  0.2247 -0.5041  0.2625
 2126SOL    HW2 8276   5.577   4.978   1.992  0.0904 -1.2315  0.5146
 2126SOL    HW3 8277   5.676   5.019   1.885  0.4037 -0.2019  1.1874
 2126SOL    MW4 8278   5.627   4.958   1.923  0.2306 -0.5602  0.4178
 2127SOL     OW 8279   3.720   3.751   1.703 -0.1782 -0.2596  0.4229
 2127SOL    HW2 8280   3.810   3.719   1.709 -0.5534 -1.4565 -0.0517
 2127SOL    HW3 8281   3.696   3.738   1.612 -0.5184  0.9530  0.3344
 2127SOL    MW4 8282   3.729   3.745   1.692 -0.2726 -0.2575  0.3486
 2128SOL     OW 8283   6.151   5.481   3.580  0.0548  0.0618  0.1396
 2128SOL    HW2 8284   6.188   5.498   3.493  2.1509 -0.2207  0.9078
 2128SOL    HW3 8285   6.133   5.387   3.581  0.6795 -0.0639  0.2163
 2128SOL    MW4 8286   6.154   5.471   3.568  0.4138  0.0079  0.2510
 2129SOL     OW 8287   4.469   6.209   4.228  0.1611  0.4855 -0.0195
 2129SOL    HW2 8288   4.554   6.199   4.273 -0.8238 -1.7362  1.5553
 2129SOL    HW3 8289   4.409   6.237   4.297 -0.3851  2.2581 -1.1675
 2129SOL    MW4 8290   4.472   6.211   4.243 -0.0409  0.4262  0.0368
 2130SOL     OW 8291   4.451   5.843   0.640 -0.3958  0.4269  0.0697
 2130SOL    HW2 8292   4.393   5.823   0.566  0.6385 -0.7021 -0.4694
 2130SOL    HW3 8293   4.403   5.909   0.690 -2.2354 -0.5746 -0.2517
 2130SOL    MW4 8294   4.437   5.849   0.637 -0.5021  0.1458 -0.0438
 2131SOL     OW 8295   5.030   5.573   2.447 -0.6131 -0.8167 -0.0019
 2131SOL    HW2 8296   4.973   5.641   2.481 -0.8175 -0.5040 -0.9384
 2131SOL    HW3 8297   5.116   5.615   2.441 -0.6878 -0.7090 -0.3501
 2131SOL    MW4 8298   5.034   5.587   2.451 -0.6499 -0.7613 -0.1714
 2132SOL     OW 8299   3.197   2.645   0.321  0.1207 -0.4457 -0.7895
 2132SOL    HW2 8300   3.176   2.555   0.343 -0.4341 -0.6127 -1.8953
 2132SOL    HW3 8301   3.172   2.653   0.229 -0.2461  0.9573 -0.5911
 2132SOL    MW4 8302   3.191   2.634   0.311 -0.0009 -0.2826 -0.9092
 2133SOL     OW 8303   3.405   0.920   4.962 -0.1222 -0.2197 -0.3567
 2133SOL    HW2 8304   3.485   0.872   4.938  0.2777  0.3687 -0.2304
 2133SOL    HW3 8305   3.403   0.994   4.902  0.7592  1.1350  1.1921
 2133SOL    MW4 8306   3.416   0.923   4.951  0.0469  0.0367 -0.1357
 2134SOL     OW 8307   1.788   6.151   4.526 -0.1889 -0.1082  0.3521
 2134SOL    HW2 8308   1.833   6.214   4.471  0.8569 -0.3768  0.8673
 2134SOL    HW3 8309   1.699   6.147   4.491  0.4361 -0.2567 -1.2985
 2134SOL    MW4 8310   1.782   6.158   4.514  0.0315 -0.1633  0.2023
 2135SOL     OW 8311   4.152   3.658   2.873 -0.2799 -0.1005 -0.7034
 2135SOL    HW2 8312   4.079   3.652   2.935  1.8518 -0.1590  1.9652
 2135SOL    HW3 8313   4.172   3.566   2.851 -0.2701 -0.1318 -0.5591
 2135SOL    MW4 8314   4.145   3.645   2.878  0.0026 -0.1123 -0.3323
 2136SOL     OW 8315   0.843   1.606   2.567  0.4336 -0.4116  0.2174
 2136SOL    HW2 8316   0.779   1.677   2.565 -1.4206 -2.0134 -0.8815
 2136SOL    HW3 8317   0.886   1.610   2.481 -0.0781 -0.9527 -0.0676
 2136SOL    MW4 8318   0.841   1.616   2.555  0.1214 -0.6943  0.0348
 2137SOL     OW 8319   6.101   5.036   2.309 -0.4153 -0.0168  0.0360
 2137SOL    HW2 8320   6.053   5.037   2.226 -0.3985  0.0090  0.0263
 2137SOL    HW3 8321   6.186   5.075   2.288  0.8481 -2.9083 -0.6834
 2137SOL    MW4 8322   6.106   5.042   2.295 -0.2464 -0.3949 -0.0602
 2138SOL     OW 8323   0.183   0.748   1.662 -0.8937  0.2498  0.4735
 2138SOL    HW2 8324   0.122   0.679   1.637 -0.9489  0.9244 -1.4557
 2138SOL    HW3 8325   0.129   0.813   1.707 -1.3454  0.2288 -0.0277
 2138SOL    MW4 8326   0.168   0.747   1.665 -0.9606  0.3360  0.1529
 2139SOL     OW 8327   0.335   2.091   4.166 -0.1126  0.1999 -0.2998
 2139SOL    HW2 8328   0.342   2.081   4.261  0.2939  0.2973 -0.3186
 2139SOL    HW3 8329   0.413   2.048   4.131 -0.9948 -1.1436 -0.6877
 2139SOL    MW4 8330   0.346   2.084   4.174 -0.1753  0.0355 -0.3535
 2140SOL     OW 8331   1.533   4.466   2.953  0.6164  0.3022 -0.6056
 2140SOL    HW2 8332   1.482   4.477   3.033  1.5422  0.4144 -0.0250
 2140SOL    HW3 8333   1.614   4.514   2.968  0.7878  0.3708 -1.6333
 2140SOL    MW4 8334   1.537   4.473   2.965  0.7611  0.3261 -0.6646
 2141SOL     OW 8335   5.038   0.152   5.227  0.0015  0.4763  0.1123
 2141SOL    HW2 8336   5.097   0.082   5.199  0.0782 -0.0346  1.5188
 2141SOL    HW3 8337   5.096   0.219   5.262 -0.2102  0.2023  1.0041
 2141SOL    MW4 8338   5.054   0.152   5.228 -0.0163  0.3728  0.4155
 2142SOL     OW 8339   0.027   3.305   3.718  0.1163 -0.0705 -0.6036
 2142SOL    HW2 8340  -0.063   3.333   3.698 -0.1072  0.5707  1.1361
 2142SOL    HW3 8341   0.082   3.370   3.675 -0.3173  0.7661  0.0830
 2142SOL    MW4 8342   0.022   3.317   3.709  0.0296  0.1245 -0.2835
 2143SOL     OW 8343   1.912   0.559   0.751  0.0583  0.7121  0.6848
 2143SOL    HW2 8344   1.917   0.620   0.825 -1.2440  0.8131  0.7040
 2143SOL    HW3 8345   1.876   0.479   0.790  0.8449  0.2379  0.4617
 2143SOL    MW4 8346   1.908   0.556   0.766 -0.0097  0.6629  0.6579
 2144SOL     OW 8347   4.198   1.750   5.536 -0.3480  0.5649  0.2254
 2144SOL    HW2 8348   4.189   1.831   5.485  1.2072  0.5906 -0.0745
 2144SOL    HW3 8349   4.126   1.694   5.507 -0.6343  1.3245 -0.5570
 2144SOL    MW4 8350   4.188   1.753   5.526 -0.1806  0.6685  0.0826
 2145SOL     OW 8351   2.432   2.744   1.251 -0.1821 -0.1916  0.5424
 2145SOL    HW2 8352   2.392   2.704   1.174 -1.1181  1.4367  0.1294
 2145SOL    HW3 8353   2.359   2.753   1.313 -0.0513  0.9926  0.5502
 2145SOL    MW4 8354   2.417   2.740   1.249 -0.2884  0.1794  0.4889
 2146SOL     OW 8355   0.552   0.171   2.480  0.1329  0.0225 -0.2180
 2146SOL    HW2 8356   0.620   0.169   2.547 -0.7806 -0.7830  0.7078
 2146SOL    HW3 8357   0.583   0.111   2.412  0.2341 -0.5547  0.3284
 2146SOL    MW4 8358   0.565   0.163   2.479  0.0257 -0.1599 -0.0238
 2147SOL     OW 8359   5.701   5.761   0.970  0.5071 -0.7680  0.3846
 2147SOL    HW2 8360   5.732   5.740   0.882  2.5515  0.4614  0.7517
 2147SOL    HW3 8361   5.692   5.676   1.013 -0.1380 -1.3608 -0.8584
 2147SOL    MW4 8362   5.704   5.747   0.964  0.6917 -0.6840  0.2690
 2148SOL     OW 8363   4.058   4.480   0.625 -0.5819 -0.7289  0.2378
 2148SOL    HW2 8364   4.027   4.562   0.663  1.9212  0.8290 -0.8386
 2148SOL    HW3 8365   4.050   4.416   0.696  0.1017  1.1013  2.0672
 2148SOL    MW4 8366   4.053   4.482   0.639 -0.1615 -0.2819  0.3371
 2149SOL     OW 8367   5.839   1.649   1.888 -0.0273  0.6488 -0.1390
 2149SOL    HW2 8368   5.931   1.664   1.866 -0.0708  0.5771 -0.3787
 2149SOL    HW3 8369   5.842   1.597   1.968  0.1742 -0.4926 -0.8578
 2149SOL    MW4 8370   5.851   1.644   1.895 -0.0065  0.4887 -0.2655
 2150SOL     OW 8371   3.241   4.617   3.918 -0.3570 -0.0381  0.3012
 2150SOL    HW2 8372   3.248   4.522   3.914 -0.2290  0.0119 -1.5663
 2150SOL    HW3 8373   3.214   4.643   3.830  0.4460  1.7160  0.5241
 2150SOL    MW4 8374   3.238   4.608   3.906 -0.2342  0.1999  0.0842
 2151SOL     OW 8375   0.413   2.566   4.592  0.1518  0.2954  0.4700
 2151SOL    HW2 8376   0.376   2.478   4.601 -0.1185  0.3000 -0.5494
 2151SOL    HW3 8377   0.344   2.617   4.551  1.0586  0.4437 -0.9366
 2151SOL    MW4 8378   0.399   2.561   4.588  0.2357  0.3155  0.1499
 2152SOL     OW 8379   2.687   2.317   4.343  0.3230  0.0573 -0.0502
 2152SOL    HW2 8380   2.608   2.367   4.321  1.5448  1.7772 -0.6816
 2152SOL    HW3 8381   2.714   2.277   4.260 -1.0811 -2.4330  0.5868
 2152SOL    MW4 8382   2.680   2.318   4.329  0.2989 -0.0443 -0.0494
 2153SOL     OW 8383   1.278   2.225   4.818 -0.4802 -0.9817  0.1707
 2153SOL    HW2 8384   1.349   2.245   4.756 -0.1651 -0.3029  0.7287
 2153SOL    HW3 8385   1.202   2.271   4.782 -0.2209 -0.3228  0.4345
 2153SOL    MW4 8386   1.277   2.234   4.805 -0.4044 -0.8052  0.2791
 2154SOL     OW 8387   6.158   5.943   1.852 -0.1399 -0.3265  0.0595
 2154SOL    HW2 8388   6.141   5.973   1.941 -2.6055  1.1430 -0.8033
 2154SOL    HW3 8389   6.195   6.019   1.807 -0.5307 -0.5071 -0.5849
 2154SOL    MW4 8390   6.161   5.957   1.858 -0.5168 -0.1564 -0.1394
 2155SOL     OW 8391   0.362   1.360   0.806  0.3034 -0.3246 -0.0666
 2155SOL    HW2 8392   0.407   1.363   0.890  2.0093  2.4791 -0.9519
 2155SOL    HW3 8393   0.409   1.293   0.756  2.3728  1.1741 -0.2835
 2155SOL    MW4 8394   0.374   1.352   0.811  0.8015  0.2430 -0.2120
 2156SOL     OW 8395   6.141   5.468   2.410 -0.4025 -0.2630 -0.3689
 2156SOL    HW2 8396   6.201   5.453   2.483  0.8123 -2.5178 -1.7142
 2156SOL    HW3 8397   6.073   5.401   2.420  0.9215 -2.0649 -2.3202
 2156SOL    MW4 8398   6.140   5.457   2.421 -0.0675 -0.7983 -0.8038
 2157SOL     OW 8399   1.493   5.927   3.259 -0.5423 -0.0338 -0.1337
 2157SOL    HW2 8400   1.413   5.890   3.222 -0.1239 -1.5218  0.3888
 2157SOL    HW3 8401   1.541   5.960   3.184 -0.4709 -1.4896 -0.7543
 2157SOL    MW4 8402   1.489   5.926   3.244 -0.4777 -0.4222 -0.1467
 2158SOL     OW 8403   0.886   2.951   1.041 -0.8230 -0.1464  0.2417
 2158SOL    HW2 8404   0.980   2.943   1.024 -1.0262 -0.9501 -0.5950
 2158SOL    HW3 8405   0.875   3.038   1.080  0.0958  0.4744 -0.8516
 2158SOL    MW4 8406   0.897   2.961   1.044 -0.7286 -0.1706 -0.0129
 2159SOL     OW 8407   4.968   5.620   5.944  0.8715  0.1691  0.2212
 2159SOL    HW2 8408   4.938   5.538   5.906  2.2873 -0.3202  0.1350
 2159SOL    HW3 8409   4.888   5.660   5.980 -0.0992 -0.4467 -1.1727
 2159SOL    MW4 8410   4.953   5.615   5.944  0.9303  0.0233  0.0259
 2160SOL     OW 8411   3.155   4.548   5.719 -0.2328  0.1334 -0.1358
 2160SOL    HW2 8412   3.152   4.554   5.623 -2.0763  0.6926 -0.0743
 2160SOL    HW3 8413   3.066   4.523   5.744  0.6075 -1.5476  1.3550
 2160SOL    MW4 8414   3.143   4.545   5.710 -0.3652 -0.0146  0.0690
 2161SOL     OW 8415   3.675   4.119   4.144 -0.3095 -0.4779  0.1561
 2161SOL    HW2 8416   3.732   4.070   4.203  2.1185  0.5006 -1.2391
 2161SOL    HW3 8417   3.656   4.058   4.073  0.3715 -0.2983 -0.1839
 2161SOL    MW4 8418   3.680   4.104   4.143  0.1007 -0.3251 -0.0729
 2162SOL     OW 8419   6.255   3.876   1.389 -0.4214  0.1154  0.3870
 2162SOL    HW2 8420   6.254   3.898   1.482 -1.1311  3.1251 -0.2297
 2162SOL    HW3 8421   6.344   3.900   1.360 -0.2062 -0.7995  0.2730
 2162SOL    MW4 8422   6.267   3.882   1.397 -0.4867  0.3918  0.2906
 2163SOL     OW 8423   3.241   4.730   0.425  0.7220  0.5997 -1.0573
 2163SOL    HW2 8424   3.236   4.756   0.333 -0.2926 -0.8647 -1.4410
 2163SOL    HW3 8425   3.324   4.684   0.433  1.8481  2.5878 -0.7014
 2163SOL    MW4 8426   3.251   4.728   0.414  0.7367  0.6688 -1.0609
 2164SOL     OW 8427   2.125   3.276   3.251  0.2350  0.1398  0.2280
 2164SOL    HW2 8428   2.123   3.201   3.310 -0.6032 -0.9235 -1.0986
 2164SOL    HW3 8429   2.034   3.303   3.242  0.5108  1.2502  0.5720
 2164SOL    MW4 8430   2.113   3.270   3.258  0.1608  0.1460  0.0984
 2165SOL     OW 8431   5.228   0.170   2.294  1.1301 -0.0697 -0.1606
 2165SOL    HW2 8432   5.146   0.122   2.282  0.1838  0.8922  2.0326
 2165SOL    HW3 8433   5.296   0.109   2.265 -0.3376 -0.7279 -2.4319
 2165SOL    MW4 8434   5.226   0.155   2.289  0.8116 -0.0297 -0.1709
 2166SOL     OW 8435   5.189   4.330   2.694 -0.2459 -0.2154 -0.0369
 2166SOL    HW2 8436   5.196   4.240   2.726  1.4948  0.3923  1.4699
 2166SOL    HW3 8437   5.247   4.380   2.752 -2.9537  2.2999  0.7112
 2166SOL    MW4 8438   5.198   4.325   2.706 -0.3735  0.1966  0.2606
 2167SOL     OW 8439   0.963   0.125   5.684  0.0618 -0.1567  0.5896
 2167SOL    HW2 8440   0.992   0.052   5.738  0.3580  0.1151  0.8005
 2167SOL    HW3 8441   1.011   0.116   5.602  0.5426  0.1410  0.8382
 2167SOL    MW4 8442   0.973   0.114   5.680  0.1643 -0.0816  0.6502
 2168SOL     OW 8443   3.234   1.572   0.219 -0.1143 -0.0208  0.0105
 2168SOL    HW2 8444   3.235   1.478   0.201 -1.4487 -0.4009  1.6316
 2168SOL    HW3 8445   3.296   1.584   0.291 -0.8449  0.1162  0.6352
 2168SOL    MW4 8446   3.242   1.562   0.226 -0.3868 -0.0529  0.3068
 2169SOL     OW 8447   4.881   2.652   0.327  0.1419  0.1848  0.3623
 2169SOL    HW2 8448   4.941   2.700   0.270  0.4822  0.2323  0.7626
 2169SOL    HW3 8449   4.908   2.675   0.416 -0.3087  0.0095  0.5448
 2169SOL    MW4 8450   4.892   2.661   0.331  0.1274  0.1679  0.4392
 2170SOL     OW 8451   0.908   2.828   1.456 -0.2555 -0.3225 -0.8131
 2170SOL    HW2 8452   0.957   2.753   1.490  1.0289  1.2699  1.1263
 2170SOL    HW3 8453   0.968   2.867   1.392 -1.1359 -1.1810 -2.2149
 2170SOL    MW4 8454   0.923   2.823   1.452 -0.2022 -0.2257 -0.7422
 2171SOL     OW 8455   0.065   5.857   5.573  0.5869 -0.0392  0.4839
 2171SOL    HW2 8456   0.006   5.794   5.531  0.2890 -0.1928  1.1171
 2171SOL    HW3 8457   0.023   5.877   5.657  0.8101  0.8125  0.3955
 2171SOL    MW4 8458   0.052   5.851   5.579  0.5771  0.0529  0.5558
 2172SOL     OW 8459   1.170   6.081   1.390 -0.0246 -0.1655 -0.9531
 2172SOL    HW2 8460   1.129   6.006   1.434 -2.0501  0.7586 -1.1613
 2172SOL    HW3 8461   1.228   6.041   1.325 -1.8482 -1.5959 -1.7906
 2172SOL    MW4 8462   1.172   6.066   1.388 -0.5324 -0.2323 -1.0911
 2173SOL     OW 8463   2.937   2.354   5.756  0.1778  0.2654 -0.1579
 2173SOL    HW2 8464   2.980   2.324   5.676  1.9027  1.2654  0.3300
 2173SOL    HW3 8465   2.923   2.274   5.807 -0.2581 -0.2923 -1.1398
 2173SOL    MW4 8466   2.941   2.339   5.752  0.3479  0.3238 -0.2231
 2174SOL     OW 8467   0.505   0.283   0.282  0.5794  0.4166 -0.1045
 2174SOL    HW2 8468   0.502   0.358   0.222  1.6328  1.2053  0.7933
 2174SOL    HW3 8469   0.566   0.222   0.241  2.8955  1.8242  1.0672
 2174SOL    MW4 8470   0.512   0.285   0.268  1.0240  0.7064  0.1686
 2175SOL     OW 8471   0.169   2.457   0.203 -0.2778  0.4923  0.1239
 2175SOL    HW2 8472   0.225   2.510   0.260 -0.2923 -0.2034  0.7862
 2175SOL    HW3 8473   0.098   2.426   0.260 -0.1895 -0.3652 -0.2193
 2175SOL    MW4 8474   0.167   2.460   0.218 -0.2681  0.2874  0.1660
 2176SOL     OW 8475   4.134   2.432   4.081  0.3699  0.0066 -0.2759
 2176SOL    HW2 8476   4.062   2.370   4.093  1.1906 -0.6016  2.1954
 2176SOL    HW3 8477   4.145   2.473   4.167  1.6212  1.6332 -1.1453
 2176SOL    MW4 8478   4.126   2.429   4.094  0.6433  0.1409 -0.0645
 2177SOL     OW 8479   0.908   5.436   2.068  0.2244  0.6930 -0.2648
 2177SOL    HW2 8480   0.850   5.362   2.052 -1.1913  1.2580  1.8952
 2177SOL    HW3 8481   0.853   5.514   2.054  0.5974  1.2519  1.2187
 2177SOL    MW4 8482   0.893   5.437   2.064  0.0869  0.8413  0.2159
 2178SOL     OW 8483   0.164   3.362   4.862 -0.5499  0.3862  0.2699
 2178SOL    HW2 8484   0.162   3.447   4.905 -0.7840 -0.0827  1.2115
 2178SOL    HW3 8485   0.257   3.341   4.853 -0.5067  0.2665  0.9979
 2178SOL    MW4 8486   0.176   3.371   4.866 -0.5751  0.3085  0.4902
 2179SOL     OW 8487   3.980   2.171   0.387 -0.7955 -0.3126 -0.7485
 2179SOL    HW2 8488   4.066   2.213   0.386 -0.8210 -0.2096  0.5277
 2179SOL    HW3 8489   3.995   2.084   0.423 -1.4199  0.2022  0.8364
 2179SOL    MW4 8490   3.993   2.165   0.392 -0.8813 -0.2311 -0.3710
 2180SOL     OW 8491   0.289   2.355   0.872  0.2493  0.4121  0.2914
 2180SOL    HW2 8492   0.383   2.368   0.877  0.0903  1.1770  2.2133
 2180SOL    HW3 8493   0.279   2.272   0.826  1.8294  0.5829 -0.4202
 2180SOL    MW4 8494   0.300   2.345   0.867  0.4368  0.5355  0.4511
 2181SOL     OW 8495   0.158   5.310   3.264 -0.4188  0.1393  0.4259
 2181SOL    HW2 8496   0.185   5.367   3.193  0.8177 -1.1208 -0.1739
 2181SOL    HW3 8497   0.070   5.282   3.241 -0.6805  1.0598  0.2755
 2181SOL    MW4 8498   0.150   5.313   3.252 -0.2902  0.0945  0.3269
 2182SOL     OW 8499   1.612   1.759   5.329 -0.3838  0.0170 -0.0016
 2182SOL    HW2 8500   1.700   1.733   5.300 -0.1362  1.8632 -1.0421
 2182SOL    HW3 8501   1.609   1.733   5.421  0.8339 -1.0903 -0.2435
 2182SOL    MW4 8502   1.623   1.752   5.337 -0.1905  0.1145 -0.1708
 2183SOL     OW 8503   1.642   5.345   5.336  0.0898  0.1806  0.2455
 2183SOL    HW2 8504   1.659   5.375   5.247 -1.1745  1.3906  0.3890
 2183SOL    HW3 8505   1.577   5.275   5.326  0.5062 -0.2012  0.1725
 2183SOL    MW4 8506   1.636   5.339   5.323 -0.0221  0.2899  0.2548
 2184SOL     OW 8507   0.074   1.835   6.291 -0.3121 -0.1598 -0.8263
 2184SOL    HW2 8508   0.116   1.920   6.305  0.7630 -0.8075  0.0856
 2184SOL    HW3 8509   0.089   1.787   6.373 -0.3225 -1.4597 -1.5541
 2184SOL    MW4 8510   0.082   1.840   6.304 -0.1716 -0.4167 -0.8020
 2185SOL     OW 8511   1.428   3.604   4.000  0.1137  0.1017  0.0023
 2185SOL    HW2 8512   1.505   3.580   3.948  0.8805  1.1707  0.6200
 2185SOL    HW3 8513   1.428   3.699   4.002 -2.0188  0.1863 -1.1300
 2185SOL    MW4 8514   1.438   3.613   3.993 -0.0665  0.2539 -0.0656
 2186SOL     OW 8515   6.201   1.988   4.454 -0.1179 -0.2738 -0.0274
 2186SOL    HW2 8516   6.273   1.942   4.499 -0.3640  0.6319  1.3598
 2186SOL    HW3 8517   6.124   1.970   4.508 -0.6322 -0.0010 -0.6671
 2186SOL    MW4 8518   6.201   1.979   4.467 -0.2182 -0.1183  0.0712
 2187SOL     OW 8519   0.379   1.233   3.615 -0.6640 -0.0441  0.1293
 2187SOL    HW2 8520   0.362   1.184   3.696  3.4619 -1.1867  0.5699
 2187SOL    HW3 8521   0.412   1.167   3.554  2.7909  1.6643 -0.0807
 2187SOL    MW4 8522   0.381   1.218   3.618  0.3362  0.0305  0.1597
 2188SOL     OW 8523   2.463   6.266   4.384 -0.0950 -0.2754  0.6414
 2188SOL    HW2 8524   2.392   6.328   4.405 -0.0869 -0.6950  1.9754
 2188SOL    HW3 8525   2.527   6.319   4.338 -1.5495 -0.0259 -1.2078
 2188SOL    MW4 8526   2.462   6.281   4.381 -0.2858 -0.2979  0.5734
 2189SOL     OW 8527   5.489   3.650   4.505  0.0026 -0.9601 -0.6889
 2189SOL    HW2 8528   5.574   3.664   4.546  0.4166 -1.9999 -1.1679
 2189SOL    HW3 8529   5.506   3.589   4.433 -1.0342 -0.6595 -1.2098
 2189SOL    MW4 8530   5.502   3.644   4.501 -0.0796 -1.0576 -0.8208
 2190SOL     OW 8531   4.735   1.661   2.955  0.5363 -0.5747  0.0262
 2190SOL    HW2 8532   4.652   1.613   2.948 -0.3761  0.7713  0.9585
 2190SOL    HW3 8533   4.801   1.600   2.922 -1.0986 -0.7550 -3.3521
 2190SOL    MW4 8534   4.733   1.646   2.950  0.2002 -0.4209 -0.2965
 2191SOL     OW 8535   2.602   3.563   2.049  0.1281 -0.1789  0.1367
 2191SOL    HW2 8536   2.621   3.611   2.129  1.2367  0.8462 -0.6938
 2191SOL    HW3 8537   2.687   3.530   2.021 -0.2804 -0.7162 -0.4928
 2191SOL    MW4 8538   2.616   3.565   2.056  0.2205 -0.1145 -0.0559
 2192SOL     OW 8539   0.980   2.889   6.066 -0.0905 -0.1104  0.4674
 2192SOL    HW2 8540   0.986   2.794   6.072  0.3853 -0.0046  2.5641
 2192SOL    HW3 8541   1.050   2.921   6.123 -1.3862  1.4704  1.2461
 2192SOL    MW4 8542   0.990   2.881   6.074 -0.1987  0.1121  0.8467
 2193SOL     OW 8543   2.058   0.294   6.369  0.1581 -0.1977  0.0884
 2193SOL    HW2 8544   2.110   0.214   6.380 -1.1867 -0.9106  1.6560
 2193SOL    HW3 8545   1.986   0.268   6.311  0.8356  0.4707 -1.0953
 2193SOL    MW4 8546   2.055   0.280   6.363  0.0701 -0.2036  0.1391
 2194SOL     OW 8547   5.639   1.737   3.434  0.0688  0.3369 -0.5005
 2194SOL    HW2 8548   5.641   1.658   3.381  3.3850 -0.0950  0.0683
 2194SOL    HW3 8549   5.668   1.807   3.375 -2.4867  1.1793 -0.8992
 2194SOL    MW4 8550   5.643   1.736   3.419  0.1691  0.3910 -0.4781
 2195SOL     OW 8551   2.613   4.901   2.074 -0.3812 -0.0121 -0.4194
 2195SOL    HW2 8552   2.692   4.936   2.033  0.6035 -0.2553  1.1570
 2195SOL    HW3 8553   2.634   4.899   2.168 -2.3428  0.0959  0.0608
 2195SOL    MW4 8554   2.627   4.905   2.081 -0.5101 -0.0300 -0.1481
 2196SOL     OW 8555   0.113   1.527   4.517 -0.0956  0.0115  0.0825
 2196SOL    HW2 8556   0.147   1.472   4.587 -1.4338 -1.8592 -0.6410
 2196SOL    HW3 8557   0.018   1.511   4.518 -0.2155  0.3424 -1.7877
 2196SOL    MW4 8558   0.105   1.517   4.526 -0.2880 -0.1916 -0.2597
 2197SOL     OW 8559   1.469   4.462   5.904 -0.6790 -0.4005 -0.3431
 2197SOL    HW2 8560   1.403   4.439   5.838 -2.7234  0.3178  1.3305
 2197SOL    HW3 8561   1.457   4.397   5.973  1.2515 -0.9823 -0.4798
 2197SOL    MW4 8562   1.459   4.450   5.904 -0.6941 -0.3825 -0.1404
 2198SOL     OW 8563   4.810   4.021   0.849  0.4894  0.3104 -0.1463
 2198SOL    HW2 8564   4.845   4.048   0.764  0.1056  0.9076 -0.1269
 2198SOL    HW3 8565   4.797   4.104   0.897  0.2084  0.0178  0.2923
 2198SOL    MW4 8566   4.813   4.036   0.844  0.4017  0.3506 -0.0859
 2199SOL     OW 8567   1.765   3.012   3.409 -0.4776  0.4234  0.1639
 2199SOL    HW2 8568   1.722   3.098   3.412 -1.4473 -0.0456  0.3118
 2199SOL    HW3 8569   1.694   2.950   3.425  0.3647 -0.3701  0.9475
 2199SOL    MW4 8570   1.750   3.015   3.411 -0.4944  0.2568  0.2868
 2200SOL     OW 8571   3.705   0.461   4.942  0.0235  0.1023  0.8721
 2200SOL    HW2 8572   3.617   0.451   4.908  0.5290 -2.0717  0.0630
 2200SOL    HW3 8573   3.759   0.481   4.866  0.2916  1.1848  1.3236
 2200SOL    MW4 8574   3.701   0.463   4.928  0.1255 -0.0417  0.8250
 2201SOL     OW 8575   5.512   4.251   1.899  0.3193  0.3721 -0.4066
 2201SOL    HW2 8576   5.597   4.215   1.923  1.0472  0.7689 -2.2442
 2201SOL    HW3 8577   5.500   4.327   1.957  0.9641 -0.0030  0.2190
 2201SOL    MW4 8578   5.521   4.257   1.910  0.5004  0.3749 -0.5665
 2202SOL     OW 8579   0.636   5.061   5.141  0.1569  0.0610 -0.0714
 2202SOL    HW2 8580   0.686   4.980   5.139  0.2881  0.1618 -1.3138
 2202SOL    HW3 8581   0.545   5.034   5.147  0.2550 -0.1422  0.6792
 2202SOL    MW4 8582   0.631   5.047   5.142  0.1871  0.0475 -0.1363
 2203SOL     OW 8583   1.018   0.568   4.903 -0.1229 -0.1006  0.1692
 2203SOL    HW2 8584   1.027   0.589   4.996  3.7042  2.7080 -0.6014
 2203SOL    HW3 8585   1.049   0.646   4.858  0.9251 -2.3853 -3.4723
 2203SOL    MW4 8586   1.023   0.581   4.909  0.5203 -0.0315 -0.4129
 2204SOL     OW 8587   0.974   0.929   2.308 -0.2552 -0.5913 -0.0647
 2204SOL    HW2 8588   0.922   1.009   2.321 -0.4045 -0.4386 -1.4575
 2204SOL    HW3 8589   0.932   0.864   2.364 -0.0655  0.3187  1.1841
 2204SOL    MW4 8590   0.962   0.931   2.317 -0.2499 -0.4511 -0.0837
 2205SOL     OW 8591   5.853   1.495   0.643 -0.3195 -0.2676  0.2723
 2205SOL    HW2 8592   5.886   1.571   0.596 -1.9453  0.2533 -0.0795
 2205SOL    HW3 8593   5.811   1.441   0.576 -0.7250 -0.6073  0.7890
 2205SOL    MW4 8594   5.852   1.498   0.628 -0.5875 -0.2437  0.2941
 2206SOL     OW 8595   3.786   5.214   1.322  0.3840  0.3607  0.0648
 2206SOL    HW2 8596   3.695   5.211   1.352  0.8278  2.9414  1.9140
 2206SOL    HW3 8597   3.782   5.184   1.231 -2.2703  0.2031  0.1692
 2206SOL    MW4 8598   3.774   5.209   1.314  0.0923  0.6804  0.3225
 2207SOL     OW 8599   5.961   0.481   1.865 -0.3309 -0.4744  0.1354
 2207SOL    HW2 8600   6.042   0.505   1.820 -0.0322 -0.7657  0.5045
 2207SOL    HW3 8601   5.940   0.393   1.832 -0.8611 -0.1323 -0.4508
 2207SOL    MW4 8602   5.969   0.472   1.855 -0.3614 -0.4677  0.1068
 2208SOL     OW 8603   4.519   4.275   4.366  0.2805  0.4669 -0.7404
 2208SOL    HW2 8604   4.559   4.190   4.384 -1.7176 -0.4930 -0.5117
 2208SOL    HW3 8605   4.499   4.311   4.452  1.1041  1.1769 -0.8378
 2208SOL    MW4 8606   4.522   4.268   4.380  0.1255  0.4340 -0.7231
 2209SOL     OW 8607   0.991   2.909   2.293 -0.1846 -0.0847 -0.0220
 2209SOL    HW2 8608   1.015   2.956   2.213 -1.5164  1.6214  0.5213
 2209SOL    HW3 8609   0.895   2.902   2.288 -0.1750 -1.0582  0.8541
 2209SOL    MW4 8610   0.981   2.914   2.282 -0.3590  0.0120  0.1652
 2210SOL     OW 8611   1.353   2.854   1.880 -0.4955  0.2975  0.0283
 2210SOL    HW2 8612   1.405   2.773   1.875 -2.3190 -0.9153 -0.2129
 2210SOL    HW3 8613   1.359   2.880   1.972 -1.1451 -1.0285  0.4804
 2210SOL    MW4 8614   1.361   2.847   1.891 -0.8218 -0.0375  0.0561
 2211SOL     OW 8615   4.738   3.784   1.371 -0.1003  0.1329 -0.2884
 2211SOL    HW2 8616   4.751   3.731   1.449 -0.2357  0.4301 -0.0607
 2211SOL    HW3 8617   4.815   3.769   1.317  0.8753  1.3314  0.7171
 2211SOL    MW4 8618   4.750   3.775   1.374  0.0105  0.3303 -0.1257
 2212SOL     OW 8619   5.302   1.610   5.513 -0.2661 -0.4880  0.0145
 2212SOL    HW2 8620   5.212   1.601   5.483 -0.4105  0.0427  0.2705
 2212SOL    HW3 8621   5.324   1.702   5.494  1.6690 -1.5558 -4.0178
 2212SOL    MW4 8622   5.293   1.621   5.506 -0.0299 -0.5589 -0.4838
 2213SOL     OW 8623   1.296   0.703   5.603 -0.3591  0.4723  0.5402
 2213SOL    HW2 8624   1.314   0.718   5.510 -1.3772  1.6798  0.5057
 2213SOL    HW3 8625   1.280   0.609   5.609 -0.9458  0.4677 -0.6435
 2213SOL    MW4 8626   1.296   0.693   5.591 -0.5708  0.6310  0.3795
 2214SOL     OW 8627   1.778   1.964   4.066 -0.0081 -0.8745  0.4214
 2214SOL    HW2 8628   1.775   2.045   4.016  1.5559 -0.1209  1.5015
 2214SOL    HW3 8629   1.849   1.975   4.128 -1.6588 -1.8764  2.6566
 2214SOL    MW4 8630   1.787   1.976   4.067 -0.0195 -0.9072  0.8588
 2215SOL     OW 8631   4.065   1.589   5.139  0.0366 -0.0868  1.1623
 2215SOL    HW2 8632   4.091   1.593   5.047 -1.8254 -2.4716  0.4412
 2215SOL    HW3 8633   4.030   1.676   5.158 -1.0839 -0.0313 -0.9211
 2215SOL    MW4 8634   4.064   1.601   5.130 -0.3569 -0.3941  0.7923
 2216SOL     OW 8635   1.586   0.887   0.073  0.5359 -0.2471 -0.1331
 2216SOL    HW2 8636   1.493   0.899   0.093  0.9591  0.0785  1.9291
 2216SOL    HW3 8637   1.603   0.950   0.003 -0.5998  0.3373  0.0780
 2216SOL    MW4 8638   1.576   0.897   0.067  0.4419 -0.1271  0.1668
 2217SOL     OW 8639   1.276   1.764   5.797 -0.0074  0.1603 -0.2832
 2217SOL    HW2 8640   1.317   1.822   5.733  0.3179 -0.1847 -0.3988
 2217SOL    HW3 8641   1.188   1.749   5.763 -0.5519  1.6284  0.4388
 2217SOL    MW4 8642   1.270   1.769   5.784 -0.0363  0.3085 -0.2032
 2218SOL     OW 8643   3.444   6.219   3.192 -0.0340  0.1477  0.0057
 2218SOL    HW2 8644   3.449   6.169   3.111 -1.9467 -0.0439 -0.0316
 2218SOL    HW3 8645   3.447   6.154   3.261 -2.8309 -0.1654 -0.0474
 2218SOL    MW4 8646   3.445   6.204   3.190 -0.6554  0.0811 -0.0062
 2219SOL     OW 8647   1.947   4.864   4.016  0.6182  0.3030  0.2872
 2219SOL    HW2 8648   2.035   4.827   4.016  0.3351 -0.3943  1.0033
 2219SOL    HW3 8649   1.899   4.812   4.080 -0.7634 -0.3609 -1.2297
 2219SOL    MW4 8650   1.952   4.852   4.024  0.3986  0.1234  0.1815
 2220SOL     OW 8651   1.611   2.225   6.435 -0.4777  0.1421  0.6138
 2220SOL    HW2 8652   1.554   2.280   6.380 -2.7006 -0.9326  1.7084
 2220SOL    HW3 8653   1.683   2.201   6.377 -0.8372  1.9734 -0.7052
 2220SOL    MW4 8654   1.613   2.229   6.420 -0.8184  0.2419  0.5842
 2221SOL     OW 8655   0.207   5.295   4.075  0.2456 -0.3808  0.6490
 2221SOL    HW2 8656   0.198   5.364   4.009  1.2891  0.0152  0.9091
 2221SOL    HW3 8657   0.189   5.339   4.158 -0.5145 -0.7579  0.6968
 2221SOL    MW4 8658   0.203   5.310   4.077  0.2829 -0.3783  0.6896
 2222SOL     OW 8659   3.243   3.891   3.027 -0.1150  1.2634  0.6834
 2222SOL    HW2 8660   3.256   3.805   3.067 -0.0176  0.9091 -0.0942
 2222SOL    HW3 8661   3.215   3.947   3.099 -3.4553 -0.1485  0.6601
 2222SOL    MW4 8662   3.241   3.887   3.042 -0.5429  1.0304  0.5777
 2223SOL     OW 8663   5.112   3.159   0.237 -0.0841 -0.0313 -0.3725
 2223SOL    HW2 8664   5.190   3.210   0.260 -0.4280  0.6028 -0.5619
 2223SOL    HW3 8665   5.138   3.107   0.161  0.7244 -1.2925  0.7474
 2223SOL    MW4 8666   5.126   3.159   0.230 -0.0228 -0.1140 -0.2498
 2224SOL     OW 8667   3.105   6.075   0.700 -0.0875  0.0766 -0.0663
 2224SOL    HW2 8668   3.150   6.054   0.618  1.1080 -2.0975  1.0612
 2224SOL    HW3 8669   3.126   6.168   0.716  0.8130  0.1475 -1.5200
 2224SOL    MW4 8670   3.114   6.085   0.692  0.1891 -0.2009 -0.1094
 2225SOL     OW 8671   5.715   1.941   3.261  0.5221  0.6022  0.0365
 2225SOL    HW2 8672   5.669   1.966   3.181  2.0604  0.8828 -0.8049
 2225SOL    HW3 8673   5.786   2.005   3.268  1.3316 -0.3502  0.7827
 2225SOL    MW4 8674   5.718   1.953   3.252  0.8319  0.5136  0.0240
 2226SOL     OW 8675   5.728   3.770   5.215 -0.1621  0.3047 -0.2054
 2226SOL    HW2 8676   5.634   3.752   5.213  0.2781 -3.3317  1.8918
 2226SOL    HW3 8677   5.744   3.800   5.304  0.5334  2.3713 -0.9912
 2226SOL    MW4 8678   5.717   3.771   5.227 -0.0123  0.0976 -0.0324
 2227SOL     OW 8679   0.615   0.882   0.621 -0.2730  0.2565 -0.1255
 2227SOL    HW2 8680   0.565   0.800   0.620 -0.5719  0.4361 -0.0258
 2227SOL    HW3 8681   0.697   0.859   0.663 -0.2163 -0.0732 -0.4156
 2227SOL    MW4 8682   0.619   0.868   0.627 -0.3050  0.2367 -0.1506
 2228SOL     OW 8683   4.483   5.961   5.553  0.3827  0.2517 -0.4841
 2228SOL    HW2 8684   4.491   5.900   5.480  0.3065 -0.2076 -0.1151
 2228SOL    HW3 8685   4.388   5.973   5.563  0.4002  0.4925 -0.6061
 2228SOL    MW4 8686   4.471   5.955   5.545  0.3750  0.2228 -0.4515
 2229SOL     OW 8687   2.941   6.277   6.264 -0.3286 -0.6489  0.2187
 2229SOL    HW2 8688   3.001   6.348   6.289 -1.1511  0.2853 -0.4184
 2229SOL    HW3 8689   2.895   6.255   6.346 -1.5080  0.9602  0.0404
 2229SOL    MW4 8690   2.943   6.283   6.278 -0.5927 -0.3133  0.1111
 2230SOL     OW 8691   2.397   5.958   5.564  0.2954  0.1087 -0.1419
 2230SOL    HW2 8692   2.353   5.924   5.642 -0.1736  0.1516 -0.3905
 2230SOL    HW3 8693   2.471   6.008   5.599  0.7222 -0.7774  0.2383
 2230SOL    MW4 8694   2.401   5.960   5.579  0.2898 -0.0025 -0.1245
 2231SOL     OW 8695   0.197   1.542   6.267  0.0525  0.3010 -0.0038
 2231SOL    HW2 8696   0.151   1.475   6.318  0.9375 -0.8565 -0.6815
 2231SOL    HW3 8697   0.146   1.550   6.186  0.4083 -0.1557 -0.2732
 2231SOL    MW4 8698   0.184   1.534   6.263  0.2162  0.0880 -0.1288
 2232SOL     OW 8699   4.530   6.117   3.332  0.8863 -0.1205  0.7889
 2232SOL    HW2 8700   4.550   6.081   3.245 -2.9427 -2.4059  0.6099
 2232SOL    HW3 8701   4.495   6.204   3.315 -0.9130 -0.9817 -0.1919
 2232SOL    MW4 8702   4.528   6.124   3.318  0.1437 -0.5357  0.6359
 2233SOL     OW 8703   5.083   3.414   5.482  0.0960  0.3186  0.1664
 2233SOL    HW2 8704   5.053   3.349   5.546 -1.0383  0.7224  0.0636
 2233SOL    HW3 8705   5.004   3.440   5.435  0.7869  0.6254 -0.8631
 2233SOL    MW4 8706   5.069   3.409   5.485  0.0375  0.4123  0.0170
 2234SOL     OW 8707   2.349   4.017   6.085  1.1137  0.0196 -0.1226
 2234SOL    HW2 8708   2.298   4.056   6.014 -0.0026 -1.3651 -0.1232
 2234SOL    HW3 8709   2.346   4.083   6.155 -0.8782 -0.0606 -0.0629
 2234SOL    MW4 8710   2.342   4.031   6.085  0.7036 -0.1737 -0.1148
 2235SOL     OW 8711   1.312   1.623   3.113  0.2504  0.9306  0.3171
 2235SOL    HW2 8712   1.406   1.604   3.123  0.7410 -0.9763 -4.7279
 2235SOL    HW3 8713   1.269   1.539   3.127 -0.0883  0.7536 -1.5034
 2235SOL    MW4 8714   1.319   1.610   3.116  0.2705  0.6557 -0.5887
 2236SOL     OW 8715   4.648   0.979   1.033 -0.2760 -0.7623  0.3576
 2236SOL    HW2 8716   4.708   0.960   1.105 -0.7381 -0.8856  0.7119
 2236SOL    HW3 8717   4.687   0.934   0.958 -0.6224 -1.9876  0.8843
 2236SOL    MW4 8718   4.661   0.970   1.032 -0.3827 -0.9403  0.4738
 2237SOL     OW 8719   3.345   1.476   5.385 -0.7078  0.3242 -0.0061
 2237SOL    HW2 8720   3.375   1.429   5.463 -2.2617  2.1520  1.8031
 2237SOL    HW3 8721   3.389   1.561   5.391  0.1620  0.0539 -1.8807
 2237SOL    MW4 8722   3.355   1.481   5.396 -0.7981  0.5297 -0.0148
 2238SOL     OW 8723   4.300   1.687   0.488 -0.1818 -0.1034  0.0807
 2238SOL    HW2 8724   4.298   1.760   0.425  3.4111  0.3191  0.2447
 2238SOL    HW3 8725   4.289   1.729   0.573  0.9630  0.1862  0.1062
 2238SOL    MW4 8726   4.298   1.702   0.491  0.4433 -0.0095  0.1057
 2239SOL     OW 8727   4.552   0.330   5.241  0.6056  0.1780  0.4487
 2239SOL    HW2 8728   4.600   0.360   5.164 -1.3968  0.3352 -0.8001
 2239SOL    HW3 8729   4.529   0.410   5.289  0.7063  0.1726  0.5067
 2239SOL    MW4 8730   4.555   0.344   5.237  0.3547  0.1981  0.2916
 2240SOL     OW 8731   6.105   1.581   0.233 -0.1296 -0.1493 -0.2396
 2240SOL    HW2 8732   6.161   1.601   0.308  0.8311  0.3686 -1.0665
 2240SOL    HW3 8733   6.018   1.612   0.258 -0.1552 -1.3005  1.2166
 2240SOL    MW4 8734   6.101   1.588   0.246 -0.0062 -0.2329 -0.1566
 2241SOL     OW 8735   2.928   0.806   5.556  0.0095 -0.0051 -0.1050
 2241SOL    HW2 8736   2.888   0.874   5.609  1.5415 -0.1638  1.3685
 2241SOL    HW3 8737   3.001   0.850   5.512 -0.3603 -0.2107 -0.9391
 2241SOL    MW4 8738   2.933   0.821   5.557  0.1629 -0.0532 -0.0206
 2242SOL     OW 8739   3.095   1.717   6.076  0.0910  0.4467  0.2392
 2242SOL    HW2 8740   3.053   1.704   5.991 -2.1968 -3.2313  1.6773
 2242SOL    HW3 8741   3.161   1.649   6.081  0.3489  0.7548  1.3385
 2242SOL    MW4 8742   3.098   1.707   6.066 -0.1768  0.0021  0.5740
 2243SOL     OW 8743   0.490   2.541   2.946  0.0834 -0.0676 -0.5516
 2243SOL    HW2 8744   0.433   2.617   2.930  1.4447  0.8056 -1.4847
 2243SOL    HW3 8745   0.545   2.567   3.020  0.8357  0.0589 -1.1363
 2243SOL    MW4 8746   0.490   2.555   2.953  0.3623  0.0643 -0.7518
 2244SOL     OW 8747   5.198   1.876   1.094 -0.2317 -0.2507 -0.7458
 2244SOL    HW2 8748   5.286   1.855   1.126 -0.1060 -0.9930 -1.5337
 2244SOL    HW3 8749   5.199   1.848   1.002 -1.6556 -1.3585 -0.4550
 2244SOL    MW4 8750   5.210   1.870   1.086 -0.4030 -0.4948 -0.8114
 2245SOL     OW 8751   0.580   0.683   2.396  0.0372  0.2472  0.2018
 2245SOL    HW2 8752   0.550   0.595   2.377 -0.4150  0.2589  0.8295
 2245SOL    HW3 8753   0.674   0.674   2.415 -0.0008 -0.0842  0.2224
 2245SOL    MW4 8754   0.589   0.670   2.396 -0.0275  0.2050  0.2873
 2246SOL     OW 8755   4.999   5.698   2.000 -0.1066 -0.2080 -0.2640
 2246SOL    HW2 8756   4.943   5.658   2.067  1.8356 -1.8531  0.4812
 2246SOL    HW3 8757   5.058   5.755   2.049  0.7335 -0.7244 -0.6423
 2246SOL    MW4 8758   5.000   5.700   2.015  0.2605 -0.4932 -0.2156
 2247SOL     OW 8759   4.303   0.322   3.339  0.1136 -0.0429  0.3682
 2247SOL    HW2 8760   4.393   0.352   3.324 -0.1609  0.9982  0.7269
 2247SOL    HW3 8761   4.313   0.237   3.383  0.9093 -0.1535 -0.0067
 2247SOL    MW4 8762   4.316   0.315   3.343  0.1824  0.0799  0.3661
 2248SOL     OW 8763   5.295   2.109   4.122 -0.3138  0.6928  0.4905
 2248SOL    HW2 8764   5.228   2.110   4.190  0.1008  1.1357  0.9060
 2248SOL    HW3 8765   5.377   2.125   4.169 -0.1289  1.9303 -0.2079
 2248SOL    MW4 8766   5.297   2.112   4.137 -0.2347  0.9145  0.4532
 2249SOL     OW 8767   2.932   6.151   5.240  0.4753 -0.1306 -0.0425
 2249SOL    HW2 8768   3.018   6.184   5.267  0.8141 -1.2975  0.3530
 2249SOL    HW3 8769   2.939   6.141   5.145 -0.4498  3.2031 -0.5929
 2249SOL    MW4 8770   2.944   6.154   5.231  0.3980  0.1552 -0.0630
 2250SOL     OW 8771   4.070   5.100   0.465  0.1502 -0.3169  0.3299
 2250SOL    HW2 8772   4.151   5.049   0.461 -0.0994 -0.8411  1.5230
 2250SOL    HW3 8773   4.099   5.189   0.486  0.4420 -0.4377  0.4436
 2250SOL    MW4 8774   4.084   5.105   0.467  0.1557 -0.4020  0.5024
 2251SOL     OW 8775   2.010   6.211   1.574 -0.0649  0.1002 -0.3785
 2251SOL    HW2 8776   2.063   6.266   1.516  2.5200 -0.9663  0.8357
 2251SOL    HW3 8777   2.021   6.123   1.540 -0.4053 -0.2418  0.3705
 2251SOL    MW4 8778   2.018   6.207   1.562  0.2312 -0.0856 -0.1195
 2252SOL     OW 8779   4.539   2.469   2.385 -0.0935 -0.2801 -0.1112
 2252SOL    HW2 8780   4.560   2.468   2.292  0.0856  1.4136 -0.1093
 2252SOL    HW3 8781   4.623   2.470   2.429 -0.1007 -3.1472  0.1987
 2252SOL    MW4 8782   4.553   2.469   2.379 -0.0708 -0.4349 -0.0701
 2253SOL     OW 8783   0.105   1.740   0.139  0.4151  0.3145 -0.2380
 2253SOL    HW2 8784   0.118   1.823   0.184 -0.5203 -0.3617  1.3630
 2253SOL    HW3 8785   0.192   1.716   0.107  1.0687  0.9578  0.9878
 2253SOL    MW4 8786   0.118   1.748   0.141  0.3779  0.3102  0.1350
 2254SOL     OW 8787   0.823   1.540   3.404  0.0583 -0.0387 -0.1705
 2254SOL    HW2 8788   0.764   1.487   3.458 -0.1146  0.3979  0.0762
 2254SOL    HW3 8789   0.798   1.520   3.314 -2.0789  1.8429 -0.1032
 2254SOL    MW4 8790   0.812   1.531   3.399 -0.2465  0.2671 -0.1290
 2255SOL     OW 8791   5.534   1.884   6.262 -0.2575 -0.1170 -0.2890
 2255SOL    HW2 8792   5.500   1.828   6.192 -1.6709  0.0733  0.2296
 2255SOL    HW3 8793   5.624   1.903   6.235 -0.0761 -1.7943 -0.9717
 2255SOL    MW4 8794   5.542   1.879   6.249 -0.4201 -0.3132 -0.3107
 2256SOL     OW 8795   0.976   2.099   1.651  0.0387 -0.4533 -0.0336
 2256SOL    HW2 8796   1.034   2.022   1.645 -0.0943 -0.6333  0.8049
 2256SOL    HW3 8797   0.924   2.083   1.729 -0.0019  0.4890  0.1448
 2256SOL    MW4 8798   0.977   2.087   1.660  0.0158 -0.3527  0.1006
 2257SOL     OW 8799   3.897   6.398   1.830 -0.3624  0.2504  0.5393
 2257SOL    HW2 8800   3.840   6.393   1.754 -2.7919 -0.4285  2.3009
 2257SOL    HW3 8801   3.947   6.316   1.829  0.2772  0.6379 -0.7530
 2257SOL    MW4 8802   3.896   6.387   1.820 -0.5986  0.2119  0.6012
 2258SOL     OW 8803   4.110   4.331   5.994  0.0535 -0.0886 -0.3382
 2258SOL    HW2 8804   4.171   4.405   5.988  1.9004 -1.6012 -1.3606
 2258SOL    HW3 8805   4.123   4.283   5.912 -0.8046 -1.7735  0.4706
 2258SOL    MW4 8806   4.120   4.334   5.982  0.1840 -0.5105 -0.3664
 2259SOL     OW 8807   3.192   0.606   2.689 -0.2986  0.8984 -0.3521
 2259SOL    HW2 8808   3.232   0.662   2.756  0.7267  2.8135 -2.4189
 2259SOL    HW3 8809   3.128   0.662   2.646 -0.1320  0.1083 -1.6842
 2259SOL    MW4 8810   3.189   0.621   2.692 -0.1414  1.0468 -0.8006
 2260SOL     OW 8811   5.694   1.781   4.020 -0.1474  0.3778 -0.8641
 2260SOL    HW2 8812   5.735   1.842   4.081 -1.3320  1.8581 -1.4688
 2260SOL    HW3 8813   5.656   1.713   4.075  0.1446  0.8517 -0.0679
 2260SOL    MW4 8814   5.695   1.780   4.035 -0.2652  0.6356 -0.8388
 2261SOL     OW 8815   5.448   4.608   2.322 -0.2443 -0.5906  0.5147
 2261SOL    HW2 8816   5.455   4.684   2.380  0.9241  0.7781 -1.2875
 2261SOL    HW3 8817   5.534   4.602   2.280 -1.0045 -1.5626 -0.9968
 2261SOL    MW4 8818   5.461   4.617   2.324 -0.1905 -0.5383  0.0775
 2262SOL     OW 8819   0.340   1.877   2.303  0.2242 -0.3758  0.3636
 2262SOL    HW2 8820   0.322   1.785   2.282  1.7826 -0.7132  0.3404
 2262SOL    HW3 8821   0.321   1.884   2.397 -1.3155 -0.3140  0.0787
 2262SOL    MW4 8822   0.335   1.866   2.313  0.2266 -0.4121  0.3229
 2263SOL     OW 8823   4.818   6.167   6.328  0.2047  0.3388  0.8321
 2263SOL    HW2 8824   4.800   6.257   6.353  2.1387  0.2516  2.9021
 2263SOL    HW3 8825   4.732   6.129   6.310 -0.6580  2.5310  0.0111
 2263SOL    MW4 8826   4.804   6.174   6.329  0.3460  0.6166  0.9969
 2264SOL     OW 8827   3.029   1.560   2.561  0.2274 -0.1487  0.0205
 2264SOL    HW2 8828   3.096   1.545   2.628  0.0855  0.8516  0.4090
 2264SOL    HW3 8829   3.066   1.631   2.508 -0.1722 -0.1494 -0.2547
 2264SOL    MW4 8830   3.043   1.568   2.563  0.1559 -0.0168  0.0354
 2265SOL     OW 8831   0.467   0.171   5.501 -0.2900 -0.0713  0.1823
 2265SOL    HW2 8832   0.377   0.157   5.472  0.1110 -1.7804 -0.3579
 2265SOL    HW3 8833   0.503   0.233   5.438 -0.6160 -0.6634 -0.6067
 2265SOL    MW4 8834   0.460   0.177   5.489 -0.2801 -0.3749  0.0070
 2266SOL     OW 8835   1.419   1.554   6.094  0.4168 -0.0046 -0.0735
 2266SOL    HW2 8836   1.356   1.604   6.146  1.2423  0.7201  0.2520
 2266SOL    HW3 8837   1.365   1.497   6.040 -0.4644 -1.0882  1.8615
 2266SOL    MW4 8838   1.403   1.553   6.094  0.4095 -0.0520  0.2247
 2267SOL     OW 8839   3.653   1.993   1.524  0.1209 -0.1448 -0.1521
 2267SOL    HW2 8840   3.713   1.948   1.465  0.6206  1.2210 -0.7141
 2267SOL    HW3 8841   3.606   2.055   1.469  0.0611  0.6346  0.7569
 2267SOL    MW4 8842   3.655   1.995   1.509  0.1790  0.1382 -0.1063
 2268SOL     OW 8843   0.120   6.011   3.063 -0.9596  0.0831 -0.5464
 2268SOL    HW2 8844   0.039   6.061   3.059 -0.5542  0.7588 -0.5305
 2268SOL    HW3 8845   0.181   6.068   3.111 -0.9117 -1.0382  0.7821
 2268SOL    MW4 8846   0.117   6.025   3.069 -0.8998  0.0243 -0.3690
 2269SOL     OW 8847   4.143   4.130   6.195 -0.0818 -0.6965  0.0167
 2269SOL    HW2 8848   4.134   4.206   6.137  1.4828 -0.3953  0.1226
 2269SOL    HW3 8849   4.230   4.140   6.234 -0.9198 -1.1065  2.1284
 2269SOL    MW4 8850   4.153   4.141   6.192  0.0141 -0.7109  0.3093
 2270SOL     OW 8851   2.278   2.007   0.022 -0.0197 -0.3307 -0.2410
 2270SOL    HW2 8852   2.322   1.945   0.080  0.7297 -0.5421 -1.0211
 2270SOL    HW3 8853   2.334   2.085   0.024 -1.4125  0.7060  1.4440
 2270SOL    MW4 8854   2.291   2.009   0.030 -0.1046 -0.2218 -0.1216
 2271SOL     OW 8855   5.899   6.391   0.332  0.1192 -0.6313 -0.5346
 2271SOL    HW2 8856   5.846   6.313   0.343  0.0707 -0.8117 -1.8558
 2271SOL    HW3 8857   5.959   6.390   0.406 -1.4917 -0.5776  0.8324
 2271SOL    MW4 8858   5.900   6.381   0.343 -0.0997 -0.6480 -0.5286
 2272SOL     OW 8859   1.549   2.714   0.540 -0.4017  0.1768  0.4768
 2272SOL    HW2 8860   1.488   2.719   0.467  0.2998  0.7870 -0.0695
 2272SOL    HW3 8861   1.503   2.660   0.605 -0.8528 -0.7494 -0.5774
 2272SOL    MW4 8862   1.535   2.707   0.539 -0.3687  0.1351  0.2656
 2273SOL     OW 8863   3.591   0.420   3.348  0.3333 -0.8867 -0.1423
 2273SOL    HW2 8864   3.509   0.459   3.378  0.5515 -1.4175  1.2723
 2273SOL    HW3 8865   3.655   0.491   3.355  0.3139 -0.9145  0.3770
 2273SOL    MW4 8866   3.589   0.434   3.353  0.3595 -0.9604  0.1129
 2274SOL     OW 8867   0.002   3.517   0.939 -0.4274 -0.3794 -0.2978
 2274SOL    HW2 8868   0.008   3.423   0.955  0.3048  0.0326  2.2674
 2274SOL    HW3 8869   0.062   3.557   1.003 -2.4911  1.9308  0.3781
 2274SOL    MW4 8870   0.010   3.510   0.950 -0.6031 -0.0202  0.1299
 2275SOL     OW 8871   5.976   0.235   4.890  0.1649 -0.2264  0.5944
 2275SOL    HW2 8872   5.920   0.265   4.818 -0.5850 -0.7383  0.9395
 2275SOL    HW3 8873   6.062   0.272   4.871 -0.0530 -0.2245 -0.4828
 2275SOL    MW4 8874   5.980   0.243   4.878  0.0372 -0.2937  0.4978
 2276SOL     OW 8875   5.279   4.054   3.659  0.4113 -0.0896  0.2437
 2276SOL    HW2 8876   5.250   4.037   3.570 -0.1777 -0.9428  0.5875
 2276SOL    HW3 8877   5.304   4.147   3.659 -4.3966  1.4457  0.4312
 2276SOL    MW4 8878   5.279   4.064   3.648 -0.3007  0.0004  0.3138
 2277SOL     OW 8879   5.474   1.835   1.144 -0.2144 -0.0508 -0.8453
 2277SOL    HW2 8880   5.513   1.865   1.062  1.5610 -1.4891 -0.5833
 2277SOL    HW3 8881   5.506   1.746   1.155 -0.3528  0.1267  1.4450
 2277SOL    MW4 8882   5.483   1.827   1.135  0.0016 -0.2171 -0.5085
 2278SOL     OW 8883   2.585   2.766   0.091 -0.3607  0.0247 -0.0036
 2278SOL    HW2 8884   2.608   2.693   0.034 -1.2783 -0.5599  0.3530
 2278SOL    HW3 8885   2.522   2.817   0.040 -0.4745  0.0087  0.1185
 2278SOL    MW4 8886   2.580   2.763   0.077 -0.4968 -0.0545  0.0596
 2279SOL     OW 8887   4.139   4.840   4.723  0.2095  0.4718 -0.1950
 2279SOL    HW2 8888   4.118   4.934   4.719  2.0800  0.8679 -2.4757
 2279SOL    HW3 8889   4.210   4.835   4.786  0.6273  0.7250 -0.6355
 2279SOL    MW4 8890   4.145   4.852   4.731  0.5114  0.5574 -0.5540
 2280SOL     OW 8891   3.609   5.872   2.132  0.0695 -0.2076 -0.1623
 2280SOL    HW2 8892   3.572   5.947   2.180 -0.0097  0.7988 -1.7125
 2280SOL    HW3 8893   3.555   5.798   2.158 -0.5961  0.5095  0.5434
 2280SOL    MW4 8894   3.597   5.872   2.142 -0.0288  0.0198 -0.2737
 2281SOL     OW 8895   3.942   0.259   1.969  0.0949  0.2692 -0.1952
 2281SOL    HW2 8896   3.923   0.165   1.977 -0.3217  0.3554 -0.1657
 2281SOL    HW3 8897   3.955   0.288   2.059  0.4520  0.1930 -0.2217
 2281SOL    MW4 8898   3.941   0.250   1.982  0.0870  0.2706 -0.1948
 2282SOL     OW 8899   1.408   3.048   5.420 -0.0116  0.2528 -0.3566
 2282SOL    HW2 8900   1.420   3.054   5.514 -2.1525 -2.1941  0.1863
 2282SOL    HW3 8901   1.455   2.969   5.395  0.0219  0.5417 -1.2471
 2282SOL    MW4 8902   1.415   3.038   5.429 -0.2897 -0.0319 -0.4025
 2283SOL     OW 8903   6.401   0.513   0.041 -0.5384 -0.0456 -0.0053
 2283SOL    HW2 8904   6.467   0.464  -0.008 -0.3115  0.7470 -0.5167
 2283SOL    HW3 8905   6.320   0.463   0.027 -0.3552 -0.1705 -0.6943
 2283SOL    MW4 8906   6.399   0.500   0.032 -0.4843  0.0425 -0.1637
 2284SOL     OW 8907   0.759   5.932   5.059  0.3311 -0.3019 -0.1882
 2284SOL    HW2 8908   0.761   5.995   5.131 -0.0318 -1.6696  1.0627
 2284SOL    HW3 8909   0.666   5.919   5.041  0.2930 -1.9979  0.9937
 2284SOL    MW4 8910   0.747   5.938   5.066  0.2782 -0.7061  0.1328
 2285SOL     OW 8911   5.624   2.934   6.105  0.2416 -0.1466  0.2515
 2285SOL    HW2 8912   5.554   2.991   6.135  3.1869  2.8666  2.0879
 2285SOL    HW3 8913   5.627   2.947   6.010 -0.7915  0.6767  0.3145
 2285SOL    MW4 8914   5.615   2.943   6.096  0.4939  0.3596  0.5021
 2286SOL     OW 8915   0.759   0.216   2.707  0.2292  1.0058 -0.3480
 2286SOL    HW2 8916   0.732   0.179   2.791  2.0641  0.3409  0.0043
 2286SOL    HW3 8917   0.739   0.309   2.714 -0.9279  0.7294  0.2589
 2286SOL    MW4 8918   0.753   0.223   2.719  0.3186  0.8816 -0.2214
 2287SOL     OW 8919   0.269   5.385   2.286  0.0610  0.4593  0.6729
 2287SOL    HW2 8920   0.227   5.344   2.362  1.7499  1.6248  2.3224
 2287SOL    HW3 8921   0.303   5.312   2.234 -1.1200 -0.3560  1.0254
 2287SOL    MW4 8922   0.268   5.370   2.289  0.1280  0.5055  0.9370
 2288SOL     OW 8923   1.216   1.007   4.742  0.5457 -0.1515 -0.4870
 2288SOL    HW2 8924   1.311   1.016   4.755  0.5813  0.6161 -1.2006
 2288SOL    HW3 8925   1.194   1.074   4.678 -0.5700 -0.0056  0.0197
 2288SOL    MW4 8926   1.226   1.017   4.736  0.4032 -0.0309 -0.5143
 2289SOL     OW 8927   1.788   4.916   1.118 -0.5946  0.1716  0.1642
 2289SOL    HW2 8928   1.843   4.838   1.115 -1.2903 -0.3087 -1.4211
 2289SOL    HW3 8929   1.709   4.888   1.164  0.1566  0.6747  1.8363
 2289SOL    MW4 8930   1.784   4.902   1.123 -0.5873  0.1746  0.1757
 2290SOL     OW 8931   0.201   4.290   5.745  0.1954 -0.5860 -0.8641
 2290SOL    HW2 8932   0.125   4.345   5.726  2.0276  1.9298 -1.4731
 2290SOL    HW3 8933   0.232   4.321   5.830  0.9991 -1.0086 -0.9951
 2290SOL    MW4 8934   0.195   4.301   5.753  0.5432 -0.3098 -0.9618
 2291SOL     OW 8935   3.582   0.874   3.403 -0.3029 -0.2467  0.2132
 2291SOL    HW2 8936   3.595   0.917   3.488  1.6969  0.5516 -0.4348
 2291SOL    HW3 8937   3.556   0.944   3.344  0.4184 -0.3767 -0.2757
 2291SOL    MW4 8938   3.580   0.889   3.407  0.0561 -0.1586  0.0632
 2292SOL     OW 8939   0.894   3.560   4.822  0.1586 -0.2828 -0.4569
 2292SOL    HW2 8940   0.978   3.514   4.819  1.5327  2.0425 -0.4251
 2292SOL    HW3 8941   0.876   3.572   4.915 -0.8607 -1.8074 -0.4305
 2292SOL    MW4 8942   0.903   3.555   4.834  0.2054 -0.1772 -0.4492
 2293SOL     OW 8943   5.683   4.375   3.144  0.3921  0.5142  0.3089
 2293SOL    HW2 8944   5.757   4.363   3.204 -0.5251  0.8806  1.5714
 2293SOL    HW3 8945   5.662   4.468   3.151 -0.7014  0.2620  0.6199
 2293SOL    MW4 8946   5.690   4.386   3.153  0.1268  0.5293  0.5165
 2294SOL     OW 8947   0.875   3.193   4.287 -0.4886  0.2296 -0.0154
 2294SOL    HW2 8948   0.862   3.135   4.212  1.5710  1.0431 -1.0630
 2294SOL    HW3 8949   0.812   3.264   4.273  0.9323  1.2154 -1.9350
 2294SOL    MW4 8950   0.865   3.195   4.276 -0.0294  0.4670 -0.4069
 2295SOL     OW 8951   0.427   3.758   4.979 -0.1785  0.5422  0.0436
 2295SOL    HW2 8952   0.432   3.825   4.910 -2.5299  1.4141  0.6201
 2295SOL    HW3 8953   0.400   3.807   5.057 -1.6105 -1.0205  0.5751
 2295SOL    MW4 8954   0.424   3.774   4.980 -0.6777  0.4511  0.1898
 2296SOL     OW 8955   5.815   5.144   1.051 -0.4518  0.1339  0.4447
 2296SOL    HW2 8956   5.746   5.078   1.054  0.7808 -1.2361 -0.2011
 2296SOL    HW3 8957   5.803   5.194   1.132 -1.2367 -1.0931  1.1287
 2296SOL    MW4 8958   5.804   5.142   1.062 -0.3927 -0.2087  0.4497
 2297SOL     OW 8959   5.026   2.389   5.222  0.2273  0.6346 -0.3479
 2297SOL    HW2 8960   5.063   2.445   5.154  1.0670 -0.9417 -1.2267
 2297SOL    HW3 8961   4.932   2.393   5.208  0.3488  0.9249 -1.1324
 2297SOL    MW4 8962   5.019   2.397   5.212  0.3541  0.4649 -0.5673
 2298SOL     OW 8963   2.692   2.349   5.618  0.3993 -0.1491  0.3169
 2298SOL    HW2 8964   2.771   2.354   5.673 -1.0473  2.1751  2.4198
 2298SOL    HW3 8965   2.631   2.297   5.669  0.3656 -1.5634 -1.1022
 2298SOL    MW4 8966   2.695   2.343   5.632  0.2040 -0.0290  0.4071
 2299SOL     OW 8967   0.719   4.929   5.812  0.0126  0.3890 -0.0836
 2299SOL    HW2 8968   0.791   4.951   5.753  0.4475 -0.6343  0.0264
 2299SOL    HW3 8969   0.645   4.980   5.782  0.8587  1.6844 -0.0334
 2299SOL    MW4 8970   0.719   4.939   5.800  0.1816  0.4249 -0.0625
 2300SOL     OW 8971   5.880   1.120   1.111  0.1402  0.2682 -0.0150
 2300SOL    HW2 8972   5.786   1.119   1.096  0.3896  0.8410 -1.8830
 2300SOL    HW3 8973   5.911   1.196   1.063  1.8017 -1.0904 -1.2089
 2300SOL    MW4 8974   5.872   1.130   1.103  0.3923  0.1645 -0.4190
 2301SOL     OW 8975   1.086   0.875   6.408  0.2858  0.3379  0.1037
 2301SOL    HW2 8976   1.179   0.895   6.417  0.1963  0.7678  0.0847
 2301SOL    HW3 8977   1.046   0.905   6.490  0.4514 -1.6540  0.9716
 2301SOL    MW4 8978   1.093   0.881   6.420  0.2958  0.1318  0.2157
 2302SOL     OW 8979   1.295   3.492   2.444  0.2302  0.4023  0.4316
 2302SOL    HW2 8980   1.313   3.429   2.514  2.9074  1.5613  0.9033
 2302SOL    HW3 8981   1.240   3.559   2.485 -0.7579 -0.4399  0.5326
 2302SOL    MW4 8982   1.290   3.492   2.458  0.4531  0.4441  0.5072
 2303SOL     OW 8983   0.971   1.578   1.816  0.4174 -0.7482 -0.0362
 2303SOL    HW2 8984   0.975   1.652   1.877 -0.4931 -0.3779 -0.4067
 2303SOL    HW3 8985   1.053   1.582   1.767  1.0880 -0.9528  1.0373
 2303SOL    MW4 8986   0.982   1.588   1.818  0.3857 -0.7263  0.0566
 2304SOL     OW 8987   0.055   1.680   3.875  0.0644 -0.1431  0.1981
 2304SOL    HW2 8988   0.068   1.585   3.879  0.7742 -0.0177  1.3449
 2304SOL    HW3 8989  -0.040   1.690   3.868 -0.0323 -0.9381  0.2135
 2304SOL    MW4 8990   0.044   1.668   3.875  0.1453 -0.2315  0.3515
 2305SOL     OW 8991   3.182   4.088   3.205 -0.5269  0.5632 -0.0443
 2305SOL    HW2 8992   3.199   4.083   3.298  1.9880  0.7611 -0.4413
 2305SOL    HW3 8993   3.194   4.180   3.183 -0.8526  0.4780 -0.6107
 2305SOL    MW4 8994   3.186   4.099   3.214 -0.2381  0.5780 -0.1714
 2306SOL     OW 8995   1.754   6.094   5.448 -0.1536  0.0512 -0.0802
 2306SOL    HW2 8996   1.796   6.147   5.381 -0.2774  0.3685  0.0925
 2306SOL    HW3 8997   1.662   6.090   5.421 -0.1812  0.0843  0.0090
 2306SOL    MW4 8998   1.747   6.100   5.436 -0.1736  0.0974 -0.0457
 2307SOL     OW 8999   0.399   3.886   0.271 -0.0346  0.3654  0.2209
 2307SOL    HW2 9000   0.340   3.954   0.305  0.4057  1.1247 -0.4889
 2307SOL    HW3 9001   0.346   3.837   0.209 -1.0063 -1.3746  2.3088
 2307SOL    MW4 9002   0.384   3.889   0.268 -0.1047  0.2360  0.4027
 2308SOL     OW 9003   4.440   5.769   2.145  0.3525  0.1783  0.4746
 2308SOL    HW2 9004   4.359   5.786   2.098  0.5032  3.1989  1.0930
 2308SOL    HW3 9005   4.495   5.845   2.126  3.1074 -1.7838  0.0443
 2308SOL    MW4 9006   4.437   5.781   2.137  0.7358  0.3179  0.4994
 2309SOL     OW 9007   3.535   3.294   4.823  0.5442  0.1237 -0.1312
 2309SOL    HW2 9008   3.513   3.202   4.836 -0.3856  0.5513  1.6267
 2309SOL    HW3 9009   3.454   3.341   4.841  1.1299  1.3206 -0.5347
 2309SOL    MW4 9010   3.521   3.288   4.827  0.4988  0.3380  0.0475
 2310SOL     OW 9011   0.679   1.256   3.762  0.1262 -0.2030 -0.0782
 2310SOL    HW2 9012   0.634   1.177   3.791  0.8190 -0.6827 -0.3054
 2310SOL    HW3 9013   0.745   1.226   3.699  1.1932  0.4096  0.7091
 2310SOL    MW4 9014   0.682   1.242   3.758  0.3584 -0.1855 -0.0043
 2311SOL     OW 9015   0.186   2.312   5.051  0.1376 -0.6071  0.1587
 2311SOL    HW2 9016   0.232   2.356   5.123 -0.4804 -1.1388  0.9053
 2311SOL    HW3 9017   0.254   2.260   5.008  0.1566 -1.9471  1.6897
 2311SOL    MW4 9018   0.201   2.311   5.055  0.0586 -0.8541  0.4592
 2312SOL     OW 9019   0.434   0.071   4.449  0.1850  0.6468 -0.1619
 2312SOL    HW2 9020   0.469   0.159   4.459 -0.8758  1.1544 -0.7187
 2312SOL    HW3 9021   0.499   0.014   4.491 -0.5367  1.9436  3.0415
 2312SOL    MW4 9022   0.447   0.075   4.456 -0.0501  0.8849  0.1873
 2313SOL     OW 9023   0.377   1.725   4.135 -0.5499 -0.2607 -0.2965
 2313SOL    HW2 9024   0.342   1.660   4.195 -0.1225 -0.1362  0.0952
 2313SOL    HW3 9025   0.431   1.782   4.190  0.1573 -0.3697 -0.8552
 2313SOL    MW4 9026   0.380   1.724   4.150 -0.4002 -0.2586 -0.3185
 2314SOL     OW 9027   1.569   5.550   1.993  0.4422 -0.4473 -0.1578
 2314SOL    HW2 9028   1.483   5.561   2.034  0.3650  0.3010 -0.5133
 2314SOL    HW3 9029   1.574   5.456   1.975  0.3900 -0.7759  1.3507
 2314SOL    MW4 9030   1.558   5.539   1.996  0.4251 -0.3919 -0.0057
 2315SOL     OW 9031   3.659   4.037   4.609  0.2606  0.1559  0.0833
 2315SOL    HW2 9032   3.705   4.000   4.533 -0.5297  0.0035 -0.3358
 2315SOL    HW3 9033   3.703   4.120   4.626 -1.7328  1.9613 -2.7938
 2315SOL    MW4 9034   3.671   4.043   4.601 -0.1067  0.3740 -0.3516
 2316SOL     OW 9035   4.577   1.696   3.572 -0.4307 -0.1165 -0.4843
 2316SOL    HW2 9036   4.656   1.729   3.616  1.1497 -1.5034 -2.1212
 2316SOL    HW3 9037   4.506   1.748   3.610  1.1850  0.9411  1.3416
 2316SOL    MW4 9038   4.578   1.707   3.583 -0.0090 -0.1599 -0.4594
 2317SOL     OW 9039   1.289   5.984   6.351 -0.2585 -0.1631 -0.1015
 2317SOL    HW2 9040   1.265   5.987   6.259  0.8007  0.2549 -0.3678
 2317SOL    HW3 9041   1.369   6.035   6.358  0.1331 -0.8703  0.9110
 2317SOL    MW4 9042   1.296   5.991   6.340 -0.0671 -0.2012 -0.0030
 2318SOL     OW 9043   0.374   6.026   2.898  0.6810  0.1808  0.4377
 2318SOL    HW2 9044   0.292   6.042   2.943  0.0029 -1.2377 -0.2275
 2318SOL    HW3 9045   0.384   6.100   2.838 -1.5788 -0.9266 -1.5026
 2318SOL    MW4 9046   0.365   6.038   2.896  0.2934 -0.1525  0.0939
 2319SOL     OW 9047   2.484   5.217   1.471 -0.6878 -0.0560 -0.3228
 2319SOL    HW2 9048   2.395   5.232   1.503 -0.9165  2.6210 -1.9058
 2319SOL    HW3 9049   2.471   5.181   1.383 -0.1298 -1.3676  0.1024
 2319SOL    MW4 9050   2.470   5.214   1.463 -0.6443  0.1241 -0.4756
 2320SOL     OW 9051   1.190   4.926   0.011  0.2117 -0.3584 -0.1387
 2320SOL    HW2 9052   1.138   5.001  -0.019 -0.3438 -1.0497 -0.9584
 2320SOL    HW3 9053   1.143   4.850  -0.022  1.1946 -1.0492  0.0145
 2320SOL    MW4 9054   1.177   4.926   0.003  0.2681 -0.5407 -0.2267
 2321SOL     OW 9055   1.852   5.908   4.870 -0.6327  0.1105  0.0648
 2321SOL    HW2 9056   1.877   5.931   4.781  1.3075 -0.6758  0.3540
 2321SOL    HW3 9057   1.876   5.815   4.879  0.6978  0.5707  1.8571
 2321SOL    MW4 9058   1.858   5.899   4.860 -0.2012  0.0675  0.3394
 2322SOL     OW 9059   2.416   0.978   0.413 -0.0531 -0.0487 -0.3836
 2322SOL    HW2 9060   2.356   0.968   0.338 -1.7104 -3.7227  1.1874
 2322SOL    HW3 9061   2.491   0.923   0.391  0.6951  0.9644 -0.4140
 2322SOL    MW4 9062   2.418   0.970   0.400 -0.1731 -0.3997 -0.1804
 2323SOL     OW 9063   4.068   3.356   3.778 -0.2632  0.2030  0.2139
 2323SOL    HW2 9064   4.030   3.268   3.786 -0.1325  0.0663 -0.6012
 2323SOL    HW3 9065   4.099   3.360   3.687 -1.2893  1.4937 -0.1111
 2323SOL    MW4 9066   4.067   3.345   3.767 -0.3813  0.3553  0.0635
 2324SOL     OW 9067   6.117   2.920   0.625 -0.2269  0.1842 -0.1287
 2324SOL    HW2 9068   6.170   2.940   0.548  0.6780  2.0891  0.9066
 2324SOL    HW3 9069   6.067   2.842   0.601  0.2666  0.5357 -2.4943
 2324SOL    MW4 9070   6.117   2.912   0.612 -0.0424  0.4819 -0.3042
 2325SOL     OW 9071   4.481   6.403   1.330  0.1464  0.7584  0.3711
 2325SOL    HW2 9072   4.506   6.369   1.416 -0.8084 -0.0985  0.3373
 2325SOL    HW3 9073   4.387   6.385   1.324  0.4552 -0.5467 -1.4151
 2325SOL    MW4 9074   4.472   6.396   1.341  0.0612  0.4732  0.1310
 2326SOL     OW 9075   5.799   2.213   2.694 -0.0612 -0.2604 -0.4935
 2326SOL    HW2 9076   5.811   2.140   2.633 -0.9108 -0.2634 -0.6723
 2326SOL    HW3 9077   5.845   2.286   2.652  1.4431 -0.8465  0.0430
 2326SOL    MW4 9078   5.807   2.213   2.681  0.0252 -0.3381 -0.4463
 2327SOL     OW 9079   1.690   1.782   2.934  0.3060  0.1947  0.3873
 2327SOL    HW2 9080   1.783   1.798   2.946 -0.1550  2.6669  1.3094
 2327SOL    HW3 9081   1.648   1.865   2.956 -1.8705  0.4837 -3.8716
 2327SOL    MW4 9082   1.697   1.795   2.939 -0.0420  0.5590 -0.0529
 2328SOL     OW 9083   2.546   5.951   0.215 -0.1780  0.3282 -0.3050
 2328SOL    HW2 9084   2.593   6.027   0.248 -1.5648  0.4285  1.6121
 2328SOL    HW3 9085   2.474   5.988   0.164 -0.0826  0.2459 -0.5034
 2328SOL    MW4 9086   2.543   5.966   0.212 -0.3484  0.3306 -0.0783
 2329SOL     OW 9087   0.201   5.349   0.120 -0.1087 -0.2067  0.4409
 2329SOL    HW2 9088   0.164   5.437   0.132  0.3088 -0.2648  2.7459
 2329SOL    HW3 9089   0.138   5.291   0.164  0.2194 -0.9297 -0.0190
 2329SOL    MW4 9090   0.188   5.353   0.128 -0.0103 -0.3098  0.6843
 2330SOL     OW 9091   4.512   4.373   1.032 -0.0063 -0.0323 -0.7622
 2330SOL    HW2 9092   4.582   4.315   1.002 -0.1403  0.5336 -2.2335
 2330SOL    HW3 9093   4.556   4.439   1.085  0.2224 -1.0976  0.4391
 2330SOL    MW4 9094   4.527   4.374   1.035  0.0062 -0.0982 -0.7979
 2331SOL     OW 9095   3.574   2.211   1.383  0.1439 -0.1232  0.4985
 2331SOL    HW2 9096   3.532   2.195   1.298 -1.1827 -0.1493  1.1358
 2331SOL    HW3 9097   3.502   2.236   1.441  0.7959 -1.5174  1.9927
 2331SOL    MW4 9098   3.559   2.212   1.379  0.0549 -0.3106  0.7797
 2332SOL     OW 9099   2.770   5.609   0.794  0.6723  0.0288 -0.2257
 2332SOL    HW2 9100   2.701   5.607   0.728  1.3037 -0.9793 -0.8815
 2332SOL    HW3 9101   2.757   5.692   0.840 -1.6742 -0.6423  0.4478
 2332SOL    MW4 9102   2.759   5.620   0.791  0.4461 -0.1927 -0.2233
 2333SOL     OW 9103   3.566   1.197   0.970 -0.1278 -0.6719 -0.0865
 2333SOL    HW2 9104   3.533   1.224   1.056 -1.3758  0.8421 -0.9770
 2333SOL    HW3 9105   3.490   1.207   0.912  0.8248 -1.1832 -1.4628
 2333SOL    MW4 9106   3.551   1.201   0.974 -0.1667 -0.5396 -0.3856
 2334SOL     OW 9107   4.041   3.945   6.039 -0.4540 -0.1600  0.4108
 2334SOL    HW2 9108   4.094   4.013   6.080  0.8616 -0.3097 -0.9658
 2334SOL    HW3 9109   4.066   3.864   6.084 -1.0857  0.0597  1.1816
 2334SOL    MW4 9110   4.051   3.943   6.051 -0.3638 -0.1507  0.3309
 2335SOL     OW 9111   2.398   3.024   4.943 -0.0966 -0.0573  0.4552
 2335SOL    HW2 9112   2.405   3.051   4.851 -0.6685 -2.8883 -0.5087
 2335SOL    HW3 9113   2.489   3.023   4.974  0.1424  0.4695 -0.1905
 2335SOL    MW4 9114   2.411   3.028   4.935 -0.1405 -0.3613  0.2428
 2336SOL     OW 9115   4.665   2.620   3.723 -0.0129 -0.3315 -0.0356
 2336SOL    HW2 9116   4.733   2.621   3.655 -1.6574  0.0188 -1.7536
 2336SOL    HW3 9117   4.665   2.709   3.759  0.5858 -0.4015  0.1448
 2336SOL    MW4 9118   4.674   2.632   3.719 -0.1509 -0.2945 -0.2385
 2337SOL     OW 9119   1.744   5.758   0.177 -0.1140  0.3774 -0.3032
 2337SOL    HW2 9120   1.718   5.808   0.099  1.1638  1.1240 -0.2827
 2337SOL    HW3 9121   1.701   5.803   0.250  1.2739  1.6898 -0.2507
 2337SOL    MW4 9122   1.735   5.770   0.176  0.2377  0.6491 -0.2935
 2338SOL     OW 9123   1.117   4.979   3.879  0.3561 -0.2512 -0.0204
 2338SOL    HW2 9124   1.164   5.039   3.822 -0.2916 -0.2880 -0.6060
 2338SOL    HW3 9125   1.088   5.032   3.953  0.8832 -0.1239  0.0942
 2338SOL    MW4 9126   1.119   4.994   3.881  0.3402 -0.2393 -0.0826
 2339SOL     OW 9127   2.364   2.861   2.180  0.8565 -0.0958  0.0577
 2339SOL    HW2 9128   2.456   2.887   2.176  1.0132 -0.7040 -0.5794
 2339SOL    HW3 9129   2.367   2.765   2.174  0.0977 -0.0425 -2.1869
 2339SOL    MW4 9130   2.377   2.852   2.178  0.7771 -0.1690 -0.3225
 2340SOL     OW 9131   2.713   1.398   2.212 -0.0983  0.6255  0.1272
 2340SOL    HW2 9132   2.629   1.435   2.183  0.7696  1.5908 -1.2949
 2340SOL    HW3 9133   2.710   1.307   2.183 -0.2306  0.9444 -0.9322
 2340SOL    MW4 9134   2.702   1.391   2.204 -0.0013  0.7950 -0.2002
 2341SOL     OW 9135   6.095   6.044   2.116  0.7380  0.2035 -0.0363
 2341SOL    HW2 9136   6.014   6.093   2.102  0.4154 -1.0763 -3.6893
 2341SOL    HW3 9137   6.150   6.103   2.168 -1.6444  2.0478  0.5772
 2341SOL    MW4 9138   6.092   6.058   2.121  0.3811  0.2780 -0.4373
 2342SOL     OW 9139   2.131   0.411   5.968  0.0425 -0.0025 -0.0538
 2342SOL    HW2 9140   2.036   0.406   5.981 -0.3239 -2.4706 -2.6709
 2342SOL    HW3 9141   2.167   0.347   6.029 -0.0957 -0.0600 -0.0321
 2342SOL    MW4 9142   2.123   0.402   5.977 -0.0241 -0.3357 -0.3962
 2343SOL     OW 9143   2.072   3.525   6.200 -0.2754  0.2055 -0.1139
 2343SOL    HW2 9144   2.042   3.574   6.277  0.4451 -0.6184  0.7068
 2343SOL    HW3 9145   2.126   3.588   6.152  1.4092  0.0022  1.4075
 2343SOL    MW4 9146   2.075   3.540   6.204  0.0419  0.0700  0.1951
 2344SOL     OW 9147   0.613   1.961   1.153  0.6749  0.5161 -0.4655
 2344SOL    HW2 9148   0.709   1.956   1.155  0.7258  1.3939  0.9721
 2344SOL    HW3 9149   0.589   1.926   1.067  2.1880 -1.1035 -0.2948
 2344SOL    MW4 9150   0.623   1.956   1.142  0.8813  0.4182 -0.2533
 2345SOL     OW 9151   4.407   5.158   3.341  0.4019 -0.9524  0.0458
 2345SOL    HW2 9152   4.441   5.247   3.344  2.0489 -1.4605 -1.5035
 2345SOL    HW3 9153   4.485   5.103   3.328 -0.7959 -2.3619 -1.6882
 2345SOL    MW4 9154   4.422   5.163   3.339  0.4611 -1.2054 -0.3874
 2346SOL     OW 9155   1.828   1.073   2.512  0.6424 -0.3406  0.1227
 2346SOL    HW2 9156   1.825   1.158   2.554 -1.4839 -0.1584 -0.2867
 2346SOL    HW3 9157   1.921   1.050   2.510  1.2530  1.9040  0.3242
 2346SOL    MW4 9158   1.839   1.081   2.517  0.4424 -0.0204  0.0952
 2347SOL     OW 9159   2.184   1.560   1.665  0.0917 -0.1019 -0.2906
 2347SOL    HW2 9160   2.232   1.575   1.583  1.0967 -0.5703  0.1855
 2347SOL    HW3 9161   2.127   1.485   1.646 -0.7063  0.6623 -0.9615
 2347SOL    MW4 9162   2.183   1.552   1.652  0.1190 -0.0628 -0.3163
 2348SOL     OW 9163   1.913   1.201   3.924  0.0417 -0.1882 -0.6164
 2348SOL    HW2 9164   1.941   1.242   4.006 -0.1095 -2.0588  0.4196
 2348SOL    HW3 9165   1.851   1.264   3.886 -2.3455 -0.5364  2.2879
 2348SOL    MW4 9166   1.908   1.215   3.930 -0.2932 -0.4810 -0.0965
 2349SOL     OW 9167   3.706   2.305   0.550 -0.6177  0.3591  0.1226
 2349SOL    HW2 9168   3.627   2.327   0.599 -0.8760 -1.1385  0.4236
 2349SOL    HW3 9169   3.775   2.358   0.591 -1.1055  0.2086  1.1685
 2349SOL    MW4 9170   3.705   2.315   0.562 -0.7162  0.1416  0.3003
 2350SOL     OW 9171   5.675   4.177   2.607  0.0116  0.4115 -0.2821
 2350SOL    HW2 9172   5.768   4.192   2.587  0.1597 -0.1458 -0.0245
 2350SOL    HW3 9173   5.675   4.122   2.685 -0.5592  1.5646  0.5577
 2350SOL    MW4 9174   5.687   4.172   2.615 -0.0442  0.4901 -0.1373
 2351SOL     OW 9175   3.292   3.793   6.053  0.1358  0.4983  0.1935
 2351SOL    HW2 9176   3.248   3.745   5.984 -0.5831  1.3834  0.0141
 2351SOL    HW3 9177   3.260   3.883   6.044 -0.1023  0.5963  1.7777
 2351SOL    MW4 9178   3.282   3.799   6.043  0.0095  0.6280  0.3788
 2352SOL     OW 9179   5.961   0.565   4.903  0.3277  0.2884 -0.0111
 2352SOL    HW2 9180   5.904   0.518   4.842  1.0941  0.2627 -0.7333
 2352SOL    HW3 9181   5.990   0.498   4.965  1.1236 -0.1384 -0.8150
 2352SOL    MW4 9182   5.957   0.550   4.903  0.5338  0.2287 -0.2124
 2353SOL     OW 9183   2.511   3.813   4.301 -0.0798  0.0420  0.1799
 2353SOL    HW2 9184   2.552   3.817   4.388  1.1558 -0.7817 -0.3458
 2353SOL    HW3 9185   2.511   3.720   4.279 -1.7489  0.0736 -0.0996
 2353SOL    MW4 9186   2.517   3.802   4.310 -0.1370 -0.0625  0.0737
 2354SOL     OW 9187   3.695   1.370   3.785  0.1553  0.2231 -0.0823
 2354SOL    HW2 9188   3.706   1.403   3.696  1.8342 -0.7479 -0.2909
 2354SOL    HW3 9189   3.740   1.434   3.841  0.2393  0.1663 -0.0843
 2354SOL    MW4 9190   3.703   1.383   3.781  0.3879  0.0875 -0.1101
 2355SOL     OW 9191   4.389   1.828   5.910 -0.3157 -0.2943 -0.3435
 2355SOL    HW2 9192   4.326   1.772   5.864  0.5837 -1.7069  0.0658
 2355SOL    HW3 9193   4.464   1.833   5.851 -0.4405  0.6337 -0.4358
 2355SOL    MW4 9194   4.391   1.821   5.896 -0.2135 -0.3582 -0.3017
 2356SOL     OW 9195   6.095   1.452   0.811  0.5450 -1.0026 -0.6015
 2356SOL    HW2 9196   6.009   1.459   0.769 -0.2207 -1.0268  0.8834
 2356SOL    HW3 9197   6.121   1.542   0.829  0.4790 -1.0195 -0.4104
 2356SOL    MW4 9198   6.087   1.464   0.808  0.4352 -1.0080 -0.3804
 2357SOL     OW 9199   6.188   1.596   2.777 -0.2453 -0.6794 -0.4091
 2357SOL    HW2 9200   6.146   1.620   2.859  0.8045 -0.0869 -0.0221
 2357SOL    HW3 9201   6.121   1.548   2.728 -1.0463 -0.5797  0.5689
 2357SOL    MW4 9202   6.174   1.593   2.781 -0.2125 -0.5881 -0.2290
 2358SOL     OW 9203   3.724   4.047   1.135 -0.4342 -0.2604  0.0004
 2358SOL    HW2 9204   3.633   4.026   1.157 -0.5069  0.9155  0.9052
 2358SOL    HW3 9205   3.772   4.029   1.216  0.3050 -1.6818 -0.7134
 2358SOL    MW4 9206   3.718   4.042   1.148 -0.3462 -0.2928  0.0256
 2359SOL     OW 9207   5.121   2.353   2.747 -0.1751  0.7313  0.4570
 2359SOL    HW2 9208   5.171   2.289   2.798 -1.4797 -0.3238  0.4816
 2359SOL    HW3 9209   5.091   2.303   2.670 -2.2566  0.9312  1.0778
 2359SOL    MW4 9210   5.124   2.338   2.743 -0.6219  0.6185  0.5421
 2360SOL     OW 9211   1.203   5.783   2.219 -0.0238 -0.2258 -0.3702
 2360SOL    HW2 9212   1.272   5.840   2.253 -0.6620  0.8623 -0.8672
 2360SOL    HW3 9213   1.122   5.832   2.233 -0.5465 -0.8224 -1.2069
 2360SOL    MW4 9214   1.201   5.797   2.226 -0.1770 -0.1610 -0.5461
 2361SOL     OW 9215   4.953   0.765   4.529  0.2891  0.0520  0.0758
 2361SOL    HW2 9216   4.893   0.771   4.604  0.4377  1.5047  0.0932
 2361SOL    HW3 9217   4.896   0.747   4.454 -0.6189  3.9059 -0.3702
 2361SOL    MW4 9218   4.937   0.763   4.529  0.1889  0.7521  0.0193
 2362SOL     OW 9219   0.801   1.526   4.623 -0.0142 -0.0559  0.0933
 2362SOL    HW2 9220   0.775   1.515   4.714 -0.5351  0.5617  0.0266
 2362SOL    HW3 9221   0.728   1.488   4.573 -0.5450  1.1665 -0.0879
 2362SOL    MW4 9222   0.788   1.519   4.628 -0.1530  0.1869  0.0606
 2363SOL     OW 9223   5.305   5.260   6.223  0.3846 -0.7630  0.0826
 2363SOL    HW2 9224   5.218   5.238   6.191  0.3497  0.5983 -0.8679
 2363SOL    HW3 9225   5.359   5.184   6.200 -0.5024 -1.5540  0.5528
 2363SOL    MW4 9226   5.301   5.247   6.216  0.2629 -0.6877  0.0192
 2364SOL     OW 9227   0.875   1.512   0.267 -0.4039 -0.1097 -0.2058
 2364SOL    HW2 9228   0.951   1.520   0.324 -0.3039 -0.4631 -0.2863
 2364SOL    HW3 9229   0.878   1.421   0.235 -0.1553  0.2410 -1.1992
 2364SOL    MW4 9230   0.885   1.501   0.270 -0.3579 -0.1101 -0.3475
 2365SOL     OW 9231   3.926   0.093   2.297 -0.2477 -0.1871  0.0013
 2365SOL    HW2 9232   3.907   0.173   2.347  0.1006 -2.0486  3.4532
 2365SOL    HW3 9233   3.872   0.026   2.340  0.1518 -2.0087 -2.1880
 2365SOL    MW4 9234   3.916   0.095   2.309 -0.1490 -0.6730  0.1679
 2366SOL     OW 9235   2.440   2.398   1.420  0.0227  0.3436 -0.4190
 2366SOL    HW2 9236   2.406   2.373   1.506 -0.2922 -1.1064 -0.9419
 2366SOL    HW3 9237   2.369   2.448   1.379 -0.6619 -0.8068 -0.6609
 2366SOL    MW4 9238   2.426   2.402   1.426 -0.1092  0.0005 -0.5199
 2367SOL     OW 9239   2.975   4.266   6.400 -0.1152  0.5691  0.0959
 2367SOL    HW2 9240   2.942   4.336   6.457 -1.0969 -0.4361  0.8086
 2367SOL    HW3 9241   2.950   4.185   6.444 -0.0632 -0.2490 -1.3034
 2367SOL    MW4 9242   2.968   4.265   6.413 -0.2378  0.3285  0.0053
 2368SOL     OW 9243   0.918   0.640   1.862  0.0807 -0.9226  0.7414
 2368SOL    HW2 9244   0.886   0.728   1.879  0.2390 -0.4743 -1.0370
 2368SOL    HW3 9245   1.005   0.653   1.823 -0.4348 -1.7706 -0.7587
 2368SOL    MW4 9246   0.925   0.653   1.859  0.0336 -0.9754  0.3088
 2369SOL     OW 9247   1.492   1.936   2.349 -0.7527  0.3070 -0.0455
 2369SOL    HW2 9248   1.425   1.950   2.282 -0.7548 -0.0580 -0.1252
 2369SOL    HW3 9249   1.556   1.878   2.307 -0.5800  0.3488  0.1571
 2369SOL    MW4 9250   1.492   1.930   2.335 -0.7302  0.2644 -0.0293
 2370SOL     OW 9251   1.478   5.763   5.408  0.1633  0.2053 -0.0460
 2370SOL    HW2 9252   1.384   5.747   5.421 -0.1584  0.2703 -1.9486
 2370SOL    HW3 9253   1.480   5.829   5.339  1.6236  0.5614  0.3188
 2370SOL    MW4 9254   1.466   5.770   5.400  0.3135  0.2609 -0.2489
 2371SOL     OW 9255   4.193   3.772   3.295 -0.3907 -0.0794  0.0627
 2371SOL    HW2 9256   4.156   3.816   3.218  1.4124  0.0606 -0.7791
 2371SOL    HW3 9257   4.244   3.840   3.340 -0.5650 -0.4266  0.7977
 2371SOL    MW4 9258   4.195   3.787   3.291 -0.1758 -0.1067  0.0486
 2372SOL     OW 9259   1.433   0.803   5.816  0.3529  0.2154 -0.2229
 2372SOL    HW2 9260   1.384   0.768   5.741 -2.5643  0.9931  1.1915
 2372SOL    HW3 9261   1.376   0.788   5.891  2.4741  0.9332  1.6305
 2372SOL    MW4 9262   1.419   0.797   5.816  0.2479  0.4127  0.2082
 2373SOL     OW 9263   3.615   4.419   4.229  0.2244 -0.4544 -0.3489
 2373SOL    HW2 9264   3.613   4.334   4.184  2.1923 -0.8047  0.1386
 2373SOL    HW3 9265   3.695   4.461   4.197  0.2621  0.4198  0.8257
 2373SOL    MW4 9266   3.625   4.413   4.219  0.4890 -0.3853 -0.1296
 2374SOL     OW 9267   2.066   5.767   0.379 -0.5363  0.0236  0.0145
 2374SOL    HW2 9268   1.982   5.744   0.419 -2.7841  0.0878 -4.1211
 2374SOL    HW3 9269   2.068   5.718   0.296  2.8332  1.1990 -0.7860
 2374SOL    MW4 9270   2.056   5.758   0.373 -0.3883  0.1872 -0.6368
 2375SOL     OW 9271   0.970   2.698   6.301  0.4214 -0.0060 -0.3199
 2375SOL    HW2 9272   0.992   2.622   6.248  1.0333  0.6442 -1.0250
 2375SOL    HW3 9273   0.882   2.723   6.274  0.4577 -0.1034 -0.5256
 2375SOL    MW4 9274   0.962   2.692   6.290  0.5070  0.0670 -0.4401
 2376SOL     OW 9275   2.905   6.225   1.923  0.2706 -0.0440 -0.5005
 2376SOL    HW2 9276   2.944   6.140   1.900 -1.9333 -0.9923 -0.9941
 2376SOL    HW3 9277   2.973   6.289   1.901  2.1317 -1.6737  0.1995
 2376SOL    MW4 9278   2.919   6.222   1.917  0.2254 -0.3841 -0.4733
 2377SOL     OW 9279   0.916   3.805   0.964 -0.1818  0.6855  0.1315
 2377SOL    HW2 9280   0.977   3.747   0.919  0.7834  1.8128 -0.0773
 2377SOL    HW3 9281   0.905   3.879   0.904 -2.9059 -0.1222 -0.4795
 2377SOL    MW4 9282   0.923   3.807   0.950 -0.4139  0.7276  0.0233
 2378SOL     OW 9283   6.288   0.950   2.141  0.0712  0.2424  0.2904
 2378SOL    HW2 9284   6.366   1.003   2.127 -0.4847  0.9423 -0.1866
 2378SOL    HW3 9285   6.320   0.872   2.187  1.4779 -0.7049 -2.1118
 2378SOL    MW4 9286   6.302   0.946   2.146  0.1834  0.2098 -0.0895
 2379SOL     OW 9287   4.098   3.027   3.803  0.2323  0.4385  0.3202
 2379SOL    HW2 9288   4.191   3.022   3.827  0.2420 -0.2233  0.1823
 2379SOL    HW3 9289   4.084   2.950   3.747 -0.4729  0.3485  0.6084
 2379SOL    MW4 9290   4.109   3.016   3.799  0.1406  0.3393  0.3401
 2380SOL     OW 9291   3.206   0.263   6.182  0.0456 -0.1728  0.0958
 2380SOL    HW2 9292   3.207   0.301   6.094  0.5411  2.1239  1.0175
 2380SOL    HW3 9293   3.298   0.258   6.207 -0.1474  0.3878  0.9415
 2380SOL    MW4 9294   3.218   0.268   6.174  0.0855  0.2042  0.3290
 2381SOL     OW 9295   6.240   3.618   6.129  0.4642  0.0958 -0.8973
 2381SOL    HW2 9296   6.160   3.600   6.078  0.2916  1.7662 -1.2555
 2381SOL    HW3 9297   6.208   3.644   6.215  0.6037  0.7964 -1.0510
 2381SOL    MW4 9298   6.225   3.619   6.133  0.4598  0.4086 -0.9649
 2382SOL     OW 9299   3.198   1.242   5.770  0.2743 -0.2505 -0.6741
 2382SOL    HW2 9300   3.131   1.175   5.784 -0.9663  0.8541 -1.1535
 2382SOL    HW3 9301   3.149   1.323   5.762  1.8592  1.3119  3.0134
 2382SOL    MW4 9302   3.183   1.244   5.771  0.3197  0.1014 -0.2509
 2383SOL     OW 9303   1.294   2.259   2.943  0.7981  0.3709 -0.1351
 2383SOL    HW2 9304   1.261   2.347   2.960 -0.0359  0.1405 -0.4924
 2383SOL    HW3 9305   1.303   2.219   3.029 -1.2089 -0.0235 -0.0666
 2383SOL    MW4 9306   1.291   2.266   2.957  0.4232  0.2885 -0.1732
 2384SOL     OW 9307   4.396   5.795   2.439  0.5515  0.2246 -0.1276
 2384SOL    HW2 9308   4.409   5.788   2.344  3.0444  0.1444  0.1441
 2384SOL    HW3 9309   4.397   5.889   2.456  0.9488  0.2218 -0.1138
 2384SOL    MW4 9310   4.398   5.806   2.429  0.9329  0.2136 -0.0899
 2385SOL     OW 9311   1.528   3.227   1.933  0.1191  0.0052 -0.2336
 2385SOL    HW2 9312   1.437   3.198   1.925  0.2556 -0.1749 -1.2137
 2385SOL    HW3 9313   1.570   3.159   1.986 -0.6402  0.8518  1.5544
 2385SOL    MW4 9314   1.522   3.214   1.939  0.0369  0.0931 -0.1270
 2386SOL     OW 9315   5.163   2.595   4.770  0.2290 -0.5662 -0.1055
 2386SOL    HW2 9316   5.215   2.523   4.734  1.5892 -0.1075  0.8411
 2386SOL    HW3 9317   5.176   2.588   4.865  0.3038  0.8488  0.0044
 2386SOL    MW4 9318   5.171   2.585   4.778  0.4183 -0.3190  0.0339
 2387SOL     OW 9319   1.260   3.721   6.074  0.8153  0.3289  0.2472
 2387SOL    HW2 9320   1.314   3.735   6.151  1.1546  0.1725  0.0408
 2387SOL    HW3 9321   1.230   3.808   6.049  2.7362  0.7132 -0.9032
 2387SOL    MW4 9322   1.263   3.734   6.081  1.1135  0.3590  0.0682
 2388SOL     OW 9323   2.156   5.161   4.276 -0.1553  0.1024 -0.0619
 2388SOL    HW2 9324   2.156   5.242   4.326  1.3872  0.1394 -0.0640
 2388SOL    HW3 9325   2.231   5.170   4.216 -0.4037 -1.0171 -0.5688
 2388SOL    MW4 9326   2.166   5.173   4.274  0.0154 -0.0404 -0.1290
 2389SOL     OW 9327   2.439   4.021   4.117 -0.2724 -0.3423  0.1386
 2389SOL    HW2 9328   2.450   3.965   4.194 -0.4187 -1.1085 -0.3813
 2389SOL    HW3 9329   2.413   4.106   4.152 -0.4819 -0.7227  0.9278
 2389SOL    MW4 9330   2.437   4.025   4.132 -0.3193 -0.4936  0.1741
 2390SOL     OW 9331   1.707   4.680   6.136 -0.0552  0.3601  0.1718
 2390SOL    HW2 9332   1.664   4.667   6.052  0.6482 -0.8505 -0.0284
 2390SOL    HW3 9333   1.671   4.610   6.192 -1.7523  2.1213  1.4107
 2390SOL    MW4 9334   1.696   4.669   6.133 -0.1863  0.4328  0.3088
 2391SOL     OW 9335   0.153   5.302   0.968 -0.6688  0.2495  0.3302
 2391SOL    HW2 9336   0.170   5.342   1.053 -0.5947 -1.4925  1.1800
 2391SOL    HW3 9337   0.058   5.288   0.967 -0.3800 -2.4244  1.4742
 2391SOL    MW4 9338   0.143   5.305   0.979 -0.6209 -0.3331  0.5933
 2392SOL     OW 9339   3.028   0.232   2.698  0.0413  0.9562  0.1833
 2392SOL    HW2 9340   3.025   0.322   2.729 -0.9949  1.0720 -0.2135
 2392SOL    HW3 9341   2.936   0.207   2.687  0.1604 -0.8961  2.4198
 2392SOL    MW4 9342   3.015   0.240   2.701 -0.0797  0.7271  0.4260
 2393SOL     OW 9343   5.555   5.827   3.803 -0.3369  0.2003 -0.6090
 2393SOL    HW2 9344   5.617   5.895   3.830 -0.0033 -0.1603 -0.4491
 2393SOL    HW3 9345   5.527   5.786   3.885  0.3470 -0.6100 -0.7598
 2393SOL    MW4 9346   5.560   5.830   3.817 -0.2027  0.0458 -0.6078
 2394SOL     OW 9347   1.163   3.873   4.220 -0.0808  0.1262 -0.0386
 2394SOL    HW2 9348   1.081   3.916   4.197  0.7072  0.9688 -1.4086
 2394SOL    HW3 9349   1.146   3.832   4.305 -2.1842 -0.4472 -0.6783
 2394SOL    MW4 9350   1.150   3.873   4.228 -0.2544  0.1617 -0.3037
 2395SOL     OW 9351   4.339   2.754   2.688  0.0969  0.2586  0.0655
 2395SOL    HW2 9352   4.392   2.826   2.655 -0.7521  0.6443 -0.4974
 2395SOL    HW3 9353   4.402   2.691   2.722  0.9379  0.4137 -1.1658
 2395SOL    MW4 9354   4.354   2.755   2.688  0.0958  0.3300 -0.1712
 2396SOL     OW 9355   5.339   3.627   1.102 -0.3114 -0.0840  0.1300
 2396SOL    HW2 9356   5.325   3.534   1.124  0.6571  0.3630  3.0765
 2396SOL    HW3 9357   5.304   3.675   1.177  1.3447  1.8117 -0.2178
 2396SOL    MW4 9358   5.332   3.621   1.115  0.0349  0.2251  0.4728
 2397SOL     OW 9359   5.485   5.064   3.457  0.5428 -0.4958 -0.1845
 2397SOL    HW2 9360   5.513   4.979   3.493 -0.2541 -0.6564  0.0822
 2397SOL    HW3 9361   5.459   5.044   3.367  2.9138 -0.0226 -1.0541
 2397SOL    MW4 9362   5.485   5.050   3.450  0.7504 -0.4545 -0.2641
 2398SOL     OW 9363   2.776   0.678   4.929 -0.6594 -0.0283 -0.4860
 2398SOL    HW2 9364   2.817   0.599   4.964  0.1043  0.6040  0.0985
 2398SOL    HW3 9365   2.682   0.660   4.932 -0.4742 -1.2781 -1.2676
 2398SOL    MW4 9366   2.769   0.665   4.934 -0.5342 -0.1098 -0.5120
 2399SOL     OW 9367   3.299   3.102   2.865 -0.0643 -0.1060  0.1786
 2399SOL    HW2 9368   3.273   3.152   2.787 -0.3692  0.4195  0.6112
 2399SOL    HW3 9369   3.252   3.019   2.857 -3.5758  1.4988  1.8925
 2399SOL    MW4 9370   3.289   3.097   2.853 -0.5678  0.1751  0.4618
 2400SOL     OW 9371   5.913   1.665   2.373  0.0447 -0.2071 -0.6851
 2400SOL    HW2 9372   5.837   1.722   2.389  0.5305  0.6310 -1.3149
 2400SOL    HW3 9373   5.986   1.725   2.359  0.5418 -0.9849 -1.5247
 2400SOL    MW4 9374   5.912   1.680   2.373  0.1744 -0.1992 -0.8790
 2401SOL     OW 9375   2.848   2.768   1.732  0.3774 -0.1698 -0.3774
 2401SOL    HW2 9376   2.876   2.822   1.805  0.2808 -3.0112  1.9628
 2401SOL    HW3 9377   2.927   2.754   1.680  1.0668 -0.1819  0.6477
 2401SOL    MW4 9378   2.862   2.773   1.734  0.4556 -0.5463  0.0666
 2402SOL     OW 9379   6.086   0.136   5.177  0.6835  0.1800  0.3449
 2402SOL    HW2 9380   6.102   0.063   5.118 -0.1512  0.7581 -0.6296
 2402SOL    HW3 9381   6.172   0.177   5.189  0.7860  0.3830 -0.9380
 2402SOL    MW4 9382   6.099   0.132   5.171  0.5869  0.2830  0.0470
 2403SOL     OW 9383   2.628   2.513   3.092 -0.1249 -0.2384 -0.3220
 2403SOL    HW2 9384   2.613   2.418   3.083  1.2354 -0.3321 -2.1224
 2403SOL    HW3 9385   2.722   2.521   3.107  0.3759  0.9044 -3.4152
 2403SOL    MW4 9386   2.638   2.501   3.093  0.1207 -0.0999 -0.9676
 2404SOL     OW 9387   5.559   3.796   1.751  0.1925 -0.5716 -0.1673
 2404SOL    HW2 9388   5.557   3.815   1.845  3.3638 -0.2808 -0.0437
 2404SOL    HW3 9389   5.470   3.814   1.722 -0.5515  0.7710  2.5205
 2404SOL    MW4 9390   5.547   3.801   1.760  0.5127 -0.3561  0.2036
 2405SOL     OW 9391   2.196   4.619   4.822  0.0750 -0.6932 -0.1351
 2405SOL    HW2 9392   2.108   4.656   4.824 -0.2257 -1.4134  0.8105
 2405SOL    HW3 9393   2.234   4.642   4.906  1.5419  1.2819 -1.2647
 2405SOL    MW4 9394   2.189   4.627   4.833  0.2289 -0.5276 -0.1594
 2406SOL     OW 9395   2.474   3.459   4.900  0.2651 -0.1586 -0.0527
 2406SOL    HW2 9396   2.394   3.413   4.924 -1.2932  1.8049 -1.1690
 2406SOL    HW3 9397   2.483   3.529   4.965 -0.3758  1.1716 -1.3395
 2406SOL    MW4 9398   2.465   3.462   4.912 -0.0250  0.2760 -0.3698
 2407SOL     OW 9399   3.495   5.828   6.035  0.6485 -0.0701 -0.5379
 2407SOL    HW2 9400   3.590   5.827   6.052  0.5629  0.5851  0.0390
 2407SOL    HW3 9401   3.470   5.736   6.032  1.0021 -0.2549  1.1510
 2407SOL    MW4 9402   3.505   5.816   6.037  0.6838 -0.0080 -0.2390
 2408SOL     OW 9403   2.832   5.803   3.544  0.0377 -0.0046  0.4701
 2408SOL    HW2 9404   2.811   5.884   3.590  0.1563 -0.0534  0.6129
 2408SOL    HW3 9405   2.800   5.734   3.602 -1.4033 -0.0427 -0.3272
 2408SOL    MW4 9406   2.825   5.805   3.558 -0.1368 -0.0161  0.3837
 2409SOL     OW 9407   2.973   6.403   5.420  0.5052  0.1743 -0.1869
 2409SOL    HW2 9408   2.884   6.367   5.415  0.8228 -0.4530 -1.8988
 2409SOL    HW3 9409   2.991   6.435   5.332  1.9115  0.4616  0.1867
 2409SOL    MW4 9410   2.964   6.402   5.408  0.7327  0.1295 -0.3634
 2410SOL     OW 9411   2.568   3.530   5.385 -0.7264  0.4515  0.1728
 2410SOL    HW2 9412   2.594   3.501   5.472 -1.4775 -1.9154 -0.3305
 2410SOL    HW3 9413   2.651   3.543   5.339 -0.1918 -3.0052 -0.1447
 2410SOL    MW4 9414   2.583   3.528   5.390 -0.7550 -0.3168  0.0645
 2411SOL     OW 9415   1.112   3.992   1.606  0.0806  0.1444 -0.1346
 2411SOL    HW2 9416   1.180   4.016   1.669 -0.3574 -1.1301  0.8459
 2411SOL    HW3 9417   1.034   3.977   1.659 -0.0777 -1.8238 -0.8591
 2411SOL    MW4 9418   1.111   3.993   1.621  0.0019 -0.2834 -0.1008
 2412SOL     OW 9419   5.708   4.220   1.184  0.6293  0.6694 -0.2754
 2412SOL    HW2 9420   5.668   4.306   1.166 -0.3089 -0.0936 -2.1225
 2412SOL    HW3 9421   5.634   4.161   1.197  1.2717  0.1690  1.2536
 2412SOL    MW4 9422   5.693   4.224   1.183  0.5903  0.5027 -0.3173
 2413SOL     OW 9423   5.709   1.927   5.718 -0.3423  1.0160  0.7601
 2413SOL    HW2 9424   5.734   1.934   5.626 -0.7717  0.3474  0.5899
 2413SOL    HW3 9425   5.646   1.998   5.731 -2.4658 -0.6020 -0.2112
 2413SOL    MW4 9426   5.704   1.937   5.708 -0.6792  0.7143  0.6095
 2414SOL     OW 9427   0.837   4.219   0.565  0.2604 -0.2584 -0.6907
 2414SOL    HW2 9428   0.792   4.166   0.499 -0.2823 -0.2124 -0.3686
 2414SOL    HW3 9429   0.766   4.252   0.621  0.7115 -0.2952 -0.0883
 2414SOL    MW4 9430   0.822   4.217   0.564  0.2483 -0.2572 -0.5687
 2415SOL     OW 9431   3.485   6.048   6.211 -0.2777  0.0184  0.1976
 2415SOL    HW2 9432   3.463   5.999   6.290  0.6388  1.5156  1.4500
 2415SOL    HW3 9433   3.468   5.987   6.139 -1.9786 -1.1144  1.4619
 2415SOL    MW4 9434   3.480   6.034   6.212 -0.3812  0.0665  0.5296
 2416SOL     OW 9435   3.735   3.410   5.063 -0.2008  1.1128 -0.6163
 2416SOL    HW2 9436   3.730   3.409   5.158  1.9440  0.7430 -0.4487
 2416SOL    HW3 9437   3.668   3.348   5.035 -0.9021  1.2727  0.6456
 2416SOL    MW4 9438   3.726   3.402   5.072 -0.0103  1.0851 -0.4277
 2417SOL     OW 9439   6.199   5.451   0.520 -0.3268  0.3295  0.3602
 2417SOL    HW2 9440   6.240   5.483   0.440 -0.6132  0.9683  0.4661
 2417SOL    HW3 9441   6.271   5.445   0.583 -0.1598  0.1511  0.1525
 2417SOL    MW4 9442   6.214   5.454   0.518 -0.3425  0.3903  0.3467
 2418SOL     OW 9443   3.569   1.443   2.198  0.0253 -0.2673  0.3323
 2418SOL    HW2 9444   3.535   1.503   2.131  2.4404 -0.7937 -1.5146
 2418SOL    HW3 9445   3.621   1.500   2.256  2.8645 -0.4851 -1.7980
 2418SOL    MW4 9446   3.571   1.459   2.197  0.7186 -0.3655 -0.1925
 2419SOL     OW 9447   3.639   6.060   0.330 -0.7248  0.4084  0.0139
 2419SOL    HW2 9448   3.566   6.009   0.297 -1.1530  1.3462 -0.5481
 2419SOL    HW3 9449   3.622   6.149   0.298  2.4293  0.0797 -3.2369
 2419SOL    MW4 9450   3.627   6.065   0.322 -0.3651  0.4887 -0.4891
 2420SOL     OW 9451   4.822   2.397   1.798  0.2469  0.1835  0.4343
 2420SOL    HW2 9452   4.821   2.487   1.766 -0.2443  0.6048  1.5551
 2420SOL    HW3 9453   4.743   2.357   1.761  1.4321 -0.3895 -1.5983
 2420SOL    MW4 9454   4.812   2.403   1.789  0.3385  0.1635  0.3140
 2421SOL     OW 9455   3.763   0.303   5.861 -0.6017  0.3138 -0.2046
 2421SOL    HW2 9456   3.794   0.252   5.935  0.1784 -0.0515 -0.7710
 2421SOL    HW3 9457   3.836   0.361   5.840 -1.3303  1.3935  0.1764
 2421SOL    MW4 9458   3.776   0.304   5.868 -0.5949  0.4081 -0.2290
 2422SOL     OW 9459   3.679   5.509   1.139 -0.0362 -0.2541  0.3743
 2422SOL    HW2 9460   3.772   5.504   1.118  0.1108 -0.2953  1.0070
 2422SOL    HW3 9461   3.676   5.504   1.235 -0.7191 -0.7342  0.3359
 2422SOL    MW4 9462   3.691   5.508   1.149 -0.1069 -0.3229  0.4527
 2423SOL     OW 9463   2.945   4.830   5.459 -0.9473 -0.6139 -0.0281
 2423SOL    HW2 9464   2.919   4.866   5.544 -0.3827 -1.1908  0.3976
 2423SOL    HW3 9465   2.888   4.874   5.396 -0.8124  0.4448  0.5597
 2423SOL    MW4 9466   2.934   4.841   5.462 -0.8550 -0.5503  0.1056
 2424SOL     OW 9467   0.335   2.780   2.968  0.1939 -0.5079 -0.4555
 2424SOL    HW2 9468   0.284   2.737   3.037  0.0584 -0.7623 -0.7108
 2424SOL    HW3 9469   0.276   2.784   2.893  0.0308  0.5876 -0.2893
 2424SOL    MW4 9470   0.320   2.775   2.967  0.1545 -0.3970 -0.4673
 2425SOL     OW 9471   1.834   4.029   2.809 -0.6516  0.1051  0.0782
 2425SOL    HW2 9472   1.874   4.001   2.892  0.8822  0.9443 -0.3322
 2425SOL    HW3 9473   1.861   3.962   2.746 -0.8427  0.0848  0.0183
 2425SOL    MW4 9474   1.843   4.016   2.812 -0.4744  0.2131  0.0161
 2426SOL     OW 9475   0.098   1.407   1.670 -0.2245  0.6898  0.0312
 2426SOL    HW2 9476   0.113   1.342   1.739 -0.5288 -0.2091 -0.7193
 2426SOL    HW3 9477   0.184   1.441   1.649  0.1878 -0.7236 -0.7292
 2426SOL    MW4 9478   0.111   1.403   1.677 -0.2102  0.3847 -0.1681
 2427SOL     OW 9479   5.428   0.605   5.498 -0.2772 -0.1950  0.7109
 2427SOL    HW2 9480   5.445   0.546   5.425  0.4204  0.2857  0.4803
 2427SOL    HW3 9481   5.373   0.554   5.557 -0.8072 -0.6051 -0.1200
 2427SOL    MW4 9482   5.423   0.591   5.496 -0.2551 -0.1857  0.5708
 2428SOL     OW 9483   5.982   3.216   4.161  0.6664 -0.6294  0.0733
 2428SOL    HW2 9484   6.042   3.272   4.211 -0.5491 -1.2733  2.3875
 2428SOL    HW3 9485   5.897   3.259   4.170 -0.0730 -2.1868  0.9043
 2428SOL    MW4 9486   5.979   3.229   4.169  0.4085 -0.9198  0.4883
 2429SOL     OW 9487   5.766   2.842   6.359  0.0570 -0.3344  0.1884
 2429SOL    HW2 9488   5.736   2.879   6.276 -0.5551 -1.5579 -0.1695
 2429SOL    HW3 9489   5.849   2.886   6.377  0.2975 -0.1716 -1.1773
 2429SOL    MW4 9490   5.773   2.852   6.350  0.0080 -0.4743 -0.0390
 2430SOL     OW 9491   0.806   3.993   0.754 -0.3869  0.4697  0.3166
 2430SOL    HW2 9492   0.780   3.938   0.680 -2.7548  1.6495  0.1623
 2430SOL    HW3 9493   0.842   4.072   0.714  3.9025 -1.1060  0.5262
 2430SOL    MW4 9494   0.807   3.997   0.739 -0.1334  0.4175  0.3239
 2431SOL     OW 9495   1.023   6.440   6.324  0.2968 -0.0992  0.3252
 2431SOL    HW2 9496   1.076   6.361   6.335  0.6523  0.0168 -0.4664
 2431SOL    HW3 9497   0.997   6.439   6.232 -1.4022 -0.3414  0.7809
 2431SOL    MW4 9498   1.026   6.429   6.314  0.1195 -0.1159  0.2809
 2432SOL     OW 9499   2.254   1.925   5.298 -0.1103 -0.0514  0.3056
 2432SOL    HW2 9500   2.225   1.974   5.221 -0.8197  2.4156  2.0308
 2432SOL    HW3 9501   2.329   1.973   5.331 -0.3201 -0.5830  1.6279
 2432SOL    MW4 9502   2.260   1.938   5.292 -0.2316  0.2039  0.7077
 2433SOL     OW 9503   0.031   3.136   2.958 -0.2657 -0.3133 -0.9395
 2433SOL    HW2 9504  -0.030   3.078   2.914 -0.9016 -0.5015  0.1416
 2433SOL    HW3 9505   0.016   3.222   2.920 -0.0862 -0.6505 -1.7832
 2433SOL    MW4 9506   0.021   3.139   2.947 -0.3259 -0.3826 -0.9082
 2434SOL     OW 9507   2.683   5.274   0.601  0.5348  0.1814  0.0847
 2434SOL    HW2 9508   2.674   5.182   0.573  1.5731  0.4592 -1.2260
 2434SOL    HW3 9509   2.697   5.268   0.695  0.6731 -1.0173  0.0140
 2434SOL    MW4 9510   2.683   5.261   0.610  0.6900  0.0599 -0.0976
 2435SOL     OW 9511   2.883   0.953   3.986 -0.2990  0.2968  0.2658
 2435SOL    HW2 9512   2.899   0.952   3.892 -1.4638  1.5453  0.0150
 2435SOL    HW3 9513   2.793   0.923   3.996 -0.3302  0.5875  0.9402
 2435SOL    MW4 9514   2.873   0.949   3.975 -0.4568  0.4999  0.3217
 2436SOL     OW 9515   1.915   4.126   0.488 -0.4441  0.3223  0.8127
 2436SOL    HW2 9516   1.957   4.206   0.520 -0.6571  0.7152  0.1487
 2436SOL    HW3 9517   1.974   4.093   0.420 -0.9037  0.5476  0.2953
 2436SOL    MW4 9518   1.928   4.132   0.483 -0.5328  0.4038  0.6568
 2437SOL     OW 9519   3.860   3.958   0.230 -0.8334 -0.5566  0.0973
 2437SOL    HW2 9520   3.903   3.957   0.315 -1.6467 -0.6335  0.5129
 2437SOL    HW3 9521   3.920   4.008   0.174 -0.5332 -0.0754  0.8359
 2437SOL    MW4 9522   3.874   3.964   0.234 -0.9011 -0.5032  0.2496
 2438SOL     OW 9523   2.318   4.349   0.846 -0.2819  0.2684  0.0624
 2438SOL    HW2 9524   2.402   4.362   0.802  0.1583 -3.4775 -0.5475
 2438SOL    HW3 9525   2.253   4.388   0.787  0.9063  3.3688  0.6185
 2438SOL    MW4 9526   2.321   4.356   0.833 -0.0671  0.1832  0.0553
 2439SOL     OW 9527   4.093   2.600   3.843 -0.6333  0.3389 -0.1917
 2439SOL    HW2 9528   4.102   2.569   3.933  2.1589  2.9584  0.5809
 2439SOL    HW3 9529   4.010   2.647   3.842 -1.0023 -0.2685  0.8099
 2439SOL    MW4 9530   4.083   2.602   3.855 -0.3136  0.6044  0.0424
 2440SOL     OW 9531   1.258   6.001   5.446  0.2051  0.0582 -0.0216
 2440SOL    HW2 9532   1.226   5.961   5.365  0.6739  0.9316 -0.6548
 2440SOL    HW3 9533   1.221   5.947   5.516  0.0952 -0.9389 -0.8234
 2440SOL    MW4 9534   1.249   5.988   5.445  0.2524  0.0419 -0.2109
 2441SOL     OW 9535   0.139   0.365   4.252  0.0179 -0.3814 -0.0131
 2441SOL    HW2 9536   0.099   0.281   4.231  1.6616 -1.0022 -0.8381
 2441SOL    HW3 9537   0.088   0.398   4.326 -2.2491 -0.9013 -1.2642
 2441SOL    MW4 9538   0.127   0.358   4.259 -0.0643 -0.5319 -0.2870
 2442SOL     OW 9539   0.726   2.184   3.382  0.2082 -0.5398  0.5383
 2442SOL    HW2 9540   0.639   2.192   3.421  0.6394 -3.8412  2.5386
 2442SOL    HW3 9541   0.710   2.143   3.297 -0.3704  2.7599 -1.1316
 2442SOL    MW4 9542   0.712   2.180   3.376  0.1888 -0.5401  0.5819
 2443SOL     OW 9543   2.912   5.749   1.021  0.0025  0.6548 -0.4545
 2443SOL    HW2 9544   2.916   5.659   1.054 -0.3106  0.7133 -0.2506
 2443SOL    HW3 9545   2.964   5.800   1.083  1.4794  0.3791 -1.4148
 2443SOL    MW4 9546   2.920   5.744   1.033  0.1561  0.6262 -0.5543
 2444SOL     OW 9547   0.793   3.932   2.033  0.1343  0.3620 -0.3657
 2444SOL    HW2 9548   0.700   3.919   2.016  0.0352  0.7405 -0.1067
 2444SOL    HW3 9549   0.800   3.937   2.129  0.7150 -1.9996 -0.2063
 2444SOL    MW4 9550   0.782   3.931   2.044  0.1978  0.1003 -0.3105
 2445SOL     OW 9551   3.651   2.668   0.407  0.8786 -0.0792  0.3352
 2445SOL    HW2 9552   3.683   2.745   0.359 -1.6276  1.6383  1.2210
 2445SOL    HW3 9553   3.683   2.594   0.356  1.6794  1.5703 -1.7366
 2445SOL    MW4 9554   3.660   2.669   0.394  0.6536  0.3651  0.1787
 2446SOL     OW 9555   0.704   0.979   6.074  0.6949  0.1749  0.1466
 2446SOL    HW2 9556   0.788   0.933   6.068  0.1051 -0.8995 -0.2830
 2446SOL    HW3 9557   0.696   1.001   6.167  1.4073  0.2048  0.2091
 2446SOL    MW4 9558   0.714   0.976   6.086  0.7110  0.0371  0.0982
 2447SOL     OW 9559   0.675   1.081   5.439 -0.9438  0.1454  0.4124
 2447SOL    HW2 9560   0.660   1.109   5.529  0.6058 -0.7154  0.9822
 2447SOL    HW3 9561   0.681   0.985   5.444  0.2161  0.1448 -0.3927
 2447SOL    MW4 9562   0.674   1.072   5.451 -0.5863  0.0318  0.3814
 2448SOL     OW 9563   1.048   5.582   3.412 -0.3218 -0.4066 -0.4202
 2448SOL    HW2 9564   1.125   5.527   3.426 -0.5933 -0.0563  3.5598
 2448SOL    HW3 9565   0.981   5.522   3.378  0.9237 -1.2668 -1.4221
 2448SOL    MW4 9566   1.049   5.567   3.409 -0.1933 -0.4739 -0.0273
 2449SOL     OW 9567   1.634   0.499   1.824  0.3161 -0.4152  0.0914
 2449SOL    HW2 9568   1.662   0.425   1.878  0.9448 -1.2152 -1.2951
 2449SOL    HW3 9569   1.551   0.527   1.864  1.0362 -0.6019  1.8034
 2449SOL    MW4 9570   1.627   0.493   1.837  0.4940 -0.5454  0.1344
 2450SOL     OW 9571   3.259   4.619   2.196  0.2678 -0.1342  0.3219
 2450SOL    HW2 9572   3.257   4.605   2.102 -0.2608  0.5950  0.2169
 2450SOL    HW3 9573   3.337   4.572   2.226  0.3823 -0.4536 -0.4560
 2450SOL    MW4 9574   3.269   4.611   2.188  0.2132 -0.0801  0.2054
 2451SOL     OW 9575   3.676   2.479   2.549 -0.6139  0.5470 -0.2253
 2451SOL    HW2 9576   3.750   2.418   2.541 -1.6335 -0.6957 -0.5522
 2451SOL    HW3 9577   3.711   2.552   2.600  0.5017 -0.6138  0.7675
 2451SOL    MW4 9578   3.690   2.480   2.555 -0.6013  0.2299 -0.1375
 2452SOL     OW 9579   1.764   6.332   5.590 -0.0858 -0.8475 -0.2242
 2452SOL    HW2 9580   1.860   6.338   5.591 -0.1451  0.7828  1.7020
 2452SOL    HW3 9581   1.746   6.243   5.560  2.0837 -1.9854  1.5491
 2452SOL    MW4 9582   1.775   6.321   5.586  0.1926 -0.7825  0.2639
 2453SOL     OW 9583   6.048   1.578   4.946  0.1700  0.1562 -0.1586
 2453SOL    HW2 9584   6.006   1.645   5.000 -0.7690 -0.6002  0.0844
 2453SOL    HW3 9585   6.104   1.530   5.006  0.5227  0.4510 -0.2465
 2453SOL    MW4 9586   6.050   1.581   4.961  0.0927  0.0953 -0.1381
 2454SOL     OW 9587   2.093   2.118   5.927  0.6313 -0.0391  0.1549
 2454SOL    HW2 9588   2.165   2.117   5.863  2.5318 -0.6704  2.1682
 2454SOL    HW3 9589   2.014   2.121   5.874  2.1059 -0.1027 -2.2056
 2454SOL    MW4 9590   2.092   2.119   5.911  1.0766 -0.1308  0.1091
 2455SOL     OW 9591   0.193   4.552   2.729  0.1644 -0.6348  0.4320
 2455SOL    HW2 9592   0.135   4.595   2.792  0.4558  2.0554 -1.0147
 2455SOL    HW3 9593   0.133   4.506   2.670 -0.3263 -0.2220  0.5980
 2455SOL    MW4 9594   0.178   4.551   2.730  0.1381 -0.2254  0.2630
 2456SOL     OW 9595   3.472   5.679   2.672  0.3348 -0.5524  0.1840
 2456SOL    HW2 9596   3.446   5.602   2.621  0.2020  0.2040 -0.9332
 2456SOL    HW3 9597   3.480   5.647   2.761  1.1386 -2.0681 -0.3840
 2456SOL    MW4 9598   3.470   5.664   2.677  0.4233 -0.6526 -0.0383
 2457SOL     OW 9599   5.512   2.816   3.759  0.1237  0.1999  0.6332
 2457SOL    HW2 9600   5.547   2.749   3.818  2.4824 -0.3219 -1.2486
 2457SOL    HW3 9601   5.564   2.894   3.777 -0.2113  0.5039  0.3104
 2457SOL    MW4 9602   5.523   2.817   3.769  0.3907  0.1712  0.3423
 2458SOL     OW 9603   0.334   2.988   1.265  0.2155  0.3014  0.2622
 2458SOL    HW2 9604   0.324   2.955   1.176 -1.5118  0.3685  0.3889
 2458SOL    HW3 9605   0.428   3.003   1.275  0.5854 -0.8634 -1.1179
 2458SOL    MW4 9606   0.345   2.986   1.254  0.0364  0.1566  0.0968
 2459SOL     OW 9607   6.052   3.416   2.664  0.0175 -0.2104 -0.0376
 2459SOL    HW2 9608   6.079   3.482   2.727  1.3345 -0.9135  0.1701
 2459SOL    HW3 9609   6.030   3.466   2.585 -1.9649  0.7056  1.0016
 2459SOL    MW4 9610   6.052   3.431   2.662 -0.0703 -0.1823  0.1269
 2460SOL     OW 9611   0.869   2.206   0.929 -0.0664 -0.2949 -0.7755
 2460SOL    HW2 9612   0.827   2.277   0.879 -1.6675 -0.8643 -0.3269
 2460SOL    HW3 9613   0.891   2.246   1.013 -0.8265 -0.2690 -0.5788
 2460SOL    MW4 9614   0.866   2.220   0.933 -0.3779 -0.3666 -0.6904
 2461SOL     OW 9615   0.080   2.522   6.382  0.3829 -0.0191 -0.5317
 2461SOL    HW2 9616   0.118   2.509   6.468  0.8726 -0.8058 -0.8547
 2461SOL    HW3 9617   0.026   2.600   6.391  0.2489 -0.2225  0.5383
 2461SOL    MW4 9618   0.078   2.531   6.394  0.4298 -0.1497 -0.4332
 2462SOL     OW 9619   0.636   3.444   6.322 -0.3796  0.1635 -0.4266
 2462SOL    HW2 9620   0.711   3.408   6.368 -2.2069 -1.4760  1.5282
 2462SOL    HW3 9621   0.633   3.398   6.238  0.4550 -0.1830 -0.2674
 2462SOL    MW4 9622   0.645   3.433   6.317 -0.5106 -0.0985 -0.1477
 2463SOL     OW 9623   0.387   4.908   3.068  0.1795  0.4212  0.4547
 2463SOL    HW2 9624   0.423   4.880   2.984  0.1649 -0.5785  0.7699
 2463SOL    HW3 9625   0.463   4.912   3.127  0.1108  0.5828  0.5340
 2463SOL    MW4 9626   0.402   4.905   3.065  0.1685  0.3106  0.5067
 2464SOL     OW 9627   4.825   0.153   0.768  0.0263 -0.0494  0.1036
 2464SOL    HW2 9628   4.910   0.119   0.740  0.8678  2.4599 -0.6218
 2464SOL    HW3 9629   4.792   0.201   0.692 -0.9078  1.0691  1.1713
 2464SOL    MW4 9630   4.832   0.155   0.754  0.0141  0.4292  0.1488
 2465SOL     OW 9631   4.744   3.263   1.113  0.0780  0.1170 -0.1483
 2465SOL    HW2 9632   4.733   3.169   1.128  2.1187 -0.3772 -1.3549
 2465SOL    HW3 9633   4.833   3.272   1.080 -0.0836  2.4918 -0.1325
 2465SOL    MW4 9634   4.754   3.252   1.111  0.3260  0.3651 -0.3054
 2466SOL     OW 9635   0.033   1.656   5.702  0.6420  0.1937  0.4953
 2466SOL    HW2 9636   0.095   1.680   5.632 -0.8747  0.4993 -0.7913
 2466SOL    HW3 9637   0.081   1.591   5.754  1.1825 -1.5883 -2.0038
 2466SOL    MW4 9638   0.048   1.650   5.699  0.5132 -0.0011 -0.0042
 2467SOL     OW 9639   4.836   5.191   3.091  0.1907  0.0861 -0.5918
 2467SOL    HW2 9640   4.912   5.204   3.035  0.5866  0.0399 -0.0729
 2467SOL    HW3 9641   4.861   5.228   3.176 -0.1244 -0.5012 -0.2294
 2467SOL    MW4 9642   4.849   5.197   3.095  0.2014  0.0025 -0.4755
 2468SOL     OW 9643   0.283   2.202   0.173  0.2003  0.5842 -0.0619
 2468SOL    HW2 9644   0.262   2.291   0.202 -1.6330  0.6434 -1.4059
 2468SOL    HW3 9645   0.333   2.215   0.092  1.8567  0.3656  0.8715
 2468SOL    MW4 9646   0.287   2.216   0.166  0.1770  0.5632 -0.1160
 2469SOL     OW 9647   5.912   2.361   5.735  0.6030  0.5553  0.2404
 2469SOL    HW2 9648   5.879   2.449   5.755  0.2479  0.0842  1.9056
 2469SOL    HW3 9649   5.894   2.310   5.815  0.0271 -1.2500 -0.9745
 2469SOL    MW4 9650   5.905   2.366   5.749  0.4801  0.2550  0.2998
 2470SOL     OW 9651   4.950   3.394   1.700 -0.0463  0.0574  0.1353
 2470SOL    HW2 9652   4.871   3.423   1.655 -0.4506 -0.7229  0.3240
 2470SOL    HW3 9653   5.012   3.373   1.630 -0.1049  0.4065 -0.0186
 2470SOL    MW4 9654   4.948   3.395   1.685 -0.1074  0.0005  0.1399
 2471SOL     OW 9655   0.473   0.371   5.704 -0.1807 -0.1943 -0.4627
 2471SOL    HW2 9656   0.487   0.294   5.648  0.3223  0.1121 -0.7698
 2471SOL    HW3 9657   0.536   0.360   5.775  3.2092  2.0759 -2.7630
 2471SOL    MW4 9658   0.483   0.359   5.706  0.3330  0.1457 -0.8067
 2472SOL     OW 9659   3.103   5.049   1.328 -0.2278 -0.0231 -0.2806
 2472SOL    HW2 9660   3.170   4.982   1.315  0.9491  1.0157  0.1409
 2472SOL    HW3 9661   3.050   5.047   1.249  1.4822  0.3937 -1.4993
 2472SOL    MW4 9662   3.105   5.040   1.316  0.1531  0.1690 -0.3858
 2473SOL     OW 9663   3.258   0.559   0.828 -0.1044  0.4265 -0.3120
 2473SOL    HW2 9664   3.314   0.617   0.777 -0.1728  0.7633 -0.0067
 2473SOL    HW3 9665   3.304   0.475   0.827 -1.0183 -0.1110 -2.5101
 2473SOL    MW4 9666   3.272   0.555   0.821 -0.2340  0.4000 -0.5618
 2474SOL     OW 9667   1.412   5.325   1.026 -0.1036 -0.3168  0.0265
 2474SOL    HW2 9668   1.439   5.248   1.077  1.8893  1.1450  1.3737
 2474SOL    HW3 9669   1.318   5.314   1.014 -0.3294 -1.7536  2.3579
 2474SOL    MW4 9670   1.403   5.314   1.031  0.1296 -0.3135  0.5118
 2475SOL     OW 9671   1.936   3.672   6.411 -0.5688 -0.3365  0.8197
 2475SOL    HW2 9672   1.877   3.600   6.435  0.3333 -0.8291  1.6678
 2475SOL    HW3 9673   1.957   3.713   6.495 -0.7041  0.6359  0.3848
 2475SOL    MW4 9674   1.931   3.668   6.426 -0.4676 -0.2732  0.8742
 2476SOL     OW 9675   0.226   0.104   4.684  0.7184  0.7302  0.1094
 2476SOL    HW2 9676   0.268   0.109   4.598  0.0141 -0.1255 -0.3059
 2476SOL    HW3 9677   0.209   0.010   4.696 -0.2982  0.9732  0.6359
 2476SOL    MW4 9678   0.230   0.092   4.674  0.4914  0.6493  0.1241
 2477SOL     OW 9679   4.961   5.817   4.756 -0.1809 -0.1656 -0.1203
 2477SOL    HW2 9680   4.939   5.898   4.710  0.0324 -0.6243 -1.0647
 2477SOL    HW3 9681   4.979   5.754   4.686  3.4224 -0.0253  0.4886
 2477SOL    MW4 9682   4.961   5.819   4.741  0.3227 -0.2076 -0.1646
 2478SOL     OW 9683   0.436   3.170   6.388 -0.4185  0.0712 -0.1721
 2478SOL    HW2 9684   0.493   3.195   6.315  1.1282 -1.5939  0.3888
 2478SOL    HW3 9685   0.495   3.163   6.463 -1.6958  0.1317  0.8667
 2478SOL    MW4 9686   0.451   3.172   6.388 -0.3830 -0.1405  0.0390
 2479SOL     OW 9687   3.638   5.585   3.287 -0.3228  0.1162  0.4360
 2479SOL    HW2 9688   3.706   5.569   3.222 -0.5659  0.9791 -0.0359
 2479SOL    HW3 9689   3.559   5.604   3.236 -1.0355 -1.2188  0.9662
 2479SOL    MW4 9690   3.636   5.585   3.272 -0.4489  0.0539  0.4437
 2480SOL     OW 9691   3.235   2.663   1.779 -0.0303  0.3704 -0.0432
 2480SOL    HW2 9692   3.159   2.672   1.722  0.5018  0.0458 -0.8127
 2480SOL    HW3 9693   3.206   2.603   1.848  0.3881 -2.0907 -1.8925
 2480SOL    MW4 9694   3.221   2.656   1.781  0.0951  0.0029 -0.3887
 2481SOL     OW 9695   6.200   3.665   3.092 -0.2113  0.0864  0.0350
 2481SOL    HW2 9696   6.148   3.742   3.114  0.0247  0.3116 -0.2032
 2481SOL    HW3 9697   6.156   3.593   3.138 -1.2405  0.1319 -0.8146
 2481SOL    MW4 9698   6.187   3.665   3.101 -0.3160  0.1221 -0.1085
 2482SOL     OW 9699   5.882   4.697   5.099  0.0745  0.8395  0.4035
 2482SOL    HW2 9700   5.860   4.611   5.133  0.4802  1.1068  1.3602
 2482SOL    HW3 9701   5.856   4.693   5.007  1.3329 -0.7518  0.0677
 2482SOL    MW4 9702   5.875   4.685   5.091  0.2941  0.6648  0.4854
 2483SOL     OW 9703   0.921   4.056   1.817  0.5493  0.1127  0.0941
 2483SOL    HW2 9704   0.987   4.092   1.877  2.5245 -2.2106 -0.5047
 2483SOL    HW3 9705   0.887   3.979   1.862 -0.2337  0.1218 -0.4720
 2483SOL    MW4 9706   0.925   4.051   1.831  0.7066 -0.1927 -0.0596
 2484SOL     OW 9707   5.508   4.874   0.244  0.3362  0.0599 -0.2530
 2484SOL    HW2 9708   5.517   4.779   0.248 -1.3105 -0.1261 -0.2883
 2484SOL    HW3 9709   5.462   4.898   0.324  2.2816  1.0789  0.6226
 2484SOL    MW4 9710   5.503   4.865   0.255  0.3756  0.1698 -0.1421
 2485SOL     OW 9711   0.724   0.630   3.637 -0.4574  0.1636 -0.7011
 2485SOL    HW2 9712   0.679   0.548   3.613 -1.1914  0.9914 -2.2848
 2485SOL    HW3 9713   0.689   0.695   3.577  1.3149  1.3235 -0.5485
 2485SOL    MW4 9714   0.713   0.628   3.626 -0.3204  0.4259 -0.8899
 2486SOL     OW 9715   5.412   4.637   5.638  0.2062 -0.0049 -0.1562
 2486SOL    HW2 9716   5.329   4.603   5.670 -0.3647  0.8494 -0.6888
 2486SOL    HW3 9717   5.445   4.690   5.711 -0.2806  0.5794 -0.3485
 2486SOL    MW4 9718   5.405   4.640   5.652  0.0667  0.1849 -0.2518
 2487SOL     OW 9719   5.714   1.668   1.486 -0.2463 -0.2919  0.6829
 2487SOL    HW2 9720   5.652   1.596   1.480  1.2863 -1.6944  0.9036
 2487SOL    HW3 9721   5.800   1.626   1.485  0.7290  1.5792  0.1385
 2487SOL    MW4 9722   5.717   1.653   1.485  0.0846 -0.2300  0.6402
 2488SOL     OW 9723   0.938   5.061   0.440  0.7138 -0.1742 -0.1150
 2488SOL    HW2 9724   0.965   5.146   0.403 -2.4285  0.2746 -1.6695
 2488SOL    HW3 9725   0.976   4.997   0.380  0.2084  0.3120 -0.9765
 2488SOL    MW4 9726   0.947   5.064   0.427  0.2325 -0.0508 -0.4337
 2489SOL     OW 9727   3.910   2.996   5.924  0.1086 -0.3972  0.1109
 2489SOL    HW2 9728   3.997   2.957   5.919 -0.3687 -1.3477 -1.6172
 2489SOL    HW3 9729   3.926   3.090   5.928  1.2189 -0.5520 -0.3925
 2489SOL    MW4 9730   3.924   3.003   5.924  0.1921 -0.5430 -0.1835
 2490SOL     OW 9731   4.966   1.202   3.371 -0.0608 -0.0805 -0.1334
 2490SOL    HW2 9732   4.887   1.177   3.323 -0.5464 -0.2772  0.7491
 2490SOL    HW3 9733   4.936   1.268   3.434  0.0127 -1.7378  1.7366
 2490SOL    MW4 9734   4.951   1.208   3.373 -0.1151 -0.3251  0.2297
 2491SOL     OW 9735   2.439   4.234   3.182 -0.2908  0.1252 -0.2372
 2491SOL    HW2 9736   2.430   4.261   3.091  0.0267 -0.5322 -0.4626
 2491SOL    HW3 9737   2.440   4.138   3.180  0.8869  0.1071  0.3452
 2491SOL    MW4 9738   2.438   4.225   3.170 -0.0935  0.0361 -0.1901
 2492SOL     OW 9739   5.715   5.233   2.047 -0.3809 -0.2326 -0.7203
 2492SOL    HW2 9740   5.684   5.247   2.137 -0.1968 -0.7295 -0.5773
 2492SOL    HW3 9741   5.778   5.304   2.032 -0.7317  0.1078 -0.6105
 2492SOL    MW4 9742   5.719   5.245   2.057 -0.4029 -0.2532 -0.6869
 2493SOL     OW 9743   2.585   0.068   5.925  0.8617  0.2544  0.3989
 2493SOL    HW2 9744   2.580   0.163   5.940 -0.3309 -0.0035  1.9160
 2493SOL    HW3 9745   2.494   0.038   5.931  1.2184 -0.9795 -0.1023
 2493SOL    MW4 9746   2.572   0.077   5.928  0.7514  0.0576  0.5330
 2494SOL     OW 9747   4.857   5.559   2.182  0.0428 -0.5268 -0.7388
 2494SOL    HW2 9748   4.767   5.533   2.164 -0.8233  2.6615 -1.6445
 2494SOL    HW3 9749   4.879   5.516   2.265 -3.4320  0.9316  1.1410
 2494SOL    MW4 9750   4.848   5.550   2.190 -0.5299  0.0863 -0.6103
 2495SOL     OW 9751   5.414   3.462   3.021 -0.3523 -0.2411  0.5173
 2495SOL    HW2 9752   5.319   3.446   3.013 -0.3249 -0.0926 -0.2553
 2495SOL    HW3 9753   5.422   3.557   3.017 -0.0862 -0.2997 -0.6624
 2495SOL    MW4 9754   5.402   3.473   3.019 -0.3136 -0.2292  0.2597
 2496SOL     OW 9755   2.997   0.781   2.588  0.5741 -0.2472  0.2418
 2496SOL    HW2 9756   3.036   0.839   2.523 -1.7721  0.7666 -0.3478
 2496SOL    HW3 9757   2.981   0.838   2.664 -1.6403 -0.0813 -0.2980
 2496SOL    MW4 9758   3.000   0.796   2.589 -0.0276 -0.0916  0.0928
 2497SOL     OW 9759   0.233   1.776   4.432 -0.0400  0.2911  0.4234
 2497SOL    HW2 9760   0.316   1.771   4.480  0.4535 -0.6692 -0.5107
 2497SOL    HW3 9761   0.192   1.691   4.445  0.6782 -0.4698 -1.8407
 2497SOL    MW4 9762   0.239   1.764   4.440  0.1199  0.0640  0.0015
 2498SOL     OW 9763   6.096   3.479   3.310  0.5182 -0.2498 -0.3159
 2498SOL    HW2 9764   6.071   3.558   3.358 -0.0342 -1.8406  2.2417
 2498SOL    HW3 9765   6.014   3.445   3.275  0.4522 -0.6437  0.2018
 2498SOL    MW4 9766   6.082   3.485   3.312  0.4366 -0.5117  0.0898
 2499SOL     OW 9767   1.795   1.342   2.641  0.6118  0.3705 -0.1490
 2499SOL    HW2 9768   1.731   1.389   2.587  0.1155  1.6027  1.4227
 2499SOL    HW3 9769   1.872   1.398   2.641  0.6002  0.3930  0.4138
 2499SOL    MW4 9770   1.796   1.355   2.634  0.5448  0.5361  0.1326
 2500SOL     OW 9771   4.123   6.133   0.181  0.4916  0.6685 -0.4458
 2500SOL    HW2 9772   4.163   6.058   0.136  0.7676 -0.1964  1.1378
 2500SOL    HW3 9773   4.104   6.196   0.112  0.6921 -0.6751 -1.7713
 2500SOL    MW4 9774   4.126   6.131   0.166  0.5545  0.3771 -0.4117
 2501SOL     OW 9775   3.344   2.531   4.147 -0.0520  0.9133 -0.6606
 2501SOL    HW2 9776   3.305   2.561   4.065 -1.0076 -0.8163 -0.8943
 2501SOL    HW3 9777   3.286   2.564   4.216  1.3418  3.3111 -0.5108
 2501SOL    MW4 9778   3.331   2.539   4.145  0.0058  1.0014 -0.6716
 2502SOL     OW 9779   2.811   2.855   5.199 -0.4747 -0.1134  0.0037
 2502SOL    HW2 9780   2.880   2.794   5.174  1.3263  1.2347  1.3725
 2502SOL    HW3 9781   2.857   2.938   5.213 -2.2746  0.6748  1.6981
 2502SOL    MW4 9782   2.826   2.858   5.197 -0.4745  0.1684  0.4078
 2503SOL     OW 9783   2.159   0.974   3.555  0.0460  0.0439  0.1839
 2503SOL    HW2 9784   2.248   0.970   3.520 -0.0837 -1.3596 -0.0418
 2503SOL    HW3 9785   2.168   1.017   3.640  0.4993  2.6453 -1.0898
 2503SOL    MW4 9786   2.172   0.979   3.562  0.0887  0.2019 -0.0139
 2504SOL     OW 9787   5.108   0.234   0.098  0.0641 -0.0896 -0.0030
 2504SOL    HW2 9788   5.177   0.202   0.156 -0.6857 -0.3871  0.7417
 2504SOL    HW3 9789   5.149   0.235   0.011  0.2203 -2.8922 -0.0657
 2504SOL    MW4 9790   5.123   0.230   0.094 -0.0143 -0.4986  0.0870
 2505SOL     OW 9791   3.511   1.425   5.630  0.1129 -0.3812  0.3647
 2505SOL    HW2 9792   3.569   1.364   5.676  0.4517  0.2805  0.8280
 2505SOL    HW3 9793   3.474   1.479   5.699 -0.8388 -0.5914  0.0462
 2505SOL    MW4 9794   3.513   1.424   5.645  0.0320 -0.3216  0.3838
 2506SOL     OW 9795   5.976   5.898   0.763  0.6961 -0.3308 -0.4244
 2506SOL    HW2 9796   5.931   5.816   0.783 -0.1084  0.0503 -0.6529
 2506SOL    HW3 9797   6.050   5.899   0.824  2.2548 -2.4466 -2.1167
 2506SOL    MW4 9798   5.980   5.887   0.774  0.7956 -0.5597 -0.6778
 2507SOL     OW 9799   3.863   4.972   3.351 -0.0891 -0.3096 -0.0074
 2507SOL    HW2 9800   3.837   5.064   3.356 -1.1160 -0.6429  1.7844
 2507SOL    HW3 9801   3.837   4.935   3.436  1.4358 -1.9687 -0.2039
 2507SOL    MW4 9802   3.856   4.979   3.363 -0.0234 -0.5725  0.2031
 2508SOL     OW 9803   5.928   3.142   4.795  0.2257  0.5636 -0.0301
 2508SOL    HW2 9804   6.021   3.124   4.791  0.1476 -0.2055  1.1063
 2508SOL    HW3 9805   5.906   3.178   4.709  0.9854 -1.9356 -1.3392
 2508SOL    MW4 9806   5.937   3.145   4.783  0.3156  0.1324 -0.0529
 2509SOL     OW 9807   0.117   3.657   3.845 -0.3715  0.1414 -0.8522
 2509SOL    HW2 9808   0.185   3.724   3.843 -0.4103  0.1674 -1.3727
 2509SOL    HW3 9809   0.068   3.676   3.926  0.4188 -0.0709 -0.3179
 2509SOL    MW4 9810   0.119   3.669   3.855 -0.2724  0.1168 -0.8504
 2510SOL     OW 9811   0.944   4.171   4.452 -0.6549 -0.3052  0.6128
 2510SOL    HW2 9812   0.940   4.084   4.414 -1.9291  0.0844 -0.2130
 2510SOL    HW3 9813   0.891   4.225   4.394  1.4903  1.4013  0.1345
 2510SOL    MW4 9814   0.936   4.167   4.440 -0.5400 -0.0287  0.4407
 2511SOL     OW 9815   0.077   0.081   4.115  0.2326 -0.3270  0.1776
 2511SOL    HW2 9816   0.040   0.003   4.156  1.8758 -0.6375  1.1720
 2511SOL    HW3 9817   0.166   0.056   4.090  0.3197  0.8102 -0.7791
 2511SOL    MW4 9818   0.084   0.068   4.117  0.4609 -0.2179  0.1826
 2512SOL     OW 9819   6.172   2.486   3.214 -0.0147  0.4667  0.0331
 2512SOL    HW2 9820   6.110   2.493   3.287  0.2050  0.6289  0.2067
 2512SOL    HW3 9821   6.195   2.576   3.194 -0.0800  0.4218 -0.2448
 2512SOL    MW4 9822   6.167   2.499   3.221  0.0057  0.4822  0.0193
 2513SOL     OW 9823   4.559   1.735   5.181  0.0245 -0.8258  0.0190
 2513SOL    HW2 9824   4.653   1.719   5.187  0.3951  1.1772  0.0719
 2513SOL    HW3 9825   4.546   1.821   5.220 -1.7424 -0.7736 -0.5870
 2513SOL    MW4 9826   4.570   1.744   5.187 -0.1597 -0.5546 -0.0540
 2514SOL     OW 9827   5.547   5.012   2.681  0.0830 -0.0558 -0.0243
 2514SOL    HW2 9828   5.488   4.994   2.754 -0.3507  0.1240 -0.3281
 2514SOL    HW3 9829   5.562   5.107   2.685  0.5336 -0.1311  0.1860
 2514SOL    MW4 9830   5.541   5.022   2.691  0.0852 -0.0420 -0.0366
 2515SOL     OW 9831   5.177   3.594   5.928  0.3981 -0.6013 -0.9969
 2515SOL    HW2 9832   5.216   3.679   5.911 -0.6382 -0.0043 -0.5109
 2515SOL    HW3 9833   5.125   3.575   5.849 -0.4215 -0.1505 -0.5847
 2515SOL    MW4 9834   5.175   3.603   5.915  0.1533 -0.4630 -0.8784
 2516SOL     OW 9835   0.515   6.473   3.553  0.5551 -0.0390  0.2214
 2516SOL    HW2 9836   0.571   6.436   3.484  0.4884 -0.2146  0.2598
 2516SOL    HW3 9837   0.447   6.520   3.505 -0.5970 -1.7484  0.0961
 2516SOL    MW4 9838   0.514   6.474   3.537  0.3943 -0.2877  0.2099
 2517SOL     OW 9839   1.058   5.432   1.422 -0.3998 -0.6002  0.3548
 2517SOL    HW2 9840   1.027   5.489   1.492 -0.0088  1.0188 -0.7320
 2517SOL    HW3 9841   1.150   5.416   1.442 -0.1342  0.3407 -0.0750
 2517SOL    MW4 9842   1.066   5.437   1.434 -0.3132 -0.2625  0.1547
 2518SOL     OW 9843   2.360   3.920   0.945 -0.3214 -0.5104 -0.0140
 2518SOL    HW2 9844   2.269   3.895   0.930 -0.5930 -0.0148  0.7845
 2518SOL    HW3 9845   2.383   3.973   0.868 -1.3424  1.0577  0.7144
 2518SOL    MW4 9846   2.351   3.923   0.933 -0.4920 -0.2381  0.1874
 2519SOL     OW 9847   0.562   0.651   3.290 -0.2608  0.2943 -0.4439
 2519SOL    HW2 9848   0.641   0.604   3.264 -0.3336 -0.3670  0.5101
 2519SOL    HW3 9849   0.594   0.727   3.338 -0.2171 -0.5405  0.8743
 2519SOL    MW4 9850   0.577   0.655   3.293 -0.2647  0.0969 -0.1441
 2520SOL     OW 9851   2.361   5.007   2.117  0.6338  0.4163 -0.3531
 2520SOL    HW2 9852   2.451   4.978   2.103  0.4953 -0.2367  0.0654
 2520SOL    HW3 9853   2.312   4.926   2.132  0.0124  0.7801 -0.3908
 2520SOL    MW4 9854   2.367   4.992   2.117  0.5336  0.3781 -0.3029
 2521SOL     OW 9855   5.133   3.473   3.054 -0.0409 -0.0234  0.2451
 2521SOL    HW2 9856   5.146   3.502   3.145 -0.7363  0.4099  0.2199
 2521SOL    HW3 9857   5.141   3.553   3.002  3.9516 -0.7393 -0.5355
 2521SOL    MW4 9858   5.135   3.488   3.059  0.3941 -0.0606  0.1388
 2522SOL     OW 9859   3.285   0.584   3.036  0.7701  0.6654  0.2652
 2522SOL    HW2 9860   3.195   0.555   3.050  1.1612 -0.1780  1.1448
 2522SOL    HW3 9861   3.303   0.643   3.109  1.5561 -0.7315  1.2636
 2522SOL    MW4 9862   3.276   0.588   3.048  0.9254  0.3699  0.5130
 2523SOL     OW 9863   3.179   4.041   6.044 -0.3498 -0.5572 -0.0592
 2523SOL    HW2 9864   3.101   4.006   6.087  0.3709 -1.1484  0.8262
 2523SOL    HW3 9865   3.163   4.135   6.038 -0.3485 -0.3832  1.8829
 2523SOL    MW4 9866   3.167   4.048   6.049 -0.2546 -0.6122  0.3139
 2524SOL     OW 9867   4.653   5.846   0.019  0.7097  0.3118 -0.5572
 2524SOL    HW2 9868   4.662   5.864  -0.074  0.8531  1.1843 -0.3780
 2524SOL    HW3 9869   4.610   5.924   0.055  0.6917  0.0032  0.1145
 2524SOL    MW4 9870   4.648   5.858   0.012  0.7263  0.3862 -0.4449
 2525SOL     OW 9871   1.463   5.539   4.549  0.0571 -0.3401  0.6683
 2525SOL    HW2 9872   1.400   5.611   4.549  1.0295  0.5527 -0.2056
 2525SOL    HW3 9873   1.415   5.465   4.587 -0.9822  0.7452  1.5626
 2525SOL    MW4 9874   1.448   5.539   4.554  0.0483 -0.0791  0.6710
 2526SOL     OW 9875   4.050   0.278   3.570  0.0150  0.9196 -0.2030
 2526SOL    HW2 9876   3.965   0.322   3.571 -0.5679 -0.1309 -1.0928
 2526SOL    HW3 9877   4.037   0.201   3.624 -0.1762 -0.2020 -1.7750
 2526SOL    MW4 9878   4.037   0.274   3.577 -0.0871  0.6330 -0.5278
 2527SOL     OW 9879   2.573   3.048   5.320 -0.4130  0.2253  0.1522
 2527SOL    HW2 9880   2.567   3.023   5.228  2.1354  1.1777 -0.3605
 2527SOL    HW3 9881   2.547   3.140   5.322 -0.5955  0.1695  0.4074
 2527SOL    MW4 9882   2.569   3.057   5.308 -0.1009  0.3436  0.1183
 2528SOL     OW 9883   5.696   1.187   0.792  1.1524 -0.8620 -0.2728
 2528SOL    HW2 9884   5.789   1.179   0.808  1.3881  2.2193  0.5661
 2528SOL    HW3 9885   5.656   1.192   0.879  0.2173 -1.8870 -0.6226
 2528SOL    MW4 9886   5.703   1.186   0.805  1.0601 -0.5907 -0.2083
 2529SOL     OW 9887   1.506   6.441   4.335 -0.3311  1.0070  0.2045
 2529SOL    HW2 9888   1.456   6.370   4.293 -0.0154  0.2677  1.0402
 2529SOL    HW3 9889   1.559   6.478   4.264 -0.1523  0.0888 -0.1554
 2529SOL    MW4 9890   1.506   6.436   4.320 -0.2659  0.7883  0.2673
 2530SOL     OW 9891   2.203   2.305   4.062 -0.0915 -0.8002 -0.5930
 2530SOL    HW2 9892   2.276   2.350   4.019 -0.5922 -0.3787 -1.0164
 2530SOL    HW3 9893   2.234   2.287   4.151 -0.1717  1.1423 -0.1377
 2530SOL    MW4 9894   2.217   2.308   4.068 -0.1682 -0.4883 -0.5888
 2531SOL     OW 9895   3.096   0.607   4.797 -0.3895  0.0050 -0.2979
 2531SOL    HW2 9896   3.127   0.563   4.876 -0.1373  1.0987  0.2268
 2531SOL    HW3 9897   3.099   0.700   4.818 -2.5235  0.2330 -0.7912
 2531SOL    MW4 9898   3.100   0.614   4.810 -0.6378  0.1794 -0.2938
 2532SOL     OW 9899   0.079   5.988   2.351  0.6007  0.1385 -0.3376
 2532SOL    HW2 9900   0.086   6.018   2.442  1.4079  0.8470 -0.6200
 2532SOL    HW3 9901   0.050   5.897   2.357 -1.3553  0.7590  0.5776
 2532SOL    MW4 9902   0.076   5.980   2.364  0.4491  0.3139 -0.2541
 2533SOL     OW 9903   6.286   2.493   2.671 -0.0062 -0.4274  0.4706
 2533SOL    HW2 9904   6.354   2.452   2.724  0.8414 -0.4918 -0.6224
 2533SOL    HW3 9905   6.329   2.513   2.588 -1.0778  0.3959  0.0830
 2533SOL    MW4 9906   6.301   2.491   2.667 -0.0358 -0.3272  0.2752
 2534SOL     OW 9907   3.129   0.630   5.874  0.2878 -0.8112 -0.0042
 2534SOL    HW2 9908   3.153   0.710   5.827  0.1153  0.3079  1.7346
 2534SOL    HW3 9909   3.129   0.655   5.966 -1.1974 -2.4485  0.4939
 2534SOL    MW4 9910   3.132   0.644   5.880  0.0691 -0.8796  0.2909
 2535SOL     OW 9911   6.026   2.617   2.286 -0.3449  0.3342 -0.6344
 2535SOL    HW2 9912   6.093   2.681   2.261  0.0691  0.0151 -0.3523
 2535SOL    HW3 9913   6.009   2.569   2.205 -0.8622  0.9791 -0.9161
 2535SOL    MW4 9914   6.033   2.619   2.272 -0.3586  0.3772 -0.6344
 2536SOL     OW 9915   5.109   3.182   3.945  0.3345  0.1800 -0.7659
 2536SOL    HW2 9916   5.149   3.095   3.940  0.8684  0.4643 -1.6225
 2536SOL    HW3 9917   5.104   3.212   3.854  0.2755  1.1045 -0.4720
 2536SOL    MW4 9918   5.113   3.175   3.933  0.3972  0.3395 -0.8401
 2537SOL     OW 9919   2.639   0.340   5.254 -0.2758 -0.2966  0.3346
 2537SOL    HW2 9920   2.627   0.337   5.349 -0.3962 -0.8373  0.3111
 2537SOL    HW3 9921   2.734   0.338   5.241 -0.0781  3.0198  0.5023
 2537SOL    MW4 9922   2.650   0.339   5.265 -0.2656  0.0696  0.3537
 2538SOL     OW 9923   6.242   2.824   5.418 -0.3373  0.0725 -0.3241
 2538SOL    HW2 9924   6.228   2.875   5.339 -1.9957  3.1384  1.7367
 2538SOL    HW3 9925   6.324   2.858   5.454  0.0735 -0.8496 -0.3539
 2538SOL    MW4 9926   6.251   2.835   5.413 -0.5019  0.3553 -0.0562
 2539SOL     OW 9927   6.025   6.167   0.155  0.2269  0.1959 -0.2789
 2539SOL    HW2 9928   5.956   6.206   0.102 -0.3911  0.0145  0.3723
 2539SOL    HW3 9929   6.049   6.235   0.218  1.1468  0.5075 -0.9386
 2539SOL    MW4 9930   6.019   6.181   0.157  0.2667  0.2131 -0.2800
 2540SOL     OW 9931   5.047   3.814   5.476  0.0014 -0.6226  0.1873
 2540SOL    HW2 9932   4.999   3.896   5.469 -0.4686 -1.0284 -2.0102
 2540SOL    HW3 9933   5.123   3.836   5.531 -0.7750  0.9395  0.7021
 2540SOL    MW4 9934   5.051   3.828   5.482 -0.1630 -0.4700 -0.0347
 2541SOL     OW 9935   5.311   4.380   1.590  0.4227  0.4548  0.3630
 2541SOL    HW2 9936   5.296   4.359   1.498  0.7441  1.7830 -0.0125
 2541SOL    HW3 9937   5.288   4.300   1.637  1.5456 -0.6894 -0.9577
 2541SOL    MW4 9938   5.306   4.367   1.584  0.6132  0.4790  0.1392
 2542SOL     OW 9939   1.673   4.035   5.513  0.3963  0.2285  0.1829
 2542SOL    HW2 9940   1.721   3.996   5.441 -0.1462 -1.3121  0.6147
 2542SOL    HW3 9941   1.638   3.960   5.562  0.6045  1.2266  1.9394
 2542SOL    MW4 9942   1.674   4.020   5.510  0.3522  0.1569  0.4716
 2543SOL     OW 9943   0.674   1.821   2.637 -0.1556 -0.5231  0.0443
 2543SOL    HW2 9944   0.682   1.831   2.732 -1.4760  1.5499 -0.0140
 2543SOL    HW3 9945   0.595   1.768   2.625  0.9455 -2.2838  0.0720
 2543SOL    MW4 9946   0.665   1.815   2.648 -0.1846 -0.4819  0.0402
 2544SOL     OW 9947   2.438   4.837   1.128 -0.9607  0.3697 -0.1231
 2544SOL    HW2 9948   2.383   4.764   1.101 -0.3164 -0.4590  0.7744
 2544SOL    HW3 9949   2.505   4.799   1.184  0.2425  1.4300 -0.7640
 2544SOL    MW4 9950   2.440   4.823   1.132 -0.7169  0.4003 -0.0893
 2545SOL     OW 9951   1.661   6.209   0.649  0.3373  0.0007 -0.2296
 2545SOL    HW2 9952   1.582   6.239   0.605 -0.2233  0.9589  1.3304
 2545SOL    HW3 9953   1.639   6.122   0.681 -0.0672  0.2274  0.1180
 2545SOL    MW4 9954   1.648   6.201   0.648  0.2100  0.1570  0.0221
 2546SOL     OW 9955   3.481   1.634   1.342  0.3349  0.0387  0.1176
 2546SOL    HW2 9956   3.534   1.609   1.266  1.2268 -1.9997  1.3100
 2546SOL    HW3 9957   3.412   1.689   1.306  1.4894  0.2598 -1.9533
 2546SOL    MW4 9958   3.479   1.638   1.327  0.6049 -0.2010  0.0017
 2547SOL     OW 9959   4.039   5.994   0.766  0.1264 -0.1161 -0.1818
 2547SOL    HW2 9960   3.966   6.055   0.760  0.1834 -0.0930 -0.7672
 2547SOL    HW3 9961   4.035   5.944   0.684 -0.4176 -1.4721  0.6516
 2547SOL    MW4 9962   4.029   5.995   0.754  0.0621 -0.2920 -0.1491
 2548SOL     OW 9963   4.373   4.708   4.465  0.0898 -0.3207  0.4709
 2548SOL    HW2 9964   4.328   4.643   4.410 -1.9094  0.7161  0.7561
 2548SOL    HW3 9965   4.318   4.786   4.458  0.2128  0.1205  3.2778
 2548SOL    MW4 9966   4.359   4.710   4.456 -0.1578 -0.1257  0.8789
 2549SOL     OW 9967   4.003   0.615   3.495  0.6217 -0.5680  0.0801
 2549SOL    HW2 9968   4.054   0.678   3.547  0.7813  1.3828 -2.2218
 2549SOL    HW3 9969   4.069   0.564   3.449  0.4846 -0.7941  0.1352
 2549SOL    MW4 9970   4.018   0.617   3.496  0.6247 -0.3405 -0.2163
 2550SOL     OW 9971   0.819   4.475   2.618  0.1992  0.4266 -0.1239
 2550SOL    HW2 9972   0.887   4.523   2.666  0.5326  0.2913 -0.4616
 2550SOL    HW3 9973   0.867   4.422   2.555 -0.1502 -0.5609  0.4328
 2550SOL    MW4 9974   0.834   4.475   2.616  0.1971  0.2784 -0.0950
 2551SOL     OW 9975   2.936   0.474   5.013 -0.2151 -0.5268  0.6590
 2551SOL    HW2 9976   3.025   0.445   4.991 -0.4673 -0.6461 -0.2514
 2551SOL    HW3 9977   2.927   0.455   5.107  0.9252  0.0458  0.8976
 2551SOL    MW4 9978   2.947   0.468   5.022 -0.0979 -0.4670  0.5704
 2552SOL     OW 9979   5.875   4.777   5.371 -0.2837  0.0559  0.0814
 2552SOL    HW2 9980   5.880   4.743   5.281 -1.4706  0.0403  0.0075
 2552SOL    HW3 9981   5.829   4.708   5.419  2.2210 -0.9345  1.2346
 2552SOL    MW4 9982   5.870   4.763   5.365 -0.1098 -0.0768  0.2238
 2553SOL     OW 9983   1.568   0.226   2.202  0.0321  0.1850 -0.1423
 2553SOL    HW2 9984   1.567   0.275   2.284 -0.5213  0.0330 -0.0603
 2553SOL    HW3 9985   1.609   0.142   2.224  2.1748  1.0622 -0.5483
 2553SOL    MW4 9986   1.574   0.221   2.215  0.2418  0.2807 -0.1851
 2554SOL     OW 9987   3.449   3.689   1.619 -1.1179 -0.1806 -0.1739
 2554SOL    HW2 9988   3.475   3.602   1.650 -2.2540 -0.7623 -0.7771
 2554SOL    HW3 9989   3.388   3.721   1.686 -1.5101 -0.3063 -0.4655
 2554SOL    MW4 9990   3.444   3.682   1.632 -1.3196 -0.2739 -0.2919
 2555SOL     OW 9991   4.076   5.245   1.064  0.3056  0.2460  0.1008
 2555SOL    HW2 9992   4.098   5.152   1.070 -0.2139  0.0966 -0.2566
 2555SOL    HW3 9993   4.151   5.283   1.017  0.3275 -0.0654 -0.1261
 2555SOL    MW4 9994   4.089   5.238   1.058  0.2399  0.1852  0.0237
 2556SOL     OW 9995   4.269   4.132   4.442  0.0733  0.0187 -0.2551
 2556SOL    HW2 9996   4.359   4.144   4.412 -0.3241  1.8829 -0.8475
 2556SOL    HW3 9997   4.250   4.040   4.426  1.2848  0.0051 -1.8247
 2556SOL    MW4 9998   4.278   4.122   4.436  0.1807  0.2629 -0.5404
 2557SOL     OW 9999   6.053   2.327   6.040  0.2663 -0.7274  0.2447
 2557SOL    HW210000   5.962   2.299   6.028  0.4963 -1.5338  0.3299
 2557SOL    HW310001   6.096   2.252   6.081  1.0525 -0.4748 -0.1061
 2557SOL    MW410002   6.046   2.313   6.044  0.4004 -0.8005  0.2097
 2558SOL     OW10003   2.423   4.561   2.728 -0.1826 -0.6038  0.0511
 2558SOL    HW210004   2.451   4.581   2.818 -1.9360 -0.7294  0.6680
 2558SOL    HW310005   2.432   4.644   2.681 -2.5963  0.4572  1.2975
 2558SOL    MW410006   2.428   4.574   2.734 -0.7324 -0.4803  0.2970
 2559SOL     OW10007   1.670   3.052   2.101 -0.0836  0.0388  0.4278
 2559SOL    HW210008   1.750   3.010   2.069 -0.7259  0.1830 -1.5025
 2559SOL    HW310009   1.685   3.063   2.195  1.4308 -1.5295  0.4277
 2559SOL    MW410010   1.683   3.048   2.110  0.0315 -0.1491  0.1731
 2560SOL     OW10011   1.824   0.174   4.970  0.3667 -0.2719 -0.6273
 2560SOL    HW210012   1.885   0.241   5.001 -0.7068  1.2911 -1.6696
 2560SOL    HW310013   1.873   0.125   4.904  1.5150 -1.2884  0.9104
 2560SOL    MW410014   1.838   0.177   4.965  0.3766 -0.1998 -0.5619
 2561SOL     OW10015   1.006   1.321   4.361  0.4816 -0.3099  0.8566
 2561SOL    HW210016   0.957   1.242   4.338 -0.1675  0.2132  0.3879
 2561SOL    HW310017   1.097   1.300   4.342  0.0289  0.0125 -2.0754
 2561SOL    MW410018   1.011   1.308   4.356  0.3363 -0.1983  0.4079
 2562SOL     OW10019   1.620   4.230   4.769 -0.4789 -0.1813  0.5472
 2562SOL    HW210020   1.661   4.193   4.848  1.3673  0.9489  0.1595
 2562SOL    HW310021   1.585   4.153   4.723  0.7404 -1.1561  1.1732
 2562SOL    MW410022   1.621   4.215   4.773 -0.0745 -0.1608  0.5786
 2563SOL     OW10023   5.730   4.432   2.709 -0.3264 -0.1348  0.0749
 2563SOL    HW210024   5.809   4.410   2.757 -0.1019 -0.1635 -0.3075
 2563SOL    HW310025   5.687   4.348   2.693 -1.0642 -0.0296  1.3457
 2563SOL    MW410026   5.734   4.418   2.713 -0.3941 -0.1247  0.1921
 2564SOL     OW10027   4.058   6.354   6.422  0.3222  0.2693 -0.0087
 2564SOL    HW210028   4.060   6.447   6.398 -0.3939  0.0384 -1.0177
 2564SOL    HW310029   3.971   6.324   6.396  0.3034 -0.5377  0.9177
 2564SOL    MW410030   4.047   6.363   6.416  0.2253  0.1324 -0.0196
 2565SOL     OW10031   0.005   2.863   2.294 -0.2579  0.5414  0.4669
 2565SOL    HW210032   0.097   2.838   2.287 -0.5808 -0.8965  0.9025
 2565SOL    HW310033  -0.018   2.894   2.207 -0.9505 -5.1037 -1.8222
 2565SOL    MW410034   0.014   2.864   2.282 -0.3919 -0.3931  0.2224
 2566SOL     OW10035   5.299   1.933   4.725 -0.2314  0.1035  0.1314
 2566SOL    HW210036   5.224   1.960   4.672 -0.7843  0.0715  0.8713
 2566SOL    HW310037   5.261   1.880   4.795  0.5917 -0.7026 -0.0085
 2566SOL    MW410038   5.284   1.929   4.727 -0.1958 -0.0071  0.2105
 2567SOL     OW10039   3.251   4.437   6.187  1.0845  0.2079 -0.2271
 2567SOL    HW210040   3.332   4.449   6.136  1.1012  0.2247 -0.1965
 2567SOL    HW310041   3.190   4.398   6.124  0.3171  2.5020 -1.0029
 2567SOL    MW410042   3.254   4.434   6.172  0.9855  0.5128 -0.3254
 2568SOL     OW10043   4.333   6.382   6.076  0.2117 -0.4620  0.0438
 2568SOL    HW210044   4.342   6.446   6.147  2.1556 -0.0721 -0.4748
 2568SOL    HW310045   4.423   6.352   6.061 -0.3878 -1.7000 -1.1966
 2568SOL    MW410046   4.346   6.387   6.084  0.3891 -0.5739 -0.1883
 2569SOL     OW10047   3.600   5.984   1.487  0.2178  0.2187 -0.2440
 2569SOL    HW210048   3.553   6.033   1.554 -3.0978 -1.5405 -1.0711
 2569SOL    HW310049   3.614   5.898   1.527  3.8358  0.9148  0.3228
 2569SOL    MW410050   3.596   5.979   1.501  0.2577  0.0784 -0.2784
 2570SOL     OW10051   4.995   6.058   3.130  0.0333 -0.3427  0.3774
 2570SOL    HW210052   4.963   5.968   3.141 -1.2351 -0.0742 -0.8814
 2570SOL    HW310053   5.090   6.049   3.122 -0.1821 -1.7144 -1.0270
 2570SOL    MW410054   5.004   6.045   3.131 -0.1625 -0.4882  0.0260
 2571SOL     OW10055   1.733   6.126   1.079  0.1196 -0.5173  0.6425
 2571SOL    HW210056   1.769   6.046   1.040 -1.0309 -1.0410  0.6244
 2571SOL    HW310057   1.702   6.098   1.165  0.8616  0.2037  1.1589
 2571SOL    MW410058   1.734   6.112   1.085  0.0657 -0.4913  0.7083
 2572SOL     OW10059   1.134   0.588   4.385 -0.3548 -0.5393  0.3519
 2572SOL    HW210060   1.195   0.619   4.452 -0.1052 -0.9186  0.3006
 2572SOL    HW310061   1.085   0.518   4.427 -1.1789  0.1573  0.5872
 2572SOL    MW410062   1.135   0.583   4.399 -0.4306 -0.4974  0.3761
 2573SOL     OW10063   4.066   3.124   2.058  0.2738  0.2338 -0.6914
 2573SOL    HW210064   4.020   3.098   2.138 -1.1672  0.4753 -1.3952
 2573SOL    HW310065   4.147   3.165   2.088 -0.9263  1.7030  0.7132
 2573SOL    MW410066   4.070   3.126   2.073 -0.0746  0.4595 -0.5990
 2574SOL     OW10067   6.138   5.338   1.988  0.2965 -0.8470  0.1040
 2574SOL    HW210068   6.053   5.382   1.988  0.1739 -1.0795  0.1466
 2574SOL    HW310069   6.179   5.365   1.906  1.3219  1.4140  1.2836
 2574SOL    MW410070   6.132   5.347   1.977  0.4156 -0.5793  0.2652
 2575SOL     OW10071   6.142   3.455   2.361 -0.4010 -0.1497 -0.2123
 2575SOL    HW210072   6.107   3.419   2.280  0.0443  0.2140 -0.5674
 2575SOL    HW310073   6.137   3.550   2.350  1.9721 -0.0374 -0.8631
 2575SOL    MW410074   6.136   3.462   2.349 -0.0292 -0.0869 -0.3450
 2576SOL     OW10075   5.594   2.866   5.822  0.4028 -0.2352 -0.4263
 2576SOL    HW210076   5.639   2.843   5.741  0.7577  0.2840 -0.3773
 2576SOL    HW310077   5.504   2.886   5.795  1.1944  2.8232 -1.1531
 2576SOL    MW410078   5.588   2.865   5.808  0.5541  0.2369 -0.5157
 2577SOL     OW10079   3.665   2.907   0.297 -0.0258 -0.9203  0.4669
 2577SOL    HW210080   3.581   2.874   0.265  0.1318 -0.0574 -0.9486
 2577SOL    HW310081   3.643   2.962   0.372 -0.6540 -1.2285  0.5139
 2577SOL    MW410082   3.651   2.910   0.302 -0.0879 -0.8471  0.2864
 2578SOL     OW10083   3.404   3.341   2.125  0.4413  0.0030  0.5515
 2578SOL    HW210084   3.341   3.411   2.108  0.8134  0.8771  2.4652
 2578SOL    HW310085   3.353   3.261   2.118 -0.1403  0.4765 -1.0538
 2578SOL    MW410086   3.389   3.340   2.122  0.4137  0.1808  0.5922
 2579SOL     OW10087   4.250   6.261   4.394  0.0178 -0.4013  0.3212
 2579SOL    HW210088   4.168   6.233   4.436  1.1317 -1.7287  1.7344
 2579SOL    HW310089   4.290   6.320   4.458 -0.6334  1.7809 -1.1494
 2579SOL    MW410090   4.244   6.265   4.408  0.0788 -0.2885  0.3137
 2580SOL     OW10091   1.299   3.003   1.625 -0.2516  0.2246  0.0971
 2580SOL    HW210092   1.378   3.025   1.576 -0.2147  0.5735  0.3126
 2580SOL    HW310093   1.329   2.942   1.692  0.2259  1.8930  1.4752
 2580SOL    MW410094   1.313   2.998   1.627 -0.1837  0.4907  0.3074
 2581SOL     OW10095   4.344   4.859   3.162  0.7808 -0.0320 -1.0449
 2581SOL    HW210096   4.332   4.770   3.128 -1.2492  0.1680 -1.0148
 2581SOL    HW310097   4.295   4.859   3.245  0.5820  1.1655 -1.1447
 2581SOL    MW410098   4.336   4.847   3.169  0.4868  0.1524 -1.0541
 2582SOL     OW10099   1.337   2.028   4.167  0.2321  0.1806  0.0810
 2582SOL    HW210100   1.401   1.957   4.175  1.0676  0.7833 -0.9233
 2582SOL    HW310101   1.302   2.039   4.255  0.6670 -0.9389  0.4128
 2582SOL    MW410102   1.341   2.020   4.179  0.3997  0.1124 -0.0077
 2583SOL     OW10103   1.445   5.930   3.548  0.2308  0.1305  0.0549
 2583SOL    HW210104   1.477   5.841   3.544 -0.9773 -0.4240  1.5143
 2583SOL    HW310105   1.438   5.958   3.457  2.5460 -0.5053 -0.3758
 2583SOL    MW410106   1.448   5.922   3.536  0.3769 -0.0265  0.1906
 2584SOL     OW10107   1.877   3.770   0.712  0.1338 -0.1582 -0.5131
 2584SOL    HW210108   1.863   3.678   0.732  0.0691 -0.2073 -0.7870
 2584SOL    HW310109   1.790   3.805   0.695  0.0673  0.1388  0.3622
 2584SOL    MW410110   1.864   3.762   0.713  0.1165 -0.1255 -0.4338
 2585SOL     OW10111   2.973   6.353   5.796 -0.0762 -0.5959 -0.6184
 2585SOL    HW210112   3.006   6.282   5.742 -1.5635 -1.5333 -0.3532
 2585SOL    HW310113   2.896   6.386   5.749 -0.1490 -0.0216 -0.1086
 2585SOL    MW410114   2.967   6.348   5.783 -0.2820 -0.6438 -0.5162
 2586SOL     OW10115   3.935   2.271   5.575 -0.3962  0.2516 -0.0032
 2586SOL    HW210116   3.863   2.308   5.626 -2.6444 -2.2112 -1.1539
 2586SOL    HW310117   3.947   2.183   5.610  0.2990 -0.2914 -1.5232
 2586SOL    MW410118   3.927   2.264   5.586 -0.6011 -0.1450 -0.3555
 2587SOL     OW10119   5.691   3.391   5.571 -0.4704  0.4426  0.4577
 2587SOL    HW210120   5.783   3.369   5.564 -0.8608 -1.1299 -0.1476
 2587SOL    HW310121   5.663   3.350   5.653 -1.0654 -0.8404 -0.3604
 2587SOL    MW410122   5.699   3.383   5.581 -0.6004  0.0659  0.2699
 2588SOL     OW10123   5.873   4.898   1.479 -0.0363  0.1692  0.4965
 2588SOL    HW210124   5.854   4.805   1.462  0.4727  0.2196 -0.4043
 2588SOL    HW310125   5.805   4.946   1.432 -1.5059  0.2495  2.5873
 2588SOL    MW410126   5.862   4.892   1.470 -0.1630  0.1865  0.6535
 2589SOL     OW10127   4.105   4.880   3.918  0.1905 -0.0650 -0.0816
 2589SOL    HW210128   4.067   4.798   3.887 -0.2620  0.1208 -0.0282
 2589SOL    HW310129   4.030   4.938   3.931  0.5761  0.6938 -1.0814
 2589SOL    MW410130   4.090   4.877   3.915  0.1817  0.0596 -0.2065
 2590SOL     OW10131   4.109   5.930   1.799  0.2919  0.4144 -0.0412
 2590SOL    HW210132   4.051   6.005   1.785 -0.1867  0.0261 -0.1753
 2590SOL    HW310133   4.195   5.961   1.773  0.2370  1.1581  0.6441
 2590SOL    MW410134   4.113   5.944   1.794  0.2215  0.4613  0.0316
 2591SOL     OW10135   4.677   2.958   2.913  0.2531  0.3296 -0.3422
 2591SOL    HW210136   4.703   3.035   2.963  1.0689 -0.0663 -0.1405
 2591SOL    HW310137   4.707   2.884   2.966  1.7219 -0.1060 -1.6929
 2591SOL    MW410138   4.685   2.958   2.927  0.5546  0.2199 -0.4938
 2592SOL     OW10139   4.801   3.632   1.596 -0.4077  0.2736  0.0724
 2592SOL    HW210140   4.774   3.653   1.686  1.8868  2.3409  0.3963
 2592SOL    HW310141   4.890   3.667   1.590  0.3558 -1.8207 -2.3474
 2592SOL    MW410142   4.810   3.639   1.607 -0.0043  0.2700 -0.2041
 2593SOL     OW10143   5.026   5.379   3.831 -0.6313  0.3989  0.4490
 2593SOL    HW210144   5.031   5.295   3.878 -0.6903 -0.2953 -0.7556
 2593SOL    HW310145   5.117   5.407   3.824 -0.4615 -0.3055 -0.4103
 2593SOL    MW410146   5.039   5.372   3.836 -0.6167  0.2144  0.1767
 2594SOL     OW10147   5.206   2.259   0.018  0.0259  0.7192  0.4655
 2594SOL    HW210148   5.130   2.237  -0.035 -1.6717  1.8631  2.2436
 2594SOL    HW310149   5.281   2.239  -0.037 -1.5829  1.6101 -2.2369
 2594SOL    MW410150   5.206   2.254   0.004 -0.4103  0.9876  0.3435
 2595SOL     OW10151   0.818   1.050   4.012  0.2621 -0.5220 -0.1362
 2595SOL    HW210152   0.744   1.033   3.953 -2.0593 -0.4191  2.5327
 2595SOL    HW310153   0.845   0.964   4.042 -0.8701 -0.4708  1.1667
 2595SOL    MW410154   0.811   1.037   4.008 -0.1935 -0.5016  0.3878
 2596SOL     OW10155   5.254   4.259   5.085  0.0846 -0.0612  0.4465
 2596SOL    HW210156   5.294   4.251   5.172 -2.0391 -0.6589  1.4611
 2596SOL    HW310157   5.184   4.193   5.086 -0.1364  0.0887 -1.6539
 2596SOL    MW410158   5.250   4.249   5.097 -0.2247 -0.1203  0.3033
 2597SOL     OW10159   3.346   3.112   2.535  0.2112 -0.0619  0.5866
 2597SOL    HW210160   3.369   3.087   2.446  1.3965  0.7672  0.6410
 2597SOL    HW310161   3.359   3.032   2.586 -0.3378 -0.5020  0.0513
 2597SOL    MW410162   3.350   3.098   2.530  0.2951 -0.0106  0.5231
 2598SOL     OW10163   4.550   6.097   3.749  0.7262 -0.3397  0.4997
 2598SOL    HW210164   4.601   6.120   3.827  0.6292  0.2594  0.3945
 2598SOL    HW310165   4.496   6.023   3.777  0.0088  0.4484  1.2920
 2598SOL    MW410166   4.550   6.090   3.763  0.6187 -0.1567  0.5904
 2599SOL     OW10167   5.690   0.163   0.884  0.9765  0.2526 -0.0175
 2599SOL    HW210168   5.704   0.133   0.974  1.0156 -1.1168 -0.4438
 2599SOL    HW310169   5.615   0.221   0.889  0.2467 -0.7148  0.7530
 2599SOL    MW410170   5.682   0.167   0.896  0.8854 -0.0557  0.0279
 2600SOL     OW10171   1.783   0.262   4.447 -0.1767 -0.2097 -0.3296
 2600SOL    HW210172   1.768   0.226   4.360 -1.7193  0.0695 -0.2156
 2600SOL    HW310173   1.699   0.250   4.493  0.5787 -0.3024  1.1017
 2600SOL    MW410174   1.770   0.256   4.442 -0.2806 -0.1851 -0.1257
 2601SOL     OW10175   5.004   3.784   6.155 -0.3079  0.2106  0.0406
 2601SOL    HW210176   4.937   3.726   6.191 -1.5502  0.3283 -1.9284
 2601SOL    HW310177   5.044   3.733   6.084 -1.5805  1.7653 -1.8841
 2601SOL    MW410178   5.001   3.770   6.151 -0.6397  0.4312 -0.4731
 2602SOL     OW10179   3.267   1.471   0.713  0.0775  0.0208 -0.1332
 2602SOL    HW210180   3.178   1.456   0.681 -0.8982  0.8765  2.0087
 2602SOL    HW310181   3.313   1.509   0.638 -1.8513  1.1615 -0.8105
 2602SOL    MW410182   3.261   1.474   0.698 -0.3057  0.2842  0.0601
 2603SOL     OW10183   4.947   2.416   0.224 -0.4825  0.0101  0.0441
 2603SOL    HW210184   4.922   2.502   0.259  0.8119  0.4934 -0.1805
 2603SOL    HW310185   4.893   2.407   0.145 -1.2806  0.2017  0.5485
 2603SOL    MW410186   4.936   2.426   0.218 -0.4170  0.0991  0.0810
 2604SOL     OW10187   3.042   1.690   0.416  0.0897  0.3276 -0.6080
 2604SOL    HW210188   2.967   1.725   0.368 -0.3243 -0.7175 -0.7449
 2604SOL    HW310189   3.080   1.624   0.358 -0.2675 -0.7770  0.3715
 2604SOL    MW410190   3.037   1.686   0.402 -0.0120  0.0440 -0.4969
 2605SOL     OW10191   4.884   5.214   1.130  0.9150  0.2631 -0.8943
 2605SOL    HW210192   4.952   5.281   1.140  0.1431  0.8558  0.7788
 2605SOL    HW310193   4.867   5.184   1.219  1.5215 -2.5193 -1.6239
 2605SOL    MW410194   4.891   5.219   1.143  0.8932 -0.0258 -0.7698
 2606SOL     OW10195   4.423   1.573   4.130  0.1935  0.1643  0.5517
 2606SOL    HW210196   4.328   1.572   4.147  0.1957 -1.6764  0.6265
 2606SOL    HW310197   4.460   1.512   4.194  1.7717  2.5127  2.0341
 2606SOL    MW410198   4.415   1.565   4.141  0.4020  0.2313  0.7572
 2607SOL     OW10199   6.168   3.144   2.151 -0.6327  0.3148 -0.3396
 2607SOL    HW210200   6.124   3.086   2.089 -1.6822  1.1691 -0.4192
 2607SOL    HW310201   6.135   3.117   2.236  1.2348 -1.2345 -0.0431
 2607SOL    MW410202   6.158   3.133   2.154 -0.5248  0.2231 -0.3110
 2608SOL     OW10203   1.681   3.832   2.283  0.7314 -0.4564  0.1680
 2608SOL    HW210204   1.695   3.790   2.198  2.3790  1.5207 -0.6174
 2608SOL    HW310205   1.766   3.872   2.304 -0.3793  1.3408  1.4614
 2608SOL    MW410206   1.694   3.832   2.274  0.8022  0.0416  0.2350
 2609SOL     OW10207   6.167   1.623   5.876 -0.5285 -0.5265 -0.8945
 2609SOL    HW210208   6.209   1.705   5.849 -1.5229 -0.7976 -3.5372
 2609SOL    HW310209   6.233   1.556   5.859  1.3517 -0.2664  3.7779
 2609SOL    MW410210   6.181   1.625   5.870 -0.4116 -0.5279 -0.6267
 2610SOL     OW10211   4.318   6.335   1.718 -0.0213 -0.1436 -0.1207
 2610SOL    HW210212   4.259   6.409   1.707 -1.4796 -1.1448  0.6621
 2610SOL    HW310213   4.264   6.267   1.757  1.5548 -1.2593  0.2090
 2610SOL    MW410214   4.303   6.336   1.722 -0.0058 -0.4229  0.0261
 2611SOL     OW10215   5.048   1.215   0.324  0.2766 -0.4050  0.1879
 2611SOL    HW210216   4.964   1.219   0.277 -0.4419 -0.8313  1.3857
 2611SOL    HW310217   5.050   1.297   0.374  0.5797 -0.4041  0.1756
 2611SOL    MW410218   5.037   1.227   0.324  0.2218 -0.4611  0.3443
 2612SOL     OW10219   5.556   5.312   1.406  0.7481 -0.2602 -0.3764
 2612SOL    HW210220   5.467   5.283   1.387  0.8143 -0.6150 -0.1562
 2612SOL    HW310221   5.552   5.345   1.496 -0.0758  3.4696 -1.6056
 2612SOL    MW410222   5.544   5.313   1.416  0.6481  0.1851 -0.5095
 2613SOL     OW10223   1.631   1.928   1.562  0.2594  0.3677  0.2104
 2613SOL    HW210224   1.586   1.847   1.538 -2.1815  1.6448  0.1726
 2613SOL    HW310225   1.718   1.899   1.592 -1.2618 -2.4765  2.4063
 2613SOL    MW410226   1.637   1.913   1.563 -0.2634  0.1609  0.4952
 2614SOL     OW10227   4.890   3.533   3.777 -0.2547 -0.3328 -0.1491
 2614SOL    HW210228   4.984   3.550   3.781 -0.6236  1.7430  1.4309
 2614SOL    HW310229   4.856   3.600   3.717 -1.0052  0.6318  1.2971
 2614SOL    MW410230   4.898   3.544   3.770 -0.4024  0.0683  0.2502
 2615SOL     OW10231   5.642   1.876   2.582  0.7211 -0.5553  0.5200
 2615SOL    HW210232   5.613   1.784   2.584  1.4248 -0.7973 -0.0158
 2615SOL    HW310233   5.584   1.917   2.518  1.9706 -1.2161 -1.1380
 2615SOL    MW410234   5.631   1.869   2.573  0.9788 -0.6744  0.2306
 2616SOL     OW10235   0.393   5.926   5.896  0.4578 -0.0034  0.4432
 2616SOL    HW210236   0.379   5.854   5.957 -1.1886  0.0669  0.2089
 2616SOL    HW310237   0.411   6.002   5.952 -0.9953  0.0495  0.8920
 2616SOL    MW410238   0.393   5.927   5.911  0.0489  0.0128  0.4715
 2617SOL     OW10239   3.235   4.185   1.028 -0.2650 -0.2609 -0.2319
 2617SOL    HW210240   3.173   4.117   1.055 -1.3077 -0.7346 -3.3788
 2617SOL    HW310241   3.307   4.137   0.988  0.1619  0.4256 -0.3046
 2617SOL    MW410242   3.236   4.169   1.026 -0.3463 -0.2328 -0.6567
 2618SOL     OW10243   3.080   1.877   2.628  0.3147  0.1553 -0.0795
 2618SOL    HW210244   3.059   1.895   2.720 -0.1896  3.3615 -0.6992
 2618SOL    HW310245   2.995   1.855   2.589  0.4142 -0.5009  0.0635
 2618SOL    MW410246   3.066   1.876   2.635  0.2613  0.4918 -0.1424
 2619SOL     OW10247   6.309   6.198   5.785 -0.0712 -0.4430  0.2280
 2619SOL    HW210248   6.318   6.272   5.724 -1.4225 -0.3150  0.1548
 2619SOL    HW310249   6.340   6.232   5.869  1.1912 -0.4176 -0.2284
 2619SOL    MW410250   6.314   6.212   5.788 -0.0829 -0.4228  0.1581
 2620SOL     OW10251   6.405   0.782   0.016 -0.4018 -0.1544 -0.1632
 2620SOL    HW210252   6.395   0.688   0.004 -1.5371 -0.1880  0.8145
 2620SOL    HW310253   6.340   0.821  -0.043 -2.3948 -0.1530  1.8776
 2620SOL    MW410254   6.395   0.775   0.006 -0.8146 -0.1586  0.2351
 2621SOL     OW10255   4.107   0.707   1.663  0.5281 -0.1955 -0.1296
 2621SOL    HW210256   4.180   0.662   1.621  0.8424  1.0898 -1.0252
 2621SOL    HW310257   4.033   0.647   1.654  0.6623 -0.1163 -2.2949
 2621SOL    MW410258   4.107   0.693   1.656  0.5872 -0.0155 -0.5335
 2622SOL     OW10259   4.479   4.991   2.155 -0.0688  0.7008  0.0950
 2622SOL    HW210260   4.487   5.069   2.100  3.4725  0.9371  0.7200
 2622SOL    HW310261   4.565   4.981   2.196 -0.6987 -2.9238  0.9191
 2622SOL    MW410262   4.491   5.000   2.154  0.3153  0.2538  0.2862
 2623SOL     OW10263   0.977   4.208   5.850 -0.5334 -0.0249 -0.6978
 2623SOL    HW210264   1.055   4.159   5.826 -0.0962  0.9416 -1.3331
 2623SOL    HW310265   0.919   4.144   5.890  0.5682 -0.7671 -0.2599
 2623SOL    MW410266   0.980   4.193   5.852 -0.3304  0.0047 -0.7238
 2624SOL     OW10267   0.845   6.102   3.455 -0.0951 -0.2662  0.4291
 2624SOL    HW210268   0.875   6.069   3.540 -1.2967  1.4349  1.5894
 2624SOL    HW310269   0.803   6.027   3.413  2.5503 -1.7477  0.2752
 2624SOL    MW410270   0.843   6.088   3.461  0.0954 -0.2372  0.5619
 2625SOL     OW10271   1.777   4.365   2.530 -0.0409  0.2386 -0.3334
 2625SOL    HW210272   1.817   4.364   2.617  0.4319  0.2630 -0.5470
 2625SOL    HW310273   1.848   4.389   2.471  0.6736 -3.4115 -1.2010
 2625SOL    MW410274   1.792   4.368   2.534  0.1158 -0.2398 -0.4761
 2626SOL     OW10275   1.226   2.805   5.217  0.0862  0.0884 -0.4721
 2626SOL    HW210276   1.259   2.825   5.129  0.4798  0.0696 -0.3300
 2626SOL    HW310277   1.149   2.860   5.227  0.6106  0.8236 -0.4500
 2626SOL    MW410278   1.221   2.815   5.206  0.2073  0.1829 -0.4504
 2627SOL     OW10279   2.721   3.975   0.422 -0.9562  0.1300  0.1319
 2627SOL    HW210280   2.797   4.016   0.381 -0.6130 -0.0395  0.5962
 2627SOL    HW310281   2.757   3.926   0.496 -1.5463  0.2364  0.4887
 2627SOL    MW410282   2.736   3.974   0.426 -0.9888  0.1217  0.2402
 2628SOL     OW10283   4.553   0.135   3.858 -0.4630 -0.3209  0.5173
 2628SOL    HW210284   4.528   0.069   3.923 -1.4205 -0.3751  0.1164
 2628SOL    HW310285   4.621   0.187   3.901 -0.3033 -1.0395  1.1489
 2628SOL    MW410286   4.558   0.133   3.873 -0.5682 -0.4229  0.5477
 2629SOL     OW10287   6.180   4.406   2.038  0.1793 -0.1739  0.4286
 2629SOL    HW210288   6.243   4.368   1.977  0.7347  2.0953 -0.4836
 2629SOL    HW310289   6.096   4.399   1.992 -0.2077 -2.5671  1.3604
 2629SOL    MW410290   6.177   4.400   2.024  0.2015 -0.1903  0.4312
 2630SOL     OW10291   2.500   1.353   6.406  0.6489  0.2455  0.3101
 2630SOL    HW210292   2.522   1.306   6.487 -1.5483 -1.8920 -0.1827
 2630SOL    HW310293   2.515   1.445   6.426  2.4705 -0.4139  2.3266
 2630SOL    MW410294   2.505   1.359   6.420  0.5993 -0.1235  0.5111
 2631SOL     OW10295   4.482   0.594   5.325 -0.2346  0.0338  0.3688
 2631SOL    HW210296   4.430   0.562   5.399 -1.3410 -1.1142 -0.8400
 2631SOL    HW310297   4.473   0.689   5.329 -0.6387 -0.0292  1.4446
 2631SOL    MW410298   4.474   0.602   5.335 -0.4339 -0.1260  0.3513
 2632SOL     OW10299   6.086   3.367   3.017 -0.2668 -0.3007 -0.3557
 2632SOL    HW210300   6.035   3.446   3.003 -1.9808 -1.5395 -1.5177
 2632SOL    HW310301   6.173   3.387   2.982 -0.5530  1.1701 -0.2736
 2632SOL    MW410302   6.091   3.380   3.011 -0.5307 -0.2701 -0.4982
 2633SOL     OW10303   0.450   6.454   3.101 -0.7700 -0.1277 -0.2027
 2633SOL    HW210304   0.494   6.535   3.075 -2.5105  0.2409 -2.3042
 2633SOL    HW310305   0.521   6.389   3.106  0.3914  1.0585 -0.5358
 2633SOL    MW410306   0.465   6.456   3.098 -0.8464  0.0774 -0.5239
 2634SOL     OW10307   0.980   0.095   3.334  0.1101 -0.1604  0.0722
 2634SOL    HW210308   0.901   0.044   3.317 -0.7773  0.4313  2.2034
 2634SOL    HW310309   0.951   0.169   3.386  1.6517  1.6457 -1.4528
 2634SOL    MW410310   0.966   0.098   3.338  0.1964  0.1559  0.1522
 2635SOL     OW10311   4.560   3.884   1.697 -0.4139  0.2824  0.8443
 2635SOL    HW210312   4.624   3.934   1.647 -2.2894  2.7226  0.6605
 2635SOL    HW310313   4.594   3.884   1.786  0.2269  0.8400  0.6063
 2635SOL    MW410314   4.573   3.891   1.702 -0.5768  0.6779  0.7887
 2636SOL     OW10315   5.065   2.363   0.600 -0.0178  0.7041  0.4771
 2636SOL    HW210316   5.008   2.389   0.673  0.5577 -0.7843  1.5291
 2636SOL    HW310317   5.112   2.286   0.634  0.4875  0.1503 -1.3768
 2636SOL    MW410318   5.064   2.356   0.614  0.1248  0.4347  0.3713
 2637SOL     OW10319   2.424   6.163   4.759  0.3923  0.3501  0.0653
 2637SOL    HW210320   2.472   6.134   4.681  1.3548  0.6410  0.5324
 2637SOL    HW310321   2.488   6.159   4.830 -0.6419 -0.5094  0.9788
 2637SOL    MW410322   2.439   6.159   4.758  0.3829  0.2751  0.2475
 2638SOL     OW10323   5.631   1.320   5.661  0.5940 -0.0247 -0.5195
 2638SOL    HW210324   5.666   1.247   5.713  1.5271  0.8747  0.1667
 2638SOL    HW310325   5.550   1.286   5.623  0.3351 -1.0036  0.8353
 2638SOL    MW410326   5.625   1.306   5.663  0.6829 -0.0352 -0.2502
 2639SOL     OW10327   3.327   2.104   0.410 -0.6651  0.6440 -0.1836
 2639SOL    HW210328   3.301   2.187   0.450  0.2730 -0.6084  3.4061
 2639SOL    HW310329   3.422   2.099   0.425 -0.6434 -0.9126 -0.6339
 2639SOL    MW410330   3.336   2.114   0.417 -0.5385  0.2734  0.2306
 2640SOL     OW10331   1.393   4.186   0.209  0.3138  0.6654 -0.2123
 2640SOL    HW210332   1.438   4.268   0.228  0.9860  0.8703 -2.4010
 2640SOL    HW310333   1.377   4.189   0.114 -2.0641 -0.5381  0.0621
 2640SOL    MW410334   1.397   4.197   0.199  0.0888  0.5336 -0.4649
 2641SOL     OW10335   2.515   6.199   3.500  0.0162  0.2858  0.7954
 2641SOL    HW210336   2.575   6.146   3.448 -0.1447  1.9192 -1.1938
 2641SOL    HW310337   2.521   6.163   3.589  0.4039 -2.5633 -0.2904
 2641SOL    MW410338   2.523   6.187   3.505  0.0461  0.1254  0.3897
 2642SOL     OW10339   0.292   0.486   0.432 -0.0481 -0.0922 -0.3783
 2642SOL    HW210340   0.244   0.460   0.510  3.3006  1.5353  2.5073
 2642SOL    HW310341   0.260   0.574   0.412  0.6175  0.3933  0.6156
 2642SOL    MW410342   0.282   0.494   0.440  0.4815  0.1866  0.1336
 2643SOL     OW10343   3.436   0.168   3.604  0.0144  0.2247  0.0820
 2643SOL    HW210344   3.395   0.169   3.518  1.3714  2.7152 -0.6422
 2643SOL    HW310345   3.524   0.134   3.588  0.0614  0.0986  0.5910
 2643SOL    MW410346   3.442   0.164   3.590  0.1996  0.5366  0.0536
 2644SOL     OW10347   4.947   2.795   1.836 -0.2520 -0.6467  0.0333
 2644SOL    HW210348   4.908   2.784   1.923  0.1944  1.0528  0.4987
 2644SOL    HW310349   5.022   2.853   1.851  2.1026 -3.2450 -0.9518
 2644SOL    MW410350   4.951   2.801   1.850  0.1175 -0.7653 -0.0353
 2645SOL     OW10351   5.618   1.357   4.372  0.7052 -0.2261 -0.0427
 2645SOL    HW210352   5.694   1.301   4.383  0.0448 -1.1283  0.0189
 2645SOL    HW310353   5.544   1.297   4.364  0.0086  0.6255 -0.2193
 2645SOL    MW410354   5.618   1.342   4.372  0.5262 -0.2328 -0.0578
 2646SOL     OW10355   6.084   4.121   3.561 -0.0188  0.2939  0.3071
 2646SOL    HW210356   6.102   4.206   3.522  3.4071 -0.2167  0.4636
 2646SOL    HW310357   6.104   4.057   3.492  0.0941 -0.4575  1.0166
 2646SOL    MW410358   6.089   4.124   3.547  0.4481  0.1274  0.4214
 2647SOL     OW10359   2.782   1.712   2.036  0.2957  0.2397 -0.0394
 2647SOL    HW210360   2.761   1.703   1.943 -1.8519 -1.4987  0.5327
 2647SOL    HW310361   2.840   1.638   2.055 -0.2006 -0.0920  0.2181
 2647SOL    MW410362   2.787   1.701   2.026 -0.0532 -0.0334  0.0701
 2648SOL     OW10363   3.591   2.020   2.580  0.0163 -0.2709 -0.6133
 2648SOL    HW210364   3.589   2.015   2.675 -1.5594  0.4867 -0.5699
 2648SOL    HW310365   3.674   1.980   2.555  1.1635  0.8646  1.1556
 2648SOL    MW410366   3.601   2.014   2.589 -0.0402 -0.0212 -0.3742
 2649SOL     OW10367   5.292   1.893   5.449  0.0882 -0.4265 -0.1365
 2649SOL    HW210368   5.324   1.915   5.536  0.3200 -2.4118  0.3283
 2649SOL    HW310369   5.355   1.935   5.390  0.3249  0.3516  0.6427
 2649SOL    MW410370   5.305   1.901   5.452  0.1500 -0.5858  0.0276
 2650SOL     OW10371   1.817   1.789   2.418  0.0834  0.1025 -0.0008
 2650SOL    HW210372   1.879   1.717   2.407 -1.3749 -1.3959  1.0015
 2650SOL    HW310373   1.782   1.777   2.507  0.2246  2.4225  0.4298
 2650SOL    MW410374   1.820   1.778   2.429 -0.0904  0.2109  0.1883
 2651SOL     OW10375   3.186   1.407   1.894 -0.5205 -0.1999  0.4366
 2651SOL    HW210376   3.233   1.343   1.947 -1.0954 -0.4035  0.7138
 2651SOL    HW310377   3.255   1.458   1.851 -0.0623 -1.1312  0.0477
 2651SOL    MW410378   3.201   1.405   1.896 -0.5359 -0.3497  0.4219
 2652SOL     OW10379   4.389   1.765   0.058  0.0966  0.3149  0.3225
 2652SOL    HW210380   4.330   1.690   0.048  0.1368  0.1771  1.0514
 2652SOL    HW310381   4.363   1.826  -0.011 -1.0051  0.3256  0.7293
 2652SOL    MW410382   4.378   1.763   0.048 -0.0434  0.2981  0.4723
 2653SOL     OW10383   0.876   5.282   1.255  0.2551  0.6749 -0.2845
 2653SOL    HW210384   0.929   5.330   1.319 -1.9851  0.9414  1.4920
 2653SOL    HW310385   0.882   5.334   1.175  1.3601  1.5346  0.3206
 2653SOL    MW410386   0.884   5.295   1.253  0.1054  0.8235  0.0297
 2654SOL     OW10387   0.087   0.753   4.419  0.4883  0.2970  0.0328
 2654SOL    HW210388   0.076   0.739   4.513 -0.7254  1.0366  0.0164
 2654SOL    HW310389   0.151   0.823   4.413 -0.3309  1.0892  0.3559
 2654SOL    MW410390   0.094   0.760   4.431  0.2201  0.4991  0.0732
 2655SOL     OW10391   1.923   5.127   1.981  0.2509 -0.3990  0.4057
 2655SOL    HW210392   1.920   5.221   1.960 -0.4819 -0.6123 -0.5160
 2655SOL    HW310393   1.996   5.094   1.930  0.0219 -0.4665  0.1189
 2655SOL    MW410394   1.932   5.135   1.972  0.1240 -0.4361  0.2462
 2656SOL     OW10395   0.751   0.879   1.675 -0.6920 -0.4678 -0.3777
 2656SOL    HW210396   0.696   0.841   1.743 -2.3137  1.0531 -0.7599
 2656SOL    HW310397   0.691   0.928   1.620  0.8242 -0.2323 -1.9108
 2656SOL    MW410398   0.736   0.881   1.677 -0.7059 -0.2361 -0.6304
 2657SOL     OW10399   0.970   0.479   3.706  0.4869 -0.0049  0.8045
 2657SOL    HW210400   0.970   0.436   3.792  2.5006 -0.4017  0.6528
 2657SOL    HW310401   0.893   0.535   3.708 -1.2461 -2.2266  1.7230
 2657SOL    MW410402   0.960   0.481   3.718  0.5239 -0.3504  0.9056
 2658SOL     OW10403   6.214   6.073   4.176  0.2657 -0.0169  0.4404
 2658SOL    HW210404   6.276   6.138   4.210  0.8313 -0.0895 -0.4310
 2658SOL    HW310405   6.145   6.124   4.135  1.1326  0.0568 -0.9912
 2658SOL    MW410406   6.213   6.088   4.175  0.4547 -0.0167  0.1365
 2659SOL     OW10407   2.831   5.889   4.423 -0.9387 -0.3445 -0.0286
 2659SOL    HW210408   2.807   5.822   4.360  0.6627  1.2568 -2.5338
 2659SOL    HW310409   2.771   5.962   4.405 -1.1349 -0.2097  1.0518
 2659SOL    MW410410   2.820   5.890   4.413 -0.7533 -0.1154 -0.2166
 2660SOL     OW10411   0.611   2.876   6.044 -0.2902  0.2351 -0.1484
 2660SOL    HW210412   0.610   2.943   5.976 -0.7228 -1.1031 -1.5337
 2660SOL    HW310413   0.654   2.801   6.002  0.3811 -0.2919  1.4203
 2660SOL    MW410414   0.616   2.875   6.029 -0.2587 -0.0110 -0.1242
 2661SOL     OW10415   1.731   1.114   2.804 -0.1506 -0.0972  0.0029
 2661SOL    HW210416   1.732   1.199   2.760 -0.6840 -0.5125 -0.8289
 2661SOL    HW310417   1.726   1.136   2.897  1.7893  0.8046 -0.0606
 2661SOL    MW410418   1.730   1.128   2.810  0.0350 -0.0330 -0.1152
 2662SOL     OW10419   5.016   2.921   1.346 -0.5932  0.4014  0.4586
 2662SOL    HW210420   5.088   2.959   1.296 -0.4091 -1.0942 -0.4706
 2662SOL    HW310421   4.937   2.956   1.305 -0.4764 -1.4195 -1.5062
 2662SOL    MW410422   5.015   2.930   1.334 -0.5535 -0.0361  0.0767
 2663SOL     OW10423   4.377   6.428   4.046 -0.5219 -0.4946  0.1815
 2663SOL    HW210424   4.298   6.472   4.079 -0.9737 -0.6559 -0.6722
 2663SOL    HW310425   4.404   6.372   4.118 -1.0616 -0.2777  0.5669
 2663SOL    MW410426   4.370   6.427   4.060 -0.6527 -0.4873  0.1197
 2664SOL     OW10427   1.760   4.763   2.309 -0.3863  0.0764 -0.1406
 2664SOL    HW210428   1.726   4.722   2.388 -0.9421 -1.1188 -0.9809
 2664SOL    HW310429   1.846   4.796   2.335 -1.5379  1.9392  1.6359
 2664SOL    MW410430   1.767   4.762   2.323 -0.6116  0.1645 -0.0170
 2665SOL     OW10431   5.273   4.346   0.259  0.2755  0.0059  0.7484
 2665SOL    HW210432   5.299   4.256   0.279  0.7119 -0.2616 -0.8540
 2665SOL    HW310433   5.225   4.375   0.336 -0.1838 -1.7222  1.1543
 2665SOL    MW410434   5.270   4.338   0.272  0.2725 -0.2574  0.5906
 2666SOL     OW10435   4.554   6.274   1.986  0.9092  0.2251 -0.9925
 2666SOL    HW210436   4.597   6.322   2.057 -0.1396 -0.4804  0.1712
 2666SOL    HW310437   4.479   6.232   2.028 -0.9169  1.3613 -2.9242
 2666SOL    MW410438   4.550   6.274   2.001  0.5299  0.2820 -1.0939
 2667SOL     OW10439   1.092   0.228   1.888 -0.2673 -0.2938  0.0697
 2667SOL    HW210440   1.103   0.173   1.810 -1.6886  0.1380 -0.4559
 2667SOL    HW310441   1.180   0.262   1.906  0.3940 -1.6895 -0.3575
 2667SOL    MW410442   1.105   0.225   1.880 -0.3675 -0.4210 -0.0560
 2668SOL     OW10443   5.782   3.498   2.218 -0.2461 -0.1286 -0.0376
 2668SOL    HW210444   5.737   3.519   2.136 -2.0989  0.3700  1.0410
 2668SOL    HW310445   5.866   3.461   2.190 -0.4140  0.8762 -2.1370
 2668SOL    MW410446   5.787   3.496   2.203 -0.5127  0.0698 -0.1723
 2669SOL     OW10447   2.165   4.434   2.948 -0.0116 -0.4139  0.2105
 2669SOL    HW210448   2.139   4.498   3.014  0.3560  0.8721 -0.8540
 2669SOL    HW310449   2.164   4.482   2.865  0.1712 -1.8166 -0.6479
 2669SOL    MW410450   2.161   4.449   2.946  0.0610 -0.4293 -0.0432
 2670SOL     OW10451   0.819   2.390   2.717 -0.2015 -0.3673 -0.2219
 2670SOL    HW210452   0.887   2.445   2.681 -0.8968 -0.5365 -1.8657
 2670SOL    HW310453   0.841   2.301   2.688  0.6300 -0.9396  1.9663
 2670SOL    MW410454   0.831   2.385   2.709 -0.1835 -0.4651 -0.1500
 2671SOL     OW10455   5.653   4.104   3.067  0.4536  0.3496 -0.1649
 2671SOL    HW210456   5.559   4.086   3.059  0.5597 -1.8411  2.0653
 2671SOL    HW310457   5.657   4.195   3.098 -0.8769  0.6610 -0.8160
 2671SOL    MW410458   5.641   4.114   3.070  0.2921  0.1016  0.0435
 2672SOL     OW10459   4.383   3.014   3.905 -0.1486 -0.3697 -0.1824
 2672SOL    HW210460   4.368   2.925   3.871 -0.1230  0.1114 -1.4873
 2672SOL    HW310461   4.432   3.000   3.986  0.6984 -1.5245 -0.8571
 2672SOL    MW410462   4.388   3.000   3.911 -0.0335 -0.4586 -0.4436
 2673SOL     OW10463   4.180   0.319   5.244  0.4554 -0.1241 -0.3804
 2673SOL    HW210464   4.227   0.376   5.181  2.2803 -0.3200  0.7278
 2673SOL    HW310465   4.131   0.258   5.189 -1.4162  2.3121 -1.6279
 2673SOL    MW410466   4.180   0.319   5.228  0.4492  0.1715 -0.3988
 2674SOL     OW10467   1.734   0.223   5.811  0.0058  0.0275 -0.3979
 2674SOL    HW210468   1.660   0.163   5.804 -1.2804  1.7066 -2.1356
 2674SOL    HW310469   1.788   0.203   5.735  0.3573  0.0537 -0.1544
 2674SOL    MW410470   1.731   0.212   5.800 -0.1175  0.2525 -0.5950
 2675SOL     OW10471   3.843   2.263   5.274  0.2835 -0.0807 -0.2169
 2675SOL    HW210472   3.808   2.179   5.244 -2.5713  0.6263  0.8208
 2675SOL    HW310473   3.857   2.250   5.368  0.9715  0.2531 -0.2741
 2675SOL    MW410474   3.840   2.250   5.283 -0.0024  0.0566 -0.0875
 2676SOL     OW10475   4.798   3.048   4.609 -0.0037 -0.3190 -0.1424
 2676SOL    HW210476   4.771   3.053   4.518  2.7717  0.2195 -1.0229
 2676SOL    HW310477   4.799   3.139   4.639  0.9547 -0.3004 -0.2029
 2676SOL    MW410478   4.794   3.061   4.601  0.4889 -0.2455 -0.2665
 2677SOL     OW10479   2.348   5.873   4.768  0.7428 -0.3549 -0.1286
 2677SOL    HW210480   2.429   5.831   4.740  2.1662  1.4175  1.0441
 2677SOL    HW310481   2.370   5.966   4.772 -0.4492 -0.0856  2.9891
 2677SOL    MW410482   2.362   5.880   4.765  0.7733 -0.0856  0.4374
 2678SOL     OW10483   0.527   4.736   4.582  0.3523  0.1269  0.2700
 2678SOL    HW210484   0.533   4.640   4.572 -2.5384  0.0266 -1.9921
 2678SOL    HW310485   0.591   4.757   4.650  1.5775 -3.3182  0.3995
 2678SOL    MW410486   0.536   4.726   4.590  0.1326 -0.3409 -0.0113
 2679SOL     OW10487   0.744   3.198   3.053 -0.2973 -0.7007  0.3479
 2679SOL    HW210488   0.789   3.194   2.969 -0.3888  0.4282  0.2415
 2679SOL    HW310489   0.659   3.156   3.036 -0.4105 -0.2649 -0.1795
 2679SOL    MW410490   0.739   3.192   3.040 -0.3243 -0.4943  0.2643
 2680SOL     OW10491   1.562   1.714   4.422  0.3432 -0.3628 -0.5754
 2680SOL    HW210492   1.534   1.735   4.333 -0.3508  1.3653 -0.0022
 2680SOL    HW310493   1.481   1.692   4.468  0.5826 -0.3562 -0.1470
 2680SOL    MW410494   1.547   1.714   4.417  0.2832 -0.1339 -0.4433
 2681SOL     OW10495   1.661   1.439   4.343  0.1710  0.0479 -0.1603
 2681SOL    HW210496   1.692   1.440   4.253  2.1624  0.6583  0.4628
 2681SOL    HW310497   1.619   1.524   4.356 -0.1150 -0.0405 -0.5042
 2681SOL    MW410498   1.660   1.450   4.333  0.3960  0.1168 -0.1235
 2682SOL     OW10499   1.800   2.400   1.829 -0.4257  0.4387 -0.4659
 2682SOL    HW210500   1.730   2.340   1.803  0.0683 -0.3595  0.0121
 2682SOL    HW310501   1.865   2.393   1.759  0.0705 -0.3350  0.0487
 2682SOL    MW410502   1.799   2.391   1.816 -0.2950  0.2313 -0.3349
 2683SOL     OW10503   4.682   0.261   4.696 -0.0902  0.4624 -0.0778
 2683SOL    HW210504   4.665   0.331   4.634 -3.5797  0.5950  0.7686
 2683SOL    HW310505   4.681   0.181   4.644  1.2924  0.8302 -0.6990
 2683SOL    MW410506   4.679   0.259   4.681 -0.3682  0.5284 -0.0481
 2684SOL     OW10507   6.215   1.680   0.468  0.1643  0.1366  0.1190
 2684SOL    HW210508   6.131   1.703   0.507 -0.5055  0.3557 -1.3953
 2684SOL    HW310509   6.244   1.603   0.518 -0.8787  0.1182  0.7303
 2684SOL    MW410510   6.208   1.673   0.480 -0.0617  0.1630 -0.0002
 2685SOL     OW10511   1.677   2.645   6.244 -0.4237 -0.6167  0.2499
 2685SOL    HW210512   1.748   2.678   6.298  0.5487  0.3169 -1.5204
 2685SOL    HW310513   1.713   2.570   6.198 -1.3147 -1.5590  1.0429
 2685SOL    MW410514   1.691   2.640   6.245 -0.4129 -0.6179  0.1209
 2686SOL     OW10515   2.264   1.681   2.040 -0.0130  0.6483 -0.4547
 2686SOL    HW210516   2.334   1.685   2.105  0.1577 -0.2922 -0.5657
 2686SOL    HW310517   2.283   1.752   1.979  1.2003  0.0274 -0.8278
 2686SOL    MW410518   2.276   1.691   2.041  0.1696  0.4423 -0.5186
 2687SOL     OW10519   6.112   5.090   1.446  0.4855  0.2052 -0.1128
 2687SOL    HW210520   6.169   5.067   1.519 -0.1348  0.6516  0.5184
 2687SOL    HW310521   6.052   5.016   1.438  0.3270  0.3173  0.0528
 2687SOL    MW410522   6.112   5.077   1.454  0.3827  0.2788 -0.0077
 2688SOL     OW10523   4.469   4.637   2.721 -0.2058 -0.8573  0.4119
 2688SOL    HW210524   4.479   4.641   2.626  0.9974  0.2334  0.5674
 2688SOL    HW310525   4.557   4.649   2.756 -0.2814 -3.2200  1.6759
 2688SOL    MW410526   4.482   4.639   2.714 -0.0571 -1.0251  0.5992
 2689SOL     OW10527   1.565   5.447   1.569 -0.4905  0.0009 -0.2465
 2689SOL    HW210528   1.553   5.525   1.623 -0.8115 -0.5675  0.5068
 2689SOL    HW310529   1.642   5.404   1.606  0.0634  0.2761 -1.0537
 2689SOL    MW410530   1.574   5.452   1.581 -0.4598 -0.0378 -0.2536
 2690SOL     OW10531   5.568   4.449   1.107  0.0097  0.0993 -0.0418
 2690SOL    HW210532   5.534   4.508   1.175 -0.1488  1.8752 -1.5839
 2690SOL    HW310533   5.620   4.506   1.050  0.4006 -1.3916 -1.2288
 2690SOL    MW410534   5.570   4.465   1.109  0.0403  0.1369 -0.4019
 2691SOL     OW10535   3.337   5.393   1.783  0.0184  1.0116  0.2321
 2691SOL    HW210536   3.304   5.303   1.777 -0.5615  1.3336 -2.3011
 2691SOL    HW310537   3.406   5.398   1.717  0.7192  2.1775  1.0115
 2691SOL    MW410538   3.342   5.382   1.774  0.0344  1.2079  0.0007
 2692SOL     OW10539   0.503   3.480   0.318 -0.0874  0.2489 -0.0951
 2692SOL    HW210540   0.465   3.511   0.236 -1.4442 -0.0006  0.4006
 2692SOL    HW310541   0.566   3.547   0.343 -0.5300  0.9234 -0.7485
 2692SOL    MW410542   0.506   3.493   0.311 -0.3248  0.3050 -0.1159
 2693SOL     OW10543   1.717   1.197   2.263 -0.2814  0.1733  0.0706
 2693SOL    HW210544   1.748   1.158   2.344 -0.9131 -1.3662 -0.4069
 2693SOL    HW310545   1.759   1.283   2.261  0.2048  0.0087  1.7238
 2693SOL    MW410546   1.727   1.204   2.273 -0.3006 -0.0515  0.2258
 2694SOL     OW10547   3.619   4.725   5.813 -0.4253 -0.3955  0.3763
 2694SOL    HW210548   3.658   4.796   5.762 -0.6849 -0.7365 -0.3150
 2694SOL    HW310549   3.653   4.738   5.902  0.6010 -0.1994 -0.0246
 2694SOL    MW410550   3.629   4.736   5.818 -0.3241 -0.4146  0.2322
 2695SOL     OW10551   5.101   3.833   0.647  0.2320  0.9612  0.6033
 2695SOL    HW210552   5.097   3.793   0.560  1.3860  1.2603  0.4040
 2695SOL    HW310553   5.159   3.777   0.697 -1.0237  0.3535  1.4450
 2695SOL    MW410554   5.108   3.821   0.642  0.2186  0.9205  0.6880
 2696SOL     OW10555   5.247   6.424   0.211  0.5769  0.1026  1.3744
 2696SOL    HW210556   5.159   6.391   0.192 -0.1825  2.0470  1.2382
 2696SOL    HW310557   5.306   6.369   0.161 -0.5613 -1.2341  1.4569
 2696SOL    MW410558   5.243   6.412   0.202  0.3265  0.1828  1.3673
 2697SOL     OW10559   5.985   4.377   4.665 -0.4004 -0.2612 -0.4917
 2697SOL    HW210560   5.907   4.332   4.634 -0.6806 -0.7819  0.8971
 2697SOL    HW310561   5.962   4.470   4.662 -1.0176 -0.3998 -0.2855
 2697SOL    MW410562   5.972   4.383   4.661 -0.5188 -0.3482 -0.2813
 2698SOL     OW10563   3.969   3.437   5.375 -0.2337 -0.2570 -0.0185
 2698SOL    HW210564   4.037   3.435   5.308  1.7556 -1.5985  1.8773
 2698SOL    HW310565   3.978   3.523   5.416  0.1609 -0.3345  0.0592
 2698SOL    MW410566   3.979   3.448   5.372  0.0808 -0.4442  0.2419
 2699SOL     OW10567   1.574   0.868   0.481  0.5231  0.1165 -0.1839
 2699SOL    HW210568   1.597   0.914   0.400 -1.3239  0.3527 -0.6407
 2699SOL    HW310569   1.478   0.866   0.480  0.4936 -1.0399  1.3657
 2699SOL    MW410570   1.564   0.874   0.470  0.2755 -0.0049 -0.0397
 2700SOL     OW10571   1.035   3.196   0.287 -0.4716 -1.0038 -0.9019
 2700SOL    HW210572   0.984   3.140   0.346  0.7330 -1.9145 -0.6867
 2700SOL    HW310573   1.083   3.134   0.231  2.9758 -0.3499  1.0599
 2700SOL    MW410574   1.034   3.180   0.287  0.1422 -1.0377 -0.6147
 2701SOL     OW10575   1.155   4.704   4.255 -0.0049 -0.0091  0.1483
 2701SOL    HW210576   1.187   4.618   4.227 -0.8069 -0.6712  1.2112
 2701SOL    HW310577   1.186   4.713   4.345 -0.9042  0.3112  0.4288
 2701SOL    MW410578   1.163   4.694   4.263 -0.2294 -0.0542  0.3256
 2702SOL     OW10579   4.703   4.055   1.336  0.5707 -0.2170 -0.0861
 2702SOL    HW210580   4.615   4.045   1.301  0.4856  0.9396 -0.2408
 2702SOL    HW310581   4.730   3.966   1.361 -0.0464 -0.8034 -1.4332
 2702SOL    MW410582   4.695   4.042   1.335  0.4781 -0.1417 -0.2843
 2703SOL     OW10583   5.510   2.951   1.094  0.1645 -0.2117 -0.1170
 2703SOL    HW210584   5.469   2.865   1.080  1.1423 -0.6294 -0.5348
 2703SOL    HW310585   5.548   2.946   1.182  1.0465 -0.5824 -0.4984
 2703SOL    MW410586   5.510   2.939   1.103  0.4099 -0.3157 -0.2224
 2704SOL     OW10587   2.685   2.866   3.604 -0.5660 -0.0340 -0.1947
 2704SOL    HW210588   2.745   2.883   3.531  0.0171 -0.4352  0.1773
 2704SOL    HW310589   2.740   2.822   3.669 -0.6854  1.6756  1.1266
 2704SOL    MW410590   2.700   2.862   3.603 -0.5048  0.1386  0.0287
 2705SOL     OW10591   2.739   4.503   3.022 -0.1465 -0.4829 -0.2218
 2705SOL    HW210592   2.775   4.539   3.103 -2.6317 -0.2105  0.8563
 2705SOL    HW310593   2.702   4.418   3.049  0.6500 -1.2673 -1.5084
 2705SOL    MW410594   2.739   4.496   3.036 -0.3693 -0.5505 -0.2493
 2706SOL     OW10595   2.066   1.547   5.875 -0.3505 -0.2398 -0.0216
 2706SOL    HW210596   2.027   1.460   5.870  1.3540 -1.1727  1.4715
 2706SOL    HW310597   1.992   1.608   5.872 -1.5608 -1.7099 -1.2624
 2706SOL    MW410598   2.051   1.544   5.874 -0.2853 -0.5569  0.0117
 2707SOL     OW10599   1.417   2.498   4.363 -0.0468  0.0137 -0.0162
 2707SOL    HW210600   1.486   2.528   4.421  0.7250 -0.6927 -0.5386
 2707SOL    HW310601   1.343   2.556   4.381  1.3916  2.3089 -1.0696
 2707SOL    MW410602   1.416   2.509   4.373  0.2448  0.2233 -0.2241
 2708SOL     OW10603   2.129   5.931   2.919 -0.7431 -0.1503 -0.2595
 2708SOL    HW210604   2.143   5.836   2.929 -1.4576 -0.3413 -0.9859
 2708SOL    HW310605   2.066   5.953   2.988  0.3057  0.0251  0.6611
 2708SOL    MW410606   2.122   5.921   2.929 -0.6990 -0.1523 -0.2339
 2709SOL     OW10607   0.344   3.781   4.152  0.3172  0.3039 -0.1950
 2709SOL    HW210608   0.308   3.692   4.161 -0.6613  0.5487 -1.3625
 2709SOL    HW310609   0.270   3.838   4.171  1.0779  0.8945  1.0691
 2709SOL    MW410610   0.329   3.777   4.156  0.2885  0.4141 -0.1822
 2710SOL     OW10611   4.179   2.901   5.909  1.1131  0.3414  0.3464
 2710SOL    HW210612   4.251   2.937   5.858 -0.1730  1.1572 -0.9739
 2710SOL    HW310613   4.174   2.958   5.986  1.4622  0.6693  0.1317
 2710SOL    MW410614   4.188   2.913   5.912  0.9894  0.4923  0.1439
 2711SOL     OW10615   2.523   2.101   2.434  0.0168  0.3062 -0.6477
 2711SOL    HW210616   2.591   2.123   2.499  0.1028  0.3903 -0.7651
 2711SOL    HW310617   2.544   2.012   2.407  0.0024  0.2839 -0.5857
 2711SOL    MW410618   2.535   2.092   2.439  0.0263  0.3143 -0.6550
 2712SOL     OW10619   1.160   2.314   2.686 -0.0895 -0.3797 -0.0072
 2712SOL    HW210620   1.212   2.270   2.753  1.4003  1.1479 -0.0728
 2712SOL    HW310621   1.205   2.294   2.604  0.3065  0.7639 -0.0925
 2712SOL    MW410622   1.173   2.306   2.684  0.1593 -0.0273 -0.0271
 2713SOL     OW10623   3.227   2.114   2.535  0.3161 -0.1513  1.0117
 2713SOL    HW210624   3.158   2.165   2.578 -0.0210  0.7823 -0.5447
 2713SOL    HW310625   3.192   2.025   2.531 -1.4910  0.5588 -0.9965
 2713SOL    MW410626   3.213   2.109   2.540  0.0332  0.0656  0.5414
 2714SOL     OW10627   0.694   0.712   3.936 -0.1073 -0.4008 -0.4644
 2714SOL    HW210628   0.707   0.688   3.845 -0.0426  0.0214 -0.5711
 2714SOL    HW310629   0.742   0.647   3.986 -0.5875 -0.9507 -0.7098
 2714SOL    MW410630   0.702   0.701   3.931 -0.1621 -0.4177 -0.5108
 2715SOL     OW10631   1.640   2.016   0.805 -0.2035  0.0404  0.5072
 2715SOL    HW210632   1.555   2.011   0.761  0.0155  2.9189 -0.4297
 2715SOL    HW310633   1.632   2.088   0.867  2.3439  2.5539 -1.7747
 2715SOL    MW410634   1.628   2.025   0.807  0.1615  0.7518  0.0825
 2716SOL     OW10635   0.510   3.805   2.032  0.7473 -0.4869 -0.0719
 2716SOL    HW210636   0.494   3.721   1.990 -1.9256 -0.5105  0.8622
 2716SOL    HW310637   0.452   3.807   2.107 -0.0632  2.6188 -0.6255
 2716SOL    MW410638   0.500   3.794   2.036  0.2877 -0.0803 -0.0217
 2717SOL     OW10639   5.046   6.264   0.494  0.1538  0.4394  0.2530
 2717SOL    HW210640   5.046   6.193   0.430  0.8018  1.1360 -0.5388
 2717SOL    HW310641   4.967   6.315   0.474 -2.5148 -2.0546  3.1967
 2717SOL    MW410642   5.035   6.261   0.483 -0.1128  0.2022  0.5369
 2718SOL     OW10643   0.573   0.872   2.190 -0.3054 -0.4887 -0.2551
 2718SOL    HW210644   0.553   0.921   2.269 -0.0289 -0.6507 -0.0862
 2718SOL    HW310645   0.604   0.787   2.221  0.6366 -0.2500 -0.5158
 2718SOL    MW410646   0.574   0.867   2.204 -0.1446 -0.4786 -0.2672
 2719SOL     OW10647   1.286   3.890   1.373 -0.6772 -0.4182 -0.3690
 2719SOL    HW210648   1.378   3.916   1.380 -0.3536 -1.6234  0.1592
 2719SOL    HW310649   1.255   3.890   1.463 -0.6416 -1.8559 -0.3333
 2719SOL    MW410650   1.294   3.894   1.386 -0.6298 -0.7669 -0.2946
 2720SOL     OW10651   1.943   3.865   6.204  0.2166  0.1061 -0.2281
 2720SOL    HW210652   1.874   3.865   6.137  0.7936 -0.8613 -0.8370
 2720SOL    HW310653   1.922   3.790   6.260  0.5210  0.0779 -0.1512
 2720SOL    MW410654   1.931   3.855   6.202  0.3329 -0.0253 -0.2983
 2721SOL     OW10655   2.514   0.353   5.978  0.2720  0.3899  0.7152
 2721SOL    HW210656   2.495   0.385   5.889  0.8588 -0.3542  0.3122
 2721SOL    HW310657   2.438   0.299   6.000  0.0772  0.6567  0.7145
 2721SOL    MW410658   2.501   0.350   5.969  0.3237  0.3269  0.6620
 2722SOL     OW10659   0.852   4.701   0.577  0.3906  0.4143 -0.5723
 2722SOL    HW210660   0.946   4.712   0.592  0.5345 -3.0755  2.1384
 2722SOL    HW310661   0.827   4.627   0.631 -3.3667 -0.8163 -3.5367
 2722SOL    MW410662   0.861   4.693   0.586 -0.0861 -0.2085 -0.6058
 2723SOL     OW10663   2.177   5.955   2.177  0.4552 -0.0144 -0.3916
 2723SOL    HW210664   2.251   5.922   2.126  0.1974 -0.5337 -0.4364
 2723SOL    HW310665   2.139   5.877   2.217 -0.7251  0.1216 -1.2277
 2723SOL    MW410666   2.182   5.940   2.176  0.2655 -0.0650 -0.5078
 2724SOL     OW10667   5.145   4.188   4.290 -0.0634 -0.0773  0.4783
 2724SOL    HW210668   5.124   4.127   4.361 -0.7310 -0.7802 -0.2923
 2724SOL    HW310669   5.131   4.137   4.210  3.7139 -0.3553 -0.2031
 2724SOL    MW410670   5.140   4.173   4.289  0.3469 -0.2067  0.2867
 2725SOL     OW10671   4.728   3.058   4.348 -0.3353  0.4070  0.1781
 2725SOL    HW210672   4.751   2.983   4.293 -2.0940 -0.0794  0.0637
 2725SOL    HW310673   4.783   3.129   4.315 -0.6212 -0.1348 -1.5394
 2725SOL    MW410674   4.738   3.058   4.337 -0.6051  0.2713 -0.0636
 2726SOL     OW10675   4.746   3.500   3.041  0.0172 -0.4315 -0.0461
 2726SOL    HW210676   4.708   3.588   3.041  1.3979  0.2043  1.3626
 2726SOL    HW310677   4.680   3.446   2.996 -0.8141  1.3097 -1.0236
 2726SOL    MW410678   4.732   3.504   3.035  0.0897 -0.1179  0.0108
 2727SOL     OW10679   0.721   2.964   2.540 -0.1815  0.0643 -0.4059
 2727SOL    HW210680   0.655   2.923   2.597 -1.8720  0.6322 -1.8735
 2727SOL    HW310681   0.805   2.944   2.583 -1.2244 -1.3698  1.1077
 2727SOL    MW410682   0.724   2.956   2.554 -0.5422 -0.0500 -0.3998
 2728SOL     OW10683   5.665   3.174   6.407 -0.4498 -0.0805 -0.5332
 2728SOL    HW210684   5.573   3.170   6.431 -0.0803  0.4980  1.0903
 2728SOL    HW310685   5.693   3.083   6.402 -0.8793 -0.2399 -0.0630
 2728SOL    MW410686   5.657   3.162   6.409 -0.4578 -0.0252 -0.2570
 2729SOL     OW10687   1.631   5.388   4.383 -0.0717 -0.2908  0.7921
 2729SOL    HW210688   1.628   5.298   4.415  0.4081 -0.2063  1.0890
 2729SOL    HW310689   1.577   5.437   4.445 -0.8496 -0.4685  0.2765
 2729SOL    MW410690   1.623   5.383   4.395 -0.1111 -0.3031  0.7633
 2730SOL     OW10691   5.500   4.697   5.143  0.5422 -0.8663 -0.1259
 2730SOL    HW210692   5.510   4.706   5.238 -0.1328 -0.8313 -0.0580
 2730SOL    HW310693   5.525   4.606   5.124  0.5468 -0.9114  0.0995
 2730SOL    MW410694   5.505   4.686   5.153  0.4537 -0.8677 -0.0872
 2731SOL     OW10695   3.410   1.985   6.034  0.3243 -0.0753 -0.6728
 2731SOL    HW210696   3.425   1.946   5.948  1.0483 -1.2555 -0.0313
 2731SOL    HW310697   3.315   1.984   6.045  0.2036  0.3742 -1.5745
 2731SOL    MW410698   3.399   1.980   6.024  0.4039 -0.1717 -0.7071
 2732SOL     OW10699   5.402   5.909   3.549  0.6693  0.6035 -0.6598
 2732SOL    HW210700   5.440   5.871   3.629 -2.7337 -2.3794 -0.1958
 2732SOL    HW310701   5.348   5.981   3.580  2.2740  1.9187 -0.8053
 2732SOL    MW410702   5.400   5.913   3.564  0.4320  0.3835 -0.6178
 2733SOL     OW10703   2.149   2.714   2.402  0.1205 -0.2576  0.1022
 2733SOL    HW210704   2.085   2.664   2.452 -0.4150  0.0677 -0.2398
 2733SOL    HW310705   2.143   2.678   2.313  1.2239 -0.9877  0.3035
 2733SOL    MW410706   2.140   2.703   2.397  0.1954 -0.3110  0.0836
 2734SOL     OW10707   5.645   2.580   5.873 -0.3959 -0.1836 -0.5347
 2734SOL    HW210708   5.623   2.673   5.864  0.9688  0.1835 -0.3104
 2734SOL    HW310709   5.570   2.542   5.919 -0.8740  0.8491 -0.4386
 2734SOL    MW410710   5.632   2.587   5.878 -0.2789  0.0011 -0.4924
 2735SOL     OW10711   5.027   3.311   2.737  0.5012  0.4578  0.6212
 2735SOL    HW210712   5.100   3.332   2.678  0.6131  1.0572  0.9626
 2735SOL    HW310713   4.981   3.394   2.748  0.6056  0.4079  1.5472
 2735SOL    MW410714   5.031   3.325   2.731  0.5297  0.5303  0.7884
 2736SOL     OW10715   0.073   5.606   5.789  0.2924 -0.2659 -0.4521
 2736SOL    HW210716   0.026   5.612   5.706 -0.2402  0.7515 -0.0917
 2736SOL    HW310717   0.006   5.621   5.856  1.1941  1.9286  0.0450
 2736SOL    MW410718   0.058   5.608   5.787  0.3411  0.1579 -0.3390
 2737SOL     OW10719   3.625   4.736   3.550 -0.0727 -0.2176 -0.6402
 2737SOL    HW210720   3.598   4.708   3.637  0.7584  0.6150 -0.1019
 2737SOL    HW310721   3.549   4.717   3.494 -0.7231 -0.4720  0.3168
 2737SOL    MW410722   3.611   4.730   3.554 -0.0489 -0.1413 -0.4429
 2738SOL     OW10723   6.242   2.950   3.577  0.3566 -0.8821 -0.0977
 2738SOL    HW210724   6.332   2.961   3.606  0.1934  1.2617 -0.2313
 2738SOL    HW310725   6.201   3.035   3.594 -1.6873 -1.8545  0.1192
 2738SOL    MW410726   6.248   2.963   3.583  0.0654 -0.7276 -0.0867
 2739SOL     OW10727   3.067   5.669   3.428 -0.2728 -0.6268  0.0727
 2739SOL    HW210728   3.113   5.703   3.504  0.3681 -0.8071 -0.2278
 2739SOL    HW310729   2.979   5.705   3.435 -0.1011 -0.3153  0.6799
 2739SOL    MW410730   3.061   5.678   3.439 -0.1656 -0.6095  0.1132
 2740SOL     OW10731   4.029   0.108   4.792  0.3558  0.0140  0.6975
 2740SOL    HW210732   3.936   0.124   4.806 -0.1890 -0.8676 -1.5384
 2740SOL    HW310733   4.069   0.195   4.795 -0.9615  0.7330 -0.9643
 2740SOL    MW410734   4.022   0.122   4.795  0.1101 -0.0074  0.1832
 2741SOL     OW10735   2.114   1.294   2.664  0.0535  0.3619 -0.3265
 2741SOL    HW210736   2.202   1.264   2.642 -0.1984 -1.2489  0.6465
 2741SOL    HW310737   2.093   1.247   2.745 -1.2718  1.5801  0.0788
 2741SOL    MW410738   2.123   1.284   2.672 -0.1546  0.3101 -0.1446
 2742SOL     OW10739   0.944   3.603   1.458  0.2712  0.2808  0.0297
 2742SOL    HW210740   0.931   3.649   1.376  0.9274  2.0099  0.8367
 2742SOL    HW310741   1.026   3.638   1.492 -1.4374  1.9065  2.8498
 2742SOL    MW410742   0.953   3.614   1.452  0.1324  0.7234  0.5083
 2743SOL     OW10743   3.147   5.462   3.264 -0.5266  0.7813  0.2063
 2743SOL    HW210744   3.144   5.528   3.333  0.1791  2.1503 -1.0158
 2743SOL    HW310745   3.118   5.508   3.185  1.4687  0.0778 -1.0011
 2743SOL    MW410746   3.142   5.476   3.263 -0.1702  0.8691 -0.1143
 2744SOL     OW10747   0.031   1.600   6.057  0.0652  0.6729 -0.2773
 2744SOL    HW210748  -0.042   1.628   6.113 -0.7323 -0.3996 -0.7511
 2744SOL    HW310749   0.077   1.681   6.036 -0.1622  1.2080  1.1742
 2744SOL    MW410750   0.027   1.614   6.062 -0.0700  0.6020 -0.1483
 2745SOL     OW10751   2.346   5.712   0.421 -0.2343 -0.0640  0.6124
 2745SOL    HW210752   2.393   5.678   0.345  1.0943  1.4878  0.6749
 2745SOL    HW310753   2.290   5.781   0.386 -1.8157 -1.2469  0.6846
 2745SOL    MW410754   2.345   5.717   0.406 -0.2677 -0.0153  0.6302
 2746SOL     OW10755   3.462   5.644   2.177 -0.7439 -0.2851  0.2221
 2746SOL    HW210756   3.439   5.645   2.084 -0.3804 -0.7173  0.1239
 2746SOL    HW310757   3.427   5.561   2.209  0.4125 -0.8394  0.1269
 2746SOL    MW410758   3.454   5.633   2.169 -0.5434 -0.4153  0.1966
 2747SOL     OW10759   6.164   5.943   2.574 -0.1738  0.2018 -0.1696
 2747SOL    HW210760   6.095   6.009   2.583 -1.2112 -0.9164  0.2669
 2747SOL    HW310761   6.117   5.863   2.550  0.6980 -1.1465  2.3074
 2747SOL    MW410762   6.148   5.941   2.572 -0.1957 -0.1237  0.2148
 2748SOL     OW10763   0.900   4.954   1.882  0.5281  0.1423  0.0436
 2748SOL    HW210764   0.943   4.991   1.805 -0.7170 -0.9887 -1.2415
 2748SOL    HW310765   0.818   4.919   1.849 -0.0012 -0.4598  1.8899
 2748SOL    MW410766   0.895   4.954   1.868  0.2940 -0.0863  0.1177
 2749SOL     OW10767   0.484   4.767   5.248 -0.8191 -0.6148  0.2552
 2749SOL    HW210768   0.461   4.836   5.310  0.7437  2.4833 -2.2887
 2749SOL    HW310769   0.569   4.735   5.278 -0.2046  0.6706 -0.0080
 2749SOL    MW410770   0.492   4.772   5.260 -0.5318 -0.0364 -0.1152
 2750SOL     OW10771   2.895   3.348   0.127  0.2345 -0.5681  0.3382
 2750SOL    HW210772   2.916   3.422   0.071  1.4866 -0.9381  0.2848
 2750SOL    HW310773   2.800   3.346   0.131  0.1636  0.1793 -0.8071
 2750SOL    MW410774   2.885   3.357   0.120  0.3904 -0.5183  0.1800
 2751SOL     OW10775   2.635   5.024   0.508 -0.6103  0.7425 -0.5153
 2751SOL    HW210776   2.560   4.987   0.462  0.3107 -0.8592 -0.8171
 2751SOL    HW310777   2.706   4.963   0.490  0.1060  0.7172  2.0464
 2751SOL    MW410778   2.635   5.011   0.499 -0.3943  0.5279 -0.2171
 2752SOL     OW10779   4.238   3.386   2.820  0.2637  0.0271 -0.3216
 2752SOL    HW210780   4.243   3.418   2.730  1.0404  1.6695  0.2574
 2752SOL    HW310781   4.147   3.356   2.829 -0.9552  3.1788 -0.6570
 2752SOL    MW410782   4.226   3.386   2.809  0.2054  0.6596 -0.2894
 2753SOL     OW10783   2.237   4.082   1.828 -0.2419 -0.1864 -0.2941
 2753SOL    HW210784   2.184   4.055   1.753 -1.4282  0.1695  0.3877
 2753SOL    HW310785   2.180   4.066   1.904  1.1011 -0.9768  0.5820
 2753SOL    MW410786   2.222   4.076   1.828 -0.2212 -0.2437 -0.0886
 2754SOL     OW10787   4.584   0.245   2.284  0.0557  0.1558  0.6175
 2754SOL    HW210788   4.561   0.197   2.364 -0.2654 -1.0751 -0.1964
 2754SOL    HW310789   4.500   0.265   2.242  0.2803 -0.5291 -0.1710
 2754SOL    MW410790   4.570   0.242   2.289  0.0430 -0.0970  0.4061
 2755SOL     OW10791   3.979   1.044   1.987  0.0045  0.3081 -0.0240
 2755SOL    HW210792   3.921   1.044   2.063 -1.6905  0.5938 -1.2634
 2755SOL    HW310793   4.067   1.055   2.024 -0.5959 -1.1397  1.9819
 2755SOL    MW410794   3.983   1.046   2.002 -0.2983  0.1548  0.0771
 2756SOL     OW10795   2.686   4.614   1.551  0.3153 -0.0798  0.1111
 2756SOL    HW210796   2.671   4.615   1.456  0.5808  1.1919  0.0602
 2756SOL    HW310797   2.721   4.701   1.570  0.2191 -0.3069  1.3904
 2756SOL    MW410798   2.689   4.626   1.541  0.3376  0.0580  0.2732
 2757SOL     OW10799   4.380   2.955   4.529 -0.9597  0.6369  0.2684
 2757SOL    HW210800   4.407   3.042   4.559 -0.1930  0.7719 -0.7836
 2757SOL    HW310801   4.412   2.896   4.598  1.3662  0.8767 -0.5186
 2757SOL    MW410802   4.388   2.959   4.542 -0.5516  0.6864  0.0257
 2758SOL     OW10803   0.654   6.068   5.594 -0.1253 -0.1878  0.1762
 2758SOL    HW210804   0.639   5.985   5.640 -0.9285  0.6700  1.5043
 2758SOL    HW310805   0.577   6.121   5.614  0.6599  1.1115 -0.1566
 2758SOL    MW410806   0.642   6.064   5.602 -0.1277  0.0968  0.3075
 2759SOL     OW10807   5.086   0.273   0.660 -0.5022  0.0344 -0.1375
 2759SOL    HW210808   5.161   0.214   0.672 -0.0779  0.1141 -2.1235
 2759SOL    HW310809   5.036   0.234   0.588 -1.7077  0.6688  0.3293
 2759SOL    MW410810   5.089   0.260   0.652 -0.6053  0.1286 -0.3380
 2760SOL     OW10811   5.001   4.244   3.444  0.6949  0.2940 -0.6183
 2760SOL    HW210812   4.922   4.191   3.447  0.8416  0.0926  1.8030
 2760SOL    HW310813   4.979   4.317   3.386 -0.8234 -0.3733 -0.9311
 2760SOL    MW410814   4.988   4.247   3.437  0.5139  0.1794 -0.3401
 2761SOL     OW10815   3.966   5.959   4.561  0.1434 -0.9309  0.2099
 2761SOL    HW210816   4.051   5.982   4.598  0.4253 -1.8145  0.1223
 2761SOL    HW310817   3.936   5.885   4.612 -1.2501  0.2378  1.1747
 2761SOL    MW410818   3.973   5.953   4.572 -0.0033 -0.8933  0.3256
 2762SOL     OW10819   0.284   2.404   4.310  0.6424 -0.1424  0.2263
 2762SOL    HW210820   0.329   2.488   4.304  2.1537 -0.9922 -1.1084
 2762SOL    HW310821   0.322   2.351   4.240 -2.7110 -0.8377 -1.2519
 2762SOL    MW410822   0.295   2.408   4.300  0.3994 -0.3463 -0.1449
 2763SOL     OW10823   3.770   5.522   2.496  0.1355 -0.2961 -0.0163
 2763SOL    HW210824   3.759   5.477   2.580 -0.0289 -0.3567 -0.0707
 2763SOL    HW310825   3.832   5.467   2.447  1.0277  0.2686  0.4522
 2763SOL    MW410826   3.776   5.509   2.500  0.2315 -0.2296  0.0383
 2764SOL     OW10827   2.422   2.946   6.411  0.2685  0.4508 -0.6763
 2764SOL    HW210828   2.344   2.941   6.466 -0.2049  1.9921 -1.1428
 2764SOL    HW310829   2.447   3.039   6.415  2.3141 -0.0756 -0.2254
 2764SOL    MW410830   2.415   2.958   6.419  0.4759  0.5847 -0.6784
 2765SOL     OW10831   0.502   3.415   3.998 -0.0539  0.3445  0.0920
 2765SOL    HW210832   0.477   3.399   3.908 -0.9753  0.1960  0.3676
 2765SOL    HW310833   0.545   3.501   3.997  0.8512 -0.0999 -0.6397
 2765SOL    MW410834   0.505   3.425   3.986 -0.0561  0.2663  0.0318
 2766SOL     OW10835   4.513   3.403   5.649  0.2151  0.0189 -0.5861
 2766SOL    HW210836   4.580   3.471   5.657  0.1920  0.0884 -0.9831
 2766SOL    HW310837   4.497   3.376   5.739 -0.2884  1.0448 -0.3448
 2766SOL    MW410838   4.520   3.409   5.662  0.1456  0.1634 -0.6066
 2767SOL     OW10839   0.018   4.222   3.576 -0.0556  0.4783 -0.5225
 2767SOL    HW210840  -0.022   4.303   3.609  0.0779  0.0180  0.8298
 2767SOL    HW310841  -0.038   4.196   3.503 -1.9027  0.2079  0.9012
 2767SOL    MW410842   0.005   4.229   3.571 -0.2817  0.3819 -0.1562
 2768SOL     OW10843   1.758   1.108   4.228 -0.4514  0.0818 -0.2447
 2768SOL    HW210844   1.823   1.043   4.200  0.0112  0.8246 -0.9668
 2768SOL    HW310845   1.735   1.082   4.317  3.2368  1.5490  1.3387
 2768SOL    MW410846   1.764   1.096   4.236  0.0962  0.3734 -0.1311
 2769SOL     OW10847   0.507   0.348   0.575  0.0605 -0.1078 -0.5814
 2769SOL    HW210848   0.497   0.351   0.480  1.7363 -1.2724 -0.8483
 2769SOL    HW310849   0.487   0.437   0.604  0.8314  0.6403 -2.1849
 2769SOL    MW410850   0.503   0.360   0.566  0.3833 -0.1627 -0.8282
 2770SOL     OW10851   2.614   4.282   5.494  0.0244  0.2565 -0.0719
 2770SOL    HW210852   2.594   4.221   5.424  1.0381 -0.4712  0.2483
 2770SOL    HW310853   2.583   4.367   5.462 -1.1571 -0.3662 -0.6350
 2770SOL    MW410854   2.608   4.285   5.481  0.0023  0.0783 -0.1040
 2771SOL     OW10855   0.196   2.910   0.177 -0.1703 -0.0693  0.1345
 2771SOL    HW210856   0.247   2.970   0.232 -1.4732  1.5588 -0.3483
 2771SOL    HW310857   0.246   2.903   0.096 -0.7440  1.6653 -0.4105
 2771SOL    MW410858   0.209   2.917   0.174 -0.4179  0.3744 -0.0011
 2772SOL     OW10859   5.237   1.874   1.967  0.3422 -0.3847  0.0212
 2772SOL    HW210860   5.245   1.802   2.030  1.2802 -1.3018 -1.1049
 2772SOL    HW310861   5.192   1.836   1.892  0.8827  0.1763 -0.6052
 2772SOL    MW410862   5.232   1.860   1.966  0.5372 -0.4317 -0.2100
 2773SOL     OW10863   6.191   1.423   1.266  0.2495 -0.1850 -0.1217
 2773SOL    HW210864   6.248   1.369   1.321 -0.9662 -1.7244 -0.3162
 2773SOL    HW310865   6.167   1.366   1.193 -0.1278  1.0221 -0.9714
 2773SOL    MW410866   6.196   1.408   1.264  0.0393 -0.2288 -0.2595
 2774SOL     OW10867   3.954   1.783   2.698  0.3347  0.2448  0.0767
 2774SOL    HW210868   3.889   1.806   2.764  0.3196  0.0416  0.1356
 2774SOL    HW310869   3.924   1.826   2.618 -1.4568 -2.0757 -0.6258
 2774SOL    MW410870   3.941   1.791   2.696  0.0963 -0.0882 -0.0082
 2775SOL     OW10871   3.914   5.596   0.662 -0.3059 -0.4356  0.2462
 2775SOL    HW210872   3.966   5.602   0.742  0.7846 -1.4366 -0.3423
 2775SOL    HW310873   3.948   5.666   0.606  1.0536 -1.5859 -0.4481
 2775SOL    MW410874   3.926   5.606   0.665  0.0173 -0.7194  0.0769
 2776SOL     OW10875   1.851   0.425   2.455  0.0622  0.0422  0.0253
 2776SOL    HW210876   1.916   0.381   2.401  0.2446  1.5275 -1.0589
 2776SOL    HW310877   1.890   0.510   2.476 -0.6743  0.1258  1.1573
 2776SOL    MW410878   1.865   0.431   2.450 -0.0109  0.2492  0.0316
 2777SOL     OW10879   1.416   6.217   2.291 -0.2350  0.2772 -0.1016
 2777SOL    HW210880   1.323   6.239   2.300 -0.1412  0.3026  0.8932
 2777SOL    HW310881   1.418   6.121   2.289 -0.2701  0.2703  0.1162
 2777SOL    MW410882   1.404   6.207   2.292 -0.2273  0.2796  0.0584
 2778SOL     OW10883   6.113   0.858   3.279  0.1950 -0.5564 -0.4330
 2778SOL    HW210884   6.106   0.841   3.373 -2.5066  0.8360 -0.2769
 2778SOL    HW310885   6.181   0.925   3.272  0.8159 -1.0746  0.4520
 2778SOL    MW410886   6.121   0.865   3.291 -0.0795 -0.4411 -0.2956
 2779SOL     OW10887   4.201   1.808   2.842 -0.6430 -0.3300 -0.6548
 2779SOL    HW210888   4.118   1.815   2.794 -2.0230  1.7693  1.7867
 2779SOL    HW310889   4.252   1.884   2.812 -0.7799 -0.0182 -0.1026
 2779SOL    MW410890   4.197   1.819   2.831 -0.8431 -0.0119 -0.2598
 2780SOL     OW10891   0.598   1.863   4.808 -0.2854  0.6454  0.0156
 2780SOL    HW210892   0.646   1.905   4.879  1.3066  1.5643 -1.5173
 2780SOL    HW310893   0.549   1.794   4.851  0.9026  0.9047  1.9602
 2780SOL    MW410894   0.598   1.860   4.823  0.0814  0.8009  0.0699
 2781SOL     OW10895   1.082   4.649   6.414 -0.3251 -0.5076 -0.2443
 2781SOL    HW210896   1.077   4.606   6.499  2.6445 -3.0408 -1.1636
 2781SOL    HW310897   1.002   4.622   6.368 -0.6483 -1.3764  0.7932
 2781SOL    MW410898   1.071   4.640   6.419  0.0241 -0.9565 -0.2287
 2782SOL     OW10899   5.054   3.602   4.927  0.3435  0.3446  0.4176
 2782SOL    HW210900   5.084   3.537   4.864 -2.1355  0.9342 -1.5599
 2782SOL    HW310901   5.131   3.654   4.948  1.4994 -0.6388 -1.2158
 2782SOL    MW410902   5.068   3.601   4.921  0.1690  0.2927 -0.0588
 2783SOL     OW10903   2.387   4.256   4.263  0.9542  0.1162 -0.2399
 2783SOL    HW210904   2.459   4.299   4.309  2.0162 -2.1063  0.3142
 2783SOL    HW310905   2.315   4.253   4.327  1.2580  0.0863  0.1010
 2783SOL    MW410906   2.387   4.261   4.278  1.1344 -0.1810 -0.1218
 2784SOL     OW10907   2.086   3.423   5.118  0.2240  0.4111  0.2800
 2784SOL    HW210908   2.103   3.420   5.212  0.4191 -0.7796  0.2211
 2784SOL    HW310909   2.126   3.506   5.089  1.0145  0.3290  1.0834
 2784SOL    MW410910   2.094   3.434   5.127  0.3540  0.2431  0.3782
 2785SOL     OW10911   4.956   4.747   4.201 -0.2119  0.1770 -0.4330
 2785SOL    HW210912   4.892   4.692   4.244 -0.2525  0.9256  0.4939
 2785SOL    HW310913   4.982   4.811   4.267 -0.4138  1.4820 -1.5500
 2785SOL    MW410914   4.951   4.748   4.215 -0.2439  0.4479 -0.4581
 2786SOL     OW10915   0.999   2.152   0.593  0.0717  0.0322  0.5309
 2786SOL    HW210916   1.067   2.113   0.538 -0.7575 -0.5825 -0.0860
 2786SOL    HW310917   0.986   2.088   0.663 -2.7657 -1.9567 -1.6104
 2786SOL    MW410918   1.007   2.138   0.595 -0.4121 -0.3113  0.1670
 2787SOL     OW10919   4.184   6.083   4.727  0.9721 -0.3033 -0.2645
 2787SOL    HW210920   4.176   6.059   4.819 -1.3150 -0.3138 -0.3946
 2787SOL    HW310921   4.219   6.005   4.685 -2.6393 -2.2393 -0.0754
 2787SOL    MW410922   4.187   6.070   4.734  0.1939 -0.5601 -0.2568
 2788SOL     OW10923   1.307   4.098   0.472  0.0711  0.1084 -0.1992
 2788SOL    HW210924   1.309   4.095   0.376 -0.4344  0.3216 -0.2200
 2788SOL    HW310925   1.218   4.125   0.493  0.4314  0.9583  0.3058
 2788SOL    MW410926   1.295   4.101   0.462  0.0519  0.2486 -0.1353
 2789SOL     OW10927   4.768   4.371   0.589 -0.2242 -0.0256 -0.1618
 2789SOL    HW210928   4.708   4.402   0.657  0.5195 -0.9609  0.9712
 2789SOL    HW310929   4.744   4.420   0.511 -1.1433  1.0533  0.7654
 2789SOL    MW410930   4.757   4.382   0.587 -0.2474 -0.0067  0.1100
 2790SOL     OW10931   0.758   3.592   3.698 -0.5236  0.7753  0.1012
 2790SOL    HW210932   0.687   3.536   3.664  0.4689  0.8660 -2.3617
 2790SOL    HW310933   0.754   3.671   3.643  0.3728  1.5660  1.1242
 2790SOL    MW410934   0.748   3.595   3.686 -0.2744  0.8916 -0.0888
 2791SOL     OW10935   0.719   2.184   1.525 -0.2764 -0.0176 -0.3709
 2791SOL    HW210936   0.702   2.160   1.616  0.5897 -0.9098 -0.4258
 2791SOL    HW310937   0.814   2.187   1.519 -0.2785 -1.5357 -1.6271
 2791SOL    MW410938   0.729   2.181   1.536 -0.1624 -0.3356 -0.5439
 2792SOL     OW10939   1.764   2.892   0.940 -0.3607 -0.2104  0.7184
 2792SOL    HW210940   1.845   2.842   0.950 -0.3465 -0.0768  1.3073
 2792SOL    HW310941   1.772   2.964   1.002 -0.4645  0.4296  0.0102
 2792SOL    MW410942   1.775   2.895   0.949 -0.3725 -0.1084  0.7027
 2793SOL     OW10943   0.400   0.337   1.684 -0.4119  0.0504 -0.0987
 2793SOL    HW210944   0.374   0.412   1.738 -0.9000  1.5731 -2.2935
 2793SOL    HW310945   0.341   0.340   1.609  1.1043 -1.1162 -1.4066
 2793SOL    MW410946   0.389   0.348   1.681 -0.2763  0.0974 -0.5608
 2794SOL     OW10947   5.779   1.487   5.863 -0.2032 -0.4860 -0.0479
 2794SOL    HW210948   5.729   1.431   5.803  1.3910 -2.0792  0.0180
 2794SOL    HW310949   5.855   1.514   5.811 -0.7511  1.3724  0.0514
 2794SOL    MW410950   5.783   1.483   5.848 -0.0652 -0.4510 -0.0261
 2795SOL     OW10951   1.102   2.394   5.837 -0.0855  0.3024  0.1699
 2795SOL    HW210952   1.107   2.332   5.909 -1.1250 -0.3605 -0.2867
 2795SOL    HW310953   1.193   2.417   5.817  0.1928  1.1110  2.1707
 2795SOL    MW410954   1.114   2.389   5.844 -0.1860  0.3216  0.3736
 2796SOL     OW10955   1.194   2.512   4.905  0.5857  0.1660  0.0967
 2796SOL    HW210956   1.251   2.436   4.892 -1.0027 -0.9872 -0.4622
 2796SOL    HW310957   1.163   2.503   4.995  1.7033  1.1357  0.6131
 2796SOL    MW410958   1.198   2.501   4.915  0.5236  0.1418  0.0911
 2797SOL     OW10959   5.229   5.010   3.772  0.1536  0.7295 -0.4512
 2797SOL    HW210960   5.156   5.058   3.811  0.2195 -0.6204  1.4958
 2797SOL    HW310961   5.235   5.044   3.683 -1.4008  2.4698  0.0335
 2797SOL    MW410962   5.220   5.021   3.765 -0.0428  0.7810 -0.1304
 2798SOL     OW10963   5.047   4.356   2.203 -0.0906 -0.3159 -0.3279
 2798SOL    HW210964   5.128   4.328   2.246  0.3870  0.6585 -0.5648
 2798SOL    HW310965   4.981   4.295   2.235  0.2819  0.2388  1.6150
 2798SOL    MW410966   5.049   4.344   2.213  0.0216 -0.1142 -0.1028
 2799SOL     OW10967   3.843   2.104   5.040  0.0254  0.2115 -0.0845
 2799SOL    HW210968   3.812   2.194   5.035  1.6070  0.7430 -0.8331
 2799SOL    HW310969   3.766   2.051   5.022 -0.5738  1.4655 -1.3372
 2799SOL    MW410970   3.829   2.109   5.037  0.1550  0.4471 -0.3485
 2800SOL     OW10971   5.825   2.160   0.953 -0.2037 -0.6339 -0.3277
 2800SOL    HW210972   5.767   2.192   0.885 -0.1872  0.0372 -0.0317
 2800SOL    HW310973   5.891   2.229   0.963  1.1880 -1.7719 -1.3041
 2800SOL    MW410974   5.826   2.173   0.946 -0.0179 -0.6955 -0.4175
 2801SOL     OW10975   5.636   5.973   5.702  0.2233  0.2125  0.3852
 2801SOL    HW210976   5.587   5.931   5.774 -0.7711 -0.3179 -0.5718
 2801SOL    HW310977   5.607   5.927   5.624  2.7419 -0.5324 -0.1859
 2801SOL    MW410978   5.625   5.961   5.701  0.4244  0.0443  0.1836
 2802SOL     OW10979   1.032   3.699   2.301  0.1878  0.7581  0.7770
 2802SOL    HW210980   1.053   3.686   2.393  1.5475 -1.0682  0.2744
 2802SOL    HW310981   1.038   3.611   2.263  1.7166  1.7373 -1.4370
 2802SOL    MW410982   1.036   3.686   2.308  0.5689  0.6463  0.4186
 2803SOL     OW10983   2.168   6.368   3.515 -0.0585  0.8205  0.9866
 2803SOL    HW210984   2.176   6.277   3.485 -2.4649  0.3397  1.5589
 2803SOL    HW310985   2.171   6.420   3.435 -2.4109 -0.1252  0.1725
 2803SOL    MW410986   2.169   6.363   3.500 -0.6864  0.6323  0.9547
 2804SOL     OW10987   1.240   4.914   4.652  0.6594  0.2222  0.2883
 2804SOL    HW210988   1.160   4.962   4.676  0.0186 -0.7155  0.0616
 2804SOL    HW310989   1.276   4.884   4.735  1.3957  1.5714  0.4901
 2804SOL    MW410990   1.234   4.917   4.666  0.6720  0.2765  0.2850
 2805SOL     OW10991   4.623   2.180   1.205 -0.6628 -0.5715  0.2053
 2805SOL    HW210992   4.708   2.177   1.162  0.1273  2.1030  1.3838
 2805SOL    HW310993   4.585   2.263   1.179 -1.4548 -0.2059  2.2640
 2805SOL    MW410994   4.629   2.190   1.196 -0.6631 -0.1704  0.6324
 2806SOL     OW10995   4.098   2.232   4.334 -0.1454 -0.0583 -0.1394
 2806SOL    HW210996   4.038   2.275   4.395 -1.0463 -0.2631 -0.8475
 2806SOL    HW310997   4.044   2.165   4.291  0.2182  0.6053 -1.7252
 2806SOL    MW410998   4.083   2.229   4.336 -0.2163  0.0022 -0.4421
 2807SOL     OW10999   1.824   1.212   1.397  0.5655 -0.1310  0.2335
 2807SOL    HW211000   1.757   1.200   1.464  0.7575 -0.1538  0.4194
 2807SOL    HW311001   1.775   1.240   1.320  0.1197 -1.8362 -0.1522
 2807SOL    MW411002   1.809   1.214   1.395  0.5320 -0.3590  0.2071
 2808SOL     OW11003   0.646   0.218   2.090  0.3784  0.3461  0.6289
 2808SOL    HW211004   0.558   0.257   2.094  0.1840 -0.1441  1.3001
 2808SOL    HW311005   0.697   0.280   2.038 -0.8832 -0.4188 -1.6254
 2808SOL    MW411006   0.641   0.232   2.084  0.1863  0.1805  0.4200
 2809SOL     OW11007   5.021   3.613   4.541  0.0773  0.0734  0.7476
 2809SOL    HW211008   4.989   3.703   4.536  3.5207  1.3854 -1.5688
 2809SOL    HW311009   5.097   3.618   4.598  2.0702 -0.6139 -1.6848
 2809SOL    MW411010   5.027   3.626   4.548  0.7946  0.1559  0.1210
 2810SOL     OW11011   3.482   3.473   4.497 -0.4034  0.2204  0.2885
 2810SOL    HW211012   3.495   3.543   4.562 -0.1815  0.9086 -0.4798
 2810SOL    HW311013   3.547   3.491   4.430 -0.2946 -0.7864  0.1183
 2810SOL    MW411014   3.492   3.485   4.497 -0.3597  0.1783  0.1647
 2811SOL     OW11015   4.260   6.382   1.077  0.4353  0.0338 -0.4634
 2811SOL    HW211016   4.328   6.316   1.068 -0.6801 -1.1303 -0.7131
 2811SOL    HW311017   4.229   6.372   1.167  0.2317  0.1778 -0.5169
 2811SOL    MW411018   4.265   6.372   1.088  0.2613 -0.1008 -0.5034
 2812SOL     OW11019   4.364   2.165   6.342  0.2337 -0.3017 -0.1574
 2812SOL    HW211020   4.393   2.138   6.255 -0.0805  1.4606 -0.8485
 2812SOL    HW311021   4.352   2.260   6.336 -3.7094 -0.5493  0.6093
 2812SOL    MW411022   4.366   2.174   6.330 -0.3280 -0.1019 -0.1475
 2813SOL     OW11023   3.385   0.063   0.715 -0.7055  0.8356 -0.4733
 2813SOL    HW211024   3.350  -0.025   0.698 -0.8663  0.5839  1.0328
 2813SOL    HW311025   3.333   0.120   0.658 -0.9308  0.0154 -1.1126
 2813SOL    MW411026   3.373   0.059   0.705 -0.7565  0.6942 -0.3589
 2814SOL     OW11027   5.362   1.023   2.542 -0.6336 -0.1190 -0.2802
 2814SOL    HW211028   5.395   1.007   2.630 -0.2123 -0.7285 -0.5490
 2814SOL    HW311029   5.390   0.948   2.491  0.7998  1.1001 -1.3996
 2814SOL    MW411030   5.370   1.011   2.547 -0.3889 -0.0386 -0.4633
 2815SOL     OW11031   5.274   1.112   3.675  0.4662  0.2035 -0.2517
 2815SOL    HW211032   5.359   1.154   3.659 -0.0611  0.9181 -1.2981
 2815SOL    HW311033   5.285   1.068   3.759  2.0937 -0.2878 -0.6781
 2815SOL    MW411034   5.287   1.112   3.684  0.6113  0.2330 -0.4460
 2816SOL     OW11035   4.610   4.456   0.099  0.7713  0.4783  0.0282
 2816SOL    HW211036   4.569   4.373   0.075  1.6788 -0.0904  0.4053
 2816SOL    HW311037   4.545   4.500   0.154  0.5134 -0.2271  0.2906
 2816SOL    MW411038   4.596   4.451   0.103  0.8570  0.3102  0.1126
 2817SOL     OW11039   3.808   6.172   3.114 -0.2173  0.1302 -0.7226
 2817SOL    HW211040   3.756   6.219   3.050 -0.5662  0.9355  0.1379
 2817SOL    HW311041   3.833   6.237   3.179 -1.4137 -0.9938  0.9498
 2817SOL    MW411042   3.805   6.187   3.114 -0.4212  0.0881 -0.3884
 2818SOL     OW11043   6.048   4.654   4.569 -0.6702 -0.4299 -0.8066
 2818SOL    HW211044   6.137   4.629   4.541 -0.8963 -2.4979  0.1628
 2818SOL    HW311045   6.054   4.748   4.584  1.7420 -0.7167  0.5253
 2818SOL    MW411046   6.061   4.663   4.567 -0.3818 -0.7406 -0.5030
 2819SOL     OW11047   1.538   1.505   2.527 -0.1810  0.0606  0.0314
 2819SOL    HW211048   1.452   1.472   2.551 -0.6976 -0.4358 -2.2378
 2819SOL    HW311049   1.539   1.595   2.559 -1.1881 -0.1924  0.8383
 2819SOL    MW411050   1.527   1.512   2.534 -0.3821 -0.0383 -0.1615
 2820SOL     OW11051   0.836   5.048   2.327  0.0173 -0.0928  0.5473
 2820SOL    HW211052   0.754   4.999   2.333 -0.2039  0.4042  2.0445
 2820SOL    HW311053   0.905   4.982   2.336 -0.1381 -0.6681 -1.8304
 2820SOL    MW411054   0.835   5.033   2.329 -0.0324 -0.1031  0.4312
 2821SOL     OW11055   4.913   2.039   3.048  0.0170  0.1775 -0.0171
 2821SOL    HW211056   4.892   1.987   2.970  0.8709 -1.0143  0.5151
 2821SOL    HW311057   4.946   1.975   3.111  1.3831  1.4143  0.5743
 2821SOL    MW411058   4.915   2.024   3.046  0.3099  0.1834  0.1311
 2822SOL     OW11059   0.855   1.229   3.488  0.0188 -0.4641  0.0231
 2822SOL    HW211060   0.941   1.263   3.466  0.2128 -0.7722  0.3092
 2822SOL    HW311061   0.820   1.197   3.404 -1.0636  2.3462 -0.7454
 2822SOL    MW411062   0.861   1.229   3.474 -0.0984 -0.1340 -0.0405
 2823SOL     OW11063   5.883   1.754   5.098 -0.2983  0.4662  0.1569
 2823SOL    HW211064   5.875   1.833   5.044 -1.1350  0.2720 -0.0087
 2823SOL    HW311065   5.892   1.788   5.187 -3.4686  0.7860  0.4828
 2823SOL    MW411066   5.883   1.769   5.102 -0.8270  0.4828  0.1780
 2824SOL     OW11067   6.289   4.655   4.439  0.1344  0.0676 -0.7929
 2824SOL    HW211068   6.355   4.723   4.429 -0.2319  0.1800 -2.9181
 2824SOL    HW311069   6.243   4.654   4.355 -0.6708 -1.9823 -0.3785
 2824SOL    MW411070   6.291   4.664   4.427 -0.0201 -0.1880 -1.0186
 2825SOL     OW11071   5.961   1.598   5.699 -0.3444  0.8509  0.1253
 2825SOL    HW211072   6.005   1.558   5.624 -1.5183 -2.6253  1.1103
 2825SOL    HW311073   6.033   1.633   5.752  0.8940 -0.5583 -0.5242
 2825SOL    MW411074   5.977   1.597   5.696 -0.3359  0.2063  0.1696
 2826SOL     OW11075   4.028   0.458   5.853 -0.2801 -0.2453 -0.7403
 2826SOL    HW211076   4.107   0.489   5.897 -1.3869  2.3037 -0.3500
 2826SOL    HW311077   4.047   0.468   5.760 -0.2762  0.8275 -0.6371
 2826SOL    MW411078   4.041   0.464   5.847 -0.4256  0.2325 -0.6752
 2827SOL     OW11079   3.601   3.104   5.987 -0.3401 -0.9617 -0.0259
 2827SOL    HW211080   3.525   3.153   5.955  0.2804 -0.3071 -0.5281
 2827SOL    HW311081   3.618   3.040   5.919 -1.2511 -2.0179  0.7055
 2827SOL    MW411082   3.593   3.102   5.974 -0.3784 -1.0147  0.0044
 2828SOL     OW11083   5.006   2.734   2.765  0.8221  0.1625 -0.1479
 2828SOL    HW211084   4.954   2.669   2.717  2.1361 -0.6075 -0.5756
 2828SOL    HW311085   4.981   2.722   2.856 -0.8346  0.8379 -0.4681
 2828SOL    MW411086   4.996   2.724   2.770  0.7769  0.1500 -0.2466
 2829SOL     OW11087   5.574   4.639   3.072  0.5645 -0.3538  0.2091
 2829SOL    HW211088   5.486   4.656   3.106  0.8761  2.5677 -0.2089
 2829SOL    HW311089   5.572   4.668   2.981  1.2898 -2.7483 -0.6376
 2829SOL    MW411090   5.562   4.645   3.065  0.7013 -0.2843  0.0422
 2830SOL     OW11091   0.424   4.792   1.425  0.7204 -0.0494 -0.1743
 2830SOL    HW211092   0.480   4.731   1.378  0.2364 -0.3367 -0.3842
 2830SOL    HW311093   0.368   4.831   1.358 -1.4680 -2.0367  0.3607
 2830SOL    MW411094   0.424   4.789   1.410  0.3678 -0.3495 -0.1314
 2831SOL     OW11095   1.505   6.123   3.719 -0.6693 -0.3485  0.4052
 2831SOL    HW211096   1.593   6.103   3.751  0.0702  0.1823 -1.2299
 2831SOL    HW311097   1.487   6.056   3.654 -0.5959  0.7479 -0.7843
 2831SOL    MW411098   1.514   6.112   3.715 -0.5621 -0.1338  0.0326
 2832SOL     OW11099   4.735   5.778   3.792  0.1219  0.0016  0.3206
 2832SOL    HW211100   4.674   5.799   3.863 -0.8465  1.1667 -0.8013
 2832SOL    HW311101   4.679   5.741   3.723  0.7729  0.5176 -0.5001
 2832SOL    MW411102   4.720   5.776   3.792  0.0800  0.2234  0.0643
 2833SOL     OW11103   0.544   3.420   3.067 -0.1158 -0.5452  0.3562
 2833SOL    HW211104   0.617   3.365   3.093 -0.1311 -0.2150  1.1284
 2833SOL    HW311105   0.481   3.412   3.138 -1.1567 -1.3773 -0.6194
 2833SOL    MW411106   0.545   3.412   3.080 -0.2551 -0.6114  0.3294
 2834SOL     OW11107   5.533   0.113   3.331 -0.4610 -0.7891 -0.2356
 2834SOL    HW211108   5.602   0.048   3.347  0.5931  1.0286  3.9236
 2834SOL    HW311109   5.454   0.073   3.367 -0.1553 -0.4244  0.8663
 2834SOL    MW411110   5.532   0.099   3.338 -0.2816 -0.5011  0.4585
 2835SOL     OW11111   3.722   5.947   4.079 -0.0005  0.2632  0.1994
 2835SOL    HW211112   3.677   5.909   4.004 -1.4441 -0.0644  1.1754
 2835SOL    HW311113   3.787   5.881   4.104 -3.1383 -2.2704  2.4867
 2835SOL    MW411114   3.725   5.933   4.073 -0.6050 -0.1143  0.6300
 2836SOL     OW11115   0.233   5.616   3.657  0.3798  0.0592  0.1230
 2836SOL    HW211116   0.283   5.689   3.692 -1.4429  0.0449  3.0190
 2836SOL    HW311117   0.298   5.563   3.611  2.3922  1.6320  1.0076
 2836SOL    MW411118   0.248   5.619   3.655  0.4049  0.2648  0.6218
 2837SOL     OW11119   0.756   5.586   3.975  0.0656 -0.0190 -0.1991
 2837SOL    HW211120   0.727   5.591   3.883 -0.1153 -1.8424 -0.2696
 2837SOL    HW311121   0.844   5.624   3.974  0.3768 -0.7180 -1.2934
 2837SOL    MW411122   0.764   5.592   3.962  0.0828 -0.3518 -0.3528
 2838SOL     OW11123   2.537   1.862   4.764 -0.1736 -0.1013  0.7796
 2838SOL    HW211124   2.607   1.843   4.702 -1.5058 -1.5976 -0.3319
 2838SOL    HW311125   2.570   1.830   4.848  1.1726  0.8834  0.6571
 2838SOL    MW411126   2.550   1.855   4.767 -0.1718 -0.1688  0.6168
 2839SOL     OW11127   5.974   4.338   0.922 -0.7243 -0.3432  0.1186
 2839SOL    HW211128   6.035   4.369   0.989  3.3875 -0.1580 -3.2693
 2839SOL    HW311129   5.936   4.418   0.886 -2.8642 -0.4390  1.9411
 2839SOL    MW411130   5.977   4.353   0.926 -0.4642 -0.3314 -0.0880
 2840SOL     OW11131   1.613   3.812   5.716 -0.3327 -0.8997  0.3053
 2840SOL    HW211132   1.656   3.732   5.686  0.7852  0.6719 -2.6814
 2840SOL    HW311133   1.520   3.790   5.714 -0.0528 -2.1724 -0.3464
 2840SOL    MW411134   1.606   3.798   5.711 -0.1483 -0.8603 -0.1747
 2841SOL     OW11135   2.508   5.631   4.027  0.4085 -0.2896 -0.8352
 2841SOL    HW211136   2.422   5.653   4.063  0.2567 -2.0665 -0.0273
 2841SOL    HW311137   2.492   5.554   3.972  1.3847 -0.2426 -1.1938
 2841SOL    MW411138   2.494   5.624   4.024  0.5173 -0.5179 -0.7759
 2842SOL     OW11139   1.194   0.088   0.667 -0.3103 -0.0228 -0.4605
 2842SOL    HW211140   1.125   0.022   0.673 -1.0722  0.7653 -0.2576
 2842SOL    HW311141   1.251   0.071   0.742 -0.5816 -0.3611 -0.3324
 2842SOL    MW411142   1.192   0.077   0.677 -0.4466  0.0366 -0.4168
 2843SOL     OW11143   1.789   5.492   6.040  0.8213  0.0450 -0.1183
 2843SOL    HW211144   1.882   5.517   6.044  0.4191  1.4260  1.6800
 2843SOL    HW311145   1.790   5.397   6.052  1.9539  0.2101  1.5162
 2843SOL    MW411146   1.802   5.482   6.042  0.9177  0.2490  0.3346
 2844SOL     OW11147   1.644   1.981   1.954 -0.1177 -0.1397 -0.3198
 2844SOL    HW211148   1.616   1.963   1.864 -1.2012  0.6049 -0.1402
 2844SOL    HW311149   1.598   1.917   2.007 -0.9355  0.6188 -0.1014
 2844SOL    MW411150   1.634   1.970   1.949 -0.3686  0.0586 -0.2673
 2845SOL     OW11151   5.036   1.391   2.585 -0.2559  0.3703 -0.0234
 2845SOL    HW211152   4.971   1.443   2.632  2.6825  1.6837  3.0188
 2845SOL    HW311153   5.079   1.454   2.527  0.4109  0.3019  0.3931
 2845SOL    MW411154   5.033   1.406   2.583  0.2198  0.5346  0.4330
 2846SOL     OW11155   0.230   5.263   0.634 -0.0725 -0.3161 -0.0137
 2846SOL    HW211156   0.283   5.215   0.698 -1.0096 -0.2739  0.8209
 2846SOL    HW311157   0.290   5.329   0.598  0.8028 -1.1106 -0.0612
 2846SOL    MW411158   0.245   5.265   0.637 -0.0807 -0.4153  0.0902
 2847SOL     OW11159   3.270   3.329   0.453  0.0309 -0.1068 -0.2946
 2847SOL    HW211160   3.284   3.344   0.546 -1.7437 -2.1180  0.3990
 2847SOL    HW311161   3.345   3.277   0.425 -0.2369 -0.9157  0.4505
 2847SOL    MW411162   3.282   3.324   0.461 -0.2386 -0.4789 -0.1048
 2848SOL     OW11163   5.686   3.337   1.169  0.3025 -0.4323 -0.6604
 2848SOL    HW211164   5.668   3.412   1.226  0.5333 -1.4689  0.8228
 2848SOL    HW311165   5.642   3.359   1.087 -1.6821  0.2662  0.5281
 2848SOL    MW411166   5.678   3.350   1.166  0.0711 -0.4769 -0.3079
 2849SOL     OW11167   3.827   4.987   2.571  0.5713 -0.0879 -0.0796
 2849SOL    HW211168   3.820   5.045   2.496  0.3703  2.3795  1.7133
 2849SOL    HW311169   3.912   5.009   2.610 -0.4346  0.6099  1.8419
 2849SOL    MW411170   3.838   4.997   2.566  0.4121  0.3297  0.4104
 2850SOL     OW11171   1.209   2.324   4.441  0.0194  0.0054 -0.3509
 2850SOL    HW211172   1.159   2.310   4.361  0.1737  0.6459 -0.5716
 2850SOL    HW311173   1.293   2.358   4.411  0.3120 -0.3457  0.0528
 2850SOL    MW411174   1.214   2.327   4.427  0.0784  0.0436 -0.3267
 2851SOL     OW11175   1.612   3.339   0.259  0.0399 -0.4915  0.2848
 2851SOL    HW211176   1.688   3.287   0.285 -0.8487 -0.5403  3.1161
 2851SOL    HW311177   1.610   3.411   0.323 -2.1868 -0.4257  0.2056
 2851SOL    MW411178   1.622   3.342   0.271 -0.3711 -0.4893  0.6479
 2852SOL     OW11179   1.266   6.282   6.035  0.2814 -0.0070  0.0922
 2852SOL    HW211180   1.190   6.326   5.998 -0.5520  0.5158  2.2541
 2852SOL    HW311181   1.240   6.191   6.044  0.4768 -0.1304 -0.5263
 2852SOL    MW411182   1.253   6.276   6.031  0.1972  0.0457  0.2958
 2853SOL     OW11183   2.839   5.364   4.091  0.0362 -0.2405 -0.0101
 2853SOL    HW211184   2.791   5.427   4.144 -1.3402  0.8804 -2.4287
 2853SOL    HW311185   2.930   5.393   4.094 -0.1997  0.4549  0.7492
 2853SOL    MW411186   2.844   5.376   4.099 -0.1765 -0.0009 -0.2290
 2854SOL     OW11187   1.432   6.475   3.128  0.2626 -0.0191 -0.1360
 2854SOL    HW211188   1.379   6.395   3.129  1.4607 -0.9031  2.1358
 2854SOL    HW311189   1.416   6.514   3.214  1.4679  0.9347 -0.3258
 2854SOL    MW411190   1.423   6.469   3.140  0.5797 -0.0099  0.1387
 2855SOL     OW11191   4.302   0.253   3.869  0.3206  0.0643 -0.0841
 2855SOL    HW211192   4.311   0.317   3.798  0.2299  0.1610 -0.0084
 2855SOL    HW311193   4.391   0.218   3.881  0.2509 -0.2725 -0.5426
 2855SOL    MW411194   4.315   0.257   3.861  0.2995  0.0326 -0.1346
 2856SOL     OW11195   1.943   1.478   2.890  0.6633  0.0451  0.2141
 2856SOL    HW211196   1.973   1.554   2.938  0.0080  0.8735 -0.6506
 2856SOL    HW311197   1.883   1.433   2.950  0.0241  0.9454  0.2622
 2856SOL    MW411198   1.939   1.482   2.904  0.4925  0.2732  0.1064
 2857SOL     OW11199   1.799   2.411   0.133 -0.1399  0.6375 -0.2252
 2857SOL    HW211200   1.735   2.364   0.079  0.1221  0.7119 -0.6044
 2857SOL    HW311201   1.851   2.342   0.173 -0.7991  0.5583  0.5147
 2857SOL    MW411202   1.797   2.396   0.131 -0.1923  0.6369 -0.1776
 2858SOL     OW11203   6.138   5.770   6.430  0.5626 -0.0365  0.4657
 2858SOL    HW211204   6.169   5.791   6.518 -0.6913 -0.5927  1.0653
 2858SOL    HW311205   6.218   5.765   6.377  1.3035  0.7070  1.4748
 2858SOL    MW411206   6.153   5.772   6.434  0.4949 -0.0118  0.6780
 2859SOL     OW11207   2.238   4.309   5.686 -0.0590 -0.5369 -0.4751
 2859SOL    HW211208   2.176   4.362   5.735 -1.3260 -1.5364 -0.9292
 2859SOL    HW311209   2.317   4.307   5.741 -0.8011 -0.1323  0.6365
 2859SOL    MW411210   2.240   4.315   5.699 -0.3241 -0.6154 -0.3884
 2860SOL     OW11211   3.171   0.157   0.899  0.0012  0.8365 -0.3808
 2860SOL    HW211212   3.229   0.087   0.866  0.2148  1.6178 -1.7454
 2860SOL    HW311213   3.094   0.152   0.842 -0.1880  1.4143 -0.1747
 2860SOL    MW411214   3.169   0.147   0.887  0.0044  1.0159 -0.5336
 2861SOL     OW11215   4.516   5.583   2.567  0.2332  0.2746  0.3996
 2861SOL    HW211216   4.437   5.529   2.569  0.7983 -0.5931 -0.1353
 2861SOL    HW311217   4.489   5.662   2.520  0.6758 -1.7460 -3.6069
 2861SOL    MW411218   4.502   5.586   2.561  0.3662 -0.1065 -0.1996
 2862SOL     OW11219   3.923   1.025   3.236  0.4126  0.1060 -0.6438
 2862SOL    HW211220   4.018   1.038   3.230  0.4607  0.5363  0.6781
 2862SOL    HW311221   3.912   0.930   3.237  0.8333  0.0520 -0.7581
 2862SOL    MW411222   3.934   1.014   3.235  0.4744  0.1557 -0.4845
 2863SOL     OW11223   0.547   2.410   0.966  0.1816 -0.1732  0.1550
 2863SOL    HW211224   0.542   2.364   1.050 -0.6892  1.8121  1.2432
 2863SOL    HW311225   0.522   2.500   0.985 -1.2231  0.1020 -2.4525
 2863SOL    MW411226   0.543   2.416   0.979 -0.1186  0.1250 -0.0455
 2864SOL     OW11227   2.178   3.919   3.638  0.3516 -0.0462 -0.2052
 2864SOL    HW211228   2.177   3.910   3.542 -0.5166  0.6882 -0.2873
 2864SOL    HW311229   2.137   4.004   3.653 -2.8076 -1.6206  0.9432
 2864SOL    MW411230   2.172   3.929   3.627 -0.1798 -0.1571 -0.0645
 2865SOL     OW11231   4.042   1.271   5.906 -0.5394  0.1570  0.4374
 2865SOL    HW211232   4.130   1.291   5.938 -1.3634  1.9995  1.7799
 2865SOL    HW311233   4.052   1.192   5.854  1.7741 -0.1246  1.2067
 2865SOL    MW411234   4.055   1.264   5.904 -0.3429  0.3629  0.7160
 2866SOL     OW11235   5.181   4.904   2.959  0.2383  0.3835  0.7865
 2866SOL    HW211236   5.254   4.966   2.946  2.3404 -1.7004  1.8400
 2866SOL    HW311237   5.135   4.938   3.036  0.4026  1.4782  0.4178
 2866SOL    MW411238   5.185   4.917   2.968  0.5373  0.2530  0.8768
 2867SOL     OW11239   1.377   0.382   3.762  0.3057 -0.0185 -0.0025
 2867SOL    HW211240   1.336   0.308   3.718 -0.7548  0.7254 -0.3087
 2867SOL    HW311241   1.320   0.456   3.742  1.5227  0.9571  0.0107
 2867SOL    MW411242   1.365   0.382   3.754  0.3263  0.2084 -0.0412
 2868SOL     OW11243   0.755   2.037   2.438  0.3155  0.1920  0.0926
 2868SOL    HW211244   0.753   1.955   2.488 -0.5961 -0.2839 -0.6715
 2868SOL    HW311245   0.694   2.095   2.484  0.1382  0.0564  0.0318
 2868SOL    MW411246   0.746   2.034   2.450  0.1718  0.1113 -0.0162
 2869SOL     OW11247   0.679   1.847   2.914 -0.2423 -0.1111 -0.0241
 2869SOL    HW211248   0.686   1.897   2.994 -0.3108 -0.5575  0.2649
 2869SOL    HW311249   0.745   1.777   2.923 -1.6586 -1.4292  0.5883
 2869SOL    MW411250   0.689   1.844   2.925 -0.4382 -0.3439  0.0949
 2870SOL     OW11251   5.176   4.513   3.475  0.3171 -0.2135  0.5549
 2870SOL    HW211252   5.230   4.437   3.497 -0.0422 -0.4080  0.7674
 2870SOL    HW311253   5.119   4.525   3.551  0.5545  0.4328  0.6372
 2870SOL    MW411254   5.176   4.504   3.488  0.3010 -0.1539  0.5938
 2871SOL     OW11255   4.035   5.605   5.200 -0.0716 -0.1486  0.4832
 2871SOL    HW211256   4.033   5.549   5.122 -0.4461 -0.6004  0.8141
 2871SOL    HW311257   4.117   5.581   5.244  0.5877  0.7426 -0.2251
 2871SOL    MW411258   4.046   5.594   5.195 -0.0340 -0.0906  0.4334
 2872SOL     OW11259   3.680   3.914   5.773 -0.6894  0.3388  0.4728
 2872SOL    HW211260   3.599   3.894   5.819 -0.2416  2.1139  2.1668
 2872SOL    HW311261   3.729   3.970   5.834  2.1271 -1.2014 -0.1868
 2872SOL    MW411262   3.676   3.919   5.787 -0.2587  0.3698  0.6093
 2873SOL     OW11263   6.144   3.483   0.697 -0.1144 -0.2323  0.0813
 2873SOL    HW211264   6.073   3.512   0.640  0.6412 -0.4984 -1.0277
 2873SOL    HW311265   6.188   3.564   0.724 -0.6478 -0.0879  0.5321
 2873SOL    MW411266   6.141   3.498   0.693 -0.0850 -0.2484 -0.0055
 2874SOL     OW11267   1.688   3.488   3.952  0.4895  0.1267  0.0052
 2874SOL    HW211268   1.739   3.477   4.033 -0.0445  0.5832  0.4119
 2874SOL    HW311269   1.689   3.401   3.912  1.0850 -0.0155  0.3068
 2874SOL    MW411270   1.695   3.475   3.958  0.4976  0.1682  0.0986
 2875SOL     OW11271   1.086   2.027   2.139 -0.0530 -0.5381  0.3699
 2875SOL    HW211272   1.171   2.048   2.099 -0.5638 -1.2896 -1.2110
 2875SOL    HW311273   1.106   2.009   2.231  1.1801  1.2952  0.5170
 2875SOL    MW411274   1.100   2.028   2.146  0.0423 -0.3954  0.1808
 2876SOL     OW11275   3.269   6.196   0.207  0.0375 -0.6707 -0.2335
 2876SOL    HW211276   3.323   6.268   0.175  0.0760 -0.1956  0.8687
 2876SOL    HW311277   3.281   6.127   0.142  0.4931  0.0852 -0.9791
 2876SOL    MW411278   3.277   6.196   0.194  0.1027 -0.5083 -0.1864
 2877SOL     OW11279   5.228   5.147   3.505 -0.3732  0.1619 -0.3189
 2877SOL    HW211280   5.226   5.239   3.531 -0.1296  0.2266 -0.5287
 2877SOL    HW311281   5.320   5.128   3.486 -0.3584 -0.2385  0.1217
 2877SOL    MW411282   5.240   5.156   3.506 -0.3391  0.1176 -0.2884
 2878SOL     OW11283   6.298   2.494   0.670 -0.1304  0.2233  0.4300
 2878SOL    HW211284   6.221   2.441   0.690 -0.2930  0.9291  1.7729
 2878SOL    HW311285   6.303   2.557   0.742  1.2413  0.7074 -0.0636
 2878SOL    MW411286   6.288   2.496   0.682  0.0291  0.3803  0.5420
 2879SOL     OW11287   1.063   6.183   5.070  0.3698 -0.2887 -0.3225
 2879SOL    HW211288   1.126   6.194   4.999  3.9180  0.2249  2.5414
 2879SOL    HW311289   1.087   6.099   5.110 -1.4167 -0.5124  0.3675
 2879SOL    MW411290   1.075   6.173   5.066  0.6023 -0.2504  0.1464
 2880SOL     OW11291   5.341   1.422   3.846  0.4962 -0.1415 -0.0569
 2880SOL    HW211292   5.369   1.510   3.871  0.2259  0.7079 -2.4682
 2880SOL    HW311293   5.419   1.382   3.806  0.2533 -0.5099 -0.1736
 2880SOL    MW411294   5.355   1.428   3.844  0.4285 -0.0780 -0.3904
 2881SOL     OW11295   2.641   6.346   1.965  0.0711  0.2324  0.2845
 2881SOL    HW211296   2.728   6.311   1.944  0.7207  1.6713  0.4460
 2881SOL    HW311297   2.658   6.413   2.032 -0.8413  2.2136 -1.3556
 2881SOL    MW411298   2.655   6.350   1.971  0.0364  0.6837  0.0894
 2882SOL     OW11299   0.287   4.393   5.988 -0.8625  0.7089 -0.2044
 2882SOL    HW211300   0.314   4.484   5.979  0.2990  0.7956  2.8729
 2882SOL    HW311301   0.198   4.398   6.022 -0.3908  0.7846  1.0796
 2882SOL    MW411302   0.279   4.406   5.991 -0.6470  0.7304  0.3711
 2883SOL     OW11303   2.147   6.077   5.856 -0.0607 -0.1219 -0.1129
 2883SOL    HW211304   2.063   6.053   5.895 -0.2599  0.8453  0.0650
 2883SOL    HW311305   2.126   6.148   5.796  0.5176 -0.4003 -0.6528
 2883SOL    MW411306   2.133   6.083   5.853 -0.0107 -0.0310 -0.1607
 2884SOL     OW11307   3.782   1.687   1.646  0.5331 -0.6533  0.5000
 2884SOL    HW211308   3.849   1.749   1.618  0.6226 -0.9411  0.0786
 2884SOL    HW311309   3.700   1.736   1.641  0.6112 -0.5510  0.2219
 2884SOL    MW411310   3.780   1.702   1.642  0.5552 -0.6778  0.4077
 2885SOL     OW11311   2.840   4.922   5.185 -0.0157  0.3256  0.2643
 2885SOL    HW211312   2.774   4.863   5.148  1.3360 -0.7519 -0.5056
 2885SOL    HW311313   2.919   4.869   5.193  1.0206  1.8012  0.3364
 2885SOL    MW411314   2.841   4.907   5.181  0.2994  0.3781  0.1722
 2886SOL     OW11315   3.771   6.398   1.587  0.0135  0.2093 -0.0532
 2886SOL    HW211316   3.802   6.319   1.542  1.1366  0.1971  0.7102
 2886SOL    HW311317   3.676   6.397   1.573  0.2691  0.0393 -2.1370
 2886SOL    MW411318   3.763   6.387   1.579  0.1954  0.1852 -0.2274
 2887SOL     OW11319   3.928   1.201   3.825  0.0354  0.0642  0.7261
 2887SOL    HW211320   3.843   1.245   3.830 -0.1500 -0.2497  0.4105
 2887SOL    HW311321   3.955   1.212   3.734 -0.5414 -1.4225  0.3373
 2887SOL    MW411322   3.920   1.208   3.813 -0.0652 -0.1734  0.6332
 2888SOL     OW11323   4.849   3.682   2.243 -0.1621  0.0096  0.0988
 2888SOL    HW211324   4.779   3.701   2.306  0.5267 -0.8925  1.1793
 2888SOL    HW311325   4.815   3.611   2.190 -1.9582  2.6996 -2.6479
 2888SOL    MW411326   4.835   3.675   2.245 -0.3082  0.2455 -0.1210
 2889SOL     OW11327   1.639   5.656   5.838  0.3200 -0.0569 -0.2036
 2889SOL    HW211328   1.704   5.605   5.887  0.4230 -0.5893 -0.8775
 2889SOL    HW311329   1.674   5.660   5.749 -1.3388 -1.8308 -1.0179
 2889SOL    MW411330   1.652   5.650   5.833  0.1147 -0.3612 -0.3999
 2890SOL     OW11331   6.143   6.195   6.318 -0.1427 -0.5412  0.2906
 2890SOL    HW211332   6.154   6.286   6.293 -1.6772 -0.4766 -0.2710
 2890SOL    HW311333   6.153   6.194   6.413  0.7118  0.0664  0.2084
 2890SOL    MW411334   6.145   6.207   6.327 -0.2324 -0.4525  0.2057
 2891SOL     OW11335   6.181   5.557   0.906 -0.3409  0.4627  0.1980
 2891SOL    HW211336   6.123   5.564   0.982 -1.8633 -1.3566 -0.7031
 2891SOL    HW311337   6.126   5.582   0.831  0.2671 -0.4855 -0.5950
 2891SOL    MW411338   6.166   5.561   0.906 -0.4615  0.0976 -0.0255
 2892SOL     OW11339   4.014   0.781   4.533 -0.7247  0.2153 -0.0818
 2892SOL    HW211340   4.052   0.857   4.488 -0.0635  1.0142  1.7248
 2892SOL    HW311341   4.025   0.709   4.472  0.4369  1.1754 -1.0653
 2892SOL    MW411342   4.020   0.782   4.519 -0.4842  0.4474  0.0268
 2893SOL     OW11343   1.030   4.707   3.848  0.1852 -0.1156 -0.2407
 2893SOL    HW211344   1.069   4.792   3.866  3.3407 -1.3109 -0.6927
 2893SOL    HW311345   0.947   4.708   3.895 -0.1018  3.3017 -0.5851
 2893SOL    MW411346   1.024   4.718   3.857  0.5637  0.1776 -0.3458
 2894SOL     OW11347   6.233   5.264   3.991 -0.5215  0.0041  0.0125
 2894SOL    HW211348   6.289   5.250   4.068 -0.1454 -1.2819 -0.4749
 2894SOL    HW311349   6.294   5.279   3.919 -0.7003 -2.5594 -0.7548
 2894SOL    MW411350   6.248   5.264   3.992 -0.4955 -0.5038 -0.1530
 2895SOL     OW11351   6.262   2.378   5.807 -0.6779 -0.4624  0.0792
 2895SOL    HW211352   6.241   2.293   5.768 -0.7061 -0.9880  1.2128
 2895SOL    HW311353   6.188   2.396   5.865 -0.0219 -0.3161  0.8793
 2895SOL    MW411354   6.250   2.369   5.809 -0.5950 -0.5124  0.3343
 2896SOL     OW11355   0.615   1.467   3.573 -0.2045  0.3812  0.1899
 2896SOL    HW211356   0.599   1.380   3.608 -2.4936  0.4145 -0.6281
 2896SOL    HW311357   0.572   1.527   3.635  2.7429  1.1759  1.6688
 2896SOL    MW411358   0.608   1.464   3.586 -0.1176  0.4904  0.2771
 2897SOL     OW11359   6.117   6.036   5.083 -0.0491  0.3638 -0.2713
 2897SOL    HW211360   6.129   6.055   5.176 -0.1666 -2.9781  0.5551
 2897SOL    HW311361   6.023   6.041   5.069  0.0154  1.4194 -0.3709
 2897SOL    MW411362   6.106   6.039   5.094 -0.0561  0.0622 -0.1754
 2898SOL     OW11363   1.668   4.140   1.368 -0.3250  0.1804  0.1401
 2898SOL    HW211364   1.636   4.195   1.296 -0.3691 -0.0845 -0.0441
 2898SOL    HW311365   1.646   4.190   1.447 -1.5005 -0.1381  0.0342
 2898SOL    MW411366   1.661   4.154   1.369 -0.4859  0.1034  0.1018
 2899SOL     OW11367   2.906   1.241   0.537 -0.0170 -0.3640  0.2346
 2899SOL    HW211368   2.811   1.230   0.544 -0.3019  1.8924  0.6506
 2899SOL    HW311369   2.938   1.227   0.626  0.4337 -3.4431 -0.2719
 2899SOL    MW411370   2.897   1.237   0.550  0.0049 -0.4725  0.2227
 2900SOL     OW11371   1.800   3.536   5.138  0.1911  0.2429 -0.6479
 2900SOL    HW211372   1.882   3.491   5.117  0.0253  0.4227 -1.7736
 2900SOL    HW311373   1.739   3.505   5.070 -1.0525 -0.8826  0.8979
 2900SOL    MW411374   1.802   3.526   5.126  0.0051  0.1181 -0.5925
 2901SOL     OW11375   1.255   5.998   6.054 -0.0612  0.0375  0.0983
 2901SOL    HW211376   1.160   5.996   6.040 -0.1639  0.8497  0.6303
 2901SOL    HW311377   1.292   5.973   5.969 -0.7289  0.8791 -0.4489
 2901SOL    MW411378   1.247   5.994   6.041 -0.1628  0.2557  0.0963
 2902SOL     OW11379   1.822   1.786   3.636 -0.5631  0.5235 -0.2729
 2902SOL    HW211380   1.768   1.708   3.642  0.9790 -0.5137  0.7895
 2902SOL    HW311381   1.885   1.768   3.566  0.5063  0.3046  0.7033
 2902SOL    MW411382   1.823   1.774   3.628 -0.2185  0.3578 -0.0039
 2903SOL     OW11383   3.313   2.763   5.295 -0.5769  0.0895  0.1682
 2903SOL    HW211384   3.290   2.855   5.280 -1.4901  0.1088  1.4587
 2903SOL    HW311385   3.402   2.766   5.329 -0.6150  0.5082  0.2412
 2903SOL    MW411386   3.321   2.775   5.298 -0.7024  0.1473  0.3481
 2904SOL     OW11387   2.154   1.649   3.152 -0.1771  0.1073  0.1210
 2904SOL    HW211388   2.172   1.707   3.078 -2.4239  1.5912  0.6426
 2904SOL    HW311389   2.152   1.561   3.113 -0.1959  0.7356 -1.3668
 2904SOL    MW411390   2.156   1.645   3.137 -0.4760  0.3860 -0.0065
 2905SOL     OW11391   3.861   1.564   3.914  0.1226 -0.3430  0.0179
 2905SOL    HW211392   3.860   1.608   3.829  0.1690 -0.4832 -0.0557
 2905SOL    HW311393   3.952   1.538   3.926  0.5870  1.6106  1.1160
 2905SOL    MW411394   3.873   1.566   3.904  0.1900 -0.1037  0.1531
 2906SOL     OW11395   6.173   4.810   2.755  0.1480 -0.0071  0.2732
 2906SOL    HW211396   6.180   4.893   2.709 -1.2750 -0.5924 -1.1288
 2906SOL    HW311397   6.079   4.796   2.764  0.3544 -1.5197  0.3477
 2906SOL    MW411398   6.161   4.819   2.750 -0.0125 -0.2839  0.0980
 2907SOL     OW11399   4.213   1.911   6.098  0.0186 -0.0267  0.4646
 2907SOL    HW211400   4.203   2.004   6.120 -0.4801 -0.3343  1.5765
 2907SOL    HW311401   4.288   1.909   6.038 -0.2818  1.1494  0.0171
 2907SOL    MW411402   4.222   1.923   6.093 -0.0868  0.0879  0.5522
 2908SOL     OW11403   4.262   3.315   1.822  0.1040  0.5793  0.0621
 2908SOL    HW211404   4.305   3.395   1.792  1.2005 -1.1398 -3.5517
 2908SOL    HW311405   4.330   3.269   1.872  0.5497  0.4800 -0.6266
 2908SOL    MW411406   4.277   3.320   1.825  0.3074  0.3394 -0.5056
 2909SOL     OW11407   2.712   0.416   2.584 -0.2544  0.4009 -0.0850
 2909SOL    HW211408   2.701   0.324   2.606  1.2580 -0.3103 -1.9805
 2909SOL    HW311409   2.736   0.458   2.667 -0.2348 -1.0382  0.6737
 2909SOL    MW411410   2.713   0.409   2.598 -0.0522  0.1172 -0.2350
 2910SOL     OW11411   4.347   5.150   3.649 -0.6193  0.0171  0.0072
 2910SOL    HW211412   4.367   5.138   3.556 -1.0783  0.9830 -0.2247
 2910SOL    HW311413   4.414   5.098   3.694 -0.1414 -0.1365 -0.8513
 2910SOL    MW411414   4.359   5.142   3.643 -0.6168  0.1242 -0.1367
 2911SOL     OW11415   1.907   5.105   2.795 -0.2211 -0.2418  0.4313
 2911SOL    HW211416   1.931   5.177   2.854  0.5330 -0.1125 -0.0265
 2911SOL    HW311417   1.989   5.079   2.754 -0.5635 -1.0736  0.2577
 2911SOL    MW411418   1.921   5.111   2.797 -0.1668 -0.3345  0.3480
 2912SOL     OW11419   2.313   4.277   2.122 -0.3320  0.2538  0.3116
 2912SOL    HW211420   2.247   4.335   2.084  0.4314  1.0992  0.2474
 2912SOL    HW311421   2.310   4.295   2.216  0.4423  0.9899  0.2092
 2912SOL    MW411422   2.304   4.287   2.130 -0.1292  0.4624  0.2896
 2913SOL     OW11423   1.510   5.861   4.517  0.1920 -0.0953 -0.1659
 2913SOL    HW211424   1.433   5.831   4.468  0.8391  0.9465 -1.9107
 2913SOL    HW311425   1.582   5.808   4.483  0.5436  0.1438  0.1919
 2913SOL    MW411426   1.509   5.850   4.506  0.3237  0.0737 -0.3489
 2914SOL     OW11427   6.359   2.917   4.739  0.0247 -0.5300  0.7944
 2914SOL    HW211428   6.315   2.837   4.709  1.8697 -1.3810  0.1802
 2914SOL    HW311429   6.372   2.904   4.833 -0.6037 -0.4647  0.8968
 2914SOL    MW411430   6.355   2.905   4.747  0.1852 -0.6337  0.7269
 2915SOL     OW11431   5.657   2.252   5.321  0.1215 -0.3594  0.1289
 2915SOL    HW211432   5.752   2.262   5.331  0.0284  0.1350  0.5690
 2915SOL    HW311433   5.639   2.289   5.234  0.2484  0.1882  0.3273
 2915SOL    MW411434   5.667   2.258   5.311  0.1260 -0.2219  0.2132
 2916SOL     OW11435   0.799   2.451   3.673 -0.5512  0.8827  0.0664
 2916SOL    HW211436   0.819   2.499   3.592  1.7678 -0.7550 -0.4450
 2916SOL    HW311437   0.879   2.460   3.725 -1.6650  1.1029  1.8087
 2916SOL    MW411438   0.812   2.459   3.669 -0.3922  0.6956  0.2288
 2917SOL     OW11439   3.334   0.851   1.406 -0.7168  0.0779 -0.7120
 2917SOL    HW211440   3.304   0.930   1.360 -2.0533 -1.3371 -2.4131
 2917SOL    HW311441   3.268   0.836   1.474  0.7826  1.6609  1.2168
 2917SOL    MW411442   3.321   0.859   1.409 -0.6953  0.1000 -0.6819
 2918SOL     OW11443   3.821   2.821   5.492 -0.2343  0.1786 -0.4844
 2918SOL    HW211444   3.889   2.871   5.446 -0.4824  2.3185  1.2996
 2918SOL    HW311445   3.859   2.801   5.577 -1.0754 -0.4994 -0.2557
 2918SOL    MW411446   3.835   2.825   5.497 -0.3780  0.3715 -0.2188
 2919SOL     OW11447   0.798   5.557   4.726 -0.3634  0.2698  0.1122
 2919SOL    HW211448   0.712   5.550   4.687  0.4954  0.4963 -1.9130
 2919SOL    HW311449   0.789   5.628   4.790 -1.3104  1.3479 -1.1584
 2919SOL    MW411450   0.786   5.565   4.730 -0.3751  0.4419 -0.3227
 2920SOL     OW11451   0.573   4.384   0.084  0.5447 -0.0826 -0.2427
 2920SOL    HW211452   0.570   4.433   0.167 -1.0721 -0.9990  0.2917
 2920SOL    HW311453   0.657   4.339   0.086  0.3163 -0.5086  1.1929
 2920SOL    MW411454   0.584   4.384   0.095  0.3013 -0.2597  0.0172
 2921SOL     OW11455   2.785   2.672   5.860  0.4852 -0.2327 -0.4098
 2921SOL    HW211456   2.878   2.658   5.841 -0.2607 -1.0264 -4.6237
 2921SOL    HW311457   2.772   2.766   5.848  0.3801 -0.4775 -2.8877
 2921SOL    MW411458   2.796   2.682   5.856  0.3730 -0.3698 -1.2927
 2922SOL     OW11459   4.079   1.274   2.778  0.3202  0.0046  0.3824
 2922SOL    HW211460   4.174   1.273   2.762  0.3337 -3.3311 -0.1650
 2922SOL    HW311461   4.064   1.194   2.829 -1.9893  1.5386  2.2698
 2922SOL    MW411462   4.090   1.263   2.783  0.0173 -0.2331  0.5592
 2923SOL     OW11463   5.286   4.767   2.134 -0.9501 -0.0170  0.3101
 2923SOL    HW211464   5.197   4.742   2.111 -0.8625 -1.2728  1.2281
 2923SOL    HW311465   5.310   4.707   2.204  1.1701 -0.7527 -0.9485
 2923SOL    MW411466   5.278   4.756   2.140 -0.6589 -0.2798  0.2652
 2924SOL     OW11467   1.159   5.165   1.016 -0.2537  0.6360 -0.3632
 2924SOL    HW211468   1.235   5.119   0.978  0.3788  1.6567 -0.3635
 2924SOL    HW311469   1.137   5.113   1.093 -0.2940 -0.3319 -1.0106
 2924SOL    MW411470   1.166   5.152   1.021 -0.1755  0.6430 -0.4486
 2925SOL     OW11471   0.179   4.634   1.798 -0.0492  0.1217 -0.0409
 2925SOL    HW211472   0.191   4.729   1.807  0.5711  0.0349  0.0892
 2925SOL    HW311473   0.226   4.611   1.719 -1.2823  0.1034 -0.7993
 2925SOL    MW411474   0.187   4.644   1.789 -0.1301  0.1078 -0.1238
 2926SOL     OW11475   5.759   1.992   1.318 -0.6408  0.0232 -0.1177
 2926SOL    HW211476   5.787   2.042   1.395 -0.3444  0.7191 -0.6671
 2926SOL    HW311477   5.690   2.044   1.280  0.7403  0.8536 -1.6009
 2926SOL    MW411478   5.754   2.005   1.323 -0.4195  0.2246 -0.3859
 2927SOL     OW11479   5.622   0.180   6.398  0.0382 -0.5021  0.2381
 2927SOL    HW211480   5.605   0.095   6.440 -1.8169 -1.0356 -1.4561
 2927SOL    HW311481   5.568   0.242   6.447  2.8927  0.2073  2.7785
 2927SOL    MW411482   5.613   0.177   6.410  0.1701 -0.4789  0.3497
 2928SOL     OW11483   1.897   1.929   6.233 -0.2435  0.0921 -0.3782
 2928SOL    HW211484   1.938   1.898   6.314 -2.1484  0.3008  0.7239
 2928SOL    HW311485   1.959   1.904   6.164  2.2977  1.4950  1.2539
 2928SOL    MW411486   1.911   1.921   6.235 -0.1596  0.3048 -0.0175
 2929SOL     OW11487   0.522   0.191   1.309  0.0677 -0.3367 -0.0480
 2929SOL    HW211488   0.591   0.247   1.274  0.2556 -0.7374 -0.3341
 2929SOL    HW311489   0.529   0.110   1.258 -0.1961 -0.6220  0.3582
 2929SOL    MW411490   0.532   0.188   1.298  0.0577 -0.4272 -0.0322
 2930SOL     OW11491   5.213   5.985   4.764 -0.1049  0.0565 -0.0165
 2930SOL    HW211492   5.239   5.972   4.673  0.7513  0.5897  0.1320
 2930SOL    HW311493   5.130   5.939   4.773 -1.1723  1.5782 -1.5738
 2930SOL    MW411494   5.205   5.977   4.753 -0.1328  0.3276 -0.2023
 2931SOL     OW11495   6.242   6.028   3.288  0.2661  0.1325  0.6243
 2931SOL    HW211496   6.328   6.068   3.273  1.2539 -1.6021  1.4201
 2931SOL    HW311497   6.182   6.081   3.234  2.1946 -0.2143 -2.1024
 2931SOL    MW411498   6.246   6.040   3.279  0.6509 -0.1421  0.3696
 2932SOL     OW11499   1.089   1.266   2.457  0.2623 -0.0568  0.5143
 2932SOL    HW211500   1.153   1.311   2.512  1.3746 -1.5349  0.4824
 2932SOL    HW311501   1.011   1.258   2.513 -0.2499  2.4601  0.2905
 2932SOL    MW411502   1.087   1.271   2.472  0.3415  0.0803  0.4806
 2933SOL     OW11503   2.918   5.958   2.141  0.3047  0.3281  0.3675
 2933SOL    HW211504   2.968   5.991   2.216  1.4730 -0.7780  0.1001
 2933SOL    HW311505   2.973   5.977   2.065  0.7469 -1.6240  0.1454
 2933SOL    MW411506   2.932   5.965   2.141  0.5172 -0.0754  0.3029
 2934SOL     OW11507   1.026   5.451   6.162  0.5745 -0.0566 -0.4136
 2934SOL    HW211508   0.947   5.405   6.190  0.2725 -0.0522 -1.2132
 2934SOL    HW311509   1.067   5.480   6.243  0.7675 -1.7052  0.1244
 2934SOL    MW411510   1.021   5.449   6.176  0.5601 -0.2735 -0.4481
 2935SOL     OW11511   1.190   0.507   2.788 -0.1880  0.2031 -0.2613
 2935SOL    HW211512   1.106   0.473   2.821 -0.7445  0.8466 -0.9584
 2935SOL    HW311513   1.248   0.432   2.787 -0.4975 -0.0649  1.0870
 2935SOL    MW411514   1.186   0.493   2.792 -0.3022  0.2526 -0.1754
 2936SOL     OW11515   5.025   4.563   2.932  0.2480 -0.0981 -0.0609
 2936SOL    HW211516   5.033   4.471   2.956  3.0481  0.1496  0.3074
 2936SOL    HW311517   5.116   4.594   2.925 -0.5751  3.0520  1.4483
 2936SOL    MW411518   5.038   4.555   2.934  0.5089  0.3502  0.1868
 2937SOL     OW11519   4.649   0.162   4.266  0.5757 -0.1373 -0.4031
 2937SOL    HW211520   4.705   0.239   4.253  0.9009 -0.7545 -3.5173
 2937SOL    HW311521   4.561   0.197   4.272  0.7562  0.5503 -1.4410
 2937SOL    MW411522   4.645   0.177   4.265  0.6424 -0.1280 -0.9510
 2938SOL     OW11523   5.740   0.548   5.492  0.1090  0.2011 -0.0216
 2938SOL    HW211524   5.802   0.532   5.420 -1.1974 -3.5068 -0.5462
 2938SOL    HW311525   5.654   0.547   5.450 -0.6136 -0.9585  1.4348
 2938SOL    MW411526   5.737   0.546   5.477 -0.1587 -0.4411  0.1013
 2939SOL     OW11527   5.989   1.889   3.936 -0.8177  0.2559 -0.2217
 2939SOL    HW211528   5.915   1.873   3.877 -1.4640 -0.9857  0.8721
 2939SOL    HW311529   6.039   1.958   3.893 -2.4690  0.9482 -1.1133
 2939SOL    MW411530   5.986   1.896   3.922 -1.1208  0.1834 -0.1951
 2940SOL     OW11531   1.242   1.674   6.255 -0.3862 -0.0802 -0.1207
 2940SOL    HW211532   1.226   1.655   6.348 -0.4930 -0.5437 -0.2321
 2940SOL    HW311533   1.174   1.738   6.232 -0.1724  0.2711  0.1942
 2940SOL    MW411534   1.231   1.680   6.264 -0.3721 -0.0950 -0.0939
 2941SOL     OW11535   3.706   0.773   4.180 -0.0057  0.0206  0.3929
 2941SOL    HW211536   3.802   0.781   4.180  0.1614 -1.5466  0.1800
 2941SOL    HW311537   3.687   0.715   4.253 -0.8893  0.9817  0.9500
 2941SOL    MW411538   3.716   0.766   4.190 -0.1002 -0.0593  0.4383
 2942SOL     OW11539   2.925   5.870   2.881 -0.0897  0.6688  0.5014
 2942SOL    HW211540   2.975   5.798   2.843  0.7407  0.6072  1.6501
 2942SOL    HW311541   2.969   5.950   2.850 -0.6866  0.6883 -0.3363
 2942SOL    MW411542   2.937   5.871   2.872 -0.0589  0.6633  0.5424
 2943SOL     OW11543   5.428   6.261   3.205  0.1789 -0.0108 -0.4522
 2943SOL    HW211544   5.515   6.300   3.203 -0.8495  3.0306  2.5833
 2943SOL    HW311545   5.369   6.333   3.182 -1.6381 -1.5758 -0.9966
 2943SOL    MW411546   5.432   6.276   3.202 -0.1965  0.1839 -0.1235
 2944SOL     OW11547   5.260   4.566   4.997  0.3396 -0.0785  0.1287
 2944SOL    HW211548   5.353   4.565   5.022  0.4361 -0.9947 -0.2431
 2944SOL    HW311549   5.227   4.480   5.024 -0.3636  0.1707  0.0903
 2944SOL    MW411550   5.268   4.555   5.004  0.2595 -0.1665  0.0746
 2945SOL     OW11551   6.201   4.853   5.400  0.1404 -0.0756 -0.2691
 2945SOL    HW211552   6.261   4.906   5.451 -0.0140 -0.6269  0.5089
 2945SOL    HW311553   6.138   4.819   5.464 -0.4817 -0.2137 -0.9311
 2945SOL    MW411554   6.200   4.855   5.415  0.0380 -0.1666 -0.2538
 2946SOL     OW11555   5.436   5.807   4.083 -0.3483 -0.3604 -0.0001
 2946SOL    HW211556   5.383   5.738   4.122  0.8037 -0.8487  0.7504
 2946SOL    HW311557   5.515   5.810   4.136  0.3426  0.4192 -1.0198
 2946SOL    MW411558   5.439   5.799   4.095 -0.1052 -0.3220 -0.0356
 2947SOL     OW11559   5.296   1.213   4.648  0.4027 -0.1702 -0.1355
 2947SOL    HW211560   5.358   1.209   4.721  0.6118 -0.2662 -0.3167
 2947SOL    HW311561   5.339   1.268   4.583  0.6792 -0.9324 -0.6133
 2947SOL    MW411562   5.310   1.220   4.649  0.4668 -0.2834 -0.2225
 2948SOL     OW11563   5.574   0.545   4.079  0.0448 -0.4828 -0.1301
 2948SOL    HW211564   5.574   0.619   4.139  1.5299 -1.5359  1.2546
 2948SOL    HW311565   5.506   0.487   4.112  0.4779 -0.8009  0.2170
 2948SOL    MW411566   5.565   0.547   4.091  0.2979 -0.6637  0.0984
 2949SOL     OW11567   0.553   4.084   3.669 -0.2849 -0.0053  0.3128
 2949SOL    HW211568   0.472   4.108   3.713  0.1801  1.0990  0.6011
 2949SOL    HW311569   0.614   4.155   3.690  1.2117 -1.5122  1.3190
 2949SOL    MW411570   0.551   4.097   3.678 -0.0261 -0.0584  0.4836
 2950SOL     OW11571   3.026   6.313   3.121  0.0865  0.4856 -0.4166
 2950SOL    HW211572   3.022   6.248   3.192 -0.6405  0.9941  0.0254
 2950SOL    HW311573   3.120   6.330   3.109  0.3586 -1.3008 -1.1694
 2950SOL    MW411574   3.038   6.306   3.129  0.0265  0.3170 -0.4576
 2951SOL     OW11575   2.901   3.179   6.359  0.2263  1.0193 -0.4861
 2951SOL    HW211576   2.831   3.221   6.309  0.8011  2.2826 -0.2528
 2951SOL    HW311577   2.897   3.218   6.446 -1.7149 -2.2146  1.0531
 2951SOL    MW411578   2.891   3.190   6.364  0.0460  0.7593 -0.2523
 2952SOL     OW11579   3.290   0.469   2.451  0.8096 -0.3342  0.0898
 2952SOL    HW211580   3.265   0.512   2.532 -1.2338  0.4531 -0.8965
 2952SOL    HW311581   3.281   0.536   2.383 -1.6426 -1.9647 -1.3731
 2952SOL    MW411582   3.286   0.483   2.453  0.2164 -0.4454 -0.2333
 2953SOL     OW11583   3.051   2.878   6.025  0.2230  0.0266  0.1753
 2953SOL    HW211584   3.132   2.925   6.043 -0.8808  2.2201 -0.1773
 2953SOL    HW311585   3.070   2.823   5.949  1.6668 -0.4003  0.8210
 2953SOL    MW411586   3.064   2.877   6.017  0.2679  0.2597  0.2139
 2954SOL     OW11587   5.187   4.476   6.075  0.2027  0.0344  0.2649
 2954SOL    HW211588   5.126   4.402   6.075  0.0595  0.1282 -0.8566
 2954SOL    HW311589   5.216   4.483   5.984 -1.0566  2.3952 -0.0278
 2954SOL    MW411590   5.183   4.467   6.063  0.0177  0.3583  0.0783
 2955SOL     OW11591   4.356   3.550   3.186 -0.1832  0.1458 -0.0913
 2955SOL    HW211592   4.380   3.550   3.278 -0.6347  0.6792  0.0279
 2955SOL    HW311593   4.344   3.643   3.164 -1.2047 -0.0460 -0.3874
 2955SOL    MW411594   4.358   3.562   3.195 -0.3776  0.1909 -0.1147
 2956SOL     OW11595   3.759   5.313   3.797 -0.6285 -0.0595  0.3044
 2956SOL    HW211596   3.676   5.352   3.770 -0.2243  0.2636 -0.5123
 2956SOL    HW311597   3.789   5.366   3.870 -0.8818  0.1520  0.2539
 2956SOL    MW411598   3.752   5.325   3.803 -0.6086  0.0110  0.1900
 2957SOL     OW11599   3.874   5.952   5.759 -0.1008 -0.4237 -0.2920
 2957SOL    HW211600   3.908   6.038   5.782 -0.1346 -0.4110 -0.2902
 2957SOL    HW311601   3.950   5.894   5.767 -0.6108 -0.8691  2.3264
 2957SOL    MW411602   3.889   5.955   5.763 -0.1726 -0.4808  0.0537
 2958SOL     OW11603   5.413   2.336   3.986 -0.3908 -0.3637 -0.1095
 2958SOL    HW211604   5.334   2.381   4.018  0.5069  1.3862 -0.2333
 2958SOL    HW311605   5.408   2.249   4.025 -1.2945  0.4284  1.6845
 2958SOL    MW411606   5.402   2.331   3.996 -0.3916 -0.0283  0.1109
 2959SOL     OW11607   1.573   6.276   2.740 -0.1567 -1.3354  0.2887
 2959SOL    HW211608   1.664   6.245   2.743  0.1326 -0.6246 -0.6743
 2959SOL    HW311609   1.560   6.302   2.649 -0.4126  1.1779  0.9736
 2959SOL    MW411610   1.584   6.275   2.729 -0.1523 -0.9100  0.2520
 2960SOL     OW11611   0.178   1.990   5.742  0.4397 -0.2636  0.6280
 2960SOL    HW211612   0.231   1.934   5.685 -1.3956 -0.6570 -0.7851
 2960SOL    HW311613   0.102   2.013   5.689 -0.4625  0.8929  2.3265
 2960SOL    MW411614   0.175   1.986   5.727  0.0786 -0.1629  0.6657
 2961SOL     OW11615   5.065   3.287   0.610 -0.1529 -0.2902  0.4126
 2961SOL    HW211616   5.046   3.238   0.690  0.3252 -1.4363 -0.1495
 2961SOL    HW311617   4.981   3.321   0.582 -0.5430 -0.9962  0.7017
 2961SOL    MW411618   5.052   3.285   0.617 -0.1413 -0.5346  0.3766
 2962SOL     OW11619   4.359   5.667   0.997 -0.1514  0.0460 -0.0604
 2962SOL    HW211620   4.381   5.754   0.963  0.3406 -0.6383 -1.5713
 2962SOL    HW311621   4.444   5.627   1.016 -0.2933 -0.6535 -0.8431
 2962SOL    MW411622   4.373   5.673   0.995 -0.1052 -0.1366 -0.3630
 2963SOL     OW11623   5.947   0.731   3.992 -0.1182 -0.1189 -0.0525
 2963SOL    HW211624   5.985   0.669   3.930 -0.2064 -1.0165  0.7791
 2963SOL    HW311625   6.006   0.807   3.989  0.6735 -0.7279 -0.1806
 2963SOL    MW411626   5.959   0.733   3.983 -0.0254 -0.3177  0.0403
 2964SOL     OW11627   0.553   5.966   1.978 -0.0242  0.4857  0.0942
 2964SOL    HW211628   0.625   5.926   2.028 -0.1286  1.8258  1.3861
 2964SOL    HW311629   0.557   5.923   1.892  2.5713  0.7632 -0.0128
 2964SOL    MW411630   0.563   5.955   1.973  0.3045  0.6991  0.2505
 2965SOL     OW11631   0.481   5.179   5.850  0.5498 -0.1178 -0.3914
 2965SOL    HW211632   0.492   5.173   5.755  0.0093 -0.5051 -0.4367
 2965SOL    HW311633   0.413   5.115   5.870  2.0296 -1.4650  0.5291
 2965SOL    MW411634   0.473   5.170   5.840  0.6737 -0.3467 -0.2760
 2966SOL     OW11635   2.693   1.631   0.621  0.0858  0.7190  0.0908
 2966SOL    HW211636   2.640   1.590   0.553  0.7312  1.4490 -0.8612
 2966SOL    HW311637   2.779   1.590   0.613  0.0409  0.4716  0.7837
 2966SOL    MW411638   2.698   1.620   0.611  0.1650  0.7826  0.0566
 2967SOL     OW11639   2.773   3.004   5.502  0.3562  0.3571 -0.0334
 2967SOL    HW211640   2.795   3.097   5.495  0.0217  0.6072  1.6706
 2967SOL    HW311641   2.725   2.984   5.422  0.9311  1.4993 -0.6890
 2967SOL    MW411642   2.770   3.013   5.491  0.3879  0.5408  0.1049
 2968SOL     OW11643   1.036   0.630   0.793 -0.0739  0.4069  0.5109
 2968SOL    HW211644   1.080   0.546   0.805  0.0670  0.1298 -1.4756
 2968SOL    HW311645   0.961   0.626   0.852 -1.2621 -2.0404 -0.9755
 2968SOL    MW411646   1.032   0.618   0.802 -0.2121  0.0474  0.0527
 2969SOL     OW11647   1.284   3.910   6.318  0.1685 -0.4818  0.0414
 2969SOL    HW211648   1.372   3.948   6.317  0.5287 -1.2937 -0.9975
 2969SOL    HW311649   1.274   3.875   6.407  0.4439  0.6221  0.5139
 2969SOL    MW411650   1.294   3.910   6.330  0.2524 -0.4433 -0.0333
 2970SOL     OW11651   4.323   1.584   5.232 -0.1122  0.0797  0.2718
 2970SOL    HW211652   4.242   1.630   5.209  0.6820  0.7418 -1.3538
 2970SOL    HW311653   4.391   1.649   5.218  0.8666 -1.0067 -0.0945
 2970SOL    MW411654   4.321   1.599   5.227  0.1217  0.0237  0.0090
 2971SOL     OW11655   2.708   3.993   0.968  0.1313 -0.5527  0.0840
 2971SOL    HW211656   2.794   3.990   0.926  0.8356  1.7704  1.2011
 2971SOL    HW311657   2.696   3.905   1.004  1.6093 -1.1912 -0.8790
 2971SOL    MW411658   2.718   3.981   0.967  0.4193 -0.3305  0.1043
 2972SOL     OW11659   1.358   4.294   2.449 -0.4549 -0.1228  0.0701
 2972SOL    HW211660   1.451   4.286   2.428 -0.2960  0.3718  0.5457
 2972SOL    HW311661   1.313   4.246   2.380  0.0487  1.3813 -1.3616
 2972SOL    MW411662   1.365   4.287   2.437 -0.3675  0.1409 -0.0560
 2973SOL     OW11663   3.262   2.361   2.039  0.1986  0.2007 -0.1067
 2973SOL    HW211664   3.272   2.313   2.121  1.6867 -1.3299 -1.1125
 2973SOL    HW311665   3.240   2.294   1.975 -1.3161  1.4223 -0.9320
 2973SOL    MW411666   3.261   2.346   2.042  0.1951  0.1599 -0.3483
 2974SOL     OW11667   3.625   0.093   4.443  0.4241 -0.3799 -0.1161
 2974SOL    HW211668   3.638   0.006   4.482  1.8017  0.2104  0.8320
 2974SOL    HW311669   3.586   0.145   4.513  3.9930  1.0195  1.0810
 2974SOL    MW411670   3.622   0.088   4.457  1.0767 -0.1174  0.1669
 2975SOL     OW11671   1.132   5.508   4.365 -0.2033 -0.6497  0.2538
 2975SOL    HW211672   1.055   5.559   4.343  0.1164 -0.0063  0.5882
 2975SOL    HW311673   1.153   5.459   4.285  0.3469  0.8736 -0.5760
 2975SOL    MW411674   1.125   5.508   4.352 -0.0885 -0.3638  0.1885
 2976SOL     OW11675   5.750   4.653   0.376 -0.2880  0.4017 -0.3626
 2976SOL    HW211676   5.721   4.715   0.444  0.5841 -0.0219  0.4236
 2976SOL    HW311677   5.843   4.671   0.365  0.1885 -1.2429  0.4599
 2976SOL    MW411678   5.758   4.663   0.384 -0.1101  0.1289 -0.1503
 2977SOL     OW11679   5.999   5.600   3.274  0.1502 -0.5117 -0.2114
 2977SOL    HW211680   6.085   5.570   3.305 -0.5862  0.2315  2.8903
 2977SOL    HW311681   6.018   5.680   3.224  1.2068  1.1498  2.5987
 2977SOL    MW411682   6.013   5.607   3.271  0.1925 -0.1944  0.5686
 2978SOL     OW11683   1.007   1.698   1.393  0.0088 -0.2451 -0.0227
 2978SOL    HW211684   0.964   1.746   1.463  0.8548 -1.3464  1.2985
 2978SOL    HW311685   0.954   1.618   1.382  0.4162 -0.5290  0.0387
 2978SOL    MW411686   0.994   1.693   1.401  0.1741 -0.4279  0.1597
 2979SOL     OW11687   3.362   5.425   2.564  0.2486  0.4502 -0.2314
 2979SOL    HW211688   3.266   5.420   2.564  0.1756  1.1115 -1.7558
 2979SOL    HW311689   3.389   5.368   2.636 -1.3163  1.3166  1.1244
 2979SOL    MW411690   3.353   5.417   2.573  0.0325  0.6518 -0.2536
 2980SOL     OW11691   0.828   4.893   6.299  0.1463  0.1057  0.3600
 2980SOL    HW211692   0.797   4.812   6.258 -0.3462 -0.6154  2.0546
 2980SOL    HW311693   0.877   4.937   6.231  0.5569 -1.7007 -0.5744
 2980SOL    MW411694   0.830   4.888   6.285  0.1355 -0.2277  0.4603
 2981SOL     OW11695   4.170   4.283   2.543 -0.3719  0.1201  0.1140
 2981SOL    HW211696   4.158   4.378   2.544 -0.8978  0.0813  2.3948
 2981SOL    HW311697   4.248   4.268   2.597 -0.2471 -0.7483 -0.2936
 2981SOL    MW411698   4.179   4.294   2.550 -0.4248  0.0004  0.3612
 2982SOL     OW11699   5.746   4.222   4.600  0.3595  0.3267  0.3766
 2982SOL    HW211700   5.764   4.136   4.637  0.0548  0.6925  1.4058
 2982SOL    HW311701   5.656   4.216   4.567  1.2432 -0.5752 -2.0586
 2982SOL    MW411702   5.736   4.210   4.600  0.4359  0.2560  0.1911
 2983SOL     OW11703   0.895   5.074   4.510 -0.0328 -0.1603  0.0610
 2983SOL    HW211704   0.844   5.125   4.447  0.6663  0.3521 -0.1014
 2983SOL    HW311705   0.984   5.107   4.501  0.9226 -2.8760 -1.5855
 2983SOL    MW411706   0.900   5.085   4.501  0.1855 -0.4510 -0.1777
 2984SOL     OW11707   5.374   5.899   1.473 -0.2422  0.4678 -0.1758
 2984SOL    HW211708   5.383   5.987   1.435  0.5631 -0.2078 -1.6513
 2984SOL    HW311709   5.462   5.862   1.469 -0.3719 -0.0815  1.3436
 2984SOL    MW411710   5.387   5.906   1.467 -0.1531  0.3062 -0.1700
 2985SOL     OW11711   1.761   0.889   4.830 -0.7610 -0.1035  0.0291
 2985SOL    HW211712   1.823   0.917   4.763  1.7502 -1.4615  1.6481
 2985SOL    HW311713   1.767   0.794   4.830 -2.0143 -0.2117  1.0272
 2985SOL    MW411714   1.770   0.880   4.821 -0.5951 -0.2969  0.3744
 2986SOL     OW11715   0.618   3.836   1.207 -0.0653  0.0405 -0.5526
 2986SOL    HW211716   0.598   3.917   1.254  0.6834  0.5524 -1.0835
 2986SOL    HW311717   0.621   3.863   1.115  1.1615 -0.3769 -0.6518
 2986SOL    MW411718   0.616   3.850   1.201  0.1953  0.0530 -0.6357
 2987SOL     OW11719   0.007   6.229   6.033  0.1154 -0.1217  0.2250
 2987SOL    HW211720  -0.024   6.140   6.052 -0.4531 -0.1516 -0.7505
 2987SOL    HW311721   0.085   6.215   5.979 -0.5368 -0.0502 -0.7718
 2987SOL    MW411722   0.013   6.215   6.028 -0.0457 -0.1162 -0.0352
 2988SOL     OW11723   2.473   4.547   2.320 -0.0317  0.4801  0.2606
 2988SOL    HW211724   2.514   4.469   2.358 -0.0683  0.1194 -0.4335
 2988SOL    HW311725   2.492   4.541   2.227 -1.8582  0.1932 -0.1173
 2988SOL    MW411726   2.481   4.536   2.313 -0.2775  0.3947  0.1192
 2989SOL     OW11727   2.162   2.411   4.821 -0.0478  0.0723 -0.1669
 2989SOL    HW211728   2.183   2.327   4.781 -1.9410 -1.2008  1.3664
 2989SOL    HW311729   2.186   2.400   4.913 -1.2082  0.8649  0.2437
 2989SOL    MW411730   2.168   2.398   4.828 -0.4507  0.0089  0.0896
 2990SOL     OW11731   1.040   4.497   3.169  0.2823  0.3593 -0.5004
 2990SOL    HW211732   1.035   4.548   3.251 -1.2862 -1.1845  0.4243
 2990SOL    HW311733   1.015   4.559   3.101 -1.2481  0.9671  0.5564
 2990SOL    MW411734   1.036   4.512   3.171 -0.1265  0.2358 -0.2390
 2991SOL     OW11735   0.679   1.211   4.693  0.1666  0.3641  0.8564
 2991SOL    HW211736   0.738   1.149   4.651  0.7556  0.7324  1.1242
 2991SOL    HW311737   0.621   1.157   4.747 -0.2258 -0.0615  0.0128
 2991SOL    MW411738   0.679   1.196   4.695  0.1925  0.3565  0.7804
 2992SOL     OW11739   5.266   1.523   1.123  0.6431  0.1436  0.0646
 2992SOL    HW211740   5.263   1.571   1.040  1.0728  0.1010  0.0184
 2992SOL    HW311741   5.216   1.577   1.184 -1.3953 -0.8180 -0.6955
 2992SOL    MW411742   5.259   1.537   1.120  0.4309  0.0111 -0.0418
 2993SOL     OW11743   6.291   2.378   1.771  0.0410 -0.5288  0.2332
 2993SOL    HW211744   6.281   2.445   1.839  3.5170  0.3192  0.0766
 2993SOL    HW311745   6.254   2.418   1.693 -1.2463 -0.3199  0.9150
 2993SOL    MW411746   6.285   2.392   1.770  0.3298 -0.3894  0.3025
 2994SOL     OW11747   4.279   4.919   0.513 -0.3523 -0.0097 -0.1802
 2994SOL    HW211748   4.237   4.833   0.508  1.0306 -0.9008  2.2305
 2994SOL    HW311749   4.333   4.924   0.434  0.0795 -1.6745 -0.0310
 2994SOL    MW411750   4.280   4.908   0.502 -0.1129 -0.3469  0.1575
 2995SOL     OW11751   3.507   5.556   2.906 -0.2053  0.2132 -0.6896
 2995SOL    HW211752   3.594   5.521   2.888  0.3686 -0.5889  2.7766
 2995SOL    HW311753   3.523   5.629   2.966 -1.8354  1.9549 -2.2413
 2995SOL    MW411754   3.520   5.561   2.912 -0.3447  0.3372 -0.4370
 2996SOL     OW11755   0.384   5.695   4.277 -0.2076  0.0064 -0.0036
 2996SOL    HW211756   0.452   5.699   4.210  0.0902 -0.0006  0.2954
 2996SOL    HW311757   0.303   5.715   4.230 -0.3471 -2.2530 -0.8421
 2996SOL    MW411758   0.382   5.699   4.262 -0.1867 -0.2926 -0.0748
 2997SOL     OW11759   2.352   5.723   5.947 -0.2037  0.0348  0.7986
 2997SOL    HW211760   2.299   5.724   5.867 -0.4432  0.0992  0.9572
 2997SOL    HW311761   2.361   5.630   5.968 -0.9074  0.0471  1.1985
 2997SOL    MW411762   2.346   5.711   5.939 -0.3281  0.0449  0.8723
 2998SOL     OW11763   5.343   2.713   4.130  0.3571 -0.4211 -0.0610
 2998SOL    HW211764   5.279   2.660   4.082 -0.3616  0.2748  0.1012
 2998SOL    HW311765   5.366   2.658   4.206 -1.3792 -0.0268  0.8241
 2998SOL    MW411766   5.338   2.698   4.134  0.0332 -0.2772  0.0772
 2999SOL     OW11767   0.439   0.316   6.332 -0.1034 -0.0876  0.0382
 2999SOL    HW211768   0.465   0.374   6.403 -1.5540 -1.2700  1.6356
 2999SOL    HW311769   0.439   0.371   6.254  0.8019  1.4467  1.0685
 2999SOL    MW411770   0.443   0.331   6.331 -0.1754 -0.0411  0.3849
 3000SOL     OW11771   0.292   5.083   0.415 -0.0032 -0.6154  0.0841
 3000SOL    HW211772   0.278   5.146   0.486  2.7058 -0.5647  0.6747
 3000SOL    HW311773   0.270   4.999   0.454 -0.1067 -0.4134  0.4715
 3000SOL    MW411774   0.287   5.080   0.430  0.3405 -0.5821  0.2131
 3001SOL     OW11775   3.735   4.792   2.382  0.9225 -0.1837  0.2737
 3001SOL    HW211776   3.758   4.856   2.449  3.4323 -1.4080  0.6768
 3001SOL    HW311777   3.816   4.778   2.333  0.0993 -2.0911 -0.6386
 3001SOL    MW411778   3.748   4.799   2.384  1.1450 -0.5969  0.2065
 3002SOL     OW11779   3.633   3.266   2.301 -0.0513 -1.4220 -0.1135
 3002SOL    HW211780   3.568   3.323   2.259 -0.4051  0.1090  2.2875
 3002SOL    HW311781   3.717   3.307   2.282  0.1846 -2.7648 -2.2554
 3002SOL    MW411782   3.635   3.279   2.293 -0.0669 -1.3971 -0.0793
 3003SOL     OW11783   6.303   2.163   3.026  0.5605 -0.6168 -0.1240
 3003SOL    HW211784   6.247   2.193   2.955  0.9793  0.1202 -0.1556
 3003SOL    HW311785   6.366   2.234   3.038  0.5659 -0.7763  0.9034
 3003SOL    MW411786   6.304   2.176   3.018  0.6165 -0.5406  0.0074
 3004SOL     OW11787   2.717   2.553   6.380  0.1632 -0.4184 -0.3229
 3004SOL    HW211788   2.794   2.584   6.332  0.2259 -1.4269 -0.9242
 3004SOL    HW311789   2.698   2.467   6.341 -0.7030 -0.5987  0.4530
 3004SOL    MW411790   2.725   2.545   6.368  0.0572 -0.5753 -0.2998
 3005SOL     OW11791   0.166   0.999   2.687  0.0422  0.8467 -0.1472
 3005SOL    HW211792   0.106   0.940   2.642  1.3354  0.0557 -0.9142
 3005SOL    HW311793   0.160   0.975   2.779  0.1301 -0.1084 -0.3850
 3005SOL    MW411794   0.158   0.988   2.693  0.2244  0.6163 -0.2798
 3006SOL     OW11795   0.277   4.589   1.539 -0.1346  0.7116 -0.0258
 3006SOL    HW211796   0.320   4.662   1.493  3.1908 -0.7000  0.5353
 3006SOL    HW311797   0.297   4.512   1.486 -0.4228 -0.2879  1.2576
 3006SOL    MW411798   0.286   4.588   1.526  0.2661  0.3935  0.2175
 3007SOL     OW11799   6.075   0.714   2.435  0.6108 -0.7271 -1.1649
 3007SOL    HW211800   5.991   0.675   2.459  1.1578 -0.3901  1.6772
 3007SOL    HW311801   6.086   0.788   2.495  2.9562 -0.7737 -1.4133
 3007SOL    MW411802   6.066   0.719   2.446  0.9924 -0.6888 -0.8227
 3008SOL     OW11803   2.757   2.037   5.407  0.0091  0.3908 -0.5139
 3008SOL    HW211804   2.821   2.100   5.374  1.6740 -0.6173  0.6174
 3008SOL    HW311805   2.793   1.952   5.384 -0.8829 -0.2172  0.2502
 3008SOL    MW411806   2.770   2.034   5.400  0.1111  0.1776 -0.2638
 3009SOL     OW11807   4.887   3.076   3.671  0.5099 -0.6812  0.6813
 3009SOL    HW211808   4.864   3.159   3.630 -0.1204 -1.1256  0.0986
 3009SOL    HW311809   4.858   3.085   3.762 -0.8417 -0.7516  0.2832
 3009SOL    MW411810   4.880   3.088   3.678  0.2484 -0.7492  0.5519
 3010SOL     OW11811   5.374   0.711   3.097  0.0369  0.5794 -0.3015
 3010SOL    HW211812   5.286   0.695   3.133 -0.8312  2.2000 -1.5782
 3010SOL    HW311813   5.430   0.650   3.144 -1.9147 -1.1752 -0.1072
 3010SOL    MW411814   5.370   0.701   3.108 -0.3351  0.5617 -0.4443
 3011SOL     OW11815   3.619   0.852   3.778 -0.0896  0.3832  0.5450
 3011SOL    HW211816   3.551   0.886   3.837 -0.5756  0.9401 -0.3159
 3011SOL    HW311817   3.572   0.796   3.716 -0.0934  2.1445 -1.1483
 3011SOL    MW411818   3.604   0.849   3.778 -0.1542  0.6891  0.2080
 3012SOL     OW11819   5.845   5.702   4.192  0.0172  0.6296 -0.2918
 3012SOL    HW211820   5.761   5.694   4.238 -0.4200 -0.2102 -1.1886
 3012SOL    HW311821   5.909   5.716   4.262 -1.0167  2.7728  0.3181
 3012SOL    MW411822   5.842   5.702   4.208 -0.1769  0.8016 -0.3296
 3013SOL     OW11823   3.583   5.238   6.214 -0.0675  0.1391  0.2178
 3013SOL    HW211824   3.531   5.247   6.134  0.3305 -0.9281 -0.1778
 3013SOL    HW311825   3.627   5.323   6.222  0.1059  0.1742 -0.8570
 3013SOL    MW411826   3.582   5.251   6.204  0.0079  0.0029  0.0238
 3014SOL     OW11827   0.648   0.915   4.387 -0.2351 -0.3229  0.1343
 3014SOL    HW211828   0.703   0.946   4.459 -0.8464  0.0533  0.4570
 3014SOL    HW311829   0.680   0.828   4.368 -0.0988 -0.4560  0.9152
 3014SOL    MW411830   0.659   0.908   4.394 -0.2978 -0.2908  0.2799
 3015SOL     OW11831   2.175   4.830   5.419  0.0356  0.1904 -0.6612
 3015SOL    HW211832   2.190   4.884   5.497  0.7069 -0.4313 -0.3493
 3015SOL    HW311833   2.150   4.892   5.351 -0.1828  0.7840 -0.0475
 3015SOL    MW411834   2.174   4.845   5.420  0.0954  0.1867 -0.5390
 3016SOL     OW11835   1.020   2.184   3.117  0.2409  0.4809  0.1156
 3016SOL    HW211836   1.046   2.216   3.203 -0.2803  0.0854  0.4243
 3016SOL    HW311837   0.974   2.257   3.076  0.0070  0.4909  0.3941
 3016SOL    MW411838   1.017   2.198   3.123  0.1412  0.4300  0.1931
 3017SOL     OW11839   5.524   4.727   5.412  0.3782 -0.4624  0.1453
 3017SOL    HW211840   5.546   4.816   5.439 -1.5423  0.1190 -0.0665
 3017SOL    HW311841   5.461   4.697   5.478  0.1777 -1.2434 -0.3837
 3017SOL    MW411842   5.518   4.735   5.424  0.0984 -0.4887  0.0475
 3018SOL     OW11843   2.848   0.312   4.758  0.1138  0.2904  0.2164
 3018SOL    HW211844   2.877   0.369   4.829 -1.7713  0.0027  1.2631
 3018SOL    HW311845   2.770   0.269   4.791 -1.3794  0.8108 -2.3128
 3018SOL    MW411846   2.842   0.314   4.772 -0.3319  0.3211  0.0208
 3019SOL     OW11847   1.686   3.970   0.556  0.1537  0.2271 -0.6643
 3019SOL    HW211848   1.630   4.038   0.593  0.1550 -1.0463  1.9103
 3019SOL    HW311849   1.765   4.017   0.529 -0.2427  1.4076  0.1289
 3019SOL    MW411850   1.689   3.985   0.557  0.1016  0.2148 -0.2199
 3020SOL     OW11851   2.391   3.826   2.072 -0.2219  0.4448  0.4964
 3020SOL    HW211852   2.363   3.760   2.009  1.6439  0.4817 -0.4507
 3020SOL    HW311853   2.450   3.883   2.023  0.9125  0.7648  2.1387
 3020SOL    MW411854   2.395   3.824   2.057  0.1739  0.4919  0.5881
 3021SOL     OW11855   3.729   1.952   5.344  0.8024  0.0175 -0.3835
 3021SOL    HW211856   3.788   1.899   5.289 -0.1691  0.4060 -1.8754
 3021SOL    HW311857   3.722   1.903   5.426  1.6573 -1.0197 -0.9036
 3021SOL    MW411858   3.736   1.939   5.347  0.7870 -0.0681 -0.6490
 3022SOL     OW11859   3.140   2.691   0.057 -0.2689 -0.4585 -0.4479
 3022SOL    HW211860   3.092   2.668  -0.022  0.0660 -1.1655 -0.4480
 3022SOL    HW311861   3.153   2.786   0.051 -0.7358 -0.4278 -0.9603
 3022SOL    MW411862   3.136   2.701   0.046 -0.2863 -0.5477 -0.5155
 3023SOL     OW11863   0.288   5.560   1.739  0.1268 -0.0749  0.2671
 3023SOL    HW211864   0.368   5.550   1.791 -0.4287  1.9293  1.6486
 3023SOL    HW311865   0.256   5.647   1.763 -0.9575  0.3346 -2.4202
 3023SOL    MW411866   0.294   5.570   1.749 -0.0896  0.2435  0.0948
 3024SOL     OW11867   3.172   0.501   0.309 -0.3520  0.2472  0.1491
 3024SOL    HW211868   3.186   0.473   0.218  0.2246  2.8304 -0.6214
 3024SOL    HW311869   3.237   0.452   0.359  1.2728  0.8624 -1.2721
 3024SOL    MW411870   3.182   0.490   0.303 -0.0615  0.6692 -0.1401
 3025SOL     OW11871   3.021   3.756   3.596 -0.1321 -0.1667  0.2974
 3025SOL    HW211872   3.080   3.786   3.526 -0.8741  0.6375 -0.0076
 3025SOL    HW311873   2.954   3.704   3.551 -1.4089  1.5020  0.1624
 3025SOL    MW411874   3.020   3.753   3.581 -0.3985  0.1595  0.2394
 3026SOL     OW11875   4.008   0.533   0.825  0.6315 -0.4080  0.1093
 3026SOL    HW211876   4.101   0.520   0.838  0.4894 -0.9013  0.6546
 3026SOL    HW311877   3.969   0.523   0.912  0.2256  1.2516  0.1565
 3026SOL    MW411878   4.015   0.530   0.838  0.5592 -0.2541  0.1875
 3027SOL     OW11879   6.074   0.408   2.098 -0.2793 -0.1769 -0.1785
 3027SOL    HW211880   6.039   0.453   2.021 -0.2796 -0.7089 -0.4991
 3027SOL    HW311881   6.010   0.339   2.116 -0.3208 -0.0067  0.3517
 3027SOL    MW411882   6.061   0.405   2.090 -0.2848 -0.2246 -0.1509
 3028SOL     OW11883   2.728   1.007   1.801  0.2374  0.4145 -0.1359
 3028SOL    HW211884   2.732   0.961   1.717 -0.0688  0.8389 -0.3875
 3028SOL    HW311885   2.687   1.091   1.780 -1.9165 -0.3341  0.8006
 3028SOL    MW411886   2.723   1.012   1.787 -0.0872  0.3717 -0.0456
 3029SOL     OW11887   1.734   0.890   0.849 -0.4643 -0.4892 -0.8081
 3029SOL    HW211888   1.764   0.872   0.938 -0.2894 -0.3209 -0.8325
 3029SOL    HW311889   1.692   0.976   0.854  1.4457  0.5244 -1.3105
 3029SOL    MW411890   1.732   0.899   0.861 -0.1892 -0.3333 -0.8776
 3030SOL     OW11891   6.353   5.465   5.316  0.2645 -0.1444  0.2130
 3030SOL    HW211892   6.398   5.549   5.313  1.3441 -0.4497  3.5706
 3030SOL    HW311893   6.423   5.399   5.313 -0.4188 -0.8703 -0.3790
 3030SOL    MW411894   6.368   5.467   5.315  0.3167 -0.2805  0.5779
 3031SOL     OW11895   0.596   2.244   1.252 -0.6110 -0.0780 -0.4279
 3031SOL    HW211896   0.597   2.158   1.210  2.6858 -0.8165  0.8195
 3031SOL    HW311897   0.610   2.226   1.345  3.6020  1.6857 -0.4417
 3031SOL    MW411898   0.598   2.231   1.258  0.3798  0.0573 -0.2651
 3032SOL     OW11899   4.658   5.919   6.150  0.1656 -0.1745 -0.2246
 3032SOL    HW211900   4.709   5.984   6.101  0.7169  1.2326  2.0193
 3032SOL    HW311901   4.567   5.939   6.128  0.3432  1.1787  0.1424
 3032SOL    MW411902   4.653   5.930   6.141  0.2618  0.1897  0.1199
 3033SOL     OW11903   4.648   5.987   0.509  0.5664 -0.1803  0.0891
 3033SOL    HW211904   4.576   5.961   0.567 -0.4936  1.0564 -0.6167
 3033SOL    HW311905   4.701   5.907   0.500 -0.2066 -0.8779  1.3407
 3033SOL    MW411906   4.646   5.973   0.515  0.3246 -0.1092  0.1611
 3034SOL     OW11907   5.162   2.138   0.274 -0.1166 -0.1594 -0.1136
 3034SOL    HW211908   5.070   2.156   0.294  0.3616  2.1028  0.3881
 3034SOL    HW311909   5.179   2.185   0.193  0.2635 -1.7756 -1.0142
 3034SOL    MW411910   5.152   2.147   0.266 -0.0033 -0.0741 -0.1662
 3035SOL     OW11911   3.015   6.192   3.655 -0.0238 -0.0125 -0.3594
 3035SOL    HW211912   3.076   6.191   3.729 -0.3640  0.7951 -0.0578
 3035SOL    HW311913   2.930   6.169   3.693 -0.0532 -0.3962 -0.6490
 3035SOL    MW411914   3.012   6.189   3.670 -0.0726  0.0434 -0.3578
 3036SOL     OW11915   0.893   4.541   4.634  0.2640 -0.1917 -0.5240
 3036SOL    HW211916   0.892   4.499   4.547  2.0044  1.2602 -1.3036
 3036SOL    HW311917   0.905   4.634   4.616  1.1281  0.0942  1.2844
 3036SOL    MW411918   0.895   4.547   4.620  0.6076  0.0376 -0.3883
 3037SOL     OW11919   1.639   4.388   6.164 -0.2919 -0.7210  0.1575
 3037SOL    HW211920   1.636   4.358   6.254  1.0263  1.8895  1.1848
 3037SOL    HW311921   1.719   4.350   6.128 -1.2171 -2.4006 -0.2337
 3037SOL    MW411922   1.649   4.379   6.171 -0.2401 -0.5982  0.2415
 3038SOL     OW11923   5.480   1.170   2.976  0.7077 -0.0652 -0.5209
 3038SOL    HW211924   5.455   1.258   2.949  2.4490  0.3872 -0.7280
 3038SOL    HW311925   5.437   1.157   3.060  0.9073  1.2043 -0.2136
 3038SOL    MW411926   5.471   1.180   2.983  0.9638  0.1620 -0.5077
 3039SOL     OW11927   5.566   6.384   1.593  0.0246  0.2707  0.2911
 3039SOL    HW211928   5.559   6.471   1.553 -1.0899 -0.2396 -0.6912
 3039SOL    HW311929   5.611   6.399   1.676  1.0860  1.5881 -0.4774
 3039SOL    MW411930   5.571   6.397   1.598  0.0176  0.3772  0.0601
 3040SOL     OW11931   6.396   2.286   6.279  0.4076 -0.0090 -0.1433
 3040SOL    HW211932   6.441   2.369   6.298 -0.5650  0.6698 -0.7311
 3040SOL    HW311933   6.374   2.291   6.186 -2.5195  0.5426  0.4812
 3040SOL    MW411934   6.399   2.298   6.270 -0.1069  0.1534 -0.1385
 3041SOL     OW11935   1.330   1.259   5.001 -0.1808 -0.1806  0.0801
 3041SOL    HW211936   1.363   1.173   4.974  1.0589  0.0906  0.6727
 3041SOL    HW311937   1.295   1.245   5.089  0.4887  0.0305  0.3799
 3041SOL    MW411938   1.330   1.246   5.009  0.0711 -0.1170  0.1978
 3042SOL     OW11939   4.979   6.295   0.200  0.1982  0.2028  0.0266
 3042SOL    HW211940   4.930   6.332   0.126  2.2870  1.2668 -0.9220
 3042SOL    HW311941   4.973   6.200   0.187 -0.1919  0.3540 -1.0306
 3042SOL    MW411942   4.972   6.287   0.188  0.4223  0.3632 -0.2381
 3043SOL     OW11943   2.717   2.845   0.975 -0.3146 -0.7661  0.0990
 3043SOL    HW211944   2.689   2.864   1.065 -1.6299 -1.2559 -0.1762
 3043SOL    HW311945   2.681   2.758   0.957  0.4315 -0.9274 -0.7124
 3043SOL    MW411946   2.709   2.836   0.985 -0.3897 -0.8520 -0.0443
 3044SOL     OW11947   3.509   5.206   5.225 -0.0616  0.1760 -0.8676
 3044SOL    HW211948   3.452   5.179   5.153 -1.3118  1.8466 -0.5732
 3044SOL    HW311949   3.543   5.292   5.199 -2.5907  2.0778  1.4949
 3044SOL    MW411950   3.506   5.214   5.212 -0.5602  0.6473 -0.5170
 3045SOL     OW11951   5.054   3.824   2.122 -0.2231  0.2704  0.3170
 3045SOL    HW211952   5.024   3.887   2.056  0.0357  0.2495  0.1742
 3045SOL    HW311953   4.974   3.790   2.162 -0.3385  1.2543  0.9301
 3045SOL    MW411954   5.040   3.828   2.118 -0.2042  0.3975  0.3791
 3046SOL     OW11955   0.414   5.343   5.299  0.1338  0.2968  1.0241
 3046SOL    HW211956   0.403   5.258   5.256 -1.4716  0.4602  1.0464
 3046SOL    HW311957   0.371   5.331   5.384 -0.4058  1.2269  0.8889
 3046SOL    MW411958   0.407   5.330   5.305 -0.1492  0.4411  1.0092
 3047SOL     OW11959   1.816   5.212   6.030 -0.2866 -0.5058 -0.3658
 3047SOL    HW211960   1.903   5.208   5.989 -0.2279 -1.3450 -0.1741
 3047SOL    HW311961   1.829   5.174   6.117 -1.1747 -2.1265 -0.9136
 3047SOL    MW411962   1.829   5.206   6.036 -0.3960 -0.8303 -0.4127
 3048SOL     OW11963   1.957   5.700   2.814 -0.0396 -0.0300  0.1317
 3048SOL    HW211964   2.044   5.691   2.854  0.3096 -1.3855 -0.8668
 3048SOL    HW311965   1.960   5.785   2.769  1.4761 -0.8799 -1.4912
 3048SOL    MW411966   1.969   5.710   2.814  0.2065 -0.3210 -0.2142
 3049SOL     OW11967   3.690   6.455   3.564  0.4785  0.6548 -0.1139
 3049SOL    HW211968   3.669   6.367   3.534  0.4980  0.1518  1.2803
 3049SOL    HW311969   3.781   6.451   3.591 -0.0721  0.5281  1.8543
 3049SOL    MW411970   3.699   6.443   3.563  0.4085  0.5717  0.3298
 3050SOL     OW11971   2.414   5.014   2.426 -0.3425  0.1432  0.0538
 3050SOL    HW211972   2.385   5.100   2.457 -0.1366  0.7914 -1.4467
 3050SOL    HW311973   2.381   5.009   2.336  1.2981 -0.5475 -0.5354
 3050SOL    MW411974   2.406   5.024   2.418 -0.0989  0.1376 -0.2219
 3051SOL     OW11975   5.532   1.460   1.485  0.1291  0.1080  0.3598
 3051SOL    HW211976   5.595   1.406   1.438  0.8987  1.9151 -0.8011
 3051SOL    HW311977   5.552   1.444   1.578  1.3956 -0.3942  0.0240
 3051SOL    MW411978   5.543   1.451   1.491  0.3978  0.2801  0.1624
 3052SOL     OW11979   5.482   2.429   0.557  0.3027  0.0691 -0.3500
 3052SOL    HW211980   5.433   2.352   0.531  0.7381 -0.5559  0.6109
 3052SOL    HW311981   5.415   2.494   0.580 -0.0646 -0.0814 -0.9767
 3052SOL    MW411982   5.467   2.427   0.557  0.3117 -0.0332 -0.3059
 3053SOL     OW11983   3.236   2.368   0.519 -0.1101  0.2356  0.5851
 3053SOL    HW211984   3.153   2.343   0.559  0.1074 -0.4547  0.6200
 3053SOL    HW311985   3.270   2.437   0.575 -1.1639  1.2845 -0.0382
 3053SOL    MW411986   3.230   2.374   0.532 -0.2204  0.2829  0.5075
 3054SOL     OW11987   1.226   4.948   3.136 -0.3978 -0.4300  0.0683
 3054SOL    HW211988   1.313   4.916   3.160 -0.7962 -0.9631  0.8588
 3054SOL    HW311989   1.241   5.035   3.100  0.4021 -0.2206  0.8715
 3054SOL    MW411990   1.239   4.955   3.135 -0.3449 -0.4727  0.2786
 3055SOL     OW11991   3.132   5.881   3.283  0.1494  0.1052 -0.3529
 3055SOL    HW211992   3.129   5.809   3.346 -0.3422  0.0995 -0.3751
 3055SOL    HW311993   3.056   5.866   3.226  0.7695 -0.0662 -1.1499
 3055SOL    MW411994   3.121   5.870   3.284  0.1663  0.0818 -0.4610
 3056SOL     OW11995   5.872   1.921   4.195  0.0704 -0.1982  0.0129
 3056SOL    HW211996   5.913   1.911   4.109  1.9027  1.3404  0.6367
 3056SOL    HW311997   5.878   1.834   4.234 -1.8647 -1.2306 -1.8089
 3056SOL    MW411998   5.878   1.908   4.189  0.0568 -0.1314 -0.1452
 3057SOL     OW11999   5.542   1.500   2.340 -0.2997 -0.7315  0.0669
 3057SOL    HW212000   5.519   1.414   2.374 -0.2333 -1.5445 -1.7979
 3057SOL    HW312001   5.458   1.538   2.314 -0.2972 -0.3397  0.6096
 3057SOL    MW412002   5.528   1.494   2.341 -0.2906 -0.7870 -0.1075
 3058SOL     OW12003   1.892   4.129   5.212 -0.2231 -0.1662  0.3599
 3058SOL    HW212004   1.838   4.076   5.271  1.1598 -0.0253  1.8168
 3058SOL    HW312005   1.964   4.070   5.187  0.7133  0.6446  1.0896
 3058SOL    MW412006   1.895   4.114   5.216  0.0829 -0.0406  0.6484
 3059SOL     OW12007   1.910   5.786   5.714 -0.4250 -0.8320  0.4589
 3059SOL    HW212008   1.917   5.692   5.731  1.7528 -0.9240 -0.5928
 3059SOL    HW312009   1.885   5.792   5.622  0.7911 -0.4047  0.1433
 3059SOL    MW412010   1.907   5.774   5.704  0.0228 -0.7877  0.2785
 3060SOL     OW12011   1.568   4.005   2.785 -0.1204  0.4594 -0.0421
 3060SOL    HW212012   1.661   4.022   2.774 -0.3049  0.8175 -1.1743
 3060SOL    HW312013   1.564   3.926   2.839  0.8214  0.6757  0.3573
 3060SOL    MW412014   1.580   3.997   2.791 -0.0204  0.5352 -0.1388
 3061SOL     OW12015   4.874   3.871   3.900  0.2123  0.4515 -0.2519
 3061SOL    HW212016   4.851   3.782   3.927  0.1555  0.3755 -0.5528
 3061SOL    HW312017   4.901   3.863   3.809 -1.4027  0.9932 -0.8125
 3061SOL    MW412018   4.874   3.858   3.891 -0.0083  0.5130 -0.3655
 3062SOL     OW12019   5.850   1.644   4.282  0.1273  0.0256  0.0910
 3062SOL    HW212020   5.897   1.662   4.364  0.0671  1.1127 -0.1076
 3062SOL    HW312021   5.758   1.637   4.308  0.2183 -0.6867  0.2603
 3062SOL    MW412022   5.844   1.645   4.296  0.1314  0.0751  0.0871
 3063SOL     OW12023   2.528   6.091   3.766  0.0308  0.0189  0.2071
 3063SOL    HW212024   2.521   5.997   3.782 -1.6523  0.1462  0.3340
 3063SOL    HW312025   2.566   6.126   3.847  2.4860 -0.7201 -0.5167
 3063SOL    MW412026   2.532   6.083   3.779  0.1327 -0.0618  0.1284
 3064SOL     OW12027   4.517   5.955   4.469 -0.6315 -0.0287  0.0717
 3064SOL    HW212028   4.583   5.900   4.511 -0.5803 -0.4400 -0.5508
 3064SOL    HW312029   4.502   5.915   4.384 -1.2138  0.4340 -0.0507
 3064SOL    MW412030   4.523   5.942   4.464 -0.7016 -0.0220 -0.0266
 3065SOL     OW12031   2.232   1.092   0.700 -0.2985 -0.8242  0.1246
 3065SOL    HW212032   2.262   1.134   0.619 -0.3813 -0.4534  0.2814
 3065SOL    HW312033   2.202   1.165   0.754  1.1204 -0.9043  1.0791
 3065SOL    MW412034   2.232   1.107   0.696 -0.1222 -0.7858  0.2712
 3066SOL     OW12035   4.888   2.460   0.846 -0.2200 -1.0248  0.4037
 3066SOL    HW212036   4.941   2.539   0.842  0.0873 -1.2245  0.4890
 3066SOL    HW312037   4.801   2.488   0.818  0.2557 -0.9747 -1.1556
 3066SOL    MW412038   4.883   2.474   0.842 -0.1167 -1.0446  0.2092
 3067SOL     OW12039   3.331   5.634   0.362  0.9011  0.6491  0.0041
 3067SOL    HW212040   3.375   5.629   0.447  0.4726  2.3467  0.3779
 3067SOL    HW312041   3.252   5.580   0.372  2.1568 -1.3117 -0.2301
 3067SOL    MW412042   3.326   5.626   0.374  1.0103  0.6144  0.0226
 3068SOL     OW12043   5.131   3.022   6.230  0.6053  0.1395  0.6070
 3068SOL    HW212044   5.038   3.039   6.241  0.5369  0.1104  0.1205
 3068SOL    HW312045   5.135   2.943   6.177  0.8749  0.9508 -0.6395
 3068SOL    MW412046   5.119   3.014   6.224  0.6319  0.2427  0.3783
 3069SOL     OW12047   3.742   2.147   0.906  0.5816  0.0169  0.1160
 3069SOL    HW212048   3.756   2.205   0.981 -1.8719 -0.8605  1.3682
 3069SOL    HW312049   3.691   2.199   0.844  1.0310  0.1565 -0.1405
 3069SOL    MW412050   3.737   2.161   0.908  0.3172 -0.0805  0.2474
 3070SOL     OW12051   1.417   2.636   3.248  0.1506 -0.3494  0.2806
 3070SOL    HW212052   1.501   2.616   3.207  1.2795  0.1458  2.2133
 3070SOL    HW312053   1.383   2.552   3.279  0.4444 -0.4235  0.3986
 3070SOL    MW412054   1.423   2.622   3.247  0.3383 -0.2938  0.5512
 3071SOL     OW12055   0.674   1.620   0.414 -0.1368 -0.4097  0.0765
 3071SOL    HW212056   0.739   1.579   0.358  1.9970  2.2387  0.4462
 3071SOL    HW312057   0.621   1.673   0.355 -0.8167 -1.0951  0.0415
 3071SOL    MW412058   0.675   1.621   0.399  0.0550 -0.1507  0.1207
 3072SOL     OW12059   3.765   2.856   4.414  0.0164 -0.0429  0.2039
 3072SOL    HW212060   3.705   2.785   4.392  1.2294 -0.7711 -0.8641
 3072SOL    HW312061   3.838   2.846   4.354  1.1602  0.9224  1.3642
 3072SOL    MW412062   3.767   2.846   4.403  0.3273 -0.0116  0.2161
 3073SOL     OW12063   2.725   1.803   2.966  0.5871 -0.5501  0.1431
 3073SOL    HW212064   2.767   1.733   2.915  0.8336 -2.0902  2.3290
 3073SOL    HW312065   2.638   1.769   2.987 -0.1867  0.8165 -0.6832
 3073SOL    MW412066   2.719   1.789   2.962  0.5176 -0.5730  0.3225
 3074SOL     OW12067   2.120   1.189   5.966 -0.1526 -0.5014 -0.3603
 3074SOL    HW212068   2.203   1.215   6.007 -0.2330  0.7845 -0.9661
 3074SOL    HW312069   2.102   1.103   6.002  2.4775 -1.7372 -1.7121
 3074SOL    MW412070   2.129   1.181   5.976  0.1838 -0.4948 -0.6185
 3075SOL     OW12071   5.130   0.472   1.396  0.1052 -0.8515  0.0516
 3075SOL    HW212072   5.093   0.388   1.369 -0.1423 -1.0319  0.9243
 3075SOL    HW312073   5.061   0.535   1.376  0.2152 -0.8762 -0.4233
 3075SOL    MW412074   5.116   0.469   1.390  0.0871 -0.8786  0.1041
 3076SOL     OW12075   0.068   1.212   4.162 -0.0857  0.6043 -0.3410
 3076SOL    HW212076  -0.013   1.168   4.186 -0.7887  2.0515  0.0431
 3076SOL    HW312077   0.132   1.141   4.152 -1.4301 -0.5835 -0.8626
 3076SOL    MW412078   0.066   1.197   4.164 -0.3559  0.6385 -0.3591
 3077SOL     OW12079   3.068   4.813   2.253  0.6580 -0.0670 -0.0728
 3077SOL    HW212080   3.129   4.743   2.230  0.6313 -0.5625  1.2818
 3077SOL    HW312081   2.986   4.789   2.210  1.2029  0.2296 -1.3140
 3077SOL    MW412082   3.065   4.800   2.244  0.7264 -0.0932 -0.0579
 3078SOL     OW12083   1.401   4.075   3.985 -0.5352  0.3245 -0.1582
 3078SOL    HW212084   1.373   3.999   4.037  0.3433  1.0111  1.4050
 3078SOL    HW312085   1.451   4.037   3.913 -1.0669 -0.6279 -0.0493
 3078SOL    MW412086   1.404   4.060   3.983 -0.4895  0.2894  0.0624
 3079SOL     OW12087   3.544   4.047   0.306  0.1548 -0.1144  0.4026
 3079SOL    HW212088   3.485   4.003   0.245  0.0717  1.9388 -1.1304
 3079SOL    HW312089   3.631   4.035   0.269  0.1256  0.9756 -0.0625
 3079SOL    MW412090   3.547   4.040   0.293  0.1400  0.3003  0.1390
 3080SOL     OW12091   2.179   6.331   1.402  0.0592 -0.0748  0.1531
 3080SOL    HW212092   2.217   6.416   1.382 -0.9368  0.9158  2.2160
 3080SOL    HW312093   2.255   6.273   1.410  0.7146  0.4001 -1.9439
 3080SOL    MW412094   2.194   6.334   1.401  0.0143  0.1185  0.1486
 3081SOL     OW12095   0.283   3.128   5.027 -0.4158  0.0593 -0.1189
 3081SOL    HW212096   0.361   3.127   5.083 -0.3927 -0.7364 -0.1575
 3081SOL    HW312097   0.310   3.081   4.948 -0.3108  1.5369 -1.0034
 3081SOL    MW412098   0.297   3.122   5.024 -0.3989  0.1493 -0.2407
 3082SOL     OW12099   2.851   5.847   3.153 -0.4670  0.3219 -0.0394
 3082SOL    HW212100   2.815   5.931   3.181 -0.9720  0.0584  0.1207
 3082SOL    HW312101   2.853   5.851   3.058 -1.4058  0.1491 -0.0716
 3082SOL    MW412102   2.847   5.858   3.144 -0.6575  0.2644 -0.0225
 3083SOL     OW12103   0.428   1.537   3.355 -0.1614  0.6549 -0.5527
 3083SOL    HW212104   0.471   1.594   3.291  1.7777 -0.8767 -0.7194
 3083SOL    HW312105   0.498   1.513   3.416 -1.7900  1.4866  1.7801
 3083SOL    MW412106   0.443   1.542   3.355 -0.1205  0.5626 -0.2669
 3084SOL     OW12107   0.901   3.216   1.737 -0.1263  0.1738 -0.5584
 3084SOL    HW212108   0.960   3.255   1.672  1.0253 -0.7269 -0.1058
 3084SOL    HW312109   0.814   3.221   1.698  0.1362  2.0967 -1.0048
 3084SOL    MW412110   0.898   3.222   1.723  0.0602  0.3086 -0.5576
 3085SOL     OW12111   1.498   2.577   4.078 -0.0260  0.7027  0.2580
 3085SOL    HW212112   1.527   2.667   4.067 -2.1128  1.4586  0.4260
 3085SOL    HW312113   1.504   2.561   4.172  0.2507  0.7087  0.2405
 3085SOL    MW412114   1.502   2.587   4.089 -0.2648  0.8032  0.2779
 3086SOL     OW12115   0.026   6.337   0.743  0.0314 -0.2206 -0.1633
 3086SOL    HW212116   0.086   6.396   0.789 -2.1292  1.7191  0.3642
 3086SOL    HW312117   0.002   6.271   0.809 -0.0093  0.2426  0.2980
 3086SOL    MW412118   0.030   6.336   0.758 -0.2590  0.0964 -0.0328
 3087SOL     OW12119   2.645   2.540   2.787 -0.0936  0.2554 -0.2778
 3087SOL    HW212120   2.578   2.500   2.733  0.0027 -0.1176 -0.1263
 3087SOL    HW312121   2.728   2.510   2.748 -0.0201 -1.1833  0.9086
 3087SOL    MW412122   2.647   2.531   2.775 -0.0712  0.0164 -0.1012
 3088SOL     OW12123   4.870   3.125   5.418  0.0266  0.7426  0.2137
 3088SOL    HW212124   4.811   3.173   5.359  0.2270  0.1621 -0.4734
 3088SOL    HW312125   4.817   3.108   5.496 -0.4645  0.9251 -0.0729
 3088SOL    MW412126   4.855   3.129   5.420 -0.0118  0.6901  0.0852
 3089SOL     OW12127   3.453   4.113   5.902  0.1738  0.6222  0.7590
 3089SOL    HW212128   3.452   4.117   5.997 -1.9126  0.0497  0.8199
 3089SOL    HW312129   3.391   4.044   5.880  0.3533  0.9645 -1.0238
 3089SOL    MW412130   3.444   4.105   5.911 -0.0778  0.5918  0.5318
 3090SOL     OW12131   3.761   3.428   4.388 -0.9990 -0.5956  0.2216
 3090SOL    HW212132   3.781   3.460   4.476 -2.0840  0.8150 -0.0006
 3090SOL    HW312133   3.775   3.333   4.393 -1.3635 -0.5966  2.0129
 3090SOL    MW412134   3.765   3.419   4.400 -1.1903 -0.4096  0.4286
 3091SOL     OW12135   1.510   3.467   5.672 -0.3154  0.0430  0.1330
 3091SOL    HW212136   1.600   3.499   5.669 -0.1352 -0.5033 -2.3452
 3091SOL    HW312137   1.471   3.496   5.590 -2.7802  1.1714  1.6062
 3091SOL    MW412138   1.517   3.475   5.661 -0.6168  0.1198  0.0004
 3092SOL     OW12139   5.915   3.689   0.507  0.2306 -0.4401 -0.5222
 3092SOL    HW212140   5.913   3.702   0.412  1.6386  0.9629 -0.3925
 3092SOL    HW312141   5.889   3.774   0.543  0.3394 -0.7749  0.3560
 3092SOL    MW412142   5.911   3.702   0.499  0.4307 -0.2991 -0.3892
 3093SOL     OW12143   1.331   1.981   1.403 -0.0630 -0.3577 -0.6070
 3093SOL    HW212144   1.389   1.918   1.362  0.6205  0.2477 -0.5957
 3093SOL    HW312145   1.387   2.057   1.422 -0.1588 -0.8482  2.0902
 3093SOL    MW412146   1.346   1.983   1.400  0.0146 -0.3425 -0.2497
 3094SOL     OW12147   5.261   1.032   0.279  0.1874  0.2530  0.1139
 3094SOL    HW212148   5.273   0.974   0.354  0.9561 -0.9216 -0.8878
 3094SOL    HW312149   5.201   1.100   0.311  2.2127  1.0651  2.4571
 3094SOL    MW412150   5.255   1.033   0.293  0.5561  0.2052  0.2909
 3095SOL     OW12151   1.987   0.197   5.621 -0.0477  0.3471  0.2841
 3095SOL    HW212152   1.982   0.168   5.530  0.6296 -0.1672  0.4056
 3095SOL    HW312153   2.068   0.246   5.627 -0.3092  0.7615  0.5125
 3095SOL    MW412154   1.997   0.200   5.610  0.0072  0.3339  0.3302
 3096SOL     OW12155   4.483   0.870   5.351 -0.6759  0.4619  0.6171
 3096SOL    HW212156   4.394   0.886   5.381 -1.1072  1.6892 -1.1696
 3096SOL    HW312157   4.505   0.947   5.299  1.7937  0.6263  1.7556
 3096SOL    MW412158   4.474   0.882   5.348 -0.4070  0.6455  0.5315
 3097SOL     OW12159   2.787   5.931   5.939  0.1400  0.7852  0.6342
 3097SOL    HW212160   2.727   6.003   5.961 -0.8536 -0.0296  0.6534
 3097SOL    HW312161   2.834   5.914   6.020 -0.8315  0.3024  1.1146
 3097SOL    MW412162   2.785   5.938   5.953 -0.1193  0.6140  0.7002
 3098SOL     OW12163   6.419   0.925   5.617 -0.3253  0.0774  0.5856
 3098SOL    HW212164   6.433   0.977   5.696 -2.5570 -2.3974  2.8221
 3098SOL    HW312165   6.354   0.975   5.567  0.1382  1.0669  0.9643
 3098SOL    MW412166   6.412   0.938   5.621 -0.5586 -0.1186  0.9307
 3099SOL     OW12167   1.978   2.841   6.203  0.2522 -0.2703  0.3685
 3099SOL    HW212168   2.004   2.812   6.290  2.6585  1.3302  0.2758
 3099SOL    HW312169   2.043   2.803   6.144  1.3048  2.1862 -0.1641
 3099SOL    MW412170   1.990   2.832   6.206  0.7086  0.2650  0.2860
 3100SOL     OW12171   6.141   0.062   1.095  0.2455 -0.2752  0.1644
 3100SOL    HW212172   6.144   0.031   1.185  4.0325 -2.6659 -0.5742
 3100SOL    HW312173   6.090  -0.004   1.048  0.7410 -0.5932  0.0737
 3100SOL    MW412174   6.135   0.049   1.101  0.8105 -0.6326  0.0550
 3101SOL     OW12175   3.943   3.148   5.080  0.0359 -0.7552  0.0013
 3101SOL    HW212176   3.935   3.219   5.016  0.3197 -0.9310 -0.2298
 3101SOL    HW312177   3.907   3.072   5.036 -0.0795 -0.8023  0.1748
 3101SOL    MW412178   3.937   3.148   5.066  0.0581 -0.7846 -0.0063
 3102SOL     OW12179   1.081   2.505   3.752  0.1759 -0.2291 -0.0682
 3102SOL    HW212180   1.094   2.477   3.842 -0.6298  0.7869  0.3858
 3102SOL    HW312181   1.170   2.510   3.715  0.5824  0.2303  0.9445
 3102SOL    MW412182   1.095   2.502   3.759  0.1232 -0.0344  0.1253
 3103SOL     OW12183   0.319   5.730   0.706 -0.1861  0.1039  0.8679
 3103SOL    HW212184   0.401   5.741   0.658 -0.6896  1.5258  0.2984
 3103SOL    HW312185   0.339   5.661   0.771  1.1922 -0.1748  0.1997
 3103SOL    MW412186   0.333   5.722   0.708 -0.0706  0.2548  0.7046
 3104SOL     OW12187   3.394   1.954   2.985 -0.2631 -0.5265  0.4157
 3104SOL    HW212188   3.430   1.902   3.057  0.1197  1.0530  1.3995
 3104SOL    HW312189   3.470   1.987   2.938 -0.4888 -0.2506  0.2376
 3104SOL    MW412190   3.409   1.951   2.988 -0.2424 -0.2817  0.5220
 3105SOL     OW12191   4.951   0.560   6.309  0.0998  0.5380 -0.5848
 3105SOL    HW212192   4.957   0.492   6.242  0.4295  1.2531 -1.3007
 3105SOL    HW312193   4.994   0.636   6.270  0.1130  1.0345  0.3622
 3105SOL    MW412194   4.958   0.561   6.295  0.1450  0.6979 -0.5543
 3106SOL     OW12195   6.162   1.798   4.195  0.9697 -0.4664  0.5455
 3106SOL    HW212196   6.127   1.881   4.160 -1.1534 -1.8761 -0.9220
 3106SOL    HW312197   6.252   1.794   4.160  0.3834  0.2565 -1.1797
 3106SOL    MW412198   6.170   1.809   4.186  0.6122 -0.5570  0.1242
 3107SOL     OW12199   1.584   4.565   4.494 -0.2208 -0.1897  0.0227
 3107SOL    HW212200   1.525   4.613   4.436 -1.6765 -0.4415  1.2279
 3107SOL    HW312201   1.620   4.632   4.552  0.4564 -0.0761 -0.5269
 3107SOL    MW412202   1.581   4.580   4.494 -0.3235 -0.2079  0.1092
 3108SOL     OW12203   2.257   4.738   2.161  0.3485 -0.3542  0.1918
 3108SOL    HW212204   2.329   4.707   2.106 -0.2184 -1.5075  0.0513
 3108SOL    HW312205   2.271   4.694   2.245  0.3531  0.1963  0.4837
 3108SOL    MW412206   2.268   4.728   2.165  0.2743 -0.4337  0.2118
 3109SOL     OW12207   1.123   1.202   0.530  0.4777 -0.2260  0.2082
 3109SOL    HW212208   1.213   1.208   0.499  0.9737 -0.9515  1.4197
 3109SOL    HW312209   1.103   1.289   0.565  0.6627 -0.0280 -0.1789
 3109SOL    MW412210   1.132   1.214   0.531  0.5676 -0.2956  0.3170
 3110SOL     OW12211   4.814   4.095   4.520 -0.1616  0.1366  0.2263
 3110SOL    HW212212   4.885   4.037   4.548  0.3481  0.9770  0.7104
 3110SOL    HW312213   4.810   4.084   4.425  1.0192  0.5218  0.1185
 3110SOL    MW412214   4.823   4.086   4.511  0.0614  0.2983  0.2759
 3111SOL     OW12215   0.219   6.219   1.193  0.4046 -0.6644  0.1015
 3111SOL    HW212216   0.256   6.197   1.107  0.8603  0.5674 -0.0367
 3111SOL    HW312217   0.155   6.287   1.175  1.6359  0.7602  0.8891
 3111SOL    MW412218   0.216   6.225   1.179  0.6272 -0.3139  0.1872
 3112SOL     OW12219   3.554   2.407   2.013  0.6649 -0.5082 -0.0404
 3112SOL    HW212220   3.596   2.328   2.048  1.0410 -0.4837 -0.4242
 3112SOL    HW312221   3.460   2.388   2.016  0.6991 -0.6090  0.7236
 3112SOL    MW412222   3.547   2.394   2.018  0.7191 -0.5182  0.0098
 3113SOL     OW12223   1.542   4.867   1.869  0.4902  0.3451 -0.0001
 3113SOL    HW212224   1.479   4.936   1.889  0.8003  0.8441 -0.6960
 3113SOL    HW312225   1.609   4.874   1.937 -0.3329 -0.3683  0.9053
 3113SOL    MW412226   1.542   4.877   1.880  0.4225  0.3168  0.0276
 3114SOL     OW12227   0.688   1.128   3.252 -0.0920  0.2945 -0.6788
 3114SOL    HW212228   0.681   1.196   3.185 -0.0750  1.1275  0.1491
 3114SOL    HW312229   0.710   1.048   3.203 -0.0663  0.8902 -1.6570
 3114SOL    MW412230   0.690   1.126   3.237 -0.0864  0.4830 -0.6986
 3115SOL     OW12231   3.393   3.412   2.776  0.1028 -0.2931  0.0594
 3115SOL    HW212232   3.453   3.414   2.702  0.3184 -0.2982  0.2331
 3115SOL    HW312233   3.306   3.416   2.737  0.2310  1.2648 -0.1216
 3115SOL    MW412234   3.389   3.413   2.761  0.1481 -0.0883  0.0585
 3116SOL     OW12235   5.366   4.065   2.972  0.4205  0.0040  0.0582
 3116SOL    HW212236   5.305   4.059   2.898  0.0870  1.1488  0.2199
 3116SOL    HW312237   5.369   4.158   2.993  1.8938 -0.0815  0.3402
 3116SOL    MW412238   5.359   4.076   2.965  0.5709  0.1438  0.1167
 3117SOL     OW12239   5.636   1.198   5.916  0.0506 -0.2584  0.5277
 3117SOL    HW212240   5.569   1.266   5.922  3.0862  3.4216 -2.3135
 3117SOL    HW312241   5.684   1.204   5.999 -1.9818 -1.8411  1.9198
 3117SOL    MW412242   5.633   1.208   5.928  0.1829  0.0183  0.3365
 3118SOL     OW12243   6.235   0.156   0.273  0.2612  0.0697 -0.4110
 3118SOL    HW212244   6.327   0.183   0.269  0.5215 -0.9059 -1.8050
 3118SOL    HW312245   6.230   0.100   0.351  1.3933 -1.5871 -1.4377
 3118SOL    MW412246   6.247   0.152   0.283  0.4449 -0.2776 -0.7304
 3119SOL     OW12247   1.631   1.688   5.592  0.0232  0.0406  0.4672
 3119SOL    HW212248   1.717   1.727   5.608 -1.3905  2.8722  2.1014
 3119SOL    HW312249   1.611   1.641   5.673 -1.1211  1.9833  1.3914
 3119SOL    MW412250   1.640   1.687   5.605 -0.3143  0.6705  0.8048
 3120SOL     OW12251   2.798   0.826   2.155  0.1354 -0.1482  0.0120
 3120SOL    HW212252   2.765   0.811   2.067 -2.9245 -0.4126  1.0888
 3120SOL    HW312253   2.855   0.751   2.172 -0.7153 -1.0904 -1.1003
 3120SOL    MW412254   2.801   0.814   2.146 -0.3806 -0.3074  0.0074
 3121SOL     OW12255   5.458   2.260   1.519  0.5069  0.2806  0.0910
 3121SOL    HW212256   5.454   2.180   1.467 -0.1362 -0.5874  1.4165
 3121SOL    HW312257   5.548   2.262   1.553 -0.1083 -1.2125  1.9886
 3121SOL    MW412258   5.470   2.250   1.517  0.3409 -0.0309  0.5162
 3122SOL     OW12259   4.605   3.580   5.164 -0.0914  0.2840 -0.6833
 3122SOL    HW212260   4.531   3.568   5.224  0.2197  1.2279 -0.0776
 3122SOL    HW312261   4.676   3.612   5.220 -0.6129  4.1004 -1.9036
 3122SOL    MW412262   4.605   3.582   5.179 -0.1191  0.9121 -0.7644
 3123SOL     OW12263   2.040   5.622   5.996  0.3697 -0.1477  0.1611
 3123SOL    HW212264   2.109   5.602   5.933  0.4737 -0.6831  0.4382
 3123SOL    HW312265   2.056   5.713   6.021  0.6034 -0.0778 -0.2434
 3123SOL    MW412266   2.051   5.632   5.991  0.4143 -0.2091  0.1443
 3124SOL     OW12267   4.614   2.004   6.216 -0.0969 -0.0476  0.2736
 3124SOL    HW212268   4.693   1.986   6.267  0.7643 -1.1795 -1.3694
 3124SOL    HW312269   4.579   1.918   6.193 -0.7944  0.4298 -0.5398
 3124SOL    MW412270   4.620   1.990   6.220 -0.0753 -0.1340 -0.0505
 3125SOL     OW12271   0.185   0.972   0.242 -0.4368 -0.5690  0.3076
 3125SOL    HW212272   0.117   1.038   0.252 -0.1212  0.1143 -1.5393
 3125SOL    HW312273   0.260   1.008   0.289 -0.4171  0.1643 -0.2733
 3125SOL    MW412274   0.186   0.986   0.249 -0.3925 -0.3821 -0.0127
 3126SOL     OW12275   5.043   5.412   2.864 -0.5962 -0.4069  0.7568
 3126SOL    HW212276   5.049   5.435   2.957 -0.6513 -1.2283  0.9733
 3126SOL    HW312277   5.068   5.320   2.861 -0.8863 -0.4653 -0.0079
 3126SOL    MW412278   5.047   5.403   2.876 -0.6418 -0.5230  0.6845
 3127SOL     OW12279   5.742   0.257   3.995  0.3572 -0.5309 -0.2784
 3127SOL    HW212280   5.767   0.323   4.060  1.4764 -0.7979 -0.4201
 3127SOL    HW312281   5.648   0.272   3.981  0.9087  2.2418 -1.6433
 3127SOL    MW412282   5.733   0.268   4.002  0.5776 -0.2003 -0.4772
 3128SOL     OW12283   2.233   6.468   3.232  0.4724 -0.3751 -0.1216
 3128SOL    HW212284   2.222   6.374   3.216 -1.4601 -0.8218  2.8933
 3128SOL    HW312285   2.160   6.509   3.186  2.2624 -0.0234 -2.8686
 3128SOL    MW412286   2.222   6.461   3.224  0.4536 -0.3876 -0.0863
 3129SOL     OW12287   1.616   5.226   3.057  0.0796  0.3981  0.5126
 3129SOL    HW212288   1.665   5.209   3.138  0.5291 -0.2558  0.1218
 3129SOL    HW312289   1.599   5.138   3.022 -1.5980  0.6031  0.7559
 3129SOL    MW412290   1.620   5.212   3.063 -0.0824  0.3389  0.4931
 3130SOL     OW12291   3.103   2.295   5.524 -0.2713  0.5101  0.5659
 3130SOL    HW212292   3.107   2.391   5.530  1.7354  0.6071 -1.1764
 3130SOL    HW312293   3.051   2.278   5.446 -0.0601  0.1976  0.4921
 3130SOL    MW412294   3.097   2.305   5.514  0.0213  0.4817  0.3263
 3131SOL     OW12295   5.814   3.968   3.270  0.1100  0.2048  0.3857
 3131SOL    HW212296   5.759   3.911   3.325 -1.2018  3.3991  2.6885
 3131SOL    HW312297   5.753   4.005   3.206 -0.0290  2.0856  1.5479
 3131SOL    MW412298   5.799   3.965   3.269 -0.0814  0.8744  0.8429
 3132SOL     OW12299   3.841   2.786   6.099  0.3090  0.2225 -0.6988
 3132SOL    HW212300   3.823   2.806   6.191  0.6099  0.5314 -0.7014
 3132SOL    HW312301   3.885   2.865   6.067  0.1211  0.1502 -1.1298
 3132SOL    MW412302   3.845   2.799   6.107  0.3240  0.2537 -0.7560
 3133SOL     OW12303   3.366   5.915   1.811  0.7151  0.5423  0.2338
 3133SOL    HW212304   3.342   5.885   1.899  0.3663  1.9390  0.6354
 3133SOL    HW312305   3.317   5.996   1.799 -0.9646 -0.7212 -2.1274
 3133SOL    MW412306   3.356   5.922   1.821  0.4475  0.5599 -0.0247
 3134SOL     OW12307   5.826   5.641   2.187 -0.0211  0.0964 -0.1067
 3134SOL    HW212308   5.899   5.699   2.209  1.5907 -2.0647  0.5974
 3134SOL    HW312309   5.753   5.700   2.169  1.7956  2.3583 -0.5400
 3134SOL    MW412310   5.826   5.656   2.188  0.4313  0.1097 -0.0710
 3135SOL     OW12311   2.711   3.932   2.122  0.3139  0.2051 -0.3922
 3135SOL    HW212312   2.792   3.901   2.080 -0.6904 -2.6933 -0.4003
 3135SOL    HW312313   2.644   3.919   2.055 -0.8191 -1.5840  1.0051
 3135SOL    MW412314   2.713   3.926   2.107  0.0319 -0.4134 -0.2089
 3136SOL     OW12315   0.010   4.698   4.126 -0.3058 -0.1873  0.5256
 3136SOL    HW212316   0.040   4.750   4.200  0.4511 -0.9430  0.7584
 3136SOL    HW312317  -0.021   4.616   4.164 -0.9646 -0.1397  0.1074
 3136SOL    MW412318   0.010   4.694   4.140 -0.2928 -0.2807  0.5012
 3137SOL     OW12319   1.650   1.465   1.627 -0.3034  0.2569 -0.1179
 3137SOL    HW212320   1.637   1.373   1.607 -1.4336  0.0041  1.5640
 3137SOL    HW312321   1.634   1.471   1.721 -0.0503  2.1330 -0.1639
 3137SOL    MW412322   1.646   1.454   1.637 -0.4191  0.4711  0.0980
 3138SOL     OW12323   5.093   0.653   0.350  0.1315 -0.0543  0.0680
 3138SOL    HW212324   4.999   0.645   0.369 -0.3672  0.5858 -1.9333
 3138SOL    HW312325   5.104   0.615   0.263  2.0155 -1.3989  0.8169
 3138SOL    MW412326   5.082   0.647   0.341  0.3143 -0.1472 -0.0972
 3139SOL     OW12327   1.194   0.501   4.114  0.3610 -0.3434 -0.0141
 3139SOL    HW212328   1.153   0.519   4.198 -0.3190 -0.3273 -0.3438
 3139SOL    HW312329   1.287   0.494   4.134  0.2314 -0.1104  0.7015
 3139SOL    MW412330   1.201   0.503   4.127  0.2542 -0.3106  0.0368
 3140SOL     OW12331   6.363   5.959   4.598 -0.4934  0.2728  0.6031
 3140SOL    HW212332   6.396   6.031   4.543 -2.3574  1.5680  1.0624
 3140SOL    HW312333   6.277   5.989   4.626 -0.8218 -1.6628  1.8214
 3140SOL    MW412334   6.356   5.973   4.594 -0.7826  0.1883  0.8244
 3141SOL     OW12335   2.850   2.426   0.167  0.1932 -0.2577 -0.0100
 3141SOL    HW212336   2.847   2.462   0.255 -0.0896 -0.5468  0.1007
 3141SOL    HW312337   2.798   2.487   0.114  0.9765  0.3214 -0.1313
 3141SOL    MW412338   2.843   2.439   0.172  0.2593 -0.2194 -0.0114
 3142SOL     OW12339   0.544   4.858   3.637 -0.3022  0.1987  0.4122
 3142SOL    HW212340   0.449   4.862   3.627 -0.2219 -0.2174 -0.6900
 3142SOL    HW312341   0.575   4.818   3.555  0.7344 -0.6128  1.1727
 3142SOL    MW412342   0.535   4.853   3.625 -0.1548  0.0367  0.3671
 3143SOL     OW12343   2.950   5.207   5.621 -1.0564  0.7237  0.6636
 3143SOL    HW212344   2.937   5.181   5.530 -1.1905 -0.2424  0.9386
 3143SOL    HW312345   2.945   5.124   5.670  0.8191  0.9763  1.3496
 3143SOL    MW412346   2.948   5.192   5.615 -0.8266  0.6296  0.7904
 3144SOL     OW12347   0.577   0.091   6.219  0.0511  0.6044 -0.1425
 3144SOL    HW212348   0.534   0.029   6.277 -2.1316  0.9103 -1.3377
 3144SOL    HW312349   0.541   0.176   6.242 -0.0501  0.8732 -1.2210
 3144SOL    MW412350   0.567   0.094   6.230 -0.2502  0.6802 -0.4425
 3145SOL     OW12351   3.936   2.417   0.684 -0.6384  0.0882 -0.0451
 3145SOL    HW212352   4.022   2.415   0.642 -0.9177  0.1488 -0.6403
 3145SOL    HW312353   3.952   2.452   0.771  0.0687 -0.7279  0.1725
 3145SOL    MW412354   3.949   2.421   0.690 -0.5820 -0.0114 -0.0949
 3146SOL     OW12355   0.185   4.737   3.211  0.0235 -0.1230  0.3154
 3146SOL    HW212356   0.237   4.692   3.277 -1.0086 -2.4135 -0.3058
 3146SOL    HW312357   0.240   4.809   3.181  1.2143 -0.0963  2.3768
 3146SOL    MW412358   0.199   4.741   3.216  0.0444 -0.4217  0.5054
 3147SOL     OW12359   0.309   0.055   5.800  0.1275  0.2576  0.3998
 3147SOL    HW212360   0.306   0.078   5.893  1.7981  1.8690  0.1131
 3147SOL    HW312361   0.247  -0.017   5.791 -1.1001  0.9723  2.4982
 3147SOL    MW412362   0.301   0.049   5.811  0.1860  0.5645  0.6388
 3148SOL     OW12363   5.916   2.961   5.334 -0.6707 -0.1586 -0.3195
 3148SOL    HW212364   5.931   2.869   5.354  0.8308  0.3026  0.9050
 3148SOL    HW312365   5.976   3.008   5.392 -0.5703  1.5430 -1.7234
 3148SOL    MW412366   5.926   2.955   5.344 -0.4594  0.1268 -0.3432
 3149SOL     OW12367   3.198   0.201   0.548 -0.1549  0.2548  0.1809
 3149SOL    HW212368   3.173   0.109   0.535  0.3416 -0.3034  2.6466
 3149SOL    HW312369   3.121   0.242   0.586  0.4025  0.2139  1.4033
 3149SOL    MW412370   3.185   0.194   0.551 -0.0159  0.1758  0.6675
 3150SOL     OW12371   4.638   6.450   0.952 -0.4821  0.7134 -0.2487
 3150SOL    HW212372   4.692   6.494   0.886 -0.1452  0.3422 -0.2258
 3150SOL    HW312373   4.619   6.519   1.016  0.4363  0.7226  0.0297
 3150SOL    MW412374   4.643   6.465   0.952 -0.3165  0.6656 -0.2090
 3151SOL     OW12375   2.624   4.729   5.121  0.1794  0.0675  0.2624
 3151SOL    HW212376   2.583   4.726   5.035 -0.6385 -3.9105  0.6195
 3151SOL    HW312377   2.554   4.755   5.180 -0.0468 -0.1095  0.0751
 3151SOL    MW412378   2.609   4.732   5.117  0.0417 -0.4807  0.2848
 3152SOL     OW12379   6.283   0.319   0.701  0.4810 -0.4107 -0.0942
 3152SOL    HW212380   6.239   0.291   0.781  1.5758 -2.2323 -0.0566
 3152SOL    HW312381   6.242   0.402   0.678  0.2665  0.2708  2.4570
 3152SOL    MW412382   6.272   0.326   0.708  0.5972 -0.5611  0.2474
 3153SOL     OW12383   4.109   2.565   2.569  0.3870 -0.2631  0.0427
 3153SOL    HW212384   4.096   2.622   2.493 -2.5687 -0.5287  0.2491
 3153SOL    HW312385   4.079   2.617   2.643 -0.4222 -1.3615  0.5014
 3153SOL    MW412386   4.103   2.579   2.569 -0.1097 -0.4431  0.1304
 3154SOL     OW12387   3.848   2.226   2.315 -0.4166  0.0523 -0.3599
 3154SOL    HW212388   3.868   2.294   2.251  1.3824 -0.6299 -0.5662
 3154SOL    HW312389   3.882   2.259   2.398  0.6141 -0.6188 -0.4909
 3154SOL    MW412390   3.855   2.239   2.317 -0.0432 -0.1263 -0.4044
 3155SOL     OW12391   1.132   3.011   4.297 -0.4967  0.0087  0.3912
 3155SOL    HW212392   1.062   3.073   4.276 -0.3966 -0.7367 -2.5776
 3155SOL    HW312393   1.197   3.063   4.343 -1.6714  1.4255  0.5297
 3155SOL    MW412394   1.131   3.026   4.300 -0.6385  0.0973  0.0178
 3156SOL     OW12395   5.513   4.381   5.652 -1.0942 -0.1646 -0.0513
 3156SOL    HW212396   5.497   4.355   5.561 -1.7045 -0.6344  0.1855
 3156SOL    HW312397   5.482   4.472   5.656 -1.7821 -0.3893 -0.1278
 3156SOL    MW412398   5.506   4.390   5.640 -1.2655 -0.2563 -0.0301
 3157SOL     OW12399   2.208   1.351   0.835  0.0885  0.5576  0.1041
 3157SOL    HW212400   2.201   1.327   0.927 -0.7628 -1.5571 -0.4572
 3157SOL    HW312401   2.180   1.443   0.832  0.7212  0.8538  2.0033
 3157SOL    MW412402   2.203   1.360   0.846  0.0596  0.3177  0.2806
 3158SOL     OW12403   3.407   3.919   2.531  0.2109 -0.1872 -0.1401
 3158SOL    HW212404   3.443   3.909   2.442 -0.2256 -0.3328 -0.3056
 3158SOL    HW312405   3.406   3.831   2.566 -2.1958 -0.5914 -1.0265
 3158SOL    MW412406   3.412   3.906   2.524 -0.1642 -0.2598 -0.2789
 3159SOL     OW12407   0.811   0.937   3.093  0.1434  0.0077  0.2802
 3159SOL    HW212408   0.798   0.873   3.024 -2.3595 -1.3799  1.9040
 3159SOL    HW312409   0.906   0.950   3.096  0.4686 -1.3813 -2.0434
 3159SOL    MW412410   0.822   0.931   3.084 -0.1439 -0.3586  0.1879
 3160SOL     OW12411   0.458   2.659   1.062  0.1328 -0.2335  0.2298
 3160SOL    HW212412   0.530   2.701   1.108 -0.6935 -0.1122  1.4737
 3160SOL    HW312413   0.395   2.729   1.046 -1.1872 -0.8554  2.1850
 3160SOL    MW412414   0.459   2.674   1.066 -0.1504 -0.2996  0.6519
 3161SOL     OW12415   2.567   3.636   0.684 -0.4502 -0.1817 -0.4174
 3161SOL    HW212416   2.636   3.702   0.677  0.8035 -1.4126  0.0116
 3161SOL    HW312417   2.583   3.577   0.610 -0.3839 -1.0756  0.2963
 3161SOL    MW412418   2.578   3.637   0.673 -0.2760 -0.4620 -0.2666
 3162SOL     OW12419   6.299   3.125   0.868  0.1143  0.5182 -0.1632
 3162SOL    HW212420   6.253   3.140   0.951  1.0349  0.8458  0.3050
 3162SOL    HW312421   6.387   3.159   0.883  0.2211  0.8305 -1.3701
 3162SOL    MW412422   6.304   3.132   0.881  0.2498  0.6026 -0.2607
 3163SOL     OW12423   2.722   3.101   4.354  0.0825 -0.6452  0.3225
 3163SOL    HW212424   2.787   3.108   4.424 -0.3182 -3.9201  1.1910
 3163SOL    HW312425   2.770   3.124   4.275  1.0778  1.2585  1.4179
 3163SOL    MW412426   2.737   3.105   4.353  0.1609 -0.8261  0.5816
 3164SOL     OW12427   5.727   2.851   2.491  0.5406 -0.0246 -0.0753
 3164SOL    HW212428   5.727   2.909   2.415  1.3308 -1.9120 -1.6130
 3164SOL    HW312429   5.705   2.765   2.455  1.7213 -1.1365  1.6965
 3164SOL    MW412430   5.724   2.847   2.476  0.8006 -0.4203 -0.0444
 3165SOL     OW12431   5.432   3.619   0.588  0.5364  0.6283 -0.5484
 3165SOL    HW212432   5.386   3.538   0.564  0.4431  0.0941  1.3126
 3165SOL    HW312433   5.422   3.675   0.511 -0.8931 -0.4832 -1.2360
 3165SOL    MW412434   5.424   3.616   0.575  0.3355  0.4112 -0.3936
 3166SOL     OW12435   0.867   3.642   1.986 -0.1457 -0.2962  0.6084
 3166SOL    HW212436   0.912   3.578   2.043  0.9630  1.4500  1.7825
 3166SOL    HW312437   0.863   3.722   2.038  1.0094  1.4377 -1.7873
 3166SOL    MW412438   0.873   3.644   2.001  0.1530  0.1629  0.4472
 3167SOL     OW12439   2.504   5.097   5.347  0.2495 -0.0059  0.7183
 3167SOL    HW212440   2.592   5.118   5.377 -0.0430  0.9801  0.8989
 3167SOL    HW312441   2.446   5.130   5.416 -0.2723 -0.6646  0.6150
 3167SOL    MW412442   2.508   5.104   5.360  0.1420  0.0373  0.7285
 3168SOL     OW12443   0.789   5.806   4.509 -0.1372 -0.2358  0.0963
 3168SOL    HW212444   0.720   5.783   4.572  0.5743 -0.6466  0.7444
 3168SOL    HW312445   0.801   5.726   4.458  0.4133 -0.4303  0.5209
 3168SOL    MW412446   0.781   5.792   4.511  0.0293 -0.3156  0.2378
 3169SOL     OW12447   4.296   1.829   2.459  0.4022  0.0409  0.2826
 3169SOL    HW212448   4.248   1.881   2.394 -0.0434 -2.7249 -1.8212
 3169SOL    HW312449   4.236   1.758   2.481  1.6146 -0.5960  1.6668
 3169SOL    MW412450   4.282   1.826   2.453  0.5034 -0.4080  0.1877
 3170SOL     OW12451   0.639   4.761   4.846 -0.1628 -0.1337  0.7171
 3170SOL    HW212452   0.642   4.683   4.902  1.3678  0.6862  1.8737
 3170SOL    HW312453   0.725   4.802   4.859 -0.7726  1.5048 -0.1948
 3170SOL    MW412454   0.651   4.756   4.855 -0.0413  0.1906  0.7494
 3171SOL     OW12455   0.167   3.031   3.959 -0.3578 -0.2777 -0.5092
 3171SOL    HW212456   0.139   3.071   4.042 -2.7566 -0.1938 -1.2623
 3171SOL    HW312457   0.167   2.937   3.977 -0.3867 -0.2353 -0.2796
 3171SOL    MW412458   0.163   3.024   3.972 -0.6781 -0.2611 -0.5783
 3172SOL     OW12459   5.827   5.107   1.702  0.2046 -0.3044 -0.0097
 3172SOL    HW212460   5.822   5.018   1.665  0.8007  0.0262 -0.9173
 3172SOL    HW312461   5.916   5.112   1.738  0.5724  0.2826 -0.9536
 3172SOL    MW412462   5.838   5.096   1.702  0.3318 -0.1833 -0.2540
 3173SOL     OW12463   4.774   0.735   4.747 -0.5122  0.4537 -0.5385
 3173SOL    HW212464   4.769   0.659   4.805 -0.8434  1.6401  1.0576
 3173SOL    HW312465   4.684   0.765   4.739 -0.3622  0.7881 -1.0011
 3173SOL    MW412466   4.762   0.729   4.754 -0.5361  0.6543 -0.3889
 3174SOL     OW12467   5.865   3.538   1.603 -0.3145  0.5894 -0.2243
 3174SOL    HW212468   5.855   3.630   1.628  0.7552  0.6762 -0.1013
 3174SOL    HW312469   5.909   3.498   1.677 -2.1432 -0.3876  0.3995
 3174SOL    MW412470   5.869   3.545   1.616 -0.4146  0.4720 -0.1258
 3175SOL     OW12471   5.643   2.210   3.565 -0.0191 -0.3104 -0.1532
 3175SOL    HW212472   5.576   2.154   3.526  2.0326 -1.6005 -2.0881
 3175SOL    HW312473   5.655   2.281   3.502  2.0234 -1.4035 -1.1180
 3175SOL    MW412474   5.636   2.212   3.551  0.5211 -0.6248 -0.5358
 3176SOL     OW12475   2.223   6.341   5.482 -0.7325 -0.0043 -0.3853
 3176SOL    HW212476   2.314   6.372   5.490 -0.3278 -1.4914  1.2883
 3176SOL    HW312477   2.230   6.258   5.435 -0.6761 -2.0701  2.9562
 3176SOL    MW412478   2.236   6.334   5.477 -0.6717 -0.4730  0.2764
 3177SOL     OW12479   0.262   4.117   3.480 -0.5666 -0.1101 -1.0025
 3177SOL    HW212480   0.193   4.169   3.521 -0.1750 -0.0071 -0.4566
 3177SOL    HW312481   0.306   4.178   3.421 -0.3357  0.0899 -0.6304
 3177SOL    MW412482   0.259   4.132   3.478 -0.4844 -0.0702 -0.8814
 3178SOL     OW12483   2.920   4.757   1.267 -0.3448  0.6048 -0.2165
 3178SOL    HW212484   2.973   4.827   1.228  1.2380 -0.2160  0.3781
 3178SOL    HW312485   2.977   4.680   1.265 -2.0668 -0.7183 -0.9266
 3178SOL    MW412486   2.935   4.756   1.261 -0.3632  0.3219 -0.2317
 3179SOL     OW12487   1.496   4.728   5.300  0.4987  0.2841 -0.3944
 3179SOL    HW212488   1.436   4.716   5.373  0.0180 -0.4333 -0.8935
 3179SOL    HW312489   1.534   4.641   5.285  0.4081  0.3635 -1.1426
 3179SOL    MW412490   1.493   4.715   5.308  0.4233  0.1999 -0.5590
 3180SOL     OW12491   2.345   1.552   1.434 -0.2404 -0.3617 -0.1550
 3180SOL    HW212492   2.438   1.547   1.458 -0.3578  0.0802  0.4257
 3180SOL    HW312493   2.324   1.464   1.402  0.4921 -0.3338 -0.7314
 3180SOL    MW412494   2.355   1.539   1.433 -0.1593 -0.2998 -0.1544
 3181SOL     OW12495   0.114   5.640   0.180 -0.6540  0.0460 -0.2013
 3181SOL    HW212496   0.150   5.645   0.269 -0.2437 -2.0365 -0.2189
 3181SOL    HW312497   0.024   5.608   0.193 -1.1402  1.2160 -0.4720
 3181SOL    MW412498   0.107   5.637   0.194 -0.6640 -0.0744 -0.2393
 3182SOL     OW12499   4.551   1.144   5.245 -0.1611  0.2169 -0.2036
 3182SOL    HW212500   4.473   1.199   5.242 -0.8046 -0.4844  1.7981
 3182SOL    HW312501   4.621   1.203   5.274  0.8536  1.5290 -4.5663
 3182SOL    MW412502   4.550   1.159   5.249 -0.1122  0.2975 -0.5151
 3183SOL     OW12503   5.398   4.179   4.590  0.1934 -0.4973 -0.1543
 3183SOL    HW212504   5.436   4.091   4.590  0.7916 -0.2393 -0.1742
 3183SOL    HW312505   5.401   4.207   4.681  0.2444 -0.3964 -0.1863
 3183SOL    MW412506   5.403   4.171   4.602  0.2791 -0.4500 -0.1611
 3184SOL     OW12507   3.425   4.214   2.505  0.4590 -0.2725 -0.1563
 3184SOL    HW212508   3.423   4.119   2.519 -1.4280 -0.2734 -0.1680
 3184SOL    HW312509   3.374   4.250   2.578 -0.4457  0.5737 -1.1835
 3184SOL    MW412510   3.418   4.206   2.517  0.0907 -0.1610 -0.2934
 3185SOL     OW12511   0.946   2.612   4.381 -0.4287 -0.2225 -0.5634
 3185SOL    HW212512   0.977   2.535   4.332  0.4517 -0.3486  0.1767
 3185SOL    HW312513   0.912   2.671   4.313 -1.5710 -1.4450 -1.1118
 3185SOL    MW412514   0.945   2.609   4.365 -0.4632 -0.4004 -0.5381
 3186SOL     OW12515   2.115   5.661   2.007  0.4652 -0.2206  0.0131
 3186SOL    HW212516   2.151   5.649   2.095  0.1852 -0.2873  0.1207
 3186SOL    HW312517   2.168   5.604   1.952  2.3610  1.7476 -0.3318
 3186SOL    MW412518   2.127   5.652   2.011  0.6784  0.0303 -0.0182
 3187SOL     OW12519   6.008   4.430   5.615  0.1663  0.5677 -0.2332
 3187SOL    HW212520   6.085   4.379   5.641 -1.9917 -1.7059  2.2711
 3187SOL    HW312521   5.975   4.387   5.537 -0.2500 -0.3685  0.4487
 3187SOL    MW412522   6.014   4.418   5.608 -0.1733  0.1442  0.1872
 3188SOL     OW12523   5.913   0.522   5.822  0.0098 -0.0708 -0.0050
 3188SOL    HW212524   5.880   0.584   5.887  1.1323 -0.6404  1.1485
 3188SOL    HW312525   5.973   0.574   5.768  0.5554 -0.0207  0.6354
 3188SOL    MW412526   5.917   0.537   5.823  0.2299 -0.1394  0.2317
 3189SOL     OW12527   5.170   3.446   1.521 -0.0731  0.5794  0.2655
 3189SOL    HW212528   5.225   3.368   1.523 -0.1708  0.5166  1.2725
 3189SOL    HW312529   5.137   3.451   1.431 -0.1979 -0.6309  0.2382
 3189SOL    MW412530   5.173   3.437   1.509 -0.1024  0.4114  0.3948
 3190SOL     OW12531   3.702   5.339   4.831 -0.8384  0.4564  0.2286
 3190SOL    HW212532   3.608   5.351   4.840 -1.2731 -2.2466  0.2141
 3190SOL    HW312533   3.725   5.281   4.904  0.6905  0.4686 -0.2151
 3190SOL    MW412534   3.693   5.333   4.842 -0.6940  0.1014  0.1682
 3191SOL     OW12535   4.321   0.999   4.739 -0.5325  0.0594  0.5533
 3191SOL    HW212536   4.323   1.089   4.709  0.5915 -0.2856 -0.5357
 3191SOL    HW312537   4.372   0.999   4.820 -1.1482  0.5241  0.9379
 3191SOL    MW412538   4.328   1.011   4.746 -0.4654  0.0752  0.4603
 3192SOL     OW12539   4.165   0.498   0.228  0.0955 -0.5053  0.1441
 3192SOL    HW212540   4.196   0.525   0.315  1.0914 -0.1189 -0.3137
 3192SOL    HW312541   4.156   0.580   0.179 -0.7740 -0.6956 -0.0235
 3192SOL    MW412542   4.168   0.512   0.233  0.1122 -0.4795  0.0616
 3193SOL     OW12543   0.698   5.783   0.831  0.1632  0.0787 -0.1166
 3193SOL    HW212544   0.747   5.709   0.794 -2.3304 -1.2244 -1.0652
 3193SOL    HW312545   0.618   5.744   0.866 -1.0444  2.2817 -0.2236
 3193SOL    MW412546   0.694   5.768   0.831 -0.3251  0.1974 -0.2558
 3194SOL     OW12547   4.170   0.118   5.440  0.3207 -0.2726  0.3995
 3194SOL    HW212548   4.195   0.182   5.372 -1.2486  1.0835  1.0304
 3194SOL    HW312549   4.231   0.045   5.427  1.5637  0.9267 -0.9813
 3194SOL    MW412550   4.182   0.117   5.429  0.2777  0.0646  0.3006
 3195SOL     OW12551   5.445   3.255   3.649 -0.2326  0.4831 -0.1769
 3195SOL    HW212552   5.421   3.167   3.617 -1.0703  0.8668 -0.6528
 3195SOL    HW312553   5.525   3.241   3.700 -0.3914 -0.5700 -0.1846
 3195SOL    MW412554   5.452   3.241   3.652 -0.3641  0.3948 -0.2407
 3196SOL     OW12555   4.730   3.646   4.703  0.8394  0.1814 -0.2792
 3196SOL    HW212556   4.658   3.596   4.742  2.4312 -1.0247  1.3023
 3196SOL    HW312557   4.805   3.627   4.760  2.0202  2.7392 -0.8610
 3196SOL    MW412558   4.730   3.637   4.716  1.2052  0.3597 -0.1473
 3197SOL     OW12559   1.111   5.508   1.875  0.7461 -0.1774  0.0866
 3197SOL    HW212560   1.046   5.478   1.939  1.6779 -0.6856  0.8250
 3197SOL    HW312561   1.175   5.437   1.872  1.5113  0.5186 -0.2702
 3197SOL    MW412562   1.111   5.494   1.883  0.9700 -0.1526  0.1369
 3198SOL     OW12563   0.182   5.027   1.027  0.1776 -1.0108 -0.2321
 3198SOL    HW212564   0.174   5.120   1.006 -0.9245 -0.7211  1.2912
 3198SOL    HW312565   0.209   4.986   0.945  1.5144  0.7488 -0.7349
 3198SOL    MW412566   0.185   5.034   1.013  0.2086 -0.7404 -0.0975
 3199SOL     OW12567   2.179   0.532   1.358  0.0434 -0.2811  0.4470
 3199SOL    HW212568   2.190   0.449   1.405 -1.7432 -0.8854 -0.1133
 3199SOL    HW312569   2.156   0.505   1.269 -0.6891  0.8141  0.2906
 3199SOL    MW412570   2.178   0.517   1.352 -0.2889 -0.2163  0.3524
 3200SOL     OW12571   1.928   1.480   4.426 -0.0851 -0.6145  0.0153
 3200SOL    HW212572   1.970   1.402   4.388 -0.9558 -1.5701  0.9830
 3200SOL    HW312573   1.835   1.465   4.414 -0.2486  0.4055 -0.0054
 3200SOL    MW412574   1.921   1.467   4.419 -0.2216 -0.6060  0.1402
 3201SOL     OW12575   0.243   6.343   3.406 -0.6962  0.5008 -0.0598
 3201SOL    HW212576   0.225   6.437   3.407  1.7528  1.0287  0.4512
 3201SOL    HW312577   0.233   6.315   3.497  0.2494  0.6485  0.0977
 3201SOL    MW412578   0.239   6.351   3.418 -0.2483  0.5900  0.0284
 3202SOL     OW12579   2.396   0.186   3.892  0.5331  0.2741  0.0021
 3202SOL    HW212580   2.373   0.171   3.800 -1.6369 -0.5809  0.6121
 3202SOL    HW312581   2.405   0.098   3.929 -1.7611  0.5025  1.2702
 3202SOL    MW412582   2.394   0.173   3.885 -0.0559  0.1915  0.2499
 3203SOL     OW12583   2.992   2.717   0.617  0.0172 -0.2406 -0.3750
 3203SOL    HW212584   3.023   2.778   0.550  1.4022  0.4065  0.7891
 3203SOL    HW312585   2.941   2.771   0.678 -4.6337 -1.4260 -2.7517
 3203SOL    MW412586   2.990   2.732   0.616 -0.4137 -0.3116 -0.5350
 3204SOL     OW12587   2.182   0.976   2.735  0.2421 -0.2008  0.6687
 3204SOL    HW212588   2.160   0.966   2.642  0.5967 -2.1191  0.7568
 3204SOL    HW312589   2.277   0.965   2.738  0.1007 -1.2743  1.3853
 3204SOL    MW412590   2.191   0.974   2.723  0.2702 -0.5955  0.7749
 3205SOL     OW12591   6.237   4.559   3.322  0.1320  0.3636  0.6798
 3205SOL    HW212592   6.330   4.543   3.338 -0.3747 -1.1532  2.5914
 3205SOL    HW312593   6.208   4.484   3.271 -0.3314  0.0144  1.4315
 3205SOL    MW412594   6.245   4.547   3.318  0.0040  0.1174  1.0312
 3206SOL     OW12595   5.842   0.388   1.127  0.0330 -0.0713  0.2106
 3206SOL    HW212596   5.900   0.329   1.079  1.4480  0.8742  0.7113
 3206SOL    HW312597   5.755   0.366   1.095 -0.0481 -4.8175  2.7932
 3206SOL    MW412598   5.838   0.377   1.116  0.2090 -0.5728  0.6174
 3207SOL     OW12599   2.034   4.040   0.729 -0.2044  0.6418  0.3342
 3207SOL    HW212600   1.987   4.052   0.647 -0.7895 -0.2029  0.5292
 3207SOL    HW312601   1.979   4.083   0.795  0.2478  1.2917  0.2927
 3207SOL    MW412602   2.021   4.047   0.727 -0.2219  0.6161  0.3545
 3208SOL     OW12603   5.715   3.228   2.884 -0.4003 -0.0392 -0.2768
 3208SOL    HW212604   5.727   3.145   2.839  2.1744  0.8625 -1.4658
 3208SOL    HW312605   5.633   3.263   2.849 -0.2920 -0.9961 -1.5698
 3208SOL    MW412606   5.706   3.222   2.874 -0.0463 -0.0465 -0.6042
 3209SOL     OW12607   4.663   3.471   1.818  0.0111  0.1878 -0.3652
 3209SOL    HW212608   4.655   3.460   1.912 -0.5587 -0.8574 -0.5164
 3209SOL    HW312609   4.674   3.382   1.784  0.6802  0.5875 -1.2452
 3209SOL    MW412610   4.663   3.458   1.826  0.0242  0.1026 -0.5013
 3210SOL     OW12611   4.351   5.753   3.651  0.0339 -0.0325  0.5822
 3210SOL    HW212612   4.347   5.666   3.611  2.5798  0.4583 -1.0398
 3210SOL    HW312613   4.260   5.782   3.655 -0.6325 -1.1295 -2.7989
 3210SOL    MW412614   4.339   5.745   3.646  0.2818 -0.1125 -0.0779
 3211SOL     OW12615   0.016   1.895   2.842 -0.6275 -0.2916  0.4852
 3211SOL    HW212616   0.045   1.962   2.780  2.2174 -0.3910  1.5806
 3211SOL    HW312617  -0.040   1.944   2.904 -2.2206  0.1019 -1.1726
 3211SOL    MW412618   0.012   1.910   2.842 -0.4624 -0.2528  0.4110
 3212SOL     OW12619   0.465   5.497   5.929 -0.1252 -0.0063 -0.2023
 3212SOL    HW212620   0.464   5.403   5.911  1.7060 -0.1739  0.4219
 3212SOL    HW312621   0.544   5.529   5.887  0.9553  0.6747  2.1610
 3212SOL    MW412622   0.475   5.489   5.921  0.2590  0.0614  0.1919
 3213SOL     OW12623   0.489   2.390   5.438  0.0330 -0.3352 -0.0682
 3213SOL    HW212624   0.567   2.434   5.472 -0.1778 -1.3288  1.8383
 3213SOL    HW312625   0.522   2.309   5.399  0.0022 -0.6377  0.5181
 3213SOL    MW412626   0.504   2.385   5.438  0.0012 -0.5062  0.2607
 3214SOL     OW12627   3.265   1.146   3.938 -0.4254  0.5110 -0.2751
 3214SOL    HW212628   3.316   1.226   3.923 -1.1733  0.6609 -2.2755
 3214SOL    HW312629   3.220   1.162   4.021 -0.6991  2.2664 -0.7129
 3214SOL    MW412630   3.266   1.159   3.947 -0.5602  0.7623 -0.5968
 3215SOL     OW12631   0.829   4.472   4.366 -0.0266  0.1593 -0.0304
 3215SOL    HW212632   0.757   4.535   4.374 -0.1876 -0.0470  0.1370
 3215SOL    HW312633   0.864   4.488   4.278  1.2542  1.8959  0.7350
 3215SOL    MW412634   0.824   4.483   4.355  0.1212  0.3612  0.0926
 3216SOL     OW12635   3.381   1.426   1.504 -0.4206  0.2038 -0.2457
 3216SOL    HW212636   3.438   1.470   1.441  1.7201 -1.6842  0.2266
 3216SOL    HW312637   3.298   1.416   1.458 -0.8605  4.0620 -0.5454
 3216SOL    MW412638   3.377   1.430   1.489 -0.1962  0.4638 -0.2229
 3217SOL     OW12639   2.042   1.033   5.624  0.6049  0.5076 -0.4742
 3217SOL    HW212640   2.093   0.987   5.558  1.9693  1.1985  0.0539
 3217SOL    HW312641   2.079   1.122   5.626  1.6762  0.1027  2.2283
 3217SOL    MW412642   2.054   1.039   5.616  0.9262  0.5454 -0.0480
 3218SOL     OW12643   0.482   5.798   2.831 -0.0915  0.6554 -0.8979
 3218SOL    HW212644   0.437   5.877   2.861 -1.6475 -0.2799 -0.6662
 3218SOL    HW312645   0.497   5.814   2.738 -1.9686  0.5666 -1.2626
 3218SOL    MW412646   0.478   5.810   2.823 -0.5444  0.5202 -0.9154
 3219SOL     OW12647   5.397   3.722   2.685  0.3250  0.5692 -0.1191
 3219SOL    HW212648   5.416   3.805   2.641 -0.9968  0.5214 -0.8571
 3219SOL    HW312649   5.479   3.698   2.728  0.6340  2.4291  0.4235
 3219SOL    MW412650   5.410   3.729   2.685  0.1914  0.8083 -0.1448
 3220SOL     OW12651   3.844   3.881   3.018 -0.3211 -0.0236 -0.7381
 3220SOL    HW212652   3.771   3.911   3.073 -1.2702 -0.3596 -1.7919
 3220SOL    HW312653   3.811   3.803   2.974  1.1937 -1.0779 -0.1209
 3220SOL    MW412654   3.830   3.875   3.020 -0.2465 -0.2070 -0.7957
 3221SOL     OW12655   0.163   4.322   2.078 -0.3322  0.2502  0.0758
 3221SOL    HW212656   0.127   4.351   2.162  1.8391  0.7144  0.9082
 3221SOL    HW312657   0.212   4.397   2.045  0.6566 -0.6323 -0.5296
 3221SOL    MW412658   0.165   4.335   2.085  0.0847  0.1950  0.1057
 3222SOL     OW12659   1.490   1.300   1.316  0.0902 -0.1441 -0.5523
 3222SOL    HW212660   1.445   1.381   1.291  2.2999  0.8244 -1.6793
 3222SOL    HW312661   1.480   1.243   1.239 -1.2790 -0.9286  0.1598
 3222SOL    MW412662   1.483   1.303   1.302  0.2011 -0.1198 -0.6071
 3223SOL     OW12663   4.114   6.472   2.089  0.5884 -0.6309  0.0418
 3223SOL    HW212664   4.057   6.477   2.167 -0.7460  0.8074 -0.9682
 3223SOL    HW312665   4.104   6.382   2.059 -0.2249 -0.7379  0.5825
 3223SOL    MW412666   4.105   6.461   2.096  0.3050 -0.4553 -0.0201
 3224SOL     OW12667   2.461   3.550   4.197 -0.4069  0.0656 -0.2304
 3224SOL    HW212668   2.455   3.585   4.108 -0.8782  1.1799  0.2085
 3224SOL    HW312669   2.370   3.536   4.223 -0.5364  2.6048  1.1004
 3224SOL    MW412670   2.448   3.553   4.189 -0.4862  0.5476  0.0031
 3225SOL     OW12671   0.538   2.206   2.507  0.7590 -0.1565 -0.3639
 3225SOL    HW212672   0.461   2.182   2.455 -0.5554  1.8265  0.5370
 3225SOL    HW312673   0.509   2.196   2.598  1.4293  0.9131 -0.0121
 3225SOL    MW412674   0.524   2.202   2.512  0.6740  0.2463 -0.1986
 3226SOL     OW12675   3.739   4.860   1.635 -0.7716 -0.2110 -0.3596
 3226SOL    HW212676   3.746   4.955   1.646 -1.1268 -0.1424 -0.6828
 3226SOL    HW312677   3.793   4.840   1.559  0.2395 -0.4353  0.3969
 3226SOL    MW412678   3.747   4.870   1.626 -0.6851 -0.2316 -0.3024
 3227SOL     OW12679   3.281   3.418   6.106  0.9270 -0.2311  0.1305
 3227SOL    HW212680   3.238   3.350   6.157 -0.3171  1.3207  1.2260
 3227SOL    HW312681   3.212   3.454   6.050  1.4998  0.2886 -0.2615
 3227SOL    MW412682   3.266   3.414   6.105  0.8384  0.0422  0.2233
 3228SOL     OW12683   0.443   3.848   0.563  0.2988  0.3515  0.0205
 3228SOL    HW212684   0.538   3.850   0.571  0.3538 -1.3786  0.2554
 3228SOL    HW312685   0.428   3.841   0.468  0.3484  1.4500 -0.0859
 3228SOL    MW412686   0.454   3.847   0.551  0.3126  0.2682  0.0374
 3229SOL     OW12687   4.140   5.459   6.193 -0.0020 -0.8307 -0.4112
 3229SOL    HW212688   4.196   5.466   6.271  0.6306 -0.5801 -0.8753
 3229SOL    HW312689   4.200   5.474   6.120 -1.1484  2.5627 -0.8484
 3229SOL    MW412690   4.155   5.462   6.194 -0.0698 -0.3499 -0.5301
 3230SOL     OW12691   3.990   3.416   4.174 -0.3310  0.0252  0.2225
 3230SOL    HW212692   3.967   3.353   4.107  1.7521 -2.5565  1.7385
 3230SOL    HW312693   3.919   3.410   4.239 -0.8524  0.3520 -0.3072
 3230SOL    MW412694   3.978   3.407   4.174 -0.1249 -0.2723  0.3526
 3231SOL     OW12695   4.104   0.785   1.216  0.0471  0.5003  0.1742
 3231SOL    HW212696   4.149   0.814   1.295  0.8278 -0.0373 -0.0592
 3231SOL    HW312697   4.058   0.705   1.243 -0.9849  1.1771  0.4721
 3231SOL    MW412698   4.104   0.778   1.230  0.0139  0.5187  0.1827
 3232SOL     OW12699   1.091   1.875   3.869 -0.3593  0.3883 -0.3625
 3232SOL    HW212700   1.153   1.946   3.887  0.0606  0.4135 -1.7324
 3232SOL    HW312701   1.063   1.844   3.955  1.7765  0.1876  0.3155
 3232SOL    MW412702   1.096   1.880   3.883 -0.0221  0.3652 -0.4538
 3233SOL     OW12703   1.021   5.015   1.627 -0.4122 -0.7406 -0.0892
 3233SOL    HW212704   1.099   5.067   1.608 -0.3934 -0.4267  0.8109
 3233SOL    HW312705   0.970   5.018   1.546 -2.2417  3.8334  0.9045
 3233SOL    MW412706   1.024   5.022   1.614 -0.6511 -0.0957  0.1606
 3234SOL     OW12707   2.153   3.184   1.026  0.5459  0.0234 -0.0524
 3234SOL    HW212708   2.099   3.244   1.077  0.0920 -0.6109  0.2290
 3234SOL    HW312709   2.202   3.135   1.092 -1.2122 -1.9189 -0.0928
 3234SOL    MW412710   2.153   3.185   1.042  0.2541 -0.3165 -0.0206
 3235SOL     OW12711   4.008   1.036   2.901 -0.0547  0.3939  0.0450
 3235SOL    HW212712   3.956   1.036   2.981  1.2460  1.7476  0.9515
 3235SOL    HW312713   4.039   0.946   2.892 -2.1957 -0.3703 -0.3433
 3235SOL    MW412714   4.005   1.024   2.911 -0.1656  0.4717  0.1134
 3236SOL     OW12715   2.504   6.367   5.515 -0.2403  0.0377 -0.5380
 3236SOL    HW212716   2.525   6.295   5.575 -0.9915  0.1577 -0.1223
 3236SOL    HW312717   2.560   6.352   5.439  0.2482 -0.4886 -0.0796
 3236SOL    MW412718   2.514   6.355   5.513 -0.2749 -0.0159 -0.4226
 3237SOL     OW12719   3.282   6.416   3.071  0.0452 -0.6481 -0.0274
 3237SOL    HW212720   3.320   6.391   2.987 -0.2934 -0.6463 -0.1825
 3237SOL    HW312721   3.333   6.368   3.136  3.5014  2.7990  0.1821
 3237SOL    MW412722   3.293   6.407   3.068  0.4565 -0.1931 -0.0202
 3238SOL     OW12723   5.248   2.944   0.029 -0.2590 -0.3935  0.0335
 3238SOL    HW212724   5.215   2.953  -0.060  1.7781  1.8625 -0.6112
 3238SOL    HW312725   5.332   2.990   0.028  0.4837 -1.4665  2.7997
 3238SOL    MW412726   5.255   2.951   0.017  0.1077 -0.2374  0.3134
 3239SOL     OW12727   5.720   1.829   4.607 -0.0481  0.0835 -0.2792
 3239SOL    HW212728   5.663   1.819   4.684 -0.2182 -0.3692 -0.4559
 3239SOL    HW312729   5.684   1.767   4.544 -0.5694  1.2240 -1.1201
 3239SOL    MW412730   5.707   1.819   4.609 -0.1393  0.1743 -0.4134
 3240SOL     OW12731   5.936   2.396   4.105 -0.2735 -0.3930 -0.3259
 3240SOL    HW212732   5.977   2.427   4.186 -0.7528 -1.1328  0.2101
 3240SOL    HW312733   5.980   2.313   4.087 -0.9110 -0.7615 -0.2258
 3240SOL    MW412734   5.947   2.389   4.114 -0.4208 -0.5392 -0.2420
 3241SOL     OW12735   2.357   5.642   3.648  0.0499 -0.0609 -0.3036
 3241SOL    HW212736   2.399   5.572   3.597  1.6549  0.3631  0.3902
 3241SOL    HW312737   2.287   5.597   3.696  0.4897 -1.0307 -0.5383
 3241SOL    MW412738   2.353   5.627   3.647  0.3197 -0.1329 -0.2430
 3242SOL     OW12739   5.571   0.532   3.773  0.5403 -0.0132 -0.0691
 3242SOL    HW212740   5.519   0.604   3.737  2.8749  0.9269 -1.8544
 3242SOL    HW312741   5.583   0.554   3.865  2.1123  2.5978 -0.7926
 3242SOL    MW412742   5.566   0.545   3.780  1.0557  0.4553 -0.4001
 3243SOL     OW12743   2.953   1.517   5.451 -0.0444  0.6204  0.2581
 3243SOL    HW212744   2.998   1.476   5.378  0.6161 -0.0273  1.0068
 3243SOL    HW312745   2.861   1.495   5.438  0.0215  0.8059 -0.5578
 3243SOL    MW412746   2.947   1.509   5.440  0.0515  0.5594  0.2492
 3244SOL     OW12747   6.224   1.299   0.171 -0.2150 -0.5926  0.6719
 3244SOL    HW212748   6.234   1.224   0.229 -1.6554  0.1639  1.9934
 3244SOL    HW312749   6.269   1.371   0.217  1.1928 -0.6089 -0.5938
 3244SOL    MW412750   6.231   1.299   0.185 -0.2193 -0.4950  0.6793
 3245SOL     OW12751   0.782   3.751   1.616  0.3398  0.7135  0.3462
 3245SOL    HW212752   0.833   3.692   1.559  0.1431 -0.1026  0.9910
 3245SOL    HW312753   0.696   3.757   1.573  0.9911  2.2694 -0.8639
 3245SOL    MW412754   0.777   3.744   1.603  0.3998  0.8111  0.2716
 3246SOL     OW12755   0.524   2.972   3.088  0.1495  0.5511 -0.2029
 3246SOL    HW212756   0.446   2.995   3.139 -0.4908  1.8793 -1.6763
 3246SOL    HW312757   0.511   2.881   3.063 -1.1486  0.8662 -0.7558
 3246SOL    MW412758   0.512   2.963   3.091 -0.1062  0.7679 -0.4702
 3247SOL     OW12759   3.104   5.240   3.818 -0.2063 -0.3701  0.1344
 3247SOL    HW212760   3.198   5.222   3.812 -0.2814 -2.4992  3.1352
 3247SOL    HW312761   3.095   5.298   3.894 -1.2416  1.2429 -1.1496
 3247SOL    MW412762   3.115   5.245   3.828 -0.3528 -0.4382  0.3609
 3248SOL     OW12763   5.765   6.045   5.263 -0.0574 -0.7063  0.2578
 3248SOL    HW212764   5.684   5.994   5.262 -0.3618 -0.4278 -3.3816
 3248SOL    HW312765   5.740   6.130   5.299 -2.1025  0.1637 -2.8411
 3248SOL    MW412766   5.751   6.049   5.267 -0.3674 -0.5548 -0.6313
 3249SOL     OW12767   4.594   0.430   4.474  0.4947 -0.3061  0.0332
 3249SOL    HW212768   4.522   0.398   4.420  0.1965 -0.7059  0.6538
 3249SOL    HW312769   4.564   0.516   4.505  1.0721  0.3738 -1.2004
 3249SOL    MW412770   4.580   0.437   4.471  0.5315 -0.2691 -0.0477
 3250SOL     OW12771   5.420   1.397   5.335  0.2658  0.4373 -0.4524
 3250SOL    HW212772   5.365   1.468   5.368  0.3192  0.2208  0.0962
 3250SOL    HW312773   5.398   1.321   5.388  2.0047  0.6559  0.6576
 3250SOL    MW412774   5.410   1.397   5.346  0.5023  0.4376 -0.2336
 3251SOL     OW12775   2.595   6.091   4.557 -0.0185 -0.0773  0.5755
 3251SOL    HW212776   2.553   6.016   4.516  0.7138  0.5136 -1.3832
 3251SOL    HW312777   2.566   6.166   4.505  3.6376  0.3431 -1.1816
 3251SOL    MW412778   2.586   6.091   4.545  0.5605  0.0561  0.0853
 3252SOL     OW12779   5.570   6.106   6.125  0.3729  0.2835 -0.2186
 3252SOL    HW212780   5.587   6.188   6.171 -2.9373  1.8420 -1.4424
 3252SOL    HW312781   5.642   6.098   6.063  2.3975  0.5542  1.9558
 3252SOL    MW412782   5.581   6.116   6.123  0.2033  0.5248 -0.0931
 3253SOL     OW12783   4.393   1.438   2.215  0.5264 -0.1099 -0.3786
 3253SOL    HW212784   4.342   1.371   2.260 -0.5983  1.3504  0.6491
 3253SOL    HW312785   4.477   1.439   2.262 -0.6401  1.4239  1.9002
 3253SOL    MW412786   4.397   1.430   2.227  0.2241  0.2851  0.0577
 3254SOL     OW12787   3.637   2.113   6.196 -0.3543  0.0217 -0.0023
 3254SOL    HW212788   3.559   2.073   6.158  0.0960  0.0481 -0.9853
 3254SOL    HW312789   3.702   2.109   6.126  0.9587 -1.2274  1.2225
 3254SOL    MW412790   3.635   2.107   6.182 -0.1216 -0.1396  0.0296
 3255SOL     OW12791   2.575   2.028   3.229 -0.4749 -0.1567 -0.0626
 3255SOL    HW212792   2.669   2.016   3.240 -0.3295 -0.8988 -1.7762
 3255SOL    HW312793   2.567   2.107   3.176 -0.6381 -1.4850 -2.1272
 3255SOL    MW412794   2.586   2.037   3.223 -0.4772 -0.4299 -0.5611
 3256SOL     OW12795   0.024   5.535   1.625 -0.5426 -0.0903 -0.2758
 3256SOL    HW212796   0.109   5.518   1.585 -0.4807 -0.8347  0.1594
 3256SOL    HW312797  -0.034   5.553   1.551  0.2507  1.7038 -0.5260
 3256SOL    MW412798   0.028   5.536   1.610 -0.4297  0.0482 -0.2514
 3257SOL     OW12799   2.597   3.098   1.933 -0.2847 -0.2683 -0.2644
 3257SOL    HW212800   2.608   3.029   1.998  0.7365 -0.6698 -0.8417
 3257SOL    HW312801   2.558   3.171   1.982  1.7670 -0.0289  1.1529
 3257SOL    MW412802   2.593   3.099   1.948  0.1208 -0.2897 -0.1536
 3258SOL     OW12803   5.157   5.704   4.938 -0.0126 -0.1958 -0.3347
 3258SOL    HW212804   5.122   5.709   5.027  0.9348 -1.2338  0.1163
 3258SOL    HW312805   5.081   5.718   4.881 -1.1189 -2.0732  0.6006
 3258SOL    MW412806   5.143   5.707   4.942 -0.0336 -0.5805 -0.1518
 3259SOL     OW12807   5.359   3.774   3.329  0.2159  0.1623 -0.1263
 3259SOL    HW212808   5.387   3.808   3.413  2.0098 -1.6351  0.0665
 3259SOL    HW312809   5.291   3.709   3.350  0.5228 -0.1441 -0.0805
 3259SOL    MW412810   5.353   3.770   3.343  0.4931 -0.1152 -0.0948
 3260SOL     OW12811   0.323   2.686   4.848  0.0563  0.5286  0.1231
 3260SOL    HW212812   0.345   2.645   4.764 -0.6129  1.5397 -0.5696
 3260SOL    HW312813   0.233   2.656   4.866  0.4682 -0.3026  0.8848
 3260SOL    MW412814   0.314   2.677   4.839  0.0223  0.5523  0.1322
 3261SOL     OW12815   0.027   0.370   6.158 -0.2342  0.3592 -0.0781
 3261SOL    HW212816   0.076   0.354   6.239  1.1203  1.8034 -0.5720
 3261SOL    HW312817   0.008   0.282   6.124 -0.0127 -0.2554  1.3006
 3261SOL    MW412818   0.031   0.356   6.164 -0.0262  0.4686  0.0386
 3262SOL     OW12819   1.806   4.568   1.890  0.5152  0.0048  0.2133
 3262SOL    HW212820   1.736   4.609   1.840  0.4725 -0.7059 -0.3331
 3262SOL    HW312821   1.772   4.562   1.979 -0.2429 -0.5786 -0.1006
 3262SOL    MW412822   1.792   4.572   1.895  0.4096 -0.1659  0.0998
 3263SOL     OW12823   5.961   6.276   4.226  0.3065 -0.0882 -0.1905
 3263SOL    HW212824   5.917   6.192   4.240 -0.2783  0.2206 -0.1553
 3263SOL    HW312825   5.902   6.326   4.170  0.0218  0.7876  0.8342
 3263SOL    MW412826   5.947   6.272   4.221  0.1917  0.0681 -0.0507
 3264SOL     OW12827   0.414   0.812   5.130 -0.0346  0.0183  0.2653
 3264SOL    HW212828   0.333   0.807   5.080  1.0256 -2.4623 -1.3810
 3264SOL    HW312829   0.388   0.791   5.220 -1.1412 -1.6573 -0.4007
 3264SOL    MW412830   0.400   0.808   5.136 -0.0407 -0.5300 -0.0398
 3265SOL     OW12831   0.369   3.644   4.461 -0.1616  0.2474 -0.1813
 3265SOL    HW212832   0.423   3.616   4.534 -0.2035  1.0202  0.1454
 3265SOL    HW312833   0.424   3.703   4.410  0.5300 -1.6843 -1.8318
 3265SOL    MW412834   0.383   3.648   4.464 -0.0759  0.0945 -0.3560
 3266SOL     OW12835   4.095   0.156   1.459  0.2305  0.3934  0.3807
 3266SOL    HW212836   4.001   0.156   1.441  0.3086 -0.4888 -0.0694
 3266SOL    HW312837   4.101   0.140   1.553 -0.0597 -0.4969  0.2605
 3266SOL    MW412838   4.083   0.154   1.469  0.2025  0.1595  0.3055
 3267SOL     OW12839   2.313   1.703   4.756  1.5144  0.0701  0.1206
 3267SOL    HW212840   2.388   1.763   4.756  0.4776  1.4176  0.9109
 3267SOL    HW312841   2.249   1.745   4.700  0.7318 -0.2358  0.7661
 3267SOL    MW412842   2.315   1.716   4.749  1.2744  0.2075  0.3101
 3268SOL     OW12843   2.506   5.588   3.106  0.0533  0.1362  0.2727
 3268SOL    HW212844   2.503   5.500   3.068  0.5182 -0.5001  1.6417
 3268SOL    HW312845   2.599   5.603   3.125 -0.0789  0.7344  0.4684
 3268SOL    MW412846   2.518   5.578   3.104  0.0972  0.1312  0.4792
 3269SOL     OW12847   2.037   2.342   2.434  0.0561  0.7610  0.1980
 3269SOL    HW212848   1.982   2.297   2.370  1.4752  0.2558 -0.7289
 3269SOL    HW312849   2.090   2.402   2.381  1.3130  0.2739  0.8659
 3269SOL    MW412850   2.037   2.344   2.418  0.4091  0.6301  0.1639
 3270SOL     OW12851   2.452   2.448   4.304 -0.4408  0.2851 -0.5737
 3270SOL    HW212852   2.421   2.364   4.270 -0.4154  0.5236 -1.2023
 3270SOL    HW312853   2.435   2.444   4.398 -0.0694 -0.5844 -0.5326
 3270SOL    MW412854   2.446   2.437   4.312 -0.3884  0.2018 -0.6512
 3271SOL     OW12855   1.600   2.090   3.426  0.0663 -0.6216  0.4779
 3271SOL    HW212856   1.659   2.075   3.499  0.4019  0.7297  0.5221
 3271SOL    HW312857   1.654   2.134   3.360 -0.4378 -1.0482 -0.2340
 3271SOL    MW412858   1.615   2.094   3.427  0.0441 -0.4996  0.3898
 3272SOL     OW12859   4.205   3.477   5.198 -0.0795 -0.0139 -0.8051
 3272SOL    HW212860   4.216   3.397   5.147  0.8311  0.0344 -0.7027
 3272SOL    HW312861   4.217   3.548   5.136  0.7638  0.0426 -0.5967
 3272SOL    MW412862   4.208   3.476   5.183  0.1519 -0.0000 -0.7641
 3273SOL     OW12863   6.273   4.839   4.860  0.1324  0.0029  0.6052
 3273SOL    HW212864   6.192   4.882   4.888  0.6851  1.3704  0.1764
 3273SOL    HW312865   6.252   4.745   4.862 -1.5181  0.3327  0.3170
 3273SOL    MW412866   6.260   4.832   4.864 -0.0125  0.2268  0.5106
 3274SOL     OW12867   5.376   6.286   6.422 -0.6077 -0.3769 -0.0623
 3274SOL    HW212868   5.360   6.318   6.333  1.5785 -2.4398 -1.3313
 3274SOL    HW312869   5.395   6.193   6.410 -1.7644 -1.0729  2.8084
 3274SOL    MW412870   5.376   6.278   6.409 -0.4719 -0.7409  0.1490
 3275SOL     OW12871   1.257   1.604   1.639  0.2416  0.2950  0.3462
 3275SOL    HW212872   1.302   1.591   1.722 -1.7919 -1.5833  1.2449
 3275SOL    HW312873   1.250   1.516   1.601 -0.3088  0.9016 -1.0234
 3275SOL    MW412874   1.262   1.591   1.645 -0.0993  0.1272  0.2840
 3276SOL     OW12875   3.122   4.335   1.871 -0.3403  0.1360  0.2560
 3276SOL    HW212876   3.043   4.356   1.821  0.7584 -0.8614 -2.0502
 3276SOL    HW312877   3.096   4.346   1.963 -2.8388  0.8208 -0.4552
 3276SOL    MW412878   3.108   4.339   1.877 -0.5250  0.0947 -0.1421
 3277SOL     OW12879   5.183   5.105   4.463 -0.4393 -0.6113 -0.0088
 3277SOL    HW212880   5.246   5.076   4.529  0.7117 -0.6406 -1.0840
 3277SOL    HW312881   5.233   5.164   4.406 -1.7306  0.3889 -0.1449
 3277SOL    MW412882   5.198   5.109   4.464 -0.4578 -0.4832 -0.1686
 3278SOL     OW12883   2.490   1.138   3.131  0.4113  0.1666  0.3095
 3278SOL    HW212884   2.563   1.099   3.180  1.2400 -0.5750 -1.4315
 3278SOL    HW312885   2.436   1.063   3.106  0.5391  0.4053 -0.7221
 3278SOL    MW412886   2.493   1.123   3.134  0.5375  0.1002 -0.0563
 3279SOL     OW12887   4.560   0.900   4.600  0.4997  0.3717 -0.0726
 3279SOL    HW212888   4.540   0.811   4.571  1.7145  0.2645 -0.6416
 3279SOL    HW312889   4.494   0.919   4.666  1.0512 -1.5067  1.1056
 3279SOL    MW412890   4.549   0.891   4.605  0.7327  0.1098  0.0078
 3280SOL     OW12891   5.768   1.565   2.143  0.8050 -0.2423  0.5754
 3280SOL    HW212892   5.835   1.620   2.182  1.2861 -0.8238  0.5968
 3280SOL    HW312893   5.693   1.573   2.202  0.9913  0.1055  0.7705
 3280SOL    MW412894   5.767   1.573   2.156  0.8931 -0.2731  0.6040
 3281SOL     OW12895   1.060   0.709   1.195  0.2670  0.1068 -0.0171
 3281SOL    HW212896   1.116   0.725   1.119  1.3594  1.4573  1.0052
 3281SOL    HW312897   1.058   0.793   1.241 -1.6656 -0.2480  0.6224
 3281SOL    MW412898   1.067   0.722   1.191  0.1562  0.2382  0.2022
 3282SOL     OW12899   2.990   3.414   2.417  0.4958  0.3145 -0.3770
 3282SOL    HW212900   3.044   3.493   2.417  1.0370 -0.0468 -0.8682
 3282SOL    HW312901   3.013   3.370   2.335 -0.7804  0.3130 -0.7620
 3282SOL    MW412902   3.000   3.419   2.406  0.3988  0.2666 -0.4926
 3283SOL     OW12903   4.783   3.448   4.990 -0.1082 -0.2303  0.5276
 3283SOL    HW212904   4.721   3.514   5.020 -0.5856  0.2063 -1.3224
 3283SOL    HW312905   4.868   3.478   5.023 -0.0179  2.3429 -1.7577
 3283SOL    MW412906   4.786   3.461   4.999 -0.1593  0.1668 -0.0180
 3284SOL     OW12907   2.819   4.376   4.648 -0.0666  0.1607  0.2643
 3284SOL    HW212908   2.911   4.352   4.661  0.1613  1.4355  1.2854
 3284SOL    HW312909   2.818   4.417   4.561  0.0759 -0.9212 -0.2658
 3284SOL    MW412910   2.831   4.379   4.638 -0.0177  0.1861  0.3291
 3285SOL     OW12911   6.372   3.714   5.292 -0.1526 -0.6782 -0.7743
 3285SOL    HW212912   6.395   3.801   5.323 -2.9140 -0.2316  0.2835
 3285SOL    HW312913   6.455   3.666   5.291  0.8852  0.6763  2.9024
 3285SOL    MW412914   6.386   3.719   5.296 -0.3800 -0.4406 -0.1497
 3286SOL     OW12915   6.149   1.207   3.774 -0.1585  0.2970  0.6464
 3286SOL    HW212916   6.077   1.200   3.712 -0.3864  0.6989  0.8626
 3286SOL    HW312917   6.189   1.292   3.755  1.7613 -0.8838 -1.0733
 3286SOL    MW412918   6.145   1.217   3.763  0.0648  0.1942  0.4480
 3287SOL     OW12919   1.289   5.019   1.963 -0.7078  0.1160  0.3092
 3287SOL    HW212920   1.226   4.947   1.958 -0.6184 -0.0473  1.3321
 3287SOL    HW312921   1.295   5.039   2.056  1.0347 -0.1249  0.2778
 3287SOL    MW412922   1.281   5.012   1.974 -0.4661  0.0626  0.4400
 3288SOL     OW12923   0.722   6.202   6.050 -0.3287  0.1931 -0.2533
 3288SOL    HW212924   0.723   6.275   6.112 -1.0318  0.3427 -0.4125
 3288SOL    HW312925   0.639   6.157   6.067 -0.3395 -0.0046 -0.8117
 3288SOL    MW412926   0.711   6.206   6.060 -0.4229  0.1868 -0.3479
 3289SOL     OW12927   3.269   6.276   4.252 -0.1245 -0.2826  0.3704
 3289SOL    HW212928   3.302   6.218   4.320  0.4231  0.2281  0.5378
 3289SOL    HW312929   3.305   6.362   4.273  2.7161 -0.6416 -2.2984
 3289SOL    MW412930   3.278   6.279   4.263  0.3225 -0.2626  0.0404
 3290SOL     OW12931   4.172   4.292   0.384  0.3677  0.4854  0.2627
 3290SOL    HW212932   4.204   4.203   0.377 -0.4684  0.1897  0.0151
 3290SOL    HW312933   4.085   4.283   0.424 -0.4225  1.0273 -1.2405
 3290SOL    MW412934   4.164   4.279   0.388  0.1531  0.5179  0.0317
 3291SOL     OW12935   4.315   3.743   0.022  0.2172  0.8177  0.2294
 3291SOL    HW212936   4.258   3.678   0.063  1.0535 -2.0159 -2.6756
 3291SOL    HW312937   4.404   3.715   0.045  0.6315  2.9075  1.4946
 3291SOL    MW412938   4.319   3.731   0.031  0.3822  0.7196  0.0130
 3292SOL     OW12939   2.430   5.011   6.131 -0.3710  0.2042  0.4554
 3292SOL    HW212940   2.352   4.973   6.171 -0.2955  0.6717  1.0725
 3292SOL    HW312941   2.502   4.986   6.190 -0.3833  1.6524  1.1230
 3292SOL    MW412942   2.430   5.003   6.144 -0.3626  0.4569  0.6249
 3293SOL     OW12943   3.951   5.491   1.058  0.0165  0.1135 -0.2072
 3293SOL    HW212944   3.989   5.405   1.039  0.2806  0.2236 -0.1863
 3293SOL    HW312945   3.990   5.548   0.992 -0.3506  0.1670 -0.3773
 3293SOL    MW412946   3.961   5.487   1.047  0.0029  0.1351 -0.2269
 3294SOL     OW12947   4.304   5.280   1.757 -0.3408 -0.2388 -0.2799
 3294SOL    HW212948   4.322   5.346   1.690 -1.6270 -1.3923 -1.8273
 3294SOL    HW312949   4.224   5.236   1.728 -0.3242 -1.5318  1.4422
 3294SOL    MW412950   4.296   5.283   1.744 -0.5083 -0.5616 -0.2569
 3295SOL     OW12951   0.211   0.748   6.261 -0.5070  0.4514  0.5177
 3295SOL    HW212952   0.170   0.745   6.174  0.1403  0.8586  0.1874
 3295SOL    HW312953   0.298   0.710   6.248 -0.4772  0.3394  1.0305
 3295SOL    MW412954   0.217   0.743   6.248 -0.4177  0.4904  0.5418
 3296SOL     OW12955   2.762   5.403   4.858 -0.3796  0.7917 -0.1322
 3296SOL    HW212956   2.751   5.335   4.924  0.5887 -0.8049 -1.5276
 3296SOL    HW312957   2.784   5.482   4.907  1.2082 -0.5343  1.4145
 3296SOL    MW412958   2.763   5.405   4.873 -0.0424  0.4061 -0.1123
 3297SOL     OW12959   2.616   0.949   2.335  0.2938  0.4052  0.3575
 3297SOL    HW212960   2.675   0.896   2.281  0.3940  1.6643 -0.8123
 3297SOL    HW312961   2.586   1.019   2.277  0.7320  2.0717  2.0221
 3297SOL    MW412962   2.620   0.951   2.320  0.3648  0.7912  0.4228
 3298SOL     OW12963   6.037   3.793   3.738 -0.3608  0.1958 -0.6939
 3298SOL    HW212964   6.079   3.710   3.759  0.1967  1.0783  2.0785
 3298SOL    HW312965   6.096   3.860   3.773 -2.4635  1.5909  0.4040
 3298SOL    MW412966   6.050   3.791   3.746 -0.5647  0.4963 -0.1832
 3299SOL     OW12967   5.351   2.620   3.217 -0.3563  0.1884 -0.2165
 3299SOL    HW212968   5.350   2.555   3.147 -1.7882  1.2215 -1.2195
 3299SOL    HW312969   5.264   2.615   3.256 -0.0316  0.5814  0.5931
 3299SOL    MW412970   5.339   2.611   3.213 -0.5024  0.3765 -0.2420
 3300SOL     OW12971   4.583   4.936   2.700  0.0372 -0.0497 -0.3610
 3300SOL    HW212972   4.501   4.978   2.676 -0.1974 -0.6073 -0.5629
 3300SOL    HW312973   4.571   4.908   2.791  0.5885  1.2489  0.1343
 3300SOL    MW412974   4.571   4.938   2.709  0.0790  0.0481 -0.3223
 3301SOL     OW12975   2.974   1.398   1.698  0.8373 -0.0863  0.9045
 3301SOL    HW212976   2.997   1.315   1.655  0.0383 -0.5220  1.2942
 3301SOL    HW312977   3.043   1.411   1.763  0.7058 -0.7090  1.1776
 3301SOL    MW412978   2.986   1.388   1.701  0.7145 -0.2260  0.9919
 3302SOL     OW12979   3.335   1.749   5.294 -0.0357  0.1950 -0.5277
 3302SOL    HW212980   3.280   1.707   5.227 -0.0186 -0.8857  0.1075
 3302SOL    HW312981   3.398   1.801   5.244 -0.5465  0.0780 -1.3215
 3302SOL    MW412982   3.336   1.750   5.278 -0.1008  0.0370 -0.5486
 3303SOL     OW12983   2.358   1.812   5.838 -0.3089  0.2745 -0.0499
 3303SOL    HW212984   2.369   1.752   5.764 -0.7270  0.5117 -0.3081
 3303SOL    HW312985   2.441   1.808   5.885 -0.0156  0.1721 -0.5741
 3303SOL    MW412986   2.370   1.804   5.834 -0.3254  0.2923 -0.1531
 3304SOL     OW12987   2.136   3.684   5.840  0.1343 -0.5030  0.6976
 3304SOL    HW212988   2.159   3.716   5.927 -2.1746  1.3642  0.7097
 3304SOL    HW312989   2.065   3.622   5.855 -0.1020 -0.3710  0.1457
 3304SOL    MW412990   2.130   3.680   5.853 -0.2015 -0.2393  0.6264
 3305SOL     OW12991   1.815   4.772   4.242 -0.4313  0.8704 -0.5319
 3305SOL    HW212992   1.747   4.722   4.197  0.4221 -2.3261  1.4684
 3305SOL    HW312993   1.780   4.861   4.246 -3.7903 -0.2983 -0.9230
 3305SOL    MW412994   1.802   4.777   4.236 -0.7619  0.2944 -0.3196
 3306SOL     OW12995   5.104   1.851   5.823  0.4684  0.8774  0.1536
 3306SOL    HW212996   5.052   1.777   5.791 -4.3470  2.6289  2.7986
 3306SOL    HW312997   5.070   1.926   5.774  1.5360  1.9679  1.0364
 3306SOL    MW412998   5.093   1.851   5.813 -0.0260  1.2524  0.6191
 3307SOL     OW12999   1.544   4.806   1.222 -0.3883 -0.1795 -0.1018
 3307SOL    HW213000   1.535   4.728   1.168  2.6057 -0.1428 -0.7839
 3307SOL    HW313001   1.557   4.773   1.311 -0.0346 -0.4139 -0.2427
 3307SOL    MW413002   1.544   4.792   1.227  0.0534 -0.2056 -0.2104
 3308SOL     OW13003   4.869   1.793   1.696  0.4845  0.0406 -0.2507
 3308SOL    HW213004   4.814   1.723   1.732 -1.4486  1.4806 -0.2718
 3308SOL    HW313005   4.907   1.836   1.773  0.1504  0.1488 -0.1446
 3308SOL    MW413006   4.867   1.789   1.711  0.1854  0.2449 -0.2395
 3309SOL     OW13007   1.912   1.066   4.973 -0.6058  0.3698 -0.5273
 3309SOL    HW213008   1.848   1.001   4.945  0.6737 -0.5786 -1.3938
 3309SOL    HW313009   1.929   1.118   4.894  1.8636 -1.3185 -1.2273
 3309SOL    MW413010   1.906   1.065   4.959 -0.1112  0.0219 -0.7339
 3310SOL     OW13011   2.797   6.017   3.702  0.1498  0.0563 -0.0466
 3310SOL    HW213012   2.799   5.994   3.795 -2.9146 -0.7725 -0.0990
 3310SOL    HW313013   2.706   6.041   3.685  0.9431  1.7137 -2.5260
 3310SOL    MW413014   2.785   6.017   3.712 -0.1499  0.1656 -0.3807
 3311SOL     OW13015   3.525   5.321   0.602  0.1941  0.1346 -0.3660
 3311SOL    HW213016   3.487   5.283   0.523  0.2145  0.1576 -0.3871
 3311SOL    HW313017   3.453   5.323   0.665 -0.2083  1.4493 -0.8327
 3311SOL    MW413018   3.511   5.316   0.600  0.1437  0.3111 -0.4303
 3312SOL     OW13019   0.687   2.422   2.069 -0.0060  0.1459  0.4819
 3312SOL    HW213020   0.717   2.437   2.159 -3.7706 -1.1511  2.1434
 3312SOL    HW313021   0.665   2.509   2.036  2.2222  0.7356  0.3949
 3312SOL    MW413022   0.688   2.436   2.077 -0.2087  0.0526  0.6896
 3313SOL     OW13023   2.549   2.650   3.485 -0.3647  0.5798  0.5227
 3313SOL    HW213024   2.497   2.681   3.411  0.9022 -0.1190 -0.7171
 3313SOL    HW313025   2.611   2.722   3.502 -0.9838  0.9512  1.2636
 3313SOL    MW413026   2.550   2.664   3.477 -0.2792  0.5366  0.4569
 3314SOL     OW13027   4.696   0.853   3.423 -0.2971 -1.1855  0.3790
 3314SOL    HW213028   4.680   0.759   3.433  1.2762 -1.4785  0.4556
 3314SOL    HW313029   4.777   0.858   3.372  0.2650  0.1056  1.3361
 3314SOL    MW413030   4.705   0.842   3.418 -0.0154 -1.0538  0.5153
 3315SOL     OW13031   5.046   0.711   1.008 -0.0561  0.5614  0.1067
 3315SOL    HW213032   5.041   0.799   1.045 -3.0529 -0.2524  2.0013
 3315SOL    HW313033   4.966   0.668   1.037  1.9349 -3.3286  0.5530
 3315SOL    MW413034   5.035   0.717   1.017 -0.1888 -0.0592  0.4156
 3316SOL     OW13035   2.936   3.275   2.837 -0.0143  0.6908  0.3414
 3316SOL    HW213036   2.890   3.357   2.854 -1.2446 -0.4176  2.8103
 3316SOL    HW313037   2.903   3.247   2.751 -1.0886  1.7815  0.3645
 3316SOL    MW413038   2.925   3.282   2.828 -0.3183  0.6885  0.6702
 3317SOL     OW13039   0.119   0.647   3.046 -0.1854  0.3033  0.2040
 3317SOL    HW213040   0.113   0.638   3.141 -1.1446  1.4523  0.2760
 3317SOL    HW313041   0.172   0.726   3.033  0.3415 -0.1216 -0.2191
 3317SOL    MW413042   0.125   0.656   3.057 -0.2424  0.3988  0.1577
 3318SOL     OW13043   5.696   4.612   0.075  0.0809  0.1687  0.3386
 3318SOL    HW213044   5.733   4.690   0.117  0.4081 -0.4801  1.2825
 3318SOL    HW313045   5.620   4.590   0.129 -1.1539  0.9146 -1.0169
 3318SOL    MW413046   5.691   4.619   0.088 -0.0388  0.1815  0.2843
 3319SOL     OW13047   2.169   1.374   3.046 -0.0151  0.5135 -0.4686
 3319SOL    HW213048   2.148   1.322   3.124  1.3651 -1.9680 -1.5901
 3319SOL    HW313049   2.095   1.361   2.988 -0.0833  0.5531 -0.3905
 3319SOL    MW413050   2.157   1.365   3.049  0.1580  0.1913 -0.6063
 3320SOL     OW13051   4.456   2.277   0.748 -0.9629 -0.1102  0.2500
 3320SOL    HW213052   4.526   2.341   0.741 -1.8519  0.9566  0.7248
 3320SOL    HW313053   4.500   2.192   0.746  0.4993  0.5288  2.0653
 3320SOL    MW413054   4.471   2.274   0.747 -0.8873  0.1148  0.5521
 3321SOL     OW13055   3.016   2.294   5.034 -0.1513 -0.2404  0.6361
 3321SOL    HW213056   2.938   2.340   5.003  0.9865  0.3896 -1.4455
 3321SOL    HW313057   3.083   2.313   4.968  1.9321 -0.3252  2.6013
 3321SOL    MW413058   3.015   2.303   5.022  0.2737 -0.1685  0.6207
 3322SOL     OW13059   3.414   0.384   4.212 -0.2665  0.3680 -0.5932
 3322SOL    HW213060   3.368   0.434   4.280  0.8079  0.0625  0.3982
 3322SOL    HW313061   3.399   0.433   4.132 -1.6758  0.6787 -0.1768
 3322SOL    MW413062   3.406   0.397   4.211 -0.3107  0.3687 -0.4074
 3323SOL     OW13063   0.940   6.481   6.063 -0.1919  0.4792  0.2949
 3323SOL    HW213064   0.868   6.536   6.031  0.0976  0.0180 -1.1917
 3323SOL    HW313065   0.972   6.435   5.986  0.7318 -0.4625  1.2043
 3323SOL    MW413066   0.935   6.482   6.049 -0.0318  0.2941  0.2187
 3324SOL     OW13067   1.350   4.943   4.386 -0.4779  0.3410  0.2652
 3324SOL    HW213068   1.380   4.861   4.347 -0.8973  0.5248 -0.4671
 3324SOL    HW313069   1.328   4.920   4.477  3.7067  0.6137  1.5464
 3324SOL    MW413070   1.351   4.929   4.393  0.0189  0.4012  0.3376
 3325SOL     OW13071   2.288   2.436   3.127 -0.5257 -0.2834  0.5157
 3325SOL    HW213072   2.295   2.453   3.033  0.1535  0.4102  0.6840
 3325SOL    HW313073   2.222   2.367   3.134  0.0160 -0.9377 -0.5328
 3325SOL    MW413074   2.280   2.429   3.116 -0.3646 -0.2782  0.3996
 3326SOL     OW13075   0.312   2.476   5.238 -0.0847 -0.1893  0.4246
 3326SOL    HW213076   0.349   2.432   5.314 -1.2488 -0.7408  0.6892
 3326SOL    HW313077   0.386   2.521   5.198  1.1333 -2.2263  0.2560
 3326SOL    MW413078   0.327   2.476   5.243 -0.0776 -0.5308  0.4372
 3327SOL     OW13079   1.029   2.545   2.586  0.2413 -0.1092 -0.8765
 3327SOL    HW213080   1.091   2.491   2.635  0.0310 -0.0347 -0.5214
 3327SOL    HW313081   1.076   2.571   2.507 -0.0726 -1.8346 -1.6641
 3327SOL    MW413082   1.043   2.542   2.582  0.1722 -0.3270 -0.9336
 3328SOL     OW13083   3.307   2.091   3.233  0.3938  0.4689  0.0428
 3328SOL    HW213084   3.383   2.120   3.284  2.2053 -0.9847 -1.6720
 3328SOL    HW313085   3.345   2.055   3.153 -2.1931  0.4777 -1.2688
 3328SOL    MW413086   3.322   2.090   3.229  0.2915  0.2782 -0.3565
 3329SOL     OW13087   5.167   2.977   1.904  0.2472 -0.0870  0.2135
 3329SOL    HW213088   5.179   2.994   1.998  0.4555  1.2303 -0.0359
 3329SOL    HW313089   5.248   3.007   1.863  0.7302 -1.9316 -0.2735
 3329SOL    MW413090   5.179   2.984   1.911  0.3384 -0.1566  0.1163
 3330SOL     OW13091   3.240   0.257   2.924  0.3314  0.0372  0.0861
 3330SOL    HW213092   3.324   0.266   2.970  0.1944 -1.6151  0.7333
 3330SOL    HW313093   3.212   0.167   2.942 -0.3546 -0.2749 -2.2360
 3330SOL    MW413094   3.247   0.247   2.933  0.2228 -0.2220 -0.1349
 3331SOL     OW13095   5.587   4.682   2.776  0.1001  0.0125 -0.3194
 3331SOL    HW213096   5.608   4.591   2.756 -0.1918 -0.1501  0.0812
 3331SOL    HW313097   5.671   4.728   2.775  0.1417 -0.0811 -1.4217
 3331SOL    MW413098   5.601   4.676   2.773  0.0671 -0.0213 -0.4120
 3332SOL     OW13099   1.665   4.501   5.313 -0.4822  0.7129  0.2050
 3332SOL    HW213100   1.621   4.424   5.350  0.0292  0.6852  0.7722
 3332SOL    HW313101   1.709   4.469   5.235 -2.0105  0.8786 -0.7792
 3332SOL    MW413102   1.665   4.487   5.307 -0.6164  0.7311  0.1500
 3333SOL     OW13103   3.844   4.882   4.946 -0.5338 -0.2953 -0.2540
 3333SOL    HW213104   3.786   4.894   5.021 -0.2399 -1.1464  0.1294
 3333SOL    HW313105   3.928   4.857   4.985 -0.0825  0.2832 -0.8293
 3333SOL    MW413106   3.848   4.880   4.961 -0.4355 -0.3313 -0.2793
 3334SOL     OW13107   3.013   1.098   0.042  0.0098  0.0696 -0.5971
 3334SOL    HW213108   3.075   1.025   0.046  1.2219  0.9690 -1.8754
 3334SOL    HW313109   3.040   1.156   0.113  0.1426  0.0914 -0.6651
 3334SOL    MW413110   3.025   1.096   0.052  0.1873  0.1912 -0.7747
 3335SOL     OW13111   0.466   5.547   1.529 -0.2877  0.0350  0.0910
 3335SOL    HW213112   0.488   5.470   1.478  0.2028 -0.0400  0.4154
 3335SOL    HW313113   0.403   5.516   1.594 -0.7053  0.0755 -0.2890
 3335SOL    MW413114   0.460   5.533   1.531 -0.2781  0.0305  0.0837
 3336SOL     OW13115   2.041   2.320   3.140  0.6331 -0.0370  0.0233
 3336SOL    HW213116   1.989   2.400   3.137 -2.0856 -1.5301  2.5609
 3336SOL    HW313117   2.032   2.283   3.052  0.7407  1.6751 -0.7495
 3336SOL    MW413118   2.033   2.326   3.128  0.2886 -0.0081  0.2561
 3337SOL     OW13119   1.821   0.970   0.596  0.5422 -0.3641  0.3949
 3337SOL    HW213120   1.764   0.918   0.540  1.3317 -0.9111  0.0935
 3337SOL    HW313121   1.785   0.958   0.684  0.3896 -0.9743  0.2518
 3337SOL    MW413122   1.809   0.961   0.600  0.6262 -0.5168  0.3363
 3338SOL     OW13123   3.427   0.793   0.934 -0.1201  0.4254  0.0676
 3338SOL    HW213124   3.516   0.826   0.951 -0.5354  1.1964  0.8577
 3338SOL    HW313125   3.421   0.714   0.987 -0.3503  1.1184  1.1053
 3338SOL    MW413126   3.438   0.787   0.943 -0.2052  0.6186  0.3088
 3339SOL     OW13127   5.909   6.017   4.350 -0.0026  1.1251 -0.1827
 3339SOL    HW213128   5.989   5.990   4.395 -0.7373  0.2026  0.6303
 3339SOL    HW313129   5.839   5.996   4.412 -0.9734  0.6866 -1.3864
 3339SOL    MW413130   5.910   6.011   4.364 -0.2276  0.9455 -0.2343
 3340SOL     OW13131   4.080   0.205   6.374  0.0675 -0.0972 -0.5227
 3340SOL    HW213132   4.107   0.232   6.462  0.6748  2.6781 -1.4608
 3340SOL    HW313133   4.162   0.196   6.325 -0.3515  0.6569 -1.3862
 3340SOL    MW413134   4.094   0.207   6.379  0.0923  0.3684 -0.7604
 3341SOL     OW13135   3.000   3.194   0.378  0.7685 -0.5170 -0.3241
 3341SOL    HW213136   3.076   3.228   0.427 -0.3467  3.0939 -0.8444
 3341SOL    HW313137   3.031   3.187   0.288  0.6380  0.4778 -0.4510
 3341SOL    MW413138   3.014   3.198   0.373  0.6042  0.0906 -0.4095
 3342SOL     OW13139   6.130   0.131   3.783 -0.6162 -0.0197 -0.2395
 3342SOL    HW213140   6.147   0.074   3.857 -0.0719  2.3450  1.5775
 3342SOL    HW313141   6.034   0.136   3.777 -0.6914 -1.6502 -0.9390
 3342SOL    MW413142   6.119   0.124   3.792 -0.5543  0.0771 -0.0921
 3343SOL     OW13143   1.601   0.341   1.262  0.6996  1.1487 -0.3397
 3343SOL    HW213144   1.662   0.267   1.264  0.0327  0.5963 -0.0552
 3343SOL    HW313145   1.583   0.358   1.355  0.0148  0.9688 -0.4412
 3343SOL    MW413146   1.607   0.334   1.275  0.5212  1.0521 -0.3156
 3344SOL     OW13147   5.846   6.417   4.893  0.9181  0.5092  0.1893
 3344SOL    HW213148   5.888   6.501   4.908  0.9886  0.3245  1.0489
 3344SOL    HW313149   5.779   6.411   4.961  1.0081 -0.1890  0.2214
 3344SOL    MW413150   5.843   6.427   4.904  0.9393  0.3927  0.3069
 3345SOL     OW13151   4.194   3.325   6.345  0.7413 -0.0102 -0.0805
 3345SOL    HW213152   4.178   3.390   6.414 -0.6183 -1.1116  0.7107
 3345SOL    HW313153   4.265   3.270   6.379 -0.5705 -1.1423  0.9364
 3345SOL    MW413154   4.201   3.326   6.359  0.3889 -0.3049  0.1581
 3346SOL     OW13155   2.709   2.432   3.927 -0.3289 -0.5521 -0.4734
 3346SOL    HW213156   2.617   2.453   3.910  0.6919  4.1792 -1.4884
 3346SOL    HW313157   2.743   2.403   3.842 -0.4260 -0.0499 -0.6887
 3346SOL    MW413158   2.701   2.431   3.913 -0.2070  0.1384 -0.6357
 3347SOL     OW13159   5.050   5.751   5.207 -0.6329  0.8442 -0.1696
 3347SOL    HW213160   5.079   5.704   5.285  0.9413  1.1711 -0.5309
 3347SOL    HW313161   5.067   5.843   5.226  1.3737  0.8073 -1.5045
 3347SOL    MW413162   5.056   5.757   5.219 -0.1605  0.8825 -0.3934
 3348SOL     OW13163   1.804   1.465   2.257  0.4673  0.1767  0.3918
 3348SOL    HW213164   1.893   1.448   2.288  1.3948 -1.1594 -2.6199
 3348SOL    HW313165   1.815   1.520   2.180 -1.1195 -1.5070 -1.1305
 3348SOL    MW413166   1.817   1.470   2.251  0.3803 -0.2217 -0.2064
 3349SOL     OW13167   4.780   3.448   5.657 -0.1734  0.3289 -0.6154
 3349SOL    HW213168   4.832   3.368   5.655 -1.3845 -0.4621 -2.2674
 3349SOL    HW313169   4.843   3.518   5.676  0.8780 -0.9855  1.0480
 3349SOL    MW413170   4.795   3.447   5.659 -0.1944  0.0511 -0.6139
 3350SOL     OW13171   2.181   1.582   0.221 -0.1324  0.4172 -0.2739
 3350SOL    HW213172   2.094   1.621   0.229  0.1080  0.5706  2.7162
 3350SOL    HW313173   2.207   1.563   0.311  1.0863 -3.8288 -1.3024
 3350SOL    MW413174   2.173   1.585   0.234  0.0601 -0.1228 -0.0151
 3351SOL     OW13175   4.700   0.257   0.539  0.2377 -0.0018 -0.5206
 3351SOL    HW213176   4.699   0.169   0.501  0.4479 -0.9947  1.5731
 3351SOL    HW313177   4.691   0.316   0.465 -0.2456 -1.8014 -1.9705
 3351SOL    MW413178   4.699   0.253   0.525  0.2017 -0.3702 -0.4356
 3352SOL     OW13179   1.018   1.230   3.926 -0.0067 -0.2508  0.2557
 3352SOL    HW213180   0.991   1.307   3.976  0.7415 -0.9709  1.8594
 3352SOL    HW313181   0.953   1.163   3.947 -0.3005 -0.2596 -0.6303
 3352SOL    MW413182   1.006   1.231   3.935  0.0533 -0.3470  0.3504
 3353SOL     OW13183   0.606   5.301   1.374 -0.6827  0.1841 -0.2285
 3353SOL    HW213184   0.629   5.243   1.447 -1.0296 -0.7369 -0.8403
 3353SOL    HW313185   0.687   5.310   1.324 -0.2788  1.3172  0.5889
 3353SOL    MW413186   0.619   5.294   1.377 -0.6752  0.2121 -0.2014
 3354SOL     OW13187   4.897   2.120   4.871  0.1261 -0.4320  0.2681
 3354SOL    HW213188   4.847   2.151   4.947  0.6838  0.2317  0.3814
 3354SOL    HW313189   4.914   2.028   4.888 -0.3849 -0.4633  0.6019
 3354SOL    MW413190   4.893   2.112   4.883  0.1323 -0.3485  0.3271
 3355SOL     OW13191   0.337   5.625   5.697 -0.5268  0.3357  0.1341
 3355SOL    HW213192   0.242   5.618   5.702 -0.4942 -1.3657 -0.8590
 3355SOL    HW313193   0.369   5.568   5.767 -0.2659 -0.9345 -0.9720
 3355SOL    MW413194   0.329   5.617   5.707 -0.4881 -0.0564 -0.1429
 3356SOL     OW13195   0.353   4.981   3.943  0.0591  0.2919  0.2189
 3356SOL    HW213196   0.258   4.982   3.941 -0.1757 -3.8369 -0.8859
 3356SOL    HW313197   0.376   4.962   4.034 -0.2742 -0.1673  0.2083
 3356SOL    MW413198   0.344   4.978   3.955 -0.0159 -0.3134  0.0718
 3357SOL     OW13199   0.111   3.881   1.705 -0.2321  0.3499 -0.1573
 3357SOL    HW213200   0.017   3.868   1.710 -0.1730 -0.0181  0.0251
 3357SOL    HW313201   0.139   3.895   1.796  0.1640 -1.5330  0.0502
 3357SOL    MW413202   0.103   3.881   1.718 -0.1720  0.0529 -0.1058
 3358SOL     OW13203   6.273   1.392   4.515  0.2864 -0.2205  0.0142
 3358SOL    HW213204   6.283   1.298   4.503 -0.3657 -0.5220  1.6430
 3358SOL    HW313205   6.194   1.401   4.569  0.3423  1.2568 -0.1154
 3358SOL    MW413206   6.264   1.381   4.520  0.2078 -0.0654  0.2120
 3359SOL     OW13207   4.717   5.390   0.233 -0.4092  0.0044 -0.2182
 3359SOL    HW213208   4.788   5.443   0.197 -0.6532  0.8406  0.5021
 3359SOL    HW313209   4.697   5.327   0.164  1.3228 -0.5393 -0.2605
 3359SOL    MW413210   4.723   5.389   0.219 -0.2129  0.0430 -0.1287
 3360SOL     OW13211   4.860   1.901   2.824 -0.3995  0.1859  0.9328
 3360SOL    HW213212   4.945   1.861   2.807 -0.8242  0.4861 -2.7308
 3360SOL    HW313213   4.800   1.827   2.835 -0.2767 -0.1545 -0.4822
 3360SOL    MW413214   4.863   1.886   2.823 -0.4393  0.1806  0.2627
 3361SOL     OW13215   3.187   3.265   3.097  0.2525  0.3568  0.4420
 3361SOL    HW213216   3.157   3.182   3.135  0.4961 -0.6673 -1.4473
 3361SOL    HW313217   3.223   3.240   3.012  0.8415  2.3600  0.0510
 3361SOL    MW413218   3.188   3.250   3.091  0.3623  0.4860  0.1411
 3362SOL     OW13219   2.575   5.267   2.194 -0.4949  0.1497  0.3644
 3362SOL    HW213220   2.499   5.245   2.247 -0.5952 -0.0832  0.1270
 3362SOL    HW313221   2.561   5.359   2.170 -0.8725  0.0149  0.0480
 3362SOL    MW413222   2.563   5.277   2.198 -0.5580  0.1012  0.2914
 3363SOL     OW13223   2.922   2.022   0.868 -0.3179  0.4367  0.6257
 3363SOL    HW213224   2.997   2.021   0.808  0.2793  2.1509  1.2817
 3363SOL    HW313225   2.958   1.995   0.952 -0.5863  0.6052  0.7975
 3363SOL    MW413226   2.937   2.018   0.871 -0.2745  0.6851  0.7350
 3364SOL     OW13227   0.586   5.531   0.723  0.0807 -0.4302 -0.4140
 3364SOL    HW213228   0.614   5.603   0.666 -1.0907 -0.4995 -1.1300
 3364SOL    HW313229   0.654   5.464   0.712  1.0525  0.4435  0.0677
 3364SOL    MW413230   0.599   5.532   0.714  0.0544 -0.3240 -0.4449
 3365SOL     OW13231   0.481   5.829   0.096  0.3665  0.2164 -0.0091
 3365SOL    HW213232   0.412   5.775   0.058 -0.4394  0.5323  0.9728
 3365SOL    HW313233   0.531   5.860   0.020 -0.4402 -0.1854 -0.7256
 3365SOL    MW413234   0.479   5.826   0.081  0.1538  0.2051  0.0259
 3366SOL     OW13235   6.208   3.523   1.179 -0.2500 -0.2161  0.1267
 3366SOL    HW213236   6.194   3.504   1.087  2.0645  1.4398 -0.6541
 3366SOL    HW313237   6.120   3.530   1.216 -1.2157 -1.6951 -1.7537
 3366SOL    MW413238   6.194   3.522   1.172 -0.0721 -0.1927 -0.2244
 3367SOL     OW13239   1.191   5.266   0.631  0.4288 -0.6114 -0.1071
 3367SOL    HW213240   1.132   5.336   0.656  2.2912  0.7860  0.5445
 3367SOL    HW313241   1.185   5.262   0.535 -1.2385 -1.0328 -0.0159
 3367SOL    MW413242   1.183   5.275   0.622  0.4546 -0.4827 -0.0091
 3368SOL     OW13243   2.795   1.933   4.965 -0.5440  0.4002  0.4706
 3368SOL    HW213244   2.888   1.942   4.987 -0.1520  0.2120 -1.0035
 3368SOL    HW313245   2.784   1.984   4.885 -1.7874  0.6507  0.7863
 3368SOL    MW413246   2.806   1.941   4.957 -0.6563  0.4084  0.3178
 3369SOL     OW13247   2.933   5.682   1.399  0.4309  0.2196  0.3355
 3369SOL    HW213248   2.884   5.745   1.346  1.6832 -0.2036 -1.4102
 3369SOL    HW313249   2.872   5.658   1.469 -1.4037  0.6626 -1.0118
 3369SOL    MW413250   2.918   5.687   1.401  0.3541  0.2222 -0.0726
 3370SOL     OW13251   2.261   1.623   4.394  0.1651 -0.3196  0.0010
 3370SOL    HW213252   2.242   1.537   4.431  0.7752 -0.9525 -1.0817
 3370SOL    HW313253   2.212   1.625   4.311  1.3610 -0.2635 -0.7316
 3370SOL    MW413254   2.252   1.612   4.388  0.4034 -0.3957 -0.2385
 3371SOL     OW13255   5.137   2.030   2.631 -0.0322 -0.3527  0.4487
 3371SOL    HW213256   5.100   1.946   2.605  0.9111 -0.7159  0.2653
 3371SOL    HW313257   5.229   2.026   2.604 -0.3378  1.3673 -1.0892
 3371SOL    MW413258   5.144   2.018   2.624  0.0520 -0.1737  0.2216
 3372SOL     OW13259   6.159   4.476   1.080  0.2910 -0.3306  0.3981
 3372SOL    HW213260   6.092   4.534   1.117  0.0197  0.0917 -0.7182
 3372SOL    HW313261   6.188   4.521   1.001  0.0072 -1.7565 -0.5477
 3372SOL    MW413262   6.154   4.490   1.075  0.2178 -0.4630  0.1260
 3373SOL     OW13263   0.291   2.175   1.262 -0.1864  1.0196  0.3373
 3373SOL    HW213264   0.376   2.164   1.303  0.0905  1.9254  0.0307
 3373SOL    HW313265   0.287   2.268   1.238 -0.1501  0.4856 -2.0337
 3373SOL    MW413266   0.302   2.186   1.264 -0.1451  1.0686 -0.0160
 3374SOL     OW13267   1.737   5.528   3.560  0.5687 -0.1668  0.2363
 3374SOL    HW213268   1.714   5.475   3.636  0.3930 -0.3846  0.0333
 3374SOL    HW313269   1.765   5.612   3.597  1.7766 -0.7122  0.6244
 3374SOL    MW413270   1.738   5.532   3.575  0.7049 -0.2675  0.2607
 3375SOL     OW13271   5.045   6.027   0.352  0.2345 -0.0835  0.4570
 3375SOL    HW213272   4.972   5.993   0.300  0.2247  0.6711 -0.0345
 3375SOL    HW313273   5.062   5.959   0.418 -0.8776 -0.2824  0.5492
 3375SOL    MW413274   5.038   6.013   0.354  0.0864 -0.0102  0.4043
 3376SOL     OW13275   6.372   4.065   0.566 -0.6129 -0.1787  0.2262
 3376SOL    HW213276   6.302   4.024   0.618 -1.1308  1.6158  0.9991
 3376SOL    HW313277   6.343   4.155   0.553  1.4793  0.5661  0.3947
 3376SOL    MW413278   6.359   4.071   0.571 -0.4052  0.1564  0.3504
 3377SOL     OW13279   2.385   2.601   5.329  0.1028 -0.0881  0.0831
 3377SOL    HW213280   2.472   2.641   5.338  0.5934 -0.9240 -0.7194
 3377SOL    HW313281   2.341   2.654   5.263  0.5291 -0.4778 -0.5304
 3377SOL    MW413282   2.391   2.613   5.321  0.2238 -0.2498 -0.1037
 3378SOL     OW13283   1.353   4.465   2.183 -0.2120 -0.5394  0.6097
 3378SOL    HW213284   1.382   4.517   2.258  0.7932 -0.2727  0.0392
 3378SOL    HW313285   1.366   4.374   2.211  2.4362 -0.4356 -0.0857
 3378SOL    MW413286   1.358   4.460   2.197  0.2700 -0.4906  0.4427
 3379SOL     OW13287   4.270   1.599   3.803 -0.1008  0.0937 -0.2950
 3379SOL    HW213288   4.228   1.522   3.843 -0.3198 -0.3317 -1.3276
 3379SOL    HW313289   4.339   1.563   3.748 -0.8342  0.5464 -1.5598
 3379SOL    MW413290   4.273   1.584   3.801 -0.2265  0.0973 -0.5981
 3380SOL     OW13291   5.165   3.249   3.681  0.0790  0.0151 -1.2524
 3380SOL    HW213292   5.161   3.267   3.587  1.2464 -0.2473 -1.3621
 3380SOL    HW313293   5.257   3.257   3.704 -0.3630  1.5471  0.1877
 3380SOL    MW413294   5.177   3.252   3.672  0.1747  0.1826 -1.0769
 3381SOL     OW13295   1.681   6.014   1.770  0.0799  0.2823 -0.3113
 3381SOL    HW213296   1.768   6.044   1.794 -0.4597  0.3717  1.7152
 3381SOL    HW313297   1.648   5.970   1.849 -2.1658  1.3233 -0.5958
 3381SOL    MW413298   1.688   6.012   1.784 -0.2876  0.4314 -0.0814
 3382SOL     OW13299   4.745   2.654   4.678 -0.2632  0.1481  0.0981
 3382SOL    HW213300   4.665   2.649   4.625  0.1405 -1.8862 -0.4157
 3382SOL    HW313301   4.763   2.563   4.703  0.5761  0.8356  2.2421
 3382SOL    MW413302   4.737   2.641   4.674 -0.0992 -0.0296  0.3132
 3383SOL     OW13303   4.390   2.866   2.965  0.1896  0.0281  0.0334
 3383SOL    HW213304   4.478   2.903   2.967  0.1349  0.1696  1.4899
 3383SOL    HW313305   4.337   2.930   2.917  0.1320  1.8607  2.3269
 3383SOL    MW413306   4.394   2.879   2.959  0.1747  0.2886  0.5282
 3384SOL     OW13307   1.446   1.759   1.252  0.1813 -0.2521 -0.0790
 3384SOL    HW213308   1.519   1.790   1.199  0.2606  1.0909  0.7719
 3384SOL    HW313309   1.487   1.710   1.323  0.1572 -0.7667 -0.4135
 3384SOL    MW413310   1.461   1.756   1.254  0.1886 -0.1428 -0.0108
 3385SOL     OW13311   2.383   0.100   4.721 -0.3311 -0.3027 -0.0069
 3385SOL    HW213312   2.413   0.023   4.672 -0.3121  1.1148 -2.3901
 3385SOL    HW313313   2.455   0.120   4.781  0.0705 -1.5722 -0.0426
 3385SOL    MW413314   2.396   0.093   4.722 -0.2756 -0.2832 -0.3260
 3386SOL     OW13315   2.176   4.399   3.551  0.3294 -0.3388 -0.3582
 3386SOL    HW213316   2.119   4.328   3.580  1.0257 -0.7804 -0.0190
 3386SOL    HW313317   2.118   4.474   3.540 -0.6935 -1.3555 -2.2658
 3386SOL    MW413318   2.161   4.400   3.554  0.2863 -0.5312 -0.5651
 3387SOL     OW13319   1.622   1.190   1.584  0.1868  0.6117  0.1926
 3387SOL    HW213320   1.618   1.097   1.607 -2.1008  0.2456 -1.3407
 3387SOL    HW313321   1.575   1.197   1.501  0.7805  3.0735 -0.0319
 3387SOL    MW413322   1.615   1.179   1.576 -0.0367  0.8882 -0.0393
 3388SOL     OW13323   5.125   3.368   4.786 -0.8362  0.1189 -0.5641
 3388SOL    HW213324   5.152   3.289   4.832 -1.3076 -0.0313 -0.5388
 3388SOL    HW313325   5.169   3.363   4.701 -1.1600 -0.3562 -0.7056
 3388SOL    MW413326   5.134   3.357   4.780 -0.9411  0.0364 -0.5794
 3389SOL     OW13327   2.663   6.397   3.735  0.2686  0.4901 -0.3898
 3389SOL    HW213328   2.686   6.420   3.645  0.5701  1.0168 -0.1851
 3389SOL    HW313329   2.568   6.412   3.739  0.4940  2.1374 -0.1720
 3389SOL    MW413330   2.653   6.402   3.724  0.3381  0.7769 -0.3340
 3390SOL     OW13331   5.029   4.874   4.449  0.1157 -0.0276 -0.7328
 3390SOL    HW213332   5.108   4.928   4.449  0.5308 -0.6191 -0.8933
 3390SOL    HW313333   4.962   4.928   4.490  0.5386  0.5821 -0.8422
 3390SOL    MW413334   5.031   4.888   4.455  0.2263 -0.0252 -0.7684
 3391SOL     OW13335   2.379   1.638   6.185 -0.3076 -0.0629 -0.2705
 3391SOL    HW213336   2.386   1.733   6.199 -0.1384 -0.4508  3.2816
 3391SOL    HW313337   2.291   1.616   6.214  0.3740 -1.2028  1.0541
 3391SOL    MW413338   2.368   1.648   6.191 -0.1953 -0.2645  0.3729
 3392SOL     OW13339   6.290   4.186   5.414 -0.0296 -0.4486  0.3773
 3392SOL    HW213340   6.198   4.197   5.388 -0.3430 -0.2221  1.5012
 3392SOL    HW313341   6.340   4.224   5.342 -0.8253 -0.3789 -0.1546
 3392SOL    MW413342   6.284   4.192   5.401 -0.1759 -0.4095  0.4554
 3393SOL     OW13343   5.155   6.104   5.811 -0.1122 -0.4139  0.6899
 3393SOL    HW213344   5.087   6.040   5.794  0.1343 -1.0124  1.8576
 3393SOL    HW313345   5.207   6.066   5.882 -0.0945  1.1516  1.5662
 3393SOL    MW413346   5.153   6.091   5.818 -0.0773 -0.2864  0.9596
 3394SOL     OW13347   3.771   2.700   2.700 -0.1279  0.0251  0.1224
 3394SOL    HW213348   3.703   2.762   2.729 -2.0211 -1.6771 -0.4233
 3394SOL    HW313349   3.799   2.656   2.780 -0.5246 -0.0634  0.2162
 3394SOL    MW413350   3.766   2.703   2.714 -0.4301 -0.2112  0.0628
 3395SOL     OW13351   1.439   5.258   6.351 -0.0482  0.1551  0.3431
 3395SOL    HW213352   1.500   5.319   6.394  1.7195 -0.8517 -0.6008
 3395SOL    HW313353   1.483   5.173   6.355 -0.3578 -0.2278 -2.2862
 3395SOL    MW413354   1.453   5.255   6.357  0.1442 -0.0282 -0.1283
 3396SOL     OW13355   1.385   3.085   4.456  0.2877  0.3803 -0.1703
 3396SOL    HW213356   1.429   3.050   4.534 -1.6052 -1.7417  0.0253
 3396SOL    HW313357   1.443   3.061   4.383  0.7939  0.0465  0.3339
 3396SOL    MW413358   1.399   3.077   4.456  0.1047  0.0563 -0.0780
 3397SOL     OW13359   4.823   3.991   1.661 -0.2196 -0.8820 -0.3238
 3397SOL    HW213360   4.867   4.020   1.581 -0.7834  1.0589  0.0201
 3397SOL    HW313361   4.835   3.896   1.662  0.8305 -0.8078 -2.0812
 3397SOL    MW413362   4.831   3.982   1.651 -0.1554 -0.6161 -0.5103
 3398SOL     OW13363   3.877   1.581   0.974  0.1908  0.0283 -0.5870
 3398SOL    HW213364   3.882   1.485   0.971  3.2624  0.1095 -0.8609
 3398SOL    HW313365   3.869   1.607   0.882  0.0879  0.0648 -0.5681
 3398SOL    MW413366   3.877   1.572   0.961  0.5825  0.0438 -0.6206
 3399SOL     OW13367   3.642   3.468   2.032 -0.2097 -0.0857 -0.1252
 3399SOL    HW213368   3.573   3.409   2.063  0.9071 -0.8519  1.0364
 3399SOL    HW313369   3.707   3.409   1.993  0.6575  0.4116  0.5319
 3399SOL    MW413370   3.641   3.452   2.031  0.0521 -0.1212  0.1148
 3400SOL     OW13371   1.548   0.212   4.589  0.0456  0.8357 -0.5930
 3400SOL    HW213372   1.454   0.201   4.603  0.3114  0.5478  1.1647
 3400SOL    HW313373   1.584   0.228   4.676  1.2972  3.8656 -1.5572
 3400SOL    MW413374   1.540   0.212   4.602  0.2458  1.1975 -0.4883
 3401SOL     OW13375   6.013   1.231   3.493  0.1739 -0.4492 -0.3434
 3401SOL    HW213376   6.003   1.264   3.404  1.2206 -0.1297 -0.3615
 3401SOL    HW313377   5.924   1.216   3.524 -0.1831 -0.8607 -1.5498
 3401SOL    MW413378   6.000   1.234   3.485  0.2649 -0.4614 -0.5049
 3402SOL     OW13379   3.814   3.757   0.539 -0.2626  0.4502 -0.0504
 3402SOL    HW213380   3.768   3.694   0.484 -0.6097  1.5930 -1.0935
 3402SOL    HW313381   3.764   3.838   0.531  0.7560  1.1532  0.4472
 3402SOL    MW413382   3.802   3.759   0.531 -0.1740  0.6937 -0.1224
 3403SOL     OW13383   0.151   1.584   2.037  0.7495  0.3958  0.3257
 3403SOL    HW213384   0.213   1.530   1.989  2.0719 -0.3049  2.6254
 3403SOL    HW313385   0.084   1.524   2.067 -0.1159  0.8410 -0.6613
 3403SOL    MW413386   0.150   1.569   2.035  0.8098  0.3621  0.4989
 3404SOL     OW13387   3.276   2.896   1.930 -0.3936 -0.1902 -0.1087
 3404SOL    HW213388   3.274   2.805   1.900 -0.4352 -0.3836  0.4646
 3404SOL    HW313389   3.353   2.934   1.886 -1.1643 -0.1074 -1.4374
 3404SOL    MW413390   3.286   2.889   1.920 -0.5008 -0.2048 -0.2084
 3405SOL     OW13391   1.463   4.963   1.616  0.0130 -0.0701 -0.7094
 3405SOL    HW213392   1.515   4.935   1.692  2.4821 -0.7461 -2.5158
 3405SOL    HW313393   1.406   4.888   1.597  1.5712 -1.1804 -1.2796
 3405SOL    MW413394   1.462   4.949   1.624  0.5443 -0.3058 -1.0230
 3406SOL     OW13395   3.135   0.388   1.397  0.4189  0.6003 -0.0964
 3406SOL    HW213396   3.148   0.296   1.372 -0.9296  0.5940 -0.9289
 3406SOL    HW313397   3.223   0.424   1.404  0.9722 -0.1054 -2.3945
 3406SOL    MW413398   3.148   0.381   1.395  0.3140  0.5063 -0.5094
 3407SOL     OW13399   1.024   4.566   2.754 -0.2077  0.2542 -0.4887
 3407SOL    HW213400   1.069   4.578   2.671 -0.9098 -2.0923 -1.2738
 3407SOL    HW313401   1.059   4.484   2.789  0.1686  1.2454  1.6300
 3407SOL    MW413402   1.035   4.557   2.748 -0.2507  0.0754 -0.3128
 3408SOL     OW13403   6.413   0.880   2.497  0.3355  0.3963  0.1943
 3408SOL    HW213404   6.385   0.811   2.437  2.3435  0.5763 -1.0298
 3408SOL    HW313405   6.332   0.915   2.533 -0.8273 -1.0351 -0.9207
 3408SOL    MW413406   6.399   0.876   2.494  0.4470  0.2312 -0.1143
 3409SOL     OW13407   1.330   4.447   4.497 -0.2590  0.0702 -0.0733
 3409SOL    HW213408   1.291   4.531   4.521  0.4664  0.5948 -0.6765
 3409SOL    HW313409   1.424   4.465   4.493 -0.1251 -0.6987 -0.4912
 3409SOL    MW413410   1.337   4.461   4.500 -0.1456  0.0379 -0.2081
 3410SOL     OW13411   4.570   5.557   3.168 -0.2599 -0.4320 -0.0868
 3410SOL    HW213412   4.483   5.596   3.169 -1.3763 -2.7669 -0.4803
 3410SOL    HW313413   4.562   5.480   3.112  1.5604 -1.7989  1.3861
 3410SOL    MW413414   4.558   5.552   3.160 -0.1671 -0.9204  0.0556
 3411SOL     OW13415   4.208   2.383   0.616  0.0043 -0.2179  0.5009
 3411SOL    HW213416   4.291   2.352   0.652  1.3428  1.6852 -0.7578
 3411SOL    HW313417   4.218   2.376   0.521 -2.0102 -1.6129  0.3183
 3411SOL    MW413418   4.220   2.378   0.608 -0.0849 -0.1508  0.3107
 3412SOL     OW13419   0.713   6.103   4.619 -0.0832  0.0598 -0.2541
 3412SOL    HW213420   0.722   6.014   4.584  1.0805  0.1926 -0.3510
 3412SOL    HW313421   0.767   6.103   4.698  1.0025  1.0234 -0.9537
 3412SOL    MW413422   0.721   6.091   4.625  0.2135  0.2045 -0.3592
 3413SOL     OW13423   0.786   1.346   0.555  0.5604  0.0567  0.0405
 3413SOL    HW213424   0.871   1.362   0.596  0.1895 -1.2942  1.3854
 3413SOL    HW313425   0.794   1.259   0.515 -0.2814 -0.2033  0.4220
 3413SOL    MW413426   0.798   1.337   0.555  0.4004 -0.1558  0.2683
 3414SOL     OW13427   6.335   3.345   3.966 -0.6333  0.2743  0.8062
 3414SOL    HW213428   6.377   3.365   4.050 -0.0786 -1.0766  0.8801
 3414SOL    HW313429   6.408   3.344   3.904 -0.5692 -1.7444  0.8693
 3414SOL    MW413430   6.350   3.348   3.969 -0.5517 -0.1703  0.8243
 3415SOL     OW13431   3.526   4.087   1.430  0.3863 -0.0137 -0.0707
 3415SOL    HW213432   3.594   4.072   1.495 -0.5833 -1.9989  0.5620
 3415SOL    HW313433   3.445   4.093   1.481 -0.0428  1.5070 -0.8735
 3415SOL    MW413434   3.524   4.086   1.445  0.2018 -0.0750 -0.0932
 3416SOL     OW13435   5.946   1.381   4.342 -0.5469 -0.1368  0.5986
 3416SOL    HW213436   5.899   1.460   4.316 -0.4878 -0.0483  0.7565
 3416SOL    HW313437   6.034   1.392   4.306 -1.0311 -0.9503 -0.9262
 3416SOL    MW413438   5.951   1.393   4.334 -0.6030 -0.2325  0.4183
 3417SOL     OW13439   0.087   2.569   1.332  0.1791  0.0364  0.2580
 3417SOL    HW213440   0.128   2.653   1.352  1.3756 -0.1650 -1.2143
 3417SOL    HW313441   0.140   2.532   1.261 -0.9959 -1.4511  0.1011
 3417SOL    MW413442   0.099   2.575   1.325  0.1820 -0.1865  0.0430
 3418SOL     OW13443   2.383   1.988   4.423 -0.3055 -0.4805 -0.7082
 3418SOL    HW213444   2.305   1.947   4.460  0.4364 -1.9797 -0.7158
 3418SOL    HW313445   2.422   1.919   4.368  0.6189  0.4826 -1.3010
 3418SOL    MW413446   2.378   1.973   4.420 -0.0856 -0.5512 -0.7874
 3419SOL     OW13447   5.079   0.370   3.136  0.0340  0.1082 -0.1152
 3419SOL    HW213448   5.162   0.335   3.168  0.5311  2.5731  1.5602
 3419SOL    HW313449   5.025   0.293   3.121  1.4480 -1.4310  2.0888
 3419SOL    MW413450   5.083   0.355   3.138  0.2861  0.2304  0.3967
 3420SOL     OW13451   2.457   0.135   2.336 -0.0671 -0.1459  0.4965
 3420SOL    HW213452   2.366   0.124   2.308 -0.2833  1.4766  0.4739
 3420SOL    HW313453   2.493   0.046   2.337 -1.5892 -0.7841  0.3121
 3420SOL    MW413454   2.450   0.122   2.332 -0.2964 -0.0161  0.4692
 3421SOL     OW13455   5.611   0.231   1.473 -0.3075  0.4940 -0.3001
 3421SOL    HW213456   5.537   0.266   1.423  1.0686  0.9261 -2.1397
 3421SOL    HW313457   5.682   0.227   1.410  1.4258  0.6308  1.5583
 3421SOL    MW413458   5.610   0.235   1.458  0.1027  0.5690 -0.2976
 3422SOL     OW13459   5.280   6.363   0.462 -0.0980 -0.1372  0.5591
 3422SOL    HW213460   5.196   6.320   0.477  0.4193 -1.5879 -0.4553
 3422SOL    HW313461   5.279   6.388   0.370  1.1589 -1.5884  0.1113
 3422SOL    MW413462   5.269   6.360   0.452  0.1361 -0.5201  0.3662
 3423SOL     OW13463   4.051   1.677   2.187  0.5577  0.4618  0.2674
 3423SOL    HW213464   4.069   1.653   2.278 -0.5648  0.3663  0.4817
 3423SOL    HW313465   4.081   1.601   2.136  0.8659  0.3666  0.5893
 3423SOL    MW413466   4.057   1.664   2.192  0.4502  0.4367  0.3381
 3424SOL     OW13467   0.370   1.516   5.887  0.1335 -0.1056  0.4597
 3424SOL    HW213468   0.328   1.562   5.960 -0.2319 -1.3163  1.0450
 3424SOL    HW313469   0.402   1.434   5.926  0.3723 -0.5459 -0.6311
 3424SOL    MW413470   0.368   1.511   5.902  0.1168 -0.3234  0.3930
 3425SOL     OW13471   5.366   1.826   5.994  0.1242  0.0836  0.5538
 3425SOL    HW213472   5.358   1.853   5.903  0.1281 -1.3065  0.1184
 3425SOL    HW313473   5.309   1.749   6.002  0.4391 -0.0592  1.6159
 3425SOL    MW413474   5.358   1.819   5.983  0.1662 -0.1186  0.6365
 3426SOL     OW13475   2.726   1.988   6.113 -0.1363  0.2004  0.0958
 3426SOL    HW213476   2.743   1.990   6.207  1.1076  0.7969 -0.1274
 3426SOL    HW313477   2.683   1.904   6.099  0.5186 -0.3160  1.0571
 3426SOL    MW413478   2.723   1.977   6.124  0.1142  0.2109  0.1932
 3427SOL     OW13479   3.027   3.982   1.089  0.0766 -0.0002 -0.4156
 3427SOL    HW213480   3.081   3.905   1.110  0.2857  0.4536  0.7733
 3427SOL    HW313481   2.995   4.012   1.174  0.4153  1.5358 -0.8142
 3427SOL    MW413482   3.030   3.976   1.103  0.1489  0.2623 -0.3113
 3428SOL     OW13483   6.134   0.554   0.691 -0.3258  0.3686  0.1632
 3428SOL    HW213484   6.203   0.606   0.733  0.7211 -0.2423 -0.7837
 3428SOL    HW313485   6.054   0.582   0.736  0.6339  0.3780  1.9677
 3428SOL    MW413486   6.132   0.565   0.703 -0.0611  0.2893  0.2763
 3429SOL     OW13487   3.016   6.132   3.363  0.0601 -0.2498 -0.5986
 3429SOL    HW213488   3.023   6.158   3.455  2.8160  1.3589 -1.1587
 3429SOL    HW313489   3.074   6.056   3.356  0.0522 -0.2112 -1.0619
 3429SOL    MW413490   3.024   6.125   3.375  0.4227 -0.0324 -0.7336
 3430SOL     OW13491   5.083   0.463   4.315  0.0673  0.1253 -0.1816
 3430SOL    HW213492   5.094   0.480   4.408 -0.7642 -1.4680  0.2357
 3430SOL    HW313493   5.070   0.550   4.276 -1.1880  0.6914  1.4058
 3430SOL    MW413494   5.083   0.477   4.322 -0.2080 -0.0102  0.0829
 3431SOL     OW13495   3.980   3.265   0.598 -0.5354 -0.4670 -0.1727
 3431SOL    HW213496   3.956   3.270   0.505 -1.0908 -1.9024 -0.1359
 3431SOL    HW313497   4.055   3.324   0.607 -0.0157 -0.8446 -1.6956
 3431SOL    MW413498   3.987   3.274   0.587 -0.5401 -0.7062 -0.3688
 3432SOL     OW13499   0.782   0.301   5.115 -0.4246 -0.0318  1.1100
 3432SOL    HW213500   0.777   0.207   5.127 -1.3234 -0.0638  0.5655
 3432SOL    HW313501   0.869   0.325   5.147  0.8809 -1.4306 -1.1557
 3432SOL    MW413502   0.793   0.292   5.121 -0.3709 -0.2206  0.7392
 3433SOL     OW13503   2.452   5.930   6.292 -0.3738 -0.0681  0.5884
 3433SOL    HW213504   2.423   5.984   6.218 -0.7272 -0.6684  0.2806
 3433SOL    HW313505   2.422   5.978   6.370  0.9548  1.1324  0.4156
 3433SOL    MW413506   2.444   5.944   6.293 -0.2452  0.0111  0.5250
 3434SOL     OW13507   2.700   0.744   5.902  0.2338 -0.0522  0.1655
 3434SOL    HW213508   2.771   0.682   5.912  0.8964  0.8238  1.0750
 3434SOL    HW313509   2.739   0.829   5.922 -0.9621  0.5013  0.2463
 3434SOL    MW413510   2.714   0.747   5.906  0.1635  0.1364  0.2962
 3435SOL     OW13511   6.327   1.388   5.896  0.3252  0.5182  0.2615
 3435SOL    HW213512   6.245   1.379   5.946 -0.0897 -0.7312 -0.5990
 3435SOL    HW313513   6.377   1.454   5.944  0.1866 -0.9852  2.6425
 3435SOL    MW413514   6.322   1.396   5.909  0.2522  0.1550  0.4621
 3436SOL     OW13515   4.586   4.185   2.280  0.2174  0.4512 -0.1843
 3436SOL    HW213516   4.540   4.224   2.355  0.6270  1.3374 -0.3769
 3436SOL    HW313517   4.587   4.255   2.214 -2.1626 -1.0114 -1.9323
 3436SOL    MW413518   4.580   4.199   2.281 -0.0425  0.3751 -0.4404
 3437SOL     OW13519   2.650   0.822   0.463  0.6924 -0.1482  0.0808
 3437SOL    HW213520   2.568   0.792   0.502  1.9953 -0.4332  2.8917
 3437SOL    HW313521   2.696   0.865   0.535  3.2675 -0.5083 -1.2286
 3437SOL    MW413522   2.646   0.824   0.478  1.2040 -0.2333  0.2789
 3438SOL     OW13523   3.596   3.336   0.535 -0.4120 -0.3933 -0.3238
 3438SOL    HW213524   3.644   3.256   0.556  1.1509  1.0626  2.2206
 3438SOL    HW313525   3.662   3.394   0.497 -1.3300 -0.0154 -1.3868
 3438SOL    MW413526   3.611   3.333   0.533 -0.3269 -0.1514 -0.1284
 3439SOL     OW13527   3.146   5.396   2.187 -0.2373  0.3964  0.3541
 3439SOL    HW213528   3.127   5.467   2.247 -2.4113 -0.3921  0.6647
 3439SOL    HW313529   3.087   5.409   2.113 -1.1091 -1.3818  0.6861
 3439SOL    MW413530   3.136   5.407   2.185 -0.6392  0.0578  0.4389
 3440SOL     OW13531   1.266   6.295   1.593  0.3942 -0.3509 -0.0982
 3440SOL    HW213532   1.211   6.293   1.671  0.8673  0.9653  0.2951
 3440SOL    HW313533   1.229   6.229   1.535 -0.3836 -0.8596  0.9605
 3440SOL    MW413534   1.254   6.286   1.595  0.3540 -0.2444  0.0934
 3441SOL     OW13535   6.217   4.139   4.294  0.6197 -0.5158  0.5053
 3441SOL    HW213536   6.194   4.222   4.252  3.7992  0.5271  0.5761
 3441SOL    HW313537   6.213   4.075   4.223 -0.9004 -0.1503  0.2292
 3441SOL    MW413538   6.214   4.142   4.279  0.8387 -0.3300  0.4782
 3442SOL     OW13539   2.026   3.601   4.811 -0.2388  0.0620  0.2468
 3442SOL    HW213540   2.071   3.626   4.731 -0.2277  1.3063  0.6231
 3442SOL    HW313541   1.933   3.610   4.791 -0.2307  0.6837  0.4498
 3442SOL    MW413542   2.019   3.606   4.798 -0.2363  0.3082  0.3232
 3443SOL     OW13543   5.559   2.425   1.153 -0.1462 -0.4203 -0.1284
 3443SOL    HW213544   5.567   2.408   1.059 -0.5946 -2.5163  0.1663
 3443SOL    HW313545   5.647   2.455   1.179  0.0237  0.0213 -1.1781
 3443SOL    MW413546   5.572   2.427   1.144 -0.1829 -0.6386 -0.2280
 3444SOL     OW13547   0.876   2.213   6.259  0.4989 -0.1650 -0.4755
 3444SOL    HW213548   0.947   2.253   6.308  0.8466  1.6505 -2.3058
 3444SOL    HW313549   0.826   2.287   6.225 -1.6089 -1.3834 -0.2185
 3444SOL    MW413550   0.878   2.228   6.261  0.2667 -0.0862 -0.6831
 3445SOL     OW13551   4.056   5.686   3.964 -0.6739 -0.0245 -0.3670
 3445SOL    HW213552   4.050   5.620   3.895  0.3920  0.2881 -0.7837
 3445SOL    HW313553   4.126   5.655   4.021 -1.3353 -0.1222  0.4153
 3445SOL    MW413554   4.065   5.673   3.963 -0.6206  0.0038 -0.3187
 3446SOL     OW13555   0.395   6.132   5.640  0.0897 -0.5231 -0.0052
 3446SOL    HW213556   0.378   6.040   5.620  1.0341 -0.9576  1.0423
 3446SOL    HW313557   0.368   6.180   5.562  0.9242 -1.8300 -1.1337
 3446SOL    MW413558   0.389   6.126   5.627  0.3244 -0.7528 -0.0159
 3447SOL     OW13559   1.877   0.262   3.392 -0.1545 -0.3372  0.0913
 3447SOL    HW213560   1.874   0.342   3.338  0.8915 -0.7190 -0.5564
 3447SOL    HW313561   1.878   0.294   3.482 -0.6242  0.3514 -0.1371
 3447SOL    MW413562   1.877   0.277   3.397 -0.0785 -0.2967 -0.0243
 3448SOL     OW13563   5.048   4.647   1.439 -0.3051 -0.0263  0.4851
 3448SOL    HW213564   4.981   4.683   1.497 -0.0621  0.8602  0.2340
 3448SOL    HW313565   5.128   4.695   1.462  0.2697 -1.1278  0.8332
 3448SOL    MW413566   5.050   4.658   1.449 -0.1972 -0.0546  0.4979
 3449SOL     OW13567   1.662   1.184   3.120  0.1678  0.1546 -0.4806
 3449SOL    HW213568   1.702   1.118   3.177  0.3558  1.6344  1.2152
 3449SOL    HW313569   1.568   1.171   3.132  0.2043  0.4092  0.1604
 3449SOL    MW413570   1.655   1.174   3.129  0.1974  0.3834 -0.1723
 3450SOL     OW13571   4.782   5.728   5.150 -0.5562  0.4656 -0.5657
 3450SOL    HW213572   4.740   5.659   5.202 -0.2807  0.4596 -0.3503
 3450SOL    HW313573   4.874   5.722   5.173 -0.7510  2.0112  0.7279
 3450SOL    MW413574   4.788   5.718   5.160 -0.5455  0.6687 -0.3666
 3451SOL     OW13575   5.966   1.722   6.177  0.0787  0.0971  0.1814
 3451SOL    HW213576   5.910   1.779   6.124  1.1495  2.2805  1.2201
 3451SOL    HW313577   5.921   1.638   6.179 -0.6044  0.2584 -3.1223
 3451SOL    MW413578   5.953   1.719   6.170  0.1298  0.4065 -0.1174
 3452SOL     OW13579   4.464   6.029   0.306 -0.0737 -0.4326  0.0363
 3452SOL    HW213580   4.428   6.111   0.339 -2.1781 -1.2966  0.0503
 3452SOL    HW313581   4.542   6.013   0.360 -1.1390  0.2366  1.8301
 3452SOL    MW413582   4.470   6.038   0.318 -0.4919 -0.4583  0.2748
 3453SOL     OW13583   3.322   0.484   3.372 -0.6017 -0.2596 -0.1347
 3453SOL    HW213584   3.326   0.578   3.354 -1.3894 -0.0437  0.7431
 3453SOL    HW313585   3.271   0.477   3.453 -0.7334 -1.4619 -0.3017
 3453SOL    MW413586   3.316   0.495   3.381 -0.7230 -0.3898 -0.0409
 3454SOL     OW13587   6.401   1.627   3.547  0.3463  0.7455  0.5189
 3454SOL    HW213588   6.342   1.701   3.533 -0.1466  0.0617 -1.4385
 3454SOL    HW313589   6.478   1.648   3.493  0.2656 -0.0600  0.0659
 3454SOL    MW413590   6.403   1.639   3.538  0.2706  0.5490  0.2009
 3455SOL     OW13591   1.439   2.750   0.146 -0.5767  0.6457 -0.0288
 3455SOL    HW213592   1.408   2.748   0.056 -0.5197 -0.7448 -0.0378
 3455SOL    HW313593   1.463   2.841   0.161 -1.0102  0.9862 -1.2658
 3455SOL    MW413594   1.438   2.762   0.136 -0.6264  0.5072 -0.1932
 3456SOL     OW13595   2.156   3.869   5.240 -0.4765 -0.5022 -0.1877
 3456SOL    HW213596   2.180   3.857   5.149  1.4709  0.3918  0.1452
 3456SOL    HW313597   2.198   3.796   5.286  1.1649  0.6924  0.3185
 3456SOL    MW413598   2.165   3.858   5.234 -0.0030 -0.2266 -0.0770
 3457SOL     OW13599   5.186   5.661   4.143 -0.6393 -0.0585 -0.0638
 3457SOL    HW213600   5.207   5.587   4.199 -1.3627 -0.2973 -0.1018
 3457SOL    HW313601   5.176   5.624   4.056  1.3682  0.4345 -0.5595
 3457SOL    MW413602   5.188   5.646   4.139 -0.4699 -0.0250 -0.1342
 3458SOL     OW13603   6.339   3.686   4.055  0.4342 -0.2034  0.3723
 3458SOL    HW213604   6.330   3.657   4.146  1.4094  2.6178  1.4709
 3458SOL    HW313605   6.249   3.689   4.022 -0.0522 -0.1783  1.6413
 3458SOL    MW413606   6.326   3.683   4.062  0.4987  0.1721  0.6846
 3459SOL     OW13607   4.312   1.598   3.395 -0.4879 -0.2019 -0.2356
 3459SOL    HW213608   4.316   1.660   3.323 -0.5833  2.4396  1.8685
 3459SOL    HW313609   4.220   1.598   3.421 -0.5829 -1.6402 -0.4732
 3459SOL    MW413610   4.300   1.606   3.389 -0.5130 -0.0432  0.0107
 3460SOL     OW13611   5.768   0.679   3.297 -0.4468 -0.2940 -0.2979
 3460SOL    HW213612   5.842   0.682   3.237 -0.4506 -2.2533 -0.4499
 3460SOL    HW313613   5.777   0.759   3.349  1.8131 -0.5075 -0.2540
 3460SOL    MW413614   5.779   0.690   3.296 -0.1492 -0.5807 -0.3121
 3461SOL     OW13615   2.966   1.998   3.163  0.3642  0.3385 -0.3074
 3461SOL    HW213616   2.926   1.940   3.228 -1.7894  0.8652 -1.0802
 3461SOL    HW313617   2.960   2.085   3.201  0.4195  0.4767 -0.6111
 3461SOL    MW413618   2.960   2.001   3.176  0.0874  0.4262 -0.4494
 3462SOL     OW13619   5.722   0.940   4.554  0.0871  0.3010  0.2921
 3462SOL    HW213620   5.706   0.987   4.472 -1.1133  0.1881  0.4405
 3462SOL    HW313621   5.808   0.970   4.583  1.2832 -0.8648 -1.8192
 3462SOL    MW413622   5.731   0.950   4.547  0.0865  0.1323  0.0331
 3463SOL     OW13623   1.292   0.688   3.332 -0.7561 -0.0237 -0.1906
 3463SOL    HW213624   1.218   0.657   3.281 -2.4872  1.9724  0.9460
 3463SOL    HW313625   1.258   0.694   3.422  1.4476 -1.1095  0.7954
 3463SOL    MW413626   1.278   0.684   3.337 -0.6937  0.0964  0.0895
 3464SOL     OW13627   3.506   5.746   5.211 -0.3828 -0.7245  0.9530
 3464SOL    HW213628   3.466   5.823   5.252  1.0303  0.3094  0.4626
 3464SOL    HW313629   3.557   5.706   5.281  0.2081 -0.2531  0.8013
 3464SOL    MW413630   3.508   5.751   5.226 -0.1184 -0.5259  0.8683
 3465SOL     OW13631   6.030   3.119   3.453 -0.0896  0.0013  0.1009
 3465SOL    HW213632   6.025   3.178   3.528  2.1821 -1.1629  1.2727
 3465SOL    HW313633   6.085   3.165   3.390 -2.3815  1.1847 -1.1547
 3465SOL    MW413634   6.037   3.132   3.455 -0.0923  0.0039  0.0899
 3466SOL     OW13635   1.903   3.489   0.799  0.2837  0.2120  0.8315
 3466SOL    HW213636   1.989   3.448   0.806 -0.4600 -1.2051  2.1405
 3466SOL    HW313637   1.844   3.418   0.774 -0.1736  1.6464 -2.8230
 3466SOL    MW413638   1.907   3.474   0.797  0.1253  0.2142  0.5221
 3467SOL     OW13639   5.049   5.428   1.927  0.1639 -0.0175  0.4434
 3467SOL    HW213640   5.138   5.395   1.933 -0.0403 -0.3271  3.6357
 3467SOL    HW313641   5.054   5.517   1.962 -0.5463  0.5724 -0.8810
 3467SOL    MW413642   5.061   5.435   1.933  0.0433  0.0195  0.6898
 3468SOL     OW13643   0.469   4.940   1.652  0.5960  0.1999  0.3292
 3468SOL    HW213644   0.466   4.897   1.567 -0.2695 -1.5943  1.2126
 3468SOL    HW313645   0.541   4.898   1.699 -0.1054 -0.1588  1.1224
 3468SOL    MW413646   0.478   4.929   1.647  0.3893 -0.0842  0.5504
 3469SOL     OW13647   6.305   4.134   0.984 -0.4478 -0.0918  0.2638
 3469SOL    HW213648   6.367   4.063   0.964 -2.9847 -2.2970 -0.4043
 3469SOL    HW313649   6.296   4.130   1.079  1.3153  1.1438  0.5374
 3469SOL    MW413650   6.312   4.124   0.994 -0.5499 -0.2197  0.2117
 3470SOL     OW13651   2.603   1.926   0.777 -0.4840 -0.3199  0.2826
 3470SOL    HW213652   2.535   1.885   0.724  0.3726 -4.1818  1.8168
 3470SOL    HW313653   2.677   1.938   0.718 -1.6955  1.9230 -0.8863
 3470SOL    MW413654   2.604   1.922   0.762 -0.5308 -0.5335  0.3308
 3471SOL     OW13655   6.152   0.092   2.776 -0.4117  0.0011 -0.0018
 3471SOL    HW213656   6.230   0.128   2.733 -0.1004 -0.0993  0.4770
 3471SOL    HW313657   6.082   0.154   2.754 -0.3553 -0.2754 -1.0143
 3471SOL    MW413658   6.153   0.105   2.767 -0.3631 -0.0486 -0.0722
 3472SOL     OW13659   3.522   0.493   5.954  0.3871 -0.2128 -0.1208
 3472SOL    HW213660   3.592   0.429   5.954  0.9489  0.3293  2.0189
 3472SOL    HW313661   3.443   0.442   5.973  0.6813 -0.4362  0.5451
 3472SOL    MW413662   3.521   0.478   5.957  0.5000 -0.1707  0.2494
 3473SOL     OW13663   0.615   4.791   0.659  0.2572  0.3769  0.0765
 3473SOL    HW213664   0.560   4.808   0.583 -0.6450  0.5782  0.7591
 3473SOL    HW313665   0.693   4.749   0.623  0.0999  0.9824 -1.0154
 3473SOL    MW413666   0.618   4.787   0.644  0.1174  0.4834  0.0225
 3474SOL     OW13667   2.320   6.439   5.945  0.2674 -0.2849 -0.2847
 3474SOL    HW213668   2.239   6.442   5.894  0.1353 -0.1460 -0.0709
 3474SOL    HW313669   2.303   6.374   6.013  0.9931 -1.6115 -1.3317
 3474SOL    MW413670   2.307   6.431   5.948  0.3457 -0.4416 -0.3946
 3475SOL     OW13671   5.377   5.211   0.049  0.0566  0.6073 -0.0638
 3475SOL    HW213672   5.356   5.245  -0.038 -0.8191 -1.5679 -0.7650
 3475SOL    HW313673   5.473   5.203   0.049 -0.0293 -2.2054 -2.0917
 3475SOL    MW413674   5.387   5.214   0.037 -0.0702 -0.0508 -0.4239
 3476SOL     OW13675   5.800   1.538   4.744  0.4353 -0.6990 -0.3899
 3476SOL    HW213676   5.778   1.631   4.732  1.4327 -0.6753 -2.5100
 3476SOL    HW313677   5.817   1.529   4.837 -0.8138  0.9917  0.0369
 3476SOL    MW413678   5.800   1.549   4.754  0.4021 -0.4728 -0.6133
 3477SOL     OW13679   4.254   5.329   2.922 -0.4194 -0.2222 -0.1897
 3477SOL    HW213680   4.311   5.389   2.874 -1.3250 -0.4979 -1.6923
 3477SOL    HW313681   4.312   5.258   2.950  0.5010  0.9233  0.8767
 3477SOL    MW413682   4.269   5.327   2.919 -0.4175 -0.1074 -0.2472
 3478SOL     OW13683   5.725   6.477   5.780 -0.0306 -0.2321 -0.1000
 3478SOL    HW213684   5.699   6.532   5.706 -0.9859 -0.8294 -0.2247
 3478SOL    HW313685   5.816   6.453   5.761 -0.5650 -1.1996 -1.6078
 3478SOL    MW413686   5.734   6.481   5.768 -0.2271 -0.4385 -0.3154
 3479SOL     OW13687   4.717   0.542   2.439 -0.0086  0.6764 -0.4659
 3479SOL    HW213688   4.778   0.589   2.382 -2.2461  1.3676 -2.4523
 3479SOL    HW313689   4.710   0.596   2.518  0.9892  1.2119 -0.7326
 3479SOL    MW413690   4.724   0.555   2.442 -0.1721  0.8383 -0.7632
 3480SOL     OW13691   4.189   1.723   0.784 -0.1379  0.8940  0.1423
 3480SOL    HW213692   4.099   1.739   0.755 -0.1695 -0.1090 -0.3462
 3480SOL    HW313693   4.179   1.688   0.873 -0.1724  1.6987  0.4595
 3480SOL    MW413694   4.176   1.720   0.792 -0.1466  0.8678  0.1197
 3481SOL     OW13695   2.050   0.251   2.323 -0.2943 -0.0384  0.4646
 3481SOL    HW213696   2.094   0.323   2.277 -0.0139 -0.1558  0.5443
 3481SOL    HW313697   2.085   0.172   2.281 -0.4389 -0.1320  0.5221
 3481SOL    MW413698   2.060   0.250   2.311 -0.2764 -0.0663  0.4827
 3482SOL     OW13699   3.829   3.499   3.809  0.4876  0.1831  0.3733
 3482SOL    HW213700   3.754   3.442   3.825  0.6326 -0.0540  0.2033
 3482SOL    HW313701   3.903   3.440   3.794  0.2491  0.3643 -1.8016
 3482SOL    MW413702   3.829   3.484   3.809  0.4753  0.1757  0.0639
 3483SOL     OW13703   0.937   4.656   2.300  0.0417 -0.6336 -0.2042
 3483SOL    HW213704   0.850   4.621   2.319  0.8579 -1.2142  3.0602
 3483SOL    HW313705   0.997   4.586   2.327  1.5814  0.7496  0.0914
 3483SOL    MW413706   0.933   4.642   2.306  0.3525 -0.5277  0.2655
 3484SOL     OW13707   5.927   1.500   3.564  0.2393  0.0216  0.5493
 3484SOL    HW213708   5.868   1.424   3.569  0.6325 -0.2521  1.1782
 3484SOL    HW313709   5.878   1.571   3.606  0.4336 -0.2614  1.2726
 3484SOL    MW413710   5.913   1.499   3.570  0.3168 -0.0518  0.7277
 3485SOL     OW13711   3.411   4.831   5.245 -0.3291  0.2477 -0.3684
 3485SOL    HW213712   3.488   4.873   5.284 -1.2173  0.5706  1.1375
 3485SOL    HW313713   3.337   4.866   5.295 -1.4229 -0.3904 -1.4823
 3485SOL    MW413714   3.411   4.841   5.257 -0.5906  0.2061 -0.3167
 3486SOL     OW13715   3.544   2.207   5.579  0.0759  0.1080 -0.9848
 3486SOL    HW213716   3.476   2.181   5.641 -0.1237  0.0211 -1.2391
 3486SOL    HW313717   3.500   2.264   5.517 -0.0699 -0.9719 -1.9012
 3486SOL    MW413718   3.530   2.211   5.579  0.0303 -0.0459 -1.1392
 3487SOL     OW13719   5.778   5.947   0.552  0.0475 -0.0963 -0.2921
 3487SOL    HW213720   5.736   5.872   0.509  0.2051  1.2279 -2.9642
 3487SOL    HW313721   5.867   5.917   0.570 -0.2281 -0.9268 -0.2581
 3487SOL    MW413722   5.784   5.933   0.549  0.0319 -0.0311 -0.6402
 3488SOL     OW13723   6.407   2.228   0.745 -0.2843 -0.0714  0.2367
 3488SOL    HW213724   6.403   2.323   0.736 -0.5074 -0.2612 -2.5049
 3488SOL    HW313725   6.500   2.210   0.761 -0.3446  0.6261  1.4675
 3488SOL    MW413726   6.419   2.238   0.746 -0.3217 -0.0044  0.0373
 3489SOL     OW13727   6.110   4.403   1.368  0.5926  0.0156  0.5009
 3489SOL    HW213728   6.123   4.430   1.277  0.7798 -1.4837  0.0692
 3489SOL    HW313729   6.093   4.485   1.414 -0.6694  0.7078 -1.0753
 3489SOL    MW413730   6.109   4.418   1.362  0.4508 -0.0909  0.2360
 3490SOL     OW13731   5.462   1.622   5.745  0.0525 -0.0605  0.0318
 3490SOL    HW213732   5.552   1.633   5.714 -0.3158  0.9796 -0.7181
 3490SOL    HW313733   5.411   1.605   5.666 -0.1701 -2.5954  0.6339
 3490SOL    MW413734   5.467   1.621   5.730 -0.0255 -0.2577  0.0123
 3491SOL     OW13735   4.858   5.160   0.838  0.1657 -0.7531 -0.1966
 3491SOL    HW213736   4.884   5.163   0.931  1.4739 -1.1264 -0.5356
 3491SOL    HW313737   4.765   5.136   0.841  0.0453 -0.2581  1.0316
 3491SOL    MW413738   4.849   5.157   0.851  0.3224 -0.7370 -0.0793
 3492SOL     OW13739   3.769   3.751   4.007  0.1933  0.2056  0.1334
 3492SOL    HW213740   3.852   3.738   4.053  0.2107  0.3642  0.1479
 3492SOL    HW313741   3.738   3.663   3.987  1.0422  0.1472 -1.0670
 3492SOL    MW413742   3.776   3.738   4.010  0.3076  0.2188 -0.0231
 3493SOL     OW13743   1.897   6.320   6.367 -0.6472 -0.5555  0.1462
 3493SOL    HW213744   1.878   6.227   6.356 -0.9004 -0.3150 -1.8670
 3493SOL    HW313745   1.812   6.360   6.385 -0.3655 -0.8320  2.3001
 3493SOL    MW413746   1.884   6.313   6.368 -0.6435 -0.5603  0.1648
 3494SOL     OW13747   2.364   1.740   4.001  0.2333  0.0079  0.2429
 3494SOL    HW213748   2.275   1.731   3.968 -0.6884  0.7354  2.3531
 3494SOL    HW313749   2.418   1.753   3.923 -1.4886 -0.4354 -1.0762
 3494SOL    MW413750   2.360   1.741   3.986 -0.1155  0.0454  0.3473
 3495SOL     OW13751   6.329   3.148   1.735  0.1338 -0.0774  0.2632
 3495SOL    HW213752   6.329   3.089   1.810  1.9765 -0.1757  0.2384
 3495SOL    HW313753   6.417   3.187   1.735 -0.5575  1.6064 -0.5450
 3495SOL    MW413754   6.341   3.145   1.745  0.2857  0.1318  0.1533
 3496SOL     OW13755   4.748   0.286   6.317  0.7974  0.0298  0.3655
 3496SOL    HW213756   4.834   0.280   6.276  0.3854 -2.2948 -0.2879
 3496SOL    HW313757   4.693   0.328   6.250  0.7502 -1.3044 -0.4760
 3496SOL    MW413758   4.752   0.291   6.303  0.7368 -0.4529  0.1683
 3497SOL     OW13759   2.101   2.088   0.966 -0.4621  0.1291 -0.4064
 3497SOL    HW213760   2.115   2.183   0.964  0.3834  0.0411  0.7462
 3497SOL    HW313761   2.054   2.073   1.048 -4.2528 -0.0352 -2.3712
 3497SOL    MW413762   2.096   2.099   0.977 -0.8507  0.0958 -0.5135
 3498SOL     OW13763   4.224   1.960   4.078 -0.0503  0.2805  0.0824
 3498SOL    HW213764   4.221   2.041   4.029 -0.1804  1.0639  1.3344
 3498SOL    HW313765   4.161   1.972   4.149  0.1496 -0.7838  0.4682
 3498SOL    MW413766   4.215   1.972   4.081 -0.0411  0.2435  0.2985
 3499SOL     OW13767   5.763   2.630   5.244 -0.5896 -0.0309 -0.1711
 3499SOL    HW213768   5.693   2.633   5.309 -1.5133 -0.1944 -1.1500
 3499SOL    HW313769   5.770   2.538   5.220  1.0567 -0.2890  1.0487
 3499SOL    MW413770   5.755   2.619   5.249 -0.4943 -0.0865 -0.1393
 3500SOL     OW13771   4.043   1.801   0.181  0.4076  0.0612  0.3048
 3500SOL    HW213772   4.077   1.859   0.113  0.2482 -0.0025  0.1678
 3500SOL    HW313773   4.033   1.716   0.137  0.2031  0.0458  0.3799
 3500SOL    MW413774   4.046   1.797   0.166  0.3596  0.0507  0.2966
 3501SOL     OW13775   4.173   1.629   4.251 -0.5208  0.5530 -0.6416
 3501SOL    HW213776   4.140   1.540   4.246  1.2877 -0.1758 -0.6005
 3501SOL    HW313777   4.218   1.633   4.335  0.6319  1.0269 -1.2509
 3501SOL    MW413778   4.175   1.618   4.261 -0.1301  0.5194 -0.7166
 3502SOL     OW13779   1.435   3.287   4.877  0.2558  0.2837 -0.0618
 3502SOL    HW213780   1.369   3.331   4.930  2.2207  0.9957  1.9845
 3502SOL    HW313781   1.395   3.204   4.852 -1.2319  0.4519  1.5400
 3502SOL    MW413782   1.421   3.282   4.881  0.3187  0.3998  0.4196
 3503SOL     OW13783   4.273   0.936   0.083 -0.0312  0.2295 -0.3750
 3503SOL    HW213784   4.337   0.943   0.154 -0.3102  0.6788 -0.1631
 3503SOL    HW313785   4.206   1.002   0.104 -0.2451  0.1939 -0.9201
 3503SOL    MW413786   4.272   0.946   0.095 -0.0962  0.2841 -0.4190
 3504SOL     OW13787   2.085   0.347   5.026 -0.5330 -0.8682  0.1236
 3504SOL    HW213788   2.128   0.318   4.946  1.0981  0.6891  0.3771
 3504SOL    HW313789   2.096   0.442   5.026  1.4775 -0.9657  3.2121
 3504SOL    MW413790   2.092   0.356   5.016 -0.0526 -0.6756  0.5645
 3505SOL     OW13791   4.920   2.094   3.426  0.1459  0.3213 -0.4272
 3505SOL    HW213792   4.844   2.106   3.484 -1.3643 -1.5306 -1.8895
 3505SOL    HW313793   4.993   2.077   3.486 -1.1181 -0.3999  0.9824
 3505SOL    MW413794   4.920   2.093   3.442 -0.2202 -0.0182 -0.4341
 3506SOL     OW13795   1.735   0.094   1.429  0.0119  0.2171  0.5735
 3506SOL    HW213796   1.760   0.007   1.398  1.6568  1.0296 -0.5331
 3506SOL    HW313797   1.639   0.094   1.426 -0.0064 -0.3264 -3.0699
 3506SOL    MW413798   1.726   0.082   1.424  0.2265  0.2526 -0.0532
 3507SOL     OW13799   3.362   2.279   2.794 -0.3456 -0.0948 -0.4534
 3507SOL    HW213800   3.441   2.226   2.802 -0.0593  0.5616  1.6405
 3507SOL    HW313801   3.330   2.261   2.706  0.9590 -2.0183 -0.5955
 3507SOL    MW413802   3.368   2.269   2.783 -0.1357 -0.2620 -0.1959
 3508SOL     OW13803   1.043   6.364   2.942 -0.7643 -0.3778  0.1146
 3508SOL    HW213804   1.016   6.386   2.853 -1.7215  3.0155  1.1061
 3508SOL    HW313805   0.981   6.297   2.970 -1.5718 -0.2082 -1.1697
 3508SOL    MW413806   1.032   6.358   2.934 -0.9971  0.0923  0.0760
 3509SOL     OW13807   3.300   5.371   0.797 -0.0450  0.2663  0.4446
 3509SOL    HW213808   3.242   5.320   0.740 -0.0634 -0.4916  1.1384
 3509SOL    HW313809   3.242   5.433   0.840  0.0611  1.3279 -0.8509
 3509SOL    MW413810   3.285   5.373   0.795 -0.0334  0.3064  0.3652
 3510SOL     OW13811   2.276   1.304   4.837  0.0393 -0.3439  0.3364
 3510SOL    HW213812   2.274   1.346   4.923 -0.9085  0.1958  0.0543
 3510SOL    HW313813   2.367   1.276   4.826  0.8367  2.0802  0.3026
 3510SOL    MW413814   2.288   1.306   4.847  0.0194  0.0471  0.2947
 3511SOL     OW13815   1.363   0.380   1.935  0.3109  0.7099 -1.0241
 3511SOL    HW213816   1.402   0.371   2.022 -0.7775  0.8536 -0.4940
 3511SOL    HW313817   1.416   0.324   1.879 -0.1309 -0.9602  0.1285
 3511SOL    MW413818   1.375   0.371   1.939  0.1090  0.5085 -0.8021
 3512SOL     OW13819   5.208   6.291   4.778 -0.6025  0.6972 -0.2566
 3512SOL    HW213820   5.252   6.311   4.696 -0.3452 -0.9714 -0.5530
 3512SOL    HW313821   5.186   6.198   4.772  0.8131  0.1287  2.1958
 3512SOL    MW413822   5.211   6.281   4.767 -0.3818  0.4020  0.0278
 3513SOL     OW13823   2.279   0.657   0.925 -0.2318  0.3950  0.8100
 3513SOL    HW213824   2.329   0.718   0.871 -0.7295  0.3448  0.2793
 3513SOL    HW313825   2.193   0.698   0.935 -0.0498  0.5502  1.8320
 3513SOL    MW413826   2.274   0.670   0.919 -0.2734  0.4088  0.8748
 3514SOL     OW13827   3.626   2.338   5.028  0.4305 -0.3194  0.2247
 3514SOL    HW213828   3.560   2.272   5.051  0.2894  0.2738  1.6324
 3514SOL    HW313829   3.632   2.334   4.933 -4.3780  2.1630 -0.4736
 3514SOL    MW413830   3.618   2.328   5.019 -0.2226  0.0864  0.3183
 3515SOL     OW13831   4.959   5.583   0.610 -0.1199  0.4943  0.1738
 3515SOL    HW213832   5.021   5.588   0.683 -0.6848 -1.8292  0.8888
 3515SOL    HW313833   4.946   5.489   0.596 -2.3451  0.9059 -0.9411
 3515SOL    MW413834   4.965   5.571   0.618 -0.4880  0.2420  0.1210
 3516SOL     OW13835   4.239   4.721   0.901  0.3215  0.2662 -0.8155
 3516SOL    HW213836   4.248   4.727   0.996  1.8303  0.2304 -0.9245
 3516SOL    HW313837   4.259   4.630   0.880 -0.6021  0.1261 -1.1221
 3516SOL    MW413838   4.243   4.710   0.911  0.3987  0.2430 -0.8703
 3517SOL     OW13839   2.351   0.668   1.735  0.7195  0.0737 -0.2130
 3517SOL    HW213840   2.263   0.705   1.747  0.7645 -0.1860  0.9728
 3517SOL    HW313841   2.338   0.573   1.740  1.3667  0.0577  2.4137
 3517SOL    MW413842   2.338   0.660   1.737  0.8108  0.0373  0.2900
 3518SOL     OW13843   5.665   4.506   2.174 -0.8351  0.3408 -0.0444
 3518SOL    HW213844   5.584   4.517   2.124 -0.9927  0.9536  0.3417
 3518SOL    HW313845   5.727   4.566   2.133 -0.8078  0.4491  0.1530
 3518SOL    MW413846   5.663   4.515   2.162 -0.8523  0.4359  0.0326
 3519SOL     OW13847   3.183   4.169   2.796 -0.3328  0.3787 -0.2833
 3519SOL    HW213848   3.268   4.165   2.840 -0.7307  1.2967  0.6196
 3519SOL    HW313849   3.188   4.103   2.727  0.7978 -0.1742  0.3037
 3519SOL    MW413850   3.195   4.160   2.793 -0.2362  0.4269 -0.0867
 3520SOL     OW13851   2.172   5.425   6.262  0.2321 -0.6257 -0.1490
 3520SOL    HW213852   2.247   5.366   6.268  0.1100 -0.7406  0.2648
 3520SOL    HW313853   2.196   5.486   6.192  0.9968 -0.2501  0.4271
 3520SOL    MW413854   2.185   5.425   6.253  0.3169 -0.5913 -0.0184
 3521SOL     OW13855   3.310   5.709   1.629 -0.0839 -0.4765  0.2642
 3521SOL    HW213856   3.346   5.741   1.547 -2.2015  1.1921 -0.1331
 3521SOL    HW313857   3.345   5.768   1.696 -1.7588  1.0437 -0.1013
 3521SOL    MW413858   3.319   5.721   1.627 -0.5843 -0.0558  0.1635
 3522SOL     OW13859   3.966   5.065   0.713  0.1023 -0.0873  0.3170
 3522SOL    HW213860   3.995   5.070   0.622 -0.7403 -1.0797 -0.0229
 3522SOL    HW313861   3.913   5.143   0.726 -0.2386 -0.2234 -0.2221
 3522SOL    MW413862   3.963   5.076   0.703 -0.0539 -0.2362  0.2010
 3523SOL     OW13863   2.265   2.528   2.863 -0.2717  0.1392  0.5243
 3523SOL    HW213864   2.318   2.605   2.879 -1.4460  0.8756  1.0175
 3523SOL    HW313865   2.313   2.479   2.795  0.6371  1.1329  0.4251
 3523SOL    MW413866   2.278   2.532   2.856 -0.3067  0.3675  0.5763
 3524SOL     OW13867   3.337   0.592   1.290  0.1315 -0.4139 -0.1970
 3524SOL    HW213868   3.350   0.671   1.343 -0.2947 -1.1355  1.0261
 3524SOL    HW313869   3.410   0.593   1.227  1.0346  0.1432  0.8282
 3524SOL    MW413870   3.349   0.602   1.289  0.1944 -0.4356  0.0996
 3525SOL     OW13871   2.604   2.797   3.199 -0.4122  0.0188 -0.2772
 3525SOL    HW213872   2.516   2.759   3.203  0.2615 -1.6219 -0.1319
 3525SOL    HW313873   2.640   2.764   3.117 -0.0218  0.9154 -0.4721
 3525SOL    MW413874   2.597   2.788   3.188 -0.2718 -0.0793 -0.2837
 3526SOL     OW13875   2.753   0.712   1.140 -0.3229 -0.0682  0.0840
 3526SOL    HW213876   2.824   0.682   1.196  0.4097 -1.3865 -1.4677
 3526SOL    HW313877   2.676   0.710   1.196  0.0351 -3.1351  0.6421
 3526SOL    MW413878   2.752   0.708   1.154 -0.1790 -0.6467 -0.0471
 3527SOL     OW13879   4.934   4.641   3.942  0.0866  0.2933 -0.0572
 3527SOL    HW213880   4.957   4.658   4.034  2.4784  0.2077 -0.5901
 3527SOL    HW313881   5.010   4.669   3.892 -0.7463 -0.6388 -1.9614
 3527SOL    MW413882   4.947   4.647   3.948  0.2923  0.1591 -0.3787
 3528SOL     OW13883   3.049   4.723   5.181  0.5343 -0.3389 -0.0487
 3528SOL    HW213884   3.088   4.704   5.266 -0.0129  0.4887  0.3984
 3528SOL    HW313885   3.105   4.792   5.144 -0.6634  1.1359  0.7624
 3528SOL    MW413886   3.062   4.730   5.187  0.3041 -0.0351  0.1173
 3529SOL     OW13887   6.069   0.591   3.765 -0.0329  1.0953 -0.4473
 3529SOL    HW213888   5.992   0.541   3.737  0.6985  0.3622 -1.2311
 3529SOL    HW313889   6.120   0.530   3.819  0.3429  1.3401 -0.5142
 3529SOL    MW413890   6.066   0.576   3.768  0.1132  1.0309 -0.5595
 3530SOL     OW13891   3.940   6.170   4.385  0.5877 -0.3824  0.0407
 3530SOL    HW213892   3.985   6.161   4.301  1.9889  0.9313  0.5901
 3530SOL    HW313893   3.955   6.086   4.429  1.0639 -0.5754 -0.4705
 3530SOL    MW413894   3.948   6.158   4.380  0.8354 -0.2345  0.0458
 3531SOL     OW13895   1.007   6.033   1.038  0.0394 -0.5491 -0.1312
 3531SOL    HW213896   1.009   6.114   1.088  2.3179  1.3953 -3.0459
 3531SOL    HW313897   0.926   6.037   0.988  0.3852  0.2266 -0.6421
 3531SOL    MW413898   0.997   6.044   1.038  0.3856 -0.1902 -0.5831
 3532SOL     OW13899   4.942   2.730   3.757 -0.1483  0.2003 -0.2874
 3532SOL    HW213900   4.966   2.786   3.683  1.5226 -0.3403 -0.1915
 3532SOL    HW313901   4.952   2.641   3.724 -0.8325 -0.0478  0.1557
 3532SOL    MW413902   4.947   2.726   3.743 -0.0181  0.0963 -0.2163
 3533SOL     OW13903   5.685   0.904   4.976 -0.1203  0.0535  0.1643
 3533SOL    HW213904   5.678   0.911   5.071  1.4651  0.6521  0.2590
 3533SOL    HW313905   5.773   0.870   4.960 -0.6833 -0.9072 -1.0685
 3533SOL    MW413906   5.695   0.900   4.986  0.0146  0.0057  0.0141
 3534SOL     OW13907   2.803   1.886   0.595  0.1973  0.2018 -0.0823
 3534SOL    HW213908   2.891   1.857   0.619  0.0291  0.5904  1.0693
 3534SOL    HW313909   2.754   1.805   0.582 -0.0535 -0.0936  2.2825
 3534SOL    MW413910   2.808   1.872   0.597  0.1420  0.2141  0.3817
 3535SOL     OW13911   0.378   1.362   3.916 -0.0925  0.6720  0.4233
 3535SOL    HW213912   0.444   1.399   3.858 -0.6572  1.6289  0.3654
 3535SOL    HW313913   0.420   1.361   4.002  0.3158  0.4034  0.2235
 3535SOL    MW413914   0.393   1.367   3.920 -0.1132  0.7628  0.3893
 3536SOL     OW13915   1.208   0.233   0.394 -0.5681  0.3321 -0.0224
 3536SOL    HW213916   1.243   0.254   0.480  0.2208  2.1217 -0.7315
 3536SOL    HW313917   1.251   0.295   0.335 -1.4808 -0.5058 -1.6239
 3536SOL    MW413918   1.218   0.244   0.398 -0.5845  0.4577 -0.3273
 3537SOL     OW13919   2.714   1.573   4.196 -0.4354  0.0737  0.3268
 3537SOL    HW213920   2.636   1.616   4.230 -0.7831  0.6099 -1.0897
 3537SOL    HW313921   2.683   1.524   4.120  0.4737 -0.3530  0.2212
 3537SOL    MW413922   2.700   1.572   4.190 -0.3614  0.0881  0.1260
 3538SOL     OW13923   0.287   5.006   5.922 -0.1594 -0.5786  0.3027
 3538SOL    HW213924   0.349   4.976   5.988 -0.3146  1.2582  1.3563
 3538SOL    HW313925   0.242   5.080   5.963 -0.0180  0.8621 -1.9714
 3538SOL    MW413926   0.289   5.012   5.936 -0.1613 -0.1461  0.1417
 3539SOL     OW13927   4.212   4.234   3.646 -0.1288 -0.3760  0.0889
 3539SOL    HW213928   4.120   4.210   3.659 -0.1983  0.1474  0.6090
 3539SOL    HW313929   4.208   4.308   3.584 -0.0470 -0.4406  0.0068
 3539SOL    MW413930   4.199   4.241   3.639 -0.1272 -0.3155  0.1467
 3540SOL     OW13931   1.322   1.336   2.062 -0.5368  0.8537  0.4110
 3540SOL    HW213932   1.244   1.353   2.114 -0.9557  0.2210 -0.0003
 3540SOL    HW313933   1.359   1.256   2.100 -0.9745  0.2572 -0.4130
 3540SOL    MW413934   1.317   1.328   2.074 -0.6498  0.6915  0.2480
 3541SOL     OW13935   5.723   4.775   6.264 -0.0780 -0.8362 -0.4344
 3541SOL    HW213936   5.715   4.710   6.334 -0.1095  0.3084  0.6602
 3541SOL    HW313937   5.694   4.857   6.304  1.5111  0.1896 -1.2878
 3541SOL    MW413938   5.718   4.778   6.279  0.1275 -0.5498 -0.4026
 3542SOL     OW13939   4.428   5.387   0.509  0.2384  0.1101  1.1182
 3542SOL    HW213940   4.481   5.310   0.530 -0.8725 -0.7224  0.9648
 3542SOL    HW313941   4.340   5.364   0.537 -0.7232  0.1460 -1.6389
 3542SOL    MW413942   4.423   5.374   0.515 -0.0351  0.0050  0.7342
 3543SOL     OW13943   3.105   5.518   6.109 -0.4367 -0.2503  0.1986
 3543SOL    HW213944   3.033   5.542   6.168 -1.3118 -0.3032 -0.8237
 3543SOL    HW313945   3.184   5.525   6.164 -1.2344 -0.4726  1.4188
 3543SOL    MW413946   3.106   5.522   6.124 -0.6574 -0.2866  0.2247
 3544SOL     OW13947   3.733   3.773   2.661  0.5591  0.2247 -0.2611
 3544SOL    HW213948   3.741   3.704   2.596  0.1415 -0.0013 -0.0771
 3544SOL    HW313949   3.732   3.727   2.745  3.2915  0.6178  0.0930
 3544SOL    MW413950   3.734   3.758   2.664  0.8645  0.2468 -0.1901
 3545SOL     OW13951   3.397   5.178   3.726  0.6796  0.0540 -0.7935
 3545SOL    HW213952   3.448   5.121   3.782  0.2172  0.6274  0.2342
 3545SOL    HW313953   3.326   5.123   3.693  0.1416  0.0511  0.3238
 3545SOL    MW413954   3.394   5.163   3.729  0.5476  0.1293 -0.5105
 3546SOL     OW13955   1.089   0.267   6.399  0.5206 -0.1623  0.2227
 3546SOL    HW213956   1.086   0.175   6.371 -1.1618 -1.1770  3.2757
 3546SOL    HW313957   1.003   0.302   6.374  0.6150  0.1506  0.3410
 3546SOL    MW413958   1.077   0.259   6.392  0.3110 -0.2549  0.6411
 3547SOL     OW13959   3.212   4.825   1.168  0.0676  0.2806 -0.3875
 3547SOL    HW213960   3.308   4.829   1.173  0.2860 -1.4728 -1.9940
 3547SOL    HW313961   3.191   4.733   1.184 -1.5055  0.8829  1.3591
 3547SOL    MW413962   3.222   4.813   1.171 -0.1112  0.1287 -0.3690
 3548SOL     OW13963   5.722   4.582   2.456  0.4259 -0.1334 -0.9214
 3548SOL    HW213964   5.710   4.552   2.547  2.5849 -0.5981 -0.7448
 3548SOL    HW313965   5.670   4.521   2.404  1.1013 -1.3942 -0.1715
 3548SOL    MW413966   5.713   4.570   2.461  0.7999 -0.3611 -0.7992
 3549SOL     OW13967   5.452   3.801   3.622 -0.4212 -0.1392  0.0731
 3549SOL    HW213968   5.473   3.709   3.641 -1.6794 -0.4791 -0.0379
 3549SOL    HW313969   5.406   3.832   3.700 -0.6597  0.1641 -0.1851
 3549SOL    MW413970   5.448   3.793   3.635 -0.6187 -0.1441  0.0244
 3550SOL     OW13971   1.292   5.709   6.124  0.0920  0.0305 -0.4964
 3550SOL    HW213972   1.376   5.671   6.150 -0.2692 -2.1025 -2.0953
 3550SOL    HW313973   1.311   5.800   6.104  1.4048  0.3536  1.8892
 3550SOL    MW413974   1.305   5.716   6.124  0.2176 -0.2083 -0.3926
 3551SOL     OW13975   2.296   4.831   0.117 -0.6285 -0.3808  0.5001
 3551SOL    HW213976   2.220   4.780   0.145 -0.5942 -1.0990 -0.6712
 3551SOL    HW313977   2.356   4.828   0.193 -1.7577  0.2307  1.4444
 3551SOL    MW413978   2.294   4.824   0.131 -0.7730 -0.3948  0.4701
 3552SOL     OW13979   4.641   1.411   2.379 -0.3142 -0.4358 -0.1849
 3552SOL    HW213980   4.665   1.492   2.424  0.4479 -1.0801  0.6061
 3552SOL    HW313981   4.581   1.366   2.439  0.6371 -1.2604  0.1753
 3552SOL    MW413982   4.636   1.415   2.393 -0.0881 -0.6296 -0.0330
 3553SOL     OW13983   1.447   0.075   4.010 -0.4553 -0.4119 -0.2140
 3553SOL    HW213984   1.367   0.060   3.960 -0.5217  0.2896 -0.3325
 3553SOL    HW313985   1.441   0.167   4.037 -0.1289 -0.6128  0.5614
 3553SOL    MW413986   1.436   0.085   4.007 -0.4210 -0.3459 -0.1273
 3554SOL     OW13987   1.234   5.365   4.591  0.2054 -0.1279  0.6586
 3554SOL    HW213988   1.185   5.382   4.671  0.1274  1.5331  0.2932
 3554SOL    HW313989   1.197   5.425   4.526  0.7114 -0.9682 -0.4426
 3554SOL    MW413990   1.223   5.375   4.593  0.2619 -0.0196  0.4651
 3555SOL     OW13991   3.020   5.288   1.078  0.0529 -0.6032 -0.1205
 3555SOL    HW213992   3.009   5.194   1.091  1.6625 -0.9028 -0.6420
 3555SOL    HW313993   3.114   5.303   1.090  0.2792  0.4750 -2.6137
 3555SOL    MW413994   3.031   5.278   1.081  0.2951 -0.5005 -0.5183
 3556SOL     OW13995   1.693   5.271   2.660 -0.7727  0.7454 -0.0751
 3556SOL    HW213996   1.633   5.300   2.728  0.3405 -0.5816  1.5471
 3556SOL    HW313997   1.763   5.227   2.707 -0.9019 -1.9609 -2.2008
 3556SOL    MW413998   1.695   5.269   2.675 -0.6429  0.2133 -0.1416
 3557SOL     OW13999   4.333   3.146   5.314  0.0272  0.0209 -0.3352
 3557SOL    HW214000   4.355   3.056   5.338 -2.1830 -0.6039 -0.4427
 3557SOL    HW314001   4.256   3.168   5.367 -0.5510  1.1922 -1.5779
 3557SOL    MW414002   4.326   3.137   5.324 -0.3407  0.0930 -0.5133
 3558SOL     OW14003   5.934   1.195   1.909  0.1245  0.1238 -0.4185
 3558SOL    HW214004   5.916   1.260   1.842 -0.3569 -0.0779 -0.4862
 3558SOL    HW314005   5.921   1.110   1.865  0.2895 -0.0134 -0.2060
 3558SOL    MW414006   5.930   1.192   1.895  0.0828  0.0791 -0.3994
 3559SOL     OW14007   0.637   5.319   3.301  0.0433 -0.6400  0.4685
 3559SOL    HW214008   0.565   5.258   3.320 -2.1824  2.1918  2.0354
 3559SOL    HW314009   0.677   5.335   3.387 -2.3137  3.1938  1.1327
 3559SOL    MW414010   0.633   5.313   3.315 -0.5613  0.2394  0.7629
 3560SOL     OW14011   4.775   4.486   1.856  0.2839  0.4071  0.2978
 3560SOL    HW214012   4.760   4.535   1.775 -2.2897 -0.9738 -0.1672
 3560SOL    HW314013   4.752   4.396   1.834  3.3636 -0.8158  1.5601
 3560SOL    MW414014   4.770   4.480   1.842  0.3507  0.0635  0.4030
 3561SOL     OW14015   1.894   4.408   5.154 -0.1773 -0.2148 -0.8221
 3561SOL    HW214016   1.961   4.428   5.088  2.5937 -1.0520  1.5171
 3561SOL    HW314017   1.894   4.313   5.160  0.7416 -0.1458  1.2894
 3561SOL    MW414018   1.903   4.398   5.146  0.3096 -0.3161 -0.2349
 3562SOL     OW14019   2.425   1.579   1.813  0.6607  0.2107 -0.1123
 3562SOL    HW214020   2.446   1.520   1.886  1.3001  2.2764  1.4519
 3562SOL    HW314021   2.343   1.544   1.778  0.7428 -1.3066  1.0724
 3562SOL    MW414022   2.417   1.566   1.818  0.7559  0.2831  0.2504
 3563SOL     OW14023   5.458   0.359   4.521  0.0087  0.3026  0.1158
 3563SOL    HW214024   5.438   0.447   4.489  2.2428  0.3478 -1.3513
 3563SOL    HW314025   5.476   0.371   4.614 -0.6644  1.2295  0.1349
 3563SOL    MW414026   5.458   0.372   4.529  0.2146  0.4309 -0.0753
 3564SOL     OW14027   2.746   5.269   1.929  0.1051 -0.2313  0.6264
 3564SOL    HW214028   2.692   5.288   2.006 -0.4892  0.3734  0.0706
 3564SOL    HW314029   2.693   5.298   1.855  1.7940  1.9172  0.1405
 3564SOL    MW414030   2.732   5.275   1.929  0.2495  0.1319  0.4890
 3565SOL     OW14031   2.879   2.032   1.620 -0.3829 -0.2517  0.1204
 3565SOL    HW214032   2.849   2.122   1.612 -0.9051 -0.5295 -1.1923
 3565SOL    HW314033   2.802   1.979   1.599 -0.6527 -1.0691  2.7544
 3565SOL    MW414034   2.864   2.037   1.616 -0.4874 -0.3962  0.2947
 3566SOL     OW14035   2.901   1.240   0.841  0.4897  0.2260  0.1122
 3566SOL    HW214036   2.865   1.163   0.885  0.2500 -0.3518 -1.0712
 3566SOL    HW314037   2.832   1.306   0.849  0.3355  0.0393  0.3531
 3566SOL    MW414038   2.887   1.238   0.848  0.4377  0.1252 -0.0122
 3567SOL     OW14039   3.407   4.589   4.377 -0.6629 -0.6338 -0.4798
 3567SOL    HW214040   3.399   4.531   4.453 -0.7034 -0.4880 -0.3723
 3567SOL    HW314041   3.471   4.546   4.320 -1.4402 -1.2953 -0.8709
 3567SOL    MW414042   3.415   4.576   4.380 -0.7708 -0.7018 -0.5172
 3568SOL     OW14043   0.375   1.851   1.646  0.1339 -0.1375 -0.0074
 3568SOL    HW214044   0.345   1.940   1.662 -0.8874 -0.8365  2.5331
 3568SOL    HW314045   0.294   1.800   1.640  0.6674 -0.8197 -2.3700
 3568SOL    MW414046   0.360   1.856   1.647  0.0696 -0.3197  0.0160
 3569SOL     OW14047   0.645   3.475   2.172 -0.1626 -0.4752  0.1672
 3569SOL    HW214048   0.632   3.523   2.254 -0.1285 -1.6520  0.8952
 3569SOL    HW314049   0.667   3.542   2.108 -0.9744  0.5617  0.9383
 3569SOL    MW414050   0.646   3.490   2.175 -0.2652 -0.4937  0.3650
 3570SOL     OW14051   3.082   5.392   2.516 -0.0794 -0.2131  0.3917
 3570SOL    HW214052   3.048   5.460   2.458  1.1899  2.3210  2.4126
 3570SOL    HW314053   3.004   5.348   2.550 -0.8945 -0.4952 -1.6957
 3570SOL    MW414054   3.068   5.395   2.513 -0.0195  0.0840  0.3829
 3571SOL     OW14055   0.783   1.860   6.356  0.4096  0.3398 -0.2060
 3571SOL    HW214056   0.773   1.872   6.450 -0.3558  1.9536 -0.4703
 3571SOL    HW314057   0.877   1.858   6.342  0.5747  2.5900  0.3302
 3571SOL    MW414058   0.794   1.861   6.367  0.3304  0.8496 -0.1701
 3572SOL     OW14059   6.194   0.333   6.428  0.2023  0.5465  0.2105
 3572SOL    HW214060   6.240   0.251   6.444  1.3393  1.1493  0.1801
 3572SOL    HW314061   6.138   0.345   6.505  1.3916  0.6290  1.0970
 3572SOL    MW414062   6.193   0.324   6.441  0.5092  0.6369  0.3235
 3573SOL     OW14063   1.803   5.810   6.211  0.0450  0.1132 -0.0584
 3573SOL    HW214064   1.888   5.819   6.168 -0.1187  1.7853 -0.1129
 3573SOL    HW314065   1.739   5.828   6.141 -0.2584  1.5490  0.5583
 3573SOL    MW414066   1.805   5.814   6.196 -0.0166  0.5233  0.0158
 3574SOL     OW14067   0.234   0.211   3.472  0.2922 -0.7064  0.5388
 3574SOL    HW214068   0.181   0.266   3.529 -2.3508 -1.8780 -0.6237
 3574SOL    HW314069   0.289   0.273   3.424 -0.5659  0.6501  1.2248
 3574SOL    MW414070   0.234   0.226   3.474 -0.1697 -0.6820  0.4759
 3575SOL     OW14071   5.028   5.444   1.449  0.3045  0.0850 -0.3370
 3575SOL    HW214072   4.947   5.489   1.423 -0.6195 -1.9248 -1.1594
 3575SOL    HW314073   5.011   5.414   1.539 -0.4886 -1.5398 -0.9818
 3575SOL    MW414074   5.015   5.446   1.458  0.0779 -0.3945 -0.5306
 3576SOL     OW14075   2.542   5.859   2.240 -0.2351 -0.8145 -0.3787
 3576SOL    HW214076   2.600   5.917   2.289  0.6589 -1.2369 -0.8966
 3576SOL    HW314077   2.520   5.789   2.301  0.3747 -1.0166 -0.3857
 3576SOL    MW414078   2.547   5.858   2.254 -0.0367 -0.8969 -0.4479
 3577SOL     OW14079   2.121   3.775   0.893  0.7693  0.4309  0.8437
 3577SOL    HW214080   2.138   3.721   0.816  0.9082  0.7810  0.6265
 3577SOL    HW314081   2.031   3.804   0.883  0.5838 -0.0319  1.1322
 3577SOL    MW414082   2.112   3.771   0.882  0.7632  0.4160  0.8531
 3578SOL     OW14083   4.992   5.102   3.923 -0.0092  0.1266 -0.2563
 3578SOL    HW214084   4.907   5.060   3.911  0.1596  0.1150 -1.5440
 3578SOL    HW314085   5.020   5.077   4.011  0.0918 -2.4447 -0.9605
 3578SOL    MW414086   4.985   5.093   3.933  0.0264 -0.2142 -0.5191
 3579SOL     OW14087   0.654   4.230   4.525 -0.3670  0.1777  0.4660
 3579SOL    HW214088   0.734   4.193   4.489 -0.6873  0.9270 -1.0868
 3579SOL    HW314089   0.593   4.156   4.530 -0.7149  0.2561 -1.7562
 3579SOL    MW414090   0.656   4.215   4.521 -0.4552  0.2869 -0.0321
 3580SOL     OW14091   4.825   0.624   0.312 -0.3738 -0.8013 -0.5000
 3580SOL    HW214092   4.780   0.653   0.392 -0.6786 -0.9611 -0.6106
 3580SOL    HW314093   4.786   0.539   0.292 -0.0879 -0.8966 -0.6540
 3580SOL    MW414094   4.814   0.617   0.320 -0.3763 -0.8349 -0.5349
 3581SOL     OW14095   1.089   6.397   4.301 -0.2076 -0.2936 -0.4866
 3581SOL    HW214096   1.156   6.344   4.259  0.6288  0.2806  0.0641
 3581SOL    HW314097   1.017   6.337   4.320  0.2987 -0.9958 -0.7944
 3581SOL    MW414098   1.088   6.382   4.298 -0.0305 -0.3105 -0.4546
 3582SOL     OW14099   0.946   3.446   0.431  0.5119  0.4369  0.2468
 3582SOL    HW214100   0.935   3.410   0.519  2.8369 -1.0095  0.0351
 3582SOL    HW314101   0.983   3.374   0.380  0.0931  1.5252 -1.6900
 3582SOL    MW414102   0.949   3.432   0.436  0.7634  0.3897 -0.0366
 3583SOL     OW14103   2.298   3.359   2.934  0.1929  0.6429 -0.0381
 3583SOL    HW214104   2.338   3.376   3.019  0.7341 -0.6504 -0.0096
 3583SOL    HW314105   2.206   3.382   2.946 -0.0431 -0.8102  1.3353
 3583SOL    MW414106   2.291   3.364   2.947  0.2332  0.2805  0.1469
 3584SOL     OW14107   2.854   5.419   3.408 -0.3874 -0.8876 -0.0351
 3584SOL    HW214108   2.813   5.475   3.474 -0.7654 -1.3370  0.1135
 3584SOL    HW314109   2.937   5.393   3.448  0.3013  0.4390 -0.5460
 3584SOL    MW414110   2.860   5.423   3.422 -0.3464 -0.7718 -0.0829
 3585SOL     OW14111   0.312   1.394   5.638  0.5690  0.0417  0.0772
 3585SOL    HW214112   0.394   1.414   5.592  0.7339 -0.8628 -0.0542
 3585SOL    HW314113   0.319   1.441   5.721  0.0314  2.1313 -1.0012
 3585SOL    MW414114   0.324   1.403   5.643  0.5198  0.1981 -0.0824
 3586SOL     OW14115   2.052   0.379   1.152  0.4308  0.7097  0.5763
 3586SOL    HW214116   2.097   0.297   1.132 -0.8629  0.0337  0.3381
 3586SOL    HW314117   2.003   0.361   1.232  1.3462  1.7553  1.4123
 3586SOL    MW414118   2.052   0.366   1.160  0.3809  0.7584  0.6552
 3587SOL     OW14119   5.861   6.047   5.006 -0.2135  0.1056 -0.0443
 3587SOL    HW214120   5.799   6.009   4.943 -0.0025  0.5852 -0.5517
 3587SOL    HW314121   5.825   6.023   5.092 -1.2250  0.5602 -0.3233
 3587SOL    MW414122   5.848   6.039   5.009 -0.3191  0.2288 -0.1480
 3588SOL     OW14123   3.112   4.981   3.067 -0.0747 -0.3773 -0.1106
 3588SOL    HW214124   3.155   5.049   3.015 -1.6174 -1.1219 -2.5013
 3588SOL    HW314125   3.184   4.926   3.098  0.9312  0.2227 -1.2751
 3588SOL    MW414126   3.127   4.983   3.065 -0.1455 -0.3964 -0.5797
 3589SOL     OW14127   0.320   4.339   5.479  0.6162  0.0286 -0.9336
 3589SOL    HW214128   0.293   4.414   5.427  0.3356 -0.2914 -1.2530
 3589SOL    HW314129   0.269   4.347   5.560  1.5207  0.8793 -0.4199
 3589SOL    MW414130   0.310   4.350   5.483  0.6985  0.0986 -0.9080
 3590SOL     OW14131   4.684   6.474   4.509  0.5947 -0.1028  0.6887
 3590SOL    HW214132   4.671   6.379   4.504  2.3856 -0.3726  0.2826
 3590SOL    HW314133   4.665   6.505   4.420 -0.6088  0.0401  0.9752
 3590SOL    MW414134   4.680   6.466   4.496  0.6722 -0.1196  0.6729
 3591SOL     OW14135   3.092   5.493   0.374  0.6136  0.7127 -0.1675
 3591SOL    HW214136   3.075   5.399   0.366  0.7891  0.7062 -0.5190
 3591SOL    HW314137   3.019   5.527   0.425 -0.3146  0.6413 -1.3861
 3591SOL    MW414138   3.081   5.485   0.380  0.5143  0.7025 -0.3746
 3592SOL     OW14139   6.051   4.893   3.070  0.5210 -0.5702 -0.6042
 3592SOL    HW214140   6.036   4.942   3.151  0.3384 -0.2040 -0.8546
 3592SOL    HW314141   6.130   4.841   3.087 -0.8380 -2.3345  0.6471
 3592SOL    MW414142   6.060   4.893   3.083  0.3176 -0.7547 -0.4721
 3593SOL     OW14143   5.031   2.576   6.164 -0.0784  0.2683 -0.1028
 3593SOL    HW214144   5.105   2.625   6.128  1.4256 -1.2895  0.7108
 3593SOL    HW314145   4.994   2.530   6.089  2.7795 -2.6418  0.0254
 3593SOL    MW414146   5.036   2.577   6.150  0.4971 -0.3212  0.0215
 3594SOL     OW14147   5.284   1.380   0.759  0.4087 -0.0447  0.5246
 3594SOL    HW214148   5.367   1.418   0.731  0.2051  1.4700  1.8007
 3594SOL    HW314149   5.309   1.300   0.804  1.2784  0.7114  1.4505
 3594SOL    MW414150   5.298   1.375   0.762  0.4966  0.2549  0.8152
 3595SOL     OW14151   4.736   3.484   2.092  0.0413 -0.0120  0.5517
 3595SOL    HW214152   4.817   3.433   2.094  0.1201  0.1176  0.7096
 3595SOL    HW314153   4.686   3.453   2.167 -0.1876 -0.3083  0.2732
 3595SOL    MW414154   4.740   3.473   2.102  0.0215 -0.0340  0.5358
 3596SOL     OW14155   2.405   2.943   6.096 -0.0107  0.1184 -0.5162
 3596SOL    HW214156   2.450   2.920   6.014 -0.1094 -3.2362  0.2029
 3596SOL    HW314157   2.474   2.941   6.163 -0.4578 -0.5963 -0.0608
 3596SOL    MW414158   2.420   2.939   6.094 -0.0827 -0.4185 -0.3612
 3597SOL     OW14159   1.024   4.343   5.026 -0.5217 -0.7147  0.0183
 3597SOL    HW214160   1.115   4.369   5.019 -0.7171 -0.3067 -1.2152
 3597SOL    HW314161   0.989   4.396   5.098  0.4125 -1.5244  1.0970
 3597SOL    MW414162   1.031   4.353   5.035 -0.4242 -0.7677 -0.0021
 3598SOL     OW14163   3.878   4.200   0.428  0.3406  0.2530  0.2350
 3598SOL    HW214164   3.873   4.229   0.337  0.2592  0.4819  0.3131
 3598SOL    HW314165   3.840   4.271   0.479 -0.6935 -0.3642  0.3504
 3598SOL    MW414166   3.872   4.213   0.423  0.1934  0.2017  0.2606
 3599SOL     OW14167   5.223   6.209   1.703 -0.8078  0.5637 -0.2100
 3599SOL    HW214168   5.270   6.185   1.783  0.7459  0.9882 -0.9440
 3599SOL    HW314169   5.280   6.178   1.632 -3.0793 -1.6708 -1.2371
 3599SOL    MW414170   5.237   6.202   1.704 -0.9025  0.3249 -0.4423
 3600SOL     OW14171   1.355   3.839   0.940  0.1710 -0.6173 -0.5735
 3600SOL    HW214172   1.346   3.922   0.986 -1.8571 -1.2740  0.3314
 3600SOL    HW314173   1.290   3.843   0.870 -0.9325 -1.9473  0.3291
 3600SOL    MW414174   1.345   3.850   0.937 -0.2422 -0.8794 -0.3350
 3601SOL     OW14175   2.172   5.016   5.635 -0.1916 -0.0880 -0.0542
 3601SOL    HW214176   2.100   5.080   5.630  0.2128  0.4319  0.6315
 3601SOL    HW314177   2.204   5.023   5.725  1.4700  0.5315 -0.6634
 3601SOL    MW414178   2.166   5.026   5.646  0.0810  0.0624 -0.0441
 3602SOL     OW14179   4.173   0.811   0.654 -0.1435 -0.7008  0.2991
 3602SOL    HW214180   4.100   0.760   0.618 -1.1884 -0.4336  1.9265
 3602SOL    HW314181   4.159   0.809   0.748  1.0164  0.7847  0.5395
 3602SOL    MW414182   4.162   0.804   0.661 -0.1283 -0.4695  0.5455
 3603SOL     OW14183   2.150   0.105   1.095 -0.1119 -0.0558  0.2302
 3603SOL    HW214184   2.096   0.034   1.131 -1.7296  1.2729  0.5238
 3603SOL    HW314185   2.105   0.133   1.016 -0.7535  2.0723  1.2639
 3603SOL    MW414186   2.137   0.099   1.090 -0.4100  0.4003  0.4053
 3604SOL     OW14187   6.104   3.933   1.866 -0.2973 -0.9151 -0.3916
 3604SOL    HW214188   6.024   3.965   1.823 -1.2912 -3.1997 -0.3909
 3604SOL    HW314189   6.072   3.873   1.933  1.3829 -0.1484  1.1591
 3604SOL    MW414190   6.089   3.930   1.869 -0.2068 -1.1153 -0.1869
 3605SOL     OW14191   2.415   3.422   0.333 -0.3269  0.5226  0.1553
 3605SOL    HW214192   2.367   3.501   0.308 -0.4892  0.7474  1.1176
 3605SOL    HW314193   2.369   3.390   0.411 -1.0008 -1.2066 -0.8787
 3605SOL    MW414194   2.402   3.428   0.340 -0.4373  0.3241  0.1458
 3606SOL     OW14195   0.448   6.093   4.826  0.5902  0.6100 -0.4319
 3606SOL    HW214196   0.535   6.132   4.819  1.0649 -0.5079 -1.0066
 3606SOL    HW314197   0.427   6.097   4.920  1.8171 -0.2703 -0.0999
 3606SOL    MW414198   0.457   6.099   4.838  0.8147  0.3463 -0.4639
 3607SOL     OW14199   6.327   4.604   0.886  1.1163  0.0939 -0.7474
 3607SOL    HW214200   6.261   4.648   0.832 -0.1707  0.6056  1.1119
 3607SOL    HW314201   6.371   4.676   0.933  1.7068 -0.3693 -0.5785
 3607SOL    MW414202   6.324   4.619   0.885  1.0244  0.1003 -0.4798
 3608SOL     OW14203   5.895   4.241   3.298  0.0409 -0.5923 -0.0717
 3608SOL    HW214204   5.875   4.152   3.269 -0.1194 -0.1861 -1.2627
 3608SOL    HW314205   5.869   4.242   3.390  0.0960 -1.7896 -0.0265
 3608SOL    MW414206   5.889   4.229   3.306  0.0270 -0.6967 -0.2229
 3609SOL     OW14207   2.717   4.704   5.979 -0.0908 -0.3869 -0.0799
 3609SOL    HW214208   2.742   4.732   5.891  0.6457  3.5425  1.2042
 3609SOL    HW314209   2.622   4.713   5.981  0.0361  1.0893 -0.0318
 3609SOL    MW414210   2.708   4.709   5.968  0.0231  0.3263  0.0959
 3610SOL     OW14211   3.713   4.933   2.089  0.9085  0.4317  0.7975
 3610SOL    HW214212   3.729   4.930   2.183 -0.0607  2.0876  1.0561
 3610SOL    HW314213   3.637   4.876   2.076  1.9196 -0.9569  0.7676
 3610SOL    MW414214   3.705   4.925   2.100  0.9141  0.4670  0.8277
 3611SOL     OW14215   3.265   3.107   2.137  0.2426  0.8629 -0.2968
 3611SOL    HW214216   3.243   3.046   2.066 -1.0076  0.8027  0.1243
 3611SOL    HW314217   3.339   3.066   2.182 -1.0460 -0.7502  0.4492
 3611SOL    MW414218   3.272   3.093   2.133 -0.0924  0.6421 -0.1428
 3612SOL     OW14219   1.061   0.648   2.180  0.1638  0.1460  0.5613
 3612SOL    HW214220   1.098   0.721   2.229  2.3470 -0.0896 -0.5836
 3612SOL    HW314221   1.115   0.643   2.101 -2.5582 -0.0855 -1.4380
 3612SOL    MW414222   1.073   0.657   2.176  0.0927  0.0844  0.1465
 3613SOL     OW14223   2.503   4.053   1.340  1.0481  0.6626  0.2277
 3613SOL    HW214224   2.537   4.132   1.382 -1.0240  1.7566 -0.0287
 3613SOL    HW314225   2.526   4.062   1.248  2.5340 -0.0278  0.5105
 3613SOL    MW414226   2.510   4.064   1.333  0.9708  0.7158  0.2312
 3614SOL     OW14227   4.698   0.571   5.700  0.1416 -0.5450  0.5457
 3614SOL    HW214228   4.757   0.606   5.767 -0.0407  0.5106  0.1778
 3614SOL    HW314229   4.726   0.614   5.619 -0.7449 -0.4980  0.2580
 3614SOL    MW414230   4.710   0.581   5.698  0.0006 -0.3996  0.4592
 3615SOL     OW14231   5.035   0.164   1.859  0.1270 -0.1431 -0.3288
 3615SOL    HW214232   4.978   0.170   1.783 -0.0796  1.0264 -0.0995
 3615SOL    HW314233   4.979   0.129   1.929 -0.1557  0.4173 -0.2678
 3615SOL    MW414234   5.020   0.160   1.859  0.0624  0.0851 -0.2905
 3616SOL     OW14235   3.840   5.037   3.891 -0.6847  0.0585  0.1573
 3616SOL    HW214236   3.821   5.131   3.893 -1.7614 -0.1398 -0.3114
 3616SOL    HW314237   3.807   5.007   3.807  0.1507 -0.6552  0.0661
 3616SOL    MW414238   3.834   5.046   3.880 -0.7166 -0.0618  0.0835
 3617SOL     OW14239   5.127   2.572   5.057  0.3405 -0.2524  0.3030
 3617SOL    HW214240   5.071   2.649   5.044  1.0250  0.0674 -1.0016
 3617SOL    HW314241   5.208   2.607   5.093  0.7203 -0.3297 -0.4643
 3617SOL    MW414242   5.130   2.587   5.060  0.4809 -0.2204  0.0297
 3618SOL     OW14243   2.983   3.722   1.748  0.1093 -0.7917  0.1180
 3618SOL    HW214244   2.967   3.700   1.840  0.5241 -0.3501  0.3015
 3618SOL    HW314245   2.965   3.641   1.700 -3.1110 -0.2556  0.2319
 3618SOL    MW414246   2.979   3.708   1.754 -0.2608 -0.6627  0.1573
 3619SOL     OW14247   1.045   3.890   4.911 -0.5049 -0.0253  0.0617
 3619SOL    HW214248   1.061   3.969   4.964 -2.1426  0.3996 -0.0088
 3619SOL    HW314249   0.983   3.919   4.845  0.4386 -0.9043 -1.2488
 3619SOL    MW414250   1.039   3.905   4.909 -0.5965 -0.0852 -0.1205
 3620SOL     OW14251   5.138   6.140   5.079  0.4075  0.3274 -0.2681
 3620SOL    HW214252   5.090   6.117   5.159 -0.6193  3.3341  0.1326
 3620SOL    HW314253   5.072   6.138   5.010  0.9202 -0.5937 -0.7509
 3620SOL    MW414254   5.123   6.137   5.081  0.3396  0.6026 -0.2789
 3621SOL     OW14255   1.230   1.411   5.952  0.1293  0.2843 -0.3144
 3621SOL    HW214256   1.225   1.426   5.857  1.2652 -0.5972 -0.5430
 3621SOL    HW314257   1.199   1.321   5.963  1.3216 -0.1154 -0.0446
 3621SOL    MW414258   1.226   1.401   5.941  0.4365  0.1152 -0.3090
 3622SOL     OW14259   5.728   4.377   0.674 -0.0891 -0.5393  0.1486
 3622SOL    HW214260   5.724   4.360   0.580  0.6783 -0.6066  0.1224
 3622SOL    HW314261   5.764   4.296   0.712  0.3731 -0.2216  0.4033
 3622SOL    MW414262   5.732   4.364   0.667  0.0732 -0.5062  0.1788
 3623SOL     OW14263   4.550   0.551   1.982 -0.2834  0.1759 -0.4410
 3623SOL    HW214264   4.519   0.558   2.072 -1.3084  0.3683 -0.7984
 3623SOL    HW314265   4.589   0.464   1.976 -0.3108  0.1225  0.1597
 3623SOL    MW414266   4.551   0.541   1.993 -0.4222  0.1943 -0.4089
 3624SOL     OW14267   2.410   2.411   4.584  0.3139  0.1803 -0.0400
 3624SOL    HW214268   2.434   2.487   4.638 -0.0863 -0.1707  0.6421
 3624SOL    HW314269   2.475   2.344   4.608  0.4616  0.1982 -0.3911
 3624SOL    MW414270   2.422   2.412   4.594  0.2806  0.1364  0.0037
 3625SOL     OW14271   5.197   3.838   4.855 -0.1163 -0.4031 -0.3949
 3625SOL    HW214272   5.279   3.884   4.869 -0.4539  0.0904 -0.0017
 3625SOL    HW314273   5.214   3.780   4.780  0.4637 -0.0197 -0.5617
 3625SOL    MW414274   5.210   3.836   4.847 -0.0843 -0.2874 -0.3650
 3626SOL     OW14275   4.311   3.733   5.094 -0.1671 -0.9827  0.4327
 3626SOL    HW214276   4.378   3.773   5.038 -0.2855 -0.0325  0.9517
 3626SOL    HW314277   4.358   3.712   5.175 -0.4803 -0.3378  0.7870
 3626SOL    MW414278   4.326   3.736   5.097 -0.2240 -0.7723  0.5479
 3627SOL     OW14279   2.312   4.075   0.735 -0.3189  0.1275  0.0959
 3627SOL    HW214280   2.312   4.163   0.774 -1.5395 -0.3750  1.3179
 3627SOL    HW314281   2.221   4.047   0.739 -0.0118 -1.0518 -0.6349
 3627SOL    MW414282   2.300   4.083   0.741 -0.4394 -0.0944  0.1607
 3628SOL     OW14283   3.836   6.069   2.060 -0.2569  0.1786  0.4122
 3628SOL    HW214284   3.832   5.985   2.105  0.2036  0.5935  1.2512
 3628SOL    HW314285   3.776   6.126   2.108 -1.9958 -0.1421 -1.2530
 3628SOL    MW414286   3.827   6.066   2.072 -0.4256  0.1910  0.3032
 3629SOL     OW14287   0.468   1.644   3.882 -0.2323  0.0815 -0.6303
 3629SOL    HW214288   0.416   1.706   3.933  1.7514  2.2272 -1.0310
 3629SOL    HW314289   0.530   1.608   3.945  0.4843  0.7228 -0.9525
 3629SOL    MW414290   0.469   1.648   3.897  0.1240  0.4492 -0.7257
 3630SOL     OW14291   2.195   5.254   4.594 -0.3252  0.3853 -0.3733
 3630SOL    HW214292   2.190   5.163   4.562  3.3165  0.3825 -1.4300
 3630SOL    HW314293   2.231   5.246   4.682  0.6032  0.7995 -0.7076
 3630SOL    MW414294   2.199   5.241   4.601  0.2778  0.4396 -0.5568
 3631SOL     OW14295   4.536   5.582   0.338  0.0568 -0.1594  0.9103
 3631SOL    HW214296   4.484   5.537   0.404 -0.6100 -0.8527 -0.0447
 3631SOL    HW314297   4.573   5.511   0.284  0.3579  0.3914  0.3768
 3631SOL    MW414298   4.534   5.567   0.339  0.0085 -0.1782  0.7140
 3632SOL     OW14299   2.230   3.018   0.389  0.0866 -0.3133 -0.3396
 3632SOL    HW214300   2.202   3.075   0.318  0.3871  0.3290  0.0521
 3632SOL    HW314301   2.152   3.008   0.444 -0.7246 -2.3477 -1.7171
 3632SOL    MW414302   2.216   3.024   0.387  0.0192 -0.4970 -0.4696
 3633SOL     OW14303   4.565   4.604   3.063 -0.0834  0.0123 -0.3344
 3633SOL    HW214304   4.648   4.582   3.107 -0.1613  0.1844 -0.1015
 3633SOL    HW314305   4.569   4.699   3.051  0.5737 -0.1745 -1.9866
 3633SOL    MW414306   4.577   4.613   3.067 -0.0070  0.0104 -0.5217
 3634SOL     OW14307   4.347   4.852   1.715 -0.6611 -0.2041 -0.2817
 3634SOL    HW214308   4.384   4.929   1.672  1.1403 -1.0918 -0.4139
 3634SOL    HW314309   4.329   4.791   1.644 -1.4588 -0.1798 -0.1136
 3634SOL    MW414310   4.349   4.854   1.700 -0.5287 -0.3180 -0.2770
 3635SOL     OW14311   1.373   3.068   0.310 -0.3886  0.2564  0.5043
 3635SOL    HW214312   1.352   3.134   0.375 -2.2452  0.5426 -0.3306
 3635SOL    HW314313   1.460   3.036   0.335 -0.4567  1.3478  2.2682
 3635SOL    MW414314   1.382   3.072   0.322 -0.6426  0.4381  0.6268
 3636SOL     OW14315   5.270   6.449   1.799  0.2145  0.3629  0.0360
 3636SOL    HW214316   5.252   6.363   1.761 -0.5430 -0.1599  1.4882
 3636SOL    HW314317   5.186   6.477   1.837  0.9080  0.8635  1.2605
 3636SOL    MW414318   5.256   6.442   1.799  0.2061  0.3600  0.3891
 3637SOL     OW14319   0.933   1.629   3.832 -0.0218  0.3357 -0.2055
 3637SOL    HW214320   0.863   1.569   3.859  2.1023 -2.0617  0.3536
 3637SOL    HW314321   0.891   1.715   3.830 -2.7918 -0.8635  0.7615
 3637SOL    MW414322   0.918   1.633   3.835 -0.1070 -0.1388 -0.0042
 3638SOL     OW14323   5.469   4.685   4.060 -0.2404 -0.4529 -0.1704
 3638SOL    HW214324   5.402   4.743   4.095 -0.0789 -0.9306  0.9652
 3638SOL    HW314325   5.481   4.618   4.127  1.5065 -0.2648 -0.2313
 3638SOL    MW414326   5.462   4.684   4.073  0.0114 -0.4911 -0.0286
 3639SOL     OW14327   1.554   3.852   3.365  0.0523 -0.4975  0.4668
 3639SOL    HW214328   1.557   3.796   3.443  1.5963  0.8217  1.4282
 3639SOL    HW314329   1.598   3.802   3.297 -0.7066 -1.3919  0.6176
 3639SOL    MW414330   1.560   3.838   3.367  0.1559 -0.4414  0.6135
 3640SOL     OW14331   5.706   0.638   1.549 -0.2436 -0.0879 -0.3466
 3640SOL    HW214332   5.788   0.637   1.498 -1.5404 -1.4830 -2.5843
 3640SOL    HW314333   5.700   0.550   1.586 -0.0642  0.4585  1.0313
 3640SOL    MW414334   5.716   0.626   1.547 -0.3910 -0.1999 -0.4601
 3641SOL     OW14335   0.281   2.941   5.343 -0.1789  0.0283  0.1042
 3641SOL    HW214336   0.275   3.003   5.417 -0.5466  1.7392 -1.2877
 3641SOL    HW314337   0.204   2.961   5.290 -0.8345 -2.3239  0.0550
 3641SOL    MW414338   0.270   2.952   5.346 -0.3139 -0.0563 -0.0860
 3642SOL     OW14339   0.562   5.332   3.913 -0.1195 -0.3619  0.1658
 3642SOL    HW214340   0.512   5.265   3.866  1.2056 -0.2040 -1.5739
 3642SOL    HW314341   0.576   5.402   3.849 -0.2930  0.9883  1.5332
 3642SOL    MW414342   0.557   5.332   3.898  0.0324 -0.1629  0.1167
 3643SOL     OW14343   4.096   5.760   4.375 -0.0526 -0.1479  0.2111
 3643SOL    HW214344   4.030   5.755   4.306 -0.1574 -0.9330  0.3645
 3643SOL    HW314345   4.050   5.800   4.449  0.2318  1.3021 -0.3595
 3643SOL    MW414346   4.081   5.765   4.376 -0.0289 -0.0602  0.1561
 3644SOL     OW14347   2.099   4.315   2.637 -0.1473  0.3527  0.3204
 3644SOL    HW214348   2.173   4.280   2.686 -0.8201  0.1024  1.1897
 3644SOL    HW314349   2.113   4.409   2.635  0.5144  0.2534 -0.0753
 3644SOL    MW414350   2.111   4.323   2.643 -0.1488  0.3066  0.3829
 3645SOL     OW14351   1.384   5.788   5.046 -0.3226 -0.5761 -0.2449
 3645SOL    HW214352   1.392   5.882   5.028 -0.4927 -0.5775 -0.3293
 3645SOL    HW314353   1.330   5.754   4.975  0.6532 -0.9401 -0.8206
 3645SOL    MW414354   1.378   5.796   5.034 -0.2163 -0.6243 -0.3320
 3646SOL     OW14355   5.857   5.238   0.437 -0.0722 -0.0032 -0.0084
 3646SOL    HW214356   5.943   5.209   0.468 -0.4879  0.0878  1.2761
 3646SOL    HW314357   5.821   5.162   0.392  0.6559 -0.0595 -0.5016
 3646SOL    MW414358   5.864   5.224   0.435 -0.0310  0.0013  0.0960
 3647SOL     OW14359   2.394   2.737   2.521 -0.1524 -0.0391 -0.3287
 3647SOL    HW214360   2.451   2.698   2.455 -0.3720  2.0504 -1.8393
 3647SOL    HW314361   2.308   2.740   2.479 -0.2799  1.3830 -0.0096
 3647SOL    MW414362   2.390   2.732   2.507 -0.1982  0.4242 -0.4859
 3648SOL     OW14363   5.382   4.653   1.226  0.4098  0.0738  0.2145
 3648SOL    HW214364   5.290   4.626   1.224 -0.6554  3.2283  1.0823
 3648SOL    HW314365   5.399   4.682   1.136  0.6047 -0.5589  0.0405
 3648SOL    MW414366   5.372   4.653   1.214  0.2950  0.4065  0.3060
 3649SOL     OW14367   5.700   3.551   1.964  0.0321 -0.2079  0.0284
 3649SOL    HW214368   5.697   3.641   1.998  0.4023 -0.4167  0.6494
 3649SOL    HW314369   5.629   3.546   1.901 -0.0711  0.4866  0.0820
 3649SOL    MW414370   5.690   3.562   1.961  0.0673 -0.1438  0.1174
 3650SOL     OW14371   3.219   4.356   3.805  0.9785  0.1051  0.7713
 3650SOL    HW214372   3.139   4.375   3.853  0.1113 -1.9199  0.2365
 3650SOL    HW314373   3.194   4.356   3.713  1.7809  0.2361  0.5402
 3650SOL    MW414374   3.205   4.358   3.799  0.9699 -0.1448  0.6703
 3651SOL     OW14375   3.088   1.896   4.497  0.1718 -0.7100 -0.3477
 3651SOL    HW214376   3.056   1.900   4.407  0.6308  1.5197 -0.4855
 3651SOL    HW314377   3.169   1.845   4.492  1.0423  0.7009 -1.5498
 3651SOL    MW414378   3.095   1.890   4.485  0.3473 -0.2297 -0.5245
 3652SOL     OW14379   2.573   5.049   4.460 -0.2992 -0.1669  0.6283
 3652SOL    HW214380   2.566   5.036   4.366  1.3769  0.3699  0.4123
 3652SOL    HW314381   2.623   4.974   4.491  0.3936  0.3768  0.8641
 3652SOL    MW414382   2.578   5.038   4.452  0.0134 -0.0243  0.6309
 3653SOL     OW14383   0.472   2.085   2.757  0.4260  0.7372  0.4374
 3653SOL    HW214384   0.548   2.030   2.735  0.5377  0.8030  0.6536
 3653SOL    HW314385   0.404   2.023   2.782  0.6296  0.7067  0.9209
 3653SOL    MW414386   0.473   2.070   2.757  0.4676  0.7418  0.5297
 3654SOL     OW14387   6.203   1.320   4.240 -0.4003  0.2521 -0.0772
 3654SOL    HW214388   6.230   1.330   4.331  1.3713 -2.4163 -0.1901
 3654SOL    HW314389   6.272   1.364   4.190 -0.0796 -0.3191 -0.1551
 3654SOL    MW414390   6.216   1.327   4.245 -0.1243 -0.1753 -0.1024
 3655SOL     OW14391   1.760   0.483   5.006 -0.5019  0.2343  0.3270
 3655SOL    HW214392   1.799   0.515   4.924  0.5819  3.1001  1.8174
 3655SOL    HW314393   1.669   0.464   4.983  0.6484 -2.9059 -2.3662
 3655SOL    MW414394   1.753   0.485   4.992 -0.2072  0.1981  0.1683
 3656SOL     OW14395   4.656   5.963   2.151  0.1237  0.0487 -0.4639
 3656SOL    HW214396   4.657   5.934   2.060 -2.7498  1.2385 -1.0013
 3656SOL    HW314397   4.703   5.894   2.198  0.9452 -1.0476 -2.7036
 3656SOL    MW414398   4.662   5.950   2.145 -0.1470  0.0611 -0.8303
 3657SOL     OW14399   2.018   4.665   1.578  0.1635  0.0157  0.3478
 3657SOL    HW214400   2.005   4.592   1.517  0.9044 -0.6962  1.0240
 3657SOL    HW314401   1.936   4.715   1.573  0.1957 -0.0396 -1.1914
 3657SOL    MW414402   2.005   4.662   1.569  0.2655 -0.0855  0.2340
 3658SOL     OW14403   5.653   5.030   1.357  0.0870  0.2464  0.1402
 3658SOL    HW214404   5.586   4.974   1.399 -0.2239 -0.1128 -0.8127
 3658SOL    HW314405   5.618   5.119   1.367 -0.6229  0.0507 -0.4783
 3658SOL    MW414406   5.639   5.034   1.364 -0.0477  0.1732 -0.0671
 3659SOL     OW14407   5.840   4.418   5.098 -0.1010 -0.0898 -0.1527
 3659SOL    HW214408   5.794   4.382   5.022  0.2763  2.1953 -1.5612
 3659SOL    HW314409   5.932   4.398   5.082 -0.0693 -0.0211 -0.0560
 3659SOL    MW414410   5.846   4.411   5.086 -0.0470  0.2208 -0.3258
 3660SOL     OW14411   4.938   3.144   1.829 -0.1634 -0.2082  0.1587
 3660SOL    HW214412   5.020   3.095   1.831  0.6116  1.1009  1.0200
 3660SOL    HW314413   4.954   3.216   1.768 -0.6440  0.1152  0.4067
 3660SOL    MW414414   4.951   3.147   1.821 -0.1245  0.0072  0.3051
 3661SOL     OW14415   4.533   4.758   1.246  0.3775 -0.2964  0.6420
 3661SOL    HW214416   4.588   4.680   1.237  1.5510  0.7344 -1.9343
 3661SOL    HW314417   4.547   4.807   1.165 -2.3155  1.3526  1.0630
 3661SOL    MW414418   4.542   4.754   1.234  0.1770  0.0572  0.3577
 3662SOL     OW14419   0.643   2.557   4.429  0.0764  0.1119 -0.1128
 3662SOL    HW214420   0.580   2.582   4.497 -0.8031 -1.1689 -0.4139
 3662SOL    HW314421   0.729   2.566   4.471 -0.4039  0.1268  0.8933
 3662SOL    MW414422   0.646   2.562   4.444 -0.1030 -0.0551 -0.0198
 3663SOL     OW14423   3.359   6.324   6.288  0.6033  0.3879  0.3025
 3663SOL    HW214424   3.375   6.230   6.279  0.1604  0.2732  0.7050
 3663SOL    HW314425   3.366   6.357   6.198 -2.1666 -0.5106 -0.3375
 3663SOL    MW414426   3.362   6.316   6.275  0.1794  0.2542  0.2712
 3664SOL     OW14427   2.445   2.410   0.888  0.3934 -0.3218 -0.0451
 3664SOL    HW214428   2.443   2.490   0.835 -1.0784 -1.5799 -1.9813
 3664SOL    HW314429   2.470   2.341   0.828 -3.0081 -2.0977  0.3307
 3664SOL    MW414430   2.448   2.412   0.873 -0.2496 -0.7221 -0.2510
 3665SOL     OW14431   3.644   3.985   0.568  0.0140 -0.2740  0.1159
 3665SOL    HW214432   3.628   4.021   0.480 -0.8915 -0.2894  0.2582
 3665SOL    HW314433   3.682   4.057   0.617  1.5561 -0.5787 -0.5796
 3665SOL    MW414434   3.647   3.999   0.563  0.0980 -0.3162  0.0429
 3666SOL     OW14435   1.422   6.355   0.537 -0.0073  0.1671 -0.3505
 3666SOL    HW214436   1.442   6.372   0.445 -0.0334  1.1776 -0.1806
 3666SOL    HW314437   1.351   6.415   0.557 -2.5141 -2.5053 -0.6102
 3666SOL    MW414438   1.416   6.365   0.527 -0.3415 -0.0521 -0.3623
 3667SOL     OW14439   3.509   5.434   3.747  0.7749  0.1195  0.4481
 3667SOL    HW214440   3.486   5.343   3.765  1.0012  0.0435  0.3439
 3667SOL    HW314441   3.493   5.479   3.830  0.8511 -0.0489  0.5538
 3667SOL    MW414442   3.504   5.428   3.760  0.8148  0.0872  0.4483
 3668SOL     OW14443   2.188   5.822   5.730  0.1007  0.1720 -0.2326
 3668SOL    HW214444   2.176   5.903   5.779 -0.3901 -0.1812  0.2450
 3668SOL    HW314445   2.099   5.792   5.710  0.2885  0.6212 -1.8957
 3668SOL    MW414446   2.175   5.829   5.734  0.0607  0.1847 -0.3890
 3669SOL     OW14447   5.791   2.237   5.968  0.1501 -0.8542 -0.2531
 3669SOL    HW214448   5.707   2.232   5.922 -0.8184  3.4716  0.5174
 3669SOL    HW314449   5.771   2.210   6.058 -0.0530 -1.2843 -0.4286
 3669SOL    MW414450   5.777   2.233   5.974 -0.0045 -0.3402 -0.1746
 3670SOL     OW14451   2.627   0.232   4.150  0.2134 -0.0391 -0.5887
 3670SOL    HW214452   2.661   0.194   4.069 -1.8514  0.3271 -1.7090
 3670SOL    HW314453   2.699   0.284   4.185  1.9963 -2.1953 -0.7982
 3670SOL    MW414454   2.641   0.234   4.144  0.1762 -0.2753 -0.7641
 3671SOL     OW14455   1.575   4.711   0.562 -0.0096 -0.8308 -0.0837
 3671SOL    HW214456   1.636   4.715   0.488 -0.1482 -0.7991 -0.1961
 3671SOL    HW314457   1.618   4.762   0.630  0.1067 -0.8361 -0.1513
 3671SOL    MW414458   1.589   4.718   0.561 -0.0125 -0.8273 -0.1075
 3672SOL     OW14459   2.922   4.479   3.295 -0.3056  0.4971  0.0344
 3672SOL    HW214460   2.899   4.567   3.323 -0.8223  0.2240  0.4837
 3672SOL    HW314461   2.840   4.438   3.269  0.3192  1.3247 -3.7703
 3672SOL    MW414462   2.908   4.485   3.296 -0.2913  0.5702 -0.4083
 3673SOL     OW14463   0.336   3.865   5.218  0.1193 -0.2148 -0.1552
 3673SOL    HW214464   0.405   3.915   5.261  0.1338  0.5229 -1.0170
 3673SOL    HW314465   0.283   3.930   5.173 -0.5474 -0.8699 -0.3429
 3673SOL    MW414466   0.338   3.880   5.218  0.0332 -0.2039 -0.2937
 3674SOL     OW14467   6.033   3.861   5.527  0.2539 -0.0214 -0.3599
 3674SOL    HW214468   6.077   3.927   5.581 -1.0593  0.2203  0.4652
 3674SOL    HW314469   5.944   3.893   5.518 -0.2395 -1.3650 -0.4792
 3674SOL    MW414470   6.027   3.874   5.533  0.0155 -0.1667 -0.2668
 3675SOL     OW14471   1.186   5.257   4.924 -0.1975 -0.3898  0.0285
 3675SOL    HW214472   1.134   5.326   4.883 -0.9290 -1.3309 -0.6340
 3675SOL    HW314473   1.277   5.280   4.902 -0.1727  1.7407  1.9130
 3675SOL    MW414474   1.191   5.269   4.916 -0.2908 -0.2329  0.1897
 3676SOL     OW14475   2.974   3.146   1.563 -0.8484 -0.1430 -0.1423
 3676SOL    HW214476   2.919   3.146   1.485  1.1123 -0.3624 -1.5815
 3676SOL    HW314477   3.054   3.192   1.537 -0.3714  0.2891  1.9141
 3676SOL    MW414478   2.977   3.152   1.549 -0.5268 -0.1149 -0.0609
 3677SOL     OW14479   1.695   1.210   5.088  0.0713 -0.3022  0.4908
 3677SOL    HW214480   1.639   1.279   5.053 -2.0570 -1.5998  1.0858
 3677SOL    HW314481   1.743   1.177   5.013 -2.7259 -1.5399 -0.9052
 3677SOL    MW414482   1.694   1.214   5.074 -0.5785 -0.6367  0.3851
 3678SOL     OW14483   5.477   5.261   1.893  0.2283 -0.1212 -0.9578
 3678SOL    HW214484   5.387   5.251   1.924 -0.5662 -0.3246 -3.1287
 3678SOL    HW314485   5.531   5.255   1.972 -1.5634 -1.3920  0.2486
 3678SOL    MW414486   5.472   5.259   1.907 -0.1129 -0.3157 -1.0851
 3679SOL     OW14487   2.152   1.840   1.377 -0.5534 -0.7434 -0.1954
 3679SOL    HW214488   2.130   1.747   1.385 -2.1284 -0.2728  1.4961
 3679SOL    HW314489   2.248   1.842   1.381 -0.5369 -2.0946  2.9277
 3679SOL    MW414490   2.162   1.828   1.379 -0.7590 -0.8596  0.4399
 3680SOL     OW14491   3.296   4.659   1.497  0.4085 -0.9637 -0.4143
 3680SOL    HW214492   3.338   4.745   1.506 -1.1925 -0.1539 -0.2318
 3680SOL    HW314493   3.354   4.610   1.439  1.0385  0.4723 -1.0549
 3680SOL    MW414494   3.309   4.664   1.490  0.2804 -0.6674 -0.4748
 3681SOL     OW14495   0.326   6.139   3.220  0.0631 -0.0338  0.1353
 3681SOL    HW214496   0.319   6.073   3.289  0.1379 -1.0709 -0.8171
 3681SOL    HW314497   0.322   6.223   3.266  0.0580 -0.6990  1.3842
 3681SOL    MW414498   0.325   6.141   3.235  0.0723 -0.2584  0.1745
 3682SOL     OW14499   4.577   5.398   3.797  0.1386 -0.1137 -0.0191
 3682SOL    HW214500   4.509   5.405   3.863  0.3786  3.1890  0.0749
 3682SOL    HW314501   4.537   5.435   3.718  2.0350  3.1760  0.3728
 3682SOL    MW414502   4.563   5.404   3.795  0.4205  0.7561  0.0450
 3683SOL     OW14503   2.208   2.683   4.845  0.1304 -0.0684 -0.1305
 3683SOL    HW214504   2.222   2.703   4.937 -0.9127  0.6860 -0.1324
 3683SOL    HW314505   2.183   2.590   4.845 -2.2450  0.5007  0.6188
 3683SOL    MW414506   2.207   2.673   4.857 -0.3206  0.1062 -0.0319
 3684SOL     OW14507   0.235   5.198   4.552 -0.0206 -0.0346  0.4127
 3684SOL    HW214508   0.293   5.137   4.597 -0.5194  0.1315  1.3119
 3684SOL    HW314509   0.266   5.285   4.579  0.1095  0.0908 -0.1269
 3684SOL    MW414510   0.247   5.202   4.562 -0.0693  0.0039  0.4602
 3685SOL     OW14511   4.480   2.409   3.434  0.0513 -0.0698 -0.6537
 3685SOL    HW214512   4.398   2.451   3.407 -0.2000  0.1246  0.3586
 3685SOL    HW314513   4.453   2.326   3.472  0.4468 -0.6083 -1.5225
 3685SOL    MW414514   4.466   2.404   3.435  0.0703 -0.1152 -0.6347
 3686SOL     OW14515   0.033   6.006   4.019  0.2409 -0.9523  0.4320
 3686SOL    HW214516   0.028   5.960   3.936  3.3193  1.7462 -1.4879
 3686SOL    HW314517  -0.056   6.037   4.035 -0.3158 -1.0346 -2.1840
 3686SOL    MW414518   0.021   6.004   4.010  0.5736 -0.6071 -0.1664
 3687SOL     OW14519   4.297   5.431   4.432  0.4150 -0.3680 -0.1499
 3687SOL    HW214520   4.232   5.375   4.388  1.1988 -0.4503 -1.2490
 3687SOL    HW314521   4.381   5.404   4.394  0.7411  2.1802 -1.4623
 3687SOL    MW414522   4.299   5.420   4.421  0.5614 -0.0426 -0.4681
 3688SOL     OW14523   6.316   3.765   1.137  0.0001 -0.0366  0.6898
 3688SOL    HW214524   6.276   3.823   1.202 -0.9780  0.6952 -0.5171
 3688SOL    HW314525   6.286   3.678   1.161  1.7941 -0.1717  2.7627
 3688SOL    MW414526   6.307   3.761   1.149  0.1077  0.0421  0.8041
 3689SOL     OW14527   5.018   5.841   6.362 -0.1589 -0.0960 -0.3347
 3689SOL    HW214528   4.985   5.776   6.424 -1.7002 -0.0185 -1.0454
 3689SOL    HW314529   4.978   5.924   6.389  0.8791  0.3584 -0.1383
 3689SOL    MW414530   5.009   5.843   6.374 -0.2253 -0.0258 -0.4026
 3690SOL     OW14531   2.300   1.853   0.871  0.8247  0.2168 -0.7389
 3690SOL    HW214532   2.257   1.938   0.882  0.2238 -0.0184 -1.2049
 3690SOL    HW314533   2.320   1.848   0.777 -1.0101 -1.0068 -1.1260
 3690SOL    MW414534   2.297   1.864   0.860  0.5033  0.0243 -0.8514
 3691SOL     OW14535   3.930   2.360   2.541 -0.0714  0.1726  0.2547
 3691SOL    HW214536   3.994   2.430   2.550  1.4478 -1.1178 -0.0597
 3691SOL    HW314537   3.959   2.293   2.603  0.3621 -1.4647 -1.6108
 3691SOL    MW414538   3.942   2.360   2.550  0.1862 -0.2137 -0.0329
 3692SOL     OW14539   5.439   2.501   5.662  0.4636 -0.4591  0.4579
 3692SOL    HW214540   5.411   2.424   5.613  2.7416 -1.6832  0.9310
 3692SOL    HW314541   5.523   2.476   5.700  1.0400  2.0951  1.0734
 3692SOL    MW414542   5.447   2.488   5.661  0.8402 -0.2836  0.6016
 3693SOL     OW14543   5.242   0.372   3.610  0.4879  0.0965 -0.1871
 3693SOL    HW214544   5.267   0.292   3.562  0.7427  0.2673 -0.3449
 3693SOL    HW314545   5.279   0.443   3.557  1.5238  0.2476  0.7125
 3693SOL    MW414546   5.250   0.371   3.596  0.6582  0.1390 -0.0892
 3694SOL     OW14547   6.320   5.946   3.548  0.6167  0.1710  0.5180
 3694SOL    HW214548   6.304   5.973   3.457  2.6781  0.2602  0.1289
 3694SOL    HW314549   6.254   5.878   3.564  0.1849  0.1683 -1.0408
 3694SOL    MW414550   6.309   5.940   3.538  0.8317  0.1824  0.2610
 3695SOL     OW14551   5.319   2.241   4.878 -0.2984  0.0796  0.2205
 3695SOL    HW214552   5.257   2.192   4.932 -2.5115  0.8687 -1.4593
 3695SOL    HW314553   5.271   2.260   4.798  1.5736  2.2291 -0.4839
 3695SOL    MW414554   5.304   2.237   4.875 -0.3434  0.4673 -0.0941
 3696SOL     OW14555   4.628   4.303   5.075  0.1277  0.3132 -0.2215
 3696SOL    HW214556   4.632   4.290   4.981  0.3302  3.3829 -0.7338
 3696SOL    HW314557   4.540   4.339   5.091  0.0637 -0.2405  0.7876
 3696SOL    MW414558   4.617   4.306   5.065  0.1460  0.6451 -0.1560
 3697SOL     OW14559   6.399   4.267   1.909 -0.0156 -0.4088 -0.5856
 3697SOL    HW214560   6.474   4.274   1.968  0.5086 -4.6851 -0.4607
 3697SOL    HW314561   6.433   4.294   1.824  0.8883  0.2192 -0.0407
 3697SOL    MW414562   6.413   4.272   1.905  0.1728 -0.8901 -0.4973
 3698SOL     OW14563   3.908   0.658   6.082  0.1571 -0.2295 -0.0021
 3698SOL    HW214564   3.813   0.648   6.072  0.1613  1.2260 -2.1834
 3698SOL    HW314565   3.941   0.568   6.078 -0.9738 -0.6192 -1.8670
 3698SOL    MW414566   3.900   0.645   6.080  0.0085 -0.0889 -0.5359
 3699SOL     OW14567   4.733   0.924   5.978 -0.2532 -0.6886 -0.3288
 3699SOL    HW214568   4.659   0.980   5.954  0.1707 -0.2991 -0.7693
 3699SOL    HW314569   4.744   0.939   6.072  0.2402  0.4692 -0.5494
 3699SOL    MW414570   4.725   0.934   5.987 -0.1321 -0.4845 -0.4160
 3700SOL     OW14571   4.496   6.371   0.701  0.0575 -0.1214  0.3721
 3700SOL    HW214572   4.523   6.387   0.791  1.8350 -1.4808  0.1421
 3700SOL    HW314573   4.418   6.317   0.708 -0.5150  0.7685  1.0778
 3700SOL    MW414574   4.489   6.366   0.714  0.2165 -0.1833  0.4348
 3701SOL     OW14575   2.436   0.428   3.567 -0.2810  0.4111  0.3582
 3701SOL    HW214576   2.437   0.332   3.560  1.2164  0.4235  0.0882
 3701SOL    HW314577   2.460   0.446   3.657  0.3869  0.5363  0.1608
 3701SOL    MW414578   2.439   0.418   3.578  0.0047  0.4293  0.2965
 3702SOL     OW14579   0.973   3.494   6.199 -0.1088 -0.4413  0.6346
 3702SOL    HW214580   1.051   3.464   6.154 -0.2101  1.2815 -0.8284
 3702SOL    HW314581   0.901   3.475   6.138 -0.1367  2.8633 -0.5893
 3702SOL    MW414582   0.974   3.487   6.185 -0.1258  0.2220  0.2801
 3703SOL     OW14583   0.506   1.399   0.474  0.8425 -0.6797  0.2571
 3703SOL    HW214584   0.557   1.340   0.530  1.2942 -1.0418 -0.5289
 3703SOL    HW314585   0.569   1.465   0.446  0.7934 -0.9256 -0.4302
 3703SOL    MW414586   0.521   1.400   0.478  0.8956 -0.7599  0.0628
 3704SOL     OW14587   5.181   3.140   5.369 -0.0837 -0.1067 -0.1086
 3704SOL    HW214588   5.158   3.053   5.402  0.0086  0.2618  0.9782
 3704SOL    HW314589   5.100   3.191   5.379  0.0797  0.1330 -0.0045
 3704SOL    MW414590   5.167   3.136   5.375 -0.0500 -0.0265  0.0485
 3705SOL     OW14591   2.005   3.362   1.664 -0.6131 -0.1077  0.0452
 3705SOL    HW214592   1.960   3.422   1.725 -0.2234  1.1587 -0.8738
 3705SOL    HW314593   1.979   3.393   1.577  0.9685 -0.1927 -0.4805
 3705SOL    MW414594   1.995   3.374   1.661 -0.3530  0.0482 -0.1454
 3706SOL     OW14595   3.127   0.806   1.982 -0.2225 -0.5070  0.5338
 3706SOL    HW214596   3.166   0.744   2.043  0.9823  0.5145  0.8469
 3706SOL    HW314597   3.193   0.819   1.914 -1.1473 -0.8661 -0.4680
 3706SOL    MW414598   3.141   0.800   1.981 -0.1855 -0.4196  0.4429
 3707SOL     OW14599   1.332   2.733   5.986  0.6463 -0.0412 -0.1627
 3707SOL    HW214600   1.345   2.749   6.079 -2.2662 -2.2758  0.7617
 3707SOL    HW314601   1.281   2.809   5.956 -0.2090 -0.3194  0.5729
 3707SOL    MW414602   1.327   2.745   5.994  0.1492 -0.3727  0.0563
 3708SOL     OW14603   6.379   3.208   4.992 -0.0390 -0.0220  0.1633
 3708SOL    HW214604   6.352   3.280   5.048 -0.0239  0.3425 -0.2909
 3708SOL    HW314605   6.470   3.228   4.969  0.0322 -0.2909  0.2017
 3708SOL    MW414606   6.388   3.220   4.996 -0.0276 -0.0094  0.1085
 3709SOL     OW14607   1.122   0.771   2.791 -0.7020  0.2318 -0.3322
 3709SOL    HW214608   1.169   0.689   2.803 -0.1941  0.6529  0.6860
 3709SOL    HW314609   1.032   0.751   2.814 -0.7415 -0.2200 -0.8589
 3709SOL    MW414610   1.116   0.758   2.795 -0.6402  0.2277 -0.2674
 3710SOL     OW14611   0.525   4.867   0.144 -0.6458  0.0681 -0.0823
 3710SOL    HW214612   0.521   4.959   0.166 -2.0885 -0.2268  1.0011
 3710SOL    HW314613   0.443   4.850   0.096  0.3536 -0.3077 -1.7353
 3710SOL    MW414614   0.513   4.877   0.140 -0.7043 -0.0204 -0.1575
 3711SOL     OW14615   4.388   4.095   2.055  0.1850  0.0670  0.4993
 3711SOL    HW214616   4.316   4.032   2.052  1.4506 -1.4458  0.5464
 3711SOL    HW314617   4.465   4.042   2.074  1.5179  1.4624 -0.7703
 3711SOL    MW414618   4.389   4.080   2.057  0.5278  0.0515  0.3380
 3712SOL     OW14619   4.400   5.835   5.047  0.2295 -0.6508 -0.5644
 3712SOL    HW214620   4.407   5.791   5.132 -0.5925 -1.4159 -0.8709
 3712SOL    HW314621   4.476   5.893   5.043  0.5061 -0.9202  0.5116
 3712SOL    MW414622   4.411   5.837   5.058  0.1575 -0.7873 -0.4629
 3713SOL     OW14623   0.538   4.596   3.181 -0.5232  0.0931 -0.4168
 3713SOL    HW214624   0.518   4.540   3.107 -0.6275 -0.3455 -0.0586
 3713SOL    HW314625   0.475   4.572   3.249  0.2260 -0.2409  0.1815
 3713SOL    MW414626   0.527   4.586   3.180 -0.4381 -0.0088 -0.2906
 3714SOL     OW14627   2.714   5.467   5.962  0.5694  0.2303  0.0321
 3714SOL    HW214628   2.644   5.402   5.965  1.5909 -0.8657  1.0344
 3714SOL    HW314629   2.680   5.536   5.906 -0.9734 -0.6704 -0.1917
 3714SOL    MW414630   2.700   5.467   5.955  0.5006 -0.0332  0.1348
 3715SOL     OW14631   0.504   0.715   6.261  0.1112 -0.7314  0.8738
 3715SOL    HW214632   0.556   0.796   6.266 -0.5176 -0.3694  1.5627
 3715SOL    HW314633   0.521   0.682   6.172 -1.0106  1.0948 -0.0811
 3715SOL    MW414634   0.513   0.722   6.250 -0.1197 -0.4427  0.8387
 3716SOL     OW14635   6.089   4.104   0.595 -0.3314  0.3474  0.6135
 3716SOL    HW214636   6.079   4.070   0.684 -0.1945  0.9585  0.8655
 3716SOL    HW314637   6.052   4.192   0.598 -0.2732  0.3947  0.0807
 3716SOL    MW414638   6.083   4.111   0.607 -0.3057  0.4343  0.5765
 3717SOL     OW14639   0.245   4.515   3.046  0.0860  0.2521  0.0929
 3717SOL    HW214640   0.325   4.532   2.997  1.9714 -0.3130  2.7815
 3717SOL    HW314641   0.238   4.588   3.108 -1.2930  0.1058  0.1591
 3717SOL    MW414642   0.254   4.527   3.048  0.1528  0.1582  0.4564
 3718SOL     OW14643   0.706   3.031   3.293 -0.6359  0.0496 -0.9781
 3718SOL    HW214644   0.645   2.997   3.228 -1.1021  1.4861 -1.3404
 3718SOL    HW314645   0.742   3.110   3.253  0.7211 -0.2156 -0.3541
 3718SOL    MW414646   0.703   3.037   3.280 -0.5184  0.2041 -0.9436
 3719SOL     OW14647   5.255   0.786   5.723 -0.3402 -0.1400  0.2661
 3719SOL    HW214648   5.170   0.751   5.699 -0.3756 -1.2694  1.8939
 3719SOL    HW314649   5.304   0.791   5.640 -1.8748  0.3106 -0.6441
 3719SOL    MW414650   5.251   0.782   5.708 -0.5473 -0.2296  0.3608
 3720SOL     OW14651   1.171   1.115   1.032 -0.0318  0.4596  0.3649
 3720SOL    HW214652   1.135   1.063   1.103 -1.2750  1.0190  0.1712
 3720SOL    HW314653   1.138   1.074   0.952  2.3581 -0.9252 -0.0252
 3720SOL    MW414654   1.162   1.103   1.031  0.1195  0.3507  0.2879
 3721SOL     OW14655   4.540   2.131   1.489 -0.0073  0.3370 -0.1718
 3721SOL    HW214656   4.623   2.089   1.511  1.3761  2.1923 -1.4796
 3721SOL    HW314657   4.550   2.156   1.397 -2.4826 -0.3804 -0.7015
 3721SOL    MW414658   4.552   2.129   1.480 -0.1514  0.4871 -0.4142
 3722SOL     OW14659   0.234   1.343   4.697 -0.5550 -0.3667 -0.0618
 3722SOL    HW214660   0.318   1.346   4.652 -0.6551  0.5850 -0.1865
 3722SOL    HW314661   0.254   1.368   4.787 -0.4678 -1.6073  0.2887
 3722SOL    MW414662   0.247   1.347   4.703 -0.5567 -0.4048 -0.0320
 3723SOL     OW14663   5.806   5.317   1.274  0.4685  0.4132  0.7353
 3723SOL    HW214664   5.714   5.337   1.289 -0.0808 -0.3353 -1.2635
 3723SOL    HW314665   5.850   5.344   1.354 -1.4048  1.2886  1.5294
 3723SOL    MW414666   5.799   5.323   1.287  0.1488  0.4299  0.5763
 3724SOL     OW14667   4.982   4.626   5.012 -0.1206  0.3710 -0.4054
 3724SOL    HW214668   4.947   4.702   4.966 -0.9858  0.6048  0.6208
 3724SOL    HW314669   5.076   4.627   4.991 -0.0617  1.8767 -0.1865
 3724SOL    MW414670   4.990   4.636   5.003 -0.2270  0.6005 -0.2411
 3725SOL     OW14671   2.310   6.472   0.717 -0.3029  0.0124  0.4684
 3725SOL    HW214672   2.357   6.548   0.682  1.0770 -1.5449 -1.2477
 3725SOL    HW314673   2.235   6.461   0.659  0.0318 -0.4693  0.1134
 3725SOL    MW414674   2.307   6.481   0.705 -0.0767 -0.2567  0.1952
 3726SOL     OW14675   3.368   4.384   3.348  0.2044 -0.5321  0.3591
 3726SOL    HW214676   3.436   4.378   3.280  0.8584 -0.5989  1.0003
 3726SOL    HW314677   3.287   4.364   3.302  0.4950  0.4355 -0.6254
 3726SOL    MW414678   3.367   4.381   3.333  0.3290 -0.4132  0.3138
 3727SOL     OW14679   1.885   1.492   3.382 -0.2599 -0.3963 -0.1133
 3727SOL    HW214680   1.884   1.453   3.469 -3.8498  0.1567  0.2483
 3727SOL    HW314681   1.925   1.578   3.394 -1.0420 -0.1779  1.0955
 3727SOL    MW414682   1.890   1.498   3.395 -0.8368 -0.2946  0.0939
 3728SOL     OW14683   0.258   0.076   1.173 -0.2704 -0.4391 -0.1446
 3728SOL    HW214684   0.310   0.058   1.251 -0.6899 -0.2893  0.1689
 3728SOL    HW314685   0.169   0.087   1.205 -0.0204  2.6031 -0.2319
 3728SOL    MW414686   0.253   0.075   1.187 -0.2928 -0.0180 -0.1147
 3729SOL     OW14687   0.051   4.434   0.087  0.4205  0.1526 -0.0476
 3729SOL    HW214688   0.100   4.424   0.006 -0.1947  1.3797 -0.6020
 3729SOL    HW314689  -0.005   4.356   0.091 -0.4291  0.6531 -1.4570
 3729SOL    MW414690   0.050   4.422   0.077  0.2272  0.3805 -0.3067
 3730SOL     OW14691   6.115   0.442   4.462 -0.5729  0.0396  0.1820
 3730SOL    HW214692   6.107   0.397   4.378 -1.6517 -1.7165  1.1617
 3730SOL    HW314693   6.157   0.525   4.440  2.7136 -1.8574 -1.6200
 3730SOL    MW414694   6.119   0.447   4.448 -0.2816 -0.4423  0.0735
 3731SOL     OW14695   4.124   0.526   3.264  0.1802 -0.0155  0.3085
 3731SOL    HW214696   4.071   0.491   3.193 -0.6600  0.5101  0.6623
 3731SOL    HW314697   4.173   0.450   3.297 -0.4196 -0.5310  0.0311
 3731SOL    MW414698   4.124   0.511   3.259 -0.0098 -0.0142  0.3186
 3732SOL     OW14699   0.725   5.923   4.266  0.4670  0.7401  0.4476
 3732SOL    HW214700   0.750   5.896   4.354  1.5550  1.8725  0.5100
 3732SOL    HW314701   0.710   6.018   4.273  1.6903  1.0559 -0.8183
 3732SOL    MW414702   0.726   5.932   4.278  0.7720  0.9312  0.2888
 3733SOL     OW14703   3.090   4.084   2.144  0.2527 -0.2077  0.4417
 3733SOL    HW214704   3.036   4.073   2.222 -0.3083  1.0939  0.2652
 3733SOL    HW314705   3.166   4.133   2.174  0.0209  0.3249  0.1743
 3733SOL    MW414706   3.093   4.089   2.158  0.1481  0.0343  0.3831
 3734SOL     OW14707   4.038   0.542   4.165  0.1163  0.0944  0.2716
 3734SOL    HW214708   4.040   0.531   4.260 -1.2488 -0.4645  0.2686
 3734SOL    HW314709   4.052   0.636   4.151  2.0406 -0.0689  0.9029
 3734SOL    MW414710   4.040   0.553   4.175  0.1901 -0.0009  0.3545
 3735SOL     OW14711   2.687   4.832   4.560  0.9168  0.4207  0.5180
 3735SOL    HW214712   2.662   4.809   4.650 -0.5612  0.3093  0.1055
 3735SOL    HW314713   2.777   4.802   4.552  0.3165 -1.7732  1.2275
 3735SOL    MW414714   2.695   4.825   4.571  0.6426  0.1165  0.5572
 3736SOL     OW14715   0.196   2.816   1.431  0.7190 -0.5120 -0.1640
 3736SOL    HW214716   0.207   2.825   1.526  2.9391 -2.6790 -0.1169
 3736SOL    HW314717   0.269   2.865   1.393  0.5364 -0.6430 -0.6923
 3736SOL    MW414718   0.207   2.824   1.438  0.9878 -0.8152 -0.2275
 3737SOL     OW14719   1.917   2.921   2.006 -0.2040 -0.5288  0.2389
 3737SOL    HW214720   1.996   2.964   2.038 -2.3799  2.3220  2.1551
 3737SOL    HW314721   1.900   2.851   2.069  0.0007 -0.2319  0.6230
 3737SOL    MW414722   1.925   2.917   2.018 -0.4641 -0.1135  0.5424
 3738SOL     OW14723   5.486   1.755   1.787  0.1923  0.3401 -0.7918
 3738SOL    HW214724   5.394   1.739   1.766 -0.3013  0.8653  0.8271
 3738SOL    HW314725   5.485   1.787   1.877  1.9092  1.0679 -0.9919
 3738SOL    MW414726   5.473   1.757   1.796  0.3537  0.5054 -0.6046
 3739SOL     OW14727   6.231   2.070   4.189  0.0304 -0.3205  0.3379
 3739SOL    HW214728   6.216   2.041   4.279  0.1137  0.3104  0.5580
 3739SOL    HW314729   6.326   2.075   4.182  0.3683 -4.5079 -1.1163
 3739SOL    MW414730   6.241   2.067   4.200  0.0860 -0.7897  0.1751
 3740SOL     OW14731   1.214   0.586   3.727  0.3245 -0.0663 -0.1529
 3740SOL    HW214732   1.129   0.549   3.706  0.5787 -0.9718  0.3588
 3740SOL    HW314733   1.198   0.644   3.801  0.1300 -0.1047 -0.1644
 3740SOL    MW414734   1.201   0.589   3.734  0.3324 -0.1908 -0.0869
 3741SOL     OW14735   4.557   3.095   2.389  0.6757 -0.1147  0.6310
 3741SOL    HW214736   4.645   3.077   2.423  0.9387  0.6167  0.3677
 3741SOL    HW314737   4.545   3.031   2.318  1.1279 -0.0088  0.4552
 3741SOL    MW414738   4.567   3.084   2.384  0.7700 -0.0042  0.5731
 3742SOL     OW14739   5.756   4.558   4.405  0.0228 -0.1298  0.2083
 3742SOL    HW214740   5.807   4.637   4.389 -0.8478  0.4755  0.3537
 3742SOL    HW314741   5.817   4.486   4.388  0.8185  0.5682  0.0556
 3742SOL    MW414742   5.771   4.559   4.401  0.0129  0.0421  0.2073
 3743SOL     OW14743   1.618   4.258   2.340 -0.1900  0.4553 -0.3087
 3743SOL    HW214744   1.636   4.298   2.255 -0.8516  1.9986  0.2441
 3743SOL    HW314745   1.681   4.299   2.400  0.9277 -1.3305 -0.2109
 3743SOL    MW414746   1.628   4.269   2.337 -0.1298  0.4233 -0.2229
 3744SOL     OW14747   2.791   4.183   3.535  0.5937 -0.0511  0.6210
 3744SOL    HW214748   2.791   4.269   3.576  0.2085 -0.1648  0.8610
 3744SOL    HW314749   2.847   4.130   3.593 -0.1234 -0.2685  1.1288
 3744SOL    MW414750   2.798   4.187   3.548  0.4483 -0.0948  0.7197
 3745SOL     OW14751   3.579   3.535   0.211  0.2865  0.7542 -0.2896
 3745SOL    HW214752   3.534   3.489   0.141  1.8903 -1.8942  0.3054
 3745SOL    HW314753   3.613   3.614   0.170 -1.8782  1.1172 -1.5467
 3745SOL    MW414754   3.578   3.539   0.197  0.2125  0.4527 -0.3769
 3746SOL     OW14755   3.743   4.840   4.513  0.1419 -0.0162 -0.0938
 3746SOL    HW214756   3.831   4.865   4.485  1.0188 -3.4627 -0.8200
 3746SOL    HW314757   3.756   4.764   4.569 -2.3620 -0.2254  0.3053
 3746SOL    MW414758   3.756   4.834   4.516 -0.0728 -0.4986 -0.1369
 3747SOL     OW14759   4.629   1.250   1.089 -0.3049  0.1221 -0.2893
 3747SOL    HW214760   4.586   1.237   1.174  1.4707 -0.9038  0.5050
 3747SOL    HW314761   4.623   1.165   1.046 -0.7866  0.5144 -1.0278
 3747SOL    MW414762   4.622   1.237   1.095 -0.1342  0.0385 -0.2819
 3748SOL     OW14763   2.484   4.126   4.956  0.3026 -0.0292 -0.1185
 3748SOL    HW214764   2.510   4.124   5.048  0.2328  2.0557 -0.0016
 3748SOL    HW314765   2.567   4.120   4.908  0.3449 -1.0410  0.0622
 3748SOL    MW414766   2.499   4.125   4.962  0.2990  0.1124 -0.0792
 3749SOL     OW14767   4.728   2.812   3.904 -0.2669 -0.2614  0.1075
 3749SOL    HW214768   4.807   2.782   3.860 -1.5029 -2.2517 -0.8999
 3749SOL    HW314769   4.745   2.904   3.923  2.0893 -0.5133 -0.4832
 3749SOL    MW414770   4.740   2.820   3.901 -0.1191 -0.5572 -0.1034
 3750SOL     OW14771   3.553   4.449   1.600  0.0839 -0.2827 -0.1284
 3750SOL    HW214772   3.558   4.531   1.649  1.9722 -0.8318  0.6710
 3750SOL    HW314773   3.509   4.388   1.660 -1.8566  0.2374 -0.9405
 3750SOL    MW414774   3.548   4.452   1.615  0.0770 -0.2865 -0.1301
 3751SOL     OW14775   0.416   1.652   2.964 -0.0451  0.5034  0.6166
 3751SOL    HW214776   0.501   1.629   2.928  0.9465 -0.3879  3.2935
 3751SOL    HW314777   0.361   1.575   2.944  0.3562  0.2053  0.6409
 3751SOL    MW414778   0.420   1.639   2.957  0.1387  0.3465  0.9730
 3752SOL     OW14779   3.943   5.661   5.508 -0.5940 -0.1907  0.4494
 3752SOL    HW214780   3.929   5.573   5.543  0.1982 -0.8406 -0.7947
 3752SOL    HW314781   3.990   5.707   5.577 -1.3723 -0.5930  1.2776
 3752SOL    MW414782   3.947   5.655   5.522 -0.5922 -0.3295  0.3945
 3753SOL     OW14783   2.369   5.663   1.464 -0.1629 -0.7705  0.9951
 3753SOL    HW214784   2.322   5.694   1.387  1.6952  2.3636  0.9384
 3753SOL    HW314785   2.323   5.702   1.539 -0.6341 -1.9477  1.3403
 3753SOL    MW414786   2.357   5.672   1.464  0.0201 -0.5123  1.0332
 3754SOL     OW14787   2.380   3.240   2.374  0.6268 -0.6625  0.7282
 3754SOL    HW214788   2.415   3.250   2.285  1.3379  1.7370  1.2127
 3754SOL    HW314789   2.434   3.170   2.413  0.9056 -1.1061 -0.4142
 3754SOL    MW414790   2.392   3.232   2.367  0.7574 -0.4045  0.6414
 3755SOL     OW14791   1.085   3.647   2.570  0.1049 -0.0725  0.4003
 3755SOL    HW214792   1.079   3.726   2.622  1.3431  0.1254  0.2786
 3755SOL    HW314793   1.011   3.594   2.598 -1.3103  1.5128 -0.2066
 3755SOL    MW414794   1.075   3.650   2.580  0.0816  0.1628  0.3042
 3756SOL     OW14795   3.181   2.566   2.809 -0.3580  0.1963  0.1343
 3756SOL    HW214796   3.142   2.498   2.755 -0.5895 -0.3436  0.9576
 3756SOL    HW314797   3.118   2.579   2.880  1.0790 -0.9544  1.7154
 3756SOL    MW414798   3.167   2.559   2.811 -0.1989 -0.0268  0.4515
 3757SOL     OW14799   6.067   1.733   4.454 -0.7204 -0.1708  0.3184
 3757SOL    HW214800   6.085   1.745   4.361  0.5582  0.6113  0.6463
 3757SOL    HW314801   6.154   1.733   4.495 -0.9472 -3.8163  1.1690
 3757SOL    MW414802   6.081   1.734   4.447 -0.5817 -0.5486  0.4739
 3758SOL     OW14803   0.386   1.307   0.191 -0.2630 -0.3681 -0.1850
 3758SOL    HW214804   0.468   1.334   0.149  0.5735 -1.6682  0.5287
 3758SOL    HW314805   0.392   1.343   0.280 -0.2436 -0.8246  0.0045
 3758SOL    MW414806   0.398   1.315   0.197 -0.1501 -0.5999 -0.0658
 3759SOL     OW14807   5.920   5.989   5.622  0.0640 -0.2055  0.2400
 3759SOL    HW214808   5.932   5.944   5.538  1.2865 -1.9841  1.3059
 3759SOL    HW314809   5.826   5.979   5.641 -0.5971  1.6952 -1.6459
 3759SOL    MW414810   5.909   5.982   5.613  0.1380 -0.1894  0.1318
 3760SOL     OW14811   4.396   3.754   1.974 -0.2008 -0.1118 -0.2455
 3760SOL    HW214812   4.478   3.800   1.958 -0.6042  1.3006  1.4778
 3760SOL    HW314813   4.410   3.706   2.055 -0.9651 -0.1495 -0.1289
 3760SOL    MW414814   4.408   3.753   1.982 -0.3549  0.0696 -0.0028
 3761SOL     OW14815   2.512   0.619   4.093  0.1270 -0.0908 -0.3669
 3761SOL    HW214816   2.602   0.610   4.125 -0.4401 -0.3709  1.2576
 3761SOL    HW314817   2.459   0.575   4.159 -1.4049  1.9243 -0.1743
 3761SOL    MW414818   2.517   0.612   4.106 -0.1499  0.1381 -0.1271
 3762SOL     OW14819   4.796   2.402   4.252  0.2319 -0.2336  1.1448
 3762SOL    HW214820   4.831   2.320   4.217  0.5833 -0.3206  1.6937
 3762SOL    HW314821   4.836   2.469   4.197 -1.0030 -0.4718 -0.1001
 3762SOL    MW414822   4.806   2.400   4.240  0.1153 -0.2765  1.0530
 3763SOL     OW14823   6.342   4.335   0.783  0.0015 -0.1052 -0.5261
 3763SOL    HW214824   6.331   4.270   0.852 -0.6591  0.1401 -0.3962
 3763SOL    HW314825   6.318   4.418   0.824 -1.1727 -0.0588 -1.2632
 3763SOL    MW414826   6.337   4.338   0.798 -0.2405 -0.0667 -0.6062
 3764SOL     OW14827   4.840   0.270   0.164 -0.1688  0.3024  0.0028
 3764SOL    HW214828   4.931   0.241   0.166 -0.3998 -0.4080  1.1742
 3764SOL    HW314829   4.821   0.282   0.071  1.6775  2.3674 -0.1873
 3764SOL    MW414830   4.849   0.268   0.152  0.0444  0.4811  0.1323
 3765SOL     OW14831   5.273   5.559   1.500  0.3036 -0.1309  0.2556
 3765SOL    HW214832   5.262   5.649   1.471 -0.4146  1.0746  3.7181
 3765SOL    HW314833   5.186   5.520   1.492  0.3173 -0.0911 -0.0739
 3765SOL    MW414834   5.260   5.566   1.495  0.2107  0.0334  0.6690
 3766SOL     OW14835   3.438   2.546   2.412  0.7050  0.2438  0.1185
 3766SOL    HW214836   3.519   2.515   2.452 -0.0884 -3.7912 -0.9445
 3766SOL    HW314837   3.450   2.530   2.318 -1.8590 -2.4868  0.0770
 3766SOL    MW414838   3.450   2.540   2.405  0.2620 -0.6488 -0.0272
 3767SOL     OW14839   0.211   6.257   4.756 -0.6129 -0.2061  0.0989
 3767SOL    HW214840   0.164   6.220   4.830  2.0639 -0.6917  1.7079
 3767SOL    HW314841   0.296   6.212   4.757  1.1837  2.8624 -0.4891
 3767SOL    MW414842   0.216   6.247   4.766 -0.0227  0.1347  0.2336
 3768SOL     OW14843   1.034   3.943   3.544  0.3903 -0.3390 -0.0922
 3768SOL    HW214844   1.005   3.941   3.635 -0.3595 -1.2337 -0.3402
 3768SOL    HW314845   1.086   3.863   3.533  0.7610 -0.0697 -0.3735
 3768SOL    MW414846   1.037   3.932   3.554  0.3403 -0.4215 -0.1620
 3769SOL     OW14847   2.486   5.647   2.404  0.0888 -0.4160 -0.0448
 3769SOL    HW214848   2.540   5.606   2.471  2.9311  1.4150 -1.0562
 3769SOL    HW314849   2.424   5.701   2.454  2.1564  0.9392  1.2244
 3769SOL    MW414850   2.485   5.649   2.420  0.7366  0.0044 -0.0108
 3770SOL     OW14851   0.552   1.449   5.485 -0.3093  0.7542  0.4245
 3770SOL    HW214852   0.532   1.542   5.495  2.2295  1.6575 -1.7190
 3770SOL    HW314853   0.627   1.433   5.542 -1.0691 -0.1569  1.2038
 3770SOL    MW414854   0.559   1.459   5.494 -0.0746  0.7531  0.2445
 3771SOL     OW14855   5.445   3.371   3.297  0.1565  0.0547  0.5377
 3771SOL    HW214856   5.467   3.392   3.206  1.9626  0.7105  1.0828
 3771SOL    HW314857   5.371   3.310   3.290 -0.1217  0.5314 -1.3375
 3771SOL    MW414858   5.438   3.366   3.284  0.3581  0.2041  0.3622
 3772SOL     OW14859   4.538   5.457   4.832  0.5875  0.1445 -0.2943
 3772SOL    HW214860   4.507   5.441   4.921  0.5355 -0.8575 -0.4782
 3772SOL    HW314861   4.535   5.371   4.790 -0.6302  0.8100 -1.6611
 3772SOL    MW414862   4.533   5.444   4.838  0.4200  0.1001 -0.4989
 3773SOL     OW14863   1.660   1.378   0.728  0.7709 -0.1193  0.4279
 3773SOL    HW214864   1.660   1.329   0.646  0.0609 -1.9449  1.4555
 3773SOL    HW314865   1.726   1.446   0.715 -1.3052  1.5640 -2.7091
 3773SOL    MW414866   1.668   1.380   0.715  0.4033 -0.1381  0.1496
 3774SOL     OW14867   0.528   2.866   5.257  0.4030  0.2440  0.0114
 3774SOL    HW214868   0.446   2.886   5.300  0.1039 -1.5407  0.3534
 3774SOL    HW314869   0.548   2.945   5.206 -1.4050  0.7920  0.0678
 3774SOL    MW414870   0.520   2.879   5.256  0.1250  0.0808  0.0639
 3775SOL     OW14871   1.165   0.745   3.969  0.3770 -0.9947  0.0981
 3775SOL    HW214872   1.208   0.683   4.027  0.3025 -1.1468 -0.0085
 3775SOL    HW314873   1.231   0.812   3.951 -0.1010 -0.0252  1.7135
 3775SOL    MW414874   1.179   0.746   3.975  0.3041 -0.8869  0.2972
 3776SOL     OW14875   6.395   0.970   6.041  0.5030 -0.2799  0.3943
 3776SOL    HW214876   6.419   0.881   6.014 -0.9614 -0.6913  0.3182
 3776SOL    HW314877   6.415   1.024   5.965 -0.4634 -0.8987 -0.3400
 3776SOL    MW414878   6.401   0.965   6.027  0.1823 -0.4159  0.2874
 3777SOL     OW14879   2.433   3.229   6.406  0.1022  0.1527 -0.1289
 3777SOL    HW214880   2.355   3.283   6.395  0.3973  0.5071 -0.5277
 3777SOL    HW314881   2.484   3.273   6.474  0.1007  0.0891 -0.0859
 3777SOL    MW414882   2.429   3.242   6.414  0.1410  0.1911 -0.1759
 3778SOL     OW14883   4.792   2.793   4.225  0.2628  0.2590 -0.3437
 3778SOL    HW214884   4.703   2.767   4.248  0.4091 -0.1407 -0.2157
 3778SOL    HW314885   4.784   2.832   4.138 -0.4772  2.8082  0.7607
 3778SOL    MW414886   4.779   2.795   4.217  0.1845  0.5426 -0.1811
 3779SOL     OW14887   0.138   3.624   0.730 -0.5621  0.3299 -0.4866
 3779SOL    HW214888   0.086   3.586   0.801 -0.0778  2.4495  1.1068
 3779SOL    HW314889   0.118   3.570   0.654 -0.2011 -2.8129  1.4662
 3779SOL    MW414890   0.128   3.612   0.730 -0.4506  0.1949 -0.0187
 3780SOL     OW14891   1.677   5.660   5.579  0.2063 -0.0520  0.4089
 3780SOL    HW214892   1.601   5.683   5.525 -0.1081 -0.6903  0.5639
 3780SOL    HW314893   1.680   5.564   5.575  0.5633 -0.0687  1.0099
 3780SOL    MW414894   1.667   5.650   5.571  0.2119 -0.1384  0.5087
 3781SOL     OW14895   2.535   4.807   5.554 -0.6438  0.3768 -0.3500
 3781SOL    HW214896   2.493   4.838   5.473 -2.7190 -1.1839  0.0372
 3781SOL    HW314897   2.462   4.786   5.612  0.7585  2.5469  2.4426
 3781SOL    MW414898   2.520   4.808   5.551 -0.7325  0.4572  0.0695
 3782SOL     OW14899   3.828   2.926   4.932 -0.4235  0.2566  0.1938
 3782SOL    HW214900   3.791   2.867   4.998  1.9578  1.2234  2.5793
 3782SOL    HW314901   3.818   2.880   4.849 -0.6095 -2.5066  1.6614
 3782SOL    MW414902   3.822   2.912   4.930 -0.1338  0.0196  0.7022
 3783SOL     OW14903   0.394   3.767   6.028  0.4367 -0.4083  0.0544
 3783SOL    HW214904   0.352   3.693   6.072 -0.7031  0.7950  1.0372
 3783SOL    HW314905   0.357   3.768   5.940  0.5288 -1.0474  0.0048
 3783SOL    MW414906   0.384   3.757   6.022  0.2985 -0.3338  0.1775
 3784SOL     OW14907   4.292   1.075   3.790  0.1253 -0.3501  0.1068
 3784SOL    HW214908   4.343   1.155   3.776 -1.1641  0.4359 -0.3062
 3784SOL    HW314909   4.254   1.086   3.877 -0.8091 -0.0619 -0.3250
 3784SOL    MW414910   4.294   1.087   3.800 -0.1681 -0.2084 -0.0046
 3785SOL     OW14911   0.588   6.391   0.392 -0.0696  0.1377  0.0541
 3785SOL    HW214912   0.493   6.381   0.387 -0.2724  0.4679  2.2974
 3785SOL    HW314913   0.621   6.345   0.315 -1.9777 -1.2314 -0.0205
 3785SOL    MW414914   0.580   6.383   0.381 -0.3481  0.0006  0.3402
 3786SOL     OW14915   0.411   0.898   0.998 -0.3192 -0.1849  0.3826
 3786SOL    HW214916   0.399   0.989   1.027  0.5497  0.8765 -2.3193
 3786SOL    HW314917   0.325   0.871   0.968 -0.2748  0.2689 -0.1601
 3786SOL    MW414918   0.398   0.907   0.998 -0.1987  0.0150 -0.0455
 3787SOL     OW14919   3.808   4.728   0.486  0.5703  0.0110  0.5505
 3787SOL    HW214920   3.812   4.649   0.432  1.9247 -0.4886  1.3325
 3787SOL    HW314921   3.742   4.782   0.443 -0.6583 -1.6750  0.1958
 3787SOL    MW414922   3.800   4.725   0.473  0.5869 -0.2774  0.6069
 3788SOL     OW14923   0.620   6.309   4.959  0.0063 -0.2889 -0.4970
 3788SOL    HW214924   0.569   6.381   4.925 -1.2959 -0.0671  1.7387
 3788SOL    HW314925   0.671   6.347   5.031  0.7535 -1.1979 -0.5212
 3788SOL    MW414926   0.620   6.323   4.964 -0.0669 -0.3796 -0.2052
 3789SOL     OW14927   5.893   6.070   6.298 -0.3100  0.1142  0.3664
 3789SOL    HW214928   5.874   6.123   6.220  2.0144  0.6090  0.0420
 3789SOL    HW314929   5.981   6.098   6.324 -0.0390 -1.8061  1.7069
 3789SOL    MW414930   5.902   6.080   6.291  0.0324 -0.0739  0.5004
 3790SOL     OW14931   4.794   5.201   2.303  0.2459 -1.0571 -0.1995
 3790SOL    HW214932   4.733   5.132   2.275 -0.5018 -0.1443 -0.8874
 3790SOL    HW314933   4.738   5.271   2.337  0.8668 -0.0591 -1.1555
 3790SOL    MW414934   4.779   5.201   2.304  0.2291 -0.8050 -0.4164
 3791SOL     OW14935   2.198   4.770   3.985 -0.0797  0.0358  0.2137
 3791SOL    HW214936   2.150   4.689   3.969 -2.8327  1.2689  1.5301
 3791SOL    HW314937   2.254   4.750   4.060 -0.1517 -0.8448  0.0440
 3791SOL    MW414938   2.199   4.756   3.993 -0.4524  0.0823  0.3650
 3792SOL     OW14939   2.392   3.794   1.709  0.2585  0.4626  0.4885
 3792SOL    HW214940   2.306   3.834   1.714  0.9869  2.3216 -0.7193
 3792SOL    HW314941   2.395   3.752   1.623  0.1989 -0.5315  0.9583
 3792SOL    MW414942   2.381   3.794   1.698  0.3467  0.5767  0.3911
 3793SOL     OW14943   0.976   1.801   3.083 -0.2569 -0.5558  0.5075
 3793SOL    HW214944   0.967   1.873   3.020  1.3719  0.2108  1.1076
 3793SOL    HW314945   0.963   1.841   3.168  0.0125 -1.1121  0.8149
 3793SOL    MW414946   0.973   1.816   3.086 -0.0064 -0.5280  0.6272
 3794SOL     OW14947   4.988   4.155   0.336 -0.5867 -0.2644  0.5569
 3794SOL    HW214948   4.999   4.250   0.340 -1.1165 -0.1625 -0.0661
 3794SOL    HW314949   4.953   4.140   0.248 -1.8905 -0.8818  1.1615
 3794SOL    MW414950   4.985   4.166   0.325 -0.8286 -0.3324  0.5545
 3795SOL     OW14951   2.518   2.682   4.075 -0.3241 -0.2529  0.0572
 3795SOL    HW214952   2.488   2.611   4.131 -1.3152 -0.5290 -0.7965
 3795SOL    HW314953   2.612   2.687   4.090 -0.3369 -1.3719  0.5465
 3795SOL    MW414954   2.527   2.674   4.084 -0.4566 -0.4370  0.0091
 3796SOL     OW14955   3.625   5.994   1.839  0.0116 -0.8331 -0.1022
 3796SOL    HW214956   3.533   5.970   1.843 -0.1463 -0.3503 -0.6809
 3796SOL    HW314957   3.651   6.005   1.930 -0.7679  0.0267  0.0280
 3796SOL    MW414958   3.616   5.992   1.851 -0.1121 -0.6560 -0.1613
 3797SOL     OW14959   0.372   4.168   0.922  0.4055  0.1089 -0.6140
 3797SOL    HW214960   0.341   4.147   0.834  0.2414  2.1269 -1.0822
 3797SOL    HW314961   0.307   4.228   0.957  0.1153 -1.1804  1.1851
 3797SOL    MW414962   0.360   4.173   0.915  0.3455  0.2051 -0.4384
 3798SOL     OW14963   0.975   0.917   6.133 -0.3167  0.0779 -0.3479
 3798SOL    HW214964   0.947   0.835   6.092 -0.8632  0.0830 -0.0020
 3798SOL    HW314965   0.990   0.893   6.225 -0.5321  0.3781 -0.2343
 3798SOL    MW414966   0.974   0.903   6.140 -0.4172  0.1182 -0.2873
 3799SOL     OW14967   0.149   0.566   3.772 -0.6553 -0.1985 -0.0451
 3799SOL    HW214968   0.122   0.651   3.738  1.7498  0.4511 -0.5206
 3799SOL    HW314969   0.085   0.505   3.736 -2.8354  1.4220  0.8240
 3799SOL    MW414970   0.137   0.569   3.763 -0.6256  0.1010  0.0068
 3800SOL     OW14971   4.772   2.342   5.445 -0.0879  0.2017  0.2865
 3800SOL    HW214972   4.820   2.347   5.527 -1.2192 -0.8407  1.0464
 3800SOL    HW314973   4.776   2.431   5.409  2.1196  0.2199  0.4387
 3800SOL    MW414974   4.779   2.355   5.451  0.0541  0.0665  0.4068
 3801SOL     OW14975   5.898   2.040   2.116 -0.1780 -0.5033  0.1597
 3801SOL    HW214976   5.941   2.079   2.192  0.9333 -0.1699 -0.6141
 3801SOL    HW314977   5.809   2.075   2.118 -0.1980 -0.5902  1.3596
 3801SOL    MW414978   5.892   2.049   2.126 -0.0340 -0.4707  0.2159
 3802SOL     OW14979   4.276   4.604   3.821 -0.1118 -0.1085 -0.0815
 3802SOL    HW214980   4.226   4.540   3.871  0.1478 -0.3080 -0.0723
 3802SOL    HW314981   4.331   4.648   3.886 -0.6805  0.5072 -0.0030
 3802SOL    MW414982   4.277   4.602   3.836 -0.1525 -0.0536 -0.0699
 3803SOL     OW14983   5.609   1.529   1.775 -0.4943  0.1463 -0.5567
 3803SOL    HW214984   5.558   1.611   1.775  0.2194  0.7188 -3.6203
 3803SOL    HW314985   5.700   1.558   1.782 -0.2838 -0.4119 -0.9292
 3803SOL    MW414986   5.614   1.544   1.776 -0.3724  0.1482 -1.0100
 3804SOL     OW14987   4.377   5.118   3.028 -0.1285  0.1227 -0.7674
 3804SOL    HW214988   4.367   5.052   3.096  0.3234  0.5906 -0.2233
 3804SOL    HW314989   4.462   5.158   3.047  0.5563 -0.5237 -2.3140
 3804SOL    MW414990   4.387   5.115   3.039  0.0215  0.0991 -0.8996
 3805SOL     OW14991   2.247   5.228   2.497  0.2137  0.2187  0.3209
 3805SOL    HW214992   2.216   5.269   2.416  0.0068 -0.4494  0.0561
 3805SOL    HW314993   2.264   5.302   2.556 -1.6572  0.6353  0.4010
 3805SOL    MW414994   2.245   5.243   2.494 -0.0605  0.1855  0.2965
 3806SOL     OW14995   4.158   4.634   6.175 -0.2725 -0.6785  0.4264
 3806SOL    HW214996   4.064   4.653   6.169 -0.3426  0.0417  2.6288
 3806SOL    HW314997   4.176   4.573   6.104 -2.2769 -0.3554 -0.4139
 3806SOL    MW414998   4.148   4.629   6.165 -0.5462 -0.5409  0.6061
 3807SOL     OW14999   4.150   3.392   3.215 -0.2487  0.6523  0.5272
 3807SOL    HW215000   4.224   3.451   3.205  0.9895 -0.9575 -0.2408
 3807SOL    HW315001   4.139   3.384   3.310  0.1496  1.3712  0.6433
 3807SOL    MW415002   4.158   3.399   3.227 -0.0328  0.5347  0.4412
 3808SOL     OW15003   3.987   1.846   5.193  0.1402 -0.5197 -0.1271
 3808SOL    HW215004   3.999   1.908   5.121  0.2639 -1.4564 -0.9437
 3808SOL    HW315005   4.023   1.890   5.270 -0.6567  0.7989 -0.4707
 3808SOL    MW415006   3.993   1.860   5.194  0.0514 -0.4693 -0.2802
 3809SOL     OW15007   1.892   3.702   5.472  0.1321  0.0942 -0.1785
 3809SOL    HW215008   1.949   3.755   5.528 -0.0175 -0.7300  0.7770
 3809SOL    HW315009   1.860   3.764   5.406  1.2681  0.8087 -0.0894
 3809SOL    MW415010   1.895   3.717   5.471  0.2622  0.0797 -0.0406
 3810SOL     OW15011   0.216   1.245   2.579 -0.1788 -0.5163  0.3322
 3810SOL    HW215012   0.213   1.242   2.483  0.7448  0.2541  0.2649
 3810SOL    HW315013   0.200   1.154   2.606 -2.1439 -0.4567 -0.4797
 3810SOL    MW415014   0.214   1.232   2.570 -0.3162 -0.4068  0.2162
 3811SOL     OW15015   5.326   1.246   4.054 -0.2331 -0.6860  0.0154
 3811SOL    HW215016   5.317   1.315   3.989  2.7184 -1.9067 -1.9308
 3811SOL    HW315017   5.278   1.172   4.017  0.1563 -0.9294 -0.0063
 3811SOL    MW415018   5.318   1.245   4.041  0.2077 -0.8791 -0.2442
 3812SOL     OW15019   1.049   2.850   3.713  0.5193  0.6223  0.3574
 3812SOL    HW215020   1.093   2.765   3.715 -2.5177 -1.0572  1.0081
 3812SOL    HW315021   1.069   2.885   3.627  2.4763 -0.3280  0.3524
 3812SOL    MW415022   1.058   2.843   3.702  0.3768  0.2753  0.4426
 3813SOL     OW15023   1.286   4.386   5.448 -0.0087  0.6695  0.4679
 3813SOL    HW215024   1.366   4.338   5.423 -0.1250  0.4411  0.5330
 3813SOL    HW315025   1.217   4.320   5.445 -0.0765  0.7039  1.1137
 3813SOL    MW415026   1.288   4.371   5.444 -0.0330  0.6439  0.5617
 3814SOL     OW15027   4.829   1.664   4.567  0.1701 -0.5450  0.4799
 3814SOL    HW215028   4.739   1.693   4.552 -0.0513 -1.1719  0.5561
 3814SOL    HW315029   4.832   1.645   4.660  0.3655 -0.5834  0.4654
 3814SOL    MW415030   4.817   1.666   4.577  0.1667 -0.6328  0.4881
 3815SOL     OW15031   2.727   0.383   6.341  0.0143  0.3960 -0.8123
 3815SOL    HW215032   2.682   0.467   6.353  1.0257  0.6925  1.8461
 3815SOL    HW315033   2.765   0.388   6.254  0.5809  3.0488 -0.5130
 3815SOL    MW415034   2.726   0.395   6.331  0.2225  0.7852 -0.4220
 3816SOL     OW15035   6.390   3.514   2.232 -0.5096  0.3775  0.0957
 3816SOL    HW215036   6.308   3.483   2.270 -0.1742 -2.4560 -1.2710
 3816SOL    HW315037   6.446   3.532   2.307 -1.2641 -0.9727  1.0212
 3816SOL    MW415038   6.386   3.512   2.247 -0.5649 -0.1745  0.0375
 3817SOL     OW15039   5.498   2.702   6.153 -0.3453 -0.2421 -0.6642
 3817SOL    HW215040   5.446   2.706   6.233  1.6785 -1.0545  0.7777
 3817SOL    HW315041   5.540   2.788   6.147 -1.8332  0.4509 -1.8838
 3817SOL    MW415042   5.496   2.714   6.163 -0.2746 -0.2579 -0.6349
 3818SOL     OW15043   2.162   4.327   5.378  0.0020  0.0666 -0.3715
 3818SOL    HW215044   2.067   4.330   5.377  0.0256  1.7688 -1.2250
 3818SOL    HW315045   2.186   4.339   5.470 -0.5814 -2.1982  0.1423
 3818SOL    MW415046   2.153   4.329   5.390 -0.0719 -0.0077 -0.4163
 3819SOL     OW15047   1.631   3.361   5.269 -0.0335  0.3267 -0.4486
 3819SOL    HW215048   1.668   3.442   5.233  1.2992  0.6332  1.4033
 3819SOL    HW315049   1.627   3.301   5.195  0.7966  1.4776 -1.4732
 3819SOL    MW415050   1.636   3.364   5.255  0.2519  0.5190 -0.3395
 3820SOL     OW15051   0.112   2.122   2.685 -0.4747  0.4303  0.4372
 3820SOL    HW215052   0.089   2.190   2.748 -1.2873  1.4036 -0.8544
 3820SOL    HW315053   0.159   2.169   2.616 -3.0883  0.2145 -1.6606
 3820SOL    MW415054   0.115   2.137   2.684 -0.9268  0.5302 -0.0100
 3821SOL     OW15055   4.287   3.184   2.314 -0.8623  0.0568 -0.1106
 3821SOL    HW215056   4.327   3.266   2.283 -1.3360 -0.4621 -2.2402
 3821SOL    HW315057   4.362   3.126   2.329 -0.5722  0.5887  0.5433
 3821SOL    MW415058   4.302   3.187   2.312 -0.8865  0.0585 -0.3053
 3822SOL     OW15059   5.200   1.895   0.109  0.8399  0.0867  0.7754
 3822SOL    HW215060   5.164   1.824   0.162  2.5882 -0.6176  1.0831
 3822SOL    HW315061   5.191   1.972   0.165 -1.7213  0.3265  0.1638
 3822SOL    MW415062   5.194   1.896   0.124  0.7327  0.0254  0.7353
 3823SOL     OW15063   3.648   4.794   1.017 -0.2966 -0.0836  0.3052
 3823SOL    HW215064   3.689   4.721   1.062  0.6025 -0.7909 -1.5471
 3823SOL    HW315065   3.721   4.849   0.989 -0.8720  0.7256  0.3603
 3823SOL    MW415066   3.663   4.792   1.019 -0.2539 -0.0701  0.0680
 3824SOL     OW15067   5.047   3.223   3.005 -0.6335  0.2043  0.1245
 3824SOL    HW215068   5.080   3.305   3.041 -0.7101  0.2020  0.1994
 3824SOL    HW315069   5.070   3.227   2.912  0.6209 -0.3209  0.4028
 3824SOL    MW415070   5.054   3.235   2.997 -0.4781  0.1347  0.1711
 3825SOL     OW15071   1.605   2.851   2.576  0.1217 -0.0492 -0.1021
 3825SOL    HW215072   1.646   2.779   2.527  1.5121 -0.2639  1.2921
 3825SOL    HW315073   1.679   2.895   2.618 -0.8127  1.6274 -0.1736
 3825SOL    MW415074   1.620   2.847   2.575  0.1818  0.1437  0.0724
 3826SOL     OW15075   0.476   5.790   4.951 -0.3281 -0.2491  0.1791
 3826SOL    HW215076   0.439   5.711   4.990  2.4436 -1.3885  0.7592
 3826SOL    HW315077   0.400   5.840   4.919 -2.3634 -1.7342  2.3817
 3826SOL    MW415078   0.461   5.786   4.952 -0.2310 -0.5954  0.5463
 3827SOL     OW15079   3.216   2.437   1.029 -0.2288 -0.1200 -0.5199
 3827SOL    HW215080   3.170   2.357   1.056  0.5873 -0.6429 -0.6645
 3827SOL    HW315081   3.146   2.496   1.002 -0.9088 -0.4489  0.4546
 3827SOL    MW415082   3.201   2.434   1.029 -0.2109 -0.2323 -0.4104
 3828SOL     OW15083   0.750   6.466   5.166 -0.4575  0.2537 -0.1973
 3828SOL    HW215084   0.697   6.434   5.238 -0.3074 -0.9455 -0.5911
 3828SOL    HW315085   0.837   6.428   5.181 -0.5733 -0.5153 -1.2951
 3828SOL    MW415086   0.755   6.457   5.177 -0.4530 -0.0060 -0.3941
 3829SOL     OW15087   2.090   5.281   3.245  0.0615 -0.4283  0.5407
 3829SOL    HW215088   2.026   5.332   3.294 -0.1912 -1.2821  1.1101
 3829SOL    HW315089   2.162   5.343   3.230 -1.2312  0.8313 -0.9021
 3829SOL    MW415090   2.091   5.296   3.249 -0.1424 -0.3747  0.4255
 3830SOL     OW15091   5.711   0.298   5.927 -0.2122  0.5647  0.2508
 3830SOL    HW215092   5.717   0.210   5.891 -1.2868  0.5995 -0.0450
 3830SOL    HW315093   5.795   0.311   5.972  0.3619 -0.2201 -0.5487
 3830SOL    MW415094   5.723   0.288   5.928 -0.2783  0.4658  0.1063
 3831SOL     OW15095   5.249   5.133   1.626 -0.1227  0.5290 -0.0143
 3831SOL    HW215096   5.344   5.139   1.627 -0.0748  0.3979 -1.3167
 3831SOL    HW315097   5.231   5.039   1.614 -0.3557  0.7074 -1.2837
 3831SOL    MW415098   5.259   5.121   1.624 -0.1471  0.5352 -0.3536
 3832SOL     OW15099   4.048   3.665   2.494  0.1624 -0.1585  0.0913
 3832SOL    HW215100   4.065   3.744   2.546 -0.8465  0.2552 -0.1728
 3832SOL    HW315101   3.993   3.611   2.551  2.5927 -1.6818  1.1182
 3832SOL    MW415102   4.043   3.668   2.508  0.3499 -0.3049  0.1920
 3833SOL     OW15103   4.199   1.658   5.788  0.0906 -0.2542 -0.4945
 3833SOL    HW215104   4.206   1.706   5.706 -0.3833 -0.5652 -0.7203
 3833SOL    HW315105   4.109   1.625   5.790 -0.9716  2.4127  1.6461
 3833SOL    MW415106   4.188   1.660   5.777 -0.1121  0.0567 -0.2419
 3834SOL     OW15107   6.109   3.318   6.358  0.1283 -0.1285 -0.1401
 3834SOL    HW215108   6.026   3.303   6.312  0.9235 -3.9741 -0.7076
 3834SOL    HW315109   6.172   3.340   6.290  0.3584 -1.2507 -0.3090
 3834SOL    MW415110   6.106   3.319   6.343  0.2636 -0.7839 -0.2373
 3835SOL     OW15111   2.918   5.038   1.134  0.3008  0.1900  0.3969
 3835SOL    HW215112   2.880   4.970   1.077 -0.0345  0.7103 -0.0119
 3835SOL    HW315113   2.845   5.063   1.191  1.1134 -1.6701  2.4010
 3835SOL    MW415114   2.903   5.032   1.134  0.3638  0.0132  0.6074
 3836SOL     OW15115   0.179   2.762   2.728  0.6493  0.0202 -0.2172
 3836SOL    HW215116   0.148   2.831   2.670 -1.1640 -1.4393 -1.0944
 3836SOL    HW315117   0.108   2.748   2.790  1.8253  0.3096  1.2494
 3836SOL    MW415118   0.165   2.769   2.728  0.5652 -0.1342 -0.1395
 3837SOL     OW15119   2.173   1.275   5.585 -0.5180  0.1072 -0.0231
 3837SOL    HW215120   2.131   1.361   5.591  0.9220  0.8025  0.3900
 3837SOL    HW315121   2.256   1.285   5.631 -1.0668 -2.0050  1.5649
 3837SOL    MW415122   2.178   1.288   5.591 -0.4005 -0.0798  0.2409
 3838SOL     OW15123   5.787   5.881   2.489 -0.1605  0.7387 -0.0858
 3838SOL    HW215124   5.834   5.799   2.475 -0.8222  0.5722 -1.6168
 3838SOL    HW315125   5.816   5.912   2.574  0.0389 -1.1334  0.5741
 3838SOL    MW415126   5.797   5.874   2.498 -0.2215  0.4697 -0.2007
 3839SOL     OW15127   0.296   3.736   5.749 -0.3694  0.0314  0.0440
 3839SOL    HW215128   0.203   3.749   5.730 -0.1008 -1.2740 -2.5950
 3839SOL    HW315129   0.339   3.812   5.712 -0.0415 -1.5656 -3.1928
 3839SOL    MW415130   0.289   3.747   5.742 -0.2907 -0.3515 -0.7312
 3840SOL     OW15131   2.145   5.531   3.803 -0.5122 -0.0184 -0.4499
 3840SOL    HW215132   2.094   5.588   3.861 -1.3715 -1.5106  0.2980
 3840SOL    HW315133   2.087   5.457   3.784  0.9874 -1.2371 -0.4599
 3840SOL    MW415134   2.131   5.529   3.808 -0.4278 -0.3761 -0.3525
 3841SOL     OW15135   2.564   3.880   5.975 -0.7025 -0.5763  0.2348
 3841SOL    HW215136   2.489   3.936   5.995 -2.0738 -1.9833 -0.7673
 3841SOL    HW315137   2.537   3.793   6.004  0.0339 -1.3447 -1.2784
 3841SOL    MW415138   2.550   3.876   5.982 -0.7862 -0.8633 -0.0971
 3842SOL     OW15139   4.052   0.165   5.868  0.5907  0.2496  0.0179
 3842SOL    HW215140   4.078   0.256   5.859  2.0307 -0.2170 -0.9568
 3842SOL    HW315141   3.983   0.153   5.802 -0.8749  1.0201  1.3298
 3842SOL    MW415142   4.046   0.175   5.858  0.5873  0.2897  0.0624
 3843SOL     OW15143   1.896   2.431   4.756  0.2849  0.0515 -0.4957
 3843SOL    HW215144   1.891   2.518   4.716  0.5388  0.3060  0.0134
 3843SOL    HW315145   1.989   2.416   4.771  0.1880  0.0164  0.1066
 3843SOL    MW415146   1.908   2.441   4.753  0.3056  0.0805 -0.3491
 3844SOL     OW15147   3.869   4.657   5.407 -0.4567 -0.0111  0.0260
 3844SOL    HW215148   3.816   4.645   5.329 -1.8449  1.8086  0.6234
 3844SOL    HW315149   3.838   4.590   5.468  1.0606 -1.8498 -1.1226
 3844SOL    MW415150   3.858   4.647   5.405 -0.4397 -0.0136 -0.0467
 3845SOL     OW15151   6.148   2.437   1.539 -0.3968 -0.2208 -0.1689
 3845SOL    HW215152   6.135   2.523   1.500  0.2179 -0.0173  0.0525
 3845SOL    HW315153   6.204   2.391   1.477  1.1458  0.3395  0.7369
 3845SOL    MW415154   6.154   2.443   1.526 -0.1122 -0.1201 -0.0202
 3846SOL     OW15155   0.596   0.390   5.337  0.7153  0.2985  0.4205
 3846SOL    HW215156   0.662   0.361   5.273  1.1449  1.4468  0.3297
 3846SOL    HW315157   0.646   0.438   5.403  0.0577  0.5405  0.7442
 3846SOL    MW415158   0.612   0.392   5.337  0.6852  0.4820  0.4513
 3847SOL     OW15159   1.694   4.370   0.655  0.0504 -0.0215  0.6087
 3847SOL    HW215160   1.739   4.408   0.580  1.1294  0.9342  1.7009
 3847SOL    HW315161   1.616   4.424   0.667 -1.2562 -1.4105 -1.0124
 3847SOL    MW415162   1.690   4.382   0.647  0.0204 -0.0787  0.5389
 3848SOL     OW15163   5.734   5.501   1.763  0.4901  0.2722 -0.1859
 3848SOL    HW215164   5.642   5.492   1.736  0.3347 -1.5406  0.7581
 3848SOL    HW315165   5.747   5.595   1.773 -1.0133  0.6249 -1.1595
 3848SOL    MW415166   5.723   5.512   1.761  0.2712  0.0796 -0.1898
 3849SOL     OW15167   5.457   5.341   2.920 -0.0746 -0.1726 -0.1377
 3849SOL    HW215168   5.552   5.341   2.929 -0.0573  0.0653 -0.3013
 3849SOL    HW315169   5.424   5.354   3.009 -0.0185 -2.9815  0.3609
 3849SOL    MW415170   5.465   5.343   2.933 -0.0649 -0.5118 -0.0935
 3850SOL     OW15171   6.067   5.445   2.958  0.2073 -0.5179  0.4564
 3850SOL    HW215172   6.042   5.363   2.916  1.9121 -0.1677 -1.3978
 3850SOL    HW315173   6.024   5.513   2.905  1.9035 -0.0939 -0.4347
 3850SOL    MW415174   6.058   5.443   2.946  0.6560 -0.4158  0.0942
 3851SOL     OW15175   2.349   4.628   3.188 -0.3543 -0.8209 -0.0893
 3851SOL    HW215176   2.297   4.552   3.211 -0.0442 -0.5749  1.5854
 3851SOL    HW315177   2.424   4.625   3.248  0.1130  0.3332 -0.5727
 3851SOL    MW415178   2.352   4.618   3.199 -0.2517 -0.6362  0.0679
 3852SOL     OW15179   1.750   3.864   5.273  0.3455 -0.4917  0.1445
 3852SOL    HW215180   1.661   3.829   5.269 -0.5846  1.7820 -1.3414
 3852SOL    HW315181   1.789   3.841   5.188  0.3656  0.4209 -0.1022
 3852SOL    MW415182   1.744   3.856   5.261  0.2255 -0.0713 -0.0841
 3853SOL     OW15183   2.577   1.543   4.854 -0.2574 -0.4650 -0.3082
 3853SOL    HW215184   2.491   1.563   4.818 -0.0887 -1.4721 -1.3170
 3853SOL    HW315185   2.620   1.490   4.787  1.4564  0.6539 -0.1456
 3853SOL    MW415186   2.572   1.539   4.841 -0.0090 -0.4503 -0.4198
 3854SOL     OW15187   5.297   2.930   0.721  0.0982  0.3602  0.4436
 3854SOL    HW215188   5.271   2.894   0.805 -0.6056 -0.5922 -0.1575
 3854SOL    HW315189   5.381   2.890   0.701 -1.2023 -1.9688 -0.7560
 3854SOL    MW415190   5.305   2.920   0.729 -0.1662 -0.0728  0.2060
 3855SOL     OW15191   3.823   4.406   4.421 -0.5372 -0.3185 -0.6677
 3855SOL    HW215192   3.889   4.354   4.375  1.0606  1.9683 -1.1229
 3855SOL    HW315193   3.743   4.394   4.370 -0.1913 -2.1118 -0.8631
 3855SOL    MW415194   3.821   4.398   4.409 -0.2808 -0.2534 -0.7536
 3856SOL     OW15195   0.155   5.360   3.566  0.2179 -0.6789  0.8138
 3856SOL    HW215196   0.125   5.449   3.580  1.4631 -0.4718  2.5471
 3856SOL    HW315197   0.181   5.357   3.474  0.3335  0.7891  0.7795
 3856SOL    MW415198   0.154   5.371   3.556  0.3975 -0.4579  1.0380
 3857SOL     OW15199   5.642   6.406   3.618 -0.0958 -0.8175  0.0316
 3857SOL    HW215200   5.734   6.402   3.592  1.0546  1.4131  3.2222
 3857SOL    HW315201   5.643   6.405   3.713 -3.4283 -1.0358  0.1859
 3857SOL    MW415202   5.654   6.406   3.627 -0.3837 -0.5520  0.4729
 3858SOL     OW15203   2.796   1.027   0.213 -0.3482  0.7033 -0.6719
 3858SOL    HW215204   2.878   1.053   0.169  0.0207  2.0051  0.6906
 3858SOL    HW315205   2.817   0.943   0.254  0.1516  0.7627 -0.7893
 3858SOL    MW415206   2.810   1.019   0.213 -0.2336  0.8829 -0.5076
 3859SOL     OW15207   0.035   0.442   4.527 -0.2074  0.3914 -0.2770
 3859SOL    HW215208   0.022   0.518   4.584  1.7185 -0.6239  1.6407
 3859SOL    HW315209  -0.041   0.386   4.544  1.0901 -0.6441  2.6694
 3859SOL    MW415210   0.023   0.445   4.536  0.2179  0.1208  0.3647
 3860SOL     OW15211   2.141   4.580   1.193  0.1527  0.1772  0.0120
 3860SOL    HW215212   2.199   4.569   1.117 -0.1625 -0.1250 -0.1869
 3860SOL    HW315213   2.179   4.653   1.241  0.2303  0.5260 -0.5602
 3860SOL    MW415214   2.154   4.588   1.189  0.1213  0.1834 -0.0897
 3861SOL     OW15215   2.713   2.850   2.532  0.6978 -0.1289 -0.1321
 3861SOL    HW215216   2.757   2.894   2.459  2.5552  0.6053  1.3384
 3861SOL    HW315217   2.701   2.760   2.503  0.4440  0.3997 -1.7207
 3861SOL    MW415218   2.717   2.844   2.519  0.9094  0.0377 -0.1477
 3862SOL     OW15219   3.155   6.103   5.915  0.2931 -0.0962 -0.3860
 3862SOL    HW215220   3.119   6.069   5.997 -1.4622  0.1618 -1.0139
 3862SOL    HW315221   3.214   6.034   5.884 -0.9880 -1.3190 -0.1912
 3862SOL    MW415222   3.158   6.089   5.922 -0.1075 -0.2235 -0.4431
 3863SOL     OW15223   4.991   1.294   4.429  0.5233 -0.0414 -0.0190
 3863SOL    HW215224   5.049   1.338   4.367  0.2997 -0.0098 -0.2069
 3863SOL    HW315225   5.003   1.201   4.412 -0.6245 -0.0162 -1.1239
 3863SOL    MW415226   5.000   1.288   4.419  0.3424 -0.0339 -0.1896
 3864SOL     OW15227   2.213   4.181   5.091 -0.6388  0.4402 -0.2165
 3864SOL    HW215228   2.297   4.145   5.060 -0.3812  1.1389 -0.3405
 3864SOL    HW315229   2.229   4.201   5.183 -1.5092 -1.9676  0.5372
 3864SOL    MW415230   2.227   4.179   5.099 -0.7196  0.2147 -0.1335
 3865SOL     OW15231   4.183   4.064   2.359 -0.4919  0.4759  0.7074
 3865SOL    HW215232   4.104   4.010   2.351  0.0519 -0.4948  1.6145
 3865SOL    HW315233   4.167   4.118   2.436 -0.4816  0.6461  0.5901
 3865SOL    MW415234   4.170   4.064   2.368 -0.4188  0.3703  0.8116
 3866SOL     OW15235   4.504   0.765   1.205  0.3350 -0.2893 -0.3738
 3866SOL    HW215236   4.494   0.699   1.137  0.3454 -0.3764 -0.2904
 3866SOL    HW315237   4.527   0.845   1.158 -2.5118  0.3810 -0.7691
 3866SOL    MW415238   4.506   0.767   1.190 -0.0392 -0.2124 -0.4150
 3867SOL     OW15239   5.095   6.248   3.767  0.0610  0.2589 -0.5679
 3867SOL    HW215240   5.096   6.210   3.855 -0.2881  0.4214 -0.4940
 3867SOL    HW315241   5.141   6.184   3.713  1.7118  0.8876  0.0345
 3867SOL    MW415242   5.101   6.234   3.771  0.2327  0.3633 -0.4787
 3868SOL     OW15243   4.184   2.647   6.166  0.5301  0.4120  1.0567
 3868SOL    HW215244   4.190   2.651   6.071  0.4623  2.4464  1.1115
 3868SOL    HW315245   4.092   2.665   6.185  1.0128  2.5059  1.5789
 3868SOL    MW415246   4.173   2.650   6.156  0.5848  0.9567  1.1328
 3869SOL     OW15247   2.098   5.918   3.709  0.0249 -0.2175  0.0358
 3869SOL    HW215248   2.062   5.931   3.621 -1.0920 -1.1200  0.3218
 3869SOL    HW315249   2.043   5.849   3.747  0.5730  0.0541  1.3939
 3869SOL    MW415250   2.086   5.910   3.702 -0.0501 -0.3008  0.2527
 3870SOL     OW15251   6.136   4.668   1.493 -0.0452 -0.0581 -0.1818
 3870SOL    HW215252   6.201   4.730   1.459  0.1386  0.5588  1.2102
 3870SOL    HW315253   6.086   4.719   1.558 -2.9336 -0.0617 -2.2201
 3870SOL    MW415254   6.138   4.683   1.497 -0.4020  0.0228 -0.2671
 3871SOL     OW15255   3.478   4.548   1.349 -0.2856 -0.4018  0.5391
 3871SOL    HW215256   3.449   4.474   1.296 -0.0320 -0.4232  0.4287
 3871SOL    HW315257   3.493   4.511   1.436 -1.3098 -0.2426  0.7922
 3871SOL    MW415258   3.476   4.533   1.354 -0.3873 -0.3836  0.5579
 3872SOL     OW15259   3.935   3.320   0.308 -0.1266  0.6455 -0.1265
 3872SOL    HW215260   3.907   3.261   0.238  1.2511 -1.4704  0.9915
 3872SOL    HW315261   4.024   3.344   0.285  0.4900 -0.4115  1.0580
 3872SOL    MW415262   3.943   3.315   0.296  0.1365  0.2268  0.1773
 3873SOL     OW15263   2.224   4.172   4.486 -0.6524 -0.2203 -0.2689
 3873SOL    HW215264   2.146   4.203   4.531 -0.5542  1.9803 -1.4495
 3873SOL    HW315265   2.287   4.154   4.556 -1.4822  0.1930  0.6003
 3873SOL    MW415266   2.222   4.174   4.501 -0.7489  0.1246 -0.3100
 3874SOL     OW15267   0.283   3.016   2.577  0.2870 -0.1557 -0.1457
 3874SOL    HW215268   0.286   3.074   2.654  0.7255  2.9551 -2.3052
 3874SOL    HW315269   0.191   3.014   2.552  0.0922 -1.4576  0.6036
 3874SOL    MW415270   0.271   3.024   2.584  0.3192  0.0830 -0.3318
 3875SOL     OW15271   5.530   1.275   3.687 -0.4808 -0.0943 -0.1304
 3875SOL    HW215272   5.526   1.302   3.595  1.3243  0.2984 -0.1394
 3875SOL    HW315273   5.624   1.271   3.706 -0.8092  1.4797  2.1771
 3875SOL    MW415274   5.542   1.278   3.677 -0.2859  0.1652  0.1729
 3876SOL     OW15275   5.293   5.706   3.747 -0.5588  0.1016 -0.4225
 3876SOL    HW215276   5.267   5.748   3.665  1.0112  1.0644 -0.4649
 3876SOL    HW315277   5.314   5.779   3.805  0.8068 -0.6007 -0.0143
 3876SOL    MW415278   5.292   5.721   3.744 -0.1715  0.1359 -0.3742
 3877SOL     OW15279   0.264   2.644   5.999 -0.1235 -0.1566  0.8588
 3877SOL    HW215280   0.289   2.603   5.916  3.8517  1.5561  0.9863
 3877SOL    HW315281   0.313   2.596   6.066 -0.9492  0.3622  1.8751
 3877SOL    MW415282   0.274   2.632   5.997  0.2920  0.1378  1.0097
 3878SOL     OW15283   1.210   5.277   5.696  0.3742  0.4759 -0.0639
 3878SOL    HW215284   1.202   5.303   5.788 -0.6502 -0.1419  0.0360
 3878SOL    HW315285   1.262   5.347   5.656  1.5217  0.3642  1.1317
 3878SOL    MW415286   1.216   5.290   5.703  0.3905  0.3796  0.1070
 3879SOL     OW15287   1.991   4.822   0.035  0.3673 -0.1633  0.7465
 3879SOL    HW215288   1.928   4.752   0.054  0.1370 -0.1753 -0.0338
 3879SOL    HW315289   2.046   4.787  -0.034 -0.8017  1.0083 -0.8682
 3879SOL    MW415290   1.990   4.808   0.028  0.1827 -0.0103  0.4305
 3880SOL     OW15291   3.847   1.947   2.485  0.4638 -0.0713  0.7045
 3880SOL    HW215292   3.833   1.886   2.413  0.9738 -0.6939  1.1179
 3880SOL    HW315293   3.922   2.000   2.457 -0.5119  0.9699 -0.0289
 3880SOL    MW415294   3.855   1.946   2.472  0.4024 -0.0160  0.6622
 3881SOL     OW15295   0.653   0.631   0.422  0.5732 -0.0133 -0.4674
 3881SOL    HW215296   0.686   0.573   0.353  1.1577 -1.5841  1.0743
 3881SOL    HW315297   0.578   0.585   0.459  1.3444 -0.0510  1.1208
 3881SOL    MW415298   0.647   0.617   0.418  0.7521 -0.2255 -0.0544
 3882SOL     OW15299   1.174   0.253   4.374  0.1013  0.5984  0.3191
 3882SOL    HW215300   1.254   0.293   4.339 -0.3785  0.9017 -0.4403
 3882SOL    HW315301   1.182   0.161   4.350  0.9185  0.3276  1.5401
 3882SOL    MW415302   1.186   0.246   4.366  0.1458  0.6027  0.3800
 3883SOL     OW15303   6.112   2.586   3.951  0.3531 -0.1660 -0.3560
 3883SOL    HW215304   6.039   2.528   3.971  1.6870 -1.3734  1.3136
 3883SOL    HW315305   6.113   2.592   3.856 -0.4688 -2.0705 -0.5218
 3883SOL    MW415306   6.103   2.579   3.941  0.4207 -0.5766 -0.1576
 3884SOL     OW15307   2.030   0.222   3.139  0.0445  0.3255 -0.7295
 3884SOL    HW215308   1.986   0.220   3.225 -0.5662  0.7650 -1.0284
 3884SOL    HW315309   1.959   0.215   3.076  0.4267  0.8512 -1.2204
 3884SOL    MW415310   2.015   0.221   3.142  0.0144  0.4529 -0.8337
 3885SOL     OW15311   5.163   1.599   0.859 -0.0721  0.1348 -0.9786
 3885SOL    HW215312   5.079   1.570   0.895  1.0953 -0.1606  1.7342
 3885SOL    HW315313   5.200   1.520   0.818  0.3875 -0.6887  0.9411
 3885SOL    MW415314   5.157   1.585   0.858  0.1425 -0.0128 -0.3674
 3886SOL     OW15315   3.285   4.353   0.658  0.3006  0.1129  0.7023
 3886SOL    HW215316   3.359   4.378   0.714  1.2935  0.6713 -0.7825
 3886SOL    HW315317   3.324   4.297   0.590 -0.6357  0.4318 -0.1272
 3886SOL    MW415318   3.300   4.349   0.656  0.3081  0.2286  0.3970
 3887SOL     OW15319   0.581   3.524   5.321 -0.7274  0.2962  0.2370
 3887SOL    HW215320   0.569   3.549   5.230  0.1441  1.5679  0.4384
 3887SOL    HW315321   0.547   3.435   5.327  1.0017 -0.5570 -1.7751
 3887SOL    MW415322   0.575   3.516   5.310 -0.3843  0.3514 -0.0019
 3888SOL     OW15323   2.450   2.755   2.825 -0.2412 -0.3964 -0.0446
 3888SOL    HW215324   2.434   2.763   2.731  0.6839 -0.6809 -0.2435
 3888SOL    HW315325   2.521   2.692   2.831 -0.5896 -0.7050  0.8798
 3888SOL    MW415326   2.458   2.748   2.813 -0.1651 -0.4747  0.0511
 3889SOL     OW15327   5.917   2.573   5.918 -0.4209 -0.8026  0.1426
 3889SOL    HW215328   5.939   2.560   6.010  0.3148 -2.7459 -0.2566
 3889SOL    HW315329   5.822   2.587   5.917 -0.2090  0.9773  1.3152
 3889SOL    MW415330   5.907   2.573   5.930 -0.2959 -0.8242  0.2447
 3890SOL     OW15331   5.474   6.167   3.797 -0.2439 -0.6784 -0.1138
 3890SOL    HW215332   5.454   6.173   3.703  1.2055 -0.0742 -0.4164
 3890SOL    HW315333   5.569   6.155   3.800  0.4978  3.6323  1.3062
 3890SOL    MW415334   5.484   6.166   3.785  0.0452 -0.0299  0.0336
 3891SOL     OW15335   2.886   2.899   2.780  0.5002 -0.1083 -0.1828
 3891SOL    HW215336   2.872   2.965   2.847  0.4594 -0.5070  0.2085
 3891SOL    HW315337   2.833   2.927   2.706  0.3752  0.2205  0.0306
 3891SOL    MW415338   2.877   2.911   2.779  0.4783 -0.1175 -0.1030
 3892SOL     OW15339   1.751   2.821   4.276 -0.6147 -0.5459  0.5369
 3892SOL    HW215340   1.789   2.742   4.238  1.6506 -0.3130  2.1247
 3892SOL    HW315341   1.707   2.791   4.355 -0.6442 -0.3483  0.5964
 3892SOL    MW415342   1.750   2.807   4.281 -0.3197 -0.4891  0.7542
 3893SOL     OW15343   1.152   6.177   0.049  0.4989  0.4493 -0.1817
 3893SOL    HW215344   1.216   6.246   0.029  1.4825 -0.2536  0.4280
 3893SOL    HW315345   1.183   6.101  -0.001  0.4989 -0.0782  0.6041
 3893SOL    MW415346   1.165   6.176   0.040  0.6287  0.2870  0.0025
 3894SOL     OW15347   2.964   0.857   3.391 -0.0041 -0.0814  0.0824
 3894SOL    HW215348   3.040   0.898   3.348  0.9991 -1.6064  0.3171
 3894SOL    HW315349   2.914   0.818   3.319 -0.4060  0.6497 -0.0421
 3894SOL    MW415350   2.968   0.857   3.375  0.0752 -0.1861  0.0970
 3895SOL     OW15351   4.023   4.591   4.758  0.3567  0.4800  0.1694
 3895SOL    HW215352   4.073   4.547   4.689  0.2003  0.7456 -0.1171
 3895SOL    HW315353   4.043   4.683   4.747  0.3360  0.5223  0.4859
 3895SOL    MW415354   4.032   4.597   4.747  0.3334  0.5206  0.1734
 3896SOL     OW15355   5.256   1.713   3.283  0.0675 -0.7262 -0.4252
 3896SOL    HW215356   5.224   1.803   3.275  3.1880  0.3924 -2.0912
 3896SOL    HW315357   5.196   1.661   3.228 -1.1349  0.5092 -0.3227
 3896SOL    MW415358   5.244   1.718   3.275  0.3205 -0.4156 -0.6315
 3897SOL     OW15359   3.097   1.412   5.241 -0.7395 -0.0108  0.6727
 3897SOL    HW215360   3.188   1.423   5.268 -0.7610 -0.0926  0.7794
 3897SOL    HW315361   3.091   1.320   5.214 -0.5297  0.2618 -0.3304
 3897SOL    MW415362   3.108   1.401   5.241 -0.7147  0.0144  0.5544
 3898SOL     OW15363   2.173   0.622   4.067 -0.9238 -0.1058  0.3469
 3898SOL    HW215364   2.207   0.672   4.141  0.3476 -1.7312  0.9125
 3898SOL    HW315365   2.169   0.532   4.098 -2.1841 -0.5402 -0.9714
 3898SOL    MW415366   2.177   0.617   4.081 -0.9223 -0.3775  0.2476
 3899SOL     OW15367   5.109   0.950   0.798  0.1357 -0.2270 -0.2675
 3899SOL    HW215368   5.100   0.978   0.707 -0.2829  1.0101  0.1288
 3899SOL    HW315369   5.160   1.020   0.839 -0.0664 -0.5440  0.5499
 3899SOL    MW415370   5.115   0.963   0.791  0.0538 -0.1056 -0.1074
 3900SOL     OW15371   0.949   3.961   3.813  0.2264  0.0387 -0.3622
 3900SOL    HW215372   0.994   3.906   3.877  0.3935 -1.0972 -1.4152
 3900SOL    HW315373   0.856   3.947   3.830  0.2685  0.3438  0.1261
 3900SOL    MW415374   0.943   3.952   3.823  0.2540 -0.0709 -0.4367
 3901SOL     OW15375   2.744   5.720   2.088  0.0957 -0.3267 -0.0994
 3901SOL    HW215376   2.820   5.777   2.096  0.2914 -0.6971  0.7156
 3901SOL    HW315377   2.670   5.774   2.115  0.1424 -0.1532 -0.3128
 3901SOL    MW415378   2.744   5.735   2.093  0.1277 -0.3527 -0.0201
 3902SOL     OW15379   5.350   3.648   6.300  0.2724 -0.1367  0.0248
 3902SOL    HW215380   5.398   3.703   6.237  0.1641  0.5532  0.5286
 3902SOL    HW315381   5.342   3.703   6.378 -0.3799 -0.6522  0.3312
 3902SOL    MW415382   5.355   3.663   6.302  0.1721 -0.1137  0.1317
 3903SOL     OW15383   0.612   0.599   5.123  0.7563 -0.0354  0.1743
 3903SOL    HW215384   0.535   0.655   5.113  0.6906  0.1695  1.5600
 3903SOL    HW315385   0.576   0.516   5.153  1.0628  0.0777  0.8748
 3903SOL    MW415386   0.597   0.596   5.126  0.7881  0.0066  0.4495
 3904SOL     OW15387   3.057   5.870   0.407 -0.0575 -0.1534 -0.1050
 3904SOL    HW215388   3.014   5.887   0.323  0.3789  1.3129 -0.0772
 3904SOL    HW315389   3.137   5.923   0.403  0.6855 -1.1730  0.6775
 3904SOL    MW415390   3.062   5.879   0.395  0.0981 -0.0945  0.0019
 3905SOL     OW15391   3.285   3.751   0.251  0.2847 -0.4996  0.4487
 3905SOL    HW215392   3.356   3.722   0.309 -0.7363 -0.7412  1.6173
 3905SOL    HW315393   3.250   3.671   0.214  0.3013 -0.4148  0.2472
 3905SOL    MW415394   3.290   3.737   0.254  0.1522 -0.5203  0.5763
 3906SOL     OW15395   1.850   3.914   1.077 -0.1140 -0.7920 -0.2260
 3906SOL    HW215396   1.756   3.896   1.083 -0.5581  0.7949 -1.6745
 3906SOL    HW315397   1.877   3.932   1.167 -1.7962  1.3341 -0.0638
 3906SOL    MW415398   1.841   3.914   1.089 -0.3946 -0.3021 -0.3957
 3907SOL     OW15399   2.378   2.693   0.253 -0.3223 -0.1375 -0.1898
 3907SOL    HW215400   2.418   2.655   0.331 -2.0237 -1.3820  0.1280
 3907SOL    HW315401   2.451   2.732   0.205  0.7362  1.0816  2.2086
 3907SOL    MW415402   2.393   2.693   0.257 -0.4071 -0.1408  0.1686
 3908SOL     OW15403   0.015   1.871   4.562  0.2461 -0.5296 -0.5650
 3908SOL    HW215404   0.100   1.847   4.525  0.4340  0.4320 -0.7713
 3908SOL    HW315405   0.012   1.825   4.646  0.8040 -0.8681 -0.7194
 3908SOL    MW415406   0.026   1.862   4.568  0.3445 -0.4474 -0.6126
 3909SOL     OW15407   5.658   4.979   5.430 -0.2452  0.3273 -0.1820
 3909SOL    HW215408   5.736   4.924   5.422  0.7819  1.6488  0.3928
 3909SOL    HW315409   5.633   4.998   5.339 -0.8552 -1.3613 -0.4014
 3909SOL    MW415410   5.665   4.974   5.417 -0.1902  0.2789 -0.1351
 3910SOL     OW15411   1.775   4.242   4.095  0.0456 -0.5507 -0.2668
 3910SOL    HW215412   1.844   4.295   4.134  0.1656 -1.2767  0.5448
 3910SOL    HW315413   1.699   4.257   4.152 -0.9985  1.5286 -2.0686
 3910SOL    MW415414   1.774   4.251   4.108 -0.0763 -0.3721 -0.3974
 3911SOL     OW15415   3.887   4.497   2.088  0.1580  0.3198  0.2624
 3911SOL    HW215416   3.930   4.416   2.059 -0.9333  0.2887 -1.4057
 3911SOL    HW315417   3.957   4.561   2.097  0.6687  0.0706 -1.6732
 3911SOL    MW415418   3.902   4.495   2.086  0.0814  0.2828 -0.2131
 3912SOL     OW15419   2.629   1.055   0.790 -0.3036 -0.1081  0.4489
 3912SOL    HW215420   2.612   1.112   0.715  0.3676 -0.0644  0.3220
 3912SOL    HW315421   2.705   1.003   0.764  0.4623  0.4799  1.3918
 3912SOL    MW415422   2.637   1.056   0.777 -0.1140 -0.0248  0.5566
 3913SOL     OW15423   1.108   0.119   5.454 -0.4070 -0.7139 -0.0317
 3913SOL    HW215424   1.100   0.076   5.369 -1.8942 -1.1048  0.2913
 3913SOL    HW315425   1.192   0.087   5.488 -0.3622 -1.4881 -0.8194
 3913SOL    MW415426   1.118   0.109   5.447 -0.5973 -0.8676 -0.0930
 3914SOL     OW15427   5.786   2.154   4.746  0.2960 -0.3433  0.3455
 3914SOL    HW215428   5.782   2.228   4.685  1.2406 -0.6732 -0.1375
 3914SOL    HW315429   5.872   2.116   4.731 -0.1724 -1.5399  0.5937
 3914SOL    MW415430   5.797   2.159   4.736  0.3588 -0.5447  0.3145
 3915SOL     OW15431   1.612   4.706   4.032 -0.1103 -0.1129  0.1876
 3915SOL    HW215432   1.528   4.674   3.998  0.7861 -2.4660  0.0246
 3915SOL    HW315433   1.641   4.771   3.968 -1.6807  0.5928  0.1457
 3915SOL    MW415434   1.605   4.711   4.019 -0.1993 -0.3303  0.1606
 3916SOL     OW15435   4.846   3.477   2.521  0.1870 -0.7126  0.1228
 3916SOL    HW215436   4.875   3.386   2.526  2.8578  0.0467  0.1333
 3916SOL    HW315437   4.913   3.520   2.468  0.1330  1.6453  1.8134
 3916SOL    MW415438   4.858   3.471   2.515  0.5323 -0.3013  0.3472
 3917SOL     OW15439   5.906   5.636   5.973 -0.0281  0.5231 -0.3843
 3917SOL    HW215440   5.858   5.554   5.981  0.3676  0.1143 -1.7566
 3917SOL    HW315441   5.903   5.676   6.060 -0.5135 -0.7879  0.2166
 3917SOL    MW415442   5.900   5.631   5.985 -0.0399  0.2962 -0.4861
 3918SOL     OW15443   0.948   4.632   3.384  0.1643 -0.3388 -0.1198
 3918SOL    HW215444   0.855   4.652   3.386  0.3544  0.5838  1.3989
 3918SOL    HW315445   0.954   4.544   3.421 -0.0318  0.0198  0.7848
 3918SOL    MW415446   0.936   4.623   3.389  0.1635 -0.1698  0.1999
 3919SOL     OW15447   3.820   3.283   1.197  0.1632  0.0483  0.4351
 3919SOL    HW215448   3.783   3.360   1.241  2.5099  1.3293  0.3446
 3919SOL    HW315449   3.863   3.319   1.119  1.2068 -1.3593  0.3263
 3919SOL    MW415450   3.821   3.298   1.192  0.6105  0.0316  0.4088
 3920SOL     OW15451   1.064   0.574   0.433  0.2981 -0.2077  0.0803
 3920SOL    HW215452   1.064   0.616   0.519 -0.0949  0.7263 -0.3663
 3920SOL    HW315453   1.126   0.624   0.381 -0.9620  0.5293 -0.7811
 3920SOL    MW415454   1.072   0.586   0.437  0.0800  0.0128 -0.0923
 3921SOL     OW15455   4.201   6.122   3.210 -0.1193  0.7715 -0.1015
 3921SOL    HW215456   4.263   6.130   3.282 -0.3787  2.9572 -0.0737
 3921SOL    HW315457   4.250   6.075   3.142  1.6060  2.3719 -0.0551
 3921SOL    MW415458   4.215   6.117   3.210  0.0741  1.2710 -0.0917
 3922SOL     OW15459   3.612   5.022   4.720  0.3236 -0.2960 -0.0532
 3922SOL    HW215460   3.664   4.965   4.664  0.3035 -1.8584  1.4407
 3922SOL    HW315461   3.534   4.971   4.741  0.0669  0.4688  0.9222
 3922SOL    MW415462   3.609   5.008   4.716  0.2871 -0.4012  0.2726
 3923SOL     OW15463   5.752   4.878   0.590 -0.2029 -0.4823 -0.1878
 3923SOL    HW215464   5.721   4.958   0.633  1.6297 -0.2762  0.8784
 3923SOL    HW315465   5.847   4.882   0.599 -0.0546 -2.7473 -0.1735
 3923SOL    MW415466   5.761   4.889   0.597  0.0584 -0.7539 -0.0453
 3924SOL     OW15467   0.172   5.834   1.817 -0.0203  0.0980 -0.1468
 3924SOL    HW215468   0.152   5.891   1.744  0.4093 -0.8010 -1.0012
 3924SOL    HW315469   0.089   5.791   1.838 -0.3066  0.9115  0.3931
 3924SOL    MW415470   0.158   5.836   1.810 -0.0014  0.0867 -0.1883
 3925SOL     OW15471   1.572   3.474   2.062 -0.9115 -0.4260  0.1450
 3925SOL    HW215472   1.521   3.509   2.135  0.7143  0.3180  0.9700
 3925SOL    HW315473   1.533   3.388   2.045 -2.2180 -0.0201  0.9432
 3925SOL    MW415474   1.560   3.467   2.070 -0.8693 -0.2743  0.3592
 3926SOL     OW15475   0.653   3.418   5.667 -0.3425  0.1325  0.4007
 3926SOL    HW215476   0.695   3.445   5.748 -0.4466 -0.5031  0.6792
 3926SOL    HW315477   0.570   3.465   5.666 -0.1539  0.4664  0.4509
 3926SOL    MW415478   0.647   3.428   5.677 -0.3314  0.0927  0.4441
 3927SOL     OW15479   0.005   4.961   5.519 -0.0642  0.2190 -0.3171
 3927SOL    HW215480   0.002   5.040   5.573 -1.5579 -1.5747  2.4359
 3927SOL    HW315481   0.052   4.897   5.572  1.9257 -0.6252 -2.8488
 3927SOL    MW415482   0.011   4.963   5.533  0.0012 -0.1291 -0.2879
 3928SOL     OW15483   5.916   6.084   5.989  0.1028 -0.1575  0.0760
 3928SOL    HW215484   5.910   6.005   5.935 -0.9606  0.1846 -0.3281
 3928SOL    HW315485   5.843   6.138   5.960 -0.1620  0.2708  1.4854
 3928SOL    MW415486   5.906   6.081   5.978 -0.0724 -0.0558  0.2086
 3929SOL     OW15487   0.972   5.934   2.257  0.0911  0.2175  0.3522
 3929SOL    HW215488   0.879   5.956   2.267 -0.2166 -0.5460 -0.6543
 3929SOL    HW315489   1.018   6.017   2.273 -0.7938  0.7271  0.3424
 3929SOL    MW415490   0.966   5.948   2.260 -0.0663  0.1840  0.2181
 3930SOL     OW15491   1.922   0.681   6.267 -0.5638 -0.1621  0.2349
 3930SOL    HW215492   1.961   0.767   6.278  0.7599 -0.7905  0.6179
 3930SOL    HW315493   1.865   0.671   6.343 -0.9625  0.4908  0.0273
 3930SOL    MW415494   1.920   0.691   6.278 -0.4418 -0.1589  0.2581
 3931SOL     OW15495   4.651   4.426   2.110  0.3031 -0.1667  0.4485
 3931SOL    HW215496   4.702   4.438   2.189 -0.7979  0.0349  1.1471
 3931SOL    HW315497   4.710   4.451   2.039  0.6207  1.8160  1.3364
 3931SOL    MW415498   4.665   4.431   2.111  0.1997  0.1215  0.6578
 3932SOL     OW15499   1.241   5.847   3.169  0.0452  0.0431  0.6720
 3932SOL    HW215500   1.197   5.820   3.088 -0.0565 -1.7104  1.2700
 3932SOL    HW315501   1.170   5.856   3.232  0.1215  1.4337  0.5873
 3932SOL    MW415502   1.226   5.844   3.167  0.0418 -0.0048  0.7397
 3933SOL     OW15503   0.716   0.142   0.152 -0.3396  0.4514 -0.6668
 3933SOL    HW215504   0.720   0.059   0.104 -2.9600  0.1038 -0.3941
 3933SOL    HW315505   0.790   0.138   0.213 -0.7777 -1.9775 -0.2217
 3933SOL    MW415506   0.727   0.131   0.154 -0.7431  0.0851 -0.5721
 3934SOL     OW15507   3.952   5.939   6.212  0.3639 -0.0993  0.5539
 3934SOL    HW215508   3.880   5.944   6.275  0.1403  0.0403  0.2871
 3934SOL    HW315509   3.952   5.848   6.183  0.9244 -0.3411  1.2889
 3934SOL    MW415510   3.942   5.928   6.217  0.4084 -0.1128  0.6157
 3935SOL     OW15511   0.731   2.847   3.483 -0.2718 -0.3048 -0.4974
 3935SOL    HW215512   0.726   2.908   3.409 -1.1300  1.2992  0.8316
 3935SOL    HW315513   0.740   2.903   3.560  3.3235 -1.9717  0.5218
 3935SOL    MW415514   0.732   2.862   3.483  0.0893 -0.3131 -0.1876
 3936SOL     OW15515   4.725   1.379   4.480  0.3895 -0.6620 -0.5386
 3936SOL    HW215516   4.803   1.342   4.438  0.9152 -0.6973  0.4345
 3936SOL    HW315517   4.742   1.370   4.574 -0.6416 -0.3523 -0.3095
 3936SOL    MW415518   4.738   1.373   4.487  0.3228 -0.6258 -0.3800
 3937SOL     OW15519   2.260   3.648   0.658  0.2680  0.1973 -0.1961
 3937SOL    HW215520   2.218   3.568   0.628  0.9438 -0.2640  0.0620
 3937SOL    HW315521   2.351   3.624   0.672  0.2832  0.7662  0.7922
 3937SOL    MW415522   2.266   3.634   0.656  0.3591  0.2115 -0.0316
 3938SOL     OW15523   6.277   2.290   0.095 -0.2214 -0.4371  0.0065
 3938SOL    HW215524   6.326   2.223   0.143 -0.0137  0.1986  0.6972
 3938SOL    HW315525   6.323   2.297   0.011  0.5747 -0.2068  0.4509
 3938SOL    MW415526   6.290   2.282   0.090 -0.0889 -0.3228  0.1563
 3939SOL     OW15527   5.992   2.364   0.969  0.1410 -0.2042  0.1983
 3939SOL    HW215528   6.003   2.429   0.899  0.4717 -0.9951 -0.4998
 3939SOL    HW315529   6.075   2.317   0.971 -0.6272 -1.6612 -0.4100
 3939SOL    MW415530   6.004   2.366   0.960  0.0833 -0.5008  0.0259
 3940SOL     OW15531   2.429   2.933   4.032  0.6919  0.0188 -0.5149
 3940SOL    HW215532   2.472   2.848   4.032 -0.1249 -0.4166 -1.3265
 3940SOL    HW315533   2.446   2.969   4.119  0.6594 -1.1802 -0.0041
 3940SOL    MW415534   2.437   2.927   4.044  0.5799 -0.1969 -0.5546
 3941SOL     OW15535   5.210   2.117   0.664 -0.4378  0.4513 -0.2602
 3941SOL    HW215536   5.285   2.108   0.606  0.1010  1.6677  0.2268
 3941SOL    HW315537   5.179   2.027   0.677 -0.1422  0.0950 -1.8449
 3941SOL    MW415538   5.216   2.104   0.658 -0.3277  0.5648 -0.4050
 3942SOL     OW15539   6.217   1.452   3.661 -0.2083 -0.5218  0.1711
 3942SOL    HW215540   6.140   1.454   3.604 -0.6450  0.4945  0.7796
 3942SOL    HW315541   6.288   1.485   3.607  0.2231 -2.9849 -0.9330
 3942SOL    MW415542   6.216   1.457   3.646 -0.2090 -0.7127  0.1057
 3943SOL     OW15543   1.187   3.541   5.667  0.0991  0.4085 -0.2094
 3943SOL    HW215544   1.214   3.474   5.730  1.8975 -0.3118 -1.6685
 3943SOL    HW315545   1.093   3.550   5.683 -0.1818 -2.2601  0.2705
 3943SOL    MW415546   1.178   3.533   5.678  0.2993 -0.0386 -0.3386
 3944SOL     OW15547   0.846   5.608   0.575 -0.3362  0.0467 -0.3861
 3944SOL    HW215548   0.871   5.700   0.564  0.0686 -0.0836 -0.5602
 3944SOL    HW315549   0.811   5.583   0.489 -3.5757  0.9661  0.4975
 3944SOL    MW415550   0.845   5.617   0.562 -0.7102  0.1508 -0.2925
 3945SOL     OW15551   2.380   0.380   1.738 -0.6095  0.6872 -0.1592
 3945SOL    HW215552   2.369   0.314   1.807  1.8150  0.2809 -0.0686
 3945SOL    HW315553   2.437   0.337   1.674 -0.8774  1.9075 -1.2370
 3945SOL    MW415554   2.386   0.365   1.739 -0.3250  0.7946 -0.2894
 3946SOL     OW15555   4.344   1.630   2.025  0.2309  0.9182  0.4460
 3946SOL    HW215556   4.379   1.705   2.073  0.0848 -0.0061  2.0391
 3946SOL    HW315557   4.361   1.554   2.081 -2.2472  0.1197  0.2473
 3946SOL    MW415558   4.351   1.630   2.039 -0.1153  0.6909  0.6299
 3947SOL     OW15559   4.049   3.095   0.906  0.1042 -0.4343  0.4574
 3947SOL    HW215560   4.125   3.123   0.855 -1.0777 -1.4840 -2.0862
 3947SOL    HW315561   3.987   3.167   0.897 -0.3288 -0.8710 -0.1206
 3947SOL    MW415562   4.051   3.108   0.898 -0.1089 -0.6304  0.0455
 3948SOL     OW15563   6.123   3.628   4.362  0.3020 -0.0868 -0.0546
 3948SOL    HW215564   6.032   3.654   4.345  0.7934  1.8562  0.0409
 3948SOL    HW315565   6.130   3.624   4.457  0.4676  0.3527 -0.0484
 3948SOL    MW415566   6.112   3.631   4.372  0.3887  0.2275 -0.0412
 3949SOL     OW15567   5.033   3.200   2.292  0.2434 -0.2168  0.0732
 3949SOL    HW215568   5.008   3.261   2.222 -0.8889 -0.7016  0.0298
 3949SOL    HW315569   5.029   3.114   2.251 -1.5366 -0.6092  0.9889
 3949SOL    MW415570   5.029   3.197   2.277 -0.1408 -0.3325  0.1883
 3950SOL     OW15571   4.780   1.677   2.505  0.3526  0.4928  0.2201
 3950SOL    HW215572   4.706   1.731   2.534  1.2639  0.5755  2.5671
 3950SOL    HW315573   4.855   1.737   2.506  1.1780 -0.4966  1.8640
 3950SOL    MW415574   4.780   1.692   2.509  0.5818  0.3732  0.7466
 3951SOL     OW15575   5.678   3.080   5.462 -0.6480 -0.1288 -0.1639
 3951SOL    HW215576   5.740   3.067   5.389  1.1845 -0.4327  1.3553
 3951SOL    HW315577   5.649   3.171   5.452 -0.9687 -0.3610 -1.6413
 3951SOL    MW415578   5.683   3.091   5.451 -0.4485 -0.1996 -0.1584
 3952SOL     OW15579   4.247   3.528   5.674  0.1720  0.5728 -0.0780
 3952SOL    HW215580   4.280   3.585   5.743  1.8228 -0.0434 -0.3000
 3952SOL    HW315581   4.325   3.482   5.642 -0.4058  1.3513 -2.8462
 3952SOL    MW415582   4.262   3.529   5.679  0.3136  0.5942 -0.4725
 3953SOL     OW15583   0.891   5.776   1.825 -0.0337 -0.3675 -0.6174
 3953SOL    HW215584   0.861   5.812   1.742 -0.9061 -0.5072 -0.3816
 3953SOL    HW315585   0.965   5.831   1.851  0.1940 -0.2742 -1.4369
 3953SOL    MW415586   0.897   5.788   1.818 -0.1188 -0.3736 -0.6944
 3954SOL     OW15587   5.707   5.017   3.020  0.3818 -0.3263 -0.0302
 3954SOL    HW215588   5.741   4.982   2.938  0.9420 -0.6280  0.3289
 3954SOL    HW315589   5.703   5.112   3.006  0.4261 -0.3796 -0.4206
 3954SOL    MW415590   5.711   5.025   3.007  0.4615 -0.3731 -0.0343
 3955SOL     OW15591   5.869   5.021   3.271 -0.0253 -0.7174 -0.0532
 3955SOL    HW215592   5.821   5.007   3.189  1.3049 -2.0110 -0.6435
 3955SOL    HW315593   5.842   5.108   3.299  0.4226  0.3176 -2.5366
 3955SOL    MW415594   5.859   5.031   3.264  0.2093 -0.7515 -0.4587
 3956SOL     OW15595   2.914   3.686   4.005 -0.3026 -0.2964  0.0252
 3956SOL    HW215596   2.885   3.683   4.096 -1.4888  1.2516 -0.2607
 3956SOL    HW315597   2.871   3.611   3.964 -0.4105 -0.5372  0.5656
 3956SOL    MW415598   2.904   3.675   4.012 -0.4734 -0.1240  0.0588
 3957SOL     OW15599   5.930   2.817   1.251 -0.1542 -0.4221 -0.5883
 3957SOL    HW215600   6.007   2.867   1.280 -0.7435  0.2288 -0.0869
 3957SOL    HW315601   5.961   2.765   1.177  0.3365  1.1601 -1.5329
 3957SOL    MW415602   5.945   2.817   1.245 -0.1672 -0.1275 -0.6468
 3958SOL     OW15603   1.456   2.538   0.740 -0.1013 -0.4819 -0.4090
 3958SOL    HW215604   1.484   2.510   0.827  0.4395 -2.7462 -1.2439
 3958SOL    HW315605   1.413   2.460   0.703 -0.2673  0.4135 -2.1891
 3958SOL    MW415606   1.454   2.524   0.747 -0.0518 -0.6625 -0.7540
 3959SOL     OW15607   3.563   5.817   3.872  0.8220 -0.3918  0.0187
 3959SOL    HW215608   3.599   5.778   3.792  0.5537  0.9120 -0.7642
 3959SOL    HW315609   3.501   5.883   3.841 -1.3693 -1.7184  1.3304
 3959SOL    MW415610   3.560   5.821   3.857  0.4975 -0.3948  0.0885
 3960SOL     OW15611   5.001   1.420   6.230 -0.0599  0.1290  0.2843
 3960SOL    HW215612   5.082   1.438   6.277 -0.0703  0.2896  0.2435
 3960SOL    HW315613   4.932   1.429   6.296 -0.0851  0.4737  0.2145
 3960SOL    MW415614   5.003   1.424   6.245 -0.0646  0.1956  0.2697
 3961SOL     OW15615   1.658   2.017   3.140 -0.2376  0.1187 -0.3930
 3961SOL    HW215616   1.732   1.962   3.165 -0.4328  0.4008  0.9028
 3961SOL    HW315617   1.581   1.972   3.176 -0.6443  0.0729 -1.3021
 3961SOL    MW415618   1.657   2.004   3.148 -0.3170  0.1499 -0.3419
 3962SOL     OW15619   6.374   0.182   2.585  0.0160  0.6179  0.0448
 3962SOL    HW215620   6.338   0.147   2.504  0.1265 -1.5424  0.8795
 3962SOL    HW315621   6.331   0.267   2.595 -1.0004  0.3402 -1.5598
 3962SOL    MW415622   6.364   0.189   2.575 -0.1035  0.2962 -0.0567
 3963SOL     OW15623   1.928   5.960   2.469  0.3024  0.2656  0.7443
 3963SOL    HW215624   1.966   5.892   2.414  0.4403  1.2207 -0.3851
 3963SOL    HW315625   1.859   5.915   2.518 -0.5758 -0.4398 -1.0127
 3963SOL    MW415626   1.924   5.945   2.468  0.2047  0.2985  0.3635
 3964SOL     OW15627   4.012   4.241   4.798  0.1035  0.0106 -0.0074
 3964SOL    HW215628   4.106   4.260   4.791 -0.0327  0.9812  0.6214
 3964SOL    HW315629   3.986   4.279   4.882 -1.1058  0.8060 -0.7157
 3964SOL    MW415630   4.021   4.248   4.808 -0.0740  0.2436 -0.0179
 3965SOL     OW15631   2.207   6.049   1.780  0.0801 -0.0276  0.0346
 3965SOL    HW215632   2.269   6.122   1.775 -0.7937  0.8152  1.0151
 3965SOL    HW315633   2.121   6.091   1.790 -0.6541 -1.1718 -1.0675
 3965SOL    MW415634   2.204   6.064   1.780 -0.1320 -0.0674  0.0186
 3966SOL     OW15635   3.980   2.758   3.116 -0.4047 -0.5592  0.1079
 3966SOL    HW215636   4.011   2.731   3.030  0.6896 -0.9621  0.6198
 3966SOL    HW315637   4.053   2.808   3.154 -0.9887 -0.1117  0.6833
 3966SOL    MW415638   3.994   2.761   3.110 -0.3374 -0.5533  0.2513
 3967SOL     OW15639   4.861   5.181   0.367 -0.3630  0.1160  0.4294
 3967SOL    HW215640   4.947   5.209   0.337 -0.5468  1.0393  0.7238
 3967SOL    HW315641   4.804   5.255   0.349 -0.8031  0.0685  1.5569
 3967SOL    MW415642   4.865   5.194   0.361 -0.4453  0.2315  0.6170
 3968SOL     OW15643   3.005   5.591   4.787  0.3555 -0.4527 -0.2088
 3968SOL    HW215644   3.056   5.591   4.868 -0.7824 -0.2916  0.5350
 3968SOL    HW315645   3.029   5.509   4.743  0.4334 -0.9105  0.6588
 3968SOL    MW415646   3.015   5.580   4.792  0.2157 -0.4918  0.0038
 3969SOL     OW15647   5.757   4.224   0.129  0.5874 -0.2721 -0.0774
 3969SOL    HW215648   5.802   4.307   0.114  2.7268 -1.2151  0.6526
 3969SOL    HW315649   5.783   4.169   0.055 -1.6828 -0.0325 -1.1390
 3969SOL    MW415650   5.767   4.227   0.117  0.5701 -0.3649 -0.1211
 3970SOL     OW15651   2.237   1.717   2.885  0.4623  0.4605 -0.0979
 3970SOL    HW215652   2.256   1.807   2.857 -1.2727  0.6125 -0.8998
 3970SOL    HW315653   2.246   1.665   2.805  0.8701 -0.0034  0.2402
 3970SOL    MW415654   2.241   1.722   2.871  0.2872  0.4193 -0.1591
 3971SOL     OW15655   1.539   6.404   1.880 -0.1246  0.2522 -0.3616
 3971SOL    HW215656   1.494   6.324   1.853 -1.2371  0.6514  0.2443
 3971SOL    HW315657   1.621   6.402   1.832  0.1125 -1.5113  0.0349
 3971SOL    MW415658   1.544   6.393   1.870 -0.2401  0.0722 -0.2293
 3972SOL     OW15659   1.570   5.594   6.154  0.2167 -0.0570  0.1774
 3972SOL    HW215660   1.538   5.506   6.137 -0.6507 -0.0958  1.7906
 3972SOL    HW315661   1.665   5.586   6.149  0.1565 -1.1347  0.4847
 3972SOL    MW415662   1.579   5.582   6.151  0.0943 -0.2043  0.4308
 3973SOL     OW15663   3.956   0.979   1.109  0.0035  0.3082  0.5011
 3973SOL    HW215664   3.930   1.019   1.192 -2.1030 -0.4301  0.2310
 3973SOL    HW315665   4.007   0.902   1.134  0.9565  1.0821  1.0479
 3973SOL    MW415666   3.960   0.974   1.123 -0.1487  0.3129  0.5376
 3974SOL     OW15667   4.219   4.706   2.816 -0.3916  0.4677  0.0546
 3974SOL    HW215668   4.144   4.693   2.758 -0.0161  0.4405 -0.4238
 3974SOL    HW315669   4.295   4.677   2.766 -0.1689 -0.5421  0.9303
 3974SOL    MW415670   4.219   4.701   2.802 -0.3127  0.3309  0.1070
 3975SOL     OW15671   2.051   4.622   3.130  0.6609  0.3473  0.8321
 3975SOL    HW215672   2.115   4.684   3.165  0.9229  0.8043 -0.3973
 3975SOL    HW315673   1.988   4.677   3.083  0.0488 -0.2001  1.0032
 3975SOL    MW415674   2.051   4.637   3.128  0.6147  0.3354  0.6925
 3976SOL     OW15675   4.666   2.754   3.103  0.2332 -0.0011  0.2013
 3976SOL    HW215676   4.712   2.674   3.131  0.7956  1.1359  2.8113
 3976SOL    HW315677   4.597   2.766   3.167 -0.4772  1.0970 -0.7333
 3976SOL    MW415678   4.663   2.745   3.115  0.2137  0.2938  0.4223
 3977SOL     OW15679   2.471   0.112   5.180  0.2833 -0.4879 -0.3379
 3977SOL    HW215680   2.514   0.179   5.235 -1.5060  0.0582  0.4765
 3977SOL    HW315681   2.500   0.132   5.091  1.7986 -0.2403  0.1789
 3977SOL    MW415682   2.481   0.124   5.176  0.2471 -0.3832 -0.1622
 3978SOL     OW15683   4.721   6.252   0.562 -0.3464 -0.0422  0.8339
 3978SOL    HW215684   4.679   6.172   0.531  0.4916 -0.7660  1.4950
 3978SOL    HW315685   4.650   6.304   0.598 -1.3131  0.7312 -1.9953
 3978SOL    MW415686   4.706   6.248   0.563 -0.3634 -0.0356  0.5479
 3979SOL     OW15687   4.680   1.468   0.945  0.0983  0.1691  0.1837
 3979SOL    HW215688   4.652   1.390   0.992 -1.6659  0.1552 -0.7906
 3979SOL    HW315689   4.603   1.525   0.946  0.5403  0.8329 -1.2731
 3979SOL    MW415690   4.666   1.466   0.951 -0.0762  0.2548 -0.1371
 3980SOL     OW15691   4.601   5.446   1.852 -0.5775 -0.1467 -0.2952
 3980SOL    HW215692   4.585   5.463   1.945 -0.0895 -0.8916 -0.0645
 3980SOL    HW315693   4.677   5.500   1.830 -0.4394 -0.2827 -0.1547
 3980SOL    MW415694   4.609   5.455   1.862 -0.4949 -0.2629 -0.2462
 3981SOL     OW15695   2.539   5.814   3.782 -0.3177  0.4847 -0.3075
 3981SOL    HW215696   2.558   5.775   3.868  1.1760  0.2903 -0.6819
 3981SOL    HW315697   2.456   5.776   3.756 -0.8609  0.6467  1.1066
 3981SOL    MW415698   2.531   5.804   3.790 -0.1923  0.4805 -0.1703
 3982SOL     OW15699   6.092   3.631   4.647 -0.8966  0.0235  0.4196
 3982SOL    HW215700   6.072   3.551   4.695 -1.3691  0.0327  0.2452
 3982SOL    HW315701   6.142   3.684   4.709 -1.7744  0.1651  1.0240
 3982SOL    MW415702   6.096   3.628   4.662 -1.0747  0.0434  0.4764
 3983SOL     OW15703   1.411   2.394   6.058  0.4076 -0.3555  0.1495
 3983SOL    HW215704   1.403   2.416   5.965  0.1653 -1.9414 -0.2294
 3983SOL    HW315705   1.500   2.358   6.067  0.6853  0.4415  0.6860
 3983SOL    MW415706   1.422   2.392   6.047  0.4123 -0.4596  0.1703
 3984SOL     OW15707   6.269   1.484   5.162 -0.2860  0.4227 -0.1616
 3984SOL    HW215708   6.344   1.474   5.221  1.5026 -0.2533 -2.4053
 3984SOL    HW315709   6.308   1.499   5.076 -2.7709  0.9692 -1.2775
 3984SOL    MW415710   6.284   1.485   5.159 -0.3779  0.4056 -0.6048
 3985SOL     OW15711   1.867   2.851   3.655  0.0954  0.2197 -0.0395
 3985SOL    HW215712   1.829   2.929   3.616 -1.3616  0.8283  2.3997
 3985SOL    HW315713   1.954   2.878   3.683  0.7302  0.0796 -1.7491
 3985SOL    MW415714   1.873   2.864   3.653 -0.0131  0.2815  0.0567
 3986SOL     OW15715   0.999   3.168   4.952 -0.4202 -0.2112  0.2587
 3986SOL    HW215716   1.053   3.235   4.993 -1.0026  0.0201  0.6539
 3986SOL    HW315717   1.007   3.092   5.011 -0.1860 -0.3178  0.0911
 3986SOL    MW415718   1.007   3.167   4.965 -0.4661 -0.1948  0.2888
 3987SOL     OW15719   4.280   0.979   2.643 -0.0773  0.4508  0.2822
 3987SOL    HW215720   4.373   0.993   2.629 -0.4917  3.3481 -0.1841
 3987SOL    HW315721   4.266   1.005   2.734 -0.3392 -0.9006  0.6607
 3987SOL    MW415722   4.290   0.984   2.653 -0.1666  0.6548  0.2706
 3988SOL     OW15723   3.202   4.377   5.099 -0.6693  0.1261 -0.0319
 3988SOL    HW215724   3.220   4.299   5.047  1.4908  0.6983 -0.2523
 3988SOL    HW315725   3.140   4.427   5.046  0.9007  0.3425 -1.7562
 3988SOL    MW415726   3.196   4.373   5.085 -0.1772  0.2301 -0.2885
 3989SOL     OW15727   1.072   3.194   5.801  0.0476  0.2325  0.5619
 3989SOL    HW215728   1.134   3.259   5.833 -0.4252 -0.8897  4.0978
 3989SOL    HW315729   1.121   3.112   5.800 -0.5320 -0.1167  0.3714
 3989SOL    MW415730   1.087   3.192   5.805 -0.0913  0.0383  1.0033
 3990SOL     OW15731   5.980   2.446   2.059  0.4094  0.1614  0.5404
 3990SOL    HW215732   5.909   2.403   2.106  0.6929  0.7859  1.5908
 3990SOL    HW315733   6.026   2.376   2.013 -0.4595 -0.3368  0.4286
 3990SOL    MW415734   5.977   2.431   2.059  0.3322  0.1781  0.6642
 3991SOL     OW15735   0.684   0.132   0.607 -0.0439  0.4178 -0.0118
 3991SOL    HW215736   0.647   0.087   0.531 -1.2150 -0.8729  1.2606
 3991SOL    HW315737   0.628   0.208   0.620 -1.3460 -0.6665  0.9541
 3991SOL    MW415738   0.672   0.136   0.598 -0.3702  0.1045  0.2835
 3992SOL     OW15739   5.869   3.551   5.362  0.4421  0.2419  0.2343
 3992SOL    HW215740   5.929   3.615   5.324 -0.8354  0.5187 -1.4698
 3992SOL    HW315741   5.807   3.533   5.291 -1.0204 -0.5970  1.6756
 3992SOL    MW415742   5.869   3.557   5.348  0.0806  0.1677  0.1996
 3993SOL     OW15743   5.757   1.455   2.670 -0.0903  0.2732  0.0689
 3993SOL    HW215744   5.668   1.491   2.675 -0.2904 -0.2160  0.0754
 3993SOL    HW315745   5.787   1.453   2.761  0.1456  0.9649  0.0136
 3993SOL    MW415746   5.749   1.459   2.682 -0.0856  0.2999  0.0625
 3994SOL     OW15747   2.865   3.654   4.306 -0.3176  0.0036 -0.9198
 3994SOL    HW215748   2.954   3.621   4.318  0.0647  1.1492 -0.4653
 3994SOL    HW315749   2.813   3.576   4.286  0.6661 -0.7682 -0.5601
 3994SOL    MW415750   2.870   3.639   4.305 -0.1374  0.0529 -0.8124
 3995SOL     OW15751   2.906   2.030   6.360  0.8032  0.3605 -0.1340
 3995SOL    HW215752   2.950   1.945   6.364 -0.0569 -0.1341 -0.8172
 3995SOL    HW315753   2.945   2.075   6.285 -2.2693 -1.5619 -3.1956
 3995SOL    MW415754   2.917   2.025   6.351  0.2843  0.0416 -0.6280
 3996SOL     OW15755   5.418   1.835   5.052  0.3561  0.3957  0.7723
 3996SOL    HW215756   5.477   1.759   5.051 -0.2590 -0.0864  0.2788
 3996SOL    HW315757   5.455   1.895   4.988  1.3515  0.9245  1.7977
 3996SOL    MW415758   5.431   1.833   5.044  0.4063  0.4019  0.8425
 3997SOL     OW15759   3.707   4.898   5.431 -0.1066 -0.5888 -0.3244
 3997SOL    HW215760   3.768   4.965   5.463 -1.4451  0.9539 -0.8678
 3997SOL    HW315761   3.757   4.817   5.435  1.6400  0.4512  0.2058
 3997SOL    MW415762   3.722   4.896   5.436 -0.0527 -0.2481 -0.3262
 3998SOL     OW15763   3.704   3.895   1.954  0.5613  0.4355 -0.4039
 3998SOL    HW215764   3.733   3.847   1.876  0.4118 -0.3536  0.0140
 3998SOL    HW315765   3.616   3.925   1.932  0.4850  0.1420 -0.5086
 3998SOL    MW415766   3.696   3.893   1.940  0.5315  0.2926 -0.3626
 3999SOL     OW15767   2.043   6.276   2.519  0.1887 -0.8117 -0.0882
 3999SOL    HW215768   2.110   6.262   2.452  0.7286  1.1701 -0.0505
 3999SOL    HW315769   2.091   6.315   2.592 -1.0388  1.2811 -0.3028
 3999SOL    MW415770   2.058   6.280   2.520  0.0980 -0.2741 -0.1116
 4000SOL     OW15771   3.490   4.862   1.232  0.0499 -0.6383 -0.1648
 4000SOL    HW215772   3.509   4.888   1.142 -1.3167 -1.4546 -0.7128
 4000SOL    HW315773   3.533   4.778   1.243 -0.3705 -0.8743 -0.2968
 4000SOL    MW415774   3.498   4.855   1.222 -0.1858 -0.7772 -0.2545
 4001SOL     OW15775   3.313   6.126   2.777  0.1810 -0.7980 -0.1304
 4001SOL    HW215776   3.309   6.077   2.695  1.3869 -1.8895  0.4195
 4001SOL    HW315777   3.381   6.081   2.828  0.3022  0.5923  0.9847
 4001SOL    MW415778   3.321   6.113   2.773  0.3561 -0.7586  0.0893
 4002SOL     OW15779   2.577   4.163   0.244  0.1900 -0.0958 -1.0108
 4002SOL    HW215780   2.663   4.198   0.269  1.5598 -2.9926 -1.3098
 4002SOL    HW315781   2.546   4.116   0.321  1.0012 -2.8029 -2.2301
 4002SOL    MW415782   2.584   4.162   0.257  0.4778 -0.8351 -1.2111
 4003SOL     OW15783   4.764   2.857   0.030  0.6774  0.3936  0.5358
 4003SOL    HW215784   4.856   2.832   0.041  0.7557 -0.3169 -1.3602
 4003SOL    HW315785   4.715   2.779   0.054  0.4375  1.1523  2.7791
 4003SOL    MW415786   4.769   2.844   0.035  0.6561  0.3999  0.5816
 4004SOL     OW15787   3.342   5.638   1.934 -0.0026  0.8000  0.2087
 4004SOL    HW215788   3.338   5.561   1.877  0.7644  1.3102 -0.5688
 4004SOL    HW315789   3.253   5.648   1.967 -0.2781  0.0091 -0.2569
 4004SOL    MW415790   3.330   5.629   1.931  0.0623  0.7630  0.0447
 4005SOL     OW15791   1.896   2.662   4.607  0.0270 -0.0656 -0.2940
 4005SOL    HW215792   1.956   2.640   4.535 -0.1012 -0.2020 -0.3599
 4005SOL    HW315793   1.942   2.729   4.657  0.7203 -0.9599  0.2984
 4005SOL    MW415794   1.910   2.668   4.604  0.1016 -0.2016 -0.2245
 4006SOL     OW15795   3.723   1.669   4.783 -0.0682  0.3511 -0.5362
 4006SOL    HW215796   3.762   1.591   4.823  0.3299  0.1252 -1.3410
 4006SOL    HW315797   3.795   1.732   4.779  0.0519  0.1686 -1.4086
 4006SOL    MW415798   3.738   1.667   4.788  0.0001  0.2972 -0.7575
 4007SOL     OW15799   0.964   1.027   5.470  0.2354 -0.1931  0.0545
 4007SOL    HW215800   1.023   1.097   5.499  0.9706 -1.4857  1.9220
 4007SOL    HW315801   0.877   1.066   5.471  0.9903  2.0689 -3.7199
 4007SOL    MW415802   0.960   1.042   5.474  0.4320 -0.0652 -0.1971
 4008SOL     OW15803   0.706   3.556   1.782 -0.1436  0.0215  0.1000
 4008SOL    HW215804   0.724   3.631   1.724 -1.7338  1.3225  1.1677
 4008SOL    HW315805   0.767   3.567   1.855  0.0810 -0.1040 -0.0697
 4008SOL    MW415806   0.716   3.568   1.784 -0.3238  0.1766  0.2185
 4009SOL     OW15807   3.705   4.187   0.772 -0.0144 -0.0199  0.3773
 4009SOL    HW215808   3.691   4.278   0.743 -1.0831  0.2597  1.6863
 4009SOL    HW315809   3.763   4.195   0.847  1.6046 -0.6320 -0.7500
 4009SOL    MW415810   3.711   4.200   0.778  0.0582 -0.0638  0.4013
 4010SOL     OW15811   0.457   5.399   0.238  0.4635  0.1524 -0.2704
 4010SOL    HW215812   0.366   5.385   0.212  0.0953  0.0229  0.9887
 4010SOL    HW315813   0.451   5.422   0.331  1.7013  0.3811 -0.2406
 4010SOL    MW415814   0.444   5.400   0.247  0.5782  0.1655 -0.1003
 4011SOL     OW15815   0.676   0.107   5.968  0.6846 -0.6021  0.6252
 4011SOL    HW215816   0.643   0.034   5.914 -0.4049 -0.1223  0.6058
 4011SOL    HW315817   0.654   0.081   6.058  0.0041 -0.1705  0.5923
 4011SOL    MW415818   0.669   0.094   5.973  0.4510 -0.4819  0.6183
 4012SOL     OW15819   5.921   4.124   1.324  0.1985  0.5224  0.2138
 4012SOL    HW215820   5.842   4.148   1.276  0.9414 -0.2845 -1.5258
 4012SOL    HW315821   5.991   4.170   1.278  1.2907 -2.4741 -1.3703
 4012SOL    MW415822   5.920   4.133   1.312  0.4406  0.0206 -0.2248
 4013SOL     OW15823   2.258   6.082   5.366 -0.2246  0.3186  0.2395
 4013SOL    HW215824   2.307   6.047   5.440  0.0111  0.6185  0.2284
 4013SOL    HW315825   2.181   6.025   5.358 -0.6239  0.7092  1.1627
 4013SOL    MW415826   2.254   6.070   5.374 -0.2462  0.4097  0.3599
 4014SOL     OW15827   6.195   0.852   5.295 -0.1130 -0.5869  0.0215
 4014SOL    HW215828   6.278   0.810   5.272  0.2238  0.4973 -0.8299
 4014SOL    HW315829   6.219   0.917   5.361  0.3312  1.9062 -2.3978
 4014SOL    MW415830   6.209   0.855   5.301 -0.0100 -0.1149 -0.4101
 4015SOL     OW15831   4.016   5.543   3.553 -0.1893 -0.2705  0.3205
 4015SOL    HW215832   4.039   5.514   3.642  1.0239  2.1709  0.8724
 4015SOL    HW315833   4.024   5.638   3.556 -1.0824 -0.0540 -2.1815
 4015SOL    MW415834   4.020   5.551   3.565 -0.1471  0.0802  0.0632
 4016SOL     OW15835   1.501   5.306   4.886 -0.0604 -0.1562  0.4850
 4016SOL    HW215836   1.577   5.325   4.941  0.1925  1.1061 -0.2485
 4016SOL    HW315837   1.511   5.214   4.862  0.1973 -0.5284  1.9483
 4016SOL    MW415838   1.512   5.296   4.890  0.0070 -0.0387  0.5813
 4017SOL     OW15839   1.151   1.340   5.208  0.1345 -0.0781 -1.1378
 4017SOL    HW215840   1.112   1.331   5.121 -0.2508 -1.6247 -0.8347
 4017SOL    HW315841   1.185   1.429   5.210 -1.6444  0.6781 -2.1309
 4017SOL    MW415842   1.150   1.351   5.197 -0.1511 -0.1824 -1.2288
 4018SOL     OW15843   3.878   2.864   2.504 -0.0339  0.3871  0.1864
 4018SOL    HW215844   3.849   2.806   2.574  1.2538  0.7336  1.0575
 4018SOL    HW315845   3.932   2.929   2.549  2.5573 -0.5694 -1.3332
 4018SOL    MW415846   3.882   2.865   2.519  0.4779  0.3066  0.1008
 4019SOL     OW15847   6.173   2.951   1.347  0.3615  0.1281  0.5196
 4019SOL    HW215848   6.147   3.018   1.410  0.3264  0.3950  0.2272
 4019SOL    HW315849   6.269   2.956   1.345  0.3536  0.2413  0.4217
 4019SOL    MW415850   6.182   2.960   1.355  0.3558  0.1783  0.4681
 4020SOL     OW15851   0.825   2.096   4.491  0.2284 -0.4985 -0.1819
 4020SOL    HW215852   0.885   2.125   4.559 -1.8878  2.4023  0.6096
 4020SOL    HW315853   0.806   2.005   4.513  1.8288 -0.5112  1.3784
 4020SOL    MW415854   0.830   2.088   4.503  0.1603 -0.1174  0.1284
 4021SOL     OW15855   1.682   5.340   3.769  0.3978 -0.1312 -0.2941
 4021SOL    HW215856   1.609   5.281   3.749  1.5542 -1.9534  0.6027
 4021SOL    HW315857   1.683   5.345   3.865  0.5505  1.1234 -0.3363
 4021SOL    MW415858   1.672   5.333   3.779  0.5705 -0.2061 -0.1814
 4022SOL     OW15859   0.405   1.632   0.791  0.4540  0.8145 -0.6740
 4022SOL    HW215860   0.501   1.626   0.793  0.4737 -1.0871  3.4394
 4022SOL    HW315861   0.375   1.542   0.788 -1.0766  1.2237  0.6510
 4022SOL    MW415862   0.414   1.620   0.791  0.2546  0.6176  0.0435
 4023SOL     OW15863   3.078   2.555   1.976 -0.0720  0.2623 -0.4267
 4023SOL    HW215864   3.133   2.477   1.976 -1.6664 -0.9201 -0.8312
 4023SOL    HW315865   3.084   2.588   2.066  1.4614  0.3106 -0.5284
 4023SOL    MW415866   3.086   2.549   1.988 -0.0801  0.1127 -0.4935
 4024SOL     OW15867   5.593   1.212   4.083  0.3082 -0.2291 -0.5151
 4024SOL    HW215868   5.595   1.154   4.159  3.3285 -0.3274 -0.5494
 4024SOL    HW315869   5.501   1.238   4.075 -0.2625 -0.8542  2.6574
 4024SOL    MW415870   5.581   1.208   4.092  0.6314 -0.3246 -0.1011
 4025SOL     OW15871   3.955   3.961   4.870 -0.2367  0.0648  0.0147
 4025SOL    HW215872   3.965   4.052   4.844 -1.3274 -0.0048 -0.7519
 4025SOL    HW315873   3.982   3.911   4.793 -0.5304 -0.2256  0.0945
 4025SOL    MW415874   3.960   3.966   4.856 -0.4194  0.0173 -0.0759
 4026SOL     OW15875   3.798   2.302   1.504  0.6066  0.0521 -0.4760
 4026SOL    HW215876   3.836   2.243   1.569  0.4475 -0.5746 -0.9401
 4026SOL    HW315877   3.708   2.271   1.492 -0.4482  2.1467  1.3679
 4026SOL    MW415878   3.791   2.290   1.511  0.4465  0.2458 -0.2939
 4027SOL     OW15879   0.508   1.412   4.584 -0.0970 -0.0395 -0.4259
 4027SOL    HW215880   0.568   1.359   4.636 -0.6503 -0.4538 -0.2054
 4027SOL    HW315881   0.527   1.388   4.493  2.6512  2.4841 -0.7020
 4027SOL    MW415882   0.518   1.402   4.579  0.1926  0.2388 -0.4333
 4028SOL     OW15883   3.722   2.619   0.925  0.2172 -0.2967  0.4018
 4028SOL    HW215884   3.627   2.620   0.919  0.1242 -0.7481  1.4619
 4028SOL    HW315885   3.745   2.708   0.955  0.1688 -0.0550 -0.2741
 4028SOL    MW415886   3.713   2.631   0.928  0.1985 -0.3244  0.4525
 4029SOL     OW15887   3.119   3.471   2.048 -0.4607  0.2861 -0.2960
 4029SOL    HW215888   3.184   3.541   2.053  1.3188 -1.3461  1.2397
 4029SOL    HW315889   3.153   3.411   1.981 -0.2343 -0.6933  0.6678
 4029SOL    MW415890   3.132   3.472   2.040 -0.1960 -0.0585  0.0338
 4030SOL     OW15891   4.891   2.993   2.692 -0.3537 -0.4179 -0.5283
 4030SOL    HW215892   4.809   2.992   2.742  0.3678 -0.1807  0.6934
 4030SOL    HW315893   4.946   2.928   2.734  0.4764  0.1795 -0.6556
 4030SOL    MW415894   4.887   2.985   2.704 -0.1490 -0.3078 -0.3839
 4031SOL     OW15895   1.124   4.176   1.991 -0.2248 -0.3835  0.6673
 4031SOL    HW215896   1.083   4.255   1.957  1.2420 -0.4254 -1.3562
 4031SOL    HW315897   1.184   4.148   1.922  0.6096 -2.2696  2.0658
 4031SOL    MW415898   1.127   4.182   1.978  0.0788 -0.6379  0.5849
 4032SOL     OW15899   2.383   0.943   4.657 -0.1784  0.3673 -0.0362
 4032SOL    HW215900   2.456   0.894   4.618  0.1407  0.5813  0.2815
 4032SOL    HW315901   2.321   0.954   4.586  0.5168  0.9792 -0.5625
 4032SOL    MW415902   2.385   0.938   4.643 -0.0446  0.4762 -0.0637
 4033SOL     OW15903   5.742   5.513   1.050 -0.5177  0.4494 -0.0348
 4033SOL    HW215904   5.692   5.504   1.131 -1.1983  0.9173 -0.3864
 4033SOL    HW315905   5.696   5.458   0.987  0.7349 -0.9112  0.1940
 4033SOL    MW415906   5.729   5.505   1.052 -0.4422  0.3316 -0.0510
 4034SOL     OW15907   5.058   1.397   4.174  0.2900  0.2547  0.1545
 4034SOL    HW215908   5.118   1.471   4.173 -1.9116  2.1263 -1.0257
 4034SOL    HW315909   5.077   1.349   4.094  1.4748 -0.3163  0.7469
 4034SOL    MW415910   5.069   1.400   4.163  0.1559  0.4263  0.0770
 4035SOL     OW15911   3.551   0.756   2.370 -0.6211  0.4749 -0.1625
 4035SOL    HW215912   3.611   0.777   2.298 -0.5314  0.1319 -0.1905
 4035SOL    HW315913   3.475   0.811   2.354 -1.0028 -0.2785 -1.0715
 4035SOL    MW415914   3.549   0.766   2.358 -0.6597  0.3303 -0.2861
 4036SOL     OW15915   3.073   3.284   4.055 -0.4043 -0.1895  0.7599
 4036SOL    HW215916   3.070   3.293   3.959  1.1617  2.0141  0.8613
 4036SOL    HW315917   3.114   3.364   4.086 -1.6804 -0.4442  3.3928
 4036SOL    MW415918   3.078   3.296   4.046 -0.3660  0.0677  1.1207
 4037SOL     OW15919   6.052   3.495   1.855 -0.0846  0.0645 -0.2754
 4037SOL    HW215920   6.059   3.425   1.790 -0.4413 -0.7371  0.5316
 4037SOL    HW315921   6.140   3.532   1.860  0.2042 -0.5837 -0.4338
 4037SOL    MW415922   6.064   3.491   1.847 -0.0936 -0.1268 -0.1898
 4038SOL     OW15923   6.150   0.935   2.584 -0.0748  0.0192 -0.5124
 4038SOL    HW215924   6.117   0.951   2.673 -1.1362 -0.6372 -0.7776
 4038SOL    HW315925   6.105   0.999   2.529 -0.8829 -0.8353 -0.8655
 4038SOL    MW415926   6.140   0.945   2.589 -0.3215 -0.1801 -0.5940
 4039SOL     OW15927   2.610   5.329   1.698  0.3101  0.2392 -0.0649
 4039SOL    HW215928   2.576   5.418   1.709 -1.1156 -0.4563  1.5848
 4039SOL    HW315929   2.554   5.290   1.631 -0.6750 -0.1397  0.9393
 4039SOL    MW415930   2.598   5.336   1.691 -0.0080  0.0974  0.2852
 4040SOL     OW15931   5.250   1.090   1.610 -0.1200 -0.7268 -0.5402
 4040SOL    HW215932   5.279   0.999   1.597 -0.4126 -1.1843  1.6585
 4040SOL    HW315933   5.289   1.116   1.694 -0.4436  1.0357 -0.8966
 4040SOL    MW415934   5.259   1.081   1.619 -0.2013 -0.5546 -0.2971
 4041SOL     OW15935   0.219   0.760   0.438 -0.0552 -0.1358  0.2800
 4041SOL    HW215936   0.239   0.809   0.518 -2.0456  1.1253  0.0662
 4041SOL    HW315937   0.206   0.828   0.371  2.4638 -1.1725 -1.4194
 4041SOL    MW415938   0.220   0.776   0.440  0.0146 -0.1062  0.0276
 4042SOL     OW15939   1.883   2.196   2.264 -0.4915  0.4493 -0.1862
 4042SOL    HW215940   1.919   2.221   2.179  0.0013 -0.9018 -0.3913
 4042SOL    HW315941   1.858   2.104   2.254 -1.0732  0.4659  0.9206
 4042SOL    MW415942   1.884   2.187   2.252 -0.5032  0.2732 -0.0672
 4043SOL     OW15943   4.166   4.581   2.176 -0.1757 -0.3273 -0.7557
 4043SOL    HW215944   4.167   4.488   2.199 -2.0574 -0.7032 -1.9435
 4043SOL    HW315945   4.257   4.601   2.154  0.2381 -1.9444 -0.6446
 4043SOL    MW415946   4.178   4.571   2.176 -0.3694 -0.5903 -0.8978
 4044SOL     OW15947   2.870   1.654   5.012  0.9109 -0.0439  0.0484
 4044SOL    HW215948   2.840   1.725   4.955  0.1833  0.3102  0.8427
 4044SOL    HW315949   2.963   1.672   5.027  1.1738 -0.2845 -1.2069
 4044SOL    MW415950   2.878   1.666   5.007  0.8496 -0.0289 -0.0125
 4045SOL     OW15951   3.584   0.993   4.310 -0.1392  0.6619 -0.5035
 4045SOL    HW215952   3.648   1.035   4.369 -1.2486 -1.0782  2.1121
 4045SOL    HW315953   3.633   0.922   4.269  0.0825  0.4545  0.1059
 4045SOL    MW415954   3.599   0.989   4.312 -0.2563  0.4050 -0.0780
 4046SOL     OW15955   1.666   1.721   2.651 -0.0934  1.0870  0.1114
 4046SOL    HW215956   1.694   1.747   2.738  0.2683  2.9803 -0.5323
 4046SOL    HW315957   1.570   1.730   2.653 -0.4312 -1.7192  1.1444
 4046SOL    MW415958   1.657   1.726   2.663 -0.0902  0.9666  0.1628
 4047SOL     OW15959   2.632   4.885   6.309  0.2213  0.7032  0.3311
 4047SOL    HW215960   2.634   4.798   6.349 -1.4216  0.7847  0.6521
 4047SOL    HW315961   2.697   4.935   6.357 -0.9995  0.5175  2.2679
 4047SOL    MW415962   2.641   4.880   6.320 -0.1565  0.6895  0.6290
 4048SOL     OW15963   0.363   1.785   0.554  0.3726 -0.1267  0.0918
 4048SOL    HW215964   0.387   1.706   0.603  0.6309 -0.9596 -1.3066
 4048SOL    HW315965   0.413   1.778   0.473 -0.2945  1.0375 -0.4344
 4048SOL    MW415966   0.373   1.773   0.550  0.3187 -0.0830 -0.1621
 4049SOL     OW15967   3.951   3.533   3.102  0.5239 -0.2311 -0.3151
 4049SOL    HW215968   3.870   3.528   3.153  1.1695  0.8638  0.8627
 4049SOL    HW315969   4.014   3.482   3.152  1.3375  1.3995  0.3790
 4049SOL    MW415970   3.948   3.526   3.115  0.7165  0.1285 -0.0681
 4050SOL     OW15971   1.714   5.937   2.751  0.0999  0.2776  0.2297
 4050SOL    HW215972   1.665   5.936   2.833  2.5407 -1.1982  1.7914
 4050SOL    HW315973   1.776   6.009   2.761 -1.9916  2.5739 -2.0019
 4050SOL    MW415974   1.716   5.946   2.763  0.1460  0.3858  0.1413
 4051SOL     OW15975   4.249   5.357   5.077  0.5928 -0.1075 -0.1216
 4051SOL    HW215976   4.192   5.414   5.025  1.3828 -0.4446 -1.4241
 4051SOL    HW315977   4.247   5.273   5.030  1.8325 -0.2420  0.0450
 4051SOL    MW415978   4.241   5.353   5.064  0.8606 -0.1697 -0.2714
 4052SOL     OW15979   4.696   5.164   0.084  0.2592  0.0336 -0.0110
 4052SOL    HW215980   4.633   5.175   0.013  1.4040 -0.6218 -1.1739
 4052SOL    HW315981   4.774   5.128   0.042  1.2363  0.3101  1.4648
 4052SOL    MW415982   4.698   5.161   0.069  0.5392 -0.0164  0.0303
 4053SOL     OW15983   2.484   1.742   5.349 -0.6026  0.3456 -0.2265
 4053SOL    HW215984   2.551   1.717   5.286 -0.1169 -1.0537  0.7900
 4053SOL    HW315985   2.419   1.789   5.298  0.9847  1.4790 -1.3126
 4053SOL    MW415986   2.484   1.745   5.334 -0.3291  0.3105 -0.2357
 4054SOL     OW15987   5.519   0.727   4.311  0.0913  0.4304  1.0067
 4054SOL    HW215988   5.580   0.716   4.385  0.8057  0.8156  0.4849
 4054SOL    HW315989   5.434   0.699   4.346  0.7349 -1.0966  1.4535
 4054SOL    MW415990   5.516   0.722   4.326  0.2705  0.2798  0.9968
 4055SOL     OW15991   1.384   1.488   4.617  0.1877  0.5624 -0.5192
 4055SOL    HW215992   1.294   1.470   4.590  0.1830 -2.2354  0.8914
 4055SOL    HW315993   1.437   1.425   4.568  1.1422  0.9208  0.0140
 4055SOL    MW415994   1.379   1.477   4.607  0.3130  0.2405 -0.2627
 4056SOL     OW15995   5.977   5.692   0.419 -0.2139 -0.0510  0.3217
 4056SOL    HW215996   6.067   5.691   0.449  0.9311 -0.7831 -2.7667
 4056SOL    HW315997   5.966   5.776   0.375 -0.2144 -0.8872 -1.3672
 4056SOL    MW415998   5.987   5.703   0.418 -0.0629 -0.2579 -0.3086
 4057SOL     OW15999   1.340   4.511   3.164  0.0970  0.1567  0.4370
 4057SOL    HW216000   1.372   4.441   3.221 -0.5913 -1.0255 -0.5795
 4057SOL    HW316001   1.252   4.484   3.139  0.0541  1.0726 -0.5008
 4057SOL    MW416002   1.333   4.499   3.168  0.0005  0.1216  0.1791
 4058SOL     OW16003   3.900   1.036   6.197  0.2234  0.0781  0.1479
 4058SOL    HW216004   3.959   1.111   6.203  0.4522  0.0199 -1.1636
 4058SOL    HW316005   3.958   0.960   6.206 -0.0172  0.0432  1.5481
 4058SOL    MW416006   3.915   1.036   6.199  0.2218  0.0658  0.1596
 4059SOL     OW16007   5.774   4.729   5.983 -0.2008  0.1954  0.5769
 4059SOL    HW216008   5.734   4.697   6.063  0.1634 -0.4016  0.5233
 4059SOL    HW316009   5.789   4.651   5.930 -0.0251  0.5348  0.1178
 4059SOL    MW416010   5.771   4.715   5.987 -0.1296  0.1614  0.5093
 4060SOL     OW16011   2.712   6.444   0.132  0.2344  0.7852  0.0381
 4060SOL    HW216012   2.803   6.474   0.131  1.4536 -2.4884 -0.3815
 4060SOL    HW316013   2.686   6.449   0.224  1.4851  0.1956  0.4515
 4060SOL    MW416014   2.721   6.448   0.144  0.5603  0.2755  0.0373
 4061SOL     OW16015   0.137   3.263   1.863  0.7941 -0.5446 -0.1112
 4061SOL    HW216016   0.222   3.229   1.889  0.0497 -1.0535  1.8886
 4061SOL    HW316017   0.126   3.343   1.916 -0.0828 -0.6717 -0.0795
 4061SOL    MW416018   0.147   3.269   1.874  0.5802 -0.6285  0.1569
 4062SOL     OW16019   2.660   1.291   4.261 -0.1186 -0.5134  0.1381
 4062SOL    HW216020   2.703   1.375   4.246  1.1835 -1.2858 -0.6947
 4062SOL    HW316021   2.567   1.311   4.257  0.0919  1.2737  2.3081
 4062SOL    MW416022   2.654   1.304   4.258  0.0810 -0.3795  0.3145
 4063SOL     OW16023   3.134   5.433   5.672 -0.0271 -0.3003 -0.3099
 4063SOL    HW216024   3.094   5.518   5.652 -1.7139 -1.1015 -0.4956
 4063SOL    HW316025   3.066   5.369   5.650  0.2862 -1.5854  2.1819
 4063SOL    MW416026   3.120   5.436   5.666 -0.2083 -0.5756 -0.0057
 4064SOL     OW16027   2.197   6.101   0.582 -0.6419 -0.2357 -0.1416
 4064SOL    HW216028   2.123   6.158   0.603 -0.9280 -1.4778  2.7781
 4064SOL    HW316029   2.268   6.135   0.636 -0.1621 -1.2687 -0.1076
 4064SOL    MW416030   2.197   6.113   0.592 -0.6163 -0.5359  0.2481
 4065SOL     OW16031   0.528   6.291   1.616  0.2226 -0.7589  0.2358
 4065SOL    HW216032   0.615   6.252   1.611  1.3580  1.6349 -0.1403
 4065SOL    HW316033   0.544   6.384   1.634 -2.2216 -0.0986 -0.5695
 4065SOL    MW416034   0.542   6.298   1.618  0.0499 -0.3559  0.0799
 4066SOL     OW16035   3.314   0.608   4.370  0.7608  0.5741 -0.1749
 4066SOL    HW216036   3.231   0.598   4.417  1.0221 -0.1306  0.1554
 4066SOL    HW316037   3.309   0.695   4.330 -0.2356  0.4388 -0.3662
 4066SOL    MW416038   3.302   0.618   4.371  0.6638  0.4633 -0.1565
 4067SOL     OW16039   6.275   0.972   3.007  0.1104 -0.2948 -0.2287
 4067SOL    HW216040   6.320   0.924   3.077  0.2957  0.9850  0.5833
 4067SOL    HW316041   6.296   0.924   2.927  2.6910  0.0482  0.1472
 4067SOL    MW416042   6.284   0.960   3.006  0.4753 -0.0807 -0.0720
 4068SOL     OW16043   2.458   2.152   2.785 -0.0447 -0.5406 -0.4903
 4068SOL    HW216044   2.546   2.115   2.799  0.4321  1.0948  1.3194
 4068SOL    HW316045   2.401   2.100   2.841  0.4124  0.5123  1.0447
 4068SOL    MW416046   2.462   2.140   2.794  0.0785 -0.1859 -0.0490
 4069SOL     OW16047   1.530   3.527   2.656 -0.6376  0.1752 -0.1274
 4069SOL    HW216048   1.623   3.535   2.675 -0.5429  0.3973 -0.6830
 4069SOL    HW316049   1.489   3.520   2.743 -0.0521 -0.5898  0.0975
 4069SOL    MW416050   1.537   3.527   2.670 -0.5479  0.1035 -0.1710
 4070SOL     OW16051   4.403   4.974   0.252  0.5478 -0.1851  1.0491
 4070SOL    HW216052   4.490   4.950   0.222 -0.5877 -1.5167 -1.4287
 4070SOL    HW316053   4.343   4.933   0.190 -1.9164 -0.0410  3.1434
 4070SOL    MW416054   4.406   4.966   0.240  0.0729 -0.3418  0.9985
 4071SOL     OW16055   5.916   4.388   1.916 -0.0404  0.5674  0.8724
 4071SOL    HW216056   5.864   4.319   1.956 -0.4063  1.0807  1.2944
 4071SOL    HW316057   5.957   4.346   1.840 -2.4054  0.5504 -0.4895
 4071SOL    MW416058   5.915   4.373   1.911 -0.4007  0.6329  0.7484
 4072SOL     OW16059   5.721   6.089   2.323  0.8366  0.4556 -0.1219
 4072SOL    HW216060   5.668   6.155   2.367 -0.3255  0.2491 -1.1623
 4072SOL    HW316061   5.745   6.026   2.391  0.0145  0.7262  0.4212
 4072SOL    MW416062   5.717   6.090   2.337  0.5748  0.4640 -0.1875
 4073SOL     OW16063   2.585   5.736   4.744 -0.5600  0.1607 -0.7031
 4073SOL    HW216064   2.574   5.642   4.756  0.4128  0.0815 -0.2691
 4073SOL    HW316065   2.675   5.745   4.712  0.1642  1.0721  1.4007
 4073SOL    MW416066   2.596   5.725   4.741 -0.3361  0.2705 -0.3683
 4074SOL     OW16067   4.468   4.625   2.169 -0.3896  0.3606  0.4217
 4074SOL    HW216068   4.493   4.701   2.116 -1.6211 -0.3187 -1.2590
 4074SOL    HW316069   4.522   4.553   2.135  0.5512  0.3942  1.7916
 4074SOL    MW416070   4.478   4.626   2.157 -0.4279  0.2754  0.3807
 4075SOL     OW16071   4.750   4.080   3.351  0.5295 -0.0351 -0.5205
 4075SOL    HW216072   4.724   4.047   3.437 -0.9225  0.5080 -0.7166
 4075SOL    HW316073   4.784   4.004   3.305 -0.5899 -0.7727 -0.1600
 4075SOL    MW416074   4.751   4.066   3.356  0.1903 -0.0607 -0.4988
 4076SOL     OW16075   3.274   4.403   0.062  0.2608 -0.0873  0.2030
 4076SOL    HW216076   3.267   4.496   0.084  0.6903 -0.0816  0.3454
 4076SOL    HW316077   3.276   4.400  -0.033  0.2159  0.0479  0.1980
 4076SOL    MW416078   3.274   4.415   0.053  0.3115 -0.0687  0.2211
 4077SOL     OW16079   2.925   4.226   2.908 -0.0504 -0.4546  0.0141
 4077SOL    HW216080   3.019   4.213   2.895  0.1059  1.1721 -0.7749
 4077SOL    HW316081   2.907   4.311   2.867 -1.5554  0.0398  1.5798
 4077SOL    MW416082   2.935   4.236   2.901 -0.2283 -0.1747  0.1166
 4078SOL     OW16083   0.958   0.419   2.989 -0.0505 -0.3679 -0.4833
 4078SOL    HW216084   0.992   0.330   2.996  1.6916  0.2753 -0.2486
 4078SOL    HW316085   0.878   0.411   2.937 -1.3218 -2.3889  1.6087
 4078SOL    MW416086   0.952   0.406   2.983  0.0117 -0.5497 -0.1763
 4079SOL     OW16087   3.203   1.786   3.296  0.0446 -0.1510 -0.4359
 4079SOL    HW216088   3.297   1.768   3.289 -0.0357 -0.0903 -1.8137
 4079SOL    HW316089   3.193   1.875   3.263 -0.3739  0.2241  0.6610
 4079SOL    MW416090   3.214   1.795   3.291 -0.0212 -0.0935 -0.4730
 4080SOL     OW16091   2.711   1.591   5.241  0.4350 -0.3359 -0.3734
 4080SOL    HW216092   2.732   1.628   5.156 -1.7700 -3.9000 -2.7606
 4080SOL    HW316093   2.703   1.497   5.225  0.8570 -1.3442  4.0488
 4080SOL    MW416094   2.712   1.584   5.228  0.1998 -0.9392 -0.1049
 4081SOL     OW16095   0.562   0.781   1.848 -0.0138  0.2629  0.7988
 4081SOL    HW216096   0.545   0.734   1.766  1.3422 -0.8523  1.1006
 4081SOL    HW316097   0.494   0.848   1.853 -0.6060 -0.1753 -0.8311
 4081SOL    MW416098   0.551   0.784   1.837  0.0870  0.0579  0.6235
 4082SOL     OW16099   2.691   1.070   3.307 -0.4271 -0.6072  0.4205
 4082SOL    HW216100   2.711   0.978   3.289 -0.1819 -0.6123  0.7251
 4082SOL    HW316101   2.657   1.071   3.396 -0.0739 -0.3524  0.5541
 4082SOL    MW416102   2.689   1.058   3.316 -0.3482 -0.5742  0.4783
 4083SOL     OW16103   6.319   2.896   1.886 -0.0735  0.1372  0.7580
 4083SOL    HW216104   6.329   2.831   1.817 -1.3429  0.5073  0.2069
 4083SOL    HW316105   6.409   2.916   1.912  0.4450  0.0323 -0.8204
 4083SOL    MW416106   6.333   2.890   1.880 -0.1726  0.1722  0.4771
 4084SOL     OW16107   0.343   0.973   1.835  0.0444 -0.5615 -0.5835
 4084SOL    HW216108   0.389   1.057   1.841 -1.1743  0.0123  1.7336
 4084SOL    HW316109   0.320   0.965   1.742  0.0022  1.7767 -0.8400
 4084SOL    MW416110   0.346   0.983   1.824 -0.1219 -0.1773 -0.3116
 4085SOL     OW16111   1.554   4.950   0.270 -0.0460  0.5644 -0.3605
 4085SOL    HW216112   1.531   4.963   0.178 -2.1700 -2.0654 -0.3367
 4085SOL    HW316113   1.474   4.976   0.318  0.0595 -0.6368  0.4988
 4085SOL    MW416114   1.540   4.955   0.264 -0.3123  0.0589 -0.2440
 4086SOL     OW16115   5.486   1.134   5.033  0.1431  0.5612  0.0807
 4086SOL    HW216116   5.509   1.063   5.093 -0.5032  0.1993 -0.0848
 4086SOL    HW316117   5.508   1.101   4.946 -2.5095 -0.5214 -0.2844
 4086SOL    MW416118   5.492   1.120   5.030 -0.2922  0.3706  0.0107
 4087SOL     OW16119   0.708   0.915   2.647  0.4128  0.6989 -0.6952
 4087SOL    HW216120   0.751   0.997   2.675  0.6447 -0.0376  1.2357
 4087SOL    HW316121   0.622   0.943   2.615  1.5377  1.9939 -2.8687
 4087SOL    MW416122   0.702   0.930   2.646  0.5918  0.7726 -0.7272
 4088SOL     OW16123   1.788   0.769   3.500 -0.2077 -0.8669  0.1818
 4088SOL    HW216124   1.857   0.788   3.563  0.0256  1.5473 -0.7069
 4088SOL    HW316125   1.827   0.705   3.441  0.2029 -1.7619  1.3703
 4088SOL    MW416126   1.802   0.763   3.501 -0.1228 -0.6665  0.2214
 4089SOL     OW16127   3.626   2.848   0.729 -0.5765  0.2734  0.0713
 4089SOL    HW216128   3.686   2.774   0.742  0.1653  0.8802  0.1200
 4089SOL    HW316129   3.624   2.892   0.814 -1.9655 -0.3701  0.4054
 4089SOL    MW416130   3.633   2.844   0.742 -0.6619  0.2686  0.1218
 4090SOL     OW16131   5.223   6.187   4.251 -0.0230  0.1668  0.0671
 4090SOL    HW216132   5.168   6.148   4.183 -0.2454 -1.5502  1.1620
 4090SOL    HW316133   5.163   6.208   4.323  0.5135 -0.3289  0.6802
 4090SOL    MW416134   5.208   6.184   4.252  0.0184 -0.1252  0.2924
 4091SOL     OW16135   0.266   4.052   4.739  0.0230 -0.2537 -0.1438
 4091SOL    HW216136   0.217   3.976   4.707 -1.2202  0.5815 -0.3173
 4091SOL    HW316137   0.206   4.125   4.725 -0.2820  0.3138  3.2943
 4091SOL    MW416138   0.252   4.051   4.733 -0.1813 -0.0687  0.2869
 4092SOL     OW16139   4.500   5.810   3.984  0.0463 -0.3302 -0.3111
 4092SOL    HW216140   4.438   5.872   4.023  0.7462 -0.5607  1.2554
 4092SOL    HW316141   4.448   5.763   3.919 -0.8488  0.9531 -0.5777
 4092SOL    MW416142   4.485   5.812   3.981  0.0206 -0.1913 -0.1396
 4093SOL     OW16143   5.938   6.484   2.381 -0.2960 -0.5735  0.2316
 4093SOL    HW216144   5.930   6.559   2.441  0.9749 -0.7338  0.6278
 4093SOL    HW316145   5.998   6.515   2.313 -1.5507 -0.4729 -0.8597
 4093SOL    MW416146   5.945   6.498   2.380 -0.2938 -0.5814  0.1399
 4094SOL     OW16147   0.281   6.189   3.673  0.3096  0.1543 -0.5029
 4094SOL    HW216148   0.199   6.201   3.720  0.4426 -1.3045  0.1512
 4094SOL    HW316149   0.348   6.219   3.735  0.3458  0.1621 -0.5467
 4094SOL    MW416150   0.279   6.195   3.688  0.3319 -0.0371 -0.4224
 4095SOL     OW16151   5.887   0.638   4.523 -0.0484  0.6193  0.2342
 4095SOL    HW216152   5.884   0.669   4.433 -0.7840  0.0781  0.0624
 4095SOL    HW316153   5.956   0.572   4.524 -0.8858 -0.2874 -0.2435
 4095SOL    MW416154   5.896   0.634   4.512 -0.2560  0.4283  0.1485
 4096SOL     OW16155   5.902   3.609   4.167 -0.0090 -0.5788  0.6970
 4096SOL    HW216156   5.846   3.532   4.157  1.0977 -1.2979 -0.2991
 4096SOL    HW316157   5.849   3.682   4.137 -0.5926 -1.1634  0.2902
 4096SOL    MW416158   5.888   3.608   4.162  0.0600 -0.7508  0.5119
 4097SOL     OW16159   1.924   5.916   4.560  0.0420 -0.2609 -0.0894
 4097SOL    HW216160   1.874   5.851   4.512  0.0991 -0.2395 -0.1774
 4097SOL    HW316161   1.896   6.000   4.524 -2.2798 -0.0103  2.0591
 4097SOL    MW416162   1.914   5.918   4.549 -0.2568 -0.2250  0.1825
 4098SOL     OW16163   3.405   6.412   2.815 -0.3204 -0.2259 -0.1200
 4098SOL    HW216164   3.326   6.403   2.762  0.4522  0.7547 -1.5320
 4098SOL    HW316165   3.450   6.488   2.777  1.0701 -0.4793  0.9356
 4098SOL    MW416166   3.401   6.421   2.803 -0.0350 -0.1300 -0.1671
 4099SOL     OW16167   0.176   5.777   4.117  0.3786  0.4645 -0.0731
 4099SOL    HW216168   0.131   5.858   4.093 -1.4027 -0.6323 -0.6344
 4099SOL    HW316169   0.106   5.720   4.149  1.4241 -1.2220 -0.7141
 4099SOL    MW416170   0.161   5.780   4.118  0.2815  0.0973 -0.2317
 4100SOL     OW16171   4.195   0.300   1.896 -0.0926 -0.0051  0.6482
 4100SOL    HW216172   4.106   0.295   1.930 -0.6347  1.2232 -0.4894
 4100SOL    HW316173   4.241   0.226   1.936 -1.6189 -0.6605  1.2466
 4100SOL    MW416174   4.189   0.290   1.906 -0.3655  0.0705  0.5771
 4101SOL     OW16175   3.530   4.207   3.523  0.1591 -0.4196  0.7190
 4101SOL    HW216176   3.601   4.177   3.465 -1.5051 -3.3686  0.0006
 4101SOL    HW316177   3.479   4.267   3.469  1.9539  1.6863  1.2202
 4101SOL    MW416178   3.533   4.211   3.508  0.1764 -0.5309  0.6903
 4102SOL     OW16179   5.807   0.787   2.113  0.3352 -0.0561  0.2620
 4102SOL    HW216180   5.802   0.753   2.024 -0.8985  1.7437 -0.3997
 4102SOL    HW316181   5.882   0.847   2.112  0.9305 -0.7701  0.7331
 4102SOL    MW416182   5.816   0.790   2.101  0.2510  0.0872  0.2369
 4103SOL     OW16183   6.163   3.855   4.830 -0.3667 -0.2681  0.0895
 4103SOL    HW216184   6.134   3.874   4.919 -0.9774  0.9245 -0.3532
 4103SOL    HW316185   6.200   3.937   4.798 -1.5425 -0.2327 -1.2825
 4103SOL    MW416186   6.164   3.868   4.837 -0.6024 -0.1061 -0.1499
 4104SOL     OW16187   3.823   1.585   1.899  0.5541 -0.4454 -0.3121
 4104SOL    HW216188   3.774   1.503   1.895 -0.7814  0.1444  2.0994
 4104SOL    HW316189   3.820   1.619   1.809 -1.6643 -1.4742 -0.6896
 4104SOL    MW416190   3.816   1.579   1.886  0.0852 -0.5033 -0.0437
 4105SOL     OW16191   4.312   2.179   2.474 -0.3681 -0.1300 -1.0356
 4105SOL    HW216192   4.380   2.178   2.406  1.8661 -1.8190  1.0522
 4105SOL    HW316193   4.311   2.269   2.506  1.4256 -0.1867 -0.6820
 4105SOL    MW416194   4.321   2.191   2.469  0.1634 -0.3603 -0.7135
 4106SOL     OW16195   2.379   0.883   3.367 -0.0321 -0.0206  0.3892
 4106SOL    HW216196   2.363   0.894   3.273 -1.2727  2.2545  0.8131
 4106SOL    HW316197   2.423   0.963   3.394 -2.2742  0.6995  2.2433
 4106SOL    MW416198   2.383   0.895   3.358 -0.4916  0.3746  0.6898
 4107SOL     OW16199   3.634   0.362   2.097 -0.1792  0.1390  0.3606
 4107SOL    HW216200   3.639   0.438   2.039 -0.6049 -0.9007 -1.0970
 4107SOL    HW316201   3.595   0.395   2.177 -0.0483  1.5250 -0.1252
 4107SOL    MW416202   3.629   0.376   2.100 -0.2181  0.1847  0.1042
 4108SOL     OW16203   3.176   3.603   2.405  0.4411  0.3173 -0.2688
 4108SOL    HW216204   3.167   3.678   2.346  0.1634  0.9182  0.5195
 4108SOL    HW316205   3.220   3.638   2.482  0.4763 -0.3768  0.0386
 4108SOL    MW416206   3.181   3.617   2.407  0.4091  0.3050 -0.1242
 4109SOL     OW16207   3.013   1.465   4.060 -0.3568  0.0895 -0.0235
 4109SOL    HW216208   3.044   1.374   4.062 -2.7465 -0.7939  0.7584
 4109SOL    HW316209   2.917   1.457   4.066 -0.6051  2.6806  0.3196
 4109SOL    MW416210   3.004   1.452   4.061 -0.7049  0.3148  0.1249
 4110SOL     OW16211   0.120   1.298   3.605  0.8193 -0.6409 -0.2637
 4110SOL    HW216212   0.104   1.357   3.679 -0.2780 -0.1904 -0.8273
 4110SOL    HW316213   0.214   1.283   3.606  1.0429  0.6592  0.2437
 4110SOL    MW416214   0.130   1.304   3.615  0.7040 -0.4099 -0.2711
 4111SOL     OW16215   4.502   3.928   2.747  0.0906  0.0605 -0.2376
 4111SOL    HW216216   4.511   3.987   2.822 -0.9767  0.0598 -0.0906
 4111SOL    HW316217   4.478   3.844   2.785 -0.0346 -0.0441 -0.5424
 4111SOL    MW416218   4.500   3.925   2.762 -0.0667  0.0466 -0.2584
 4112SOL     OW16219   1.550   4.371   4.998 -0.1439 -0.1848  0.2469
 4112SOL    HW216220   1.575   4.462   5.007  0.1845 -0.2275 -0.2384
 4112SOL    HW316221   1.592   4.341   4.917 -1.6409 -0.2883 -0.5399
 4112SOL    MW416222   1.559   4.379   4.989 -0.2981 -0.2041  0.0791
 4113SOL     OW16223   5.743   2.855   1.797 -0.3065 -0.3150 -0.1003
 4113SOL    HW216224   5.814   2.919   1.793 -0.7081  0.2153  0.8641
 4113SOL    HW316225   5.786   2.771   1.779  0.4020  0.0971 -0.3929
 4113SOL    MW416226   5.758   2.852   1.794 -0.2660 -0.1907 -0.0117
 4114SOL     OW16227   2.402   6.041   4.223 -0.1087  0.5905  0.1560
 4114SOL    HW216228   2.403   6.108   4.292 -0.5968  2.2486 -1.3585
 4114SOL    HW316229   2.486   6.053   4.177 -0.4247  0.5238 -0.4486
 4114SOL    MW416230   2.413   6.052   4.226 -0.2148  0.8005 -0.1236
 4115SOL     OW16231   5.081   4.058   4.050 -0.2390 -0.1862 -0.1053
 4115SOL    HW216232   5.169   4.033   4.023 -0.0392 -0.1137  0.4500
 4115SOL    HW316233   5.022   4.002   4.000  0.2215 -3.2824  2.4894
 4115SOL    MW416234   5.085   4.048   4.040 -0.1519 -0.5852  0.3103
 4116SOL     OW16235   0.329   0.078   1.734  0.0244  0.5919 -0.1612
 4116SOL    HW216236   0.308   0.028   1.655 -1.0462  0.5076  0.1647
 4116SOL    HW316237   0.347   0.166   1.702 -0.2091  0.5143 -0.5130
 4116SOL    MW416238   0.329   0.083   1.719 -0.1476  0.5705 -0.1646
 4117SOL     OW16239   1.831   4.049   1.774  0.0649 -0.0847 -0.2672
 4117SOL    HW216240   1.827   4.142   1.754 -0.3039  0.0571  0.4216
 4117SOL    HW316241   1.912   4.019   1.733  0.8631  0.8189  0.5746
 4117SOL    MW416242   1.841   4.057   1.766  0.1215  0.0532 -0.0653
 4118SOL     OW16243   4.075   0.543   3.849 -0.1873 -0.0940 -0.3515
 4118SOL    HW216244   3.998   0.489   3.866  1.4458 -2.2068  0.9216
 4118SOL    HW316245   4.099   0.577   3.935  0.2427  0.6340 -0.7524
 4118SOL    MW416246   4.068   0.540   3.863  0.0849 -0.2767 -0.2364
 4119SOL     OW16247   0.073   0.503   1.575 -0.3867 -0.2047 -0.1011
 4119SOL    HW216248  -0.007   0.512   1.522 -0.8404 -0.1366  0.5827
 4119SOL    HW316249   0.064   0.417   1.617 -0.2799 -0.0365  0.2689
 4119SOL    MW416250   0.061   0.493   1.573 -0.4325 -0.1735  0.0380
 4120SOL     OW16251   2.782   0.161   1.398  0.4992  0.4903 -0.3935
 4120SOL    HW216252   2.867   0.152   1.441 -0.3598 -0.7166  1.1687
 4120SOL    HW316253   2.755   0.071   1.380 -0.5085  0.8562 -0.7518
 4120SOL    MW416254   2.790   0.148   1.401  0.2529  0.3793 -0.2347
 4121SOL     OW16255   6.373   4.142   3.008  0.2739  0.2489  0.3344
 4121SOL    HW216256   6.290   4.098   2.991  0.9456 -0.1085 -2.5489
 4121SOL    HW316257   6.352   4.235   3.003 -0.1789  0.1928  1.0378
 4121SOL    MW416258   6.360   4.148   3.005  0.3028  0.1943  0.0468
 4122SOL     OW16259   3.641   3.186   4.119 -0.2979  0.1169 -0.3629
 4122SOL    HW216260   3.612   3.217   4.033 -0.1476 -2.3385 -1.3950
 4122SOL    HW316261   3.644   3.091   4.110 -0.9688 -0.2806  2.6110
 4122SOL    MW416262   3.638   3.178   4.106 -0.3666 -0.2595 -0.1067
 4123SOL     OW16263   2.549   0.550   4.511 -0.0233 -0.4755  0.0861
 4123SOL    HW216264   2.636   0.509   4.511  0.4140  0.4054  1.2955
 4123SOL    HW316265   2.510   0.523   4.428  1.0202 -1.6955 -0.0346
 4123SOL    MW416266   2.555   0.541   4.500  0.1721 -0.5202  0.2297
 4124SOL     OW16267   4.241   2.962   0.310  0.3738  1.0062 -0.3680
 4124SOL    HW216268   4.287   2.892   0.264  0.3937 -0.0729  1.2480
 4124SOL    HW316269   4.149   2.936   0.309  0.6551 -0.4327  2.4483
 4124SOL    MW416270   4.235   2.949   0.304  0.4135  0.6740  0.2168
 4125SOL     OW16271   4.176   5.382   0.603 -0.0223 -0.5215  0.4483
 4125SOL    HW216272   4.164   5.472   0.573 -0.1162 -0.8530 -0.5456
 4125SOL    HW316273   4.191   5.390   0.698 -0.9321  0.4556  0.5261
 4125SOL    MW416274   4.177   5.395   0.612 -0.1548 -0.4363  0.3274
 4126SOL     OW16275   2.885   3.018   4.599  0.1702  0.6370 -0.6550
 4126SOL    HW216276   2.816   2.983   4.655  0.4127 -0.4636 -1.0234
 4126SOL    HW316277   2.894   3.110   4.626  0.5968  0.0371  1.4241
 4126SOL    MW416278   2.877   3.026   4.610  0.2585  0.4127 -0.4293
 4127SOL     OW16279   3.570   3.196   1.073 -0.1800  0.1271  0.1592
 4127SOL    HW216280   3.499   3.254   1.046 -1.0080 -0.1859  1.5586
 4127SOL    HW316281   3.645   3.254   1.085  0.5487  0.2034 -3.5062
 4127SOL    MW416282   3.570   3.211   1.071 -0.1931  0.0959 -0.1398
 4128SOL     OW16283   0.576   2.176   5.954  0.2497 -0.4453  0.1191
 4128SOL    HW216284   0.658   2.225   5.946 -0.8140  1.2108 -1.3201
 4128SOL    HW316285   0.576   2.116   5.879  0.1627 -0.4827  0.1487
 4128SOL    MW416286   0.587   2.175   5.943  0.0979 -0.2317 -0.0669
 4129SOL     OW16287   2.193   6.098   6.260 -0.2940  0.1041  0.1298
 4129SOL    HW216288   2.250   6.171   6.238  0.2411 -0.9357 -2.2086
 4129SOL    HW316289   2.109   6.118   6.218 -0.1096 -0.6390 -0.6190
 4129SOL    MW416290   2.189   6.110   6.252 -0.1990 -0.1312 -0.2775
 4130SOL     OW16291   2.851   1.560   1.081 -0.3735  0.2890  0.3462
 4130SOL    HW216292   2.813   1.593   0.999  1.5129 -0.1929 -0.8087
 4130SOL    HW316293   2.810   1.612   1.150  0.3866  3.0921 -1.1678
 4130SOL    MW416294   2.841   1.571   1.079 -0.0243  0.5953 -0.0059
 4131SOL     OW16295   1.163   3.475   4.788 -0.0541 -0.9370  0.2230
 4131SOL    HW216296   1.223   3.456   4.716 -1.6395  1.6203 -1.9746
 4131SOL    HW316297   1.203   3.550   4.834 -0.8013 -0.1727 -0.3428
 4131SOL    MW416298   1.176   3.483   4.785 -0.3619 -0.4987 -0.1416
 4132SOL     OW16299   4.855   5.779   1.099 -0.0611 -0.1793  0.4386
 4132SOL    HW216300   4.810   5.695   1.086 -0.5259  0.1053  0.1726
 4132SOL    HW316301   4.871   5.782   1.194  0.2894 -0.7289  0.4028
 4132SOL    MW416302   4.851   5.768   1.110 -0.0762 -0.2142  0.3988
 4133SOL     OW16303   3.166   3.252   5.548 -0.7225 -0.3876  0.1193
 4133SOL    HW216304   3.207   3.338   5.546  0.1345 -0.7973 -1.2616
 4133SOL    HW316305   3.239   3.192   5.566 -0.9262 -1.0167 -1.0934
 4133SOL    MW416306   3.181   3.255   5.550 -0.6363 -0.5247 -0.2229
 4134SOL     OW16307   5.125   2.858   4.402  0.0818 -0.2331 -0.1640
 4134SOL    HW216308   5.121   2.857   4.306 -0.6791  1.7290 -0.1892
 4134SOL    HW316309   5.047   2.810   4.430 -0.5620  0.5524 -0.5623
 4134SOL    MW416310   5.114   2.851   4.393 -0.1035  0.1294 -0.2199
 4135SOL     OW16311   5.511   1.932   0.338 -0.0663 -0.0320  0.2912
 4135SOL    HW216312   5.603   1.915   0.358  0.8992  3.2134 -0.6968
 4135SOL    HW316313   5.503   1.910   0.245 -0.5284 -1.0144  0.5519
 4135SOL    MW416314   5.522   1.927   0.328  0.0001  0.2665  0.1952
 4136SOL     OW16315   1.727   2.944   5.500 -0.4657 -0.7936 -0.3250
 4136SOL    HW216316   1.701   2.946   5.408 -2.1454 -0.2883  0.1174
 4136SOL    HW316317   1.712   3.033   5.530  1.8900 -0.4630  0.0039
 4136SOL    MW416318   1.721   2.956   5.492 -0.3765 -0.6833 -0.2232
 4137SOL     OW16319   0.919   2.819   5.800 -0.3675  0.5541  0.3394
 4137SOL    HW216320   0.948   2.871   5.875  0.8088  1.0423 -0.4078
 4137SOL    HW316321   0.836   2.781   5.827 -1.0928  2.5273  1.0747
 4137SOL    MW416322   0.912   2.821   5.813 -0.3080  0.8788  0.3378
 4138SOL     OW16323   5.653   2.750   2.047 -0.3618  0.2323  1.4088
 4138SOL    HW216324   5.682   2.801   1.971  0.1119 -1.2334  0.5713
 4138SOL    HW316325   5.572   2.793   2.075 -0.2304  1.1542  0.4447
 4138SOL    MW416326   5.646   2.762   2.040 -0.2820  0.1606  1.1711
 4139SOL     OW16327   1.224   3.444   6.074 -0.2854  0.4366 -0.3464
 4139SOL    HW216328   1.225   3.540   6.067 -0.8777  0.5415  0.7371
 4139SOL    HW316329   1.264   3.427   6.159  0.3872 -0.3207 -0.8078
 4139SOL    MW416330   1.229   3.455   6.084 -0.2748  0.3505 -0.2643
 4140SOL     OW16331   1.191   6.265   5.619  0.1825  0.0860 -0.0962
 4140SOL    HW216332   1.254   6.326   5.582  2.3217 -1.4147  0.8458
 4140SOL    HW316333   1.229   6.178   5.604 -1.9025 -0.9354  0.1018
 4140SOL    MW416334   1.204   6.261   5.612  0.1897 -0.2468  0.0542
 4141SOL     OW16335   0.904   2.322   1.926 -0.1913  0.0349 -0.5275
 4141SOL    HW216336   0.854   2.241   1.916 -1.6426  0.5428  1.7926
 4141SOL    HW316337   0.851   2.376   1.984  1.4899  2.0232 -0.7236
 4141SOL    MW416338   0.891   2.318   1.932 -0.1610  0.3643 -0.2473
 4142SOL     OW16339   5.602   1.584   1.153 -0.1243  0.0619 -0.4632
 4142SOL    HW216340   5.624   1.557   1.064  3.0940 -0.7393  0.4260
 4142SOL    HW316341   5.584   1.502   1.199  0.7419  0.2286  0.1862
 4142SOL    MW416342   5.603   1.570   1.148  0.4146 -0.0218 -0.2602
 4143SOL     OW16343   3.048   2.005   5.007 -0.2078  0.5790 -0.3212
 4143SOL    HW216344   3.027   2.097   5.023  0.0911  0.7994 -1.1086
 4143SOL    HW316345   3.109   1.981   5.076  0.2248  1.1686 -0.4933
 4143SOL    MW416346   3.053   2.014   5.018 -0.1113  0.6858 -0.4478
 4144SOL     OW16347   4.953   0.674   1.329  0.4728 -0.2654 -0.2394
 4144SOL    HW216348   4.908   0.641   1.252 -0.7603  2.8368 -1.0371
 4144SOL    HW316349   5.031   0.717   1.295  0.0079  0.9754  0.1869
 4144SOL    MW416350   4.957   0.676   1.315  0.2488  0.3076 -0.2884
 4145SOL     OW16351   0.465   1.119   4.292  0.0843 -0.1717 -0.4717
 4145SOL    HW216352   0.395   1.089   4.349 -1.3030 -0.5226 -2.2842
 4145SOL    HW316353   0.544   1.078   4.327 -0.5695  0.2958  1.6552
 4145SOL    MW416354   0.466   1.110   4.304 -0.1850 -0.1563 -0.4302
 4146SOL     OW16355   1.728   1.184   3.641  0.7236 -0.2488 -0.3809
 4146SOL    HW216356   1.671   1.248   3.600  0.4418  0.2364  0.7139
 4146SOL    HW316357   1.731   1.110   3.580 -0.0862  0.2289 -1.0069
 4146SOL    MW416358   1.721   1.182   3.628  0.5796 -0.1218 -0.3190
 4147SOL     OW16359   2.055   3.873   5.632  0.1324 -0.0065  0.0540
 4147SOL    HW216360   2.115   3.838   5.697  0.7099  1.2951  0.2558
 4147SOL    HW316361   2.111   3.917   5.568 -0.4819 -0.5508 -0.8901
 4147SOL    MW416362   2.070   3.874   5.632  0.1276  0.0934 -0.0440
 4148SOL     OW16363   1.758   5.318   5.063 -0.5789  0.4455 -0.5286
 4148SOL    HW216364   1.823   5.279   5.121 -0.7006  1.8893  0.6424
 4148SOL    HW316365   1.794   5.309   4.975  1.5974  1.8728  0.1488
 4148SOL    MW416366   1.771   5.312   5.059 -0.3078  0.8243 -0.2847
 4149SOL     OW16367   0.852   5.001   1.395 -0.1924  0.1499  0.4450
 4149SOL    HW216368   0.871   5.090   1.365 -0.2082  0.2873  0.8299
 4149SOL    HW316369   0.912   4.945   1.346 -1.5433  0.1440 -1.2862
 4149SOL    MW416370   0.862   5.006   1.385 -0.3727  0.1673  0.2674
 4150SOL     OW16371   2.753   0.093   2.164 -0.3579 -0.1212  0.2842
 4150SOL    HW216372   2.681   0.156   2.158 -1.0242 -0.9997 -2.8114
 4150SOL    HW316373   2.831   0.147   2.177 -1.1782  1.1602  0.0740
 4150SOL    MW416374   2.754   0.109   2.165 -0.5541 -0.0681 -0.1519
 4151SOL     OW16375   3.603   4.930   0.138 -0.0997 -0.3188  0.5222
 4151SOL    HW216376   3.599   4.903   0.230  0.7100  0.1091  0.6960
 4151SOL    HW316377   3.681   4.985   0.133  0.6555 -1.4405 -0.7178
 4151SOL    MW416378   3.613   4.934   0.150  0.1067 -0.4103  0.3816
 4152SOL     OW16379   4.233   3.445   1.349 -0.4897 -0.3248 -0.3671
 4152SOL    HW216380   4.180   3.490   1.284  0.8405  1.9381 -0.0110
 4152SOL    HW316381   4.175   3.380   1.387 -1.8519 -0.4498 -2.5014
 4152SOL    MW416382   4.218   3.443   1.345 -0.4940 -0.0427 -0.6017
 4153SOL     OW16383   5.875   5.446   1.983 -0.0231  0.6537 -0.3843
 4153SOL    HW216384   5.830   5.470   1.903  1.2168  0.7291 -1.0860
 4153SOL    HW316385   5.863   5.521   2.041 -1.3303  0.4009 -0.3135
 4153SOL    MW416386   5.868   5.459   1.980 -0.0319  0.6303 -0.4676
 4154SOL     OW16387   1.072   4.480   0.199  0.0119 -0.1522  0.3346
 4154SOL    HW216388   0.984   4.504   0.228 -0.5248 -0.4675 -0.9647
 4154SOL    HW316389   1.131   4.531   0.256 -0.9431 -1.1070  2.2533
 4154SOL    MW416390   1.068   4.490   0.210 -0.1849 -0.3198  0.4164
 4155SOL     OW16391   4.839   6.031   0.143  0.2394  0.3323 -0.2642
 4155SOL    HW216392   4.791   5.948   0.138  0.0478  0.4767 -0.9697
 4155SOL    HW316393   4.809   6.081   0.067  0.1315  1.1765  0.3184
 4155SOL    MW416394   4.828   6.026   0.132  0.1999  0.4628 -0.2804
 4156SOL     OW16395   1.381   5.636   0.154  0.3537  0.4649  0.2763
 4156SOL    HW216396   1.430   5.697   0.099 -0.1262  0.5538 -0.0507
 4156SOL    HW316397   1.301   5.619   0.106  0.4651 -0.3991  0.3848
 4156SOL    MW416398   1.377   5.642   0.141  0.3051  0.3627  0.2474
 4157SOL     OW16399   5.581   4.691   1.774 -0.9263 -0.2700 -0.0918
 4157SOL    HW216400   5.674   4.676   1.792 -1.2088  0.0306  1.8301
 4157SOL    HW316401   5.568   4.785   1.789 -2.0092 -0.7234  2.2427
 4157SOL    MW416402   5.592   4.702   1.778 -1.1064 -0.2902  0.4698
 4158SOL     OW16403   3.321   6.241   5.026  0.4689 -0.5822 -0.3449
 4158SOL    HW216404   3.310   6.317   4.969  0.2967  0.5702  1.1480
 4158SOL    HW316405   3.415   6.223   5.025  0.6608  0.3438  0.1166
 4158SOL    MW416406   3.332   6.248   5.019  0.4715 -0.3080 -0.0870
 4159SOL     OW16407   2.062   1.289   1.633 -0.3388  0.8621 -0.3158
 4159SOL    HW216408   2.038   1.231   1.561 -1.8847 -0.5791  1.2633
 4159SOL    HW316409   2.149   1.258   1.661  0.2454  1.3975 -1.4631
 4159SOL    MW416410   2.071   1.277   1.627 -0.4657  0.7426 -0.2588
 4160SOL     OW16411   1.021   2.135   0.208 -0.0378  0.5472  0.2616
 4160SOL    HW216412   0.992   2.218   0.169  0.0942  0.5471  0.1624
 4160SOL    HW316413   0.942   2.080   0.209 -0.4621  1.1178  1.5323
 4160SOL    MW416414   1.006   2.139   0.203 -0.0764  0.6225  0.4162
 4161SOL     OW16415   2.248   0.189   2.939  0.5851 -0.2095  0.6460
 4161SOL    HW216416   2.207   0.215   2.856 -0.3862  0.0595  1.2003
 4161SOL    HW316417   2.188   0.220   3.006  1.6113  0.0045  1.4770
 4161SOL    MW416418   2.234   0.196   2.937  0.5924 -0.1457  0.8287
 4162SOL     OW16419   3.914   0.286   0.715  0.1499 -0.1143 -0.4723
 4162SOL    HW216420   3.893   0.224   0.784  3.1645 -1.1718 -0.3357
 4162SOL    HW316421   3.941   0.365   0.761  0.6505 -0.2832 -0.4670
 4162SOL    MW416422   3.915   0.288   0.730  0.6137 -0.2761 -0.4536
 4163SOL     OW16423   1.561   4.977   2.329 -0.2555  0.5162 -0.5020
 4163SOL    HW216424   1.555   5.005   2.421 -0.0083  1.5657 -0.7914
 4163SOL    HW316425   1.618   4.900   2.331  0.0933  0.7869  0.1723
 4163SOL    MW416426   1.568   4.971   2.341 -0.1769  0.6904 -0.4512
 4164SOL     OW16427   4.798   3.775   5.287  0.5840  0.3209  0.2088
 4164SOL    HW216428   4.847   3.797   5.208 -0.2370  0.3223 -0.3144
 4164SOL    HW316429   4.862   3.731   5.344  0.7470 -1.4375 -1.2275
 4164SOL    MW416430   4.813   3.772   5.285  0.4972  0.0891 -0.0498
 4165SOL     OW16431   1.291   5.569   2.084 -0.0036  0.5326 -0.3416
 4165SOL    HW216432   1.231   5.538   2.017  0.4721  0.9094 -0.9490
 4165SOL    HW316433   1.242   5.636   2.131 -0.4790 -0.0183 -0.0437
 4165SOL    MW416434   1.277   5.574   2.082 -0.0036  0.5096 -0.3824
 4166SOL     OW16435   3.769   2.180   3.190 -0.4714 -0.4217 -0.5848
 4166SOL    HW216436   3.813   2.103   3.228 -0.8396 -0.5306 -0.3763
 4166SOL    HW316437   3.694   2.195   3.246  1.6664  2.5151  1.8427
 4166SOL    MW416438   3.765   2.172   3.202 -0.2379 -0.0486 -0.2370
 4167SOL     OW16439   5.089   2.619   3.327  0.1386 -0.6787  0.1982
 4167SOL    HW216440   5.051   2.628   3.239  0.3074  0.1042  0.1906
 4167SOL    HW316441   5.066   2.531   3.354  0.0494 -0.9209 -0.6211
 4167SOL    MW416442   5.081   2.609   3.319  0.1491 -0.6073  0.0891
 4168SOL     OW16443   0.634   5.010   3.951  0.3642  0.3765 -0.7254
 4168SOL    HW216444   0.669   4.921   3.951 -2.7598 -1.0032  0.2652
 4168SOL    HW316445   0.557   5.005   3.895 -0.2383  2.3132 -0.1502
 4168SOL    MW416446   0.628   4.997   3.944 -0.1275  0.4500 -0.5188
 4169SOL     OW16447   0.025   0.472   5.128 -0.6292  0.0307 -0.0332
 4169SOL    HW216448   0.033   0.551   5.182 -0.2902  0.5005 -0.7474
 4169SOL    HW316449  -0.047   0.491   5.068 -1.5649 -0.8200  0.7783
 4169SOL    MW416450   0.016   0.485   5.127 -0.7080 -0.0196 -0.0204
 4170SOL     OW16451   4.800   2.157   5.135 -0.0568  0.1914  0.1287
 4170SOL    HW216452   4.716   2.134   5.174 -0.4238  1.1947 -0.0207
 4170SOL    HW316453   4.860   2.088   5.163 -0.8380 -0.3180  0.5763
 4170SOL    MW416454   4.797   2.145   5.144 -0.2083  0.2566  0.1680
 4171SOL     OW16455   4.485   5.196   1.959  0.0806 -0.1043  0.3372
 4171SOL    HW216456   4.432   5.215   1.881  0.4479 -0.8691 -0.1135
 4171SOL    HW316457   4.573   5.226   1.937  0.0035  0.4952  0.8093
 4171SOL    MW416458   4.489   5.202   1.946  0.1189 -0.1261  0.3400
 4172SOL     OW16459   0.026   0.971   1.726 -0.1287  0.1036  0.5189
 4172SOL    HW216460  -0.048   0.942   1.778 -0.0072 -0.3084  0.4667
 4172SOL    HW316461   0.058   1.049   1.771 -0.4786  0.1789  0.6420
 4172SOL    MW416462   0.021   0.977   1.739 -0.1589  0.0592  0.5283
 4173SOL     OW16463   1.324   3.778   5.700  0.1461 -0.1172  0.3491
 4173SOL    HW216464   1.284   3.693   5.682  1.7387 -0.5264 -1.6230
 4173SOL    HW316465   1.343   3.815   5.614  3.2175  0.3874  1.1148
 4173SOL    MW416466   1.321   3.772   5.686  0.7615 -0.1046  0.1899
 4174SOL     OW16467   4.493   2.178   2.260 -0.2982  0.1672  0.1093
 4174SOL    HW216468   4.495   2.273   2.249 -1.0825  0.2530  0.6446
 4174SOL    HW316469   4.585   2.154   2.274 -0.1150  0.8658  0.1573
 4174SOL    MW416470   4.506   2.187   2.261 -0.3775  0.2707  0.1863
 4175SOL     OW16471   3.023   5.003   3.942  0.3713  0.6658 -0.2470
 4175SOL    HW216472   3.039   5.081   3.888  0.7287  1.0210  0.3608
 4175SOL    HW316473   3.110   4.966   3.958  0.4876  1.5954  1.5785
 4175SOL    MW416474   3.037   5.009   3.937  0.4338  0.8353  0.0740
 4176SOL     OW16475   5.857   2.473   2.480  0.3392 -0.1672  0.0082
 4176SOL    HW216476   5.913   2.464   2.558  2.1879 -1.2988 -1.3719
 4176SOL    HW316477   5.912   2.515   2.415 -0.3044 -1.4908 -1.4796
 4176SOL    MW416478   5.872   2.477   2.482  0.4982 -0.4911 -0.3702
 4177SOL     OW16479   0.082   5.211   5.262  0.2317  0.0930  0.0642
 4177SOL    HW216480   0.138   5.212   5.184 -0.2557  0.0771 -0.2870
 4177SOL    HW316481  -0.004   5.183   5.230 -0.0589  0.4109  0.5496
 4177SOL    MW416482   0.078   5.207   5.248  0.1291  0.1328  0.0819
 4178SOL     OW16483   5.268   3.920   5.618 -0.2089 -0.5246  0.0775
 4178SOL    HW216484   5.228   4.006   5.624 -1.4391 -1.0634 -0.1743
 4178SOL    HW316485   5.295   3.900   5.708  0.4419  0.2662  0.0715
 4178SOL    MW416486   5.266   3.928   5.631 -0.2853 -0.4914  0.0435
 4179SOL     OW16487   5.059   2.525   1.496  0.2143 -0.4626  0.4513
 4179SOL    HW216488   5.079   2.594   1.434 -0.0081 -1.4987 -0.8374
 4179SOL    HW316489   4.966   2.538   1.517 -0.5692 -1.7789 -1.7747
 4179SOL    MW416490   5.049   2.536   1.491  0.0816 -0.7730 -0.0124
 4180SOL     OW16491   5.847   5.363   3.578  0.0969  0.4433 -0.2141
 4180SOL    HW216492   5.808   5.379   3.664 -0.3425 -0.9144 -0.1412
 4180SOL    HW316493   5.906   5.437   3.564 -0.1549  0.9033  1.0620
 4180SOL    MW416494   5.850   5.375   3.587  0.0057  0.3248 -0.0361
 4181SOL     OW16495   1.119   5.922   0.780  0.1313  0.3173  0.1591
 4181SOL    HW216496   1.163   5.845   0.814  1.6952  1.1708  0.1743
 4181SOL    HW316497   1.076   5.961   0.857 -0.7514 -0.5556  0.1305
 4181SOL    MW416498   1.119   5.917   0.795  0.2212  0.3147  0.1573
 4182SOL     OW16499   2.050   2.254   0.487 -0.5595 -0.0139 -0.3097
 4182SOL    HW216500   2.080   2.343   0.510 -1.9896  0.2583  0.6773
 4182SOL    HW316501   1.975   2.239   0.545 -0.4231 -1.8358 -0.5516
 4182SOL    MW416502   2.044   2.264   0.498 -0.7302 -0.2184 -0.2114
 4183SOL     OW16503   0.307   0.302   1.440  0.2364  0.2401  0.1038
 4183SOL    HW216504   0.308   0.394   1.412 -3.1651 -0.1143 -1.8496
 4183SOL    HW316505   0.384   0.263   1.398  1.7919  2.1633  1.0503
 4183SOL    MW416506   0.317   0.309   1.430 -0.0071  0.4471 -0.0291
 4184SOL     OW16507   3.564   2.185   2.342  0.2352 -0.0395  0.2982
 4184SOL    HW216508   3.559   2.144   2.428 -0.1240 -0.0091  0.2924
 4184SOL    HW316509   3.656   2.211   2.333  0.6894 -1.6271 -0.0645
 4184SOL    MW416510   3.576   2.183   2.352  0.2477 -0.2450  0.2495
 4185SOL     OW16511   1.678   1.910   4.922 -0.2224 -0.2126 -0.1462
 4185SOL    HW216512   1.591   1.914   4.962 -0.3115  0.7685 -0.4210
 4185SOL    HW316513   1.671   1.962   4.842  0.9307  0.9683  0.4634
 4185SOL    MW416514   1.666   1.917   4.917 -0.0821  0.0727 -0.1020
 4186SOL     OW16515   4.439   4.679   2.445  0.8281 -0.3365  0.0949
 4186SOL    HW216516   4.445   4.662   2.351  0.0547  0.6040 -0.1415
 4186SOL    HW316517   4.377   4.752   2.453  1.1786 -0.1366  1.3051
 4186SOL    MW416518   4.431   4.686   2.434  0.7723 -0.1860  0.2234
 4187SOL     OW16519   4.234   5.080   0.786 -0.1989 -0.8856 -0.2261
 4187SOL    HW216520   4.279   5.041   0.711 -0.2022  0.3746 -0.9165
 4187SOL    HW316521   4.143   5.087   0.757 -0.0501  0.3668 -0.4541
 4187SOL    MW416522   4.228   5.076   0.772 -0.1797 -0.5541 -0.3473
 4188SOL     OW16523   5.838   2.633   3.187 -0.4995 -0.2829  0.4796
 4188SOL    HW216524   5.754   2.675   3.173 -0.7810 -0.4844  1.4576
 4188SOL    HW316525   5.882   2.636   3.102  0.1611  3.3898  0.7730
 4188SOL    MW416526   5.833   2.639   3.174 -0.4495  0.1751  0.6473
 4189SOL     OW16527   1.070   6.239   3.753  0.0165 -0.1733  0.3204
 4189SOL    HW216528   1.096   6.243   3.661 -1.3724  1.2678 -0.0557
 4189SOL    HW316529   1.095   6.151   3.781 -2.3210 -1.8960 -2.3525
 4189SOL    MW416530   1.076   6.227   3.745 -0.4751 -0.2105 -0.0819
 4190SOL     OW16531   1.770   5.874   4.116 -0.2009  0.7110 -0.0330
 4190SOL    HW216532   1.775   5.903   4.025  1.7151  0.3161 -0.0878
 4190SOL    HW316533   1.850   5.907   4.156 -1.1803  1.1809  1.6250
 4190SOL    MW416534   1.781   5.882   4.109 -0.0773  0.7209  0.1785
 4191SOL     OW16535   5.966   2.978   5.080  0.3281  0.2360  0.1567
 4191SOL    HW216536   5.942   2.967   5.173 -1.1430 -0.5756 -0.2721
 4191SOL    HW316537   6.060   2.961   5.077  0.5320  0.9693  1.5967
 4191SOL    MW416538   5.975   2.974   5.092  0.1609  0.2257  0.2902
 4192SOL     OW16539   2.314   1.693   5.058  0.0212 -0.6225 -0.2126
 4192SOL    HW216540   2.378   1.761   5.080 -1.6341  1.0889 -0.3921
 4192SOL    HW316541   2.318   1.686   4.963 -0.0148 -0.5578 -0.2189
 4192SOL    MW416542   2.323   1.701   5.048 -0.2019 -0.3882 -0.2371
 4193SOL     OW16543   2.807   2.915   0.713 -0.3815 -0.5757  0.3104
 4193SOL    HW216544   2.778   2.905   0.803  1.4920 -1.5819  0.8390
 4193SOL    HW316545   2.810   3.010   0.699 -1.1945 -0.4215  1.1091
 4193SOL    MW416546   2.803   2.926   0.723 -0.2416 -0.6881  0.4856
 4194SOL     OW16547   5.201   4.136   1.732  0.2776 -1.0260  0.3498
 4194SOL    HW216548   5.138   4.160   1.664  2.0136 -0.8638 -1.2672
 4194SOL    HW316549   5.162   4.169   1.813 -0.9045  0.6411 -0.8254
 4194SOL    MW416550   5.187   4.143   1.734  0.3507 -0.7846 -0.0186
 4195SOL     OW16551   4.271   0.469   3.660 -0.3017  1.0306 -0.5122
 4195SOL    HW216552   4.200   0.492   3.720 -0.4256 -0.6156  0.0343
 4195SOL    HW316553   4.232   0.405   3.601  0.8650 -0.4468  0.2430
 4195SOL    MW416554   4.256   0.463   3.660 -0.1641  0.6185 -0.3405
 4196SOL     OW16555   2.384   1.271   2.909 -0.0736  0.6006  0.8197
 4196SOL    HW216556   2.313   1.315   2.956 -0.8580 -0.3038  0.5058
 4196SOL    HW316557   2.426   1.216   2.975 -2.2496 -1.9983  0.1956
 4196SOL    MW416558   2.380   1.270   2.924 -0.4642  0.1384  0.6960
 4197SOL     OW16559   5.226   0.108   2.761  0.4282 -0.3087 -0.2448
 4197SOL    HW216560   5.276   0.172   2.810 -2.4082  0.6581  1.5910
 4197SOL    HW316561   5.176   0.159   2.698 -1.0413 -0.7693  0.5024
 4197SOL    MW416562   5.226   0.123   2.759 -0.1399 -0.2419  0.0960
 4198SOL     OW16563   2.254   4.214   0.148 -0.2411 -0.3136  0.2107
 4198SOL    HW216564   2.171   4.260   0.142  0.7470  1.4763 -0.6995
 4198SOL    HW316565   2.284   4.208   0.057  0.7197 -0.7234  0.5464
 4198SOL    MW416566   2.247   4.219   0.135  0.0160 -0.1315  0.1349
 4199SOL     OW16567   4.697   1.161   2.086  0.3753  0.3909 -0.6342
 4199SOL    HW216568   4.771   1.218   2.104  1.3601 -1.1609  0.4404
 4199SOL    HW316569   4.676   1.122   2.170  0.7147 -1.9600 -1.5759
 4199SOL    MW416570   4.704   1.164   2.099  0.5500 -0.1240 -0.6167
 4200SOL     OW16571   4.512   1.276   2.569  0.0426  0.0128 -0.1110
 4200SOL    HW216572   4.426   1.298   2.604 -0.1105  0.3909 -0.7054
 4200SOL    HW316573   4.570   1.278   2.645 -0.9090 -2.9226  0.8206
 4200SOL    MW416574   4.508   1.279   2.584 -0.1031 -0.3246 -0.0665
 4201SOL     OW16575   5.633   6.373   5.053  0.5559 -0.1487  0.0042
 4201SOL    HW216576   5.598   6.290   5.020  1.4325 -0.1712 -0.9049
 4201SOL    HW316577   5.557   6.417   5.091  0.0126 -1.2206  0.1973
 4201SOL    MW416578   5.619   6.368   5.053  0.5999 -0.2931 -0.0903
 4202SOL     OW16579   1.833   4.081   2.445  0.1450 -0.0900  0.1837
 4202SOL    HW216580   1.892   4.145   2.405 -0.4480 -0.8423 -2.0456
 4202SOL    HW316581   1.747   4.123   2.442 -0.2017 -0.8124 -1.0467
 4202SOL    MW416582   1.829   4.095   2.439  0.0210 -0.2846 -0.2728
 4203SOL     OW16583   5.688   5.962   4.505  0.5312 -0.8682  0.1522
 4203SOL    HW216584   5.627   6.022   4.549  1.4912 -0.9981  1.7429
 4203SOL    HW316585   5.653   5.875   4.522  0.2737 -0.8747 -0.3744
 4203SOL    MW416586   5.675   5.958   4.513  0.6239 -0.8862  0.2926
 4204SOL     OW16587   3.380   1.305   2.336 -0.4040 -0.5130  0.1253
 4204SOL    HW216588   3.440   1.235   2.364  0.0539  0.1483  0.8317
 4204SOL    HW316589   3.434   1.361   2.281  0.5658  1.7661  3.1551
 4204SOL    MW416590   3.395   1.303   2.332 -0.2157 -0.1251  0.6182
 4205SOL     OW16591   6.048   5.115   5.335 -0.0447  0.0520  0.3293
 4205SOL    HW216592   5.981   5.116   5.267  1.4608 -0.0290 -1.2093
 4205SOL    HW316593   6.050   5.024   5.366  1.2351 -0.6476 -1.6173
 4205SOL    MW416594   6.039   5.103   5.330  0.3228 -0.0510 -0.1305
 4206SOL     OW16595   2.943   5.555   5.316 -0.2213  0.6819 -0.0325
 4206SOL    HW216596   2.937   5.625   5.380 -0.7092  0.1131  0.5555
 4206SOL    HW316597   3.017   5.580   5.260 -1.4495  2.5300 -0.9188
 4206SOL    MW416598   2.952   5.568   5.317 -0.4477  0.8507 -0.0718
 4207SOL     OW16599   5.096   1.676   0.225 -0.0735  0.1876 -0.7426
 4207SOL    HW216600   5.082   1.680   0.320 -0.7554  2.0258 -0.8867
 4207SOL    HW316601   5.016   1.712   0.187  1.6145  3.1610 -1.8436
 4207SOL    MW416602   5.084   1.682   0.233  0.0592  0.8224 -0.9069
 4208SOL     OW16603   0.671   5.150   0.496  0.5062 -0.2077  0.4512
 4208SOL    HW216604   0.737   5.082   0.486  0.4710 -0.2831  0.7119
 4208SOL    HW316605   0.611   5.138   0.422  2.3603  1.6635 -1.5160
 4208SOL    MW416606   0.671   5.139   0.485  0.7462  0.0293  0.2260
 4209SOL     OW16607   2.094   5.403   0.178  0.3358  0.0641 -0.1149
 4209SOL    HW216608   2.076   5.334   0.114  1.9893  0.1599 -0.7271
 4209SOL    HW316609   2.131   5.475   0.126  0.9992  0.4365  0.8534
 4209SOL    MW416610   2.096   5.404   0.163  0.6415  0.1258 -0.0679
 4210SOL     OW16611   5.810   1.709   0.212 -0.2262  0.0221 -0.4138
 4210SOL    HW216612   5.804   1.755   0.128 -0.0285 -0.7611 -0.8725
 4210SOL    HW316613   5.734   1.650   0.211  0.8120 -1.3693 -0.9201
 4210SOL    MW416614   5.799   1.707   0.200 -0.0632 -0.2648 -0.5411
 4211SOL     OW16615   3.853   3.372   1.601  0.1640  0.0444  0.6323
 4211SOL    HW216616   3.896   3.379   1.686  1.0560 -2.1522  0.4260
 4211SOL    HW316617   3.916   3.326   1.545 -1.3566 -0.8234 -0.4694
 4211SOL    MW416618   3.867   3.367   1.605  0.0811 -0.3599  0.4598
 4212SOL     OW16619   1.868   0.410   5.995 -0.5618 -0.1854  0.4678
 4212SOL    HW216620   1.815   0.362   5.931  0.3479  1.1971 -1.4266
 4212SOL    HW316621   1.809   0.477   6.030 -0.4670  0.5371 -0.6975
 4212SOL    MW416622   1.853   0.413   5.991 -0.4292  0.0923  0.0641
 4213SOL     OW16623   1.027   5.842   3.348 -0.0182  0.2522 -0.2327
 4213SOL    HW216624   1.050   5.890   3.428  0.4985 -1.2546  0.5622
 4213SOL    HW316625   1.008   5.753   3.378 -2.3810  0.2580 -1.4649
 4213SOL    MW416626   1.028   5.837   3.363 -0.2618  0.0541 -0.2904
 4214SOL     OW16627   1.360   4.445   1.503  0.0416 -0.4375 -0.3224
 4214SOL    HW216628   1.435   4.390   1.521  0.4141  0.6556  1.9663
 4214SOL    HW316629   1.284   4.390   1.523  0.4027 -0.2432  1.8244
 4214SOL    MW416630   1.360   4.431   1.508  0.1384 -0.2677  0.2628
 4215SOL     OW16631   4.134   3.696   1.517 -0.0718  0.0164 -0.8182
 4215SOL    HW216632   4.153   3.616   1.470  0.1573  0.4124 -1.4096
 4215SOL    HW316633   4.204   3.756   1.492 -0.5880  0.6030 -0.8738
 4215SOL    MW416634   4.146   3.694   1.507 -0.1097  0.1461 -0.9035
 4216SOL     OW16635   1.157   3.425   2.768  0.6420 -0.2795  0.2300
 4216SOL    HW216636   1.153   3.330   2.762  1.6492 -0.2539 -2.6260
 4216SOL    HW316637   1.072   3.451   2.804  0.0321 -2.1923  0.2728
 4216SOL    MW416638   1.145   3.416   2.772  0.6944 -0.5285 -0.1412
 4217SOL     OW16639   5.964   6.143   1.241 -0.3604 -0.3841  0.0962
 4217SOL    HW216640   5.915   6.208   1.292 -2.2368 -1.4307 -0.2832
 4217SOL    HW316641   5.901   6.073   1.226  1.4274 -2.0247 -0.0407
 4217SOL    MW416642   5.949   6.143   1.246 -0.3721 -0.7386  0.0281
 4218SOL     OW16643   5.233   0.839   1.306  0.4398 -0.1248 -0.2227
 4218SOL    HW216644   5.291   0.859   1.380  2.0727 -0.9336 -1.2273
 4218SOL    HW316645   5.178   0.917   1.297  0.0069 -0.0953  1.9749
 4218SOL    MW416646   5.233   0.852   1.315  0.5981 -0.2276 -0.0653
 4219SOL     OW16647   6.053   0.419   6.188 -0.2686  0.0035  0.1302
 4219SOL    HW216648   6.116   0.483   6.156 -0.8204  0.3278 -0.3380
 4219SOL    HW316649   6.094   0.381   6.265  0.3981  0.3679 -0.0339
 4219SOL    MW416650   6.066   0.422   6.194 -0.2534  0.0944  0.0468
 4220SOL     OW16651   0.701   1.491   4.878 -0.4666  0.3746  0.2486
 4220SOL    HW216652   0.734   1.506   4.967 -2.1655 -1.9181  1.3873
 4220SOL    HW316653   0.684   1.397   4.875  1.0504  0.0751 -3.1283
 4220SOL    MW416654   0.703   1.480   4.890 -0.4906  0.0326 -0.0467
 4221SOL     OW16655   5.468   3.387   5.105 -0.0132  0.1991  0.0199
 4221SOL    HW216656   5.463   3.293   5.086  0.1680  0.1439  0.2327
 4221SOL    HW316657   5.502   3.391   5.195 -0.3734  0.4614  0.1466
 4221SOL    MW416658   5.472   3.375   5.115 -0.0368  0.2264  0.0647
 4222SOL     OW16659   5.135   3.575   3.311 -0.3465  0.3830  0.6686
 4222SOL    HW216660   5.040   3.568   3.324 -0.3195 -1.2950  0.1325
 4222SOL    HW316661   5.173   3.524   3.384  0.1538  1.1169  0.9319
 4222SOL    MW416662   5.127   3.567   3.323 -0.2769  0.2584  0.6326
 4223SOL     OW16663   4.966   0.198   3.944  0.0223 -0.0234 -0.6922
 4223SOL    HW216664   4.998   0.125   3.996 -2.5841 -0.5943  0.2620
 4223SOL    HW316665   4.909   0.247   4.003 -1.5181  0.4038 -2.4261
 4223SOL    MW416666   4.962   0.195   3.959 -0.5248 -0.0424 -0.7951
 4224SOL     OW16667   0.366   1.745   6.382  0.1900 -0.0236  0.2456
 4224SOL    HW216668   0.342   1.819   6.327  1.1245  0.4773  0.4893
 4224SOL    HW316669   0.313   1.672   6.350 -0.7172  0.7392 -0.0154
 4224SOL    MW416670   0.356   1.745   6.371  0.1936  0.1431  0.2433
 4225SOL     OW16671   2.109   4.065   3.130  0.4142 -0.2803  0.2002
 4225SOL    HW216672   2.077   4.155   3.119  0.4489 -0.0191  1.9444
 4225SOL    HW316673   2.178   4.056   3.064 -0.2916  0.6095 -0.6949
 4225SOL    MW416674   2.114   4.076   3.119  0.3257 -0.1284  0.3122
 4226SOL     OW16675   1.255   3.834   2.175  0.1548  0.2099 -0.3386
 4226SOL    HW216676   1.171   3.798   2.205  0.6064  0.9928  2.0756
 4226SOL    HW316677   1.321   3.773   2.209  0.6761  0.9670  0.0419
 4226SOL    MW416678   1.253   3.821   2.184  0.2831  0.4131  0.0301
 4227SOL     OW16679   0.079   3.012   6.298  0.0860 -0.3192  0.5606
 4227SOL    HW216680   0.109   3.081   6.239 -0.8884  0.9814  1.5052
 4227SOL    HW316681   0.040   3.060   6.372 -1.8426 -1.8582  0.6285
 4227SOL    MW416682   0.078   3.028   6.300 -0.2970 -0.3507  0.6942
 4228SOL     OW16683   2.758   1.756   6.423  0.0941  0.2021  0.1456
 4228SOL    HW216684   2.819   1.707   6.369  1.5819  0.7612  1.2474
 4228SOL    HW316685   2.677   1.705   6.422  0.9456 -1.1618 -0.4228
 4228SOL    MW416686   2.755   1.743   6.416  0.4028  0.0959  0.2159
 4229SOL     OW16687   6.331   4.563   2.176 -0.3458  0.4446 -0.1409
 4229SOL    HW216688   6.281   4.499   2.126 -0.4023  0.7637 -0.5014
 4229SOL    HW316689   6.266   4.617   2.221 -0.4190  1.7111 -1.6567
 4229SOL    MW416690   6.316   4.562   2.175 -0.3629  0.6538 -0.3885
 4230SOL     OW16691   5.938   2.973   4.035  0.4106  0.2801 -0.0850
 4230SOL    HW216692   5.989   2.895   4.056 -0.8788 -0.7930 -0.7795
 4230SOL    HW316693   5.962   3.037   4.102  1.2506 -0.8250  0.6913
 4230SOL    MW416694   5.948   2.971   4.046  0.3513 -0.0073 -0.0742
 4231SOL     OW16695   4.108   3.553   6.013  0.3098  0.4194 -0.3679
 4231SOL    HW216696   4.134   3.609   5.941  2.3161  1.1818  0.8661
 4231SOL    HW316697   4.108   3.611   6.090 -1.6898 -0.3701  0.2940
 4231SOL    MW416698   4.111   3.568   6.014  0.3107  0.4158 -0.1178
 4232SOL     OW16699   3.712   5.490   3.530 -0.0138  0.0008 -0.4374
 4232SOL    HW216700   3.794   5.448   3.503 -0.7490 -0.6987 -1.7022
 4232SOL    HW316701   3.685   5.541   3.454 -0.8055  0.1278 -0.0807
 4232SOL    MW416702   3.719   5.491   3.516 -0.2152 -0.0748 -0.5572
 4233SOL     OW16703   3.124   1.496   3.781 -0.2017  0.4141 -0.0952
 4233SOL    HW216704   3.073   1.491   3.863 -0.2138 -1.1878 -0.1619
 4233SOL    HW316705   3.085   1.429   3.725  0.3126  0.9647 -1.1393
 4233SOL    MW416706   3.112   1.487   3.785 -0.1354  0.2754 -0.2418
 4234SOL     OW16707   0.286   2.102   1.702 -0.5920 -0.7032 -0.0915
 4234SOL    HW216708   0.369   2.145   1.726 -0.3660 -1.5408  0.6753
 4234SOL    HW316709   0.219   2.151   1.750 -0.3780 -0.9404  0.4573
 4234SOL    MW416710   0.288   2.114   1.711 -0.5340 -0.8450  0.0821
 4235SOL     OW16711   3.098   1.920   0.223 -0.7623 -0.6857 -1.0670
 4235SOL    HW216712   3.103   2.011   0.253 -0.1914 -0.5147 -1.6469
 4235SOL    HW316713   3.133   1.869   0.296  0.0994 -0.3229 -1.2072
 4235SOL    MW416714   3.103   1.925   0.237 -0.5733 -0.6152 -1.1620
 4236SOL     OW16715   4.983   6.425   2.892  0.0557  0.4635 -0.3566
 4236SOL    HW216716   4.908   6.462   2.846 -0.2862  1.1611  0.7364
 4236SOL    HW316717   5.058   6.475   2.859 -0.0960  0.5241 -0.6159
 4236SOL    MW416718   4.983   6.437   2.881 -0.0094  0.5635 -0.2466
 4237SOL     OW16719   3.667   5.762   1.035  0.6995 -0.2823  0.6214
 4237SOL    HW216720   3.651   5.831   1.100  1.8356 -0.2818  0.9256
 4237SOL    HW316721   3.637   5.682   1.078 -1.0030  0.0400  0.1130
 4237SOL    MW416722   3.661   5.761   1.049  0.6248 -0.2397  0.5945
 4238SOL     OW16723   1.629   3.167   5.094  0.2242 -0.0133 -0.1831
 4238SOL    HW216724   1.663   3.145   5.007  1.2581  0.7039  0.0149
 4238SOL    HW316725   1.535   3.180   5.081  0.4261  0.4629 -1.2650
 4238SOL    MW416726   1.621   3.166   5.081  0.3872  0.1441 -0.2997
 4239SOL     OW16727   5.555   1.389   0.670  0.4400  0.1103 -0.1690
 4239SOL    HW216728   5.613   1.339   0.728 -1.3361  1.5778  3.1901
 4239SOL    HW316729   5.513   1.323   0.616 -0.1640 -1.8982  2.5184
 4239SOL    MW416730   5.557   1.374   0.671  0.1260  0.0389  0.6288
 4240SOL     OW16731   3.761   3.513   0.402 -0.1809 -0.0376  0.5214
 4240SOL    HW216732   3.694   3.503   0.335 -0.6249  0.5508  0.8719
 4240SOL    HW316733   3.833   3.458   0.372  0.1934  1.2925 -1.1776
 4240SOL    MW416734   3.762   3.504   0.390 -0.1901  0.2155  0.3435
 4241SOL     OW16735   6.188   2.693   1.427 -0.0137  0.0166  0.1462
 4241SOL    HW216736   6.211   2.667   1.338 -2.1253 -0.2474 -0.3755
 4241SOL    HW316737   6.181   2.788   1.423  2.3157  0.2717  0.6980
 4241SOL    MW416738   6.190   2.702   1.415  0.0151  0.0154  0.1502
 4242SOL     OW16739   5.090   1.469   5.902 -0.1305  0.5231 -0.1482
 4242SOL    HW216740   5.084   1.488   5.995  1.1548 -0.0010  0.0660
 4242SOL    HW316741   5.046   1.385   5.891 -0.0829  0.4746  0.0339
 4242SOL    MW416742   5.084   1.460   5.913  0.0454  0.4476 -0.0959
 4243SOL     OW16743   4.053   0.989   5.817  0.5022  0.1163 -0.5024
 4243SOL    HW216744   4.009   0.904   5.806  1.4827 -0.3772 -0.6730
 4243SOL    HW316745   4.113   0.976   5.890  0.8802  0.5734 -0.7286
 4243SOL    MW416746   4.055   0.976   5.825  0.6814  0.1115 -0.5548
 4244SOL     OW16747   5.844   3.134   0.176 -0.4811  0.1497  0.1602
 4244SOL    HW216748   5.854   3.195   0.249 -0.2752  1.1562 -0.6757
 4244SOL    HW316749   5.766   3.165   0.129  0.4712  0.7109 -1.1164
 4244SOL    MW416750   5.835   3.146   0.179 -0.3283  0.3565 -0.1185
 4245SOL     OW16751   1.337   2.203   1.752  0.8162 -0.1382  0.3062
 4245SOL    HW216752   1.355   2.109   1.746  1.6712  0.0847 -1.1759
 4245SOL    HW316753   1.294   2.224   1.669  1.4262  0.9415  0.2520
 4245SOL    MW416754   1.333   2.193   1.740  1.0095  0.0337  0.1035
 4246SOL     OW16755   4.307   0.443   4.091  0.0062  0.0920  0.3384
 4246SOL    HW216756   4.301   0.364   4.037  1.1672 -0.2222  0.6397
 4246SOL    HW316757   4.216   0.463   4.113 -0.3652 -0.7121 -0.3849
 4246SOL    MW416758   4.294   0.435   4.087  0.1104 -0.0556  0.2827
 4247SOL     OW16759   6.020   6.274   0.966  0.5602 -0.4335  0.1900
 4247SOL    HW216760   6.019   6.203   1.030  0.7750  0.8352  1.6638
 4247SOL    HW316761   5.957   6.247   0.900  2.5836 -3.2714 -0.7998
 4247SOL    MW416762   6.012   6.261   0.966  0.8555 -0.6406  0.2538
 4248SOL     OW16763   0.176   0.382   5.636  0.0865 -0.2638  1.2442
 4248SOL    HW216764   0.250   0.342   5.681  0.9813 -0.2885 -0.1900
 4248SOL    HW316765   0.215   0.430   5.563 -1.4530 -2.9221 -1.5404
 4248SOL    MW416766   0.191   0.383   5.632  0.0015 -0.6178  0.6876
 4249SOL     OW16767   3.673   4.806   6.090 -0.3054 -0.2446 -0.1260
 4249SOL    HW216768   3.581   4.799   6.115 -0.8376 -0.0931 -1.8710
 4249SOL    HW316769   3.689   4.900   6.083  0.6618 -0.1611  2.3168
 4249SOL    MW416770   3.663   4.817   6.092 -0.2480 -0.2136 -0.0339
 4250SOL     OW16771   0.472   3.537   1.895 -0.3744  0.1179 -0.5057
 4250SOL    HW216772   0.548   3.534   1.838 -0.9446 -0.7461 -1.2470
 4250SOL    HW316773   0.405   3.583   1.844 -0.7446 -0.2506 -0.3574
 4250SOL    MW416774   0.473   3.543   1.881 -0.4985 -0.0447 -0.5840
 4251SOL     OW16775   4.120   1.969   5.392  0.4310 -0.1682  0.0797
 4251SOL    HW216776   4.142   2.060   5.374  0.6923 -0.0959  0.7557
 4251SOL    HW316777   4.082   1.970   5.480 -1.5491 -0.3992 -0.7191
 4251SOL    MW416778   4.118   1.981   5.401  0.2042 -0.1891  0.0635
 4252SOL     OW16779   4.876   4.359   4.573  0.4798  0.1787  0.3892
 4252SOL    HW216780   4.808   4.394   4.631  0.5274  2.4161 -0.8005
 4252SOL    HW316781   4.839   4.277   4.539 -1.7215  1.4076 -0.3473
 4252SOL    MW416782   4.862   4.353   4.576  0.1957  0.6361  0.1351
 4253SOL     OW16783   1.220   3.258   3.959  0.1538  0.1276  0.0868
 4253SOL    HW216784   1.204   3.332   3.900  1.9211  0.6652  0.2012
 4253SOL    HW316785   1.211   3.296   4.047  1.9725  0.5159  0.1622
 4253SOL    MW416786   1.217   3.273   3.963  0.6269  0.2498  0.1118
 4254SOL     OW16787   3.625   3.985   4.891 -0.3857 -0.1606 -0.0702
 4254SOL    HW216788   3.625   3.999   4.796  0.2770 -0.7586 -0.1634
 4254SOL    HW316789   3.679   3.907   4.904 -0.0295  0.2295  0.8507
 4254SOL    MW416790   3.632   3.976   4.880 -0.2513 -0.1880  0.0390
 4255SOL     OW16791   2.316   5.000   2.815  0.2788 -0.2400 -0.3017
 4255SOL    HW216792   2.296   5.017   2.908 -0.7470 -0.1638 -0.5195
 4255SOL    HW316793   2.395   4.947   2.817 -0.6744 -1.7177  0.6992
 4255SOL    MW416794   2.324   4.996   2.828  0.0177 -0.4249 -0.1984
 4256SOL     OW16795   3.157   2.869   2.838  0.1132  0.0636 -0.1497
 4256SOL    HW216796   3.190   2.788   2.801  0.3056 -0.7566  1.6716
 4256SOL    HW316797   3.062   2.865   2.825 -0.0086 -1.0084  0.8590
 4256SOL    MW416798   3.148   2.858   2.832  0.1225 -0.1861  0.2237
 4257SOL     OW16799   5.886   4.043   1.744 -0.3764 -0.6286  0.1334
 4257SOL    HW216800   5.847   3.978   1.686  0.5716 -0.1003 -1.1526
 4257SOL    HW316801   5.915   4.113   1.685  1.0370 -0.2795  1.1750
 4257SOL    MW416802   5.885   4.044   1.728 -0.0649 -0.5128  0.1011
 4258SOL     OW16803   0.944   0.831   4.127 -0.2126 -0.0043 -0.4332
 4258SOL    HW216804   1.005   0.816   4.055  0.0159  0.9993 -0.4687
 4258SOL    HW316805   0.991   0.889   4.187 -0.2181 -1.1955  0.7801
 4258SOL    MW416806   0.958   0.837   4.125 -0.1832 -0.0290 -0.2778
 4259SOL     OW16807   4.557   2.431   2.128  0.2220  0.1245 -0.4179
 4259SOL    HW216808   4.528   2.504   2.074  0.4601 -0.5368 -1.4559
 4259SOL    HW316809   4.647   2.413   2.100  1.3071  1.3839  1.9532
 4259SOL    MW416810   4.565   2.438   2.117  0.3966  0.2034 -0.2420
 4260SOL     OW16811   2.381   5.937   2.016  0.2479 -0.3099 -0.2150
 4260SOL    HW216812   2.447   5.922   2.084  2.4565  1.5331 -1.7891
 4260SOL    HW316813   2.367   6.032   2.016 -0.0309 -0.3082 -1.9831
 4260SOL    MW416814   2.388   5.947   2.025  0.5025 -0.0665 -0.6560
 4261SOL     OW16815   5.412   5.120   3.995  0.2676 -0.2873  0.3835
 4261SOL    HW216816   5.490   5.137   3.941  0.0571 -0.0642  0.1491
 4261SOL    HW316817   5.345   5.094   3.933  0.5485 -1.9549  0.7189
 4261SOL    MW416818   5.414   5.119   3.980  0.2769 -0.4779  0.3968
 4262SOL     OW16819   0.726   5.936   3.211 -0.0315  0.1049 -0.1212
 4262SOL    HW216820   0.668   5.868   3.245 -2.0409  0.7725 -1.9624
 4262SOL    HW316821   0.802   5.888   3.178 -0.6278 -1.0720  0.1675
 4262SOL    MW416822   0.729   5.921   3.211 -0.3753  0.0377 -0.3261
 4263SOL     OW16823   6.226   4.934   5.786  0.0316 -0.2950 -0.3857
 4263SOL    HW216824   6.273   4.881   5.851  1.2627  0.7169 -0.4164
 4263SOL    HW316825   6.158   4.876   5.753 -0.7081 -0.8146  1.8641
 4263SOL    MW416826   6.223   4.919   5.790  0.0964 -0.2301 -0.0929
 4264SOL     OW16827   5.576   6.418   1.890  0.1187 -0.0996  0.2636
 4264SOL    HW216828   5.484   6.416   1.865 -0.2526 -2.1561  1.5667
 4264SOL    HW316829   5.586   6.500   1.938 -0.7241  0.6885 -0.8374
 4264SOL    MW416830   5.565   6.429   1.893 -0.0415 -0.2670  0.2903
 4265SOL     OW16831   5.283   3.061   2.171  0.0404  0.0075  0.0786
 4265SOL    HW216832   5.304   3.069   2.264 -2.4008  0.2126  0.6677
 4265SOL    HW316833   5.300   3.147   2.135  0.8311 -0.0239  0.3593
 4265SOL    MW416834   5.288   3.073   2.179 -0.1774  0.0304  0.1934
 4266SOL     OW16835   1.597   2.179   6.078 -0.0455 -0.3993 -0.3253
 4266SOL    HW216836   1.669   2.202   6.137 -1.9087  0.7118  1.6870
 4266SOL    HW316837   1.553   2.106   6.122 -1.0725 -0.0100 -0.6743
 4266SOL    MW416838   1.601   2.172   6.092 -0.4268 -0.2014 -0.1058
 4267SOL     OW16839   3.906   1.813   6.230  0.7056 -0.1538  0.1617
 4267SOL    HW216840   3.981   1.821   6.170  0.7734  0.2853  0.3025
 4267SOL    HW316841   3.901   1.898   6.273  0.0320 -0.1327  0.0495
 4267SOL    MW416842   3.915   1.825   6.228  0.6257 -0.0931  0.1655
 4268SOL     OW16843   3.847   5.704   4.623 -0.3535 -0.2374  0.3940
 4268SOL    HW216844   3.824   5.661   4.705 -1.4976 -0.4412 -0.0119
 4268SOL    HW316845   3.891   5.636   4.572 -1.1889 -0.6299  0.1774
 4268SOL    MW416846   3.850   5.689   4.627 -0.6147 -0.3160  0.3119
 4269SOL     OW16847   0.308   5.320   2.733 -0.3244 -0.5591 -0.9324
 4269SOL    HW216848   0.354   5.372   2.666 -0.2018  0.6040  0.0254
 4269SOL    HW316849   0.377   5.288   2.790 -0.5861  0.1650 -0.1953
 4269SOL    MW416850   0.323   5.322   2.732 -0.3428 -0.3101 -0.7088
 4270SOL     OW16851   6.418   4.412   3.024 -0.1670 -0.0175 -0.7974
 4270SOL    HW216852   6.508   4.441   3.042 -0.6761  0.0631  2.1341
 4270SOL    HW316853   6.375   4.489   2.986  0.5766  0.4566 -0.6875
 4270SOL    MW416854   6.424   4.426   3.021 -0.1360  0.0557 -0.3961
 4271SOL     OW16855   2.978   0.394   0.060  0.1058 -0.5212 -0.3787
 4271SOL    HW216856   2.905   0.354   0.013  1.3685 -0.8528 -2.1393
 4271SOL    HW316857   3.027   0.442  -0.007  1.0510  0.3957  0.9140
 4271SOL    MW416858   2.975   0.395   0.045  0.3971 -0.4440 -0.4404
 4272SOL     OW16859   4.088   3.042   6.342  0.0988 -0.3624 -0.0944
 4272SOL    HW216860   4.170   3.071   6.381 -1.0608  2.1436  0.6877
 4272SOL    HW316861   4.053   2.978   6.404  0.6818 -0.2399  0.3654
 4272SOL    MW416862   4.094   3.037   6.355  0.0227 -0.0156  0.0695
 4273SOL     OW16863   4.067   2.799   1.623  0.1558 -0.0748 -0.2344
 4273SOL    HW216864   4.064   2.825   1.715  0.0793  0.6920 -0.4454
 4273SOL    HW316865   4.003   2.728   1.616  0.2594 -0.2270  0.3291
 4273SOL    MW416866   4.058   2.793   1.634  0.1594  0.0063 -0.1879
 4274SOL     OW16867   2.644   1.904   1.549 -0.5772 -0.0357  0.3823
 4274SOL    HW216868   2.659   1.840   1.619 -0.2218 -0.5521 -0.1506
 4274SOL    HW316869   2.581   1.966   1.585  0.6604  0.5192  1.6695
 4274SOL    MW416870   2.638   1.904   1.563 -0.3671 -0.0306  0.4818
 4275SOL     OW16871   4.810   1.222   4.096 -0.6713 -0.4244 -0.2153
 4275SOL    HW216872   4.882   1.237   4.034 -0.2945 -1.5969 -0.0903
 4275SOL    HW316873   4.836   1.143   4.143 -1.6363 -0.3565  0.4489
 4275SOL    MW416874   4.823   1.214   4.094 -0.7489 -0.5702 -0.1112
 4276SOL     OW16875   5.561   2.036   4.898 -0.5395  0.1774 -0.4731
 4276SOL    HW216876   5.490   2.100   4.905 -0.0608  0.5989  0.9896
 4276SOL    HW316877   5.631   2.082   4.852  0.5672  1.5013  2.3092
 4276SOL    MW416878   5.561   2.051   4.893 -0.3303  0.4077  0.0870
 4277SOL     OW16879   4.124   0.109   0.707 -0.1610 -0.1141  0.0142
 4277SOL    HW216880   4.058   0.179   0.709  1.2520  1.2686 -0.1924
 4277SOL    HW316881   4.157   0.110   0.618 -1.0323 -1.9887 -0.3827
 4277SOL    MW416882   4.119   0.118   0.696 -0.0895 -0.1790 -0.0654
 4278SOL     OW16883   1.188   3.989   5.822  0.2065  0.6276  0.3801
 4278SOL    HW216884   1.246   3.924   5.783 -0.2760 -0.1207  0.8713
 4278SOL    HW316885   1.243   4.066   5.836  1.2732 -0.3091  1.5107
 4278SOL    MW416886   1.203   3.991   5.819  0.2836  0.4053  0.5941
 4279SOL     OW16887   5.897   0.204   6.401  0.4123 -0.6013  0.7698
 4279SOL    HW216888   5.908   0.249   6.485  0.9303  0.1084  0.3370
 4279SOL    HW316889   5.803   0.208   6.384  0.5061  0.9907  0.4095
 4279SOL    MW416890   5.886   0.211   6.410  0.4930 -0.2976  0.6651
 4280SOL     OW16891   2.833   2.462   2.608 -0.3781  0.6167  0.0417
 4280SOL    HW216892   2.853   2.498   2.522 -0.6305  0.7473  0.0357
 4280SOL    HW316893   2.788   2.379   2.591  1.8381 -0.6549  0.0582
 4280SOL    MW416894   2.829   2.456   2.595 -0.1190  0.4661  0.0431
 4281SOL     OW16895   2.643   0.670   1.681  0.4172 -0.6581  0.5006
 4281SOL    HW216896   2.680   0.713   1.758  0.9525 -0.8031  0.3278
 4281SOL    HW316897   2.550   0.659   1.702 -0.6002  3.6863 -0.7608
 4281SOL    MW416898   2.636   0.674   1.694  0.3536 -0.1041  0.3114
 4282SOL     OW16899   4.106   3.655   0.368 -0.2043  0.0310  0.0211
 4282SOL    HW216900   4.183   3.700   0.405  1.6274  1.2147 -4.5393
 4282SOL    HW316901   4.034   3.683   0.424  2.0859  2.1646  2.2042
 4282SOL    MW416902   4.107   3.665   0.381  0.3395  0.4687 -0.2926
 4283SOL     OW16903   0.434   4.878   4.978 -0.5191  0.2885 -0.0478
 4283SOL    HW216904   0.514   4.842   4.939  0.0025  1.5652 -0.2140
 4283SOL    HW316905   0.418   4.824   5.055  0.9592  0.4824  0.4346
 4283SOL    MW416906   0.443   4.866   4.983 -0.2553  0.4825 -0.0061
 4284SOL     OW16907   3.867   5.499   3.140 -0.7993 -0.1223  0.7751
 4284SOL    HW216908   3.948   5.536   3.176 -0.1065 -0.4829 -0.3692
 4284SOL    HW316909   3.873   5.405   3.161 -0.9260 -0.1442  0.7123
 4284SOL    MW416910   3.879   5.491   3.148 -0.7246 -0.1728  0.6158
 4285SOL     OW16911   4.244   6.366   4.809 -0.4290 -0.2442 -0.2837
 4285SOL    HW216912   4.209   6.277   4.797 -1.4535 -0.1016  1.3355
 4285SOL    HW316913   4.166   6.420   4.826  0.2114  0.9247 -0.8957
 4285SOL    MW416914   4.229   6.361   4.810 -0.4797 -0.0712 -0.1508
 4286SOL     OW16915   2.409   3.755   1.177  0.2154  0.2504 -0.0481
 4286SOL    HW216916   2.386   3.805   1.098  1.0092 -0.1340 -0.5418
 4286SOL    HW316917   2.496   3.719   1.158 -0.7001 -2.1165 -0.1231
 4286SOL    MW416918   2.417   3.757   1.164  0.1994 -0.1126 -0.1231
 4287SOL     OW16919   2.743   4.704   5.702  0.0546 -0.2615  0.1245
 4287SOL    HW216920   2.666   4.731   5.652  1.0059  0.4097 -1.0368
 4287SOL    HW316921   2.775   4.626   5.656  1.8137  1.2217 -1.3349
 4287SOL    MW416922   2.737   4.697   5.689  0.4122  0.0227 -0.2213
 4288SOL     OW16923   0.819   3.761   6.242  0.3636 -0.7135 -1.0772
 4288SOL    HW216924   0.876   3.836   6.226  1.8766 -1.6742 -0.4646
 4288SOL    HW316925   0.873   3.685   6.218  0.2214 -1.8056  1.6681
 4288SOL    MW416926   0.834   3.760   6.237  0.5445 -0.9843 -0.6341
 4289SOL     OW16927   0.437   1.388   1.299  0.6968  0.2720  0.2502
 4289SOL    HW216928   0.354   1.434   1.307  1.1936  1.1170  0.6273
 4289SOL    HW316929   0.440   1.331   1.376 -0.4344 -1.2885 -0.7956
 4289SOL    MW416930   0.426   1.386   1.311  0.6131  0.1776  0.1620
 4290SOL     OW16931   1.128   2.529   5.189  0.2175  0.0224 -0.7500
 4290SOL    HW216932   1.170   2.485   5.263 -1.9542  1.7528  1.6761
 4290SOL    HW316933   1.153   2.621   5.198 -2.3898  0.7738 -0.2993
 4290SOL    MW416934   1.136   2.535   5.200 -0.4130  0.3499 -0.3704
 4291SOL     OW16935   1.762   5.213   3.305  0.0531  0.0381 -0.8648
 4291SOL    HW216936   1.751   5.170   3.389 -0.0112  0.4798 -0.6446
 4291SOL    HW316937   1.803   5.297   3.326 -0.3474  0.3266 -1.2311
 4291SOL    MW416938   1.766   5.218   3.319 -0.0082  0.1344 -0.8841
 4292SOL     OW16939   0.626   4.246   1.537 -0.1030 -0.2246 -0.0472
 4292SOL    HW216940   0.641   4.152   1.532 -3.4624 -0.8821  0.1884
 4292SOL    HW316941   0.555   4.256   1.600 -0.1478  2.4447 -0.3998
 4292SOL    MW416942   0.619   4.235   1.544 -0.5522  0.0409 -0.0627
 4293SOL     OW16943   2.647   0.145   4.857  0.0943  0.7447 -0.4671
 4293SOL    HW216944   2.609   0.216   4.907 -1.3724 -0.5181  0.3029
 4293SOL    HW316945   2.685   0.086   4.923 -1.1896 -0.5604 -0.8533
 4293SOL    MW416946   2.647   0.146   4.872 -0.2686  0.4059 -0.4165
 4294SOL     OW16947   5.206   4.675   6.291 -0.3018  0.2808  0.3397
 4294SOL    HW216948   5.178   4.652   6.379  0.9698  0.6923  0.8837
 4294SOL    HW316949   5.202   4.593   6.242 -0.8870  0.0226  0.8142
 4294SOL    MW416950   5.202   4.661   6.296 -0.2112  0.3010  0.4741
 4295SOL     OW16951   1.990   3.779   0.234  0.0133  0.1308  0.1129
 4295SOL    HW216952   1.946   3.746   0.312  0.7078 -1.0167  0.0447
 4295SOL    HW316953   2.016   3.868   0.257 -0.4479  0.0753  0.9097
 4295SOL    MW416954   1.987   3.786   0.247  0.0441 -0.0279  0.2091
 4296SOL     OW16955   4.032   1.225   4.810  0.1881  0.0213  0.2845
 4296SOL    HW216956   4.055   1.247   4.900  1.9558 -0.0621 -0.1103
 4296SOL    HW316957   4.017   1.310   4.768 -0.8215  0.0541  0.6710
 4296SOL    MW416958   4.033   1.239   4.816  0.2881  0.0146  0.2834
 4297SOL     OW16959   5.852   4.603   3.836  0.4799  0.5407 -0.0753
 4297SOL    HW216960   5.900   4.622   3.756  0.6305  1.7224  0.2705
 4297SOL    HW316961   5.918   4.569   3.897  0.2916 -0.7560 -0.5557
 4297SOL    MW416962   5.867   4.601   3.834  0.4750  0.5255 -0.0930
 4298SOL     OW16963   2.722   1.444   3.659 -0.9377 -0.4506 -0.7931
 4298SOL    HW216964   2.796   1.393   3.626 -2.1555 -1.7042 -1.6854
 4298SOL    HW316965   2.646   1.411   3.611 -1.8227  2.1657 -1.3568
 4298SOL    MW416966   2.721   1.432   3.648 -1.2152 -0.2708 -0.9852
 4299SOL     OW16967   1.587   2.186   5.302 -0.8191 -0.2731 -0.4313
 4299SOL    HW216968   1.514   2.212   5.246 -2.0825 -1.0325  0.7898
 4299SOL    HW316969   1.613   2.266   5.347 -2.3620 -0.3614  0.7107
 4299SOL    MW416970   1.581   2.200   5.300 -1.1894 -0.3849 -0.1195
 4300SOL     OW16971   4.889   1.802   0.106  0.0410 -0.6018  0.6886
 4300SOL    HW216972   4.863   1.883   0.150  0.8179  0.5319 -0.8563
 4300SOL    HW316973   4.809   1.751   0.100 -0.7582  0.6358  0.4790
 4300SOL    MW416974   4.875   1.806   0.111  0.0381 -0.2889  0.4571
 4301SOL     OW16975   2.223   5.851   1.249 -0.1458 -0.2208  0.0355
 4301SOL    HW216976   2.196   5.849   1.158 -0.1006 -0.3527  0.0253
 4301SOL    HW316977   2.314   5.881   1.246 -0.2277  0.0288  0.0555
 4301SOL    MW416978   2.232   5.855   1.237 -0.1507 -0.2053  0.0368
 4302SOL     OW16979   2.672   2.652   5.349 -0.0694 -0.0875  0.0937
 4302SOL    HW216980   2.676   2.678   5.441  0.7275 -0.1827  0.0939
 4302SOL    HW316981   2.713   2.725   5.302  0.1797 -0.3647 -0.1184
 4302SOL    MW416982   2.678   2.665   5.355  0.0686 -0.1366  0.0657
 4303SOL     OW16983   1.983   1.830   2.882 -0.5114  0.0533 -0.1008
 4303SOL    HW216984   1.965   1.859   2.793 -0.7500 -0.8823 -0.3573
 4303SOL    HW316985   2.058   1.772   2.874 -1.5995 -1.4277  0.0498
 4303SOL    MW416986   1.991   1.826   2.869 -0.6864 -0.2656 -0.1148
 4304SOL     OW16987   1.403   0.067   2.786  0.1193  0.0628  0.4865
 4304SOL    HW216988   1.355   0.040   2.708  2.0741 -0.9727 -0.4401
 4304SOL    HW316989   1.483   0.014   2.785  0.6531  0.6973  2.6923
 4304SOL    MW416990   1.408   0.056   2.776  0.4476  0.0099  0.6553
 4305SOL     OW16991   2.792   4.489   5.221  0.5125 -0.1899 -0.2486
 4305SOL    HW216992   2.781   4.399   5.189  2.2409 -0.3238 -0.5626
 4305SOL    HW316993   2.763   4.543   5.148 -0.1835 -0.4869 -0.2001
 4305SOL    MW416994   2.787   4.484   5.207  0.6487 -0.2468 -0.2837
 4306SOL     OW16995   5.206   3.460   5.195  0.0663 -0.4174 -0.4463
 4306SOL    HW216996   5.277   3.403   5.164 -0.2179 -0.4111 -1.1230
 4306SOL    HW316997   5.172   3.415   5.272  2.2498  0.6743  1.2792
 4306SOL    MW416998   5.211   3.447   5.201  0.3169 -0.2725 -0.3079
 4307SOL     OW16999   5.209   5.429   3.556  0.3718 -0.4340  0.8235
 4307SOL    HW217000   5.290   5.422   3.606  0.4702 -0.1690  0.7036
 4307SOL    HW317001   5.237   5.447   3.466  0.1723  0.2944  0.8945
 4307SOL    MW417002   5.223   5.431   3.550  0.3585 -0.3029  0.8170
 4308SOL     OW17003   1.103   1.559   4.509 -0.7119  0.1705  0.4626
 4308SOL    HW217004   1.043   1.494   4.471  0.5468 -1.6579  1.4531
 4308SOL    HW317005   1.065   1.580   4.594 -0.1406 -0.7827  0.9738
 4308SOL    MW417006   1.090   1.553   4.515 -0.4705 -0.1965  0.6608
 4309SOL     OW17007   5.940   2.181   2.345  0.5400 -0.0648 -0.0122
 4309SOL    HW217008   6.023   2.221   2.372 -0.5086  1.6469  0.8057
 4309SOL    HW317009   5.915   2.125   2.418 -0.4676  1.7306  1.0798
 4309SOL    MW417010   5.948   2.179   2.358  0.2687  0.3979  0.2398
 4310SOL     OW17011   4.080   3.095   1.780 -0.2234 -0.8943 -0.1199
 4310SOL    HW217012   4.061   3.091   1.873 -0.1449  0.5065 -0.0296
 4310SOL    HW317013   4.142   3.167   1.771 -3.5609  2.0993 -1.7389
 4310SOL    MW417014   4.086   3.104   1.791 -0.6534 -0.3145 -0.3216
 4311SOL     OW17015   5.644   2.473   3.080  0.2409 -0.2050 -0.0083
 4311SOL    HW217016   5.727   2.509   3.109  0.7624  0.1025 -1.7479
 4311SOL    HW317017   5.668   2.397   3.026 -0.4747  0.8204 -1.8546
 4311SOL    MW417018   5.658   2.468   3.077  0.2153 -0.0291 -0.4814
 4312SOL     OW17019   2.750   5.342   0.331 -0.7294  0.1891 -0.3763
 4312SOL    HW217020   2.722   5.398   0.258 -1.8171  0.3958  0.1792
 4312SOL    HW317021   2.728   5.393   0.410 -0.7248 -0.5578  0.1152
 4312SOL    MW417022   2.743   5.356   0.332 -0.8723  0.1178 -0.2382
 4313SOL     OW17023   4.390   6.369   5.030 -0.0664 -0.4403  0.7291
 4313SOL    HW217024   4.331   6.393   4.958 -0.1079 -0.1525  0.8572
 4313SOL    HW317025   4.474   6.407   5.005  0.3636 -1.7901  0.0018
 4313SOL    MW417026   4.393   6.377   5.017 -0.0151 -0.5804  0.6501
 4314SOL     OW17027   3.748   4.020   1.606 -0.3077  0.5668  0.3163
 4314SOL    HW217028   3.837   4.055   1.609  0.2797 -0.6370 -1.0957
 4314SOL    HW317029   3.756   3.933   1.644 -0.1581 -0.7326 -2.3981
 4314SOL    MW417030   3.761   4.013   1.611 -0.2105  0.2365 -0.2281
 4315SOL     OW17031   0.209   1.867   2.555 -0.4439  0.1275 -0.0634
 4315SOL    HW217032   0.129   1.836   2.512 -0.7429  3.0003 -1.8168
 4315SOL    HW317033   0.180   1.943   2.606  0.4468 -1.4608  3.0478
 4315SOL    MW417034   0.194   1.873   2.556 -0.3658  0.2970  0.1157
 4316SOL     OW17035   3.162   5.476   2.818  0.5584  0.6641 -0.2740
 4316SOL    HW217036   3.198   5.396   2.858  1.0245  1.2022  0.4074
 4316SOL    HW317037   3.123   5.446   2.737  0.4944 -0.3064  0.0989
 4316SOL    MW417038   3.162   5.461   2.813  0.6115  0.6070 -0.1349
 4317SOL     OW17039   4.396   1.455   5.748 -0.4784  0.1407  0.4018
 4317SOL    HW217040   4.331   1.523   5.733 -0.0410  0.3612 -0.6008
 4317SOL    HW317041   4.480   1.501   5.745 -0.0100 -0.6950 -2.5217
 4317SOL    MW417042   4.399   1.470   5.746 -0.3589  0.0595 -0.1162
 4318SOL     OW17043   3.889   0.444   1.059 -0.4498 -0.5262 -0.2533
 4318SOL    HW217044   3.887   0.349   1.043  1.0879 -0.8517  1.2225
 4318SOL    HW317045   3.932   0.453   1.144  0.2203  1.5420 -0.7540
 4318SOL    MW417046   3.894   0.432   1.068 -0.1585 -0.2962 -0.1247
 4319SOL     OW17047   5.969   1.309   4.965  0.2596 -0.3220  0.6032
 4319SOL    HW217048   6.049   1.256   4.966  0.9724  0.6826  3.0895
 4319SOL    HW317049   5.990   1.383   4.908  0.5508 -0.7880  0.0863
 4319SOL    MW417050   5.983   1.312   4.957  0.3921 -0.2509  0.8630
 4320SOL     OW17051   3.501   3.676   5.345 -0.0992  0.2921 -0.5094
 4320SOL    HW217052   3.468   3.717   5.424  0.1882 -1.6095  0.6851
 4320SOL    HW317053   3.430   3.681   5.282 -1.0999  0.0546  0.5765
 4320SOL    MW417054   3.487   3.682   5.347 -0.1933  0.0099 -0.2085
 4321SOL     OW17055   4.359   0.465   6.226  0.2291 -0.0321 -0.4771
 4321SOL    HW217056   4.342   0.519   6.148  0.5300  0.7624 -0.0090
 4321SOL    HW317057   4.405   0.524   6.286  0.8811 -0.9273 -0.0864
 4321SOL    MW417058   4.362   0.480   6.224  0.3548 -0.0454 -0.3638
 4322SOL     OW17059   0.795   3.491   5.988  0.2626  0.4680  0.7160
 4322SOL    HW217060   0.859   3.523   5.924  0.8600  0.8346  1.4856
 4322SOL    HW317061   0.797   3.396   5.979  0.8458  0.4826  0.6617
 4322SOL    MW417062   0.804   3.483   5.978  0.4184  0.5183  0.8104
 4323SOL     OW17063   5.926   0.523   5.275 -0.1676 -0.2317 -0.1337
 4323SOL    HW217064   5.915   0.618   5.278  1.0454 -0.0891  0.2481
 4323SOL    HW317065   5.861   0.494   5.210 -0.2247  0.9079 -0.6152
 4323SOL    MW417066   5.916   0.532   5.267 -0.0151 -0.0625 -0.1469
 4324SOL     OW17067   4.920   6.440   1.231  0.1620 -0.0583  0.1489
 4324SOL    HW217068   4.843   6.492   1.208 -0.6393 -0.9919  0.6432
 4324SOL    HW317069   4.934   6.383   1.155  0.6723  0.4438 -0.1420
 4324SOL    MW417070   4.912   6.439   1.218  0.1236 -0.1152  0.1757
 4325SOL     OW17071   2.098   2.914   5.774 -0.1166  0.1520  0.5074
 4325SOL    HW217072   2.064   2.937   5.687  1.7723  0.0756 -0.3119
 4325SOL    HW317073   2.048   2.837   5.800 -1.1314  0.5402 -0.2378
 4325SOL    MW417074   2.087   2.907   5.766 -0.0013  0.1931  0.3010
 4326SOL     OW17075   1.412   2.411   5.780 -0.3078  0.4039  1.2083
 4326SOL    HW217076   1.462   2.490   5.761 -0.8121  0.7098  1.1242
 4326SOL    HW317077   1.450   2.344   5.724 -0.4924  0.8179  0.5841
 4326SOL    MW417078   1.423   2.413   5.770 -0.3987  0.4989  1.1148
 4327SOL     OW17079   6.103   3.935   6.422 -0.9731 -0.0605 -0.0292
 4327SOL    HW217080   6.129   4.024   6.448  0.3472 -1.1687  2.8397
 4327SOL    HW317081   6.017   3.946   6.383 -0.5914  2.5479 -0.3419
 4327SOL    MW417082   6.095   3.948   6.420 -0.7485  0.1374  0.3081
 4328SOL     OW17083   3.605   3.957   3.906  0.1028  0.2208  0.4470
 4328SOL    HW217084   3.662   3.884   3.928 -0.3904  0.3112  2.2215
 4328SOL    HW317085   3.607   3.962   3.810  0.8297 -1.5489  0.3318
 4328SOL    MW417086   3.613   3.948   3.896  0.1336 -0.0008  0.6659
 4329SOL     OW17087   1.900   1.943   2.100  0.5062 -0.2764  0.2870
 4329SOL    HW217088   1.813   1.947   2.062  0.4280  0.2427  0.5105
 4329SOL    HW317089   1.958   1.975   2.031  0.3921  0.4216  0.5037
 4329SOL    MW417090   1.896   1.948   2.086  0.4808 -0.1158  0.3451
 4330SOL     OW17091   3.993   5.519   4.474  0.1249 -0.3700  0.4828
 4330SOL    HW217092   4.053   5.579   4.428  0.1896 -1.7970 -1.4359
 4330SOL    HW317093   4.048   5.475   4.538  0.6936 -0.2663  0.0777
 4330SOL    MW417094   4.008   5.521   4.476  0.2085 -0.5446  0.1762
 4331SOL     OW17095   1.787   0.535   3.237  0.3243  0.5861 -0.1135
 4331SOL    HW217096   1.861   0.596   3.241  0.9989 -0.1283 -1.0302
 4331SOL    HW317097   1.777   0.516   3.143 -0.2617 -0.2331  0.1056
 4331SOL    MW417098   1.796   0.541   3.225  0.3360  0.3838 -0.2055
 4332SOL     OW17099   4.398   2.398   5.869  0.2331  0.2551  0.0702
 4332SOL    HW217100   4.393   2.372   5.777  0.5024 -2.6409  0.7780
 4332SOL    HW317101   4.354   2.482   5.873 -3.1835 -1.2385 -2.1043
 4332SOL    MW417102   4.392   2.406   5.857 -0.1821 -0.3241 -0.1233
 4333SOL     OW17103   0.295   1.303   2.194  0.2653 -0.4834 -0.2851
 4333SOL    HW217104   0.338   1.240   2.253  1.1775 -0.2752 -0.7034
 4333SOL    HW317105   0.207   1.268   2.181 -0.2855 -0.0970  1.8920
 4333SOL    MW417106   0.289   1.290   2.200  0.3130 -0.4050 -0.0531
 4334SOL     OW17107   5.755   0.255   2.520 -0.4740  0.6369  0.2213
 4334SOL    HW217108   5.813   0.284   2.590  0.1529  0.4330 -0.2021
 4334SOL    HW317109   5.668   0.254   2.560 -0.1455  0.6417  0.9603
 4334SOL    MW417110   5.751   0.259   2.535 -0.3479  0.6107  0.2629
 4335SOL     OW17111   1.551   6.110   6.421 -0.5990  0.0408 -0.0214
 4335SOL    HW217112   1.634   6.101   6.375 -0.4714 -1.0361  0.3978
 4335SOL    HW317113   1.567   6.073   6.508 -1.1366  1.0796  0.5503
 4335SOL    MW417114   1.564   6.104   6.427 -0.6531  0.0358  0.1093
 4336SOL     OW17115   0.557   4.363   6.101  0.6181 -0.6017  0.1343
 4336SOL    HW217116   0.468   4.361   6.065  0.9058  1.1279 -0.7719
 4336SOL    HW317117   0.554   4.429   6.170  1.3840  0.0950 -0.4815
 4336SOL    MW417118   0.545   4.372   6.105  0.7571 -0.2816 -0.0665
 4337SOL     OW17119   1.297   3.935   3.291  0.1808 -0.3203 -0.5399
 4337SOL    HW217120   1.304   3.955   3.198 -1.5411 -1.7243 -1.0178
 4337SOL    HW317121   1.383   3.899   3.314  1.1565  1.4868 -1.1682
 4337SOL    MW417122   1.310   3.933   3.282  0.0824 -0.2671 -0.6858
 4338SOL     OW17123   1.558   6.100   1.535 -0.3553  0.1965  0.5217
 4338SOL    HW217124   1.618   6.046   1.586 -0.8945 -3.4063 -2.1935
 4338SOL    HW317125   1.489   6.039   1.509 -1.7926  2.5918 -1.7250
 4338SOL    MW417126   1.557   6.085   1.538 -0.6161  0.0372 -0.1329
 4339SOL     OW17127   3.389   3.060   3.131  0.4900  0.4944  0.6316
 4339SOL    HW217128   3.380   3.083   3.038  3.7718  1.5541  0.4274
 4339SOL    HW317129   3.403   2.965   3.131  1.5170  0.6180 -0.1378
 4339SOL    MW417130   3.390   3.051   3.118  1.0585  0.6505  0.5032
 4340SOL     OW17131   1.263   5.287   1.864 -0.3358 -0.3389  0.0292
 4340SOL    HW217132   1.266   5.201   1.905  3.6146 -0.7637 -0.7446
 4340SOL    HW317133   1.268   5.269   1.770  1.0398  0.6735 -0.1201
 4340SOL    MW417134   1.264   5.273   1.857  0.3669 -0.2614 -0.0926
 4341SOL     OW17135   4.322   5.384   3.919  0.2726  0.2457  0.0329
 4341SOL    HW217136   4.327   5.303   3.971 -0.0123 -0.6193 -1.2318
 4341SOL    HW317137   4.314   5.454   3.984  0.5829 -0.7352  1.1630
 4341SOL    MW417138   4.321   5.382   3.935  0.2760  0.0021  0.0152
 4342SOL     OW17139   5.843   0.238   1.794 -0.6488 -0.3041 -0.1754
 4342SOL    HW217140   5.785   0.294   1.742 -0.3067 -1.4652 -1.8911
 4342SOL    HW317141   5.865   0.166   1.736  0.6199 -1.1292  1.2570
 4342SOL    MW417142   5.838   0.236   1.779 -0.4362 -0.5662 -0.2128
 4343SOL     OW17143   0.878   4.035   4.729 -0.2835 -0.1434 -0.0563
 4343SOL    HW217144   0.837   4.116   4.759 -0.5882 -0.3715  0.1604
 4343SOL    HW317145   0.943   4.063   4.665  0.9627  0.4347  1.3856
 4343SOL    MW417146   0.881   4.049   4.725 -0.1592 -0.0972  0.1625
 4344SOL     OW17147   5.833   5.392   4.682 -0.2300  0.0737 -0.0085
 4344SOL    HW217148   5.883   5.385   4.763 -0.4331 -1.4521  0.0016
 4344SOL    HW317149   5.845   5.483   4.654 -1.0688  0.9622  2.3155
 4344SOL    MW417150   5.841   5.403   4.689 -0.3675 -0.0104  0.2995
 4345SOL     OW17151   1.159   3.462   5.340  0.3690  0.2661 -0.3009
 4345SOL    HW217152   1.134   3.550   5.368 -0.6594  0.0550 -0.5436
 4345SOL    HW317153   1.126   3.404   5.408  0.2669 -0.0101 -0.5817
 4345SOL    MW417154   1.152   3.466   5.352  0.2199  0.2018 -0.3700
 4346SOL     OW17155   3.990   5.172   4.404  0.3640  0.6424 -0.1175
 4346SOL    HW217156   3.983   5.079   4.386  1.0779  0.2663  1.4345
 4346SOL    HW317157   3.925   5.189   4.472  1.2651  0.9565  0.6870
 4346SOL    MW417158   3.981   5.162   4.411  0.5771  0.6342  0.1934
 4347SOL     OW17159   2.357   4.127   4.704 -0.3392  0.0252  0.0605
 4347SOL    HW217160   2.366   4.161   4.793 -1.4919 -0.6813  0.4805
 4347SOL    HW317161   2.322   4.038   4.717 -0.5108 -0.0852 -1.0996
 4347SOL    MW417162   2.353   4.120   4.718 -0.5139 -0.0826 -0.0372
 4348SOL     OW17163   3.619   1.302   4.560 -0.0294 -0.4748  0.3435
 4348SOL    HW217164   3.553   1.316   4.491  0.1158 -0.7972  0.1384
 4348SOL    HW317165   3.675   1.379   4.554 -0.8459  0.1962  1.0444
 4348SOL    MW417166   3.618   1.314   4.550 -0.1180 -0.4288  0.4089
 4349SOL     OW17167   0.373   3.031   2.294  0.1161 -0.3037 -0.1486
 4349SOL    HW217168   0.331   3.117   2.284  1.1712  0.5360  2.0317
 4349SOL    HW317169   0.377   3.017   2.388  0.1190 -2.7191 -0.4521
 4349SOL    MW417170   0.368   3.041   2.305  0.2557 -0.5116  0.0990
 4350SOL     OW17171   5.515   0.400   4.792  0.6813  0.2371  0.0692
 4350SOL    HW217172   5.462   0.480   4.801  0.0547 -0.0526 -0.8188
 4350SOL    HW317173   5.465   0.333   4.839  0.9598  0.2607  0.3986
 4350SOL    MW417174   5.501   0.402   4.799  0.6354  0.2020 -0.0045
 4351SOL     OW17175   1.948   3.259   2.669  0.0971  0.4582  0.2031
 4351SOL    HW217176   2.035   3.285   2.640  0.0237 -0.7770 -1.2138
 4351SOL    HW317177   1.888   3.309   2.613 -0.0803  0.2452  0.1995
 4351SOL    MW417178   1.951   3.269   2.658  0.0640  0.2671  0.0157
 4352SOL     OW17179   3.105   2.570   5.416  0.2595 -0.2549  0.4762
 4352SOL    HW217180   3.172   2.635   5.399  3.2924 -3.2788 -0.1586
 4352SOL    HW317181   3.045   2.576   5.342  1.5038  0.5985 -0.4820
 4352SOL    MW417182   3.106   2.579   5.404  0.8238 -0.5413  0.2660
 4353SOL     OW17183   0.838   5.976   6.225  0.1412 -0.0479 -0.1617
 4353SOL    HW217184   0.744   5.962   6.231  0.0654  0.4367 -0.2216
 4353SOL    HW317185   0.864   6.002   6.313  0.1753  0.0823 -0.2104
 4353SOL    MW417186   0.829   5.977   6.237  0.1357  0.0332 -0.1760
 4354SOL     OW17187   3.774   4.001   6.032  0.3182  0.1159 -0.2293
 4354SOL    HW217188   3.862   3.962   6.031  0.2378 -0.0862 -1.9321
 4354SOL    HW317189   3.776   4.062   6.106  1.8158 -0.0718 -0.0810
 4354SOL    MW417190   3.786   4.004   6.042  0.5052  0.0644 -0.4344
 4355SOL     OW17191   2.992   4.069   0.388 -0.1976  0.2893 -1.1711
 4355SOL    HW217192   2.996   3.975   0.370 -0.2492  0.5706 -2.8642
 4355SOL    HW317193   3.036   4.109   0.313 -0.5389  1.6340 -0.6799
 4355SOL    MW417194   2.998   4.062   0.376 -0.2494  0.5038 -1.3297
 4356SOL     OW17195   2.331   1.358   3.872  0.5568 -0.0909 -0.2286
 4356SOL    HW217196   2.305   1.449   3.858 -1.3665 -0.4326  0.7703
 4356SOL    HW317197   2.376   1.358   3.956 -1.3416 -0.3352  0.8422
 4356SOL    MW417198   2.334   1.370   3.881  0.0526 -0.1682  0.0445
 4357SOL     OW17199   0.829   0.323   6.361 -0.3593 -0.4986  0.0043
 4357SOL    HW217200   0.769   0.266   6.409 -0.8806 -0.7220 -0.8948
 4357SOL    HW317201   0.849   0.393   6.423 -1.0701 -0.7431  0.5329
 4357SOL    MW417202   0.823   0.325   6.375 -0.5219 -0.5603 -0.0446
 4358SOL     OW17203   0.822   5.436   5.267  0.1983 -0.2575  0.0189
 4358SOL    HW217204   0.765   5.506   5.299 -1.0323 -0.7705 -0.9337
 4358SOL    HW317205   0.795   5.359   5.316 -0.3903 -0.6378 -0.8689
 4358SOL    MW417206   0.811   5.435   5.277 -0.0417 -0.3754 -0.2239
 4359SOL     OW17207   1.355   3.556   0.408 -0.1935  0.6078 -0.0244
 4359SOL    HW217208   1.323   3.550   0.317 -0.4496  0.7880  0.0520
 4359SOL    HW317209   1.279   3.588   0.457 -0.4635 -0.7418  0.4784
 4359SOL    MW417210   1.341   3.559   0.402 -0.2629  0.4535  0.0520
 4360SOL     OW17211   1.233   0.319   2.454  0.3157 -0.2193 -0.1683
 4360SOL    HW217212   1.262   0.361   2.535 -0.5098 -0.4985  0.2906
 4360SOL    HW317213   1.257   0.380   2.385 -0.1054  0.6139  0.4078
 4360SOL    MW417214   1.240   0.333   2.456  0.1512 -0.1462 -0.0317
 4361SOL     OW17215   2.712   3.755   1.114  0.3104  0.0130 -0.3723
 4361SOL    HW217216   2.790   3.732   1.164 -0.5996 -3.0337 -0.1375
 4361SOL    HW317217   2.701   3.683   1.052 -3.3724 -0.8466  0.9928
 4361SOL    MW417218   2.721   3.743   1.112 -0.2956 -0.5024 -0.1612
 4362SOL     OW17219   0.167   4.898   5.310  0.3944 -0.5931 -0.4461
 4362SOL    HW217220   0.104   4.947   5.363 -1.0623 -2.1783 -0.6072
 4362SOL    HW317221   0.121   4.880   5.228  1.4207 -0.9675 -0.9637
 4362SOL    MW417222   0.153   4.902   5.306  0.3376 -0.8517 -0.5356
 4363SOL     OW17223   2.529   0.531   0.258  0.0645  0.2037  0.2821
 4363SOL    HW217224   2.530   0.441   0.226  1.1069  0.3917 -0.2750
 4363SOL    HW317225   2.595   0.576   0.205 -1.2389  1.5817 -0.2300
 4363SOL    MW417226   2.538   0.525   0.247  0.0300  0.4103  0.1410
 4364SOL     OW17227   2.222   5.406   2.802  0.4443 -0.1237 -0.3718
 4364SOL    HW217228   2.142   5.361   2.830 -1.2072  1.2167 -2.5854
 4364SOL    HW317229   2.211   5.496   2.832  1.5796 -0.1158  0.0634
 4364SOL    MW417230   2.210   5.412   2.809  0.3762  0.0541 -0.6064
 4365SOL     OW17231   1.448   1.102   2.729 -0.0404 -0.2309 -0.5016
 4365SOL    HW217232   1.414   1.038   2.792  1.1415 -0.4870 -0.1007
 4365SOL    HW317233   1.539   1.116   2.756  0.0145  0.8634 -1.1977
 4365SOL    MW417234   1.455   1.096   2.741  0.1228 -0.1203 -0.5405
 4366SOL     OW17235   5.087   1.861   5.275  0.4963  0.1431 -0.3330
 4366SOL    HW217236   5.143   1.854   5.353 -0.1625 -0.7259  0.0873
 4366SOL    HW317237   5.133   1.923   5.218  2.8152 -1.8117 -0.7811
 4366SOL    MW417238   5.101   1.868   5.278  0.7153 -0.2294 -0.3367
 4367SOL     OW17239   2.949   0.711   3.100 -0.1288  0.0078 -0.3837
 4367SOL    HW217240   2.983   0.629   3.135 -1.8541 -1.4618 -1.9164
 4367SOL    HW317241   2.857   0.712   3.126 -0.1953  1.3744 -0.5673
 4367SOL    MW417242   2.941   0.700   3.108 -0.3652 -0.0058 -0.6102
 4368SOL     OW17243   0.360   0.368   3.284 -0.5077 -0.1983  0.0478
 4368SOL    HW217244   0.356   0.464   3.285  0.4743 -0.1245 -0.9413
 4368SOL    HW317245   0.441   0.347   3.330 -0.3553 -0.5085 -0.3564
 4368SOL    MW417246   0.370   0.378   3.290 -0.3581 -0.2295 -0.1360
 4369SOL     OW17247   1.469   1.946   6.195 -0.6527 -0.0639  0.3089
 4369SOL    HW217248   1.533   1.905   6.253 -0.4751  0.9375  0.8405
 4369SOL    HW317249   1.404   1.984   6.253  0.5457  2.6503 -0.0016
 4369SOL    MW417250   1.469   1.945   6.210 -0.4711  0.4263  0.3381
 4370SOL     OW17251   4.887   4.531   1.061  0.0179  0.4501  0.7954
 4370SOL    HW217252   4.873   4.606   1.003 -2.3593  1.0726  1.9957
 4370SOL    HW317253   4.980   4.535   1.084  0.2271  2.2963 -0.1679
 4370SOL    MW417254   4.897   4.542   1.056 -0.2682  0.7758  0.8267
 4371SOL     OW17255   2.780   2.746   2.979 -0.7179 -0.0700  0.6769
 4371SOL    HW217256   2.801   2.805   2.907  0.0466 -0.1110  0.8529
 4371SOL    HW317257   2.753   2.665   2.936  1.9265 -0.8782  0.3665
 4371SOL    MW417258   2.779   2.743   2.964 -0.2682 -0.1820  0.6592
 4372SOL     OW17259   2.564   4.737   0.847  0.1005  0.3574  0.0885
 4372SOL    HW217260   2.659   4.727   0.842  0.0711  0.6456 -1.6357
 4372SOL    HW317261   2.544   4.726   0.940  1.7103 -0.5916  0.3646
 4372SOL    MW417262   2.574   4.735   0.858  0.3090  0.2702 -0.1025
 4373SOL     OW17263   2.109   1.635   0.850 -0.2401 -0.1315  0.0904
 4373SOL    HW217264   2.160   1.715   0.840  4.6788 -2.8196  0.5610
 4373SOL    HW317265   2.104   1.621   0.944 -0.9296 -0.4500  0.0118
 4373SOL    MW417266   2.115   1.644   0.861  0.3180 -0.5282  0.1421
 4374SOL     OW17267   2.480   0.439   5.692  0.6679 -0.3359 -0.0845
 4374SOL    HW217268   2.552   0.402   5.641  1.4646  0.7755  0.1979
 4374SOL    HW317269   2.497   0.533   5.692 -1.7226  0.1967 -1.4590
 4374SOL    MW417270   2.492   0.447   5.685  0.4576 -0.1190 -0.2286
 4375SOL     OW17271   2.663   2.958   4.771  0.5642 -0.1826 -0.7568
 4375SOL    HW217272   2.631   2.869   4.782  0.2687 -0.0094 -0.1372
 4375SOL    HW317273   2.677   2.990   4.861  0.3208  0.5092 -0.9523
 4375SOL    MW417274   2.661   2.951   4.784  0.4931 -0.0685 -0.7009
 4376SOL     OW17275   2.525   4.209   1.956 -0.3462  0.1079  0.1138
 4376SOL    HW217276   2.445   4.232   2.004 -2.0431 -1.7480 -1.6382
 4376SOL    HW317277   2.518   4.257   1.874  0.3941 -0.0183 -0.0247
 4376SOL    MW417278   2.513   4.219   1.952 -0.4724 -0.1536 -0.1356
 4377SOL     OW17279   1.693   3.336   1.709 -0.8934 -0.1590 -0.5149
 4377SOL    HW217280   1.648   3.310   1.790  0.2233 -0.1613  0.1241
 4377SOL    HW317281   1.750   3.262   1.688 -1.7192 -0.4749 -1.7450
 4377SOL    MW417282   1.694   3.323   1.717 -0.8550 -0.2010 -0.5929
 4378SOL     OW17283   4.950   2.349   1.310 -0.4039 -0.0147 -0.3015
 4378SOL    HW217284   5.018   2.385   1.368 -1.1641 -1.3593  1.5279
 4378SOL    HW317285   4.975   2.258   1.299  0.2051  0.4038 -2.9193
 4378SOL    MW417286   4.962   2.342   1.317 -0.4238 -0.1369 -0.4055
 4379SOL     OW17287   2.322   4.751   4.241 -0.0920 -0.3661 -0.0672
 4379SOL    HW217288   2.326   4.800   4.323 -0.8023  2.1606 -1.4350
 4379SOL    HW317289   2.413   4.728   4.222  0.5473  2.0547 -0.2406
 4379SOL    MW417290   2.335   4.754   4.249 -0.1013  0.2867 -0.2706
 4380SOL     OW17291   4.563   1.012   6.358 -0.5824  0.3627 -0.3821
 4380SOL    HW217292   4.653   0.981   6.364 -0.6601  0.3897  1.8927
 4380SOL    HW317293   4.540   1.036   6.448 -3.5028 -1.5468 -0.4821
 4380SOL    MW417294   4.572   1.011   6.371 -0.9780  0.1143 -0.0952
 4381SOL     OW17295   0.497   5.473   4.354 -0.0541  0.2746  0.2392
 4381SOL    HW217296   0.439   5.540   4.319  1.2919  0.9081 -0.8815
 4381SOL    HW317297   0.505   5.409   4.283  1.4647  0.7713 -0.0823
 4381SOL    MW417298   0.491   5.473   4.340  0.3238  0.4237  0.0489
 4382SOL     OW17299   5.774   1.179   2.516  0.1351 -0.0121 -0.2421
 4382SOL    HW217300   5.820   1.152   2.436 -0.5291 -1.2201 -0.2504
 4382SOL    HW317301   5.821   1.257   2.546  1.7914 -0.8382 -0.5773
 4382SOL    MW417302   5.786   1.186   2.509  0.2660 -0.2805 -0.2874
 4383SOL     OW17303   0.581   5.574   6.332 -0.4433  0.5840  0.0677
 4383SOL    HW217304   0.630   5.594   6.251 -0.1429  0.5931  0.2497
 4383SOL    HW317305   0.491   5.601   6.313 -0.7508 -1.0166 -0.8931
 4383SOL    MW417306   0.576   5.580   6.318 -0.4442  0.3740 -0.0351
 4384SOL     OW17307   1.858   1.587   1.452  0.0477 -0.1254  0.1622
 4384SOL    HW217308   1.830   1.563   1.364  2.5594  0.1815 -0.8261
 4384SOL    HW317309   1.802   1.538   1.510 -1.8836 -0.1299 -1.5960
 4384SOL    MW417310   1.847   1.578   1.448  0.1242 -0.0855 -0.2002
 4385SOL     OW17311   0.628   3.287   1.728  0.5041 -0.1067 -0.0640
 4385SOL    HW217312   0.562   3.260   1.792 -1.7283  1.3078 -1.6260
 4385SOL    HW317313   0.648   3.378   1.751  1.6485 -0.3966  0.1462
 4385SOL    MW417314   0.622   3.296   1.740  0.3606  0.0417 -0.2424
 4386SOL     OW17315   3.577   0.577   1.132 -0.7252 -0.3154 -0.0652
 4386SOL    HW217316   3.614   0.535   1.054  2.7712 -0.1567  1.3498
 4386SOL    HW317317   3.600   0.519   1.204  0.3296  1.8166  1.4079
 4386SOL    MW417318   3.585   0.564   1.131 -0.1247 -0.0132  0.3158
 4387SOL     OW17319   3.438   5.438   4.879  0.5307  0.0791 -0.4281
 4387SOL    HW217320   3.348   5.411   4.897  0.7225 -0.4303 -0.2200
 4387SOL    HW317321   3.448   5.520   4.928  0.8211 -0.9318  1.2595
 4387SOL    MW417322   3.427   5.446   4.888  0.5943 -0.1215 -0.1780
 4388SOL     OW17323   1.707   0.165   4.186 -0.3148  0.5079  0.0842
 4388SOL    HW217324   1.760   0.085   4.175 -1.4725 -0.4513  1.2160
 4388SOL    HW317325   1.700   0.200   4.097  0.2430 -0.6395 -0.4432
 4388SOL    MW417326   1.713   0.159   4.172 -0.3939  0.2300  0.1639
 4389SOL     OW17327   5.479   3.073   0.398 -0.5602 -0.1058 -0.2929
 4389SOL    HW217328   5.475   3.013   0.473 -1.7953 -0.2501 -0.4514
 4389SOL    HW317329   5.448   3.021   0.324  1.9568 -0.3912 -1.2339
 4389SOL    MW417330   5.474   3.058   0.398 -0.3911 -0.1625 -0.4380
 4390SOL     OW17331   4.178   3.117   6.089 -0.0280 -0.4975 -0.2055
 4390SOL    HW217332   4.136   3.122   6.175  0.5172 -0.2836  0.0523
 4390SOL    HW317333   4.215   3.204   6.075 -0.4183 -0.4247 -0.8168
 4390SOL    MW417334   4.177   3.129   6.098 -0.0075 -0.4596 -0.2521
 4391SOL     OW17335   4.602   3.366   4.074  0.0980  0.9954  0.8699
 4391SOL    HW217336   4.545   3.387   4.000 -0.9260 -0.8582  1.0804
 4391SOL    HW317337   4.544   3.366   4.150  0.2661 -1.0740  1.0643
 4391SOL    MW417338   4.587   3.369   4.074 -0.0149  0.4778  0.9233
 4392SOL     OW17339   5.320   0.998   4.379  0.4021  0.3732  0.0961
 4392SOL    HW217340   5.226   1.011   4.361  0.3684 -0.9591 -0.8763
 4392SOL    HW317341   5.324   0.970   4.470 -0.2647 -0.6094 -0.1665
 4392SOL    MW417342   5.308   0.996   4.388  0.3096  0.0678 -0.0669
 4393SOL     OW17343   1.844   1.402   5.226 -0.0700 -0.1183 -0.0156
 4393SOL    HW217344   1.784   1.397   5.300  0.7934 -1.8797  0.6119
 4393SOL    HW317345   1.815   1.334   5.166 -0.1157  0.5930 -0.8265
 4393SOL    MW417346   1.832   1.392   5.228  0.0379 -0.2568 -0.0398
 4394SOL     OW17347   5.745   1.532   3.826  0.3862  0.1995 -0.1693
 4394SOL    HW217348   5.658   1.536   3.865  0.7401  1.1912  0.5397
 4394SOL    HW317349   5.804   1.562   3.895  1.0558  1.7992 -1.3731
 4394SOL    MW417350   5.741   1.536   3.840  0.5212  0.5414 -0.2346
 4395SOL     OW17351   2.017   4.748   1.960 -0.2208  0.0010 -0.2547
 4395SOL    HW217352   1.955   4.692   1.914  0.7365  0.3922 -2.1295
 4395SOL    HW317353   2.080   4.775   1.892  0.0287  2.3615  0.8103
 4395SOL    MW417354   2.017   4.744   1.945 -0.0615  0.3641 -0.3616
 4396SOL     OW17355   2.167   2.655   6.357  0.0249  0.4216 -0.3733
 4396SOL    HW217356   2.233   2.589   6.377  0.3353  1.0443  0.7501
 4396SOL    HW317357   2.194   2.692   6.273  1.8716  1.5837  0.6727
 4396SOL    MW417358   2.179   2.651   6.349  0.3095  0.6571 -0.0871
 4397SOL     OW17359   2.997   3.531   3.092  0.3265  0.2823 -0.5184
 4397SOL    HW217360   3.034   3.443   3.083  0.8303  0.3757  0.5533
 4397SOL    HW317361   2.906   3.515   3.120  0.6214  0.0972  0.3748
 4397SOL    MW417362   2.990   3.517   3.095  0.4319  0.2702 -0.2592
 4398SOL     OW17363   3.525   4.885   2.896 -0.0706 -0.2731 -0.6126
 4398SOL    HW217364   3.541   4.959   2.837 -2.9091  0.0217 -1.1422
 4398SOL    HW317365   3.532   4.808   2.840 -1.1054 -0.1040 -0.9922
 4398SOL    MW417366   3.528   4.885   2.881 -0.5816 -0.2119 -0.7326
 4399SOL     OW17367   0.679   3.765   5.923  0.1840  0.4079  0.0515
 4399SOL    HW217368   0.721   3.689   5.963  0.6045  0.4934 -0.2262
 4399SOL    HW317369   0.595   3.772   5.968  0.1157 -0.2584  0.0385
 4399SOL    MW417370   0.673   3.756   5.934  0.2305  0.3313  0.0132
 4400SOL     OW17371   3.681   3.919   5.295 -0.2648  0.0114  0.3085
 4400SOL    HW217372   3.642   3.834   5.276  1.6605 -0.7196 -0.6128
 4400SOL    HW317373   3.644   3.944   5.380 -2.7481 -0.5361 -0.5358
 4400SOL    MW417374   3.671   3.911   5.304 -0.3384 -0.1573  0.0755
 4401SOL     OW17375   3.109   0.997   1.135 -0.0931 -0.3359  0.6005
 4401SOL    HW217376   3.127   0.984   1.042 -0.6508 -0.4380  0.5053
 4401SOL    HW317377   3.021   1.033   1.138  0.8737  2.1987  0.9326
 4401SOL    MW417378   3.100   1.000   1.123 -0.0391 -0.0149  0.6318
 4402SOL     OW17379   2.548   5.842   0.840  0.4519  0.1257  0.2048
 4402SOL    HW217380   2.509   5.916   0.886 -0.3226  0.1721 -0.5029
 4402SOL    HW317381   2.568   5.877   0.753  2.0915  0.1076  0.5324
 4402SOL    MW417382   2.546   5.857   0.834  0.5660  0.1294  0.1547
 4403SOL     OW17383   6.407   5.626   4.219 -0.0335  0.2425  0.0027
 4403SOL    HW217384   6.379   5.677   4.295 -0.9856 -0.8442  0.4239
 4403SOL    HW317385   6.326   5.608   4.171  0.1913 -1.2180  0.1106
 4403SOL    MW417386   6.393   5.630   4.223 -0.1294 -0.0935  0.0725
 4404SOL     OW17387   4.282   5.047   5.185  0.3888  0.5936  0.0788
 4404SOL    HW217388   4.263   5.098   5.106  1.2738  1.9075  0.6698
 4404SOL    HW317389   4.343   5.102   5.234  1.1754 -0.9395  0.8846
 4404SOL    MW417390   4.288   5.061   5.181  0.6094  0.5646  0.2631
 4405SOL     OW17391   1.398   5.946   2.321  0.5125 -0.2025  0.1411
 4405SOL    HW217392   1.481   5.913   2.289  1.1645  1.4338  0.0346
 4405SOL    HW317393   1.416   5.975   2.411 -0.5451 -1.9649  0.9656
 4405SOL    MW417394   1.411   5.946   2.329  0.4590 -0.2191  0.2358
 4406SOL     OW17395   4.297   2.169   3.091 -0.0582  0.1581 -0.4614
 4406SOL    HW217396   4.370   2.116   3.057 -0.1009  0.1244 -0.5018
 4406SOL    HW317397   4.233   2.105   3.122 -0.3011  0.1752 -0.9090
 4406SOL    MW417398   4.298   2.153   3.090 -0.0959  0.1559 -0.5258
 4407SOL     OW17399   1.846   2.133   5.831  0.3328  0.3146 -0.2352
 4407SOL    HW217400   1.849   2.228   5.815 -2.0456  0.4847 -0.1245
 4407SOL    HW317401   1.800   2.125   5.914 -0.3695 -0.9625 -0.7216
 4407SOL    MW417402   1.840   2.145   5.840 -0.0737  0.1686 -0.2848
 4408SOL     OW17403   0.062   4.187   6.240 -0.1907 -0.2818  0.3078
 4408SOL    HW217404   0.082   4.100   6.205  0.6745 -0.4800  1.2636
 4408SOL    HW317405  -0.015   4.215   6.191 -0.2989 -1.4599 -0.2280
 4408SOL    MW417406   0.054   4.179   6.229 -0.0908 -0.4634  0.3632
 4409SOL     OW17407   3.885   4.630   6.152 -0.4996  0.3967  0.3826
 4409SOL    HW217408   3.800   4.665   6.127 -1.6842 -2.2724  0.3275
 4409SOL    HW317409   3.866   4.541   6.182  2.2311 -0.1198  0.8174
 4409SOL    MW417410   3.871   4.623   6.153 -0.2956 -0.0236  0.4327
 4410SOL     OW17411   4.644   6.102   1.766  0.2294 -0.2439 -0.1727
 4410SOL    HW217412   4.624   6.164   1.836 -1.9483  0.2971 -1.1628
 4410SOL    HW317413   4.732   6.125   1.737 -0.0580  1.5917  0.3021
 4410SOL    MW417414   4.653   6.113   1.771 -0.0958  0.0697 -0.2407
 4411SOL     OW17415   5.155   2.230   1.640  0.0404  0.4667  0.5432
 4411SOL    HW217416   5.213   2.156   1.658  0.3698  0.7135  0.4925
 4411SOL    HW317417   5.076   2.211   1.691 -0.0431 -0.1284  0.2076
 4411SOL    MW417418   5.152   2.218   1.649  0.0728  0.4207  0.4922
 4412SOL     OW17419   3.205   4.627   4.794  0.0757 -0.3443 -0.4855
 4412SOL    HW217420   3.131   4.641   4.852  0.2732  0.1224 -0.3462
 4412SOL    HW317421   3.279   4.612   4.852  0.3977  0.7296 -0.6013
 4412SOL    MW417422   3.205   4.627   4.809  0.1442 -0.1410 -0.4824
 4413SOL     OW17423   3.571   2.977   6.258  0.0241 -0.5757  0.2269
 4413SOL    HW217424   3.543   3.046   6.318  2.2366  0.1905  0.4982
 4413SOL    HW317425   3.580   3.021   6.174 -0.7804 -1.0841 -0.1265
 4413SOL    MW417426   3.569   2.992   6.255  0.2099 -0.5417  0.2161
 4414SOL     OW17427   6.261   5.873   4.346 -0.2322 -0.1470 -0.5695
 4414SOL    HW217428   6.259   5.902   4.437  1.1398  0.5051 -0.7292
 4414SOL    HW317429   6.239   5.951   4.295 -0.4197 -0.3640 -0.8233
 4414SOL    MW417430   6.258   5.887   4.351 -0.0759 -0.0896 -0.6240
 4415SOL     OW17431   5.865   5.357   5.858 -0.1072 -0.9275  0.2651
 4415SOL    HW217432   5.881   5.305   5.779 -0.5354 -0.5260 -0.0988
 4415SOL    HW317433   5.867   5.294   5.930  1.7572 -1.0800  0.1108
 4415SOL    MW417434   5.867   5.342   5.857  0.0823 -0.8947  0.1967
 4416SOL     OW17435   2.617   5.722   5.878 -0.5302 -0.0843  0.1456
 4416SOL    HW217436   2.664   5.801   5.906 -0.2694 -0.8611  2.0135
 4416SOL    HW317437   2.527   5.737   5.908 -0.9523  0.3022 -1.2148
 4416SOL    MW417438   2.611   5.735   5.885 -0.5515 -0.1358  0.2125
 4417SOL     OW17439   3.028   0.245   1.102 -0.6551  0.0303 -0.1610
 4417SOL    HW217440   3.049   0.338   1.089  2.6669 -0.6645 -0.5112
 4417SOL    HW317441   3.082   0.199   1.038 -0.6462 -2.2683  1.3969
 4417SOL    MW417442   3.037   0.251   1.092 -0.2156 -0.3647 -0.0017
 4418SOL     OW17443   2.124   3.008   4.533 -0.0529 -0.2837 -0.2887
 4418SOL    HW217444   2.076   2.955   4.597 -1.9023  1.4920 -0.1100
 4418SOL    HW317445   2.217   2.991   4.552 -0.5252  0.0240  2.7399
 4418SOL    MW417446   2.130   2.999   4.544 -0.3592 -0.0088  0.1345
 4419SOL     OW17447   6.092   6.027   4.590  0.0709  0.5859  0.2014
 4419SOL    HW217448   6.084   6.123   4.592  0.6799  0.6540 -0.1419
 4419SOL    HW317449   6.036   5.996   4.661 -1.0242  1.1326 -0.4064
 4419SOL    MW417450   6.083   6.036   4.600  0.0067  0.6670  0.0759
 4420SOL     OW17451   4.551   1.576   5.491  0.2044 -0.7538 -0.2788
 4420SOL    HW217452   4.518   1.644   5.433  0.9113  1.1638  1.4720
 4420SOL    HW317453   4.498   1.499   5.468 -1.5404  0.6801 -1.4304
 4420SOL    MW417454   4.539   1.575   5.480  0.0674 -0.3116 -0.1998
 4421SOL     OW17455   4.288   6.229   0.395 -0.1370 -0.0848  0.2682
 4421SOL    HW217456   4.279   6.193   0.483 -1.7631  0.6757  0.4359
 4421SOL    HW317457   4.211   6.198   0.348  0.6065 -0.3065 -0.8491
 4421SOL    MW417458   4.277   6.220   0.400 -0.2535 -0.0137  0.1429
 4422SOL     OW17459   0.894   5.712   4.978 -0.2179  0.0029  0.3098
 4422SOL    HW217460   0.856   5.795   5.007 -1.3289 -0.1979 -0.4883
 4422SOL    HW317461   0.825   5.648   4.995 -0.4384 -0.3096 -1.5526
 4422SOL    MW417462   0.880   5.715   4.984 -0.3936 -0.0648 -0.0412
 4423SOL     OW17463   3.684   0.453   6.346  0.4333 -0.5618  0.2462
 4423SOL    HW217464   3.689   0.545   6.371  0.2275 -0.1747 -1.0457
 4423SOL    HW317465   3.676   0.405   6.429 -0.2685  0.6391  0.8884
 4423SOL    MW417466   3.684   0.459   6.360  0.3135 -0.3523  0.1605
 4424SOL     OW17467   3.893   2.544   5.444 -0.4401  0.3309 -0.4679
 4424SOL    HW217468   3.871   2.633   5.472 -2.4362 -0.0472 -0.6278
 4424SOL    HW317469   3.840   2.488   5.501 -0.6850 -0.6669 -1.6265
 4424SOL    MW417470   3.883   2.549   5.455 -0.7358  0.1494 -0.6418
 4425SOL     OW17471   5.631   3.138   2.017  0.1731 -0.0409  0.1695
 4425SOL    HW217472   5.724   3.116   2.010 -0.3627 -3.0963  1.1893
 4425SOL    HW317473   5.615   3.146   2.111 -0.0160  4.0103 -0.0189
 4425SOL    MW417474   5.641   3.136   2.029  0.0774  0.0904  0.2792
 4426SOL     OW17475   4.907   4.040   0.581  0.4308 -0.4615  0.5440
 4426SOL    HW217476   4.966   3.968   0.602  1.8194  0.4120 -0.2210
 4426SOL    HW317477   4.947   4.083   0.506 -0.6776  0.7625  0.6139
 4426SOL    MW417478   4.920   4.036   0.574  0.4678 -0.1848  0.4523
 4427SOL     OW17479   1.554   1.554   0.390  0.1577  0.0470  0.0249
 4427SOL    HW217480   1.552   1.595   0.303 -1.6366  1.5490  0.7037
 4427SOL    HW317481   1.551   1.628   0.451 -0.9575 -1.0260  1.3294
 4427SOL    MW417482   1.553   1.569   0.387 -0.2261  0.1036  0.2866
 4428SOL     OW17483   0.066   2.376   2.821 -0.2303 -0.6999  0.3648
 4428SOL    HW217484   0.121   2.432   2.765 -1.2148 -0.5332 -0.4671
 4428SOL    HW317485   0.090   2.401   2.910 -0.0032  0.4229  0.0121
 4428SOL    MW417486   0.077   2.387   2.825 -0.3302 -0.5298  0.2085
 4429SOL     OW17487   0.326   0.870   5.923 -0.1950  0.0178 -0.2400
 4429SOL    HW217488   0.414   0.838   5.941  0.1031  1.5845  1.3310
 4429SOL    HW317489   0.308   0.933   5.993 -2.5408 -0.1986 -0.5536
 4429SOL    MW417490   0.335   0.874   5.934 -0.4652  0.1960 -0.0741
 4430SOL     OW17491   6.127   5.514   1.676 -0.4470  0.6519  0.1112
 4430SOL    HW217492   6.054   5.461   1.645 -2.4024  2.1402  1.9261
 4430SOL    HW317493   6.093   5.603   1.679  1.5992  1.4686  0.6041
 4430SOL    MW417494   6.113   5.519   1.673 -0.4350  0.9561  0.4157
 4431SOL     OW17495   0.707   2.905   2.268  0.5229 -0.3145  0.3436
 4431SOL    HW217496   0.701   2.939   2.357  2.5191 -0.2217  0.4836
 4431SOL    HW317497   0.692   2.981   2.212  1.1742  0.0252  0.6249
 4431SOL    MW417498   0.704   2.919   2.272  0.8722 -0.2575  0.3992
 4432SOL     OW17499   5.335   2.422   5.397 -0.3633  0.1493 -0.0411
 4432SOL    HW217500   5.248   2.391   5.372 -0.1401  0.4874 -1.2781
 4432SOL    HW317501   5.355   2.491   5.335  1.1344 -0.4871 -0.3076
 4432SOL    MW417502   5.326   2.427   5.385 -0.1363  0.1099 -0.2394
 4433SOL     OW17503   4.945   0.380   0.908 -0.3403 -0.0358 -0.5169
 4433SOL    HW217504   4.921   0.294   0.874 -1.6671  0.0809  0.0512
 4433SOL    HW317505   4.964   0.433   0.830 -1.6591 -0.2413 -1.0001
 4433SOL    MW417506   4.945   0.376   0.893 -0.6893 -0.0475 -0.5057
 4434SOL     OW17507   3.986   4.796   2.269 -0.4158  0.7894  0.5302
 4434SOL    HW217508   4.035   4.867   2.227 -0.9400  0.7530 -0.1642
 4434SOL    HW317509   4.043   4.720   2.260 -0.4470  0.8225  0.0445
 4434SOL    MW417510   4.000   4.796   2.262 -0.4891  0.7889  0.3745
 4435SOL     OW17511   6.420   3.482   5.715  0.1800  0.2098 -0.2860
 4435SOL    HW217512   6.361   3.555   5.697  0.2847  0.0287 -1.4374
 4435SOL    HW317513   6.452   3.499   5.803  0.9190  2.0814 -0.8622
 4435SOL    MW417514   6.417   3.494   5.724  0.2913  0.4328 -0.5139
 4436SOL     OW17515   0.009   3.108   2.109  0.5068  0.1478 -0.6100
 4436SOL    HW217516  -0.083   3.136   2.108 -0.1828 -1.9492 -0.8491
 4436SOL    HW317517   0.052   3.170   2.168 -1.1583  0.9218 -0.1473
 4436SOL    MW417518   0.002   3.119   2.117  0.1961 -0.0268 -0.5805
 4437SOL     OW17519   0.544   2.205   1.749  0.7914 -0.2046 -0.5095
 4437SOL    HW217520   0.546   2.293   1.787  0.4115 -0.4267  0.0443
 4437SOL    HW317521   0.563   2.147   1.823 -0.6776 -0.6947 -0.4805
 4437SOL    MW417522   0.547   2.209   1.764  0.5475 -0.2986 -0.4326
 4438SOL     OW17523   5.097   3.064   4.591 -0.4643  0.1532 -0.2351
 4438SOL    HW217524   5.005   3.089   4.587 -1.0776 -2.0112 -1.2784
 4438SOL    HW317525   5.114   3.024   4.505  0.7248 -1.7561  0.8234
 4438SOL    MW417526   5.087   3.062   4.579 -0.3884 -0.3843 -0.2331
 4439SOL     OW17527   1.042   5.475   0.736 -0.4564 -0.8207 -0.4379
 4439SOL    HW217528   0.974   5.507   0.677 -0.1200 -1.0116 -0.9304
 4439SOL    HW317529   0.994   5.434   0.808 -0.8891  0.2437 -0.0860
 4439SOL    MW417530   1.027   5.474   0.738 -0.4691 -0.7055 -0.4564
 4440SOL     OW17531   1.926   3.551   5.929  0.2351  0.3678 -0.0175
 4440SOL    HW217532   1.985   3.551   6.005 -0.4125  1.1409  0.5051
 4440SOL    HW317533   1.870   3.474   5.942  1.2804 -0.5256 -0.6581
 4440SOL    MW417534   1.926   3.540   5.941  0.2876  0.3519 -0.0331
 4441SOL     OW17535   3.943   4.656   3.843 -0.0432  0.0485 -0.6967
 4441SOL    HW217536   3.958   4.637   3.750  0.7374 -0.0300 -0.5554
 4441SOL    HW317537   3.995   4.591   3.890 -1.3798 -0.6852 -0.1846
 4441SOL    MW417538   3.952   4.645   3.837 -0.1166 -0.0587 -0.6105
 4442SOL     OW17539   0.461   1.031   3.094  0.2140 -0.2725 -0.4478
 4442SOL    HW217540   0.492   1.063   3.009 -0.9251  0.2482 -0.6907
 4442SOL    HW317541   0.458   1.109   3.149  1.1068 -0.6387  0.1354
 4442SOL    MW417542   0.464   1.046   3.090  0.1815 -0.2521 -0.4029
 4443SOL     OW17543   1.703   0.643   6.108 -0.0347  0.5264 -0.6174
 4443SOL    HW217544   1.774   0.657   6.170  0.2830 -0.5718 -0.7179
 4443SOL    HW317545   1.689   0.729   6.067 -0.6248  1.4312  1.3468
 4443SOL    MW417546   1.710   0.656   6.111 -0.0706  0.5009 -0.3715
 4444SOL     OW17547   2.901   5.105   0.281 -0.7161  0.5947  0.1177
 4444SOL    HW217548   2.838   5.041   0.247  0.0191  0.5916 -1.2928
 4444SOL    HW317549   2.847   5.181   0.304 -1.2234  0.6704 -1.2608
 4444SOL    MW417550   2.885   5.107   0.280 -0.6861  0.6042 -0.2503
 4445SOL     OW17551   1.229   6.468   2.572 -0.2763  0.2619  0.5079
 4445SOL    HW217552   1.231   6.561   2.551  2.7507  0.5177  1.4083
 4445SOL    HW317553   1.141   6.452   2.606 -0.7062  2.9108  0.7983
 4445SOL    MW417554   1.218   6.478   2.574  0.0663  0.6451  0.6650
 4446SOL     OW17555   3.053   1.498   3.310  0.2005  0.0297 -0.0557
 4446SOL    HW217556   2.993   1.425   3.323 -0.1213  0.4602  1.0312
 4446SOL    HW317557   2.998   1.569   3.276  0.3731 -0.0107 -0.4248
 4446SOL    MW417558   3.038   1.498   3.307  0.1808  0.0812  0.0390
 4447SOL     OW17559   3.166   3.558   4.091  0.4127  0.0019  0.0108
 4447SOL    HW217560   3.088   3.600   4.056  0.5496  0.3119  0.0740
 4447SOL    HW317561   3.230   3.629   4.100  1.2102 -0.4926 -1.4458
 4447SOL    MW417562   3.164   3.573   4.088  0.5360 -0.0225 -0.1731
 4448SOL     OW17563   1.909   1.796   4.573 -0.4996  0.1714  0.5215
 4448SOL    HW217564   1.912   1.762   4.663 -0.5106  1.5967  1.1062
 4448SOL    HW317565   1.816   1.795   4.550 -0.6599  1.0008  1.0551
 4448SOL    MW417566   1.897   1.792   4.582 -0.5222  0.4689  0.6691
 4449SOL     OW17567   1.166   5.192   6.312 -0.0470 -0.0837 -0.4762
 4449SOL    HW217568   1.136   5.138   6.239  1.6539 -0.7498 -0.7139
 4449SOL    HW317569   1.261   5.195   6.303  0.3287 -0.9890  2.2410
 4449SOL    MW417570   1.174   5.185   6.301  0.2270 -0.2910 -0.1491
 4450SOL     OW17571   0.928   0.955   3.548  0.2979 -0.4337  0.0354
 4450SOL    HW217572   0.985   0.955   3.625  1.0735 -0.6693 -0.5171
 4450SOL    HW317573   0.933   1.044   3.513 -0.9491 -0.0062  0.8747
 4450SOL    MW417574   0.936   0.967   3.553  0.2357 -0.4084  0.0732
 4451SOL     OW17575   5.556   2.295   2.487 -0.3461 -0.0277 -0.4213
 4451SOL    HW217576   5.619   2.298   2.415  0.0471 -2.3144 -0.2587
 4451SOL    HW317577   5.608   2.311   2.565 -0.5673  1.2729 -0.5200
 4451SOL    MW417578   5.571   2.298   2.487 -0.3234 -0.1578 -0.4129
 4452SOL     OW17579   5.629   0.361   2.294  0.5511 -0.4118 -0.7225
 4452SOL    HW217580   5.683   0.318   2.361 -0.6968  0.7626  1.1432
 4452SOL    HW317581   5.688   0.424   2.254  0.8272  0.3393  0.7694
 4452SOL    MW417582   5.644   0.363   2.298  0.4229 -0.1578 -0.2795
 4453SOL     OW17583   4.719   3.467   6.436  0.0803  0.2272 -0.0581
 4453SOL    HW217584   4.662   3.543   6.444 -0.5173 -0.3255  1.5153
 4453SOL    HW317585   4.662   3.397   6.405 -0.1767 -0.3413  1.5713
 4453SOL    MW417586   4.704   3.467   6.433 -0.0325  0.0793  0.3644
 4454SOL     OW17587   2.827   3.178   4.126  0.2820 -0.2861 -0.5592
 4454SOL    HW217588   2.905   3.211   4.081  1.5096 -0.5529  1.2243
 4454SOL    HW317589   2.754   3.223   4.085  1.6558  2.9231  0.1681
 4454SOL    MW417590   2.828   3.188   4.115  0.6252  0.1021 -0.2280
 4455SOL     OW17591   2.576   6.139   4.989 -0.0522 -0.2750 -0.6562
 4455SOL    HW217592   2.507   6.139   5.055  1.6785  0.5313  1.2461
 4455SOL    HW317593   2.625   6.058   5.006  1.8370  1.0849  0.7138
 4455SOL    MW417594   2.573   6.128   5.000  0.4254  0.0108 -0.2244
 4456SOL     OW17595   4.940   3.997   3.621  0.2828 -0.5015  0.3968
 4456SOL    HW217596   5.008   4.055   3.656 -0.0435  0.7468 -0.9326
 4456SOL    HW317597   4.859   4.046   3.632 -0.0760 -0.9269 -0.2704
 4456SOL    MW417598   4.938   4.011   3.627  0.1924 -0.3929  0.1334
 4457SOL     OW17599   0.276   2.626   3.450 -0.4331 -0.3791 -0.7518
 4457SOL    HW217600   0.222   2.593   3.522  1.6284 -0.3662  0.9101
 4457SOL    HW317601   0.338   2.555   3.432  2.1070  1.2370  0.8121
 4457SOL    MW417602   0.277   2.613   3.457  0.1740 -0.1641 -0.3262
 4458SOL     OW17603   4.759   1.939   4.228  0.1928  0.2052 -0.9490
 4458SOL    HW217604   4.667   1.936   4.204 -0.0316 -1.1032 -0.0291
 4458SOL    HW317605   4.795   1.856   4.195 -0.1103 -1.6636  2.9253
 4458SOL    MW417606   4.752   1.928   4.220  0.1232 -0.2140 -0.3165
 4459SOL     OW17607   3.578   2.273   0.116 -0.6346 -0.7315  0.4337
 4459SOL    HW217608   3.637   2.309   0.182  0.1753 -1.4183  0.0942
 4459SOL    HW317609   3.592   2.179   0.120 -0.0542 -0.7429 -1.1885
 4459SOL    MW417610   3.587   2.266   0.125 -0.4512 -0.8236  0.1748
 4460SOL     OW17611   5.660   1.506   5.346  0.0947 -0.0685  0.0759
 4460SOL    HW217612   5.574   1.463   5.343  0.8466 -1.5984 -2.0791
 4460SOL    HW317613   5.660   1.554   5.429 -2.8276 -0.0016  0.1360
 4460SOL    MW417614   5.649   1.507   5.357 -0.1917 -0.2615 -0.2005
 4461SOL     OW17615   2.160   3.025   2.090  0.0117  0.5955  0.3394
 4461SOL    HW217616   2.228   2.972   2.131  1.9598  2.5988 -0.1661
 4461SOL    HW317617   2.125   3.078   2.162  0.1305  0.7304  0.2983
 4461SOL    MW417618   2.164   3.025   2.105  0.2844  0.8776  0.2673
 4462SOL     OW17619   0.322   3.797   2.583 -0.1497 -0.0885 -0.1206
 4462SOL    HW217620   0.400   3.757   2.622 -1.0102 -0.2398  1.5747
 4462SOL    HW317621   0.355   3.870   2.531  1.2560 -1.4552 -1.2328
 4462SOL    MW417622   0.336   3.801   2.582 -0.0778 -0.2888 -0.0437
 4463SOL     OW17623   3.397   0.753   0.104 -0.4340  0.6160  0.1649
 4463SOL    HW217624   3.381   0.757   0.198 -0.2432 -2.7086  0.4539
 4463SOL    HW317625   3.396   0.660   0.083  0.3526  1.1906 -3.0161
 4463SOL    MW417626   3.394   0.742   0.113 -0.3051  0.2532 -0.2166
 4464SOL     OW17627   2.495   2.034   2.073 -0.0281  0.4536 -0.5989
 4464SOL    HW217628   2.500   2.126   2.048  0.6667  0.1546 -1.6063
 4464SOL    HW317629   2.411   2.026   2.118 -0.6190  1.3470 -1.5039
 4464SOL    MW417630   2.484   2.045   2.076 -0.0144  0.5320 -0.8512
 4465SOL     OW17631   3.001   4.553   4.963 -0.1167 -0.2293 -0.0902
 4465SOL    HW217632   2.907   4.567   4.950  0.0437  0.0786 -0.9950
 4465SOL    HW317633   3.022   4.604   5.041 -0.5190  0.5058 -0.4512
 4465SOL    MW417634   2.992   4.561   4.972 -0.1486 -0.0917 -0.2572
 4466SOL     OW17635   5.970   5.867   5.386 -0.3299  0.0831 -0.6447
 4466SOL    HW217636   5.920   5.791   5.416 -2.1101  1.1910 -0.6672
 4466SOL    HW317637   5.906   5.922   5.340  1.0501  1.2870 -1.2165
 4466SOL    MW417638   5.955   5.865   5.384 -0.3827  0.3881 -0.7231
 4467SOL     OW17639   3.433   3.521   2.343  0.4908 -0.5400 -0.2988
 4467SOL    HW217640   3.349   3.561   2.367  1.3032  0.4740  0.9666
 4467SOL    HW317641   3.408   3.442   2.294 -1.2035 -0.3473  0.1691
 4467SOL    MW417642   3.418   3.516   2.340  0.3745 -0.3808 -0.0701
 4468SOL     OW17643   0.958   4.550   5.209 -0.8834  0.0946  0.0502
 4468SOL    HW217644   0.869   4.575   5.185 -0.8625 -0.1454 -0.2898
 4468SOL    HW317645   0.954   4.531   5.303 -1.0542  0.6694  0.1604
 4468SOL    MW417646   0.946   4.551   5.218 -0.9032  0.1388  0.0199
 4469SOL     OW17647   2.653   5.002   0.159 -0.5417 -0.6150 -0.4255
 4469SOL    HW217648   2.668   4.919   0.114  0.6285 -0.4635 -0.3365
 4469SOL    HW317649   2.604   4.978   0.237 -0.8089 -1.1311 -0.7455
 4469SOL    MW417650   2.648   4.988   0.163 -0.4226 -0.6631 -0.4560
 4470SOL     OW17651   4.932   3.193   3.326 -0.3473 -0.4209  0.5416
 4470SOL    HW217652   4.992   3.199   3.252  0.4465 -0.7276  1.1407
 4470SOL    HW317653   4.881   3.114   3.310 -1.5998  0.5838 -0.6770
 4470SOL    MW417654   4.933   3.184   3.314 -0.4078 -0.3288  0.4599
 4471SOL     OW17655   4.156   3.856   2.654  0.3897 -0.2016 -0.1681
 4471SOL    HW217656   4.150   3.781   2.712 -0.8393 -0.6262 -0.8073
 4471SOL    HW317657   4.105   3.924   2.697 -0.2752 -0.4219 -0.6015
 4471SOL    MW417658   4.149   3.855   2.667  0.1399 -0.2867 -0.3096
 4472SOL     OW17659   1.262   3.838   2.840 -0.6021  0.3220  0.9537
 4472SOL    HW217660   1.299   3.840   2.752  0.5217 -1.0537  1.3741
 4472SOL    HW317661   1.169   3.818   2.826 -0.7639  1.5681  0.0298
 4472SOL    MW417662   1.254   3.836   2.827 -0.4752  0.3049  0.8873
 4473SOL     OW17663   5.405   3.226   0.050  0.7832 -0.2760 -0.2257
 4473SOL    HW217664   5.377   3.277   0.127  0.1530 -1.9419  0.6854
 4473SOL    HW317665   5.334   3.236  -0.013 -0.1940 -1.4404  0.6450
 4473SOL    MW417666   5.392   3.234   0.052  0.5711 -0.6494  0.0094
 4474SOL     OW17667   1.118   1.043   0.766  0.3709  0.2019 -0.2604
 4474SOL    HW217668   1.206   1.007   0.773  0.6396  0.0539 -3.1006
 4474SOL    HW317669   1.123   1.105   0.693 -2.5010 -2.0910 -2.6557
 4474SOL    MW417670   1.130   1.047   0.757  0.0274 -0.1201 -0.9512
 4475SOL     OW17671   5.047   6.405   0.753  0.6504  0.1405  0.4462
 4475SOL    HW217672   5.047   6.361   0.668 -1.4820  0.1362  0.4116
 4475SOL    HW317673   5.120   6.364   0.800 -0.5642 -2.7550  0.0231
 4475SOL    MW417674   5.057   6.393   0.748  0.2088 -0.2421  0.3858
 4476SOL     OW17675   3.140   6.047   1.632  0.3922 -0.4493 -0.2181
 4476SOL    HW217676   3.122   6.025   1.541 -2.0439 -2.3252  0.6387
 4476SOL    HW317677   3.104   6.136   1.643  0.9865 -0.0858 -1.1232
 4476SOL    MW417678   3.133   6.056   1.622  0.1492 -0.6488 -0.2245
 4477SOL     OW17679   1.406   3.184   2.460 -0.0704 -0.1412 -0.0171
 4477SOL    HW217680   1.383   3.234   2.382 -1.8356  0.1733  0.6634
 4477SOL    HW317681   1.328   3.133   2.479  0.8012 -1.2067  0.8063
 4477SOL    MW417682   1.393   3.184   2.452 -0.1883 -0.2403  0.1813
 4478SOL     OW17683   2.841   1.602   4.455 -0.6699 -0.3146 -0.1213
 4478SOL    HW217684   2.844   1.684   4.504 -1.3572 -1.5514  2.1459
 4478SOL    HW317685   2.808   1.627   4.368  1.9244  2.1728 -0.5492
 4478SOL    MW417686   2.837   1.616   4.450 -0.4183 -0.1496  0.1214
 4479SOL     OW17687   2.401   1.638   5.608 -0.5243 -0.3035  0.0961
 4479SOL    HW217688   2.318   1.598   5.584 -1.6943  1.1579  1.5003
 4479SOL    HW317689   2.419   1.700   5.537 -1.0665 -0.0403  0.1839
 4479SOL    MW417690   2.393   1.641   5.595 -0.7502 -0.0760  0.2929
 4480SOL     OW17691   2.938   5.297   6.084 -0.1446  0.4352 -0.7641
 4480SOL    HW217692   3.011   5.355   6.103  0.6129 -0.8079  0.3545
 4480SOL    HW317693   2.886   5.343   6.019 -0.4679  3.0466  1.2113
 4480SOL    MW417694   2.941   5.310   6.078 -0.0873  0.6157 -0.3559
 4481SOL     OW17695   1.105   1.774   1.120 -0.2238  0.1910  0.5218
 4481SOL    HW217696   1.041   1.845   1.112 -0.9150 -0.1734  2.4030
 4481SOL    HW317697   1.090   1.737   1.207  0.2457 -2.1435 -0.2913
 4481SOL    MW417698   1.094   1.778   1.130 -0.2531 -0.1651  0.6627
 4482SOL     OW17699   3.457   3.923   1.208 -0.1866 -0.1176 -0.1534
 4482SOL    HW217700   3.470   3.841   1.255 -2.7747  0.2009  1.2771
 4482SOL    HW317701   3.477   3.991   1.272  2.6015  0.5020 -1.5170
 4482SOL    MW417702   3.461   3.921   1.222 -0.1602  0.0062 -0.1446
 4483SOL     OW17703   5.241   2.671   3.748  0.5472  0.0245  0.3146
 4483SOL    HW217704   5.161   2.723   3.758  0.8095  0.1053  2.3908
 4483SOL    HW317705   5.309   2.723   3.789  1.1617 -1.1842  0.8801
 4483SOL    MW417706   5.239   2.685   3.755  0.6629 -0.1243  0.6631
 4484SOL     OW17707   0.297   1.677   5.223  0.2093  0.2056 -0.3600
 4484SOL    HW217708   0.368   1.736   5.197  0.9084 -0.3037  0.3263
 4484SOL    HW317709   0.286   1.694   5.317 -1.4268  1.1480 -0.6779
 4484SOL    MW417710   0.305   1.687   5.232  0.0857  0.2628 -0.3114
 4485SOL     OW17711   5.954   2.265   1.356 -0.3515  0.1778 -0.6039
 4485SOL    HW217712   5.966   2.188   1.301 -0.0076  1.4478 -2.4148
 4485SOL    HW317713   5.963   2.233   1.445  1.3867 -1.6097 -1.3447
 4485SOL    MW417714   5.957   2.251   1.360 -0.0768  0.1095 -0.9406
 4486SOL     OW17715   5.961   3.029   0.890  0.2324  0.2838 -0.4484
 4486SOL    HW217716   6.021   3.060   0.958  0.1913 -0.3560 -0.1115
 4486SOL    HW317717   5.974   3.089   0.817 -0.9835  2.0960  0.7287
 4486SOL    MW417718   5.970   3.041   0.889  0.0666  0.4385 -0.2486
 4487SOL     OW17719   6.014   3.260   5.057  0.0470  0.0726  0.0907
 4487SOL    HW217720   5.934   3.252   5.006 -0.6050  0.6103  0.9796
 4487SOL    HW317721   6.051   3.172   5.059  0.0793  0.0342 -1.2503
 4487SOL    MW417722   6.008   3.248   5.051 -0.0347  0.1385  0.0310
 4488SOL     OW17723   5.204   2.741   0.323 -0.2796 -0.5118 -0.0815
 4488SOL    HW217724   5.165   2.812   0.374  0.1968 -0.0431 -0.3616
 4488SOL    HW317725   5.298   2.756   0.328 -0.2444  0.5865 -2.5354
 4488SOL    MW417726   5.211   2.752   0.330 -0.2121 -0.3051 -0.4422
 4489SOL     OW17727   6.022   1.477   2.566  0.3821 -0.3878 -0.6369
 4489SOL    HW217728   5.994   1.551   2.513  0.6944  0.8261  0.8104
 4489SOL    HW317729   5.940   1.440   2.599  0.2333 -0.5543 -1.1822
 4489SOL    MW417730   6.008   1.482   2.564  0.4037 -0.2496 -0.5179
 4490SOL     OW17731   3.200   4.614   5.395 -0.2115 -0.1571 -0.5081
 4490SOL    HW217732   3.178   4.521   5.392  0.8136 -0.4407  0.3451
 4490SOL    HW317733   3.292   4.617   5.421 -0.6111  1.1113  0.9764
 4490SOL    MW417734   3.209   4.602   5.398 -0.1290 -0.0271 -0.1997
 4491SOL     OW17735   2.666   2.315   1.263 -0.8199  0.3351  0.1420
 4491SOL    HW217736   2.697   2.406   1.273 -1.7264  0.9686 -2.1821
 4491SOL    HW317737   2.584   2.313   1.312  0.5685 -0.1352  2.6545
 4491SOL    MW417738   2.659   2.327   1.271 -0.7563  0.3566  0.1669
 4492SOL     OW17739   3.111   2.927   3.826  0.5123 -0.1330 -0.4596
 4492SOL    HW217740   3.160   2.880   3.894 -1.6525 -0.6009  0.8833
 4492SOL    HW317741   3.032   2.959   3.871  1.1053  3.5290 -1.6993
 4492SOL    MW417742   3.107   2.925   3.841  0.3049  0.2884 -0.4460
 4493SOL     OW17743   6.060   2.391   4.557  0.2197  0.5500  0.1924
 4493SOL    HW217744   6.067   2.450   4.633  0.6788  0.0717  0.5344
 4493SOL    HW317745   6.128   2.325   4.573 -1.9070 -1.5589  1.1443
 4493SOL    MW417746   6.070   2.390   4.569 -0.0003  0.2086  0.3631
 4494SOL     OW17747   4.527   6.126   2.335  0.1134  0.2554  0.2134
 4494SOL    HW217748   4.550   6.068   2.263 -1.5973 -0.2456  0.0237
 4494SOL    HW317749   4.539   6.073   2.414 -2.0308 -0.6590  0.0091
 4494SOL    MW417750   4.531   6.112   2.336 -0.3952  0.0687  0.1614
 4495SOL     OW17751   0.829   5.270   4.716  0.2838  0.5652  0.1596
 4495SOL    HW217752   0.822   5.243   4.625  0.9832  1.3117 -0.1283
 4495SOL    HW317753   0.810   5.364   4.715  0.2345  0.5679  0.7911
 4495SOL    MW417754   0.825   5.279   4.704  0.3695  0.6641  0.2050
 4496SOL     OW17755   1.045   5.088   4.132 -0.1916 -0.3929 -0.4864
 4496SOL    HW217756   1.084   5.123   4.212  0.4062  0.4841 -1.1336
 4496SOL    HW317757   0.974   5.149   4.111 -0.5011 -0.7551 -0.4867
 4496SOL    MW417758   1.041   5.101   4.140 -0.1536 -0.3249 -0.5718
 4497SOL     OW17759   4.169   3.043   1.149 -0.2264 -0.1955  0.2826
 4497SOL    HW217760   4.228   3.110   1.184 -0.4428 -0.6128  1.5069
 4497SOL    HW317761   4.132   3.082   1.070 -0.4078  1.1764  1.0097
 4497SOL    MW417762   4.172   3.057   1.144 -0.2789 -0.0696  0.5401
 4498SOL     OW17763   1.232   1.696   2.271 -0.8780  0.4850 -0.6805
 4498SOL    HW217764   1.317   1.655   2.288 -1.3856 -0.4262 -0.2943
 4498SOL    HW317765   1.245   1.745   2.190 -0.4003 -0.8310 -1.4197
 4498SOL    MW417766   1.245   1.697   2.263 -0.8819  0.1911 -0.7271
 4499SOL     OW17767   3.927   0.078   5.603 -0.0746  0.2005 -0.1368
 4499SOL    HW217768   3.911  -0.016   5.606  1.4128 -0.0656  1.4609
 4499SOL    HW317769   3.998   0.088   5.540 -0.8300  0.3810 -0.9759
 4499SOL    MW417770   3.934   0.067   5.595  0.0220  0.1892 -0.0367
 4500SOL     OW17771   2.610   1.972   1.073 -0.3048  0.3049 -0.0011
 4500SOL    HW217772   2.650   1.977   0.986  0.3143  0.4301  0.2829
 4500SOL    HW317773   2.536   2.033   1.069  1.6176  2.8654  0.5112
 4500SOL    MW417774   2.605   1.981   1.061  0.0305  0.6593  0.1040
 4501SOL     OW17775   5.103   2.946   0.944 -0.5725  0.0757 -0.5965
 4501SOL    HW217776   5.077   2.856   0.925  0.4145 -0.2910 -0.2777
 4501SOL    HW317777   5.060   2.999   0.877 -1.4644 -0.5884 -0.5606
 4501SOL    MW417778   5.094   2.941   0.933 -0.5600 -0.0603 -0.5497
 4502SOL     OW17779   6.027   2.722   5.708 -0.0234  0.0536  0.6110
 4502SOL    HW217780   5.991   2.671   5.781  1.3316  0.4253  1.5647
 4502SOL    HW317781   6.022   2.662   5.633  0.6762 -1.1786  1.5008
 4502SOL    MW417782   6.021   2.707   5.707  0.2477 -0.0600  0.8542
 4503SOL     OW17783   0.568   5.127   1.986  0.0015 -0.3333  0.0244
 4503SOL    HW217784   0.659   5.143   2.009  0.0746  0.3432 -0.6993
 4503SOL    HW317785   0.557   5.032   1.994  0.4667 -0.2969  1.1723
 4503SOL    MW417786   0.579   5.117   1.990  0.0725 -0.2392  0.0804
 4504SOL     OW17787   0.931   6.095   1.798 -0.4144  0.1196  0.1874
 4504SOL    HW217788   0.988   6.172   1.807  1.0901 -1.0286  0.8935
 4504SOL    HW317789   0.862   6.109   1.863 -0.5164  1.1499 -0.1226
 4504SOL    MW417790   0.929   6.107   1.808 -0.2294  0.1041  0.2397
 4505SOL     OW17791   4.415   3.690   2.881  0.2407 -0.1351  0.3201
 4505SOL    HW217792   4.323   3.675   2.861  0.7788 -0.2716 -2.3666
 4505SOL    HW317793   4.463   3.630   2.823  2.0626  1.1377  0.4263
 4505SOL    MW417794   4.409   3.680   2.871  0.5520  0.0148 -0.0204
 4506SOL     OW17795   1.255   4.776   5.721  0.0566  0.3868 -0.3219
 4506SOL    HW217796   1.339   4.795   5.679 -0.1003  1.4113 -0.1904
 4506SOL    HW317797   1.243   4.682   5.708  1.3771  0.1627 -0.0619
 4506SOL    MW417798   1.264   4.766   5.714  0.2101  0.4924 -0.2703
 4507SOL     OW17799   0.769   0.698   5.763  0.0080  0.4083  0.3165
 4507SOL    HW217800   0.802   0.775   5.717 -0.9574  1.0600  0.6784
 4507SOL    HW317801   0.724   0.647   5.696 -0.6045  0.8983  0.3460
 4507SOL    MW417802   0.767   0.702   5.748 -0.2002  0.5589  0.3681
 4508SOL     OW17803   5.466   6.025   6.386  0.5528  0.2325  0.3779
 4508SOL    HW217804   5.495   6.032   6.295 -0.3475 -0.4161  0.0239
 4508SOL    HW317805   5.419   5.942   6.390  0.8512  0.0949  1.5220
 4508SOL    MW417806   5.463   6.015   6.375  0.4734  0.1288  0.4821
 4509SOL     OW17807   2.742   3.215   2.284 -0.0453 -0.6992  0.1821
 4509SOL    HW217808   2.837   3.218   2.269  0.2121  1.9338  1.7075
 4509SOL    HW317809   2.726   3.285   2.347 -3.3088  0.3811 -1.6241
 4509SOL    MW417810   2.753   3.225   2.291 -0.4419 -0.2093  0.1450
 4510SOL     OW17811   3.046   5.712   0.672 -0.3686 -0.0259 -0.0015
 4510SOL    HW217812   3.066   5.727   0.580  1.6426 -0.1785  0.3603
 4510SOL    HW317813   2.967   5.763   0.689  0.5372  1.8913 -1.2587
 4510SOL    MW417814   3.038   5.721   0.662  0.0163  0.2069 -0.1197
 4511SOL     OW17815   4.329   2.037   2.709 -0.1031 -0.4472  0.4222
 4511SOL    HW217816   4.316   2.071   2.621  0.3647 -0.9966  0.1344
 4511SOL    HW317817   4.409   2.080   2.740 -0.9028  0.6443  1.0411
 4511SOL    MW417818   4.338   2.047   2.702 -0.1469 -0.3757  0.4659
 4512SOL     OW17819   2.764   1.077   4.792 -0.4801  0.0304 -0.3149
 4512SOL    HW217820   2.798   0.993   4.762  0.4371  0.4930 -0.5916
 4512SOL    HW317821   2.811   1.142   4.740  0.7903  0.8441  1.7095
 4512SOL    MW417822   2.775   1.075   4.781 -0.1915  0.1988 -0.0843
 4513SOL     OW17823   5.335   2.062   1.778  0.6141  0.2908  0.1126
 4513SOL    HW217824   5.306   1.988   1.832  0.9906  0.3981  0.4709
 4513SOL    HW317825   5.324   2.139   1.834  0.8131  0.4314 -0.0383
 4513SOL    MW417826   5.330   2.063   1.793  0.6900  0.3235  0.1399
 4514SOL     OW17827   2.081   4.506   0.779 -0.1418  0.3036 -0.1405
 4514SOL    HW217828   1.995   4.502   0.821  0.0927 -0.8097  0.2585
 4514SOL    HW317829   2.112   4.594   0.796 -0.4798  0.1877  1.1784
 4514SOL    MW417830   2.074   4.517   0.787 -0.1555  0.1414  0.0861
 4515SOL     OW17831   4.289   4.982   2.790  0.6008  0.7266 -0.1905
 4515SOL    HW217832   4.309   5.001   2.881  1.5575 -0.7626 -0.0489
 4515SOL    HW317833   4.290   4.886   2.784 -1.0820  0.7283 -1.4288
 4515SOL    MW417834   4.292   4.972   2.801  0.5050  0.5304 -0.3352
 4516SOL     OW17835   0.797   0.377   5.688 -0.6424  0.3164  0.3869
 4516SOL    HW217836   0.747   0.385   5.770  1.8743  3.6425  1.8396
 4516SOL    HW317837   0.861   0.308   5.707  0.1519  1.2997  1.4448
 4516SOL    MW417838   0.799   0.369   5.702 -0.2055  0.8850  0.7182
 4517SOL     OW17839   3.427   5.251   4.452  0.1502 -0.0267 -0.2082
 4517SOL    HW217840   3.442   5.316   4.521  1.0303 -1.7288  1.2644
 4517SOL    HW317841   3.515   5.219   4.430 -0.3640 -2.0087  0.4171
 4517SOL    MW417842   3.440   5.256   4.458  0.1985 -0.5127  0.0686
 4518SOL     OW17843   3.458   5.473   4.263 -0.1099 -0.2020 -0.0679
 4518SOL    HW217844   3.469   5.434   4.349  1.6325 -2.0068 -1.0188
 4518SOL    HW317845   3.442   5.566   4.280 -1.2773 -0.7390  2.1962
 4518SOL    MW417846   3.457   5.480   4.276 -0.0341 -0.5110  0.1054
 4519SOL     OW17847   1.373   0.904   6.262  0.5662  0.5855  0.3351
 4519SOL    HW217848   1.412   0.826   6.302 -0.0682  0.5748  0.9392
 4519SOL    HW317849   1.445   0.967   6.256  1.2625 -0.2649 -0.7869
 4519SOL    MW417850   1.387   0.902   6.266  0.5744  0.4719  0.2668
 4520SOL     OW17851   2.268   0.725   3.832 -0.4380  0.0592 -0.3069
 4520SOL    HW217852   2.222   0.681   3.760 -1.0850 -0.6959  0.5483
 4520SOL    HW317853   2.238   0.680   3.911  0.6071  0.5721  0.4077
 4520SOL    MW417854   2.258   0.713   3.833 -0.3855  0.0272 -0.0998
 4521SOL     OW17855   6.045   6.225   3.210  0.2542  0.1959 -0.3208
 4521SOL    HW217856   5.999   6.266   3.137  0.6160  0.1552 -0.5767
 4521SOL    HW317857   5.976   6.183   3.262  0.1234 -0.9593 -1.3991
 4521SOL    MW417858   6.030   6.225   3.207  0.2847  0.0381 -0.4968
 4522SOL     OW17859   4.444   5.778   5.327  0.3197 -0.2363  0.7262
 4522SOL    HW217860   4.526   5.729   5.325  0.3450 -0.2694 -2.3357
 4522SOL    HW317861   4.388   5.728   5.386  0.9048 -3.1015 -0.9301
 4522SOL    MW417862   4.448   5.765   5.334  0.4002 -0.6187  0.1037
 4523SOL     OW17863   2.089   0.637   4.612 -0.2069  0.0179  0.0250
 4523SOL    HW217864   2.060   0.692   4.539 -2.3608  0.3837  1.0664
 4523SOL    HW317865   2.141   0.696   4.666 -0.6502  0.4433  0.0025
 4523SOL    MW417866   2.092   0.652   4.609 -0.5495  0.1223  0.1594
 4524SOL     OW17867   3.052   6.110   4.187  0.0811  0.1293  0.3033
 4524SOL    HW217868   3.117   6.180   4.181 -1.1856  1.2025 -3.8438
 4524SOL    HW317869   2.986   6.145   4.247  1.2858  0.7573  1.3237
 4524SOL    MW417870   3.052   6.124   4.194  0.0729  0.3538 -0.1092
 4525SOL     OW17871   4.623   0.609   3.553 -0.1167  0.2286  0.0664
 4525SOL    HW217872   4.640   0.527   3.507 -0.2162  0.7039 -0.8443
 4525SOL    HW317873   4.528   0.618   3.552 -0.0328  1.1409 -1.2755
 4525SOL    MW417874   4.613   0.599   3.547 -0.1187  0.4117 -0.2308
 4526SOL     OW17875   4.537   4.325   0.393  0.0941  0.0849  0.2774
 4526SOL    HW217876   4.591   4.264   0.343 -0.7335 -0.4721  0.0398
 4526SOL    HW317877   4.517   4.279   0.474  0.0867  0.3366  0.4188
 4526SOL    MW417878   4.541   4.311   0.397 -0.0160  0.0446  0.2647
 4527SOL     OW17879   6.319   0.458   1.373  0.3179  0.4165  0.1533
 4527SOL    HW217880   6.380   0.496   1.310  0.2949  3.0537  1.5479
 4527SOL    HW317881   6.278   0.534   1.415 -1.6360 -1.2438  1.4451
 4527SOL    MW417882   6.322   0.473   1.370  0.0571  0.5454  0.5077
 4528SOL     OW17883   1.089   2.207   5.119 -0.1867  0.1278  0.0308
 4528SOL    HW217884   1.176   2.246   5.133 -0.2054  0.7717 -1.4586
 4528SOL    HW317885   1.107   2.121   5.082 -0.1807 -0.6374  1.7079
 4528SOL    MW417886   1.103   2.201   5.116 -0.1883  0.1118  0.0556
 4529SOL     OW17887   5.219   2.768   6.082 -0.7438 -0.3044 -0.3456
 4529SOL    HW217888   5.314   2.759   6.074 -0.3815  1.2182  1.5252
 4529SOL    HW317889   5.188   2.780   5.992  0.8725 -0.4914 -0.9496
 4529SOL    MW417890   5.227   2.768   6.069 -0.4828 -0.1282 -0.1785
 4530SOL     OW17891   4.536   2.741   5.850  0.1998 -0.0098 -0.5598
 4530SOL    HW217892   4.563   2.705   5.766 -0.1860 -2.0468  0.1280
 4530SOL    HW317893   4.444   2.716   5.858  0.8246 -2.0280  1.4662
 4530SOL    MW417894   4.527   2.733   5.840  0.2314 -0.5448 -0.2017
 4531SOL     OW17895   3.667   1.556   1.155 -0.2466 -0.2061  0.1112
 4531SOL    HW217896   3.732   1.576   1.087 -0.8550  1.4610 -0.0300
 4531SOL    HW317897   3.719   1.544   1.234  0.3727 -0.8990 -0.3852
 4531SOL    MW417898   3.683   1.557   1.156 -0.2452 -0.0776  0.0271
 4532SOL     OW17899   0.348   1.703   1.064 -0.1290  0.2105  0.0271
 4532SOL    HW217900   0.296   1.777   1.094  2.0936  2.3518 -1.1044
 4532SOL    HW317901   0.321   1.689   0.973  1.0249  1.1511 -0.4772
 4532SOL    MW417902   0.338   1.711   1.056  0.3165  0.6171 -0.1887
 4533SOL     OW17903   1.974   2.701   5.925  0.4319 -0.5361  0.4449
 4533SOL    HW217904   1.945   2.620   5.884 -0.6275 -0.4280  0.9640
 4533SOL    HW317905   1.894   2.748   5.948  1.0211  0.6747  0.1478
 4533SOL    MW417906   1.960   2.697   5.923  0.3698 -0.3621  0.4742
 4534SOL     OW17907   6.215   0.810   6.244  0.9076 -0.5468 -0.0062
 4534SOL    HW217908   6.131   0.767   6.260  0.5644 -1.3705 -3.2067
 4534SOL    HW317909   6.202   0.900   6.274 -1.0256 -0.7445 -0.1028
 4534SOL    MW417910   6.202   0.816   6.250  0.6073 -0.6816 -0.4412
 4535SOL     OW17911   0.296   4.209   2.545  0.0952 -0.1219  0.2778
 4535SOL    HW217912   0.222   4.220   2.484 -0.0040  1.3274  0.6203
 4535SOL    HW317913   0.265   4.248   2.626  1.1986  0.3765  0.4649
 4535SOL    MW417914   0.282   4.215   2.547  0.2277  0.1351  0.3477
 4536SOL     OW17915   2.878   0.501   2.079  0.6359 -0.2724  0.3490
 4536SOL    HW217916   2.909   0.418   2.113  0.3288 -1.0065 -1.0825
 4536SOL    HW317917   2.783   0.493   2.076  0.5702  0.3295  0.6918
 4536SOL    MW417918   2.870   0.489   2.083  0.5867 -0.2898  0.2054
 4537SOL     OW17919   3.341   4.315   5.767  0.3161 -0.3499  0.3303
 4537SOL    HW217920   3.360   4.283   5.679  0.8011 -0.5638  0.5057
 4537SOL    HW317921   3.384   4.252   5.825  0.1125 -0.1368  0.7170
 4537SOL    MW417922   3.349   4.302   5.763  0.3532 -0.3500  0.4044
 4538SOL     OW17923   1.753   6.407   1.691  0.0041  0.1038  0.0389
 4538SOL    HW217924   1.756   6.462   1.612 -0.3760  0.5754  0.3397
 4538SOL    HW317925   1.817   6.447   1.750 -1.1108  0.9892  0.7168
 4538SOL    MW417926   1.762   6.420   1.688 -0.1932  0.2829  0.1680
 4539SOL     OW17927   0.333   0.479   5.354  0.3848 -1.1546  0.2494
 4539SOL    HW217928   0.293   0.428   5.284  1.4937 -0.4564 -0.9403
 4539SOL    HW317929   0.426   0.457   5.349  0.4747 -1.1976  1.6241
 4539SOL    MW417930   0.340   0.469   5.344  0.5430 -1.0682  0.2738
 4540SOL     OW17931   6.280   5.116   2.939 -0.2513  0.3767  0.5007
 4540SOL    HW217932   6.328   5.197   2.922  0.0302 -0.1056 -1.1961
 4540SOL    HW317933   6.277   5.109   3.035  0.6566  1.8189  0.6606
 4540SOL    MW417934   6.286   5.126   2.950 -0.0944  0.5033  0.2979
 4541SOL     OW17935   1.040   2.329   3.389 -0.1144 -0.4851 -0.4708
 4541SOL    HW217936   1.011   2.420   3.404 -1.1139 -0.7038 -0.9486
 4541SOL    HW317937   1.011   2.281   3.466  0.9790 -0.2897  0.0754
 4541SOL    MW417938   1.032   2.335   3.401 -0.1020 -0.4882 -0.4618
 4542SOL     OW17939   1.506   1.514   5.774 -0.2578 -0.3717 -0.3834
 4542SOL    HW217940   1.427   1.562   5.797 -0.1259 -0.2519 -0.1726
 4542SOL    HW317941   1.553   1.505   5.857 -0.0068 -0.3602 -0.5235
 4542SOL    MW417942   1.502   1.519   5.788 -0.2073 -0.3544 -0.3741
 4543SOL     OW17943   6.226   3.224   3.292  0.5073 -0.3144  0.1983
 4543SOL    HW217944   6.320   3.239   3.288  0.1421  2.1885 -0.5258
 4543SOL    HW317945   6.187   3.310   3.275 -1.9216 -1.3736  0.0302
 4543SOL    MW417946   6.233   3.238   3.289  0.1386 -0.1239  0.0806
 4544SOL     OW17947   3.160   3.663   1.492 -0.2899 -0.0244 -0.4372
 4544SOL    HW217948   3.247   3.696   1.513 -0.3789  0.6260 -1.0488
 4544SOL    HW317949   3.147   3.590   1.552  0.2658  0.5165  0.3609
 4544SOL    MW417950   3.170   3.658   1.502 -0.2283  0.1328 -0.4126
 4545SOL     OW17951   5.458   3.765   5.137  0.2777  1.0536  0.3593
 4545SOL    HW217952   5.457   3.833   5.070 -0.2297 -1.2945 -2.2131
 4545SOL    HW317953   5.369   3.765   5.172  0.1843  1.4681  0.1336
 4545SOL    MW417954   5.446   3.774   5.133  0.1985  0.7985 -0.0099
 4546SOL     OW17955   3.496   5.555   3.989 -0.6257 -0.2162  0.2905
 4546SOL    HW217956   3.505   5.649   3.970  0.3992 -0.1433  1.0368
 4546SOL    HW317957   3.505   5.550   4.084 -1.2498 -1.0141  0.3052
 4546SOL    MW417958   3.499   5.567   3.999 -0.5728 -0.3118  0.3909
 4547SOL     OW17959   1.071   6.336   1.803  0.0297 -0.2491 -0.5810
 4547SOL    HW217960   1.107   6.347   1.891  0.3960 -0.0247 -0.7533
 4547SOL    HW317961   0.989   6.385   1.804  1.0573  1.6094 -0.9797
 4547SOL    MW417962   1.065   6.344   1.814  0.2136  0.0257 -0.6564
 4548SOL     OW17963   2.787   0.575   0.661  0.2537  0.4182 -0.0187
 4548SOL    HW217964   2.719   0.521   0.620 -0.5951  0.6266  1.0794
 4548SOL    HW317965   2.844   0.601   0.588 -0.3370 -0.4871 -0.8242
 4548SOL    MW417966   2.786   0.571   0.646  0.0638  0.3262  0.0199
 4549SOL     OW17967   5.741   5.804   2.847 -0.4936  0.1256 -0.2466
 4549SOL    HW217968   5.696   5.747   2.909  0.0221 -0.6119 -0.5335
 4549SOL    HW317969   5.749   5.888   2.892  1.2814 -0.8140  1.3328
 4549SOL    MW417970   5.736   5.808   2.861 -0.1914 -0.0957 -0.0761
 4550SOL     OW17971   1.874   1.996   4.355  0.1745 -0.0149 -0.1051
 4550SOL    HW217972   1.789   2.031   4.380  0.7438  0.8067  0.7582
 4550SOL    HW317973   1.918   1.978   4.438  0.5110 -1.2872 -0.5326
 4550SOL    MW417974   1.869   1.998   4.369  0.2940 -0.0744 -0.0476
 4551SOL     OW17975   6.037   3.834   5.088 -0.1258 -0.2652 -0.0008
 4551SOL    HW217976   5.989   3.771   5.035  3.5668 -2.3317 -1.2883
 4551SOL    HW317977   6.067   3.785   5.164 -0.3218  1.0316  0.9534
 4551SOL    MW417978   6.035   3.820   5.091  0.3356 -0.3668 -0.0448
 4552SOL     OW17979   5.067   1.473   5.415 -0.4708  0.1966 -0.1724
 4552SOL    HW217980   5.067   1.405   5.483  0.4287  1.0939  0.7798
 4552SOL    HW317981   4.992   1.529   5.437 -1.6657 -0.8603 -1.3950
 4552SOL    MW417982   5.057   1.472   5.427 -0.5097  0.1755 -0.2081
 4553SOL     OW17983   6.122   4.137   5.104 -0.1975  0.1812  0.2926
 4553SOL    HW217984   6.068   4.168   5.032 -1.8847 -0.5199  1.2001
 4553SOL    HW317985   6.072   4.066   5.143  0.9757  0.0965  1.7550
 4553SOL    MW417986   6.108   4.132   5.100 -0.2653  0.0775  0.6053
 4554SOL     OW17987   2.785   3.870   3.831  0.1535 -0.3620 -0.0515
 4554SOL    HW217988   2.739   3.822   3.763  0.1204 -0.0425 -0.2593
 4554SOL    HW317989   2.830   3.803   3.882 -0.7388 -0.7103  0.3085
 4554SOL    MW417990   2.785   3.855   3.829  0.0314 -0.3658 -0.0315
 4555SOL     OW17991   2.513   0.710   5.686  0.3440  0.5451 -0.1416
 4555SOL    HW217992   2.548   0.737   5.601 -0.4324  2.0016 -0.0169
 4555SOL    HW317993   2.580   0.735   5.749  0.7936 -0.2791 -0.2682
 4555SOL    MW417994   2.526   0.717   5.683  0.3009  0.6286 -0.1418
 4556SOL     OW17995   5.291   6.318   1.099  0.0897  0.3730  0.3454
 4556SOL    HW217996   5.278   6.223   1.096  0.7768  0.2484  1.0715
 4556SOL    HW317997   5.326   6.340   1.013 -3.7850  0.5894 -1.4072
 4556SOL    MW417998   5.294   6.308   1.088 -0.3308  0.3851  0.2100
 4557SOL     OW17999   4.677   4.915   0.227 -0.0442  0.2764 -0.6541
 4557SOL    HW218000   4.709   5.003   0.207 -1.0234  1.1187  1.2827
 4557SOL    HW318001   4.719   4.893   0.310 -2.0287  0.1334  0.3562
 4557SOL    MW418002   4.687   4.924   0.235 -0.4352  0.3687 -0.2653
 4558SOL     OW18003   4.485   1.332   4.859  0.4039  0.3962  0.1488
 4558SOL    HW218004   4.552   1.273   4.892  0.2443 -0.8934 -1.6645
 4558SOL    HW318005   4.424   1.342   4.932  2.0403  0.8491  1.5190
 4558SOL    MW418006   4.486   1.325   4.873  0.5987  0.2858  0.0904
 4559SOL     OW18007   1.911   1.288   1.865  0.6465  0.4249 -0.0380
 4559SOL    HW218008   1.988   1.300   1.921  1.2561  2.9004 -1.2558
 4559SOL    HW318009   1.946   1.298   1.776 -1.0361  1.2642 -0.6309
 4559SOL    MW418010   1.926   1.291   1.860  0.5049  0.8623 -0.2769
 4560SOL     OW18011   2.886   2.896   6.405  0.2508 -0.0378 -0.0822
 4560SOL    HW218012   2.882   2.873   6.498  0.6992 -1.6668 -0.4275
 4560SOL    HW318013   2.916   2.986   6.403  1.5843 -0.4198  1.3178
 4560SOL    MW418014   2.889   2.905   6.417  0.4859 -0.3031  0.0570
 4561SOL     OW18015   1.400   0.065   0.286  0.0831  0.8523  0.4646
 4561SOL    HW218016   1.327   0.105   0.332 -1.2324 -0.9038 -0.0207
 4561SOL    HW318017   1.466   0.135   0.280 -0.7846  1.9166  2.5368
 4561SOL    MW418018   1.399   0.080   0.291 -0.2049  0.7610  0.6740
 4562SOL     OW18019   3.465   1.948   0.060 -0.2185 -0.2299  0.0270
 4562SOL    HW218020   3.395   2.005   0.027  1.4777  2.7598  1.1210
 4562SOL    HW318021   3.445   1.862   0.025 -2.0922  1.3432 -3.2440
 4562SOL    MW418022   3.453   1.944   0.051 -0.2420  0.3721 -0.2602
 4563SOL     OW18023   0.851   2.052   1.888 -0.3034 -0.2290  0.6981
 4563SOL    HW218024   0.761   2.022   1.902 -0.0795 -0.6399  1.2775
 4563SOL    HW318025   0.905   1.986   1.931  0.3117 -0.3415 -0.2235
 4563SOL    MW418026   0.846   2.039   1.895 -0.1927 -0.2981  0.6529
 4564SOL     OW18027   1.095   5.166   3.457 -0.1629  0.5967 -0.0414
 4564SOL    HW218028   1.087   5.071   3.442 -0.8445  0.2320  2.3170
 4564SOL    HW318029   1.183   5.188   3.426 -0.0228 -0.7838 -0.6932
 4564SOL    MW418030   1.106   5.156   3.451 -0.2343  0.3665  0.1838
 4565SOL     OW18031   4.628   1.204   0.632 -0.1621 -0.1210 -0.5665
 4565SOL    HW218032   4.652   1.270   0.567  1.5507 -0.3355 -0.2029
 4565SOL    HW318033   4.570   1.250   0.693 -1.4096  0.2075 -1.9460
 4565SOL    MW418034   4.623   1.219   0.631 -0.1007 -0.1059 -0.7005
 4566SOL     OW18035   0.868   1.425   5.450 -0.3049 -0.3698 -0.5490
 4566SOL    HW218036   0.822   1.379   5.379 -2.1433 -0.5661  0.6964
 4566SOL    HW318037   0.903   1.355   5.504 -0.8788 -0.2851 -0.0533
 4566SOL    MW418038   0.866   1.410   5.447 -0.6232 -0.3845 -0.3193
 4567SOL     OW18039   0.718   5.906   1.373 -0.3913  0.3017 -0.2252
 4567SOL    HW218040   0.725   5.816   1.405  3.6314  0.0226 -1.3505
 4567SOL    HW318041   0.726   5.960   1.451 -0.5172 -0.3336  0.2356
 4567SOL    MW418042   0.720   5.901   1.387  0.1228  0.1810 -0.3129
 4568SOL     OW18043   2.515   5.027   0.895  0.0973  0.0725  0.6005
 4568SOL    HW218044   2.535   4.934   0.884 -0.0048  0.0514  0.5958
 4568SOL    HW318045   2.451   5.046   0.827 -0.1092  0.0749  0.7939
 4568SOL    MW418046   2.509   5.017   0.885  0.0566  0.0700  0.6254
 4569SOL     OW18047   2.100   2.894   3.192 -0.1250 -0.8054  0.4450
 4569SOL    HW218048   2.145   2.956   3.134  1.1727 -1.3553  0.8283
 4569SOL    HW318049   2.031   2.856   3.138  0.0472 -0.1602 -0.2523
 4569SOL    MW418050   2.097   2.897   3.177  0.0689 -0.7929  0.4036
 4570SOL     OW18051   5.593   4.422   3.520  0.0706  0.1297 -0.2199
 4570SOL    HW218052   5.622   4.503   3.560 -0.7083  0.6717 -0.7243
 4570SOL    HW318053   5.665   4.360   3.535 -0.8561 -0.2592  3.5372
 4570SOL    MW418054   5.606   4.424   3.527 -0.1544  0.1499  0.2092
 4571SOL     OW18055   0.010   4.869   2.331  0.1656  0.1257  0.1013
 4571SOL    HW218056   0.038   4.888   2.420  0.3114 -0.1066  0.1067
 4571SOL    HW318057  -0.031   4.950   2.300  1.1343  0.5876 -0.0117
 4571SOL    MW418058   0.009   4.883   2.338  0.3126  0.1560  0.0871
 4572SOL     OW18059   2.249   2.097   0.673  0.2978 -0.4964  0.2482
 4572SOL    HW218060   2.324   2.132   0.722 -0.8498 -0.2523  1.9267
 4572SOL    HW318061   2.199   2.175   0.647  1.8831 -0.4528 -3.2034
 4572SOL    MW418062   2.252   2.112   0.676  0.3556 -0.4585  0.0143
 4573SOL     OW18063   2.831   2.341   3.688  0.0947  0.0231 -0.0215
 4573SOL    HW218064   2.864   2.257   3.656  1.3325  0.5415 -0.1760
 4573SOL    HW318065   2.783   2.378   3.614 -1.1017 -0.8640  0.2900
 4573SOL    MW418066   2.829   2.335   3.674  0.1002 -0.0255 -0.0008
 4574SOL     OW18067   1.908   4.017   5.825 -0.3782  0.0476  0.1575
 4574SOL    HW218068   1.938   3.965   5.750  1.6288 -0.6986  1.3968
 4574SOL    HW318069   1.859   3.954   5.879 -0.3538  0.1424  0.2909
 4574SOL    MW418070   1.905   4.002   5.822 -0.1102 -0.0383  0.3386
 4575SOL     OW18071   4.042   2.477   0.014  0.6906  0.0675  0.1779
 4575SOL    HW218072   3.983   2.472  -0.061 -0.8337  0.7101  1.2716
 4575SOL    HW318073   4.028   2.395   0.061 -0.1701  0.6608  1.0001
 4575SOL    MW418074   4.033   2.466   0.010  0.3759  0.2306  0.4307
 4576SOL     OW18075   0.732   2.039   3.134 -0.1799  0.4383 -0.1041
 4576SOL    HW218076   0.701   2.100   3.067  1.6435 -2.1500 -3.6799
 4576SOL    HW318077   0.814   2.077   3.164  0.2710  0.4833 -1.3147
 4576SOL    MW418078   0.739   2.052   3.129  0.1202  0.1028 -0.7356
 4577SOL     OW18079   3.739   4.979   3.624  0.6243 -0.0743  0.2381
 4577SOL    HW218080   3.677   4.914   3.592 -2.1961  1.4725  2.1302
 4577SOL    HW318081   3.714   5.061   3.580  0.4260  0.8495  1.9830
 4577SOL    MW418082   3.728   4.981   3.614  0.2260  0.2516  0.7179
 4578SOL     OW18083   2.600   6.125   5.986  0.6461  0.1600  0.5072
 4578SOL    HW218084   2.524   6.076   6.019  0.1938  0.8564  0.5273
 4578SOL    HW318085   2.620   6.187   6.057  3.3320 -2.1670  1.9848
 4578SOL    MW418086   2.592   6.127   6.000  0.9408 -0.0551  0.7048
 4579SOL     OW18087   2.308   3.285   5.058 -0.5702 -0.5610  0.3024
 4579SOL    HW218088   2.226   3.319   5.094  0.5404  0.3823  2.1299
 4579SOL    HW318089   2.285   3.201   5.019 -2.3834 -0.3682  0.8833
 4579SOL    MW418090   2.294   3.279   5.058 -0.6629 -0.4111  0.6201
 4580SOL     OW18091   2.872   4.774   3.950  0.9708 -0.1923 -0.3205
 4580SOL    HW218092   2.916   4.732   4.024  0.3672 -0.0460  0.1365
 4580SOL    HW318093   2.920   4.856   3.937  1.6566 -0.6529 -0.6974
 4580SOL    MW418094   2.884   4.780   3.958  0.9817 -0.2337 -0.3099
 4581SOL     OW18095   2.218   2.753   1.422  0.5815  0.1318  0.0261
 4581SOL    HW218096   2.223   2.728   1.514  0.3376 -0.1875 -0.0458
 4581SOL    HW318097   2.126   2.741   1.399 -0.1412  3.4406  0.6352
 4581SOL    MW418098   2.207   2.748   1.431  0.4540  0.5262  0.0970
 4582SOL     OW18099   4.082   1.048   2.464  0.5664 -0.1411  0.5083
 4582SOL    HW218100   4.142   1.019   2.533  0.0902 -0.8900  0.6223
 4582SOL    HW318101   4.000   1.065   2.510  0.3403 -0.3283  0.1824
 4582SOL    MW418102   4.079   1.046   2.479  0.4737 -0.2646  0.4804
 4583SOL     OW18103   3.763   5.473   2.870 -0.0404  0.2981 -1.0417
 4583SOL    HW218104   3.778   5.438   2.958 -0.4673 -0.3200 -1.2098
 4583SOL    HW318105   3.800   5.561   2.873  0.0632  0.2365 -0.2799
 4583SOL    MW418106   3.770   5.480   2.882 -0.0831  0.2084 -0.9634
 4584SOL     OW18107   3.687   0.456   4.591 -0.2620  0.5573 -0.1646
 4584SOL    HW218108   3.723   0.544   4.606  0.6725  0.2936 -0.7674
 4584SOL    HW318109   3.671   0.453   4.497 -0.6873  0.2251 -0.0799
 4584SOL    MW418110   3.690   0.467   4.581 -0.1948  0.4787 -0.2329
 4585SOL     OW18111   1.155   0.147   1.590 -0.2466 -0.3343 -0.0888
 4585SOL    HW218112   1.110   0.136   1.507  1.1296 -1.0038 -0.7821
 4585SOL    HW318113   1.211   0.070   1.597  1.8936  1.1528  0.0214
 4585SOL    MW418114   1.156   0.135   1.580  0.2174 -0.2264 -0.1657
 4586SOL     OW18115   1.930   0.072   1.911  0.7069 -0.0631  0.3258
 4586SOL    HW218116   1.958   0.035   1.995 -0.9945  0.7335  1.2918
 4586SOL    HW318117   2.012   0.086   1.863  1.7210 -0.5803  1.8133
 4586SOL    MW418118   1.945   0.069   1.916  0.6162 -0.0262  0.6495
 4587SOL     OW18119   1.423   0.297   4.299  0.3244 -0.2192  0.2708
 4587SOL    HW218120   1.447   0.317   4.209  3.6545  1.1721  1.2877
 4587SOL    HW318121   1.461   0.211   4.316 -3.1865 -2.0781 -0.4762
 4587SOL    MW418122   1.431   0.289   4.290  0.3006 -0.2809  0.3064
 4588SOL     OW18123   3.674   1.470   0.021 -0.1190 -0.1846  0.2901
 4588SOL    HW218124   3.720   1.392   0.051 -0.1394  0.1610  1.2454
 4588SOL    HW318125   3.642   1.512   0.101 -0.4867  0.5709 -0.2365
 4588SOL    MW418126   3.676   1.465   0.036 -0.1702 -0.0394  0.3467
 4589SOL     OW18127   3.842   1.864   2.182  0.3204  0.4367 -0.1510
 4589SOL    HW218128   3.897   1.940   2.164  1.5574 -0.3776  0.0784
 4589SOL    HW318129   3.900   1.789   2.173 -0.3729 -0.3681  1.5236
 4589SOL    MW418130   3.857   1.864   2.179  0.3921  0.2231  0.1002
 4590SOL     OW18131   6.244   5.829   0.266  0.0803  0.5031  0.1017
 4590SOL    HW218132   6.243   5.816   0.361 -2.0395  1.0425  0.2102
 4590SOL    HW318133   6.327   5.874   0.249  0.3269  0.7498  1.7536
 4590SOL    MW418134   6.255   5.833   0.277 -0.1668  0.6068  0.3340
 4591SOL     OW18135   4.665   6.023   0.968  0.3644  0.5777 -0.0168
 4591SOL    HW218136   4.733   6.032   0.902  1.1462 -0.6870  0.5789
 4591SOL    HW318137   4.712   6.000   1.048 -0.7098  0.3447  0.5665
 4591SOL    MW418138   4.680   6.021   0.970  0.3258  0.3801  0.1387
 4592SOL     OW18139   1.014   3.327   4.518  0.1202 -0.2600 -0.1827
 4592SOL    HW218140   0.961   3.279   4.454 -0.7257  1.3571 -0.7486
 4592SOL    HW318141   1.060   3.258   4.567 -1.3852 -1.6606 -0.6359
 4592SOL    MW418142   1.013   3.311   4.516 -0.1900 -0.2314 -0.3171
 4593SOL     OW18143   5.367   2.626   5.187 -0.3260  0.3956 -0.3418
 4593SOL    HW218144   5.378   2.718   5.162 -0.4172  0.2593 -0.8861
 4593SOL    HW318145   5.412   2.577   5.119 -3.2481 -0.1404 -2.0554
 4593SOL    MW418146   5.374   2.632   5.175 -0.7236  0.3069 -0.6397
 4594SOL     OW18147   4.313   0.751   2.133 -0.1013 -0.3074 -0.1336
 4594SOL    HW218148   4.234   0.764   2.185  0.4687 -0.8482  0.8992
 4594SOL    HW318149   4.351   0.670   2.167  0.1492 -0.8255 -1.5812
 4594SOL    MW418150   4.308   0.742   2.144  0.0070 -0.4471 -0.1883
 4595SOL     OW18151   0.403   1.690   1.416 -0.0903  0.0758  0.7858
 4595SOL    HW218152   0.400   1.748   1.492  0.9043 -1.7698  2.3193
 4595SOL    HW318153   0.492   1.700   1.382 -0.0941 -0.1304  0.7142
 4595SOL    MW418154   0.414   1.699   1.421  0.0404 -0.1949  0.9787
 4596SOL     OW18155   3.000   0.165   1.569  0.3023 -0.5666 -0.1026
 4596SOL    HW218156   3.095   0.169   1.577  0.3563 -1.9832  0.1798
 4596SOL    HW318157   2.967   0.191   1.655  0.5248 -2.5719  0.6271
 4596SOL    MW418158   3.008   0.169   1.582  0.3388 -1.0180  0.0309
 4597SOL     OW18159   2.277   5.261   4.872  0.1269 -0.2318  0.2032
 4597SOL    HW218160   2.350   5.313   4.839  1.1922 -1.9886 -0.3510
 4597SOL    HW318161   2.223   5.323   4.921  2.3245  1.0205  1.1709
 4597SOL    MW418162   2.279   5.276   4.874  0.5574 -0.2984  0.2577
 4598SOL     OW18163   1.746   5.061   3.576  0.3078 -0.1926  0.0802
 4598SOL    HW218164   1.685   5.064   3.650  1.7464 -0.7087  1.3313
 4598SOL    HW318165   1.822   5.013   3.609  1.3701  0.3463 -1.4600
 4598SOL    MW418166   1.748   5.055   3.590  0.6377 -0.1896  0.0421
 4599SOL     OW18167   1.510   3.579   1.089  0.1392 -0.6850  0.4608
 4599SOL    HW218168   1.510   3.576   0.993  0.6028  0.0110  0.4331
 4599SOL    HW318169   1.546   3.665   1.110 -1.8379 -0.0081  1.2480
 4599SOL    MW418170   1.515   3.590   1.079 -0.0605 -0.5039  0.5610
 4600SOL     OW18171   0.986   5.326   2.339  0.3306  0.0309 -0.0026
 4600SOL    HW218172   0.956   5.236   2.351  0.6075 -0.2180 -1.0306
 4600SOL    HW318173   0.966   5.346   2.247 -1.7245  1.7861  0.7269
 4600SOL    MW418174   0.979   5.317   2.328  0.0960  0.2296 -0.0420
 4601SOL     OW18175   2.151   1.162   3.775  0.0907  0.2038 -0.1856
 4601SOL    HW218176   2.077   1.147   3.835  1.5683 -0.7945  1.4783
 4601SOL    HW318177   2.214   1.211   3.826  1.4720 -0.8092 -0.8585
 4601SOL    MW418178   2.149   1.166   3.789  0.4679 -0.0616 -0.0548
 4602SOL     OW18179   0.621   6.266   4.034  0.5714 -0.3672 -0.2099
 4602SOL    HW218180   0.561   6.284   3.962 -0.2279  0.2478  0.5910
 4602SOL    HW318181   0.700   6.315   4.013 -0.1985  1.0213  0.0540
 4602SOL    MW418182   0.623   6.275   4.022  0.3644 -0.1028 -0.0694
 4603SOL     OW18183   3.290   4.933   3.996 -0.0418  0.5279 -0.0151
 4603SOL    HW218184   3.367   4.956   3.945  0.8118  0.0415  1.0152
 4603SOL    HW318185   3.318   4.943   4.087 -0.0110 -3.0770  0.5170
 4603SOL    MW418186   3.304   4.937   4.001  0.0749 -0.0119  0.1910
 4604SOL     OW18187   2.146   3.355   4.754 -0.2877  0.1168 -0.9851
 4604SOL    HW218188   2.138   3.292   4.826 -1.8961  1.2256 -0.1475
 4604SOL    HW318189   2.097   3.431   4.783 -0.8519  0.6654 -3.2105
 4604SOL    MW418190   2.139   3.357   4.767 -0.5744  0.3354 -1.1682
 4605SOL     OW18191   4.921   0.613   2.244 -0.3773  0.4226 -0.8286
 4605SOL    HW218192   4.897   0.639   2.155  0.5993  0.8865 -0.9710
 4605SOL    HW318193   5.014   0.589   2.238 -0.6138 -0.7468 -0.1807
 4605SOL    MW418194   4.930   0.613   2.232 -0.2797  0.3295 -0.7619
 4606SOL     OW18195   3.048   6.144   5.647  0.5544 -0.2497 -0.2485
 4606SOL    HW218196   3.121   6.183   5.600  0.8158 -0.7803 -0.2887
 4606SOL    HW318197   3.083   6.120   5.732  0.1969  0.2933  0.0583
 4606SOL    MW418198   3.062   6.146   5.652  0.5417 -0.2480 -0.2133
 4607SOL     OW18199   6.009   1.089   2.383 -0.8753  0.3780  0.0756
 4607SOL    HW218200   5.996   1.040   2.303  0.1965 -1.1866  0.8100
 4607SOL    HW318201   6.090   1.138   2.368  0.3391 -1.3067  0.7865
 4607SOL    MW418202   6.018   1.089   2.371 -0.5737 -0.0507  0.2663
 4608SOL     OW18203   0.047   1.783   4.161  0.0165 -0.5737  0.2952
 4608SOL    HW218204   0.137   1.787   4.193  0.4427  0.3497 -0.9229
 4608SOL    HW318205   0.055   1.749   4.072 -0.8444 -0.5887  0.2176
 4608SOL    MW418206   0.060   1.779   4.154 -0.0409 -0.4538  0.1243
 4609SOL     OW18207   2.982   5.048   4.629  0.4908  0.7656  0.2916
 4609SOL    HW218208   3.075   5.068   4.620  0.4794  1.5048  1.5823
 4609SOL    HW318209   2.969   4.971   4.573  2.0646  0.0912  0.7731
 4609SOL    MW418210   2.993   5.040   4.621  0.6970  0.7742  0.5254
 4610SOL     OW18211   2.719   3.286   5.151 -0.7212 -0.3464  0.2690
 4610SOL    HW218212   2.774   3.249   5.220  1.1547  0.0246 -0.9527
 4610SOL    HW318213   2.740   3.380   5.152  0.8738 -0.6012 -2.0282
 4610SOL    MW418214   2.729   3.294   5.161 -0.2633 -0.3311 -0.1953
 4611SOL     OW18215   2.571   1.495   2.842 -0.0040 -0.2674 -0.0540
 4611SOL    HW218216   2.540   1.518   2.755 -1.1500  1.8657  0.8281
 4611SOL    HW318217   2.529   1.411   2.862 -2.4774  0.8177 -0.2977
 4611SOL    MW418218   2.561   1.487   2.833 -0.4816  0.1572  0.0302
 4612SOL     OW18219   5.410   3.368   6.196  0.1609  0.2407 -0.6717
 4612SOL    HW218220   5.363   3.444   6.231  0.9931  0.4817 -0.0538
 4612SOL    HW318221   5.472   3.405   6.133 -1.4401 -0.2012 -2.6271
 4612SOL    MW418222   5.412   3.383   6.192  0.0595  0.2142 -0.8481
 4613SOL     OW18223   2.774   0.129   3.944  0.7226 -0.2676 -0.2944
 4613SOL    HW218224   2.838   0.175   3.890 -0.1155  1.9568  0.4789
 4613SOL    HW318225   2.715   0.087   3.882  1.1530  0.2326 -1.0544
 4613SOL    MW418226   2.775   0.129   3.929  0.6688  0.0919 -0.2926
 4614SOL     OW18227   0.512   3.243   5.353  0.1325  0.0775 -0.4886
 4614SOL    HW218228   0.586   3.198   5.392 -0.5086 -0.9608 -0.4276
 4614SOL    HW318229   0.436   3.215   5.405 -0.2519  1.5624 -0.1762
 4614SOL    MW418230   0.511   3.234   5.365 -0.0028  0.1364 -0.4393
 4615SOL     OW18231   4.361   2.833   1.064 -0.2045  0.1164  0.7826
 4615SOL    HW218232   4.297   2.905   1.067 -0.5945 -0.2266  0.7120
 4615SOL    HW318233   4.310   2.755   1.086 -0.4571 -0.6211 -2.0916
 4615SOL    MW418234   4.346   2.832   1.067 -0.2893 -0.0261  0.3940
 4616SOL     OW18235   0.292   3.317   0.430 -0.0138 -0.3896 -0.9611
 4616SOL    HW218236   0.229   3.386   0.452  0.7306  0.7282 -2.1365
 4616SOL    HW318237   0.373   3.365   0.409  1.7451 -1.8224  1.9149
 4616SOL    MW418238   0.294   3.333   0.430  0.3165 -0.4312 -0.7367
 4617SOL     OW18239   2.435   5.443   5.613  0.1504  0.0726  0.0573
 4617SOL    HW218240   2.435   5.533   5.582  0.2574 -0.4769 -1.6545
 4617SOL    HW318241   2.527   5.419   5.619  0.1216  0.0488  0.4307
 4617SOL    MW418242   2.447   5.452   5.610  0.1607 -0.0030 -0.1193
 4618SOL     OW18243   4.122   3.172   5.493 -0.1233 -0.0730  0.0496
 4618SOL    HW218244   4.060   3.240   5.464 -1.9007 -0.8125  1.8548
 4618SOL    HW318245   4.152   3.202   5.579  0.8729 -0.4810 -0.1427
 4618SOL    MW418246   4.118   3.185   5.500 -0.2263 -0.2244  0.2624
 4619SOL     OW18247   0.470   5.112   3.717 -0.3999 -0.3243  0.5687
 4619SOL    HW218248   0.391   5.086   3.765  0.3625 -0.2437  1.9143
 4619SOL    HW318249   0.517   5.029   3.703 -0.1472 -0.2342  0.8603
 4619SOL    MW418250   0.466   5.097   3.722 -0.2660 -0.3018  0.7847
 4620SOL     OW18251   5.610   4.958   1.097 -0.4958  0.2920  0.3133
 4620SOL    HW218252   5.634   4.971   1.189 -1.2767 -1.1627  0.7453
 4620SOL    HW318253   5.518   4.984   1.093 -0.4652  0.3425 -0.0525
 4620SOL    MW418254   5.601   4.963   1.109 -0.5948  0.1067  0.3220
 4621SOL     OW18255   1.957   3.579   3.307  0.7617  0.0229 -0.5136
 4621SOL    HW218256   1.966   3.629   3.388 -0.3237  1.0477 -1.0181
 4621SOL    HW318257   2.036   3.600   3.257  2.5973 -2.3422  1.1339
 4621SOL    MW418258   1.969   3.588   3.311  0.8607 -0.1539 -0.3628
 4622SOL     OW18259   0.036   0.227   2.248  0.2485  0.4924  0.3205
 4622SOL    HW218260  -0.024   0.162   2.283  1.6449 -0.2444  1.4627
 4622SOL    HW318261  -0.015   0.308   2.242 -1.4095 -0.5758 -0.7553
 4622SOL    MW418262   0.021   0.229   2.252  0.2140  0.2542  0.3293
 4623SOL     OW18263   2.973   2.202   0.433 -0.3692  0.6473 -0.2167
 4623SOL    HW218264   2.951   2.167   0.347 -1.4762 -0.8847  0.6414
 4623SOL    HW318265   2.889   2.212   0.477  0.2485 -0.0342  1.1967
 4623SOL    MW418266   2.959   2.199   0.428 -0.4338  0.3553  0.0830
 4624SOL     OW18267   3.083   6.337   1.644  0.4221 -0.1830  0.6576
 4624SOL    HW218268   3.154   6.401   1.652  0.9390 -0.3714 -1.6107
 4624SOL    HW318269   3.013   6.385   1.600  0.6548 -0.9968 -0.6794
 4624SOL    MW418270   3.083   6.352   1.639  0.5210 -0.3152  0.1819
 4625SOL     OW18271   5.367   3.214   5.573 -0.0506  0.2109  0.3183
 4625SOL    HW218272   5.370   3.308   5.592 -3.1571  0.4851  0.0086
 4625SOL    HW318273   5.298   3.205   5.508  1.1509 -2.1849 -0.7560
 4625SOL    MW418274   5.358   3.225   5.567 -0.3020 -0.0690  0.1357
 4626SOL     OW18275   0.745   1.325   5.210 -0.4841 -0.4586  0.0948
 4626SOL    HW218276   0.660   1.292   5.240 -0.4071  0.5456  1.5554
 4626SOL    HW318277   0.782   1.254   5.158 -1.2806 -1.7626  1.2423
 4626SOL    MW418278   0.739   1.311   5.207 -0.5790 -0.4982  0.4389
 4627SOL     OW18279   3.628   6.031   2.366  0.2556  0.5287  0.4069
 4627SOL    HW218280   3.566   5.966   2.397  0.7331  0.0099  0.2908
 4627SOL    HW318281   3.714   5.990   2.377  0.4328  0.0325 -2.2064
 4627SOL    MW418282   3.632   6.017   2.371  0.3420  0.3947  0.0468
 4628SOL     OW18283   3.333   2.562   4.680  0.0627  0.5019 -0.6666
 4628SOL    HW218284   3.273   2.596   4.746 -0.9029 -0.4524 -1.0247
 4628SOL    HW318285   3.279   2.507   4.624  1.1637  0.0682 -1.3455
 4628SOL    MW418286   3.318   2.559   4.681  0.0805  0.3187 -0.8034
 4629SOL     OW18287   1.112   1.400   2.210 -0.0717 -0.2864 -0.1581
 4629SOL    HW218288   1.097   1.363   2.297 -2.2311 -1.4951 -0.9688
 4629SOL    HW318289   1.138   1.491   2.227  0.1226 -0.6462  1.7487
 4629SOL    MW418290   1.114   1.407   2.224 -0.3310 -0.4934 -0.0135
 4630SOL     OW18291   4.789   0.277   2.936  0.2446 -0.1696 -0.2227
 4630SOL    HW218292   4.704   0.233   2.929 -0.7801  1.0311  3.0313
 4630SOL    HW318293   4.831   0.236   3.012 -0.2005  3.3598  2.1256
 4630SOL    MW418294   4.783   0.266   2.945  0.0507  0.4545  0.5165
 4631SOL     OW18295   0.860   5.589   0.070  0.2178  0.4811  0.1346
 4631SOL    HW218296   0.801   5.539   0.125  0.5183 -1.7680 -1.4727
 4631SOL    HW318297   0.806   5.618  -0.004  0.3581  1.4437  0.3882
 4631SOL    MW418298   0.845   5.587   0.067  0.2759  0.3114 -0.0440
 4632SOL     OW18299   4.559   5.493   2.137 -0.4170  0.3474 -0.3826
 4632SOL    HW218300   4.486   5.434   2.152 -1.4580  1.5902 -0.3673
 4632SOL    HW318301   4.518   5.577   2.118  1.0147  1.2573  0.3581
 4632SOL    MW418302   4.544   5.496   2.136 -0.3655  0.6314 -0.2829
 4633SOL     OW18303   4.539   3.143   1.348 -0.0419  0.3193 -0.4020
 4633SOL    HW218304   4.490   3.153   1.430 -0.7096 -0.2101 -0.7303
 4633SOL    HW318305   4.485   3.188   1.283  0.5519  0.8521 -0.5351
 4633SOL    MW418306   4.526   3.151   1.350 -0.0516  0.3197 -0.4629
 4634SOL     OW18307   0.409   0.791   5.660 -0.4037 -0.0877 -0.0638
 4634SOL    HW218308   0.481   0.854   5.655 -0.2217  0.0307  2.5905
 4634SOL    HW318309   0.352   0.826   5.729 -1.2182 -1.8978  0.2278
 4634SOL    MW418310   0.411   0.804   5.669 -0.4871 -0.3109  0.3249
 4635SOL     OW18311   5.003   4.877   0.668 -0.3216  0.2116 -0.5182
 4635SOL    HW218312   4.936   4.858   0.734 -1.1064  1.0070 -1.0535
 4635SOL    HW318313   5.048   4.955   0.702 -0.0455  0.0188 -0.4381
 4635SOL    MW418314   5.000   4.885   0.682 -0.3887  0.2911 -0.5782
 4636SOL     OW18315   5.449   3.080   1.819 -0.9724 -0.0641 -0.6575
 4636SOL    HW218316   5.484   3.024   1.750  0.2141  1.4959 -1.3738
 4636SOL    HW318317   5.519   3.085   1.885 -1.2442  0.2013 -0.3794
 4636SOL    MW418318   5.463   3.073   1.819 -0.8517  0.1768 -0.7153
 4637SOL     OW18319   1.335   5.289   3.122 -0.0816  0.7106 -0.4050
 4637SOL    HW218320   1.316   5.356   3.056  1.5415  1.2999 -0.3111
 4637SOL    HW318321   1.421   5.255   3.099 -0.1183 -0.1047  0.5725
 4637SOL    MW418322   1.344   5.293   3.110  0.1277  0.6807 -0.2636
 4638SOL     OW18323   0.133   5.928   6.312 -0.3548  0.4357  0.0715
 4638SOL    HW218324   0.074   5.903   6.240  0.6481  1.2348 -1.0706
 4638SOL    HW318325   0.196   5.856   6.317 -0.9575 -0.0550  0.7829
 4638SOL    MW418326   0.133   5.915   6.303 -0.3020  0.4764  0.0147
 4639SOL     OW18327   4.229   6.215   3.859  0.2940 -0.1313  0.2576
 4639SOL    HW218328   4.200   6.240   3.947  0.8106  0.7092  0.1971
 4639SOL    HW318329   4.322   6.197   3.868  0.1881 -0.8150  0.0356
 4639SOL    MW418330   4.237   6.216   3.872  0.3482 -0.1106  0.2203
 4640SOL     OW18331   6.396   2.777   3.799  0.9731 -0.1008 -0.3233
 4640SOL    HW218332   6.343   2.854   3.820 -0.1796 -0.9022 -0.1918
 4640SOL    HW318333   6.442   2.756   3.880  0.6483 -0.0379 -0.1217
 4640SOL    MW418334   6.395   2.784   3.812  0.7782 -0.1983 -0.2794
 4641SOL     OW18335   5.579   5.688   4.312 -0.2882  0.0434  0.3380
 4641SOL    HW218336   5.580   5.595   4.290  2.7200 -0.2222  1.1326
 4641SOL    HW318337   5.567   5.690   4.407 -1.1534  0.5518  0.2319
 4641SOL    MW418338   5.578   5.676   4.321 -0.0055  0.0754  0.4289
 4642SOL     OW18339   5.280   1.156   5.810  0.2839 -0.1689  0.4099
 4642SOL    HW218340   5.317   1.236   5.847  1.9225 -0.7289  0.0914
 4642SOL    HW318341   5.329   1.085   5.853  0.0521 -0.9239 -0.5343
 4642SOL    MW418342   5.291   1.157   5.820  0.4695 -0.3424  0.2433
 4643SOL     OW18343   2.593   3.595   4.550  0.0970  0.0017 -0.1517
 4643SOL    HW218344   2.629   3.536   4.484 -0.0895  0.3060 -0.5228
 4643SOL    HW318345   2.502   3.568   4.560 -0.5536  1.4914 -1.7608
 4643SOL    MW418346   2.586   3.584   4.543 -0.0134  0.2384 -0.4130
 4644SOL     OW18347   2.930   3.766   2.041 -0.1581  0.4442  0.4162
 4644SOL    HW218348   2.904   3.691   2.094  0.0150  2.3331  3.3900
 4644SOL    HW318349   3.004   3.804   2.088  1.1088  1.3482 -2.1079
 4644SOL    MW418350   2.937   3.761   2.054  0.0319  0.8127  0.4756
 4645SOL     OW18351   5.350   0.132   4.352  0.4969  0.5940 -0.3046
 4645SOL    HW218352   5.385   0.204   4.404  1.1557 -0.1213  0.2506
 4645SOL    HW318353   5.259   0.156   4.336  0.2258  0.7261  1.3437
 4645SOL    MW418354   5.343   0.145   4.357  0.5480  0.5170 -0.0139
 4646SOL     OW18355   3.399   5.380   2.287  0.7605 -0.4145  0.1948
 4646SOL    HW218356   3.307   5.366   2.267  0.6154 -0.2188  0.6894
 4646SOL    HW318357   3.399   5.408   2.379  1.2706  0.0471  0.0575
 4646SOL    MW418358   3.387   5.382   2.297  0.8087 -0.3278  0.2420
 4647SOL     OW18359   0.211   0.681   2.081 -0.2030  0.1328  0.2964
 4647SOL    HW218360   0.200   0.633   2.162  0.5937 -0.2624  0.1737
 4647SOL    HW318361   0.249   0.765   2.107 -1.1551  0.5310  0.4581
 4647SOL    MW418362   0.214   0.686   2.095 -0.2235  0.1332  0.3016
 4648SOL     OW18363   6.419   0.494   4.006 -0.3005 -0.6143 -0.1938
 4648SOL    HW218364   6.506   0.520   3.977  0.5647 -1.0618  1.8121
 4648SOL    HW318365   6.435   0.442   4.085 -2.2368 -2.9800 -1.2369
 4648SOL    MW418366   6.433   0.491   4.012 -0.4418 -0.9855 -0.0668
 4649SOL     OW18367   5.148   2.159   1.110 -0.2527  0.7138 -0.0104
 4649SOL    HW218368   5.144   2.069   1.143 -1.3553  0.6313 -0.3225
 4649SOL    HW318369   5.214   2.157   1.041 -0.6938  0.0012 -0.4184
 4649SOL    MW418370   5.156   2.147   1.105 -0.4564  0.6089 -0.1054
 4650SOL     OW18371   1.276   2.902   3.193 -0.0546 -0.0575  0.4316
 4650SOL    HW218372   1.335   2.834   3.161  0.2581 -0.6284  2.1263
 4650SOL    HW318373   1.323   2.984   3.177  0.1206 -0.3218 -0.4518
 4650SOL    MW418374   1.290   2.904   3.186  0.0097 -0.1677  0.5386
 4651SOL     OW18375   4.401   2.289   4.740  0.2531  0.4670 -0.2359
 4651SOL    HW218376   4.442   2.213   4.781 -0.1611 -0.9843 -2.3487
 4651SOL    HW318377   4.315   2.295   4.781 -0.2352 -1.0748 -0.9546
 4651SOL    MW418378   4.395   2.280   4.750  0.1340  0.0721 -0.6095
 4652SOL     OW18379   3.844   6.331   2.679 -0.1830  0.1905 -0.4412
 4652SOL    HW218380   3.817   6.423   2.681 -0.3894  0.1423 -1.0096
 4652SOL    HW318381   3.812   6.298   2.595 -0.9162 -0.6447  0.1413
 4652SOL    MW418382   3.836   6.339   2.669 -0.3070  0.0739 -0.4394
 4653SOL     OW18383   2.392   2.891   0.603 -0.2466  0.6801  0.3027
 4653SOL    HW218384   2.353   2.924   0.522  3.2203  3.7057 -0.4033
 4653SOL    HW318385   2.442   2.965   0.637  1.1314 -1.5086  3.4499
 4653SOL    MW418386   2.394   2.905   0.597  0.3926  0.7905  0.6248
 4654SOL     OW18387   1.065   4.886   3.367 -0.7906  0.4280  0.1344
 4654SOL    HW218388   1.018   4.803   3.370 -0.4123  0.2363  1.1711
 4654SOL    HW318389   1.105   4.889   3.280 -1.6350 -0.0044 -0.2780
 4654SOL    MW418390   1.064   4.876   3.356 -0.8521  0.3456  0.2167
 4655SOL     OW18391   1.524   1.682   0.141 -0.1947 -0.4501  0.8095
 4655SOL    HW218392   1.570   1.731   0.073  0.3031 -1.2896  0.5212
 4655SOL    HW318393   1.444   1.732   0.158 -0.1898 -0.0863 -0.1927
 4655SOL    MW418394   1.520   1.695   0.134 -0.1284 -0.5129  0.6393
 4656SOL     OW18395   2.329   5.665   0.798 -0.1301  0.2328 -0.1580
 4656SOL    HW218396   2.311   5.731   0.731 -0.4471 -1.0866 -1.4327
 4656SOL    HW318397   2.402   5.701   0.849 -0.1464  1.4488 -0.9591
 4656SOL    MW418398   2.336   5.679   0.796 -0.1741  0.2191 -0.4319
 4657SOL     OW18399   1.652   0.491   4.587 -0.0995  0.1420  0.2128
 4657SOL    HW218400   1.583   0.514   4.649 -0.4513 -1.1210  0.3191
 4657SOL    HW318401   1.621   0.410   4.545  0.4057  0.6295 -1.1809
 4657SOL    MW418402   1.639   0.483   4.589 -0.0792  0.0397  0.0430
 4658SOL     OW18403   0.992   1.111   1.701 -0.0222 -0.7098  0.0005
 4658SOL    HW218404   1.070   1.108   1.756 -0.9588 -0.6942  1.3649
 4658SOL    HW318405   0.960   1.021   1.700  0.4056 -0.8697 -1.1778
 4658SOL    MW418406   0.998   1.099   1.708 -0.0894 -0.7288  0.0251
 4659SOL     OW18407   4.281   2.741   0.077  0.0457 -0.2680  0.2033
 4659SOL    HW218408   4.350   2.730   0.012 -0.9925 -1.8065 -0.7181
 4659SOL    HW318409   4.219   2.670   0.058 -1.1997  0.3522  1.7274
 4659SOL    MW418410   4.282   2.730   0.066 -0.2556 -0.3892  0.2828
 4660SOL     OW18411   1.604   5.835   0.444 -0.7605  0.4469  0.2234
 4660SOL    HW218412   1.574   5.899   0.379 -0.8550 -1.4526 -1.7231
 4660SOL    HW318413   1.525   5.784   0.465 -0.5140  0.4099  1.0817
 4660SOL    MW418414   1.589   5.837   0.438 -0.7405  0.1914  0.0798
 4661SOL     OW18415   4.227   4.421   3.419  0.5312 -0.2040 -0.6462
 4661SOL    HW218416   4.180   4.381   3.346 -0.4769 -0.2940  0.0421
 4661SOL    HW318417   4.177   4.499   3.441  0.8891 -0.1185 -0.1217
 4661SOL    MW418418   4.214   4.426   3.413  0.4454 -0.2046 -0.4862
 4662SOL     OW18419   2.224   1.379   6.415  0.5920 -0.5095  0.2338
 4662SOL    HW218420   2.204   1.442   6.484 -0.0432 -1.8311  1.2851
 4662SOL    HW318421   2.316   1.358   6.427  0.5137 -0.6457  0.6154
 4662SOL    MW418422   2.233   1.385   6.425  0.4979 -0.7018  0.4229
 4663SOL     OW18423   4.315   4.849   6.143  0.3445  0.3065 -0.1328
 4663SOL    HW218424   4.271   4.766   6.163  2.3237 -0.8913 -0.4095
 4663SOL    HW318425   4.383   4.824   6.080  1.1701  2.1124 -0.0014
 4663SOL    MW418426   4.318   4.835   6.137  0.7146  0.3868 -0.1519
 4664SOL     OW18427   1.152   0.310   5.783 -0.2543  0.0953 -0.2993
 4664SOL    HW218428   1.078   0.263   5.743 -0.4584  0.3661 -0.2402
 4664SOL    HW318429   1.217   0.317   5.714  0.1289 -1.0323 -0.0734
 4664SOL    MW418430   1.151   0.304   5.769 -0.2306 -0.0177 -0.2617
 4665SOL     OW18431   5.630   4.002   3.695  0.2916 -0.3290  0.4797
 4665SOL    HW218432   5.586   4.058   3.759  1.9710  1.2876  0.3258
 4665SOL    HW318433   5.562   3.944   3.662 -1.0358  0.0987  2.3226
 4665SOL    MW418434   5.615   4.002   3.699  0.3380 -0.0593  0.7025
 4666SOL     OW18435   4.592   5.122   0.864 -0.2711 -0.3769  0.2098
 4666SOL    HW218436   4.539   5.055   0.906 -0.0842 -0.3350  0.5138
 4666SOL    HW318437   4.568   5.204   0.908  0.7840 -0.5090  1.0508
 4666SOL    MW418438   4.582   5.124   0.875 -0.1072 -0.3888  0.3609
 4667SOL     OW18439   5.483   6.129   4.312 -0.7223  0.2289 -0.1697
 4667SOL    HW218440   5.394   6.126   4.277 -0.4578  2.3057 -1.1342
 4667SOL    HW318441   5.522   6.207   4.273  0.3427  1.4670  3.0520
 4667SOL    MW418442   5.476   6.139   4.302 -0.5469  0.6662  0.1281
 4668SOL     OW18443   3.515   1.281   6.118 -0.0135 -0.0230 -0.2906
 4668SOL    HW218444   3.508   1.231   6.200 -0.2631 -1.3821 -1.1260
 4668SOL    HW318445   3.512   1.373   6.147 -1.2281 -0.4649  1.1349
 4668SOL    MW418446   3.514   1.287   6.133 -0.2066 -0.2606 -0.2127
 4669SOL     OW18447   2.745   1.453   3.938 -0.0339  0.6929  0.4059
 4669SOL    HW218448   2.758   1.428   3.847  0.2692 -1.5021  0.9861
 4669SOL    HW318449   2.777   1.543   3.944  1.5122  0.3111 -1.3067
 4669SOL    MW418450   2.751   1.462   3.927  0.2100  0.3529  0.2565
 4670SOL     OW18451   0.298   2.967   4.516 -0.5129 -0.5251  0.0638
 4670SOL    HW218452   0.267   2.877   4.507  0.4938 -1.0172  1.1162
 4670SOL    HW318453   0.381   2.969   4.467  0.2019 -0.6126  1.2112
 4670SOL    MW418454   0.305   2.955   4.508 -0.2858 -0.6015  0.3540
 4671SOL     OW18455   6.246   2.897   5.115 -0.0917 -0.1497 -0.4053
 4671SOL    HW218456   6.260   2.814   5.070  0.1822  0.4403 -1.4504
 4671SOL    HW318457   6.332   2.921   5.149 -0.0813 -0.1064 -0.4600
 4671SOL    MW418458   6.259   2.889   5.113 -0.0542 -0.0661 -0.5504
 4672SOL     OW18459   5.465   0.967   5.937  0.3226  0.3116 -0.3558
 4672SOL    HW218460   5.480   0.941   6.028 -0.3751  0.6164 -0.1458
 4672SOL    HW318461   5.518   1.046   5.925 -0.0411  0.6061 -0.0351
 4672SOL    MW418462   5.474   0.974   5.947  0.1826  0.3907 -0.2858
 4673SOL     OW18463   1.433   1.128   6.025 -0.2744  0.4615 -0.4504
 4673SOL    HW218464   1.513   1.075   6.018 -0.1350  0.5809  0.2138
 4673SOL    HW318465   1.364   1.065   6.043 -0.1224  0.4854  0.2499
 4673SOL    MW418466   1.434   1.113   6.026 -0.2360  0.4804 -0.2703
 4674SOL     OW18467   3.329   4.986   2.089  0.4890  0.1923  0.2644
 4674SOL    HW218468   3.264   4.995   2.019  2.3331  0.4574 -1.5304
 4674SOL    HW318469   3.291   4.923   2.150 -0.8582 -0.7072 -1.4284
 4674SOL    MW418470   3.316   4.979   2.088  0.5545  0.1086 -0.1958
 4675SOL     OW18471   5.044   1.321   4.701 -0.2110 -0.1993 -0.6029
 4675SOL    HW218472   5.017   1.314   4.609  0.1279 -1.2717 -0.6409
 4675SOL    HW318473   5.137   1.298   4.700  0.1841  1.2952 -0.1848
 4675SOL    MW418474   5.053   1.317   4.689 -0.1142 -0.1436 -0.5527
 4676SOL     OW18475   5.029   2.269   3.875 -0.5864  0.1270 -0.0266
 4676SOL    HW218476   5.008   2.235   3.962 -0.5760 -1.6643 -0.6693
 4676SOL    HW318477   4.949   2.312   3.846 -0.3770  1.3458  1.1010
 4676SOL    MW418478   5.016   2.270   3.883 -0.5574  0.0515  0.0374
 4677SOL     OW18479   2.866   0.394   6.104  0.7392  0.4407  0.1535
 4677SOL    HW218480   2.914   0.314   6.083 -0.2247  0.1070 -0.8995
 4677SOL    HW318481   2.857   0.439   6.021 -0.2384  0.7759  0.4262
 4677SOL    MW418482   2.871   0.389   6.090  0.4831  0.4409  0.0505
 4678SOL     OW18483   4.789   0.695   0.594  0.1339 -0.3194  0.5345
 4678SOL    HW218484   4.876   0.676   0.628  0.1736  1.3620  1.4850
 4678SOL    HW318485   4.729   0.658   0.659  0.0135 -3.1932 -1.0520
 4678SOL    MW418486   4.792   0.688   0.607  0.1232 -0.4767  0.4506
 4679SOL     OW18487   6.114   2.608   1.125  0.6983  0.2557  0.5693
 4679SOL    HW218488   6.043   2.553   1.093  1.4448  0.9121 -2.4717
 4679SOL    HW318489   6.192   2.553   1.120  0.7168  0.0273  2.4687
 4679SOL    MW418490   6.115   2.594   1.120  0.7993  0.3122  0.4187
 4680SOL     OW18491   6.286   3.507   5.138 -0.6186  0.1277  0.3253
 4680SOL    HW218492   6.301   3.600   5.158 -2.4680  0.2611  1.2472
 4680SOL    HW318493   6.221   3.479   5.202  0.7145 -2.1289  0.7991
 4680SOL    MW418494   6.280   3.516   5.149 -0.6867 -0.1524  0.5095
 4681SOL     OW18495   1.553   2.205   1.073  0.0829  0.5476  0.0963
 4681SOL    HW218496   1.647   2.213   1.053  0.6257 -2.3565  1.0331
 4681SOL    HW318497   1.513   2.279   1.027  2.5935  0.8539 -1.8497
 4681SOL    MW418498   1.560   2.216   1.065  0.4858  0.2048 -0.0368
 4682SOL     OW18499   0.486   3.994   4.550 -0.5837 -0.1674  0.1055
 4682SOL    HW218500   0.422   3.955   4.490 -0.0428 -1.0604  0.0938
 4682SOL    HW318501   0.436   4.014   4.629 -1.2619  0.8486 -0.5558
 4682SOL    MW418502   0.471   3.992   4.553 -0.6018 -0.1512  0.0167
 4683SOL     OW18503   1.845   2.992   2.652 -0.1251 -0.0629 -0.0287
 4683SOL    HW218504   1.889   2.970   2.571 -0.5047 -0.5556 -0.1059
 4683SOL    HW318505   1.867   3.084   2.667  2.2849 -0.6852  0.7903
 4683SOL    MW418506   1.854   3.001   2.644  0.1428 -0.2100  0.0692
 4684SOL     OW18507   3.189   2.219   2.998 -0.0616 -0.2056 -0.3682
 4684SOL    HW218508   3.240   2.186   3.072 -0.5855 -1.2691 -0.4520
 4684SOL    HW318509   3.254   2.255   2.938  0.2396  2.6144  1.4932
 4684SOL    MW418510   3.204   2.219   3.000 -0.0910  0.0261 -0.1336
 4685SOL     OW18511   4.483   4.696   3.984 -0.5700  0.3701 -0.1303
 4685SOL    HW218512   4.556   4.717   3.927 -0.3657  2.2519  0.7569
 4685SOL    HW318513   4.517   4.627   4.042 -0.7553 -1.5015 -2.1152
 4685SOL    MW418514   4.497   4.690   3.984 -0.5675  0.3714 -0.2751
 4686SOL     OW18515   3.063   1.864   5.627 -0.1307  0.3057 -0.2701
 4686SOL    HW218516   3.080   1.958   5.638 -1.9004  0.7494 -1.0257
 4686SOL    HW318517   3.029   1.857   5.538  1.3652 -1.2919 -0.7586
 4686SOL    MW418518   3.061   1.876   5.617 -0.1668  0.1534 -0.4343
 4687SOL     OW18519   5.331   3.371   0.552  0.1046 -0.0132  0.2536
 4687SOL    HW218520   5.237   3.357   0.560  0.1427  0.0051  0.7193
 4687SOL    HW318521   5.371   3.309   0.612  0.4291 -0.6097 -0.5602
 4687SOL    MW418522   5.324   3.361   0.561  0.1524 -0.0895  0.2077
 4688SOL     OW18523   4.642   1.647   0.111 -0.2271 -0.0346  0.2405
 4688SOL    HW218524   4.566   1.691   0.074  0.0251  0.2906  0.1053
 4688SOL    HW318525   4.625   1.644   0.205 -1.0508 -1.2098  0.0731
 4688SOL    MW418526   4.630   1.652   0.118 -0.3025 -0.1468  0.2005
 4689SOL     OW18527   1.258   3.513   1.201 -0.1274  0.3930 -0.4566
 4689SOL    HW218528   1.206   3.593   1.192  0.0024  0.4389 -0.8185
 4689SOL    HW318529   1.342   3.534   1.161  0.4669  0.5798  0.8346
 4689SOL    MW418530   1.262   3.526   1.194 -0.0318  0.4237 -0.3340
 4690SOL     OW18531   3.198   2.662   4.349  0.4508 -0.1729  0.1025
 4690SOL    HW218532   3.171   2.584   4.398  2.1564 -0.5465  0.5058
 4690SOL    HW318533   3.169   2.736   4.402  1.7225 -0.5679  1.4210
 4690SOL    MW418534   3.191   2.661   4.362  0.8436 -0.2743  0.3297
 4691SOL     OW18535   3.145   0.498   1.100 -0.5485  0.0946 -0.3097
 4691SOL    HW218536   3.201   0.530   1.171 -0.7534  0.2587 -0.2202
 4691SOL    HW318537   3.202   0.497   1.023 -0.5034  0.5645 -0.2863
 4691SOL    MW418538   3.160   0.502   1.099 -0.5696  0.1783 -0.2948
 4692SOL     OW18539   2.141   1.861   6.047  0.0528 -0.3985  0.1766
 4692SOL    HW218540   2.214   1.819   6.001 -1.2511 -1.5972 -0.8948
 4692SOL    HW318541   2.109   1.927   5.986  0.0545 -0.0833  0.5165
 4692SOL    MW418542   2.146   1.864   6.033 -0.1190 -0.5151  0.0801
 4693SOL     OW18543   5.959   2.284   1.720 -0.0185  0.4929 -0.5146
 4693SOL    HW218544   5.998   2.367   1.690 -0.9706  1.6220  1.1551
 4693SOL    HW318545   6.012   2.260   1.796  0.1997 -0.4052 -0.9474
 4693SOL    MW418546   5.971   2.292   1.726 -0.1153  0.5234 -0.3514
 4694SOL     OW18547   5.716   6.071   0.071 -0.4080  0.2123  0.4520
 4694SOL    HW218548   5.638   6.044   0.022  0.3102 -2.2582  0.5330
 4694SOL    HW318549   5.777   6.103   0.004 -0.8385  0.5263  0.2028
 4694SOL    MW418550   5.713   6.072   0.056 -0.3701 -0.0723  0.4298
 4695SOL     OW18551   0.827   3.643   5.472 -0.3832  0.2125  0.2252
 4695SOL    HW218552   0.781   3.719   5.507 -0.3135  1.4355 -2.1038
 4695SOL    HW318553   0.757   3.578   5.457 -1.2283  1.4782 -1.8125
 4695SOL    MW418554   0.811   3.644   5.474 -0.4855  0.5408 -0.3509
 4696SOL     OW18555   3.323   5.458   5.172 -0.2115 -0.3233 -0.0887
 4696SOL    HW218556   3.408   5.468   5.129  0.0078 -0.4434  0.3130
 4696SOL    HW318557   3.336   5.493   5.260 -0.7967  0.3792 -0.2696
 4696SOL    MW418558   3.336   5.464   5.178 -0.2598 -0.2465 -0.0596
 4697SOL     OW18559   2.706   6.038   2.402  0.3760  0.0532  0.5027
 4697SOL    HW218560   2.742   5.974   2.463  1.8719  0.8000  0.4528
 4697SOL    HW318561   2.779   6.060   2.344 -0.2526  1.3791  0.1749
 4697SOL    MW418562   2.720   6.033   2.403  0.4904  0.3267  0.4529
 4698SOL     OW18563   5.475   4.577   0.275  0.3933 -0.1339  0.2563
 4698SOL    HW218564   5.492   4.578   0.369 -0.0033  1.3512  0.3409
 4698SOL    HW318565   5.419   4.501   0.261 -1.1559  0.7043  1.5488
 4698SOL    MW418566   5.470   4.567   0.285  0.1366  0.1726  0.4380
 4699SOL     OW18567   0.298   3.087   2.863  0.3301 -0.0529 -0.1652
 4699SOL    HW218568   0.212   3.100   2.902  0.9446 -1.5584  1.8113
 4699SOL    HW318569   0.335   3.012   2.909  1.9238 -0.7170 -2.3396
 4699SOL    MW418570   0.291   3.079   2.874  0.6215 -0.3392 -0.1913
 4700SOL     OW18571   4.350   5.721   5.882  0.0012 -0.2536  0.0336
 4700SOL    HW218572   4.402   5.789   5.924 -1.0885  0.8098 -0.3028
 4700SOL    HW318573   4.407   5.688   5.812  1.7294 -1.8572  2.0396
 4700SOL    MW418574   4.364   5.725   5.878  0.0854 -0.3249  0.2539
 4701SOL     OW18575   2.554   4.442   1.012 -0.3165  0.5156 -0.3748
 4701SOL    HW218576   2.646   4.445   1.038 -0.1652  0.3007 -0.8725
 4701SOL    HW318577   2.516   4.373   1.066 -0.6169  1.7850  1.1295
 4701SOL    MW418578   2.561   4.433   1.022 -0.3361  0.6548 -0.2420
 4702SOL     OW18579   5.723   2.359   1.553  0.6082  0.2128 -0.5251
 4702SOL    HW218580   5.789   2.334   1.619  0.1334 -0.0096 -0.1261
 4702SOL    HW318581   5.759   2.327   1.470 -0.5588 -3.1316  0.0995
 4702SOL    MW418582   5.737   2.351   1.551  0.3915 -0.2578 -0.3900
 4703SOL     OW18583   1.969   2.144   5.341 -0.0877  0.4229 -0.1521
 4703SOL    HW218584   1.900   2.088   5.375  0.1295 -0.4873 -1.1529
 4703SOL    HW318585   2.036   2.146   5.409  0.3469 -1.3609 -0.4898
 4703SOL    MW418586   1.969   2.137   5.354 -0.0017  0.0675 -0.3287
 4704SOL     OW18587   2.252   5.584   2.269 -0.4326 -0.0998 -0.4351
 4704SOL    HW218588   2.243   5.498   2.226  0.7257  0.4879 -1.9562
 4704SOL    HW318589   2.346   5.590   2.289 -0.2967  1.2550 -1.3713
 4704SOL    MW418590   2.263   5.573   2.266 -0.2618  0.1565 -0.7593
 4705SOL     OW18591   4.869   3.154   6.047 -0.0060  0.1378  0.4157
 4705SOL    HW218592   4.830   3.077   6.006  1.8844 -1.4719  1.4709
 4705SOL    HW318593   4.836   3.152   6.137 -1.2275  1.5476  0.0390
 4705SOL    MW418594   4.860   3.143   6.054  0.0822  0.1114  0.5052
 4706SOL     OW18595   3.706   0.935   5.903 -0.0040 -0.2407  0.3665
 4706SOL    HW218596   3.704   1.026   5.931 -1.1923 -0.4206  0.9752
 4706SOL    HW318597   3.686   0.885   5.983 -0.6473 -0.9463 -0.2134
 4706SOL    MW418598   3.703   0.940   5.917 -0.2456 -0.3575  0.3703
 4707SOL     OW18599   5.463   4.962   3.180  0.0291  0.2664 -0.2771
 4707SOL    HW218600   5.555   4.935   3.182  0.5239  1.7359 -1.1728
 4707SOL    HW318601   5.413   4.880   3.183  1.3893 -0.6281 -1.0801
 4707SOL    MW418602   5.468   4.948   3.181  0.2739  0.3423 -0.5012
 4708SOL     OW18603   4.128   5.302   4.197  0.2465 -0.2230  0.4449
 4708SOL    HW218604   4.177   5.226   4.167 -0.0531  0.2700 -1.3685
 4708SOL    HW318605   4.076   5.269   4.271 -2.0158 -2.5626 -1.9909
 4708SOL    MW418606   4.128   5.288   4.203 -0.0915 -0.4667 -0.1157
 4709SOL     OW18607   5.595   1.619   5.080  0.5808 -0.2030 -0.3675
 4709SOL    HW218608   5.681   1.660   5.066  0.3545 -0.1298 -1.6625
 4709SOL    HW318609   5.598   1.589   5.171  0.8345  2.4541  0.5898
 4709SOL    MW418610   5.607   1.620   5.090  0.5844  0.1572 -0.4120
 4710SOL     OW18611   0.406   3.535   0.063 -0.0044 -0.3676  0.1104
 4710SOL    HW218612   0.480   3.499   0.014  0.1712 -2.0861  1.5258
 4710SOL    HW318613   0.346   3.461   0.074  0.1389 -0.1989  2.7385
 4710SOL    MW418614   0.408   3.520   0.058  0.0377 -0.5721  0.6439
 4711SOL     OW18615   5.145   4.605   0.595  0.3504  0.4509  0.3674
 4711SOL    HW218616   5.093   4.684   0.607  1.2721  1.1110  0.1320
 4711SOL    HW318617   5.101   4.557   0.525 -0.4421  0.5383  0.7889
 4711SOL    MW418618   5.132   4.609   0.588  0.3674  0.5495  0.3919
 4712SOL     OW18619   2.907   3.390   1.024 -0.1898  0.1640 -0.5559
 4712SOL    HW218620   2.962   3.468   1.026  0.6158 -0.3259 -2.1330
 4712SOL    HW318621   2.930   3.346   0.943 -3.4970  0.3335 -1.7373
 4712SOL    MW418622   2.917   3.394   1.014 -0.5199  0.1217 -0.9199
 4713SOL     OW18623   1.726   0.881   3.235 -0.3408  0.1442  0.2427
 4713SOL    HW218624   1.771   0.847   3.157 -0.6940 -0.4039  0.2821
 4713SOL    HW318625   1.793   0.880   3.303 -0.8911 -2.5348  0.8319
 4713SOL    MW418626   1.741   0.877   3.234 -0.4600 -0.2816  0.3256
 4714SOL     OW18627   5.643   3.648   2.421 -0.3755 -0.3987  0.3278
 4714SOL    HW218628   5.598   3.575   2.462  1.2144 -1.8990 -0.4441
 4714SOL    HW318629   5.674   3.613   2.338  0.6734  1.0709  0.0606
 4714SOL    MW418630   5.642   3.634   2.416 -0.0273 -0.4027  0.1907
 4715SOL     OW18631   5.305   1.555   4.476 -0.2408 -0.0517 -0.1505
 4715SOL    HW218632   5.309   1.480   4.418  1.3245  0.8260 -1.2398
 4715SOL    HW318633   5.360   1.532   4.551 -0.7741 -0.4523  0.1295
 4715SOL    MW418634   5.313   1.542   4.478 -0.1047  0.0113 -0.2573
 4716SOL     OW18635   1.619   5.353   5.608  0.7555  0.6655  0.3887
 4716SOL    HW218636   1.643   5.359   5.515  1.2593 -1.0663  0.3820
 4716SOL    HW318637   1.532   5.393   5.612  1.1085  1.6020 -0.6558
 4716SOL    MW418638   1.611   5.359   5.596  0.8686  0.5606  0.2500
 4717SOL     OW18639   4.732   3.760   4.455 -0.5168 -0.4003 -0.1503
 4717SOL    HW218640   4.687   3.841   4.476  1.9102  0.9407  0.2167
 4717SOL    HW318641   4.744   3.716   4.539 -1.3233 -0.8647 -0.2759
 4717SOL    MW418642   4.728   3.765   4.469 -0.3030 -0.2846 -0.1185
 4718SOL     OW18643   1.019   1.521   3.607 -0.2411  0.5288  0.3666
 4718SOL    HW218644   0.971   1.551   3.684 -0.5110  0.1312  0.3563
 4718SOL    HW318645   0.954   1.518   3.538  0.0435  1.0743  0.0703
 4718SOL    MW418646   1.004   1.525   3.608 -0.2392  0.5483  0.3262
 4719SOL     OW18647   4.979   3.871   4.671 -0.3670 -0.2373  0.0389
 4719SOL    HW218648   5.010   3.857   4.760 -1.1556 -0.6073  0.2622
 4719SOL    HW318649   5.038   3.938   4.636 -1.1775  1.3016  1.4539
 4719SOL    MW418650   4.991   3.878   4.678 -0.5780 -0.0831  0.2551
 4720SOL     OW18651   1.757   3.116   4.858  0.4500 -0.1685  0.0412
 4720SOL    HW218652   1.840   3.153   4.888  0.9485 -0.3946 -1.0104
 4720SOL    HW318653   1.753   3.136   4.765 -0.5897 -0.3372  0.0316
 4720SOL    MW418654   1.767   3.123   4.850  0.3786 -0.2206 -0.0988
 4721SOL     OW18655   1.794   3.597   2.704 -0.0647  0.2337 -0.9123
 4721SOL    HW218656   1.863   3.613   2.769  2.0664 -0.6141 -2.8362
 4721SOL    HW318657   1.777   3.683   2.666  2.6921 -0.0051 -2.9519
 4721SOL    MW418658   1.801   3.610   2.708  0.5802  0.0903 -1.4353
 4722SOL     OW18659   2.072   4.618   5.557 -0.3608 -0.1875  0.2735
 4722SOL    HW218660   2.094   4.686   5.493  0.2558 -1.8689 -1.3994
 4722SOL    HW318661   2.014   4.559   5.509 -0.0272 -1.3996  1.3307
 4722SOL    MW418662   2.067   4.619   5.542 -0.2354 -0.5693  0.1923
 4723SOL     OW18663   2.157   4.108   5.880 -0.1211 -0.6448 -0.0770
 4723SOL    HW218664   2.068   4.074   5.864  0.1290 -0.7710 -1.3377
 4723SOL    HW318665   2.176   4.161   5.803  0.7479 -0.2769  0.3819
 4723SOL    MW418666   2.148   4.110   5.868  0.0266 -0.6129 -0.1828
 4724SOL     OW18667   5.864   6.207   0.743  0.5148  0.7402  0.1110
 4724SOL    HW218668   5.942   6.246   0.704  0.0680 -0.0588 -1.6665
 4724SOL    HW318669   5.875   6.113   0.730  0.8157  0.3083  2.8932
 4724SOL    MW418670   5.876   6.200   0.737  0.4955  0.5778  0.2436
 4725SOL     OW18671   6.270   0.221   5.824 -0.2758  0.8332  0.4789
 4725SOL    HW218672   6.184   0.228   5.866 -0.0718  1.1564  0.8414
 4725SOL    HW318673   6.325   0.178   5.889  0.1690  1.7780  0.7497
 4725SOL    MW418674   6.266   0.216   5.838 -0.1902  1.0005  0.5625
 4726SOL     OW18675   5.990   5.934   0.296  0.2326  0.1792 -0.5889
 4726SOL    HW218676   6.072   5.918   0.249  0.0131  0.8825 -1.2363
 4726SOL    HW318677   5.976   6.029   0.287  0.8834  0.6142  2.0261
 4726SOL    MW418678   5.999   5.945   0.289  0.2895  0.3294 -0.3293
 4727SOL     OW18679   3.077   2.496   6.014  0.1287  0.4422 -0.6669
 4727SOL    HW218680   3.023   2.471   6.089  0.3536  1.0866 -0.2787
 4727SOL    HW318681   3.030   2.462   5.938  0.6263 -1.4966 -0.1597
 4727SOL    MW418682   3.064   2.488   6.014  0.2240  0.2714 -0.5488
 4728SOL     OW18683   5.523   0.627   1.348 -0.1527 -0.1021  0.3605
 4728SOL    HW218684   5.473   0.703   1.378 -1.6585 -0.5844 -0.8243
 4728SOL    HW318685   5.599   0.625   1.406 -0.4177  1.8970  0.8657
 4728SOL    MW418686   5.526   0.637   1.360 -0.3863  0.0980  0.2708
 4729SOL     OW18687   3.897   5.349   0.379  0.2857  0.2617 -0.1074
 4729SOL    HW218688   3.973   5.405   0.366  0.1403  0.5063  0.0887
 4729SOL    HW318689   3.903   5.322   0.471  1.6609 -1.9691 -0.7759
 4729SOL    MW418690   3.908   5.353   0.390  0.4479 -0.0003 -0.1697
 4730SOL     OW18691   2.181   2.009   1.644  0.4245  0.4284  0.2217
 4730SOL    HW218692   2.162   1.969   1.560  2.7931  0.7295 -0.5260
 4730SOL    HW318693   2.258   1.962   1.677 -0.3048  0.4587  2.1418
 4730SOL    MW418694   2.189   1.997   1.638  0.6408  0.4721  0.3764
 4731SOL     OW18695   5.748   1.211   3.386  0.1735 -0.2417 -0.1512
 4731SOL    HW218696   5.679   1.277   3.376  1.4041  1.3157  1.1337
 4731SOL    HW318697   5.801   1.220   3.307 -0.3969 -0.6578 -0.6013
 4731SOL    MW418698   5.746   1.221   3.374  0.2606 -0.0911 -0.0411
 4732SOL     OW18699   2.412   0.901   6.017  0.2780  0.6598  0.1029
 4732SOL    HW218700   2.420   0.806   6.017 -1.4440  0.4786 -1.1135
 4732SOL    HW318701   2.354   0.921   5.944 -0.3391  2.5800  1.0378
 4732SOL    MW418702   2.406   0.891   6.007 -0.0306  0.8892  0.0658
 4733SOL     OW18703   3.188   3.818   2.209 -0.7160 -0.5895  0.6602
 4733SOL    HW218704   3.156   3.908   2.201 -1.8791 -1.0248  0.2554
 4733SOL    HW318705   3.283   3.826   2.208 -0.7993  0.5209 -0.7356
 4733SOL    MW418706   3.196   3.831   2.208 -0.8804 -0.5004  0.4226
 4734SOL     OW18707   3.283   4.139   1.570  0.4828 -0.0906  0.2087
 4734SOL    HW218708   3.238   4.222   1.556 -0.1353 -0.7046 -1.6996
 4734SOL    HW318709   3.213   4.074   1.578  0.9744 -0.8645 -1.4850
 4734SOL    MW418710   3.268   4.141   1.569  0.4661 -0.2737 -0.2666
 4735SOL     OW18711   2.207   1.013   1.898 -0.3068  0.1975  0.5291
 4735SOL    HW218712   2.134   1.059   1.941 -0.8178  0.4601 -0.5822
 4735SOL    HW318713   2.273   1.003   1.967 -0.6328  1.6225  1.0890
 4735SOL    MW418714   2.206   1.018   1.913 -0.4172  0.4202  0.4564
 4736SOL     OW18715   3.899   5.979   0.315 -0.3781  0.0127  0.4792
 4736SOL    HW218716   3.953   6.051   0.282 -1.8788  1.8595  1.8252
 4736SOL    HW318717   3.810   6.014   0.318 -1.4898 -2.4831 -0.4051
 4736SOL    MW418718   3.894   5.993   0.311 -0.7228 -0.0729  0.5401
 4737SOL     OW18719   1.425   0.180   1.731 -0.4832 -0.0862  0.2524
 4737SOL    HW218720   1.457   0.114   1.793 -0.9449 -0.7035 -0.1591
 4737SOL    HW318721   1.427   0.136   1.646 -1.4932  0.1867  0.0772
 4737SOL    MW418722   1.430   0.165   1.728 -0.6774 -0.1317  0.1750
 4738SOL     OW18723   2.317   0.993   6.251  0.1788 -0.7660 -0.0306
 4738SOL    HW218724   2.365   0.948   6.320  0.5917 -0.8760 -0.3898
 4738SOL    HW318725   2.332   0.941   6.172 -1.8621 -1.7214  0.1582
 4738SOL    MW418726   2.325   0.981   6.250 -0.0360 -0.9066 -0.0531
 4739SOL     OW18727   0.211   6.187   5.844 -0.1800  1.0584 -0.3086
 4739SOL    HW218728   0.280   6.149   5.791 -0.3425 -1.8133  1.2999
 4739SOL    HW318729   0.143   6.211   5.781  0.3372 -0.5780 -1.5760
 4739SOL    MW418730   0.211   6.185   5.829 -0.1332  0.4636 -0.2636
 4740SOL     OW18731   3.249   3.763   1.818 -0.6553  0.1045 -0.2845
 4740SOL    HW218732   3.156   3.756   1.795 -0.7447  1.1623 -0.2662
 4740SOL    HW318733   3.260   3.853   1.849  0.1490 -0.3450  0.7799
 4740SOL    MW418734   3.239   3.774   1.819 -0.5609  0.1848 -0.1416
 4741SOL     OW18735   2.102   3.737   2.476 -0.0329  0.0473  0.8667
 4741SOL    HW218736   2.099   3.776   2.389 -1.2375 -1.0758  0.3646
 4741SOL    HW318737   2.055   3.654   2.467  0.6210 -0.5328  2.3737
 4741SOL    MW418738   2.095   3.731   2.463 -0.1055 -0.1774  0.9993
 4742SOL     OW18739   4.460   1.947   1.167  0.4873 -0.2313 -0.0005
 4742SOL    HW218740   4.519   2.019   1.188  0.8366 -1.2418  2.9939
 4742SOL    HW318741   4.374   1.988   1.159  0.8436  0.6613  0.5778
 4742SOL    MW418742   4.456   1.962   1.168  0.5804 -0.2469  0.4708
 4743SOL     OW18743   2.475   3.925   3.305 -0.2733  1.0897  0.4743
 4743SOL    HW218744   2.385   3.909   3.332  0.7771 -3.1187  2.3922
 4743SOL    HW318745   2.520   3.949   3.387  1.0009 -1.0448  0.4830
 4743SOL    MW418746   2.469   3.926   3.320  0.0334  0.2528  0.7285
 4744SOL     OW18747   5.392   5.557   6.356 -0.0181  0.2570 -0.2637
 4744SOL    HW218748   5.357   5.528   6.440 -2.4049  1.0010 -0.9220
 4744SOL    HW318749   5.327   5.528   6.291  1.7185 -0.2497 -1.8897
 4744SOL    MW418750   5.379   5.549   6.358 -0.1039  0.2883 -0.5651
 4745SOL     OW18751   3.123   5.602   5.068 -0.2045  0.4817 -0.2758
 4745SOL    HW218752   3.154   5.685   5.102 -0.6965 -0.2362  2.1550
 4745SOL    HW318753   3.190   5.539   5.092 -0.9399 -0.1922  0.0687
 4745SOL    MW418754   3.136   5.604   5.076 -0.3664  0.2981  0.0903
 4746SOL     OW18755   2.147   0.238   2.598  0.1008 -0.1418 -0.5507
 4746SOL    HW218756   2.231   0.196   2.582 -0.8383 -1.8700 -1.2355
 4746SOL    HW318757   2.115   0.260   2.510  0.9849  3.0172 -0.1835
 4746SOL    MW418758   2.154   0.235   2.584  0.0935  0.0470 -0.5926
 4747SOL     OW18759   0.864   6.265   2.247 -0.1078  0.4307 -0.0734
 4747SOL    HW218760   0.959   6.258   2.245 -0.1501 -0.1906 -0.8873
 4747SOL    HW318761   0.840   6.292   2.158 -0.7435 -0.5435 -0.2230
 4747SOL    MW418762   0.873   6.267   2.235 -0.1972  0.2202 -0.2006
 4748SOL     OW18763   5.088   5.363   5.036  0.4832  0.6849  0.7190
 4748SOL    HW218764   5.023   5.412   4.986  0.2856  0.8965  1.1808
 4748SOL    HW318765   5.038   5.291   5.075  0.7855  0.0550 -0.0220
 4748SOL    MW418766   5.073   5.360   5.034  0.4970  0.6297  0.6822
 4749SOL     OW18767   1.345   4.207   2.710 -0.0488  0.3198 -0.0269
 4749SOL    HW218768   1.408   4.136   2.724  0.7845  0.7360 -1.4457
 4749SOL    HW318769   1.340   4.215   2.615 -1.5196  0.9609  0.0915
 4749SOL    MW418770   1.353   4.199   2.699 -0.1329  0.4593 -0.1985
 4750SOL     OW18771   5.298   4.236   5.751  0.6507 -0.6543  0.9499
 4750SOL    HW218772   5.380   4.277   5.723 -1.2348  2.8792 -0.0584
 4750SOL    HW318773   5.322   4.185   5.828  3.4777  1.9561  2.0098
 4750SOL    MW418774   5.312   4.235   5.757  0.7749  0.1563  0.9567
 4751SOL     OW18775   3.197   4.924   0.900 -0.5062 -0.3292  0.0125
 4751SOL    HW218776   3.114   4.970   0.884 -1.6801 -2.3315 -0.0131
 4751SOL    HW318777   3.183   4.878   0.982 -0.1224 -2.1376 -0.8850
 4751SOL    MW418778   3.184   4.924   0.909 -0.6104 -0.8319 -0.1093
 4752SOL     OW18779   5.174   4.045   2.764  0.4500  0.0612  0.1496
 4752SOL    HW218780   5.227   4.022   2.688  0.5326  3.4599 -0.9921
 4752SOL    HW318781   5.110   3.975   2.771  0.6329 -0.5490 -2.9075
 4752SOL    MW418782   5.173   4.033   2.755  0.4851  0.4291 -0.4044
 4753SOL     OW18783   4.812   6.234   1.471  0.3148 -0.1988  0.1471
 4753SOL    HW218784   4.726   6.258   1.506 -0.7678 -2.1509 -0.9807
 4753SOL    HW318785   4.868   6.308   1.492 -1.6308  1.1262  0.9723
 4753SOL    MW418786   4.808   6.247   1.478 -0.0847 -0.2815  0.1072
 4754SOL     OW18787   6.084   0.079   2.148 -0.6619 -0.4227 -0.0450
 4754SOL    HW218788   6.005   0.126   2.122 -0.0059  0.4727 -0.4847
 4754SOL    HW318789   6.111   0.032   2.069 -0.2843 -0.0299 -0.1573
 4754SOL    MW418790   6.077   0.079   2.134 -0.5255 -0.2528 -0.1179
 4755SOL     OW18791   3.809   3.151   0.108 -0.7563 -0.4625 -0.2844
 4755SOL    HW218792   3.717   3.137   0.086 -0.6651 -1.5949 -0.0009
 4755SOL    HW318793   3.842   3.064   0.131 -0.2991  0.3056  2.2287
 4755SOL    MW418794   3.801   3.138   0.108 -0.6840 -0.5106  0.0846
 4756SOL     OW18795   3.408   2.271   1.599 -0.0610 -0.0552 -0.2060
 4756SOL    HW218796   3.433   2.190   1.642 -0.2502 -0.5756 -1.0456
 4756SOL    HW318797   3.317   2.286   1.626 -0.9375 -1.5449 -2.0544
 4756SOL    MW418798   3.399   2.262   1.608 -0.2016 -0.3204 -0.5606
 4757SOL     OW18799   0.998   6.015   5.991 -0.0635  0.0469  0.4127
 4757SOL    HW218800   0.957   6.060   5.917  0.3897  0.4323  0.3945
 4757SOL    HW318801   0.929   6.008   6.056 -0.1410  0.7656  0.4141
 4757SOL    MW418802   0.984   6.020   5.990 -0.0139  0.1926  0.4105
 4758SOL     OW18803   3.933   6.314   4.991  0.7090 -0.0186  0.3399
 4758SOL    HW218804   3.903   6.242   4.936  1.8934 -0.6810  0.5296
 4758SOL    HW318805   3.943   6.275   5.078  0.9822  0.4676  0.5308
 4758SOL    MW418806   3.931   6.300   4.995  0.9013 -0.0418  0.3901
 4759SOL     OW18807   0.128   3.227   2.350 -0.1299  0.0940  0.0082
 4759SOL    HW218808   0.175   3.281   2.413  1.4092 -2.6617  1.3985
 4759SOL    HW318809   0.039   3.221   2.384  0.5909 -1.0636  1.8585
 4759SOL    MW418810   0.123   3.233   2.363  0.1682 -0.4223  0.4357
 4760SOL     OW18811   3.397   0.932   4.511  0.0707  0.4422 -0.3521
 4760SOL    HW218812   3.380   0.838   4.514  0.6474  0.3414 -0.0676
 4760SOL    HW318813   3.447   0.944   4.429 -1.7718  0.8160 -1.4779
 4760SOL    MW418814   3.402   0.921   4.500 -0.0963  0.4782 -0.4631
 4761SOL     OW18815   0.092   2.320   3.800 -0.5467  0.0557  0.7013
 4761SOL    HW218816   0.021   2.342   3.861 -0.8302 -3.2284  1.7420
 4761SOL    HW318817   0.086   2.225   3.790  3.4146 -0.3276  0.5081
 4761SOL    MW418818   0.082   2.311   3.807 -0.0615 -0.4281  0.8131
 4762SOL     OW18819   6.072   4.636   4.265  0.1410 -0.3476 -0.1965
 4762SOL    HW218820   6.056   4.545   4.286  1.2989 -0.8149 -1.2160
 4762SOL    HW318821   6.033   4.685   4.337 -1.2840 -1.5942 -0.0749
 4762SOL    MW418822   6.065   4.631   4.277  0.1058 -0.5737 -0.3150
 4763SOL     OW18823   1.437   2.424   1.019  0.1521 -0.0180  0.5490
 4763SOL    HW218824   1.501   2.483   1.059 -1.0143  2.9177 -1.4701
 4763SOL    HW318825   1.358   2.433   1.073  0.4900 -1.1775  1.2546
 4763SOL    MW418826   1.435   2.433   1.031  0.0428  0.2163  0.3757
 4764SOL     OW18827   4.916   3.282   4.223  0.0299  0.1739 -0.2680
 4764SOL    HW218828   4.899   3.311   4.313 -2.2743 -0.0998 -0.5513
 4764SOL    HW318829   4.906   3.360   4.170  0.3128  0.1157 -0.4105
 4764SOL    MW418830   4.913   3.296   4.228 -0.2368  0.1301 -0.3242
 4765SOL     OW18831   1.468   1.863   3.313 -0.5586 -0.3907  0.1386
 4765SOL    HW218832   1.495   1.884   3.403 -0.5071 -0.9423  0.2508
 4765SOL    HW318833   1.388   1.812   3.323  0.0486 -1.4157 -0.0815
 4765SOL    MW418834   1.461   1.859   3.326 -0.4717 -0.5987  0.1244
 4766SOL     OW18835   3.651   6.253   2.145 -0.2141 -0.4116 -0.0357
 4766SOL    HW218836   3.652   6.345   2.120 -0.1435 -0.6676 -1.0040
 4766SOL    HW318837   3.558   6.232   2.158 -0.3749 -0.5956 -1.3520
 4766SOL    MW418838   3.639   6.262   2.144 -0.2260 -0.4696 -0.3371
 4767SOL     OW18839   0.767   1.962   0.177 -0.6791  0.4521  0.2889
 4767SOL    HW218840   0.785   1.910   0.255  0.7055 -0.6575 -0.7236
 4767SOL    HW318841   0.696   2.021   0.204 -1.4128 -1.0446  1.8548
 4767SOL    MW418842   0.760   1.963   0.191 -0.5932  0.1083  0.3619
 4768SOL     OW18843   1.038   6.235   1.236 -0.5738 -0.3131  0.0542
 4768SOL    HW218844   1.089   6.180   1.296 -0.6572  1.0731  1.4548
 4768SOL    HW318845   0.970   6.273   1.291 -0.0990  1.7361 -0.7063
 4768SOL    MW418846   1.036   6.233   1.251 -0.5222  0.1402  0.1387
 4769SOL     OW18847   3.122   2.399   0.013  0.1212  0.4741 -0.6454
 4769SOL    HW218848   3.176   2.333   0.056 -1.1278 -0.6079 -0.6678
 4769SOL    HW318849   3.079   2.445   0.084 -0.6411 -0.1884 -0.6552
 4769SOL    MW418850   3.124   2.396   0.028 -0.1442  0.2439 -0.6497
 4770SOL     OW18851   1.149   5.775   4.863  0.1100 -0.1138 -0.2346
 4770SOL    HW218852   1.128   5.802   4.774  0.3932 -1.4288 -0.7183
 4770SOL    HW318853   1.065   5.755   4.903 -0.0485  0.8236 -0.0712
 4770SOL    MW418854   1.135   5.776   4.857  0.1265 -0.1636 -0.2769
 4771SOL     OW18855   5.778   4.992   0.278 -0.1110 -0.0042  0.7210
 4771SOL    HW218856   5.697   4.942   0.286  0.2238 -0.7014 -0.1473
 4771SOL    HW318857   5.847   4.931   0.304  0.1874  0.4363  0.9809
 4771SOL    MW418858   5.776   4.978   0.283 -0.0275 -0.0380  0.6407
 4772SOL     OW18859   2.026   4.979   0.935 -0.3705  0.4714  0.2508
 4772SOL    HW218860   2.087   5.013   1.000  0.5357 -0.3643 -0.1475
 4772SOL    HW318861   1.954   4.943   0.987  0.9664 -1.4079  0.8830
 4772SOL    MW418862   2.024   4.979   0.950 -0.0746  0.1132  0.2817
 4773SOL     OW18863   2.565   3.869   4.568 -0.6002 -0.3475  0.2883
 4773SOL    HW218864   2.588   3.777   4.574 -1.0346 -0.6850 -2.1418
 4773SOL    HW318865   2.635   3.915   4.615  1.4544 -1.7364 -1.2212
 4773SOL    MW418866   2.577   3.863   4.575 -0.3864 -0.5752 -0.2315
 4774SOL     OW18867   3.725   1.016   3.038 -0.3159 -0.6813  0.5125
 4774SOL    HW218868   3.784   1.010   3.113  1.5624 -0.1774 -0.8408
 4774SOL    HW318869   3.720   1.110   3.020  0.7419 -0.8662 -1.0271
 4774SOL    MW418870   3.732   1.028   3.046  0.0715 -0.6392  0.1308
 4775SOL     OW18871   4.472   2.834   4.799  0.8410 -0.4993  0.5262
 4775SOL    HW218872   4.450   2.914   4.846  0.7244  0.2472 -0.7579
 4775SOL    HW318873   4.563   2.815   4.824  1.3058  0.7618 -0.1582
 4775SOL    MW418874   4.481   2.842   4.809  0.8870 -0.2344  0.2665
 4776SOL     OW18875   4.946   2.480   3.643  0.0004  0.2061  0.9051
 4776SOL    HW218876   5.026   2.440   3.609  0.1665 -0.0129  1.5468
 4776SOL    HW318877   4.883   2.472   3.571 -0.0212 -1.3375  1.0534
 4776SOL    MW418878   4.948   2.474   3.629  0.0195 -0.0264  1.0094
 4777SOL     OW18879   0.703   3.761   4.787 -0.4806  0.7304 -0.0665
 4777SOL    HW218880   0.757   3.831   4.750 -0.8157  1.2593  0.4135
 4777SOL    HW318881   0.760   3.685   4.790 -0.2765  0.8231 -1.1327
 4777SOL    MW418882   0.717   3.760   4.782 -0.4979  0.8124 -0.1438
 4778SOL     OW18883   2.930   3.704   1.289  0.2349 -0.5709  0.2384
 4778SOL    HW218884   2.999   3.771   1.293  1.2534 -1.6095  0.6415
 4778SOL    HW318885   2.975   3.622   1.309 -1.2039 -1.2310  0.9051
 4778SOL    MW418886   2.945   3.702   1.292  0.1794 -0.7950  0.3795
 4779SOL     OW18887   1.842   2.175   3.872  0.1158  0.4573 -0.8813
 4779SOL    HW218888   1.781   2.247   3.892 -0.6433 -0.4516  0.2616
 4779SOL    HW318889   1.824   2.153   3.781  1.7207  2.9402 -1.9025
 4779SOL    MW418890   1.831   2.182   3.863  0.2274  0.6649 -0.8652
 4780SOL     OW18891   3.375   3.938   5.006  0.5048 -0.4553 -0.3069
 4780SOL    HW218892   3.351   3.987   5.085 -0.1194 -0.2698 -0.6019
 4780SOL    HW318893   3.465   3.965   4.987  0.0438  0.8784 -0.6835
 4780SOL    MW418894   3.384   3.948   5.014  0.3616 -0.2548 -0.3955
 4781SOL     OW18895   5.902   0.267   0.715  0.1889 -0.5753 -0.3218
 4781SOL    HW218896   5.847   0.219   0.777 -1.6609  1.3056 -0.4155
 4781SOL    HW318897   5.965   0.314   0.770  0.5783 -1.3353 -0.0992
 4781SOL    MW418898   5.903   0.267   0.731 -0.0038 -0.4274 -0.3048
 4782SOL     OW18899   5.356   2.981   3.594 -0.1033  0.5047 -0.4032
 4782SOL    HW218900   5.402   2.908   3.634 -1.2468 -0.0999 -0.1285
 4782SOL    HW318901   5.265   2.950   3.585 -0.7979  2.1458  0.4526
 4782SOL    MW418902   5.350   2.968   3.598 -0.3458  0.6415 -0.2540
 4783SOL     OW18903   4.137   2.193   6.108 -0.1424  0.3483  0.0594
 4783SOL    HW218904   4.227   2.198   6.076 -0.6348  0.3815 -1.4146
 4783SOL    HW318905   4.145   2.199   6.203  1.3616  0.9570 -0.0675
 4783SOL    MW418906   4.150   2.195   6.116 -0.0090  0.4330 -0.1518
 4784SOL     OW18907   4.516   2.694   0.576  0.5144 -0.1573 -0.8158
 4784SOL    HW218908   4.549   2.749   0.505 -0.7915  1.9895  0.1492
 4784SOL    HW318909   4.421   2.690   0.561  0.4319 -1.1031 -0.1348
 4784SOL    MW418910   4.508   2.701   0.564  0.3312  0.0011 -0.5986
 4785SOL     OW18911   2.109   5.718   4.656 -0.2732 -0.3226  0.4894
 4785SOL    HW218912   2.057   5.796   4.636  0.1557 -0.1559 -0.0317
 4785SOL    HW318913   2.186   5.752   4.702 -0.4353 -0.5197  0.9038
 4785SOL    MW418914   2.113   5.733   4.659 -0.2380 -0.3266  0.4753
 4786SOL     OW18915   2.333   5.443   5.996 -0.3018 -0.0352 -0.7037
 4786SOL    HW218916   2.394   5.372   5.978 -1.6572 -1.0794 -1.4069
 4786SOL    HW318917   2.289   5.458   5.912 -2.7854 -1.1071  0.2977
 4786SOL    MW418918   2.335   5.435   5.982 -0.8083 -0.3144 -0.6643
 4787SOL     OW18919   3.086   2.344   2.662  0.4404 -0.6897 -0.0961
 4787SOL    HW218920   2.992   2.362   2.651  0.7676  0.3564 -1.4554
 4787SOL    HW318921   3.125   2.372   2.579  2.3406  1.6944  1.4854
 4787SOL    MW418922   3.079   2.350   2.649  0.7343 -0.2371 -0.0668
 4788SOL     OW18923   5.535   0.261   2.047 -0.6338 -0.0179 -0.1567
 4788SOL    HW218924   5.565   0.296   2.131 -0.9421  1.1733 -0.5154
 4788SOL    HW318925   5.563   0.326   1.982 -1.0772 -0.5298 -0.8837
 4788SOL    MW418926   5.542   0.274   2.049 -0.7330  0.0717 -0.3000
 4789SOL     OW18927   4.491   2.910   2.193  0.4036 -0.5309  0.2818
 4789SOL    HW218928   4.436   2.911   2.114 -0.0137  1.3118  0.5504
 4789SOL    HW318929   4.504   2.817   2.211 -1.1687 -1.0211 -0.8102
 4789SOL    MW418930   4.485   2.898   2.185  0.1411 -0.3524  0.1732
 4790SOL     OW18931   5.313   4.915   6.359 -0.1307 -0.4659  0.6986
 4790SOL    HW218932   5.239   4.952   6.408  0.0280 -0.0939  0.6634
 4790SOL    HW318933   5.278   4.835   6.319 -0.5808 -0.1626  0.4791
 4790SOL    MW418934   5.298   4.909   6.360 -0.1691 -0.3768  0.6650
 4791SOL     OW18935   0.368   0.487   4.321 -0.1361  0.1654 -0.6115
 4791SOL    HW218936   0.436   0.474   4.254 -0.7513  1.2945 -1.4887
 4791SOL    HW318937   0.298   0.426   4.296  1.0940 -2.1289  1.1627
 4791SOL    MW418938   0.368   0.477   4.309 -0.0550  0.0117 -0.4931
 4792SOL     OW18939   1.633   0.866   2.294  0.1131 -0.1305 -0.4001
 4792SOL    HW218940   1.647   0.772   2.305 -1.0103 -0.4994 -1.8015
 4792SOL    HW318941   1.595   0.894   2.377  0.0993 -0.9988 -0.1020
 4792SOL    MW418942   1.630   0.857   2.306 -0.0369 -0.2937 -0.5457
 4793SOL     OW18943   1.529   5.767   6.391 -0.4585 -0.0769 -0.1069
 4793SOL    HW218944   1.525   5.861   6.372 -0.1861  0.4996  2.3393
 4793SOL    HW318945   1.539   5.726   6.306  1.5904  2.2635 -1.1262
 4793SOL    MW418946   1.530   5.774   6.378 -0.1523  0.3079  0.0813
 4794SOL     OW18947   1.786   6.465   2.413 -0.3202 -0.2203 -0.1270
 4794SOL    HW218948   1.770   6.378   2.450  0.2349 -0.6397 -0.8541
 4794SOL    HW318949   1.844   6.449   2.339 -1.3658  0.6076 -1.1602
 4794SOL    MW418950   1.792   6.451   2.408 -0.3849 -0.1664 -0.3592
 4795SOL     OW18951   6.277   0.141   3.555 -0.0317  0.3530  0.0847
 4795SOL    HW218952   6.230   0.136   3.638  0.9799  0.5933  0.6860
 4795SOL    HW318953   6.234   0.076   3.499 -0.3920 -0.1790  0.9620
 4795SOL    MW418954   6.265   0.132   3.559  0.0542  0.3145  0.2798
 4796SOL     OW18955   6.350   6.165   2.989  0.7885 -0.8294 -0.1990
 4796SOL    HW218956   6.362   6.197   2.899  0.7826  1.1162  0.4369
 4796SOL    HW318957   6.357   6.244   3.043 -0.3649 -1.7910  1.4269
 4796SOL    MW418958   6.353   6.180   2.984  0.6355 -0.6996  0.0994
 4797SOL     OW18959   4.467   1.982   2.973 -0.5588 -0.4001 -0.0577
 4797SOL    HW218960   4.541   1.971   3.033 -1.2915  0.8884  1.1396
 4797SOL    HW318961   4.506   1.977   2.886  1.5089  3.1245  0.4679
 4797SOL    MW418962   4.482   1.979   2.969 -0.3827  0.2349  0.1696
 4798SOL     OW18963   6.065   6.330   0.574 -0.3904 -0.3660  0.3621
 4798SOL    HW218964   6.098   6.242   0.558 -0.7309 -0.8012  1.9145
 4798SOL    HW318965   6.144   6.382   0.588 -0.2464 -0.7546  1.0054
 4798SOL    MW418966   6.080   6.325   0.573 -0.4163 -0.4747  0.6518
 4799SOL     OW18967   5.134   2.435   2.267  0.8226 -0.3993  0.1154
 4799SOL    HW218968   5.129   2.511   2.209 -0.7638  1.6584  2.7207
 4799SOL    HW318969   5.204   2.456   2.329 -1.5306  0.4868  2.6817
 4799SOL    MW418970   5.143   2.447   2.268  0.3028 -0.0109  0.7977
 4800SOL     OW18971   1.582   3.405   6.124 -0.1229  0.8842 -0.0873
 4800SOL    HW218972   1.599   3.500   6.126  1.5124  0.6186  0.2242
 4800SOL    HW318973   1.661   3.368   6.085 -0.5667 -0.3924  0.2019
 4800SOL    MW418974   1.595   3.413   6.119  0.0343  0.6807 -0.0080
 4801SOL     OW18975   2.875   0.845   5.142  0.0803 -0.3172  0.2518
 4801SOL    HW218976   2.844   0.821   5.229  2.1389  0.9546  1.4093
 4801SOL    HW318977   2.840   0.776   5.084 -2.5510 -0.3874  1.7818
 4801SOL    MW418978   2.866   0.833   5.146  0.0047 -0.1586  0.6064
 4802SOL     OW18979   3.731   5.557   1.417 -0.1418 -0.5973  0.1084
 4802SOL    HW218980   3.779   5.496   1.474 -0.7840 -1.0747  0.1516
 4802SOL    HW318981   3.770   5.642   1.435  0.4471 -0.9202  0.4081
 4802SOL    MW418982   3.743   5.560   1.427 -0.1489 -0.7029  0.1536
 4803SOL     OW18983   0.414   0.832   4.578  0.3457  0.0449 -0.3924
 4803SOL    HW218984   0.418   0.750   4.629  0.5691  0.5417  0.4082
 4803SOL    HW318985   0.498   0.836   4.532  1.2883  0.9020  1.3072
 4803SOL    MW418986   0.425   0.821   4.579  0.4995  0.2236 -0.0625
 4804SOL     OW18987   6.000   6.140   3.888  0.4295  0.1362  0.4369
 4804SOL    HW218988   6.040   6.214   3.933 -0.5409  0.0401  1.4908
 4804SOL    HW318989   6.009   6.161   3.795 -0.9028  2.1751  0.7086
 4804SOL    MW418990   6.007   6.153   3.881  0.1257  0.3926  0.6118
 4805SOL     OW18991   5.901   1.150   4.685  0.2978 -0.4679 -0.2146
 4805SOL    HW218992   5.890   1.154   4.780 -1.0291 -1.1666 -0.3100
 4805SOL    HW318993   5.947   1.230   4.662  0.4498 -0.1996  1.0017
 4805SOL    MW418994   5.905   1.161   4.694  0.1428 -0.5247 -0.0667
 4806SOL     OW18995   1.348   5.208   3.409 -0.0740  0.4739  1.0586
 4806SOL    HW218996   1.354   5.248   3.322 -3.0541  1.0598  1.0257
 4806SOL    HW318997   1.357   5.114   3.392 -0.8307  0.5565  0.0468
 4806SOL    MW418998   1.350   5.201   3.395 -0.5671  0.5621  0.9207
 4807SOL     OW18999   3.428   2.817   0.525 -0.0915 -0.0895 -0.6164
 4807SOL    HW219000   3.498   2.770   0.480  0.7434  1.7405 -1.3403
 4807SOL    HW319001   3.470   2.853   0.603  0.0734  1.7419 -1.4918
 4807SOL    MW419002   3.443   2.815   0.529  0.0404  0.3936 -0.8274
 4808SOL     OW19003   3.700   3.506   3.210  0.2796  0.3533  0.2710
 4808SOL    HW219004   3.654   3.452   3.146 -1.0312  0.6784  0.9219
 4808SOL    HW319005   3.631   3.550   3.259  1.2896  1.0322  1.1220
 4808SOL    MW419006   3.685   3.505   3.208  0.2399  0.4858  0.4692
 4809SOL     OW19007   2.456   4.639   6.396  0.3720  0.7479 -0.4076
 4809SOL    HW219008   2.433   4.647   6.304  1.3666  0.9635 -0.6465
 4809SOL    HW319009   2.426   4.721   6.435  0.1746  0.7595 -0.5794
 4809SOL    MW419010   2.449   4.651   6.389  0.4772  0.7779 -0.4618
 4810SOL     OW19011   2.262   3.190   6.105  0.1293  0.6770  0.4908
 4810SOL    HW219012   2.338   3.248   6.103 -0.2922  1.2716  1.3288
 4810SOL    HW319013   2.298   3.104   6.127  0.7854  0.5478 -0.9631
 4810SOL    MW419014   2.277   3.186   6.107  0.1603  0.7384  0.4095
 4811SOL     OW19015   3.421   0.234   0.172  0.4304  0.0543  0.6709
 4811SOL    HW219016   3.517   0.230   0.164  0.4858 -0.7421  1.6130
 4811SOL    HW319017   3.406   0.264   0.261 -0.2112 -1.3184  1.0343
 4811SOL    MW419018   3.432   0.238   0.182  0.3531 -0.2319  0.8431
 4812SOL     OW19019   1.021   3.465   2.141  0.0151 -0.6105  0.0344
 4812SOL    HW219020   1.006   3.382   2.184  0.6979 -1.1263 -0.6872
 4812SOL    HW319021   1.082   3.445   2.070  1.5249  0.7960  0.8622
 4812SOL    MW419022   1.027   3.452   2.137  0.3044 -0.4930  0.0484
 4813SOL     OW19023   3.526   5.102   1.820 -0.4251 -0.7227  0.4524
 4813SOL    HW219024   3.513   5.165   1.891 -2.4878 -0.2461 -0.2728
 4813SOL    HW319025   3.611   5.125   1.783 -1.8278  2.9284 -0.9498
 4813SOL    MW419026   3.536   5.113   1.825 -0.8823 -0.1781  0.1717
 4814SOL     OW19027   3.735   6.067   0.892 -1.0952  0.4769  0.4270
 4814SOL    HW219028   3.662   6.094   0.948 -2.1713 -1.7534  0.1970
 4814SOL    HW319029   3.694   6.042   0.810 -0.1754 -1.4469  0.5138
 4814SOL    MW419030   3.720   6.068   0.889 -1.1158 -0.0712  0.4081
 4815SOL     OW19031   0.967   3.823   5.912  0.2012 -0.7972  0.6159
 4815SOL    HW219032   1.035   3.873   5.867  0.1589 -0.6948  0.6643
 4815SOL    HW319033   0.960   3.865   5.998 -1.2762  0.4527 -0.0602
 4815SOL    MW419034   0.975   3.835   5.918  0.0007 -0.6188  0.5331
 4816SOL     OW19035   6.177   0.134   3.071 -0.3219 -0.2840  0.1807
 4816SOL    HW219036   6.203   0.226   3.067  1.7334 -0.8646 -1.4659
 4816SOL    HW319037   6.154   0.112   2.980  0.8043 -1.7852  0.2175
 4816SOL    MW419038   6.177   0.143   3.058  0.0979 -0.5587 -0.0317
 4817SOL     OW19039   1.280   3.270   3.395  0.3658 -0.4157  0.1237
 4817SOL    HW219040   1.337   3.266   3.472  0.2333  0.9450  0.3159
 4817SOL    HW319041   1.324   3.218   3.329  1.1838 -0.4469  0.6820
 4817SOL    MW419042   1.293   3.263   3.397  0.4562 -0.2403  0.2227
 4818SOL     OW19043   5.856   6.203   2.089  0.2910  0.3463  0.2034
 4818SOL    HW219044   5.827   6.164   2.172  0.4865  1.0591  0.6137
 4818SOL    HW319045   5.792   6.171   2.025  0.1864 -0.2799  0.6092
 4818SOL    MW419046   5.843   6.193   2.091  0.3030  0.3578  0.3111
 4819SOL     OW19047   5.995   3.286   3.661  0.0157 -0.2010 -0.3508
 4819SOL    HW219048   6.031   3.260   3.746 -1.8826 -2.1217 -0.0142
 4819SOL    HW319049   6.068   3.325   3.614  1.4069 -0.1155  1.7511
 4819SOL    MW419050   6.009   3.287   3.666 -0.0512 -0.4431 -0.0290
 4820SOL     OW19051   2.365   2.522   5.735 -0.0930 -0.0805  0.1277
 4820SOL    HW219052   2.413   2.475   5.667 -0.9529  1.7055 -1.8208
 4820SOL    HW319053   2.409   2.608   5.741  0.7045 -0.5729  2.7446
 4820SOL    MW419054   2.377   2.527   5.727 -0.1013  0.0902  0.2158
 4821SOL     OW19055   1.205   3.485   3.809 -0.8438  0.6853 -1.1415
 4821SOL    HW219056   1.196   3.566   3.858 -0.5349 -0.2564  0.5414
 4821SOL    HW319057   1.115   3.460   3.787 -1.0265  0.8289 -0.5587
 4821SOL    MW419058   1.192   3.492   3.812 -0.8272  0.5800 -0.8426
 4822SOL     OW19059   5.754   5.828   1.719 -0.3363  0.2095  0.0861
 4822SOL    HW219060   5.694   5.811   1.646 -1.8628  0.7188  1.1632
 4822SOL    HW319061   5.836   5.787   1.693 -1.4996 -1.6015 -0.9457
 4822SOL    MW419062   5.757   5.820   1.706 -0.6911  0.0378  0.0921
 4823SOL     OW19063   1.638   3.761   2.898 -0.1752 -0.1480 -0.0452
 4823SOL    HW219064   1.685   3.698   2.843  0.0338  0.6988 -0.8512
 4823SOL    HW319065   1.671   3.744   2.986 -0.0706 -1.1211 -0.2586
 4823SOL    MW419066   1.649   3.750   2.902 -0.1338 -0.1646 -0.1797
 4824SOL     OW19067   5.232   2.476   0.302  0.1617  0.5452  0.0995
 4824SOL    HW219068   5.156   2.431   0.266  0.4207  1.2492 -1.4149
 4824SOL    HW319069   5.220   2.568   0.279  1.5045  0.6563 -0.2872
 4824SOL    MW419070   5.221   2.482   0.294  0.3730  0.6528 -0.1513
 4825SOL     OW19071   2.102   3.180   5.856 -0.0476 -0.3999 -0.1900
 4825SOL    HW219072   2.126   3.191   5.948  0.5396  0.3574 -0.4262
 4825SOL    HW319073   2.080   3.087   5.848 -1.0914 -0.2732  0.9347
 4825SOL    MW419074   2.102   3.169   5.867 -0.1078 -0.2833 -0.0728
 4826SOL     OW19075   0.348   3.787   0.906 -0.4135 -0.2895 -0.3860
 4826SOL    HW219076   0.358   3.730   0.830 -0.5130  0.5893 -1.0699
 4826SOL    HW319077   0.258   3.820   0.900 -1.1880 -1.8947  1.3239
 4826SOL    MW419078   0.337   3.784   0.896 -0.5288 -0.3854 -0.2506
 4827SOL     OW19079   3.155   6.342   1.364  0.6214 -0.0623 -0.4510
 4827SOL    HW219080   3.096   6.328   1.438  1.0959  1.8081  0.3518
 4827SOL    HW319081   3.099   6.334   1.287 -0.5976  1.1384  0.2675
 4827SOL    MW419082   3.139   6.339   1.364  0.5232  0.3429 -0.2503
 4828SOL     OW19083   3.820   3.672   5.737  0.1423 -0.2060 -0.1704
 4828SOL    HW219084   3.799   3.647   5.828 -0.7807 -0.7372 -0.5146
 4828SOL    HW319085   3.789   3.762   5.729  0.8555  0.0820  0.2390
 4828SOL    MW419086   3.813   3.680   5.748  0.1146 -0.2381 -0.1618
 4829SOL     OW19087   0.218   2.066   3.503 -0.1586 -0.2073 -0.1887
 4829SOL    HW219088   0.140   2.100   3.459  0.4374 -1.2533 -2.1650
 4829SOL    HW319089   0.188   1.987   3.549 -0.4188 -0.1511 -0.2629
 4829SOL    MW419090   0.204   2.060   3.504 -0.1143 -0.3379 -0.4593
 4830SOL     OW19091   4.053   2.598   3.490 -0.0521 -0.2433  0.3252
 4830SOL    HW219092   3.974   2.578   3.439  0.5414 -0.5452 -0.4945
 4830SOL    HW319093   4.123   2.599   3.425  0.8703 -1.4934  1.2656
 4830SOL    MW419094   4.051   2.596   3.474  0.1479 -0.4481  0.3412
 4831SOL     OW19095   2.731   1.499   2.496 -0.0242  0.2803  0.2728
 4831SOL    HW219096   2.772   1.447   2.565 -2.4647 -0.7366  1.0436
 4831SOL    HW319097   2.742   1.446   2.417  1.0205  0.5167  0.2432
 4831SOL    MW419098   2.738   1.485   2.494 -0.2084  0.1773  0.3706
 4832SOL     OW19099   3.138   1.081   3.046  0.1288 -0.3973  0.2024
 4832SOL    HW219100   3.098   1.002   3.011 -2.9190  1.6355 -1.3786
 4832SOL    HW319101   3.228   1.080   3.013 -0.1504 -2.6601 -0.6161
 4832SOL    MW419102   3.145   1.071   3.037 -0.3102 -0.4276 -0.1142
 4833SOL     OW19103   3.254   3.135   1.454 -0.3503 -0.1602 -0.2560
 4833SOL    HW219104   3.217   3.167   1.372 -0.0606  0.1059 -0.2850
 4833SOL    HW319105   3.330   3.192   1.470 -2.3778  2.1720  1.9901
 4833SOL    MW419106   3.259   3.147   1.445 -0.5796  0.1826  0.0365
 4834SOL     OW19107   3.706   2.144   4.159  0.3928 -0.2237  0.7766
 4834SOL    HW219108   3.643   2.099   4.103  1.5331 -0.1391 -0.6460
 4834SOL    HW319109   3.662   2.226   4.183 -0.4625 -0.6640  0.7651
 4834SOL    MW419110   3.692   2.149   4.155  0.4304 -0.2706  0.5874
 4835SOL     OW19111   2.985   6.196   4.459 -0.2551  0.1828 -0.1051
 4835SOL    HW219112   2.938   6.172   4.538 -0.8118  1.2319 -0.0970
 4835SOL    HW319113   3.067   6.234   4.490 -1.3225  2.5066  0.1252
 4835SOL    MW419114   2.989   6.198   4.473 -0.4694  0.6278 -0.0737
 4836SOL     OW19115   5.587   5.107   4.735 -0.3064  0.0534  0.2496
 4836SOL    HW219116   5.579   5.197   4.768 -1.0842 -0.0389  0.3482
 4836SOL    HW319117   5.660   5.069   4.782 -0.1826  0.5362  0.4471
 4836SOL    MW419118   5.595   5.114   4.745 -0.3927  0.1049  0.2887
 4837SOL     OW19119   3.816   1.225   0.112  0.6912  0.3977  0.9702
 4837SOL    HW219120   3.797   1.144   0.064  0.1589  2.2347 -2.1935
 4837SOL    HW319121   3.912   1.226   0.119  0.9151  0.6968 -1.3936
 4837SOL    MW419122   3.827   1.214   0.106  0.6505  0.6796  0.2409
 4838SOL     OW19123   2.649   1.680   0.921 -0.0520  0.2134  0.1490
 4838SOL    HW219124   2.636   1.745   0.852  1.5740  0.6819  0.2419
 4838SOL    HW319125   2.604   1.717   0.997  0.6625  1.1705  0.1410
 4838SOL    MW419126   2.642   1.694   0.922  0.2568  0.4015  0.1602
 4839SOL     OW19127   5.224   5.166   5.783 -0.8279 -0.2002  0.4377
 4839SOL    HW219128   5.198   5.209   5.702 -1.1177  0.7283  1.0174
 4839SOL    HW319129   5.284   5.097   5.755 -0.1142  0.7661 -0.4889
 4839SOL    MW419130   5.228   5.162   5.769 -0.7720  0.0498  0.3919
 4840SOL     OW19131   4.120   5.568   3.287 -0.1502  0.4301 -0.1655
 4840SOL    HW219132   4.128   5.473   3.280 -0.1480  0.4482 -0.4082
 4840SOL    HW319133   4.090   5.583   3.377 -1.0953  0.1383 -0.4205
 4840SOL    MW419134   4.117   5.557   3.298 -0.2746  0.3940 -0.2312
 4841SOL     OW19135   2.517   2.495   0.452 -0.0636  0.0565  0.0346
 4841SOL    HW219136   2.524   2.488   0.357  0.6659 -0.4143  0.1097
 4841SOL    HW319137   2.558   2.579   0.473  0.8830 -0.3902  0.0268
 4841SOL    MW419138   2.524   2.505   0.442  0.1576 -0.0645  0.0435
 4842SOL     OW19139   4.801   5.534   2.759  0.4798  0.6216 -0.3518
 4842SOL    HW219140   4.763   5.594   2.823  0.4551 -0.2447  0.4780
 4842SOL    HW319141   4.877   5.497   2.804  0.5431  0.1084 -0.8739
 4842SOL    MW419142   4.806   5.537   2.773  0.4849  0.4396 -0.3112
 4843SOL     OW19143   3.771   5.934   0.019  0.6566  0.2412  0.2284
 4843SOL    HW219144   3.704   5.870  -0.005  0.9179 -0.2094  0.6910
 4843SOL    HW319145   3.783   5.923   0.113  0.9130  0.7726  0.2645
 4843SOL    MW419146   3.764   5.924   0.028  0.7249  0.2518  0.2942
 4844SOL     OW19147   0.086   0.733   5.987  0.6020  0.2121 -0.1254
 4844SOL    HW219148   0.094   0.639   5.970  0.0232 -0.3343  2.2361
 4844SOL    HW319149   0.164   0.771   5.947  1.7215 -1.5020  0.3286
 4844SOL    MW419150   0.097   0.726   5.979  0.6734 -0.0861  0.2461
 4845SOL     OW19151   2.597   0.810   4.544 -0.0718 -0.1121 -0.1376
 4845SOL    HW219152   2.636   0.837   4.461 -0.9311 -1.6086 -1.0733
 4845SOL    HW319153   2.593   0.715   4.539  0.1086 -0.2594  1.7576
 4845SOL    MW419154   2.602   0.801   4.532 -0.1614 -0.3290 -0.0110
 4846SOL     OW19155   1.659   5.757   0.872  0.4434 -0.5994 -0.0112
 4846SOL    HW219156   1.753   5.744   0.885  0.9249  1.1749 -1.4336
 4846SOL    HW319157   1.634   5.686   0.813  1.3045 -0.0562 -1.0841
 4846SOL    MW419158   1.668   5.746   0.866  0.6205 -0.2936 -0.3404
 4847SOL     OW19159   1.634   1.074   6.300  0.1642 -0.6575  0.3292
 4847SOL    HW219160   1.591   1.158   6.286 -1.1031 -1.5949 -1.7846
 4847SOL    HW319161   1.720   1.097   6.336 -1.3682  1.3558  3.1375
 4847SOL    MW419162   1.640   1.088   6.303 -0.2052 -0.5155  0.4208
 4848SOL     OW19163   5.462   4.814   1.442  0.3539  0.0731 -0.0135
 4848SOL    HW219164   5.431   4.780   1.358  2.0656  0.4496 -0.8284
 4848SOL    HW319165   5.491   4.736   1.490 -0.6684 -0.1458  0.2809
 4848SOL    MW419166   5.461   4.799   1.437  0.4448  0.0939 -0.0822
 4849SOL     OW19167   0.911   4.135   2.740 -0.4188  0.3195 -0.0388
 4849SOL    HW219168   0.835   4.192   2.753 -0.1944  0.4713  0.6729
 4849SOL    HW319169   0.982   4.178   2.787 -0.6048 -1.2942  1.8807
 4849SOL    MW419170   0.910   4.148   2.748 -0.4138  0.1267  0.3084
 4850SOL     OW19171   0.767   2.551   4.026  0.3587 -0.7925 -0.2845
 4850SOL    HW219172   0.770   2.466   4.071  1.8581  0.2713  1.8148
 4850SOL    HW319173   0.699   2.540   3.960  1.6514 -4.1613 -1.2933
 4850SOL    MW419174   0.758   2.538   4.023  0.7271 -1.0966 -0.1406
 4851SOL     OW19175   4.802   0.554   4.937 -0.4938 -0.8848 -0.0619
 4851SOL    HW219176   4.842   0.611   5.002 -1.2972  0.7602 -0.9526
 4851SOL    HW319177   4.797   0.468   4.980 -0.4181 -0.0109  1.7836
 4851SOL    MW419178   4.806   0.550   4.951 -0.5898 -0.5524  0.0641
 4852SOL     OW19179   1.452   3.105   5.761  0.3561 -0.0056  0.7287
 4852SOL    HW219180   1.424   3.193   5.783 -1.5759 -0.8053  1.7157
 4852SOL    HW319181   1.528   3.089   5.817  0.7099  1.0136  0.5468
 4852SOL    MW419182   1.458   3.114   5.771  0.1479  0.0234  0.8349
 4853SOL     OW19183   5.132   2.675   2.105  0.2646 -0.0548  0.2983
 4853SOL    HW219184   5.126   2.643   2.015 -0.0825  1.4643 -0.2574
 4853SOL    HW319185   5.220   2.712   2.112 -0.1881  1.1393  0.0768
 4853SOL    MW419186   5.143   2.676   2.094  0.1591  0.3032  0.1958
 4854SOL     OW19187   0.055   4.510   3.424 -0.3761 -0.3839  0.7025
 4854SOL    HW219188   0.148   4.519   3.443 -0.4873 -0.6534  1.3923
 4854SOL    HW319189   0.044   4.419   3.398 -0.4465 -0.3513  0.6153
 4854SOL    MW419190   0.066   4.499   3.423 -0.4000 -0.4152  0.7820
 4855SOL     OW19191   4.298   3.316   3.958  0.0169 -0.3020  0.1293
 4855SOL    HW219192   4.234   3.334   3.889  0.6519 -0.4649 -0.5102
 4855SOL    HW319193   4.268   3.233   3.996 -0.3083 -0.2355  0.0276
 4855SOL    MW419194   4.285   3.307   3.954  0.0577 -0.3147  0.0315
 4856SOL     OW19195   0.065   5.719   3.456 -0.0345 -0.5016  0.4607
 4856SOL    HW219196   0.123   5.681   3.523 -0.2329 -0.3303  0.7331
 4856SOL    HW319197   0.031   5.799   3.497  0.9482  0.3743 -0.3662
 4856SOL    MW419198   0.068   5.725   3.470  0.0690 -0.3635  0.3876
 4857SOL     OW19199   2.865   5.154   2.432  0.2042 -0.1945  0.0884
 4857SOL    HW219200   2.851   5.248   2.420 -0.0187 -0.0705  1.1940
 4857SOL    HW319201   2.919   5.128   2.358  2.2768  1.2854  0.9808
 4857SOL    MW419202   2.870   5.163   2.421  0.4483  0.0171  0.3520
 4858SOL     OW19203   3.069   5.964   1.145  0.0088  0.3052 -0.6555
 4858SOL    HW219204   3.089   5.935   1.234 -1.3559 -2.2428 -1.0488
 4858SOL    HW319205   3.145   5.939   1.093 -0.5557 -1.4261 -0.7216
 4858SOL    MW419206   3.081   5.957   1.150 -0.2457 -0.2594 -0.7161
 4859SOL     OW19207   1.944   3.343   5.663  0.2099  0.7518 -0.3351
 4859SOL    HW219208   1.862   3.304   5.631  0.7146 -0.6285 -0.0201
 4859SOL    HW319209   1.963   3.294   5.743  0.6336  1.9969  0.3442
 4859SOL    MW419210   1.935   3.331   5.669  0.3324  0.7339 -0.2039
 4860SOL     OW19211   0.197   4.391   5.113  0.1999 -0.2779  0.1606
 4860SOL    HW219212   0.266   4.329   5.088  0.9551  1.0040 -1.0859
 4860SOL    HW319213   0.241   4.457   5.166 -0.5502 -0.6477  1.2844
 4860SOL    MW419214   0.212   4.391   5.117  0.2006 -0.1575  0.1444
 4861SOL     OW19215   0.570   6.375   5.357  0.0719  0.3147 -0.1394
 4861SOL    HW219216   0.538   6.458   5.393  1.9044  0.6377  0.8567
 4861SOL    HW319217   0.629   6.341   5.424  1.6219 -0.3534 -1.7700
 4861SOL    MW419218   0.573   6.381   5.371  0.5182  0.2692 -0.2231
 4862SOL     OW19219   5.283   1.570   2.666  0.6223  0.0551  0.5553
 4862SOL    HW219220   5.238   1.652   2.687 -0.2661 -0.4177  0.5310
 4862SOL    HW319221   5.213   1.504   2.663  1.1167 -0.4403 -0.8815
 4862SOL    MW419222   5.268   1.572   2.668  0.5703 -0.0726  0.3625
 4863SOL     OW19223   0.701   2.571   0.206 -0.2949 -0.8410 -0.0319
 4863SOL    HW219224   0.731   2.639   0.266 -0.8107 -0.7952  0.1771
 4863SOL    HW319225   0.641   2.616   0.146  0.2170 -0.8852 -0.5870
 4863SOL    MW419226   0.697   2.586   0.206 -0.2954 -0.8408 -0.0776
 4864SOL     OW19227   3.000   1.066   5.849  0.1028 -0.1342  0.2425
 4864SOL    HW219228   2.964   1.046   5.934 -0.8814  2.5877  0.5683
 4864SOL    HW319229   2.924   1.080   5.792  0.6569  1.0644 -0.2575
 4864SOL    MW419230   2.986   1.065   5.852  0.0461  0.3830  0.2195
 4865SOL     OW19231   1.062   3.605   0.774  0.2224 -0.0020 -0.2853
 4865SOL    HW219232   1.084   3.643   0.689 -2.6916  1.5069 -0.4797
 4865SOL    HW319233   0.979   3.561   0.760 -0.9931  1.3521  1.9908
 4865SOL    MW419234   1.054   3.604   0.761 -0.3224  0.3757 -0.0106
 4866SOL     OW19235   0.074   1.499   5.290 -0.3403 -0.5925 -0.0595
 4866SOL    HW219236   0.113   1.414   5.310 -1.9767 -1.1972  0.7119
 4866SOL    HW319237   0.145   1.548   5.248  0.8221 -2.1040  0.0387
 4866SOL    MW419238   0.088   1.494   5.288 -0.4028 -0.8717  0.0552
 4867SOL     OW19239   4.921   4.504   5.775 -0.3701  0.1693  0.2568
 4867SOL    HW219240   4.875   4.501   5.859 -1.0730  0.2796 -0.1191
 4867SOL    HW319241   4.855   4.532   5.712  0.7626  2.6684  0.0692
 4867SOL    MW419242   4.907   4.507   5.778 -0.3134  0.5136  0.1824
 4868SOL     OW19243   2.502   5.952   0.564  0.2105  0.1183  0.1274
 4868SOL    HW219244   2.580   5.945   0.509  1.1372 -0.2865  1.4631
 4868SOL    HW319245   2.430   5.928   0.505  1.1913 -0.5164 -0.8612
 4868SOL    MW419246   2.503   5.948   0.549  0.4622 -0.0189  0.1732
 4869SOL     OW19247   3.295   1.128   4.301  0.1331 -0.6948  0.3403
 4869SOL    HW219248   3.318   1.044   4.339 -1.6200 -0.2897  2.5021
 4869SOL    HW319249   3.200   1.124   4.289  0.1131  0.7074 -0.1748
 4869SOL    MW419250   3.285   1.116   4.305 -0.1009 -0.4563  0.5575
 4870SOL     OW19251   3.322   0.367   5.383 -0.0641  0.1465 -0.4086
 4870SOL    HW219252   3.361   0.284   5.357  2.0503  0.5451  1.2099
 4870SOL    HW319253   3.274   0.346   5.463 -3.0700 -0.2616 -2.1838
 4870SOL    MW419254   3.321   0.353   5.391 -0.1817  0.1453 -0.4293
 4871SOL     OW19255   3.917   0.524   2.377  0.0500  0.1558  0.1422
 4871SOL    HW219256   3.864   0.445   2.381 -0.2006  0.3569  3.5239
 4871SOL    HW319257   3.856   0.592   2.350 -0.4758 -0.2939  0.1755
 4871SOL    MW419258   3.902   0.523   2.374 -0.0524  0.1230  0.5928
 4872SOL     OW19259   2.189   4.242   1.371  0.0295  0.2806  0.2111
 4872SOL    HW219260   2.196   4.148   1.356  0.8775  0.6130 -1.7368
 4872SOL    HW319261   2.261   4.262   1.431  1.0666 -0.0504 -0.8807
 4872SOL    MW419262   2.199   4.232   1.377  0.2782  0.2808 -0.1899
 4873SOL     OW19263   5.908   2.617   1.456 -0.0648  0.4143  0.1512
 4873SOL    HW219264   5.941   2.686   1.399  0.5411 -1.5940 -2.1029
 4873SOL    HW319265   5.816   2.609   1.434  0.6166 -1.8456 -2.3861
 4873SOL    MW419266   5.901   2.625   1.446  0.1050 -0.1488 -0.4809
 4874SOL     OW19267   3.800   2.795   1.978  0.1906  0.1453  0.2455
 4874SOL    HW219268   3.894   2.813   1.973  0.1365  0.6079  0.7834
 4874SOL    HW319269   3.773   2.782   1.887  0.9458 -0.9284  0.1550
 4874SOL    MW419270   3.808   2.796   1.965  0.2831  0.0647  0.3045
 4875SOL     OW19271   2.737   5.719   1.601  0.3794  0.3383  0.1702
 4875SOL    HW219272   2.713   5.795   1.547  0.3719 -0.2930 -0.7440
 4875SOL    HW319273   2.688   5.647   1.563  1.1148 -0.3094  0.4338
 4875SOL    MW419274   2.727   5.720   1.589  0.4754  0.1696  0.0843
 4876SOL     OW19275   2.050   2.892   2.806  0.1241  0.2544 -0.2223
 4876SOL    HW219276   2.123   2.943   2.770  0.7515  1.4809  2.5367
 4876SOL    HW319277   1.972   2.930   2.764  0.7538  2.0867  0.1791
 4876SOL    MW419278   2.049   2.904   2.795  0.2900  0.6580  0.1946
 4877SOL     OW19279   5.723   3.410   4.666  0.1148 -0.1441  0.4388
 4877SOL    HW219280   5.750   3.501   4.660 -0.3894  0.0040  0.3353
 4877SOL    HW319281   5.782   3.364   4.606 -1.0933  0.4610 -1.3095
 4877SOL    MW419282   5.734   3.416   4.657 -0.1111 -0.0447  0.1945
 4878SOL     OW19283   1.241   2.114   3.912 -0.0003 -0.1427 -0.2244
 4878SOL    HW219284   1.307   2.178   3.886 -1.0434  0.6396 -1.0758
 4878SOL    HW319285   1.254   2.103   4.007  1.2066  0.1239 -0.3456
 4878SOL    MW419286   1.251   2.121   3.921  0.0213 -0.0043 -0.3527
 4879SOL     OW19287   3.964   2.012   4.225  0.2139  0.1712  0.2770
 4879SOL    HW219288   3.874   2.043   4.222 -0.2828 -1.2649 -0.7965
 4879SOL    HW319289   3.962   1.937   4.285  1.2712  1.6907  2.3696
 4879SOL    MW419290   3.952   2.006   4.233  0.2879  0.1822  0.4115
 4880SOL     OW19291   2.124   0.823   1.708 -0.0921  0.1562  0.3235
 4880SOL    HW219292   2.122   0.869   1.792 -0.0868  0.4579  0.1599
 4880SOL    HW319293   2.034   0.794   1.694 -0.4492  1.5084 -0.3307
 4880SOL    MW419294   2.112   0.825   1.717 -0.1385  0.3744  0.2156
 4881SOL     OW19295   5.260   3.388   4.520  0.1040  0.5925  0.3534
 4881SOL    HW219296   5.338   3.405   4.573 -1.1241  2.4545  1.7107
 4881SOL    HW319297   5.247   3.468   4.469 -1.1886  0.5462  0.5655
 4881SOL    MW419298   5.269   3.401   4.521 -0.2286  0.8320  0.5604
 4882SOL     OW19299   5.618   5.323   4.507 -0.6395 -0.0070  0.7065
 4882SOL    HW219300   5.612   5.227   4.506  1.7070 -0.2379 -1.8839
 4882SOL    HW319301   5.697   5.341   4.558  1.6658  0.1499 -2.6508
 4882SOL    MW419302   5.628   5.312   4.514 -0.0258 -0.0168 -0.0782
 4883SOL     OW19303   2.291   5.441   0.531 -0.4090  0.0930  0.5220
 4883SOL    HW219304   2.299   5.528   0.492  1.0429 -0.5578 -0.7347
 4883SOL    HW319305   2.198   5.419   0.524 -0.3850  0.4992 -1.5669
 4883SOL    MW419306   2.280   5.449   0.525 -0.2143  0.0608  0.0806
 4884SOL     OW19307   1.588   0.966   3.522 -0.1829  0.0871  0.9368
 4884SOL    HW219308   1.545   0.958   3.437 -2.2183 -0.2624  1.9163
 4884SOL    HW319309   1.662   0.905   3.518  0.7489  1.2777 -1.0968
 4884SOL    MW419310   1.592   0.957   3.510 -0.3285  0.1981  0.7977
 4885SOL     OW19311   3.504   4.779   2.010 -0.1554  0.5821  0.1084
 4885SOL    HW219312   3.451   4.859   2.006 -0.0027  0.6939  0.3512
 4885SOL    HW319313   3.494   4.739   1.923  0.2533  1.1704 -0.2118
 4885SOL    MW419314   3.495   4.784   1.998 -0.0813  0.6744  0.0982
 4886SOL     OW19315   5.654   0.588   5.055 -0.7719  0.2750  0.0025
 4886SOL    HW219316   5.607   0.655   5.006 -2.0060 -0.8534 -0.4012
 4886SOL    HW319317   5.694   0.533   4.988 -1.5741 -0.6506  0.2735
 4886SOL    MW419318   5.653   0.590   5.040 -1.0406  0.0040 -0.0150
 4887SOL     OW19319   2.307   3.639   5.388 -0.6342 -0.3841  0.1318
 4887SOL    HW219320   2.258   3.558   5.403 -0.3556 -0.4138  0.9596
 4887SOL    HW319321   2.398   3.611   5.381 -0.6344 -0.2353 -0.4759
 4887SOL    MW419322   2.313   3.625   5.389 -0.5975 -0.3684  0.1608
 4888SOL     OW19323   2.727   5.556   3.644  0.1101 -0.4098 -0.1518
 4888SOL    HW219324   2.632   5.543   3.634 -0.0385  0.9429 -0.7325
 4888SOL    HW319325   2.758   5.474   3.682 -1.5973 -0.2046  1.9251
 4888SOL    MW419326   2.718   5.544   3.648 -0.1348 -0.2043  0.0456
 4889SOL     OW19327   0.787   1.861   1.544 -0.3110 -0.0836  0.6280
 4889SOL    HW219328   0.783   1.956   1.533 -1.2970 -0.2114 -0.2304
 4889SOL    HW319329   0.735   1.826   1.471  0.0731 -1.2837  0.9090
 4889SOL    MW419330   0.780   1.869   1.533 -0.3904 -0.2588  0.5518
 4890SOL     OW19331   1.589   3.678   3.585  0.4186 -0.3370 -0.9183
 4890SOL    HW219332   1.521   3.613   3.598  1.2753 -0.9887  0.5518
 4890SOL    HW319333   1.638   3.679   3.668  0.8689  1.6629 -1.1474
 4890SOL    MW419334   1.587   3.670   3.598  0.5910 -0.1591 -0.7546
 4891SOL     OW19335   6.283   3.124   0.034 -0.4760  0.1033 -0.5985
 4891SOL    HW219336   6.315   3.176   0.107 -0.6656 -0.2701 -0.2484
 4891SOL    HW319337   6.227   3.183  -0.016  0.5706  0.7070 -1.0962
 4891SOL    MW419338   6.280   3.138   0.037 -0.3629  0.1337 -0.6180
 4892SOL     OW19339   2.656   2.087   4.485  0.3130  0.1203  0.3836
 4892SOL    HW219340   2.664   2.161   4.424  1.3702  0.3437  0.7840
 4892SOL    HW319341   2.569   2.051   4.467  0.5535  0.2603 -1.1649
 4892SOL    MW419342   2.645   2.092   4.475  0.4843  0.1683  0.2321
 4893SOL     OW19343   2.029   5.964   5.055 -0.3299 -0.2682 -0.4662
 4893SOL    HW219344   2.098   5.901   5.032 -0.6921 -0.2979 -1.5132
 4893SOL    HW319345   1.961   5.949   4.989 -1.3271 -0.2144  0.5311
 4893SOL    MW419346   2.029   5.953   5.043 -0.5093 -0.2650 -0.4727
 4894SOL     OW19347   6.307   3.010   3.945  0.3658  0.0594  0.0386
 4894SOL    HW219348   6.377   3.069   3.918 -0.1335  0.8814  0.5154
 4894SOL    HW319349   6.226   3.058   3.926 -0.0479 -0.5026  0.3574
 4894SOL    MW419350   6.306   3.024   3.938  0.2453  0.0937  0.1436
 4895SOL     OW19351   5.772   3.471   2.745 -0.0608  0.2690  0.0181
 4895SOL    HW219352   5.853   3.488   2.696 -0.7850  1.9462 -0.6770
 4895SOL    HW319353   5.782   3.382   2.777  1.8731  0.2749 -0.4242
 4895SOL    MW419354   5.784   3.462   2.742  0.0988  0.4910 -0.1319
 4896SOL     OW19355   1.096   4.307   2.833  0.0443 -0.3172 -0.0231
 4896SOL    HW219356   1.181   4.270   2.807  1.1209  1.8774  0.1543
 4896SOL    HW319357   1.079   4.269   2.920 -0.4577 -2.7220 -1.0829
 4896SOL    MW419358   1.105   4.297   2.841  0.1201 -0.3449 -0.1395
 4897SOL     OW19359   2.183   3.037   1.528  0.4612 -0.0688  0.4737
 4897SOL    HW219360   2.157   3.058   1.618  0.9945 -0.8069  0.8066
 4897SOL    HW319361   2.213   2.946   1.532 -1.0521 -0.6667 -0.7731
 4897SOL    MW419362   2.183   3.028   1.541  0.3319 -0.2451  0.3531
 4898SOL     OW19363   3.151   4.485   4.300 -0.2902 -0.5704  0.9630
 4898SOL    HW219364   3.181   4.401   4.266  0.2333  0.4223 -1.1842
 4898SOL    HW319365   3.231   4.532   4.322 -0.5100 -0.0376  0.6364
 4898SOL    MW419366   3.165   4.480   4.299 -0.2501 -0.3691  0.6366
 4899SOL     OW19367   3.920   5.247   3.537  0.2840 -0.3102  0.1973
 4899SOL    HW219368   3.968   5.170   3.566  0.6874  0.1636  0.8314
 4899SOL    HW319369   3.887   5.286   3.618  2.0778  1.4759  0.1673
 4899SOL    MW419370   3.922   5.242   3.552  0.5739 -0.0120  0.2770
 4900SOL     OW19371   3.766   1.197   0.387  0.2886 -0.0194 -0.3218
 4900SOL    HW219372   3.786   1.203   0.294 -1.6313  2.1392 -0.6893
 4900SOL    HW319373   3.843   1.235   0.430  2.0834 -2.8406 -0.7885
 4900SOL    MW419374   3.779   1.203   0.381  0.2721 -0.1068 -0.4319
 4901SOL     OW19375   2.762   2.354   4.904  0.3284 -0.2355 -0.3977
 4901SOL    HW219376   2.804   2.438   4.890  1.3261 -0.6739 -0.1054
 4901SOL    HW319377   2.687   2.373   4.961 -1.8347  1.0709 -3.4055
 4901SOL    MW419378   2.757   2.367   4.909  0.1747 -0.1210 -0.7560
 4902SOL     OW19379   4.130   5.363   4.694  0.0070  0.4806  0.8718
 4902SOL    HW219380   4.205   5.328   4.744 -0.3619  0.3917  1.3721
 4902SOL    HW319381   4.074   5.403   4.760 -2.2278 -2.6388  1.1054
 4902SOL    MW419382   4.133   5.363   4.710 -0.3365  0.0573  0.9686
 4903SOL     OW19383   0.300   0.363   1.073 -0.1216 -0.0017 -0.2836
 4903SOL    HW219384   0.391   0.361   1.042 -0.3303 -0.1981 -0.8957
 4903SOL    HW319385   0.286   0.276   1.111  0.0568  0.1529  0.1387
 4903SOL    MW419386   0.310   0.351   1.074 -0.1256 -0.0072 -0.3086
 4904SOL     OW19387   1.987   3.136   6.131  0.7122 -0.1359 -0.0219
 4904SOL    HW219388   2.076   3.168   6.147  1.2305 -1.8887  0.8043
 4904SOL    HW319389   1.990   3.043   6.152 -1.4751 -0.1282  0.5979
 4904SOL    MW419390   1.999   3.128   6.136  0.4920 -0.3661  0.1689
 4905SOL     OW19391   2.211   4.651   2.441  0.1134 -0.5207 -0.0895
 4905SOL    HW219392   2.267   4.693   2.506  1.5540  0.2693 -1.7328
 4905SOL    HW319393   2.138   4.711   2.430  0.4624 -0.0736 -0.0179
 4905SOL    MW419394   2.209   4.664   2.448  0.3495 -0.3575 -0.2969
 4906SOL     OW19395   0.225   3.546   6.130  0.1724  0.1345 -0.4622
 4906SOL    HW219396   0.161   3.568   6.063 -0.2723 -1.7629 -0.6974
 4906SOL    HW319397   0.187   3.580   6.211 -1.3617 -1.2704 -0.5369
 4906SOL    MW419398   0.212   3.554   6.132 -0.0887 -0.3012 -0.5031
 4907SOL     OW19399   4.750   3.205   3.008 -0.1831 -0.2003 -0.1891
 4907SOL    HW219400   4.733   3.242   3.095 -0.5506  0.2072 -0.4328
 4907SOL    HW319401   4.845   3.215   2.997 -0.2942  0.8398 -0.3188
 4907SOL    MW419402   4.760   3.211   3.018 -0.2462 -0.0093 -0.2383
 4908SOL     OW19403   3.670   1.420   0.665  0.2287  0.0883 -0.1707
 4908SOL    HW219404   3.709   1.474   0.597  0.0813 -0.7597 -0.9577
 4908SOL    HW319405   3.613   1.359   0.618 -0.7649  0.2238  0.8144
 4908SOL    MW419406   3.668   1.419   0.650  0.0782 -0.0057 -0.1446
 4909SOL     OW19407   0.805   5.364   3.547 -0.5960  0.3708  1.4300
 4909SOL    HW219408   0.792   5.278   3.587 -0.8246  0.5532  1.7591
 4909SOL    HW319409   0.883   5.399   3.590  1.8501 -1.2073 -1.3803
 4909SOL    MW419410   0.814   5.358   3.558 -0.3034  0.1867  1.1027
 4910SOL     OW19411   1.774   1.154   1.105 -0.2679  0.1677 -0.2609
 4910SOL    HW219412   1.762   1.064   1.135  1.1179 -0.5764 -1.8118
 4910SOL    HW319413   1.708   1.167   1.037  0.7870 -0.3749 -1.4202
 4910SOL    MW419414   1.764   1.144   1.100  0.0541 -0.0021 -0.6185
 4911SOL     OW19415   3.835   3.146   3.824  0.0418  0.8538  0.0247
 4911SOL    HW219416   3.821   3.112   3.912  0.7396  1.1145  0.2423
 4911SOL    HW319417   3.917   3.106   3.795  0.1599  1.2840 -0.2488
 4911SOL    MW419418   3.844   3.137   3.831  0.1495  0.9450  0.0173
 4912SOL     OW19419   1.658   6.100   3.058 -0.3390  0.1489  0.2500
 4912SOL    HW219420   1.607   6.119   2.980 -3.5207 -0.0312  2.0895
 4912SOL    HW319421   1.664   6.184   3.104  0.9010  0.1253  0.1423
 4912SOL    MW419422   1.652   6.113   3.054 -0.5952  0.1220  0.4785
 4913SOL     OW19423   2.661   4.964   2.335  0.1740  0.5399 -0.0270
 4913SOL    HW219424   2.716   5.027   2.381  0.4666  0.8348 -0.7639
 4913SOL    HW319425   2.576   4.970   2.378  0.3867  0.9362  0.3465
 4913SOL    MW419426   2.657   4.973   2.347  0.2407  0.6311 -0.0749
 4914SOL     OW19427   0.301   3.162   5.525  0.3083  0.0889 -0.3986
 4914SOL    HW219428   0.254   3.245   5.531  1.7470  0.8198  1.8365
 4914SOL    HW319429   0.275   3.114   5.603  0.8881 -0.8112 -0.7382
 4914SOL    MW419430   0.291   3.166   5.536  0.5746  0.0666 -0.1485
 4915SOL     OW19431   3.131   0.830   3.990  0.1052 -0.4212  0.4203
 4915SOL    HW219432   3.100   0.741   3.972  1.9549 -0.9316 -0.4128
 4915SOL    HW319433   3.051   0.879   4.008 -0.9453 -2.3256  1.3040
 4915SOL    MW419434   3.116   0.825   3.990  0.2106 -0.7398  0.4270
 4916SOL     OW19435   6.181   3.362   4.249  0.0798 -0.6058 -0.4012
 4916SOL    HW219436   6.164   3.452   4.277  0.9999 -0.0702 -1.4798
 4916SOL    HW319437   6.274   3.362   4.224  0.3967 -2.1431  0.6044
 4916SOL    MW419438   6.191   3.374   4.250  0.2430 -0.7380 -0.4109
 4917SOL     OW19439   4.944   2.137   5.839 -0.2242 -0.0839  0.1589
 4917SOL    HW219440   4.978   2.107   5.755 -0.1092  0.5804 -0.0354
 4917SOL    HW319441   5.019   2.133   5.898 -0.7625 -2.5779  0.8050
 4917SOL    MW419442   4.959   2.133   5.836 -0.2801 -0.3253  0.2185
 4918SOL     OW19443   2.536   2.256   3.085 -0.3249 -1.0974 -0.6428
 4918SOL    HW219444   2.450   2.283   3.117 -0.1168 -0.1179 -0.8699
 4918SOL    HW319445   2.526   2.251   2.990  0.3034  0.7833 -0.8523
 4918SOL    MW419446   2.523   2.259   3.077 -0.2145 -0.7200 -0.7004
 4919SOL     OW19447   1.217   2.484   2.138 -0.2688  0.4796 -0.6451
 4919SOL    HW219448   1.207   2.462   2.045 -3.2261  1.7980 -0.7558
 4919SOL    HW319449   1.153   2.428   2.182  1.1536 -0.1795  0.6412
 4919SOL    MW419450   1.207   2.474   2.132 -0.4713  0.5666 -0.4900
 4920SOL     OW19451   0.819   0.741   2.881 -0.0888  0.7918 -0.2983
 4920SOL    HW219452   0.773   0.782   2.808  0.0598 -0.3393 -1.0617
 4920SOL    HW319453   0.782   0.653   2.887 -0.1700  0.8967  1.0699
 4920SOL    MW419454   0.808   0.735   2.872 -0.0799  0.6564 -0.2185
 4921SOL     OW19455   0.118   1.260   0.218  0.3904  0.8782 -0.2972
 4921SOL    HW219456   0.097   1.347   0.250 -0.5882 -0.1638  2.1424
 4921SOL    HW319457   0.213   1.261   0.204  0.3167  2.4645 -0.8741
 4921SOL    MW419458   0.128   1.271   0.220  0.2515  0.9500 -0.0514
 4922SOL     OW19459   6.061   4.778   2.116 -0.2658  0.6551 -0.1768
 4922SOL    HW219460   6.055   4.746   2.026 -2.0847  1.6863 -0.4688
 4922SOL    HW319461   5.971   4.781   2.147  0.2077  1.6195  1.2273
 4922SOL    MW419462   6.049   4.774   2.108 -0.4433  0.9184 -0.0301
 4923SOL     OW19463   1.768   5.992   3.869 -0.1743  0.2584 -0.1832
 4923SOL    HW219464   1.780   5.912   3.819 -0.8396  0.9952 -1.5703
 4923SOL    HW319465   1.848   6.043   3.853 -0.1164  0.2365  0.0260
 4923SOL    MW419466   1.780   5.989   3.861 -0.2544  0.3528 -0.3386
 4924SOL     OW19467   6.273   5.535   3.332 -0.4896 -0.2860  0.1551
 4924SOL    HW219468   6.340   5.600   3.353 -1.3270  0.0598  1.8935
 4924SOL    HW319469   6.301   5.499   3.248  0.0986  2.1839 -0.8053
 4924SOL    MW419470   6.286   5.539   3.323 -0.5225  0.0855  0.2577
 4925SOL     OW19471   3.382   4.887   4.817  0.5032  0.6816  0.0493
 4925SOL    HW219472   3.302   4.878   4.869  0.6097 -0.3211  0.0538
 4925SOL    HW319473   3.418   4.798   4.812  1.9503  1.2155  0.5546
 4925SOL    MW419474   3.376   4.874   4.823  0.7082  0.6197  0.1166
 4926SOL     OW19475   1.043   3.596   0.035 -0.0796  0.1460 -0.1784
 4926SOL    HW219476   1.022   3.566  -0.054 -1.3958 -1.0845  0.4963
 4926SOL    HW319477   0.977   3.663   0.054 -1.8975 -1.8281  0.9651
 4926SOL    MW419478   1.031   3.601   0.026 -0.4931 -0.2768  0.0615
 4927SOL     OW19479   3.640   1.761   2.028 -0.3422 -0.2133 -0.4272
 4927SOL    HW219480   3.702   1.700   1.987  0.3845 -0.2543  0.6886
 4927SOL    HW319481   3.694   1.814   2.087 -1.1870  0.5842 -0.3428
 4927SOL    MW419482   3.655   1.760   2.031 -0.3578 -0.1135 -0.2689
 4928SOL     OW19483   0.716   0.411   1.667 -0.2893  0.0295  0.2773
 4928SOL    HW219484   0.693   0.319   1.656  1.7830 -0.7201  1.6364
 4928SOL    HW319485   0.772   0.413   1.745 -0.2420  2.4383  0.2634
 4928SOL    MW419486   0.721   0.399   1.676 -0.0097  0.2484  0.4548
 4929SOL     OW19487   3.391   3.363   5.297 -0.0913  0.1146 -0.7087
 4929SOL    HW219488   3.418   3.289   5.243 -0.1465 -0.5100  0.1110
 4929SOL    HW319489   3.459   3.429   5.283  0.2016 -0.2598 -1.0755
 4929SOL    MW419490   3.404   3.362   5.288 -0.0599 -0.0172 -0.6489
 4930SOL     OW19491   2.765   2.002   5.678  0.4512  0.2045  0.1501
 4930SOL    HW219492   2.741   1.910   5.685 -2.0555  0.6658 -1.3562
 4930SOL    HW319493   2.782   2.015   5.585 -0.3493  1.5185  0.1735
 4930SOL    MW419494   2.764   1.992   5.667  0.0148  0.4387 -0.0456
 4931SOL     OW19495   1.652   2.468   1.505 -0.0264 -0.0612  0.1040
 4931SOL    HW219496   1.627   2.410   1.577 -0.4432  0.7008  0.5927
 4931SOL    HW319497   1.673   2.551   1.548  1.1275 -0.0122 -0.5240
 4931SOL    MW419498   1.651   2.471   1.520  0.0708  0.0458  0.0856
 4932SOL     OW19499   1.395   1.158   0.450 -0.1645 -0.1673  0.1833
 4932SOL    HW219500   1.398   1.254   0.453  0.1820 -0.1858  1.9734
 4932SOL    HW319501   1.483   1.131   0.477 -0.6529 -0.9665  1.0316
 4932SOL    MW419502   1.407   1.167   0.454 -0.1832 -0.2752  0.5314
 4933SOL     OW19503   1.003   0.333   3.459 -0.1015 -0.4271 -0.1701
 4933SOL    HW219504   1.077   0.289   3.502 -1.5081 -2.7333  0.0377
 4933SOL    HW319505   0.984   0.408   3.515  3.1200  1.3565 -1.1507
 4933SOL    MW419506   1.011   0.337   3.472  0.1380 -0.4961 -0.2720
 4934SOL     OW19507   3.417   2.179   5.055  0.8675 -0.2346 -0.1956
 4934SOL    HW219508   3.363   2.258   5.056  3.6194  1.8152 -0.9477
 4934SOL    HW319509   3.383   2.127   4.983 -1.3626 -0.0540  0.6709
 4934SOL    MW419510   3.406   2.183   5.046  0.9363  0.0597 -0.1805
 4935SOL     OW19511   1.360   4.217   6.354 -0.0035  0.6733  0.2050
 4935SOL    HW219512   1.337   4.310   6.350 -0.1063  0.9184  3.5652
 4935SOL    HW319513   1.455   4.216   6.364 -0.2388  0.7738  3.7128
 4935SOL    MW419514   1.369   4.230   6.355 -0.0481  0.7189  1.1112
 4936SOL     OW19515   4.524   3.333   5.362 -0.1817 -0.6671 -0.6132
 4936SOL    HW219516   4.510   3.406   5.423  0.2589 -2.8428  2.3362
 4936SOL    HW319517   4.442   3.284   5.364  0.4021 -1.6804 -0.3869
 4936SOL    MW419518   4.512   3.336   5.370 -0.0465 -1.0879 -0.1942
 4937SOL     OW19519   3.394   0.076   3.880 -0.3151 -0.1213 -0.0171
 4937SOL    HW219520   3.403   0.119   3.795  0.4050 -0.5926 -0.1905
 4937SOL    HW319521   3.482   0.044   3.900 -0.3385  0.5091  1.1936
 4937SOL    MW419522   3.407   0.077   3.871 -0.2232 -0.1003  0.1198
 4938SOL     OW19523   1.588   0.254   3.336 -0.3587 -0.0795  0.3991
 4938SOL    HW219524   1.556   0.343   3.345 -1.4814 -0.0122 -2.9374
 4938SOL    HW319525   1.682   0.260   3.355 -0.1652  2.1088 -0.9284
 4938SOL    MW419526   1.596   0.267   3.340 -0.4813  0.2181 -0.2163
 4939SOL     OW19527   1.287   3.909   5.438  0.1609 -0.1412 -0.4445
 4939SOL    HW219528   1.278   4.004   5.446  0.0222 -0.2695  1.5714
 4939SOL    HW319529   1.198   3.875   5.441  0.2223 -0.3567 -0.9138
 4939SOL    MW419530   1.274   3.917   5.440  0.1507 -0.1866 -0.2404
 4940SOL     OW19531   6.368   0.102   6.395  0.3417 -0.1534  0.3770
 4940SOL    HW219532   6.446   0.063   6.353 -0.2420 -0.3518 -0.5697
 4940SOL    HW319533   6.296   0.080   6.335 -0.2172  1.2770  0.4863
 4940SOL    MW419534   6.369   0.094   6.381  0.1909  0.0091  0.2665
 4941SOL     OW19535   1.946   6.212   0.684  0.6111 -0.3898  0.1444
 4941SOL    HW219536   1.968   6.299   0.653  0.0271 -0.3623 -0.2185
 4941SOL    HW319537   1.850   6.210   0.684  0.6154 -1.1679 -0.2583
 4941SOL    MW419538   1.936   6.223   0.680  0.5346 -0.4888  0.0434
 4942SOL     OW19539   1.316   0.141   2.271  0.8171  0.2111  0.0102
 4942SOL    HW219540   1.407   0.170   2.262  0.3734  1.1066 -2.2535
 4942SOL    HW319541   1.278   0.202   2.334  0.9608  2.0311 -1.5892
 4942SOL    MW419542   1.323   0.153   2.278  0.7775  0.5694 -0.4995
 4943SOL     OW19543   1.114   0.072   4.831 -0.3090  0.3558 -0.0824
 4943SOL    HW219544   1.134   0.119   4.912 -1.5000 -1.4411  1.3453
 4943SOL    HW319545   1.166  -0.008   4.836  0.0709  0.4890 -1.4284
 4943SOL    MW419546   1.123   0.067   4.842 -0.4160  0.1363 -0.0716
 4944SOL     OW19547   5.310   1.303   2.116 -0.1971 -0.3572  0.1853
 4944SOL    HW219548   5.388   1.257   2.147  1.2027  2.2072  0.6848
 4944SOL    HW319549   5.242   1.282   2.181  0.7663 -0.6078  1.1307
 4944SOL    MW419550   5.311   1.294   2.129  0.1147 -0.0519  0.3760
 4945SOL     OW19551   3.334   3.332   1.045  0.5063  0.1226  0.0301
 4945SOL    HW219552   3.322   3.367   0.956 -2.5368 -1.3584 -0.2689
 4945SOL    HW319553   3.312   3.406   1.103 -0.1171  0.3617 -0.4953
 4945SOL    MW419554   3.329   3.347   1.041  0.0226 -0.0412 -0.0787
 4946SOL     OW19555   0.566   5.917   6.262 -0.0324  1.1950 -0.1609
 4946SOL    HW219556   0.496   5.978   6.282 -1.7464 -1.3564  2.3767
 4946SOL    HW319557   0.523   5.845   6.215  1.4234  0.7478 -0.8966
 4946SOL    MW419558   0.551   5.915   6.258 -0.0665  0.7994  0.0768
 4947SOL     OW19559   1.823   4.347   1.691  0.0594 -0.6393 -0.6216
 4947SOL    HW219560   1.889   4.352   1.622  2.1186 -0.3497  1.2356
 4947SOL    HW319561   1.835   4.428   1.741 -1.3286 -0.8563  0.0988
 4947SOL    MW419562   1.833   4.359   1.689  0.1480 -0.6298 -0.2815
 4948SOL     OW19563   4.174   0.989   5.231  0.5228 -0.5929 -0.6779
 4948SOL    HW219564   4.177   0.979   5.326  1.1243  2.6897 -0.2232
 4948SOL    HW319565   4.149   0.902   5.198  2.2113 -2.3554  2.2906
 4948SOL    MW419566   4.171   0.976   5.239  0.8250 -0.3924 -0.2263
 4949SOL     OW19567   3.444   3.167   4.352  0.0999 -0.1033 -0.1152
 4949SOL    HW219568   3.536   3.140   4.359  1.0733  2.2472 -2.1734
 4949SOL    HW319569   3.438   3.248   4.403 -0.1150  1.1256 -1.9920
 4949SOL    MW419570   3.455   3.174   4.359  0.2000  0.3690 -0.6344
 4950SOL     OW19571   4.862   0.967   2.652  0.0439 -0.0565 -0.5377
 4950SOL    HW219572   4.783   1.013   2.625  0.2292  1.4473  1.2828
 4950SOL    HW319573   4.930   0.997   2.591 -0.2690  0.5684 -0.5831
 4950SOL    MW419574   4.861   0.977   2.640  0.0271  0.2244 -0.3035
 4951SOL     OW19575   0.221   6.406   6.298 -0.1700  0.6188  0.5932
 4951SOL    HW219576   0.177   6.322   6.288 -2.3525  1.6628  0.8359
 4951SOL    HW319577   0.253   6.405   6.388  0.2988 -0.1492  0.4290
 4951SOL    MW419578   0.219   6.395   6.308 -0.3961  0.6552  0.6035
 4952SOL     OW19579   0.260   4.332   6.356  0.3513  0.0629  0.1829
 4952SOL    HW219580   0.289   4.284   6.434  0.3047 -0.2660 -0.0028
 4952SOL    HW319581   0.199   4.273   6.313 -0.5398  0.7126  0.5256
 4952SOL    MW419582   0.256   4.318   6.361  0.2276  0.1052  0.2036
 4953SOL     OW19583   4.047   3.251   1.444  0.0466 -0.5663 -0.3649
 4953SOL    HW219584   3.999   3.197   1.382  0.9598 -0.3003 -1.3212
 4953SOL    HW319585   4.091   3.189   1.502  0.2560 -0.8371 -0.8124
 4953SOL    MW419586   4.046   3.236   1.444  0.1947 -0.5669 -0.5501
 4954SOL     OW19587   2.195   3.482   1.383 -0.0319 -0.1458  0.0042
 4954SOL    HW219588   2.239   3.397   1.386 -0.3999 -0.4858 -2.3151
 4954SOL    HW319589   2.202   3.510   1.291 -1.2586  1.6166  0.3890
 4954SOL    MW419590   2.202   3.475   1.371 -0.2423  0.0419 -0.2510
 4955SOL     OW19591   2.916   3.123   3.527  0.0562  0.0940 -0.5256
 4955SOL    HW219592   2.990   3.074   3.563  0.7383  2.4616  1.6012
 4955SOL    HW319593   2.946   3.155   3.443  1.4851  0.9597  0.2776
 4955SOL    MW419594   2.930   3.121   3.521  0.3347  0.5206 -0.1390
 4956SOL     OW19595   3.971   2.733   1.208  0.1165  0.0958  0.0437
 4956SOL    HW219596   3.988   2.816   1.252  0.5272  0.5419 -0.9146
 4956SOL    HW319597   3.890   2.701   1.248  0.4027  0.5401  1.0061
 4956SOL    MW419598   3.962   2.740   1.219  0.2084  0.2133  0.0442
 4957SOL     OW19599   6.269   0.560   0.982 -0.3755 -0.3253  0.1426
 4957SOL    HW219600   6.322   0.481   0.982 -1.7699 -1.2863  1.0964
 4957SOL    HW319601   6.297   0.607   0.902  0.3982 -1.7966 -0.4869
 4957SOL    MW419602   6.280   0.556   0.971 -0.4574 -0.6462  0.1854
 4958SOL     OW19603   2.542   3.972   0.039  0.2810 -0.6023  0.0021
 4958SOL    HW219604   2.563   4.032   0.111 -2.0328  0.7633 -0.3378
 4958SOL    HW319605   2.465   3.924   0.070 -0.6528 -0.1084 -1.4279
 4958SOL    MW419606   2.534   3.974   0.053 -0.1475 -0.3570 -0.2314
 4959SOL     OW19607   4.354   2.431   2.623  0.0483  0.0244  0.2302
 4959SOL    HW219608   4.277   2.479   2.592 -0.1921 -0.2105  0.4554
 4959SOL    HW319609   4.322   2.383   2.699  0.0606 -1.2302 -0.5425
 4959SOL    MW419610   4.339   2.431   2.629  0.0182 -0.1721  0.1580
 4960SOL     OW19611   1.933   4.698   5.198  0.1382  0.1821  0.3380
 4960SOL    HW219612   2.026   4.703   5.178  0.0742 -1.0286 -0.3653
 4960SOL    HW319613   1.911   4.606   5.188 -0.9868  0.3305  1.2260
 4960SOL    MW419614   1.942   4.687   5.194 -0.0187  0.0420  0.3624
 4961SOL     OW19615   0.175   3.425   5.513  0.3716  0.2946  0.3503
 4961SOL    HW219616   0.100   3.460   5.560  0.3108 -0.6067  0.9434
 4961SOL    HW319617   0.204   3.498   5.457  2.4734  2.6723  4.0821
 4961SOL    MW419618   0.169   3.439   5.512  0.6409  0.4894  0.9210
 4962SOL     OW19619   0.334   4.972   2.761  0.4406  0.4969  0.4558
 4962SOL    HW219620   0.270   4.993   2.829 -0.8181  2.6806 -1.2727
 4962SOL    HW319621   0.417   5.006   2.795 -0.0032  0.8163  1.2515
 4962SOL    MW419622   0.336   4.979   2.774  0.2160  0.8271  0.3327
 4963SOL     OW19623   6.105   3.603   3.962  0.8020  0.2194  0.0160
 4963SOL    HW219624   6.042   3.607   4.033 -1.6735 -1.3575 -1.9308
 4963SOL    HW319625   6.144   3.516   3.969  1.6588  0.6050  0.2581
 4963SOL    MW419626   6.102   3.592   3.972  0.5884  0.0622 -0.2089
 4964SOL     OW19627   1.734   3.607   4.736  0.1838 -0.1709  0.3351
 4964SOL    HW219628   1.683   3.583   4.813  0.8848  0.2769  0.9446
 4964SOL    HW319629   1.731   3.529   4.680  1.4312 -1.2844  1.7366
 4964SOL    MW419630   1.727   3.594   4.739  0.4409 -0.2587  0.6004
 4965SOL     OW19631   2.730   3.420   5.608  0.1372 -0.0508  0.1540
 4965SOL    HW219632   2.764   3.506   5.631 -1.7856  0.4357  1.3791
 4965SOL    HW319633   2.769   3.361   5.673  0.4358  0.0938  0.1101
 4965SOL    MW419634   2.740   3.423   5.620 -0.0771  0.0324  0.3099
 4966SOL     OW19635   5.100   1.206   2.777 -0.4061  0.0573 -0.4341
 4966SOL    HW219636   5.095   1.252   2.693 -0.1433 -0.7322 -0.8942
 4966SOL    HW319637   5.100   1.113   2.754 -0.2839 -0.1727  0.4414
 4966SOL    MW419638   5.099   1.199   2.763 -0.3553 -0.0772 -0.3793
 4967SOL     OW19639   0.187   2.129   3.030 -0.1150 -0.2867 -0.1213
 4967SOL    HW219640   0.255   2.192   3.055  0.3238 -0.3348 -1.1238
 4967SOL    HW319641   0.235   2.061   2.981 -0.4943 -1.6555  1.3143
 4967SOL    MW419642   0.203   2.128   3.027 -0.1071 -0.4736 -0.0642
 4968SOL     OW19643   0.888   4.169   2.228 -0.3296 -0.0379 -0.4277
 4968SOL    HW219644   0.901   4.126   2.313 -1.5261 -1.5318 -0.9580
 4968SOL    HW319645   0.933   4.112   2.165  1.1990  1.4516 -0.7585
 4968SOL    MW419646   0.896   4.156   2.231 -0.2858 -0.0385 -0.5413
 4969SOL     OW19647   4.438   0.535   0.153 -0.4054  0.1680  0.1721
 4969SOL    HW219648   4.344   0.520   0.159 -0.9050  2.5493 -0.4237
 4969SOL    HW319649   4.447   0.603   0.086  1.8643 -0.8732 -0.6914
 4969SOL    MW419650   4.427   0.542   0.145 -0.1719  0.3448 -0.0205
 4970SOL     OW19651   4.896   6.147   2.856 -0.3802 -0.0028 -0.1006
 4970SOL    HW219652   4.936   6.233   2.843  0.6672 -0.2009  1.4253
 4970SOL    HW319653   4.918   6.125   2.947 -2.1138 -1.1288  0.0871
 4970SOL    MW419654   4.904   6.155   2.866 -0.4707 -0.1775  0.1255
 4971SOL     OW19655   1.687   3.347   0.702  0.5205 -0.0126  0.0294
 4971SOL    HW219656   1.647   3.420   0.751  0.2323  0.7830 -1.3491
 4971SOL    HW319657   1.614   3.289   0.682  0.4724  0.1619 -0.3048
 4971SOL    MW419658   1.672   3.349   0.706  0.4761  0.1154 -0.1966
 4972SOL     OW19659   4.694   3.645   3.996 -0.3725  0.2894  0.3104
 4972SOL    HW219660   4.646   3.596   3.930 -0.7073  0.7403  0.2154
 4972SOL    HW319661   4.769   3.589   4.018  0.2424  0.5081 -1.0907
 4972SOL    MW419662   4.698   3.632   3.991 -0.3355  0.3777  0.1130
 4973SOL     OW19663   4.682   1.914   3.153 -0.0689  0.5665 -0.6953
 4973SOL    HW219664   4.764   1.949   3.117 -0.8426  0.6108 -2.5023
 4973SOL    HW319665   4.706   1.827   3.186  0.9878  1.1355  0.1479
 4973SOL    MW419666   4.696   1.907   3.153 -0.0316  0.6474 -0.8225
 4974SOL     OW19667   4.769   5.742   0.421 -0.6400  0.0982 -0.2081
 4974SOL    HW219668   4.832   5.696   0.476 -0.3368  0.0531 -0.5892
 4974SOL    HW319669   4.702   5.677   0.401 -1.9075  0.6757  1.8638
 4974SOL    MW419670   4.768   5.728   0.425 -0.7672  0.1684  0.0150
 4975SOL     OW19671   1.369   0.839   4.285 -0.1526  0.4327 -0.6560
 4975SOL    HW219672   1.415   0.916   4.249 -0.7641  0.1810 -2.0194
 4975SOL    HW319673   1.402   0.766   4.234  1.0550 -0.3837  1.1931
 4975SOL    MW419674   1.380   0.840   4.274 -0.0740  0.2918 -0.5919
 4976SOL     OW19675   3.065   4.834   1.906  0.3274 -0.0682 -0.1495
 4976SOL    HW219676   2.994   4.895   1.923  1.4690  1.0625  0.7153
 4976SOL    HW319677   3.129   4.884   1.856  1.1950 -0.6006  0.3961
 4976SOL    MW419678   3.064   4.848   1.902  0.5925  0.0107  0.0366
 4977SOL     OW19679   5.490   2.888   5.438  0.8313 -0.2056  0.5691
 4977SOL    HW219680   5.531   2.973   5.449  0.1286 -0.0400  2.0465
 4977SOL    HW319681   5.487   2.875   5.343  0.6553  1.5456  0.3145
 4977SOL    MW419682   5.495   2.897   5.427  0.7153  0.0473  0.7304
 4978SOL     OW19683   3.835   1.488   4.953 -0.4041  0.2767 -0.0903
 4978SOL    HW219684   3.825   1.393   4.943 -2.3064  0.4054  0.2776
 4978SOL    HW319685   3.897   1.498   5.025  0.7186 -0.6680 -0.8851
 4978SOL    MW419686   3.842   1.477   4.961 -0.5069  0.1691 -0.1466
 4979SOL     OW19687   3.496   0.245   4.648  0.7232 -0.4406  0.4455
 4979SOL    HW219688   3.549   0.321   4.668  1.0347 -0.7218  0.7039
 4979SOL    HW319689   3.412   0.280   4.619  1.6033  0.0693 -1.6611
 4979SOL    MW419690   3.492   0.259   4.647  0.8804 -0.4104  0.2016
 4980SOL     OW19691   3.664   2.913   5.787  0.3038  0.4232 -0.0049
 4980SOL    HW219692   3.661   2.839   5.726 -0.6759 -0.3471  0.9256
 4980SOL    HW319693   3.747   2.902   5.833 -1.1180 -2.0125  2.3043
 4980SOL    MW419694   3.675   2.902   5.785 -0.0131  0.0002  0.4226
 4981SOL     OW19695   2.480   0.861   0.015 -0.2659 -0.2713  0.4764
 4981SOL    HW219696   2.494   0.769  -0.005 -2.2897 -0.2890 -1.2203
 4981SOL    HW319697   2.396   0.865   0.059 -0.7141  0.8185 -0.4021
 4981SOL    MW419698   2.471   0.850   0.018 -0.5920 -0.1299  0.1366
 4982SOL     OW19699   1.664   0.665   0.677 -0.0244  0.1423 -0.1133
 4982SOL    HW219700   1.750   0.623   0.676  0.3397  0.8263  0.7365
 4982SOL    HW319701   1.678   0.746   0.726 -1.1418  0.2888 -0.0151
 4982SOL    MW419702   1.678   0.670   0.683 -0.1238  0.2519  0.0118
 4983SOL     OW19703   3.450   0.303   6.302 -0.5205 -0.0905  0.2665
 4983SOL    HW219704   3.498   0.223   6.280 -1.0667 -0.1891 -0.6050
 4983SOL    HW319705   3.513   0.374   6.288 -0.5335 -0.2412 -0.5903
 4983SOL    MW419706   3.464   0.302   6.297 -0.5943 -0.1234  0.0385
 4984SOL     OW19707   5.738   0.753   0.595 -0.2257  0.2232  0.2935
 4984SOL    HW219708   5.662   0.721   0.645  1.1301 -0.2958  2.1114
 4984SOL    HW319709   5.783   0.673   0.567  1.0277  0.4821  1.4624
 4984SOL    MW419710   5.734   0.738   0.598  0.1186  0.1889  0.6876
 4985SOL     OW19711   6.211   2.796   2.116  0.8722  0.0600 -0.4794
 4985SOL    HW219712   6.241   2.707   2.101  0.2083 -0.1787 -0.4034
 4985SOL    HW319713   6.233   2.842   2.035  0.6080 -0.3433 -0.7883
 4985SOL    MW419714   6.218   2.791   2.103  0.7497 -0.0247 -0.5101
 4986SOL     OW19715   5.114   0.436   4.850  0.3125  0.3724 -0.1591
 4986SOL    HW219716   5.182   0.371   4.866 -1.1338 -0.9576  0.9251
 4986SOL    HW319717   5.035   0.385   4.836 -0.3961  1.8640 -1.9338
 4986SOL    MW419718   5.113   0.421   4.850  0.0282  0.3937 -0.2502
 4987SOL     OW19719   3.096   6.445   1.954 -0.0297  0.2419  0.4321
 4987SOL    HW219720   3.116   6.416   2.043  1.9919 -1.7996 -0.5755
 4987SOL    HW319721   3.179   6.436   1.907 -1.3107  0.0625 -1.9649
 4987SOL    MW419722   3.110   6.440   1.959  0.0680 -0.0512 -0.0171
 4988SOL     OW19723   5.274   5.786   1.754 -0.6300 -0.2335 -0.6732
 4988SOL    HW219724   5.336   5.726   1.796  0.7290  1.1487 -0.5841
 4988SOL    HW319725   5.327   5.830   1.688 -1.7052  0.5458 -1.0248
 4988SOL    MW419726   5.289   5.784   1.751 -0.5925  0.0517 -0.7079
 4989SOL     OW19727   4.994   4.673   4.658 -0.4086  0.9524 -0.4811
 4989SOL    HW219728   5.078   4.682   4.702  0.1179 -0.7188 -1.0450
 4989SOL    HW319729   5.010   4.703   4.568  0.9400 -3.2122 -1.9221
 4989SOL    MW419730   5.007   4.678   4.652 -0.1612  0.1824 -0.7456
 4990SOL     OW19731   1.804   0.165   3.900 -0.3488  0.1985 -0.1547
 4990SOL    HW219732   1.731   0.177   3.840 -1.7536 -1.7977  1.0205
 4990SOL    HW319733   1.848   0.085   3.869  0.8626  0.9057 -0.3424
 4990SOL    MW419734   1.800   0.156   3.888 -0.3743  0.0284 -0.0244
 4991SOL     OW19735   3.411   6.006   5.572 -0.4928 -0.5093 -0.1104
 4991SOL    HW219736   3.393   5.959   5.653 -0.6183  0.0176  0.1772
 4991SOL    HW319737   3.499   5.978   5.548  0.6209  1.2182  1.6047
 4991SOL    MW419738   3.420   5.996   5.580 -0.3624 -0.2118  0.1538
 4992SOL     OW19739   4.204   5.994   5.596 -0.0405  0.6324  0.5591
 4992SOL    HW219740   4.140   6.058   5.563  0.6950  0.9621 -0.2827
 4992SOL    HW319741   4.260   6.045   5.656  1.7251  1.3259 -1.5337
 4992SOL    MW419742   4.203   6.009   5.600  0.2895  0.7674  0.1719
 4993SOL     OW19743   0.779   5.634   1.078  0.2476 -0.4361 -0.3127
 4993SOL    HW219744   0.804   5.675   1.161  0.5510  0.1985 -0.7063
 4993SOL    HW319745   0.846   5.663   1.016 -0.5250 -0.0794 -1.0046
 4993SOL    MW419746   0.791   5.644   1.081  0.1857 -0.3053 -0.4559
 4994SOL     OW19747   0.448   1.671   2.608  0.0982  0.3202 -0.1879
 4994SOL    HW219748   0.363   1.711   2.625 -0.4863  0.1631 -2.4615
 4994SOL    HW319749   0.449   1.593   2.664 -1.0715  0.5379  0.1678
 4994SOL    MW419750   0.437   1.666   2.618 -0.1332  0.3282 -0.4410
 4995SOL     OW19751   5.476   1.806   0.100 -0.2570  0.1737  0.1442
 4995SOL    HW219752   5.380   1.816   0.098 -0.5479 -1.9949  0.4489
 4995SOL    HW319753   5.499   1.781   0.010  0.1065  1.1301 -0.0397
 4995SOL    MW419754   5.466   1.804   0.087 -0.2474  0.0138  0.1602
 4996SOL     OW19755   2.453   0.460   2.721 -0.4185 -0.5342 -0.0427
 4996SOL    HW219756   2.398   0.530   2.757 -1.2880 -1.0395 -0.3462
 4996SOL    HW319757   2.532   0.504   2.691  0.1002 -0.0138  1.9440
 4996SOL    MW419758   2.456   0.475   2.722 -0.4648 -0.5322  0.1793
 4997SOL     OW19759   1.838   2.705   2.171  0.1463  0.2108  0.6350
 4997SOL    HW219760   1.817   2.700   2.264  1.3635 -1.1282  0.8749
 4997SOL    HW319761   1.780   2.641   2.129  0.7817 -0.4308  0.7212
 4997SOL    MW419762   1.828   2.696   2.177  0.3908 -0.0505  0.6781
 4998SOL     OW19763   5.213   3.361   1.151 -0.0469 -0.1754 -0.1182
 4998SOL    HW219764   5.138   3.403   1.192  0.5932  2.0891 -1.1028
 4998SOL    HW319765   5.193   3.267   1.154 -2.4863  0.2958  0.4148
 4998SOL    MW419766   5.201   3.354   1.156 -0.2843  0.1855 -0.1778
 4999SOL     OW19767   5.864   0.218   3.720 -0.2487  0.1907 -0.4812
 4999SOL    HW219768   5.811   0.224   3.799 -0.8192 -3.0616 -0.4818
 4999SOL    HW319769   5.872   0.308   3.690  1.7354  1.9196  4.3115
 4999SOL    MW419770   5.858   0.230   3.726 -0.0622 -0.0103  0.1511
 5000SOL     OW19771   2.787   3.948   1.712 -0.2105  0.0698  0.1165
 5000SOL    HW219772   2.715   3.952   1.776 -0.2812 -0.8757  0.1072
 5000SOL    HW319773   2.839   3.872   1.740  0.5146  0.4559 -0.1660
 5000SOL    MW419774   2.785   3.939   1.724 -0.1242 -0.0040  0.0780
 5001SOL     OW19775   5.584   2.158   5.774  0.7493 -0.2666 -0.9460
 5001SOL    HW219776   5.507   2.145   5.830  1.4739  3.7107  1.3707
 5001SOL    HW319777   5.549   2.191   5.691 -0.1564  0.1447 -0.4158
 5001SOL    MW419778   5.569   2.161   5.771  0.7254  0.3124 -0.5704
 5002SOL     OW19779   3.804   2.483   3.207 -0.3228 -0.0348  0.4896
 5002SOL    HW219780   3.821   2.389   3.205  1.2366  0.1148  2.9795
 5002SOL    HW319781   3.748   2.496   3.283 -2.1686  0.8977 -0.9455
 5002SOL    MW419782   3.799   2.472   3.217 -0.3606  0.1079  0.6288
 5003SOL     OW19783   0.762   0.234   4.263  0.4169  0.7230 -0.8718
 5003SOL    HW219784   0.844   0.216   4.217  0.0716  0.1928 -1.2929
 5003SOL    HW319785   0.786   0.229   4.356  0.9199  0.8601 -0.9871
 5003SOL    MW419786   0.776   0.231   4.269  0.4377  0.6712 -0.9426
 5004SOL     OW19787   0.196   1.546   1.258 -0.3517 -0.3397  0.0288
 5004SOL    HW219788   0.235   1.591   1.183 -0.0987  0.4416  0.6106
 5004SOL    HW319789   0.225   1.597   1.334 -1.7993 -0.2206  0.5504
 5004SOL    MW419790   0.205   1.559   1.258 -0.5093 -0.2209  0.1744
 5005SOL     OW19791   1.242   1.871   4.674 -0.0498 -0.5127  0.5975
 5005SOL    HW219792   1.330   1.839   4.696 -0.7705 -3.0274  0.1206
 5005SOL    HW319793   1.213   1.917   4.753  1.7505  0.5908  0.6742
 5005SOL    MW419794   1.250   1.873   4.687  0.0926 -0.6989  0.5447
 5006SOL     OW19795   3.235   2.102   5.659 -0.0891 -0.3110  0.1974
 5006SOL    HW219796   3.260   2.146   5.740  0.7421  0.2937 -0.3757
 5006SOL    HW319797   3.191   2.169   5.608 -1.1750 -0.8513  0.3778
 5006SOL    MW419798   3.232   2.116   5.663 -0.1227 -0.3025  0.1456
 5007SOL     OW19799   1.297   2.398   3.333 -0.1931 -0.6266 -0.2676
 5007SOL    HW219800   1.212   2.365   3.361  0.2585 -1.2713  0.3514
 5007SOL    HW319801   1.334   2.328   3.280 -0.0293 -0.3559 -0.5184
 5007SOL    MW419802   1.291   2.385   3.330 -0.1119 -0.6760 -0.2190
 5008SOL     OW19803   6.407   1.482   4.904  0.1725  0.4822 -0.5941
 5008SOL    HW219804   6.357   1.402   4.888  0.1798 -0.0745  1.8588
 5008SOL    HW319805   6.480   1.455   4.960  0.1072  2.1911  0.3873
 5008SOL    MW419806   6.410   1.468   4.909  0.1649  0.6342 -0.1410
 5009SOL     OW19807   4.520   4.833   1.922  0.3880  0.4170  0.2688
 5009SOL    HW219808   4.489   4.894   1.989  0.9577  1.6202 -0.5363
 5009SOL    HW319809   4.456   4.840   1.852  1.1722  1.1408 -0.4015
 5009SOL    MW419810   4.507   4.842   1.922  0.5667  0.6713  0.0741
 5010SOL     OW19811   4.167   5.339   5.762 -0.7603 -0.3627 -0.1584
 5010SOL    HW219812   4.186   5.389   5.841  0.6366 -0.0902 -0.6452
 5010SOL    HW319813   4.139   5.253   5.794 -0.0799 -0.3016  0.6344
 5010SOL    MW419814   4.166   5.334   5.777 -0.4862 -0.3187 -0.1180
 5011SOL     OW19815   6.376   4.889   0.992  0.8603  0.3747  0.2737
 5011SOL    HW219816   6.310   4.952   0.963  0.5585 -0.1072 -0.1034
 5011SOL    HW319817   6.454   4.942   1.007  0.6840  0.8065 -0.2837
 5011SOL    MW419818   6.377   4.904   0.990  0.7972  0.3681  0.1504
 5012SOL     OW19819   6.121   5.206   3.682 -0.7926 -0.0770 -0.1463
 5012SOL    HW219820   6.032   5.216   3.718 -1.5458 -2.8673 -1.0183
 5012SOL    HW319821   6.111   5.144   3.610  1.7529  0.2819 -0.8895
 5012SOL    MW419822   6.108   5.199   3.677 -0.5561 -0.3978 -0.3594
 5013SOL     OW19823   1.737   1.775   0.713  0.1182  0.1183  0.1567
 5013SOL    HW219824   1.759   1.710   0.779  0.0441  0.8873  0.9585
 5013SOL    HW319825   1.729   1.857   0.762  0.8110  0.8475 -0.9080
 5013SOL    MW419826   1.739   1.778   0.728  0.1999  0.3160  0.1220
 5014SOL     OW19827   2.646   3.775   3.592 -0.1516  0.1868 -0.4637
 5014SOL    HW219828   2.579   3.707   3.597 -0.9374  1.0235  1.8814
 5014SOL    HW319829   2.599   3.854   3.566 -0.2718  0.8809  1.6331
 5014SOL    MW419830   2.631   3.777   3.589 -0.2711  0.3888  0.1224
 5015SOL     OW19831   6.271   3.333   6.135  0.5635  0.5790  0.0200
 5015SOL    HW219832   6.242   3.409   6.084  2.2159  0.8403 -0.5924
 5015SOL    HW319833   6.245   3.258   6.082 -0.1597  0.7499  0.1256
 5015SOL    MW419834   6.264   3.333   6.121  0.6861  0.6360 -0.0469
 5016SOL     OW19835   4.639   6.315   0.112  0.3268  0.0294  0.2708
 5016SOL    HW219836   4.578   6.242   0.103 -0.1045  0.0907  2.1483
 5016SOL    HW319837   4.599   6.386   0.063 -1.0305 -0.0003  1.2813
 5016SOL    MW419838   4.626   6.315   0.104  0.0908  0.0336  0.6519
 5017SOL     OW19839   5.566   5.741   0.435  0.4279  0.5885  0.2140
 5017SOL    HW219840   5.506   5.695   0.494  0.6099  0.9074  0.6509
 5017SOL    HW319841   5.509   5.776   0.367  0.3268 -0.5810 -0.3307
 5017SOL    MW419842   5.550   5.740   0.434  0.4386  0.4762  0.1998
 5018SOL     OW19843   0.608   2.090   6.257 -0.2436  0.1118  0.4399
 5018SOL    HW219844   0.625   2.095   6.163 -0.6970  0.9827  0.3939
 5018SOL    HW319845   0.670   2.025   6.289 -0.4428 -0.5912 -0.5458
 5018SOL    MW419846   0.618   2.082   6.249 -0.3297  0.1340  0.3038
 5019SOL     OW19847   5.439   1.217   0.496  0.8815 -0.1769 -0.2119
 5019SOL    HW219848   5.494   1.178   0.428  0.7965  1.3321 -1.2068
 5019SOL    HW319849   5.368   1.259   0.447  1.3189  1.7495  0.7074
 5019SOL    MW419850   5.437   1.217   0.480  0.9280  0.2764 -0.2219
 5020SOL     OW19851   1.508   3.769   4.423 -0.1255  0.3815 -0.2800
 5020SOL    HW219852   1.479   3.852   4.384 -0.9075 -0.1175 -0.7785
 5020SOL    HW319853   1.482   3.776   4.515 -0.1597  0.6979 -0.3110
 5020SOL    MW419854   1.501   3.781   4.430 -0.2332  0.3574 -0.3499
 5021SOL     OW19855   3.320   3.670   5.115 -0.0774 -0.0595  1.0615
 5021SOL    HW219856   3.356   3.758   5.107  0.7625 -0.5591 -1.4727
 5021SOL    HW319857   3.233   3.683   5.153 -0.1566  1.9214  0.3201
 5021SOL    MW419858   3.313   3.683   5.119  0.0230  0.1359  0.6293
 5022SOL     OW19859   1.144   2.794   1.010  0.7465 -0.1150  0.4649
 5022SOL    HW219860   1.182   2.811   0.924  2.9065  0.2346  1.4296
 5022SOL    HW319861   1.121   2.702   1.008  1.0110 -0.1718 -0.3971
 5022SOL    MW419862   1.146   2.784   0.998  1.0664 -0.0763  0.4784
 5023SOL     OW19863   5.747   4.686   4.069 -0.0958 -0.2748  0.3125
 5023SOL    HW219864   5.652   4.676   4.071 -0.2141  0.5891 -0.4204
 5023SOL    HW319865   5.770   4.677   3.977  0.5273 -0.4347  0.4809
 5023SOL    MW419866   5.738   4.684   4.057 -0.0292 -0.1819  0.2380
 5024SOL     OW19867   0.244   4.684   4.880  0.3883  0.4207 -0.0120
 5024SOL    HW219868   0.309   4.753   4.887 -1.0209  1.7887  0.0590
 5024SOL    HW319869   0.161   4.727   4.899 -0.5364 -1.2957  0.0217
 5024SOL    MW419870   0.242   4.699   4.883  0.0804  0.3748  0.0018
 5025SOL     OW19871   3.853   6.175   1.421  0.1975 -0.2870  0.0227
 5025SOL    HW219872   3.913   6.150   1.351 -0.0074  2.2371 -1.1725
 5025SOL    HW319873   3.777   6.118   1.408  0.5716 -0.5423 -1.2367
 5025SOL    MW419874   3.851   6.164   1.410  0.2198  0.0123 -0.3012
 5026SOL     OW19875   4.273   5.348   0.877 -0.1451 -0.2986 -0.2525
 5026SOL    HW219876   4.364   5.363   0.901  0.2621 -1.1206 -1.2101
 5026SOL    HW319877   4.271   5.259   0.843 -1.3843 -0.4260  0.0868
 5026SOL    MW419878   4.284   5.338   0.876 -0.2549 -0.4239 -0.3341
 5027SOL     OW19879   1.011   0.164   3.061 -0.5955  0.1462  0.4102
 5027SOL    HW219880   1.034   0.086   3.010 -1.9809 -0.2047  0.2818
 5027SOL    HW319881   1.044   0.146   3.149  0.6289  0.1813 -0.0214
 5027SOL    MW419882   1.019   0.151   3.066 -0.6167  0.1045  0.3363
 5028SOL     OW19883   2.309   3.088   5.476  0.4763 -0.3118 -0.2127
 5028SOL    HW219884   2.342   3.128   5.395  2.3721  0.1264  0.7170
 5028SOL    HW319885   2.266   3.160   5.522 -0.6098 -0.5631 -0.8154
 5028SOL    MW419886   2.308   3.103   5.471  0.5831 -0.2871 -0.1695
 5029SOL     OW19887   5.267   2.032   3.264 -0.2037  0.2341 -0.2720
 5029SOL    HW219888   5.338   2.016   3.327 -1.9796  0.7501  1.9910
 5029SOL    HW319889   5.269   2.126   3.249 -0.6508  0.3083  0.1197
 5029SOL    MW419890   5.277   2.042   3.270 -0.4970  0.3120  0.0782
 5030SOL     OW19891   3.649   5.447   5.165 -0.1760  0.2527  0.1497
 5030SOL    HW219892   3.673   5.506   5.237  1.4830 -0.8957  0.6144
 5030SOL    HW319893   3.727   5.393   5.152 -0.9550 -0.5339 -1.5696
 5030SOL    MW419894   3.662   5.447   5.173 -0.0599 -0.0026 -0.0158
 5031SOL     OW19895   0.448   1.372   4.186  0.2800 -0.2048  0.8743
 5031SOL    HW219896   0.358   1.405   4.193 -1.2662 -3.8597  0.3779
 5031SOL    HW319897   0.443   1.282   4.219  3.5683 -0.9133 -0.2030
 5031SOL    MW419898   0.435   1.364   4.192  0.5099 -0.7805  0.6667
 5032SOL     OW19899   4.668   5.855   1.888  0.1673 -0.4313  0.3737
 5032SOL    HW219900   4.688   5.931   1.834 -0.5935 -1.5648 -1.6497
 5032SOL    HW319901   4.743   5.796   1.875  0.7722 -0.0598  1.9517
 5032SOL    MW419902   4.681   5.857   1.879  0.1467 -0.5319  0.3149
 5033SOL     OW19903   2.893   4.157   3.244 -0.1846 -0.5413 -0.1888
 5033SOL    HW219904   2.984   4.158   3.213 -0.4471  0.6998 -0.9835
 5033SOL    HW319905   2.900   4.172   3.338  0.4081  0.7638 -0.4144
 5033SOL    MW419906   2.906   4.159   3.252 -0.1410 -0.2054 -0.3234
 5034SOL     OW19907   4.189   3.860   4.430  0.2247 -0.1948 -0.2326
 5034SOL    HW219908   4.102   3.822   4.423  0.6041 -0.7381 -2.5961
 5034SOL    HW319909   4.247   3.786   4.449  0.3695 -0.0471 -0.0837
 5034SOL    MW419910   4.185   3.845   4.432  0.2939 -0.2470 -0.5248
 5035SOL     OW19911   3.390   5.204   5.523 -0.3222 -0.2903 -0.3550
 5035SOL    HW219912   3.408   5.193   5.429  0.6240 -2.5280  0.0310
 5035SOL    HW319913   3.468   5.245   5.558  0.7838 -2.5097 -0.0502
 5035SOL    MW419914   3.402   5.208   5.515 -0.0514 -0.8783 -0.2638
 5036SOL     OW19915   2.368   0.103   3.605 -0.1784  0.0769 -0.1552
 5036SOL    HW219916   2.429   0.091   3.532  0.7944  1.3676  0.3981
 5036SOL    HW319917   2.294   0.047   3.584  0.8181 -0.8747 -1.2924
 5036SOL    MW419918   2.367   0.094   3.592  0.0814  0.1217 -0.2323
 5037SOL     OW19919   0.892   1.625   4.316 -0.3812 -0.0969  0.3592
 5037SOL    HW219920   0.925   1.623   4.406  1.1710 -0.8257 -0.1816
 5037SOL    HW319921   0.817   1.566   4.317  1.7420 -3.0628  0.4903
 5037SOL    MW419922   0.887   1.617   4.328  0.1037 -0.5844  0.3052
 5038SOL     OW19923   0.067   2.219   1.843 -0.1029  0.1916  0.3263
 5038SOL    HW219924   0.010   2.294   1.826  0.0014  0.2360  0.1695
 5038SOL    HW319925   0.009   2.144   1.842 -0.5098  0.4218  2.2113
 5038SOL    MW419926   0.052   2.219   1.841 -0.1429  0.2279  0.5543
 5039SOL     OW19927   0.605   3.237   0.153  0.3866  0.1746 -0.1207
 5039SOL    HW219928   0.681   3.288   0.128  0.4789  0.0513 -0.0945
 5039SOL    HW319929   0.562   3.289   0.221  1.2383 -0.4084  0.9028
 5039SOL    MW419930   0.609   3.250   0.159  0.5111  0.0814  0.0178
 5040SOL     OW19931   1.479   0.651   4.087  0.1794  0.1282  0.1392
 5040SOL    HW219932   1.523   0.706   4.022 -0.3401  0.1449 -0.2013
 5040SOL    HW319933   1.550   0.611   4.137  0.5826  1.7338  0.9288
 5040SOL    MW419934   1.494   0.653   4.085  0.1641  0.3422  0.1984
 5041SOL     OW19935   0.949   4.716   5.622  0.3710  0.2025  0.1029
 5041SOL    HW219936   0.857   4.739   5.633  0.7741  0.7511  3.1801
 5041SOL    HW319937   0.992   4.799   5.602  0.1509 -0.2072 -2.3721
 5041SOL    MW419938   0.943   4.730   5.621  0.3951  0.2208  0.1824
 5042SOL     OW19939   6.001   3.369   2.138 -0.4352  0.1985  0.6744
 5042SOL    HW219940   6.013   3.388   2.045  2.1511  1.2257  1.1348
 5042SOL    HW319941   6.061   3.296   2.156  0.6699  1.3430  1.9005
 5042SOL    MW419942   6.010   3.362   2.128  0.0518  0.4850  0.8969
 5043SOL     OW19943   4.681   1.298   2.812  0.0506  0.2679  0.1734
 5043SOL    HW219944   4.720   1.215   2.838 -0.4719 -0.2757 -0.6973
 5043SOL    HW319945   4.610   1.312   2.874 -0.6276 -0.5642 -0.3905
 5043SOL    MW419946   4.677   1.289   2.823 -0.1078  0.0864 -0.0159
 5044SOL     OW19947   0.068   6.137   3.378 -0.1417 -0.2966 -0.2502
 5044SOL    HW219948   0.131   6.077   3.419 -1.4750 -1.4454  0.2182
 5044SOL    HW319949   0.118   6.215   3.357  1.7781 -1.7057 -1.2187
 5044SOL    MW419950   0.083   6.139   3.381 -0.0644 -0.6341 -0.3162
 5045SOL     OW19951   4.397   3.556   1.771 -0.5386  0.2502  0.0314
 5045SOL    HW219952   4.488   3.530   1.785 -0.8906 -0.5318  0.9179
 5045SOL    HW319953   4.381   3.623   1.837 -1.5522 -1.9290  2.1490
 5045SOL    MW419954   4.407   3.561   1.781 -0.7188 -0.1405  0.4278
 5046SOL     OW19955   1.861   0.600   3.791 -0.0409 -0.6309  0.6095
 5046SOL    HW219956   1.903   0.669   3.741 -2.0800  0.2200 -0.0312
 5046SOL    HW319957   1.782   0.579   3.742 -1.6468 -0.4232  2.9359
 5046SOL    MW419958   1.856   0.606   3.778 -0.5218 -0.4912  0.8319
 5047SOL     OW19959   4.590   5.337   2.743  0.0889  0.0980 -0.4742
 5047SOL    HW219960   4.641   5.417   2.731 -0.1932  0.5276  1.0229
 5047SOL    HW319961   4.651   5.267   2.722  0.2072  0.6849 -2.2791
 5047SOL    MW419962   4.605   5.339   2.739  0.0673  0.2321 -0.5148
 5048SOL     OW19963   2.865   1.118   4.351 -0.3338 -0.1877 -0.4491
 5048SOL    HW219964   2.824   1.038   4.318 -0.4045  0.4619 -2.0173
 5048SOL    HW319965   2.805   1.188   4.327 -0.9238  0.2882  2.0508
 5048SOL    MW419966   2.852   1.117   4.344 -0.4210 -0.0392 -0.3262
 5049SOL     OW19967   2.481   4.155   1.080 -0.4761 -0.6868 -0.1222
 5049SOL    HW219968   2.553   4.105   1.042  0.5855  0.0377  0.8526
 5049SOL    HW319969   2.402   4.111   1.049  0.3451 -0.7801 -2.2184
 5049SOL    MW419970   2.480   4.142   1.071 -0.2277 -0.6035 -0.2701
 5050SOL     OW19971   0.059   1.536   0.342 -0.1110 -0.3991 -0.3337
 5050SOL    HW219972   0.052   1.598   0.270  1.0183  0.6503  0.4230
 5050SOL    HW319973   0.035   1.586   0.420  1.2265 -0.7598  0.3428
 5050SOL    MW419974   0.055   1.551   0.343  0.2145 -0.3082 -0.1446
 5051SOL     OW19975   1.654   4.570   2.128 -0.5730 -0.4089 -0.0583
 5051SOL    HW219976   1.559   4.576   2.135 -0.4565  1.3511  0.4521
 5051SOL    HW319977   1.687   4.645   2.177  1.1129 -1.3004  0.2519
 5051SOL    MW419978   1.646   4.581   2.135 -0.3352 -0.2943  0.0500
 5052SOL     OW19979   3.889   0.553   5.133 -0.0573 -0.6710 -0.0791
 5052SOL    HW219980   3.821   0.492   5.104 -0.3259 -1.4217  1.9373
 5052SOL    HW319981   3.904   0.529   5.225 -0.1467  2.2531  0.7977
 5052SOL    MW419982   3.882   0.542   5.141 -0.1045 -0.3842  0.3026
 5053SOL     OW19983   6.013   4.623   3.603  0.0853 -0.2481  0.4794
 5053SOL    HW219984   6.073   4.696   3.590 -1.1407  1.0548  1.7436
 5053SOL    HW319985   5.946   4.634   3.535 -0.2912  0.0303  0.8882
 5053SOL    MW419986   6.012   4.634   3.592 -0.1261 -0.0395  0.7001
 5054SOL     OW19987   1.310   1.012   0.178 -0.0611 -0.5029  0.2339
 5054SOL    HW219988   1.288   1.089   0.126 -2.4961 -1.1225  0.2338
 5054SOL    HW319989   1.329   1.046   0.265  0.1486  0.1885 -0.0774
 5054SOL    MW419990   1.310   1.027   0.182 -0.3547 -0.4935  0.1928
 5055SOL     OW19991   6.008   2.461   2.718  0.4726  0.4943 -0.4918
 5055SOL    HW219992   5.990   2.386   2.774 -0.6572  0.1592 -1.2621
 5055SOL    HW319993   6.103   2.473   2.723  0.3852  0.7290  1.7738
 5055SOL    MW419994   6.018   2.453   2.726  0.3120  0.4810 -0.2945
 5056SOL     OW19995   0.806   4.275   5.622  0.2875  0.2029  0.4882
 5056SOL    HW219996   0.846   4.257   5.707  1.0718 -1.8748 -0.2539
 5056SOL    HW319997   0.713   4.286   5.641  0.6959  1.7108  1.8146
 5056SOL    MW419998   0.799   4.274   5.636  0.4448  0.1277  0.5653
 5057SOL     OW19999   1.286   2.250   2.429 -0.3144  0.0871 -0.1584
 5057SOL    HW220000   1.202   2.241   2.383 -0.3955 -0.8366  0.1518
 5057SOL    HW320001   1.347   2.281   2.362 -0.0092 -2.8815 -1.4111
 5057SOL    MW420002   1.283   2.253   2.414 -0.2849 -0.4264 -0.2828
 5058SOL     OW20003   4.879   1.651   3.349 -0.1040 -0.5690 -0.6994
 5058SOL    HW220004   4.785   1.668   3.338 -0.3476  0.4261  1.9937
 5058SOL    HW320005   4.882   1.575   3.408  0.6156  1.1098  1.5955
 5058SOL    MW420006   4.867   1.643   3.356 -0.0412 -0.2162 -0.0413
 5059SOL     OW20007   6.027   5.762   1.698  0.3477  0.6239  0.2278
 5059SOL    HW220008   6.066   5.823   1.760 -0.0263  1.3926 -0.2793
 5059SOL    HW320009   6.042   5.802   1.612  1.3271 -0.6608 -0.2553
 5059SOL    MW420010   6.034   5.775   1.695  0.4276  0.5558  0.0972
 5060SOL     OW20011   1.343   3.360   4.579 -0.0793  0.3826  0.1185
 5060SOL    HW220012   1.314   3.396   4.496  0.6123  0.3621 -0.1324
 5060SOL    HW320013   1.337   3.265   4.567 -0.9972  0.3868  0.4599
 5060SOL    MW420014   1.338   3.352   4.567 -0.1092  0.3804  0.1304
 5061SOL     OW20015   1.262   3.417   3.123  0.1433 -0.3293  0.0285
 5061SOL    HW220016   1.304   3.458   3.047 -0.9460  2.2082  0.6701
 5061SOL    HW320017   1.286   3.325   3.117  3.3862  0.4565 -1.1819
 5061SOL    MW420018   1.271   3.410   3.112  0.4274  0.1091 -0.0466
 5062SOL     OW20019   1.102   4.211   0.069  0.2545 -0.2945 -0.1550
 5062SOL    HW220020   1.124   4.285   0.125  0.7626 -0.9792  0.5777
 5062SOL    HW320021   1.169   4.213   0.000  0.1536  0.0340 -0.2469
 5062SOL    MW420022   1.114   4.221   0.067  0.3082 -0.3415 -0.0704
 5063SOL     OW20023   5.155   3.648   3.734  0.2537  0.3922  0.0261
 5063SOL    HW220024   5.216   3.697   3.789  0.1450 -0.9634  1.4350
 5063SOL    HW320025   5.209   3.578   3.696 -0.4030 -0.9893  1.5062
 5063SOL    MW420026   5.170   3.645   3.736  0.1527  0.0311  0.4073
 5064SOL     OW20027   3.518   3.244   1.382 -0.4994 -0.0147 -0.0741
 5064SOL    HW220028   3.493   3.234   1.290 -0.0149  0.9270 -0.3199
 5064SOL    HW320029   3.582   3.175   1.397 -1.4507 -0.9260 -0.1023
 5064SOL    MW420030   3.523   3.234   1.372 -0.5610 -0.0107 -0.1103
 5065SOL     OW20031   1.871   4.335   2.796  0.4724 -0.0962 -0.3604
 5065SOL    HW220032   1.955   4.351   2.755 -0.8457  0.0530 -3.2388
 5065SOL    HW320033   1.872   4.242   2.817  2.2745  0.3834  2.1368
 5065SOL    MW420034   1.882   4.325   2.794  0.5363 -0.0132 -0.4107
 5066SOL     OW20035   5.940   5.338   4.287  0.2009 -0.0748  0.0158
 5066SOL    HW220036   5.985   5.420   4.268  3.2591 -1.3534  0.9641
 5066SOL    HW320037   5.941   5.291   4.203 -0.4400  0.3639 -0.2411
 5066SOL    MW420038   5.946   5.342   4.273  0.5199 -0.1856  0.1070
 5067SOL     OW20039   4.776   0.089   2.643  0.2503  0.4453 -0.2958
 5067SOL    HW220040   4.694   0.054   2.609 -0.1157  0.0539  0.9236
 5067SOL    HW320041   4.766   0.184   2.636 -0.0509  0.3832 -0.7273
 5067SOL    MW420042   4.763   0.097   2.638  0.1623  0.3855 -0.1918
 5068SOL     OW20043   0.820   1.743   0.900 -0.8354 -0.5307 -0.0780
 5068SOL    HW220044   0.731   1.779   0.898 -0.9577 -0.7770 -2.7610
 5068SOL    HW320045   0.876   1.815   0.874 -0.3715 -0.7147  0.3810
 5068SOL    MW420046   0.816   1.757   0.897 -0.7903 -0.5875 -0.3714
 5069SOL     OW20047   3.369   2.799   1.180  0.3989  0.3249 -0.2014
 5069SOL    HW220048   3.423   2.724   1.206  0.4825  0.6748  0.6691
 5069SOL    HW320049   3.338   2.836   1.263  0.5699  1.4135 -0.6105
 5069SOL    MW420050   3.372   2.794   1.195  0.4325  0.5147 -0.1405
 5070SOL     OW20051   4.264   1.898   3.390 -0.8200  0.2967  0.1628
 5070SOL    HW220052   4.285   1.851   3.471 -1.5574  0.6215  0.5543
 5070SOL    HW320053   4.297   1.987   3.404  1.5713 -0.3182 -1.0047
 5070SOL    MW420054   4.272   1.904   3.402 -0.6018  0.2584  0.0604
 5071SOL     OW20055   4.820   3.345   3.607  0.1995  0.0984  0.0189
 5071SOL    HW220056   4.850   3.394   3.683  1.1299 -0.7629  0.2304
 5071SOL    HW320057   4.807   3.412   3.539 -1.1281  0.9416  1.0418
 5071SOL    MW420058   4.822   3.360   3.608  0.1471  0.0960  0.1818
 5072SOL     OW20059   6.280   2.210   4.624 -0.3892  0.0681  0.5195
 5072SOL    HW220060   6.242   2.135   4.579 -0.5681  1.8079 -2.5498
 5072SOL    HW320061   6.366   2.221   4.584 -0.0646  1.0706  1.4408
 5072SOL    MW420062   6.286   2.202   4.613 -0.3700  0.4299  0.2361
 5073SOL     OW20063   2.020   2.025   1.225 -0.0806 -0.2605 -0.1195
 5073SOL    HW220064   2.060   1.965   1.288  1.0716  0.8377  0.2373
 5073SOL    HW320065   1.929   2.035   1.256  0.0489 -0.8826  0.4967
 5073SOL    MW420066   2.013   2.019   1.238  0.0886 -0.1977  0.0089
 5074SOL     OW20067   4.950   2.647   4.465 -0.3935 -0.3907 -1.1187
 5074SOL    HW220068   4.882   2.656   4.532 -0.5858 -0.8114 -1.2489
 5074SOL    HW320069   4.903   2.658   4.382  0.1213  1.9181 -1.1818
 5074SOL    MW420070   4.935   2.650   4.463 -0.3510 -0.1416 -1.1442
 5075SOL     OW20071   2.166   0.561   6.377  0.5511  0.2420 -0.3365
 5075SOL    HW220072   2.091   0.609   6.343  1.3032  1.7958  0.0965
 5075SOL    HW320073   2.137   0.470   6.382 -0.4433  0.3708 -2.5876
 5075SOL    MW420074   2.153   0.555   6.373  0.5191  0.4640 -0.5763
 5076SOL     OW20075   2.289   5.243   5.494 -0.1790  0.6122 -0.2501
 5076SOL    HW220076   2.273   5.194   5.575  0.5245  1.9127  0.7271
 5076SOL    HW320077   2.335   5.322   5.523 -1.8098  2.1787 -1.6530
 5076SOL    MW420078   2.293   5.247   5.509 -0.3014  0.9905 -0.3063
 5077SOL     OW20079   0.326   3.938   6.403  0.0673 -0.1114 -0.1594
 5077SOL    HW220080   0.391   3.894   6.348 -1.0201 -0.8426 -0.9290
 5077SOL    HW320081   0.359   4.027   6.415 -0.3098  0.5500 -3.2439
 5077SOL    MW420082   0.339   3.944   6.397 -0.1259 -0.1206 -0.6679
 5078SOL     OW20083   2.375   1.367   4.152  0.3183  0.2955 -0.7684
 5078SOL    HW220084   2.334   1.454   4.148 -0.1962  0.1240  0.2771
 5078SOL    HW320085   2.310   1.312   4.196  1.1810 -0.2807 -0.1770
 5078SOL    MW420086   2.361   1.371   4.157  0.3643  0.1968 -0.5524
 5079SOL     OW20087   4.534   2.599   4.493 -0.4057  0.6139 -0.4911
 5079SOL    HW220088   4.444   2.595   4.526 -0.0619 -1.3534  0.3406
 5079SOL    HW320089   4.563   2.508   4.492  1.5804  1.2083 -0.7892
 5079SOL    MW420090   4.526   2.586   4.497 -0.0983  0.4328 -0.4207
 5080SOL     OW20091   0.687   5.887   2.205 -0.1714 -0.4486 -0.6784
 5080SOL    HW220092   0.723   5.801   2.182 -1.8459 -1.3422 -0.0959
 5080SOL    HW320093   0.630   5.870   2.279  0.1136  1.3362 -0.0060
 5080SOL    MW420094   0.685   5.873   2.211 -0.3547 -0.3310 -0.5129
 5081SOL     OW20095   3.323   1.181   3.504 -0.0882  0.0248 -0.0087
 5081SOL    HW220096   3.413   1.165   3.532  0.2488  0.3120 -0.8876
 5081SOL    HW320097   3.315   1.276   3.501  0.1884  0.0238 -1.7576
 5081SOL    MW420098   3.333   1.191   3.507 -0.0072  0.0625 -0.3554
 5082SOL     OW20099   4.303   4.591   3.082  0.5572  0.1590  0.5836
 5082SOL    HW220100   4.399   4.590   3.078  0.5612  0.1656  0.6782
 5082SOL    HW320101   4.276   4.605   2.991  0.6580  0.9810  0.6717
 5082SOL    MW420102   4.312   4.593   3.069  0.5710  0.2683  0.6077
 5083SOL     OW20103   2.601   0.734   2.509  0.5636  0.4721  0.1990
 5083SOL    HW220104   2.594   0.801   2.441 -2.8585 -1.8194 -2.0389
 5083SOL    HW320105   2.667   0.673   2.476 -0.9243 -0.5131 -1.1206
 5083SOL    MW420106   2.609   0.735   2.496 -0.0842  0.0398 -0.2703
 5084SOL     OW20107   2.899   3.284   4.700 -0.5054 -0.2600 -0.9744
 5084SOL    HW220108   2.807   3.307   4.709  0.0105  1.7115 -0.1940
 5084SOL    HW320109   2.944   3.368   4.692  1.5051 -0.9589  1.5875
 5084SOL    MW420110   2.893   3.298   4.700 -0.1721 -0.0921 -0.5334
 5085SOL     OW20111   4.095   2.258   4.767  0.0855 -0.3063  0.3076
 5085SOL    HW220112   4.107   2.318   4.693  0.1030  0.1784  0.7004
 5085SOL    HW320113   4.041   2.306   4.829 -0.2303 -0.8444  0.4602
 5085SOL    MW420114   4.089   2.272   4.765  0.0461 -0.3134  0.3795
 5086SOL     OW20115   6.243   3.023   2.832  0.0682 -0.1029  0.5188
 5086SOL    HW220116   6.248   2.927   2.822 -2.0345 -0.4165  1.8096
 5086SOL    HW320117   6.187   3.036   2.909 -0.9875  2.1825 -0.5468
 5086SOL    MW420118   6.237   3.012   2.841 -0.3485  0.1573  0.5485
 5087SOL     OW20119   5.259   3.860   1.694 -0.5238  0.3765 -0.3267
 5087SOL    HW220120   5.259   3.921   1.767  0.2098  0.9279 -0.7655
 5087SOL    HW320121   5.271   3.915   1.616 -1.9451 -0.1224 -0.9411
 5087SOL    MW420122   5.261   3.875   1.693 -0.6145  0.3834 -0.4657
 5088SOL     OW20123   0.841   6.473   1.766  0.3357 -0.0139  0.0750
 5088SOL    HW220124   0.802   6.495   1.681  0.6840 -0.4169 -0.1950
 5088SOL    HW320125   0.799   6.533   1.828  0.3889  0.5876 -0.4510
 5088SOL    MW420126   0.831   6.484   1.763  0.3886  0.0123 -0.0301
 5089SOL     OW20127   3.864   2.422   2.088 -0.2544  0.1443 -0.2069
 5089SOL    HW220128   3.904   2.470   2.015  0.7582  0.0916  0.3055
 5089SOL    HW320129   3.809   2.488   2.131  0.1732  0.5331 -0.2382
 5089SOL    MW420130   3.862   2.437   2.084 -0.0643  0.1886 -0.1434
 5090SOL     OW20131   4.042   4.066   2.796 -0.1962 -0.0115 -0.6541
 5090SOL    HW220132   3.950   4.087   2.813 -0.1441  0.6450 -1.1433
 5090SOL    HW320133   4.089   4.145   2.823  0.4334 -1.0546  1.4765
 5090SOL    MW420134   4.036   4.079   2.802 -0.1063 -0.0625 -0.4375
 5091SOL     OW20135   0.326   2.844   0.473  0.0132 -0.0840 -0.3271
 5091SOL    HW220136   0.301   2.777   0.409  0.6721  0.6005 -1.3203
 5091SOL    HW320137   0.361   2.916   0.421  2.6185 -0.3575  0.8787
 5091SOL    MW420138   0.327   2.844   0.458  0.4438 -0.0298 -0.2990
 5092SOL     OW20139   1.766   6.220   1.400 -0.5372 -0.7279  0.5776
 5092SOL    HW220140   1.825   6.214   1.475  0.1214 -1.8379 -0.0155
 5092SOL    HW320141   1.688   6.171   1.426 -0.8800  0.0340  1.0366
 5092SOL    MW420142   1.763   6.213   1.413 -0.4956 -0.7738  0.5599
 5093SOL     OW20143   3.737   1.275   1.328 -0.2593  0.2256 -0.2969
 5093SOL    HW220144   3.654   1.283   1.282 -0.1505 -1.2598 -0.7891
 5093SOL    HW320145   3.762   1.183   1.318  0.7725  0.3341  1.0051
 5093SOL    MW420146   3.730   1.264   1.320 -0.1088  0.0439 -0.1900
 5094SOL     OW20147   1.755   2.844   6.012  0.2474  0.0688 -0.3547
 5094SOL    HW220148   1.791   2.824   6.098 -1.2542  1.6179  0.6975
 5094SOL    HW320149   1.697   2.771   5.993  1.2570 -0.7245 -0.5035
 5094SOL    MW420150   1.752   2.832   6.021  0.1825  0.1685 -0.2355
 5095SOL     OW20151   2.527   2.840   4.546  0.0583  0.4839 -0.0087
 5095SOL    HW220152   2.603   2.791   4.512 -0.2248 -0.4408  0.6579
 5095SOL    HW320153   2.490   2.783   4.613  0.6800  2.3125  2.0067
 5095SOL    MW420154   2.532   2.826   4.550  0.1029  0.6031  0.3452
 5096SOL     OW20155   4.371   0.200   5.625 -0.3117  0.6520 -0.2757
 5096SOL    HW220156   4.367   0.199   5.721 -0.5787  3.7393 -0.1436
 5096SOL    HW320157   4.291   0.156   5.598  0.4216 -1.5200  0.8246
 5096SOL    MW420158   4.360   0.194   5.634 -0.2501  0.7728 -0.1131
 5097SOL     OW20159   6.309   5.610   1.397  0.0130  0.9913 -0.0671
 5097SOL    HW220160   6.336   5.581   1.310  1.4181 -2.7969  1.3826
 5097SOL    HW320161   6.222   5.570   1.409  0.9046 -0.7783  1.0603
 5097SOL    MW420162   6.301   5.601   1.387  0.3160  0.2580  0.2729
 5098SOL     OW20163   2.385   5.223   4.129  0.2890  0.4754 -0.6163
 5098SOL    HW220164   2.440   5.145   4.130  0.7130  0.7676  0.2519
 5098SOL    HW320165   2.398   5.261   4.042  0.9081  0.1564 -0.6689
 5098SOL    MW420166   2.394   5.218   4.118  0.4267  0.4719 -0.5087
 5099SOL     OW20167   3.653   1.759   0.818  0.7189 -0.3008 -0.8270
 5099SOL    HW220168   3.593   1.688   0.841  0.6770 -0.0836 -0.2627
 5099SOL    HW320169   3.598   1.823   0.772  1.1460 -1.5507 -3.2308
 5099SOL    MW420170   3.638   1.758   0.815  0.7697 -0.4371 -1.0697
 5100SOL     OW20171   5.926   3.407   0.502 -0.0372 -0.8886  0.4721
 5100SOL    HW220172   5.896   3.497   0.505 -0.5328 -0.9079 -1.9271
 5100SOL    HW320173   5.854   3.358   0.462 -0.0218 -2.4842  2.2586
 5100SOL    MW420174   5.913   3.412   0.497 -0.1005 -1.1017  0.3913
 5101SOL     OW20175   6.312   6.142   1.758  0.8246 -0.1651 -0.1627
 5101SOL    HW220176   6.265   6.166   1.678  0.4914  0.7831  0.3050
 5101SOL    HW320177   6.401   6.126   1.729  0.6864  0.0877 -0.7401
 5101SOL    MW420178   6.317   6.143   1.743  0.7624 -0.0067 -0.1772
 5102SOL     OW20179   2.698   1.423   4.630 -0.6204 -0.7335 -0.2062
 5102SOL    HW220180   2.783   1.390   4.659  0.3931  1.3510 -0.6172
 5102SOL    HW320181   2.719   1.484   4.559 -2.6711 -2.1427 -2.1701
 5102SOL    MW420182   2.712   1.427   4.624 -0.7573 -0.6444 -0.5196
 5103SOL     OW20183   4.548   1.827   2.584  0.0627 -0.3240  0.1663
 5103SOL    HW220184   4.458   1.827   2.549 -0.2729  0.6428  0.9592
 5103SOL    HW320185   4.577   1.918   2.573  0.7413 -0.5092  0.4115
 5103SOL    MW420186   4.540   1.839   2.578  0.1079 -0.2208  0.3033
 5104SOL     OW20187   6.422   3.762   4.910  0.0086 -0.7166 -0.0134
 5104SOL    HW220188   6.453   3.837   4.961  0.3746 -0.2557 -0.8846
 5104SOL    HW320189   6.337   3.790   4.875  0.7579 -0.1567 -1.4568
 5104SOL    MW420190   6.415   3.775   4.912  0.1557 -0.5819 -0.3188
 5105SOL     OW20191   5.897   2.776   3.590  0.0453  0.1559  0.2324
 5105SOL    HW220192   5.825   2.838   3.581 -0.4944 -0.7157 -2.1814
 5105SOL    HW320193   5.894   2.750   3.682 -3.7671 -1.0245 -0.0414
 5105SOL    MW420194   5.887   2.781   3.601 -0.5289 -0.1148 -0.1222
 5106SOL     OW20195   3.766   4.228   2.810  0.5778  0.1598 -0.2288
 5106SOL    HW220196   3.817   4.291   2.760  0.6380 -0.8756 -1.5317
 5106SOL    HW320197   3.730   4.169   2.744 -0.7015 -0.2882  0.8306
 5106SOL    MW420198   3.768   4.229   2.795  0.4170 -0.0359 -0.2609
 5107SOL     OW20199   0.150   5.549   2.102  0.0027  0.2724  0.0093
 5107SOL    HW220200   0.069   5.578   2.143  0.8829  1.2391  1.1436
 5107SOL    HW320201   0.187   5.485   2.164  0.4946  0.4312 -0.1124
 5107SOL    MW420202   0.144   5.544   2.116  0.1837  0.4209  0.1429
 5108SOL     OW20203   3.412   2.543   2.977  0.1890 -0.1840  0.0098
 5108SOL    HW220204   3.484   2.485   2.953  1.0019  1.1613 -0.9067
 5108SOL    HW320205   3.351   2.538   2.903  0.5235  0.5165 -0.3251
 5108SOL    MW420206   3.414   2.535   2.964  0.3404  0.0860 -0.1553
 5109SOL     OW20207   4.867   4.733   3.601 -0.2377 -0.1621 -0.7023
 5109SOL    HW220208   4.816   4.697   3.673  0.2461  1.6099  0.6226
 5109SOL    HW320209   4.834   4.690   3.523 -1.9826 -0.9010  0.3908
 5109SOL    MW420210   4.856   4.723   3.600 -0.4041 -0.0258 -0.3833
 5110SOL     OW20211   0.520   0.423   2.358 -0.0140  0.1858 -0.9086
 5110SOL    HW220212   0.551   0.344   2.402  1.5559  1.7264  0.9036
 5110SOL    HW320213   0.586   0.440   2.290  1.0986  1.3130  0.4016
 5110SOL    MW420214   0.533   0.415   2.355  0.3399  0.5378 -0.4966
 5111SOL     OW20215   3.901   5.751   4.180  0.1067 -0.2847 -0.3663
 5111SOL    HW220216   3.846   5.673   4.195  0.7840 -0.7585 -0.2803
 5111SOL    HW320217   3.958   5.726   4.108 -2.4198  1.6208 -3.2476
 5111SOL    MW420218   3.901   5.737   4.173 -0.1373 -0.0958 -0.7351
 5112SOL     OW20219   0.235   1.948   0.296 -0.1786  0.0852  0.1280
 5112SOL    HW220220   0.170   1.957   0.367 -0.3331  1.5634 -0.1659
 5112SOL    HW320221   0.252   2.038   0.268  0.8821 -0.3915 -0.8281
 5112SOL    MW420222   0.228   1.961   0.302 -0.0590  0.2173 -0.0370
 5113SOL     OW20223   5.703   6.463   1.158  0.1462  0.1510 -0.5538
 5113SOL    HW220224   5.710   6.381   1.109  0.5942  0.5755 -1.2157
 5113SOL    HW320225   5.617   6.459   1.199  0.3763 -0.8924 -0.1254
 5113SOL    MW420226   5.693   6.452   1.157  0.2356  0.0693 -0.5846
 5114SOL     OW20227   6.303   4.764   3.150  0.5967  0.2085 -0.3487
 5114SOL    HW220228   6.270   4.699   3.213 -0.0964  1.4620  0.6321
 5114SOL    HW320229   6.391   4.785   3.182  0.6849  0.0254 -0.4663
 5114SOL    MW420230   6.310   4.758   3.163  0.5169  0.3498 -0.2348
 5115SOL     OW20231   0.906   1.418   1.417 -0.1760 -0.5560 -0.1218
 5115SOL    HW220232   0.867   1.406   1.504  0.3394 -0.1304  0.1748
 5115SOL    HW320233   1.000   1.417   1.433 -0.0747  0.6702 -0.5068
 5115SOL    MW420234   0.913   1.416   1.431 -0.0946 -0.3381 -0.1335
 5116SOL     OW20235   2.088   4.375   4.940  0.4042 -0.5877 -0.0270
 5116SOL    HW220236   2.126   4.449   4.892  0.0172  1.1605  2.1831
 5116SOL    HW320237   2.156   4.349   5.002 -0.6352  0.1916  1.4994
 5116SOL    MW420238   2.102   4.382   4.942  0.2160 -0.2542  0.4660
 5117SOL     OW20239   2.454   6.356   1.225  0.2364  0.0236 -0.6145
 5117SOL    HW220240   2.449   6.320   1.136  0.7263 -0.3432 -0.4951
 5117SOL    HW320241   2.547   6.358   1.245  0.1548  0.5086 -0.2685
 5117SOL    MW420242   2.466   6.352   1.216  0.2902  0.0392 -0.5531
 5118SOL     OW20243   0.439   2.279   6.393  0.1127 -0.9907 -0.5216
 5118SOL    HW220244   0.518   2.297   6.445 -0.7434 -1.9195  1.1794
 5118SOL    HW320245   0.463   2.204   6.339  0.9952 -0.0589 -1.4738
 5118SOL    MW420246   0.453   2.272   6.393  0.1162 -0.9903 -0.4228
 5119SOL     OW20247   0.464   1.618   4.798  0.1324 -0.4058  0.0646
 5119SOL    HW220248   0.473   1.593   4.706 -1.6766 -0.1292 -0.2344
 5119SOL    HW320249   0.539   1.578   4.842  0.5185 -1.3316 -1.3767
 5119SOL    MW420250   0.475   1.609   4.792 -0.0553 -0.4914 -0.1650
 5120SOL     OW20251   4.152   0.216   4.385  0.3781  0.6248  0.0390
 5120SOL    HW220252   4.065   0.238   4.419  0.6351  1.3411  0.2614
 5120SOL    HW320253   4.207   0.211   4.463  0.6346  0.6439 -0.1415
 5120SOL    MW420254   4.147   0.218   4.399  0.4459  0.7218  0.0445
 5121SOL     OW20255   1.305   0.606   0.288 -0.4612  0.2185  0.5867
 5121SOL    HW220256   1.292   0.533   0.228 -0.0356  0.5298  0.1067
 5121SOL    HW320257   1.388   0.588   0.331  0.9196  1.6149 -1.3279
 5121SOL    MW420258   1.314   0.594   0.286 -0.2229  0.4438  0.2707
 5122SOL     OW20259   3.870   1.091   4.345  0.2891  0.0131 -0.1094
 5122SOL    HW220260   3.845   1.173   4.303 -2.3005  0.1284  1.4245
 5122SOL    HW320261   3.896   1.117   4.434 -1.1875 -0.8214  0.6044
 5122SOL    MW420262   3.870   1.105   4.351 -0.2474 -0.0818  0.1871
 5123SOL     OW20263   5.687   3.709   2.845 -0.6830  0.6393 -0.3706
 5123SOL    HW220264   5.645   3.685   2.927  1.3267  0.3890  0.6662
 5123SOL    HW320265   5.715   3.625   2.807  0.0163  0.8581 -0.3635
 5123SOL    MW420266   5.685   3.695   2.851 -0.3256  0.6351 -0.2329
 5124SOL     OW20267   5.360   4.326   3.680  0.5677  0.1172 -0.2902
 5124SOL    HW220268   5.364   4.400   3.740  0.1321 -0.3338  0.3097
 5124SOL    HW320269   5.424   4.346   3.612 -1.0827  2.1191 -1.3741
 5124SOL    MW420270   5.369   4.338   3.679  0.2925  0.3218 -0.3540
 5125SOL     OW20271   5.954   0.927   0.923 -0.7686  0.2984  0.1577
 5125SOL    HW220272   5.917   0.951   1.008 -0.8109 -0.5079  0.3734
 5125SOL    HW320273   5.952   0.832   0.921  1.5000  0.1819  0.2745
 5125SOL    MW420274   5.949   0.918   0.934 -0.4749  0.1766  0.2015
 5126SOL     OW20275   2.469   5.437   3.495  0.5947 -0.3467 -0.2926
 5126SOL    HW220276   2.440   5.366   3.552 -0.8703  0.5203  0.1192
 5126SOL    HW320277   2.420   5.423   3.414  1.3063 -0.5510 -0.6888
 5126SOL    MW420278   2.459   5.426   3.492  0.4953 -0.2592 -0.2905
 5127SOL     OW20279   3.567   4.651   0.667 -0.3268 -0.0571  0.3637
 5127SOL    HW220280   3.537   4.619   0.752  0.7155 -2.0006  0.0506
 5127SOL    HW320281   3.631   4.719   0.688  0.2715 -0.8508  1.1544
 5127SOL    MW420282   3.572   4.656   0.681 -0.1103 -0.4182  0.4267
 5128SOL     OW20283   3.330   6.384   1.798  0.1280 -0.2780  0.2517
 5128SOL    HW220284   3.354   6.455   1.739  0.8483  0.6977  1.6572
 5128SOL    HW320285   3.414   6.349   1.830 -0.2388 -0.8403  0.6255
 5128SOL    MW420286   3.344   6.389   1.795  0.1746 -0.2234  0.4864
 5129SOL     OW20287   0.130   4.494   2.304  0.0980  0.0679 -0.2508
 5129SOL    HW220288   0.044   4.521   2.273 -0.6458 -1.1233  0.6681
 5129SOL    HW320289   0.114   4.457   2.391  1.3652 -1.0887 -0.4591
 5129SOL    MW420290   0.117   4.492   2.311  0.1670 -0.2419 -0.1570
 5130SOL     OW20291   1.519   5.085   3.778 -0.0660 -0.0971 -0.1392
 5130SOL    HW220292   1.519   5.094   3.873 -0.6683 -0.7352 -0.0716
 5130SOL    HW320293   1.441   5.131   3.749  0.6347  0.9426 -0.4244
 5130SOL    MW420294   1.509   5.092   3.787 -0.0530 -0.0441 -0.1679
 5131SOL     OW20295   2.940   4.787   0.712 -0.0879 -0.4461 -0.1763
 5131SOL    HW220296   2.994   4.716   0.679 -0.2448 -0.7942  0.2992
 5131SOL    HW320297   2.918   4.839   0.634  1.5112  0.1296 -0.2844
 5131SOL    MW420298   2.944   4.784   0.697  0.1024 -0.4161 -0.1278
 5132SOL     OW20299   1.875   3.932   3.081  0.2600 -0.7227  0.2851
 5132SOL    HW220300   1.958   3.980   3.089  1.4426 -2.7170  0.7471
 5132SOL    HW320301   1.814   3.980   3.135  1.4719  0.1089  0.9654
 5132SOL    MW420302   1.878   3.944   3.089  0.5759 -0.8761  0.4358
 5133SOL     OW20303   5.763   2.345   2.223 -0.4591  0.5069 -0.3543
 5133SOL    HW220304   5.815   2.295   2.286  0.0217  0.7970 -0.5153
 5133SOL    HW320305   5.716   2.279   2.172 -0.1087  0.2371 -0.3258
 5133SOL    MW420306   5.763   2.330   2.225 -0.3494  0.5095 -0.3718
 5134SOL     OW20307   4.468   0.940   0.656 -0.0797 -0.0755  0.1569
 5134SOL    HW220308   4.549   0.991   0.648 -0.0275  0.0257  1.2276
 5134SOL    HW320309   4.443   0.949   0.748 -0.4215 -1.4565  0.2111
 5134SOL    MW420310   4.476   0.948   0.667 -0.1180 -0.2443  0.3053
 5135SOL     OW20311   1.834   0.545   2.950 -0.0389  0.6904  0.2510
 5135SOL    HW220312   1.917   0.506   2.922  0.6312  1.9877  0.3272
 5135SOL    HW320313   1.772   0.523   2.880  0.3160 -0.4304  0.2752
 5135SOL    MW420314   1.837   0.537   2.937  0.0963  0.7137  0.2643
 5136SOL     OW20315   5.577   2.776   3.171 -0.5214  0.9459 -0.0029
 5136SOL    HW220316   5.560   2.783   3.077  1.3530 -1.1589 -0.5860
 5136SOL    HW320317   5.507   2.719   3.204  1.3354 -2.2467 -1.1285
 5136SOL    MW420318   5.565   2.769   3.163 -0.0292  0.2469 -0.2283
 5137SOL     OW20319   0.875   3.107   6.206 -0.2289  1.0892 -0.5236
 5137SOL    HW220320   0.962   3.138   6.232  0.3501  1.5998 -2.8409
 5137SOL    HW320321   0.892   3.022   6.164 -0.9243  0.8872 -0.4028
 5137SOL    MW420322   0.889   3.100   6.204 -0.2443  1.1299 -0.8134
 5138SOL     OW20323   3.463   3.655   3.588  0.2915  0.1110  0.1056
 5138SOL    HW220324   3.430   3.641   3.677 -0.1912  0.8255  0.0471
 5138SOL    HW320325   3.554   3.626   3.591  0.5833  1.0575  1.1039
 5138SOL    MW420326   3.471   3.649   3.600  0.2663  0.3302  0.2296
 5139SOL     OW20327   3.821   0.376   1.744  0.0745  0.1805  0.1048
 5139SOL    HW220328   3.748   0.320   1.717  0.5084  0.5472 -1.9355
 5139SOL    HW320329   3.868   0.323   1.808 -1.7355 -0.2148  1.2062
 5139SOL    MW420330   3.817   0.362   1.749 -0.1070  0.1767 -0.0191
 5140SOL     OW20331   6.419   2.507   4.637 -0.6382 -0.0028 -0.4974
 5140SOL    HW220332   6.339   2.559   4.632 -1.0423 -0.6229 -0.5547
 5140SOL    HW320333   6.415   2.449   4.561 -0.6607 -0.7743  0.0786
 5140SOL    MW420334   6.408   2.506   4.626 -0.6945 -0.1864 -0.4290
 5141SOL     OW20335   2.143   4.291   3.893 -0.3483 -0.0255  0.1482
 5141SOL    HW220336   2.218   4.301   3.952 -0.1436  2.1062 -0.3810
 5141SOL    HW320337   2.097   4.214   3.926  1.2434 -0.4980  1.4090
 5141SOL    MW420338   2.147   4.282   3.905 -0.1113  0.1934  0.2447
 5142SOL     OW20339   5.352   1.733   0.464 -0.2168 -0.2336 -0.4266
 5142SOL    HW220340   5.426   1.674   0.475  0.0117 -0.6900 -3.4992
 5142SOL    HW320341   5.386   1.806   0.412 -1.5917  0.1686 -0.8259
 5142SOL    MW420342   5.366   1.735   0.458 -0.3680 -0.2407 -0.8846
 5143SOL     OW20343   4.110   3.656   4.710  0.3062  0.3567  0.3955
 5143SOL    HW220344   4.199   3.690   4.702  0.8077 -1.3061 -1.7997
 5143SOL    HW320345   4.085   3.679   4.800  2.7901  1.1692  0.9774
 5143SOL    MW420346   4.118   3.664   4.721  0.7001  0.2445  0.1827
 5144SOL     OW20347   2.069   3.436   3.540  0.5845 -0.2920 -0.0434
 5144SOL    HW220348   2.058   3.470   3.451 -0.2313  0.0618  0.1821
 5144SOL    HW320349   2.074   3.514   3.595 -2.7194 -0.4279  0.6457
 5144SOL    MW420350   2.068   3.451   3.535  0.0409 -0.2633  0.0773
 5145SOL     OW20351   2.815   2.700   4.017 -0.5315 -0.0185  0.1969
 5145SOL    HW220352   2.832   2.648   3.938  0.3060 -1.5640  1.3272
 5145SOL    HW320353   2.852   2.786   3.998  3.4054 -1.4823  0.2893
 5145SOL    MW420354   2.822   2.704   4.004  0.0984 -0.4155  0.3582
 5146SOL     OW20355   2.243   5.072   0.404  0.1662 -0.4944  0.0598
 5146SOL    HW220356   2.266   5.129   0.331  0.2388 -0.3052  0.2310
 5146SOL    HW320357   2.186   5.005   0.365 -1.0355  0.4671  0.1077
 5146SOL    MW420358   2.238   5.070   0.389  0.0172 -0.3426  0.0887
 5147SOL     OW20359   4.674   1.037   3.627 -0.0028 -0.1304 -0.2763
 5147SOL    HW220360   4.605   1.096   3.597  0.1585 -0.1678 -0.7362
 5147SOL    HW320361   4.678   0.969   3.559  0.7986  0.1175 -0.4822
 5147SOL    MW420362   4.666   1.036   3.614  0.1242 -0.1026 -0.3642
 5148SOL     OW20363   6.334   1.905   0.684  0.5971 -0.3238 -0.4632
 5148SOL    HW220364   6.394   1.901   0.758  2.4034  1.5175 -1.7306
 5148SOL    HW320365   6.353   1.826   0.634 -2.2252 -2.8454  1.9813
 5148SOL    MW420366   6.344   1.894   0.687  0.4630 -0.4135 -0.3079
 5149SOL     OW20367   0.523   5.317   1.763  0.3662 -0.1580 -0.2367
 5149SOL    HW220368   0.580   5.300   1.688  0.6252  1.8822 -0.5659
 5149SOL    HW320369   0.536   5.242   1.821  1.1201 -1.1659 -1.6495
 5149SOL    MW420370   0.532   5.305   1.761  0.4998 -0.0218 -0.4665
 5150SOL     OW20371   3.436   1.140   2.857 -0.0808 -0.1301  0.4519
 5150SOL    HW220372   3.508   1.190   2.896  0.2949 -0.3996  0.1104
 5150SOL    HW320373   3.431   1.060   2.910 -0.4691  0.1196  0.7964
 5150SOL    MW420374   3.445   1.136   2.870 -0.0824 -0.1327  0.4523
 5151SOL     OW20375   4.668   3.041   5.054 -0.4894 -0.0286 -0.0009
 5151SOL    HW220376   4.742   3.018   4.998  0.0020 -1.6258  1.2374
 5151SOL    HW320377   4.698   3.120   5.100  0.8046 -1.1023  1.0745
 5151SOL    MW420378   4.682   3.048   5.053 -0.2538 -0.3810  0.3043
 5152SOL     OW20379   2.509   1.160   1.280  0.2870 -0.0290  0.6637
 5152SOL    HW220380   2.549   1.189   1.199  0.7798  0.9776  1.2474
 5152SOL    HW320381   2.495   1.066   1.268  0.1556  0.1492 -0.6514
 5152SOL    MW420382   2.512   1.152   1.268  0.3347  0.1273  0.5672
 5153SOL     OW20383   4.462   1.345   2.967 -0.2981  0.1731 -0.3581
 5153SOL    HW220384   4.413   1.266   2.949 -1.9893  0.8001  1.2169
 5153SOL    HW320385   4.397   1.415   2.966  1.0133  1.4509 -0.9049
 5153SOL    MW420386   4.447   1.344   2.964 -0.3482  0.4244 -0.2225
 5154SOL     OW20387   2.198   6.019   2.639 -0.2278  0.4696 -0.2940
 5154SOL    HW220388   2.112   6.025   2.598 -0.1648 -1.2892 -0.7648
 5154SOL    HW320389   2.180   6.009   2.732 -0.5644 -0.4308 -0.4489
 5154SOL    MW420390   2.185   6.019   2.645 -0.2639  0.1187 -0.3766
 5155SOL     OW20391   5.325   2.303   1.928  0.0607 -0.5360  0.6805
 5155SOL    HW220392   5.333   2.360   1.852  2.3070 -0.7971  0.6703
 5155SOL    HW320393   5.369   2.350   1.999  0.8986 -1.6968  0.9705
 5155SOL    MW420394   5.332   2.317   1.927  0.4676 -0.7236  0.7174
 5156SOL     OW20395   5.282   5.471   4.857 -0.1395 -0.4825 -0.3203
 5156SOL    HW220396   5.241   5.428   4.932  2.0293  0.1634  1.3633
 5156SOL    HW320397   5.238   5.556   4.850 -2.8763 -1.9198 -2.2273
 5156SOL    MW420398   5.271   5.477   4.866 -0.2144 -0.5869 -0.3498
 5157SOL     OW20399   5.752   4.163   1.968  0.2945 -0.3685 -0.5749
 5157SOL    HW220400   5.782   4.107   1.897  1.2952  0.4244 -0.8011
 5157SOL    HW320401   5.796   4.127   2.046  0.8047 -0.0122 -0.6931
 5157SOL    MW420402   5.762   4.151   1.969  0.4938 -0.2169 -0.6204
 5158SOL     OW20403   5.026   5.121   2.866  0.4680  0.4491 -0.2841
 5158SOL    HW220404   5.074   5.038   2.860  0.8485  0.6902 -0.6024
 5158SOL    HW320405   4.942   5.103   2.823  0.6375  0.2893 -0.5521
 5158SOL    MW420406   5.021   5.107   2.860  0.5406  0.4598 -0.3615
 5159SOL     OW20407   1.070   1.607   5.019 -0.3152  0.4748  0.0177
 5159SOL    HW220408   1.062   1.653   4.935  1.2936 -0.0282 -0.4590
 5159SOL    HW320409   1.164   1.606   5.037 -0.1126 -3.1834 -0.3779
 5159SOL    MW420410   1.081   1.613   5.010 -0.0762 -0.0742 -0.0974
 5160SOL     OW20411   3.671   3.107   2.905  0.0826  0.3351 -0.1856
 5160SOL    HW220412   3.624   3.162   2.967  0.6649  0.0444  0.5336
 5160SOL    HW320413   3.752   3.083   2.951  1.4216  1.6395 -1.7449
 5160SOL    MW420414   3.675   3.111   2.919  0.3361  0.4688 -0.2965
 5161SOL     OW20415   5.844   2.998   5.880  0.1262 -0.2357 -0.5045
 5161SOL    HW220416   5.816   2.908   5.862 -0.6839 -0.4361  1.4528
 5161SOL    HW320417   5.924   3.009   5.829  0.5158 -2.2437 -0.4279
 5161SOL    MW420418   5.851   2.988   5.871  0.0707 -0.5271 -0.2362
 5162SOL     OW20419   3.995   5.072   4.769 -0.6225  0.3142 -0.5915
 5162SOL    HW220420   3.937   5.122   4.712 -0.2158  0.9813 -0.4311
 5162SOL    HW320421   3.936   5.016   4.820 -1.0535  0.3784 -1.0139
 5162SOL    MW420422   3.980   5.071   4.768 -0.6257  0.4107 -0.6261
 5163SOL     OW20423   4.204   0.758   4.017  0.3513  0.3817  0.1129
 5163SOL    HW220424   4.161   0.839   3.989  0.0571 -0.4581 -2.0280
 5163SOL    HW320425   4.284   0.754   3.964 -0.0560 -1.1324 -0.4270
 5163SOL    MW420426   4.209   0.768   4.006  0.2588  0.0711 -0.2408
 5164SOL     OW20427   2.340   1.879   1.866  0.0784 -0.0272  0.1792
 5164SOL    HW220428   2.404   1.944   1.897 -1.3780  0.2442  2.9267
 5164SOL    HW320429   2.392   1.803   1.842  1.6410  1.2537 -0.6362
 5164SOL    MW420430   2.355   1.878   1.867  0.0924  0.1776  0.4341
 5165SOL     OW20431   2.572   1.399   3.235 -0.2468  0.0075 -0.6174
 5165SOL    HW220432   2.531   1.324   3.192  0.4081 -0.2432 -0.8306
 5165SOL    HW320433   2.657   1.407   3.192 -0.0496  0.4724 -0.1513
 5165SOL    MW420434   2.578   1.390   3.224 -0.1344  0.0358 -0.5841
 5166SOL     OW20435   1.764   5.520   2.910 -0.3869  0.8133 -0.2449
 5166SOL    HW220436   1.811   5.594   2.870  0.5611  1.1607  1.4229
 5166SOL    HW320437   1.713   5.560   2.981  0.2344 -0.1292  0.7577
 5166SOL    MW420438   1.763   5.535   2.914 -0.1799  0.7348  0.1074
 5167SOL     OW20439   5.363   0.310   2.882 -0.0234  0.0186  0.3176
 5167SOL    HW220440   5.314   0.327   2.962  1.1980  1.5410  0.7817
 5167SOL    HW320441   5.344   0.385   2.826  0.6775 -0.0693 -0.0449
 5167SOL    MW420442   5.354   0.322   2.885  0.2303  0.2078  0.3310
 5168SOL     OW20443   3.312   4.058   5.281  0.3271  0.3945 -0.5975
 5168SOL    HW220444   3.330   3.999   5.353  0.1939 -1.2202 -1.8389
 5168SOL    HW320445   3.341   4.144   5.312  2.2572 -0.6301  0.5607
 5168SOL    MW420446   3.318   4.062   5.295  0.5642  0.0463 -0.6085
 5169SOL     OW20447   2.178   1.230   0.414  0.6166 -0.1879  0.0995
 5169SOL    HW220448   2.109   1.205   0.475  0.9954 -0.9151  0.2324
 5169SOL    HW320449   2.137   1.223   0.327 -0.1943  1.6950  0.2688
 5169SOL    MW420450   2.164   1.226   0.410  0.5596 -0.0355  0.1394
 5170SOL     OW20451   5.259   3.515   1.792  0.1561 -0.3393  0.3367
 5170SOL    HW220452   5.352   3.521   1.769  0.0753 -1.5275 -0.4415
 5170SOL    HW320453   5.218   3.482   1.712 -0.6494 -1.5324  1.2151
 5170SOL    MW420454   5.266   3.511   1.778  0.0391 -0.6535  0.3499
 5171SOL     OW20455   1.781   0.678   0.063 -0.0264 -0.1217 -0.1773
 5171SOL    HW220456   1.722   0.749   0.089 -0.4328 -0.2174 -0.8080
 5171SOL    HW320457   1.773   0.613   0.132  0.1204  0.3186  0.2549
 5171SOL    MW420458   1.772   0.679   0.075 -0.0607 -0.0762 -0.2035
 5172SOL     OW20459   6.111   4.319   3.121 -0.2474 -0.1703 -0.4841
 5172SOL    HW220460   6.076   4.305   3.209  1.6453 -0.0633  0.3283
 5172SOL    HW320461   6.067   4.398   3.089 -0.6716  0.0096  0.5235
 5172SOL    MW420462   6.101   4.328   3.128 -0.0536 -0.1325 -0.2440
 5173SOL     OW20463   4.322   2.580   3.042 -0.3530 -0.3853 -0.3498
 5173SOL    HW220464   4.300   2.670   3.018 -0.8114 -0.2964  0.3754
 5173SOL    HW320465   4.416   2.572   3.022  0.1439  0.8352  1.3008
 5173SOL    MW420466   4.332   2.590   3.036 -0.3479 -0.2125 -0.0363
 5174SOL     OW20467   1.947   4.749   4.481 -0.1414 -0.2283  0.0718
 5174SOL    HW220468   1.900   4.751   4.398 -0.1410 -1.1622  0.0420
 5174SOL    HW320469   1.992   4.665   4.481 -1.1695 -0.8296  1.5604
 5174SOL    MW420470   1.947   4.738   4.470 -0.2770 -0.4309  0.2643
 5175SOL     OW20471   4.802   1.050   4.622 -0.3008 -0.6765 -0.0664
 5175SOL    HW220472   4.731   0.996   4.586 -0.3144  0.4189 -1.8135
 5175SOL    HW320473   4.842   1.091   4.545 -1.1015  2.8279  1.2005
 5175SOL    MW420474   4.798   1.048   4.607 -0.4083 -0.0696 -0.1298
 5176SOL     OW20475   2.428   3.578   3.641 -0.1039 -0.2133  0.7339
 5176SOL    HW220476   2.339   3.613   3.650  0.6950  1.8945  1.0349
 5176SOL    HW320477   2.415   3.486   3.618 -2.3579  0.0648  0.6247
 5176SOL    MW420478   2.414   3.571   3.639 -0.2959  0.1015  0.7592
 5177SOL     OW20479   1.398   6.164   1.819 -0.3538 -0.5050 -0.1729
 5177SOL    HW220480   1.376   6.194   1.730 -1.0369 -0.1637  0.1050
 5177SOL    HW320481   1.478   6.113   1.807 -0.2347 -0.1664 -0.9367
 5177SOL    MW420482   1.405   6.161   1.805 -0.4282 -0.4153 -0.2370
 5178SOL     OW20483   0.244   1.596   2.340 -0.2759  0.0269  0.3503
 5178SOL    HW220484   0.182   1.561   2.403 -2.0160  0.8770 -0.8032
 5178SOL    HW320485   0.216   1.561   2.256 -0.5281  2.0715 -0.4940
 5178SOL    MW420486   0.232   1.587   2.337 -0.5387  0.4088  0.0867
 5179SOL     OW20487   0.602   0.368   3.620 -0.3967  0.0230 -0.0023
 5179SOL    HW220488   0.536   0.420   3.666  2.4002  3.3318  0.7238
 5179SOL    HW320489   0.644   0.317   3.689  1.5679  2.4512  0.7595
 5179SOL    MW420490   0.599   0.368   3.635  0.2315  0.7799  0.1940
 5180SOL     OW20491   5.597   5.506   5.860  0.0044 -0.3920  0.1193
 5180SOL    HW220492   5.659   5.434   5.847  0.1844  0.0206 -1.3605
 5180SOL    HW320493   5.515   5.462   5.883  0.2992 -1.0411 -0.0534
 5180SOL    MW420494   5.594   5.490   5.862  0.0671 -0.4232 -0.0987
 5181SOL     OW20495   4.347   2.447   1.368 -0.4688  0.2078 -0.2221
 5181SOL    HW220496   4.436   2.432   1.336 -0.2996  0.8539 -0.0686
 5181SOL    HW320497   4.298   2.370   1.339  0.5139 -0.9891  1.1831
 5181SOL    MW420498   4.352   2.435   1.360 -0.3168  0.1351 -0.0164
 5182SOL     OW20499   0.712   3.217   4.882 -0.7020  0.2469 -0.3771
 5182SOL    HW220500   0.794   3.187   4.922 -1.0183  0.7849  0.7072
 5182SOL    HW320501   0.684   3.143   4.827 -0.1902 -0.4774  0.3091
 5182SOL    MW420502   0.719   3.203   4.880 -0.6762  0.2223 -0.1435
 5183SOL     OW20503   1.172   6.116   2.006  0.4358 -0.1280  0.2346
 5183SOL    HW220504   1.239   6.133   1.940  0.5262 -0.0928  0.3355
 5183SOL    HW320505   1.155   6.022   1.999  0.5005 -0.1379  0.2134
 5183SOL    MW420506   1.179   6.106   1.996  0.4562 -0.1247  0.2451
 5184SOL     OW20507   0.559   2.521   1.348 -0.4953  0.1270 -0.3983
 5184SOL    HW220508   0.487   2.482   1.398  1.3335 -2.1257  0.6969
 5184SOL    HW320509   0.589   2.451   1.291  2.6842 -0.1100  1.3347
 5184SOL    MW420510   0.553   2.507   1.347  0.1655 -0.2014 -0.0251
 5185SOL     OW20511   1.945   2.178   0.253 -0.2649 -0.1159 -0.2161
 5185SOL    HW220512   1.989   2.093   0.253  1.1163  0.5683  0.0636
 5185SOL    HW320513   1.968   2.216   0.338 -0.2309  0.8483 -0.6507
 5185SOL    MW420514   1.954   2.172   0.264 -0.0782  0.1016 -0.2365
 5186SOL     OW20515   3.136   4.366   3.161  0.3278 -0.5192  0.2989
 5186SOL    HW220516   3.162   4.439   3.106 -0.1521 -0.0718  0.6564
 5186SOL    HW320517   3.046   4.386   3.187  0.3645 -0.9803  0.8132
 5186SOL    MW420518   3.127   4.378   3.157  0.2693 -0.5210  0.4140
 5187SOL     OW20519   4.350   3.849   1.151 -0.0720  0.4155  0.6131
 5187SOL    HW220520   4.415   3.917   1.133  0.2672 -0.0391  0.0890
 5187SOL    HW320521   4.402   3.770   1.168 -0.4987 -0.3126 -1.3125
 5187SOL    MW420522   4.366   3.847   1.151 -0.0836  0.2594  0.2899
 5188SOL     OW20523   5.029   1.005   4.398  0.1541 -0.7525 -0.2077
 5188SOL    HW220524   4.959   1.006   4.333  0.0071 -2.6759 -0.1466
 5188SOL    HW320525   5.006   0.932   4.457  1.7238 -0.8421  0.3489
 5188SOL    MW420526   5.016   0.995   4.397  0.3418 -1.0181 -0.1262
 5189SOL     OW20527   4.687   1.621   1.838  0.4154  0.2093  0.4349
 5189SOL    HW220528   4.620   1.671   1.885 -0.3135 -0.7278  0.4107
 5189SOL    HW320529   4.642   1.587   1.761  1.1319  0.2237  0.0044
 5189SOL    MW420530   4.672   1.623   1.834  0.4137  0.0875  0.3749
 5190SOL     OW20531   2.029   0.933   6.311  0.0876  0.3210 -0.1417
 5190SOL    HW220532   2.125   0.934   6.319  0.1690  2.8881 -0.5153
 5190SOL    HW320533   2.012   0.940   6.217 -0.5472 -1.8087 -0.2397
 5190SOL    MW420534   2.040   0.934   6.300  0.0146  0.3787 -0.2039
 5191SOL     OW20535   1.775   5.344   0.910 -0.3572  0.3910 -0.5178
 5191SOL    HW220536   1.754   5.410   0.844 -1.4572 -1.7572 -2.4673
 5191SOL    HW320537   1.868   5.357   0.927 -0.5347  2.4168 -0.8222
 5191SOL    MW420538   1.785   5.355   0.903 -0.5257  0.3749 -0.8152
 5192SOL     OW20539   4.872   3.926   2.491 -0.0481 -0.2997  0.1923
 5192SOL    HW220540   4.824   3.989   2.545  3.1460  1.9746  0.6809
 5192SOL    HW320541   4.913   3.868   2.555 -0.7886 -1.2011 -0.1346
 5192SOL    MW420542   4.871   3.927   2.507  0.2756 -0.1186  0.2136
 5193SOL     OW20543   1.405   4.908   2.815  0.2740  0.7409  0.3677
 5193SOL    HW220544   1.329   4.966   2.807  0.1278  0.3869 -1.0745
 5193SOL    HW320545   1.466   4.938   2.747  1.7081  1.4011  1.8919
 5193SOL    MW420546   1.403   4.920   2.805  0.4439  0.7813  0.3786
 5194SOL     OW20547   5.310   6.332   4.511  0.0914 -0.5999 -0.0224
 5194SOL    HW220548   5.339   6.258   4.458 -1.5225 -0.7073 -0.8151
 5194SOL    HW320549   5.330   6.409   4.458 -1.1635 -0.6853 -0.6600
 5194SOL    MW420550   5.316   6.332   4.497 -0.2871 -0.6254 -0.2111
 5195SOL     OW20551   6.319   4.873   0.071  1.0153 -0.2761  0.2297
 5195SOL    HW220552   6.234   4.889   0.031  0.4827  0.3549  1.5655
 5195SOL    HW320553   6.377   4.939   0.031  0.7151 -0.2412 -0.1542
 5195SOL    MW420554   6.316   4.884   0.060  0.9054 -0.1883  0.3553
 5196SOL     OW20555   5.533   5.540   0.669 -0.4046  0.0634  0.0381
 5196SOL    HW220556   5.529   5.460   0.617 -1.2850 -1.0111  1.6687
 5196SOL    HW320557   5.455   5.590   0.643 -0.2397  0.0591 -0.4627
 5196SOL    MW420558   5.522   5.536   0.659 -0.4990 -0.0789  0.1872
 5197SOL     OW20559   0.186   3.731   1.335  0.1586  0.4038 -0.1287
 5197SOL    HW220560   0.278   3.703   1.335  0.1327  0.0921 -2.4696
 5197SOL    HW320561   0.138   3.654   1.367  0.5425 -0.4082 -1.4084
 5197SOL    MW420562   0.192   3.717   1.339  0.2058  0.2556 -0.6064
 5198SOL     OW20563   3.220   0.411   5.014 -0.1170  0.2941  0.6573
 5198SOL    HW220564   3.232   0.323   5.048  0.4830  0.2230  0.2748
 5198SOL    HW320565   3.217   0.466   5.092  0.7385  0.0712  0.8610
 5198SOL    MW420566   3.221   0.407   5.029  0.0750  0.2553  0.6337
 5199SOL     OW20567   1.785   2.121   5.094 -0.0193  0.3376 -0.3225
 5199SOL    HW220568   1.709   2.150   5.145  0.8828 -0.0584  1.2932
 5199SOL    HW320569   1.755   2.041   5.051 -0.0950 -0.6323  1.4692
 5199SOL    MW420570   1.771   2.115   5.095  0.0897  0.1574  0.1270
 5200SOL     OW20571   5.998   1.583   1.481  0.2415  0.1237 -0.0286
 5200SOL    HW220572   6.013   1.677   1.494 -0.9131  0.4700 -1.0401
 5200SOL    HW320573   5.986   1.574   1.387  2.1366 -1.3439 -0.1901
 5200SOL    MW420574   5.998   1.595   1.470  0.3392 -0.0242 -0.1834
 5201SOL     OW20575   5.630   5.408   4.241 -0.0751  0.2011  0.3371
 5201SOL    HW220576   5.615   5.373   4.329  0.0282 -0.7134 -0.0025
 5201SOL    HW320577   5.724   5.396   4.225 -0.5145 -2.0965 -0.9060
 5201SOL    MW420578   5.640   5.402   4.250 -0.1194 -0.2227  0.1283
 5202SOL     OW20579   0.672   4.099   0.380 -0.3289 -0.8198  0.3828
 5202SOL    HW220580   0.599   4.161   0.387 -0.4358 -0.9629  0.5403
 5202SOL    HW320581   0.688   4.090   0.286 -0.5584 -0.8425  0.3463
 5202SOL    MW420582   0.664   4.106   0.369 -0.3733 -0.8417  0.3988
 5203SOL     OW20583   0.991   5.768   2.829  0.4581 -0.4012  0.4701
 5203SOL    HW220584   0.994   5.857   2.795 -0.4997  0.2933  2.1110
 5203SOL    HW320585   0.904   5.759   2.867  0.0570 -2.4883 -0.7625
 5203SOL    MW420586   0.980   5.778   2.830  0.2788 -0.5850  0.5239
 5204SOL     OW20587   5.349   2.963   5.748 -0.6511  0.2820 -0.2829
 5204SOL    HW220588   5.364   3.023   5.821  1.9759 -0.3630 -0.1968
 5204SOL    HW320589   5.381   3.011   5.671  1.3995 -0.8786 -0.2247
 5204SOL    MW420590   5.355   2.977   5.747 -0.0339  0.0438 -0.2638
 5205SOL     OW20591   6.300   5.292   1.765  0.5143  0.0699  0.5852
 5205SOL    HW220592   6.388   5.289   1.802  0.5400  1.3196  0.6777
 5205SOL    HW320593   6.293   5.380   1.728 -1.3445  0.7012  2.2453
 5205SOL    MW420594   6.311   5.303   1.765  0.2725  0.3181  0.8164
 5206SOL     OW20595   0.304   2.934   5.998  0.8441  0.0547 -0.2295
 5206SOL    HW220596   0.267   2.846   6.010  1.2023  0.1743  2.4717
 5206SOL    HW320597   0.396   2.925   6.024  1.8004  0.5959 -3.0852
 5206SOL    MW420598   0.311   2.921   6.003  1.0175  0.1419 -0.2499
 5207SOL     OW20599   0.276   3.956   1.914 -0.0621 -0.7287 -0.0379
 5207SOL    HW220600   0.356   3.903   1.920 -1.7682 -3.5850 -0.7462
 5207SOL    HW320601   0.277   4.009   1.994  2.3050 -0.9402  0.1646
 5207SOL    MW420602   0.287   3.956   1.925  0.0251 -1.1334 -0.1046
 5208SOL     OW20603   6.132   0.459   5.085 -0.0630 -0.1481  0.3785
 5208SOL    HW220604   6.072   0.466   5.159  0.3629  0.0469  0.7100
 5208SOL    HW320605   6.190   0.535   5.093 -0.9344  0.6979 -1.0053
 5208SOL    MW420606   6.132   0.470   5.095 -0.1218 -0.0107  0.2397
 5209SOL     OW20607   5.201   0.704   5.991 -0.3716  0.1994 -0.4480
 5209SOL    HW220608   5.279   0.678   6.039 -0.1806 -0.2343 -0.9730
 5209SOL    HW320609   5.235   0.747   5.912 -0.6037 -1.3877 -1.4634
 5209SOL    MW420610   5.216   0.706   5.987 -0.3770 -0.0672 -0.6513
 5210SOL     OW20611   3.623   2.584   4.748 -0.0382  0.3406  0.0596
 5210SOL    HW220612   3.541   2.592   4.699 -0.3033 -1.1286  0.1983
 5210SOL    HW320613   3.677   2.657   4.717 -1.4878  1.5155  0.1897
 5210SOL    MW420614   3.619   2.595   4.737 -0.2644  0.3018  0.0951
 5211SOL     OW20615   4.853   6.293   1.004  0.2631 -0.0705 -0.0124
 5211SOL    HW220616   4.899   6.297   0.920  1.0785  0.4004  0.4514
 5211SOL    HW320617   4.780   6.354   0.994  2.0857  2.3609  0.6311
 5211SOL    MW420618   4.849   6.301   0.992  0.6112  0.3124  0.1337
 5212SOL     OW20619   2.332   2.143   0.305 -0.4417 -0.8292 -0.2948
 5212SOL    HW220620   2.352   2.091   0.383 -0.0689  0.0767  0.2258
 5212SOL    HW320621   2.402   2.208   0.301 -1.8023  0.7333  0.0485
 5212SOL    MW420622   2.344   2.145   0.315 -0.5720 -0.5036 -0.1808
 5213SOL     OW20623   3.478   3.031   2.306 -0.1463  0.3290  0.4166
 5213SOL    HW220624   3.535   3.108   2.316 -0.3214  0.2259  2.6801
 5213SOL    HW320625   3.524   2.961   2.351 -0.6250 -0.5786 -0.4629
 5213SOL    MW420626   3.491   3.032   2.313 -0.2326  0.1956  0.5992
 5214SOL     OW20627   2.029   2.967   0.574  0.1721  0.3212  0.0710
 5214SOL    HW220628   2.092   2.956   0.645  0.9077 -0.5813 -0.6880
 5214SOL    HW320629   1.949   2.926   0.605 -0.1074  1.5932  1.1011
 5214SOL    MW420630   2.027   2.961   0.587  0.2323  0.3700  0.1068
 5215SOL     OW20631   3.427   3.428   1.790  0.1520 -0.6622  0.0689
 5215SOL    HW220632   3.470   3.344   1.774 -0.8193 -0.7574 -2.5089
 5215SOL    HW320633   3.336   3.406   1.807  0.2225 -0.2157  1.0477
 5215SOL    MW420634   3.421   3.414   1.790  0.0331 -0.6159 -0.1421
 5216SOL     OW20635   4.252   1.551   3.065 -0.2863  0.6198 -0.9648
 5216SOL    HW220636   4.278   1.635   3.102  0.4796 -0.3332  0.7213
 5216SOL    HW320637   4.174   1.572   3.013  0.1120  2.4240 -0.9086
 5216SOL    MW420638   4.245   1.565   3.063 -0.1327  0.7321 -0.7349
 5217SOL     OW20639   0.972   5.986   4.134 -0.5700  0.0185 -0.2741
 5217SOL    HW220640   1.033   6.000   4.207 -1.8867  3.7882  0.3488
 5217SOL    HW320641   0.886   5.980   4.176 -1.0553 -1.2330 -1.3759
 5217SOL    MW420642   0.969   5.987   4.149 -0.8078  0.3507 -0.3373
 5218SOL     OW20643   1.299   0.931   2.944  0.1856 -0.3112 -0.1512
 5218SOL    HW220644   1.234   0.885   2.892  0.3580 -0.5016 -0.2002
 5218SOL    HW320645   1.378   0.878   2.935 -0.1315 -1.1216  1.4226
 5218SOL    MW420646   1.301   0.918   2.936  0.1665 -0.4433  0.0500
 5219SOL     OW20647   1.842   0.349   5.246  0.0381 -0.6406  0.3191
 5219SOL    HW220648   1.885   0.417   5.299 -0.3806  0.5988 -0.8883
 5219SOL    HW320649   1.830   0.389   5.161 -1.6166 -1.7177  0.0125
 5219SOL    MW420650   1.846   0.363   5.242 -0.2355 -0.6191  0.1193
 5220SOL     OW20651   2.232   5.008   3.086 -0.1940 -0.0545  0.2107
 5220SOL    HW220652   2.202   4.934   3.138 -0.6481 -0.4522 -0.6050
 5220SOL    HW320653   2.195   5.085   3.130 -0.3633 -0.3640  0.6092
 5220SOL    MW420654   2.223   5.009   3.099 -0.2762 -0.1478  0.1557
 5221SOL     OW20655   6.376   5.853   1.496  0.5754 -0.7695 -0.0508
 5221SOL    HW220656   6.368   5.760   1.474 -0.7464 -0.8043  0.4855
 5221SOL    HW320657   6.415   5.892   1.418 -1.1024 -1.3994 -1.2776
 5221SOL    MW420658   6.380   5.846   1.482  0.1796 -0.8572 -0.1419
 5222SOL     OW20659   6.046   5.763   5.027 -0.3111 -0.2409  0.7230
 5222SOL    HW220660   6.122   5.724   4.984 -0.8712 -0.1589 -0.3909
 5222SOL    HW320661   6.077   5.848   5.059 -0.4237  0.7707 -1.6297
 5222SOL    MW420662   6.060   5.769   5.026 -0.3998 -0.0966  0.2656
 5223SOL     OW20663   0.131   6.042   1.624 -0.1105 -0.5613 -0.6289
 5223SOL    HW220664   0.057   5.988   1.597  0.7437 -1.3646 -1.4612
 5223SOL    HW320665   0.195   6.030   1.554  0.6271  0.4715 -0.1461
 5223SOL    MW420666   0.130   6.033   1.611  0.0995 -0.5310 -0.6750
 5224SOL     OW20667   1.908   0.891   3.746 -0.2943  0.5773 -0.0742
 5224SOL    HW220668   1.829   0.931   3.782  0.7825  2.3211  0.4621
 5224SOL    HW320669   1.977   0.913   3.808  0.7123 -0.5197 -0.7609
 5224SOL    MW420670   1.907   0.899   3.759 -0.0195  0.6627 -0.0940
 5225SOL     OW20671   5.444   0.955   2.802  0.0444 -0.2569  0.7590
 5225SOL    HW220672   5.457   1.030   2.861  1.1939  0.2753 -0.1309
 5225SOL    HW320673   5.366   0.912   2.836 -1.3141  1.9559  0.6773
 5225SOL    MW420674   5.435   0.960   2.814  0.0169  0.1053  0.6308
 5226SOL     OW20675   2.656   4.144   0.701 -0.0936  0.3002  0.1136
 5226SOL    HW220676   2.659   4.063   0.752  0.3342  0.2691  0.0477
 5226SOL    HW320677   2.643   4.115   0.611  1.5578  0.1978 -0.1232
 5226SOL    MW420678   2.655   4.129   0.696  0.1807  0.2826  0.0736
 5227SOL     OW20679   1.347   2.124   3.219 -0.2956  0.1007  0.2143
 5227SOL    HW220680   1.280   2.066   3.254  0.0521 -0.4139  0.0339
 5227SOL    HW320681   1.424   2.107   3.273  0.4713 -1.2428 -1.2188
 5227SOL    MW420682   1.348   2.114   3.231 -0.1486 -0.1445  0.0014
 5228SOL     OW20683   5.750   3.380   4.139  0.0690 -0.2563  0.0177
 5228SOL    HW220684   5.686   3.410   4.203 -0.1991 -1.0406  0.1305
 5228SOL    HW320685   5.697   3.339   4.070  0.4972 -3.4536  1.4258
 5228SOL    MW420686   5.734   3.379   4.138  0.0901 -0.7817  0.2183
 5229SOL     OW20687   4.853   4.446   5.200 -0.7555  0.6143 -0.3066
 5229SOL    HW220688   4.902   4.508   5.146  0.7331  0.6420  0.9946
 5229SOL    HW320689   4.784   4.413   5.142  1.9164 -0.9075 -2.9492
 5229SOL    MW420690   4.851   4.449   5.185 -0.2066  0.4172 -0.4836
 5230SOL     OW20691   6.135   3.668   2.822  0.6337 -0.1869 -0.2356
 5230SOL    HW220692   6.159   3.667   2.914 -0.8650  0.6810  0.1964
 5230SOL    HW320693   6.219   3.672   2.775  1.3841  0.2720  1.0930
 5230SOL    MW420694   6.149   3.668   2.828  0.5350 -0.0118 -0.0033
 5231SOL     OW20695   4.363   2.487   1.656 -0.3498  0.3754  0.5036
 5231SOL    HW220696   4.356   2.582   1.667  1.7462  0.7528 -0.7593
 5231SOL    HW320697   4.342   2.472   1.564  1.2210 -0.0740  0.1743
 5231SOL    MW420698   4.360   2.498   1.645  0.1340  0.3659  0.2936
 5232SOL     OW20699   3.658   2.504   5.261  0.0226 -0.3666 -0.6127
 5232SOL    HW220700   3.735   2.476   5.312  0.6017  0.6018 -0.9438
 5232SOL    HW320701   3.660   2.449   5.183 -0.8821 -1.8823  0.3671
 5232SOL    MW420702   3.668   2.493   5.258 -0.0204 -0.4388 -0.5271
 5233SOL     OW20703   0.760   4.373   3.946  0.1554 -0.5395  0.4330
 5233SOL    HW220704   0.830   4.424   3.988 -0.0998 -0.1336  0.3704
 5233SOL    HW320705   0.683   4.430   3.951  0.2288 -0.2951 -1.0192
 5233SOL    MW420706   0.759   4.387   3.952  0.1314 -0.4537  0.2332
 5234SOL     OW20707   0.606   2.494   1.677  0.3246  0.0558 -0.2370
 5234SOL    HW220708   0.555   2.457   1.605  0.1645 -0.5855  0.1942
 5234SOL    HW320709   0.623   2.584   1.651 -3.2074  1.1483  0.7473
 5234SOL    MW420710   0.602   2.501   1.664 -0.1625  0.1153 -0.0502
 5235SOL     OW20711   2.588   5.638   1.174 -0.3088  0.0121 -0.0366
 5235SOL    HW220712   2.588   5.592   1.258 -1.6760 -1.1491 -0.6380
 5235SOL    HW320713   2.674   5.619   1.136 -0.5156 -1.3143  0.1305
 5235SOL    MW420714   2.600   5.629   1.180 -0.5165 -0.3161 -0.0939
 5236SOL     OW20715   2.500   5.452   4.879 -0.5173 -1.0551  0.3486
 5236SOL    HW220716   2.593   5.430   4.872  0.4014  2.2257  0.3295
 5236SOL    HW320717   2.487   5.473   4.971 -0.9275 -0.3951  0.1479
 5236SOL    MW420718   2.511   5.452   4.890 -0.4502 -0.5351  0.3196
 5237SOL     OW20719   5.451   2.020   1.375 -0.2004 -0.2060  0.1601
 5237SOL    HW220720   5.499   1.966   1.438  0.2049  0.9335  0.8468
 5237SOL    HW320721   5.475   1.984   1.289 -0.0598 -1.2056  0.6032
 5237SOL    MW420722   5.460   2.008   1.372 -0.1284 -0.1875  0.3092
 5238SOL     OW20723   5.275   2.172   3.748 -0.3650  0.0747  0.1977
 5238SOL    HW220724   5.345   2.128   3.796  0.9970  1.1152 -0.7518
 5238SOL    HW320725   5.197   2.159   3.802  0.4672 -1.4267  1.1082
 5238SOL    MW420726   5.274   2.165   3.761 -0.0755  0.0139  0.1925
 5239SOL     OW20727   3.045   5.475   0.082 -0.2400  0.2148  0.3655
 5239SOL    HW220728   3.026   5.486   0.176 -1.3647  1.5169  0.0130
 5239SOL    HW320729   3.069   5.383   0.074 -0.6517 -0.0600  1.8573
 5239SOL    MW420730   3.046   5.464   0.094 -0.4427  0.3504  0.5158
 5240SOL     OW20731   1.570   4.719   5.893 -0.5020  0.4562  0.3201
 5240SOL    HW220732   1.520   4.641   5.870 -0.1621 -0.5166  2.6783
 5240SOL    HW320733   1.517   4.763   5.959  0.3393  1.0329  0.6238
 5240SOL    MW420734   1.557   4.715   5.898 -0.3461  0.4039  0.6713
 5241SOL     OW20735   2.302   2.798   5.075 -0.1189  0.2094  0.0504
 5241SOL    HW220736   2.269   2.830   5.159  2.3571  2.1472  0.4038
 5241SOL    HW320737   2.324   2.878   5.026 -1.0098 -0.8779 -2.2890
 5241SOL    MW420738   2.301   2.813   5.079  0.0903  0.3216 -0.2116
 5242SOL     OW20739   5.417   3.106   6.198  0.6044  0.1738 -0.8079
 5242SOL    HW220740   5.432   3.201   6.197  0.4186  0.2045 -2.5131
 5242SOL    HW320741   5.324   3.096   6.180  1.0307 -0.3655 -2.9063
 5242SOL    MW420742   5.407   3.117   6.196  0.6361  0.1067 -1.3097
 5243SOL     OW20743   0.133   1.710   1.669 -0.2334 -0.2368 -0.0859
 5243SOL    HW220744   0.056   1.679   1.621 -0.7127 -2.6484  2.0371
 5243SOL    HW320745   0.097   1.743   1.751  0.8631  0.4387  0.1340
 5243SOL    MW420746   0.118   1.710   1.674 -0.1520 -0.4658  0.2232
 5244SOL     OW20747   0.980   1.585   6.029  0.0322  0.3445 -0.3835
 5244SOL    HW220748   1.069   1.553   6.013 -0.5288 -1.1419 -0.6302
 5244SOL    HW320749   0.949   1.532   6.102 -0.4971  1.2015  0.0320
 5244SOL    MW420750   0.988   1.574   6.037 -0.1116  0.2615 -0.3612
 5245SOL     OW20751   4.787   4.515   4.333  0.0570  0.0254 -0.4509
 5245SOL    HW220752   4.814   4.468   4.412 -1.1018  0.4923  0.2536
 5245SOL    HW320753   4.800   4.452   4.262 -2.6401 -1.9216  0.6023
 5245SOL    MW420754   4.792   4.501   4.334 -0.4518 -0.1699 -0.2190
 5246SOL     OW20755   0.773   2.803   5.385  0.1511 -0.5307 -0.1206
 5246SOL    HW220756   0.688   2.836   5.355  1.5315  2.5885 -1.0422
 5246SOL    HW320757   0.805   2.750   5.312  0.3040  0.9328 -1.1641
 5246SOL    MW420758   0.766   2.801   5.371  0.3534  0.0739 -0.3799
 5247SOL     OW20759   0.372   0.369   2.884 -0.1510 -0.2049 -0.2712
 5247SOL    HW220760   0.420   0.326   2.955 -3.0905 -2.3115  0.6372
 5247SOL    HW320761   0.382   0.310   2.809 -0.2542  0.0189 -0.4627
 5247SOL    MW420762   0.379   0.355   2.884 -0.5525 -0.4533 -0.1766
 5248SOL     OW20763   6.413   5.246   3.766  0.0161  0.0990 -0.4057
 5248SOL    HW220764   6.480   5.280   3.706  1.1606 -0.6687  0.3974
 5248SOL    HW320765   6.337   5.228   3.710  0.5683  0.7301 -1.3793
 5248SOL    MW420766   6.412   5.248   3.751  0.2399  0.0810 -0.4282
 5249SOL     OW20767   4.541   6.239   4.774  0.6256  0.7642  0.0585
 5249SOL    HW220768   4.625   6.284   4.787  0.5425  2.4905 -3.9471
 5249SOL    HW320769   4.476   6.297   4.813  1.0758  0.3222  1.5383
 5249SOL    MW420770   4.544   6.253   4.780  0.6740  0.9337 -0.2747
 5250SOL     OW20771   3.781   5.773   1.647  0.0177  0.3054 -0.1595
 5250SOL    HW220772   3.735   5.835   1.704 -0.4424 -0.9202  0.8288
 5250SOL    HW320773   3.848   5.826   1.604 -0.1994  1.4370  0.8448
 5250SOL    MW420774   3.784   5.788   1.649 -0.0716  0.2930  0.1034
 5251SOL     OW20775   5.004   3.592   5.696 -0.3508  0.5597  0.3757
 5251SOL    HW220776   5.023   3.675   5.652  1.4440  0.6711  1.2703
 5251SOL    HW320777   5.041   3.525   5.638 -0.6185  0.4704  0.3031
 5251SOL    MW420778   5.011   3.594   5.682 -0.1493  0.5626  0.4842
 5252SOL     OW20779   0.790   4.907   2.950  0.1677 -0.9020  0.5931
 5252SOL    HW220780   0.851   4.834   2.938  1.2467 -0.1203  1.1593
 5252SOL    HW320781   0.845   4.980   2.979 -1.1076 -0.3065  1.6064
 5252SOL    MW420782   0.806   4.907   2.952  0.1418 -0.7203  0.8015
 5253SOL     OW20783   1.146   2.286   0.887  0.1299  0.2957  0.1932
 5253SOL    HW220784   1.191   2.204   0.908  0.2532  1.1578  3.8990
 5253SOL    HW320785   1.061   2.258   0.852  1.4403 -1.3056 -1.9948
 5253SOL    MW420786   1.140   2.272   0.885  0.3191  0.1982  0.3934
 5254SOL     OW20787   4.134   0.358   4.790 -0.4333  0.1126 -0.3863
 5254SOL    HW220788   4.080   0.429   4.756 -0.8945  1.1482  2.2620
 5254SOL    HW320789   4.176   0.394   4.868  1.5034 -1.7060 -0.4924
 5254SOL    MW420790   4.132   0.372   4.796 -0.2386  0.0093 -0.0509
 5255SOL     OW20791   2.443   1.021   5.091 -0.3747 -0.5420 -0.4592
 5255SOL    HW220792   2.520   0.990   5.139  0.3063 -1.3588 -1.9968
 5255SOL    HW320793   2.459   1.114   5.077 -0.6031 -0.2811  0.8847
 5255SOL    MW420794   2.455   1.029   5.095 -0.3150 -0.6153 -0.4848
 5256SOL     OW20795   2.259   5.661   4.394 -0.0953  0.4691  0.1599
 5256SOL    HW220796   2.204   5.675   4.471  0.3830  0.0357  0.5946
 5256SOL    HW320797   2.267   5.566   4.386  1.0241  0.5151  0.4466
 5256SOL    MW420798   2.253   5.651   4.403  0.1155  0.4180  0.2551
 5257SOL     OW20799   3.373   4.971   3.314 -0.0155  0.2292 -0.1116
 5257SOL    HW220800   3.440   5.035   3.289 -0.2818  0.6770  0.3094
 5257SOL    HW320801   3.315   5.019   3.373 -0.3468 -0.3400  0.0298
 5257SOL    MW420802   3.375   4.986   3.318 -0.0944  0.2132 -0.0374
 5258SOL     OW20803   5.981   1.919   2.839  0.0998  0.1595 -0.1372
 5258SOL    HW220804   5.889   1.899   2.853  0.0597  0.8010  0.6099
 5258SOL    HW320805   6.028   1.846   2.881 -0.0654 -0.1586 -0.5052
 5258SOL    MW420806   5.975   1.907   2.846  0.0727  0.2021 -0.0872
 5259SOL     OW20807   4.440   5.736   1.737  0.1772 -0.5157  0.5217
 5259SOL    HW220808   4.384   5.671   1.778  0.6229 -0.8625  0.5903
 5259SOL    HW320809   4.505   5.758   1.804  0.3505 -0.3953  0.3181
 5259SOL    MW420810   4.441   5.731   1.751  0.2589 -0.5456  0.5039
 5260SOL     OW20811   4.993   0.911   4.037  0.2402 -0.0404  0.3362
 5260SOL    HW220812   4.970   0.855   3.963 -2.1409  0.3238  0.7092
 5260SOL    HW320813   5.036   0.852   4.099  1.3208 -0.5634 -0.8510
 5260SOL    MW420814   4.996   0.896   4.036  0.0686 -0.0613  0.2288
 5261SOL     OW20815   2.922   4.955   5.741  0.1061  0.2205  0.3313
 5261SOL    HW220816   3.008   4.951   5.783 -0.1930  0.9887  1.0412
 5261SOL    HW320817   2.872   4.886   5.785  0.4813 -0.5405 -0.4048
 5261SOL    MW420818   2.927   4.945   5.752  0.1162  0.2215  0.3278
 5262SOL     OW20819   6.188   1.101   5.191 -0.4305 -0.2204 -0.7176
 5262SOL    HW220820   6.116   1.145   5.238  0.2029  0.2229 -0.1357
 5262SOL    HW320821   6.184   1.010   5.220 -0.2281 -0.0117 -0.0207
 5262SOL    MW420822   6.178   1.095   5.201 -0.3202 -0.1344 -0.5489
 5263SOL     OW20823   0.239   2.093   0.774  0.4366  0.4704  0.2916
 5263SOL    HW220824   0.193   2.016   0.809  0.3847  0.5913  0.4900
 5263SOL    HW320825   0.310   2.056   0.722 -0.1803  0.2798 -0.4232
 5263SOL    MW420826   0.242   2.078   0.772  0.3484  0.4612  0.2235
 5264SOL     OW20827   1.507   2.320   4.665 -0.3847 -0.0797 -0.4096
 5264SOL    HW220828   1.482   2.398   4.616 -0.3371 -0.8494 -1.6966
 5264SOL    HW320829   1.599   2.306   4.642 -0.0009  0.2129  0.8445
 5264SOL    MW420830   1.516   2.328   4.655 -0.3278 -0.1427 -0.4140
 5265SOL     OW20831   3.863   3.959   2.497  0.1775 -0.1336 -0.1973
 5265SOL    HW220832   3.812   3.897   2.549 -1.5184  1.8015  0.5990
 5265SOL    HW320833   3.818   4.043   2.509  2.8160  1.4428 -0.5580
 5265SOL    MW420834   3.850   3.962   2.505  0.3019  0.3297 -0.1399
 5266SOL     OW20835   3.735   3.692   2.165  0.0798  0.5294  0.0718
 5266SOL    HW220836   3.714   3.617   2.111  1.1545  0.1603  0.1326
 5266SOL    HW320837   3.719   3.768   2.109 -1.7464  0.3128  0.2604
 5266SOL    MW420838   3.730   3.692   2.151 -0.0193  0.4521  0.1047
 5267SOL     OW20839   1.961   6.178   6.075  0.9625  0.1950 -0.0947
 5267SOL    HW220840   1.919   6.261   6.053  0.2878 -0.4846 -1.5460
 5267SOL    HW320841   1.902   6.112   6.040  1.0846 -0.9561  1.7342
 5267SOL    MW420842   1.948   6.180   6.067  0.8896 -0.0466 -0.0449
 5268SOL     OW20843   3.788   2.472   4.116 -0.1340  0.6795 -0.2634
 5268SOL    HW220844   3.727   2.512   4.054  0.4829 -0.7305 -1.8549
 5268SOL    HW320845   3.830   2.402   4.067  2.3319  1.1903  0.9772
 5268SOL    MW420846   3.785   2.468   4.102  0.2728  0.5608 -0.3097
 5269SOL     OW20847   5.459   1.684   3.891 -0.9563 -0.2514 -0.2187
 5269SOL    HW220848   5.395   1.744   3.928 -0.0942  0.9907 -0.6887
 5269SOL    HW320849   5.543   1.714   3.924 -0.6013 -2.1335  0.7608
 5269SOL    MW420850   5.462   1.696   3.900 -0.7957 -0.3358 -0.1515
 5270SOL     OW20851   6.186   3.081   6.059  0.2366  0.2304  0.5764
 5270SOL    HW220852   6.215   3.009   6.116  0.7097 -1.7610 -2.0210
 5270SOL    HW320853   6.090   3.074   6.060  0.2859 -0.7459  0.0352
 5270SOL    MW420854   6.177   3.071   6.067  0.3055 -0.1612  0.1623
 5271SOL     OW20855   5.198   3.387   2.510 -0.1620 -0.5187 -0.7836
 5271SOL    HW220856   5.160   3.474   2.495  0.5858 -0.0656 -0.0510
 5271SOL    HW320857   5.183   3.341   2.427 -1.3874 -0.0147 -0.8720
 5271SOL    MW420858   5.191   3.393   2.497 -0.2250 -0.3924 -0.6986
 5272SOL     OW20859   4.702   3.683   3.636  0.2378 -0.5788 -0.4015
 5272SOL    HW220860   4.741   3.668   3.550 -1.4136 -0.2979 -1.2292
 5272SOL    HW320861   4.647   3.760   3.624 -2.2716 -2.1976  0.1213
 5272SOL    MW420862   4.700   3.691   3.623 -0.3112 -0.7553 -0.4417
 5273SOL     OW20863   2.317   4.624   0.997 -0.1205 -0.4902 -0.3962
 5273SOL    HW220864   2.365   4.552   0.956  2.6506  0.9659  0.1064
 5273SOL    HW320865   2.268   4.664   0.926  0.7022 -1.0164 -1.2857
 5273SOL    MW420866   2.317   4.619   0.982  0.3537 -0.3675 -0.4472
 5274SOL     OW20867   0.671   4.120   4.084 -0.0816  0.4223 -0.0010
 5274SOL    HW220868   0.684   4.207   4.046 -2.3767  0.2136 -1.4280
 5274SOL    HW320869   0.668   4.061   4.009  0.8115 -0.8436  0.9176
 5274SOL    MW420870   0.673   4.124   4.069 -0.2666  0.2278 -0.0681
 5275SOL     OW20871   5.265   5.492   3.913 -0.1380  0.5258 -0.0034
 5275SOL    HW220872   5.351   5.479   3.951 -0.1699 -0.9505 -0.3747
 5275SOL    HW320873   5.279   5.557   3.844  0.4849  0.9756  0.5366
 5275SOL    MW420874   5.278   5.499   3.909 -0.0600  0.3903  0.0189
 5276SOL     OW20875   3.853   1.390   2.650 -0.4606  0.1205 -0.1193
 5276SOL    HW220876   3.859   1.389   2.554  0.0377  0.2165 -0.0947
 5276SOL    HW320877   3.928   1.338   2.679 -0.4924  0.2620  0.2207
 5276SOL    MW420878   3.864   1.383   2.641 -0.3991  0.1518 -0.0712
 5277SOL     OW20879   6.079   0.649   2.885 -0.0121 -0.1647 -0.3409
 5277SOL    HW220880   6.045   0.737   2.873 -0.8836 -0.5205 -0.6111
 5277SOL    HW320881   6.152   0.643   2.823 -0.9394 -0.1299 -1.4794
 5277SOL    MW420882   6.084   0.659   2.875 -0.2494 -0.2070 -0.5268
 5278SOL     OW20883   2.285   2.120   3.618  0.3909 -0.1788 -0.2482
 5278SOL    HW220884   2.320   2.031   3.617 -0.3055 -0.4589 -0.5247
 5278SOL    HW320885   2.299   2.150   3.708 -0.1716 -0.9063  0.0949
 5278SOL    MW420886   2.291   2.112   3.630  0.2248 -0.3118 -0.2394
 5279SOL     OW20887   5.111   1.269   2.291  0.0053  0.0020 -0.3811
 5279SOL    HW220888   5.110   1.203   2.360  0.7210  0.1941 -0.1802
 5279SOL    HW320889   5.024   1.263   2.251  0.0986 -1.1066 -0.4244
 5279SOL    MW420890   5.099   1.260   2.295  0.1120 -0.1189 -0.3603
 5280SOL     OW20891   2.500   5.858   1.784  0.0871  0.0835  0.1830
 5280SOL    HW220892   2.436   5.878   1.853 -0.6896  2.6115 -1.1399
 5280SOL    HW320893   2.585   5.870   1.826 -0.3643  0.9552  0.8898
 5280SOL    MW420894   2.503   5.862   1.799 -0.0749  0.5321  0.1017
 5281SOL     OW20895   2.864   5.087   4.145 -0.0971 -0.6093  0.2215
 5281SOL    HW220896   2.920   5.053   4.074  0.2810 -1.0624  0.7227
 5281SOL    HW320897   2.869   5.182   4.136  0.6017 -0.6476  0.1293
 5281SOL    MW420898   2.872   5.095   4.134  0.0450 -0.6741  0.2755
 5282SOL     OW20899   5.692   5.533   2.724  0.0182  0.2076  0.3692
 5282SOL    HW220900   5.717   5.612   2.772 -1.1266  1.0839 -0.4299
 5282SOL    HW320901   5.656   5.565   2.641  0.7775 -1.2162 -0.5622
 5282SOL    MW420902   5.691   5.548   2.719 -0.0326  0.1353  0.1409
 5283SOL     OW20903   2.723   6.003   1.067  0.0299  0.6807 -0.1778
 5283SOL    HW220904   2.771   5.978   0.988 -0.0262  0.1875 -0.0543
 5283SOL    HW320905   2.732   6.098   1.070 -0.4150  0.7657 -1.0665
 5283SOL    MW420906   2.731   6.012   1.057 -0.0362  0.6268 -0.2788
 5284SOL     OW20907   1.448   0.368   4.030  0.0981 -0.6665  0.8603
 5284SOL    HW220908   1.426   0.356   3.938 -1.0094  1.6893  0.7596
 5284SOL    HW320909   1.479   0.458   4.036  2.7119 -1.5856  2.3728
 5284SOL    MW420910   1.449   0.378   4.019  0.2968 -0.4769  1.0466
 5285SOL     OW20911   3.093   4.543   0.678  0.1761 -0.0789 -0.4317
 5285SOL    HW220912   3.161   4.481   0.650 -0.0047 -0.2701 -0.4436
 5285SOL    HW320913   3.083   4.526   0.772 -0.9157 -1.0751 -0.7190
 5285SOL    MW420914   3.101   4.532   0.687  0.0082 -0.2356 -0.4712
 5286SOL     OW20915   4.726   1.917   0.517  0.0404 -0.0122 -0.0192
 5286SOL    HW220916   4.751   1.953   0.432 -1.7407  1.9869  0.2097
 5286SOL    HW320917   4.715   1.995   0.573 -0.8770 -1.1396  1.4405
 5286SOL    MW420918   4.728   1.932   0.513 -0.3156  0.1028  0.2036
 5287SOL     OW20919   4.765   5.449   4.003 -0.5320 -0.2771  0.0784
 5287SOL    HW220920   4.850   5.444   3.960 -0.9084 -0.2676 -0.6804
 5287SOL    HW320921   4.702   5.448   3.931 -1.2292 -1.5397  0.6633
 5287SOL    MW420922   4.768   5.448   3.988 -0.6736 -0.4424  0.0555
 5288SOL     OW20923   4.482   1.028   3.298 -0.2618 -0.1657  0.1138
 5288SOL    HW220924   4.544   0.956   3.311  1.2407  1.1295  0.4344
 5288SOL    HW320925   4.471   1.066   3.385 -1.3242 -0.2163  0.0101
 5288SOL    MW420926   4.489   1.023   3.311 -0.2037 -0.0015  0.1424
 5289SOL     OW20927   1.737   6.178   2.436 -0.5014 -0.0615 -0.2789
 5289SOL    HW220928   1.821   6.135   2.448  0.3679  1.5013 -0.4178
 5289SOL    HW320929   1.674   6.107   2.426  0.6328 -1.2801  0.8897
 5289SOL    MW420930   1.740   6.163   2.437 -0.2371 -0.0161 -0.1431
 5290SOL     OW20931   2.192   5.106   0.089 -0.3611 -0.3949 -0.2997
 5290SOL    HW220932   2.272   5.147   0.056 -1.0919  2.1293  0.8058
 5290SOL    HW320933   2.222   5.026   0.132  1.5754  0.4049 -0.0372
 5290SOL    MW420934   2.206   5.101   0.091 -0.2020  0.0436 -0.1192
 5291SOL     OW20935   0.160   0.315   2.463  0.0028  0.2621 -0.2683
 5291SOL    HW220936   0.081   0.282   2.505  0.3660  0.4811  0.6068
 5291SOL    HW320937   0.153   0.287   2.372 -0.5033 -0.7595  0.0749
 5291SOL    MW420938   0.149   0.307   2.456 -0.0161  0.1562 -0.1076
 5292SOL     OW20939   0.493   1.388   2.684  0.2390 -0.4471 -0.3327
 5292SOL    HW220940   0.443   1.399   2.765  0.4361  0.4603 -0.3297
 5292SOL    HW320941   0.438   1.330   2.630  0.2891 -1.3877  0.5933
 5292SOL    MW420942   0.479   1.382   2.688  0.2716 -0.4515 -0.2101
 5293SOL     OW20943   0.964   4.530   5.839 -0.2012  0.1983 -0.2800
 5293SOL    HW220944   0.876   4.498   5.859  0.2943 -1.0721 -0.0897
 5293SOL    HW320945   0.948   4.607   5.783 -1.4203 -0.4972 -0.9444
 5293SOL    MW420946   0.950   4.536   5.834 -0.2967 -0.0611 -0.3426
 5294SOL     OW20947   4.394   5.264   0.231 -0.2528  0.6143 -0.1417
 5294SOL    HW220948   4.401   5.270   0.326  2.4210  0.2297 -0.2367
 5294SOL    HW320949   4.402   5.171   0.212  2.1338  0.9116 -0.8392
 5294SOL    MW420950   4.396   5.253   0.241  0.4149  0.6027 -0.2462
 5295SOL     OW20951   2.650   0.616   3.501  0.5985 -0.7607  0.2985
 5295SOL    HW220952   2.590   0.543   3.512  0.2493 -0.3696  1.0977
 5295SOL    HW320953   2.616   0.684   3.559  1.2981 -0.2087  0.0806
 5295SOL    MW420954   2.638   0.615   3.510  0.6447 -0.6363  0.3752
 5296SOL     OW20955   3.287   5.632   0.034 -0.1965  0.3331  0.3172
 5296SOL    HW220956   3.211   5.576   0.020  0.0895  0.1373 -0.5120
 5296SOL    HW320957   3.323   5.604   0.118 -0.2358 -0.5220  0.0576
 5296SOL    MW420958   3.282   5.621   0.044 -0.1640  0.1945  0.1735
 5297SOL     OW20959   3.838   0.169   1.388  1.2162 -0.3252 -0.4810
 5297SOL    HW220960   3.861   0.129   1.304  2.1727 -0.8719  0.0308
 5297SOL    HW320961   3.815   0.095   1.445  1.9859 -0.0819  0.1635
 5297SOL    MW420962   3.838   0.154   1.384  1.4440 -0.3652 -0.3284
 5298SOL     OW20963   5.709   3.086   0.628 -0.0050  0.0593  0.0074
 5298SOL    HW220964   5.709   3.009   0.685  1.6889 -0.7412 -1.0173
 5298SOL    HW320965   5.794   3.127   0.642  0.5440 -0.2715 -2.0240
 5298SOL    MW420966   5.720   3.081   0.637  0.2909 -0.0900 -0.3958
 5299SOL     OW20967   3.194   4.406   2.664 -0.2972 -0.1945 -0.6491
 5299SOL    HW220968   3.134   4.379   2.595 -0.4510 -2.8968  0.3984
 5299SOL    HW320969   3.205   4.327   2.718  1.8642  1.0503  0.8966
 5299SOL    MW420970   3.188   4.392   2.662 -0.0323 -0.3868 -0.3070
 5300SOL     OW20971   6.266   2.869   6.232 -0.3278 -0.1123 -0.2614
 5300SOL    HW220972   6.357   2.900   6.237 -0.7002  0.8850  0.9053
 5300SOL    HW320973   6.273   2.778   6.205  0.9858  0.1357 -0.8259
 5300SOL    MW420974   6.279   2.861   6.229 -0.2036  0.0520 -0.1820
 5301SOL     OW20975   5.418   3.016   2.996 -0.0873 -0.2673 -0.7423
 5301SOL    HW220976   5.441   3.085   2.934 -1.0142  0.9678  0.2328
 5301SOL    HW320977   5.342   2.973   2.956 -1.2638  1.1187 -0.1094
 5301SOL    MW420978   5.411   3.019   2.983 -0.3648  0.0785 -0.5302
 5302SOL     OW20979   4.205   0.239   0.185 -0.0389  0.0665 -0.0639
 5302SOL    HW220980   4.178   0.329   0.206 -1.5675  0.0538 -1.8049
 5302SOL    HW320981   4.297   0.236   0.210  0.3367  2.4520 -0.9007
 5302SOL    MW420982   4.213   0.251   0.191 -0.1910  0.3796 -0.4040
 5303SOL     OW20983   1.206   4.635   0.393 -0.0899 -0.1150 -0.0358
 5303SOL    HW220984   1.155   4.704   0.349  0.1221 -0.2714 -0.5254
 5303SOL    HW320985   1.201   4.658   0.486  0.8322  1.1479 -0.2711
 5303SOL    MW420986   1.198   4.647   0.399  0.0597  0.0310 -0.1314
 5304SOL     OW20987   5.485   1.679   2.993 -0.0502  0.7113  0.0564
 5304SOL    HW220988   5.567   1.704   2.950 -0.0571  0.2066 -0.2497
 5304SOL    HW320989   5.513   1.637   3.074 -0.0304  1.3470  0.3873
 5304SOL    MW420990   5.500   1.677   2.998 -0.0485  0.7286  0.0597
 5305SOL     OW20991   3.559   1.252   1.606 -0.1906 -0.2298 -0.5514
 5305SOL    HW220992   3.510   1.318   1.557 -0.4110 -1.4003 -1.9869
 5305SOL    HW320993   3.651   1.272   1.586 -0.2104  0.2434 -0.1740
 5305SOL    MW420994   3.565   1.263   1.597 -0.2223 -0.3218 -0.6910
 5306SOL     OW20995   4.857   4.191   2.843  0.1214 -0.0749  0.8842
 5306SOL    HW220996   4.822   4.281   2.837  1.6557  0.4383 -1.8206
 5306SOL    HW320997   4.941   4.201   2.887  0.1259 -0.2566  0.9176
 5306SOL    MW420998   4.863   4.205   2.848  0.3244 -0.0311  0.5317
 5307SOL     OW20999   5.871   1.452   6.148 -0.0699 -0.0804  0.5667
 5307SOL    HW221000   5.843   1.455   6.056 -2.1520  2.2484  1.1616
 5307SOL    HW321001   5.811   1.390   6.189 -0.7085  0.6482  0.7623
 5307SOL    MW421002   5.859   1.444   6.141 -0.4288  0.3230  0.6710
 5308SOL     OW21003   4.112   1.681   4.869  0.0209  0.3100 -0.3415
 5308SOL    HW221004   4.060   1.758   4.849  1.0190  1.1653  0.2887
 5308SOL    HW321005   4.120   1.635   4.785  2.8431  3.0170 -1.7754
 5308SOL    MW421006   4.106   1.685   4.855  0.5250  0.7800 -0.4475
 5309SOL     OW21007   3.402   5.114   4.998  0.3208 -0.4647  0.2001
 5309SOL    HW221008   3.455   5.065   4.935 -0.2961 -0.8933  0.0100
 5309SOL    HW321009   3.338   5.051   5.030 -0.8227  0.3327 -0.4374
 5309SOL    MW421010   3.401   5.099   4.994  0.0885 -0.4161  0.0909
 5310SOL     OW21011   0.275   1.017   4.111 -0.4186  0.2687  0.0762
 5310SOL    HW221012   0.259   0.925   4.132  0.3104  0.0325 -0.3655
 5310SOL    HW321013   0.357   1.038   4.154 -0.6620  0.7622  0.3043
 5310SOL    MW421014   0.284   1.008   4.119 -0.3545  0.3026  0.0480
 5311SOL     OW21015   2.545   0.398   2.358  0.5003 -0.3999 -0.2058
 5311SOL    HW221016   2.607   0.399   2.431 -1.2486 -1.0679  1.3758
 5311SOL    HW321017   2.514   0.308   2.354  0.0081 -0.2029 -1.3071
 5311SOL    MW421018   2.549   0.386   2.367  0.2046 -0.4621 -0.1425
 5312SOL     OW21019   4.151   3.951   0.933  0.6041  0.5373  0.0176
 5312SOL    HW221020   4.197   3.878   0.891  0.9127  0.2867  0.7712
 5312SOL    HW321021   4.062   3.918   0.947  0.5167  0.5996 -0.3652
 5312SOL    MW421022   4.145   3.937   0.929  0.6333  0.5124  0.0665
 5313SOL     OW21023   5.063   5.858   4.314 -0.1143 -0.2817 -0.0106
 5313SOL    HW221024   5.119   5.803   4.259  1.7486  1.7956 -0.3484
 5313SOL    HW321025   4.986   5.875   4.261  0.0068 -1.2596 -0.5181
 5313SOL    MW421026   5.061   5.853   4.300  0.1475 -0.1367 -0.1221
 5314SOL     OW21027   3.054   0.217   5.501 -0.1640  0.0300 -0.2836
 5314SOL    HW221028   3.010   0.137   5.473  0.3348 -0.3541 -0.0114
 5314SOL    HW321029   3.093   0.194   5.586  1.3832  0.0305 -0.9530
 5314SOL    MW421030   3.054   0.203   5.509  0.1059 -0.0206 -0.3360
 5315SOL     OW21031   0.751   1.091   0.462  0.2206 -0.3173 -0.1921
 5315SOL    HW221032   0.821   1.029   0.441  1.0819  0.3769  0.5465
 5315SOL    HW321033   0.698   1.047   0.528  1.3944  0.0776  1.0569
 5315SOL    MW421034   0.753   1.077   0.468  0.4891 -0.1736  0.0701
 5316SOL     OW21035   1.075   2.340   6.402 -0.5767  0.0975 -0.6561
 5316SOL    HW221036   1.042   2.394   6.473  1.6942  1.0609 -0.2339
 5316SOL    HW321037   1.114   2.402   6.340  0.6619 -0.9332 -0.9640
 5316SOL    MW421038   1.076   2.355   6.403 -0.1137  0.0886 -0.6410
 5317SOL     OW21039   1.103   4.570   4.820 -0.0479  0.1724 -0.5748
 5317SOL    HW221040   1.037   4.572   4.751 -0.1187 -1.7143 -0.6221
 5317SOL    HW321041   1.122   4.476   4.832  1.9122  0.6090  0.0971
 5317SOL    MW421042   1.097   4.558   4.812  0.2014 -0.0189 -0.4924
 5318SOL     OW21043   5.953   0.750   4.282  0.3146  0.0786  0.1367
 5318SOL    HW221044   6.044   0.744   4.310 -0.2820 -0.9864  2.0299
 5318SOL    HW321045   5.953   0.715   4.193  1.7657  0.2959  0.0218
 5318SOL    MW421046   5.965   0.745   4.274  0.4274 -0.0332  0.3713
 5319SOL     OW21047   2.997   2.639   5.151  0.0647 -0.1985  0.8464
 5319SOL    HW221048   3.082   2.648   5.109 -0.8588 -0.1952 -1.1427
 5319SOL    HW321049   2.937   2.617   5.079 -1.8912  1.3397  1.9064
 5319SOL    MW421050   3.000   2.637   5.136 -0.3152  0.0049  0.7238
 5320SOL     OW21051   4.869   1.430   3.520  0.3147 -0.3867 -0.2472
 5320SOL    HW221052   4.796   1.457   3.577  0.7714 -1.0758  0.6888
 5320SOL    HW321053   4.945   1.428   3.578  1.3976  1.6886 -1.5028
 5320SOL    MW421054   4.869   1.433   3.536  0.5179 -0.2038 -0.2893
 5321SOL     OW21055   0.094   0.589   2.645 -0.2915  0.0009 -0.0196
 5321SOL    HW221056   0.184   0.616   2.627  0.0185  0.1671  1.6562
 5321SOL    HW321057   0.098   0.544   2.729 -1.8750  0.5660  0.4025
 5321SOL    MW421058   0.106   0.586   2.654 -0.4595  0.0974  0.2572
 5322SOL     OW21059   4.399   0.272   4.300 -0.1013 -0.7140  0.2989
 5322SOL    HW221060   4.378   0.341   4.237  0.9795  1.6465  2.3505
 5322SOL    HW321061   4.313   0.240   4.329 -0.6824  0.6156  0.1329
 5322SOL    MW421062   4.385   0.277   4.295 -0.0354 -0.2271  0.5477
 5323SOL     OW21063   4.622   6.382   3.060 -0.4898 -0.3909 -0.3492
 5323SOL    HW221064   4.699   6.361   3.114 -0.2094 -0.1385 -0.6439
 5323SOL    HW321065   4.548   6.375   3.120 -0.0929  0.7992  0.3193
 5323SOL    MW421066   4.623   6.378   3.075 -0.4004 -0.2006 -0.2999
 5324SOL     OW21067   5.404   0.880   1.097 -0.4742  0.1801 -0.0932
 5324SOL    HW221068   5.357   0.895   1.178  0.1636  0.6323  0.2046
 5324SOL    HW321069   5.373   0.795   1.066  1.0933 -1.2167  1.9186
 5324SOL    MW421070   5.394   0.871   1.103 -0.1833  0.0555  0.2115
 5325SOL     OW21071   1.068   4.211   4.113 -0.8133  0.2102  0.0735
 5325SOL    HW221072   1.128   4.225   4.186 -1.6538  0.8314  0.6616
 5325SOL    HW321073   1.023   4.128   4.134  1.6575 -1.7270 -1.6742
 5325SOL    MW421074   1.070   4.202   4.125 -0.5982  0.0366 -0.0795
 5326SOL     OW21075   1.339   1.884   5.294 -0.8190  0.2973 -0.3095
 5326SOL    HW221076   1.425   1.854   5.324  0.2102  1.0321 -2.3119
 5326SOL    HW321077   1.317   1.956   5.353 -0.1241 -0.0107  0.3343
 5326SOL    MW421078   1.347   1.890   5.305 -0.5915  0.3536 -0.4887
 5327SOL     OW21079   3.696   1.629   2.343 -0.3264  0.2861 -0.6542
 5327SOL    HW221080   3.603   1.640   2.364  0.0126  1.4909  0.3529
 5327SOL    HW321081   3.713   1.694   2.275  0.2789  1.8443  0.8876
 5327SOL    MW421082   3.686   1.639   2.337 -0.2018  0.6507 -0.3179
 5328SOL     OW21083   4.551   4.342   2.566 -0.0318 -0.4281 -0.2669
 5328SOL    HW221084   4.596   4.409   2.515 -0.6434 -1.3958 -2.1930
 5328SOL    HW321085   4.621   4.281   2.592  0.4923  0.7837  1.3174
 5328SOL    MW421086   4.566   4.342   2.563 -0.0434 -0.3959 -0.3120
 5329SOL     OW21087   3.082   4.109   0.647 -0.1135  0.0734  0.1582
 5329SOL    HW221088   3.176   4.108   0.629  0.1418 -1.0844  1.4684
 5329SOL    HW321089   3.042   4.102   0.561  1.0296 -2.0038 -0.2596
 5329SOL    MW421090   3.089   4.108   0.633  0.0710 -0.3534  0.2759
 5330SOL     OW21091   2.645   2.832   1.541 -0.4235 -0.4306  0.1182
 5330SOL    HW221092   2.579   2.891   1.575 -0.2540  0.3228 -0.8482
 5330SOL    HW321093   2.711   2.829   1.610 -1.1364 -0.6722  0.8033
 5330SOL    MW421094   2.645   2.839   1.555 -0.4952 -0.3631  0.0811
 5331SOL     OW21095   3.539   0.558   5.401 -0.0739 -0.3777 -0.4334
 5331SOL    HW221096   3.489   0.487   5.362 -0.0797 -1.0445  0.7418
 5331SOL    HW321097   3.492   0.578   5.482 -0.1045  1.0137 -0.7641
 5331SOL    MW421098   3.526   0.551   5.407 -0.0787 -0.2821 -0.3220
 5332SOL     OW21099   5.165   5.057   0.143 -0.5917 -0.4005 -0.5694
 5332SOL    HW221100   5.184   4.989   0.207  1.8538  0.6428 -0.0469
 5332SOL    HW321101   5.251   5.092   0.120 -1.5722  0.7519 -2.7850
 5332SOL    MW421102   5.179   5.052   0.148 -0.3984 -0.1108 -0.7928
 5333SOL     OW21103   4.108   5.044   6.267  0.6009  0.0087 -0.0318
 5333SOL    HW221104   4.095   5.083   6.181  0.0782 -0.4236 -0.1514
 5333SOL    HW321105   4.046   5.090   6.324  0.4370 -0.2041 -0.0384
 5333SOL    MW421106   4.098   5.055   6.263  0.5103 -0.0764 -0.0484
 5334SOL     OW21107   0.514   2.305   0.596  0.2235 -0.1593  0.3002
 5334SOL    HW221108   0.573   2.239   0.561 -1.4123 -1.6696  0.2534
 5334SOL    HW321109   0.427   2.281   0.563 -0.6797  1.0318  1.6436
 5334SOL    MW421110   0.510   2.293   0.587 -0.1115 -0.2014  0.4712
 5335SOL     OW21111   4.239   6.175   5.220 -0.8162 -0.0162  0.0038
 5335SOL    HW221112   4.309   6.123   5.260 -1.1394 -0.7249 -0.3375
 5335SOL    HW321113   4.284   6.251   5.183 -0.1703 -0.6358 -0.5284
 5335SOL    MW421114   4.254   6.178   5.221 -0.7736 -0.1914 -0.1115
 5336SOL     OW21115   4.221   4.799   1.220 -0.4667  0.3162  0.7750
 5336SOL    HW221116   4.314   4.791   1.241 -0.0729  0.5849 -0.7428
 5336SOL    HW321117   4.214   4.885   1.178 -1.2720 -0.0121  0.2282
 5336SOL    MW421118   4.232   4.809   1.217 -0.5210  0.3083  0.5026
 5337SOL     OW21119   2.529   4.413   4.442  0.0557 -0.5296 -0.3901
 5337SOL    HW221120   2.558   4.343   4.500  1.3144  2.0841  2.4163
 5337SOL    HW321121   2.463   4.461   4.492 -1.0675  0.1410 -2.3602
 5337SOL    MW421122   2.524   4.410   4.456  0.0736 -0.0962 -0.2798
 5338SOL     OW21123   4.476   1.064   4.060  0.5765 -0.3985 -0.7229
 5338SOL    HW221124   4.548   1.107   4.015  0.4741  0.8215  0.2292
 5338SOL    HW321125   4.504   1.057   4.151 -0.9371  1.1755 -0.0836
 5338SOL    MW421126   4.489   1.068   4.066  0.3633 -0.0299 -0.5129
 5339SOL     OW21127   0.840   1.895   6.007 -0.0698 -0.3975  0.0939
 5339SOL    HW221128   0.860   1.820   5.950 -0.6533  0.3149 -1.1017
 5339SOL    HW321129   0.857   1.972   5.951 -0.3149  0.3408  1.0116
 5339SOL    MW421130   0.845   1.896   5.992 -0.1791 -0.2061  0.0572
 5340SOL     OW21131   2.169   5.618   0.044 -0.5008 -0.9881 -0.7203
 5340SOL    HW221132   2.263   5.637   0.039 -0.6772 -0.3445 -2.3157
 5340SOL    HW321133   2.147   5.585  -0.043 -1.7095 -1.4033 -0.2799
 5340SOL    MW421134   2.179   5.616   0.032 -0.6835 -0.9580 -0.8727
 5341SOL     OW21135   3.306   3.272   3.581 -0.1959  0.3027  0.0613
 5341SOL    HW221136   3.269   3.355   3.551 -2.3582 -1.1507 -1.6109
 5341SOL    HW321137   3.386   3.261   3.528 -0.8993  0.4699 -1.0665
 5341SOL    MW421138   3.312   3.282   3.570 -0.5740  0.1330 -0.3081
 5342SOL     OW21139   2.833   3.436   1.967 -0.1923 -0.0847 -0.5068
 5342SOL    HW221140   2.844   3.357   1.915  0.3715  0.5703 -1.4273
 5342SOL    HW321141   2.914   3.445   2.016  0.0527  0.3016 -0.9675
 5342SOL    MW421142   2.845   3.427   1.966 -0.0856  0.0527 -0.6891
 5343SOL     OW21143   1.227   5.615   2.467 -0.6771  0.1434  0.2675
 5343SOL    HW221144   1.261   5.532   2.432 -1.4261  0.1830 -0.5894
 5343SOL    HW321145   1.209   5.668   2.389 -0.7595  0.8877  0.7883
 5343SOL    MW421146   1.229   5.611   2.452 -0.7868  0.2468  0.2232
 5344SOL     OW21147   3.840   4.508   4.103 -0.2562  0.2454  0.7242
 5344SOL    HW221148   3.931   4.540   4.101 -0.5002  1.0259 -1.4468
 5344SOL    HW321149   3.791   4.574   4.054 -1.3457 -1.9130 -1.3113
 5344SOL    MW421150   3.846   4.521   4.096 -0.4322  0.0636  0.1692
 5345SOL     OW21151   2.684   2.601   1.279  0.3484  0.5092  0.3315
 5345SOL    HW221152   2.603   2.643   1.310  1.3822  1.6056  1.6900
 5345SOL    HW321153   2.751   2.668   1.290  1.2639  0.0614 -1.9839
 5345SOL    MW421154   2.682   2.615   1.285  0.6056  0.5947  0.2052
 5346SOL     OW21155   5.737   2.346   0.409  0.4610 -0.0544  0.0689
 5346SOL    HW221156   5.704   2.435   0.394  1.2986  0.3021  0.3086
 5346SOL    HW321157   5.703   2.322   0.495  2.2161  0.9989  1.1311
 5346SOL    MW421158   5.728   2.355   0.418  0.8031  0.1316  0.2407
 5347SOL     OW21159   3.564   2.627   0.061  0.4314  0.2371  0.1688
 5347SOL    HW221160   3.509   2.604  -0.014  0.0460  1.7860 -0.0557
 5347SOL    HW321161   3.574   2.545   0.110 -1.0881 -0.3287 -0.4159
 5347SOL    MW421162   3.558   2.613   0.057  0.1801  0.3668  0.0621
 5348SOL     OW21163   5.000   0.647   3.876 -0.0440 -0.3072 -0.2476
 5348SOL    HW221164   5.043   0.561   3.874  2.2178  0.7230  0.7591
 5348SOL    HW321165   4.975   0.663   3.785  1.1297 -1.2843 -0.7712
 5348SOL    MW421166   5.002   0.638   3.864  0.4092 -0.3002 -0.1839
 5349SOL     OW21167   4.367   1.331   4.002 -0.2085 -0.1649 -0.3549
 5349SOL    HW221168   4.407   1.412   4.035  0.5777 -0.2675 -1.0250
 5349SOL    HW321169   4.437   1.266   4.006 -0.1352 -0.2342 -1.9741
 5349SOL    MW421170   4.382   1.333   4.007 -0.0951 -0.1876 -0.6569
 5350SOL     OW21171   4.525   5.594   5.705 -0.1117 -0.5939  0.2798
 5350SOL    HW221172   4.592   5.537   5.742  0.5988 -0.9104 -1.3766
 5350SOL    HW321173   4.566   5.631   5.627 -1.4735  0.1320 -0.1245
 5350SOL    MW421174   4.539   5.592   5.699 -0.1977 -0.5399  0.0079
 5351SOL     OW21175   1.817   5.746   3.770  0.3723 -0.0819 -0.3409
 5351SOL    HW221176   1.878   5.723   3.840  0.5936  0.2870 -0.4083
 5351SOL    HW321177   1.731   5.720   3.803  0.3508  0.9650  0.4625
 5351SOL    MW421178   1.814   5.740   3.783  0.3986  0.1049 -0.2438
 5352SOL     OW21179   3.703   1.865   5.009 -0.1380 -0.0507  0.0794
 5352SOL    HW221180   3.609   1.857   5.023 -0.2764 -1.4696 -1.2812
 5352SOL    HW321181   3.735   1.775   5.014  0.9958  0.3131 -0.3922
 5352SOL    MW421182   3.695   1.852   5.011 -0.0067 -0.1899 -0.1624
 5353SOL     OW21183   3.935   3.625   6.405 -0.0523 -0.2345  0.0387
 5353SOL    HW221184   3.853   3.655   6.444 -0.4297  0.1783 -1.0289
 5353SOL    HW321185   3.918   3.535   6.377 -0.5950  0.2987 -1.4023
 5353SOL    MW421186   3.922   3.617   6.407 -0.1737 -0.1097 -0.2923
 5354SOL     OW21187   0.768   4.475   3.091  0.1882  0.3157  0.4301
 5354SOL    HW221188   0.838   4.469   3.156  1.1087  2.5356 -0.2440
 5354SOL    HW321189   0.698   4.524   3.135 -0.0367  0.0203  0.4043
 5354SOL    MW421190   0.768   4.481   3.105  0.2800  0.5696  0.3377
 5355SOL     OW21191   0.879   2.436   1.691 -0.3723  0.3988 -0.3253
 5355SOL    HW221192   0.784   2.437   1.693 -0.4251 -0.8946  1.7873
 5355SOL    HW321193   0.903   2.361   1.746  1.8693  0.9538 -0.4424
 5355SOL    MW421194   0.870   2.426   1.699 -0.0835  0.3014 -0.0620
 5356SOL     OW21195   3.381   5.762   1.362  0.4060 -0.1217  0.4134
 5356SOL    HW221196   3.431   5.834   1.322 -0.8024  0.2320 -0.5043
 5356SOL    HW321197   3.347   5.712   1.287  1.1503 -1.6298  1.0317
 5356SOL    MW421198   3.383   5.765   1.347  0.3448 -0.2740  0.3739
 5357SOL     OW21199   4.367   1.417   1.838 -0.8880  0.3818 -0.2716
 5357SOL    HW221200   4.365   1.498   1.890 -3.9639 -0.8688  1.8855
 5357SOL    HW321201   4.405   1.352   1.897  0.8691  0.0169 -1.7233
 5357SOL    MW421202   4.372   1.419   1.853 -1.0620  0.1687 -0.1785
 5358SOL     OW21203   4.249   2.358   2.893 -0.5121  0.1269  0.0567
 5358SOL    HW221204   4.275   2.444   2.927 -0.5045 -0.0388  0.4756
 5358SOL    HW321205   4.267   2.297   2.965  0.8037 -0.4419 -0.7330
 5358SOL    MW421206   4.254   2.361   2.907 -0.3375  0.0300  0.0078
 5359SOL     OW21207   1.531   1.653   5.087  0.4765  0.3162  0.1432
 5359SOL    HW221208   1.586   1.683   5.159 -0.5891 -0.0180  1.1151
 5359SOL    HW321209   1.568   1.568   5.062  0.3067  0.0117  0.9074
 5359SOL    MW421210   1.543   1.646   5.093  0.3135  0.2319  0.3723
 5360SOL     OW21211   4.935   5.728   0.199  0.4631 -0.3462 -0.1838
 5360SOL    HW221212   4.858   5.739   0.255 -0.5688 -0.2319 -1.5720
 5360SOL    HW321213   5.010   5.735   0.259 -0.5752  0.4239  1.0705
 5360SOL    MW421214   4.935   5.731   0.214  0.1899 -0.2295 -0.2015
 5361SOL     OW21215   5.301   5.722   0.597 -0.1746  0.2056 -0.4845
 5361SOL    HW221216   5.249   5.721   0.517  0.5849 -0.9865 -0.9897
 5361SOL    HW321217   5.323   5.815   0.609 -2.6447  0.8004 -0.0470
 5361SOL    MW421218   5.297   5.734   0.588 -0.4003  0.1268 -0.4934
 5362SOL     OW21219   3.972   5.896   5.194  0.2154 -0.2137 -0.1415
 5362SOL    HW221220   3.988   5.805   5.215 -0.7432 -0.7110 -1.4197
 5362SOL    HW321221   4.044   5.920   5.136  1.5453  0.4602  1.6905
 5362SOL    MW421222   3.984   5.887   5.189  0.2643 -0.1904 -0.0684
 5363SOL     OW21223   1.548   6.372   6.006  0.6585 -0.0489 -0.1088
 5363SOL    HW221224   1.589   6.313   5.943 -0.6638  0.1369 -1.2037
 5363SOL    HW321225   1.468   6.326   6.033  0.9238  0.1211  1.0294
 5363SOL    MW421226   1.543   6.358   6.001  0.5191 -0.0019 -0.1031
 5364SOL     OW21227   1.199   0.724   2.474  0.0500 -0.6972 -0.1377
 5364SOL    HW221228   1.210   0.762   2.560  0.1267 -0.7936 -0.1044
 5364SOL    HW321229   1.134   0.655   2.486 -0.8761  0.1232 -0.4109
 5364SOL    MW421230   1.192   0.720   2.487 -0.0620 -0.6017 -0.1694
 5365SOL     OW21231   3.457   5.189   5.979 -0.3012 -0.6897  0.0623
 5365SOL    HW221232   3.385   5.252   5.973  1.0757  0.9091 -0.4890
 5365SOL    HW321233   3.417   5.110   6.016 -2.1058  0.4648  0.7002
 5365SOL    MW421234   3.442   5.187   5.983 -0.3576 -0.3265  0.0737
 5366SOL     OW21235   0.312   3.422   3.212 -0.5281 -1.0240  0.0443
 5366SOL    HW221236   0.244   3.356   3.220 -1.0009 -0.7710 -1.4521
 5366SOL    HW321237   0.268   3.505   3.231  0.6242 -1.1802  4.6343
 5366SOL    MW421238   0.297   3.424   3.215 -0.4384 -1.0112  0.4524
 5367SOL     OW21239   5.398   0.751   2.391  0.3024  0.0353 -0.2437
 5367SOL    HW221240   5.416   0.715   2.304 -2.0475 -3.3853  0.5051
 5367SOL    HW321241   5.484   0.771   2.427  1.6433 -2.3216 -1.8737
 5367SOL    MW421242   5.411   0.749   2.384  0.1693 -0.7270 -0.3599
 5368SOL     OW21243   3.683   3.027   1.462  0.0840 -0.0729 -0.0490
 5368SOL    HW221244   3.729   3.039   1.545  0.5288 -0.9274 -0.1588
 5368SOL    HW321245   3.753   3.028   1.396  0.1129 -2.4223 -0.1286
 5368SOL    MW421246   3.699   3.029   1.464  0.1465 -0.4956 -0.0740
 5369SOL     OW21247   2.106   0.918   3.936 -0.6356  0.3956  0.3704
 5369SOL    HW221248   2.040   0.901   4.003  0.6103 -1.2052  1.2599
 5369SOL    HW321249   2.144   0.833   3.917  1.7560  1.3366  0.5275
 5369SOL    MW421250   2.103   0.905   3.942 -0.1557  0.3086  0.5085
 5370SOL     OW21251   4.662   3.751   2.427  0.5790 -0.1990  0.4557
 5370SOL    HW221252   4.593   3.789   2.482  0.5201 -0.4436  0.5539
 5370SOL    HW321253   4.740   3.802   2.447  0.5335 -0.2228  0.6925
 5370SOL    MW421254   4.663   3.762   2.437  0.5652 -0.2344  0.4999
 5371SOL     OW21255   5.814   0.585   2.546  0.4520 -0.1835  0.3247
 5371SOL    HW221256   5.817   0.536   2.464 -0.3476 -3.1388  1.9336
 5371SOL    HW321257   5.740   0.644   2.536 -0.0497 -0.9711 -0.8421
 5371SOL    MW421258   5.805   0.586   2.533  0.2803 -0.6774  0.3830
 5372SOL     OW21259   5.483   0.784   3.846 -0.1369  0.2660 -0.2421
 5372SOL    HW221260   5.526   0.847   3.788  0.9571  0.0170  0.2663
 5372SOL    HW321261   5.548   0.766   3.914 -0.9699 -0.3158  0.4260
 5372SOL    MW421262   5.497   0.790   3.847 -0.1025  0.1563 -0.0869
 5373SOL     OW21263   2.340   4.433   4.053  0.4725 -0.5682 -0.3899
 5373SOL    HW221264   2.430   4.454   4.027  0.1422  0.1165 -1.0180
 5373SOL    HW321265   2.350   4.381   4.133  1.4124 -0.1270 -0.1972
 5373SOL    MW421266   2.354   4.429   4.060  0.5529 -0.4196 -0.4473
 5374SOL     OW21267   1.792   4.177   3.824 -0.4541  0.7551 -0.1032
 5374SOL    HW221268   1.745   4.094   3.828  0.3479  0.3023  0.2720
 5374SOL    HW321269   1.812   4.197   3.916  0.5697  0.6292 -0.2827
 5374SOL    MW421270   1.788   4.168   3.837 -0.2132  0.6788 -0.0774
 5375SOL     OW21271   5.138   4.527   1.755 -0.3663 -0.5412  0.0038
 5375SOL    HW221272   5.114   4.457   1.815 -0.8102  0.1048  0.6043
 5375SOL    HW321273   5.208   4.490   1.701 -0.9735 -1.6236 -0.0744
 5375SOL    MW421274   5.144   4.513   1.756 -0.5050 -0.5987  0.0727
 5376SOL     OW21275   6.134   5.351   1.346 -0.1207 -0.0464  0.5246
 5376SOL    HW221276   6.221   5.316   1.324  0.3888  0.7862  1.1628
 5376SOL    HW321277   6.097   5.286   1.407  0.3143 -0.0852  0.7495
 5376SOL    MW421278   6.141   5.338   1.351  0.0039  0.0583  0.6385
 5377SOL     OW21279   0.834   4.331   4.839  0.2908 -0.2794  0.7076
 5377SOL    HW221280   0.903   4.347   4.903  0.3285  2.4718  0.1260
 5377SOL    HW321281   0.857   4.387   4.765 -1.1354 -1.3858 -0.6476
 5377SOL    MW421282   0.846   4.341   4.838  0.1076 -0.0624  0.4521
 5378SOL     OW21283   3.231   5.673   4.009  0.4558  0.4603  0.5190
 5378SOL    HW221284   3.308   5.617   4.006  0.7464  0.7493  1.7233
 5378SOL    HW321285   3.262   5.754   4.051 -0.7276  0.1296  2.1521
 5378SOL    MW421286   3.245   5.676   4.014  0.3380  0.4548  0.8933
 5379SOL     OW21287   5.232   1.849   0.727  0.4647  0.9791  0.4512
 5379SOL    HW221288   5.317   1.818   0.695  1.0452 -0.8615  3.3775
 5379SOL    HW321289   5.195   1.774   0.774 -1.5932  2.5313  1.4883
 5379SOL    MW421290   5.238   1.835   0.729  0.2698  0.9411  0.9741
 5380SOL     OW21291   2.046   2.004   4.872 -0.6973  0.7643  0.2052
 5380SOL    HW221292   2.104   2.053   4.814  0.0265  0.4366  0.6474
 5380SOL    HW321293   1.958   2.031   4.846 -0.3316  1.7769 -0.0209
 5380SOL    MW421294   2.042   2.014   4.861 -0.5536  0.8547  0.2337
 5381SOL     OW21295   0.818   2.684   0.937  0.3597  0.2512 -0.5480
 5381SOL    HW221296   0.850   2.771   0.960  0.2259  0.0072  0.6579
 5381SOL    HW321297   0.896   2.629   0.938  0.4684  0.3714 -1.4640
 5381SOL    MW421298   0.832   2.688   0.940  0.3564  0.2349 -0.5098
 5382SOL     OW21299   4.741   5.385   6.049  0.6655  0.1246 -0.0967
 5382SOL    HW221300   4.646   5.370   6.052  0.4745  1.4013  1.0785
 5382SOL    HW321301   4.753   5.470   6.091  2.2811  0.3003 -0.8452
 5382SOL    MW421302   4.730   5.394   6.055  0.8534  0.3163 -0.0404
 5383SOL     OW21303   1.328   4.713   4.910 -0.0411  0.1795  0.0675
 5383SOL    HW221304   1.254   4.672   4.866 -0.1548 -0.4044  0.7781
 5383SOL    HW321305   1.291   4.788   4.956 -0.0013  0.5209 -0.4599
 5383SOL    MW421306   1.313   4.717   4.910 -0.0508  0.1475  0.0917
 5384SOL     OW21307   5.040   6.021   1.293  0.2516 -0.5883  0.3528
 5384SOL    HW221308   4.963   6.059   1.250  0.9307  1.3698  0.7627
 5384SOL    HW321309   5.013   5.932   1.315 -1.1787 -0.6317 -1.3238
 5384SOL    MW421310   5.026   6.015   1.290  0.1525 -0.3357  0.1857
 5385SOL     OW21311   1.129   6.157   0.527 -0.3606 -0.0339 -0.7070
 5385SOL    HW221312   1.200   6.166   0.590 -0.7904 -0.9962 -0.0711
 5385SOL    HW321313   1.172   6.136   0.444  0.0896 -0.8421 -0.2770
 5385SOL    MW421314   1.144   6.156   0.524 -0.3579 -0.2675 -0.5664
 5386SOL     OW21315   4.435   4.568   0.292 -0.0241  0.8604 -0.7830
 5386SOL    HW221316   4.348   4.581   0.330  0.3723  1.4774 -0.0476
 5386SOL    HW321317   4.468   4.490   0.335 -0.4012  0.3248 -1.4396
 5386SOL    MW421318   4.428   4.559   0.303 -0.0216  0.8711 -0.7726
 5387SOL     OW21319   2.033   2.866   4.753  0.4463 -0.0475  0.1981
 5387SOL    HW221320   1.974   2.882   4.827 -1.1457  1.4183 -1.3033
 5387SOL    HW321321   2.094   2.800   4.786 -0.0386  0.6879  2.8921
 5387SOL    MW421322   2.033   2.859   4.767  0.1723  0.2429  0.3554
 5388SOL     OW21323   3.333   2.695   3.731 -0.2275  0.7358 -0.3147
 5388SOL    HW221324   3.382   2.775   3.749 -1.1837  1.3330 -0.3068
 5388SOL    HW321325   3.271   2.719   3.662 -0.5377  0.0043 -0.3060
 5388SOL    MW421326   3.331   2.709   3.724 -0.3946  0.7181 -0.3125
 5389SOL     OW21327   6.025   3.126   1.500  0.7775 -0.3456 -0.0317
 5389SOL    HW221328   6.078   3.201   1.527  0.9234 -0.3431 -0.3204
 5389SOL    HW321329   5.968   3.160   1.432  1.2009 -0.6121 -0.5281
 5389SOL    MW421330   6.025   3.141   1.495  0.8526 -0.3804 -0.1353
 5390SOL     OW21331   1.145   5.602   6.367  0.2060  0.1598  0.3883
 5390SOL    HW221332   1.186   5.640   6.290 -0.1389 -0.9266 -0.3616
 5390SOL    HW321333   1.110   5.676   6.416 -0.8972  0.7792 -1.2764
 5390SOL    MW421334   1.146   5.617   6.364  0.0149  0.0982  0.0697
 5391SOL     OW21335   0.410   1.000   0.395  0.5430 -0.0274  0.3419
 5391SOL    HW221336   0.469   1.071   0.421 -0.9690  1.2334  0.4768
 5391SOL    HW321337   0.408   0.941   0.470  1.8779 -0.2864  0.1992
 5391SOL    MW421338   0.418   1.002   0.408  0.5197  0.1048  0.3409
 5392SOL     OW21339   5.872   1.413   1.167 -0.3379  0.2887 -0.2083
 5392SOL    HW221340   5.838   1.461   1.091  0.6404  0.5078 -0.5356
 5392SOL    HW321341   5.953   1.372   1.134 -0.8483 -1.1285  0.2232
 5392SOL    MW421342   5.879   1.414   1.152 -0.2762  0.1306 -0.1946
 5393SOL     OW21343   1.975   5.327   2.967  0.3142  0.0650  0.0313
 5393SOL    HW221344   1.999   5.318   3.059  1.7569  1.8417 -0.1079
 5393SOL    HW321345   1.907   5.394   2.967  1.0321  0.8113 -0.2522
 5393SOL    MW421346   1.970   5.335   2.979  0.5993  0.3979 -0.0245
 5394SOL     OW21347   5.111   2.158   5.073  1.2897  0.1676  0.3149
 5394SOL    HW221348   5.040   2.163   5.009  0.7143 -3.3255  0.4333
 5394SOL    HW321349   5.098   2.233   5.131 -1.3185  0.5437 -0.6479
 5394SOL    MW421350   5.100   2.168   5.073  0.8697 -0.2437  0.2035
 5395SOL     OW21351   2.106   6.224   5.034 -0.1533 -0.0513 -0.1590
 5395SOL    HW221352   2.197   6.244   5.056 -0.2785  1.3777 -0.8464
 5395SOL    HW321353   2.095   6.133   5.060  1.6126 -0.3945 -0.4873
 5395SOL    MW421354   2.117   6.215   5.040  0.0632  0.0920 -0.2930
 5396SOL     OW21355   1.548   5.283   1.889  0.0680 -0.0266  0.2682
 5396SOL    HW221356   1.453   5.282   1.878  0.1370  0.8084 -0.5407
 5396SOL    HW321357   1.563   5.238   1.972 -0.9564 -1.0446 -0.0685
 5396SOL    MW421358   1.537   5.277   1.899 -0.0581 -0.0507  0.1170
 5397SOL     OW21359   0.316   1.099   3.853 -0.2688 -0.0657  0.2326
 5397SOL    HW221360   0.352   1.185   3.874  1.4474 -1.0103  1.4476
 5397SOL    HW321361   0.285   1.065   3.937  0.1524 -1.0795 -0.0025
 5397SOL    MW421362   0.317   1.105   3.867  0.0132 -0.3241  0.3619
 5398SOL     OW21363   1.308   3.577   4.402  0.1644 -0.0460  0.2211
 5398SOL    HW221364   1.253   3.652   4.425  2.0729  1.5457 -0.0216
 5398SOL    HW321365   1.398   3.612   4.406  1.0731 -2.0666 -0.9080
 5398SOL    MW421366   1.313   3.592   4.405  0.5361 -0.1026  0.0401
 5399SOL     OW21367   0.764   6.073   0.895  0.4224  0.8138  0.5851
 5399SOL    HW221368   0.749   5.982   0.869 -0.9220  1.0393  0.5036
 5399SOL    HW321369   0.766   6.121   0.812 -0.6219  1.0837  0.7021
 5399SOL    MW421370   0.762   6.067   0.880  0.1072  0.8792  0.5898
 5400SOL     OW21371   4.747   0.603   5.402  0.0406  0.4676  0.2951
 5400SOL    HW221372   4.653   0.603   5.385  0.0192 -0.4368  0.3516
 5400SOL    HW321373   4.778   0.687   5.369 -0.9147  1.1170  0.9923
 5400SOL    MW421374   4.739   0.614   5.395 -0.0883  0.4340  0.3946
 5401SOL     OW21375   5.974   3.327   5.577  0.0485  0.3325  0.3399
 5401SOL    HW221376   5.986   3.337   5.672 -0.8862  0.3482  0.4692
 5401SOL    HW321377   6.004   3.237   5.559 -2.4823 -0.7733  1.1824
 5401SOL    MW421378   5.980   3.316   5.587 -0.4087  0.1887  0.4681
 5402SOL     OW21379   1.247   1.147   1.864  0.4160  0.1782  0.0747
 5402SOL    HW221380   1.253   1.237   1.894 -1.8675  1.0051 -1.6786
 5402SOL    HW321381   1.203   1.100   1.934 -0.8984  1.0829 -0.1187
 5402SOL    MW421382   1.242   1.153   1.877 -0.0587  0.4067 -0.1821
 5403SOL     OW21383   0.297   0.130   0.162  0.2656 -0.7171 -0.2334
 5403SOL    HW221384   0.363   0.196   0.185  0.0002 -0.5126 -0.0561
 5403SOL    HW321385   0.223   0.150   0.218 -0.2557 -0.4376 -1.0047
 5403SOL    MW421386   0.296   0.141   0.172  0.1618 -0.6533 -0.3118
 5404SOL     OW21387   3.023   2.869   5.492  0.3084  0.4529 -0.0655
 5404SOL    HW221388   2.943   2.922   5.493  0.4952  0.7957  2.1194
 5404SOL    HW321389   2.992   2.779   5.478 -0.5123  0.5411  1.0481
 5404SOL    MW421390   3.008   2.864   5.490  0.2248  0.5097  0.3697
 5405SOL     OW21391   0.829   2.808   3.108  0.3589 -0.1459  0.1501
 5405SOL    HW221392   0.892   2.737   3.122 -0.1363 -0.6498 -0.1348
 5405SOL    HW321393   0.796   2.793   3.019 -1.7774 -1.1960  1.0418
 5405SOL    MW421394   0.833   2.797   3.098  0.0117 -0.3509  0.2302
 5406SOL     OW21395   4.045   0.506   5.594  0.1749 -0.8756 -0.6304
 5406SOL    HW221396   4.130   0.500   5.551 -0.5227 -0.3611 -2.1542
 5406SOL    HW321397   4.018   0.597   5.581 -0.1299 -0.7507  0.7914
 5406SOL    MW421398   4.052   0.517   5.586  0.0426 -0.7913 -0.6438
 5407SOL     OW21399   2.916   5.592   6.282 -0.1353  0.5347  0.1116
 5407SOL    HW221400   2.821   5.580   6.281 -0.2182  1.1953 -0.0814
 5407SOL    HW321401   2.945   5.545   6.361 -0.4469 -0.8478 -0.5686
 5407SOL    MW421402   2.908   5.584   6.292 -0.1874  0.4395 -0.0036
 5408SOL     OW21403   1.273   6.076   0.281 -0.2523  0.3321 -0.2932
 5408SOL    HW221404   1.243   6.101   0.194 -2.4803 -1.1109 -0.0406
 5408SOL    HW321405   1.239   5.987   0.294 -1.5036  1.0966  2.6342
 5408SOL    MW421406   1.264   6.068   0.271 -0.7113  0.2426  0.1264
 5409SOL     OW21407   1.770   4.446   4.664  0.2934 -1.2042  0.0806
 5409SOL    HW221408   1.728   4.375   4.712  0.5211 -1.0052  0.5749
 5409SOL    HW321409   1.712   4.461   4.588 -1.2747 -0.0431  1.4261
 5409SOL    MW421410   1.757   4.439   4.660  0.1165 -1.0247  0.3233
 5410SOL     OW21411   4.000   5.003   1.348  0.0548 -0.0869 -0.9182
 5410SOL    HW221412   3.973   4.913   1.367 -0.4522  0.2546  0.0770
 5410SOL    HW321413   3.919   5.054   1.353  0.4040  0.4922 -1.0251
 5410SOL    MW421414   3.986   4.998   1.351  0.0340  0.0345 -0.8010
 5411SOL     OW21415   1.188   3.686   1.573  0.3440 -0.2124 -0.1915
 5411SOL    HW221416   1.175   3.752   1.640  0.9783  0.2737 -0.5381
 5411SOL    HW321417   1.220   3.609   1.620 -1.6035 -0.7364  0.3938
 5411SOL    MW421418   1.190   3.685   1.588  0.1707 -0.2174 -0.1600
 5412SOL     OW21419   2.640   4.496   2.050  0.1058  0.1485  0.9030
 5412SOL    HW221420   2.705   4.566   2.058 -0.7847  1.3015 -1.1967
 5412SOL    HW321421   2.693   4.416   2.041  1.1824  0.8067  1.1607
 5412SOL    MW421422   2.656   4.495   2.050  0.1304  0.3875  0.6600
 5413SOL     OW21423   5.611   0.769   2.557 -0.6212  0.0168  0.3714
 5413SOL    HW221424   5.553   0.731   2.623 -0.3450  0.3620  0.8207
 5413SOL    HW321425   5.658   0.838   2.604 -0.9976  0.7978 -0.3922
 5413SOL    MW421426   5.610   0.773   2.572 -0.6344  0.1654  0.3299
 5414SOL     OW21427   1.305   1.268   4.025 -0.6089 -0.3738 -0.1661
 5414SOL    HW221428   1.216   1.255   3.992 -1.4951 -1.9516  2.6038
 5414SOL    HW321429   1.311   1.362   4.042 -1.9129 -0.3282  0.0730
 5414SOL    MW421430   1.294   1.279   4.023 -0.8978 -0.5760  0.2309
 5415SOL     OW21431   3.225   4.671   0.138 -0.1787  0.0448  0.3853
 5415SOL    HW221432   3.172   4.675   0.059  0.3527 -0.9145 -0.0458
 5415SOL    HW321433   3.308   4.711   0.113  0.3209 -1.0930  0.1553
 5415SOL    MW421434   3.229   4.677   0.125 -0.0427 -0.2319  0.2981
 5416SOL     OW21435   4.444   2.859   3.541 -0.5250  0.0426  0.6199
 5416SOL    HW221436   4.380   2.926   3.520 -0.4373 -0.1054 -0.1524
 5416SOL    HW321437   4.410   2.816   3.620  0.1511  1.9432  2.0242
 5416SOL    MW421438   4.431   2.862   3.549 -0.4242  0.2739  0.7033
 5417SOL     OW21439   2.390   0.258   0.580  0.6534 -0.1904  0.6258
 5417SOL    HW221440   2.364   0.270   0.489  1.3739  0.2033  0.4688
 5417SOL    HW321441   2.359   0.337   0.625  2.4094  0.7602  0.2450
 5417SOL    MW421442   2.382   0.270   0.574  0.9801 -0.0130  0.5548
 5418SOL     OW21443   2.729   3.126   3.759 -0.0126  0.3448 -0.1666
 5418SOL    HW221444   2.711   3.046   3.710  2.2219  0.2469 -0.9671
 5418SOL    HW321445   2.725   3.196   3.693 -0.2632  0.6616  0.1799
 5418SOL    MW421446   2.726   3.125   3.744  0.2491  0.3737 -0.2265
 5419SOL     OW21447   5.398   1.848   4.416  0.6031 -0.4291  0.0559
 5419SOL    HW221448   5.435   1.930   4.447  0.2772  0.1283 -1.0008
 5419SOL    HW321449   5.320   1.835   4.469  1.1943 -0.5704  0.9011
 5419SOL    MW421450   5.393   1.857   4.427  0.6381 -0.3742  0.0280
 5420SOL     OW21451   6.394   2.765   0.080 -0.0636  0.1361  0.1431
 5420SOL    HW221452   6.463   2.815   0.124  1.7192 -1.2177 -0.9388
 5420SOL    HW321453   6.368   2.699   0.144  1.1093 -0.5842 -0.0862
 5420SOL    MW421454   6.400   2.763   0.094  0.3264 -0.1375 -0.0299
 5421SOL     OW21455   5.102   0.544   4.578  0.0321 -0.1325 -0.1740
 5421SOL    HW221456   5.035   0.608   4.555  0.4595  0.0191 -1.0173
 5421SOL    HW321457   5.071   0.507   4.661  0.2922  1.8924  0.9123
 5421SOL    MW421458   5.089   0.548   4.586  0.1228  0.1547 -0.1420
 5422SOL     OW21459   5.047   1.264   1.426 -0.0830  0.1355  0.3436
 5422SOL    HW221460   4.982   1.243   1.493  0.0598 -0.9228  0.1734
 5422SOL    HW321461   4.996   1.273   1.346 -0.2322  1.2178  0.5483
 5422SOL    MW421462   5.032   1.262   1.425 -0.0839  0.1386  0.3482
 5423SOL     OW21463   1.977   5.314   3.745 -0.0050 -0.2156  0.1505
 5423SOL    HW221464   1.973   5.235   3.799  0.5988  0.6864  1.5840
 5423SOL    HW321465   1.885   5.336   3.728 -0.1873 -0.9636  0.1190
 5423SOL    MW421466   1.964   5.307   3.750  0.0506 -0.1953  0.3355
 5424SOL     OW21467   3.561   2.943   0.991 -0.8752 -0.1134  0.1698
 5424SOL    HW221468   3.508   2.897   1.056 -0.2015 -0.8237  0.2240
 5424SOL    HW321469   3.572   3.031   1.027 -1.4682 -0.1493  0.4623
 5424SOL    MW421470   3.555   2.949   1.004 -0.8646 -0.2119  0.2156
 5425SOL     OW21471   1.259   5.167   3.741 -0.2894 -0.3551  0.5235
 5425SOL    HW221472   1.223   5.145   3.655 -0.1335 -0.3493  0.4568
 5425SOL    HW321473   1.194   5.225   3.780 -0.4692 -0.5386  0.5009
 5425SOL    MW421474   1.245   5.172   3.735 -0.2926 -0.3786  0.5117
 5426SOL     OW21475   1.180   1.619   0.678  0.5975 -0.6350 -0.3487
 5426SOL    HW221476   1.176   1.686   0.610  0.6063  0.5802  0.8167
 5426SOL    HW321477   1.196   1.667   0.759  0.3228 -2.0227  0.5707
 5426SOL    MW421478   1.182   1.634   0.680  0.5624 -0.6578 -0.0736
 5427SOL     OW21479   0.644   1.252   0.865 -0.1387 -0.4496 -0.2722
 5427SOL    HW221480   0.702   1.176   0.864 -0.3387 -0.6142 -2.1436
 5427SOL    HW321481   0.695   1.323   0.826 -0.9322 -0.4194 -1.2955
 5427SOL    MW421482   0.658   1.251   0.860 -0.2698 -0.4673 -0.6541
 5428SOL     OW21483   0.671   0.375   5.925  0.1770 -0.2060  0.1760
 5428SOL    HW221484   0.663   0.283   5.950 -2.5025 -0.1486 -0.1841
 5428SOL    HW321485   0.733   0.411   5.989  1.7450 -2.3224 -0.0330
 5428SOL    MW421486   0.678   0.368   5.937  0.0303 -0.4776  0.1009
 5429SOL     OW21487   3.440   4.904   1.506  0.2002 -0.1136  0.0675
 5429SOL    HW221488   3.469   4.910   1.414  0.2988  0.8307  0.1524
 5429SOL    HW321489   3.497   4.965   1.553  0.3050 -0.7600  0.8108
 5429SOL    MW421490   3.452   4.913   1.500  0.2271 -0.0743  0.1767
 5430SOL     OW21491   6.095   1.616   3.380 -0.3498 -0.2139  0.0967
 5430SOL    HW221492   6.105   1.562   3.302 -0.1730  0.4687 -0.3655
 5430SOL    HW321493   6.041   1.563   3.439 -0.0691 -0.9434 -0.2841
 5430SOL    MW421494   6.089   1.602   3.377 -0.2894 -0.2201 -0.0145
 5431SOL     OW21495   3.068   6.011   2.359  0.3060 -0.2506 -0.2580
 5431SOL    HW221496   3.071   6.093   2.409 -1.3761  1.1304 -2.2286
 5431SOL    HW321497   3.115   5.948   2.413 -2.1862  0.8134  3.5628
 5431SOL    MW421498   3.075   6.014   2.372 -0.2447  0.0720 -0.0139
 5432SOL     OW21499   5.692   4.046   0.354 -0.1344  0.7287 -0.2093
 5432SOL    HW221500   5.602   4.069   0.332 -0.2844 -1.4046 -2.1787
 5432SOL    HW321501   5.745   4.096   0.292 -0.1473  0.1372 -0.7151
 5432SOL    MW421502   5.687   4.055   0.343 -0.1559  0.3692 -0.5359
 5433SOL     OW21503   2.043   4.548   3.895  0.2984 -0.2091 -0.2694
 5433SOL    HW221504   1.984   4.561   3.820  0.2392 -0.1166 -0.2054
 5433SOL    HW321505   2.080   4.460   3.880 -0.2004 -0.4557 -0.0688
 5433SOL    MW421506   2.040   4.538   3.883  0.2248 -0.2295 -0.2345
 5434SOL     OW21507   1.020   5.040   4.787  0.0365  0.6916  0.1109
 5434SOL    HW221508   1.056   5.121   4.826  0.5875  0.0185  1.0564
 5434SOL    HW321509   0.943   5.069   4.738  1.6615  2.1602 -1.7398
 5434SOL    MW421510   1.015   5.055   4.786  0.3236  0.7966 -0.0085
 5435SOL     OW21511   3.150   2.349   4.799  0.0894  0.3060  0.1115
 5435SOL    HW221512   3.225   2.355   4.740 -0.7155  0.5751 -0.9210
 5435SOL    HW321513   3.104   2.270   4.770  0.0869  0.0192  0.8817
 5435SOL    MW421514   3.154   2.339   4.787 -0.0172  0.3037  0.0769
 5436SOL     OW21515   2.825   0.769   1.880 -0.3646 -0.1675  0.0165
 5436SOL    HW221516   2.810   0.863   1.868  0.2296 -0.1420 -0.5478
 5436SOL    HW321517   2.910   0.763   1.924  0.6948 -0.4964 -1.9627
 5436SOL    MW421518   2.834   0.781   1.885 -0.1464 -0.2075 -0.3191
 5437SOL     OW21519   5.807   4.623   1.420  0.1721 -0.1674 -0.5701
 5437SOL    HW221520   5.722   4.624   1.465  0.1010  1.1317 -0.7120
 5437SOL    HW321521   5.824   4.530   1.404 -1.2085 -0.4495 -0.5125
 5437SOL    MW421522   5.798   4.611   1.424 -0.0195 -0.0332 -0.5812
 5438SOL     OW21523   0.168   2.694   4.526 -0.2687  0.1811 -0.0686
 5438SOL    HW221524   0.099   2.644   4.570  1.9109 -1.8581  1.2626
 5438SOL    HW321525   0.145   2.689   4.433 -1.4811 -1.1543  0.2633
 5438SOL    MW421526   0.156   2.687   4.519 -0.1411 -0.2641  0.1508
 5439SOL     OW21527   1.343   0.796   2.245  0.6715  0.6036 -0.4264
 5439SOL    HW221528   1.304   0.799   2.332  1.5409  1.3819 -0.0582
 5439SOL    HW321529   1.434   0.820   2.258  1.0009 -0.0145 -1.4500
 5439SOL    MW421530   1.350   0.799   2.258  0.8297  0.6247 -0.5129
 5440SOL     OW21531   3.459   5.209   4.080 -0.1323  0.0776  0.2276
 5440SOL    HW221532   3.465   5.295   4.121 -1.6487  0.4504 -0.2419
 5440SOL    HW321533   3.412   5.155   4.144 -0.5755  0.0589 -0.1015
 5440SOL    MW421534   3.453   5.213   4.094 -0.3909  0.1244  0.1222
 5441SOL     OW21535   0.402   3.074   0.318 -0.4282 -0.1574  0.6362
 5441SOL    HW221536   0.374   3.157   0.354 -0.7567  0.1662 -0.3393
 5441SOL    HW321537   0.491   3.090   0.288 -0.8665  0.1739 -0.5431
 5441SOL    MW421538   0.410   3.087   0.319 -0.5293 -0.0710  0.3519
 5442SOL     OW21539   2.252   2.737   1.930 -0.4560 -0.0464  0.0600
 5442SOL    HW221540   2.209   2.714   2.012  1.1457 -2.1885  0.3686
 5442SOL    HW321541   2.263   2.832   1.935 -1.6144  0.0497  1.6630
 5442SOL    MW421542   2.247   2.747   1.941 -0.3975 -0.3163  0.3122
 5443SOL     OW21543   2.078   1.301   3.306  0.2331  0.1660 -0.1145
 5443SOL    HW221544   2.134   1.325   3.380 -0.4441  3.1702 -0.4452
 5443SOL    HW321545   2.004   1.361   3.312 -0.8579 -0.9013 -2.0655
 5443SOL    MW421546   2.076   1.312   3.317 -0.0002  0.4216 -0.4155
 5444SOL     OW21547   2.062   2.083   1.896 -0.0634 -0.3399  0.2553
 5444SOL    HW221548   2.145   2.052   1.859 -0.2579  0.2886 -0.7455
 5444SOL    HW321549   2.007   2.098   1.820 -1.0280 -0.5218  0.9022
 5444SOL    MW421550   2.066   2.081   1.881 -0.2163 -0.2810  0.2086
 5445SOL     OW21551   0.664   1.440   6.200 -0.5880 -0.3840 -0.8776
 5445SOL    HW221552   0.661   1.531   6.171 -0.7332 -0.3813 -0.8555
 5445SOL    HW321553   0.755   1.426   6.227 -0.4627 -0.3742 -1.2899
 5445SOL    MW421554   0.676   1.450   6.200 -0.5906 -0.3823 -0.9290
 5446SOL     OW21555   4.729   2.102   2.668  0.3959 -0.0243  0.7004
 5446SOL    HW221556   4.674   2.151   2.729 -1.8943 -0.6886 -0.6848
 5446SOL    HW321557   4.775   2.038   2.722 -1.9343 -0.9380  1.7608
 5446SOL    MW421558   4.728   2.100   2.683 -0.2137 -0.2325  0.6575
 5447SOL     OW21559   3.261   3.902   3.754  0.1484  0.3775 -0.1887
 5447SOL    HW221560   3.284   3.892   3.847  1.7581  3.6433 -0.0904
 5447SOL    HW321561   3.166   3.908   3.754  0.1685  1.5346  1.4718
 5447SOL    MW421562   3.252   3.901   3.767  0.3634  0.9611  0.0434
 5448SOL     OW21563   3.978   3.713   4.311  0.3125 -0.4652  0.0457
 5448SOL    HW221564   3.973   3.618   4.300 -1.2914 -0.3837 -0.1598
 5448SOL    HW321565   4.047   3.740   4.251 -0.8183 -1.2597 -1.7028
 5448SOL    MW421566   3.986   3.704   4.302 -0.0483 -0.5593 -0.2121
 5449SOL     OW21567   0.579   1.027   5.089  0.0879  0.4439  0.3973
 5449SOL    HW221568   0.510   0.964   5.111 -0.9944  0.8943 -1.4745
 5449SOL    HW321569   0.599   1.010   4.997  3.2464 -0.3127  1.0965
 5449SOL    MW421570   0.573   1.017   5.080  0.3619  0.4035  0.2426
 5450SOL     OW21571   1.093   4.167   3.066 -0.1871  0.7914 -0.1070
 5450SOL    HW221572   1.168   4.116   3.037 -0.6810  1.0580 -2.0612
 5450SOL    HW321573   1.119   4.205   3.150  1.3386 -0.1707 -0.1199
 5450SOL    MW421574   1.106   4.165   3.073 -0.0509  0.6996 -0.3665
 5451SOL     OW21575   0.527   3.271   2.841 -0.0922  0.2253 -0.7033
 5451SOL    HW221576   0.454   3.212   2.863  1.1281 -0.6268  1.2718
 5451SOL    HW321577   0.536   3.328   2.916  0.5135  1.1526 -1.4579
 5451SOL    MW421578   0.518   3.271   2.854  0.1487  0.2352 -0.5423
 5452SOL     OW21579   1.242   0.724   0.985 -0.5001 -0.1524  0.3960
 5452SOL    HW221580   1.292   0.786   0.932 -0.4739 -0.3491  0.1914
 5452SOL    HW321581   1.185   0.680   0.922  0.7195 -1.5865  0.2663
 5452SOL    MW421582   1.241   0.727   0.969 -0.3357 -0.3676  0.3519
 5453SOL     OW21583   0.113   4.257   1.234  0.2406 -0.2508 -0.0402
 5453SOL    HW221584   0.087   4.167   1.252  0.5016 -0.1562  0.8738
 5453SOL    HW321585   0.176   4.278   1.303  1.0337  0.2659 -0.8976
 5453SOL    MW421586   0.118   4.248   1.245  0.3796 -0.1702 -0.0327
 5454SOL     OW21587   0.591   0.879   0.219  0.0995  0.2701 -0.2231
 5454SOL    HW221588   0.514   0.923   0.253  0.2195  1.6505 -1.6228
 5454SOL    HW321589   0.610   0.809   0.282 -1.5181  0.7227  0.7923
 5454SOL    MW421590   0.584   0.875   0.232 -0.0981  0.5119 -0.2738
 5455SOL     OW21591   4.205   5.285   3.207 -0.2358  0.0571  0.1233
 5455SOL    HW221592   4.224   5.270   3.114  3.3739  2.4500  0.2746
 5455SOL    HW321593   4.276   5.240   3.253 -0.7019  0.7526  1.5612
 5455SOL    MW421594   4.217   5.277   3.201  0.1790  0.4646  0.3330
 5456SOL     OW21595   5.814   4.985   2.769  0.0227 -0.4291  0.4401
 5456SOL    HW221596   5.863   5.019   2.694  0.0867  0.1726  0.7456
 5456SOL    HW321597   5.723   4.981   2.738 -0.2348  1.4222  0.8340
 5456SOL    MW421598   5.808   4.989   2.755 -0.0029 -0.1054  0.5324
 5457SOL     OW21599   5.787   0.421   4.731  0.1646  0.5952  0.1672
 5457SOL    HW221600   5.693   0.416   4.745  0.2262  0.9801  0.7500
 5457SOL    HW321601   5.797   0.440   4.638 -0.2868 -0.8847 -0.2131
 5457SOL    MW421602   5.776   0.422   4.721  0.1132  0.4507  0.1940
 5458SOL     OW21603   2.991   2.651   3.426  0.5771 -0.0039  0.3310
 5458SOL    HW221604   2.987   2.629   3.519  1.7335  0.7762  0.5779
 5458SOL    HW321605   2.925   2.720   3.415  0.2372 -0.2975  0.5064
 5458SOL    MW421606   2.982   2.657   3.437  0.6848  0.0603  0.3867
 5459SOL     OW21607   1.850   5.700   3.273 -0.1897 -0.1879 -0.1592
 5459SOL    HW221608   1.770   5.686   3.223  0.0322 -0.0262 -0.5737
 5459SOL    HW321609   1.837   5.785   3.316 -1.3842 -1.4180  2.0578
 5459SOL    MW421610   1.838   5.710   3.272 -0.3181 -0.3288  0.0787
 5460SOL     OW21611   5.447   6.467   1.292 -0.2272 -0.6221  0.1638
 5460SOL    HW221612   5.380   6.524   1.331  0.2581 -0.1344  0.2982
 5460SOL    HW321613   5.398   6.411   1.232 -0.7139 -0.0365 -0.0023
 5460SOL    MW421614   5.432   6.467   1.289 -0.2274 -0.4805  0.1596
 5461SOL     OW21615   2.127   3.119   1.790 -0.3103 -0.2449 -0.0101
 5461SOL    HW221616   2.105   3.208   1.762  0.7069 -0.0108 -0.1060
 5461SOL    HW321617   2.080   3.108   1.873  0.3085  0.7426  0.4976
 5461SOL    MW421618   2.118   3.129   1.797 -0.0944 -0.0837  0.0442
 5462SOL     OW21619   6.355   0.244   5.250  0.3019 -0.0921  0.4222
 5462SOL    HW221620   6.328   0.264   5.340  1.2830 -0.9149  0.9125
 5462SOL    HW321621   6.385   0.328   5.215  0.4331  0.1230  1.0396
 5462SOL    MW421622   6.355   0.258   5.257  0.4486 -0.1723  0.5684
 5463SOL     OW21623   3.318   2.827   4.035 -0.2953 -0.0575 -0.0176
 5463SOL    HW221624   3.326   2.920   4.057 -0.3403 -0.0055 -0.2239
 5463SOL    HW321625   3.390   2.785   4.082  0.3799  0.2282 -0.7937
 5463SOL    MW421626   3.328   2.834   4.044 -0.2122 -0.0129 -0.1473
 5464SOL     OW21627   1.855   2.429   2.658  0.2912 -0.2554 -0.5370
 5464SOL    HW221628   1.911   2.482   2.715 -0.6460  0.0022  0.1654
 5464SOL    HW321629   1.913   2.401   2.587  1.0328  0.9188 -0.4168
 5464SOL    MW421630   1.870   2.432   2.657  0.2654 -0.0665 -0.4285
 5465SOL     OW21631   0.590   3.233   6.109 -0.3129  0.5873  0.1456
 5465SOL    HW221632   0.532   3.247   6.035  0.8804  1.9169 -0.5762
 5465SOL    HW321633   0.664   3.184   6.074 -0.2482  0.2757  0.6985
 5465SOL    MW421634   0.592   3.229   6.095 -0.1469  0.7216  0.1233
 5466SOL     OW21635   1.211   2.478   1.210 -0.6477  0.2172 -0.2594
 5466SOL    HW221636   1.275   2.531   1.258  0.8759  1.1224 -3.0702
 5466SOL    HW321637   1.133   2.533   1.206 -1.3198 -0.4420  2.2550
 5466SOL    MW421638   1.209   2.492   1.216 -0.5353  0.2496 -0.2985
 5467SOL     OW21639   3.179   3.459   3.312  0.1182  0.2633 -0.4939
 5467SOL    HW221640   3.142   3.541   3.280 -1.8343  0.2611  1.5026
 5467SOL    HW321641   3.179   3.401   3.236  0.4139  1.7275 -1.6469
 5467SOL    MW421642   3.174   3.462   3.298 -0.1004  0.4562 -0.3826
 5468SOL     OW21643   4.807   4.818   1.875  0.0850  0.3325  0.3535
 5468SOL    HW221644   4.814   4.913   1.876 -0.1093  0.4903 -2.7666
 5468SOL    HW321645   4.714   4.801   1.890  0.4176  0.4215  3.0290
 5468SOL    MW421646   4.796   4.828   1.877  0.1033  0.3651  0.2949
 5469SOL     OW21647   2.059   3.766   4.568  0.2447 -0.2350  0.5487
 5469SOL    HW221648   2.035   3.691   4.513 -0.1831 -0.8284  1.4966
 5469SOL    HW321649   1.982   3.823   4.566 -0.5190 -1.1414  1.9421
 5469SOL    MW421650   2.046   3.763   4.561  0.0875 -0.4329  0.8576
 5470SOL     OW21651   5.221   5.183   1.984 -0.5098  0.4414  0.3084
 5470SOL    HW221652   5.189   5.167   2.073  1.2318 -2.8665  0.5093
 5470SOL    HW321653   5.214   5.099   1.940  1.7785  1.1190 -1.6064
 5470SOL    MW421654   5.216   5.170   1.990  0.0219  0.0944  0.0823
 5471SOL     OW21655   1.909   0.643   5.815 -0.1257  0.2485  0.2007
 5471SOL    HW221656   1.888   0.580   5.884  0.3570  0.1599  0.2726
 5471SOL    HW321657   1.939   0.589   5.742 -0.3140  0.3621  0.0372
 5471SOL    MW421658   1.910   0.628   5.814 -0.0869  0.2518  0.1886
 5472SOL     OW21659   2.342   3.247   1.435  0.3293 -0.3181 -0.4031
 5472SOL    HW221660   2.282   3.180   1.467 -1.3506  1.3923  0.2705
 5472SOL    HW321661   2.399   3.266   1.510  1.2660 -1.4482 -0.8160
 5472SOL    MW421662   2.341   3.241   1.449  0.2313 -0.2415 -0.3687
 5473SOL     OW21663   4.268   5.015   5.626  0.0230 -0.5475 -0.3074
 5473SOL    HW221664   4.221   5.054   5.700 -1.5886 -0.8947 -1.0940
 5473SOL    HW321665   4.338   5.077   5.606  1.5674 -1.2017  2.5056
 5473SOL    MW421666   4.271   5.028   5.633  0.0142 -0.6796 -0.0400
 5474SOL     OW21667   5.685   4.906   4.972 -0.2266  0.1131  0.4622
 5474SOL    HW221668   5.638   4.844   5.028  1.7803 -1.9851  0.0006
 5474SOL    HW321669   5.750   4.852   4.927  2.1448  2.7090  0.5538
 5474SOL    MW421670   5.687   4.891   4.973  0.3511  0.1788  0.4134
 5475SOL     OW21671   5.890   2.195   0.264 -0.1037 -0.8939 -0.1457
 5475SOL    HW221672   5.915   2.256   0.194  0.6642 -1.0921 -0.0527
 5475SOL    HW321673   5.845   2.249   0.328  0.9019 -0.3449  0.1147
 5475SOL    MW421674   5.888   2.210   0.263  0.1303 -0.8476 -0.0991
 5476SOL     OW21675   2.582   0.459   0.530  0.1536  0.3463  0.2943
 5476SOL    HW221676   2.539   0.375   0.544  2.8625 -1.0431  0.9246
 5476SOL    HW321677   2.574   0.475   0.436  0.1986 -1.0075  0.0430
 5476SOL    MW421678   2.575   0.450   0.519  0.5169 -0.0156  0.3443
 5477SOL     OW21679   6.003   0.150   3.295 -0.4973  0.5167 -0.0298
 5477SOL    HW221680   6.068   0.128   3.228 -1.1508 -0.2854 -0.4137
 5477SOL    HW321681   5.937   0.201   3.248 -0.1587  1.3180  0.3571
 5477SOL    MW421682   6.003   0.154   3.280 -0.5388  0.5166 -0.0294
 5478SOL     OW21683   1.404   2.765   6.261 -0.9683  0.0705  0.1661
 5478SOL    HW221684   1.486   2.729   6.225 -1.0478  0.7126 -0.6771
 5478SOL    HW321685   1.429   2.850   6.297 -1.5529  1.0005 -1.5500
 5478SOL    MW421686   1.418   2.771   6.261 -1.0559  0.2779 -0.1716
 5479SOL     OW21687   3.246   1.682   2.366  0.1083  0.3620 -0.3015
 5479SOL    HW221688   3.326   1.727   2.394  0.1584 -0.8171  1.6729
 5479SOL    HW321689   3.269   1.644   2.281  1.6130  0.2171  0.1319
 5479SOL    MW421690   3.260   1.683   2.359  0.3134  0.1873  0.0162
 5480SOL     OW21691   0.733   0.369   1.232 -0.2612  0.0530 -0.8309
 5480SOL    HW221692   0.800   0.308   1.264 -0.4762 -0.8846 -2.0577
 5480SOL    HW321693   0.781   0.450   1.214  0.3831 -0.3209 -0.8438
 5480SOL    MW421694   0.748   0.371   1.233 -0.2046 -0.1200 -0.9945
 5481SOL     OW21695   4.040   2.008   3.708 -0.0595  0.1147 -0.5007
 5481SOL    HW221696   4.134   2.025   3.715 -0.1056  0.4473 -0.7341
 5481SOL    HW321697   4.026   1.932   3.766  0.0869  1.0223  0.7608
 5481SOL    MW421698   4.050   2.000   3.717 -0.0462  0.2783 -0.3650
 5482SOL     OW21699   5.784   2.857   4.558  0.2152 -0.1066  0.0198
 5482SOL    HW221700   5.752   2.801   4.629  0.1199 -1.1312 -0.8129
 5482SOL    HW321701   5.706   2.901   4.525  0.1313 -0.2532  0.0191
 5482SOL    MW421702   5.770   2.855   4.563  0.1915 -0.2611 -0.0902
 5483SOL     OW21703   0.046   2.048   3.844 -0.3879  0.2126  0.6483
 5483SOL    HW221704  -0.019   2.000   3.896  0.6708  0.1417  1.9829
 5483SOL    HW321705   0.073   1.985   3.777 -0.9105 -0.1345  0.7521
 5483SOL    MW421706   0.041   2.033   3.842 -0.3172  0.1575  0.8381
 5484SOL     OW21707   3.061   0.920   4.437 -0.5710  0.6121  0.0823
 5484SOL    HW221708   2.966   0.934   4.431 -0.8561 -1.2747 -0.4446
 5484SOL    HW321709   3.088   0.971   4.514 -1.9974  1.1956  0.2302
 5484SOL    MW421710   3.052   0.929   4.446 -0.7968  0.4402  0.0323
 5485SOL     OW21711   4.632   0.991   1.461  0.4215  0.3471 -0.3777
 5485SOL    HW221712   4.613   1.080   1.433  1.2340  0.3641 -0.8886
 5485SOL    HW321713   4.578   0.979   1.539  0.3928  1.3183 -0.2356
 5485SOL    MW421714   4.622   1.001   1.467  0.5249  0.4774 -0.4264
 5486SOL     OW21715   1.179   4.145   0.827 -0.2654 -0.3356 -0.1415
 5486SOL    HW221716   1.198   4.059   0.788  0.0392  0.4473 -1.8115
 5486SOL    HW321717   1.251   4.160   0.888 -0.8623 -1.6939  0.9516
 5486SOL    MW421718   1.191   4.135   0.830 -0.3040 -0.4115 -0.2176
 5487SOL     OW21719   1.475   1.936   5.621  0.5314 -0.3909  0.0746
 5487SOL    HW221720   1.506   1.992   5.693  0.0785  0.2889 -0.2500
 5487SOL    HW321721   1.521   1.853   5.634  0.0797 -0.4629  1.4618
 5487SOL    MW421722   1.485   1.932   5.632  0.4120 -0.3107  0.2148
 5488SOL     OW21723   0.764   4.052   5.974 -0.6912 -0.4753  0.1325
 5488SOL    HW221724   0.776   3.957   5.975 -1.6312 -0.6355  2.5734
 5488SOL    HW321725   0.755   4.076   6.066 -1.5530  1.8595 -0.4905
 5488SOL    MW421726   0.765   4.043   5.987 -0.9290 -0.1884  0.3723
 5489SOL     OW21727   5.514   4.411   5.146 -0.2046  0.7652  0.3058
 5489SOL    HW221728   5.495   4.389   5.237 -0.6873 -1.2563 -0.2194
 5489SOL    HW321729   5.565   4.336   5.114  0.9959  1.9855 -0.7871
 5489SOL    MW421730   5.518   4.398   5.154 -0.1099  0.6595  0.0923
 5490SOL     OW21731   4.188   4.306   2.215  0.2981 -0.1057  0.3288
 5490SOL    HW221732   4.263   4.281   2.161 -0.0722 -0.1603 -0.1668
 5490SOL    HW321733   4.199   4.255   2.295 -0.8190 -2.5553 -0.9345
 5490SOL    MW421734   4.199   4.296   2.218  0.1019 -0.4361  0.0968
 5491SOL     OW21735   3.032   3.030   3.262 -0.4383 -0.2580 -0.0375
 5491SOL    HW221736   2.985   3.019   3.179 -0.1901  1.1397 -0.3860
 5491SOL    HW321737   3.109   2.975   3.254 -0.8777 -0.8386 -0.3570
 5491SOL    MW421738   3.036   3.021   3.250 -0.4635 -0.1502 -0.1256
 5492SOL     OW21739   3.513   5.114   2.265 -0.1364 -0.1503 -1.0230
 5492SOL    HW221740   3.476   5.199   2.288 -0.1603 -0.1002 -1.2438
 5492SOL    HW321741   3.472   5.092   2.181  0.3608 -0.0741 -1.2891
 5492SOL    MW421742   3.503   5.122   2.257 -0.0739 -0.1336 -1.0872
 5493SOL     OW21743   1.928   2.568   3.185 -0.7697 -0.3763  0.3458
 5493SOL    HW221744   1.920   2.602   3.275  0.8183  1.3838 -0.1105
 5493SOL    HW321745   1.915   2.645   3.130  1.7673 -0.6929 -0.8009
 5493SOL    MW421746   1.925   2.583   3.190 -0.2255 -0.1858  0.1343
 5494SOL     OW21747   6.307   4.703   5.930  0.2380  0.2980  0.0330
 5494SOL    HW221748   6.226   4.651   5.938  0.3047 -0.2353 -1.9996
 5494SOL    HW321749   6.374   4.639   5.907  1.0111  0.8876  0.6010
 5494SOL    MW421750   6.305   4.688   5.928  0.3488  0.3054 -0.1602
 5495SOL     OW21751   4.523   5.394   5.162 -0.3947 -0.1647 -0.2044
 5495SOL    HW221752   4.434   5.409   5.131  0.1241 -0.5694 -1.9536
 5495SOL    HW321753   4.545   5.473   5.211 -1.6586 -0.0284  0.1873
 5495SOL    MW421754   4.514   5.406   5.165 -0.4930 -0.2001 -0.3835
 5496SOL     OW21755   3.673   1.582   4.267 -0.0514 -0.3026 -0.6683
 5496SOL    HW221756   3.701   1.649   4.205 -0.7080 -0.5909 -1.2883
 5496SOL    HW321757   3.581   1.567   4.247 -0.2111 -0.5754  0.2240
 5496SOL    MW421758   3.665   1.589   4.256 -0.1591 -0.3766 -0.6324
 5497SOL     OW21759   2.723   6.408   3.460  0.5797  0.4814 -0.2571
 5497SOL    HW221760   2.674   6.326   3.457  0.2336  0.7128 -1.6684
 5497SOL    HW321761   2.665   6.472   3.419  1.8094  0.8980 -1.4025
 5497SOL    MW421762   2.709   6.406   3.454  0.6963  0.5669 -0.5944
 5498SOL     OW21763   2.830   4.827   1.653  0.8035 -0.8775 -0.0782
 5498SOL    HW221764   2.812   4.917   1.625  2.4993 -0.5617 -0.2627
 5498SOL    HW321765   2.903   4.834   1.713  1.5812 -2.2113 -0.8110
 5498SOL    MW421766   2.837   4.840   1.657  1.1299 -1.0118 -0.1992
 5499SOL     OW21767   5.096   4.890   1.022  0.2282 -0.2718 -0.3204
 5499SOL    HW221768   5.106   4.954   0.951  0.5361 -1.7821 -1.6926
 5499SOL    HW321769   5.160   4.822   1.002 -0.1274 -1.0413  1.0742
 5499SOL    MW421770   5.105   4.889   1.010  0.2219 -0.5726 -0.3174
 5500SOL     OW21771   0.812   4.924   0.123  0.4128  0.2847 -0.0132
 5500SOL    HW221772   0.829   4.916   0.029  2.5116 -0.4154  0.3621
 5500SOL    HW321773   0.728   4.881   0.136  0.1203  0.3454 -1.5691
 5500SOL    MW421774   0.804   4.917   0.112  0.6511  0.2003 -0.1690
 5501SOL     OW21775   5.559   0.513   3.220  0.5413 -0.0738 -0.6535
 5501SOL    HW221776   5.598   0.483   3.138  1.3690  1.2060 -0.7647
 5501SOL    HW321777   5.628   0.564   3.262 -0.1008 -0.1287  0.5156
 5501SOL    MW421778   5.573   0.516   3.214  0.5658  0.0878 -0.5139
 5502SOL     OW21779   1.836   5.828   5.421 -0.0953 -0.5003  0.2031
 5502SOL    HW221780   1.760   5.776   5.447 -0.9744  0.4720 -0.3595
 5502SOL    HW321781   1.809   5.919   5.433 -0.2069 -0.0032 -3.0304
 5502SOL    MW421782   1.823   5.833   5.426 -0.2260 -0.3064 -0.2977
 5503SOL     OW21783   4.571   5.652   1.515  0.4673  0.1824 -0.0940
 5503SOL    HW221784   4.563   5.735   1.468 -1.3969 -0.3689 -0.8865
 5503SOL    HW321785   4.535   5.670   1.602  2.5348  0.8268  0.6817
 5503SOL    MW421786   4.565   5.665   1.520  0.4941  0.1946 -0.0962
 5504SOL     OW21787   3.431   4.287   5.437 -0.4072 -0.0901  0.1658
 5504SOL    HW221788   3.340   4.317   5.445 -1.4050 -2.4010 -1.2624
 5504SOL    HW321789   3.469   4.343   5.370 -1.0838  0.2818  0.0794
 5504SOL    MW421790   3.424   4.298   5.429 -0.6281 -0.3459 -0.0340
 5505SOL     OW21791   3.691   4.810   3.135  0.1185  0.0187  0.1451
 5505SOL    HW221792   3.733   4.863   3.204 -1.3650  1.1376  0.2387
 5505SOL    HW321793   3.658   4.874   3.073  0.2256 -0.9349 -0.9225
 5505SOL    MW421794   3.692   4.825   3.136 -0.0631  0.0405  0.0166
 5506SOL     OW21795   2.378   0.250   0.995  0.0463  0.4927  0.2743
 5506SOL    HW221796   2.434   0.283   1.065 -1.2647  1.8241  0.7560
 5506SOL    HW321797   2.343   0.167   1.029  1.4274 -0.1823  0.1002
 5506SOL    MW421798   2.381   0.243   1.009  0.0556  0.5793  0.3149
 5507SOL     OW21799   2.867   3.638   5.703  0.1120  0.5991  0.2616
 5507SOL    HW221800   2.790   3.678   5.743  0.5040  2.6354 -0.8982
 5507SOL    HW321801   2.939   3.658   5.763 -0.2809 -1.9982  1.7674
 5507SOL    MW421802   2.867   3.646   5.716  0.1119  0.5251  0.3073
 5508SOL     OW21803   0.364   5.605   5.389 -0.1748  0.0237 -0.0215
 5508SOL    HW221804   0.366   5.509   5.385  3.2788 -0.0589  0.4293
 5508SOL    HW321805   0.345   5.625   5.481 -2.5661 -0.0850 -0.4198
 5508SOL    MW421806   0.362   5.595   5.401 -0.0347 -0.0016 -0.0146
 5509SOL     OW21807   4.988   5.709   3.684 -0.5141 -0.0073 -0.2347
 5509SOL    HW221808   4.905   5.709   3.732 -0.9629  0.8406 -0.9901
 5509SOL    HW321809   5.052   5.678   3.748 -1.4542 -0.9956  0.2707
 5509SOL    MW421810   4.986   5.705   3.699 -0.6973 -0.0258 -0.2677
 5510SOL     OW21811   2.363   2.866   5.832 -0.0749 -0.0896 -0.0973
 5510SOL    HW221812   2.274   2.886   5.804  0.1346  2.8252  0.9150
 5510SOL    HW321813   2.418   2.898   5.761  0.2193 -1.2844 -0.4305
 5510SOL    MW421814   2.359   2.873   5.819 -0.0085  0.1373 -0.0077
 5511SOL     OW21815   2.874   3.931   4.676 -0.2934 -0.4785  0.0404
 5511SOL    HW221816   2.955   3.948   4.723 -0.9284 -1.2347  1.4833
 5511SOL    HW321817   2.898   3.934   4.583  1.2898 -0.3523  0.4319
 5511SOL    MW421818   2.888   3.934   4.670 -0.1683 -0.5616  0.2825
 5512SOL     OW21819   3.024   1.540   6.383  0.2700  0.0418 -0.2826
 5512SOL    HW221820   3.110   1.502   6.370  0.7298  0.2913  1.8070
 5512SOL    HW321821   3.038   1.635   6.379  0.3252  0.1178  1.1518
 5512SOL    MW421822   3.037   1.548   6.381  0.3380  0.0847  0.1823
 5513SOL     OW21823   0.240   6.034   0.653  0.0803  0.0840  0.5781
 5513SOL    HW221824   0.327   5.999   0.633 -0.0449 -0.2599  0.6285
 5513SOL    HW321825   0.197   5.964   0.702 -0.5168 -0.0639 -0.1375
 5513SOL    MW421826   0.246   6.020   0.657 -0.0150  0.0191  0.4904
 5514SOL     OW21827   2.553   3.721   3.073  0.0664 -0.0223 -0.0183
 5514SOL    HW221828   2.605   3.641   3.084 -2.1490 -1.4470  0.5858
 5514SOL    HW321829   2.564   3.768   3.155 -0.6376 -0.9709  0.6341
 5514SOL    MW421830   2.562   3.717   3.085 -0.3188 -0.3354  0.1475
 5515SOL     OW21831   3.113   5.557   0.972 -0.0300 -0.3122  1.0169
 5515SOL    HW221832   3.022   5.552   0.940 -0.0419  0.9582  0.8060
 5515SOL    HW321833   3.139   5.647   0.955  0.7706 -0.2429  2.4695
 5515SOL    MW421834   3.104   5.568   0.965  0.0741 -0.1354  1.1808
 5516SOL     OW21835   1.916   5.327   6.362  0.0402 -0.0217 -0.0821
 5516SOL    HW221836   1.997   5.354   6.317 -0.7559 -0.7872 -2.0918
 5516SOL    HW321837   1.882   5.407   6.401  1.1478  0.5391 -0.2300
 5516SOL    MW421838   1.923   5.341   6.361  0.0813 -0.0487 -0.3668
 5517SOL     OW21839   5.965   4.252   2.454 -0.0837  0.2187  0.0287
 5517SOL    HW221840   6.039   4.291   2.408  0.5349 -0.8499  0.0941
 5517SOL    HW321841   5.893   4.256   2.391  0.3234  0.2591 -0.4402
 5517SOL    MW421842   5.965   4.258   2.439  0.0516  0.0830 -0.0245
 5518SOL     OW21843   2.551   0.758   3.724  0.3286 -0.2711 -0.5575
 5518SOL    HW221844   2.599   0.802   3.794  0.3961  2.2469 -2.0929
 5518SOL    HW321845   2.460   0.756   3.755  0.4139  0.4868 -0.2518
 5518SOL    MW421846   2.545   0.763   3.737  0.3488  0.1611 -0.7197
 5519SOL     OW21847   5.352   4.000   0.930  0.1847  0.5834  0.4194
 5519SOL    HW221848   5.390   3.954   0.856  1.2924  0.6193  0.9426
 5519SOL    HW321849   5.266   3.960   0.942  0.0112  0.5373 -0.8313
 5519SOL    MW421850   5.346   3.989   0.922  0.3079  0.5820  0.3234
 5520SOL     OW21851   4.180   0.904   4.351  0.6804  0.5578 -0.0150
 5520SOL    HW221852   4.122   0.906   4.275  0.8509  0.8691 -0.1411
 5520SOL    HW321853   4.244   0.836   4.330 -1.3273 -1.9122  1.4061
 5520SOL    MW421854   4.181   0.895   4.338  0.4380  0.2730  0.1559
 5521SOL     OW21855   4.863   2.526   1.122  0.5470 -0.3236  0.1518
 5521SOL    HW221856   4.849   2.500   1.031 -0.8207  1.3640 -0.1691
 5521SOL    HW321857   4.871   2.443   1.170  0.3280 -1.2462 -1.3578
 5521SOL    MW421858   4.862   2.512   1.117  0.3377 -0.2226 -0.0897
 5522SOL     OW21859   2.635   5.500   6.240 -0.2508 -0.8108  0.1326
 5522SOL    HW221860   2.641   5.405   6.241  0.4018 -0.7692  0.2464
 5522SOL    HW321861   2.647   5.524   6.148 -0.9939 -0.8649  0.0091
 5522SOL    MW421862   2.637   5.491   6.228 -0.2628 -0.8125  0.1313
 5523SOL     OW21863   5.067   4.663   3.283  0.3514 -0.5189 -0.0641
 5523SOL    HW221864   5.062   4.754   3.313 -0.6667 -0.7299  0.4285
 5523SOL    HW321865   5.087   4.613   3.363 -0.7878 -0.9093 -0.0100
 5523SOL    MW421866   5.069   4.668   3.298  0.0668 -0.5982  0.0080
 5524SOL     OW21867   0.565   5.531   4.600 -0.2150  0.0478 -0.0551
 5524SOL    HW221868   0.546   5.624   4.614  1.7723  0.3494  1.0281
 5524SOL    HW321869   0.526   5.511   4.516 -0.4837  1.9370 -0.4348
 5524SOL    MW421870   0.557   5.541   4.591  0.0117  0.3368  0.0377
 5525SOL     OW21871   5.953   0.999   3.113 -0.3427  0.1711 -0.2387
 5525SOL    HW221872   6.001   0.936   3.166 -1.6102 -1.7861 -1.2981
 5525SOL    HW321873   5.861   0.976   3.125 -0.7535  0.8131 -1.8414
 5525SOL    MW421874   5.948   0.988   3.121 -0.5641 -0.0024 -0.5899
 5526SOL     OW21875   1.768   5.300   1.705  0.0580 -0.2935 -0.8527
 5526SOL    HW221876   1.700   5.300   1.772  0.8467 -0.9461 -0.0324
 5526SOL    HW321877   1.821   5.377   1.724  0.0130 -0.2241 -1.0094
 5526SOL    MW421878   1.766   5.310   1.716  0.1562 -0.3704 -0.7652
 5527SOL     OW21879   2.448   4.118   0.505  0.3237 -0.6586  0.8810
 5527SOL    HW221880   2.406   4.196   0.469  1.2432 -0.7550 -0.4296
 5527SOL    HW321881   2.399   4.101   0.586 -0.0112  1.1472  1.0992
 5527SOL    MW421882   2.436   4.126   0.511  0.4008 -0.4330  0.7369
 5528SOL     OW21883   0.786   3.762   2.951 -0.9524 -0.1708 -0.4322
 5528SOL    HW221884   0.838   3.682   2.953 -1.7152 -0.6671  0.9800
 5528SOL    HW321885   0.820   3.814   3.024 -1.4065  0.1800 -0.4690
 5528SOL    MW421886   0.798   3.758   2.961 -1.1129 -0.1900 -0.2507
 5529SOL     OW21887   5.346   3.061   3.273  0.2573  0.3398 -0.3379
 5529SOL    HW221888   5.434   3.071   3.309 -0.2679 -1.3635  1.6349
 5529SOL    HW321889   5.360   3.044   3.180  2.2336 -1.9910  0.2608
 5529SOL    MW421890   5.360   3.060   3.265  0.4487 -0.1925  0.0013
 5530SOL     OW21891   6.109   3.219   3.902  0.4770  0.1371  0.5580
 5530SOL    HW221892   6.059   3.217   3.983 -0.0030  2.3740  0.3904
 5530SOL    HW321893   6.188   3.269   3.925  0.5786  0.3354 -0.2095
 5530SOL    MW421894   6.113   3.225   3.916  0.4271  0.4584  0.4347
 5531SOL     OW21895   3.390   0.316   0.930  0.3702  0.6267 -0.0924
 5531SOL    HW221896   3.436   0.285   1.007  0.9266  2.2784  0.2830
 5531SOL    HW321897   3.316   0.256   0.920  1.2147 -0.5801  0.7439
 5531SOL    MW421898   3.386   0.304   0.939  0.5550  0.6854  0.0675
 5532SOL     OW21899   1.763   3.560   5.662  0.4999 -0.2811  0.1496
 5532SOL    HW221900   1.819   3.613   5.605 -0.0997 -0.5159 -0.6688
 5532SOL    HW321901   1.824   3.501   5.706  0.8985 -0.6803 -0.8944
 5532SOL    MW421902   1.779   3.559   5.660  0.4734 -0.3648 -0.0962
 5533SOL     OW21903   2.724   4.665   3.729 -0.4777  0.1795 -0.1354
 5533SOL    HW221904   2.690   4.719   3.657  1.6924  0.5514 -0.9544
 5533SOL    HW321905   2.777   4.726   3.781  2.8381 -1.1532 -1.6205
 5533SOL    MW421906   2.727   4.680   3.726  0.2461  0.0528 -0.4394
 5534SOL     OW21907   0.512   5.536   1.909  0.0730 -0.3485  0.2721
 5534SOL    HW221908   0.517   5.453   1.861 -0.0786 -0.2718  0.1194
 5534SOL    HW321909   0.482   5.512   1.996 -0.8967 -0.3564 -0.0491
 5534SOL    MW421910   0.509   5.522   1.914 -0.0750 -0.3394  0.2096
 5535SOL     OW21911   5.931   3.284   4.527 -0.1631  0.1021 -0.3002
 5535SOL    HW221912   6.002   3.349   4.530  0.5870 -0.7121  0.0593
 5535SOL    HW321913   5.964   3.215   4.470 -0.4437 -0.5376  0.2978
 5535SOL    MW421914   5.945   3.284   4.520 -0.1011 -0.0897 -0.1739
 5536SOL     OW21915   4.153   4.661   5.465  0.7726 -0.1790  0.2762
 5536SOL    HW221916   4.131   4.592   5.528 -0.6104  0.3370  0.3940
 5536SOL    HW321917   4.071   4.678   5.420  2.0200 -1.6157 -2.8182
 5536SOL    MW421918   4.139   4.654   5.468  0.7547 -0.3005 -0.1165
 5537SOL     OW21919   5.649   6.148   1.894  0.2416  0.3596 -0.0319
 5537SOL    HW221920   5.644   6.241   1.872  4.5991  0.5411 -1.2866
 5537SOL    HW321921   5.675   6.105   1.813  0.5807 -1.5808  1.0309
 5537SOL    MW421922   5.652   6.154   1.881  0.8612  0.1276 -0.0573
 5538SOL     OW21923   5.610   0.868   0.033 -0.3173  0.5754 -0.5351
 5538SOL    HW221924   5.544   0.937   0.045 -0.9668 -0.2613  1.0107
 5538SOL    HW321925   5.558   0.788   0.020  0.3783 -0.0826  0.6035
 5538SOL    MW421926   5.594   0.867   0.033 -0.3112  0.3782 -0.1809
 5539SOL     OW21927   0.041   4.863   5.066 -1.1543  0.3507 -0.5150
 5539SOL    HW221928   0.085   4.939   5.029 -1.3621  1.0362  0.5928
 5539SOL    HW321929  -0.021   4.835   4.998  0.4516 -0.1977 -1.8042
 5539SOL    MW421930   0.038   4.869   5.052 -0.9698  0.3688 -0.5390
 5540SOL     OW21931   3.723   0.098   2.098  0.0569 -0.1273 -0.1619
 5540SOL    HW221932   3.700   0.181   2.056 -1.6497 -1.0989 -1.2695
 5540SOL    HW321933   3.786   0.122   2.166 -0.6757  2.1094 -0.1893
 5540SOL    MW421934   3.728   0.112   2.101 -0.2650  0.0396 -0.3117
 5541SOL     OW21935   0.130   0.340   0.685 -0.6217  0.1973  0.0395
 5541SOL    HW221936   0.163   0.252   0.667  2.0238  1.1846 -0.3694
 5541SOL    HW321937   0.038   0.326   0.709 -0.4463 -2.5979 -0.4977
 5541SOL    MW421938   0.122   0.326   0.685 -0.2495 -0.0412 -0.0853
 5542SOL     OW21939   4.391   0.964   0.952 -0.0673 -0.2935  0.1964
 5542SOL    HW221940   4.352   1.050   0.971 -1.1772 -0.2997 -1.8019
 5542SOL    HW321941   4.482   0.973   0.980 -0.1852  1.5011  0.1383
 5542SOL    MW421942   4.398   0.977   0.958 -0.2293 -0.0576 -0.0749
 5543SOL     OW21943   2.577   5.356   4.509 -0.5211 -0.5347  1.0832
 5543SOL    HW221944   2.630   5.370   4.587  1.4488  1.2745 -0.4643
 5543SOL    HW321945   2.595   5.266   4.482  0.3256 -0.5196  1.5928
 5543SOL    MW421946   2.586   5.346   4.515 -0.1495 -0.2940  0.9462
 5544SOL     OW21947   1.140   5.604   1.164 -0.3219 -0.2765  0.4534
 5544SOL    HW221948   1.077   5.667   1.199  0.4241  0.3838  0.6628
 5544SOL    HW321949   1.134   5.528   1.222 -1.7647 -0.7256 -0.2393
 5544SOL    MW421950   1.131   5.602   1.176 -0.4138 -0.2486  0.3897
 5545SOL     OW21951   2.906   2.327   4.152  0.0771  0.9803  0.1882
 5545SOL    HW221952   2.888   2.412   4.193 -0.2061  1.4668 -0.8948
 5545SOL    HW321953   2.918   2.347   4.059 -3.0672 -0.4705 -0.6974
 5545SOL    MW421954   2.905   2.341   4.145 -0.3751  0.8531 -0.0715
 5546SOL     OW21955   0.038   1.826   1.951 -0.3722  0.0911 -0.0445
 5546SOL    HW221956   0.069   1.737   1.966  1.2929  0.7325  0.5144
 5546SOL    HW321957   0.057   1.873   2.031  0.2269  1.3404 -0.8852
 5546SOL    MW421958   0.044   1.820   1.963 -0.0735  0.3405 -0.0817
 5547SOL     OW21959   0.135   4.843   5.732  0.0458 -0.0737  0.2631
 5547SOL    HW221960   0.067   4.816   5.794 -0.1621 -0.0369  0.0538
 5547SOL    HW321961   0.189   4.905   5.781  0.4818 -0.8037  0.7224
 5547SOL    MW421962   0.133   4.847   5.747  0.0759 -0.1652  0.2961
 5548SOL     OW21963   4.526   2.262   2.773  0.1645 -0.3839  0.3220
 5548SOL    HW221964   4.569   2.315   2.840  0.3378  1.2718 -1.0536
 5548SOL    HW321965   4.516   2.320   2.698 -0.6769 -1.9779 -0.8687
 5548SOL    MW421966   4.530   2.277   2.772  0.0764 -0.3758 -0.0166
 5549SOL     OW21967   0.040   6.312   3.799 -0.1454 -0.1196  0.3554
 5549SOL    HW221968  -0.031   6.275   3.746 -0.2083  0.7159 -0.1479
 5549SOL    HW321969   0.054   6.400   3.764  0.7786 -0.0753  0.7998
 5549SOL    MW421970   0.033   6.318   3.788 -0.0318 -0.0035  0.3477
 5550SOL     OW21971   0.226   3.326   0.106  0.0120  0.2957  0.7750
 5550SOL    HW221972   0.287   3.290   0.042 -0.4233  0.1634  0.4313
 5550SOL    HW321973   0.210   3.254   0.168  1.0878  0.6806  1.5292
 5550SOL    MW421974   0.232   3.311   0.106  0.0965  0.3290  0.8292
 5551SOL     OW21975   3.961   6.367   3.598 -0.0229 -1.0497 -0.1598
 5551SOL    HW221976   4.038   6.397   3.646  0.5641 -2.5138 -0.1359
 5551SOL    HW321977   3.996   6.337   3.514 -0.5409 -1.8261 -0.1067
 5551SOL    MW421978   3.976   6.367   3.593 -0.0138 -1.3453 -0.1497
 5552SOL     OW21979   1.777   3.090   4.004 -0.2337 -0.3781 -0.0368
 5552SOL    HW221980   1.744   3.139   3.929  1.6718  0.1818 -0.5377
 5552SOL    HW321981   1.765   2.998   3.979  0.5941 -0.2045 -1.1571
 5552SOL    MW421982   1.771   3.084   3.991  0.1269 -0.2814 -0.2507
 5553SOL     OW21983   0.924   4.242   0.908 -0.0559 -0.5786  0.3613
 5553SOL    HW221984   1.014   4.214   0.889  0.4201  1.0114  0.1565
 5553SOL    HW321985   0.895   4.183   0.977  1.1645 -1.0844  0.4765
 5553SOL    MW421986   0.932   4.230   0.914  0.1679 -0.4356  0.3495
 5554SOL     OW21987   3.237   5.819   4.665 -0.8614  0.0141  0.4554
 5554SOL    HW221988   3.213   5.856   4.580  1.7499  0.2747 -0.2870
 5554SOL    HW321989   3.235   5.724   4.651 -0.8860  0.0461  0.2382
 5554SOL    MW421990   3.234   5.812   4.652 -0.5201  0.0527  0.3288
 5555SOL     OW21991   0.346   1.496   1.606  0.1935 -0.4715 -0.2635
 5555SOL    HW221992   0.377   1.504   1.697 -0.7559 -0.6829  0.0862
 5555SOL    HW321993   0.396   1.562   1.558  0.5239 -0.1859  0.4583
 5555SOL    MW421994   0.357   1.506   1.612  0.1118 -0.4617 -0.1221
 5556SOL     OW21995   2.209   3.390   0.849  0.0199 -0.2707  0.2067
 5556SOL    HW221996   2.197   3.312   0.903 -1.3310 -0.4907 -0.3801
 5556SOL    HW321997   2.195   3.463   0.908 -0.5915 -0.5034  0.3601
 5556SOL    MW421998   2.206   3.389   0.864 -0.2390 -0.3304  0.1495
 5557SOL     OW21999   1.962   0.591   5.333 -0.5209  0.4487  0.1737
 5557SOL    HW222000   2.053   0.577   5.308 -0.2717  0.7401  0.8776
 5557SOL    HW322001   1.925   0.644   5.262 -0.7299 -1.4048 -1.1461
 5557SOL    MW422002   1.969   0.596   5.320 -0.5156  0.2426  0.0924
 5558SOL     OW22003   5.445   6.125   0.364  0.2025  0.0221 -0.2866
 5558SOL    HW222004   5.389   6.202   0.376 -0.6746 -0.3601 -1.6606
 5558SOL    HW322005   5.533   6.156   0.386 -0.4375  0.7803  1.4120
 5558SOL    MW422006   5.449   6.139   0.369  0.0023  0.0718 -0.2438
 5559SOL     OW22007   5.453   5.414   3.714 -0.2051 -0.3186  0.7955
 5559SOL    HW222008   5.510   5.473   3.665  1.0248 -1.3431  0.9259
 5559SOL    HW322009   5.477   5.427   3.805 -1.8839  0.9530  1.1061
 5559SOL    MW422010   5.463   5.423   3.719 -0.2643 -0.2860  0.8537
 5560SOL     OW22011   4.948   1.902   1.955  0.0143 -0.1376 -0.1838
 5560SOL    HW222012   4.949   1.995   1.934  0.1588  0.2110  1.3255
 5560SOL    HW322013   5.040   1.879   1.966  0.0206 -0.6043 -1.0701
 5560SOL    MW422014   4.960   1.911   1.953  0.0342 -0.1532 -0.1016
 5561SOL     OW22015   3.359   1.693   6.423 -0.5886 -0.3975  0.2474
 5561SOL    HW222016   3.372   1.633   6.350  1.5647 -1.1780  1.1899
 5561SOL    HW322017   3.309   1.643   6.487  0.5614 -0.9915  0.7201
 5561SOL    MW422018   3.354   1.678   6.422 -0.1528 -0.5788  0.4341
 5562SOL     OW22019   5.236   4.278   0.552  0.1196 -0.1861  0.1645
 5562SOL    HW222020   5.159   4.274   0.608  0.4540 -0.2916  0.6167
 5562SOL    HW322021   5.273   4.190   0.555  0.7719  0.1034  0.6728
 5562SOL    MW422022   5.231   4.266   0.560  0.2498 -0.1618  0.2913
 5563SOL     OW22023   3.077   5.193   0.087  0.0803 -0.2936 -0.1964
 5563SOL    HW222024   3.024   5.159   0.160  1.1166 -0.5178  0.4764
 5563SOL    HW322025   3.160   5.216   0.128  0.4040  0.3141 -1.1888
 5563SOL    MW422026   3.081   5.191   0.102  0.2597 -0.2430 -0.2385
 5564SOL     OW22027   6.266   0.312   4.887  0.2921 -0.0420 -0.3282
 5564SOL    HW222028   6.324   0.240   4.913 -2.1137 -1.8435  0.3805
 5564SOL    HW322029   6.222   0.336   4.968 -2.1383 -0.8487 -1.3354
 5564SOL    MW422030   6.268   0.305   4.901 -0.3459 -0.3861 -0.3676
 5565SOL     OW22031   0.199   3.495   3.602 -0.6664  0.1714 -0.1084
 5565SOL    HW222032   0.160   3.526   3.520 -1.4118 -0.1566  0.1179
 5565SOL    HW322033   0.189   3.569   3.662  0.3401  0.5990 -0.4494
 5565SOL    MW422034   0.192   3.509   3.600 -0.6320  0.1846 -0.1235
 5566SOL     OW22035   4.149   6.459   3.100 -0.1132  0.4440 -0.6481
 5566SOL    HW222036   4.156   6.499   3.013 -2.5375  0.4785 -0.9159
 5566SOL    HW322037   4.097   6.521   3.151  0.0009 -0.2698  0.3714
 5566SOL    MW422038   4.143   6.472   3.095 -0.4180  0.3544 -0.5489
 5567SOL     OW22039   4.422   5.090   5.901  0.4091  0.0425  0.1514
 5567SOL    HW222040   4.441   5.000   5.925  0.4580  0.4811  1.8711
 5567SOL    HW322041   4.327   5.095   5.897  0.4126 -0.1352 -0.1571
 5567SOL    MW422042   4.412   5.079   5.904  0.4160  0.0769  0.3376
 5568SOL     OW22043   4.318   1.234   1.004  0.1616  0.3665  0.3871
 5568SOL    HW222044   4.388   1.286   0.965  1.5446 -0.6370  1.3817
 5568SOL    HW322045   4.240   1.255   0.953  1.2266  1.3902 -0.8944
 5568SOL    MW422046   4.317   1.244   0.992  0.4846  0.3692  0.3492
 5569SOL     OW22047   2.702   4.696   0.097  0.0602 -0.8870 -0.1936
 5569SOL    HW222048   2.774   4.633   0.102 -0.1060 -1.0411  0.4615
 5569SOL    HW322049   2.629   4.645   0.063  0.7403 -0.2586 -2.8125
 5569SOL    MW422050   2.702   4.681   0.093  0.1280 -0.8244 -0.4527
 5570SOL     OW22051   1.593   2.649   5.878  0.7488 -0.4341  0.1149
 5570SOL    HW222052   1.508   2.674   5.914  0.7916 -2.6528  2.0433
 5570SOL    HW322053   1.594   2.686   5.790 -2.6335 -1.1547 -0.3738
 5570SOL    MW422054   1.582   2.657   5.872  0.3082 -0.8219  0.3049
 5571SOL     OW22055   4.419   1.018   1.661  0.5287 -0.5537  0.7105
 5571SOL    HW222056   4.358   1.091   1.663  1.0433 -0.0191 -1.0974
 5571SOL    HW322057   4.379   0.951   1.717 -0.1434  0.9335  2.0852
 5571SOL    MW422058   4.406   1.018   1.669  0.5079 -0.2869  0.6534
 5572SOL     OW22059   3.227   3.445   0.800  0.4780 -0.3633  0.7098
 5572SOL    HW222060   3.203   3.534   0.825 -0.9019 -0.5379  0.0631
 5572SOL    HW322061   3.144   3.402   0.779  1.2474 -1.3586 -0.4313
 5572SOL    MW422062   3.213   3.451   0.800  0.3975 -0.5176  0.4739
 5573SOL     OW22063   4.289   4.460   0.863  0.0832 -0.7241  0.4989
 5573SOL    HW222064   4.210   4.405   0.863  0.3838 -1.1652  1.0253
 5573SOL    HW322065   4.341   4.427   0.936  0.9616 -0.7257 -0.1155
 5573SOL    MW422066   4.285   4.448   0.873  0.2388 -0.7825  0.4873
 5574SOL     OW22067   0.854   0.408   0.326 -0.0946  0.0536 -0.5157
 5574SOL    HW222068   0.861   0.314   0.343 -1.7845 -0.3817 -1.9835
 5574SOL    HW322069   0.928   0.446   0.374 -0.0549 -1.8665  1.0919
 5574SOL    MW422070   0.865   0.401   0.335 -0.3123 -0.2571 -0.4972
 5575SOL     OW22071   2.617   1.215   1.034 -0.7379 -0.0878 -0.4352
 5575SOL    HW222072   2.555   1.176   0.972 -0.6037 -1.8051  0.4580
 5575SOL    HW322073   2.633   1.303   1.000 -2.9129  0.0539 -1.2217
 5575SOL    MW422074   2.611   1.222   1.022 -1.0071 -0.2957 -0.4211
 5576SOL     OW22075   1.022   3.083   3.984  0.1688  0.1654 -0.3930
 5576SOL    HW222076   1.064   3.014   4.036  1.2637  0.5439 -0.7396
 5576SOL    HW322077   1.092   3.145   3.965 -1.0904  2.1635  1.1153
 5576SOL    MW422078   1.037   3.082   3.988  0.1471  0.4790 -0.2398
 5577SOL     OW22079   3.438   1.168   5.875  0.2131  0.5480  0.6503
 5577SOL    HW222080   3.358   1.218   5.864  0.1738  0.3123 -0.2242
 5577SOL    HW322081   3.482   1.209   5.950 -0.6921  0.7032  1.1114
 5577SOL    MW422082   3.434   1.180   5.883  0.0885  0.5374  0.5957
 5578SOL     OW22083   2.805   4.306   0.363  0.3097 -0.4108 -0.3608
 5578SOL    HW222084   2.801   4.386   0.416 -0.1401 -0.9409  0.4223
 5578SOL    HW322085   2.878   4.256   0.401  0.2420 -0.6197 -0.5039
 5578SOL    MW422086   2.814   4.310   0.375  0.2414 -0.5083 -0.2764
 5579SOL     OW22087   4.233   5.875   0.049 -0.2972  0.3826 -0.4020
 5579SOL    HW222088   4.307   5.817   0.065 -0.4630  0.2189 -0.2161
 5579SOL    HW322089   4.222   5.876  -0.046 -0.2562  0.1575 -0.4096
 5579SOL    MW422090   4.241   5.868   0.039 -0.3136  0.3313 -0.3785
 5580SOL     OW22091   0.325   6.197   1.787  0.3436 -0.3945  0.0773
 5580SOL    HW222092   0.394   6.232   1.731  1.8879 -1.0758  1.4571
 5580SOL    HW322093   0.284   6.129   1.735 -1.1841  1.8040 -1.7916
 5580SOL    MW422094   0.329   6.193   1.773  0.3458 -0.1944  0.0128
 5581SOL     OW22095   4.851   0.843   5.748 -0.6360 -0.3965  0.0841
 5581SOL    HW222096   4.843   0.872   5.839 -1.2507  1.1424 -0.4358
 5581SOL    HW322097   4.779   0.886   5.703 -0.4090 -1.2488 -1.1227
 5581SOL    MW422098   4.840   0.852   5.754 -0.6871 -0.3059 -0.1437
 5582SOL     OW22099   1.354   3.475   6.344  0.5062  0.0190  0.0736
 5582SOL    HW222100   1.364   3.398   6.400 -0.7514  0.1543  0.5291
 5582SOL    HW322101   1.437   3.483   6.298  0.3972 -2.0750 -0.5971
 5582SOL    MW422102   1.366   3.466   6.346  0.3259 -0.2394  0.0452
 5583SOL     OW22103   0.199   3.604   5.024 -0.0379 -0.2426 -0.2066
 5583SOL    HW222104   0.282   3.636   4.990 -0.8642  0.4298 -1.7295
 5583SOL    HW322105   0.133   3.655   4.976 -1.3225 -0.8813  0.8293
 5583SOL    MW422106   0.201   3.615   5.013 -0.3164 -0.2381 -0.2709
 5584SOL     OW22107   4.855   2.435   2.818  0.5470  0.3201 -0.0163
 5584SOL    HW222108   4.946   2.407   2.811  0.3713 -0.4779  0.7259
 5584SOL    HW322109   4.816   2.374   2.881  0.1053  2.1183  1.5375
 5584SOL    MW422110   4.862   2.423   2.826  0.4655  0.4521  0.2866
 5585SOL     OW22111   2.616   3.744   0.320 -0.1010  0.8850  0.1472
 5585SOL    HW222112   2.524   3.762   0.337 -0.7379  0.1075 -2.1432
 5585SOL    HW322113   2.660   3.827   0.341 -1.0017  0.7897  2.8594
 5585SOL    MW422114   2.610   3.758   0.325 -0.3038  0.7698  0.2028
 5586SOL     OW22115   2.466   4.801   2.605 -0.2567  0.3763  0.4302
 5586SOL    HW222116   2.455   4.876   2.545  0.4637  0.8712  0.8952
 5586SOL    HW322117   2.561   4.786   2.607 -0.2747  0.3225  1.3846
 5586SOL    MW422118   2.477   4.809   2.597 -0.1640  0.4345  0.6175
 5587SOL     OW22119   3.057   4.694   4.136  0.6515 -0.2315  0.1793
 5587SOL    HW222120   3.077   4.611   4.179  0.0251 -0.1699  0.6061
 5587SOL    HW322121   3.121   4.701   4.066  1.2577 -0.6717  0.6736
 5587SOL    MW422122   3.068   4.684   4.133  0.6489 -0.2815  0.3008
 5588SOL     OW22123   1.396   2.035   0.706  0.1474 -0.4384  0.2079
 5588SOL    HW222124   1.383   2.128   0.690 -1.4256 -0.9004 -1.6670
 5588SOL    HW322125   1.362   2.020   0.794 -1.4701  0.4427 -0.2265
 5588SOL    MW422126   1.390   2.045   0.715 -0.2735 -0.3831 -0.0968
 5589SOL     OW22127   6.277   3.646   1.911  0.5281 -0.4155 -0.6644
 5589SOL    HW222128   6.364   3.630   1.946  0.5747 -0.4154 -0.7785
 5589SOL    HW322129   6.230   3.690   1.982  0.6814 -0.2356 -0.6738
 5589SOL    MW422130   6.282   3.650   1.925  0.5545 -0.3918 -0.6807
 5590SOL     OW22131   0.401   5.994   4.343 -0.2909 -0.7001 -0.0789
 5590SOL    HW222132   0.404   5.903   4.313 -1.0513 -0.2977 -1.5017
 5590SOL    HW322133   0.344   5.992   4.420  0.6633 -1.5941  0.6244
 5590SOL    MW422134   0.394   5.982   4.349 -0.2654 -0.7650 -0.1739
 5591SOL     OW22135   1.988   2.945   2.440 -0.4188 -0.3321 -0.0939
 5591SOL    HW222136   2.067   2.892   2.427  1.7560  2.7499 -0.7773
 5591SOL    HW322137   2.021   3.034   2.452 -3.8022  0.9495  0.9024
 5591SOL    MW422138   2.003   2.950   2.440 -0.5782  0.2436 -0.0526
 5592SOL     OW22139   5.574   2.014   3.008 -0.1051  0.1940  0.5255
 5592SOL    HW222140   5.583   2.107   3.030 -0.2709  0.3805 -0.1713
 5592SOL    HW322141   5.485   2.006   2.975 -0.5132 -0.4635  1.7302
 5592SOL    MW422142   5.564   2.025   3.006 -0.1808  0.1318  0.5925
 5593SOL     OW22143   1.524   2.508   6.434 -0.4546 -0.6921  0.2144
 5593SOL    HW222144   1.602   2.545   6.393 -0.7972  0.4548  0.5388
 5593SOL    HW322145   1.501   2.571   6.503 -1.4345 -1.2071  0.3826
 5593SOL    MW422146   1.531   2.521   6.438 -0.6291 -0.6087  0.2794
 5594SOL     OW22147   0.723   1.487   3.911 -0.4942  0.4473 -0.0773
 5594SOL    HW222148   0.783   1.449   3.976 -1.2359 -1.8318 -0.6390
 5594SOL    HW322149   0.697   1.413   3.857 -4.7840  1.0390  0.8517
 5594SOL    MW422150   0.728   1.472   3.913 -1.1581  0.2247 -0.0289
 5595SOL     OW22151   6.342   5.928   5.801  0.4751  0.1888  0.3849
 5595SOL    HW222152   6.320   6.021   5.798  1.4725  0.4077 -0.4636
 5595SOL    HW322153   6.265   5.887   5.841 -0.9818  1.0673 -1.3809
 5595SOL    MW422154   6.329   5.935   5.806  0.4145  0.3336  0.0400
 5596SOL     OW22155   1.143   1.977   4.972 -0.5992  0.0785  0.6176
 5596SOL    HW222156   1.086   2.011   4.903 -0.0626  1.1642  0.6907
 5596SOL    HW322157   1.084   1.933   5.032 -1.0184 -1.4306 -0.8224
 5596SOL    MW422158   1.128   1.975   4.971 -0.5837  0.0226  0.4373
 5597SOL     OW22159   2.337   3.708   2.917 -0.3605  0.0735 -0.2251
 5597SOL    HW222160   2.421   3.699   2.962  0.1488  2.0856 -0.6536
 5597SOL    HW322161   2.339   3.640   2.850 -0.0872 -1.3800  1.2019
 5597SOL    MW422162   2.349   3.698   2.914 -0.2573  0.1472 -0.0933
 5598SOL     OW22163   2.491   3.553   1.795  0.7084 -0.4070 -0.2039
 5598SOL    HW222164   2.437   3.627   1.767 -1.7189 -2.0589 -0.1186
 5598SOL    HW322165   2.506   3.568   1.888  1.3359  0.5838 -0.4421
 5598SOL    MW422166   2.486   3.565   1.804  0.4709 -0.4942 -0.2241
 5599SOL     OW22167   4.223   3.313   0.341  0.3115 -0.1569 -0.3566
 5599SOL    HW222168   4.206   3.219   0.332  0.2824 -0.4026  1.7450
 5599SOL    HW322169   4.289   3.332   0.275  0.6091 -1.7522 -0.5572
 5599SOL    MW422170   4.230   3.303   0.331  0.3470 -0.3998 -0.1058
 5600SOL     OW22171   1.923   4.281   5.730  0.4704  0.1449 -0.1628
 5600SOL    HW222172   1.907   4.196   5.771  0.6983  0.0204 -0.3306
 5600SOL    HW322173   1.865   4.341   5.776  0.0406 -0.1684 -0.2866
 5600SOL    MW422174   1.913   4.278   5.742  0.4438  0.0871 -0.2012
 5601SOL     OW22175   2.515   4.561   3.396  0.5073 -0.6734  0.5103
 5601SOL    HW222176   2.478   4.533   3.480 -0.3106 -0.0224  0.3733
 5601SOL    HW322177   2.571   4.488   3.370  0.0286 -1.2921  1.1576
 5601SOL    MW422178   2.518   4.548   3.404  0.3363 -0.6692  0.5776
 5602SOL     OW22179   3.772   3.186   2.656 -0.6197 -0.0967  0.2429
 5602SOL    HW222180   3.737   3.174   2.744  1.3146 -1.3312  0.9328
 5602SOL    HW322181   3.720   3.127   2.601 -0.0034 -1.5266  1.1392
 5602SOL    MW422182   3.761   3.176   2.660 -0.2832 -0.4482  0.4522
 5603SOL     OW22183   2.334   4.698   3.703  0.0646 -0.1101 -0.7691
 5603SOL    HW222184   2.310   4.721   3.793  1.4045  2.3730 -0.9468
 5603SOL    HW322185   2.353   4.605   3.706 -1.2575 -0.3642  1.2001
 5603SOL    MW422186   2.333   4.689   3.715  0.0669  0.1840 -0.5327
 5604SOL     OW22187   2.402   3.125   3.836 -0.1712 -0.0639  0.4947
 5604SOL    HW222188   2.334   3.183   3.870  0.5312  0.4236  1.0710
 5604SOL    HW322189   2.417   3.062   3.907  0.7047  0.4525  0.7793
 5604SOL    MW422190   2.395   3.124   3.850  0.0370  0.0685  0.6083
 5605SOL     OW22191   2.276   3.659   0.266  0.0164 -0.1664 -0.1493
 5605SOL    HW222192   2.187   3.624   0.264  0.0306 -0.1940 -0.9383
 5605SOL    HW322193   2.271   3.733   0.327 -0.3073 -0.7709  0.5649
 5605SOL    MW422194   2.263   3.664   0.273 -0.0245 -0.2498 -0.1591
 5606SOL     OW22195   4.174   2.508   5.413 -0.2454 -0.0546  0.6229
 5606SOL    HW222196   4.080   2.521   5.421 -0.2271  1.0641 -0.5315
 5606SOL    HW322197   4.184   2.416   5.391 -1.0116 -0.3438  1.4207
 5606SOL    MW422198   4.163   2.498   5.411 -0.3441  0.0549  0.5759
 5607SOL     OW22199   4.817   3.690   1.876 -0.6111  0.0345 -0.3082
 5607SOL    HW222200   4.791   3.599   1.888 -1.2291  0.3356  0.7210
 5607SOL    HW322201   4.912   3.689   1.884 -0.6239 -0.5004 -0.2080
 5607SOL    MW422202   4.826   3.678   1.878 -0.6943  0.0036 -0.1592
 5608SOL     OW22203   1.468   0.582   4.788 -0.1239  0.0151 -0.1255
 5608SOL    HW222204   1.476   0.634   4.868  0.1613 -0.6902  0.3057
 5608SOL    HW322205   1.404   0.514   4.809 -0.9663  0.5407 -0.8878
 5608SOL    MW422206   1.461   0.580   4.801 -0.1974 -0.0086 -0.1692
 5609SOL     OW22207   3.140   3.736   3.267 -0.1290  1.0259  0.4655
 5609SOL    HW222208   3.076   3.788   3.218  1.1005 -0.2228 -2.7502
 5609SOL    HW322209   3.197   3.801   3.309 -2.6984  2.1560  2.4975
 5609SOL    MW422210   3.139   3.751   3.266 -0.3057  1.0103  0.3093
 5610SOL     OW22211   2.482   5.901   1.195  0.0376  0.1585 -0.1670
 5610SOL    HW222212   2.520   5.813   1.189 -2.2553 -0.8463 -3.3944
 5610SOL    HW322213   2.527   5.952   1.128 -1.2677  0.1875 -1.0751
 5610SOL    MW422214   2.493   5.896   1.185 -0.4371  0.0298 -0.7126
 5611SOL     OW22215   5.692   1.845   0.672  0.0924 -0.0968 -0.5387
 5611SOL    HW222216   5.692   1.779   0.603 -0.2153  0.7453 -1.3655
 5611SOL    HW322217   5.739   1.804   0.744  0.4514 -0.9923 -1.2583
 5611SOL    MW422218   5.698   1.831   0.672  0.0992 -0.1038 -0.7427
 5612SOL     OW22219   0.438   3.637   3.549 -0.3001 -0.2471  0.4540
 5612SOL    HW222220   0.407   3.707   3.491 -1.4477  0.7809  2.2042
 5612SOL    HW322221   0.358   3.595   3.582  0.2563 -0.2968  1.8456
 5612SOL    MW422222   0.423   3.641   3.546 -0.3781 -0.1180  0.8685
 5613SOL     OW22223   1.609   0.112   0.665 -0.2269  0.5654  0.3483
 5613SOL    HW222224   1.672   0.071   0.606  0.5920  0.8959  0.9672
 5613SOL    HW322225   1.529   0.061   0.654  1.0940 -2.1189  2.0243
 5613SOL    MW422226   1.607   0.100   0.656  0.0555  0.2548  0.6511
 5614SOL     OW22227   4.458   2.291   5.137  0.3500  0.3481  0.1593
 5614SOL    HW222228   4.482   2.361   5.076  1.3069  0.7767  0.9921
 5614SOL    HW322229   4.388   2.243   5.093 -1.4077  2.7282  0.1432
 5614SOL    MW422230   4.452   2.294   5.123  0.2443  0.7187  0.2671
 5615SOL     OW22231   4.614   3.404   2.418 -0.3775  0.2447  0.3113
 5615SOL    HW222232   4.701   3.433   2.447 -0.4183 -0.8682  1.6197
 5615SOL    HW322233   4.618   3.309   2.420 -1.6165  0.1753  0.3686
 5615SOL    MW422234   4.626   3.396   2.422 -0.5464  0.0887  0.4915
 5616SOL     OW22235   4.471   5.057   1.586  0.1581  0.0296 -0.6690
 5616SOL    HW222236   4.540   5.114   1.620 -0.7598 -0.0794  1.5356
 5616SOL    HW322237   4.399   5.117   1.563 -0.3600 -0.0835  0.5415
 5616SOL    MW422238   4.470   5.073   1.588 -0.0314  0.0003 -0.2184
 5617SOL     OW22239   1.580   4.402   0.252  0.4356  0.1872  0.1369
 5617SOL    HW222240   1.652   4.416   0.313 -0.0702  2.3429  0.3181
 5617SOL    HW322241   1.544   4.489   0.237 -1.2696 -0.6596 -1.0203
 5617SOL    MW422242   1.585   4.415   0.258  0.1439  0.3599  0.0081
 5618SOL     OW22243   3.436   3.013   4.810  0.2262 -0.6093  0.1238
 5618SOL    HW222244   3.449   2.925   4.846 -2.7869 -1.7505 -1.2086
 5618SOL    HW322245   3.448   3.002   4.715  0.8647  0.6790  0.0339
 5618SOL    MW422246   3.439   3.000   4.802 -0.0871 -0.5899 -0.0638
 5619SOL     OW22247   0.536   4.313   5.302  0.0343  0.1506  0.2641
 5619SOL    HW222248   0.470   4.300   5.234 -1.2405  1.1532  1.2218
 5619SOL    HW322249   0.485   4.313   5.384  1.1786  1.2246  1.0168
 5619SOL    MW422250   0.520   4.311   5.304  0.0170  0.4246  0.4898
 5620SOL     OW22251   4.857   1.719   5.171  0.0908  0.1712  0.2355
 5620SOL    HW222252   4.924   1.781   5.200 -1.3437  1.0941  1.7730
 5620SOL    HW322253   4.905   1.637   5.156  1.6842  1.0217  0.4457
 5620SOL    MW422254   4.872   1.716   5.173  0.1118  0.4052  0.4661
 5621SOL     OW22255   1.512   2.818   4.703  0.1862  0.4978  0.2383
 5621SOL    HW222256   1.445   2.749   4.702  0.6585 -0.0470 -2.4308
 5621SOL    HW322257   1.466   2.895   4.737 -0.6658 -0.8203  2.2133
 5621SOL    MW422258   1.497   2.819   4.707  0.1361  0.2520  0.1467
 5622SOL     OW22259   4.371   0.221   5.919  0.0391 -0.0099 -0.3718
 5622SOL    HW222260   4.447   0.176   5.955  0.4097  1.3332  0.6342
 5622SOL    HW322261   4.296   0.180   5.962  0.4604  1.4581  1.9618
 5622SOL    MW422262   4.371   0.210   5.929  0.1436  0.3610  0.0688
 5623SOL     OW22263   4.548   4.979   3.771 -0.0464 -0.2881  0.8412
 5623SOL    HW222264   4.530   4.891   3.739 -1.5610  0.1061  0.5591
 5623SOL    HW322265   4.599   4.965   3.852 -1.1632 -1.4543  1.3731
 5623SOL    MW422266   4.553   4.965   3.778 -0.3936 -0.3900  0.8742
 5624SOL     OW22267   6.126   5.077   4.295  0.3087  0.2164 -0.7584
 5624SOL    HW222268   6.168   5.057   4.379 -2.3061 -0.1919  0.5557
 5624SOL    HW322269   6.176   5.027   4.231  0.5144 -1.9708  0.9974
 5624SOL    MW422270   6.138   5.068   4.298 -0.0092 -0.1261 -0.3533
 5625SOL     OW22271   5.035   0.249   5.811 -0.0605  0.0785 -0.5690
 5625SOL    HW222272   5.061   0.211   5.727  1.3739  0.0552 -0.1466
 5625SOL    HW322273   4.987   0.179   5.856  2.0072 -1.1057 -0.0536
 5625SOL    MW422274   5.032   0.235   5.806  0.4016 -0.0808 -0.4453
 5626SOL     OW22275   0.045   5.972   0.135  0.2713 -0.1835 -0.5452
 5626SOL    HW222276   0.126   5.957   0.185  1.5428  3.1682 -1.3458
 5626SOL    HW322277   0.066   5.939   0.048 -1.0310 -3.6258  0.2872
 5626SOL    MW422278   0.059   5.965   0.130  0.2673 -0.1954 -0.5410
 5627SOL     OW22279   0.106   3.259   0.930 -0.4023 -0.1380  0.2939
 5627SOL    HW222280   0.160   3.250   1.008 -0.8440 -2.2975  0.4207
 5627SOL    HW322281   0.166   3.245   0.857 -0.2191  0.6781  0.2767
 5627SOL    MW422282   0.121   3.256   0.931 -0.4364 -0.3153  0.3083
 5628SOL     OW22283   5.940   2.281   4.915 -0.8747  0.2571  0.0384
 5628SOL    HW222284   5.880   2.224   4.867  0.3281 -1.2178  0.2181
 5628SOL    HW322285   6.019   2.229   4.927 -0.3837  1.3154  1.8422
 5628SOL    MW422286   5.943   2.267   4.911 -0.6513  0.2021  0.3001
 5629SOL     OW22287   0.413   3.179   1.884  0.4872 -0.1415 -0.1590
 5629SOL    HW222288   0.419   3.225   1.968  1.2625  1.3844 -1.0089
 5629SOL    HW322289   0.426   3.087   1.907 -1.8179 -0.1096  1.6991
 5629SOL    MW422290   0.415   3.173   1.898  0.2854  0.0641 -0.0260
 5630SOL     OW22291   3.924   0.698   0.611 -0.5102  0.7982  0.0164
 5630SOL    HW222292   3.896   0.651   0.533 -1.1057 -1.1339  1.3246
 5630SOL    HW322293   3.936   0.630   0.677  1.6406  2.1768  1.1748
 5630SOL    MW422294   3.922   0.683   0.609 -0.3050  0.7252  0.3419
 5631SOL     OW22295   3.026   3.204   2.253 -0.1957  0.1208 -0.0359
 5631SOL    HW222296   3.024   3.148   2.330  2.0491 -0.7730 -0.5551
 5631SOL    HW322297   3.108   3.183   2.210 -0.8122  1.4836 -2.0324
 5631SOL    MW422298   3.036   3.194   2.257  0.0192  0.1827 -0.3678
 5632SOL     OW22299   5.224   5.437   4.291 -0.0720  0.2918 -0.5711
 5632SOL    HW222300   5.227   5.417   4.384  0.1931 -0.8223 -0.8002
 5632SOL    HW322301   5.135   5.413   4.264  1.1473 -4.2380 -1.5378
 5632SOL    MW422302   5.212   5.431   4.299  0.1239 -0.4529 -0.7289
 5633SOL     OW22303   0.689   0.461   2.887  0.2565 -0.6315 -0.0494
 5633SOL    HW222304   0.659   0.405   2.958  0.1762 -0.1650  0.2894
 5633SOL    HW322305   0.618   0.524   2.875 -0.2581 -1.4234 -1.3401
 5633SOL    MW422306   0.676   0.462   2.895  0.1780 -0.6744 -0.1750
 5634SOL     OW22307   2.637   2.760   0.476  0.2456  0.3028 -0.0870
 5634SOL    HW222308   2.699   2.782   0.546 -0.9245  3.3041  0.2018
 5634SOL    HW322309   2.552   2.791   0.510 -0.9784 -1.3308 -1.4885
 5634SOL    MW422310   2.634   2.767   0.490 -0.0703  0.4832 -0.2338
 5635SOL     OW22311   6.006   4.713   6.177 -0.0113  0.1125 -0.2800
 5635SOL    HW222312   5.914   4.738   6.169 -0.4571 -1.4404 -0.2444
 5635SOL    HW322313   6.020   4.649   6.108  0.3008 -1.6451  1.3041
 5635SOL    MW422314   5.996   4.708   6.167 -0.0289 -0.3243 -0.0663
 5636SOL     OW22315   2.108   0.732   0.436  0.5343 -0.0918 -0.1674
 5636SOL    HW222316   2.085   0.774   0.519 -1.5511 -0.1810 -0.6422
 5636SOL    HW322317   2.199   0.703   0.448  1.4920  2.9691  0.7942
 5636SOL    MW422318   2.117   0.733   0.449  0.3855  0.3002 -0.1032
 5637SOL     OW22319   6.141   2.890   0.257 -0.0633 -0.0185 -0.4519
 5637SOL    HW222320   6.205   2.867   0.325 -0.2787 -0.6175 -0.4420
 5637SOL    HW322321   6.130   2.984   0.265  0.6328  0.0573 -0.2886
 5637SOL    MW422322   6.148   2.899   0.267  0.0001 -0.0875 -0.4291
 5638SOL     OW22323   1.972   0.115   5.330  0.1908 -0.5428  0.0860
 5638SOL    HW222324   2.066   0.131   5.319  0.0023  0.4350 -0.2324
 5638SOL    HW322325   1.930   0.194   5.296 -0.8119 -1.5159 -1.0585
 5638SOL    MW422326   1.979   0.128   5.324  0.0336 -0.5422 -0.1070
 5639SOL     OW22327   5.653   5.602   2.432  0.3577 -0.1803  0.1063
 5639SOL    HW222328   5.712   5.591   2.357  2.5233  1.3068  1.4674
 5639SOL    HW322329   5.624   5.693   2.426 -0.7097 -0.5004  0.2394
 5639SOL    MW422330   5.657   5.613   2.421  0.5026 -0.0264  0.3034
 5640SOL     OW22331   2.298   5.553   1.189 -0.2164  0.0594  0.8380
 5640SOL    HW222332   2.364   5.622   1.187  1.6969 -1.4029  4.4922
 5640SOL    HW322333   2.319   5.498   1.114  1.7810  0.4513  1.0628
 5640SOL    MW422334   2.310   5.555   1.179  0.2996 -0.0818  1.3498
 5641SOL     OW22335   6.152   4.065   2.251 -0.0737 -0.3547 -0.0576
 5641SOL    HW222336   6.200   4.058   2.169  0.2063  0.9273 -0.0100
 5641SOL    HW322337   6.060   4.062   2.225  0.0045  0.7772 -0.4969
 5641SOL    MW422338   6.146   4.063   2.237 -0.0265 -0.0362 -0.1092
 5642SOL     OW22339   4.504   0.501   4.971 -0.0567 -0.0379  0.7711
 5642SOL    HW222340   4.482   0.414   4.938 -0.3407  0.9415 -1.9239
 5642SOL    HW322341   4.599   0.508   4.960 -0.3270  0.8510 -1.5959
 5642SOL    MW422342   4.513   0.490   4.965 -0.1299  0.2086  0.1032
 5643SOL     OW22343   3.710   3.776   0.096 -0.3061  0.4347  0.5383
 5643SOL    HW222344   3.782   3.831   0.126 -0.1178  0.1312  0.6372
 5643SOL    HW322345   3.663   3.831   0.033  1.1279 -0.0166 -1.0038
 5643SOL    MW422346   3.713   3.791   0.091 -0.0921  0.3352  0.3479
 5644SOL     OW22347   0.561   4.174   1.945 -0.6522  0.5503 -0.5061
 5644SOL    HW222348   0.488   4.149   2.002  1.1550  0.6434  2.0405
 5644SOL    HW322349   0.560   4.109   1.875 -1.9608 -0.6516  0.5567
 5644SOL    MW422350   0.551   4.162   1.944 -0.5864  0.4040 -0.0299
 5645SOL     OW22351   0.423   4.704   2.718  0.4725 -0.4712 -0.2103
 5645SOL    HW222352   0.404   4.797   2.705  1.4242 -0.2002  0.2159
 5645SOL    HW322353   0.339   4.660   2.706 -0.4835  0.6594  1.7117
 5645SOL    MW422354   0.409   4.710   2.715  0.4719 -0.2862  0.0995
 5646SOL     OW22355   1.259   3.961   2.420 -0.1652 -0.0344  0.2617
 5646SOL    HW222356   1.275   3.953   2.327 -0.0716 -0.3243  0.3045
 5646SOL    HW322357   1.317   3.897   2.461 -0.6645 -0.3591  0.4770
 5646SOL    MW422358   1.268   3.952   2.413 -0.2187 -0.1155  0.2958
 5647SOL     OW22359   0.771   3.087   1.471 -0.0562 -0.0395  0.1035
 5647SOL    HW222360   0.691   3.100   1.522  0.0962  1.6231 -0.0521
 5647SOL    HW322361   0.791   2.994   1.483 -1.6181 -0.3301  0.7088
 5647SOL    MW422362   0.763   3.076   1.480 -0.2421  0.1415  0.1628
 5648SOL     OW22363   2.260   6.435   4.480 -0.4655 -0.3323 -0.5089
 5648SOL    HW222364   2.253   6.483   4.562 -1.8585  1.1450 -1.4367
 5648SOL    HW322365   2.186   6.375   4.481 -2.0754  1.5314 -1.7744
 5648SOL    MW422366   2.250   6.433   4.491 -0.8617  0.1085 -0.7983
 5649SOL     OW22367   4.854   2.951   1.603 -0.0137  0.2089 -0.1256
 5649SOL    HW222368   4.913   2.925   1.533 -0.6986  0.7668 -0.9308
 5649SOL    HW322369   4.883   2.900   1.679 -0.6173 -2.0975 -1.3384
 5649SOL    MW422370   4.865   2.941   1.604 -0.1837 -0.0218 -0.3919
 5650SOL     OW22371   0.557   4.025   4.882  0.0909  0.1268 -0.0122
 5650SOL    HW222372   0.629   3.992   4.936  0.4160  2.7005  1.2796
 5650SOL    HW322373   0.587   4.013   4.792  0.8251 -1.5495  0.4252
 5650SOL    MW422374   0.570   4.019   4.877  0.2306  0.2452  0.2159
 5651SOL     OW22375   1.807   4.824   1.540  0.4659  0.0640  0.5097
 5651SOL    HW222376   1.796   4.889   1.609  1.3232  1.2441 -0.4330
 5651SOL    HW322377   1.723   4.778   1.537 -0.0093  0.8449  1.4714
 5651SOL    MW422378   1.794   4.826   1.549  0.5163  0.3227  0.5122
 5652SOL     OW22379   5.621   5.938   3.400 -0.2645 -0.1543 -0.1786
 5652SOL    HW222380   5.671   5.860   3.425  2.4824  2.1213  2.1090
 5652SOL    HW322381   5.543   5.935   3.455  0.2124 -0.8617  0.4802
 5652SOL    MW422382   5.618   5.927   3.410  0.1609  0.0526  0.2101
 5653SOL     OW22383   3.512   1.421   2.588 -0.5985 -0.1214 -0.9215
 5653SOL    HW222384   3.579   1.361   2.619 -0.0674  1.0391  0.2442
 5653SOL    HW322385   3.482   1.383   2.505 -0.4637 -2.0995 -0.1052
 5653SOL    MW422386   3.517   1.408   2.581 -0.5107 -0.2292 -0.6600
 5654SOL     OW22387   5.811   2.921   0.376  0.3064  0.5301 -0.2608
 5654SOL    HW222388   5.826   2.982   0.304 -0.4891  0.8942 -0.1290
 5654SOL    HW322389   5.767   2.973   0.443 -0.8160 -0.2905 -0.3285
 5654SOL    MW422390   5.808   2.936   0.375  0.0533  0.4699 -0.2523
 5655SOL     OW22391   2.782   0.601   0.122  0.3981  0.2408  0.2789
 5655SOL    HW222392   2.832   0.533   0.077  0.5791  0.7242 -0.2619
 5655SOL    HW322393   2.829   0.614   0.205 -0.1437 -0.9059  0.7941
 5655SOL    MW422394   2.795   0.594   0.127  0.3505  0.1533  0.2755
 5656SOL     OW22395   1.042   0.833   4.563  0.3085 -0.0909 -0.0379
 5656SOL    HW222396   1.016   0.741   4.568 -0.5077  0.1329  0.0671
 5656SOL    HW322397   1.128   0.836   4.605  0.7608 -0.9460 -0.8453
 5656SOL    MW422398   1.050   0.821   4.569  0.2605 -0.1742 -0.1306
 5657SOL     OW22399   0.126   3.816   4.664  0.1807  0.2166 -0.0673
 5657SOL    HW222400   0.097   3.737   4.618  1.2471  1.4729 -3.2193
 5657SOL    HW322401   0.093   3.806   4.753 -2.2507 -2.3799 -1.1057
 5657SOL    MW422402   0.118   3.804   4.669  0.0006  0.0398 -0.6202
 5658SOL     OW22403   6.389   2.866   0.776  0.0160 -0.3000 -0.0667
 5658SOL    HW222404   6.334   2.942   0.790  1.9441  1.0495  0.6689
 5658SOL    HW322405   6.357   2.826   0.695 -0.8046  1.5167 -0.6715
 5658SOL    MW422406   6.378   2.870   0.767  0.1621  0.1178 -0.0494
 5659SOL     OW22407   1.600   6.099   4.132  0.0287  0.0797 -0.0129
 5659SOL    HW222408   1.567   6.116   4.221  0.4294 -0.3546  0.2254
 5659SOL    HW322409   1.667   6.031   4.144  0.1683  0.1014 -0.6357
 5659SOL    MW422410   1.604   6.092   4.146  0.1000  0.0252 -0.0636
 5660SOL     OW22411   5.083   6.276   3.396  0.1244 -0.7435 -0.4057
 5660SOL    HW222412   5.061   6.245   3.308 -0.0333 -2.2183  0.1238
 5660SOL    HW322413   5.001   6.310   3.431  0.4874  1.1448 -1.3144
 5660SOL    MW422414   5.069   6.276   3.389  0.1515 -0.6889 -0.4557
 5661SOL     OW22415   0.401   2.121   4.485 -0.6778 -0.4411 -0.1020
 5661SOL    HW222416   0.346   2.183   4.533 -0.8735 -0.6018 -0.1144
 5661SOL    HW322417   0.481   2.169   4.467 -1.7131  0.6483 -2.1826
 5661SOL    MW422418   0.404   2.136   4.489 -0.8402 -0.3185 -0.3782
 5662SOL     OW22419   1.624   2.515   2.052  0.0424  0.6770 -0.1570
 5662SOL    HW222420   1.663   2.429   2.039 -1.0533 -0.2792  2.2179
 5662SOL    HW322421   1.574   2.532   1.971 -0.6942 -1.4825 -0.2097
 5662SOL    MW422422   1.623   2.506   2.039 -0.1993  0.2659  0.1494
 5663SOL     OW22423   1.916   5.456   4.088  0.6932  0.1783 -0.1956
 5663SOL    HW222424   1.924   5.457   4.184  2.0403  0.3644 -0.2958
 5663SOL    HW322425   1.965   5.378   4.061  0.7512  0.4100 -0.7683
 5663SOL    MW422426   1.924   5.446   4.097  0.8786  0.2334 -0.2844
 5664SOL     OW22427   5.081   5.882   2.216 -0.7380  0.2955 -0.6668
 5664SOL    HW222428   5.138   5.889   2.293 -0.0490 -0.2619 -1.1070
 5664SOL    HW322429   5.024   5.959   2.221  1.3586  1.9935 -1.2459
 5664SOL    MW422430   5.081   5.893   2.227 -0.3705  0.4460 -0.8013
 5665SOL     OW22431   1.732   4.140   3.200  0.2554 -0.5368  0.2665
 5665SOL    HW222432   1.799   4.208   3.201  0.6098 -0.8830  0.0830
 5665SOL    HW322433   1.676   4.163   3.126 -0.2285  0.1302  0.8261
 5665SOL    MW422434   1.733   4.152   3.190  0.2383 -0.4945  0.3161
 5666SOL     OW22435   0.382   2.595   0.325 -0.1519  0.1085  0.0079
 5666SOL    HW222436   0.430   2.598   0.408 -0.0453  0.5612 -0.0654
 5666SOL    HW322437   0.448   2.616   0.259 -0.2378 -0.2502 -0.1909
 5666SOL    MW422438   0.397   2.598   0.328 -0.1492  0.1209 -0.0280
 5667SOL     OW22439   0.529   2.757   0.066 -0.4030  0.1906 -0.0064
 5667SOL    HW222440   0.589   2.831   0.059  1.5596 -1.3712 -0.5516
 5667SOL    HW322441   0.448   2.788   0.024  0.2059  2.1409  0.1743
 5667SOL    MW422442   0.526   2.771   0.059 -0.0637  0.2418 -0.0545
 5668SOL     OW22443   1.776   3.032   3.118 -0.4654 -0.0933  0.9054
 5668SOL    HW222444   1.826   2.959   3.081  0.3114  0.7898  0.1853
 5668SOL    HW322445   1.766   3.009   3.210 -3.2357 -2.8028  0.1080
 5668SOL    MW422446   1.781   3.019   3.125 -0.7284 -0.3342  0.7052
 5669SOL     OW22447   5.732   6.337   3.904 -0.1120  0.5553 -0.1374
 5669SOL    HW222448   5.772   6.251   3.916 -0.3643  0.3226 -0.8669
 5669SOL    HW322449   5.752   6.385   3.984  3.4018  1.1649 -1.2034
 5669SOL    MW422450   5.740   6.332   3.916  0.3183  0.6050 -0.3743
 5670SOL     OW22451   2.175   2.949   0.829  0.2739 -0.3029 -1.0529
 5670SOL    HW222452   2.160   3.004   0.906 -1.3783  0.0931 -1.6043
 5670SOL    HW322453   2.270   2.948   0.817  0.7131 -1.5820  1.8279
 5670SOL    MW422454   2.185   2.956   0.837  0.1139 -0.4194 -0.7456
 5671SOL     OW22455   5.634   3.485   1.415  0.1921  0.1502  0.0579
 5671SOL    HW222456   5.704   3.516   1.472  1.4247 -0.3601 -1.1022
 5671SOL    HW322457   5.627   3.391   1.434 -1.1580  0.4378  1.1333
 5671SOL    MW422458   5.643   3.476   1.425  0.1766  0.1208  0.0467
 5672SOL     OW22459   6.129   3.119   1.117  0.8631  0.6403 -0.1055
 5672SOL    HW222460   6.055   3.176   1.135  0.7630  1.2402 -2.1145
 5672SOL    HW322461   6.140   3.066   1.196 -0.9006  1.4060  0.6852
 5672SOL    MW422462   6.121   3.119   1.130  0.6172  0.8205 -0.2662
 5673SOL     OW22463   4.650   2.698   2.746  0.1372  0.0440 -0.2902
 5673SOL    HW222464   4.612   2.720   2.831 -0.7324 -0.4881 -0.5257
 5673SOL    HW322465   4.655   2.781   2.699  1.5305  0.5070  0.6194
 5673SOL    MW422466   4.645   2.711   2.751  0.2063  0.0349 -0.2013
 5674SOL     OW22467   2.307   1.100   2.286  0.7688 -0.0342  0.1608
 5674SOL    HW222468   2.360   1.088   2.208  1.3699  1.7889  0.2491
 5674SOL    HW322469   2.219   1.119   2.253  0.7291 -0.5307 -0.0307
 5674SOL    MW422470   2.302   1.101   2.272  0.8428  0.1409  0.1472
 5675SOL     OW22471   6.118   6.175   5.583  0.1523 -0.0327 -0.3771
 5675SOL    HW222472   6.171   6.176   5.663  1.1191 -0.0992 -0.9988
 5675SOL    HW322473   6.050   6.110   5.600 -0.4313  0.8468  0.8617
 5675SOL    MW422474   6.116   6.167   5.596  0.2028  0.0745 -0.2956
 5676SOL     OW22475   5.149   1.780   1.718 -0.0356  0.1515 -0.2207
 5676SOL    HW222476   5.063   1.752   1.688 -1.7516  2.9806  1.5976
 5676SOL    HW322477   5.184   1.833   1.647  0.1757 -0.8765 -0.9002
 5676SOL    MW422478   5.142   1.784   1.705 -0.2341  0.3892 -0.0705
 5677SOL     OW22479   3.537   5.006   3.891 -0.1909  0.7810  0.2998
 5677SOL    HW222480   3.592   4.936   3.926 -3.2581 -0.6332  2.7230
 5677SOL    HW322481   3.524   5.065   3.966 -3.8994 -0.3064  0.6835
 5677SOL    MW422482   3.543   5.005   3.905 -1.0848  0.4509  0.6701
 5678SOL     OW22483   4.533   1.848   4.922  0.1737  0.5830  0.5120
 5678SOL    HW222484   4.545   1.812   5.009 -0.0113 -1.1428 -0.1407
 5678SOL    HW322485   4.541   1.773   4.863  2.0832  1.9364 -1.1163
 5678SOL    MW422486   4.536   1.834   4.926  0.4012  0.5339  0.2111
 5679SOL     OW22487   2.931   2.091   3.640 -0.0509 -0.2799  0.3551
 5679SOL    HW222488   3.005   2.094   3.580 -1.0055  0.1519 -0.8544
 5679SOL    HW322489   2.962   2.039   3.714  1.2470 -0.6175 -0.3928
 5679SOL    MW422490   2.945   2.085   3.642 -0.0056 -0.2675  0.0969
 5680SOL     OW22491   0.876   2.989   4.516  0.4961  0.2859 -0.3355
 5680SOL    HW222492   0.787   3.014   4.490  0.6116  0.7911 -0.2588
 5680SOL    HW322493   0.927   2.996   4.435  0.5202  0.2581 -0.3225
 5680SOL    MW422494   0.871   2.994   4.502  0.5145  0.3489 -0.3236
 5681SOL     OW22495   0.309   0.109   6.061 -0.5361  0.2403  0.3038
 5681SOL    HW222496   0.402   0.118   6.081  0.4137 -1.9351 -2.4932
 5681SOL    HW322497   0.269   0.082   6.143  1.5910 -0.2854  1.2223
 5681SOL    MW422498   0.316   0.107   6.074 -0.1301 -0.1160  0.0560
 5682SOL     OW22499   2.968   0.304   5.252  0.0063 -0.8272 -0.0119
 5682SOL    HW222500   2.993   0.226   5.203 -1.3781 -0.1849 -1.8806
 5682SOL    HW322501   2.998   0.288   5.341  1.0655 -2.8324 -0.6822
 5682SOL    MW422502   2.975   0.292   5.258 -0.0366 -1.0070 -0.3469
 5683SOL     OW22503   1.564   3.894   1.405  0.4111  0.2514  0.2068
 5683SOL    HW222504   1.557   3.855   1.492  1.9048 -0.3919  0.0644
 5683SOL    HW322505   1.602   3.981   1.420  0.1662  0.3536  0.2391
 5683SOL    MW422506   1.568   3.900   1.418  0.5758  0.1800  0.1923
 5684SOL     OW22507   5.971   4.681   1.183  0.0577 -0.1605  0.3751
 5684SOL    HW222508   5.935   4.674   1.271  0.1154 -0.7269  0.3562
 5684SOL    HW322509   6.029   4.757   1.187  0.7592 -0.7061  1.0821
 5684SOL    MW422510   5.974   4.690   1.195  0.1579 -0.3072  0.4659
 5685SOL     OW22511   5.122   3.138   4.953 -0.0895  0.0663 -0.0591
 5685SOL    HW222512   5.124   3.052   4.910  0.2230 -0.3542  0.7627
 5685SOL    HW322513   5.064   3.126   5.028 -0.6314  0.7901 -0.3530
 5685SOL    MW422514   5.115   3.125   4.957 -0.1198  0.1063  0.0106
 5686SOL     OW22515   0.768   0.953   1.304  0.3726 -1.0150 -0.2647
 5686SOL    HW222516   0.693   0.958   1.363 -1.4054 -0.1450 -2.4532
 5686SOL    HW322517   0.829   1.019   1.335 -0.1171 -1.1680  1.0652
 5686SOL    MW422518   0.766   0.962   1.316  0.0734 -0.9204 -0.3780
 5687SOL     OW22519   5.973   4.343   4.323 -0.3429  0.6462  0.2383
 5687SOL    HW222520   5.991   4.269   4.381  0.9837  0.9963  0.3058
 5687SOL    HW322521   5.936   4.303   4.244  1.4940 -0.2601 -0.2217
 5687SOL    MW422522   5.971   4.328   4.320  0.0745  0.5729  0.1865
 5688SOL     OW22523   4.944   1.863   4.965  0.1134 -0.1208 -0.2644
 5688SOL    HW222524   5.034   1.831   4.966  0.2821  0.3546 -0.0504
 5688SOL    HW322525   4.898   1.810   5.030  0.8703  1.4222  1.6155
 5688SOL    MW422526   4.950   1.852   4.974  0.2355  0.1455  0.0119
 5689SOL     OW22527   4.871   3.570   3.392 -0.9222  0.3188 -0.3666
 5689SOL    HW222528   4.932   3.627   3.440 -0.1735 -1.0057  0.3049
 5689SOL    HW322529   4.810   3.631   3.351 -0.2394  1.6077  0.4342
 5689SOL    MW422530   4.871   3.586   3.393 -0.7334  0.3141 -0.1723
 5690SOL     OW22531   4.131   4.476   1.502 -0.4761  0.3755 -0.7563
 5690SOL    HW222532   4.083   4.446   1.425  0.0325 -1.0881 -0.5458
 5690SOL    HW322533   4.063   4.498   1.565 -0.9606 -1.7415 -0.4326
 5690SOL    MW422534   4.116   4.475   1.500 -0.4729 -0.0969 -0.6859
 5691SOL     OW22535   5.508   2.183   4.306 -0.4823 -0.3863 -0.1269
 5691SOL    HW222536   5.493   2.278   4.311  0.5996 -0.1963 -0.2037
 5691SOL    HW322537   5.496   2.152   4.395  2.3321  0.3623  0.6168
 5691SOL    MW422538   5.505   2.192   4.318  0.0317 -0.2624 -0.0389
 5692SOL     OW22539   0.637   0.296   3.344  0.1207  0.1875  0.4337
 5692SOL    HW222540   0.720   0.339   3.323 -0.2684  1.6892  1.8143
 5692SOL    HW322541   0.626   0.308   3.439 -1.5715 -0.1749  0.3254
 5692SOL    MW422542   0.646   0.303   3.354 -0.1539  0.3378  0.6015
 5693SOL     OW22543   4.270   2.142   3.747  0.5643 -0.2859  0.5675
 5693SOL    HW222544   4.238   2.232   3.738 -0.2899 -0.5993  0.3684
 5693SOL    HW322545   4.319   2.141   3.829 -0.3696  0.0953  1.1465
 5693SOL    MW422546   4.272   2.154   3.756  0.3284 -0.2769  0.6177
 5694SOL     OW22547   2.915   4.010   1.351  0.2427 -0.2549  0.0643
 5694SOL    HW222548   2.978   3.973   1.413 -2.0463 -1.3346  1.8676
 5694SOL    HW322549   2.838   3.953   1.357 -1.7101  2.1387 -0.5473
 5694SOL    MW422550   2.913   3.997   1.360 -0.3169 -0.0816  0.2215
 5695SOL     OW22551   5.249   1.313   5.121  0.1324 -0.2661 -0.6044
 5695SOL    HW222552   5.258   1.218   5.127 -0.0206 -0.5456 -3.3991
 5695SOL    HW322553   5.328   1.347   5.163 -0.8057 -1.4580  2.3705
 5695SOL    MW422554   5.261   1.305   5.127 -0.0115 -0.4602 -0.5806
 5696SOL     OW22555   0.212   0.364   4.737 -0.0232 -0.0040 -0.1785
 5696SOL    HW222556   0.137   0.386   4.681  0.3943  0.4895 -0.5512
 5696SOL    HW322557   0.215   0.268   4.737 -0.0771 -0.0111 -0.9377
 5696SOL    MW422558   0.202   0.354   4.730  0.0247  0.0602 -0.3279
 5697SOL     OW22559   4.373   1.987   4.397  0.5852 -0.1907  0.3182
 5697SOL    HW222560   4.459   1.946   4.409  0.2479 -1.9049 -2.2617
 5697SOL    HW322561   4.393   2.075   4.366  1.3880 -0.1968  0.7848
 5697SOL    MW422562   4.387   1.993   4.395  0.6466 -0.4177  0.0394
 5698SOL     OW22563   4.442   2.397   1.114 -0.4208  0.2277 -0.6500
 5698SOL    HW222564   4.416   2.358   1.030  0.2754  0.6278 -1.0542
 5698SOL    HW322565   4.394   2.480   1.118 -0.9332 -0.0731 -0.3580
 5698SOL    MW422566   4.432   2.403   1.103 -0.3966  0.2408 -0.6648
 5699SOL     OW22567   1.437   2.353   2.231 -0.1075 -0.0820  0.4112
 5699SOL    HW222568   1.369   2.400   2.183  0.1961  1.4508  1.4092
 5699SOL    HW322569   1.498   2.323   2.164 -0.9838 -0.1741 -0.3587
 5699SOL    MW422570   1.436   2.355   2.216 -0.1831  0.1081  0.4413
 5700SOL     OW22571   4.622   4.720   4.367  0.0420 -0.7486  0.5574
 5700SOL    HW222572   4.536   4.702   4.404 -1.4464  0.4797 -2.0190
 5700SOL    HW322573   4.666   4.635   4.364 -1.2788 -1.4918  1.4187
 5700SOL    MW422574   4.617   4.707   4.371 -0.3286 -0.6846  0.3311
 5701SOL     OW22575   0.212   3.624   5.307  0.1921  0.0537 -0.2382
 5701SOL    HW222576   0.220   3.594   5.216  0.4337  0.0096 -0.2032
 5701SOL    HW322577   0.275   3.696   5.313  0.5414 -0.2768  0.0369
 5701SOL    MW422578   0.222   3.630   5.296  0.2700  0.0043 -0.1973
 5702SOL     OW22579   4.525   3.501   3.432 -0.4680  0.3253 -0.3909
 5702SOL    HW222580   4.482   3.432   3.483 -1.5352 -0.0818 -1.7785
 5702SOL    HW322581   4.594   3.455   3.384  0.4168  0.6771  0.5124
 5702SOL    MW422582   4.528   3.486   3.433 -0.4921  0.3180 -0.4548
 5703SOL     OW22583   3.724   0.177   3.344 -0.2479  0.1540 -0.3737
 5703SOL    HW222584   3.699   0.136   3.427  0.4861  1.1991  0.4056
 5703SOL    HW322585   3.670   0.256   3.339 -1.2332 -0.5609 -1.5669
 5703SOL    MW422586   3.714   0.182   3.355 -0.2810  0.1975 -0.4283
 5704SOL     OW22587   5.972   0.915   1.792  0.2083 -0.3399 -0.2447
 5704SOL    HW222588   6.061   0.903   1.827  0.7963 -0.8038 -1.8380
 5704SOL    HW322589   5.926   0.834   1.815 -0.0048  0.1253  1.0720
 5704SOL    MW422590   5.978   0.902   1.800  0.2577 -0.3397 -0.2812
 5705SOL     OW22591   3.099   1.383   2.334 -0.3941  0.3664  0.2551
 5705SOL    HW222592   3.190   1.354   2.342  0.1450  1.3622 -1.6401
 5705SOL    HW322593   3.089   1.449   2.403  0.8130  1.2906 -0.4004
 5705SOL    MW422594   3.110   1.388   2.344 -0.1637  0.6197 -0.0814
 5706SOL     OW22595   2.314   3.538   4.612  0.2178 -0.2851 -0.0512
 5706SOL    HW222596   2.296   3.503   4.699 -0.6780 -0.3942 -0.2717
 5706SOL    HW322597   2.287   3.468   4.552 -0.4977  0.3230 -0.4569
 5706SOL    MW422598   2.308   3.524   4.616  0.0052 -0.2193 -0.1338
 5707SOL     OW22599   2.032   1.351   2.379 -0.0609 -0.2536  0.0375
 5707SOL    HW222600   2.044   1.436   2.422 -0.6779  0.3474 -0.9491
 5707SOL    HW322601   2.083   1.290   2.433  0.2366  0.7006  0.8714
 5707SOL    MW422602   2.041   1.354   2.392 -0.1031 -0.0484  0.0173
 5708SOL     OW22603   2.250   2.420   5.121 -0.1593  0.4643  0.0121
 5708SOL    HW222604   2.310   2.451   5.189 -0.1184  0.5307 -0.0539
 5708SOL    HW322605   2.165   2.415   5.165  0.3271 -2.1036  0.8490
 5708SOL    MW422606   2.246   2.424   5.136 -0.0897  0.1342  0.1138
 5709SOL     OW22607   6.060   4.575   2.962 -0.0504  0.6622 -0.0976
 5709SOL    HW222608   6.011   4.597   2.883 -0.8486  0.6859  0.3862
 5709SOL    HW322609   6.020   4.629   3.030 -0.8683 -0.9602  0.7684
 5709SOL    MW422610   6.048   4.585   2.961 -0.2637  0.4513  0.0805
 5710SOL     OW22611   2.618   2.301   1.820  0.6168  0.7758 -0.4288
 5710SOL    HW222612   2.675   2.378   1.829 -0.4301  1.4261  0.9937
 5710SOL    HW322613   2.668   2.241   1.766  2.4874  1.4993  0.4077
 5710SOL    MW422614   2.632   2.304   1.814  0.7255  0.9571 -0.1308
 5711SOL     OW22615   2.986   0.619   1.282 -0.3435 -0.0485  1.2482
 5711SOL    HW222616   3.026   0.585   1.202 -1.0045 -1.1850  1.3849
 5711SOL    HW322617   3.043   0.587   1.352  1.1695  2.2968  1.1816
 5711SOL    MW422618   2.999   0.610   1.281 -0.2311  0.1109  1.2575
 5712SOL     OW22619   0.813   2.985   0.734 -0.0537 -0.0716 -0.5891
 5712SOL    HW222620   0.836   3.005   0.825 -0.8048 -0.9249 -0.2056
 5712SOL    HW322621   0.746   3.050   0.712 -0.1335 -0.0933 -0.4141
 5712SOL    MW422622   0.808   2.996   0.743 -0.1633 -0.1870 -0.5154
 5713SOL     OW22623   1.448   5.553   0.844  0.1761  0.1448 -0.2720
 5713SOL    HW222624   1.451   5.485   0.911  0.5271  0.0492 -0.3857
 5713SOL    HW322625   1.377   5.611   0.873 -1.4907 -1.3265 -1.2039
 5713SOL    MW422626   1.439   5.552   0.857  0.0025 -0.0619 -0.4100
 5714SOL     OW22627   6.268   4.825   0.350 -0.2162 -0.3095  0.0357
 5714SOL    HW222628   6.296   4.734   0.346  1.5855  0.2261 -0.6835
 5714SOL    HW322629   6.280   4.858   0.261 -1.6904  0.4186  0.0723
 5714SOL    MW422630   6.273   4.817   0.338 -0.1730 -0.1428 -0.0544
 5715SOL     OW22631   3.080   0.109   3.271 -0.2894 -0.1419  0.1485
 5715SOL    HW222632   3.077   0.071   3.359  0.8590 -0.0282  0.2449
 5715SOL    HW322633   3.060   0.035   3.213 -1.5483 -0.1148  0.5053
 5715SOL    MW422634   3.077   0.094   3.275 -0.3040 -0.1233  0.2083
 5716SOL     OW22635   6.151   5.879   3.896 -0.1416  0.6310 -0.2388
 5716SOL    HW222636   6.108   5.953   3.853  0.3494  1.7916  1.1870
 5716SOL    HW322637   6.154   5.903   3.989  2.1645 -0.1037 -0.0663
 5716SOL    MW422638   6.145   5.892   3.903  0.2275  0.6872 -0.0279
 5717SOL     OW22639   5.764   6.355   4.634 -0.2981 -0.4742 -0.2107
 5717SOL    HW222640   5.684   6.302   4.633  0.5291 -1.7652 -0.9101
 5717SOL    HW322641   5.779   6.373   4.727 -2.0075  0.7881 -0.1338
 5717SOL    MW422642   5.756   6.350   4.646 -0.4145 -0.4780 -0.2928
 5718SOL     OW22643   3.216   6.229   3.872  0.2501  1.0784 -0.2566
 5718SOL    HW222644   3.277   6.295   3.840 -0.2793  1.2603 -0.9286
 5718SOL    HW322645   3.230   6.226   3.966 -1.7698  4.3125  0.3112
 5718SOL    MW422646   3.226   6.237   3.880 -0.0863  1.5291 -0.2703
 5719SOL     OW22647   5.403   0.331   0.845  0.2326 -0.4165  0.8722
 5719SOL    HW222648   5.316   0.339   0.886 -0.3226 -0.6990 -0.2189
 5719SOL    HW322649   5.389   0.270   0.772  0.9909  0.7552 -0.2804
 5719SOL    MW422650   5.389   0.324   0.841  0.2594 -0.2992  0.5762
 5720SOL     OW22651   4.239   0.796   3.318  0.2769  0.1030 -0.7433
 5720SOL    HW222652   4.175   0.728   3.299  0.8586 -0.6473 -0.0455
 5720SOL    HW322653   4.301   0.793   3.245  0.9744 -0.9365 -0.1286
 5720SOL    MW422654   4.239   0.787   3.306  0.4457 -0.1332 -0.5701
 5721SOL     OW22655   1.057   4.849   0.259 -0.8258  0.0174  0.3098
 5721SOL    HW222656   1.110   4.856   0.180 -0.1634  1.2230  0.8318
 5721SOL    HW322657   0.966   4.852   0.227 -0.7264  5.0166 -0.2750
 5721SOL    MW422658   1.052   4.850   0.245 -0.7253  0.8360  0.3015
 5722SOL     OW22659   3.034   5.140   2.211 -0.6168 -0.4100  0.0792
 5722SOL    HW222660   3.073   5.227   2.201  0.1738 -0.6339  1.0484
 5722SOL    HW322661   3.108   5.080   2.212 -0.8684 -0.8100  2.4029
 5722SOL    MW422662   3.049   5.143   2.210 -0.5457 -0.4923  0.5136
 5723SOL     OW22663   1.683   1.446   5.431  0.0024  0.6734  0.5095
 5723SOL    HW222664   1.695   1.375   5.494 -0.2492 -0.3953 -0.5892
 5723SOL    HW322665   1.692   1.526   5.482  0.9843 -0.1391  1.6734
 5723SOL    MW422666   1.686   1.447   5.446  0.0987  0.4252  0.5181
 5724SOL     OW22667   0.974   5.363   5.594  0.2942 -0.4528 -0.0954
 5724SOL    HW222668   1.001   5.383   5.504  1.0947  2.5357  0.7020
 5724SOL    HW322669   1.053   5.332   5.637  0.7045  1.0666  0.3076
 5724SOL    MW422670   0.988   5.361   5.588  0.4540  0.1420  0.0630
 5725SOL     OW22671   1.586   1.774   5.992  0.2233 -0.2780  0.1162
 5725SOL    HW222672   1.540   1.844   6.037 -0.6498 -0.7889  0.0448
 5725SOL    HW322673   1.533   1.695   6.008  1.0365 -0.8684 -0.0256
 5725SOL    MW422674   1.573   1.773   6.000  0.2154 -0.4233  0.0881
 5726SOL     OW22675   4.683   1.449   0.437 -0.9011  0.2548 -0.1071
 5726SOL    HW222676   4.749   1.459   0.506  0.0849  2.1488 -1.2487
 5726SOL    HW322677   4.633   1.531   0.439 -2.3360 -0.5923 -0.1791
 5726SOL    MW422678   4.686   1.461   0.447 -0.9603  0.3929 -0.2672
 5727SOL     OW22679   4.445   4.162   0.597 -0.1362  0.1734 -0.3055
 5727SOL    HW222680   4.507   4.100   0.559  0.8462  0.9643 -0.0624
 5727SOL    HW322681   4.361   4.138   0.560  0.2107 -1.2998 -0.2047
 5727SOL    MW422682   4.442   4.151   0.587  0.0392  0.0834 -0.2601
 5728SOL     OW22683   2.785   5.854   1.839  0.6178  0.0018  0.0194
 5728SOL    HW222684   2.793   5.823   1.930  1.1605 -1.1283 -0.3916
 5728SOL    HW322685   2.777   5.774   1.788 -0.5223  0.6574 -0.8695
 5728SOL    MW422686   2.785   5.839   1.845  0.5390 -0.0608 -0.1521
 5729SOL     OW22687   2.451   0.405   4.285  0.0506 -0.6722 -0.4546
 5729SOL    HW222688   2.366   0.361   4.296 -1.0478  1.3732 -0.2944
 5729SOL    HW322689   2.501   0.345   4.230 -0.6948 -2.9410  1.1622
 5729SOL    MW422690   2.446   0.391   4.279 -0.1927 -0.7017 -0.2202
 5730SOL     OW22691   5.032   0.597   0.750  0.2272  0.0411  0.6086
 5730SOL    HW222692   5.113   0.595   0.698  0.6467  0.2052  1.2506
 5730SOL    HW322693   5.058   0.634   0.834  0.2024 -2.8997  2.0539
 5730SOL    MW422694   5.047   0.601   0.754  0.2793 -0.3252  0.8840
 5731SOL     OW22695   3.382   1.218   0.753  0.0920  0.1046  0.1086
 5731SOL    HW222696   3.412   1.195   0.665 -0.9459  0.8268 -0.4673
 5731SOL    HW322697   3.340   1.303   0.742 -1.4072 -0.4784  0.9878
 5731SOL    MW422698   3.380   1.226   0.740 -0.2427  0.1229  0.1486
 5732SOL     OW22699   4.939   2.137   1.812 -0.4692 -0.0830 -0.0874
 5732SOL    HW222700   4.902   2.224   1.828  0.7721  0.5058 -0.3439
 5732SOL    HW322701   4.877   2.096   1.752 -0.2384  1.2576 -1.3018
 5732SOL    MW422702   4.926   2.143   1.806 -0.2750  0.1716 -0.2814
 5733SOL     OW22703   0.204   5.055   3.418  0.0996  0.0045 -0.4962
 5733SOL    HW222704   0.161   5.039   3.334 -0.3620  1.5533 -0.5911
 5733SOL    HW322705   0.148   5.118   3.462 -0.3034 -1.6775  1.5255
 5733SOL    MW422706   0.191   5.061   3.413 -0.0145 -0.0131 -0.2420
 5734SOL     OW22707   0.181   3.599   2.440 -0.1482  0.0593 -0.2555
 5734SOL    HW222708   0.235   3.533   2.397  0.1066  0.4612 -0.5609
 5734SOL    HW322709   0.242   3.649   2.493 -0.3771 -0.0939  0.1579
 5734SOL    MW422710   0.196   3.597   2.441 -0.1448  0.0921 -0.2413
 5735SOL     OW22711   2.456   6.163   0.696  0.6803 -0.0687  0.1542
 5735SOL    HW222712   2.480   6.095   0.634 -1.4271 -0.6620 -0.0789
 5735SOL    HW322713   2.430   6.116   0.775 -2.3818  0.2899 -0.5504
 5735SOL    MW422714   2.456   6.148   0.698 -0.0018 -0.0997  0.0305
 5736SOL     OW22715   4.854   4.663   2.732 -0.4077  0.1448  0.0168
 5736SOL    HW222716   4.909   4.632   2.803  0.4526 -0.4489 -0.8835
 5736SOL    HW322717   4.908   4.726   2.685 -0.6463 -0.0976 -0.5997
 5736SOL    MW422718   4.868   4.667   2.735 -0.3257  0.0345 -0.1833
 5737SOL     OW22719   3.803   5.900   1.272 -0.0544  0.0410 -0.1639
 5737SOL    HW222720   3.842   5.896   1.184 -1.4151 -0.5264 -0.7912
 5737SOL    HW322721   3.877   5.907   1.331  0.8936  0.7801 -1.3795
 5737SOL    MW422722   3.818   5.900   1.268 -0.1088  0.0637 -0.4071
 5738SOL     OW22723   3.899   3.761   5.287  0.3991 -0.0852  0.0765
 5738SOL    HW222724   3.840   3.836   5.281  1.0449  0.4310  0.0333
 5738SOL    HW322725   3.987   3.798   5.275  0.7404 -0.8251  0.2008
 5738SOL    MW422726   3.903   3.776   5.285  0.5294 -0.1147  0.0872
 5739SOL     OW22727   2.638   3.602   1.402 -0.4119  0.1836  0.1028
 5739SOL    HW222728   2.681   3.686   1.414 -0.3371  0.0128  1.1510
 5739SOL    HW322729   2.547   3.618   1.428 -0.6370  0.1790 -0.6598
 5739SOL    MW422730   2.631   3.615   1.407 -0.4317  0.1604  0.1405
 5740SOL     OW22731   4.178   2.828   5.601 -0.0110  0.0416  0.3312
 5740SOL    HW222732   4.227   2.747   5.585 -1.9354 -1.2491  0.6310
 5740SOL    HW322733   4.142   2.852   5.516 -0.5949 -0.2256  0.4967
 5740SOL    MW422734   4.180   2.820   5.588 -0.3420 -0.1639  0.3926
 5741SOL     OW22735   2.175   4.909   3.570  0.2613  0.1756 -0.1160
 5741SOL    HW222736   2.226   4.832   3.596  1.1968  1.0638  0.7814
 5741SOL    HW322737   2.102   4.911   3.631  0.0279 -0.1931 -0.3752
 5741SOL    MW422738   2.172   4.899   3.581  0.3540  0.2441 -0.0318
 5742SOL     OW22739   5.860   0.866   0.142 -0.0234 -0.1353  0.0983
 5742SOL    HW222740   5.919   0.848   0.069  0.6004  3.6536 -0.5041
 5742SOL    HW322741   5.773   0.869   0.102 -0.1709 -1.6763  0.2467
 5742SOL    MW422742   5.856   0.864   0.127  0.0394  0.1613  0.0384
 5743SOL     OW22743   3.190   6.464   2.628 -0.1117  0.3459  0.5007
 5743SOL    HW222744   3.136   6.535   2.664  0.0304  1.9400 -2.1639
 5743SOL    HW322745   3.240   6.506   2.558  1.3708 -2.0447  0.0309
 5743SOL    MW422746   3.189   6.479   2.624  0.1026  0.2408  0.0872
 5744SOL     OW22747   4.842   2.880   5.944 -0.2575  0.0653 -0.0631
 5744SOL    HW222748   4.828   2.841   6.030 -1.6896 -0.4455 -0.5107
 5744SOL    HW322749   4.759   2.921   5.922  0.2363  0.5905 -1.0156
 5744SOL    MW422750   4.829   2.880   5.952 -0.3813  0.0672 -0.2479
 5745SOL     OW22751   3.143   3.986   2.554  0.2840  0.3220 -0.4968
 5745SOL    HW222752   3.104   3.940   2.628  0.6479  0.6898 -0.0739
 5745SOL    HW322753   3.234   3.954   2.552 -0.1605 -0.9933 -1.8413
 5745SOL    MW422754   3.150   3.976   2.563  0.2734  0.1970 -0.6184
 5746SOL     OW22755   2.831   2.627   4.923 -0.2992  0.4493 -0.0751
 5746SOL    HW222756   2.746   2.662   4.950 -1.0823 -1.5287  0.2086
 5746SOL    HW322757   2.825   2.623   4.827 -1.2543 -1.2816  0.0181
 5746SOL    MW422758   2.819   2.631   4.914 -0.5286 -0.0400 -0.0253
 5747SOL     OW22759   5.823   1.825   0.924  0.1591  0.0402 -0.5605
 5747SOL    HW222760   5.832   1.809   1.018 -2.0608  1.3575 -0.0579
 5747SOL    HW322761   5.912   1.846   0.894  1.6154 -3.8489  0.4470
 5747SOL    MW422762   5.836   1.825   0.932  0.0584 -0.2991 -0.3613
 5748SOL     OW22763   5.792   0.939   3.447 -0.2940  0.1564 -0.0246
 5748SOL    HW222764   5.758   1.019   3.408 -1.2845  1.0948  2.5584
 5748SOL    HW322765   5.881   0.960   3.474  0.5754 -0.6469 -2.0277
 5748SOL    MW422766   5.799   0.952   3.445 -0.3100  0.1742  0.0519
 5749SOL     OW22767   2.453   5.965   5.186  0.2458 -0.0189  0.1673
 5749SOL    HW222768   2.388   5.913   5.139 -0.7076  2.3556 -1.3741
 5749SOL    HW322769   2.405   6.003   5.260 -0.3616  2.0317 -1.1803
 5749SOL    MW422770   2.438   5.963   5.189  0.0399  0.5649 -0.2139
 5750SOL     OW22771   3.753   3.607   2.435 -0.3248 -0.1513  0.5523
 5750SOL    HW222772   3.749   3.663   2.357  2.1738 -0.4736  0.1161
 5750SOL    HW322773   3.677   3.549   2.427 -1.6113  1.5611 -0.2250
 5750SOL    MW422774   3.742   3.607   2.424 -0.1649  0.0321  0.3922
 5751SOL     OW22775   3.127   1.693   2.989 -0.3810 -0.1833 -0.1730
 5751SOL    HW222776   3.149   1.782   2.963  2.6217 -0.6107  0.5726
 5751SOL    HW322777   3.076   1.704   3.069 -0.9719  0.8669 -0.6674
 5751SOL    MW422778   3.123   1.706   2.996 -0.0628 -0.1011 -0.1399
 5752SOL     OW22779   1.791   3.299   5.984 -0.2735 -0.5592  0.6025
 5752SOL    HW222780   1.856   3.242   6.025  1.2031 -0.1098 -0.9777
 5752SOL    HW322781   1.721   3.239   5.958 -0.1279 -1.1927  1.6224
 5752SOL    MW422782   1.791   3.283   5.986 -0.0595 -0.5835  0.5285
 5753SOL     OW22783   1.339   3.058   4.747 -0.7080  0.4986 -0.1525
 5753SOL    HW222784   1.321   3.002   4.822  0.9743  0.2403  0.1032
 5753SOL    HW322785   1.253   3.085   4.715 -1.4685  0.7589  1.9683
 5753SOL    MW422786   1.326   3.054   4.753 -0.5864  0.4988  0.1610
 5754SOL     OW22787   2.866   2.901   2.294  0.3386 -0.1834  0.5399
 5754SOL    HW222788   2.878   2.930   2.203 -1.0890  2.1743  1.0013
 5754SOL    HW322789   2.902   2.812   2.296  0.2855 -0.3726 -2.3507
 5754SOL    MW422790   2.872   2.893   2.282  0.1433  0.1027  0.2194
 5755SOL     OW22791   6.408   1.088   3.697  0.9486  0.5216 -0.1135
 5755SOL    HW222792   6.324   1.130   3.714  0.4300 -0.1555 -0.9402
 5755SOL    HW322793   6.466   1.160   3.673  0.4385  0.9279 -0.1420
 5755SOL    MW422794   6.405   1.103   3.696  0.8129  0.4859 -0.2264
 5756SOL     OW22795   4.268   1.887   4.966 -0.6546  0.5639  0.3247
 5756SOL    HW222796   4.363   1.878   4.973 -0.5406  1.0111 -0.5831
 5756SOL    HW322797   4.237   1.800   4.938 -0.4447  0.6094 -0.0443
 5756SOL    MW422798   4.276   1.874   4.963 -0.6119  0.6289  0.1563
 5757SOL     OW22799   5.130   0.616   3.291 -0.3595 -0.3711 -0.0024
 5757SOL    HW222800   5.100   0.535   3.251 -0.2945  0.1994 -1.2660
 5757SOL    HW322801   5.199   0.590   3.352 -1.7524 -1.4665  1.2055
 5757SOL    MW422802   5.135   0.602   3.294 -0.5347 -0.4404 -0.0097
 5758SOL     OW22803   4.301   5.844   4.620  0.8384 -0.4682  0.1936
 5758SOL    HW222804   4.316   5.751   4.634  1.5091 -0.1735  1.6629
 5758SOL    HW322805   4.378   5.873   4.571  0.1664 -0.8518 -1.1168
 5758SOL    MW422806   4.313   5.836   4.616  0.8382 -0.4799  0.2146
 5759SOL     OW22807   3.287   1.143   1.757  0.0071 -0.3475 -0.2327
 5759SOL    HW222808   3.228   1.176   1.824  0.1238 -0.3029 -0.1521
 5759SOL    HW322809   3.328   1.221   1.720  0.3609 -0.4074  0.0292
 5759SOL    MW422810   3.284   1.158   1.761  0.0692 -0.3495 -0.1875
 5760SOL     OW22811   4.736   5.200   5.649  0.4604  0.1702 -0.1463
 5760SOL    HW222812   4.684   5.244   5.717 -2.0232 -0.4306 -1.5310
 5760SOL    HW322813   4.752   5.113   5.685  1.9957  0.8550  0.9570
 5760SOL    MW422814   4.731   5.194   5.663  0.3353  0.1813 -0.1834
 5761SOL     OW22815   0.368   4.115   6.153 -0.5712  0.0105  0.3254
 5761SOL    HW222816   0.313   4.046   6.190 -1.1599  0.4975  0.3676
 5761SOL    HW322817   0.345   4.194   6.202 -1.1911  0.6126 -0.8887
 5761SOL    MW422818   0.358   4.116   6.164 -0.7307  0.1542  0.1708
 5762SOL     OW22819   0.387   4.279   3.283  0.0030 -0.3425 -0.1459
 5762SOL    HW222820   0.317   4.236   3.233 -0.0643  0.8988 -1.1405
 5762SOL    HW322821   0.468   4.255   3.237  0.1794 -1.0840  0.5180
 5762SOL    MW422822   0.388   4.270   3.271  0.0174 -0.2766 -0.1895
 5763SOL     OW22823   3.209   2.003   5.261 -0.3747 -0.0043  0.2258
 5763SOL    HW222824   3.284   2.061   5.271 -1.2386  1.1712  0.0913
 5763SOL    HW322825   3.248   1.916   5.248  0.9345  0.3981  1.2096
 5763SOL    MW422826   3.224   1.999   5.261 -0.3159  0.2039  0.3378
 5764SOL     OW22827   5.389   2.176   0.427 -0.0474  0.6237  0.3022
 5764SOL    HW222828   5.305   2.166   0.381 -0.3691 -0.0267  1.0046
 5764SOL    HW322829   5.443   2.105   0.392 -0.1650  0.3631  0.6447
 5764SOL    MW422830   5.385   2.165   0.416 -0.1054  0.5035  0.4401
 5765SOL     OW22831   0.934   2.137   2.667  0.7998 -0.1332 -0.0317
 5765SOL    HW222832   1.006   2.197   2.689  0.4984 -0.1650  1.1413
 5765SOL    HW322833   0.917   2.089   2.748 -1.5410  0.9504  0.2155
 5765SOL    MW422834   0.941   2.139   2.681  0.4512  0.0056  0.1556
 5766SOL     OW22835   1.134   0.965   4.299 -0.1604 -0.2684  0.1690
 5766SOL    HW222836   1.213   0.911   4.290 -0.9611 -1.5162  0.3948
 5766SOL    HW322837   1.089   0.930   4.376 -0.7928  0.6178  0.2222
 5766SOL    MW422838   1.138   0.953   4.308 -0.3495 -0.3161  0.2058
 5767SOL     OW22839   0.116   5.093   2.011 -0.4745 -0.9852  0.1801
 5767SOL    HW222840   0.114   5.177   1.965 -0.7794 -2.1047 -2.0016
 5767SOL    HW322841   0.186   5.103   2.075  0.6090  0.4169 -1.1236
 5767SOL    MW422842   0.125   5.105   2.013 -0.3718 -0.9479 -0.2798
 5768SOL     OW22843   1.447   5.349   6.084  0.6004  0.0381 -0.1496
 5768SOL    HW222844   1.439   5.318   6.174  0.0577 -1.8433 -0.7760
 5768SOL    HW322845   1.504   5.284   6.042  0.4911  0.6338 -1.2484
 5768SOL    MW422846   1.453   5.336   6.090  0.5144 -0.1315 -0.3772
 5769SOL     OW22847   5.217   2.398   3.570 -0.3140  0.0766 -0.2060
 5769SOL    HW222848   5.254   2.484   3.588 -0.8495  0.1879  0.4259
 5769SOL    HW322849   5.259   2.339   3.633  1.2024 -0.4466 -1.6546
 5769SOL    MW422850   5.227   2.401   3.581 -0.1845  0.0223 -0.3137
 5770SOL     OW22851   0.939   5.100   0.728  0.3285 -0.4671 -0.3076
 5770SOL    HW222852   1.028   5.131   0.708  0.5671 -0.5091  0.6424
 5770SOL    HW322853   0.909   5.062   0.645 -0.0443  2.3578 -1.6029
 5770SOL    MW422854   0.947   5.099   0.714  0.3108 -0.1000 -0.3532
 5771SOL     OW22855   3.105   1.651   1.158  0.5666 -0.2868 -0.5112
 5771SOL    HW222856   3.025   1.622   1.113 -0.3981 -0.4101  1.2217
 5771SOL    HW322857   3.173   1.591   1.126 -0.6484 -2.1452  0.1998
 5771SOL    MW422858   3.103   1.639   1.148  0.2790 -0.5483 -0.1887
 5772SOL     OW22859   2.986   3.901   0.821  0.2071 -0.4743  0.1648
 5772SOL    HW222860   3.028   3.965   0.763  0.2059 -0.8504 -0.2621
 5772SOL    HW322861   3.002   3.934   0.909  0.6386 -0.1509 -0.0301
 5772SOL    MW422862   2.993   3.914   0.825  0.2639 -0.4813  0.0828
 5773SOL     OW22863   4.204   0.909   5.493 -0.5181 -0.0670 -0.2646
 5773SOL    HW222864   4.121   0.869   5.516 -2.0652  3.1787  0.3915
 5773SOL    HW322865   4.240   0.940   5.576 -0.5475  1.8208 -0.9055
 5773SOL    MW422866   4.198   0.908   5.507 -0.7261  0.6103 -0.2626
 5774SOL     OW22867   2.628   0.149   0.404 -0.1164  0.4472 -0.0042
 5774SOL    HW222868   2.672   0.140   0.489  0.9292 -3.6245 -0.7241
 5774SOL    HW322869   2.559   0.082   0.406  0.4513 -0.3230 -2.5837
 5774SOL    MW422870   2.625   0.139   0.416  0.0965 -0.1916 -0.4395
 5775SOL     OW22871   2.655   4.668   0.384 -0.1896 -0.5504 -0.1278
 5775SOL    HW222872   2.704   4.604   0.434  0.6303  0.6285  0.6165
 5775SOL    HW322873   2.710   4.687   0.307  0.9227  1.2735  1.0457
 5775SOL    MW422874   2.668   4.662   0.380  0.0654 -0.1542  0.1252
 5776SOL     OW22875   0.778   1.797   4.584  0.3176  0.7357  1.0497
 5776SOL    HW222876   0.701   1.830   4.630 -0.2957 -1.1701  1.5166
 5776SOL    HW322877   0.772   1.702   4.595  1.7181  0.4265 -0.5422
 5776SOL    MW422878   0.767   1.789   4.592  0.4215  0.4434  0.9012
 5777SOL     OW22879   4.584   1.399   3.227 -0.4510 -0.1913  0.0900
 5777SOL    HW222880   4.551   1.390   3.138 -2.9222  0.1354  0.8825
 5777SOL    HW322881   4.575   1.493   3.246 -0.9503 -0.4144  1.0103
 5777SOL    MW422882   4.578   1.410   3.218 -0.8429 -0.1776  0.3160
 5778SOL     OW22883   3.135   1.285   1.018 -0.4294  0.3402 -0.4696
 5778SOL    HW222884   3.163   1.195   1.006 -1.8574 -0.2417  0.4355
 5778SOL    HW322885   3.062   1.297   0.957 -0.0765  0.9791 -0.7843
 5778SOL    MW422886   3.129   1.275   1.008 -0.5712  0.3477 -0.3917
 5779SOL     OW22887   5.625   0.340   3.442 -0.3300 -0.1927  0.1666
 5779SOL    HW222888   5.698   0.363   3.385 -0.6305  1.7141  0.4981
 5779SOL    HW322889   5.588   0.261   3.403 -0.7006  1.1888 -2.4905
 5779SOL    MW422890   5.629   0.332   3.430 -0.4185  0.2412 -0.1403
 5780SOL     OW22891   5.411   5.843   0.911 -0.5943  1.0003  1.0136
 5780SOL    HW222892   5.457   5.769   0.950 -1.1545  0.8143  1.3288
 5780SOL    HW322893   5.474   5.880   0.849 -0.4821 -0.0480  0.4787
 5780SOL    MW422894   5.425   5.838   0.908 -0.6534  0.8374  0.9846
 5781SOL     OW22895   3.591   6.309   1.835 -0.6000  0.3089  0.6882
 5781SOL    HW222896   3.598   6.214   1.831  1.1646  0.4049  0.3686
 5781SOL    HW322897   3.643   6.334   1.911  1.8464  1.1507 -1.0986
 5781SOL    MW422898   3.599   6.300   1.844 -0.0444  0.4326  0.4103
 5782SOL     OW22899   0.929   3.601   5.742  0.3981 -0.2172  0.5528
 5782SOL    HW222900   0.874   3.612   5.664  0.0185 -1.3213  0.6526
 5782SOL    HW322901   0.921   3.685   5.788  0.5549  0.4177 -0.5399
 5782SOL    MW422902   0.921   3.614   5.738  0.3687 -0.2791  0.4218
 5783SOL     OW22903   1.286   4.040   1.807 -0.3619 -0.0710 -0.4961
 5783SOL    HW222904   1.293   3.949   1.834  1.1255 -0.2786 -1.4612
 5783SOL    HW322905   1.370   4.079   1.831 -1.3755  1.3761  0.9458
 5783SOL    MW422906   1.298   4.033   1.814 -0.2994  0.0925 -0.4332
 5784SOL     OW22907   1.312   5.371   5.163 -0.3020  1.0126 -0.3954
 5784SOL    HW222908   1.261   5.359   5.083 -0.5028  1.5960 -0.3605
 5784SOL    HW322909   1.381   5.432   5.138 -1.4941  2.7293  0.3397
 5784SOL    MW422910   1.315   5.377   5.149 -0.4858  1.3161 -0.2938
 5785SOL     OW22911   2.411   5.668   6.333  0.3371 -0.1232  0.5766
 5785SOL    HW222912   2.467   5.606   6.286 -1.5632 -1.6232  0.2096
 5785SOL    HW322913   2.430   5.752   6.292  0.0564 -1.0994 -1.7135
 5785SOL    MW422914   2.421   5.671   6.322  0.0494 -0.4499  0.2261
 5786SOL     OW22915   4.945   2.426   4.787  0.1227  0.0631  0.0407
 5786SOL    HW222916   4.920   2.402   4.698  0.3001 -2.1693  0.5136
 5786SOL    HW322917   5.018   2.486   4.777 -0.5126  0.6439 -1.3082
 5786SOL    MW422918   4.951   2.431   4.774  0.0623 -0.1548 -0.0749
 5787SOL     OW22919   4.786   5.132   2.709  0.0221  0.0641 -0.4143
 5787SOL    HW222920   4.719   5.064   2.713 -1.8528  1.7858 -1.0444
 5787SOL    HW322921   4.833   5.114   2.628  1.9451 -2.4999  1.1219
 5787SOL    MW422922   4.783   5.121   2.699  0.0284 -0.0470 -0.2947
 5788SOL     OW22923   3.877   5.741   2.137 -0.3537 -0.0062 -0.5651
 5788SOL    HW222924   3.898   5.650   2.113 -0.8326 -0.1848 -0.3297
 5788SOL    HW322925   3.787   5.754   2.105 -0.2511  0.4169 -0.6843
 5788SOL    MW422926   3.868   5.730   2.130 -0.4034  0.0260 -0.5497
 5789SOL     OW22927   4.636   5.890   1.376 -0.1731  0.3292  0.2955
 5789SOL    HW222928   4.716   5.942   1.366  0.6495 -1.0947 -0.8686
 5789SOL    HW322929   4.568   5.942   1.333  0.4986  0.7252 -0.3025
 5789SOL    MW422930   4.638   5.904   1.369  0.0241  0.1936  0.0630
 5790SOL     OW22931   4.657   2.428   5.955 -0.4537 -0.4309 -0.1928
 5790SOL    HW222932   4.701   2.345   5.934 -0.8495 -0.8648  0.6279
 5790SOL    HW322933   4.565   2.412   5.935 -0.9667 -1.0796  2.2689
 5790SOL    MW422934   4.651   2.415   5.950 -0.5736 -0.5738  0.2403
 5791SOL     OW22935   5.616   4.270   1.653 -0.6118 -0.3919  0.0148
 5791SOL    HW222936   5.606   4.363   1.630  2.9338  0.9831  3.0080
 5791SOL    HW322937   5.579   4.263   1.742  1.5572 -1.0880  0.9286
 5791SOL    MW422938   5.609   4.281   1.662  0.1422 -0.3023  0.5303
 5792SOL     OW22939   1.020   4.097   2.482 -0.4639  0.8502  0.0019
 5792SOL    HW222940   0.989   4.095   2.573  3.0428  1.2214  1.3337
 5792SOL    HW322941   1.101   4.047   2.482 -0.9206 -0.1686 -3.2533
 5792SOL    MW422942   1.026   4.090   2.494 -0.0615  0.7647 -0.2519
 5793SOL     OW22943   4.077   1.165   0.180  0.2666  0.3583  0.1691
 5793SOL    HW222944   4.054   1.106   0.252 -0.6848 -0.4985 -0.8029
 5793SOL    HW322945   4.106   1.245   0.223  0.1233 -0.2820  1.5060
 5793SOL    MW422946   4.078   1.168   0.195  0.1221  0.1608  0.2172
 5794SOL     OW22947   4.349   2.599   4.735  0.6872 -0.6003  0.0190
 5794SOL    HW222948   4.255   2.589   4.749  0.5070 -0.1127 -0.8215
 5794SOL    HW322949   4.366   2.692   4.749  1.3681 -0.9658  1.9599
 5794SOL    MW422950   4.339   2.610   4.739  0.7533 -0.5842  0.1642
 5795SOL     OW22951   4.469   3.384   2.987  0.2076 -0.4179  1.2594
 5795SOL    HW222952   4.438   3.453   3.046 -0.3849 -0.7411  1.3389
 5795SOL    HW322953   4.393   3.362   2.933  0.1430 -1.5898  1.7998
 5795SOL    MW422954   4.455   3.390   2.987  0.1209 -0.6152  1.3412
 5796SOL     OW22955   1.350   4.928   3.435 -0.4922  0.2710 -0.1422
 5796SOL    HW222956   1.398   4.865   3.488  0.5777 -1.5703 -3.0559
 5796SOL    HW322957   1.264   4.887   3.423 -1.0691  1.1348  0.8633
 5796SOL    MW422958   1.345   4.914   3.441 -0.4272  0.1420 -0.3939
 5797SOL     OW22959   5.186   5.767   3.056  0.5291 -0.6069 -0.5810
 5797SOL    HW222960   5.181   5.843   2.998  1.0742  0.2058  0.4075
 5797SOL    HW322961   5.097   5.758   3.090 -0.1519 -1.9173 -2.5027
 5797SOL    MW422962   5.174   5.776   3.053  0.5112 -0.6725 -0.7041
 5798SOL     OW22963   4.597   2.116   4.822 -0.0555 -0.2905 -0.2508
 5798SOL    HW222964   4.584   2.033   4.868  1.5084  0.0989  1.0192
 5798SOL    HW322965   4.687   2.111   4.789  0.6276  1.4133  1.1371
 5798SOL    MW422966   4.607   2.104   4.824  0.2409 -0.0143  0.0999
 5799SOL     OW22967   5.780   4.265   2.263  0.5764  0.4864  0.3950
 5799SOL    HW222968   5.741   4.346   2.229 -0.1695  0.9713  2.2791
 5799SOL    HW322969   5.706   4.211   2.289  1.1082  0.0078  0.9447
 5799SOL    MW422970   5.765   4.269   2.262  0.5482  0.4873  0.7161
 5800SOL     OW22971   2.044   0.941   3.107  0.5904 -0.1507  0.1211
 5800SOL    HW222972   2.021   0.965   3.197  0.9313 -0.7108  0.3627
 5800SOL    HW322973   2.033   1.022   3.057 -1.4782 -0.2796  0.3002
 5800SOL    MW422974   2.040   0.955   3.112  0.3624 -0.2416  0.1766
 5801SOL     OW22975   1.583   2.000   4.408 -0.0055  0.1069 -0.3064
 5801SOL    HW222976   1.496   2.036   4.423 -0.6021 -1.3357 -0.1309
 5801SOL    HW322977   1.568   1.908   4.385  1.3486  0.3709 -2.4980
 5801SOL    MW422978   1.570   1.993   4.407  0.0944 -0.0486 -0.5724
 5802SOL     OW22979   1.502   1.049   4.113  0.4566  0.0704 -0.5997
 5802SOL    HW222980   1.593   1.056   4.140  0.4661  1.6794 -0.9812
 5802SOL    HW322981   1.478   1.137   4.085 -1.0710 -0.4364 -0.9791
 5802SOL    MW422982   1.511   1.061   4.113  0.2563  0.2158 -0.7001
 5803SOL     OW22983   0.058   5.005   2.599 -0.2250  0.9796  0.2713
 5803SOL    HW222984  -0.029   5.043   2.607 -0.5255  0.4263 -0.2757
 5803SOL    HW322985   0.078   4.971   2.686 -2.0104 -1.9510 -0.3263
 5803SOL    MW422986   0.049   5.005   2.612 -0.5002  0.5200  0.1203
 5804SOL     OW22987   6.133   4.313   3.930  0.4078  0.0505  0.3442
 5804SOL    HW222988   6.139   4.409   3.931  1.5258 -0.0078  0.3816
 5804SOL    HW322989   6.051   4.294   3.976  0.6185  0.9632  1.1446
 5804SOL    MW422990   6.123   4.323   3.937  0.5831  0.1632  0.4547
 5805SOL     OW22991   1.524   0.782   3.746 -0.7243 -0.1192 -0.6474
 5805SOL    HW222992   1.552   0.695   3.716 -0.7494 -0.6600  0.7987
 5805SOL    HW322993   1.535   0.839   3.670  2.1111 -0.7792 -0.8567
 5805SOL    MW422994   1.529   0.778   3.732 -0.3535 -0.2776 -0.4842
 5806SOL     OW22995   1.440   1.130   2.202 -0.0556  0.5321 -0.0732
 5806SOL    HW222996   1.526   1.137   2.244  0.8686 -1.5210 -1.4465
 5806SOL    HW322997   1.386   1.080   2.263  0.5452 -0.3902 -0.2795
 5806SOL    MW422998   1.444   1.125   2.215  0.1456  0.1395 -0.2816
 5807SOL     OW22999   1.527   2.964   0.785  0.0568 -0.6409 -0.6061
 5807SOL    HW223000   1.605   2.929   0.827 -0.2268  0.3236  0.8186
 5807SOL    HW323001   1.497   3.034   0.844 -1.9207 -1.0306 -1.0532
 5807SOL    MW423002   1.533   2.969   0.798 -0.2415 -0.5651 -0.4771
 5808SOL     OW23003   1.680   4.441   3.804  0.0655  0.0120 -0.5870
 5808SOL    HW223004   1.693   4.349   3.780  2.0090  0.3320 -0.9204
 5808SOL    HW323005   1.686   4.442   3.899  1.9164 -0.0132 -0.6574
 5808SOL    MW423006   1.682   4.429   3.813  0.5661  0.0509 -0.6403
 5809SOL     OW23007   5.044   1.165   5.404 -1.0050  0.5357 -0.0904
 5809SOL    HW223008   5.034   1.102   5.475 -0.4420 -0.3331 -0.7472
 5809SOL    HW323009   5.103   1.121   5.342 -1.3219  1.3446 -0.9901
 5809SOL    MW423010   5.051   1.151   5.405 -0.9725  0.5278 -0.2958
 5810SOL     OW23011   0.059   6.445   1.599  0.0797  0.3242  0.0425
 5810SOL    HW223012   0.051   6.399   1.683  0.2685 -0.6492 -0.4542
 5810SOL    HW323013   0.122   6.393   1.550 -0.9464  0.1870 -1.1635
 5810SOL    MW423014   0.066   6.432   1.604 -0.0308  0.1777 -0.1821
 5811SOL     OW23015   2.376   1.805   0.166 -0.5518  0.2789  0.1817
 5811SOL    HW223016   2.304   1.749   0.194  0.7582 -1.2378  0.6480
 5811SOL    HW323017   2.432   1.812   0.243 -0.1873  1.4359 -0.1739
 5811SOL    MW423018   2.374   1.798   0.180 -0.3309  0.2314  0.1963
 5812SOL     OW23019   5.768   1.383   0.410 -0.1497 -0.0105 -0.2800
 5812SOL    HW223020   5.819   1.372   0.330 -0.4148  1.2994 -0.6414
 5812SOL    HW323021   5.706   1.310   0.409  0.5389 -0.6017 -0.7250
 5812SOL    MW423022   5.767   1.372   0.399 -0.0938  0.0843 -0.3864
 5813SOL     OW23023   1.248   3.267   1.301  0.3358  0.4385 -0.1240
 5813SOL    HW223024   1.337   3.233   1.297  0.2317  0.2711 -2.0278
 5813SOL    HW323025   1.255   3.357   1.268  0.1538  1.3197  2.0987
 5813SOL    MW423026   1.261   3.274   1.296  0.2981  0.5327 -0.0819
 5814SOL     OW23027   2.846   4.476   1.073 -0.5877 -0.3083  0.3389
 5814SOL    HW223028   2.847   4.399   1.131 -1.5165  0.2164  1.0845
 5814SOL    HW323029   2.937   4.487   1.046  0.0773 -0.0189  2.4961
 5814SOL    MW423030   2.858   4.467   1.077 -0.6225 -0.2009  0.7219
 5815SOL     OW23031   3.080   0.353   4.200  0.1296  0.4334 -0.2586
 5815SOL    HW223032   3.151   0.342   4.136  0.8254 -1.1696  0.7252
 5815SOL    HW323033   3.111   0.307   4.277 -1.8993 -0.0811  0.2962
 5815SOL    MW423034   3.094   0.345   4.201 -0.0463  0.1540 -0.0556
 5816SOL     OW23035   0.427   1.318   3.186 -0.4908 -0.1421 -0.1368
 5816SOL    HW223036   0.420   1.379   3.260 -1.1796 -0.3517 -0.0172
 5816SOL    HW323037   0.489   1.359   3.126 -1.9790  1.3704 -0.7213
 5816SOL    MW423038   0.434   1.331   3.188 -0.7781  0.0298 -0.1981
 5817SOL     OW23039   4.213   2.572   5.109  0.4045 -0.1417  0.1096
 5817SOL    HW223040   4.193   2.546   5.199  0.3500 -3.1728 -0.6499
 5817SOL    HW323041   4.308   2.583   5.109  0.4899 -0.7647  0.4427
 5817SOL    MW423042   4.223   2.570   5.121  0.4086 -0.6238  0.0533
 5818SOL     OW23043   0.454   1.029   3.437 -0.2915 -0.0143  0.2360
 5818SOL    HW223044   0.398   0.967   3.391  2.1899 -1.0496 -1.6576
 5818SOL    HW323045   0.502   1.074   3.368 -0.1586  2.2215  1.6789
 5818SOL    MW423046   0.453   1.027   3.422  0.0534  0.1441  0.1765
 5819SOL     OW23047   2.838   3.215   5.764 -0.1693  0.4446 -0.3134
 5819SOL    HW223048   2.927   3.222   5.797  0.1534 -1.0119 -0.8160
 5819SOL    HW323049   2.808   3.128   5.793 -1.6301  1.1157  0.3233
 5819SOL    MW423050   2.846   3.204   5.772 -0.3195  0.3410 -0.2957
 5820SOL     OW23051   3.985   2.852   3.589  0.4212 -0.0081  0.6902
 5820SOL    HW223052   3.908   2.838   3.644  1.0994 -0.2825  1.6071
 5820SOL    HW323053   3.998   2.769   3.544  0.0059  0.1384  0.2935
 5820SOL    MW423054   3.977   2.840   3.590  0.4559 -0.0250  0.7588
 5821SOL     OW23055   5.697   5.226   0.118  0.1167  0.0940 -0.2169
 5821SOL    HW223056   5.737   5.154   0.167 -0.4784 -0.5299 -0.6336
 5821SOL    HW323057   5.763   5.295   0.119  0.6194 -0.3856  0.3555
 5821SOL    MW423058   5.711   5.226   0.125  0.1045 -0.0516 -0.1964
 5822SOL     OW23059   0.211   5.087   4.286  0.1543 -1.0002  0.6775
 5822SOL    HW223060   0.159   5.142   4.227 -0.9331 -1.4768  1.1699
 5822SOL    HW323061   0.217   5.138   4.367  3.0472  0.3996 -0.2923
 5822SOL    MW423062   0.205   5.101   4.289  0.3925 -0.8784  0.6145
 5823SOL     OW23063   2.776   3.131   1.357  0.0279  0.3209  0.3377
 5823SOL    HW223064   2.699   3.079   1.381  0.4100 -0.1886  0.4708
 5823SOL    HW323065   2.742   3.219   1.345 -0.3606  0.3867  1.7182
 5823SOL    MW423066   2.761   3.136   1.358  0.0270  0.2624  0.5374
 5824SOL     OW23067   2.884   1.271   1.923  0.5073  0.1901  0.4938
 5824SOL    HW223068   2.891   1.355   1.969  1.0125  0.5075 -0.1478
 5824SOL    HW323069   2.865   1.294   1.832 -3.5319 -0.4833  0.9857
 5824SOL    MW423070   2.883   1.285   1.917  0.0411  0.1432  0.4741
 5825SOL     OW23071   6.407   4.014   4.493 -0.3775 -0.6907  0.1736
 5825SOL    HW223072   6.352   4.062   4.430 -0.3541 -0.2381  0.4961
 5825SOL    HW323073   6.378   3.923   4.484 -0.5080 -0.6030 -0.3562
 5825SOL    MW423074   6.396   4.008   4.484 -0.3916 -0.6194  0.1462
 5826SOL     OW23075   5.495   0.878   5.524  0.3575 -0.0918 -0.1469
 5826SOL    HW223076   5.494   0.785   5.500  0.1225  0.2960 -1.7007
 5826SOL    HW323077   5.572   0.887   5.581 -0.9124 -1.6720  1.9864
 5826SOL    MW423078   5.505   0.867   5.528  0.1590 -0.2491 -0.0704
 5827SOL     OW23079   1.692   1.028   4.484  0.5513  0.0886 -0.2439
 5827SOL    HW223080   1.673   0.934   4.485  0.1211  0.1049 -2.0542
 5827SOL    HW323081   1.610   1.069   4.511  0.9125 -0.0506  1.1143
 5827SOL    MW423082   1.679   1.021   4.487  0.5422  0.0724 -0.3036
 5828SOL     OW23083   4.012   0.149   5.104 -0.5242 -0.0215  0.2971
 5828SOL    HW223084   3.952   0.121   5.172 -1.1201 -0.5102 -0.4147
 5828SOL    HW323085   3.999   0.086   5.033 -0.8647  1.2158 -0.7756
 5828SOL    MW423086   4.002   0.137   5.103 -0.6477  0.0773  0.0616
 5829SOL     OW23087   2.634   2.114   0.206 -0.5733 -0.0502 -0.1950
 5829SOL    HW223088   2.730   2.119   0.204 -0.5554 -0.0760  0.3666
 5829SOL    HW323089   2.609   2.096   0.116  0.0893 -2.4191  0.0238
 5829SOL    MW423090   2.643   2.112   0.194 -0.4835 -0.3662 -0.0920
 5830SOL     OW23091   2.993   5.609   2.318 -0.0509  0.4180 -0.2787
 5830SOL    HW223092   2.911   5.560   2.314  0.3379 -0.2938  0.1906
 5830SOL    HW323093   2.985   5.660   2.399  0.1512 -0.0135  0.0227
 5830SOL    MW423094   2.981   5.609   2.328  0.0270  0.2671 -0.1770
 5831SOL     OW23095   5.325   3.512   3.539  0.4084 -0.2871  0.5793
 5831SOL    HW223096   5.329   3.428   3.583  1.3748  0.6182  2.2970
 5831SOL    HW323097   5.403   3.515   3.484  0.3299 -0.5254  0.4526
 5831SOL    MW423098   5.336   3.501   3.537  0.5255 -0.1991  0.7892
 5832SOL     OW23099   3.995   2.424   4.983 -0.4291 -0.4974  0.3908
 5832SOL    HW223100   4.078   2.454   5.020  0.1201 -1.0263 -0.3804
 5832SOL    HW323101   3.932   2.436   5.054  0.4622 -0.8813  1.2746
 5832SOL    MW423102   3.998   2.430   4.997 -0.2390 -0.6178  0.4057
 5833SOL     OW23103   0.745   5.661   2.025  0.2129  0.0880  0.4629
 5833SOL    HW223104   0.798   5.696   1.953 -1.1877  0.7670 -0.2756
 5833SOL    HW323105   0.679   5.607   1.982 -1.3588  1.4109  1.1112
 5833SOL    MW423106   0.743   5.658   2.010 -0.1793  0.3521  0.4510
 5834SOL     OW23107   1.632   3.534   0.486 -0.6077 -0.2038  0.2121
 5834SOL    HW223108   1.542   3.566   0.481 -1.6672 -2.7317  1.3916
 5834SOL    HW323109   1.629   3.464   0.551  2.3617  0.0096  0.6984
 5834SOL    MW423110   1.619   3.529   0.494 -0.3557 -0.5091  0.4319
 5835SOL     OW23111   1.262   0.898   6.020 -0.2406  0.0305  0.2937
 5835SOL    HW223112   1.178   0.936   6.043  1.0380  1.5175  3.0550
 5835SOL    HW323113   1.302   0.876   6.105  1.8945 -1.2329 -0.9430
 5835SOL    MW423114   1.256   0.900   6.035  0.2098  0.0600  0.4948
 5836SOL     OW23115   3.443   1.537   1.771  0.2489 -0.5297 -0.1091
 5836SOL    HW223116   3.420   1.529   1.678 -0.9472  0.8106  0.0300
 5836SOL    HW323117   3.529   1.496   1.778  0.0397 -1.3308 -1.6595
 5836SOL    MW423118   3.451   1.530   1.760  0.0635 -0.4586 -0.2953
 5837SOL     OW23119   0.483   6.255   0.059 -0.2702 -0.1343 -0.3336
 5837SOL    HW223120   0.577   6.274   0.063  0.1622 -2.1743  0.7566
 5837SOL    HW323121   0.455   6.254   0.150 -1.0564 -0.7659 -0.5718
 5837SOL    MW423122   0.492   6.257   0.071 -0.3169 -0.4868 -0.2212
 5838SOL     OW23123   1.228   4.483   5.728 -1.0025 -0.2830  0.0941
 5838SOL    HW223124   1.244   4.429   5.650 -3.4775 -1.0811  0.0678
 5838SOL    HW323125   1.138   4.464   5.753 -0.7478  1.0603  2.3282
 5838SOL    MW423126   1.218   4.473   5.721 -1.2955 -0.2111  0.3854
 5839SOL     OW23127   5.306   5.962   3.878  0.0442  0.1004  0.0374
 5839SOL    HW223128   5.375   6.018   3.843 -0.4867 -0.7957 -2.6631
 5839SOL    HW323129   5.345   5.921   3.955  1.2014  2.4009  0.7782
 5839SOL    MW423130   5.320   5.964   3.884  0.1269  0.2857 -0.2212
 5840SOL     OW23131   6.005   0.948   2.832 -0.3736 -0.2793  0.1543
 5840SOL    HW223132   5.914   0.961   2.807 -0.7651 -0.8327  1.2148
 5840SOL    HW323133   6.005   0.955   2.928  0.8354  0.5153  0.1159
 5840SOL    MW423134   5.993   0.950   2.842 -0.2658 -0.2475  0.2891
 5841SOL     OW23135   5.765   5.516   0.410 -0.3821 -0.3190  0.4421
 5841SOL    HW223136   5.841   5.573   0.421 -0.7348 -0.0461  1.6840
 5841SOL    HW323137   5.792   5.432   0.449 -0.2872 -0.6246 -0.2700
 5841SOL    MW423138   5.779   5.512   0.417 -0.4161 -0.3233  0.5120
 5842SOL     OW23139   0.265   1.916   3.229  0.3943 -0.4562 -0.1489
 5842SOL    HW223140   0.300   1.983   3.288 -0.3912 -0.1960  0.0210
 5842SOL    HW323141   0.230   1.965   3.155  1.0896 -0.7653 -0.7046
 5842SOL    MW423142   0.265   1.931   3.227  0.3824 -0.4627 -0.1998
 5843SOL     OW23143   2.828   2.882   3.382  0.2114 -0.8863  0.8619
 5843SOL    HW223144   2.893   2.943   3.346 -2.8606  2.2160 -0.0169
 5843SOL    HW323145   2.799   2.831   3.307 -0.3957 -0.1722  0.5931
 5843SOL    MW423146   2.832   2.883   3.368 -0.2740 -0.3828  0.7105
 5844SOL     OW23147   2.677   5.759   5.316  0.2625  0.2127 -0.2776
 5844SOL    HW223148   2.744   5.824   5.337  0.7867  0.0081 -1.2511
 5844SOL    HW323149   2.614   5.806   5.262 -0.7086  0.5536  1.0917
 5844SOL    MW423150   2.677   5.774   5.312  0.2035  0.2307 -0.2254
 5845SOL     OW23151   3.053   6.254   2.497 -0.1284  0.0337 -0.9544
 5845SOL    HW223152   3.042   6.197   2.573  0.1324 -1.4569 -1.9937
 5845SOL    HW323153   3.104   6.327   2.530  2.0270 -1.7057 -0.1842
 5845SOL    MW423154   3.058   6.256   2.512  0.1904 -0.3925 -0.9899
 5846SOL     OW23155   3.533   2.310   0.772  0.1185  0.1976  0.1883
 5846SOL    HW223156   3.508   2.391   0.815  1.4559  0.8780 -0.2530
 5846SOL    HW323157   3.456   2.253   0.781 -0.9243  1.5666  0.3308
 5846SOL    MW423158   3.519   2.313   0.779  0.1574  0.4680  0.1489
 5847SOL     OW23159   4.417   1.348   5.419  0.1101 -1.1257 -0.4196
 5847SOL    HW223160   4.351   1.387   5.361  0.6179 -1.3825 -1.1984
 5847SOL    HW323161   4.368   1.285   5.472 -0.5977  0.1017  0.4100
 5847SOL    MW423162   4.402   1.345   5.418  0.0837 -0.9977 -0.4129
 5848SOL     OW23163   6.348   5.267   4.257 -0.5758  0.3932 -0.7135
 5848SOL    HW223164   6.290   5.343   4.249  0.0419  0.8229 -1.2468
 5848SOL    HW323165   6.298   5.204   4.308 -0.8271  1.4378  0.3993
 5848SOL    MW423166   6.334   5.269   4.263 -0.5275  0.5877 -0.6370
 5849SOL     OW23167   5.242   1.035   5.236 -0.6414 -0.4489  0.1038
 5849SOL    HW223168   5.266   0.960   5.291  1.2723 -0.7839 -1.0983
 5849SOL    HW323169   5.200   0.996   5.159 -1.4671 -0.1266  0.3802
 5849SOL    MW423170   5.240   1.020   5.233 -0.4979 -0.4506 -0.0183
 5850SOL     OW23171   3.952   3.981   1.297  0.3348  0.2272  0.2032
 5850SOL    HW223172   3.922   3.915   1.360  0.4474 -0.3715 -0.3532
 5850SOL    HW323173   4.028   4.021   1.339 -0.0752  0.4091  0.7923
 5850SOL    MW423174   3.958   3.977   1.311  0.2956  0.1722  0.2075
 5851SOL     OW23175   2.424   4.005   5.651  0.2170 -0.3902  0.1313
 5851SOL    HW223176   2.384   4.035   5.569 -0.8914  0.3342  0.9176
 5851SOL    HW323177   2.390   3.916   5.663  0.4333 -0.5227 -0.2171
 5851SOL    MW423178   2.414   3.997   5.641  0.0993 -0.3121  0.1891
 5852SOL     OW23179   3.305   4.947   1.765  0.0395  0.3728 -0.0845
 5852SOL    HW223180   3.336   4.935   1.676 -0.1517 -0.7790 -0.0100
 5852SOL    HW323181   3.365   5.012   1.803  0.8378  0.0079 -0.6990
 5852SOL    MW423182   3.317   4.954   1.759  0.1196  0.1727 -0.1557
 5853SOL     OW23183   4.097   5.647   0.877  0.4009  0.2016  0.4039
 5853SOL    HW223184   4.176   5.628   0.926  0.7181  0.3055 -0.0609
 5853SOL    HW323185   4.063   5.727   0.915  1.1862  0.8311 -0.1889
 5853SOL    MW423186   4.103   5.655   0.888  0.5463  0.2984  0.2644
 5854SOL     OW23187   4.059   0.790   3.712 -0.6829  0.7098 -0.6923
 5854SOL    HW223188   4.078   0.714   3.766 -1.1118  1.4891  0.5831
 5854SOL    HW323189   3.995   0.841   3.762 -1.0567  1.4902 -1.8996
 5854SOL    MW423190   4.053   0.787   3.726 -0.7888  0.9156 -0.6833
 5855SOL     OW23191   6.303   4.336   0.525 -0.7900  0.0156  0.3634
 5855SOL    HW223192   6.208   4.340   0.524 -0.8816 -1.5564  0.0939
 5855SOL    HW323193   6.326   4.340   0.618 -0.9835  2.0506  0.3662
 5855SOL    MW423194   6.294   4.337   0.538 -0.8276  0.0767  0.3282
 5856SOL     OW23195   1.141   1.264   3.427  0.2152  0.4172  0.5212
 5856SOL    HW223196   1.153   1.174   3.395 -0.4630  0.3494  0.4502
 5856SOL    HW323197   1.178   1.264   3.515  0.8511  0.2494  0.2586
 5856SOL    MW423198   1.147   1.252   3.434  0.2096  0.3861  0.4772
 5857SOL     OW23199   0.366   6.096   6.293  0.4452  1.1240 -0.1548
 5857SOL    HW223200   0.289   6.042   6.308  0.3653  0.3542 -2.8962
 5857SOL    HW323201   0.359   6.167   6.357 -1.6631  0.1945  0.7117
 5857SOL    MW423202   0.355   6.098   6.304  0.1565  0.8998 -0.4022
 5858SOL     OW23203   2.960   3.913   4.406 -0.5140  0.2057 -0.0790
 5858SOL    HW223204   2.894   3.848   4.382  0.4683 -1.2691  0.9852
 5858SOL    HW323205   3.012   3.925   4.326  0.4201 -1.7967  0.1339
 5858SOL    MW423206   2.958   3.906   4.392 -0.2612 -0.2531  0.0895
 5859SOL     OW23207   3.091   5.356   3.561 -0.9134 -0.2715  0.0297
 5859SOL    HW223208   3.084   5.314   3.647  0.0120 -1.7375 -0.5704
 5859SOL    HW323209   3.155   5.426   3.574 -1.6864  0.3172  0.7986
 5859SOL    MW423210   3.099   5.360   3.574 -0.8933 -0.3872  0.0520
 5860SOL     OW23211   1.473   4.964   6.427  0.0460  0.3814 -0.5317
 5860SOL    HW223212   1.502   4.932   6.341 -0.7035 -0.2335 -0.5627
 5860SOL    HW323213   1.380   4.945   6.429 -0.0318  0.8354  0.2349
 5860SOL    MW423214   1.465   4.958   6.416 -0.0632  0.3602 -0.4346
 5861SOL     OW23215   0.607   2.380   5.066  0.1460  0.1434 -0.2275
 5861SOL    HW223216   0.698   2.383   5.035  0.6896 -0.7466  1.1652
 5861SOL    HW323217   0.582   2.471   5.077  1.2457  0.3874  0.3568
 5861SOL    MW423218   0.616   2.392   5.063  0.3628  0.0582  0.0333
 5862SOL     OW23219   1.606   2.103   2.540 -0.0288 -0.1666  0.2180
 5862SOL    HW223220   1.555   2.054   2.476  0.3278 -0.6663  0.3093
 5862SOL    HW323221   1.541   2.141   2.599 -0.4072  0.9385 -0.8733
 5862SOL    MW423222   1.591   2.101   2.539 -0.0317 -0.0867  0.0861
 5863SOL     OW23223   0.343   6.207   5.312  0.4378  0.0555 -0.6885
 5863SOL    HW223224   0.272   6.251   5.267  0.9388  1.2270 -0.3530
 5863SOL    HW323225   0.411   6.273   5.321  1.6587 -1.0956 -1.1629
 5863SOL    MW423226   0.343   6.221   5.307  0.6650  0.0582 -0.7068
 5864SOL     OW23227   3.172   4.656   3.630 -0.6084 -0.3181 -0.1944
 5864SOL    HW223228   3.118   4.735   3.625  0.8450  0.8974  1.5403
 5864SOL    HW323229   3.247   4.676   3.573  1.4507  1.1312  2.7631
 5864SOL    MW423230   3.175   4.669   3.622 -0.1450  0.0335  0.4247
 5865SOL     OW23231   3.695   4.149   5.135  0.6782  0.2633  0.0193
 5865SOL    HW223232   3.698   4.073   5.193 -0.6179 -0.3267 -0.6383
 5865SOL    HW323233   3.672   4.113   5.050 -1.7691  1.5492  0.0571
 5865SOL    MW423234   3.693   4.135   5.131  0.1843  0.3551 -0.0625
 5866SOL     OW23235   0.693   2.725   1.189  0.2523  0.3084 -0.0676
 5866SOL    HW223236   0.730   2.676   1.115  0.2828  0.2389 -0.0056
 5866SOL    HW323237   0.640   2.660   1.236  0.2108  0.3597 -0.0433
 5866SOL    MW423238   0.691   2.710   1.185  0.2509  0.3060 -0.0562
 5867SOL     OW23239   4.258   2.638   5.878 -0.0004 -0.2330  0.2206
 5867SOL    HW223240   4.218   2.724   5.870  0.2628  0.0390  1.5762
 5867SOL    HW323241   4.196   2.579   5.836 -0.1622  0.6127 -0.7585
 5867SOL    MW423242   4.244   2.641   5.871  0.0130 -0.0855  0.2703
 5868SOL     OW23243   5.774   6.315   6.162 -0.1128  0.1936  0.0864
 5868SOL    HW223244   5.852   6.347   6.116  1.7351 -1.3013  2.0051
 5868SOL    HW323245   5.790   6.337   6.254 -1.2413 -1.4967  0.7294
 5868SOL    MW423246   5.787   6.322   6.168 -0.0179 -0.2267  0.4244
 5869SOL     OW23247   1.884   3.858   2.593  0.3921 -0.2162  0.0676
 5869SOL    HW223248   1.964   3.810   2.576 -0.6784 -1.8914 -0.5189
 5869SOL    HW323249   1.878   3.922   2.523  0.4991 -1.0564 -0.7198
 5869SOL    MW423250   1.893   3.860   2.582  0.2649 -0.5481 -0.1137
 5870SOL     OW23251   2.693   0.080   5.686 -0.3484 -0.4046 -0.6350
 5870SOL    HW223252   2.645   0.031   5.619 -0.1609  1.0409 -1.8930
 5870SOL    HW323253   2.639   0.071   5.765 -0.6331 -2.0673 -0.9794
 5870SOL    MW423254   2.679   0.072   5.687 -0.3612 -0.4333 -0.8464
 5871SOL     OW23255   5.284   6.241   2.173 -0.3938  0.0265 -0.2437
 5871SOL    HW223256   5.336   6.322   2.179 -1.1826  0.6092 -1.0038
 5871SOL    HW323257   5.287   6.204   2.261 -0.5426  1.2259  0.2856
 5871SOL    MW423258   5.292   6.247   2.186 -0.5175  0.2616 -0.2741
 5872SOL     OW23259   4.946   3.898   3.257 -0.1731  0.1481 -0.6006
 5872SOL    HW223260   5.028   3.904   3.209  0.9840  2.7680  1.4148
 5872SOL    HW323261   4.966   3.841   3.331  0.2624  1.6514  0.4943
 5872SOL    MW423262   4.959   3.891   3.260  0.0370  0.6921 -0.1903
 5873SOL     OW23263   0.375   3.392   2.380 -0.1363 -0.4131 -0.1938
 5873SOL    HW223264   0.379   3.357   2.291 -1.1605 -1.2618  0.0691
 5873SOL    HW323265   0.441   3.343   2.429  0.3329 -0.0412 -0.4529
 5873SOL    MW423266   0.384   3.381   2.375 -0.2095 -0.4760 -0.1933
 5874SOL     OW23267   2.721   0.743   3.252  0.0237 -0.3138  0.2434
 5874SOL    HW223268   2.647   0.708   3.202 -0.5809  0.1378  0.8175
 5874SOL    HW323269   2.710   0.707   3.340  0.6184 -0.4218  0.2836
 5874SOL    MW423270   2.710   0.733   3.257  0.0224 -0.2685  0.3245
 5875SOL     OW23271   5.227   5.795   1.283  0.2571  0.4415 -0.1849
 5875SOL    HW223272   5.279   5.729   1.238 -1.4384 -0.4785 -0.8702
 5875SOL    HW323273   5.285   5.828   1.352  0.8580 -2.4174  0.8105
 5875SOL    MW423274   5.242   5.791   1.286  0.1126 -0.0571 -0.1440
 5876SOL     OW23275   4.721   6.406   4.058 -0.0875  0.0489 -0.1807
 5876SOL    HW223276   4.646   6.353   4.084  1.7735 -1.5781  2.4187
 5876SOL    HW323277   4.709   6.489   4.106 -0.7003  0.1907 -0.5734
 5876SOL    MW423278   4.710   6.410   4.068  0.0771 -0.1471  0.1105
 5877SOL     OW23279   5.092   0.742   4.235 -0.2153 -0.3801 -0.0317
 5877SOL    HW223280   5.171   0.737   4.181  0.5393 -3.5247  1.1465
 5877SOL    HW323281   5.123   0.778   4.318  0.0200 -1.5668  0.4135
 5877SOL    MW423282   5.107   0.746   4.239 -0.0847 -0.9515  0.1825
 5878SOL     OW23283   4.356   3.027   5.718  0.5687 -0.0349  0.3929
 5878SOL    HW223284   4.309   2.963   5.665  0.6434 -1.1420  1.6156
 5878SOL    HW323285   4.291   3.095   5.736  0.3188 -0.0437 -0.4063
 5878SOL    MW423286   4.341   3.027   5.713  0.5456 -0.1821  0.4488
 5879SOL     OW23287   4.451   0.647   4.535 -0.6320  0.4876 -0.3804
 5879SOL    HW223288   4.411   0.682   4.455 -2.2783  0.5227  0.4365
 5879SOL    HW323289   4.386   0.660   4.603  0.0245 -1.1696  0.6277
 5879SOL    MW423290   4.437   0.653   4.533 -0.7626  0.2736 -0.1396
 5880SOL     OW23291   1.191   5.292   5.987  0.5095  0.4156  0.4641
 5880SOL    HW223292   1.278   5.331   5.989  0.7640 -0.1485  2.1681
 5880SOL    HW323293   1.140   5.344   6.049 -0.2804  0.5426 -0.2798
 5880SOL    MW423294   1.196   5.304   5.996  0.4389  0.3579  0.5908
 5881SOL     OW23295   1.033   3.330   1.503  0.1103 -0.3258  0.2624
 5881SOL    HW223296   0.982   3.410   1.484 -0.7154 -0.9377 -0.1691
 5881SOL    HW323297   1.090   3.320   1.427 -1.1372 -1.1718 -0.6022
 5881SOL    MW423298   1.034   3.340   1.490 -0.1632 -0.5181  0.0914
 5882SOL     OW23299   3.053   3.498   5.986 -0.7872 -0.0666 -0.5852
 5882SOL    HW223300   2.961   3.480   6.005 -0.2513 -3.0656 -0.3543
 5882SOL    HW323301   3.079   3.430   5.924  1.7231 -0.4597  0.7445
 5882SOL    MW423302   3.044   3.486   5.980 -0.3853 -0.5141 -0.3793
 5883SOL     OW23303   3.739   2.748   5.121  0.2604  0.0469 -0.1666
 5883SOL    HW223304   3.709   2.824   5.171 -0.0667 -0.5426  0.5687
 5883SOL    HW323305   3.722   2.673   5.179 -0.0467 -0.6586 -1.1314
 5883SOL    MW423306   3.733   2.748   5.135  0.1767 -0.1240 -0.1969
 5884SOL     OW23307   2.138   5.896   0.969 -0.4237 -0.6132 -0.0576
 5884SOL    HW223308   2.102   5.984   0.977  1.2924  0.0492  0.6946
 5884SOL    HW323309   2.136   5.878   0.875 -1.7447 -0.2221 -0.1319
 5884SOL    MW423310   2.133   5.905   0.958 -0.3716 -0.4742  0.0318
 5885SOL     OW23311   2.538   1.657   3.303 -0.0060  0.2067 -0.1992
 5885SOL    HW223312   2.547   1.570   3.265  0.5485  0.1485  0.0479
 5885SOL    HW323313   2.501   1.711   3.232 -1.1300 -0.3998 -0.0964
 5885SOL    MW423314   2.534   1.653   3.289 -0.0812  0.1190 -0.1531
 5886SOL     OW23315   5.485   0.207   3.662 -0.3396  0.1230 -0.6340
 5886SOL    HW223316   5.526   0.278   3.613 -1.1832  0.9955 -0.1146
 5886SOL    HW323317   5.540   0.131   3.645  3.0716  1.7390  2.0595
 5886SOL    MW423318   5.497   0.207   3.653 -0.0009  0.4513 -0.2101
 5887SOL     OW23319   1.764   3.350   2.476  0.4721 -0.4964  0.2036
 5887SOL    HW223320   1.747   3.282   2.410 -0.5196 -0.8894  0.8447
 5887SOL    HW323321   1.679   3.391   2.491  0.4954 -0.9506  1.8077
 5887SOL    MW423322   1.750   3.346   2.469  0.3443 -0.6082  0.4998
 5888SOL     OW23323   6.315   1.750   2.549 -0.1882 -0.1761  0.1303
 5888SOL    HW223324   6.244   1.791   2.500 -0.5628 -0.0651  0.7601
 5888SOL    HW323325   6.279   1.736   2.636  0.4640 -0.3981  0.3674
 5888SOL    MW423326   6.301   1.754   2.554 -0.1516 -0.1907  0.2446
 5889SOL     OW23327   5.059   0.975   1.138  1.0805 -0.1737 -0.2172
 5889SOL    HW223328   5.096   1.053   1.096  0.7000  0.6977  1.0086
 5889SOL    HW323329   4.979   1.006   1.180  0.5540 -1.3826 -0.2781
 5889SOL    MW423330   5.053   0.989   1.138  0.9609 -0.2182 -0.0635
 5890SOL     OW23331   3.408   4.671   0.960  0.4597 -0.1013  0.4230
 5890SOL    HW223332   3.365   4.731   0.899  1.7608 -0.2286 -0.6716
 5890SOL    HW323333   3.498   4.705   0.968  1.0117 -1.4780  0.3363
 5890SOL    MW423334   3.414   4.683   0.953  0.7042 -0.2997  0.2671
 5891SOL     OW23335   4.057   4.653   3.411  0.1457  0.0082  0.6526
 5891SOL    HW223336   3.975   4.647   3.459 -0.7020  0.4101 -0.6895
 5891SOL    HW323337   4.035   4.625   3.322  1.2521  0.9829  0.0444
 5891SOL    MW423338   4.043   4.648   3.406  0.1798  0.1898  0.3953
 5892SOL     OW23339   4.026   4.254   4.323 -0.0777 -0.0571 -0.6030
 5892SOL    HW223340   4.025   4.217   4.235  2.4520 -0.5214 -0.5299
 5892SOL    HW323341   4.097   4.207   4.368 -0.2122  1.2945  1.1519
 5892SOL    MW423342   4.035   4.243   4.318  0.2383  0.0600 -0.3618
 5893SOL     OW23343   5.086   4.040   5.057 -0.0370  0.2367  0.2425
 5893SOL    HW223344   5.076   4.042   5.152 -0.5113 -0.1134  0.2003
 5893SOL    HW323345   5.128   3.956   5.039 -0.4581  0.0580  0.0941
 5893SOL    MW423346   5.090   4.029   5.067 -0.1552  0.1669  0.2174
 5894SOL     OW23347   5.678   4.353   0.398 -0.2167 -0.1665 -0.1819
 5894SOL    HW223348   5.704   4.441   0.372 -0.9595  0.0802 -0.1021
 5894SOL    HW323349   5.706   4.297   0.326 -1.2525  0.3612 -1.0088
 5894SOL    MW423350   5.685   4.357   0.385 -0.4514 -0.0643 -0.2805
 5895SOL     OW23351   1.518   5.481   2.790  0.2465 -0.2124  0.0165
 5895SOL    HW223352   1.599   5.475   2.841 -0.4964 -0.2047  1.2121
 5895SOL    HW323353   1.512   5.573   2.765 -1.0621  0.5356  2.7677
 5895SOL    MW423354   1.528   5.492   2.793 -0.0242 -0.1127  0.5373
 5896SOL     OW23355   1.568   5.426   0.088  0.6007 -0.4041 -0.5118
 5896SOL    HW223356   1.513   5.504   0.092  1.7038  0.4270 -0.8961
 5896SOL    HW323357   1.655   5.460   0.063  1.1027 -1.7497 -0.6523
 5896SOL    MW423358   1.572   5.441   0.085  0.8125 -0.4720 -0.5810
 5897SOL     OW23359   5.208   2.441   5.934 -0.6779 -0.2592  0.2677
 5897SOL    HW223360   5.208   2.511   5.869 -0.0618  0.3886  0.9415
 5897SOL    HW323361   5.299   2.434   5.962 -0.7542 -1.2493  0.3095
 5897SOL    MW423362   5.220   2.449   5.929 -0.6067 -0.3044  0.3621
 5898SOL     OW23363   5.239   1.033   6.258 -0.4097 -0.4975  0.4461
 5898SOL    HW223364   5.218   1.034   6.351 -1.1944 -0.5694  0.2711
 5898SOL    HW323365   5.311   1.097   6.250 -1.0122  0.2628  0.9423
 5898SOL    MW423366   5.246   1.042   6.269 -0.5927 -0.4067  0.4885
 5899SOL     OW23367   1.193   6.467   3.894  0.3346  0.4058  1.0667
 5899SOL    HW223368   1.142   6.505   3.966  1.8616  2.3943  1.1947
 5899SOL    HW323369   1.134   6.403   3.854 -1.3231  0.7830  2.7338
 5899SOL    MW423370   1.179   6.463   3.898  0.3174  0.7179  1.3036
 5900SOL     OW23371   5.482   0.327   2.602 -0.5164 -0.0132  0.1502
 5900SOL    HW223372   5.434   0.388   2.546 -0.6192  0.8307  1.1283
 5900SOL    HW323373   5.491   0.373   2.686  1.0110 -0.6087  0.3443
 5900SOL    MW423374   5.477   0.341   2.606 -0.3284  0.0196  0.3049
 5901SOL     OW23375   2.013   6.453   4.789  0.3710  0.6083 -0.0976
 5901SOL    HW223376   2.086   6.403   4.825  1.0844  2.6078  1.4190
 5901SOL    HW323377   2.046   6.542   4.780 -0.9316  0.9412 -2.4264
 5901SOL    MW423378   2.027   6.458   4.793  0.2932  0.9160 -0.2047
 5902SOL     OW23379   2.707   4.696   2.426  0.3404  0.1447 -0.5465
 5902SOL    HW223380   2.695   4.790   2.412 -1.0053 -0.1850 -1.9353
 5902SOL    HW323381   2.633   4.655   2.379  0.7079 -1.5883  0.2902
 5902SOL    MW423382   2.695   4.703   2.418  0.2113 -0.1274 -0.6194
 5903SOL     OW23383   4.421   0.077   5.277  0.5981  0.0827  0.3261
 5903SOL    HW223384   4.426   0.036   5.190 -0.9558 -0.7021  0.5672
 5903SOL    HW323385   4.429   0.171   5.259 -3.5203  0.3497 -1.2394
 5903SOL    MW423386   4.422   0.084   5.263 -0.1503  0.0144  0.1514
 5904SOL     OW23387   2.601   5.525   1.436 -0.1353  0.0714 -0.1666
 5904SOL    HW223388   2.515   5.555   1.465 -0.4142  0.3225 -1.2124
 5904SOL    HW323389   2.589   5.432   1.418  0.9434 -1.0783  3.9242
 5904SOL    MW423390   2.588   5.517   1.438 -0.0298 -0.0471  0.2351
 5905SOL     OW23391   3.017   1.953   1.119 -0.4059 -0.5203 -0.4627
 5905SOL    HW223392   2.931   1.950   1.162 -1.1059 -0.2756 -1.7958
 5905SOL    HW323393   3.045   1.862   1.115 -0.8275 -0.6530 -0.4470
 5905SOL    MW423394   3.009   1.941   1.124 -0.5539 -0.5055 -0.6365
 5906SOL     OW23395   5.526   3.454   5.364 -0.0774  0.1672 -0.1126
 5906SOL    HW223396   5.464   3.524   5.386 -0.4311 -0.4684  0.9851
 5906SOL    HW323397   5.585   3.450   5.439 -1.1031 -1.8479  0.6296
 5906SOL    MW423398   5.526   3.463   5.376 -0.2594 -0.1825  0.1301
 5907SOL     OW23399   1.559   5.509   1.282 -0.1506 -0.4322 -0.3039
 5907SOL    HW223400   1.585   5.482   1.370  1.8501 -0.0972 -0.7438
 5907SOL    HW323401   1.602   5.445   1.224  0.1376  0.4648 -1.1022
 5907SOL    MW423402   1.568   5.497   1.286  0.1514 -0.2697 -0.4673
 5908SOL     OW23403   3.929   5.251   3.255  0.0992  0.2347  0.3271
 5908SOL    HW223404   4.023   5.243   3.238 -0.0799  1.8925 -1.9202
 5908SOL    HW323405   3.923   5.264   3.349  2.1748  0.6564  0.4593
 5908SOL    MW423406   3.941   5.252   3.265  0.3494  0.5091  0.0481
 5909SOL     OW23407   1.002   3.186   3.353  0.3533  0.6631 -0.5399
 5909SOL    HW223408   1.086   3.224   3.381  0.6412 -0.1142 -0.3146
 5909SOL    HW323409   1.016   3.164   3.261 -0.0828  1.8139 -0.8999
 5909SOL    MW423410   1.015   3.188   3.344  0.3337  0.7124 -0.5576
 5910SOL     OW23411   4.500   1.868   4.172 -0.5682  0.3416  0.0435
 5910SOL    HW223412   4.471   1.777   4.161  0.1174  0.0826  0.3784
 5910SOL    HW323413   4.435   1.907   4.231  0.1205 -0.4263  1.3440
 5910SOL    MW423414   4.487   1.861   4.178 -0.3869  0.2061  0.2593
 5911SOL     OW23415   5.790   0.700   1.832 -0.2076  0.0369 -0.1498
 5911SOL    HW223416   5.832   0.614   1.834 -1.9660 -0.8425  1.1226
 5911SOL    HW323417   5.735   0.697   1.753 -2.5706 -1.2265  1.4473
 5911SOL    MW423418   5.788   0.688   1.822 -0.7514 -0.2458  0.2288
 5912SOL     OW23419   5.307   1.921   2.998  0.0695 -0.6270 -0.2410
 5912SOL    HW223420   5.284   1.954   3.085  0.5921  0.4797 -0.5187
 5912SOL    HW323421   5.342   1.833   3.015 -0.1460 -0.5552  0.6286
 5912SOL    MW423422   5.308   1.913   3.012  0.1100 -0.4715 -0.1629
 5913SOL     OW23423   3.039   0.393   2.435 -0.6660 -0.4315 -0.4693
 5913SOL    HW223424   3.132   0.414   2.432 -0.8860  0.5163 -1.1218
 5913SOL    HW323425   3.030   0.335   2.510  0.3805 -0.1547 -0.1113
 5913SOL    MW423426   3.050   0.388   2.444 -0.5569 -0.2699 -0.5082
 5914SOL     OW23427   0.696   4.182   1.093 -0.2718 -0.0761 -0.7743
 5914SOL    HW223428   0.657   4.102   1.059 -0.5130 -0.2201 -0.1662
 5914SOL    HW323429   0.772   4.152   1.143  0.5229  0.1862 -1.7791
 5914SOL    MW423430   0.701   4.167   1.095 -0.1988 -0.0605 -0.8266
 5915SOL     OW23431   2.664   5.113   3.123  0.3451  0.2037 -0.6276
 5915SOL    HW223432   2.585   5.071   3.158 -0.5967 -0.2534 -3.0335
 5915SOL    HW323433   2.726   5.114   3.195 -1.3026 -0.9418  0.8795
 5915SOL    MW423434   2.661   5.108   3.137  0.0035 -0.0077 -0.7462
 5916SOL     OW23435   1.451   4.704   4.264 -0.4997 -0.4519 -0.0634
 5916SOL    HW223436   1.510   4.733   4.194 -0.6644 -0.3454 -0.1598
 5916SOL    HW323437   1.409   4.625   4.228 -0.2486 -0.6571  0.0940
 5916SOL    MW423438   1.453   4.697   4.250 -0.4883 -0.4650 -0.0554
 5917SOL     OW23439   4.776   4.942   1.072 -0.0405 -0.0405  0.0539
 5917SOL    HW223440   4.771   5.037   1.062  1.4440  0.0968  0.3865
 5917SOL    HW323441   4.870   4.923   1.074  0.1726 -0.7030  6.5862
 5917SOL    MW423442   4.788   4.952   1.071  0.1835 -0.1098  0.9596
 5918SOL     OW23443   5.153   0.413   3.869  0.1465  0.4478  0.1925
 5918SOL    HW223444   5.099   0.335   3.884  0.4008 -0.0126 -1.0900
 5918SOL    HW323445   5.189   0.399   3.781  0.3188  1.9478  0.0098
 5918SOL    MW423446   5.151   0.401   3.859  0.2028  0.5850 -0.0008
 5919SOL     OW23447   0.861   0.599   1.015 -0.2282 -0.1764  0.1463
 5919SOL    HW223448   0.803   0.672   0.999 -0.1615 -0.1091  0.2103
 5919SOL    HW323449   0.923   0.631   1.081  0.2276 -0.0602 -0.3367
 5919SOL    MW423450   0.862   0.613   1.022 -0.1593 -0.1522  0.0910
 5920SOL     OW23451   1.820   2.231   0.936 -0.5076 -0.4524 -0.0532
 5920SOL    HW223452   1.888   2.168   0.960 -1.4481 -1.9228 -1.1012
 5920SOL    HW323453   1.831   2.243   0.842 -2.5115 -1.7674 -0.5022
 5920SOL    MW423454   1.831   2.225   0.927 -0.8961 -0.8199 -0.2507
 5921SOL     OW23455   5.190   1.459   1.830  0.2268 -0.0934 -0.2276
 5921SOL    HW223456   5.217   1.478   1.740 -0.9295  0.9889 -0.3663
 5921SOL    HW323457   5.248   1.388   1.857  0.0996 -0.9822 -2.0914
 5921SOL    MW423458   5.201   1.452   1.821  0.0574 -0.0679 -0.4918
 5922SOL     OW23459   1.895   3.654   0.472  0.2482  0.3907 -0.1511
 5922SOL    HW223460   1.805   3.627   0.450 -0.3614  2.7580 -0.8298
 5922SOL    HW323461   1.887   3.697   0.557  0.7549  0.5672 -0.1908
 5922SOL    MW423462   1.882   3.656   0.480  0.2346  0.7263 -0.2459
 5923SOL     OW23463   0.479   0.608   0.696 -0.0814 -0.3808 -0.4670
 5923SOL    HW223464   0.537   0.556   0.752  0.2077 -1.2270 -1.5122
 5923SOL    HW323465   0.395   0.607   0.742 -0.0917 -1.8145 -0.4602
 5923SOL    MW423466   0.475   0.601   0.709 -0.0447 -0.6816 -0.6040
 5924SOL     OW23467   1.580   0.256   4.867  0.2398  0.3771 -0.2196
 5924SOL    HW223468   1.666   0.249   4.909  0.6809  0.1644 -1.1302
 5924SOL    HW323469   1.533   0.178   4.896  1.2382 -0.8067 -1.6452
 5924SOL    MW423470   1.585   0.245   4.877  0.4297  0.1928 -0.5278
 5925SOL     OW23471   0.497   6.362   0.761 -0.1620  0.3292  0.7391
 5925SOL    HW223472   0.552   6.338   0.835  2.1580 -1.4105 -1.3680
 5925SOL    HW323473   0.413   6.319   0.778  0.8240 -1.3375  1.6170
 5925SOL    MW423474   0.493   6.353   0.773  0.2742 -0.1202  0.5769
 5926SOL     OW23475   3.702   2.438   5.631 -0.0986 -0.3315  0.3254
 5926SOL    HW223476   3.633   2.374   5.616  1.8168 -2.4734 -0.0196
 5926SOL    HW323477   3.658   2.513   5.672 -3.0436 -0.3700 -2.3603
 5926SOL    MW423478   3.687   2.440   5.635 -0.2344 -0.6191 -0.0744
 5927SOL     OW23479   2.793   1.836   4.635 -0.1362 -0.3437 -0.0996
 5927SOL    HW223480   2.828   1.903   4.576  0.1395  0.3015  0.7764
 5927SOL    HW323481   2.869   1.808   4.687 -0.4283 -0.7208  0.1333
 5927SOL    MW423482   2.808   1.841   4.634 -0.1384 -0.3084  0.0467
 5928SOL     OW23483   1.391   2.683   5.393  0.1326 -0.2370  0.5855
 5928SOL    HW223484   1.334   2.605   5.392 -0.0048 -0.1304 -0.0939
 5928SOL    HW323485   1.354   2.740   5.326  0.2782  0.3872  1.0317
 5928SOL    MW423486   1.378   2.680   5.384  0.1337 -0.1406  0.5547
 5929SOL     OW23487   4.002   0.173   3.311 -0.0604 -0.2713 -0.2636
 5929SOL    HW223488   4.030   0.215   3.392  0.7219 -1.6154  0.1935
 5929SOL    HW323489   3.907   0.166   3.320 -0.1548  0.9275 -0.1454
 5929SOL    MW423490   3.993   0.178   3.323  0.0304 -0.2905 -0.1877
 5930SOL     OW23491   2.735   0.874   4.312  0.0474 -0.1447  0.3643
 5930SOL    HW223492   2.657   0.898   4.263  0.9416  1.1105 -0.5155
 5930SOL    HW323493   2.764   0.791   4.273 -0.2250 -0.0366 -0.0733
 5930SOL    MW423494   2.729   0.866   4.300  0.1294  0.0351  0.1905
 5931SOL     OW23495   3.293   2.546   5.708 -0.5385  0.2529  0.0004
 5931SOL    HW223496   3.303   2.524   5.616  0.7524  1.7236 -0.2442
 5931SOL    HW323497   3.308   2.463   5.754 -0.4359 -0.3367 -1.0614
 5931SOL    MW423498   3.297   2.532   5.702 -0.3547  0.3692 -0.1719
 5932SOL     OW23499   2.490   2.097   5.324 -0.0387 -0.1450  0.3156
 5932SOL    HW223500   2.472   2.182   5.365  0.3482  0.5667 -0.9544
 5932SOL    HW323501   2.577   2.073   5.355  0.3892  0.5494 -0.3259
 5932SOL    MW423502   2.499   2.105   5.334  0.0688  0.0405  0.0634
 5933SOL     OW23503   1.604   2.936   5.237 -0.4976  0.2187 -0.2800
 5933SOL    HW223504   1.597   2.873   5.165  0.6568  0.3982 -0.5711
 5933SOL    HW323505   1.627   3.018   5.195  0.1043  0.3468  0.2715
 5933SOL    MW423506   1.606   2.938   5.222 -0.2659  0.2593 -0.2456
 5934SOL     OW23507   0.837   0.471   2.178  0.2305  0.1211 -0.3378
 5934SOL    HW223508   0.846   0.418   2.098  1.9479 -2.0946  1.2065
 5934SOL    HW323509   0.903   0.540   2.169  2.0277 -1.4635  0.0866
 5934SOL    MW423510   0.847   0.473   2.166  0.6942 -0.3803 -0.0781
 5935SOL     OW23511   3.683   4.741   3.938 -0.6973 -0.4144 -0.3523
 5935SOL    HW223512   3.612   4.701   3.888 -0.4225  2.1718 -3.0854
 5935SOL    HW323513   3.763   4.718   3.890 -0.0655 -0.3700  0.6450
 5935SOL    MW423514   3.684   4.733   3.925 -0.5777 -0.0673 -0.5813
 5936SOL     OW23515   3.510   4.609   3.783  0.7119 -0.0242  0.1821
 5936SOL    HW223516   3.524   4.515   3.789 -0.2158 -0.1255  1.2348
 5936SOL    HW323517   3.428   4.624   3.829 -0.0397  1.1045 -1.4272
 5936SOL    MW423518   3.501   4.599   3.790  0.4904  0.1114  0.1087
 5937SOL     OW23519   5.133   1.784   2.813  0.1742  0.0326  0.2350
 5937SOL    HW223520   5.128   1.703   2.863  0.8697 -0.1744 -0.0171
 5937SOL    HW323521   5.186   1.842   2.867 -0.7989  0.5272  0.6786
 5937SOL    MW423522   5.139   1.781   2.827  0.1376  0.0705  0.2603
 5938SOL     OW23523   2.789   5.417   2.355 -0.2981  0.0482 -0.4492
 5938SOL    HW223524   2.732   5.449   2.424 -1.0264 -3.5702  0.8787
 5938SOL    HW323525   2.737   5.350   2.310  1.9242 -1.3989 -1.0286
 5938SOL    MW423526   2.775   5.412   2.358 -0.1010 -0.6201 -0.3505
 5939SOL     OW23527   2.542   4.146   5.219  0.2838  0.2872  0.1795
 5939SOL    HW223528   2.634   4.171   5.208  0.4263 -0.0148  0.6648
 5939SOL    HW323529   2.543   4.050   5.215 -0.1679  0.3117 -0.9533
 5939SOL    MW423530   2.554   4.137   5.217  0.2430  0.2506  0.0941
 5940SOL     OW23531   0.219   1.383   0.496 -0.2002  0.0304  0.2915
 5940SOL    HW223532   0.314   1.399   0.495 -0.0202 -0.8130 -1.6486
 5940SOL    HW323533   0.185   1.441   0.428 -0.7827 -1.1305 -0.4250
 5940SOL    MW423534   0.227   1.393   0.487 -0.2533 -0.2341 -0.0590
 5941SOL     OW23535   4.018   3.071   2.633  0.1344 -0.2137 -0.2603
 5941SOL    HW223536   3.946   3.124   2.668 -0.1152 -0.6209 -0.1516
 5941SOL    HW323537   4.054   3.124   2.562  1.8056  1.4466  1.6948
 5941SOL    MW423538   4.013   3.085   2.629  0.3219 -0.0483  0.0120
 5942SOL     OW23539   2.200   1.985   2.557  0.1720  0.7462 -0.7531
 5942SOL    HW223540   2.210   2.066   2.606 -1.4463  1.2043 -1.1371
 5942SOL    HW323541   2.109   1.959   2.570  0.8659 -1.5654  0.1804
 5942SOL    MW423542   2.190   1.992   2.565  0.0500  0.5017 -0.6806
 5943SOL     OW23543   2.949   2.153   2.370 -0.2467 -0.2364 -0.4941
 5943SOL    HW223544   2.926   2.171   2.279  2.1988 -0.6559 -1.2446
 5943SOL    HW323545   2.974   2.061   2.371  1.6465  0.2476  0.1562
 5943SOL    MW423546   2.949   2.143   2.358  0.3257 -0.2279 -0.5073
 5944SOL     OW23547   4.542   4.562   1.599 -0.5513  0.5129 -0.2339
 5944SOL    HW223548   4.572   4.485   1.550 -0.0637 -0.1565  1.0737
 5944SOL    HW323549   4.477   4.603   1.541  0.6126  0.2470 -1.7891
 5944SOL    MW423550   4.537   4.557   1.585 -0.3334  0.3895 -0.2666
 5945SOL     OW23551   5.126   5.303   0.270  0.0792 -0.0812  0.9305
 5945SOL    HW223552   5.077   5.363   0.213  1.7212  0.8126  0.4122
 5945SOL    HW323553   5.156   5.233   0.211  0.6496  0.1435  0.9497
 5945SOL    MW423554   5.123   5.301   0.255  0.3711  0.0664  0.8646
 5946SOL     OW23555   4.682   4.356   3.212  0.2127  0.1839  0.0646
 5946SOL    HW223556   4.631   4.371   3.291 -0.1316 -1.3753  0.1600
 5946SOL    HW323557   4.723   4.270   3.225 -0.0592 -0.2258 -1.5586
 5946SOL    MW423558   4.681   4.347   3.224  0.1314 -0.0759 -0.1370
 5947SOL     OW23559   6.103   2.758   4.172  0.0046 -0.3635 -0.0201
 5947SOL    HW223560   6.177   2.819   4.183 -1.6203  1.9091 -0.9866
 5947SOL    HW323561   6.122   2.713   4.090  0.2375  0.3161 -0.3444
 5947SOL    MW423562   6.116   2.760   4.163 -0.1790  0.0260 -0.1904
 5948SOL     OW23563   5.977   5.479   0.712  0.4494 -0.2582  0.3918
 5948SOL    HW223564   6.038   5.484   0.639 -0.0386  0.2025  0.0039
 5948SOL    HW323565   5.964   5.386   0.727  0.3675 -0.3571 -0.2738
 5948SOL    MW423566   5.983   5.468   0.704  0.3742 -0.2105  0.2528
 5949SOL     OW23567   4.502   0.220   4.908 -0.5460  0.6078 -0.0639
 5949SOL    HW223568   4.562   0.230   4.834 -1.3911 -0.7053 -0.9713
 5949SOL    HW323569   4.542   0.151   4.962 -0.6652  0.5265 -0.0783
 5949SOL    MW423570   4.516   0.212   4.905 -0.6733  0.4239 -0.1855
 5950SOL     OW23571   4.066   1.893   3.087 -0.4524  0.1343  0.1136
 5950SOL    HW223572   4.113   1.841   3.023 -0.8402 -0.5466  0.3732
 5950SOL    HW323573   4.009   1.951   3.035  0.4296  0.7482 -0.1900
 5950SOL    MW423574   4.064   1.894   3.072 -0.3872  0.1255  0.1078
 5951SOL     OW23575   6.092   1.158   1.561  0.1661 -0.3526 -1.0148
 5951SOL    HW223576   6.070   1.107   1.482 -0.7062  1.3095 -1.8921
 5951SOL    HW323577   6.170   1.208   1.535  0.8552 -1.0136 -0.2510
 5951SOL    MW423578   6.100   1.158   1.547  0.1419 -0.2205 -1.0298
 5952SOL     OW23579   4.821   5.335   4.655  0.1568  0.6147 -0.1043
 5952SOL    HW223580   4.916   5.329   4.642  0.1188 -0.2764 -0.0178
 5952SOL    HW323581   4.789   5.245   4.645 -0.7019  0.9300 -0.2821
 5952SOL    MW423582   4.830   5.322   4.652  0.0385  0.5387 -0.1164
 5953SOL     OW23583   1.990   3.409   2.923 -0.2932 -0.0396 -0.3900
 5953SOL    HW223584   2.003   3.503   2.913 -1.0228  0.0711 -0.3882
 5953SOL    HW323585   1.974   3.377   2.834 -3.3227  0.3895 -0.1118
 5953SOL    MW423586   1.990   3.417   2.910 -0.7892  0.0316 -0.3531
 5954SOL     OW23587   1.246   2.540   3.008 -0.0984  0.4841  0.4219
 5954SOL    HW223588   1.247   2.629   2.973  0.1041  0.7720  1.1556
 5954SOL    HW323589   1.308   2.542   3.081 -1.0670  0.0767  1.2712
 5954SOL    MW423590   1.254   2.552   3.013 -0.1995  0.4683  0.6308
 5955SOL     OW23591   4.608   0.141   3.590 -0.3811 -0.3738 -0.0065
 5955SOL    HW223592   4.611   0.119   3.683 -0.1533  0.2984  0.1545
 5955SOL    HW323593   4.674   0.210   3.579 -1.2212  0.4004 -0.4240
 5955SOL    MW423594   4.617   0.147   3.601 -0.4619 -0.1829 -0.0403
 5956SOL     OW23595   3.153   1.090   3.697 -0.0201 -0.4290  0.1953
 5956SOL    HW223596   3.210   1.133   3.634  0.1928 -0.4769  0.3528
 5956SOL    HW323597   3.187   1.117   3.783 -0.5823 -0.0038  0.2892
 5956SOL    MW423598   3.165   1.099   3.700 -0.0662 -0.3792  0.2285
 5957SOL     OW23599   5.660   1.823   2.283 -0.3603  0.2342  0.3806
 5957SOL    HW223600   5.659   1.814   2.188 -0.7032  1.0038  0.3104
 5957SOL    HW323601   5.576   1.787   2.312 -0.8266  1.2215  0.2763
 5957SOL    MW423602   5.649   1.817   2.275 -0.4670  0.4660  0.3576
 5958SOL     OW23603   0.686   4.149   6.235  0.0094 -0.3918 -0.2306
 5958SOL    HW223604   0.629   4.217   6.199  0.9859  0.3644 -0.4029
 5958SOL    HW323605   0.634   4.069   6.231  0.0072 -0.3560 -3.2279
 5958SOL    MW423606   0.672   4.147   6.230  0.1379 -0.2873 -0.6488
 5959SOL     OW23607   1.211   1.001   3.352 -0.1055 -0.1276  0.3735
 5959SOL    HW223608   1.175   0.923   3.393 -2.3307  0.5452 -0.1622
 5959SOL    HW323609   1.303   0.980   3.336 -0.0097 -1.6697  2.5233
 5959SOL    MW423610   1.219   0.988   3.355 -0.3864 -0.2423  0.5865
 5960SOL     OW23611   2.621   5.103   5.755 -0.0679 -0.2132  0.8026
 5960SOL    HW223612   2.578   5.019   5.739 -0.2655 -0.0305  0.3682
 5960SOL    HW323613   2.714   5.085   5.748 -0.0756 -0.5511  1.4582
 5960SOL    MW423614   2.628   5.090   5.752 -0.0950 -0.2336  0.8318
 5961SOL     OW23615   3.979   6.300   0.701 -0.0492 -0.1045 -0.4717
 5961SOL    HW223616   4.018   6.387   0.692  1.1274 -0.4886  0.5685
 5961SOL    HW323617   3.943   6.280   0.615  1.3163  0.6455 -1.2492
 5961SOL    MW423618   3.979   6.309   0.688  0.2862 -0.0562 -0.4370
 5962SOL     OW23619   2.535   0.579   3.125 -0.0905  0.6085 -0.1400
 5962SOL    HW223620   2.521   0.500   3.073 -2.7246  0.7451  0.2185
 5962SOL    HW323621   2.450   0.623   3.124  0.9408  2.7707  0.7964
 5962SOL    MW423622   2.522   0.575   3.118 -0.3020  0.9118  0.0308
 5963SOL     OW23623   2.740   5.900   2.660  0.7245  0.0862  0.2996
 5963SOL    HW223624   2.760   5.852   2.740  1.1636 -1.5140 -0.7266
 5963SOL    HW323625   2.680   5.970   2.688 -1.2828 -2.0155  1.6376
 5963SOL    MW423626   2.734   5.903   2.674  0.5176 -0.4022  0.3407
 5964SOL     OW23627   5.366   0.402   4.163  0.2883  0.8169  0.4077
 5964SOL    HW223628   5.364   0.335   4.095  0.1726  1.1995  0.0309
 5964SOL    HW323629   5.276   0.431   4.172  0.4742  1.5818 -0.0948
 5964SOL    MW423630   5.354   0.397   4.155  0.2976  0.9683  0.2917
 5965SOL     OW23631   2.215   2.869   5.339  0.1771  0.2763  0.6180
 5965SOL    HW223632   2.262   2.931   5.394 -1.2199  2.1969 -0.2376
 5965SOL    HW323633   2.129   2.861   5.381 -0.5380  0.9434 -0.6853
 5965SOL    MW423634   2.210   2.876   5.352 -0.1015  0.6177  0.3332
 5966SOL     OW23635   4.321   5.941   3.030 -0.5342 -0.0342 -0.3241
 5966SOL    HW223636   4.316   5.940   2.934  0.1119 -0.8793 -0.3580
 5966SOL    HW323637   4.297   5.852   3.056  0.4537 -0.1513  0.2293
 5966SOL    MW423638   4.317   5.929   3.021 -0.3186 -0.1612 -0.2556
 5967SOL     OW23639   1.875   3.250   5.340  0.4608 -0.4653 -0.2482
 5967SOL    HW223640   1.802   3.299   5.301  2.1644  1.4050 -1.2707
 5967SOL    HW323641   1.931   3.317   5.379  2.8822 -1.5413 -1.6753
 5967SOL    MW423642   1.872   3.266   5.340  1.0050 -0.3605 -0.5714
 5968SOL     OW23643   5.322   3.843   5.882 -0.3038 -0.3875  0.0627
 5968SOL    HW223644   5.368   3.770   5.925 -1.4849 -0.7682  0.7133
 5968SOL    HW323645   5.350   3.920   5.931  2.4563 -0.0507 -1.7995
 5968SOL    MW423646   5.332   3.843   5.894 -0.0955 -0.3933 -0.0971
 5969SOL     OW23647   2.857   1.458   0.159  0.3828 -0.2500  0.0972
 5969SOL    HW223648   2.921   1.392   0.187  2.6136  2.4577  1.9898
 5969SOL    HW323649   2.889   1.488   0.075  0.6413 -0.0552  0.2646
 5969SOL    MW423650   2.870   1.453   0.152  0.7112  0.1329  0.3690
 5970SOL     OW23651   5.408   2.144   6.315 -0.2623 -0.1824 -0.1542
 5970SOL    HW223652   5.472   2.215   6.320 -0.8529  0.2658  3.4583
 5970SOL    HW323653   5.461   2.064   6.325  0.1128 -0.1106 -1.4221
 5970SOL    MW423654   5.424   2.143   6.317 -0.2907 -0.1138  0.1552
 5971SOL     OW23655   0.886   5.267   1.755  0.0641 -0.5687  0.2727
 5971SOL    HW223656   0.837   5.198   1.710  1.0172 -1.3856  0.4483
 5971SOL    HW323657   0.944   5.220   1.814  2.1491  0.2836 -0.9892
 5971SOL    MW423658   0.887   5.252   1.757  0.4649 -0.5640  0.1294
 5972SOL     OW23659   3.202   5.046   3.546  0.3435  0.2313 -0.6051
 5972SOL    HW223660   3.155   5.108   3.490  1.5270  0.7581 -1.0677
 5972SOL    HW323661   3.143   4.972   3.556  0.1463  0.0478 -2.7145
 5972SOL    MW423662   3.188   5.044   3.540  0.4736  0.2766 -0.9444
 5973SOL     OW23663   6.321   1.267   2.971 -0.3553  0.1776  0.1221
 5973SOL    HW223664   6.290   1.176   2.976 -0.5500  0.2675  0.7578
 5973SOL    HW323665   6.253   1.317   3.015  0.0774  0.5452  0.3791
 5973SOL    MW423666   6.308   1.262   2.978 -0.3239  0.2380  0.2399
 5974SOL     OW23667   3.202   5.216   2.950 -0.3215 -0.0482  0.2589
 5974SOL    HW223668   3.272   5.256   3.001 -0.3938  1.4948 -0.7817
 5974SOL    HW323669   3.246   5.179   2.873 -0.3917 -1.0532  0.6918
 5974SOL    MW423670   3.217   5.217   2.947 -0.3403  0.0228  0.1787
 5975SOL     OW23671   0.101   3.577   4.437 -0.1541  0.3675 -0.3423
 5975SOL    HW223672   0.192   3.604   4.449  0.0950 -0.1606 -1.0208
 5975SOL    HW323673   0.089   3.506   4.500  0.5253 -0.9586 -1.6591
 5975SOL    MW423674   0.111   3.571   4.447 -0.0316  0.1228 -0.6055
 5976SOL     OW23675   5.135   5.393   1.194 -0.7636  0.4587  0.1479
 5976SOL    HW223676   5.090   5.402   1.278 -3.0387 -0.5463 -0.8789
 5976SOL    HW323677   5.074   5.429   1.130  0.2157 -0.2887 -1.2564
 5976SOL    MW423678   5.121   5.399   1.197 -0.9346  0.2275 -0.1728
 5977SOL     OW23679   2.903   4.490   0.120 -0.0129 -0.1070  0.1038
 5977SOL    HW223680   2.949   4.540   0.053 -1.6737 -1.3634 -2.1035
 5977SOL    HW323681   2.938   4.523   0.203  1.7516  1.8912 -1.3341
 5977SOL    MW423682   2.914   4.501   0.122  0.0008 -0.0091 -0.3771
 5978SOL     OW23683   4.650   5.719   4.902  0.0639  0.6220  0.3331
 5978SOL    HW223684   4.679   5.723   4.993  2.0976 -1.2381 -0.1328
 5978SOL    HW323685   4.595   5.641   4.898  0.6414  0.2233 -0.1497
 5978SOL    MW423686   4.647   5.709   4.913  0.4084  0.3240  0.2080
 5979SOL     OW23687   1.925   3.597   4.100 -0.4002 -0.7121 -0.4329
 5979SOL    HW223688   2.016   3.586   4.072 -0.5696 -1.9587 -0.5519
 5979SOL    HW323689   1.900   3.683   4.065  0.6824 -0.3925 -0.4915
 5979SOL    MW423690   1.934   3.607   4.092 -0.2797 -0.8344 -0.4563
 5980SOL     OW23691   1.995   1.133   2.877  0.4977  0.1320  0.4410
 5980SOL    HW223692   2.038   1.069   2.821 -1.8203 -1.5343  0.4324
 5980SOL    HW323693   1.909   1.147   2.837  0.5119  2.4637  1.0613
 5980SOL    MW423694   1.990   1.127   2.865  0.1938  0.2198  0.5217
 5981SOL     OW23695   4.105   3.687   1.187 -0.7953  0.4870 -0.0327
 5981SOL    HW223696   4.181   3.745   1.177 -0.6359  0.1113 -1.3117
 5981SOL    HW323697   4.033   3.744   1.211 -0.2335  0.9431  0.5620
 5981SOL    MW423698   4.106   3.702   1.189 -0.7001  0.4976 -0.1230
 5982SOL     OW23699   4.549   5.790   2.739  0.2258  0.0968 -0.3301
 5982SOL    HW223700   4.593   5.855   2.684  0.1832  0.2120 -0.2271
 5982SOL    HW323701   4.548   5.711   2.685  1.9209 -0.3505  0.2538
 5982SOL    MW423702   4.555   5.788   2.724  0.4439  0.0530 -0.2395
 5983SOL     OW23703   5.642   6.247   1.001  0.0294  0.2826 -0.0775
 5983SOL    HW223704   5.560   6.233   0.953  0.5766 -2.0268 -0.4437
 5983SOL    HW323705   5.711   6.233   0.937  0.7350  0.8728  0.5352
 5983SOL    MW423706   5.640   6.243   0.986  0.1947  0.0557 -0.0450
 5984SOL     OW23707   2.254   0.562   0.233  0.3512  0.5910 -0.5254
 5984SOL    HW223708   2.225   0.560   0.142 -1.1038 -0.8739 -0.0774
 5984SOL    HW323709   2.349   0.552   0.229  0.1431 -1.1199 -1.8279
 5984SOL    MW423710   2.263   0.561   0.220  0.1317  0.1720 -0.6382
 5985SOL     OW23711   3.469   3.637   5.800 -0.3801 -0.0625 -0.1214
 5985SOL    HW223712   3.448   3.574   5.730  0.5325 -0.3910 -0.1080
 5985SOL    HW323713   3.532   3.592   5.855 -1.8592 -0.2018  1.5371
 5985SOL    MW423714   3.475   3.623   5.798 -0.4548 -0.1242  0.0992
 5986SOL     OW23715   5.167   5.726   0.357  0.1979 -0.3563 -0.4221
 5986SOL    HW223716   5.221   5.663   0.309  1.0831  0.0937 -0.0353
 5986SOL    HW323717   5.213   5.809   0.348  0.2367 -0.2026  0.9338
 5986SOL    MW423718   5.180   5.728   0.350  0.3198 -0.2766 -0.1921
 5987SOL     OW23719   0.561   3.798   4.326 -0.4797 -0.2221 -0.9172
 5987SOL    HW223720   0.497   3.796   4.254 -0.8341  2.1536 -0.7546
 5987SOL    HW323721   0.627   3.733   4.301 -1.6730 -0.9590 -2.3305
 5987SOL    MW423722   0.561   3.789   4.313 -0.6839 -0.0059 -1.0822
 5988SOL     OW23723   4.944   4.430   3.245  0.1031  0.5294  0.3900
 5988SOL    HW223724   4.848   4.437   3.240 -0.0228 -1.3369 -1.6281
 5988SOL    HW323725   4.975   4.520   3.235 -1.4327  1.0257 -0.2726
 5988SOL    MW423726   4.935   4.442   3.243 -0.1162  0.3486  0.0363
 5989SOL     OW23727   0.620   6.195   3.145  0.0285  0.2293  0.0676
 5989SOL    HW223728   0.533   6.176   3.180 -0.2657 -0.2950 -0.9022
 5989SOL    HW323729   0.669   6.114   3.155  1.2716  1.1997  2.9143
 5989SOL    MW423730   0.615   6.182   3.151  0.1537  0.2882  0.3152
 5990SOL     OW23731   1.771   4.076   4.982 -0.0289 -0.0234  0.3070
 5990SOL    HW223732   1.787   3.982   4.971 -2.4251 -0.4760  0.1328
 5990SOL    HW323733   1.813   4.098   5.065  0.7162 -1.2068  0.2652
 5990SOL    MW423734   1.779   4.067   4.991 -0.2467 -0.2393  0.2785
 5991SOL     OW23735   3.598   1.019   2.653  0.4290 -0.3578  0.0875
 5991SOL    HW223736   3.572   1.076   2.726 -0.3750  0.7968 -1.0565
 5991SOL    HW323737   3.690   0.999   2.670  0.2624 -0.1001  1.4101
 5991SOL    MW423738   3.606   1.024   2.665  0.3010 -0.1714  0.1110
 5992SOL     OW23739   0.754   5.714   2.961 -0.1815 -0.0113 -0.3401
 5992SOL    HW223740   0.659   5.703   2.954 -0.2482 -0.3911  0.8651
 5992SOL    HW323741   0.784   5.630   2.997  0.8084 -0.4536 -2.0923
 5992SOL    MW423742   0.745   5.701   2.965 -0.0597 -0.1198 -0.4123
 5993SOL     OW23743   6.257   4.515   2.692 -0.1032 -0.3405  0.1090
 5993SOL    HW223744   6.312   4.566   2.751  1.8173  0.9194 -2.5361
 5993SOL    HW323745   6.182   4.571   2.674 -0.0885 -0.2249  0.4054
 5993SOL    MW423746   6.255   4.529   2.697  0.1521 -0.1590 -0.2009
 5994SOL     OW23747   6.071   2.171   3.969  0.0269 -0.2506  0.0823
 5994SOL    HW223748   6.133   2.208   3.906  0.9229  0.7404  1.5013
 5994SOL    HW323749   6.121   2.161   4.049 -1.2055 -1.0960  0.7880
 5994SOL    MW423750   6.086   2.174   3.971 -0.0175 -0.2314  0.3626
 5995SOL     OW23751   3.975   6.231   1.015  0.0105  0.0777 -0.5177
 5995SOL    HW223752   3.893   6.209   0.970  0.2855 -0.4227 -0.7890
 5995SOL    HW323753   4.028   6.273   0.948 -0.6641  2.0258  0.0995
 5995SOL    MW423754   3.971   6.234   1.000 -0.0422  0.2687 -0.4721
 5996SOL     OW23755   2.951   1.784   5.371 -0.8302 -0.1060 -0.0597
 5996SOL    HW223756   2.955   1.691   5.394  0.3598  0.0161  0.2846
 5996SOL    HW323757   2.979   1.787   5.280  2.3678  0.2001  0.8294
 5996SOL    MW423758   2.955   1.772   5.362 -0.2512 -0.0495  0.1030
 5997SOL     OW23759   5.244   1.860   3.948  0.1902 -0.3479  0.3377
 5997SOL    HW223760   5.271   1.924   4.014 -1.1466  0.8556 -0.2307
 5997SOL    HW323761   5.150   1.873   3.939  0.2288 -0.9741 -1.3015
 5997SOL    MW423762   5.236   1.870   3.956  0.0189 -0.2717  0.0465
 5998SOL     OW23763   0.155   1.006   4.859  0.2827 -0.2248 -0.0454
 5998SOL    HW223764   0.109   1.071   4.913  1.1794  0.1550  0.2663
 5998SOL    HW323765   0.135   1.032   4.769  0.4318  0.3367  0.0806
 5998SOL    MW423766   0.146   1.018   4.854  0.4207 -0.1006  0.0123
 5999SOL     OW23767   6.317   2.384   5.037 -0.2030 -0.4961  0.2771
 5999SOL    HW223768   6.399   2.431   5.022  0.4477 -1.9832 -1.0482
 5999SOL    HW323769   6.313   2.374   5.132  0.9557 -0.0694  0.3906
 5999SOL    MW423770   6.327   2.389   5.047  0.0357 -0.6360  0.1172
 6000SOL     OW23771   0.095   2.248   5.427  0.2368 -0.2714  0.5885
 6000SOL    HW223772   0.046   2.191   5.485  0.7643 -0.9779  0.3619
 6000SOL    HW323773   0.079   2.336   5.460 -1.5593 -0.4202  0.2240
 6000SOL    MW423774   0.087   2.252   5.439  0.0694 -0.3842  0.5105
 6001SOL     OW23775   2.258   5.304   2.195 -0.1076  0.3515 -0.5775
 6001SOL    HW223776   2.211   5.222   2.209 -1.0143  0.8071 -0.8485
 6001SOL    HW323777   2.318   5.286   2.123 -0.7497  0.1018 -1.0547
 6001SOL    MW423778   2.260   5.291   2.187 -0.3119  0.3787 -0.6762
 6002SOL     OW23779   0.645   4.871   3.184 -0.3250  0.0826  0.2760
 6002SOL    HW223780   0.708   4.866   3.112 -0.6898  0.6949 -0.0886
 6002SOL    HW323781   0.604   4.784   3.185  0.0470 -0.0982  0.0823
 6002SOL    MW423782   0.648   4.859   3.174 -0.3241  0.1396  0.2023
 6003SOL     OW23783   4.063   6.093   1.224  0.0733 -0.6534  0.4318
 6003SOL    HW223784   4.125   6.032   1.184  1.1457  0.2442  0.6794
 6003SOL    HW323785   4.027   6.143   1.151  0.7579 -0.1765  0.4123
 6003SOL    MW423786   4.066   6.091   1.209  0.3051 -0.4720  0.4619
 6004SOL     OW23787   6.302   4.030   2.034 -0.0606  0.3207 -0.3471
 6004SOL    HW223788   6.234   4.000   1.973  0.3081 -0.8480 -0.1956
 6004SOL    HW323789   6.342   4.105   1.989 -0.5644  0.1957 -1.0242
 6004SOL    MW423790   6.298   4.036   2.020 -0.0784  0.1500 -0.4164
 6005SOL     OW23791   3.153   2.188   4.209  0.1031  0.2349  0.0960
 6005SOL    HW223792   3.176   2.167   4.118  2.1189  1.1272  0.3320
 6005SOL    HW323793   3.081   2.250   4.202  0.5837  0.7157 -0.9490
 6005SOL    MW423794   3.147   2.193   4.196  0.4325  0.4160 -0.0107
 6006SOL     OW23795   5.519   4.515   4.282  0.2831 -0.5672 -0.2328
 6006SOL    HW223796   5.500   4.425   4.309  0.4714 -0.6370 -0.3288
 6006SOL    HW323797   5.596   4.539   4.332 -0.4310 -0.0570  0.6365
 6006SOL    MW423798   5.526   4.506   4.292  0.2138 -0.5091 -0.1308
 6007SOL     OW23799   1.549   2.986   2.963 -0.3794  0.0331  0.2578
 6007SOL    HW223800   1.576   2.901   2.927  0.4225  0.0833  0.7325
 6007SOL    HW323801   1.621   3.012   3.020  0.1352  1.7886 -1.1032
 6007SOL    MW423802   1.562   2.978   2.965 -0.2057  0.2713  0.1409
 6008SOL     OW23803   3.398   6.119   4.437  0.1352 -0.0701  0.0692
 6008SOL    HW223804   3.485   6.086   4.416 -0.1370 -1.8343  1.4998
 6008SOL    HW323805   3.404   6.146   4.529 -0.7099  0.2800  0.0355
 6008SOL    MW423806   3.410   6.118   4.446 -0.0122 -0.2567  0.2535
 6009SOL     OW23807   3.279   2.180   0.759  0.1151 -0.1925  0.0890
 6009SOL    HW223808   3.282   2.120   0.834  0.0136  0.2712  0.4667
 6009SOL    HW323809   3.212   2.244   0.782  1.7736  1.4085  0.7164
 6009SOL    MW423810   3.270   2.180   0.772  0.3205  0.0799  0.2216
 6010SOL     OW23811   4.228   2.673   0.591 -0.1481 -0.2715  0.3138
 6010SOL    HW223812   4.240   2.690   0.684 -1.0688  0.8696  0.2417
 6010SOL    HW323813   4.221   2.578   0.585 -0.3439 -0.3399  1.4474
 6010SOL    MW423814   4.229   2.663   0.603 -0.2954 -0.1300  0.4538
 6011SOL     OW23815   1.491   4.968   3.068  0.1378  0.1199 -0.7001
 6011SOL    HW223816   1.461   4.928   2.987 -1.6568 -1.4669  0.6545
 6011SOL    HW323817   1.553   4.905   3.105  0.3533  0.4708 -0.4505
 6011SOL    MW423818   1.496   4.955   3.062 -0.0705 -0.0431 -0.4885
 6012SOL     OW23819   3.740   0.768   1.643 -0.3491 -0.3185  0.2300
 6012SOL    HW223820   3.811   0.832   1.656 -0.8104  0.3256 -0.3273
 6012SOL    HW323821   3.682   0.810   1.580 -0.5689 -1.3806 -0.2957
 6012SOL    MW423822   3.742   0.782   1.637 -0.4389 -0.3737  0.0871
 6013SOL     OW23823   0.038   6.203   4.501  0.2416  0.6140  0.1451
 6013SOL    HW223824   0.106   6.205   4.568  0.7766  0.0920 -0.3733
 6013SOL    HW323825  -0.024   6.271   4.528  0.4145  0.3725  1.1924
 6013SOL    MW423826   0.039   6.213   4.514  0.3350  0.5132  0.2149
 6014SOL     OW23827   5.624   2.539   0.059  0.1668  0.5271 -0.4468
 6014SOL    HW223828   5.569   2.613   0.034  0.3581  0.5682 -0.7605
 6014SOL    HW323829   5.579   2.499   0.132  0.4685  1.4387  0.2642
 6014SOL    MW423830   5.611   2.544   0.065  0.2318  0.6528 -0.3944
 6015SOL     OW23831   4.365   2.248   4.291  0.0308  0.3196  0.0217
 6015SOL    HW223832   4.365   2.230   4.197  0.9400 -0.4364  0.1583
 6015SOL    HW323833   4.272   2.242   4.316 -0.0756 -0.8402 -0.5835
 6015SOL    MW423834   4.352   2.245   4.282  0.1367  0.0668 -0.0401
 6016SOL     OW23835   1.392   5.877   1.505  0.3968  0.4997 -0.0835
 6016SOL    HW223836   1.437   5.820   1.568 -0.4684  0.2568  0.3281
 6016SOL    HW323837   1.380   5.822   1.427 -1.7762 -0.4182  0.8359
 6016SOL    MW423838   1.397   5.862   1.503 -0.0041  0.3466  0.0921
 6017SOL     OW23839   1.589   6.459   5.404 -0.0416 -0.4599  0.5926
 6017SOL    HW223840   1.613   6.438   5.314  1.0542  3.2849 -0.1574
 6017SOL    HW323841   1.652   6.412   5.457 -0.5305 -2.5171 -0.5226
 6017SOL    MW423842   1.600   6.450   5.399  0.0385 -0.2373  0.3465
 6018SOL     OW23843   0.728   3.025   0.323  0.0062 -0.6506 -0.0103
 6018SOL    HW223844   0.730   3.092   0.391  2.4801 -0.9374  0.2646
 6018SOL    HW323845   0.711   3.073   0.242 -1.3577 -0.1234  0.5521
 6018SOL    MW423846   0.726   3.040   0.321  0.1527 -0.6189  0.1002
 6019SOL     OW23847   1.520   5.590   5.172  0.8074 -0.1457 -0.0467
 6019SOL    HW223848   1.483   5.615   5.257 -0.6441 -1.1871 -0.3245
 6019SOL    HW323849   1.493   5.660   5.113 -1.7648 -1.3759 -0.4659
 6019SOL    MW423850   1.511   5.603   5.175  0.2765 -0.4454 -0.1387
 6020SOL     OW23851   2.252   0.746   4.809  0.3537  0.1744  0.1570
 6020SOL    HW223852   2.303   0.667   4.790  3.2507  1.5277  1.7295
 6020SOL    HW323853   2.289   0.812   4.751  0.4026  1.2218  1.3615
 6020SOL    MW423854   2.264   0.744   4.799  0.7424  0.4911  0.5234
 6021SOL     OW23855   2.387   4.801   0.629 -0.1285  0.1211 -0.1151
 6021SOL    HW223856   2.373   4.895   0.637 -0.8787 -0.1792  3.9598
 6021SOL    HW323857   2.455   4.781   0.693  1.7983 -1.8980 -2.5800
 6021SOL    MW423858   2.394   4.811   0.638  0.0267 -0.1849  0.0973
 6022SOL     OW23859   3.674   6.462   3.970 -0.6554  0.0946  1.2395
 6022SOL    HW223860   3.717   6.377   3.959 -0.4333  0.1062  1.9878
 6022SOL    HW323861   3.709   6.497   4.052 -0.5021  1.0591  0.7869
 6022SOL    MW423862   3.684   6.456   3.979 -0.6059  0.2234  1.2785
 6023SOL     OW23863   1.064   4.935   2.622  0.3300 -0.0271  0.1230
 6023SOL    HW223864   0.971   4.957   2.629 -0.1876 -1.5201 -1.2949
 6023SOL    HW323865   1.094   4.929   2.713 -1.0045  0.3009  0.6161
 6023SOL    MW423866   1.055   4.937   2.635  0.0856 -0.1808  0.0010
 6024SOL     OW23867   5.480   3.331   2.789 -0.7202  0.1336 -0.0191
 6024SOL    HW223868   5.443   3.374   2.866 -1.5107  1.1196 -0.9085
 6024SOL    HW323869   5.431   3.248   2.782 -0.2862 -0.2049  0.8107
 6024SOL    MW423870   5.468   3.326   2.798 -0.7673  0.2190 -0.0270
 6025SOL     OW23871   6.228   0.860   1.879  0.4832 -0.1115  0.9469
 6025SOL    HW223872   6.236   0.766   1.862 -0.4341 -0.1995  0.9705
 6025SOL    HW323873   6.247   0.870   1.972  1.9317 -0.0895  0.6698
 6025SOL    MW423874   6.232   0.849   1.889  0.5533 -0.1202  0.9134
 6026SOL     OW23875   4.798   2.593   5.309 -0.6396  0.0206 -0.0364
 6026SOL    HW223876   4.816   2.570   5.217  2.1362  0.6333  0.2589
 6026SOL    HW323877   4.766   2.683   5.305 -0.3775  0.1008 -0.3936
 6026SOL    MW423878   4.796   2.602   5.296 -0.2388  0.1121 -0.0446
 6027SOL     OW23879   6.126   5.753   3.642 -0.0186 -0.2685  0.3248
 6027SOL    HW223880   6.146   5.773   3.734  0.2378 -1.7083  0.6140
 6027SOL    HW323881   6.128   5.658   3.638 -2.6069 -0.3474 -0.6240
 6027SOL    MW423882   6.129   5.743   3.654 -0.3262 -0.4688  0.2378
 6028SOL     OW23883   4.982   5.478   0.975  0.0769 -0.3989 -0.6021
 6028SOL    HW223884   5.046   5.525   0.920 -0.6162  0.4266 -0.7171
 6028SOL    HW323885   4.898   5.496   0.933 -0.3672 -0.4532  0.2608
 6028SOL    MW423886   4.979   5.487   0.962 -0.0731 -0.2971 -0.5034
 6029SOL     OW23887   6.277   6.149   2.317 -0.2883 -0.1467 -0.2884
 6029SOL    HW223888   6.365   6.114   2.308 -0.0404  0.6947 -1.2635
 6029SOL    HW323889   6.266   6.161   2.412  1.6545  2.1975 -0.2627
 6029SOL    MW423890   6.287   6.146   2.329  0.0007  0.2736 -0.4136
 6030SOL     OW23891   6.021   4.292   2.725 -0.4583 -0.3500  0.0235
 6030SOL    HW223892   6.004   4.273   2.633  1.2183 -0.3772 -0.3276
 6030SOL    HW323893   6.093   4.356   2.723  0.0472 -0.8322  1.3016
 6030SOL    MW423894   6.029   4.298   2.713 -0.1704 -0.4172  0.1458
 6031SOL     OW23895   0.685   3.960   3.886 -0.5633 -0.5782 -0.1573
 6031SOL    HW223896   0.629   3.981   3.811 -0.0524 -2.8425 -1.2655
 6031SOL    HW323897   0.649   3.879   3.921 -0.4152  0.1217  1.7014
 6031SOL    MW423898   0.673   3.952   3.881 -0.4763 -0.7846 -0.0583
 6032SOL     OW23899   1.772   5.566   2.197 -0.0637  0.4388  0.8025
 6032SOL    HW223900   1.708   5.558   2.126  0.1755 -1.6972  0.7612
 6032SOL    HW323901   1.730   5.522   2.271  0.6067  0.6619  1.3139
 6032SOL    MW423902   1.758   5.559   2.197  0.0563  0.1864  0.8645
 6033SOL     OW23903   5.710   2.167   0.644  0.0126  0.2706 -0.2617
 6033SOL    HW223904   5.680   2.077   0.635 -0.4819  0.2812  1.0913
 6033SOL    HW323905   5.804   2.164   0.626  0.6850 -1.1097  2.8461
 6033SOL    MW423906   5.718   2.155   0.640  0.0361  0.0898  0.3269
 6034SOL     OW23907   4.055   3.003   3.372 -0.1095  0.2992 -0.3710
 6034SOL    HW223908   4.139   3.049   3.373 -0.2085  0.4814 -0.6505
 6034SOL    HW323909   4.041   2.978   3.464 -0.0448  0.7960 -0.2253
 6034SOL    MW423910   4.065   3.006   3.385 -0.1140  0.3888 -0.3887
 6035SOL     OW23911   0.243   2.427   1.141  0.3031 -0.0311  0.1160
 6035SOL    HW223912   0.238   2.388   1.053  1.7154  1.0601 -0.4712
 6035SOL    HW323913   0.300   2.503   1.131 -0.3249  0.7050  1.7834
 6035SOL    MW423914   0.250   2.432   1.128  0.4066  0.2100  0.2585
 6036SOL     OW23915   0.615   3.078   4.441  0.1051 -0.0327  0.2959
 6036SOL    HW223916   0.634   3.155   4.389 -0.0547  0.4271  0.9112
 6036SOL    HW323917   0.555   3.027   4.386  0.9568 -0.1931 -0.5084
 6036SOL    MW423918   0.609   3.081   4.427  0.1964  0.0068  0.2710
 6037SOL     OW23919   5.927   3.691   2.583  1.0969 -0.0764  0.4787
 6037SOL    HW223920   5.933   3.766   2.643 -0.0858  0.4179  0.0033
 6037SOL    HW323921   5.833   3.672   2.579  1.3846 -1.6370  0.6398
 6037SOL    MW423922   5.915   3.698   2.591  0.9788 -0.2171  0.4372
 6038SOL     OW23923   2.690   3.415   4.343  0.9348  0.4243  0.8308
 6038SOL    HW223924   2.607   3.408   4.297  2.2485  1.2722 -1.8289
 6038SOL    HW323925   2.718   3.324   4.356  0.1973  0.1642  0.6298
 6038SOL    MW423926   2.683   3.402   4.339  1.0108  0.5019  0.4534
 6039SOL     OW23927   5.262   1.443   1.538 -0.6096 -0.0659 -0.2379
 6039SOL    HW223928   5.352   1.450   1.504 -0.8867  0.8383 -0.8208
 6039SOL    HW323929   5.228   1.363   1.498 -0.2038 -0.1772 -0.3674
 6039SOL    MW423930   5.269   1.433   1.528 -0.5926  0.0387 -0.3319
 6040SOL     OW23931   3.460   0.902   2.990 -0.2506  0.1535  0.2509
 6040SOL    HW223932   3.475   0.821   2.940  0.3376  0.4088  0.0090
 6040SOL    HW323933   3.547   0.932   3.013 -0.4662  0.7576  0.2871
 6040SOL    MW423934   3.473   0.895   2.986 -0.2015  0.2669  0.2237
 6041SOL     OW23935   5.368   3.971   2.567  0.6663  0.3317 -0.2801
 6041SOL    HW223936   5.437   4.029   2.535  0.3567  1.3049  0.7510
 6041SOL    HW323937   5.335   3.927   2.489  1.3293  1.0769 -0.9983
 6041SOL    MW423938   5.373   3.973   2.553  0.7129  0.5584 -0.2389
 6042SOL     OW23939   1.135   1.961   3.291 -0.1450  0.1939  0.8706
 6042SOL    HW223940   1.150   1.867   3.289 -1.7555 -0.0812 -0.2012
 6042SOL    HW323941   1.093   1.978   3.375  0.1484 -0.0451  1.0633
 6042SOL    MW423942   1.131   1.951   3.302 -0.3187  0.1260  0.7546
 6043SOL     OW23943   3.569   0.904   1.889 -0.9268  0.2997  0.2130
 6043SOL    HW223944   3.626   0.877   1.817  0.2165  0.7535  0.9214
 6043SOL    HW323945   3.482   0.875   1.863 -0.1063 -2.1868 -0.0221
 6043SOL    MW423946   3.565   0.897   1.876 -0.6677  0.0315  0.2754
 6044SOL     OW23947   5.571   3.941   1.092 -0.6879 -0.1422  0.0425
 6044SOL    HW223948   5.493   3.935   1.037 -1.1506 -0.3197  0.7139
 6044SOL    HW323949   5.606   3.852   1.094 -0.2979 -0.0087 -0.4890
 6044SOL    MW423950   5.566   3.928   1.085 -0.6975 -0.1480  0.0609
 6045SOL     OW23951   1.046   5.805   0.106  0.4616 -0.0123  0.2991
 6045SOL    HW223952   1.099   5.812   0.185  0.2098 -0.3390  0.4977
 6045SOL    HW323953   0.984   5.735   0.125  0.3245 -0.0123 -0.1435
 6045SOL    MW423954   1.045   5.797   0.119  0.4103 -0.0554  0.2669
 6046SOL     OW23955   5.671   5.888   4.888  0.6495 -0.3146 -0.6136
 6046SOL    HW223956   5.686   5.803   4.929  0.5877 -0.4319 -0.8318
 6046SOL    HW323957   5.578   5.888   4.866  1.1042 -1.2166 -2.8663
 6046SOL    MW423958   5.661   5.877   4.891  0.7014 -0.4491 -0.9396
 6047SOL     OW23959   3.740   5.746   3.662 -0.0297 -0.1470 -0.1235
 6047SOL    HW223960   3.785   5.804   3.601  1.5374 -0.6022  0.5527
 6047SOL    HW323961   3.739   5.661   3.617  0.1474 -0.2296  0.0274
 6047SOL    MW423962   3.746   5.742   3.648  0.2004 -0.2180 -0.0144
 6048SOL     OW23963   2.257   5.770   5.024 -0.0530  0.0965 -0.3993
 6048SOL    HW223964   2.306   5.790   4.944 -0.5172 -1.1853 -1.0130
 6048SOL    HW323965   2.237   5.677   5.018 -0.2460  0.0163  1.1369
 6048SOL    MW423966   2.261   5.761   5.013 -0.1397 -0.0832 -0.2776
 6049SOL     OW23967   2.764   2.860   0.262  0.0873 -0.1328 -0.4181
 6049SOL    HW223968   2.705   2.832   0.191 -1.2223  0.6269  0.3270
 6049SOL    HW323969   2.719   2.832   0.342  0.0111  1.7085  0.2316
 6049SOL    MW423970   2.750   2.852   0.263 -0.0956  0.2104 -0.2341
 6050SOL     OW23971   5.300   1.595   4.188 -0.5368 -0.7800  0.0668
 6050SOL    HW223972   5.277   1.669   4.132 -0.8832 -1.3096 -0.5057
 6050SOL    HW323973   5.299   1.631   4.277  0.4517  0.1654 -0.2938
 6050SOL    MW423974   5.297   1.609   4.192 -0.4521 -0.7252 -0.0563
 6051SOL     OW23975   0.855   5.340   2.816 -0.3979 -0.0828  0.3807
 6051SOL    HW223976   0.815   5.376   2.895  0.7581 -0.0049  0.9508
 6051SOL    HW323977   0.906   5.412   2.780 -1.4802  0.1041 -0.8642
 6051SOL    MW423978   0.856   5.354   2.822 -0.3882 -0.0479  0.2917
 6052SOL     OW23979   5.586   5.200   5.839  0.1183  0.9409  0.2329
 6052SOL    HW223980   5.665   5.171   5.884  0.6270  1.7100 -0.1521
 6052SOL    HW323981   5.528   5.230   5.909  0.7891  1.8544  0.4147
 6052SOL    MW423982   5.589   5.200   5.854  0.2739  1.1629  0.2061
 6053SOL     OW23983   1.678   2.407   3.937  0.2246 -0.3198 -0.3903
 6053SOL    HW223984   1.614   2.469   3.972  0.3668 -0.2702 -0.2197
 6053SOL    HW323985   1.721   2.455   3.866 -0.2962 -0.5329 -0.8638
 6053SOL    MW423986   1.675   2.421   3.932  0.1746 -0.3414 -0.4302
 6054SOL     OW23987   5.698   3.178   5.070 -0.2097  0.7830 -0.2636
 6054SOL    HW223988   5.684   3.117   4.997 -3.4321  1.5333 -0.4137
 6054SOL    HW323989   5.706   3.263   5.027 -2.2327  1.2423  0.1752
 6054SOL    MW423990   5.697   3.181   5.055 -0.9018  0.9426 -0.2255
 6055SOL     OW23991   2.875   2.803   1.336 -0.2961  0.1940 -0.5251
 6055SOL    HW223992   2.801   2.851   1.373 -0.9100 -0.7886 -0.4535
 6055SOL    HW323993   2.893   2.848   1.253 -0.3690  0.9965 -0.1216
 6055SOL    MW423994   2.868   2.815   1.330 -0.3867  0.1702 -0.4625
 6056SOL     OW23995   5.052   5.846   0.902 -0.2529 -0.0965  0.6330
 6056SOL    HW223996   5.100   5.905   0.959 -0.9161 -0.1695  1.2834
 6056SOL    HW323997   4.976   5.819   0.954 -1.6508  0.9713 -0.7704
 6056SOL    MW423998   5.048   5.850   0.916 -0.5249  0.0347  0.5337
 6057SOL     OW23999   5.380   2.686   6.412  0.0980  0.0688  0.5248
 6057SOL    HW224000   5.306   2.627   6.421  0.2825  0.0905  2.8237
 6057SOL    HW324001   5.344   2.773   6.429  0.1082  0.5104 -1.4194
 6057SOL    MW424002   5.366   2.690   6.415  0.1237  0.1300  0.5716
 6058SOL     OW24003   4.132   4.432   1.822  0.6239 -0.1334 -0.4497
 6058SOL    HW224004   4.146   4.526   1.836  0.8494  0.1660 -2.3712
 6058SOL    HW324005   4.220   4.397   1.807  0.2805  0.1660 -3.8934
 6058SOL    MW424006   4.145   4.440   1.822  0.6083 -0.0544 -1.1576
 6059SOL     OW24007   5.733   6.324   5.315 -0.4483 -0.2918 -0.2539
 6059SOL    HW224008   5.661   6.357   5.368 -0.5574 -1.1711  0.1655
 6059SOL    HW324009   5.704   6.336   5.225  0.2720  2.4078 -0.1964
 6059SOL    MW424010   5.720   6.330   5.310 -0.3677 -0.0517 -0.1910
 6060SOL     OW24011   2.089   1.549   0.586  0.1898  0.3673  0.2642
 6060SOL    HW224012   2.076   1.572   0.678 -0.2546  1.3012 -0.0248
 6060SOL    HW324013   2.000   1.537   0.552  0.3643 -0.2926  0.0324
 6060SOL    MW424014   2.075   1.550   0.594  0.1542  0.4035  0.1954
 6061SOL     OW24015   2.725   6.237   0.748 -0.0007  0.3008  0.0463
 6061SOL    HW224016   2.629   6.246   0.743  0.0718  1.5029  0.4530
 6061SOL    HW324017   2.745   6.162   0.692 -1.1897 -0.0023  0.0043
 6061SOL    MW424018   2.715   6.228   0.740 -0.1480  0.4194  0.0944
 6062SOL     OW24019   5.173   6.080   3.580  0.3186  0.0561  0.4021
 6062SOL    HW224020   5.107   6.015   3.558 -0.0354  0.8899 -1.1346
 6062SOL    HW324021   5.155   6.154   3.522  1.3856  1.0954  1.3297
 6062SOL    MW424022   5.162   6.081   3.570  0.4127  0.3033  0.3217
 6063SOL     OW24023   5.117   0.515   0.125 -0.4678  0.5982 -0.0492
 6063SOL    HW224024   5.068   0.523   0.043 -2.2616  0.9748  0.9994
 6063SOL    HW324025   5.100   0.426   0.154 -0.2890  0.6403  0.1865
 6063SOL    MW424026   5.108   0.504   0.118 -0.6809  0.6534  0.1202
 6064SOL     OW24027   0.109   5.575   2.592  0.0346  0.0870  0.3126
 6064SOL    HW224028   0.064   5.631   2.529 -0.5980  0.8494  1.4093
 6064SOL    HW324029   0.104   5.487   2.554 -2.4885  0.1185  0.3768
 6064SOL    MW424030   0.102   5.571   2.579 -0.3817  0.1917  0.4658
 6065SOL     OW24031   4.760   3.408   5.943  0.1277 -0.0256 -0.0187
 6065SOL    HW224032   4.808   3.330   5.970 -1.9492 -1.7094 -0.9323
 6065SOL    HW324033   4.794   3.429   5.856  0.7514  0.1728  0.2667
 6065SOL    MW424034   4.771   3.401   5.935 -0.0641 -0.2216 -0.1016
 6066SOL     OW24035   4.509   3.513   3.821 -0.4496 -0.3048 -0.0970
 6066SOL    HW224036   4.485   3.422   3.805  0.7934 -0.4790 -1.1333
 6066SOL    HW324037   4.555   3.540   3.742 -1.2012  1.3856 -0.0049
 6066SOL    MW424038   4.512   3.505   3.809 -0.3848 -0.1047 -0.2215
 6067SOL     OW24039   2.449   1.055   5.606  0.0569  0.2381  0.3504
 6067SOL    HW224040   2.384   1.052   5.677  1.2025  2.2793  1.6029
 6067SOL    HW324041   2.424   0.984   5.548 -1.9057 -0.5189  1.9750
 6067SOL    MW424042   2.437   1.045   5.608 -0.0509  0.4076  0.7300
 6068SOL     OW24043   0.726   5.204   5.407  0.0181 -0.0060  0.0429
 6068SOL    HW224044   0.784   5.138   5.446 -2.3857 -0.6518  2.8836
 6068SOL    HW324045   0.696   5.163   5.326  1.6091 -0.6678 -0.2604
 6068SOL    MW424046   0.730   5.190   5.402 -0.0891 -0.1785  0.3776
 6069SOL     OW24047   0.610   3.961   0.953  0.0924  0.0239 -0.5125
 6069SOL    HW224048   0.529   3.935   0.908  0.6751  0.1938 -1.7070
 6069SOL    HW324049   0.669   3.988   0.882  0.1754  2.8251  0.4966
 6069SOL    MW424050   0.607   3.961   0.938  0.1803  0.4159 -0.5370
 6070SOL     OW24051   2.035   5.034   4.482  0.6878 -0.4228 -0.1768
 6070SOL    HW224052   2.046   4.940   4.496  3.6862 -0.4296 -1.6864
 6070SOL    HW324053   2.071   5.049   4.395  0.7845  2.2007  0.2465
 6070SOL    MW424054   2.041   5.024   4.473  1.0961 -0.0776 -0.3201
 6071SOL     OW24055   4.007   2.554   1.837  0.1068 -0.5044 -0.1631
 6071SOL    HW224056   4.093   2.516   1.854 -0.0634 -0.4299  0.9406
 6071SOL    HW324057   3.997   2.549   1.742  1.0828 -1.0403 -0.2515
 6071SOL    MW424058   4.017   2.548   1.826  0.2131 -0.5653 -0.0291
 6072SOL     OW24059   3.493   0.207   1.174 -0.1462  0.4881 -0.1544
 6072SOL    HW224060   3.403   0.207   1.207  0.1715  0.0868  0.7099
 6072SOL    HW324061   3.540   0.266   1.232  0.3763 -0.0771  0.0042
 6072SOL    MW424062   3.487   0.215   1.186 -0.0353  0.3606 -0.0194
 6073SOL     OW24063   0.512   3.980   5.651  0.3647  0.5100 -0.3195
 6073SOL    HW224064   0.597   3.938   5.659  0.0537  0.0292  0.6577
 6073SOL    HW324065   0.505   4.036   5.728  0.0490  1.0098 -0.7090
 6073SOL    MW424066   0.522   3.982   5.662  0.2820  0.5125 -0.2419
 6074SOL     OW24067   1.026   1.398   0.719 -0.0893  0.0466  1.2037
 6074SOL    HW224068   1.001   1.400   0.811 -1.8727  0.6057  0.7575
 6074SOL    HW324069   1.077   1.478   0.706 -0.8643  0.6015  1.4753
 6074SOL    MW424070   1.029   1.409   0.729 -0.4268  0.1936  1.1807
 6075SOL     OW24071   6.352   2.460   1.114 -0.4747 -0.0491  0.4305
 6075SOL    HW224072   6.404   2.495   1.186  0.7722  0.4518 -0.6705
 6075SOL    HW324073   6.386   2.505   1.036 -1.3058 -1.0852 -0.5570
 6075SOL    MW424074   6.363   2.471   1.113 -0.4199 -0.1197  0.1549
 6076SOL     OW24075   5.634   2.365   6.273 -0.0769 -0.0606  0.4909
 6076SOL    HW224076   5.719   2.322   6.287 -0.4625 -0.7395  0.7552
 6076SOL    HW324077   5.621   2.417   6.352  0.2629  0.3500  0.2857
 6076SOL    MW424078   5.644   2.366   6.285 -0.0829 -0.0960  0.4987
 6077SOL     OW24079   3.874   3.581   0.803  0.7063  0.0527 -0.3048
 6077SOL    HW224080   3.968   3.589   0.790  0.8246  0.8400  0.9198
 6077SOL    HW324081   3.835   3.626   0.728  1.3249  1.5957  0.2786
 6077SOL    MW424082   3.881   3.588   0.791  0.8035  0.3602 -0.0662
 6078SOL     OW24083   2.887   4.272   0.786 -0.7479 -0.4084  0.7691
 6078SOL    HW224084   2.802   4.229   0.776  0.1303 -1.8935 -0.9896
 6078SOL    HW324085   2.948   4.215   0.739  1.0225  1.2315  0.9562
 6078SOL    MW424086   2.884   4.259   0.778 -0.3984 -0.3880  0.5618
 6079SOL     OW24087   0.862   6.225   2.543  0.4731  0.3670 -0.4450
 6079SOL    HW224088   0.873   6.216   2.448  0.8103 -2.4484 -0.2459
 6079SOL    HW324089   0.767   6.228   2.555  0.3121 -1.6432 -0.8143
 6079SOL    MW424090   0.851   6.224   2.532  0.4964 -0.2697 -0.4675
 6080SOL     OW24091   3.502   4.640   0.394 -0.0674  0.8266 -0.0257
 6080SOL    HW224092   3.569   4.590   0.347 -0.1722 -0.1994  0.8813
 6080SOL    HW324093   3.524   4.628   0.487 -0.5501  1.8345  0.2264
 6080SOL    MW424094   3.514   4.632   0.400 -0.1449  0.8242  0.1272
 6081SOL     OW24095   0.045   4.519   3.891  0.1319 -0.1976 -0.3075
 6081SOL    HW224096   0.024   4.436   3.935  1.7571 -0.7479 -0.4928
 6081SOL    HW324097   0.047   4.584   3.961  1.4478 -0.8332  0.2933
 6081SOL    MW424098   0.043   4.516   3.906  0.5199 -0.3541 -0.2527
 6082SOL     OW24099   2.640   3.369   2.486  0.1054 -0.6344  0.7784
 6082SOL    HW224100   2.575   3.426   2.446 -0.2225 -0.5060  1.4842
 6082SOL    HW324101   2.673   3.418   2.561  1.7670 -0.2665 -0.1386
 6082SOL    MW424102   2.636   3.383   2.491  0.2814 -0.5689  0.7505
 6083SOL     OW24103   1.220   0.315   3.259  0.0298 -0.0785  0.1763
 6083SOL    HW224104   1.128   0.330   3.283 -0.5068  0.7541 -2.0924
 6083SOL    HW324105   1.257   0.267   3.333 -2.3760 -0.9208  0.9263
 6083SOL    MW424106   1.212   0.311   3.272 -0.3584 -0.0798 -0.0241
 6084SOL     OW24107   2.265   4.449   1.765  0.1969  0.1364  0.4132
 6084SOL    HW224108   2.269   4.503   1.685  1.0821 -0.5946 -0.0465
 6084SOL    HW324109   2.233   4.364   1.735  1.0855 -0.3210  0.7390
 6084SOL    MW424110   2.261   4.445   1.750  0.4309 -0.0204  0.3956
 6085SOL     OW24111   3.935   5.828   1.014 -0.3811 -0.2845  0.1291
 6085SOL    HW224112   3.930   5.901   0.953 -0.5034  0.8505  1.4491
 6085SOL    HW324113   3.844   5.800   1.025 -0.5145  0.3719  0.7748
 6085SOL    MW424114   3.922   5.834   1.008 -0.4149 -0.0482  0.3884
 6086SOL     OW24115   0.455   4.642   4.246 -0.2903 -0.2031  0.5006
 6086SOL    HW224116   0.369   4.613   4.277 -1.2288  2.7581  1.0459
 6086SOL    HW324117   0.447   4.738   4.240  2.8865  0.1587  0.2454
 6086SOL    MW424118   0.443   4.651   4.249  0.0050  0.2354  0.5389
 6087SOL     OW24119   0.160   3.972   5.588 -0.5683  0.1816 -0.3386
 6087SOL    HW224120   0.234   4.031   5.572 -1.1394  0.6516 -1.3806
 6087SOL    HW324121   0.138   3.986   5.680 -0.4138  1.2965 -0.4519
 6087SOL    MW424122   0.166   3.982   5.598 -0.6232  0.3907 -0.4910
 6088SOL     OW24123   0.884   6.245   4.393  0.8052  0.4837  0.0723
 6088SOL    HW224124   0.797   6.228   4.358  1.6990 -1.7016 -1.3608
 6088SOL    HW324125   0.877   6.227   4.486 -0.2743  0.2283 -0.0494
 6088SOL    MW424126   0.872   6.240   4.400  0.7807  0.1617 -0.1329
 6089SOL     OW24127   2.774   5.159   5.006 -0.1336 -0.1661  0.5159
 6089SOL    HW224128   2.819   5.103   5.069 -0.7608  0.9771  2.0132
 6089SOL    HW324129   2.681   5.142   5.021 -0.3054  0.5508  0.3093
 6089SOL    MW424130   2.767   5.149   5.016 -0.2390  0.0793  0.6862
 6090SOL     OW24131   5.221   4.699   2.587 -0.1758  0.1881  0.6774
 6090SOL    HW224132   5.180   4.652   2.514 -0.0098  1.3070 -0.1614
 6090SOL    HW324133   5.293   4.747   2.548 -0.1925  0.9566  1.5519
 6090SOL    MW424134   5.225   4.699   2.573 -0.1561  0.4371  0.6821
 6091SOL     OW24135   3.384   1.561   5.017  0.1820 -0.1457 -0.1091
 6091SOL    HW224136   3.409   1.470   5.002 -0.7046 -0.4471  0.2586
 6091SOL    HW324137   3.457   1.597   5.068  1.2104 -0.2516 -1.4242
 6091SOL    MW424138   3.397   1.554   5.022  0.2007 -0.1995 -0.2341
 6092SOL     OW24139   2.096   5.207   5.996  0.9176 -0.5379 -0.0813
 6092SOL    HW224140   2.123   5.175   6.082  1.7380  0.1200 -0.0821
 6092SOL    HW324141   2.150   5.285   5.981 -0.8965  0.7783 -0.1485
 6092SOL    MW424142   2.107   5.213   6.005  0.7865 -0.2774 -0.0903
 6093SOL     OW24143   5.449   6.182   4.915  0.1721 -0.5739 -0.1096
 6093SOL    HW224144   5.410   6.119   4.976 -1.5000  1.4423  1.1034
 6093SOL    HW324145   5.383   6.252   4.909  2.8847  2.2863  0.6932
 6093SOL    MW424146   5.435   6.183   4.923  0.3094  0.0695  0.1564
 6094SOL     OW24147   1.518   0.959   1.300 -0.7061 -0.0763  0.5741
 6094SOL    HW224148   1.461   0.888   1.271 -2.2014  1.4498 -0.3911
 6094SOL    HW324149   1.528   0.945   1.394 -0.4427 -1.8776  0.3259
 6094SOL    MW424150   1.512   0.947   1.309 -0.8687 -0.1126  0.4140
 6095SOL     OW24151   2.096   4.354   6.042  0.5449  0.0347  0.2907
 6095SOL    HW224152   2.115   4.277   5.989  0.6360  1.3197 -1.6649
 6095SOL    HW324153   2.082   4.424   5.978 -3.0776  0.9412  1.7927
 6095SOL    MW424154   2.097   4.353   6.027  0.0790  0.3238  0.2308
 6096SOL     OW24155   2.406   4.903   4.962  0.0490 -0.6503 -0.0317
 6096SOL    HW224156   2.428   4.992   4.991  0.2952 -1.2512  1.7111
 6096SOL    HW324157   2.488   4.869   4.925  0.3638 -0.6863  0.6966
 6096SOL    MW424158   2.420   4.910   4.961  0.1230 -0.7343  0.2944
 6097SOL     OW24159   3.588   0.978   0.439  0.1328  0.4654 -0.2216
 6097SOL    HW224160   3.618   0.888   0.427 -0.5829  0.3875 -1.5840
 6097SOL    HW324161   3.659   1.020   0.487  0.8887 -0.5832 -0.3716
 6097SOL    MW424162   3.601   0.971   0.444  0.1381  0.3168 -0.4211
 6098SOL     OW24163   3.160   2.640   3.952 -0.0650  0.0479  0.3988
 6098SOL    HW224164   3.188   2.610   3.865 -0.5774  1.1470 -0.1674
 6098SOL    HW324165   3.227   2.704   3.978 -1.0222  1.3368 -0.1695
 6098SOL    MW424166   3.172   2.645   3.944 -0.2589  0.3630  0.2491
 6099SOL     OW24167   2.653   3.635   0.057 -0.3777  0.5419  0.2560
 6099SOL    HW224168   2.632   3.688   0.134 -0.6297 -0.1128  0.6488
 6099SOL    HW324169   2.582   3.652  -0.005 -1.5312 -0.7919  1.1378
 6099SOL    MW424170   2.641   3.644   0.059 -0.5632  0.2796  0.4242
 6100SOL     OW24171   6.033   3.075   2.392  0.1472 -0.4033  0.5612
 6100SOL    HW224172   6.048   3.086   2.486 -0.5210 -1.9280  0.8724
 6100SOL    HW324173   6.049   2.982   2.376  0.4832 -0.1210 -0.8922
 6100SOL    MW424174   6.037   3.064   2.402  0.1034 -0.5672  0.4105
 6101SOL     OW24175   4.793   4.321   3.879  0.1431  0.1126  0.5834
 6101SOL    HW224176   4.748   4.237   3.881 -0.2892  0.3485  1.4053
 6101SOL    HW324177   4.868   4.308   3.821 -0.7998 -0.3832 -0.5430
 6101SOL    MW424178   4.797   4.308   3.872 -0.0384  0.0783  0.5432
 6102SOL     OW24179   5.312   3.814   2.327 -0.2759  0.3178  0.5892
 6102SOL    HW224180   5.269   3.881   2.274  0.5994  0.4753  0.0482
 6102SOL    HW324181   5.333   3.744   2.266  1.1403  0.6884  0.5938
 6102SOL    MW424182   5.309   3.814   2.312  0.0264  0.3875  0.5184
 6103SOL     OW24183   3.979   2.235   0.113  0.0570  0.6097  0.1588
 6103SOL    HW224184   3.962   2.221   0.206  0.9842 -0.1950  0.2254
 6103SOL    HW324185   3.904   2.197   0.068  0.1962 -0.1374  0.5436
 6103SOL    MW424186   3.967   2.228   0.119  0.1977  0.4050  0.2183
 6104SOL     OW24187   5.346   5.288   3.198 -0.3289 -0.1039  0.0338
 6104SOL    HW224188   5.314   5.370   3.235  1.8179  0.3832  0.9752
 6104SOL    HW324189   5.318   5.220   3.260 -0.9058  0.0970 -0.0092
 6104SOL    MW424190   5.338   5.290   3.211 -0.1218 -0.0131  0.1523
 6105SOL     OW24191   1.434   4.664   0.222 -0.1903 -0.2163  0.4538
 6105SOL    HW224192   1.376   4.647   0.297  1.5215  0.3504  1.9763
 6105SOL    HW324193   1.486   4.740   0.249  0.3228  0.1440 -1.4261
 6105SOL    MW424194   1.433   4.672   0.235  0.1032 -0.0940  0.4067
 6106SOL     OW24195   4.477   0.182   0.251  0.0016 -0.3390  0.1305
 6106SOL    HW224196   4.527   0.117   0.298  0.6282  1.2619  1.7765
 6106SOL    HW324197   4.510   0.266   0.282 -0.6776  0.8096 -1.9983
 6106SOL    MW424198   4.488   0.185   0.261 -0.0054  0.0237  0.0668
 6107SOL     OW24199   0.566   5.769   4.080  0.6049  0.1783 -0.1637
 6107SOL    HW224200   0.629   5.697   4.070 -0.3509 -0.7674  0.3491
 6107SOL    HW324201   0.611   5.833   4.135  0.6279 -1.1508  1.4565
 6107SOL    MW424202   0.580   5.768   4.086  0.4818 -0.1218  0.1177
 6108SOL     OW24203   5.013   3.492   1.278 -0.2552  0.4603  0.0961
 6108SOL    HW224204   5.001   3.579   1.240 -0.6530  0.4017  0.0910
 6108SOL    HW324205   4.926   3.465   1.304  0.1065  0.8350  1.8067
 6108SOL    MW424206   5.000   3.500   1.276 -0.2600  0.5020  0.3211
 6109SOL     OW24207   3.490   0.181   5.238  0.3523  0.1381 -0.9366
 6109SOL    HW224208   3.570   0.211   5.280  0.5207  0.4097 -1.4453
 6109SOL    HW324209   3.477   0.092   5.271  0.3656  0.4172 -0.1549
 6109SOL    MW424210   3.499   0.174   5.248  0.3763  0.2108 -0.9006
 6110SOL     OW24211   0.306   4.082   0.655  0.0826  0.2629 -0.4013
 6110SOL    HW224212   0.324   3.988   0.646  1.4533  0.5159 -0.4335
 6110SOL    HW324213   0.214   4.090   0.630 -0.0127 -1.0493 -0.5685
 6110SOL    MW424214   0.296   4.071   0.650  0.2509  0.1231 -0.4276
 6111SOL     OW24215   5.379   4.224   1.078 -0.0460  0.1494 -0.2695
 6111SOL    HW224216   5.369   4.148   1.020 -2.4651  0.1256  0.0682
 6111SOL    HW324217   5.459   4.267   1.047  0.9172 -2.0392 -1.0202
 6111SOL    MW424218   5.388   4.220   1.066 -0.2381 -0.1425 -0.3240
 6112SOL     OW24219   1.749   5.041   4.220  0.0062  0.3042 -0.1626
 6112SOL    HW224220   1.834   5.075   4.191  1.0794 -2.3253 -0.4178
 6112SOL    HW324221   1.742   5.071   4.311  0.5304  1.7003 -0.5528
 6112SOL    MW424222   1.759   5.050   4.228  0.2170  0.1415 -0.2478
 6113SOL     OW24223   4.282   4.960   4.371 -0.3915  0.3769 -0.4312
 6113SOL    HW224224   4.268   4.940   4.279 -0.1631  0.3998 -0.4717
 6113SOL    HW324225   4.195   4.955   4.411 -0.6534  1.4292 -0.8514
 6113SOL    MW424226   4.269   4.957   4.364 -0.3959  0.5188 -0.4920
 6114SOL     OW24227   4.361   3.807   0.787  0.0829  0.3084 -0.0717
 6114SOL    HW224228   4.385   3.805   0.695 -0.3872 -0.4459 -0.1935
 6114SOL    HW324229   4.405   3.884   0.823  3.6367 -1.5330 -0.0181
 6114SOL    MW424230   4.370   3.817   0.780  0.4898 -0.0341 -0.0807
 6115SOL     OW24231   1.956   6.090   4.219 -0.5442 -0.0012  0.9314
 6115SOL    HW224232   2.039   6.068   4.175 -1.3335 -0.9063 -0.1581
 6115SOL    HW324233   1.928   6.171   4.176  0.3622  1.0207  2.1716
 6115SOL    MW424234   1.964   6.098   4.207 -0.5287  0.0142  0.9513
 6116SOL     OW24235   4.559   0.230   1.631  0.5813  0.3324 -0.2017
 6116SOL    HW224236   4.494   0.294   1.662  0.5945  0.0534  0.4233
 6116SOL    HW324237   4.631   0.238   1.694  0.5155 -0.4090 -0.0315
 6116SOL    MW424238   4.560   0.240   1.643  0.5744  0.1978 -0.0968
 6117SOL     OW24239   2.360   3.423   3.201 -0.4250 -0.1690 -0.1170
 6117SOL    HW224240   2.424   3.401   3.269  0.0128  1.0565 -0.1175
 6117SOL    HW324241   2.280   3.376   3.228  0.0948 -0.6868  0.5694
 6117SOL    MW424242   2.358   3.414   3.214 -0.2986 -0.0756 -0.0265
 6118SOL     OW24243   6.222   1.228   4.868 -0.0528 -0.1725  0.8278
 6118SOL    HW224244   6.272   1.194   4.943  2.8728  1.8484  0.0020
 6118SOL    HW324245   6.212   1.153   4.810 -0.8309 -1.3686  2.4269
 6118SOL    MW424246   6.228   1.214   4.870  0.2305 -0.0637  0.9299
 6119SOL     OW24247   2.585   4.337   6.295 -0.2195 -0.2215 -0.0037
 6119SOL    HW224248   2.662   4.321   6.241 -0.5207 -0.1753 -0.4609
 6119SOL    HW324249   2.617   4.386   6.370 -0.1638  2.0397 -1.4070
 6119SOL    MW424250   2.599   4.342   6.298 -0.2519  0.0830 -0.2491
 6120SOL     OW24251   1.443   1.137   1.091  0.2576  0.2114 -0.5250
 6120SOL    HW224252   1.347   1.141   1.087  0.3484  1.2999 -2.3004
 6120SOL    HW324253   1.461   1.072   1.159 -1.7327 -0.1201 -0.2588
 6120SOL    MW424254   1.433   1.129   1.100  0.0070  0.3113 -0.7241
 6121SOL     OW24255   0.615   2.267   4.370 -0.4936  0.0228  0.2384
 6121SOL    HW224256   0.686   2.209   4.398  0.9281 -0.7139 -4.0949
 6121SOL    HW324257   0.643   2.354   4.397 -0.1276 -0.7127  2.3925
 6121SOL    MW424258   0.628   2.271   4.377 -0.2577 -0.1715 -0.0491
 6122SOL     OW24259   3.684   2.308   3.534  0.1706 -0.1249  0.7281
 6122SOL    HW224260   3.757   2.308   3.596 -0.6228  1.2726  1.7005
 6122SOL    HW324261   3.619   2.365   3.573  0.2158  2.0790 -2.0602
 6122SOL    MW424262   3.685   2.315   3.547  0.0719  0.3503  0.4885
 6123SOL     OW24263   4.540   2.326   3.181  0.0650  0.5251  0.0154
 6123SOL    HW224264   4.523   2.369   3.265  0.6923  1.3539 -0.2598
 6123SOL    HW324265   4.460   2.276   3.163 -0.8982  1.9421  0.1451
 6123SOL    MW424266   4.527   2.325   3.190  0.0207  0.8214 -0.0038
 6124SOL     OW24267   2.987   4.138   3.996 -0.2452 -0.3857 -0.6636
 6124SOL    HW224268   2.990   4.232   3.982  1.4112 -0.3342 -0.1646
 6124SOL    HW324269   2.894   4.115   3.990 -0.6914  1.3066 -0.5248
 6124SOL    MW424270   2.975   4.147   3.993 -0.0855 -0.1556 -0.5794
 6125SOL     OW24271  -0.002   4.132   2.724  0.2789  0.0670 -0.2165
 6125SOL    HW224272  -0.074   4.097   2.673  0.5331 -2.8552  1.2256
 6125SOL    HW324273  -0.040   4.150   2.810  0.8585  0.3071 -0.0005
 6125SOL    MW424274  -0.016   4.130   2.729  0.3889 -0.2869  0.0022
 6126SOL     OW24275   3.790   5.610   4.865  0.3615 -0.3823  0.0685
 6126SOL    HW224276   3.765   5.640   4.952 -1.1579 -0.2228 -0.4019
 6126SOL    HW324277   3.750   5.524   4.857 -2.6685  1.0626 -1.7818
 6126SOL    MW424278   3.782   5.602   4.876 -0.2388 -0.1706 -0.2377
 6127SOL     OW24279   0.727   6.199   1.960  0.2647  0.2724 -0.5985
 6127SOL    HW224280   0.651   6.141   1.962  0.4014  0.0940  1.1522
 6127SOL    HW324281   0.695   6.280   1.919 -0.7601  0.0704 -0.2254
 6127SOL    MW424282   0.713   6.202   1.955  0.1475  0.2222 -0.3183
 6128SOL     OW24283   0.714   3.930   5.119 -0.4544 -0.6280 -0.0990
 6128SOL    HW224284   0.731   3.836   5.132 -0.3167 -0.5312  0.4482
 6128SOL    HW324285   0.655   3.954   5.190  0.4861 -0.0334  0.5070
 6128SOL    MW424286   0.709   3.921   5.130 -0.3121 -0.5368  0.0531
 6129SOL     OW24287   3.105   0.640   0.588 -0.1063 -0.5580 -0.3707
 6129SOL    HW224288   3.169   0.605   0.651  1.2079  1.1916 -0.6571
 6129SOL    HW324289   3.111   0.580   0.513  2.3743  0.3663 -1.0093
 6129SOL    MW424290   3.114   0.627   0.586  0.3943 -0.2052 -0.4927
 6130SOL     OW24291   0.554   4.400   5.640 -0.6404 -0.0379  0.6456
 6130SOL    HW224292   0.548   4.486   5.600 -1.3546  0.0145  0.8630
 6130SOL    HW324293   0.491   4.346   5.593  0.0762 -0.5593  0.2436
 6130SOL    MW424294   0.545   4.404   5.629 -0.6400 -0.0998  0.6213
 6131SOL     OW24295   5.726   0.456   0.826  0.4808 -0.2969  0.2745
 6131SOL    HW224296   5.670   0.488   0.756 -0.5205  0.4416  1.3784
 6131SOL    HW324297   5.778   0.387   0.785 -0.7356 -0.5346 -0.9531
 6131SOL    MW424298   5.726   0.451   0.811  0.1882 -0.2309  0.2582
 6132SOL     OW24299   4.473   5.355   1.286  0.4664  0.4967  0.2234
 6132SOL    HW224300   4.557   5.366   1.332  0.9847  0.9032 -0.7928
 6132SOL    HW324301   4.477   5.267   1.249  0.9076  0.8968 -0.7113
 6132SOL    MW424302   4.485   5.345   1.288  0.5930  0.6031 -0.0340
 6133SOL     OW24303   3.813   1.016   1.351  0.1885  0.3718  0.4854
 6133SOL    HW224304   3.860   0.975   1.424 -0.0353 -0.5108  0.1559
 6133SOL    HW324305   3.751   0.948   1.322  1.4834 -0.0017 -1.6675
 6133SOL    MW424306   3.811   1.001   1.357  0.3298  0.2061  0.1579
 6134SOL     OW24307   1.623   4.192   0.918  0.1525 -0.3616 -0.3454
 6134SOL    HW224308   1.604   4.161   0.829  0.7715  1.0089 -0.9932
 6134SOL    HW324309   1.718   4.179   0.928  0.4913  1.4327 -0.7449
 6134SOL    MW424310   1.633   4.186   0.907  0.2789  0.0559 -0.4836
 6135SOL     OW24311   5.697   1.812   2.857  0.7361  0.3049  0.3930
 6135SOL    HW224312   5.684   1.837   2.766  0.5690 -0.6984  0.1221
 6135SOL    HW324313   5.669   1.888   2.908 -0.4223  0.4004 -0.3525
 6135SOL    MW424314   5.692   1.825   2.852  0.5612  0.1851  0.2589
 6136SOL     OW24315   5.326   5.624   2.002  0.1591  0.2433 -0.4095
 6136SOL    HW224316   5.369   5.566   2.064 -0.3030 -0.4301 -0.7030
 6136SOL    HW324317   5.340   5.712   2.037 -0.8987 -0.1675  1.1729
 6136SOL    MW424318   5.334   5.628   2.015 -0.0415  0.1003 -0.2394
 6137SOL     OW24319   2.512   4.670   2.963  0.5698  0.9726  0.4699
 6137SOL    HW224320   2.585   4.611   2.982 -0.7073 -1.8953 -2.5702
 6137SOL    HW324321   2.453   4.660   3.038 -0.0460 -2.5584 -0.3054
 6137SOL    MW424322   2.514   4.661   2.975  0.3201  0.1284 -0.0335
 6138SOL     OW24323   1.311   1.148   1.597  0.2314  0.3369  0.0401
 6138SOL    HW224324   1.331   1.061   1.562 -0.7836  0.7044 -1.5872
 6138SOL    HW324325   1.310   1.136   1.692  1.5249 -1.0990 -0.0811
 6138SOL    MW424326   1.313   1.135   1.605  0.2681  0.1960 -0.1906
 6139SOL     OW24327   3.461   1.281   5.031  0.0634  0.2690 -0.1815
 6139SOL    HW224328   3.382   1.235   5.004 -0.3148  1.6267 -1.5177
 6139SOL    HW324329   3.469   1.263   5.125 -1.4331 -0.4580 -0.1697
 6139SOL    MW424330   3.452   1.273   5.040 -0.1840  0.3522 -0.3562
 6140SOL     OW24331   1.368   4.100   1.047  0.4182  0.4718  0.0074
 6140SOL    HW224332   1.329   4.137   1.126 -0.2673 -0.6803  0.2346
 6140SOL    HW324333   1.458   4.133   1.046 -0.2582  2.4522 -0.0334
 6140SOL    MW424334   1.375   4.109   1.057  0.2385  0.5811  0.0320
 6141SOL     OW24335   1.044   6.348   5.837 -0.0333 -0.3668 -0.0690
 6141SOL    HW224336   1.090   6.334   5.754 -2.4905 -0.8858 -1.4334
 6141SOL    HW324337   0.970   6.287   5.834  0.5708 -1.4636  3.1990
 6141SOL    MW424338   1.041   6.338   5.826 -0.2778 -0.5800  0.1822
 6142SOL     OW24339   4.443   6.250   2.670  0.4164 -0.1121  0.5591
 6142SOL    HW224340   4.509   6.229   2.736  1.1109 -0.2164 -0.1559
 6142SOL    HW324341   4.368   6.281   2.720  0.8365 -0.4458  1.4119
 6142SOL    MW424342   4.442   6.251   2.685  0.5635 -0.1699  0.5773
 6143SOL     OW24343   2.806   5.129   5.369 -0.0030  0.1483 -0.0657
 6143SOL    HW224344   2.784   5.215   5.334 -1.7320 -0.4765 -0.5857
 6143SOL    HW324345   2.815   5.073   5.293  1.5405 -0.0793  0.2473
 6143SOL    MW424346   2.805   5.133   5.355 -0.0275  0.0358 -0.0930
 6144SOL     OW24347   3.158   5.873   5.151 -0.0426 -0.2061  0.5753
 6144SOL    HW224348   3.086   5.935   5.161  0.1430 -0.0037  0.6521
 6144SOL    HW324349   3.198   5.895   5.067 -1.5837 -1.8866 -0.7000
 6144SOL    MW424350   3.154   5.884   5.142 -0.2214 -0.4011  0.4172
 6145SOL     OW24351   4.215   5.149   1.500 -0.5342  0.3415 -0.1353
 6145SOL    HW224352   4.200   5.236   1.466  0.3278 -0.2316 -2.1049
 6145SOL    HW324353   4.138   5.099   1.474 -1.2127  0.5711  1.3346
 6145SOL    MW424354   4.203   5.154   1.492 -0.5100  0.2962 -0.2012
 6146SOL     OW24355   2.406   2.158   5.010 -0.6570 -0.0157 -0.7519
 6146SOL    HW224356   2.321   2.135   5.047 -0.3229  3.1409  2.5715
 6146SOL    HW324357   2.461   2.081   5.026 -1.6858 -0.3302  1.6812
 6146SOL    MW424358   2.402   2.145   5.017 -0.7486  0.3593  0.0076
 6147SOL     OW24359   5.544   2.708   4.768  0.2801 -0.6642 -0.6222
 6147SOL    HW224360   5.483   2.743   4.703 -0.0250 -1.4586 -0.7805
 6147SOL    HW324361   5.572   2.784   4.819 -1.9313 -0.4571  0.3883
 6147SOL    MW424362   5.540   2.722   4.766 -0.0519 -0.7417 -0.5098
 6148SOL     OW24363   1.189   3.374   5.077  0.3123  0.2718 -0.6605
 6148SOL    HW224364   1.190   3.410   5.166  0.3022 -0.1519 -0.4838
 6148SOL    HW324365   1.155   3.444   5.023  0.0890  0.4532 -0.2895
 6148SOL    MW424366   1.185   3.388   5.082  0.2815  0.2399 -0.5882
 6149SOL     OW24367   5.916   6.048   2.691  0.1914  0.7870  0.0710
 6149SOL    HW224368   5.887   6.121   2.637  0.0038 -0.0979 -1.0504
 6149SOL    HW324369   5.965   6.090   2.763  1.9994  1.9169 -1.7185
 6149SOL    MW424370   5.919   6.063   2.694  0.4052  0.8193 -0.3130
 6150SOL     OW24371   1.205   0.803   3.568 -0.4088  0.4666  0.0271
 6150SOL    HW224372   1.199   0.873   3.633  3.4916  0.0263  1.1017
 6150SOL    HW324373   1.182   0.723   3.617 -1.1405  0.5437 -0.1804
 6150SOL    MW424374   1.201   0.801   3.583  0.0093  0.4187  0.1415
 6151SOL     OW24375   1.926   4.893   3.728  0.1850 -0.2212 -0.1306
 6151SOL    HW224376   1.919   4.898   3.823  1.5827  0.7947 -0.0530
 6151SOL    HW324377   1.903   4.802   3.707 -0.3740 -0.3934  1.1421
 6151SOL    MW424378   1.922   4.881   3.738  0.2957 -0.1099  0.0475
 6152SOL     OW24379   6.193   1.648   3.854 -0.1341 -0.0317  0.1642
 6152SOL    HW224380   6.105   1.629   3.886 -0.7285  1.2920 -0.5856
 6152SOL    HW324381   6.206   1.587   3.782 -1.4390  1.2983 -1.2928
 6152SOL    MW424382   6.183   1.638   3.849 -0.3847  0.3184 -0.1270
 6153SOL     OW24383   5.151   2.173   6.017  0.1689 -0.1918 -0.4093
 6153SOL    HW224384   5.236   2.129   6.011  1.0377  1.4298 -0.5852
 6153SOL    HW324385   5.169   2.264   5.994 -1.2439  0.6460  1.4907
 6153SOL    MW424386   5.165   2.179   6.013  0.0971  0.1327 -0.1819
 6154SOL     OW24387   5.740   4.599   5.539  0.0178 -0.5914  0.1896
 6154SOL    HW224388   5.775   4.524   5.492  0.2275  0.3436 -1.2267
 6154SOL    HW324389   5.650   4.607   5.508  0.6197  0.9579 -1.3263
 6154SOL    MW424390   5.733   4.590   5.529  0.1249 -0.2637 -0.1972
 6155SOL     OW24391   1.284   1.248   0.021 -0.3460  0.1818 -0.3540
 6155SOL    HW224392   1.235   1.328   0.040  0.0398  0.2220  0.5725
 6155SOL    HW324393   1.351   1.275  -0.042 -0.5192  0.4892 -0.4055
 6155SOL    MW424394   1.287   1.262   0.015 -0.3180  0.2276 -0.2385
 6156SOL     OW24395   3.567   4.337   3.821  0.1750 -0.1973 -0.4836
 6156SOL    HW224396   3.515   4.303   3.894  0.1585  1.1351  0.1482
 6156SOL    HW324397   3.538   4.286   3.745 -2.9519  1.2575 -0.4148
 6156SOL    MW424398   3.556   4.326   3.821 -0.2397  0.1704 -0.3912
 6157SOL     OW24399   2.478   2.323   2.059  0.0083 -0.2906  0.7287
 6157SOL    HW224400   2.516   2.339   1.972 -0.4294  1.7223  0.8558
 6157SOL    HW324401   2.547   2.349   2.120 -0.6092  0.8910  0.9539
 6157SOL    MW424402   2.492   2.329   2.056 -0.1309  0.1309  0.7752
 6158SOL     OW24403   4.000   1.299   0.508  0.3995 -0.2053 -0.1428
 6158SOL    HW224404   4.036   1.211   0.514 -0.1400 -0.4873 -0.8747
 6158SOL    HW324405   4.052   1.351   0.570 -0.0476 -1.2766  1.1750
 6158SOL    MW424406   4.011   1.294   0.517  0.2693 -0.3839 -0.0655
 6159SOL     OW24407   2.154   4.230   1.081  0.0303 -0.2491 -0.3065
 6159SOL    HW224408   2.141   4.258   1.171  0.7577 -1.6614  0.2590
 6159SOL    HW324409   2.222   4.288   1.047 -0.0003  0.0590  0.1507
 6159SOL    MW424410   2.161   4.241   1.088  0.1222 -0.3948 -0.1715
 6160SOL     OW24411   1.633   4.096   6.043 -0.0553  0.6001  0.8179
 6160SOL    HW224412   1.630   4.099   5.947  0.1881  0.2579  0.7963
 6160SOL    HW324413   1.711   4.146   6.066 -0.1781  0.7796  0.8435
 6160SOL    MW424414   1.642   4.103   6.033 -0.0394  0.5786  0.8184
 6161SOL     OW24415   1.722   3.205   5.571  0.1366  0.5416  0.4930
 6161SOL    HW224416   1.644   3.261   5.568 -0.2582 -0.0037  0.4406
 6161SOL    HW324417   1.759   3.211   5.483  0.2398  0.9186  0.5607
 6161SOL    MW424418   1.717   3.213   5.559  0.0981  0.5194  0.4950
 6162SOL     OW24419   5.792   3.833   1.588 -0.1743  0.5724 -0.2825
 6162SOL    HW224420   5.713   3.807   1.636 -0.9057 -2.0793 -2.6418
 6162SOL    HW324421   5.767   3.827   1.496  2.1132  2.0812 -1.0725
 6162SOL    MW424422   5.778   3.828   1.582  0.0310  0.4216 -0.6980
 6163SOL     OW24423   2.252   5.707   4.120 -0.0263 -0.5476  0.0878
 6163SOL    HW224424   2.256   5.684   4.213 -0.6077  0.1303  0.2921
 6163SOL    HW324425   2.216   5.796   4.119  2.2706  0.4381 -0.6551
 6163SOL    MW424426   2.248   5.716   4.132  0.2000 -0.3281  0.0167
 6164SOL     OW24427   4.604   2.255   0.461 -0.3466 -0.3624 -0.5550
 6164SOL    HW224428   4.678   2.208   0.423 -0.8131  0.3512 -2.4583
 6164SOL    HW324429   4.540   2.186   0.483 -1.1833 -0.7231 -3.6410
 6164SOL    MW424430   4.605   2.239   0.459 -0.5186 -0.3159 -1.2133
 6165SOL     OW24431   5.040   0.992   3.516  0.2242  0.5374 -0.4592
 6165SOL    HW224432   5.014   1.064   3.458 -2.6275  1.3827  1.6227
 6165SOL    HW324433   5.081   1.035   3.590 -0.1967 -0.1043  0.1519
 6165SOL    MW424434   5.042   1.008   3.518 -0.2076  0.5642 -0.1039
 6166SOL     OW24435   3.363   5.494   6.213 -0.3151  0.4212  0.1565
 6166SOL    HW224436   3.446   5.505   6.167  0.5095  1.1002  1.7301
 6166SOL    HW324437   3.386   5.499   6.306 -1.8827 -1.1944  0.6799
 6166SOL    MW424438   3.377   5.496   6.219 -0.4131  0.2977  0.4332
 6167SOL     OW24439   2.383   6.220   2.051  0.0525  0.1824 -0.4823
 6167SOL    HW224440   2.338   6.242   2.133 -0.5778  0.4953 -0.9111
 6167SOL    HW324441   2.471   6.256   2.062 -0.4571  1.4733 -0.5095
 6167SOL    MW424442   2.389   6.227   2.063 -0.0979  0.3940 -0.5425
 6168SOL     OW24443   4.950   4.157   4.830 -0.2851  0.0262  0.3568
 6168SOL    HW224444   4.930   4.251   4.825  0.3404  0.1374 -0.2791
 6168SOL    HW324445   4.957   4.138   4.923  1.4260  1.0240  0.4748
 6168SOL    MW424446   4.948   4.167   4.841  0.0232  0.1725  0.2885
 6169SOL     OW24447   1.781   5.674   1.669  0.3016  0.6226  0.4726
 6169SOL    HW224448   1.827   5.740   1.719  0.4088 -0.4259  1.8237
 6169SOL    HW324449   1.784   5.705   1.579  0.6862  2.2350  1.0097
 6169SOL    MW424450   1.787   5.686   1.664  0.3665  0.6970  0.7217
 6170SOL     OW24451   2.054   2.195   2.880 -0.1006  0.5115 -0.3051
 6170SOL    HW224452   1.962   2.185   2.855 -0.7023  1.1187  1.5290
 6170SOL    HW324453   2.096   2.231   2.802 -1.3088 -0.2169 -1.3238
 6170SOL    MW424454   2.047   2.198   2.866 -0.3394  0.4955 -0.1975
 6171SOL     OW24455   3.052   6.251   1.084 -0.4071 -0.0162 -0.6449
 6171SOL    HW224456   3.042   6.158   1.101  0.1454  0.1320  0.5336
 6171SOL    HW324457   2.968   6.276   1.043 -0.0790 -1.2558 -2.1848
 6171SOL    MW424458   3.039   6.242   1.081 -0.2910 -0.1602 -0.6926
 6172SOL     OW24459   3.064   3.615   5.200 -0.1167  0.0111 -0.1193
 6172SOL    HW224460   3.097   3.524   5.201 -0.1919 -0.0161  0.1989
 6172SOL    HW324461   3.056   3.637   5.293 -2.9740 -0.6848 -0.1208
 6172SOL    MW424462   3.068   3.606   5.213 -0.5036 -0.0843 -0.0775
 6173SOL     OW24463   3.982   0.898   4.164 -0.1110  0.0768  0.5721
 6173SOL    HW224464   3.953   0.907   4.073  0.0277 -0.3952  0.4785
 6173SOL    HW324465   3.938   0.970   4.210  0.9396  1.2126 -0.1288
 6173SOL    MW424466   3.972   0.909   4.158  0.0459  0.1644  0.4673
 6174SOL     OW24467   2.257   0.940   1.496  0.2393  0.3182 -0.5470
 6174SOL    HW224468   2.197   1.008   1.468  2.7158  3.4402  1.1121
 6174SOL    HW324469   2.218   0.905   1.577 -0.1991  1.0465 -0.4385
 6174SOL    MW424470   2.244   0.944   1.503  0.5082  0.8262 -0.3138
 6175SOL     OW24471   6.350   1.998   0.135 -0.4028  0.2326 -0.0133
 6175SOL    HW224472   6.289   1.932   0.101 -0.6081  0.2875  0.2465
 6175SOL    HW324473   6.411   2.013   0.063  1.2825 -2.1811  0.8007
 6175SOL    MW424474   6.350   1.991   0.121 -0.2075 -0.0786  0.1284
 6176SOL     OW24475   1.508   2.763   3.688 -0.4054  0.1331 -0.2862
 6176SOL    HW224476   1.474   2.677   3.663 -0.3104 -0.4126  1.3392
 6176SOL    HW324477   1.441   2.799   3.746  1.2759 -0.6000  2.2952
 6176SOL    MW424478   1.494   2.756   3.693 -0.1710 -0.0356  0.2689
 6177SOL     OW24479   3.977   5.876   1.483  0.1597 -0.2315 -0.4827
 6177SOL    HW224480   4.022   5.954   1.516  0.4694 -0.5121 -0.2371
 6177SOL    HW324481   4.034   5.804   1.507 -0.9891 -0.7199  0.9118
 6177SOL    MW424482   3.991   5.877   1.490  0.0490 -0.3329 -0.2663
 6178SOL     OW24483   3.352   3.029   5.560  0.1748 -0.1039  0.3585
 6178SOL    HW224484   3.322   2.971   5.630  0.0687  0.6181  0.9189
 6178SOL    HW324485   3.440   2.998   5.540 -0.4006 -1.3628 -0.3441
 6178SOL    MW424486   3.359   3.017   5.567  0.0849 -0.1748  0.3397
 6179SOL     OW24487   6.371   6.354   1.153 -0.5974  0.5264  0.4421
 6179SOL    HW224488   6.328   6.291   1.210 -0.4759 -0.1198 -0.1709
 6179SOL    HW324489   6.300   6.405   1.114 -0.8592 -0.7823 -0.8580
 6179SOL    MW424490   6.356   6.352   1.156 -0.6159  0.2685  0.1897
 6180SOL     OW24491   0.099   4.364   1.672 -0.2160  0.2779 -0.2000
 6180SOL    HW224492   0.073   4.287   1.621 -2.7081 -0.2163  1.6262
 6180SOL    HW324493   0.029   4.428   1.655 -0.1915  0.7026  1.2307
 6180SOL    MW424494   0.086   4.362   1.663 -0.5416  0.2687  0.2297
 6181SOL     OW24495   1.676   5.724   2.502 -0.1520  0.1897 -0.1473
 6181SOL    HW224496   1.606   5.748   2.562  0.4370  0.1487  0.5652
 6181SOL    HW324497   1.655   5.635   2.473 -0.6806  0.3837 -0.3682
 6181SOL    MW424498   1.664   5.716   2.506 -0.1441  0.2099 -0.0825
 6182SOL     OW24499   5.670   2.645   2.334  0.4882  0.5756 -0.1822
 6182SOL    HW224500   5.714   2.569   2.375  0.7688  0.8963  0.1218
 6182SOL    HW324501   5.703   2.646   2.245 -1.0459 -0.8592 -0.8320
 6182SOL    MW424502   5.680   2.635   2.328  0.3228  0.4286 -0.2278
 6183SOL     OW24503   2.337   3.894   3.902  0.3826  0.1084 -0.8107
 6183SOL    HW224504   2.387   3.946   3.965  1.7830 -0.4300 -1.4542
 6183SOL    HW324505   2.326   3.951   3.826 -0.8143  0.5554 -0.3210
 6183SOL    MW424506   2.342   3.908   3.900  0.4095  0.0963 -0.8310
 6184SOL     OW24507   3.580   1.139   2.034 -0.0455  0.0247 -0.2386
 6184SOL    HW224508   3.596   1.067   1.973 -0.1607 -0.0842 -0.1408
 6184SOL    HW324509   3.485   1.137   2.049  0.1966 -1.0812  1.3424
 6184SOL    MW424510   3.569   1.130   2.028 -0.0288 -0.1356 -0.0171
 6185SOL     OW24511   4.713   0.333   1.902 -1.2365 -0.3988 -0.4052
 6185SOL    HW224512   4.801   0.364   1.879 -1.6332  0.9242 -0.2422
 6185SOL    HW324513   4.721   0.238   1.903  1.1659 -0.3830  3.0663
 6185SOL    MW424514   4.726   0.324   1.899 -0.9719 -0.2222  0.0744
 6186SOL     OW24515   3.205   4.041   1.899 -0.2832  0.6543  0.1858
 6186SOL    HW224516   3.201   4.131   1.866  0.7128  1.2124  1.5029
 6186SOL    HW324517   3.141   4.038   1.970  0.5198  0.6670  0.9162
 6186SOL    MW424518   3.196   4.052   1.904 -0.0458  0.7296  0.4559
 6187SOL     OW24519   5.284   1.156   1.323  0.2624  0.5276 -0.3897
 6187SOL    HW224520   5.318   1.151   1.412 -0.2791 -1.3451 -0.2534
 6187SOL    HW324521   5.197   1.195   1.332 -0.1261 -0.4080  0.0215
 6187SOL    MW424522   5.277   1.161   1.336  0.1397  0.1571 -0.3175
 6188SOL     OW24523   4.157   2.255   1.283  0.1630 -0.1111  0.4432
 6188SOL    HW224524   4.197   2.209   1.209  0.3772 -0.7889  0.9751
 6188SOL    HW324525   4.146   2.188   1.350 -0.6114  0.3591  0.8059
 6188SOL    MW424526   4.161   2.240   1.282  0.0891 -0.1385  0.5613
 6189SOL     OW24527   4.990   4.157   1.213  0.3002  0.3164  0.1413
 6189SOL    HW224528   5.017   4.184   1.125 -1.6150  3.0001  0.2430
 6189SOL    HW324529   4.903   4.119   1.200  0.2974  0.0902  0.8134
 6189SOL    MW424530   4.982   4.156   1.200  0.0472  0.6406  0.2434
 6190SOL     OW24531   5.804   1.268   3.742  0.1811 -0.5730 -0.7408
 6190SOL    HW224532   5.803   1.206   3.815  0.8339 -1.6566 -1.6307
 6190SOL    HW324533   5.801   1.354   3.784  2.4463 -1.0982  0.6639
 6190SOL    MW424534   5.803   1.271   3.757  0.5661 -0.7853 -0.6729
 6191SOL     OW24535   0.276   2.317   4.657  0.1639  0.2554 -0.4903
 6191SOL    HW224536   0.322   2.300   4.740 -0.1330  2.0253  0.0798
 6191SOL    HW324537   0.187   2.286   4.673 -0.3033  1.9516  0.4394
 6191SOL    MW424538   0.270   2.311   4.670  0.0631  0.7127 -0.2924
 6192SOL     OW24539   2.660   3.027   5.034  0.1154 -0.3075  0.0116
 6192SOL    HW224540   2.682   3.112   5.074 -0.6344 -0.4128  0.6874
 6192SOL    HW324541   2.724   2.966   5.072  0.1729 -0.1857  0.1139
 6192SOL    MW424542   2.672   3.030   5.045  0.0240 -0.3053  0.1143
 6193SOL     OW24543   3.461   5.820   2.412  0.2344  0.2673 -0.4674
 6193SOL    HW224544   3.435   5.755   2.347 -2.0779 -0.5078  1.1220
 6193SOL    HW324545   3.499   5.770   2.483  2.0327  1.0458 -0.8295
 6193SOL    MW424546   3.462   5.805   2.413  0.1666  0.2678 -0.3054
 6194SOL     OW24547   4.820   1.886   5.528  0.3669  0.4690  0.6819
 6194SOL    HW224548   4.751   1.886   5.594 -0.0584  0.8682  0.2475
 6194SOL    HW324549   4.843   1.794   5.518  0.1140  0.3602  1.0515
 6194SOL    MW424550   4.814   1.874   5.536  0.2774  0.5074  0.6733
 6195SOL     OW24551   1.462   3.574   1.417 -0.1425 -0.2703  0.0692
 6195SOL    HW224552   1.379   3.606   1.382  0.9729  0.8230 -1.7560
 6195SOL    HW324553   1.476   3.625   1.496 -0.9828 -0.1502  0.1515
 6195SOL    MW424554   1.453   3.585   1.423 -0.1062 -0.1102 -0.1607
 6196SOL     OW24555   6.134   0.940   4.813 -0.3757 -0.2246 -0.3505
 6196SOL    HW224556   6.077   0.953   4.737 -0.1290 -0.6398 -0.6135
 6196SOL    HW324557   6.074   0.926   4.886 -0.6133 -0.4745 -0.5911
 6196SOL    MW424558   6.118   0.940   4.812 -0.3745 -0.3124 -0.4170
 6197SOL     OW24559   0.401   5.012   4.693  0.1092  0.5954 -0.1657
 6197SOL    HW224560   0.406   4.929   4.645  1.0457 -0.4597  1.6490
 6197SOL    HW324561   0.492   5.032   4.714  0.2086  3.4828 -2.7186
 6197SOL    MW424562   0.414   5.004   4.690  0.2458  0.8372 -0.2631
 6198SOL     OW24563   5.207   6.483   3.681  0.2980 -0.2923  0.3270
 6198SOL    HW224564   5.185   6.407   3.734 -0.2789  0.2032  0.8125
 6198SOL    HW324565   5.280   6.524   3.728  0.4480 -0.4058  0.1957
 6198SOL    MW424566   5.214   6.479   3.694  0.2417 -0.2419  0.3738
 6199SOL     OW24567   3.753   4.598   1.246 -0.2564  0.2715  0.0494
 6199SOL    HW224568   3.697   4.526   1.275  0.5955 -0.2281  0.4909
 6199SOL    HW324569   3.815   4.558   1.185 -1.1334  1.0539 -1.4102
 6199SOL    MW424570   3.754   4.583   1.242 -0.2597  0.3088 -0.0849
 6200SOL     OW24571   0.864   5.634   4.276  0.1289 -0.2275  0.1288
 6200SOL    HW224572   0.889   5.637   4.184 -0.1232  2.6732  0.0466
 6200SOL    HW324573   0.831   5.546   4.290 -1.0688 -0.3515 -2.8822
 6200SOL    MW424574   0.863   5.623   4.266 -0.0624  0.1389 -0.2793
 6201SOL     OW24575   1.987   0.064   3.688 -0.6837  0.0804  0.4664
 6201SOL    HW224576   2.035   0.029   3.613 -1.6854 -0.3737  0.0241
 6201SOL    HW324577   2.036   0.031   3.764 -1.0029 -1.4697  0.0501
 6201SOL    MW424578   2.000   0.055   3.688 -0.8579 -0.1840  0.3531
 6202SOL     OW24579   0.873   1.186   5.004  0.2271 -0.3266 -0.6102
 6202SOL    HW224580   0.937   1.240   4.958  1.0214  0.5640  1.4351
 6202SOL    HW324581   0.925   1.128   5.059 -0.6813 -0.1420  0.4841
 6202SOL    MW424582   0.888   1.186   5.005  0.2120 -0.1847 -0.1960
 6203SOL     OW24583   4.367   3.086   0.528  0.4573 -0.1485  0.0341
 6203SOL    HW224584   4.448   3.107   0.481 -1.3747  2.4591 -2.2458
 6203SOL    HW324585   4.324   3.019   0.475  0.4912 -0.6068  0.5667
 6203SOL    MW424586   4.372   3.080   0.515  0.2200  0.1351 -0.1965
 6204SOL     OW24587   4.453   6.062   1.302 -0.3137  0.7545 -0.3383
 6204SOL    HW224588   4.478   6.137   1.248  0.3201  0.7949 -0.0065
 6204SOL    HW324589   4.376   6.092   1.350  0.4947  1.5550  0.5136
 6204SOL    MW424590   4.446   6.076   1.301 -0.1234  0.8654 -0.1821
 6205SOL     OW24591   4.605   2.346   4.066 -0.5124 -0.6626 -0.3872
 6205SOL    HW224592   4.585   2.438   4.049 -0.9250 -0.5496  0.6728
 6205SOL    HW324593   4.666   2.348   4.140  0.1673 -1.2132 -0.9113
 6205SOL    MW424594   4.611   2.358   4.073 -0.4771 -0.7204 -0.3165
 6206SOL     OW24595   2.241   4.730   6.183 -0.5608 -0.2678  0.5701
 6206SOL    HW224596   2.157   4.692   6.158 -0.0802 -0.3927 -0.9625
 6206SOL    HW324597   2.302   4.703   6.114  0.7861 -0.3076  1.7176
 6206SOL    MW424598   2.238   4.722   6.171 -0.3197 -0.2895  0.5193
 6207SOL     OW24599   4.262   4.300   3.166  0.6584  0.5324  0.3152
 6207SOL    HW224600   4.216   4.280   3.084 -0.0724 -1.4219  1.1393
 6207SOL    HW324601   4.295   4.389   3.154 -1.1642  1.0544 -1.3115
 6207SOL    MW424602   4.260   4.309   3.153  0.3215  0.3434  0.2093
 6208SOL     OW24603   2.513   1.678   2.174  0.5206 -0.1021  0.0418
 6208SOL    HW224604   2.514   1.734   2.252  1.2566  0.3352 -0.2639
 6208SOL    HW324605   2.590   1.706   2.125 -0.5390  0.4185 -1.3986
 6208SOL    MW424606   2.523   1.689   2.178  0.4779  0.0243 -0.1886
 6209SOL     OW24607   0.314   1.099   6.099 -0.2484  0.1048  0.4239
 6209SOL    HW224608   0.343   1.178   6.144 -1.0854  0.0327  1.1161
 6209SOL    HW324609   0.219   1.097   6.113 -0.1916 -1.2100  0.7227
 6209SOL    MW424610   0.305   1.109   6.107 -0.3514 -0.0782  0.5546
 6210SOL     OW24611   0.321   5.258   6.305  0.4866 -0.4688  0.4421
 6210SOL    HW224612   0.261   5.246   6.379 -0.8503  1.1744 -0.3168
 6210SOL    HW324613   0.405   5.280   6.346  0.3260 -1.6973  1.5019
 6210SOL    MW424614   0.324   5.259   6.320  0.2890 -0.4141  0.4818
 6211SOL     OW24615   2.590   5.026   4.199 -0.3174  0.0529  0.5342
 6211SOL    HW224616   2.681   5.049   4.182 -0.8104  0.9375 -1.0915
 6211SOL    HW324617   2.583   4.934   4.173  0.1525 -0.0872  0.8882
 6211SOL    MW424618   2.601   5.017   4.193 -0.3205  0.1511  0.3664
 6212SOL     OW24619   2.007   1.230   4.783  0.0488  0.1447  0.2393
 6212SOL    HW224620   1.980   1.320   4.766  1.4263  0.5274 -0.0476
 6212SOL    HW324621   2.096   1.237   4.819 -0.1983 -1.0500  1.1613
 6212SOL    MW424622   2.015   1.243   4.785  0.1980  0.0375  0.3231
 6213SOL     OW24623   2.317   0.234   6.116  0.0987  0.2925 -0.4067
 6213SOL    HW224624   2.328   0.146   6.079 -1.8545 -0.4341  0.5689
 6213SOL    HW324625   2.379   0.238   6.188 -0.2125 -0.5488 -0.0764
 6213SOL    MW424626   2.326   0.223   6.120 -0.2000  0.0856 -0.2344
 6214SOL     OW24627   5.434   3.478   3.909 -0.3344 -0.4273 -0.4963
 6214SOL    HW224628   5.469   3.390   3.893  0.5043  0.0906 -1.6766
 6214SOL    HW324629   5.407   3.477   4.001  0.9890 -1.4964 -0.0828
 6214SOL    MW424630   5.435   3.466   3.919 -0.0491 -0.5000 -0.5974
 6215SOL     OW24631   0.930   1.260   5.663  0.0481 -0.1058 -0.0576
 6215SOL    HW224632   1.021   1.285   5.679 -0.1483  0.1894  0.6447
 6215SOL    HW324633   0.914   1.186   5.722 -0.4697  0.5125  0.5980
 6215SOL    MW424634   0.940   1.254   5.673 -0.0461  0.0147  0.1216
 6216SOL     OW24635   5.894   1.988   2.550 -0.3204 -0.4526  0.7829
 6216SOL    HW224636   5.928   1.939   2.625 -0.0403  0.0966  1.0200
 6216SOL    HW324637   5.809   1.948   2.531 -0.1213 -0.9847  1.0108
 6216SOL    MW424638   5.887   1.977   2.557 -0.2572 -0.4503  0.8442
 6217SOL     OW24639   3.375   4.612   5.076  0.0474 -0.0475  0.1131
 6217SOL    HW224640   3.397   4.692   5.123  0.9924  0.6320 -1.3901
 6217SOL    HW324641   3.291   4.584   5.112  0.9441  0.1365  2.5039
 6217SOL    MW424642   3.367   4.619   5.087  0.2904  0.0664  0.2302
 6218SOL     OW24643   4.177   4.071   0.677  0.1350 -0.5502 -0.3836
 6218SOL    HW224644   4.183   4.036   0.766  2.4468 -0.7034 -0.5353
 6218SOL    HW324645   4.116   4.013   0.632  0.4730 -1.7012  0.5914
 6218SOL    MW424646   4.170   4.058   0.683  0.4846 -0.7223 -0.2750
 6219SOL     OW24647   0.992   0.748   1.565  0.4753 -0.9796  0.3565
 6219SOL    HW224648   1.004   0.657   1.537  0.2156 -1.1969  0.9342
 6219SOL    HW324649   0.898   0.757   1.576  0.3750 -0.2583 -0.9201
 6219SOL    MW424650   0.981   0.737   1.563  0.4278 -0.9131  0.2643
 6220SOL     OW24651   6.240   4.097   4.725  0.2786 -0.7034 -0.3945
 6220SOL    HW224652   6.304   4.102   4.654 -0.4241 -0.0561 -0.9896
 6220SOL    HW324653   6.288   4.127   4.803  1.4024 -2.5367 -0.3161
 6220SOL    MW424654   6.255   4.102   4.726  0.3342 -0.8599 -0.4627
 6221SOL     OW24655   1.164   3.059   6.233 -0.1328 -0.3060 -0.2550
 6221SOL    HW224656   1.167   3.089   6.324  0.2339  0.0860 -0.3926
 6221SOL    HW324657   1.253   3.074   6.200 -0.7440  1.3924 -1.2485
 6221SOL    MW424658   1.176   3.065   6.241 -0.1651 -0.0302 -0.4042
 6222SOL     OW24659   5.954   5.672   3.940  0.5343  0.2495 -1.0137
 6222SOL    HW224660   6.008   5.751   3.934 -0.6500  1.1902  0.0666
 6222SOL    HW324661   5.892   5.691   4.011 -1.0626 -0.8518 -2.0442
 6222SOL    MW424662   5.953   5.685   3.948  0.1673  0.2283 -1.0072
 6223SOL     OW24663   5.010   3.764   3.517  0.1745  0.0246  0.1350
 6223SOL    HW224664   4.991   3.852   3.552  1.4718  0.9358 -1.3305
 6223SOL    HW324665   5.075   3.729   3.578  0.9971  0.8415 -0.2291
 6223SOL    MW424666   5.016   3.771   3.530  0.4542  0.2526 -0.1064
 6224SOL     OW24667   3.418   6.399   0.109  0.4902 -0.2276  0.2680
 6224SOL    HW224668   3.412   6.494   0.118  5.6506  0.5271 -1.3837
 6224SOL    HW324669   3.397   6.382   0.017  0.9036 -0.5153  0.2259
 6224SOL    MW424670   3.414   6.409   0.098  1.2256 -0.1660  0.0445
 6225SOL     OW24671   3.923   4.596   1.656  0.0508 -0.2652  0.1210
 6225SOL    HW224672   3.986   4.624   1.722  0.0678 -0.7825  0.3286
 6225SOL    HW324673   3.859   4.543   1.703 -0.2193 -0.2245 -0.1896
 6225SOL    MW424674   3.923   4.593   1.671  0.0174 -0.3280  0.1074
 6226SOL     OW24675   4.013   4.212   1.648  0.1324  0.1992 -0.6478
 6226SOL    HW224676   4.080   4.218   1.581 -0.0903  2.2040 -0.7443
 6226SOL    HW324677   3.936   4.254   1.609 -0.8263 -0.9712 -0.0928
 6226SOL    MW424678   4.011   4.218   1.634 -0.0235  0.3093 -0.5873
 6227SOL     OW24679   0.309   2.576   1.798 -0.6841  0.4234 -0.2307
 6227SOL    HW224680   0.402   2.555   1.791 -0.4256  1.1701  0.6529
 6227SOL    HW324681   0.268   2.528   1.727  0.4171  0.3191 -0.8252
 6227SOL    MW424682   0.316   2.567   1.788 -0.5047  0.5082 -0.1925
 6228SOL     OW24683   0.401   4.914   5.477 -0.1459 -0.5673 -0.2717
 6228SOL    HW224684   0.315   4.932   5.440 -0.2960 -0.0150  0.3188
 6228SOL    HW324685   0.385   4.850   5.546 -0.5738  1.6733  1.8511
 6228SOL    MW424686   0.388   4.908   5.481 -0.2222 -0.1988  0.0863
 6229SOL     OW24687   0.988   6.380   5.243 -0.3497 -0.2436  0.5065
 6229SOL    HW224688   0.964   6.320   5.314  0.9117 -0.9065  0.4200
 6229SOL    HW324689   1.021   6.323   5.174  0.6757  0.5274  0.3317
 6229SOL    MW424690   0.990   6.364   5.243 -0.0480 -0.2293  0.4720
 6230SOL     OW24691   4.190   4.974   2.231 -0.6644  0.0283 -0.2235
 6230SOL    HW224692   4.280   4.974   2.198 -0.7541  0.7564 -0.4893
 6230SOL    HW324693   4.200   4.959   2.325 -0.1887  0.9276 -0.1102
 6230SOL    MW424694   4.203   4.972   2.239 -0.6135  0.2430 -0.2436
 6231SOL     OW24695   4.576   1.715   0.397 -0.1751  0.1539  0.2405
 6231SOL    HW224696   4.485   1.703   0.422 -0.6448  1.0644 -0.8984
 6231SOL    HW324697   4.608   1.785   0.454 -0.3448  0.1670  0.3197
 6231SOL    MW424698   4.568   1.723   0.408 -0.2595  0.2757  0.1006
 6232SOL     OW24699   4.371   2.075   0.482 -0.2591  0.4480  0.2041
 6232SOL    HW224700   4.336   2.018   0.413 -0.4208  1.4647 -0.5789
 6232SOL    HW324701   4.309   2.065   0.555  0.1168 -0.9173  0.3631
 6232SOL    MW424702   4.358   2.066   0.483 -0.2308  0.4020  0.1218
 6233SOL     OW24703   4.785   2.745   2.072  0.3410  0.3844  0.2324
 6233SOL    HW224704   4.826   2.808   2.131 -1.1345 -0.4797  2.2878
 6233SOL    HW324705   4.813   2.659   2.104 -0.4443 -0.1118 -0.3531
 6233SOL    MW424706   4.794   2.742   2.084  0.0427  0.2049  0.4264
 6234SOL     OW24707   2.136   4.617   0.221  0.3632 -0.0583 -0.3589
 6234SOL    HW224708   2.126   4.667   0.302  0.8085  0.2646 -0.4994
 6234SOL    HW324709   2.230   4.597   0.217  0.7746  1.8794 -1.9231
 6234SOL    MW424710   2.147   4.621   0.231  0.4762  0.2399 -0.5838
 6235SOL     OW24711   4.135   3.911   5.554 -0.1878 -0.2602 -0.1266
 6235SOL    HW224712   4.098   3.823   5.566  1.0056 -0.6455  1.0363
 6235SOL    HW324713   4.115   3.934   5.464  0.3582 -2.1682 -0.7794
 6235SOL    MW424714   4.127   3.902   5.544  0.0417 -0.5628 -0.0593
 6236SOL     OW24715   3.907   3.273   5.924  0.2157 -0.7587  0.2449
 6236SOL    HW224716   3.826   3.323   5.923  0.0920 -0.9596 -0.5742
 6236SOL    HW324717   3.970   3.330   5.969 -0.7732 -1.2733  2.3885
 6236SOL    MW424718   3.905   3.287   5.930  0.0689 -0.8531  0.4196
 6237SOL     OW24719   4.031   2.997   4.399 -0.1100 -0.4971 -0.0666
 6237SOL    HW224720   4.057   2.944   4.475 -0.5874 -0.0111  0.4493
 6237SOL    HW324721   4.015   3.084   4.436 -0.6073 -0.3249 -0.6827
 6237SOL    MW424722   4.032   3.001   4.414 -0.2386 -0.4103 -0.0798
 6238SOL     OW24723   3.074   0.558   3.954 -0.4073 -0.6409  0.2057
 6238SOL    HW224724   3.002   0.559   3.891 -1.4189 -0.9885  1.3172
 6238SOL    HW324725   3.060   0.479   4.006 -0.0223 -0.0055  1.3216
 6238SOL    MW424726   3.063   0.548   3.953 -0.4899 -0.6029  0.4996
 6239SOL     OW24727   1.396   3.149   3.158 -0.0138 -0.1428  0.0692
 6239SOL    HW224728   1.488   3.162   3.184  0.1873 -0.4463 -0.4771
 6239SOL    HW324729   1.401   3.119   3.067 -0.6540 -0.2278  0.0599
 6239SOL    MW424730   1.409   3.147   3.150 -0.0718 -0.1941 -0.0041
 6240SOL     OW24731   0.521   4.876   2.052 -0.4580 -0.4704  0.2924
 6240SOL    HW224732   0.536   4.887   2.146 -0.2868 -1.3329  0.3749
 6240SOL    HW324733   0.564   4.793   2.030 -0.0007 -0.0011 -0.6647
 6240SOL    MW424734   0.529   4.867   2.061 -0.3751 -0.5223  0.1770
 6241SOL     OW24735   5.103   5.070   4.174 -0.0420 -0.3523 -0.0159
 6241SOL    HW224736   5.037   5.086   4.241  0.8329  0.8331  0.5918
 6241SOL    HW324737   5.179   5.120   4.203  0.5618 -0.3237 -1.5830
 6241SOL    MW424738   5.104   5.078   4.187  0.1531 -0.1922 -0.1425
 6242SOL     OW24739   4.876   1.957   6.303  0.7601 -0.4645  0.7659
 6242SOL    HW224740   4.914   1.916   6.225  0.5358 -0.5130  0.6802
 6242SOL    HW324741   4.893   1.894   6.373 -0.9223 -1.4438  0.3505
 6242SOL    MW424742   4.883   1.943   6.302  0.5085 -0.6001  0.6998
 6243SOL     OW24743   1.770   0.757   1.823 -0.1900  0.5993 -0.2366
 6243SOL    HW224744   1.709   0.686   1.845 -1.0249  0.9246 -1.4289
 6243SOL    HW324745   1.783   0.749   1.729 -0.9427  2.5200 -0.5425
 6243SOL    MW424746   1.764   0.747   1.814 -0.3994  0.8957 -0.4343
 6244SOL     OW24747   5.360   3.756   0.331 -0.3713  0.3041 -0.4161
 6244SOL    HW224748   5.281   3.777   0.381  0.6760  1.8533  0.6818
 6244SOL    HW324749   5.339   3.779   0.241 -0.6799  2.2147  0.1063
 6244SOL    MW424750   5.347   3.762   0.326 -0.2739  0.7606 -0.2023
 6245SOL     OW24751   4.978   4.834   2.269  0.1934  0.4488  0.1761
 6245SOL    HW224752   4.966   4.840   2.363  0.2160 -0.2257  0.2276
 6245SOL    HW324753   5.004   4.743   2.254  1.9592  0.9876 -0.2841
 6245SOL    MW424754   4.980   4.823   2.279  0.4294  0.4309  0.1222
 6246SOL     OW24755   4.648   5.668   4.199  0.1063 -0.5563  0.4556
 6246SOL    HW224756   4.575   5.682   4.259 -0.2638  0.8421 -0.2659
 6246SOL    HW324757   4.615   5.699   4.114  1.8502  1.1121  0.3294
 6246SOL    MW424758   4.634   5.674   4.195  0.2875 -0.1517  0.3438
 6247SOL     OW24759   6.134   4.409   5.096  0.8576  0.4798  0.1107
 6247SOL    HW224760   6.157   4.445   5.183 -2.8556 -1.4677  2.1369
 6247SOL    HW324761   6.144   4.315   5.106  0.1783  0.2087 -1.5485
 6247SOL    MW424762   6.138   4.402   5.109  0.2781  0.1871  0.1591
 6248SOL     OW24763   1.937   5.592   2.520  0.0561 -0.2050  0.4148
 6248SOL    HW224764   1.865   5.655   2.519  1.3970  1.4355  1.2968
 6248SOL    HW324765   1.956   5.578   2.612  0.0976 -1.5839  0.2193
 6248SOL    MW424766   1.930   5.599   2.532  0.2385 -0.1705  0.5054
 6249SOL     OW24767   2.855   1.361   2.758  0.1464  0.3199  0.3902
 6249SOL    HW224768   2.828   1.452   2.756  1.2097  0.6669  1.2351
 6249SOL    HW324769   2.945   1.362   2.789 -0.0712 -1.0659  1.2006
 6249SOL    MW424770   2.863   1.373   2.762  0.2580  0.1828  0.6086
 6250SOL     OW24771   3.988   1.342   1.232 -0.2281 -0.6104 -0.1177
 6250SOL    HW224772   3.905   1.333   1.279 -0.4103 -1.7391 -0.6235
 6250SOL    HW324773   4.050   1.288   1.280 -0.3717 -1.6321 -1.0479
 6250SOL    MW424774   3.985   1.334   1.244 -0.2711 -0.8941 -0.3072
 6251SOL     OW24775   4.528   2.652   1.963  0.0651 -0.3035 -0.3473
 6251SOL    HW224776   4.620   2.679   1.967  0.3657 -1.0682 -1.5195
 6251SOL    HW324777   4.492   2.700   1.889  0.3926 -2.3619 -1.9318
 6251SOL    MW424778   4.535   2.662   1.954  0.1480 -0.6760 -0.7110
 6252SOL     OW24779   2.033   5.104   4.918 -0.5522 -0.1282  0.2414
 6252SOL    HW224780   1.976   5.029   4.937 -0.0707 -1.0527 -1.7901
 6252SOL    HW324781   2.103   5.069   4.863 -0.7304  1.9338 -1.4420
 6252SOL    MW424782   2.035   5.090   4.914 -0.5122  0.0219 -0.2487
 6253SOL     OW24783   2.175   6.130   3.848  0.2769  0.1633 -0.2049
 6253SOL    HW224784   2.149   6.063   3.784 -0.0691  0.4612 -0.3748
 6253SOL    HW324785   2.271   6.122   3.853  0.1782 -0.8339  0.3136
 6253SOL    MW424786   2.184   6.120   3.841  0.2182  0.0711 -0.1589
 6254SOL     OW24787   0.013   1.385   2.691  0.0079  0.7906 -0.4955
 6254SOL    HW224788  -0.007   1.378   2.784 -1.5556  0.4250 -0.8423
 6254SOL    HW324789   0.101   1.347   2.682  0.4947  1.5326  0.9303
 6254SOL    MW424790   0.022   1.379   2.702 -0.1341  0.8402 -0.3532
 6255SOL     OW24791   0.959   3.538   2.935 -0.0382  0.0027  0.5890
 6255SOL    HW224792   0.913   3.457   2.913  0.2520  0.2017 -0.8526
 6255SOL    HW324793   0.983   3.528   3.027  1.6764 -2.3995 -0.0405
 6255SOL    MW424794   0.956   3.526   2.944  0.2263 -0.2880  0.3157
 6256SOL     OW24795   5.298   0.802   0.454 -0.1894 -0.2396 -0.0162
 6256SOL    HW224796   5.227   0.745   0.421 -1.3223  0.3382  1.3189
 6256SOL    HW324797   5.297   0.787   0.549  1.7842 -0.5172 -0.0137
 6256SOL    MW424798   5.288   0.792   0.462 -0.0785 -0.2000  0.1603
 6257SOL     OW24799   6.233   3.557   1.517  0.7931  0.2075 -0.0657
 6257SOL    HW224800   6.164   3.542   1.452  0.9413 -2.5622  0.3141
 6257SOL    HW324801   6.314   3.553   1.467  0.8073  0.4077 -0.0582
 6257SOL    MW424802   6.235   3.555   1.502  0.8145 -0.1315 -0.0146
 6258SOL     OW24803   4.840   5.131   5.976 -0.0447 -0.3806  0.0904
 6258SOL    HW224804   4.784   5.067   6.020  0.4318  0.3657  1.8609
 6258SOL    HW324805   4.801   5.215   5.997  0.6473  0.0329 -0.2693
 6258SOL    MW424806   4.828   5.133   5.985  0.1094 -0.2276  0.2766
 6259SOL     OW24807   0.606   0.150   1.572  0.1163  0.2269  0.1064
 6259SOL    HW224808   0.541   0.199   1.623 -0.6561  0.2857 -0.9095
 6259SOL    HW324809   0.589   0.174   1.481  0.8296 -0.6391 -0.2744
 6259SOL    MW424810   0.595   0.160   1.567  0.1085  0.1204 -0.0779
 6260SOL     OW24811   5.831   2.194   6.289  0.6037  0.1018  0.8620
 6260SOL    HW224812   5.774   2.170   6.362  0.8810 -1.3876  0.6205
 6260SOL    HW324813   5.902   2.244   6.330 -0.8048  1.9685  1.1675
 6260SOL    MW424814   5.833   2.198   6.304  0.4544  0.1516  0.8705
 6261SOL     OW24815   4.699   5.781   3.298  0.1529 -0.0523 -0.5023
 6261SOL    HW224816   4.657   5.698   3.274 -0.4346  0.0245  0.2646
 6261SOL    HW324817   4.627   5.842   3.313  0.5842  0.7148 -1.4149
 6261SOL    MW424818   4.684   5.778   3.296  0.1323  0.0591 -0.5215
 6262SOL     OW24819   3.065   0.281   3.577  0.0488 -0.3423  0.0341
 6262SOL    HW224820   3.027   0.332   3.506  0.1488 -0.9289 -0.4462
 6262SOL    HW324821   3.029   0.193   3.565  0.4805 -0.5703  0.3992
 6262SOL    MW424822   3.055   0.276   3.566  0.1189 -0.4497  0.0189
 6263SOL     OW24823   1.167   1.513   0.052  0.5529 -0.5452  0.0119
 6263SOL    HW224824   1.080   1.550   0.036  2.1246  3.0043 -1.4134
 6263SOL    HW324825   1.182   1.529   0.146  0.1174 -0.0646  0.0069
 6263SOL    MW424826   1.157   1.520   0.062  0.7028 -0.0134 -0.1768
 6264SOL     OW24827   5.966   4.206   4.885 -0.1263 -0.2042  0.1931
 6264SOL    HW224828   5.998   4.273   4.824  0.6654 -1.2411 -0.5843
 6264SOL    HW324829   5.934   4.135   4.828  1.5543 -1.6350  0.9192
 6264SOL    MW424830   5.966   4.205   4.869  0.1999 -0.5298  0.1863
 6265SOL     OW24831   1.781   1.418   3.108 -0.2168 -0.5760  0.0191
 6265SOL    HW224832   1.731   1.340   3.131 -1.3667 -0.2426 -1.2054
 6265SOL    HW324833   1.800   1.461   3.191 -0.0421 -1.8630  0.6650
 6265SOL    MW424834   1.777   1.413   3.122 -0.3455 -0.7018 -0.0572
 6266SOL     OW24835   0.349   5.876   5.557 -0.1353  0.2457  0.0680
 6266SOL    HW224836   0.391   5.819   5.621 -0.7578  1.0879  1.2661
 6266SOL    HW324837   0.255   5.867   5.576 -0.5075 -1.0201 -2.0562
 6266SOL    MW424838   0.342   5.867   5.568 -0.2665  0.1898 -0.0542
 6267SOL     OW24839   0.274   0.748   1.209  0.9057 -0.7608  0.0568
 6267SOL    HW224840   0.318   0.676   1.254  1.5242 -0.9045 -0.7468
 6267SOL    HW324841   0.344   0.792   1.160  0.2970 -0.4915 -0.5916
 6267SOL    MW424842   0.289   0.745   1.208  0.9070 -0.7442 -0.1348
 6268SOL     OW24843   6.041   3.459   0.951  0.0426  0.2049 -0.3260
 6268SOL    HW224844   5.996   3.544   0.947 -0.0155  0.1593 -0.7038
 6268SOL    HW324845   6.082   3.450   0.865 -0.1034 -0.2314 -0.3552
 6268SOL    MW424846   6.040   3.469   0.939  0.0157  0.1413 -0.3797
 6269SOL     OW24847   5.770   3.015   2.722 -0.3543  0.2732 -0.2159
 6269SOL    HW224848   5.757   2.959   2.645  1.2750  1.4000 -1.3601
 6269SOL    HW324849   5.864   3.016   2.736 -0.6642 -3.0430  4.2994
 6269SOL    MW424850   5.780   3.008   2.713 -0.1803 -0.0157  0.2289
 6270SOL     OW24851   3.107   1.066   4.673  0.3209 -0.2173 -0.3481
 6270SOL    HW224852   3.075   0.985   4.713  2.4489 -0.6487  0.5900
 6270SOL    HW324853   3.199   1.070   4.696  0.2193  2.6811 -0.0343
 6270SOL    MW424854   3.115   1.056   4.681  0.5883  0.1082 -0.1829
 6271SOL     OW24855  -0.003   5.388   0.705  0.1169  0.1472  0.0994
 6271SOL    HW224856   0.084   5.359   0.679  1.3116  2.3620  1.3145
 6271SOL    HW324857  -0.018   5.346   0.790  0.6274  0.8146  0.5332
 6271SOL    MW424858   0.006   5.379   0.713  0.3419  0.5275  0.3170
 6272SOL     OW24859   0.388   3.869   3.188  0.1222 -0.2995 -0.5704
 6272SOL    HW224860   0.456   3.803   3.190  0.2853 -0.1235 -0.1856
 6272SOL    HW324861   0.327   3.839   3.120  0.5900 -0.4422 -0.9340
 6272SOL    MW424862   0.389   3.857   3.179  0.2055 -0.2951 -0.5676
 6273SOL     OW24863   0.063   3.022   5.186  0.1666 -0.3627  0.0098
 6273SOL    HW224864   0.132   3.058   5.131 -0.0068  0.3935  0.2700
 6273SOL    HW324865   0.002   3.095   5.198  1.0780  0.0818  2.6739
 6273SOL    MW424866   0.064   3.037   5.181  0.2640 -0.2043  0.3957
 6274SOL     OW24867   2.067   6.230   4.471 -0.1634  0.0183  0.1761
 6274SOL    HW224868   2.105   6.181   4.545 -0.9246 -0.5587  0.1970
 6274SOL    HW324869   2.027   6.163   4.416  1.7778  0.2505 -1.6451
 6274SOL    MW424870   2.067   6.214   4.474 -0.0077 -0.0272 -0.0614
 6275SOL     OW24871   5.620   3.027   3.280  0.1713  0.0861 -0.4612
 6275SOL    HW224872   5.678   3.076   3.222  0.7166 -0.9332 -0.8024
 6275SOL    HW324873   5.599   2.948   3.231 -3.0042  1.1814 -1.1178
 6275SOL    MW424874   5.625   3.023   3.266 -0.1757  0.0961 -0.5928
 6276SOL     OW24875   5.620   3.271   3.891  0.1471  0.6680 -0.0510
 6276SOL    HW224876   5.654   3.183   3.873  1.6231  1.0720  0.5595
 6276SOL    HW324877   5.689   3.330   3.860 -0.5672  1.5969  0.0862
 6276SOL    MW424878   5.634   3.267   3.885  0.2476  0.8439  0.0476
 6277SOL     OW24879   1.344   0.395   5.602 -0.3252  0.4961 -0.3808
 6277SOL    HW224880   1.438   0.391   5.622 -0.1693 -1.0446 -1.2527
 6277SOL    HW324881   1.339   0.374   5.509 -1.5867 -0.1952 -0.1793
 6277SOL    MW424882   1.356   0.391   5.593 -0.4711  0.2016 -0.4692
 6278SOL     OW24883   2.506   1.171   4.741 -0.3171  0.0490 -0.1606
 6278SOL    HW224884   2.590   1.135   4.770  0.1680 -0.3496 -1.9287
 6278SOL    HW324885   2.456   1.094   4.714 -0.7136  0.3991 -0.4171
 6278SOL    MW424886   2.511   1.156   4.741 -0.3054  0.0426 -0.4277
 6279SOL     OW24887   0.275   4.241   2.851  0.1506  0.6459 -0.7191
 6279SOL    HW224888   0.257   4.239   2.945  0.1994  1.1220 -0.6984
 6279SOL    HW324889   0.204   4.189   2.812  0.6980 -0.4294 -0.3386
 6279SOL    MW424890   0.263   4.234   2.859  0.2292  0.5668 -0.6662
 6280SOL     OW24891   3.775   4.834   0.726  0.7076 -0.3378  0.0047
 6280SOL    HW224892   3.795   4.794   0.642 -0.6769 -0.1771 -0.4256
 6280SOL    HW324893   3.752   4.925   0.705  1.5431  0.0563  0.7078
 6280SOL    MW424894   3.775   4.841   0.712  0.6352 -0.2646  0.0407
 6281SOL     OW24895   4.545   0.925   2.891 -0.2972  0.1130  0.6480
 6281SOL    HW224896   4.623   0.973   2.919 -1.1649  1.4007  0.9801
 6281SOL    HW324897   4.568   0.888   2.807  0.7116  0.3910  0.7909
 6281SOL    MW424898   4.558   0.927   2.884 -0.2786  0.3196  0.7107
 6282SOL     OW24899   1.446   5.426   0.603 -0.4149 -0.4803  0.2769
 6282SOL    HW224900   1.445   5.474   0.685  0.2088  0.3098 -0.1617
 6282SOL    HW324901   1.364   5.377   0.602  0.4931 -2.1884  2.3419
 6282SOL    MW424902   1.435   5.426   0.614 -0.2128 -0.6014  0.4914
 6283SOL     OW24903   0.149   2.095   6.399  0.0054  0.3825  0.3075
 6283SOL    HW224904   0.091   2.159   6.358 -1.6734 -0.6786  0.9020
 6283SOL    HW324905   0.181   2.138   6.478 -0.6347  0.7057  0.3946
 6283SOL    MW424906   0.146   2.109   6.404 -0.3006  0.2852  0.3974
 6284SOL     OW24907   0.770   3.221   5.478  0.2483  0.0384 -0.1479
 6284SOL    HW224908   0.777   3.139   5.526 -0.4191 -0.8356 -1.5088
 6284SOL    HW324909   0.735   3.283   5.542  3.8874  0.2490  1.9311
 6284SOL    MW424910   0.767   3.219   5.493  0.6404 -0.0491 -0.0531
 6285SOL     OW24911   5.161   6.350   3.092  0.0611  0.5532  0.0482
 6285SOL    HW224912   5.092   6.403   3.053  1.4725  2.2543 -0.2704
 6285SOL    HW324913   5.153   6.265   3.049 -0.8347  1.2104 -1.1411
 6285SOL    MW424914   5.151   6.345   3.081  0.1291  0.8644 -0.1508
 6286SOL     OW24915   1.507   4.153   0.661 -0.0587  0.5517  0.3231
 6286SOL    HW224916   1.561   4.229   0.639  0.8591 -0.1549  0.0470
 6286SOL    HW324917   1.437   4.153   0.595  0.0222  1.0732  0.2359
 6286SOL    MW424918   1.505   4.163   0.649  0.0731  0.5273  0.2752
 6287SOL     OW24919   4.185   3.466   0.995  0.2566  0.3566  0.3893
 6287SOL    HW224920   4.197   3.492   0.904 -1.8345 -0.7922 -0.2841
 6287SOL    HW324921   4.157   3.545   1.040  0.9926  0.8566 -0.0186
 6287SOL    MW424922   4.183   3.480   0.989  0.0778  0.2710  0.2466
 6288SOL     OW24923   0.515   0.575   4.720 -0.1647 -0.0064  0.0528
 6288SOL    HW224924   0.505   0.511   4.649 -0.2657 -0.7660  0.7370
 6288SOL    HW324925   0.599   0.553   4.761  2.0555  3.0494 -2.3718
 6288SOL    MW424926   0.525   0.563   4.716  0.1149  0.2965 -0.1768
 6289SOL     OW24927   4.456   1.951   3.884 -0.4107  0.2234 -0.0062
 6289SOL    HW224928   4.423   1.925   3.970 -0.3119  0.9791  0.2664
 6289SOL    HW324929   4.552   1.944   3.892 -0.4306 -0.3799 -0.2761
 6289SOL    MW424930   4.465   1.947   3.897 -0.4003  0.2435 -0.0058
 6290SOL     OW24931   3.910   6.037   2.462 -0.5283  0.4706  0.3212
 6290SOL    HW224932   3.904   5.942   2.450  0.2727  0.4552  0.0297
 6290SOL    HW324933   3.993   6.051   2.507 -1.3500  0.9177  1.7939
 6290SOL    MW424934   3.920   6.026   2.466 -0.5311  0.5276  0.4770
 6291SOL     OW24935   0.791   4.992   2.610 -0.2635 -0.1037  0.3454
 6291SOL    HW224936   0.776   5.021   2.520  1.8488  0.5821  0.1625
 6291SOL    HW324937   0.750   4.906   2.615 -1.3285  0.2871 -0.9339
 6291SOL    MW424938   0.784   4.985   2.599 -0.1253  0.0384  0.1525
 6292SOL     OW24939   0.284   2.532   2.250  0.2466 -0.1936 -0.1868
 6292SOL    HW224940   0.348   2.589   2.294  0.3932 -0.2334 -0.3494
 6292SOL    HW324941   0.252   2.474   2.319 -0.9228  0.9796  0.3069
 6292SOL    MW424942   0.288   2.532   2.265  0.1116 -0.0441 -0.1431
 6293SOL     OW24943   4.055   1.538   3.488  0.5023 -0.3461 -0.0318
 6293SOL    HW224944   3.993   1.584   3.544  1.2918  0.3295  0.3004
 6293SOL    HW324945   4.065   1.452   3.528 -0.4905 -0.6062 -0.2993
 6293SOL    MW424946   4.048   1.532   3.500  0.4755 -0.2913 -0.0232
 6294SOL     OW24947   1.164   0.971   2.082 -1.0531 -0.6235  0.5708
 6294SOL    HW224948   1.229   0.910   2.117 -0.8302 -0.0380  1.1867
 6294SOL    HW324949   1.124   1.011   2.159 -0.7450  0.4780  0.1661
 6294SOL    MW424950   1.167   0.968   2.097 -0.9830 -0.4009  0.5987
 6295SOL     OW24951   5.762   5.449   3.213 -0.5671 -0.0682  0.5401
 6295SOL    HW224952   5.750   5.384   3.282 -0.7545 -0.6756 -0.0592
 6295SOL    HW324953   5.852   5.481   3.227 -0.8487  0.3573  1.5087
 6295SOL    MW424954   5.772   5.444   3.224 -0.6290 -0.0922  0.5888
 6296SOL     OW24955   1.770   4.878   2.053 -0.1091 -0.9196  0.0126
 6296SOL    HW224956   1.859   4.853   2.032  0.3902 -0.5406  1.5033
 6296SOL    HW324957   1.765   4.869   2.149 -2.1670 -2.5227 -0.1623
 6296SOL    MW424958   1.781   4.873   2.063 -0.3147 -1.0811  0.1862
 6297SOL     OW24959   2.014   0.472   0.461 -0.3762  0.2276 -0.1306
 6297SOL    HW224960   1.997   0.465   0.555  0.2264  2.0194  0.1590
 6297SOL    HW324961   2.072   0.548   0.453 -1.2211  0.7287 -2.0355
 6297SOL    MW424962   2.020   0.481   0.472 -0.4081  0.5301 -0.3437
 6298SOL     OW24963   6.322   5.448   3.077 -0.1220  0.8127  0.3759
 6298SOL    HW224964   6.239   5.461   3.030 -0.4796  1.0271  1.0613
 6298SOL    HW324965   6.369   5.531   3.065 -0.2242  0.8775  0.4206
 6298SOL    MW424966   6.317   5.461   3.069 -0.1827  0.8496  0.4722
 6299SOL     OW24967   4.719   3.953   4.794 -0.0130  0.4471 -0.7599
 6299SOL    HW224968   4.806   3.971   4.760 -0.1860 -0.3195 -1.6395
 6299SOL    HW324969   4.692   3.872   4.751  0.0490 -0.9848  1.7485
 6299SOL    MW424970   4.727   3.945   4.784 -0.0276  0.1570 -0.5450
 6300SOL     OW24971   4.515   6.086   0.047 -0.0942 -0.1994  0.0284
 6300SOL    HW224972   4.444   6.124  -0.005  0.2044 -2.8757 -2.6043
 6300SOL    HW324973   4.481   6.085   0.136 -1.6326  2.3760 -0.4165
 6300SOL    MW424974   4.501   6.091   0.052 -0.2578 -0.2127 -0.3776
 6301SOL     OW24975   6.343   1.660   1.482 -0.2049 -0.1897  0.5481
 6301SOL    HW224976   6.283   1.615   1.541 -0.2095 -0.6480  0.1937
 6301SOL    HW324977   6.362   1.597   1.413  0.4096  0.0720  0.4684
 6301SOL    MW424978   6.337   1.646   1.481 -0.1244 -0.2157  0.4908
 6302SOL     OW24979   3.951   2.613   0.268 -0.7803 -0.4085  0.4287
 6302SOL    HW224980   3.999   2.558   0.206  2.4593  0.7001  1.6958
 6302SOL    HW324981   3.950   2.700   0.226 -1.9955 -0.4669  0.3100
 6302SOL    MW424982   3.957   2.617   0.254 -0.5132 -0.2699  0.5802
 6303SOL     OW24983   2.256   3.863   0.043 -0.2474  0.0017 -0.3838
 6303SOL    HW224984   2.234   3.795   0.107  0.5894 -0.3335 -0.4433
 6303SOL    HW324985   2.173   3.907   0.026 -0.9137 -1.3430 -0.7388
 6303SOL    MW424986   2.242   3.860   0.049 -0.2249 -0.2200 -0.4385
 6304SOL     OW24987   5.676   3.656   5.820 -0.0200  0.7962 -0.2389
 6304SOL    HW224988   5.667   3.670   5.726  0.0383  1.3668 -0.1608
 6304SOL    HW324989   5.742   3.718   5.848 -0.1033  0.6943  0.1969
 6304SOL    MW424990   5.683   3.666   5.812 -0.0233  0.8580 -0.1711
 6305SOL     OW24991   3.264   5.909   4.144  0.2065 -0.1911  0.3927
 6305SOL    HW224992   3.334   5.973   4.149  0.4528 -0.4404  0.2006
 6305SOL    HW324993   3.196   5.941   4.203 -0.5743  1.3511 -1.2507
 6305SOL    MW424994   3.264   5.921   4.153  0.1360 -0.0205  0.1505
 6306SOL     OW24995   4.356   3.123   6.420  0.2828 -0.1203 -0.5569
 6306SOL    HW224996   4.402   3.078   6.491 -0.2916 -1.3029 -0.9033
 6306SOL    HW324997   4.383   3.075   6.341 -2.1376 -1.4140 -0.6862
 6306SOL    MW424998   4.366   3.111   6.419 -0.1123 -0.4470 -0.6197
 6307SOL     OW24999   4.521   4.086   1.122 -0.5072  0.4830  0.6682
 6307SOL    HW225000   4.489   4.170   1.154 -0.9040  0.8600 -0.6616
 6307SOL    HW325001   4.495   4.084   1.030 -1.2585 -1.4529  0.8675
 6307SOL    MW425002   4.513   4.097   1.114 -0.6587  0.2773  0.5191
 6308SOL     OW25003   2.631   0.857   3.980  0.5482 -0.0881  0.4047
 6308SOL    HW225004   2.582   0.787   4.024  0.0945 -0.9319 -1.3748
 6308SOL    HW325005   2.584   0.937   4.004  0.4222 -0.4843  1.5796
 6308SOL    MW425006   2.618   0.858   3.989  0.4717 -0.2517  0.3249
 6309SOL     OW25007   2.919   5.420   0.630 -0.0069  0.1381 -0.0203
 6309SOL    HW225008   2.849   5.358   0.610 -0.6071  1.3400 -1.9204
 6309SOL    HW325009   2.874   5.498   0.662  0.6311  0.1688  0.8367
 6309SOL    MW425010   2.904   5.422   0.631 -0.0019  0.3007 -0.1579
 6310SOL     OW25011   6.173   0.077   4.275  0.0305  0.2577 -0.2236
 6310SOL    HW225012   6.093   0.032   4.303 -0.1681  1.2980  0.9851
 6310SOL    HW325013   6.147   0.169   4.265  0.5163  0.2240 -2.2492
 6310SOL    MW425014   6.159   0.083   4.278  0.0684  0.3905 -0.3314
 6311SOL     OW25015   5.169   2.443   4.416 -0.1640  0.4984 -0.4020
 6311SOL    HW225016   5.225   2.488   4.353 -0.1714  0.1699 -0.6422
 6311SOL    HW325017   5.104   2.509   4.441 -0.8051  0.3261 -1.5263
 6311SOL    MW425018   5.168   2.458   4.411 -0.2495  0.4324 -0.5820
 6312SOL     OW25019   4.250   0.569   0.477  0.1224  0.9212  0.5944
 6312SOL    HW225020   4.244   0.601   0.567 -0.1188  1.4413  0.3947
 6312SOL    HW325021   4.328   0.612   0.441  0.4040  0.4667  0.6497
 6312SOL    MW425022   4.260   0.579   0.484  0.1277  0.9299  0.5754
 6313SOL     OW25023   0.804   5.107   3.685 -0.1764 -0.0302 -0.0751
 6313SOL    HW225024   0.724   5.094   3.736  0.0494  1.2422  0.6601
 6313SOL    HW325025   0.845   5.021   3.682 -2.7917 -1.3540 -2.7066
 6313SOL    MW425026   0.799   5.094   3.692 -0.4917 -0.0370 -0.3253
 6314SOL     OW25027   0.954   3.553   4.125  0.2252 -0.5546 -0.2314
 6314SOL    HW225028   0.920   3.473   4.084 -1.0192  0.1214 -0.5881
 6314SOL    HW325029   1.049   3.542   4.125  0.1351 -1.5138 -1.3432
 6314SOL    MW425030   0.962   3.541   4.120  0.0491 -0.5920 -0.4252
 6315SOL     OW25031   5.570   5.772   6.209 -0.0865 -0.4346 -0.0821
 6315SOL    HW225032   5.518   5.693   6.228  1.8089 -2.1884 -1.7266
 6315SOL    HW325033   5.649   5.761   6.263  1.2549 -0.9261 -2.0555
 6315SOL    MW425034   5.573   5.760   6.219  0.3406 -0.7308 -0.5595
 6316SOL     OW25035   5.521   1.447   4.645  0.3361  0.3781  0.0024
 6316SOL    HW225036   5.614   1.429   4.660  0.5245  0.2553 -1.1875
 6316SOL    HW325037   5.480   1.436   4.730  1.2182 -0.8418  0.2938
 6316SOL    MW425038   5.528   1.443   4.658  0.4773  0.2010 -0.1162
 6317SOL     OW25039   3.152   4.601   3.004  0.0933 -0.6645 -0.5139
 6317SOL    HW225040   3.210   4.663   3.049 -1.3970  0.6175 -0.2652
 6317SOL    HW325041   3.165   4.620   2.911  1.7254 -1.9752 -0.6023
 6317SOL    MW425042   3.162   4.612   2.998  0.1120 -0.6683 -0.4928
 6318SOL     OW25043   6.058   0.937   3.539 -0.1791  0.2906  0.0186
 6318SOL    HW225044   6.101   1.016   3.508  0.2580  0.2211  0.4477
 6318SOL    HW325045   6.109   0.909   3.614 -0.8713  0.1115  0.4310
 6318SOL    MW425046   6.070   0.943   3.544 -0.2127  0.2578  0.1297
 6319SOL     OW25047   6.341   5.067   0.603  0.3043  0.3457  0.1735
 6319SOL    HW225048   6.380   4.993   0.556 -0.6023  0.8725 -1.4879
 6319SOL    HW325049   6.409   5.135   0.600  1.3528 -0.5223  2.1756
 6319SOL    MW425050   6.355   5.066   0.596  0.3230  0.3007  0.2184
 6320SOL     OW25051   2.025   1.080   5.234  0.4873 -0.6870 -0.0227
 6320SOL    HW225052   1.993   1.075   5.144  2.0101  0.3165 -0.6677
 6320SOL    HW325053   2.064   1.167   5.241  3.2660 -1.8598  0.5453
 6320SOL    MW425054   2.026   1.091   5.223  1.0548 -0.7094 -0.0328
 6321SOL     OW25055   5.387   6.380   3.961 -0.2285  0.4156 -0.1537
 6321SOL    HW225056   5.294   6.368   3.979 -0.9833  1.0421 -3.0771
 6321SOL    HW325057   5.410   6.307   3.904  0.6717  1.1018 -0.6971
 6321SOL    MW425058   5.378   6.369   3.956 -0.2093  0.5888 -0.6111
 6322SOL     OW25059   2.632   5.327   1.105 -0.7933 -0.2547 -0.2945
 6322SOL    HW225060   2.700   5.394   1.114  1.6848 -2.4530 -1.1431
 6322SOL    HW325061   2.556   5.374   1.072  0.4839  2.2667  0.0821
 6322SOL    MW425062   2.631   5.342   1.102 -0.2978 -0.2121 -0.3568
 6323SOL     OW25063   6.143   2.160   5.700  0.2724  0.1757  0.4758
 6323SOL    HW225064   6.074   2.225   5.686 -0.7235 -0.3773  2.4051
 6323SOL    HW325065   6.106   2.099   5.763  1.5814 -1.6888 -0.4593
 6323SOL    MW425066   6.129   2.160   5.707  0.3137 -0.1432  0.6070
 6324SOL     OW25067   1.807   3.172   4.592  0.6978  0.2221  0.3330
 6324SOL    HW225068   1.749   3.248   4.597  1.6993  1.0269 -0.0248
 6324SOL    HW325069   1.868   3.192   4.522  0.8458 -1.0200  0.0832
 6324SOL    MW425070   1.807   3.185   4.584  0.8495  0.1644  0.2529
 6325SOL     OW25071   6.000   0.989   2.105  0.0634  0.4747  0.2476
 6325SOL    HW225072   6.006   1.066   2.047 -1.6732  0.5830  0.1366
 6325SOL    HW325073   6.090   0.957   2.112  0.3739  0.3923 -2.6220
 6325SOL    MW425074   6.013   0.995   2.098 -0.1248  0.4781 -0.1457
 6326SOL     OW25075   4.942   5.073   6.427  0.1902 -0.1423  1.1164
 6326SOL    HW225076   5.012   5.091   6.490  0.8229 -0.9497  0.6697
 6326SOL    HW325077   4.927   4.978   6.436 -1.0919  0.0800  1.4460
 6326SOL    MW425078   4.950   5.063   6.437  0.1045 -0.2195  1.1010
 6327SOL     OW25079   6.051   5.840   5.849 -0.1167  0.0869  0.4447
 6327SOL    HW225080   6.021   5.849   5.759  1.1778 -1.1617 -0.1569
 6327SOL    HW325081   6.006   5.762   5.881 -0.4441  0.4317  0.8237
 6327SOL    MW425082   6.041   5.831   5.841  0.0109 -0.0324  0.4154
 6328SOL     OW25083   3.095   3.924   1.546  0.2435  0.1540 -0.1484
 6328SOL    HW225084   3.023   3.912   1.608  0.6141 -0.6203  0.1454
 6328SOL    HW325085   3.113   3.836   1.513 -1.0838  0.7373 -2.6786
 6328SOL    MW425086   3.088   3.910   1.550  0.1173  0.1288 -0.4434
 6329SOL     OW25087   2.716   0.993   6.367 -0.1679  0.0236 -0.2710
 6329SOL    HW225088   2.637   0.946   6.393  0.0102  0.7403  1.7412
 6329SOL    HW325089   2.753   1.026   6.449  1.2771  1.1988 -1.3254
 6329SOL    MW425090   2.711   0.991   6.381  0.0462  0.2732 -0.1446
 6330SOL     OW25091   6.390   4.872   1.602  0.0494  0.2993 -0.3870
 6330SOL    HW225092   6.460   4.890   1.665 -0.6708  0.5671  0.3483
 6330SOL    HW325093   6.402   4.780   1.578  1.8313  0.8252 -1.7682
 6330SOL    MW425094   6.401   4.862   1.607  0.1895  0.4040 -0.4722
 6331SOL     OW25095   1.508   5.659   3.471 -0.3927  0.2851  0.2544
 6331SOL    HW225096   1.579   5.599   3.495 -2.4944 -1.6704  1.9508
 6331SOL    HW325097   1.473   5.622   3.390  0.2920  1.1102 -0.4452
 6331SOL    MW425098   1.513   5.647   3.463 -0.5797  0.1360  0.3859
 6332SOL     OW25099   5.141   6.277   1.372  0.3991  0.7278 -0.9614
 6332SOL    HW225100   5.111   6.317   1.290 -2.2709 -0.2750 -0.5720
 6332SOL    HW325101   5.106   6.187   1.368  1.4794  0.2063  0.6464
 6332SOL    MW425102   5.132   6.270   1.360  0.1893  0.5267 -0.6979
 6333SOL     OW25103   2.930   2.536   2.359 -0.1182 -0.1094 -0.3593
 6333SOL    HW225104   2.891   2.481   2.292  0.0874 -0.4148 -0.2294
 6333SOL    HW325105   3.020   2.503   2.368  0.4980  1.1976 -1.3435
 6333SOL    MW425106   2.937   2.525   2.351 -0.0097  0.0228 -0.4720
 6334SOL     OW25107   1.635   2.366   2.436  0.5268 -0.3766 -0.6484
 6334SOL    HW225108   1.557   2.372   2.382 -0.4987  2.7985  0.9139
 6334SOL    HW325109   1.642   2.273   2.460 -3.0587 -0.7110 -0.4417
 6334SOL    MW425110   1.626   2.355   2.432 -0.0816 -0.0018 -0.4150
 6335SOL     OW25111   2.868   3.178   1.837  0.6086 -0.2868 -0.1746
 6335SOL    HW225112   2.774   3.161   1.837 -0.0517  2.7199 -1.1310
 6335SOL    HW325113   2.893   3.174   1.745  1.5273 -1.4863  0.1148
 6335SOL    MW425114   2.859   3.176   1.825  0.6427 -0.0484 -0.2626
 6336SOL     OW25115   2.177   1.832   4.534 -0.2651 -0.0173 -0.8237
 6336SOL    HW225116   2.201   1.753   4.486  0.4021  0.1045 -0.6903
 6336SOL    HW325117   2.084   1.819   4.554  0.0616 -1.2383  0.0712
 6336SOL    MW425118   2.168   1.820   4.530 -0.1340 -0.1623 -0.6880
 6337SOL     OW25119   1.336   4.726   1.018 -0.1534 -0.0192  0.1714
 6337SOL    HW225120   1.267   4.694   0.960  0.4035 -0.2231 -0.3962
 6337SOL    HW325121   1.413   4.675   0.993  0.4610  0.9245  0.0738
 6337SOL    MW425122   1.337   4.715   1.007  0.0012  0.0784  0.0837
 6338SOL     OW25123   4.534   0.356   1.385  0.0196 -0.6086 -0.4573
 6338SOL    HW225124   4.441   0.341   1.368 -0.1921 -0.1172  0.2394
 6338SOL    HW325125   4.553   0.305   1.463  0.0089  0.3509  0.1819
 6338SOL    MW425126   4.524   0.347   1.393 -0.0097 -0.4172 -0.2811
 6339SOL     OW25127   4.797   4.779   0.839  0.6014 -0.2755 -0.0762
 6339SOL    HW225128   4.713   4.759   0.797  0.7219 -0.4079 -0.2551
 6339SOL    HW325129   4.774   4.839   0.910  0.4525  0.3441 -0.6312
 6339SOL    MW425130   4.783   4.785   0.843  0.5976 -0.2113 -0.1730
 6340SOL     OW25131   0.868   6.175   4.847  0.3504  0.0654 -0.0127
 6340SOL    HW225132   0.798   6.236   4.868  1.5734  2.1300 -1.5179
 6340SOL    HW325133   0.913   6.161   4.930 -0.0379  1.1401  0.4053
 6340SOL    MW425134   0.865   6.181   4.861  0.4605  0.4796 -0.1562
 6341SOL     OW25135   1.766   4.737   0.341 -0.0455 -0.5801 -0.4382
 6341SOL    HW225136   1.754   4.830   0.326 -2.0481 -1.0904 -2.6379
 6341SOL    HW325137   1.789   4.701   0.256  4.4508 -1.7459  0.9695
 6341SOL    MW425138   1.767   4.744   0.328  0.2835 -0.8012 -0.5427
 6342SOL     OW25139   3.833   5.224   5.054  0.0326  0.3030 -0.1822
 6342SOL    HW225140   3.925   5.207   5.030 -0.1787 -1.8182  0.3715
 6342SOL    HW325141   3.807   5.148   5.106 -2.7463 -0.3486 -2.2649
 6342SOL    MW425142   3.842   5.212   5.058 -0.3619 -0.0629 -0.3839
 6343SOL     OW25143   0.006   4.616   1.500 -0.6778 -0.2977  0.4093
 6343SOL    HW225144   0.013   4.587   1.410 -0.2277 -1.7408  0.8790
 6343SOL    HW325145   0.093   4.600   1.537 -0.3010  1.9941  0.6400
 6343SOL    MW425146   0.019   4.610   1.493 -0.5687 -0.1857  0.5017
 6344SOL     OW25147   6.246   4.940   4.052 -0.1243  0.2855  0.0421
 6344SOL    HW225148   6.315   4.990   4.008 -0.2143  1.4335  1.1344
 6344SOL    HW325149   6.289   4.860   4.082  0.0358 -0.3241 -1.7192
 6344SOL    MW425150   6.261   4.936   4.050 -0.1150  0.3565 -0.0462
 6345SOL     OW25151   1.379   5.489   5.598 -0.1936  0.0402  0.5000
 6345SOL    HW225152   1.333   5.551   5.543  0.2564  0.9794  1.1595
 6345SOL    HW325153   1.377   5.528   5.685 -1.4670 -1.7099  1.3188
 6345SOL    MW425154   1.372   5.502   5.602 -0.3023 -0.0668  0.6951
 6346SOL     OW25155   6.093   1.863   1.530 -0.0043 -0.2555  0.3825
 6346SOL    HW225156   6.037   1.940   1.524 -2.5227 -2.0674 -1.2177
 6346SOL    HW325157   6.178   1.893   1.499 -0.6735  2.0287  0.5761
 6346SOL    MW425158   6.097   1.877   1.525 -0.4249 -0.1932  0.1969
 6347SOL     OW25159   1.522   0.532   3.382 -0.1320 -0.4217 -0.4419
 6347SOL    HW225160   1.448   0.579   3.343  1.0569  1.9986 -0.0197
 6347SOL    HW325161   1.598   0.560   3.331  0.7906 -1.0352  0.5481
 6347SOL    MW425162   1.522   0.542   3.370  0.1466 -0.1833 -0.2556
 6348SOL     OW25163   4.900   1.887   1.204 -0.2385  0.0738 -0.0127
 6348SOL    HW225164   4.847   1.838   1.266 -0.6859  2.3104  1.5043
 6348SOL    HW325165   4.987   1.850   1.212 -0.0940  0.7696  2.6174
 6348SOL    MW425166   4.904   1.876   1.213 -0.2785  0.4607  0.5345
 6349SOL     OW25167   1.923   1.947   2.630 -0.2122  0.1089  0.3217
 6349SOL    HW225168   1.908   1.921   2.539  0.1243  1.0377 -0.0082
 6349SOL    HW325169   1.858   2.015   2.646  0.3479  0.6123  0.4749
 6349SOL    MW425170   1.912   1.952   2.620 -0.0939  0.2978  0.2984
 6350SOL     OW25171   0.267   2.140   2.421  0.7507 -0.1296  0.3571
 6350SOL    HW225172   0.218   2.089   2.357 -1.3012 -1.0171  2.4699
 6350SOL    HW325173   0.218   2.221   2.431  1.2715  0.1726  0.5027
 6350SOL    MW425174   0.254   2.144   2.414  0.5487 -0.2068  0.6551
 6351SOL     OW25175   0.660   2.760   1.618  0.5631 -0.5250  0.1505
 6351SOL    HW225176   0.605   2.838   1.619 -0.2050 -1.0634 -0.1016
 6351SOL    HW325177   0.731   2.782   1.558  1.1124  0.4883  1.1216
 6351SOL    MW425178   0.662   2.773   1.610  0.5342 -0.4623  0.2454
 6352SOL     OW25179   5.721   1.903   5.448  0.0854  0.1231 -0.5108
 6352SOL    HW225180   5.803   1.920   5.401 -0.7240  1.1941 -1.6254
 6352SOL    HW325181   5.653   1.936   5.389 -1.2237 -1.5127  0.0162
 6352SOL    MW425182   5.722   1.910   5.434 -0.1941  0.0486 -0.5883
 6353SOL     OW25183   0.704   2.434   6.215 -0.2279  0.5909 -0.4679
 6353SOL    HW225184   0.613   2.405   6.222  0.1499 -0.2741  1.3466
 6353SOL    HW325185   0.699   2.530   6.220 -1.0591  0.5849 -0.9068
 6353SOL    MW425186   0.691   2.443   6.216 -0.2877  0.4760 -0.2864
 6354SOL     OW25187   1.805   4.602   0.059 -0.1794  0.0567  0.5564
 6354SOL    HW225188   1.855   4.573  -0.018 -0.8786  1.3864 -0.4367
 6354SOL    HW325189   1.714   4.593   0.032 -0.6096 -2.6474  2.4613
 6354SOL    MW425190   1.800   4.597   0.045 -0.3284 -0.1247  0.6767
 6355SOL     OW25191   1.389   3.281   0.512 -0.1008 -1.0053 -0.0678
 6355SOL    HW225192   1.356   3.367   0.484  2.4264  0.3046  0.6750
 6355SOL    HW325193   1.323   3.249   0.573 -1.3781  0.1151 -0.7990
 6355SOL    MW425194   1.376   3.288   0.516  0.0641 -0.6847 -0.0663
 6356SOL     OW25195   1.329   2.788   2.625  0.5597 -0.3035 -0.0247
 6356SOL    HW225196   1.313   2.717   2.562  0.4365 -0.5583  0.2870
 6356SOL    HW325197   1.419   2.815   2.610  0.5888 -0.4921 -0.1838
 6356SOL    MW425198   1.339   2.782   2.615  0.5473 -0.3620 -0.0046
 6357SOL     OW25199   4.640   2.115   5.480 -0.3832  0.2499 -0.1365
 6357SOL    HW225200   4.692   2.038   5.457 -1.1994  0.3190 -2.5027
 6357SOL    HW325201   4.700   2.189   5.469  0.1064  0.0469  1.0967
 6357SOL    MW425202   4.654   2.115   5.475 -0.4263  0.2322 -0.2860
 6358SOL     OW25203   3.305   1.216   2.062 -0.0325  0.3230  0.1767
 6358SOL    HW225204   3.236   1.150   2.073  1.0917 -1.0662 -0.7895
 6358SOL    HW325205   3.347   1.221   2.148 -0.9427  0.7481  0.6065
 6358SOL    MW425206   3.302   1.208   2.075 -0.0042  0.1958  0.1059
 6359SOL     OW25207   6.233   4.023   5.669 -0.0855  0.1239  0.0669
 6359SOL    HW225208   6.261   4.077   5.595 -0.6137  0.0984 -0.1538
 6359SOL    HW325209   6.228   4.084   5.742  1.6246 -0.0678  0.3905
 6359SOL    MW425210   6.236   4.038   5.669  0.0704  0.0952  0.0805
 6360SOL     OW25211   0.951   3.398   3.737 -0.0556 -0.1282 -0.0616
 6360SOL    HW225212   0.932   3.323   3.681 -2.4110 -0.5565  1.1885
 6360SOL    HW325213   0.892   3.467   3.706 -0.6862 -0.0611  1.2333
 6360SOL    MW425214   0.941   3.398   3.726 -0.4495 -0.1759  0.2742
 6361SOL     OW25215   0.722   6.352   3.362 -0.3603  0.4080  0.1981
 6361SOL    HW225216   0.742   6.268   3.405  1.2906  0.4882 -0.3215
 6361SOL    HW325217   0.678   6.327   3.281  0.3996 -0.0072 -0.1038
 6361SOL    MW425218   0.719   6.337   3.357 -0.0422  0.3638  0.0897
 6362SOL     OW25219   0.308   0.893   1.454  0.2325  0.5552 -0.4911
 6362SOL    HW225220   0.276   0.837   1.525  1.0403  1.6558  0.7925
 6362SOL    HW325221   0.293   0.842   1.375  0.0284 -1.0537  0.5337
 6362SOL    MW425222   0.301   0.879   1.453  0.3121  0.4881 -0.1865
 6363SOL     OW25223   1.962   4.535   3.400  0.2604  0.3196 -0.0274
 6363SOL    HW225224   2.009   4.580   3.329 -1.1315 -1.7732 -2.4175
 6363SOL    HW325225   1.870   4.542   3.376 -0.1721 -1.3760  1.0075
 6363SOL    MW425226   1.956   4.542   3.387  0.0197 -0.1803 -0.2062
 6364SOL     OW25227   0.992   0.094   4.073  0.2049  0.4190  0.7393
 6364SOL    HW225228   0.939   0.040   4.015 -0.4288  0.7737  0.9670
 6364SOL    HW325229   1.004   0.041   4.152 -0.0081  0.4175  0.7729
 6364SOL    MW425230   0.986   0.080   4.076  0.0932  0.4656  0.7738
 6365SOL     OW25231   6.091   3.692   5.325  0.2790  0.4648  0.0743
 6365SOL    HW225232   6.068   3.761   5.387 -0.5030  1.1153 -0.9002
 6365SOL    HW325233   6.186   3.682   5.334  0.3564  1.4411  0.4604
 6365SOL    MW425234   6.101   3.700   5.334  0.1860  0.6794 -0.0033
 6366SOL     OW25235   0.932   0.967   0.178  0.1622 -0.3498  0.1720
 6366SOL    HW225236   0.971   0.963   0.266 -0.0357  0.4665  0.3122
 6366SOL    HW325237   0.859   0.905   0.180 -0.5058  0.4321  0.9418
 6366SOL    MW425238   0.928   0.959   0.190  0.0480 -0.1390  0.2920
 6367SOL     OW25239   2.724   3.349   3.584  0.4009 -0.0223  0.0637
 6367SOL    HW225240   2.652   3.317   3.529 -0.6855  1.3193  0.6666
 6367SOL    HW325241   2.801   3.340   3.529 -0.4158 -0.2546 -1.0817
 6367SOL    MW425242   2.725   3.343   3.569  0.1498  0.1241 -0.0079
 6368SOL     OW25243   3.398   6.214   0.690  0.3424 -0.0775 -0.1054
 6368SOL    HW225244   3.455   6.137   0.684 -1.7135 -1.7990  0.9330
 6368SOL    HW325245   3.359   6.208   0.778 -0.2954  1.8661 -0.2056
 6368SOL    MW425246   3.400   6.203   0.701 -0.0130 -0.0482  0.0184
 6369SOL     OW25247   0.654   4.265   0.798 -0.0155  0.2232  0.6602
 6369SOL    HW225248   0.571   4.222   0.818  0.3597 -1.1398 -0.6129
 6369SOL    HW325249   0.708   4.250   0.876 -0.5758  0.1520  1.0375
 6369SOL    MW425250   0.650   4.258   0.811 -0.0399  0.0340  0.5420
 6370SOL     OW25251   3.144   5.083   2.507  0.0226  0.1521  0.3340
 6370SOL    HW225252   3.145   4.991   2.533 -0.2177  0.4500  1.4310
 6370SOL    HW325253   3.054   5.099   2.477  0.3423 -0.2338 -0.9163
 6370SOL    MW425254   3.132   5.073   2.506  0.0331  0.1405  0.3138
 6371SOL     OW25255   2.152   2.358   0.946  0.3130  0.2013 -0.1909
 6371SOL    HW225256   2.084   2.411   0.904  0.2271  1.5198  1.4933
 6371SOL    HW325257   2.233   2.386   0.903  0.1600  1.0744  0.0685
 6371SOL    MW425258   2.154   2.369   0.935  0.2815  0.4905  0.0655
 6372SOL     OW25259   1.536   1.819   4.155 -0.4310  0.1585  0.2737
 6372SOL    HW225260   1.624   1.853   4.140 -0.3915  0.5311  1.2688
 6372SOL    HW325261   1.499   1.809   4.067  0.9281 -0.9272 -0.2198
 6372SOL    MW425262   1.543   1.822   4.141 -0.2465  0.0644  0.3399
 6373SOL     OW25263   1.145   2.007   6.406  0.0471  0.0456 -0.3795
 6373SOL    HW225264   1.098   2.038   6.483  3.3027 -0.7881  2.2095
 6373SOL    HW325265   1.189   2.084   6.371  1.2896 -0.0741  0.8093
 6373SOL    MW425266   1.145   2.021   6.412  0.6406 -0.0802  0.1190
 6374SOL     OW25267   2.045   0.841   0.973 -0.1580  0.1991  0.4003
 6374SOL    HW225268   2.047   0.843   0.877 -2.2839  0.8450  0.3088
 6374SOL    HW325269   1.991   0.765   0.994  0.8826 -0.3620  1.1406
 6374SOL    MW425270   2.038   0.831   0.963 -0.3012  0.2103  0.4859
 6375SOL     OW25271   2.546   3.922   2.710 -0.2001 -0.4975  0.2410
 6375SOL    HW225272   2.581   3.997   2.758 -0.3176  1.1544 -2.0674
 6375SOL    HW325273   2.455   3.945   2.691 -0.1578 -1.0653 -0.7407
 6375SOL    MW425274   2.539   3.935   2.713 -0.2100 -0.3544 -0.1931
 6376SOL     OW25275   6.331   6.400   4.865 -0.4828 -0.4520 -0.4029
 6376SOL    HW225276   6.314   6.401   4.770 -1.2530  0.0941 -0.2706
 6376SOL    HW325277   6.245   6.385   4.904 -0.2292 -0.2967  0.2254
 6376SOL    MW425278   6.317   6.398   4.857 -0.5510 -0.3595 -0.3025
 6377SOL     OW25279   5.924   3.743   0.987 -0.4743 -0.9513  0.0069
 6377SOL    HW225280   5.938   3.781   1.073  0.8813 -0.1436 -0.5382
 6377SOL    HW325281   5.829   3.730   0.981 -0.6055 -0.8425  1.5200
 6377SOL    MW425282   5.913   3.746   0.997 -0.3128 -0.8304  0.1346
 6378SOL     OW25283   1.753   5.929   3.365 -0.0165 -0.2830 -0.0756
 6378SOL    HW225284   1.762   6.022   3.382  0.6047 -0.7095  2.3638
 6378SOL    HW325285   1.662   5.918   3.338 -0.6906  0.8117  1.6131
 6378SOL    MW425286   1.742   5.940   3.364 -0.0235 -0.1948  0.4690
 6379SOL     OW25287   2.037   0.237   0.818  0.2638 -0.0291  0.7090
 6379SOL    HW225288   2.097   0.309   0.800 -0.9398  1.2700  1.6434
 6379SOL    HW325289   1.952   0.279   0.830 -0.8676 -1.8025 -0.5538
 6379SOL    MW425290   2.034   0.252   0.817 -0.0443 -0.0917  0.6657
 6380SOL     OW25291   3.759   2.653   2.225  0.3700 -0.3688  0.1370
 6380SOL    HW225292   3.763   2.707   2.146 -2.3390 -0.8395 -0.4553
 6380SOL    HW325293   3.848   2.654   2.260  1.1478  1.7310 -1.6480
 6380SOL    MW425294   3.771   2.660   2.219  0.1152 -0.1539 -0.1767
 6381SOL     OW25295   5.639   2.596   1.426  0.6236 -0.0964  0.3503
 6381SOL    HW225296   5.549   2.586   1.395  0.8704  0.0784 -0.4387
 6381SOL    HW325297   5.646   2.533   1.498 -0.2312  0.1431  0.6556
 6381SOL    MW425298   5.628   2.586   1.431  0.5434 -0.0418  0.2865
 6382SOL     OW25299   4.093   4.790   5.085 -0.9009  0.2486  0.0090
 6382SOL    HW225300   4.100   4.829   5.172 -2.8873  0.3716  0.1590
 6382SOL    HW325301   4.040   4.711   5.098 -0.7047 -0.0677 -1.0022
 6382SOL    MW425302   4.087   4.784   5.099 -1.1371  0.2231 -0.1046
 6383SOL     OW25303   2.321   4.733   5.714 -0.0589  0.2563  0.5261
 6383SOL    HW225304   2.248   4.675   5.693  0.4866 -0.3613  0.2692
 6383SOL    HW325305   2.281   4.814   5.743 -0.8777 -0.8278  2.6058
 6383SOL    MW425306   2.306   4.736   5.715 -0.0949  0.0318  0.7666
 6384SOL     OW25307   5.087   1.679   0.519  0.0087  0.3908 -0.1611
 6384SOL    HW225308   5.029   1.743   0.559 -0.3120  0.3141 -0.5019
 6384SOL    HW325309   5.175   1.716   0.531 -0.1216  0.5968  0.1862
 6384SOL    MW425310   5.091   1.692   0.526 -0.0508  0.4078 -0.1602
 6385SOL     OW25311   6.265   2.692   4.950 -0.1097 -0.6568  0.0151
 6385SOL    HW225312   6.184   2.642   4.954  0.0379 -0.9653 -0.7266
 6385SOL    HW325313   6.334   2.625   4.952  0.0953 -0.4790 -0.7061
 6385SOL    MW425314   6.264   2.677   4.951 -0.0632 -0.6740 -0.1779
 6386SOL     OW25315   1.560   5.705   3.851  0.0762  0.3142 -0.0563
 6386SOL    HW225316   1.530   5.772   3.912 -0.0960 -0.9609  1.3089
 6386SOL    HW325317   1.599   5.638   3.906  2.0006  0.1416 -1.5347
 6386SOL    MW425318   1.561   5.705   3.866  0.3074  0.1232 -0.0712
 6387SOL     OW25319   6.040   5.702   2.517  0.1251 -0.0484 -0.4328
 6387SOL    HW225320   6.038   5.689   2.612  0.5197 -1.2483 -0.5674
 6387SOL    HW325321   6.059   5.615   2.481  2.2687  0.7790 -1.5035
 6387SOL    MW425322   6.042   5.689   2.525  0.4600 -0.0975 -0.5918
 6388SOL     OW25323   1.888   5.248   2.434 -0.0031 -0.0075 -0.5772
 6388SOL    HW225324   1.806   5.257   2.482 -0.7013 -0.2481 -1.6678
 6388SOL    HW325325   1.925   5.336   2.432  0.0981 -0.0168  0.4765
 6388SOL    MW425326   1.882   5.260   2.440 -0.0819 -0.0405 -0.5821
 6389SOL     OW25327   2.886   3.866   3.218 -0.6264  0.4972  0.5983
 6389SOL    HW225328   2.901   3.956   3.245  0.9686  0.8555 -1.3167
 6389SOL    HW325329   2.858   3.872   3.126  1.1743 -1.0104 -0.1005
 6389SOL    MW425330   2.884   3.878   3.209 -0.1784  0.3455  0.2534
 6390SOL     OW25331   3.975   1.914   3.340  0.2460 -0.9072  0.3724
 6390SOL    HW225332   4.056   1.921   3.390  0.2416  1.4201  0.1502
 6390SOL    HW325333   4.004   1.904   3.249  0.2914 -0.0264  0.2876
 6390SOL    MW425334   3.989   1.913   3.334  0.2514 -0.4840  0.3319
 6391SOL     OW25335   2.987   6.380   4.040 -0.4534  0.8891 -0.1830
 6391SOL    HW225336   3.026   6.343   3.960 -1.6585 -2.1490  0.5125
 6391SOL    HW325337   2.927   6.447   4.008 -0.5609  0.0672 -1.8384
 6391SOL    MW425338   2.984   6.384   4.025 -0.6266  0.3798 -0.3096
 6392SOL     OW25339   5.887   0.114   5.383 -0.0243  0.2148  0.0753
 6392SOL    HW225340   5.875   0.024   5.355  0.5286 -0.5124  2.0110
 6392SOL    HW325341   5.974   0.138   5.351  0.4389 -0.4608  0.7885
 6392SOL    MW425342   5.897   0.105   5.375  0.1098  0.0297  0.4248
 6393SOL     OW25343   3.006   5.004   6.148 -0.6170 -0.0255 -0.1443
 6393SOL    HW225344   3.100   5.012   6.164 -0.5739 -0.0345 -0.3860
 6393SOL    HW325345   2.980   5.091   6.118 -0.8334  0.1904  0.6640
 6393SOL    MW425346   3.015   5.017   6.146 -0.6399  0.0018 -0.0695
 6394SOL     OW25347   1.635   2.548   3.139  0.1036  0.2811  0.0813
 6394SOL    HW225348   1.717   2.551   3.188  1.0095  0.2722 -1.3877
 6394SOL    HW325349   1.635   2.462   3.097 -1.0471 -0.0369  0.6804
 6394SOL    MW425350   1.646   2.537   3.140  0.0713  0.2380 -0.0335
 6395SOL     OW25351   2.827   2.503   1.813 -0.6421 -0.4880  0.2118
 6395SOL    HW225352   2.823   2.596   1.790 -1.4135 -0.6436 -0.3483
 6395SOL    HW325353   2.894   2.497   1.880  1.2959  0.0785 -1.5899
 6395SOL    MW425354   2.835   2.514   1.818 -0.4882 -0.4338 -0.0998
 6396SOL     OW25355   3.054   2.728   1.531 -0.0464  0.4718 -0.1389
 6396SOL    HW225356   3.141   2.764   1.513 -0.7147  2.2933  0.0257
 6396SOL    HW325357   3.000   2.759   1.457 -0.6603 -0.2816 -0.0235
 6396SOL    MW425358   3.058   2.737   1.519 -0.2156  0.6127 -0.1020
 6397SOL     OW25359   2.479   2.361   2.372 -0.1386 -0.1293  0.5043
 6397SOL    HW225360   2.401   2.367   2.318 -1.3405 -1.8391  1.9362
 6397SOL    HW325361   2.511   2.271   2.359  0.2737 -0.1664  1.6336
 6397SOL    MW425362   2.473   2.350   2.363 -0.2428 -0.3598  0.8422
 6398SOL     OW25363   0.142   6.353   5.207 -0.1195  0.3783  0.2458
 6398SOL    HW225364   0.054   6.365   5.243 -0.5137 -0.2481 -0.4774
 6398SOL    HW325365   0.146   6.413   5.132 -0.2373 -0.2009 -0.2308
 6398SOL    MW425366   0.131   6.362   5.202 -0.1870  0.2192  0.0875
 6399SOL     OW25367   2.865   4.517   4.410 -0.1273  0.1233 -0.3970
 6399SOL    HW225368   2.878   4.611   4.422  1.7903  0.1078 -1.9312
 6399SOL    HW325369   2.953   4.481   4.403 -0.8442 -1.5037 -1.8726
 6399SOL    MW425370   2.878   4.525   4.411  0.0311 -0.0934 -0.7941
 6400SOL     OW25371   3.381   1.876   5.547  0.1004 -0.1238 -0.4663
 6400SOL    HW225372   3.301   1.909   5.588 -0.2257 -2.5646  1.0467
 6400SOL    HW325373   3.351   1.838   5.464  0.3002  2.0517 -1.6171
 6400SOL    MW425374   3.366   1.875   5.542  0.0838 -0.1588 -0.4185
 6401SOL     OW25375   0.140   5.300   2.502  0.1889  0.1178  0.2387
 6401SOL    HW225376   0.075   5.233   2.479  1.1178 -0.4059 -0.9600
 6401SOL    HW325377   0.189   5.262   2.575 -0.4327  0.2562  0.7387
 6401SOL    MW425378   0.138   5.286   2.508  0.2294  0.0669  0.1465
 6402SOL     OW25379   0.555   3.117   5.115  0.0023  0.1792 -0.1617
 6402SOL    HW225380   0.624   3.161   5.064  0.8527 -0.2667  0.5622
 6402SOL    HW325381   0.551   3.167   5.196  1.3809 -1.3431  0.9131
 6402SOL    MW425382   0.564   3.130   5.119  0.2964 -0.0805  0.0756
 6403SOL     OW25383   1.980   4.604   6.230 -0.0296  0.2846  0.3210
 6403SOL    HW225384   1.993   4.511   6.213  1.7329  0.6160 -0.4363
 6403SOL    HW325385   1.909   4.630   6.172  2.5181  0.3078 -3.1250
 6403SOL    MW425386   1.973   4.595   6.220  0.5391  0.3314 -0.2336
 6404SOL     OW25387   0.544   4.552   4.003 -0.0208 -0.4556  0.3876
 6404SOL    HW225388   0.469   4.510   3.962 -1.0448  1.6014  0.0236
 6404SOL    HW325389   0.517   4.565   4.094 -0.6074  1.2984 -0.0066
 6404SOL    MW425390   0.531   4.548   4.010 -0.2333  0.0472  0.2876
 6405SOL     OW25391   0.084   6.340   1.881 -0.5426 -0.1666  0.3194
 6405SOL    HW225392   0.103   6.420   1.930 -0.4099 -0.5140  0.8383
 6405SOL    HW325393   0.170   6.301   1.865 -0.7119 -1.4918  2.2525
 6405SOL    MW425394   0.098   6.346   1.885 -0.5474 -0.3873  0.6429
 6406SOL     OW25395   3.931   5.906   3.777 -0.2434  0.3088  0.3662
 6406SOL    HW225396   3.969   5.850   3.844  1.2682  0.5423 -0.2480
 6406SOL    HW325397   3.843   5.871   3.763 -0.2855 -0.2399  1.8693
 6406SOL    MW425398   3.925   5.894   3.784 -0.0495  0.2672  0.4835
 6407SOL     OW25399   0.557   1.613   0.121  0.3241 -0.1978  0.4447
 6407SOL    HW225400   0.514   1.647   0.043  2.6458 -1.4324 -1.5152
 6407SOL    HW325401   0.586   1.525   0.096  2.0977 -0.2262  2.3054
 6407SOL    MW425402   0.555   1.606   0.107  0.8644 -0.3645  0.4316
 6408SOL     OW25403   4.982   5.887   3.495  0.3331 -0.3504  0.1459
 6408SOL    HW225404   4.990   5.815   3.558 -1.6054 -0.7171  0.0269
 6408SOL    HW325405   4.902   5.933   3.521  0.8890  1.0605 -0.5172
 6408SOL    MW425406   4.972   5.884   3.507  0.1507 -0.2127  0.0427
 6409SOL     OW25407   4.748   0.060   1.852 -0.2934 -0.1897  0.4098
 6409SOL    HW225408   4.795   0.027   1.774 -1.3975 -1.8190  0.3834
 6409SOL    HW325409   4.716  -0.019   1.895 -0.1699  0.7203  2.2600
 6409SOL    MW425410   4.750   0.045   1.847 -0.4228 -0.2846  0.6504
 6410SOL     OW25411   4.498   3.129   3.147  0.4818  0.0086 -0.0449
 6410SOL    HW225412   4.579   3.104   3.193  0.8849 -0.0918 -0.7857
 6410SOL    HW325413   4.506   3.224   3.135  1.1481 -0.1890 -1.3186
 6410SOL    MW425414   4.510   3.138   3.152  0.6229 -0.0307 -0.3107
 6411SOL     OW25415   1.619   2.937   1.288 -0.0775 -0.3353 -0.0515
 6411SOL    HW225416   1.636   3.009   1.227  0.1271 -1.8197 -1.8501
 6411SOL    HW325417   1.527   2.914   1.273  0.4501 -1.8805 -1.1868
 6411SOL    MW425418   1.609   2.944   1.278  0.0191 -0.7350 -0.4386
 6412SOL     OW25419   5.331   0.265   0.333  0.4075  0.2156  0.7719
 6412SOL    HW225420   5.331   0.328   0.405 -0.8210  0.0949  0.9070
 6412SOL    HW325421   5.399   0.202   0.355  1.6045  1.4313  0.6726
 6412SOL    MW425422   5.340   0.265   0.345  0.4034  0.3601  0.7766
 6413SOL     OW25423   5.065   2.657   1.249 -0.3572 -0.5587  0.5903
 6413SOL    HW225424   4.991   2.625   1.197 -0.3640  0.2224  0.1018
 6413SOL    HW325425   5.051   2.752   1.254 -0.7938 -0.6663  2.6830
 6413SOL    MW425426   5.053   2.665   1.243 -0.4157 -0.4698  0.8019
 6414SOL     OW25427   4.279   5.891   2.761 -0.6768  0.6187  0.0751
 6414SOL    HW225428   4.213   5.822   2.771 -1.7632  1.3225 -1.8439
 6414SOL    HW325429   4.362   5.843   2.761 -1.2887 -0.4998  0.5974
 6414SOL    MW425430   4.281   5.875   2.762 -0.9009  0.5640 -0.1092
 6415SOL     OW25431   0.904   3.992   4.174 -0.0385  0.7018 -0.2590
 6415SOL    HW225432   0.855   3.934   4.233  1.6209  0.0657  0.5583
 6415SOL    HW325433   0.837   4.046   4.132 -1.3686  0.4016  1.3801
 6415SOL    MW425434   0.888   3.991   4.176  0.0049  0.5783  0.0651
 6416SOL     OW25435   2.201   0.383   5.708 -0.3056 -0.0144  0.0371
 6416SOL    HW225436   2.296   0.392   5.700 -0.3480  0.5192  0.0927
 6416SOL    HW325437   2.183   0.397   5.801 -0.6468  2.0882 -0.2852
 6416SOL    MW425438   2.211   0.386   5.719 -0.3562  0.3334  0.0019
 6417SOL     OW25439   1.413   3.257   0.080 -0.5196  0.1624  0.3039
 6417SOL    HW225440   1.333   3.248   0.130 -0.7674  0.2136 -0.0755
 6417SOL    HW325441   1.479   3.285   0.143 -0.5773 -0.8079  0.8016
 6417SOL    MW425442   1.411   3.260   0.095 -0.5599  0.0411  0.3195
 6418SOL     OW25443   1.694   6.419   5.140  0.2597 -0.1374  0.2827
 6418SOL    HW225444   1.744   6.481   5.087  0.6394 -0.5428  0.1669
 6418SOL    HW325445   1.757   6.351   5.165 -0.2761 -0.7778 -0.0698
 6418SOL    MW425446   1.709   6.418   5.136  0.2391 -0.2754  0.2209
 6419SOL     OW25447   4.648   3.896   1.976 -0.1408  0.0168  0.2398
 6419SOL    HW225448   4.717   3.830   1.967 -1.0309 -0.8332 -0.6610
 6419SOL    HW325449   4.695   3.979   1.987  1.0044 -0.6245  0.3642
 6419SOL    MW425450   4.663   3.898   1.977 -0.1072 -0.1800  0.1374
 6420SOL     OW25451   0.174   2.618   3.137 -0.4612  0.2427 -0.5456
 6420SOL    HW225452   0.235   2.600   3.208 -0.0815  0.2749 -0.8625
 6420SOL    HW325453   0.111   2.546   3.140 -0.7710  0.5310  0.1658
 6420SOL    MW425454   0.174   2.606   3.147 -0.4520  0.2850 -0.4936
 6421SOL     OW25455   0.251   0.256   5.205 -0.1940 -0.4849  0.4538
 6421SOL    HW225456   0.197   0.255   5.126  3.4040  2.1666 -2.4273
 6421SOL    HW325457   0.340   0.239   5.172  1.4468  0.3097  4.0332
 6421SOL    MW425458   0.256   0.253   5.190  0.4972 -0.0302  0.5460
 6422SOL     OW25459   6.011   1.390   4.615  0.2670  0.2831 -0.5863
 6422SOL    HW225460   5.962   1.459   4.659  0.5932 -0.4574  1.0427
 6422SOL    HW325461   5.980   1.391   4.525 -0.7625  1.5942 -0.2432
 6422SOL    MW425462   6.001   1.399   4.609  0.1742  0.3584 -0.3261
 6423SOL     OW25463   4.599   4.326   1.432 -0.3999 -0.0545 -0.3018
 6423SOL    HW225464   4.517   4.296   1.472 -1.6427  0.8092 -2.0234
 6423SOL    HW325465   4.657   4.251   1.437 -1.2207 -0.6321  1.1652
 6423SOL    MW425466   4.596   4.312   1.438 -0.6722 -0.0167 -0.3354
 6424SOL     OW25467   6.389   0.275   0.996 -0.0231 -0.4269 -0.1596
 6424SOL    HW225468   6.414   0.258   1.087 -0.3563 -1.0806 -0.1777
 6424SOL    HW325469   6.457   0.231   0.944  1.4279  1.7960 -0.2853
 6424SOL    MW425470   6.402   0.267   1.001  0.1244 -0.2199 -0.1785
 6425SOL     OW25471   0.973   2.091   4.803 -0.3920 -0.2685  0.0251
 6425SOL    HW225472   0.897   2.122   4.852  0.5526  1.0874  0.6839
 6425SOL    HW325473   1.008   2.169   4.760  1.2152 -0.6659  0.5367
 6425SOL    MW425474   0.968   2.105   4.804 -0.0553 -0.1420  0.1795
 6426SOL     OW25475   4.428   5.871   3.387  0.2938  0.2973  0.1411
 6426SOL    HW225476   4.446   5.965   3.400  0.5046  0.3526 -0.5009
 6426SOL    HW325477   4.427   5.835   3.475  0.7290  0.8164  0.3713
 6426SOL    MW425478   4.431   5.879   3.400  0.3790  0.3731  0.0868
 6427SOL     OW25479   2.228   6.107   3.432  0.3759  0.0531  0.4044
 6427SOL    HW225480   2.318   6.134   3.447  0.7242 -2.0304  2.8058
 6427SOL    HW325481   2.235   6.017   3.399 -0.8322  0.6719 -1.7562
 6427SOL    MW425482   2.241   6.099   3.430  0.2624 -0.1402  0.4362
 6428SOL     OW25483   5.867   0.241   2.083  0.2565 -0.5677  0.4431
 6428SOL    HW225484   5.805   0.193   2.137  1.3055 -1.4139  0.9319
 6428SOL    HW325485   5.834   0.232   1.993 -1.7402  1.2153  0.9271
 6428SOL    MW425486   5.854   0.233   2.078  0.1314 -0.4441  0.5714
 6429SOL     OW25487   0.580   2.248   3.743 -0.1046 -0.3353 -0.4716
 6429SOL    HW225488   0.653   2.310   3.743 -0.3847  0.0164  0.2864
 6429SOL    HW325489   0.514   2.289   3.800  0.5507 -2.2766  1.8570
 6429SOL    MW425490   0.581   2.261   3.751 -0.0551 -0.5450 -0.0644
 6430SOL     OW25491   5.374   2.172   2.795 -0.5061 -0.2576  0.3919
 6430SOL    HW225492   5.389   2.116   2.719 -2.4487  0.3395 -0.5014
 6430SOL    HW325493   5.441   2.240   2.788 -0.6610 -0.2094 -0.7965
 6430SOL    MW425494   5.385   2.174   2.784 -0.7829 -0.1724  0.1172
 6431SOL     OW25495   3.391   1.569   0.469 -0.1915 -0.5473  0.0753
 6431SOL    HW225496   3.464   1.576   0.407  0.3367  0.6276  0.7848
 6431SOL    HW325497   3.371   1.660   0.492 -0.4603 -0.9453  1.5104
 6431SOL    MW425498   3.398   1.582   0.464 -0.1573 -0.4448  0.3583
 6432SOL     OW25499   2.753   1.968   2.156  0.1343  0.1100  0.1253
 6432SOL    HW225500   2.663   1.991   2.133  0.6605  0.3159 -1.9334
 6432SOL    HW325501   2.768   1.884   2.113  1.1992  0.5311 -0.3695
 6432SOL    MW425502   2.744   1.960   2.147  0.3442  0.1927 -0.2116
 6433SOL     OW25503   1.164   1.895   1.619  0.1476 -0.4688  0.0280
 6433SOL    HW225504   1.175   1.801   1.607 -3.0041 -0.7411 -1.6396
 6433SOL    HW325505   1.206   1.934   1.542 -0.6987 -0.6921 -0.5512
 6433SOL    MW425506   1.171   1.888   1.607 -0.3799 -0.5342 -0.2684
 6434SOL     OW25507   2.651   0.135   1.810 -0.0259  0.1345 -0.3832
 6434SOL    HW225508   2.645   0.057   1.865 -0.2847  0.7087  0.4114
 6434SOL    HW325509   2.742   0.165   1.819  0.1184 -0.1568 -0.8163
 6434SOL    MW425510   2.662   0.129   1.818 -0.0410  0.1718 -0.3355
 6435SOL     OW25511   1.967   3.687   2.911 -0.4399  0.3526  0.6110
 6435SOL    HW225512   2.033   3.739   2.865  0.1198 -0.4201  0.5263
 6435SOL    HW325513   1.934   3.746   2.978  1.4435  0.3018  1.6657
 6435SOL    MW425514   1.972   3.702   2.914 -0.1175  0.2440  0.7390
 6436SOL     OW25515   3.810   6.292   6.171  0.5666  0.2936  0.6124
 6436SOL    HW225516   3.847   6.374   6.138 -0.8825  0.8528  0.3232
 6436SOL    HW325517   3.779   6.247   6.093 -0.3409  0.3362  0.9429
 6436SOL    MW425518   3.811   6.297   6.156  0.2557  0.3730  0.6178
 6437SOL     OW25519   2.252   4.353   2.386 -0.0619  0.2947 -0.0232
 6437SOL    HW225520   2.239   4.448   2.385 -0.1346  0.3077 -2.1859
 6437SOL    HW325521   2.209   4.324   2.467  0.9427  2.1888  1.2852
 6437SOL    MW425522   2.245   4.362   2.397  0.0610  0.5463 -0.1359
 6438SOL     OW25523   2.870   5.046   6.376  0.0884  0.3908  0.8135
 6438SOL    HW225524   2.902   5.027   6.288 -0.7088  1.6681  0.2173
 6438SOL    HW325525   2.937   5.102   6.414 -0.2967  1.1338  0.4244
 6438SOL    MW425526   2.883   5.051   6.370 -0.0676  0.6574  0.6835
 6439SOL     OW25527   6.246   4.469   1.680 -0.3733 -0.5090  0.1869
 6439SOL    HW225528   6.276   4.520   1.756  2.1412 -0.2036 -0.9248
 6439SOL    HW325529   6.237   4.534   1.610 -1.0622 -1.0366 -0.2299
 6439SOL    MW425530   6.249   4.484   1.681 -0.1324 -0.5383 -0.0148
 6440SOL     OW25531   3.709   0.784   4.599  0.0302  0.1897  0.1612
 6440SOL    HW225532   3.799   0.807   4.575  0.0367 -0.2644 -0.2546
 6440SOL    HW325533   3.661   0.867   4.595 -0.4254 -0.1250 -3.3592
 6440SOL    MW425534   3.715   0.798   4.595 -0.0290  0.0882 -0.3581
 6441SOL     OW25535   3.089   5.720   2.063  0.1812  0.9642  0.3306
 6441SOL    HW225536   3.136   5.796   2.096 -0.7306  1.3607  0.7467
 6441SOL    HW325537   3.060   5.673   2.142  1.1233 -0.0858  0.0907
 6441SOL    MW425538   3.092   5.724   2.078  0.1852  0.8780  0.3539
 6442SOL     OW25539   2.437   4.696   5.975 -0.9143 -1.1249  0.1469
 6442SOL    HW225540   2.456   4.608   6.007  0.7573 -1.2869 -1.1617
 6442SOL    HW325541   2.399   4.683   5.888  1.0556 -0.5581 -0.8514
 6442SOL    MW425542   2.434   4.683   5.968 -0.4338 -1.0715 -0.1575
 6443SOL     OW25543   3.107   6.036   6.196 -0.9265 -0.0952 -0.7614
 6443SOL    HW225544   3.054   6.109   6.230  1.2949  1.2167  0.0930
 6443SOL    HW325545   3.118   5.977   6.270 -0.2735  0.2042 -0.6169
 6443SOL    MW425546   3.101   6.038   6.210 -0.5472  0.1174 -0.6296
 6444SOL     OW25547   4.441   0.337   0.933  0.0439  0.1050  0.0135
 6444SOL    HW225548   4.390   0.265   0.968  2.3297 -1.3120  0.6224
 6444SOL    HW325549   4.454   0.315   0.841  0.5774 -0.1659  0.1522
 6444SOL    MW425550   4.436   0.325   0.925  0.4158 -0.1177  0.1121
 6445SOL     OW25551   5.431   5.780   2.629 -0.1686 -0.0296  0.3191
 6445SOL    HW225552   5.497   5.842   2.660 -0.2642  1.1041 -1.5982
 6445SOL    HW325553   5.412   5.726   2.705  3.0036 -0.4455  0.9705
 6445SOL    MW425554   5.437   5.781   2.643  0.2374  0.0651  0.1521
 6446SOL     OW25555   0.390   0.472   6.088  0.4933 -0.0057  0.0349
 6446SOL    HW225556   0.444   0.438   6.017 -0.1128 -0.1817 -0.3534
 6446SOL    HW325557   0.301   0.468   6.054  0.4398  2.6254 -0.2830
 6446SOL    MW425558   0.385   0.467   6.074  0.4063  0.3182 -0.0583
 6447SOL     OW25559   1.684   3.282   4.272  0.2351 -0.3619 -0.1201
 6447SOL    HW225560   1.681   3.372   4.241 -1.0903 -0.2741  0.2364
 6447SOL    HW325561   1.669   3.229   4.193 -4.2566 -0.1195  0.3216
 6447SOL    MW425562   1.682   3.287   4.257 -0.5324 -0.3183 -0.0147
 6448SOL     OW25563   1.883   5.453   0.358 -1.0641  0.0149 -0.4718
 6448SOL    HW225564   1.954   5.442   0.295  1.6993  1.1678  2.2320
 6448SOL    HW325565   1.819   5.386   0.333  1.4006 -1.8268 -2.4361
 6448SOL    MW425566   1.884   5.443   0.346 -0.3743 -0.0760 -0.3743
 6449SOL     OW25567   0.038   6.173   4.950 -0.7895 -0.4676  0.1069
 6449SOL    HW225568   0.101   6.186   5.021  0.5724 -0.2205 -1.1117
 6449SOL    HW325569   0.004   6.260   4.931 -1.3758 -0.5730  0.6238
 6449SOL    MW425570   0.042   6.186   4.957 -0.6871 -0.4489  0.0143
 6450SOL     OW25571   2.130   4.033   0.314  0.1945 -0.8319 -0.3482
 6450SOL    HW225572   2.189   3.985   0.371 -0.3107 -0.6916  0.3028
 6450SOL    HW325573   2.186   4.067   0.244  1.0639  0.1941  0.8087
 6450SOL    MW425574   2.145   4.031   0.312  0.2426 -0.6780 -0.1097
 6451SOL     OW25575   2.118   5.844   6.147 -0.5996  0.3368  0.2103
 6451SOL    HW225576   2.144   5.781   6.214 -2.2063  0.3895  0.9210
 6451SOL    HW325577   2.173   5.921   6.164 -0.4797  0.0853  1.0140
 6451SOL    MW425578   2.129   5.846   6.158 -0.7958  0.3106  0.4101
 6452SOL     OW25579   5.135   4.657   0.118  0.0898  0.1223 -0.3889
 6452SOL    HW225580   5.195   4.712   0.169 -0.0666  0.2858 -0.3828
 6452SOL    HW325581   5.051   4.701   0.124  0.3274  0.7991 -1.8064
 6452SOL    MW425582   5.132   4.670   0.126  0.1005  0.2331 -0.5751
 6453SOL     OW25583   3.414   5.682   3.170 -0.1868  0.0140  0.3638
 6453SOL    HW225584   3.360   5.733   3.109 -1.3630 -0.2975  1.1139
 6453SOL    HW325585   3.388   5.714   3.257  0.0235 -0.9299  0.7845
 6453SOL    MW425586   3.404   5.693   3.173 -0.3143 -0.1517  0.5183
 6454SOL     OW25587   4.427   2.147   3.511  0.5127  0.2388  0.1055
 6454SOL    HW225588   4.393   2.140   3.601  0.2575  3.7813  0.3922
 6454SOL    HW325589   4.522   2.133   3.521  0.1747 -2.4893  0.3536
 6454SOL    MW425590   4.435   2.144   3.525  0.4344  0.3462  0.1760
 6455SOL     OW25591   5.004   1.874   3.247 -0.3186 -0.2820 -1.0190
 6455SOL    HW225592   4.970   1.943   3.304 -0.0836 -0.1789 -1.0010
 6455SOL    HW325593   4.971   1.793   3.285 -1.8965 -0.1049 -1.9192
 6455SOL    MW425594   4.995   1.873   3.259 -0.4958 -0.2450 -1.1354
 6456SOL     OW25595   3.152   1.386   1.374  0.2678 -0.4091  0.0631
 6456SOL    HW225596   3.122   1.464   1.420  1.4758 -0.4497  0.9570
 6456SOL    HW325597   3.082   1.366   1.312  0.0915  1.5979 -0.4504
 6456SOL    MW425598   3.139   1.393   1.372  0.4039 -0.1497  0.1132
 6457SOL     OW25599   1.324   4.176   2.186  0.3640  0.1231 -0.1601
 6457SOL    HW225600   1.371   4.099   2.154 -1.8828 -1.3999 -0.0369
 6457SOL    HW325601   1.244   4.178   2.135 -0.5575  1.1802  1.2507
 6457SOL    MW425602   1.320   4.166   2.175 -0.0540  0.0616  0.0423
 6458SOL     OW25603   6.009   5.542   1.123  0.3299 -0.0816 -0.3364
 6458SOL    HW225604   6.014   5.463   1.178 -0.9881  0.7887  1.1239
 6458SOL    HW325605   5.919   5.544   1.093  0.3327  0.9097 -0.2893
 6458SOL    MW425606   5.998   5.532   1.127  0.1564  0.1640 -0.1376
 6459SOL     OW25607   4.832   3.076   3.975  0.2305  0.1038 -0.0080
 6459SOL    HW225608   4.773   3.080   4.049 -1.4087  1.7700 -1.3174
 6459SOL    HW325609   4.909   3.126   4.002 -0.3178  0.6239  0.6030
 6459SOL    MW425610   4.835   3.083   3.988 -0.0581  0.3922 -0.1002
 6460SOL     OW25611   3.121   1.352   2.857  0.1735 -0.2130  0.1760
 6460SOL    HW225612   3.148   1.341   2.948  0.5091  1.3285  0.2976
 6460SOL    HW325613   3.184   1.414   2.821 -0.0134 -0.7380 -1.0887
 6460SOL    MW425614   3.133   1.359   2.864  0.1931 -0.0789  0.0252
 6461SOL     OW25615   2.573   2.684   5.012  0.1260  0.5213 -0.0970
 6461SOL    HW225616   2.490   2.726   5.034  0.6693  0.7253  1.6821
 6461SOL    HW325617   2.567   2.597   5.052  1.3377  1.0768  1.3702
 6461SOL    MW425618   2.561   2.678   5.020  0.3576  0.6215  0.3313
 6462SOL     OW25619   0.022   2.927   2.553 -0.4603 -0.0476  0.5918
 6462SOL    HW225620  -0.050   2.884   2.598 -0.0291 -2.8417 -1.1324
 6462SOL    HW325621   0.001   2.917   2.460  0.4170  2.3420  0.0556
 6462SOL    MW425622   0.010   2.920   2.547 -0.2876 -0.1010  0.2936
 6463SOL     OW25623   1.721   1.998   5.480 -0.1015 -0.2022  0.4921
 6463SOL    HW225624   1.689   2.022   5.393  1.9491  0.3819 -0.1759
 6463SOL    HW325625   1.642   1.993   5.534 -1.2724  1.4596 -0.9223
 6463SOL    MW425626   1.706   2.001   5.475  0.0146  0.0941  0.2173
 6464SOL     OW25627   1.889   3.234   0.326 -0.0151  0.0488  0.4109
 6464SOL    HW225628   1.921   3.226   0.416 -2.6801 -1.2910  1.3419
 6464SOL    HW325629   1.963   3.207   0.272  1.4604  0.3091  2.2181
 6464SOL    MW425630   1.903   3.229   0.331 -0.1720 -0.0936  0.7721
 6465SOL     OW25631   0.876   1.921   1.232  0.4803  0.3138 -0.1633
 6465SOL    HW225632   0.894   1.837   1.276 -1.9637  0.0234  0.4060
 6465SOL    HW325633   0.909   1.987   1.293  0.7875 -0.1838  0.2203
 6465SOL    MW425634   0.883   1.918   1.246  0.1984  0.2098 -0.0376
 6466SOL     OW25635   4.420   4.006   0.122  0.3784  0.1036 -0.0376
 6466SOL    HW225636   4.375   3.932   0.082 -0.0579  0.2743  0.1388
 6466SOL    HW325637   4.391   4.082   0.072 -0.6117  0.3972  0.9467
 6466SOL    MW425638   4.410   4.006   0.110  0.1902  0.1648  0.1155
 6467SOL     OW25639   2.422   0.186   2.617 -0.3469  0.2889  0.3395
 6467SOL    HW225640   2.425   0.182   2.521  2.9534 -1.8656  0.3775
 6467SOL    HW325641   2.435   0.279   2.636  0.9903  0.5176 -1.3550
 6467SOL    MW425642   2.424   0.198   2.607  0.2650  0.0348  0.1209
 6468SOL     OW25643   5.737   2.815   5.584 -0.0153  0.1704  0.0561
 6468SOL    HW225644   5.693   2.739   5.547  0.8891 -0.2007 -0.2954
 6468SOL    HW325645   5.717   2.887   5.524  1.8307 -0.5267 -1.5048
 6468SOL    MW425646   5.729   2.815   5.571  0.3476  0.0295 -0.1962
 6469SOL     OW25647   4.183   1.602   1.056  0.1739  0.0255 -0.0317
 6469SOL    HW225648   4.096   1.563   1.044  0.6188 -0.8168 -0.5550
 6469SOL    HW325649   4.211   1.571   1.142  0.1375 -0.0465 -0.0458
 6469SOL    MW425650   4.175   1.593   1.066  0.2278 -0.0952 -0.1026
 6470SOL     OW25651   2.073   3.462   0.509  0.0917  0.2782  0.8208
 6470SOL    HW225652   2.038   3.378   0.536 -0.1444 -0.2769 -1.0734
 6470SOL    HW325653   1.999   3.522   0.512 -0.4812 -0.3067 -0.7154
 6470SOL    MW425654   2.059   3.459   0.513 -0.0150  0.1278  0.3682
 6471SOL     OW25655   1.483   6.248   1.291  0.3288 -0.4157  0.2953
 6471SOL    HW225656   1.482   6.208   1.378 -1.3472  1.2772  1.1315
 6471SOL    HW325657   1.467   6.176   1.231  1.2813 -1.5859  1.3769
 6471SOL    MW425658   1.481   6.233   1.295  0.2334 -0.3467  0.5483
 6472SOL     OW25659   4.883   1.777   0.698  0.0501 -0.6130 -0.1922
 6472SOL    HW225660   4.877   1.831   0.777  0.2543 -1.0787  0.1433
 6472SOL    HW325661   4.824   1.819   0.636 -2.2645 -1.7926  1.0927
 6472SOL    MW425662   4.875   1.790   0.700 -0.2283 -0.8300  0.0216
 6473SOL     OW25663   0.402   0.577   1.387  0.3345 -0.0763  0.2118
 6473SOL    HW225664   0.450   0.616   1.460  0.3921 -0.0548  0.1626
 6473SOL    HW325665   0.461   0.509   1.354  0.3081 -0.0860  0.1857
 6473SOL    MW425666   0.416   0.573   1.393  0.3386 -0.0747  0.2018
 6474SOL     OW25667   3.965   1.874   5.928  0.4393  0.0622 -0.0635
 6474SOL    HW225668   3.911   1.951   5.944  0.1844 -0.1771  0.2508
 6474SOL    HW325669   4.048   1.893   5.973 -0.7537 -1.1851  2.8920
 6474SOL    MW425670   3.969   1.887   5.936  0.2483 -0.1340  0.3679
 6475SOL     OW25671   4.863   4.099   0.028  0.4367 -0.4780 -0.3193
 6475SOL    HW225672   4.820   4.125  -0.053 -0.0055 -0.1127  0.0220
 6475SOL    HW325673   4.916   4.175   0.053  0.2251 -0.4206 -0.0390
 6475SOL    MW425674   4.864   4.112   0.021  0.3505 -0.4222 -0.2373
 6476SOL     OW25675   1.139   2.662   2.336  0.5767  0.1643 -0.3043
 6476SOL    HW225676   1.153   2.614   2.254 -4.0409  0.0975 -1.3285
 6476SOL    HW325677   1.101   2.746   2.308 -1.1293  0.1367  1.6949
 6476SOL    MW425678   1.136   2.667   2.321 -0.2576  0.1518 -0.1757
 6477SOL     OW25679   3.489   5.607   0.611  0.5083 -0.1539  0.4976
 6477SOL    HW225680   3.574   5.625   0.650  0.2679 -1.2916  1.6216
 6477SOL    HW325681   3.490   5.513   0.594 -0.2875 -0.0728 -0.0592
 6477SOL    MW425682   3.500   5.597   0.614  0.3716 -0.2933  0.5725
 6478SOL     OW25683   0.950   5.156   2.995  0.3587  0.0760 -0.7005
 6478SOL    HW225684   0.932   5.200   3.078  1.5305  0.3192 -0.5548
 6478SOL    HW325685   0.910   5.213   2.929 -0.5120 -0.0816 -0.3261
 6478SOL    MW425686   0.942   5.170   2.997  0.3984  0.0873 -0.6319
 6479SOL     OW25687   2.442   4.918   0.348 -0.7703  0.2111 -0.2696
 6479SOL    HW225688   2.372   4.971   0.384 -1.1787 -1.4333  1.5085
 6479SOL    HW325689   2.449   4.843   0.408  0.7803 -0.9662 -1.8199
 6479SOL    MW425690   2.434   4.915   0.361 -0.6196 -0.1611 -0.2395
 6480SOL     OW25691   0.653   6.442   2.284 -0.4396 -0.1325  0.0812
 6480SOL    HW225692   0.727   6.384   2.271  0.0465  0.3242  0.7568
 6480SOL    HW325693   0.670   6.517   2.226 -0.8481 -0.4553 -0.4644
 6480SOL    MW425694   0.665   6.444   2.275 -0.4294 -0.1148  0.0984
 6481SOL     OW25695   2.201   5.641   5.332 -0.2350  0.1880 -0.0882
 6481SOL    HW225696   2.163   5.729   5.333 -2.6681 -0.7584  1.7850
 6481SOL    HW325697   2.260   5.640   5.407  2.3945  1.0956 -1.9720
 6481SOL    MW425698   2.204   5.653   5.342 -0.2091  0.1829 -0.0896
 6482SOL     OW25699   3.670   2.295   4.773  0.2611  0.5666  1.0017
 6482SOL    HW225700   3.597   2.253   4.727  0.1019  1.7178  0.1275
 6482SOL    HW325701   3.660   2.388   4.751  2.1093  0.7226  0.6989
 6482SOL    MW425702   3.659   2.302   4.764  0.4839  0.7391  0.8464
 6483SOL     OW25703   4.210   2.860   5.140 -0.3725 -0.4274  0.0674
 6483SOL    HW225704   4.237   2.854   5.048  0.0915 -0.8124  0.2236
 6483SOL    HW325705   4.225   2.772   5.175  0.6112  0.0212  0.8238
 6483SOL    MW425706   4.215   2.847   5.133 -0.1815 -0.4190  0.1878
 6484SOL     OW25707   3.366   3.967   0.092 -0.5128 -0.5125 -0.8948
 6484SOL    HW225708   3.340   3.886   0.135  0.0178  0.4894  1.4857
 6484SOL    HW325709   3.432   3.940   0.027 -1.6618 -2.1334 -1.4426
 6484SOL    MW425710   3.371   3.953   0.089 -0.5944 -0.5942 -0.6530
 6485SOL     OW25711   3.625   2.823   2.420 -0.3536  0.2729  0.6153
 6485SOL    HW225712   3.718   2.844   2.430  0.3542 -2.6747  1.1608
 6485SOL    HW325713   3.623   2.752   2.356 -2.2741  0.4765  0.3852
 6485SOL    MW425714   3.637   2.817   2.413 -0.5136 -0.0891  0.6569
 6486SOL     OW25715   1.256   0.420   4.847  0.3638  0.4705 -0.0681
 6486SOL    HW225716   1.240   0.364   4.771 -1.4021 -0.0962  0.6840
 6486SOL    HW325717   1.173   0.463   4.864  0.5883  0.2612  1.8005
 6486SOL    MW425718   1.243   0.418   4.839  0.1604  0.3681  0.2777
 6487SOL     OW25719   4.070   0.832   6.220  0.2708  1.0202 -0.4212
 6487SOL    HW225720   4.008   0.770   6.182  1.1629  1.1091 -2.1459
 6487SOL    HW325721   4.111   0.785   6.292 -0.0839  0.1110 -0.8048
 6487SOL    MW425722   4.067   0.818   6.225  0.3417  0.9120 -0.6994
 6488SOL     OW25723   3.332   3.497   4.867 -0.2770 -0.6707 -0.5679
 6488SOL    HW225724   3.254   3.502   4.812 -1.5982 -0.1194  1.2705
 6488SOL    HW325725   3.314   3.557   4.939  2.6811  1.0014 -1.0588
 6488SOL    MW425726   3.320   3.506   4.869 -0.0610 -0.3773 -0.3901
 6489SOL     OW25727   1.098   2.659   3.449  0.0554 -0.1336  0.1926
 6489SOL    HW225728   1.120   2.752   3.439  2.6946 -0.3444  2.7550
 6489SOL    HW325729   1.005   2.659   3.469 -0.1917  1.8507 -0.6826
 6489SOL    MW425730   1.089   2.672   3.450  0.3710  0.1004  0.4152
 6490SOL     OW25731   4.366   6.146   5.794 -0.0041  0.2043  0.6402
 6490SOL    HW225732   4.438   6.201   5.764  0.1473 -0.0369  0.5502
 6490SOL    HW325733   4.293   6.206   5.810 -1.2327  0.1268 -3.4484
 6490SOL    MW425734   4.366   6.161   5.792 -0.1462  0.1623  0.0889
 6491SOL     OW25735   5.413   4.595   4.611 -0.3906 -0.2418  0.0286
 6491SOL    HW225736   5.378   4.657   4.675 -1.1901  0.2314 -0.8478
 6491SOL    HW325737   5.351   4.523   4.611  0.5721 -1.1147  1.0932
 6491SOL    MW425738   5.401   4.594   4.619 -0.3691 -0.2945  0.0534
 6492SOL     OW25739   2.848   2.253   2.936 -0.6885  0.2708 -0.2826
 6492SOL    HW225740   2.833   2.266   3.029 -0.2941 -0.7718 -0.0567
 6492SOL    HW325741   2.941   2.229   2.929 -0.7216  0.3013 -0.9321
 6492SOL    MW425742   2.859   2.251   2.947 -0.6408  0.1372 -0.3385
 6493SOL     OW25743   4.345   3.800   4.061  0.1550 -0.0256 -0.3689
 6493SOL    HW225744   4.331   3.708   4.082  0.5725 -0.0294 -0.1086
 6493SOL    HW325745   4.320   3.808   3.969  2.0581 -0.8178 -0.9871
 6493SOL    MW425746   4.340   3.789   4.052  0.4612 -0.1306 -0.4161
 6494SOL     OW25747   3.460   2.786   3.124 -0.4040 -0.6197 -0.0153
 6494SOL    HW225748   3.542   2.789   3.173 -0.7150 -1.5223  0.5800
 6494SOL    HW325749   3.459   2.698   3.086 -0.8977 -0.4626 -0.3620
 6494SOL    MW425750   3.471   2.775   3.125 -0.5102 -0.7180  0.0175
 6495SOL     OW25751   5.000   5.490   3.143  0.0717  0.0358  0.2089
 6495SOL    HW225752   4.968   5.579   3.160  0.2124 -0.1002  1.3009
 6495SOL    HW325753   5.074   5.480   3.204  0.1665 -0.7681 -0.0277
 6495SOL    MW425754   5.006   5.501   3.153  0.1027 -0.0882  0.3218
 6496SOL     OW25755   3.355   5.998   3.757 -0.0412  0.0316  0.1053
 6496SOL    HW225756   3.304   6.060   3.810 -0.4071  1.9845 -2.3144
 6496SOL    HW325757   3.290   5.958   3.698  0.6417 -0.3939 -0.3758
 6496SOL    MW425758   3.340   6.001   3.756  0.0006  0.2331 -0.2774
 6497SOL     OW25759   3.425   1.724   4.799  0.6302 -0.4031 -0.1881
 6497SOL    HW225760   3.515   1.706   4.772  0.1773 -2.0379 -0.6706
 6497SOL    HW325761   3.405   1.657   4.864  0.2744  0.9474  1.1802
 6497SOL    MW425762   3.435   1.713   4.804  0.5235 -0.4406 -0.0712
 6498SOL     OW25763   0.208   0.993   5.424  0.0180 -0.2496  0.3124
 6498SOL    HW225764   0.232   0.908   5.387  0.5153  0.5768 -1.3922
 6498SOL    HW325765   0.167   0.972   5.508 -0.3805 -2.1979 -0.3084
 6498SOL    MW425766   0.206   0.979   5.430  0.0310 -0.3976  0.0056
 6499SOL     OW25767   0.808   4.809   5.173  0.1845  0.0225  0.2565
 6499SOL    HW225768   0.874   4.865   5.214 -0.3233  1.0853 -0.3244
 6499SOL    HW325769   0.831   4.810   5.080  0.3357 -0.9854  0.2700
 6499SOL    MW425770   0.820   4.817   5.166  0.1374  0.0297  0.1816
 6500SOL     OW25771   5.204   5.626   6.063 -0.2114 -0.1812  0.2926
 6500SOL    HW225772   5.117   5.606   6.028 -0.2279 -2.8525  1.5864
 6500SOL    HW325773   5.264   5.578   6.006 -0.0727 -2.5836  2.2485
 6500SOL    MW425774   5.201   5.617   6.051 -0.1953 -0.8506  0.7214
 6501SOL     OW25775   0.576   3.992   5.347  0.5021 -0.2130 -0.7626
 6501SOL    HW225776   0.580   4.088   5.343 -0.3521 -0.1887 -1.3508
 6501SOL    HW325777   0.549   3.972   5.436  0.9642  0.0752 -0.5520
 6501SOL    MW425778   0.573   4.002   5.358  0.4504 -0.1718 -0.8124
 6502SOL     OW25779   0.482   3.226   1.491  0.2138 -0.6991  0.2144
 6502SOL    HW225780   0.387   3.239   1.497  0.1394 -0.7727 -0.7238
 6502SOL    HW325781   0.517   3.280   1.562 -0.5266 -0.6639  0.5666
 6502SOL    MW425782   0.474   3.235   1.501  0.1063 -0.7042  0.1370
 6503SOL     OW25783   5.313   5.512   0.193 -0.3086  0.2820 -0.0566
 6503SOL    HW225784   5.252   5.440   0.207 -0.0158  0.3513  1.9091
 6503SOL    HW325785   5.399   5.474   0.210 -0.1845  1.1408  1.5200
 6503SOL    MW425786   5.316   5.498   0.197 -0.2536  0.4045  0.4107
 6504SOL     OW25787   3.567   0.952   1.536  0.1599 -0.2398  0.4440
 6504SOL    HW225788   3.559   1.047   1.549 -0.3307 -0.1817 -0.2091
 6504SOL    HW325789   3.478   0.923   1.516  0.3425 -0.8055  0.4308
 6504SOL    MW425790   3.554   0.961   1.535  0.1193 -0.3068  0.3561
 6505SOL     OW25791   5.236   0.327   5.299  0.6833  0.3127  0.3966
 6505SOL    HW225792   5.292   0.259   5.335  0.0485 -0.7668 -0.5657
 6505SOL    HW325793   5.173   0.347   5.369  0.3006 -0.7785  0.3860
 6505SOL    MW425794   5.235   0.321   5.313  0.5491  0.0263  0.2682
 6506SOL     OW25795   5.997   5.174   2.933  0.2954  0.3574 -0.0543
 6506SOL    HW225796   5.951   5.102   2.890  0.9136  1.0680 -1.9783
 6506SOL    HW325797   6.081   5.135   2.960  0.8095  0.4139 -1.4751
 6506SOL    MW425798   6.002   5.159   2.931  0.4448  0.4586 -0.4956
 6507SOL     OW25799   2.966   0.312   0.698  0.3730 -0.2598  0.3722
 6507SOL    HW225800   2.937   0.400   0.722 -0.7119 -0.6654  0.6369
 6507SOL    HW325801   2.888   0.271   0.659  1.0535 -0.8719 -0.3759
 6507SOL    MW425802   2.952   0.318   0.696  0.3196 -0.3941  0.3084
 6508SOL     OW25803   1.456   1.532   2.262 -0.1678  0.2805  0.3931
 6508SOL    HW225804   1.496   1.503   2.344 -2.0097 -0.0377  1.2309
 6508SOL    HW325805   1.443   1.452   2.212 -0.9258  0.2151  0.6844
 6508SOL    MW425806   1.460   1.518   2.266 -0.5108  0.2299  0.5421
 6509SOL     OW25807   2.711   2.990   6.203  0.2139 -0.2398 -0.1245
 6509SOL    HW225808   2.758   2.960   6.280 -0.5477 -0.7203  0.1633
 6509SOL    HW325809   2.672   3.074   6.230  0.3434 -0.1722 -0.1464
 6509SOL    MW425810   2.712   2.997   6.217  0.1305 -0.2942 -0.0894
 6510SOL     OW25811   4.018   0.530   1.293 -0.6801 -0.0100  0.6534
 6510SOL    HW225812   4.097   0.477   1.290 -1.2057 -0.7765 -0.2381
 6510SOL    HW325813   3.993   0.531   1.385 -0.3565 -0.8524  0.7584
 6510SOL    MW425814   4.025   0.523   1.305 -0.7067 -0.2222  0.5497
 6511SOL     OW25815   0.663   6.320   0.985 -0.0528  0.2464  0.0047
 6511SOL    HW225816   0.742   6.371   0.969 -0.1275 -0.2059 -2.0950
 6511SOL    HW325817   0.691   6.229   0.972 -0.5441 -0.0427  0.9269
 6511SOL    MW425818   0.677   6.315   0.981 -0.1275  0.1486 -0.1506
 6512SOL     OW25819   2.763   5.314   3.791 -0.2466  0.7731  0.0584
 6512SOL    HW225820   2.767   5.224   3.758 -2.7978  0.4893  0.3678
 6512SOL    HW325821   2.759   5.304   3.887  1.0445  1.3324  0.2018
 6512SOL    MW425822   2.763   5.301   3.800 -0.4128  0.8094  0.1181
 6513SOL     OW25823   3.491   0.391   1.583 -0.4454 -0.1755 -0.1145
 6513SOL    HW225824   3.531   0.323   1.638  0.1549  0.0018 -0.3306
 6513SOL    HW325825   3.492   0.469   1.638  3.6653  1.0563 -1.5649
 6513SOL    MW425826   3.496   0.392   1.598  0.1762  0.0104 -0.3344
 6514SOL     OW25827   6.288   5.135   3.219  0.0568 -0.0305  0.6841
 6514SOL    HW225828   6.223   5.202   3.198 -2.0159 -2.3467 -0.8378
 6514SOL    HW325829   6.253   5.090   3.296  1.0009  0.0352  1.1789
 6514SOL    MW425830   6.275   5.138   3.227 -0.0921 -0.3274  0.5486
 6515SOL     OW25831   6.234   0.212   1.770  0.2158  0.2008  0.0322
 6515SOL    HW225832   6.228   0.282   1.835 -0.4083 -0.8657  1.1641
 6515SOL    HW325833   6.188   0.247   1.693  0.0276  1.0820  0.5337
 6515SOL    MW425834   6.227   0.226   1.768  0.1086  0.1764  0.2477
 6516SOL     OW25835   2.398   1.726   1.107  0.6020 -0.0636 -0.0396
 6516SOL    HW225836   2.406   1.787   1.181 -0.0436 -0.0345  0.0074
 6516SOL    HW325837   2.391   1.783   1.030  2.1358 -0.0909 -0.2369
 6516SOL    MW425838   2.398   1.742   1.107  0.7192 -0.0634 -0.0594
 6517SOL     OW25839   1.606   0.237   0.279  0.3988 -0.5745 -0.3941
 6517SOL    HW225840   1.576   0.286   0.202 -0.0512 -0.6120 -0.2433
 6517SOL    HW325841   1.629   0.305   0.343 -1.3913 -0.5568  0.2635
 6517SOL    MW425842   1.605   0.253   0.277  0.1033 -0.5771 -0.2875
 6518SOL     OW25843   2.583   4.916   1.481  0.4429 -0.2709  0.2528
 6518SOL    HW225844   2.565   4.942   1.571  2.1377 -0.6559  0.7477
 6518SOL    HW325845   2.608   4.997   1.437 -1.4842  0.1166 -0.2158
 6518SOL    MW425846   2.584   4.930   1.487  0.4122 -0.2706  0.2563
 6519SOL     OW25847   1.834   0.242   6.207  0.5682 -0.0458  0.1763
 6519SOL    HW225848   1.739   0.248   6.205  0.3925 -2.0610 -1.3834
 6519SOL    HW325849   1.864   0.316   6.154 -0.1875  0.1105 -0.0449
 6519SOL    MW425850   1.825   0.253   6.200  0.4453 -0.2911 -0.0587
 6520SOL     OW25851   3.277   6.040   0.443 -0.0088 -0.6391 -0.9290
 6520SOL    HW225852   3.370   6.034   0.466 -0.3229  1.0731  1.1791
 6520SOL    HW325853   3.274   6.103   0.371  0.4460 -0.2370 -0.6079
 6520SOL    MW425854   3.289   6.048   0.437  0.0098 -0.3601 -0.6085
 6521SOL     OW25855   1.174   2.413   1.894 -0.1431 -0.3015  0.5487
 6521SOL    HW225856   1.090   2.375   1.921  0.3911 -0.7059  1.7424
 6521SOL    HW325857   1.210   2.350   1.831 -0.9692  0.1562 -0.4078
 6521SOL    MW425858   1.168   2.399   1.889 -0.1816 -0.2944  0.5800
 6522SOL     OW25859   1.451   0.129   5.818 -0.0444  0.7674  0.4241
 6522SOL    HW225860   1.459   0.063   5.886 -0.5799 -0.0713 -0.3086
 6522SOL    HW325861   1.478   0.211   5.861  0.4875  0.1117  1.3775
 6522SOL    MW425862   1.456   0.131   5.833 -0.0448  0.5702  0.4532
 6523SOL     OW25863   1.652   6.097   4.904  0.1478 -0.3670 -0.2788
 6523SOL    HW225864   1.696   6.171   4.863 -1.4182 -0.9123 -3.1558
 6523SOL    HW325865   1.719   6.029   4.908  0.4573 -0.1587 -1.6097
 6523SOL    MW425866   1.667   6.098   4.899 -0.0180 -0.4115 -0.8340
 6524SOL     OW25867   0.820   1.672   5.821 -0.0671 -0.2141 -0.7621
 6524SOL    HW225868   0.875   1.629   5.886  0.1225 -0.4295 -1.0629
 6524SOL    HW325869   0.753   1.607   5.800 -0.6133  0.1524 -0.1822
 6524SOL    MW425870   0.818   1.657   5.826 -0.1142 -0.1942 -0.7253
 6525SOL     OW25871   4.669   1.634   3.988  0.1413  0.3294 -0.4548
 6525SOL    HW225872   4.581   1.622   4.023  0.1159 -0.8362 -0.8703
 6525SOL    HW325873   4.727   1.603   4.058  0.1300 -0.9342 -0.9841
 6525SOL    MW425874   4.665   1.628   4.002  0.1365  0.0089 -0.5794
 6526SOL     OW25875   3.785   4.285   0.161  0.1582  0.0878 -0.1702
 6526SOL    HW225876   3.695   4.292   0.129 -0.1258 -1.1463  0.3194
 6526SOL    HW325877   3.833   4.241   0.091  0.4344  0.8632 -0.4880
 6526SOL    MW425878   3.780   4.280   0.147  0.1572  0.0273 -0.1475
 6527SOL     OW25879   2.220   0.874   5.189  0.1187 -0.5346  0.2558
 6527SOL    HW225880   2.303   0.920   5.177 -0.1450 -0.1195  0.0184
 6527SOL    HW325881   2.157   0.942   5.210 -0.0567 -0.9125  0.9788
 6527SOL    MW425882   2.223   0.889   5.190  0.0608 -0.5297  0.3199
 6528SOL     OW25883   4.035   5.728   0.186 -0.7934 -0.3615 -0.0032
 6528SOL    HW225884   4.099   5.794   0.157 -0.6073 -0.1431  0.8794
 6528SOL    HW325885   3.974   5.777   0.241  0.3030 -1.1991  2.0666
 6528SOL    MW425886   4.035   5.743   0.189 -0.6242 -0.4432  0.3864
 6529SOL     OW25887   5.676   0.864   5.759 -0.4456 -0.9108 -0.2539
 6529SOL    HW225888   5.748   0.828   5.812  0.0182  0.6796  0.2415
 6529SOL    HW325889   5.626   0.918   5.819  0.0453  0.8790 -1.3831
 6529SOL    MW425890   5.679   0.866   5.774 -0.3196 -0.4648 -0.3375
 6530SOL     OW25891   1.821   2.234   0.662 -0.1600  0.6907 -0.2113
 6530SOL    HW225892   1.776   2.150   0.674  0.5522 -0.1985 -3.0510
 6530SOL    HW325893   1.752   2.294   0.635 -0.3475  0.4472 -0.2848
 6530SOL    MW425894   1.806   2.231   0.660 -0.0908  0.5413 -0.5957
 6531SOL     OW25895   5.844   0.525   2.235 -0.1798  0.0466  0.0283
 6531SOL    HW225896   5.862   0.602   2.181 -0.3042  0.3423  0.4130
 6531SOL    HW325897   5.925   0.474   2.230 -0.8322 -0.9359 -2.0766
 6531SOL    MW425898   5.857   0.528   2.227 -0.2823 -0.0440 -0.1986
 6532SOL     OW25899   0.398   4.627   2.228 -0.5758  0.2439 -0.3723
 6532SOL    HW225900   0.481   4.595   2.263  0.3727  1.1333 -1.7164
 6532SOL    HW325901   0.332   4.571   2.268  0.8376 -2.0431 -1.0593
 6532SOL    MW425902   0.400   4.616   2.238 -0.2642  0.0595 -0.6403
 6533SOL     OW25903   4.833   5.081   1.801  0.4668  0.5931 -0.1176
 6533SOL    HW225904   4.845   5.135   1.879 -0.0398  3.5572 -1.9454
 6533SOL    HW325905   4.920   5.048   1.782  1.0090  1.5874  0.5200
 6533SOL    MW425906   4.846   5.084   1.809  0.4715  1.1154 -0.2746
 6534SOL     OW25907   4.474   0.700   6.365  0.0183 -0.1311  1.0439
 6534SOL    HW225908   4.459   0.794   6.351 -1.9577 -0.3551  1.3512
 6534SOL    HW325909   4.567   0.693   6.385  0.0564  1.8544  1.7612
 6534SOL    MW425910   4.484   0.711   6.366 -0.2374  0.1013  1.1791
 6535SOL     OW25911   4.879   0.397   2.633 -0.3122  0.4146  0.3870
 6535SOL    HW225912   4.837   0.440   2.559 -0.2248  1.4865  0.9356
 6535SOL    HW325913   4.836   0.434   2.710  0.9014  0.7510  0.9284
 6535SOL    MW425914   4.868   0.407   2.634 -0.1406  0.6004  0.5308
 6536SOL     OW25915   4.195   2.828   2.190  0.4589 -0.5344 -0.0495
 6536SOL    HW225916   4.191   2.918   2.220  1.0081  0.1520 -1.9026
 6536SOL    HW325917   4.255   2.785   2.252 -0.5242  0.0921  1.4030
 6536SOL    MW425918   4.203   2.834   2.202  0.4017 -0.3612 -0.1024
 6537SOL     OW25919   6.218   1.046   1.036  0.8797 -0.1419 -0.7969
 6537SOL    HW225920   6.272   0.968   1.055  1.0514 -0.0929 -1.0820
 6537SOL    HW325921   6.129   1.013   1.033  0.8201 -0.1235  0.2970
 6537SOL    MW425922   6.214   1.031   1.038  0.8945 -0.1330 -0.6902
 6538SOL     OW25923   4.004   1.153   1.720 -0.7240 -0.5022  0.2068
 6538SOL    HW225924   3.936   1.215   1.697 -0.6124 -0.2167  0.6342
 6538SOL    HW325925   3.978   1.120   1.807  1.8093  2.7611  2.4411
 6538SOL    MW425926   3.991   1.157   1.729 -0.3750 -0.0340  0.5580
 6539SOL     OW25927   0.221   3.393   3.904 -0.5509 -0.1014  0.1294
 6539SOL    HW225928   0.188   3.476   3.870 -0.4822 -0.0850  0.1013
 6539SOL    HW325929   0.238   3.410   3.997 -1.7913 -0.4646  0.4388
 6539SOL    MW425930   0.219   3.406   3.912 -0.7055 -0.1471  0.1665
 6540SOL     OW25931   1.453   6.461   5.009  0.1962 -0.4747 -0.1191
 6540SOL    HW225932   1.532   6.440   5.059  1.3035  1.2761 -1.0024
 6540SOL    HW325933   1.403   6.518   5.067 -1.1847 -2.7233  0.9985
 6540SOL    MW425934   1.457   6.466   5.023  0.1601 -0.5404 -0.0882
 6541SOL     OW25935   2.350   3.223   4.184  0.3399  0.6635  0.6322
 6541SOL    HW225936   2.288   3.287   4.219 -1.4461 -0.9908  0.6701
 6541SOL    HW325937   2.341   3.147   4.242  0.1838 -0.7110 -1.1204
 6541SOL    MW425938   2.341   3.221   4.196  0.0837  0.2639  0.4060
 6542SOL     OW25939   2.333   3.985   2.535  0.1074  0.0837 -0.4961
 6542SOL    HW225940   2.289   4.065   2.561 -2.8459 -1.6795  0.3172
 6542SOL    HW325941   2.330   3.986   2.439 -1.4632  0.1745 -0.4652
 6542SOL    MW425942   2.327   3.996   2.526 -0.4895 -0.1370 -0.3847
 6543SOL     OW25943   3.162   4.181   0.185 -0.1394  0.0941  0.6735
 6543SOL    HW225944   3.179   4.253   0.124  0.3209  0.3634  1.1189
 6543SOL    HW325945   3.243   4.131   0.186 -0.7555 -0.9683 -0.3352
 6543SOL    MW425946   3.175   4.184   0.177 -0.1599 -0.0106  0.5992
 6544SOL     OW25947   4.936   1.640   5.748 -0.0541 -0.0829 -0.7426
 6544SOL    HW225948   4.850   1.652   5.788  0.5068 -0.5022  0.6345
 6544SOL    HW325949   4.979   1.574   5.802  0.9411 -0.2787 -1.7335
 6544SOL    MW425950   4.930   1.633   5.760  0.1512 -0.1641 -0.6917
 6545SOL     OW25951   1.339   3.142   5.150  0.4706  0.7154 -0.0438
 6545SOL    HW225952   1.343   3.117   5.242  0.7319  0.3889 -0.1432
 6545SOL    HW325953   1.291   3.224   5.150 -0.3385  0.2545  0.2942
 6545SOL    MW425954   1.333   3.149   5.162  0.3983  0.6115 -0.0123
 6546SOL     OW25955   4.063   0.512   4.451 -0.0597 -0.4702  0.1609
 6546SOL    HW225956   4.001   0.449   4.486 -0.7339  0.0998  0.0122
 6546SOL    HW325957   4.148   0.485   4.486  0.0884 -2.9026 -1.7819
 6546SOL    MW425958   4.066   0.500   4.460 -0.1291 -0.7159 -0.1151
 6547SOL     OW25959   3.980   1.286   2.188  0.2226 -0.1986  0.3775
 6547SOL    HW225960   4.055   1.269   2.246  0.6003 -0.2042 -0.1021
 6547SOL    HW325961   4.016   1.341   2.118 -0.4240  0.5393  0.6025
 6547SOL    MW425962   3.995   1.291   2.187  0.1871 -0.1020  0.3439
 6548SOL     OW25963   5.551   3.511   6.398 -0.2879  0.7800  0.0084
 6548SOL    HW225964   5.484   3.576   6.377 -0.6376 -0.1945 -2.1412
 6548SOL    HW325965   5.514   3.428   6.367  1.0340 -0.1223  0.7571
 6548SOL    MW425966   5.537   3.508   6.391 -0.1597  0.5324 -0.1765
 6549SOL     OW25967   5.696   2.928   0.865  0.4886  0.6350 -0.6130
 6549SOL    HW225968   5.780   2.967   0.886  0.2732  1.1198 -0.6527
 6549SOL    HW325969   5.637   2.962   0.932  0.4256 -0.0757 -0.3002
 6549SOL    MW425970   5.699   2.937   0.877  0.4518  0.6052 -0.5769
 6550SOL     OW25971   1.826   2.195   6.237 -0.5296 -0.0384 -0.2623
 6550SOL    HW225972   1.869   2.110   6.230 -0.1765  0.1715 -0.6945
 6550SOL    HW325973   1.892   2.252   6.276 -0.5388  0.1967 -0.5873
 6550SOL    MW425974   1.841   2.191   6.241 -0.4842  0.0203 -0.3622
 6551SOL     OW25975   5.326   1.160   1.872  0.3540 -0.6464  0.2224
 6551SOL    HW225976   5.422   1.161   1.872  0.3650  0.8066  0.1825
 6551SOL    HW325977   5.302   1.167   1.964  0.3078  0.0519  0.1642
 6551SOL    MW425978   5.336   1.161   1.884  0.3494 -0.3625  0.2095
 6552SOL     OW25979   6.381   3.325   0.244  0.1142 -0.1431 -0.5595
 6552SOL    HW225980   6.451   3.362   0.190 -0.7450  0.4811 -1.2697
 6552SOL    HW325981   6.303   3.375   0.220 -0.4040 -0.2263  0.8722
 6552SOL    MW425982   6.380   3.336   0.234 -0.0675 -0.0718 -0.4643
 6553SOL     OW25983   6.272   0.076   2.349 -0.5028  0.1872 -0.3499
 6553SOL    HW225984   6.248  -0.008   2.386 -0.3112  0.1731 -0.2544
 6553SOL    HW325985   6.220   0.083   2.269  0.5919 -0.7059 -1.1655
 6553SOL    MW425986   6.262   0.066   2.343 -0.3331  0.0675 -0.4449
 6554SOL     OW25987   5.309   4.000   1.430 -0.1766 -0.0791 -0.2613
 6554SOL    HW225988   5.271   4.080   1.394 -2.0727  0.7725  3.1695
 6554SOL    HW325989   5.401   4.022   1.445 -0.8642  1.9329  1.5235
 6554SOL    MW425990   5.316   4.014   1.428 -0.5175  0.2987  0.4269
 6555SOL     OW25991   0.649   4.558   5.374 -0.3253  0.1949  0.2111
 6555SOL    HW225992   0.742   4.538   5.380 -0.3960  0.0932  1.0890
 6555SOL    HW325993   0.610   4.480   5.334 -0.5068 -1.2832  3.0128
 6555SOL    MW425994   0.656   4.545   5.369 -0.3586 -0.0135  0.6966
 6556SOL     OW25995   2.793   0.857   0.715  1.1328  0.0635  0.0715
 6556SOL    HW225996   2.886   0.876   0.706  1.7006 -1.3451  2.1778
 6556SOL    HW325997   2.786   0.762   0.702  0.3905 -0.2219  2.0820
 6556SOL    MW425998   2.804   0.847   0.712  1.1097 -0.1600  0.6146
 6557SOL     OW25999   3.164   0.975   6.140 -0.2965  0.3062  0.3540
 6557SOL    HW226000   3.132   1.065   6.142  1.0172  0.7875  1.2981
 6557SOL    HW326001   3.162   0.946   6.232 -2.3319 -1.2815 -0.1009
 6557SOL    MW426002   3.159   0.983   6.153 -0.3917  0.1602  0.4185
 6558SOL     OW26003   0.055   1.247   3.321 -0.1066 -0.1119  0.3099
 6558SOL    HW226004   0.047   1.333   3.280  1.3317  0.6907  1.6184
 6558SOL    HW326005   0.084   1.266   3.410 -0.6468 -1.9212  0.9047
 6558SOL    MW426006   0.058   1.261   3.327  0.0119 -0.2447  0.5610
 6559SOL     OW26007   1.716   6.389   3.104  0.1445 -0.3850  0.3029
 6559SOL    HW226008   1.755   6.451   3.043  1.8643 -1.8207 -0.1365
 6559SOL    HW326009   1.627   6.421   3.118  0.4768  1.2718 -1.1276
 6559SOL    MW426010   1.710   6.401   3.098  0.4153 -0.3558  0.0562
 6560SOL     OW26011   5.561   5.294   2.638  0.2788  0.5607 -0.1897
 6560SOL    HW226012   5.576   5.360   2.706  0.2704 -0.8602  1.2474
 6560SOL    HW326013   5.471   5.310   2.609  0.4045  1.4112 -0.1362
 6560SOL    MW426014   5.551   5.305   2.644  0.2943  0.4854  0.0070
 6561SOL     OW26015   2.007   2.535   0.767  0.4297 -0.2669 -0.0339
 6561SOL    HW226016   1.921   2.566   0.796  0.8121  0.3799  0.4249
 6561SOL    HW326017   2.004   2.542   0.671 -0.1779 -0.6593 -0.0489
 6561SOL    MW426018   1.995   2.540   0.758  0.4000 -0.2333  0.0247
 6562SOL     OW26019   3.309   1.725   4.524  0.0028  0.0507  0.3369
 6562SOL    HW226020   3.293   1.631   4.517  3.1713 -0.5042 -0.9025
 6562SOL    HW326021   3.342   1.737   4.613  0.1710 -0.0954  0.2932
 6562SOL    MW426022   3.311   1.714   4.535  0.4430 -0.0418  0.1676
 6563SOL     OW26023   3.863   2.493   2.927  0.0861 -0.4234 -0.1754
 6563SOL    HW226024   3.957   2.493   2.913  0.1566  0.2431  0.2381
 6563SOL    HW326025   3.852   2.518   3.019 -0.4265 -2.5213  0.3897
 6563SOL    MW426026   3.874   2.496   2.938  0.0278 -0.6122 -0.0463
 6564SOL     OW26027   6.269   5.650   4.888 -0.4236  0.2778  0.1830
 6564SOL    HW226028   6.323   5.579   4.923 -3.5746 -0.8394  3.3135
 6564SOL    HW326029   6.322   5.729   4.903  1.8002 -1.0040 -0.3732
 6564SOL    MW426030   6.283   5.651   4.895 -0.5459 -0.0387  0.5226
 6565SOL     OW26031   5.322   3.361   0.276 -0.4998  0.7691 -0.4193
 6565SOL    HW226032   5.346   3.358   0.369 -0.4953 -0.9845 -0.4456
 6565SOL    HW326033   5.262   3.435   0.269 -2.1205 -0.2870  1.3995
 6565SOL    MW426034   5.318   3.370   0.287 -0.7130  0.3984 -0.1828
 6566SOL     OW26035   3.258   4.212   4.865  0.0337  0.2237  0.3125
 6566SOL    HW226036   3.349   4.232   4.844  0.0948 -1.6780 -1.4884
 6566SOL    HW326037   3.206   4.261   4.801 -0.2386  0.9584  1.0619
 6566SOL    MW426038   3.263   4.221   4.854  0.0059  0.0698  0.1737
 6567SOL     OW26039   5.577   3.856   0.018 -0.3952 -0.1721  0.3282
 6567SOL    HW226040   5.489   3.838   0.051 -1.1189  0.0810 -1.3616
 6567SOL    HW326041   5.636   3.823   0.086 -1.7376 -2.6225  0.4039
 6567SOL    MW426042   5.573   3.850   0.031 -0.6678 -0.4620  0.1152
 6568SOL     OW26043   3.908   2.261   3.709 -0.5315  0.1526  0.0321
 6568SOL    HW226044   3.944   2.173   3.720  2.6556  1.4257  1.0503
 6568SOL    HW326045   3.985   2.317   3.696 -2.1845  3.0935  1.7185
 6568SOL    MW426046   3.923   2.257   3.709 -0.3291  0.7086  0.3889
 6569SOL     OW26047   2.122   1.582   4.160  0.5169  0.0606 -0.3781
 6569SOL    HW226048   2.115   1.557   4.068  1.2040  2.4551 -1.1537
 6569SOL    HW326049   2.046   1.639   4.175  1.1399  0.7927  0.0994
 6569SOL    MW426050   2.111   1.587   4.150  0.6897  0.4731 -0.4174
 6570SOL     OW26051   5.122   5.078   2.243 -0.2270 -0.1620 -0.2863
 6570SOL    HW226052   5.058   5.007   2.240 -0.3663 -0.0137 -0.7961
 6570SOL    HW326053   5.088   5.139   2.308 -0.7758  0.0801 -0.7924
 6570SOL    MW426054   5.109   5.076   2.251 -0.3178 -0.1105 -0.4204
 6571SOL     OW26055   3.522   4.688   1.759 -0.3545 -0.2839 -0.0483
 6571SOL    HW226056   3.601   4.733   1.730 -0.4047 -0.9610 -1.3302
 6571SOL    HW326057   3.451   4.749   1.740 -0.3622 -0.6298 -1.2035
 6571SOL    MW426058   3.523   4.702   1.752 -0.3622 -0.4189 -0.3698
 6572SOL     OW26059   4.841   4.722   1.608  0.6229  0.1410  0.2949
 6572SOL    HW226060   4.781   4.778   1.558  0.8166  0.5063  0.4674
 6572SOL    HW326061   4.838   4.758   1.697 -2.9668 -2.9981  1.6837
 6572SOL    MW426062   4.833   4.734   1.613  0.1748 -0.2250  0.5009
 6573SOL     OW26063   5.405   5.066   2.917 -0.5809 -0.0372 -0.3388
 6573SOL    HW226064   5.420   5.033   3.005  1.1647 -0.0250 -0.5959
 6573SOL    HW326065   5.405   5.161   2.927 -2.5012 -0.0316 -0.0664
 6573SOL    MW426066   5.407   5.074   2.930 -0.6039 -0.0349 -0.3368
 6574SOL     OW26067   1.493   3.010   6.405 -0.3072 -0.6920  0.4139
 6574SOL    HW226068   1.473   3.096   6.441 -0.7936 -0.2197 -0.9008
 6574SOL    HW326069   1.568   2.979   6.456 -1.1212 -0.2098  1.9658
 6574SOL    MW426070   1.500   3.017   6.416 -0.4788 -0.5660  0.4452
 6575SOL     OW26071   2.126   5.006   5.189  0.7981 -0.7372  0.3357
 6575SOL    HW226072   2.099   4.970   5.105  1.4672 -0.6947  0.0977
 6575SOL    HW326073   2.055   5.065   5.214 -0.5884 -2.6124  1.0158
 6575SOL    MW426074   2.113   5.009   5.181  0.7035 -0.9790  0.3941
 6576SOL     OW26075   5.977   1.928   5.311  0.5647 -0.3166  0.4335
 6576SOL    HW226076   5.992   2.023   5.316 -0.1619 -0.1173 -0.7641
 6576SOL    HW326077   6.064   1.892   5.291  1.5560 -0.2829  4.0047
 6576SOL    MW426078   5.991   1.936   5.309  0.5997 -0.2859  0.7467
 6577SOL     OW26079   2.829   4.194   5.229  0.2064  0.1542  0.0017
 6577SOL    HW226080   2.853   4.217   5.319  0.3897  0.3122 -0.0866
 6577SOL    HW326081   2.889   4.122   5.206 -0.7329 -0.7982  0.4694
 6577SOL    MW426082   2.840   4.188   5.238  0.1067  0.0494  0.0517
 6578SOL     OW26083   0.049   5.325   2.856  0.1851  0.0104 -0.1761
 6578SOL    HW226084   0.038   5.380   2.934 -0.3379  0.0623 -0.2847
 6578SOL    HW326085   0.144   5.321   2.844  0.2380  0.8692 -0.1468
 6578SOL    MW426086   0.060   5.332   2.865  0.1230  0.1306 -0.1866
 6579SOL     OW26087   6.356   2.581   2.368 -0.3664 -0.2408  0.7708
 6579SOL    HW226088   6.338   2.515   2.301 -4.9840  0.0108  1.4400
 6579SOL    HW326089   6.377   2.660   2.319 -0.2878 -0.8514 -0.2089
 6579SOL    MW426090   6.357   2.583   2.353 -0.9652 -0.2882  0.7298
 6580SOL     OW26091   0.500   3.769   1.546 -0.1412 -0.1401 -0.2136
 6580SOL    HW226092   0.425   3.735   1.595 -1.2871 -0.9593 -2.4144
 6580SOL    HW326093   0.470   3.854   1.513  0.3620  0.0920 -0.0739
 6580SOL    MW426094   0.486   3.776   1.548 -0.2260 -0.2175 -0.4855
 6581SOL     OW26095   3.504   2.760   4.927  0.8625  0.5560 -0.4104
 6581SOL    HW226096   3.554   2.755   5.008 -1.0066 -2.4679  0.7122
 6581SOL    HW326097   3.545   2.696   4.869 -0.3441 -0.3944 -0.2501
 6581SOL    MW426098   3.516   2.751   4.930  0.4567  0.0317 -0.2411
 6582SOL     OW26099   6.248   5.181   5.125 -0.3811 -0.0754 -0.3988
 6582SOL    HW226100   6.209   5.268   5.135 -1.8691 -0.6252 -1.1717
 6582SOL    HW326101   6.197   5.125   5.184 -1.1962 -0.9208 -1.8558
 6582SOL    MW426102   6.236   5.185   5.134 -0.6849 -0.2595 -0.6930
 6583SOL     OW26103   5.841   1.111   3.971 -0.1946 -0.0220 -0.7550
 6583SOL    HW226104   5.913   1.172   3.990  0.3077 -0.8750  0.1329
 6583SOL    HW326105   5.771   1.138   4.031 -1.4017  2.0218 -2.8795
 6583SOL    MW426106   5.841   1.123   3.982 -0.2876  0.1351 -0.9181
 6584SOL     OW26107   2.251   4.429   6.362  0.2257  0.3309 -0.0272
 6584SOL    HW226108   2.303   4.497   6.405  1.7547 -1.1794  0.6268
 6584SOL    HW326109   2.285   4.427   6.272  0.0929  0.4865 -0.0828
 6584SOL    MW426110   2.262   4.438   6.356  0.4099  0.1521  0.0517
 6585SOL     OW26111   0.185   0.098   0.887 -0.3435  0.0746 -0.1075
 6585SOL    HW226112   0.258   0.139   0.841 -0.7708 -0.6199 -1.4406
 6585SOL    HW326113   0.225   0.059   0.965  1.0375 -1.5843 -1.5453
 6585SOL    MW426114   0.200   0.098   0.892 -0.2177 -0.2359 -0.4731
 6586SOL     OW26115   2.955   3.084   5.214  0.0707  0.2186 -0.0303
 6586SOL    HW226116   2.953   3.156   5.277  0.7953 -0.1599  0.4390
 6586SOL    HW326117   3.047   3.056   5.212 -0.0200 -0.0493 -0.9435
 6586SOL    MW426118   2.967   3.090   5.222  0.1543  0.1333 -0.0888
 6587SOL     OW26119   0.268   4.868   0.025 -0.6388 -0.0498  0.2875
 6587SOL    HW226120   0.218   4.823   0.092  1.0240 -0.9668  0.9843
 6587SOL    HW326121   0.286   4.802  -0.041  0.7588 -0.1193  0.7061
 6587SOL    MW426122   0.264   4.854   0.025 -0.2350 -0.1800  0.4347
 6588SOL     OW26123   2.395   1.919   6.207  0.0240 -0.0222 -0.1173
 6588SOL    HW226124   2.342   1.962   6.140  2.4984  2.9830 -0.3804
 6588SOL    HW326125   2.352   1.942   6.290  0.0599  1.1404 -0.3995
 6588SOL    MW426126   2.382   1.928   6.209  0.3552  0.5277 -0.1892
 6589SOL     OW26127   4.352   3.256   1.184  0.2140  0.2277  0.2071
 6589SOL    HW226128   4.375   3.294   1.100  1.8909  0.5433  0.7555
 6589SOL    HW326129   4.321   3.330   1.237 -1.0370 -0.0049 -0.1765
 6589SOL    MW426130   4.351   3.271   1.180  0.2702  0.2387  0.2289
 6590SOL     OW26131   3.949   6.139   1.685  0.0506  0.1756  0.6660
 6590SOL    HW226132   3.918   6.141   1.594 -0.2785  0.5838  0.7800
 6590SOL    HW326133   3.869   6.150   1.737  0.2159 -0.2439  1.0081
 6590SOL    MW426134   3.934   6.141   1.680  0.0290  0.1741  0.7262
 6591SOL     OW26135   3.710   1.276   5.369  0.0399  0.2509 -0.1853
 6591SOL    HW226136   3.742   1.254   5.456  3.1953  1.0958 -1.0088
 6591SOL    HW326137   3.693   1.370   5.372 -2.7293 -0.1627  0.2333
 6591SOL    MW426138   3.712   1.285   5.381  0.0908  0.3078 -0.2387
 6592SOL     OW26139   2.236   3.303   2.630  0.5707  0.1414  0.3108
 6592SOL    HW226140   2.255   3.223   2.678 -1.2761  0.0325  0.9324
 6592SOL    HW326141   2.279   3.291   2.545  2.8808 -0.1606  1.4447
 6592SOL    MW426142   2.244   3.291   2.625  0.6318  0.0872  0.5424
 6593SOL     OW26143   5.513   2.834   0.572  0.2249  0.0410 -0.0126
 6593SOL    HW226144   5.490   2.787   0.492 -1.5168  1.4875 -0.4187
 6593SOL    HW326145   5.555   2.768   0.627 -1.2557 -1.7620 -0.9331
 6593SOL    MW426146   5.515   2.819   0.569 -0.2002 -0.0060 -0.1876
 6594SOL     OW26147   0.580   0.148   4.053  0.0485  0.2391 -0.1083
 6594SOL    HW226148   0.659   0.179   4.097  0.7873  0.2309 -1.3646
 6594SOL    HW326149   0.536   0.093   4.117  2.0300 -1.2950  0.0124
 6594SOL    MW426150   0.585   0.145   4.067  0.4074  0.0356 -0.2581
 6595SOL     OW26151   3.357   5.979   0.024  0.0694 -0.3488 -0.5161
 6595SOL    HW226152   3.267   5.944   0.020 -0.1265  0.1241 -0.3366
 6595SOL    HW326153   3.403   5.919   0.082 -0.3853 -0.0639  0.1582
 6595SOL    MW426154   3.351   5.966   0.031 -0.0165 -0.2488 -0.4035
 6596SOL     OW26155   6.096   6.250   2.892  0.3071  0.5783  0.3514
 6596SOL    HW226156   6.134   6.325   2.847  0.1474 -1.7359 -4.2816
 6596SOL    HW326157   6.171   6.192   2.908 -0.1083 -0.3443 -0.8753
 6596SOL    MW426158   6.111   6.252   2.888  0.2312  0.1513 -0.4217
 6597SOL     OW26159   0.364   4.334   4.536  0.2418 -0.6269 -0.2700
 6597SOL    HW226160   0.459   4.322   4.529 -0.1060 -2.7785 -3.5624
 6597SOL    HW326161   0.348   4.419   4.495  0.7952  0.4674  1.6731
 6597SOL    MW426162   0.374   4.344   4.530  0.2689 -0.7664 -0.4480
 6598SOL     OW26163   0.345   0.148   0.664 -0.4473 -0.2356  0.4285
 6598SOL    HW226164   0.399   0.209   0.613 -2.7933  1.7939  0.2146
 6598SOL    HW326165   0.400   0.070   0.673  2.9682  2.0467  1.2261
 6598SOL    MW426166   0.360   0.146   0.658 -0.3062  0.3333  0.5055
 6599SOL     OW26167   5.323   4.738   0.945  0.2989 -0.0296  0.1800
 6599SOL    HW226168   5.401   4.758   0.893  0.1543 -0.0380 -0.0417
 6599SOL    HW326169   5.298   4.650   0.918  0.9140 -0.5145  1.1293
 6599SOL    MW426170   5.330   4.729   0.934  0.3610 -0.0947  0.2760
 6600SOL     OW26171   0.604   3.010   1.246 -0.0143 -0.1969 -0.3960
 6600SOL    HW226172   0.649   2.926   1.233 -1.4218 -1.1509  0.6212
 6600SOL    HW326173   0.639   3.044   1.328 -2.3632 -1.8732  1.4443
 6600SOL    MW426174   0.615   3.003   1.255 -0.5099 -0.5440 -0.0190
 6601SOL     OW26175   3.954   3.014   2.288  0.1109 -0.1624  0.4204
 6601SOL    HW226176   3.942   2.957   2.364 -2.6630  0.2874  0.4228
 6601SOL    HW326177   3.868   3.018   2.247  0.4709  3.0721 -0.2777
 6601SOL    MW426178   3.941   3.007   2.292 -0.2076  0.3237  0.3286
 6602SOL     OW26179   6.215   5.777   0.556  0.1686 -0.0341 -0.3818
 6602SOL    HW226180   6.306   5.754   0.574 -0.0002 -1.8564 -1.6291
 6602SOL    HW326181   6.209   5.870   0.579  2.0168 -0.1788  0.8611
 6602SOL    MW426182   6.227   5.786   0.561  0.3902 -0.2936 -0.3824
 6603SOL     OW26183   1.484   0.980   1.890 -0.5562 -0.0746 -0.2063
 6603SOL    HW226184   1.405   1.033   1.896 -0.1596  0.6199 -0.8828
 6603SOL    HW326185   1.552   1.035   1.930 -0.1193 -0.0103 -1.0091
 6603SOL    MW426186   1.483   0.994   1.896 -0.4462  0.0255 -0.4014
 6604SOL     OW26187   2.129   2.419   3.583 -0.5091 -0.7468 -0.4875
 6604SOL    HW226188   2.201   2.482   3.577  0.6486 -2.0310 -0.4688
 6604SOL    HW326189   2.120   2.403   3.677 -0.2475 -1.2127 -0.5394
 6604SOL    MW426190   2.137   2.425   3.594 -0.3219 -0.9777 -0.4919
 6605SOL     OW26191   5.050   2.036   5.607  0.3839 -0.4376 -0.4932
 6605SOL    HW226192   4.980   1.993   5.558  1.4857 -3.1013  0.0475
 6605SOL    HW326193   5.101   2.083   5.541  0.6512 -2.2500 -1.6641
 6605SOL    MW426194   5.048   2.036   5.592  0.5645 -1.0282 -0.5763
 6606SOL     OW26195   5.487   4.819   0.743 -0.0519 -0.1101  0.5127
 6606SOL    HW226196   5.465   4.741   0.692  0.5974 -0.9721  1.5030
 6606SOL    HW326197   5.578   4.837   0.722  0.3040 -0.6331  1.5368
 6606SOL    MW426198   5.496   4.811   0.733  0.0807 -0.2928  0.7785
 6607SOL     OW26199   4.881   4.271   5.418 -0.0658  0.4329 -0.1172
 6607SOL    HW226200   4.873   4.320   5.337 -0.5394  3.2575  1.4906
 6607SOL    HW326201   4.794   4.274   5.457  0.5168  0.5645  1.2280
 6607SOL    MW426202   4.869   4.278   5.413 -0.0514  0.8229  0.2724
 6608SOL     OW26203   2.704   6.347   6.133 -0.6079  0.2552  0.1648
 6608SOL    HW226204   2.792   6.323   6.159 -0.7949  0.7552  1.3163
 6608SOL    HW326205   2.716   6.412   6.064 -0.1024 -1.9159 -1.9329
 6608SOL    MW426206   2.717   6.352   6.127 -0.5659  0.0347  0.0400
 6609SOL     OW26207   5.995   3.908   2.717  0.3728  0.1689 -0.2833
 6609SOL    HW226208   6.040   3.847   2.776 -0.7316 -1.7988 -1.3724
 6609SOL    HW326209   5.920   3.940   2.768 -0.6585 -1.6311 -0.5658
 6609SOL    MW426210   5.991   3.904   2.732  0.0911 -0.3282 -0.4643
 6610SOL     OW26211   4.534   2.748   4.274  0.1226 -0.0012 -0.2235
 6610SOL    HW226212   4.445   2.774   4.247  0.3290 -1.2563 -2.3042
 6610SOL    HW326213   4.519   2.686   4.346 -0.4767  2.6299  2.1308
 6610SOL    MW426214   4.520   2.743   4.280  0.0707  0.1804 -0.1874
 6611SOL     OW26215   4.306   3.990   3.458  0.1090  0.0286 -0.0191
 6611SOL    HW226216   4.262   4.069   3.490  0.8432  0.3880  0.1543
 6611SOL    HW326217   4.370   4.023   3.395  1.5630 -0.2236  1.2423
 6611SOL    MW426218   4.309   4.005   3.454  0.3977  0.0428  0.1702
 6612SOL     OW26219   5.400   5.610   2.856 -0.5391  0.8085  0.1097
 6612SOL    HW226220   5.328   5.621   2.919  1.1145  0.8619  2.1008
 6612SOL    HW326221   5.416   5.516   2.855 -0.3318  0.8435  0.0691
 6612SOL    MW426222   5.392   5.599   2.864 -0.2936  0.8201  0.3670
 6613SOL     OW26223   0.781   5.292   4.347  0.2533  0.1076 -0.0960
 6613SOL    HW226224   0.693   5.297   4.384  0.0314  1.2005 -0.7191
 6613SOL    HW326225   0.767   5.275   4.254  0.5380  2.9296 -0.7439
 6613SOL    MW426226   0.767   5.290   4.339  0.2616  0.6241 -0.2637
 6614SOL     OW26227   2.599   3.697   5.739 -0.0126 -0.1337 -0.3653
 6614SOL    HW226228   2.592   3.742   5.823 -0.7629 -0.6618 -0.1329
 6614SOL    HW326229   2.509   3.694   5.706  0.3811  0.7685 -1.5745
 6614SOL    MW426230   2.586   3.702   5.746 -0.0597 -0.0843 -0.4942
 6615SOL     OW26231   1.452   2.593   1.338  0.6489  0.0770 -0.0076
 6615SOL    HW226232   1.487   2.635   1.259  0.7542 -2.2890 -1.3260
 6615SOL    HW326233   1.522   2.534   1.366  0.3232  0.3556  1.4332
 6615SOL    MW426234   1.466   2.590   1.331  0.6199 -0.1984  0.0085
 6616SOL     OW26235   2.625   2.061   3.709 -0.3520 -0.2757  0.1455
 6616SOL    HW226236   2.715   2.080   3.682 -0.4187  1.2912  0.9289
 6616SOL    HW326237   2.571   2.112   3.648 -0.6554 -0.2843  0.4057
 6616SOL    MW426238   2.630   2.070   3.697 -0.4008 -0.0701  0.2832
 6617SOL     OW26239   4.307   3.371   6.096  0.3724 -0.2514 -0.1725
 6617SOL    HW226240   4.279   3.364   6.187  0.9870  0.6298  0.0918
 6617SOL    HW326241   4.253   3.440   6.059  1.3553  0.6634  0.0349
 6617SOL    MW426242   4.297   3.379   6.103  0.5832 -0.0144 -0.1102
 6618SOL     OW26243   4.277   4.816   4.129  0.2756  0.1911  0.1926
 6618SOL    HW226244   4.343   4.783   4.069  0.4074  2.4888 -1.0236
 6618SOL    HW326245   4.202   4.838   4.073 -1.4116 -1.8191  1.4685
 6618SOL    MW426246   4.276   4.814   4.114  0.0704  0.2290  0.2005
 6619SOL     OW26247   2.562   4.032   3.571 -0.5093 -0.1188 -0.2484
 6619SOL    HW226248   2.630   4.099   3.564  0.7575 -1.3208  0.0792
 6619SOL    HW326249   2.492   4.074   3.620  0.6730  0.6613  0.8393
 6619SOL    MW426250   2.562   4.047   3.576 -0.1862 -0.1745 -0.0617
 6620SOL     OW26251   0.952   5.362   0.977 -0.1472 -0.0749 -0.1560
 6620SOL    HW226252   1.021   5.295   0.974 -0.8185 -0.7891  0.0111
 6620SOL    HW326253   0.885   5.330   0.917 -0.7282  0.1607  0.3642
 6620SOL    MW426254   0.953   5.349   0.969 -0.3124 -0.1380 -0.0653
 6621SOL     OW26255   2.673   4.332   3.249  0.1929 -0.2857 -0.4234
 6621SOL    HW226256   2.720   4.253   3.271 -0.0757 -0.1913  0.5284
 6621SOL    HW326257   2.585   4.302   3.226  0.0234 -0.2432  0.1678
 6621SOL    MW426258   2.667   4.318   3.249  0.1351 -0.2676 -0.2198
 6622SOL     OW26259   4.745   0.657   4.352 -0.1361  0.0354 -0.1525
 6622SOL    HW226260   4.709   0.575   4.387  1.4324 -1.0306 -0.8793
 6622SOL    HW326261   4.693   0.674   4.273 -1.8190  0.9134  1.0749
 6622SOL    MW426262   4.733   0.648   4.346 -0.1512  0.0106 -0.0865
 6623SOL     OW26263   0.800   6.305   1.354 -0.2189 -0.1079 -0.0202
 6623SOL    HW226264   0.779   6.236   1.417  0.6953 -0.3946 -0.0137
 6623SOL    HW326265   0.728   6.303   1.291 -0.0938 -1.2270 -0.1421
 6623SOL    MW426266   0.787   6.296   1.354 -0.0818 -0.2933 -0.0354
 6624SOL     OW26267   3.276   5.947   4.897  0.1510  0.0454  0.1615
 6624SOL    HW226268   3.306   6.036   4.881  5.3896 -1.2256  0.8798
 6624SOL    HW326269   3.253   5.913   4.811  0.8884  1.2592 -0.5311
 6624SOL    MW426270   3.277   5.954   4.884  0.9394  0.0379  0.1649
 6625SOL     OW26271   5.579   2.626   5.459  0.4928  0.7343  0.2083
 6625SOL    HW226272   5.529   2.571   5.518  1.4707  0.3866  0.7345
 6625SOL    HW326273   5.533   2.710   5.460  0.5807  0.7847  1.5952
 6625SOL    MW426274   5.567   2.630   5.467  0.6334  0.6951  0.4607
 6626SOL     OW26275   0.496   5.277   4.165 -0.5943 -0.3535 -0.4003
 6626SOL    HW226276   0.537   5.317   4.088  0.2135 -2.1686 -0.9489
 6626SOL    HW326277   0.406   5.258   4.138 -0.0236 -1.9373 -1.2989
 6626SOL    MW426278   0.489   5.280   4.152 -0.4124 -0.8020 -0.5913
 6627SOL     OW26279   4.513   4.382   2.888  0.4427  0.0983  0.4722
 6627SOL    HW226280   4.545   4.442   2.955 -0.7256  1.0170  0.2368
 6627SOL    HW326281   4.457   4.436   2.832 -0.1643 -1.0849 -0.0932
 6627SOL    MW426282   4.510   4.397   2.890  0.2085  0.0634  0.3666
 6628SOL     OW26283   6.378   2.466   4.275  0.3731 -0.3531 -0.5586
 6628SOL    HW226284   6.287   2.442   4.293  0.5452 -0.8275 -0.3122
 6628SOL    HW326285   6.430   2.398   4.318  0.8518  0.0335 -0.5156
 6628SOL    MW426286   6.373   2.454   4.283  0.4589 -0.3646 -0.5204
 6629SOL     OW26287   0.825   0.704   4.358 -0.2467 -0.1906 -0.3076
 6629SOL    HW226288   0.881   0.739   4.289 -0.4219  0.2320 -0.2356
 6629SOL    HW326289   0.877   0.635   4.400 -0.3198 -0.8100 -1.1942
 6629SOL    MW426290   0.839   0.699   4.354 -0.2794 -0.2166 -0.4150
 6630SOL     OW26291   2.028   5.758   2.300  0.5907 -0.2130 -0.9894
 6630SOL    HW226292   1.964   5.692   2.324 -0.5364  1.9529  2.7742
 6630SOL    HW326293   2.113   5.721   2.325 -0.1982  0.3289  3.1253
 6630SOL    MW426294   2.031   5.745   2.307  0.3379  0.1443  0.0500
 6631SOL     OW26295   0.239   5.335   1.482  0.6143 -0.2665  0.4562
 6631SOL    HW226296   0.271   5.338   1.392  1.5351  0.6459  0.7989
 6631SOL    HW326297   0.252   5.244   1.509 -1.0812 -0.9252 -0.8083
 6631SOL    MW426298   0.245   5.323   1.474  0.5121 -0.2330  0.3345
 6632SOL     OW26299   5.070   2.655   5.386 -0.1918 -0.4064 -0.3323
 6632SOL    HW226300   5.097   2.592   5.319 -1.9038 -1.3130 -0.2253
 6632SOL    HW326301   4.975   2.663   5.375 -0.6177 -0.9394  2.2293
 6632SOL    MW426302   5.061   2.648   5.375 -0.4739 -0.5963  0.0198
 6633SOL     OW26303   6.362   1.510   4.137 -0.0228 -0.1026 -0.0523
 6633SOL    HW226304   6.305   1.574   4.179  0.5574 -1.1070  2.4623
 6633SOL    HW326305   6.451   1.539   4.158  0.3773  0.1772 -1.9575
 6633SOL    MW426306   6.366   1.522   4.146  0.1065 -0.1982  0.0281
 6634SOL     OW26307   3.656   2.370   1.092 -0.6736 -0.0255  0.1124
 6634SOL    HW226308   3.739   2.353   1.138 -1.3484 -0.7275  1.0910
 6634SOL    HW326309   3.676   2.444   1.035  0.2427  0.7641  1.4054
 6634SOL    MW426310   3.670   2.377   1.091 -0.6417 -0.0139  0.4121
 6635SOL     OW26311   3.928   4.233   3.634  0.0432  0.1455 -0.2300
 6635SOL    HW226312   3.867   4.194   3.571  0.2039 -0.0436 -0.2678
 6635SOL    HW326313   3.871   4.280   3.696 -0.0714  0.9679 -0.9423
 6635SOL    MW426314   3.912   4.234   3.634  0.0493  0.2291 -0.3290
 6636SOL     OW26315   3.197   0.990   3.289  0.3145  0.1674 -0.4424
 6636SOL    HW226316   3.241   1.054   3.346  1.0072 -1.1467  0.5504
 6636SOL    HW326317   3.187   1.036   3.205 -0.5024  2.0806  0.6213
 6636SOL    MW426318   3.202   1.005   3.286  0.2981  0.2464 -0.1711
 6637SOL     OW26319   3.263   0.843   4.252  0.6799  0.9748 -0.2969
 6637SOL    HW226320   3.233   0.828   4.162 -0.7774  1.8614  0.0130
 6637SOL    HW326321   3.183   0.860   4.301  1.3886 -0.2006  1.3347
 6637SOL    MW426322   3.249   0.844   4.246  0.5811  0.9367 -0.0408
 6638SOL     OW26323   0.769   5.688   6.163  0.4671  0.2855  0.7403
 6638SOL    HW226324   0.779   5.783   6.175  0.2146  0.4250 -0.1190
 6638SOL    HW326325   0.852   5.660   6.125  0.5070  0.1751  0.9080
 6638SOL    MW426326   0.781   5.697   6.160  0.4391  0.2893  0.6491
 6639SOL     OW26327   4.572   3.234   3.799  0.3229  0.0321  0.2169
 6639SOL    HW226328   4.653   3.251   3.847  1.3637 -1.5139 -0.9030
 6639SOL    HW326329   4.528   3.166   3.850  0.8529 -0.7567 -0.3581
 6639SOL    MW426330   4.577   3.227   3.812  0.5301 -0.2760 -0.0067
 6640SOL     OW26331   1.968   3.535   4.430 -0.0013  0.0888  0.4369
 6640SOL    HW226332   1.897   3.508   4.372  0.5928  0.9486 -0.7344
 6640SOL    HW326333   1.976   3.463   4.493 -2.6908  0.4890  1.3703
 6640SOL    MW426334   1.960   3.522   4.431 -0.2778  0.2550  0.4056
 6641SOL     OW26335   5.414   3.683   5.526 -0.4152  0.2143 -0.4111
 6641SOL    HW226336   5.388   3.772   5.549  2.1096  1.0863 -0.6544
 6641SOL    HW326337   5.509   3.682   5.535 -0.2772 -2.2239 -1.2525
 6641SOL    MW426338   5.423   3.695   5.530 -0.0638  0.0077 -0.5543
 6642SOL     OW26339   5.433   5.001   5.718  0.4844 -0.4375  0.1936
 6642SOL    HW226340   5.488   5.062   5.768  0.9892 -0.1452 -0.7015
 6642SOL    HW326341   5.462   4.914   5.746 -1.2010 -0.3698  2.5578
 6642SOL    MW426342   5.444   4.998   5.729  0.3286 -0.3900  0.3874
 6643SOL     OW26343   3.453   2.614   3.457  0.5218  0.7838 -0.0047
 6643SOL    HW226344   3.384   2.675   3.483 -1.2646 -1.4672  0.8713
 6643SOL    HW326345   3.417   2.569   3.380  1.7566  0.7327 -0.5748
 6643SOL    MW426346   3.439   2.616   3.450  0.4490  0.4800  0.0357
 6644SOL     OW26347   0.626   1.728   6.081  0.0740  0.4935 -0.0576
 6644SOL    HW226348   0.705   1.781   6.074  0.1112  0.6729  1.3065
 6644SOL    HW326349   0.578   1.768   6.154 -0.3886 -0.7072  0.3209
 6644SOL    MW426350   0.630   1.740   6.090  0.0179  0.3587  0.1723
 6645SOL     OW26351   1.325   5.630   1.360 -0.0571 -0.6284 -0.0728
 6645SOL    HW226352   1.394   5.565   1.350  0.3043 -0.1006 -1.1185
 6645SOL    HW326353   1.279   5.630   1.277  0.8629  1.4612 -0.6599
 6645SOL    MW426354   1.328   5.621   1.348  0.1120 -0.2831 -0.2883
 6646SOL     OW26355   2.493   0.664   4.972 -0.3735  0.2363 -0.2549
 6646SOL    HW226356   2.478   0.672   5.066 -2.0425 -0.5673 -0.4114
 6646SOL    HW326357   2.433   0.727   4.932  0.6103  0.8597 -0.7872
 6646SOL    MW426358   2.483   0.673   4.979 -0.4639  0.2125 -0.3458
 6647SOL     OW26359   5.803   3.458   3.787 -0.5292 -0.5290  0.2694
 6647SOL    HW226360   5.863   3.397   3.744 -0.1827 -0.2254  0.3192
 6647SOL    HW326361   5.858   3.510   3.845 -0.9315 -0.6621  0.7840
 6647SOL    MW426362   5.818   3.456   3.789 -0.5366 -0.5065  0.3438
 6648SOL     OW26363   3.798   5.136   1.689 -0.2770  0.4212  0.1809
 6648SOL    HW226364   3.852   5.138   1.768  0.1287  0.1886 -0.0900
 6648SOL    HW326365   3.849   5.186   1.624  1.3196 -2.6858 -1.1551
 6648SOL    MW426366   3.812   5.143   1.691 -0.0128 -0.0195 -0.0311
 6649SOL     OW26367   3.729   2.810   3.234 -0.2150  0.0244 -0.7178
 6649SOL    HW226368   3.807   2.773   3.192 -0.7568  0.4507 -2.1557
 6649SOL    HW326369   3.745   2.904   3.237 -0.3957  0.0466 -0.4100
 6649SOL    MW426370   3.741   2.817   3.229 -0.3104  0.0835 -0.8669
 6650SOL     OW26371   4.331   0.169   6.248  0.0499 -0.4021 -0.2542
 6650SOL    HW226372   4.392   0.160   6.321  1.2582 -0.7930 -1.2735
 6650SOL    HW326373   4.327   0.263   6.231  2.0047 -0.4962 -1.4753
 6650SOL    MW426374   4.338   0.180   6.255  0.4673 -0.4661 -0.5498
 6651SOL     OW26375   0.070   4.861   0.501 -0.4215  0.2584  0.2090
 6651SOL    HW226376   0.080   4.791   0.565  1.2172  0.2592 -0.0095
 6651SOL    HW326377  -0.001   4.831   0.444 -0.9509 -0.3800  1.1746
 6651SOL    MW426378   0.062   4.848   0.502 -0.2751  0.1743  0.3075
 6652SOL     OW26379   1.017   2.678   1.837 -0.3222  0.3832 -0.8184
 6652SOL    HW226380   0.997   2.589   1.810 -3.0121  0.5700  0.2494
 6652SOL    HW326381   1.112   2.680   1.845 -0.1195 -2.1015 -1.7553
 6652SOL    MW426382   1.027   2.667   1.835 -0.6504  0.0800 -0.8012
 6653SOL     OW26383   5.437   3.168   0.726 -0.7197  0.2691 -0.7144
 6653SOL    HW226384   5.526   3.144   0.697 -0.5464  0.8506 -0.6707
 6653SOL    HW326385   5.388   3.086   0.720  0.1330 -0.3527  0.4959
 6653SOL    MW426386   5.442   3.154   0.721 -0.5843  0.2638 -0.5490
 6654SOL     OW26387   3.390   5.695   4.954 -0.1645  0.2581 -0.2303
 6654SOL    HW226388   3.429   5.732   5.033 -1.2380  0.5584  0.1705
 6654SOL    HW326389   3.352   5.770   4.908 -0.1938 -0.0144 -0.6548
 6654SOL    MW426390   3.390   5.710   4.959 -0.3100  0.2617 -0.2335
 6655SOL     OW26391   3.435   4.320   0.336 -0.1706  0.3647  0.4343
 6655SOL    HW226392   3.350   4.338   0.297 -0.2574  0.6443  0.7457
 6655SOL    HW326393   3.461   4.235   0.300  0.0604  0.9191 -0.7638
 6655SOL    MW426394   3.427   4.311   0.326 -0.1516  0.4747  0.3173
 6656SOL     OW26395   2.660   4.792   4.839  0.1902  0.0980  0.2118
 6656SOL    HW226396   2.742   4.840   4.849  0.4385 -0.1984 -0.3382
 6656SOL    HW326397   2.685   4.700   4.849  0.4194 -0.2177 -2.4994
 6656SOL    MW426398   2.674   4.787   4.842  0.2532  0.0172 -0.2185
 6657SOL     OW26399   6.323   0.735   0.780 -0.1700  0.0254 -0.1082
 6657SOL    HW226400   6.372   0.716   0.699  0.4904 -0.6414  0.4298
 6657SOL    HW326401   6.381   0.791   0.830  0.6183 -1.7323  1.0571
 6657SOL    MW426402   6.337   0.740   0.776  0.0211 -0.2945  0.1165
 6658SOL     OW26403   0.549   5.754   0.526 -0.3845  0.1285 -0.6389
 6658SOL    HW226404   0.582   5.710   0.447 -0.8949 -1.7508  0.1602
 6658SOL    HW326405   0.559   5.848   0.506 -0.1291 -0.2929 -2.7687
 6658SOL    MW426406   0.555   5.761   0.513 -0.4181 -0.1750 -0.8145
 6659SOL     OW26407   3.773   4.294   4.671  0.2331  0.2022 -0.5142
 6659SOL    HW226408   3.779   4.342   4.588  0.2542  1.9180  0.4330
 6659SOL    HW326409   3.862   4.294   4.706  0.1030  0.0908 -0.1793
 6659SOL    MW426410   3.785   4.301   4.665  0.2187  0.4139 -0.3451
 6660SOL     OW26411   0.448   4.264   0.473  0.1665  0.0895  0.5889
 6660SOL    HW226412   0.358   4.295   0.460  0.1495 -0.4255 -0.7333
 6660SOL    HW326413   0.439   4.187   0.529 -0.4138 -0.8554 -0.7392
 6660SOL    MW426414   0.435   4.258   0.478  0.0877 -0.1031  0.2392
 6661SOL     OW26415   3.173   0.979   2.452  0.5848  0.2205  0.2299
 6661SOL    HW226416   3.209   1.046   2.509  0.7370  1.6512 -1.4553
 6661SOL    HW326417   3.100   1.023   2.408 -0.6944 -1.4024  0.6531
 6661SOL    MW426418   3.168   0.994   2.454  0.4361  0.1952  0.0634
 6662SOL     OW26419   3.721   2.468   4.451 -0.4814 -0.6458 -0.4285
 6662SOL    HW226420   3.667   2.536   4.491 -0.0162  0.8499 -2.2111
 6662SOL    HW326421   3.671   2.440   4.374  0.5863 -0.3022 -1.2688
 6662SOL    MW426422   3.707   2.473   4.446 -0.2792 -0.4032 -0.7746
 6663SOL     OW26423   1.186   5.082   2.839 -0.1745  0.3302  0.2318
 6663SOL    HW226424   1.197   5.134   2.759 -0.1766 -0.2628 -0.1693
 6663SOL    HW326425   1.106   5.116   2.878 -0.3739  0.3915 -0.2160
 6663SOL    MW426426   1.177   5.093   2.833 -0.2011  0.2601  0.1198
 6664SOL     OW26427   2.616   6.172   2.687 -0.6825 -0.3569 -0.0962
 6664SOL    HW226428   2.690   6.216   2.645 -1.1907  2.0068  1.2940
 6664SOL    HW326429   2.554   6.243   2.707 -2.1950 -1.9139  1.0525
 6664SOL    MW426430   2.618   6.187   2.684 -0.9491 -0.2505  0.2388
 6665SOL     OW26431   1.205   0.604   1.899  0.1672 -0.2332 -0.1491
 6665SOL    HW226432   1.250   0.537   1.951  0.9335 -0.3186 -0.8931
 6665SOL    HW326433   1.272   0.671   1.883 -0.5618  0.6886  0.5106
 6665SOL    MW426434   1.220   0.604   1.903  0.1721 -0.1228 -0.1602
 6666SOL     OW26435   4.014   1.972   5.649  0.6075 -0.1947  0.0270
 6666SOL    HW226436   4.095   1.999   5.692 -0.7422 -0.1273  2.7155
 6666SOL    HW326437   3.976   1.908   5.708 -0.4427 -1.6271 -2.0899
 6666SOL    MW426438   4.020   1.967   5.662  0.2908 -0.3748  0.1024
 6667SOL     OW26439   2.756   4.099   5.925 -0.2356  0.0991  0.1357
 6667SOL    HW226440   2.690   4.035   5.949  0.6044 -0.5154  0.8967
 6667SOL    HW326441   2.774   4.146   6.006  0.7597 -0.2321  0.1226
 6667SOL    MW426442   2.750   4.097   5.939  0.0065 -0.0257  0.2344
 6668SOL     OW26443   1.176   3.740   3.430 -0.4270 -0.1117  0.4773
 6668SOL    HW226444   1.234   3.666   3.412  0.5351  0.8308 -0.4732
 6668SOL    HW326445   1.210   3.811   3.375 -0.3668  1.4993  2.4768
 6668SOL    MW426446   1.188   3.740   3.420 -0.2921  0.2252  0.6157
 6669SOL     OW26447   0.697   2.790   2.848  0.5538 -0.4833 -0.7424
 6669SOL    HW226448   0.773   2.768   2.794  0.7543 -1.9524  0.0917
 6669SOL    HW326449   0.623   2.792   2.786  0.9387 -1.0933 -1.2325
 6669SOL    MW426450   0.697   2.788   2.833  0.6310 -0.7576 -0.6970
 6670SOL     OW26451   3.630   3.380   5.741 -0.1103 -0.5251  0.4414
 6670SOL    HW226452   3.627   3.315   5.671  0.7210  0.3398 -0.4366
 6670SOL    HW326453   3.705   3.436   5.719 -0.6840  0.6153  1.2610
 6670SOL    MW426454   3.640   3.379   5.729 -0.0763 -0.2605  0.4337
 6671SOL     OW26455   1.354   4.498   4.121 -0.1387  0.0494 -0.6223
 6671SOL    HW226456   1.326   4.492   4.030 -2.4773 -0.1099  0.0563
 6671SOL    HW326457   1.420   4.429   4.130 -1.1381 -1.1170 -1.7682
 6671SOL    MW426458   1.359   4.488   4.110 -0.5791 -0.1255 -0.6840
 6672SOL     OW26459   3.986   1.782   4.412  0.0183  0.2007  0.1963
 6672SOL    HW226460   4.049   1.805   4.481 -1.0064 -0.0309  1.2271
 6672SOL    HW326461   4.032   1.716   4.360  1.0988  0.9291  0.1854
 6672SOL    MW426462   4.001   1.776   4.414  0.0257  0.2663  0.3308
 6673SOL     OW26463   0.722   5.435   3.048  0.0082  0.0200  0.3026
 6673SOL    HW226464   0.630   5.413   3.031  0.3546 -0.7708 -0.6815
 6673SOL    HW326465   0.746   5.378   3.121  0.1496 -0.9624 -0.4895
 6673SOL    MW426466   0.713   5.424   3.055  0.0726 -0.2140  0.0682
 6674SOL     OW26467   1.942   3.228   0.607 -0.2703 -0.0052  0.1886
 6674SOL    HW226468   1.854   3.231   0.643  0.2404 -0.4045  1.5363
 6674SOL    HW326469   1.974   3.140   0.628  0.5646  0.2497  0.0449
 6674SOL    MW426470   1.935   3.217   0.615 -0.0928 -0.0242  0.3475
 6675SOL     OW26471   4.354   5.469   1.517  0.5409  0.5500  0.0553
 6675SOL    HW226472   4.356   5.423   1.433  1.8214  1.0560 -0.2050
 6675SOL    HW326473   4.423   5.535   1.510  0.8874  0.3800  1.6447
 6675SOL    MW426474   4.363   5.472   1.505  0.7555  0.5944  0.2307
 6676SOL     OW26475   1.222   2.934   5.824  0.0789  0.1147 -0.0512
 6676SOL    HW226476   1.302   2.985   5.837  0.2428 -0.3641  0.9008
 6676SOL    HW326477   1.234   2.890   5.740  0.2207  1.1140 -0.5681
 6676SOL    MW426478   1.234   2.935   5.814  0.1192  0.1834  0.0062
 6677SOL     OW26479   2.133   2.616   2.143  0.0089 -0.0587 -0.2553
 6677SOL    HW226480   2.121   2.522   2.135  0.5257 -0.1323 -0.1842
 6677SOL    HW326481   2.044   2.652   2.141 -0.2442 -0.6206  0.7500
 6677SOL    MW426482   2.119   2.608   2.141  0.0437 -0.1426 -0.1133
 6678SOL     OW26483   0.081   3.474   0.510 -0.5786  0.2022 -0.6629
 6678SOL    HW226484   0.013   3.407   0.513 -1.9944  1.6037  0.5232
 6678SOL    HW326485   0.054   3.533   0.439  0.6488 -0.4402 -1.6974
 6678SOL    MW426486   0.068   3.473   0.501 -0.6035  0.3023 -0.6429
 6679SOL     OW26487   3.763   5.122   3.024  0.1546 -0.9022 -0.0090
 6679SOL    HW226488   3.719   5.136   3.108  2.9577 -0.8019  1.5711
 6679SOL    HW326489   3.855   5.111   3.047  1.4213  1.3564 -3.2661
 6679SOL    MW426490   3.769   5.122   3.038  0.6916 -0.5910 -0.2302
 6680SOL     OW26491   0.359   0.226   2.654 -0.0236 -0.6916 -0.0046
 6680SOL    HW226492   0.429   0.190   2.599 -1.2238 -1.7290 -0.9170
 6680SOL    HW326493   0.293   0.258   2.592 -0.2192  0.5997  0.8343
 6680SOL    MW426494   0.359   0.225   2.638 -0.2078 -0.6581 -0.0143
 6681SOL     OW26495   1.842   1.050   5.442 -0.3413  0.4913 -0.1802
 6681SOL    HW226496   1.905   1.041   5.514 -1.2769  0.1715  0.6069
 6681SOL    HW326497   1.897   1.073   5.366  0.8224 -0.5505  0.3070
 6681SOL    MW426498   1.858   1.052   5.441 -0.3112  0.3117 -0.0121
 6682SOL     OW26499   1.903   6.070   2.195  0.4823  0.0637  0.4990
 6682SOL    HW226500   1.868   6.019   2.268 -1.4065  0.5564 -0.0240
 6682SOL    HW326501   1.981   6.021   2.167  3.4713  1.6509  5.0076
 6682SOL    MW426502   1.909   6.057   2.201  0.6274  0.3381  1.0248
 6683SOL     OW26503   3.558   2.854   2.837  0.0336  0.3809 -0.0680
 6683SOL    HW226504   3.590   2.942   2.856 -0.7190  0.2378  2.0976
 6683SOL    HW326505   3.507   2.829   2.914 -1.9484 -0.9586 -1.6982
 6683SOL    MW426506   3.555   2.862   2.849 -0.3272  0.1853  0.0026
 6684SOL     OW26507   4.185   4.601   0.019 -0.0727 -0.0824  0.1595
 6684SOL    HW226508   4.197   4.511   0.049  0.9759  0.1974  0.6417
 6684SOL    HW326509   4.160   4.593  -0.073  1.9387 -0.8223 -0.3609
 6684SOL    MW426510   4.183   4.588   0.011  0.3310 -0.1431  0.1545
 6685SOL     OW26511   1.803   2.581   4.126  0.5537  0.2441  0.1356
 6685SOL    HW226512   1.896   2.557   4.128  0.0059 -2.4079 -1.0150
 6685SOL    HW326513   1.766   2.526   4.057 -1.4858  2.9610 -1.1034
 6685SOL    MW426514   1.811   2.570   4.117  0.2123  0.2527 -0.1797
 6686SOL     OW26515   2.496   2.290   6.104 -0.1907  0.4338  0.0799
 6686SOL    HW226516   2.487   2.376   6.064  0.1781  0.6460  0.4572
 6686SOL    HW326517   2.578   2.294   6.153 -1.1230  0.5220  1.7082
 6686SOL    MW426518   2.506   2.302   6.105 -0.2650  0.4735  0.3445
 6687SOL     OW26519   4.489   5.287   6.080 -0.1276 -0.8000 -0.6725
 6687SOL    HW226520   4.438   5.223   6.030 -0.3778 -0.0161 -1.4393
 6687SOL    HW326521   4.471   5.265   6.172 -2.5313 -0.0496 -0.8996
 6687SOL    MW426522   4.480   5.275   6.086 -0.4777 -0.5976 -0.8036
 6688SOL     OW26523   1.307   2.104   5.490  0.2200 -0.1191  0.1887
 6688SOL    HW226524   1.220   2.086   5.525 -1.1306  2.0948 -1.7252
 6688SOL    HW326525   1.367   2.062   5.552 -2.1764 -2.0547  1.3707
 6688SOL    MW426526   1.303   2.096   5.503 -0.2744 -0.0824  0.0921
 6689SOL     OW26527   4.829   2.371   6.401  0.0602 -0.1671 -0.0637
 6689SOL    HW226528   4.879   2.316   6.341  1.4617 -0.4360  1.2965
 6689SOL    HW326529   4.756   2.315   6.429 -0.0509 -0.3743 -0.7494
 6689SOL    MW426530   4.826   2.356   6.397  0.2305 -0.2299  0.0253
 6690SOL     OW26531   3.312   3.808   4.053 -0.2204 -0.4068  0.1983
 6690SOL    HW226532   3.379   3.802   4.122 -0.0867 -1.3609  0.0084
 6690SOL    HW326533   3.243   3.862   4.091  0.4725  0.2530  0.5514
 6690SOL    MW426534   3.312   3.814   4.067 -0.1114 -0.4457  0.2198
 6691SOL     OW26535   2.806   5.318   1.494  0.3449 -0.1970  0.1832
 6691SOL    HW226536   2.752   5.325   1.573  0.5286 -0.3919  0.3284
 6691SOL    HW326537   2.882   5.373   1.512  0.3938 -0.2539  0.1501
 6691SOL    MW426538   2.809   5.326   1.507  0.3756 -0.2302  0.1980
 6692SOL     OW26539   1.911   0.608   1.034  0.4200  0.3590  1.3209
 6692SOL    HW226540   1.968   0.537   1.062 -1.3557 -2.8240 -2.1557
 6692SOL    HW326541   1.830   0.594   1.081 -0.7895 -1.7312 -1.1427
 6692SOL    MW426542   1.908   0.597   1.044  0.0262 -0.3367  0.5372
 6693SOL     OW26543   4.850   3.835   0.115 -0.0450  0.7173  0.0366
 6693SOL    HW226544   4.943   3.816   0.126  0.2820  1.5180 -1.2290
 6693SOL    HW326545   4.847   3.920   0.071 -1.3771  0.6106 -0.1343
 6693SOL    MW426546   4.862   3.844   0.111 -0.1777  0.8089 -0.1529
 6694SOL     OW26547   3.796   2.100   5.979  0.4495 -0.3828  0.9054
 6694SOL    HW226548   3.841   2.182   5.996 -0.8268 -0.0309  2.9392
 6694SOL    HW326549   3.752   2.113   5.895  0.0902  1.1090  1.3040
 6694SOL    MW426550   3.796   2.112   5.971  0.2337 -0.1395  1.2263
 6695SOL     OW26551   4.962   3.864   4.343 -0.3173  0.1042  0.2441
 6695SOL    HW226552   4.931   3.953   4.322  2.4742  1.9279  3.0768
 6695SOL    HW326553   4.886   3.821   4.383 -1.9310  0.8689 -1.7936
 6695SOL    MW426554   4.948   3.870   4.345 -0.1619  0.4457  0.3490
 6696SOL     OW26555   1.350   5.622   5.852 -0.7251  0.4339  0.6308
 6696SOL    HW226556   1.334   5.627   5.946  1.7709  1.5565  1.0816
 6696SOL    HW326557   1.446   5.617   5.844 -0.8762 -3.3731 -1.7509
 6696SOL    MW426558   1.361   5.622   5.863 -0.4157  0.0797  0.3761
 6697SOL     OW26559   3.998   4.264   2.008  0.1296  0.2619 -0.2246
 6697SOL    HW226560   4.053   4.229   2.077 -0.5142 -3.4141 -1.3815
 6697SOL    HW326561   4.057   4.318   1.955  0.6207  3.2349  3.0039
 6697SOL    MW426562   4.013   4.267   2.010  0.1095  0.1691  0.0488
 6698SOL     OW26563   2.851   6.092   4.699  0.0352 -0.0009  0.0999
 6698SOL    HW226564   2.848   5.999   4.721 -1.8739  0.2112  0.8829
 6698SOL    HW326565   2.762   6.113   4.671  0.8373  1.2259 -1.7661
 6698SOL    MW426566   2.839   6.082   4.698 -0.1108  0.1889 -0.0430
 6699SOL     OW26567   3.979   3.381   4.908 -0.3465  0.3884  0.1657
 6699SOL    HW226568   3.920   3.426   4.969 -0.7781 -1.2248  0.9952
 6699SOL    HW326569   3.942   3.400   4.822 -1.1528  0.7154  0.5628
 6699SOL    MW426570   3.966   3.390   4.905 -0.5098  0.2187  0.3275
 6700SOL     OW26571   3.179   2.441   2.416  0.5051 -0.4039 -0.2058
 6700SOL    HW226572   3.260   2.490   2.428  0.7526 -1.0383  0.7744
 6700SOL    HW326573   3.205   2.364   2.366  0.8318 -1.4072  1.4396
 6700SOL    MW426574   3.193   2.438   2.411  0.5809 -0.6200  0.1406
 6701SOL     OW26575   3.605   0.146   5.688 -0.0841  0.2415  0.1597
 6701SOL    HW226576   3.672   0.190   5.739 -0.0248  1.7129 -1.1239
 6701SOL    HW326577   3.621   0.173   5.598 -1.9313  0.0423 -0.2792
 6701SOL    MW426578   3.616   0.155   5.683 -0.3200  0.4094 -0.0676
 6702SOL     OW26579   2.943   0.511   1.571  0.6355 -0.3551 -0.3460
 6702SOL    HW226580   3.002   0.471   1.507  0.7125  0.2751 -0.6739
 6702SOL    HW326581   2.855   0.493   1.538  0.6468 -0.9097 -0.0895
 6702SOL    MW426582   2.939   0.504   1.558  0.6472 -0.3451 -0.3554
 6703SOL     OW26583   3.537   1.531   6.221  0.4485  0.0937 -0.5236
 6703SOL    HW226584   3.587   1.597   6.174  1.7783 -0.0185  0.6516
 6703SOL    HW326585   3.587   1.516   6.302 -2.1100  0.8753  1.3382
 6703SOL    MW426586   3.550   1.538   6.226  0.2864  0.1820 -0.1229
 6704SOL     OW26587   0.755   1.118   2.312  0.1874  0.5223 -0.4905
 6704SOL    HW226588   0.761   1.204   2.356  0.6804  0.6976 -0.9017
 6704SOL    HW326589   0.739   1.139   2.220 -0.9298  0.1509 -0.3955
 6704SOL    MW426590   0.753   1.132   2.306  0.1050  0.4964 -0.5322
 6705SOL     OW26591   3.215   0.870   5.780  0.2522 -0.3072 -0.7108
 6705SOL    HW226592   3.280   0.882   5.849 -0.3861 -0.3272 -0.0905
 6705SOL    HW326593   3.140   0.923   5.809 -0.1438 -0.5820 -1.2235
 6705SOL    MW426594   3.214   0.879   5.793  0.1157 -0.3461 -0.6966
 6706SOL     OW26595   0.592   5.039   2.817 -0.1904 -0.5526  0.2839
 6706SOL    HW226596   0.645   4.983   2.875  0.9533  0.5991  0.3979
 6706SOL    HW326597   0.650   5.060   2.744 -0.9809 -0.4201 -0.3145
 6706SOL    MW426598   0.607   5.035   2.815 -0.1438 -0.3832  0.2200
 6707SOL     OW26599   0.474   1.861   4.551  0.1932  0.7749  0.3072
 6707SOL    HW226600   0.434   1.946   4.532  0.6523  1.0130  0.3892
 6707SOL    HW326601   0.495   1.866   4.645  2.4222  1.5207 -0.1751
 6707SOL    MW426602   0.471   1.873   4.561  0.5479  0.9048  0.2544
 6708SOL     OW26603   1.835   6.444   6.051  0.5090  0.0969  0.6457
 6708SOL    HW226604   1.839   6.525   6.103  0.8149  0.1599  0.5262
 6708SOL    HW326605   1.742   6.421   6.050  0.3285  0.8101  0.1197
 6708SOL    MW426606   1.823   6.452   6.058  0.5256  0.1993  0.5605
 6709SOL     OW26607   5.878   5.718   3.513  0.0057 -0.1367  0.0638
 6709SOL    HW226608   5.961   5.745   3.553  0.5838  0.1287 -1.2556
 6709SOL    HW326609   5.904   5.673   3.433 -1.1380  0.4773 -0.6791
 6709SOL    MW426610   5.893   5.716   3.508 -0.0689 -0.0207 -0.2083
 6710SOL     OW26611   1.888   4.642   1.113 -0.0849 -0.4963  0.3854
 6710SOL    HW226612   1.876   4.576   1.045  1.7678 -2.0037  1.4489
 6710SOL    HW326613   1.981   4.638   1.135 -0.3390  1.0077  1.9830
 6710SOL    MW426614   1.899   4.633   1.107  0.1261 -0.4967  0.7365
 6711SOL     OW26615   2.298   5.832   3.436 -0.3943  0.0452 -0.0074
 6711SOL    HW226616   2.316   5.764   3.500  0.4661  0.7396  0.5121
 6711SOL    HW326617   2.383   5.848   3.394 -0.4204  1.2982  0.3880
 6711SOL    MW426618   2.311   5.825   3.439 -0.2842  0.3022  0.1133
 6712SOL     OW26619   2.719   6.070   3.333 -0.0140  0.0781  0.4308
 6712SOL    HW226620   2.807   6.070   3.373  0.0078  0.7855  0.4014
 6712SOL    HW326621   2.723   6.140   3.268  0.0220 -1.2180 -1.0110
 6712SOL    MW426622   2.731   6.079   3.330 -0.0063  0.0004  0.2367
 6713SOL     OW26623   0.578   0.748   5.979  0.4550  0.2935 -0.5052
 6713SOL    HW226624   0.622   0.824   6.018  1.3744 -0.7983  0.7021
 6713SOL    HW326625   0.632   0.726   5.903  1.7318 -0.6897  0.6382
 6713SOL    MW426626   0.591   0.755   5.974  0.7448  0.0197 -0.1951
 6714SOL     OW26627   4.814   0.647   1.575 -0.0742  0.8519 -0.2014
 6714SOL    HW226628   4.878   0.669   1.508 -0.5752 -2.3438 -1.9203
 6714SOL    HW326629   4.732   0.635   1.528 -0.5563 -0.9784  1.0011
 6714SOL    MW426630   4.812   0.648   1.560 -0.2039  0.1888 -0.2695
 6715SOL     OW26631   1.315   4.014   3.035  0.3893 -0.1114 -0.7575
 6715SOL    HW226632   1.394   4.062   3.011  0.6207 -0.8801 -1.6053
 6715SOL    HW326633   1.303   3.952   2.964 -0.3834 -0.7231 -0.1098
 6715SOL    MW426634   1.324   4.012   3.023  0.3179 -0.2935 -0.7839
 6716SOL     OW26635   4.314   0.888   1.384  0.1632 -0.7978 -0.4199
 6716SOL    HW226636   4.390   0.844   1.346  1.2002  1.4703 -1.0846
 6716SOL    HW326637   4.343   0.916   1.470  0.4218  0.8462 -1.0132
 6716SOL    MW426638   4.328   0.886   1.390  0.3341 -0.2817 -0.5859
 6717SOL     OW26639   0.009   2.219   3.352  0.1212 -0.5247  0.2144
 6717SOL    HW226640  -0.072   2.170   3.335  0.7730 -1.0864 -1.4991
 6717SOL    HW326641  -0.014   2.279   3.423 -2.5946  1.1314 -1.8743
 6717SOL    MW426642  -0.005   2.220   3.359 -0.1511 -0.3803 -0.2873
 6718SOL     OW26643   1.274   6.272   4.873  0.1048 -0.1136 -0.3939
 6718SOL    HW226644   1.351   6.322   4.898  1.5912 -1.5292 -1.8154
 6718SOL    HW326645   1.301   6.225   4.794 -2.0320 -1.1344 -0.5973
 6718SOL    MW426646   1.288   6.272   4.866  0.0190 -0.4350 -0.6083
 6719SOL     OW26647   5.517   0.190   5.160 -0.1026 -0.2853 -0.1746
 6719SOL    HW226648   5.497   0.153   5.247 -0.4159  0.1866 -0.0395
 6719SOL    HW326649   5.612   0.205   5.162 -0.0611 -0.5546 -0.0233
 6719SOL    MW426650   5.527   0.187   5.172 -0.1385 -0.2586 -0.1368
 6720SOL     OW26651   4.213   4.878   3.412  0.3753  0.5851 -0.0127
 6720SOL    HW226652   4.149   4.808   3.405  0.5348  0.3739  0.6117
 6720SOL    HW326653   4.175   4.940   3.474 -0.6322  2.0099 -1.9093
 6720SOL    MW426654   4.200   4.877   3.419  0.2634  0.7452 -0.1806
 6721SOL     OW26655   1.159   3.788   4.496 -0.0627  0.0432 -0.5562
 6721SOL    HW226656   1.190   3.854   4.558  0.0798 -0.5702  0.0251
 6721SOL    HW326657   1.086   3.745   4.540 -0.2411 -0.1052 -0.9882
 6721SOL    MW426658   1.153   3.791   4.510 -0.0674 -0.0574 -0.5365
 6722SOL     OW26659   3.488   1.524   3.352  0.3742  0.1373 -0.6764
 6722SOL    HW226660   3.411   1.516   3.407  0.6732 -1.4489 -0.4367
 6722SOL    HW326661   3.471   1.601   3.297 -1.2025  0.0295 -0.3804
 6722SOL    MW426662   3.476   1.533   3.352  0.2056 -0.0862 -0.6057
 6723SOL     OW26663   3.214   4.660   2.739 -0.5347 -0.2157 -0.5128
 6723SOL    HW226664   3.211   4.713   2.659 -1.1508 -1.2480 -1.2098
 6723SOL    HW326665   3.204   4.570   2.708 -0.9758 -0.6255  0.7506
 6723SOL    MW426666   3.212   4.655   2.724 -0.6742 -0.4060 -0.4381
 6724SOL     OW26667   3.980   4.008   1.837  0.0708  0.1398 -0.1059
 6724SOL    HW226668   4.053   3.993   1.897  0.3336  0.5877 -0.3072
 6724SOL    HW326669   4.013   4.073   1.775  0.0030 -0.7800 -1.1188
 6724SOL    MW426670   3.994   4.015   1.837  0.0965  0.0775 -0.2661
 6725SOL     OW26671   1.158   0.427   1.647 -0.2307 -0.0197  0.0091
 6725SOL    HW226672   1.153   0.436   1.742 -0.5879 -0.5811  0.0410
 6725SOL    HW326673   1.169   0.334   1.632 -1.5184 -0.0976 -0.5607
 6725SOL    MW426674   1.159   0.416   1.657 -0.4477 -0.1041 -0.0619
 6726SOL     OW26675   5.313   3.144   2.697  0.5733  0.1849  0.0215
 6726SOL    HW226676   5.222   3.164   2.677 -0.1407 -1.1632  1.7269
 6726SOL    HW326677   5.357   3.143   2.612 -0.9983  0.7960 -0.8246
 6726SOL    MW426678   5.307   3.147   2.683  0.2717  0.0876  0.1349
 6727SOL     OW26679   3.979   3.435   1.845  0.0400  0.1082 -0.1784
 6727SOL    HW226680   4.055   3.379   1.835 -0.4264 -0.2896 -1.7166
 6727SOL    HW326681   4.006   3.519   1.808  0.0624  0.2707  0.2068
 6727SOL    MW426682   3.992   3.439   1.839 -0.0186  0.0771 -0.3305
 6728SOL     OW26683   5.509   6.137   2.725 -0.5346  0.1640  0.1414
 6728SOL    HW226684   5.499   6.228   2.755  0.4302 -0.1978  1.6891
 6728SOL    HW326685   5.524   6.144   2.631  0.8114  1.7351  0.4164
 6728SOL    MW426686   5.510   6.150   2.717 -0.2298  0.3236  0.3819
 6729SOL     OW26687   3.810   0.380   4.175  0.0757  0.5299 -0.5267
 6729SOL    HW226688   3.786   0.370   4.082  2.1128 -0.5743 -0.9845
 6729SOL    HW326689   3.898   0.417   4.173  1.2570 -2.0198  0.8685
 6729SOL    MW426690   3.818   0.384   4.162  0.5003  0.0478 -0.4030
 6730SOL     OW26691   6.353   3.325   2.555 -0.3269 -0.8849 -0.1139
 6730SOL    HW226692   6.318   3.265   2.621 -0.7958  0.2701  0.7215
 6730SOL    HW326693   6.276   3.365   2.516 -0.0106 -0.5384 -0.3885
 6730SOL    MW426694   6.339   3.322   2.559 -0.3471 -0.6868 -0.0399
 6731SOL     OW26695   4.177   3.908   2.031 -0.0039  0.3799 -0.3320
 6731SOL    HW226696   4.233   3.840   1.994 -0.5740 -0.0642 -0.3927
 6731SOL    HW326697   4.132   3.866   2.104 -1.2335  0.3379 -1.0886
 6731SOL    MW426698   4.179   3.894   2.036 -0.2414  0.3158 -0.4398
 6732SOL     OW26699   1.254   5.160   1.607  0.0708  0.5772  0.6858
 6732SOL    HW226700   1.265   5.217   1.531 -1.6064 -0.2437 -0.2246
 6732SOL    HW326701   1.331   5.104   1.607 -0.1388  0.2738 -0.7098
 6732SOL    MW426702   1.266   5.160   1.597 -0.1781  0.4288  0.3816
 6733SOL     OW26703   2.702   1.732   5.732  0.2960 -0.2315 -0.1018
 6733SOL    HW226704   2.680   1.655   5.680  1.1711 -0.3689 -0.2842
 6733SOL    HW326705   2.791   1.716   5.762 -0.2713 -0.2917  1.7053
 6733SOL    MW426706   2.711   1.720   5.729  0.3366 -0.2576  0.1126
 6734SOL     OW26707   6.323   5.621   5.569 -0.4700  0.0330 -0.0651
 6734SOL    HW226708   6.229   5.622   5.586 -0.7396  2.4236 -1.3022
 6734SOL    HW326709   6.333   5.561   5.495 -0.8140 -1.1394  0.7968
 6734SOL    MW426710   6.312   5.613   5.562 -0.5509  0.1937 -0.1146
 6735SOL     OW26711   4.881   2.087   4.608  0.0921 -0.5337  0.2354
 6735SOL    HW226712   4.891   2.083   4.703  3.0036 -0.6103  0.0162
 6735SOL    HW326713   4.853   2.177   4.590 -1.0487 -0.6741  1.1436
 6735SOL    MW426714   4.878   2.098   4.618  0.3257 -0.5624  0.3263
 6736SOL     OW26715   1.807   3.309   2.092  0.0687 -0.2872 -0.2005
 6736SOL    HW226716   1.751   3.232   2.089 -0.2695 -0.2784  2.7416
 6736SOL    HW326717   1.746   3.382   2.100  0.4401  0.0717 -0.6308
 6736SOL    MW426718   1.791   3.308   2.093  0.0730 -0.2387  0.1309
 6737SOL     OW26719   0.812   3.679   5.143 -0.0065 -0.1235 -0.0119
 6737SOL    HW226720   0.825   3.642   5.230  0.2835  1.8100  0.8187
 6737SOL    HW326721   0.747   3.622   5.102  0.5032 -1.5820  1.1265
 6737SOL    MW426722   0.805   3.666   5.149  0.0990 -0.0609  0.2478
 6738SOL     OW26723   5.917   5.340   2.718 -0.3870 -0.5953  0.3302
 6738SOL    HW226724   5.984   5.407   2.707 -0.8463 -0.4455 -1.8943
 6738SOL    HW326725   5.838   5.388   2.741 -0.1050 -0.6526  1.4971
 6738SOL    MW426726   5.916   5.355   2.720 -0.4104 -0.5831  0.1906
 6739SOL     OW26727   4.019   4.613   4.327  0.1415 -0.6093 -0.5955
 6739SOL    HW226728   4.091   4.552   4.310  0.1078 -0.6686 -0.5265
 6739SOL    HW326729   3.952   4.559   4.370  0.6476 -0.2327  0.7193
 6739SOL    MW426730   4.020   4.598   4.331  0.2038 -0.5674 -0.4130
 6740SOL     OW26731   1.356   6.484   5.567 -0.3329  0.0521 -0.6964
 6740SOL    HW226732   1.443   6.480   5.527 -0.6783  1.2461 -1.6084
 6740SOL    HW326733   1.368   6.538   5.645 -0.1561 -0.1895 -0.5575
 6740SOL    MW426734   1.369   6.491   5.572 -0.3551  0.1777 -0.7984
 6741SOL     OW26735   3.186   2.961   4.917  0.3939 -0.4506  0.0299
 6741SOL    HW226736   3.265   2.976   4.864 -0.4223  0.5506 -0.9487
 6741SOL    HW326737   3.137   3.043   4.911 -0.0385 -0.5331  1.8606
 6741SOL    MW426738   3.190   2.974   4.909  0.2292 -0.3294  0.1423
 6742SOL     OW26739   2.105   0.627   5.025 -0.0682  0.8418 -0.4639
 6742SOL    HW226740   2.166   0.650   5.095  1.7702 -0.9769 -1.3414
 6742SOL    HW326741   2.141   0.668   4.947 -1.4957  1.9485 -0.5769
 6742SOL    MW426742   2.118   0.635   5.024 -0.0140  0.7478 -0.5946
 6743SOL     OW26743   2.983   5.658   5.603 -0.0323  0.3837 -0.0553
 6743SOL    HW226744   3.010   5.744   5.573 -1.0218  1.2183  1.3228
 6743SOL    HW326745   2.892   5.669   5.629  0.7830 -0.1211  3.5239
 6743SOL    MW426746   2.974   5.670   5.602 -0.0553  0.4272  0.5988
 6744SOL     OW26747   1.547   5.028   4.823  0.1309  0.1088 -0.2135
 6744SOL    HW226748   1.573   5.042   4.915 -0.3221 -0.7803  0.0565
 6744SOL    HW326749   1.621   5.062   4.772 -0.0410  1.5569  0.4482
 6744SOL    MW426750   1.560   5.034   4.829  0.0485  0.1826 -0.0906
 6745SOL     OW26751   1.792   0.488   0.260  0.6635 -0.3025  0.6744
 6745SOL    HW226752   1.745   0.544   0.321  1.3157  0.3943  0.5517
 6745SOL    HW326753   1.877   0.473   0.302  0.5186 -1.1590  0.6792
 6745SOL    MW426754   1.797   0.493   0.274  0.7305 -0.3236  0.6588
 6746SOL     OW26755   0.348   2.303   3.940  0.3752 -0.0705  0.1285
 6746SOL    HW226756   0.372   2.216   3.971  0.8931 -0.1580 -0.4979
 6746SOL    HW326757   0.264   2.291   3.895  1.1220 -0.5237 -1.1924
 6746SOL    MW426758   0.340   2.290   3.938  0.5421 -0.1418 -0.1284
 6747SOL     OW26759   6.292   1.551   2.176  1.0050 -0.2011  0.0619
 6747SOL    HW226760   6.215   1.606   2.166  1.8957  0.8596 -1.3931
 6747SOL    HW326761   6.315   1.558   2.268 -1.0688 -1.2023  0.7166
 6747SOL    MW426762   6.285   1.559   2.187  0.8489 -0.1932 -0.0437
 6748SOL     OW26763   4.009   1.522   2.930  0.1690  0.1194 -0.0198
 6748SOL    HW226764   3.968   1.585   2.871  2.1324  0.6336 -0.9478
 6748SOL    HW326765   4.028   1.446   2.874 -0.7912 -0.6843  0.7237
 6748SOL    MW426766   4.006   1.520   2.915  0.3013  0.0812 -0.0442
 6749SOL     OW26767   3.113   0.895   4.900  0.0721  0.2757 -0.1445
 6749SOL    HW226768   3.070   0.883   4.985  0.9813  2.6151  0.7378
 6749SOL    HW326769   3.207   0.895   4.921  0.3266  0.1325 -1.2581
 6749SOL    MW426770   3.120   0.894   4.914  0.2256  0.5655 -0.1750
 6750SOL     OW26771   6.301   2.292   2.200  0.1218 -0.5008  0.3597
 6750SOL    HW226772   6.382   2.277   2.152 -1.2449  0.3896 -2.4671
 6750SOL    HW326773   6.254   2.209   2.195  0.6780 -0.9101  1.6829
 6750SOL    MW426774   6.305   2.279   2.193  0.0149 -0.4373  0.1613
 6751SOL     OW26775   5.085   3.624   2.424  0.0780 -0.1493 -0.5416
 6751SOL    HW226776   5.156   3.681   2.394 -0.4238  0.3732 -0.7359
 6751SOL    HW326777   5.014   3.639   2.362 -0.2481 -0.5768 -0.2707
 6751SOL    MW426778   5.085   3.634   2.412 -0.0312 -0.1368 -0.5315
 6752SOL     OW26779   1.200   4.302   4.711 -0.0751 -0.1246  0.2729
 6752SOL    HW226780   1.220   4.351   4.632  0.4480  0.3164  0.6715
 6752SOL    HW326781   1.280   4.306   4.763 -0.3113 -0.6643  0.6961
 6752SOL    MW426782   1.213   4.309   4.707 -0.0373 -0.1376  0.3813
 6753SOL     OW26783   0.319   0.742   5.378  0.2684 -0.1326  0.1842
 6753SOL    HW226784   0.320   0.646   5.379 -1.3397 -0.1749  0.4962
 6753SOL    HW326785   0.364   0.767   5.458  2.4799 -0.5376 -0.8368
 6753SOL    MW426786   0.325   0.733   5.388  0.3480 -0.1916  0.0906
 6754SOL     OW26787   5.308   2.444   2.998  0.2842 -0.4021  0.0064
 6754SOL    HW226788   5.218   2.475   3.002  0.0290 -0.9539 -1.0836
 6754SOL    HW326789   5.303   2.350   3.012  0.5423 -0.6224 -1.2653
 6754SOL    MW426790   5.296   2.436   3.000  0.2846 -0.5040 -0.3052
 6755SOL     OW26791   3.193   4.666   5.985 -0.2488 -0.0841 -0.0747
 6755SOL    HW226792   3.203   4.743   5.929  1.7058 -0.3309 -0.1206
 6755SOL    HW326793   3.102   4.671   6.016 -0.3551  1.8975 -0.5627
 6755SOL    MW426794   3.182   4.677   5.982 -0.0049  0.1448 -0.1452
 6756SOL     OW26795   0.369   4.694   5.681  0.7061 -0.1956  0.3347
 6756SOL    HW226796   0.398   4.678   5.771  1.8728  1.2490  0.2413
 6756SOL    HW326797   0.278   4.724   5.690  0.5072 -0.9532  0.9425
 6756SOL    MW426798   0.361   4.696   5.694  0.8338 -0.1050  0.4026
 6757SOL     OW26799   4.549   1.072   0.217  0.2139 -0.1313  0.0482
 6757SOL    HW226800   4.479   1.123   0.258 -0.3663 -0.9885  0.1648
 6757SOL    HW326801   4.578   1.012   0.286  1.2106  0.3480  0.0587
 6757SOL    MW426802   4.543   1.071   0.231  0.2688 -0.1811  0.0650
 6758SOL     OW26803   3.799   1.929   3.596 -0.2033  0.0335 -0.0335
 6758SOL    HW226804   3.802   1.934   3.500  0.1999 -0.0562 -0.0272
 6758SOL    HW326805   3.881   1.969   3.625 -1.3232  2.2415  0.3653
 6758SOL    MW426806   3.810   1.935   3.587 -0.2979  0.3130  0.0199
 6759SOL     OW26807   5.773   5.662   0.717 -0.1856  0.6693 -0.4376
 6759SOL    HW226808   5.837   5.592   0.703 -1.3100 -0.5471  0.3144
 6759SOL    HW326809   5.689   5.621   0.699 -0.7608  2.3225 -1.6801
 6759SOL    MW426810   5.770   5.647   0.713 -0.4099  0.7269 -0.5023
 6760SOL     OW26811   2.998   3.839   0.218  0.1101  0.6064  0.0851
 6760SOL    HW226812   2.957   3.778   0.280  0.6951  0.4622  0.3287
 6760SOL    HW326813   3.089   3.812   0.214 -0.0354  0.2440 -1.2897
 6760SOL    MW426814   3.004   3.827   0.225  0.1681  0.5396 -0.0642
 6761SOL     OW26815   0.396   5.447   0.525 -0.5045  0.5689 -0.1753
 6761SOL    HW226816   0.331   5.513   0.501 -1.6136  0.2003  1.6575
 6761SOL    HW326817   0.434   5.480   0.607 -1.1677 -1.1040  0.8333
 6761SOL    MW426818   0.393   5.460   0.533 -0.7383  0.2996  0.1995
 6762SOL     OW26819   0.374   3.774   2.270 -0.0639  0.4943 -0.0560
 6762SOL    HW226820   0.376   3.861   2.309  0.6347  0.9264 -1.0268
 6762SOL    HW326821   0.297   3.732   2.309  0.2702  1.1086  1.3230
 6762SOL    MW426822   0.364   3.780   2.280  0.0723  0.6323 -0.0022
 6763SOL     OW26823   0.020   4.130   0.111 -0.2325 -0.7077  0.0383
 6763SOL    HW226824   0.078   4.130   0.035 -0.2635 -0.0563  0.0029
 6763SOL    HW326825   0.052   4.058   0.166 -0.5744 -1.5591 -0.8555
 6763SOL    MW426826   0.032   4.121   0.108 -0.2817 -0.7341 -0.0843
 6764SOL     OW26827   5.161   1.547   2.314  0.1168  0.2133  0.1364
 6764SOL    HW226828   5.154   1.451   2.308  0.6303  0.0025  2.2880
 6764SOL    HW326829   5.157   1.576   2.223 -2.2068 -1.6833 -0.4900
 6764SOL    MW426830   5.160   1.538   2.301 -0.1220 -0.0647  0.3376
 6765SOL     OW26831   5.900   5.216   0.798 -0.7546  0.0928 -0.0093
 6765SOL    HW226832   5.871   5.199   0.887  2.0527  0.9218  1.1691
 6765SOL    HW326833   5.990   5.184   0.796 -0.1010  1.8624 -1.9602
 6765SOL    MW426834   5.908   5.209   0.809 -0.2980  0.4356 -0.1112
 6766SOL     OW26835   4.667   3.104   0.746 -0.4130  0.2905  1.0938
 6766SOL    HW226836   4.623   3.180   0.783  0.7255  0.6472  1.7677
 6766SOL    HW326837   4.614   3.029   0.773 -2.9836  0.9249 -1.6291
 6766SOL    MW426838   4.654   3.104   0.754 -0.6020  0.4212  0.8235
 6767SOL     OW26839   6.115   5.137   1.129 -0.3697 -0.1336 -0.1074
 6767SOL    HW226840   6.127   5.207   1.193  0.1515 -0.5392  0.2527
 6767SOL    HW326841   6.026   5.148   1.097 -0.2345  0.8011 -0.1887
 6767SOL    MW426842   6.105   5.148   1.133 -0.2831 -0.0638 -0.0706
 6768SOL     OW26843   0.753   0.099   2.951 -0.0142 -0.1559 -0.2073
 6768SOL    HW226844   0.755   0.007   2.925  0.9124 -0.4870  0.9451
 6768SOL    HW326845   0.838   0.114   2.991  0.0850  1.3896 -0.9257
 6768SOL    MW426846   0.764   0.089   2.953  0.1211  0.0043 -0.1501
 6769SOL     OW26847   1.915   1.694   0.221 -0.1847  0.0030 -0.7455
 6769SOL    HW226848   1.875   1.615   0.184 -1.3271  0.4883 -0.5994
 6769SOL    HW326849   1.958   1.736   0.147  0.9863 -1.0612 -0.7042
 6769SOL    MW426850   1.915   1.689   0.206 -0.1809 -0.0734 -0.7208
 6770SOL     OW26851   5.720   3.932   4.983 -0.0026  0.2744  0.6239
 6770SOL    HW226852   5.720   3.867   5.054  0.1626 -0.1168  0.2702
 6770SOL    HW326853   5.687   4.012   5.024 -1.3249 -0.3323  0.7892
 6770SOL    MW426854   5.716   3.934   4.998 -0.1553  0.1427  0.5991
 6771SOL     OW26855   3.128   4.578   1.265  0.0937 -0.7596  0.1339
 6771SOL    HW226856   3.177   4.598   1.345  2.0615  0.9336 -1.3869
 6771SOL    HW326857   3.174   4.502   1.228  2.4563  1.4020 -1.7894
 6771SOL    MW426858   3.141   4.571   1.270  0.6650 -0.2510 -0.3205
 6772SOL     OW26859   3.651   5.356   0.208 -0.0705 -0.4209 -0.2908
 6772SOL    HW226860   3.694   5.371   0.292 -0.9685  1.2560 -0.0941
 6772SOL    HW326861   3.719   5.375   0.143  0.2652 -0.4971  0.0354
 6772SOL    MW426862   3.666   5.361   0.210 -0.1447 -0.2097 -0.2218
 6773SOL     OW26863   2.784   1.151   5.049 -0.2606 -0.1428 -0.1114
 6773SOL    HW226864   2.764   1.117   4.962 -1.6323 -0.2692  0.2152
 6773SOL    HW326865   2.704   1.197   5.075  0.7982  1.5395  0.3240
 6773SOL    MW426866   2.770   1.153   5.041 -0.3019  0.0625 -0.0109
 6774SOL     OW26867   6.102   6.052   0.530  0.2751 -0.6180  0.3917
 6774SOL    HW226868   6.177   6.082   0.478 -0.3077  0.1017 -0.0592
 6774SOL    HW326869   6.038   6.023   0.465 -0.5582  0.5237  0.6605
 6774SOL    MW426870   6.104   6.052   0.515  0.0883 -0.3724  0.3677
 6775SOL     OW26871   2.023   2.155   3.528 -0.2872 -0.1895  0.1838
 6775SOL    HW226872   2.030   2.249   3.512 -1.4777 -0.0507  0.3456
 6775SOL    HW326873   2.106   2.131   3.570  0.1550  0.7174 -0.1503
 6775SOL    MW426874   2.035   2.164   3.532 -0.3859 -0.0515  0.1611
 6776SOL     OW26875   0.159   0.797   0.880  0.2947  0.1537  0.3295
 6776SOL    HW226876   0.121   0.808   0.967 -1.5360 -0.4133 -0.3556
 6776SOL    HW326877   0.170   0.703   0.869 -2.0106 -0.0292 -1.0133
 6776SOL    MW426878   0.156   0.786   0.890 -0.2510  0.0547  0.0619
 6777SOL     OW26879   4.288   5.458   0.046 -0.4070 -0.3445 -0.5576
 6777SOL    HW226880   4.326   5.535   0.088 -2.5155  1.5721 -1.9229
 6777SOL    HW326881   4.309   5.386   0.105 -0.7911  1.7147  2.3195
 6777SOL    MW426882   4.296   5.459   0.060 -0.7359  0.1800 -0.3581
 6778SOL     OW26883   6.306   0.153   1.475 -0.5068 -0.5084 -0.7673
 6778SOL    HW226884   6.371   0.191   1.415  0.9054  1.5892  1.8383
 6778SOL    HW326885   6.358   0.101   1.536 -1.1112  1.4410  1.5546
 6778SOL    MW426886   6.322   0.151   1.475 -0.4002  0.0255 -0.1172
 6779SOL     OW26887   5.895   2.385   5.411 -0.3442 -0.7015 -0.1559
 6779SOL    HW226888   5.971   2.432   5.445 -0.9375  0.6304 -0.5813
 6779SOL    HW326889   5.820   2.428   5.453 -1.0204  0.1405 -2.1104
 6779SOL    MW426890   5.895   2.397   5.421 -0.5117 -0.4146 -0.4699
 6780SOL     OW26891   4.337   0.483   5.531 -0.1508 -0.5143 -0.1947
 6780SOL    HW226892   4.365   0.536   5.605  2.6249 -0.3180 -1.2848
 6780SOL    HW326893   4.340   0.393   5.562 -2.0461 -0.3057  0.7769
 6780SOL    MW426894   4.341   0.478   5.545 -0.0346 -0.4609 -0.2103
 6781SOL     OW26895   3.816   0.948   0.674  0.2399 -0.1263  0.5909
 6781SOL    HW226896   3.784   0.952   0.764 -2.3083 -0.7022 -0.2053
 6781SOL    HW326897   3.843   0.857   0.662 -3.0842 -1.1545 -0.2422
 6781SOL    MW426898   3.815   0.937   0.684 -0.5349 -0.3380  0.3759
 6782SOL     OW26899   3.341   0.740   5.575 -0.5389 -0.4808  0.2932
 6782SOL    HW226900   3.391   0.797   5.517  3.2946 -0.9306  2.8089
 6782SOL    HW326901   3.283   0.799   5.623 -1.9656  0.1937 -2.1177
 6782SOL    MW426902   3.340   0.755   5.574 -0.2213 -0.4512  0.3070
 6783SOL     OW26903   1.820   5.647   5.194 -0.0300 -0.1702 -0.4125
 6783SOL    HW226904   1.832   5.729   5.243  0.2311 -0.0453 -0.6836
 6783SOL    HW326905   1.727   5.647   5.172  0.0352  0.2293 -0.7130
 6783SOL    MW426906   1.809   5.658   5.198  0.0130 -0.1010 -0.4879
 6784SOL     OW26907   3.263   2.656   5.048 -0.3945 -0.2106 -0.3705
 6784SOL    HW226908   3.328   2.692   4.988 -0.8987  0.2197 -0.6702
 6784SOL    HW326909   3.289   2.689   5.134 -0.1463 -0.1418 -0.4710
 6784SOL    MW426910   3.275   2.665   5.051 -0.4282 -0.1448 -0.4233
 6785SOL     OW26911   6.009   2.256   3.084  0.8265 -0.2019 -0.6346
 6785SOL    HW226912   6.078   2.320   3.102  2.0835 -0.3572 -4.2132
 6785SOL    HW326913   6.056   2.175   3.063 -0.6889 -1.8075  1.6267
 6785SOL    MW426914   6.024   2.254   3.084  0.7924 -0.4342 -0.8084
 6786SOL     OW26915   5.983   5.672   2.804 -0.5057 -0.3222  0.6303
 6786SOL    HW226916   6.052   5.735   2.827 -0.3561 -0.8424  1.6649
 6786SOL    HW326917   5.902   5.716   2.828 -0.6847  0.7547 -1.6201
 6786SOL    MW426918   5.982   5.686   2.810 -0.5096 -0.2488  0.4699
 6787SOL     OW26919   3.294   3.866   5.770  0.1246 -0.2238 -0.4760
 6787SOL    HW226920   3.203   3.836   5.765  0.6595 -1.7964 -2.4502
 6787SOL    HW326921   3.344   3.787   5.790  1.0505  0.6814  0.9072
 6787SOL    MW426922   3.289   3.851   5.772  0.3173 -0.3118 -0.5540
 6788SOL     OW26923   4.085   0.403   2.192 -0.0838 -0.4296 -0.0555
 6788SOL    HW226924   4.100   0.460   2.117 -2.3015  0.5206  0.1596
 6788SOL    HW326925   4.038   0.457   2.255 -0.8652 -2.0363  0.8188
 6788SOL    MW426926   4.081   0.417   2.190 -0.4795 -0.5162  0.0882
 6789SOL     OW26927   4.020   2.655   2.321 -0.3454  0.0800  0.0018
 6789SOL    HW226928   4.052   2.727   2.266 -0.4460  0.4713  0.4513
 6789SOL    HW326929   4.072   2.579   2.293  0.3655  0.5134  0.1075
 6789SOL    MW426930   4.031   2.655   2.310 -0.2649  0.1888  0.0750
 6790SOL     OW26931   0.693   2.702   6.254  0.2654  0.1640 -0.2118
 6790SOL    HW226932   0.625   2.722   6.318  1.8058  1.0363  1.2653
 6790SOL    HW326933   0.668   2.750   6.175  0.3953  2.5620  1.1111
 6790SOL    MW426934   0.681   2.711   6.252  0.4858  0.5955  0.1576
 6791SOL     OW26935   4.458   2.739   6.284  0.0024  0.1123 -0.3162
 6791SOL    HW226936   4.516   2.684   6.232 -2.0396 -1.5412 -1.0196
 6791SOL    HW326937   4.370   2.712   6.257 -1.1308  3.0681  0.0574
 6791SOL    MW426938   4.454   2.728   6.273 -0.4165  0.2841 -0.3597
 6792SOL     OW26939   0.295   5.943   0.279  0.0880 -0.2154  0.1226
 6792SOL    HW226940   0.356   5.930   0.207  0.4494  2.3933 -0.1185
 6792SOL    HW326941   0.346   5.990   0.345 -1.1633  0.4361  0.6516
 6792SOL    MW426942   0.310   5.948   0.278 -0.0294  0.2148  0.1606
 6793SOL     OW26943   6.194   6.380   4.003 -0.1550 -0.6643 -0.2382
 6793SOL    HW226944   6.289   6.392   4.007 -0.2637  1.3131 -1.8976
 6793SOL    HW326945   6.161   6.427   4.080  0.1462 -0.1161 -0.4354
 6793SOL    MW426946   6.202   6.388   4.013 -0.1296 -0.3311 -0.4832
 6794SOL     OW26947   1.063   2.549   0.910  0.3230  0.0376 -0.1545
 6794SOL    HW226948   1.059   2.561   0.815  2.7562  1.1105 -0.2059
 6794SOL    HW326949   1.104   2.464   0.922 -0.1757 -0.1915 -0.0427
 6794SOL    MW426950   1.068   2.539   0.899  0.5782  0.1489 -0.1465
 6795SOL     OW26951   2.266   0.923   0.182 -0.0684 -0.0815 -0.1311
 6795SOL    HW226952   2.202   0.860   0.218 -1.8051  3.8667  4.8640
 6795SOL    HW326953   2.212   0.993   0.145  1.5041  1.1582 -0.1791
 6795SOL    MW426954   2.250   0.924   0.182 -0.0901  0.6030  0.5216
 6796SOL     OW26955   3.019   6.409   0.701  0.3768 -0.0293 -0.0614
 6796SOL    HW226956   3.016   6.440   0.611  1.8521 -1.1849 -0.5591
 6796SOL    HW326957   2.928   6.402   0.728 -0.0898  0.1667 -1.5249
 6796SOL    MW426958   3.007   6.412   0.693  0.5099 -0.1559 -0.3202
 6797SOL     OW26959   1.409   1.919   1.755 -0.5689 -0.7664  0.0707
 6797SOL    HW226960   1.465   1.910   1.678 -1.2921  2.4679 -0.9728
 6797SOL    HW326961   1.320   1.902   1.723 -0.8322  0.2232  0.2418
 6797SOL    MW426962   1.405   1.916   1.741 -0.6990 -0.2091 -0.0444
 6798SOL     OW26963   5.196   4.046   2.217 -0.1543 -0.8387 -0.0330
 6798SOL    HW226964   5.107   4.013   2.229 -0.2764 -0.0230  1.5344
 6798SOL    HW326965   5.202   4.122   2.274  1.8108 -1.3504  0.5483
 6798SOL    MW426966   5.185   4.051   2.226  0.0889 -0.7986  0.2505
 6799SOL     OW26967   1.088   1.171   5.964  0.1843  0.3606 -0.0569
 6799SOL    HW226968   1.005   1.219   5.973  0.5824  1.1442 -0.4281
 6799SOL    HW326969   1.113   1.151   6.054 -0.0288  0.7927  0.1040
 6799SOL    MW426970   1.080   1.175   5.977  0.2087  0.5210 -0.0847
 6800SOL     OW26971   2.245   4.817   1.357 -0.8868  0.6123 -0.2737
 6800SOL    HW226972   2.297   4.784   1.430 -1.1359 -0.0182 -0.3742
 6800SOL    HW326973   2.310   4.850   1.295 -0.5986 -0.1347 -0.3848
 6800SOL    MW426974   2.261   4.817   1.358 -0.8816  0.4305 -0.3016
 6801SOL     OW26975   4.207   4.436   4.557 -0.2608  0.0340  0.1979
 6801SOL    HW226976   4.291   4.396   4.579 -0.5393 -0.2569  0.7421
 6801SOL    HW326977   4.157   4.366   4.515  0.0370  0.4141 -0.8242
 6801SOL    MW426978   4.211   4.422   4.554 -0.2583  0.0458  0.1349
 6802SOL     OW26979   0.770   1.690   5.440 -0.1744  0.2930 -0.6970
 6802SOL    HW226980   0.820   1.710   5.362  1.4583  1.5055  0.5896
 6802SOL    HW326981   0.808   1.610   5.474  0.0204  0.4984 -0.4265
 6802SOL    MW426982   0.781   1.682   5.434  0.0667  0.4801 -0.4915
 6803SOL     OW26983   5.851   2.472   1.182  0.2726  0.6884  0.2262
 6803SOL    HW226984   5.873   2.426   1.101  0.4493  1.1101  0.0280
 6803SOL    HW326985   5.904   2.430   1.249 -0.1814  0.0617  0.2023
 6803SOL    MW426986   5.860   2.460   1.180  0.2360  0.6614  0.1969
 6804SOL     OW26987   6.196   3.934   4.087  0.8301 -0.3759 -0.2320
 6804SOL    HW226988   6.183   3.974   4.001 -1.6492 -0.9153 -0.1662
 6804SOL    HW326989   6.268   3.873   4.074 -0.1636 -1.2283 -2.2372
 6804SOL    MW426990   6.204   3.931   4.074  0.3719 -0.5596 -0.4879
 6805SOL     OW26991   0.299   1.892   2.863 -0.1496 -0.0046  0.6885
 6805SOL    HW226992   0.339   1.810   2.893 -0.0448 -0.1264  0.2250
 6805SOL    HW326993   0.216   1.865   2.824  1.0957 -0.2602 -2.0019
 6805SOL    MW426994   0.294   1.878   2.862  0.0285 -0.0544  0.2724
 6806SOL     OW26995   2.189   2.251   6.149  0.0796 -0.3017  0.5783
 6806SOL    HW226996   2.141   2.215   6.075 -1.2927  0.6690  0.9657
 6806SOL    HW326997   2.277   2.267   6.114 -0.0732 -1.3370 -0.3712
 6806SOL    MW426998   2.194   2.248   6.134 -0.1217 -0.3102  0.5042
 6807SOL     OW26999   1.229   3.146   0.705  0.0180 -0.3162  0.8747
 6807SOL    HW227000   1.169   3.103   0.644  0.5671 -1.8232  1.3541
 6807SOL    HW327001   1.192   3.130   0.792  0.1324  0.3604  1.0581
 6807SOL    MW427002   1.216   3.138   0.708  0.1055 -0.4257  0.9621
 6808SOL     OW27003   0.352   4.543   3.372  0.2771  0.6184 -0.1156
 6808SOL    HW227004   0.363   4.455   3.337 -0.5012  0.6935 -0.5627
 6808SOL    HW327005   0.396   4.540   3.457 -2.5702 -1.2348  1.4863
 6808SOL    MW427006   0.359   4.531   3.379 -0.2013  0.3838  0.0368
 6809SOL     OW27007   3.740   4.532   0.282  0.2540  0.6026 -0.0299
 6809SOL    HW227008   3.765   4.591   0.211  2.8419 -0.0256  0.2588
 6809SOL    HW327009   3.773   4.447   0.255 -0.2371  0.0160  1.1739
 6809SOL    MW427010   3.748   4.529   0.269  0.5307  0.4423  0.1670
 6810SOL     OW27011   0.683   5.598   5.798 -0.4032  0.0934  0.0179
 6810SOL    HW227012   0.716   5.591   5.709 -1.2413  2.2530 -0.5304
 6810SOL    HW327013   0.757   5.576   5.854 -0.0810 -2.0900 -1.1677
 6810SOL    MW427014   0.697   5.594   5.794 -0.4713  0.0903 -0.2109
 6811SOL     OW27015   4.488   2.410   5.380  0.0921  0.0519 -0.2547
 6811SOL    HW227016   4.464   2.344   5.315  1.1239 -1.1119  0.5034
 6811SOL    HW327017   4.576   2.385   5.409  0.1450  1.2465  0.7032
 6811SOL    MW427018   4.496   2.398   5.375  0.2352  0.0560 -0.0283
 6812SOL     OW27019   1.255   5.972   2.709  0.1830 -0.6761 -0.1701
 6812SOL    HW227020   1.289   6.015   2.787  1.7752 -0.0680 -1.1462
 6812SOL    HW327021   1.320   5.990   2.641 -2.2191  0.7716 -2.2579
 6812SOL    MW427022   1.268   5.980   2.710  0.0761 -0.4048 -0.5743
 6813SOL     OW27023   3.050   2.363   3.926 -0.6264 -0.3335 -0.6237
 6813SOL    HW227024   3.124   2.305   3.942 -2.0888 -2.0455  0.1725
 6813SOL    HW327025   3.077   2.447   3.965  1.3061 -0.5706 -1.3397
 6813SOL    MW427026   3.064   2.367   3.933 -0.5644 -0.5907 -0.6131
 6814SOL     OW27027   1.819   5.015   1.743  0.1457  1.0362 -0.2711
 6814SOL    HW227028   1.832   5.104   1.709  1.6096  1.3577  1.0217
 6814SOL    HW327029   1.821   5.026   1.838 -0.4656 -0.2885 -0.0893
 6814SOL    MW427030   1.821   5.028   1.751  0.2582  0.9038 -0.0765
 6815SOL     OW27031   4.802   0.304   5.049  1.2284 -0.5027  0.0185
 6815SOL    HW227032   4.837   0.221   5.017  1.8091  0.3284 -1.6323
 6815SOL    HW327033   4.851   0.322   5.130 -0.0084 -2.4831  1.2995
 6815SOL    MW427034   4.813   0.295   5.056  1.1418 -0.6544 -0.0303
 6816SOL     OW27035   2.874   4.033   0.058  0.8697 -0.6258  0.0171
 6816SOL    HW227036   2.833   3.995  -0.020 -0.1244 -1.3782  0.8729
 6816SOL    HW327037   2.899   3.957   0.111  0.9506 -0.1197  0.7162
 6816SOL    MW427038   2.872   4.018   0.054  0.7492 -0.6583  0.2222
 6817SOL     OW27039   5.730   2.190   3.964  0.2498 -0.6183  0.3219
 6817SOL    HW227040   5.788   2.135   3.911  2.2151 -0.2844  2.0405
 6817SOL    HW327041   5.779   2.207   4.044 -1.5001  1.2348  1.0718
 6817SOL    MW427042   5.744   2.185   3.967  0.2782 -0.3298  0.6476
 6818SOL     OW27043   4.337   3.445   2.536 -0.0246 -0.2040 -0.4236
 6818SOL    HW227044   4.353   3.538   2.547 -0.6786 -0.3180  2.0889
 6818SOL    HW327045   4.424   3.406   2.528  0.2258  0.6753 -2.8246
 6818SOL    MW427046   4.351   3.452   2.536 -0.0779 -0.1030 -0.4089
 6819SOL     OW27047   5.442   3.939   4.916 -0.0587 -0.2975 -0.1331
 6819SOL    HW227048   5.442   4.031   4.892 -1.2234 -0.4726 -0.8818
 6819SOL    HW327049   5.535   3.916   4.922  0.2605  1.1046  0.8915
 6819SOL    MW427050   5.455   3.948   4.914 -0.1702 -0.1356 -0.0967
 6820SOL     OW27051   2.870   4.475   5.930 -0.0831 -0.1323  0.8502
 6820SOL    HW227052   2.827   4.559   5.945  3.2457  1.9472 -0.0636
 6820SOL    HW327053   2.819   4.433   5.861 -0.6560  2.1969 -0.2416
 6820SOL    MW427054   2.858   4.480   5.923  0.2805  0.4494  0.5856
 6821SOL     OW27055   3.630   1.601   5.139  0.5449 -0.0912  0.1836
 6821SOL    HW227056   3.693   1.547   5.092 -1.0436 -2.3223  0.4838
 6821SOL    HW327057   3.638   1.574   5.230 -1.4931 -1.2226  0.1009
 6821SOL    MW427058   3.639   1.591   5.145  0.0664 -0.5348  0.2123
 6822SOL     OW27059   6.064   2.023   6.420  0.1865 -0.3115 -0.2153
 6822SOL    HW227060   6.087   2.040   6.328  1.0311 -0.4130 -0.0316
 6822SOL    HW327061   6.059   2.110   6.459  0.7944 -0.3008 -0.1420
 6822SOL    MW427062   6.067   2.037   6.413  0.3781 -0.3235 -0.1814
 6823SOL     OW27063   1.124   2.996   5.430  0.1517 -0.0964  0.4610
 6823SOL    HW227064   1.070   3.072   5.452  0.4972  0.2020  0.2912
 6823SOL    HW327065   1.214   3.027   5.441  0.2965 -0.4368  0.2388
 6823SOL    MW427066   1.129   3.010   5.434  0.2164 -0.1020  0.4093
 6824SOL     OW27067   5.365   2.584   1.414 -0.5397  0.0004 -0.1200
 6824SOL    HW227068   5.356   2.648   1.344 -1.2214  1.1564  0.9768
 6824SOL    HW327069   5.377   2.637   1.493  0.2269 -1.2629  0.6408
 6824SOL    MW427070   5.366   2.599   1.415 -0.5285 -0.0137  0.1251
 6825SOL     OW27071   5.330   3.975   1.971  0.4507  0.7694  0.7352
 6825SOL    HW227072   5.371   4.045   1.919 -0.4885  1.9415  1.5196
 6825SOL    HW327073   5.301   4.019   2.052 -3.4208  0.3625 -0.2248
 6825SOL    MW427074   5.332   3.990   1.975 -0.1840  0.8704  0.7120
 6826SOL     OW27075   1.923   1.646   2.045 -0.5888 -0.0023  0.1228
 6826SOL    HW227076   1.860   1.713   2.071 -0.5017  0.0116  0.3049
 6826SOL    HW327077   1.957   1.676   1.961  0.4598  0.9137  0.8317
 6826SOL    MW427078   1.919   1.659   2.037 -0.4390  0.1204  0.2403
 6827SOL     OW27079   4.840   6.024   3.891 -0.8626 -0.5634  0.2017
 6827SOL    HW227080   4.851   6.096   3.828  1.5086  0.1412  1.3219
 6827SOL    HW327081   4.828   5.946   3.836 -0.7140  0.2745 -1.0754
 6827SOL    MW427082   4.840   6.023   3.875 -0.5302 -0.3599  0.1810
 6828SOL     OW27083   6.186   6.162   5.316 -0.9012 -0.7086  0.0367
 6828SOL    HW227084   6.159   6.175   5.407 -1.8932 -0.7732 -0.2282
 6828SOL    HW327085   6.228   6.244   5.291 -1.8633 -0.1704  0.1404
 6828SOL    MW427086   6.188   6.174   5.325 -1.1590 -0.6461  0.0154
 6829SOL     OW27087   5.696   0.856   4.067 -0.4557 -0.9570 -0.2320
 6829SOL    HW227088   5.772   0.798   4.068  1.1935  1.0792  1.2127
 6829SOL    HW327089   5.728   0.937   4.027 -0.7190  1.1906  3.4169
 6829SOL    MW427090   5.710   0.859   4.062 -0.2729 -0.4050  0.4400
 6830SOL     OW27091   4.139   4.287   2.927  0.2005 -0.0046  0.0405
 6830SOL    HW227092   4.074   4.333   2.874 -1.4629 -1.7579  0.4326
 6830SOL    HW327093   4.216   4.280   2.871 -0.9660 -0.3975 -1.5821
 6830SOL    MW427094   4.141   4.292   2.913 -0.1728 -0.2877 -0.1219
 6831SOL     OW27095   5.033   1.817   2.457 -0.4345  0.1650 -0.2875
 6831SOL    HW227096   5.078   1.740   2.421 -0.1764  0.4560 -0.6074
 6831SOL    HW327097   5.002   1.864   2.379 -1.4110 -0.0923 -0.0669
 6831SOL    MW427098   5.035   1.813   2.442 -0.5293  0.1694 -0.3006
 6832SOL     OW27099   5.985   0.968   5.700  0.2334 -0.5216  0.8685
 6832SOL    HW227100   6.020   0.999   5.783 -0.1981 -0.6241  1.0936
 6832SOL    HW327101   5.914   1.029   5.680  1.7569  0.8921 -0.5743
 6832SOL    MW427102   5.980   0.980   5.708  0.3775 -0.3486  0.7079
 6833SOL     OW27103   1.391   1.313   3.320 -0.0327  0.2167  0.0941
 6833SOL    HW227104   1.298   1.305   3.340 -0.8382  2.3017 -2.2687
 6833SOL    HW327105   1.400   1.272   3.234  1.6518 -1.5362  1.0408
 6833SOL    MW427106   1.380   1.307   3.311  0.0833  0.2605 -0.0927
 6834SOL     OW27107   5.241   5.206   0.505 -0.4325  0.0224 -0.2711
 6834SOL    HW227108   5.209   5.247   0.424 -1.6974 -0.8609 -0.2587
 6834SOL    HW327109   5.175   5.227   0.570  0.0372 -0.1673  0.2706
 6834SOL    MW427110   5.228   5.214   0.503 -0.5374 -0.1192 -0.1980
 6835SOL     OW27111   4.949   1.974   2.236  0.3806 -0.5280  0.1428
 6835SOL    HW227112   4.937   1.935   2.149 -0.0962 -0.4502  0.1737
 6835SOL    HW327113   5.007   2.048   2.221 -0.3722 -0.0078 -0.2491
 6835SOL    MW427114   4.955   1.979   2.222  0.2184 -0.4491  0.0952
 6836SOL     OW27115   3.050   1.899   1.786 -0.6333 -0.2825 -0.4188
 6836SOL    HW227116   3.117   1.847   1.743  0.4901 -0.0506  0.9765
 6836SOL    HW327117   2.996   1.933   1.715  0.9489 -0.1627 -1.6030
 6836SOL    MW427118   3.051   1.897   1.771 -0.2763 -0.2361 -0.3909
 6837SOL     OW27119   3.901   5.374   4.018  0.0758  0.1683  0.1457
 6837SOL    HW227120   3.852   5.409   4.092 -1.2126 -0.9551 -0.1547
 6837SOL    HW327121   3.985   5.347   4.056 -1.2052 -2.0248  1.5946
 6837SOL    MW427122   3.906   5.375   4.033 -0.2632 -0.2693  0.2973
 6838SOL     OW27123   2.549   0.359   2.973 -0.0730 -0.4596  0.3555
 6838SOL    HW227124   2.626   0.411   2.951 -0.9825  0.8018  0.0096
 6838SOL    HW327125   2.498   0.356   2.892 -0.9468 -0.2609  0.8850
 6838SOL    MW427126   2.552   0.365   2.959 -0.3083 -0.2669  0.3797
 6839SOL     OW27127   0.068   2.082   4.234 -0.9788 -0.2790 -0.9794
 6839SOL    HW227128   0.147   2.083   4.180  1.4733  1.1548  2.2580
 6839SOL    HW327129   0.058   1.991   4.261 -0.3501 -0.4563 -1.3242
 6839SOL    MW427130   0.077   2.070   4.231 -0.5723 -0.1132 -0.5978
 6840SOL     OW27131   2.804   5.580   3.158 -0.0239 -0.3971 -0.3412
 6840SOL    HW227132   2.794   5.668   3.196 -2.9770 -1.5086  1.7866
 6840SOL    HW327133   2.843   5.528   3.228 -2.6959 -1.7819  0.2502
 6840SOL    MW427134   2.808   5.585   3.172 -0.7660 -0.7265  0.0175
 6841SOL     OW27135   5.087   1.715   4.454 -0.0589  0.2388 -0.1646
 6841SOL    HW227136   5.150   1.650   4.485 -2.2923 -2.5306 -0.9876
 6841SOL    HW327137   5.005   1.692   4.497 -0.9353  2.7168 -0.3405
 6841SOL    MW427138   5.085   1.704   4.463 -0.4692  0.2004 -0.2964
 6842SOL     OW27139   2.521   3.289   1.648 -0.2120 -0.7615 -0.3351
 6842SOL    HW227140   2.597   3.346   1.642 -0.1534 -0.7020  0.7452
 6842SOL    HW327141   2.460   3.336   1.705 -0.4653 -1.4415 -0.0316
 6842SOL    MW427142   2.523   3.303   1.655 -0.2377 -0.8433 -0.1525
 6843SOL     OW27143   1.340   2.646   0.372  0.2755  0.2424  0.0498
 6843SOL    HW227144   1.380   2.560   0.360  3.3343  1.4407  0.6813
 6843SOL    HW327145   1.368   2.697   0.296  0.2218  1.2240  0.6628
 6843SOL    MW427146   1.349   2.642   0.360  0.6720  0.5300  0.2140
 6844SOL     OW27147   4.070   6.219   1.959  0.6693 -0.3863 -0.2453
 6844SOL    HW227148   4.154   6.178   1.982  0.6915  0.3672  1.0999
 6844SOL    HW327149   4.007   6.182   2.021  0.0652 -0.6984 -1.0351
 6844SOL    MW427150   4.073   6.209   1.970  0.5925 -0.3281 -0.1720
 6845SOL     OW27151   1.236   0.532   6.231  0.0958  0.4712 -0.0226
 6845SOL    HW227152   1.242   0.559   6.139  0.8666 -1.6952 -0.6597
 6845SOL    HW327153   1.200   0.444   6.228 -0.3803  0.5636  1.8169
 6845SOL    MW427154   1.232   0.524   6.218  0.1347  0.1976  0.1360
 6846SOL     OW27155   1.022   0.520   2.569 -0.0708 -0.6774 -0.6125
 6846SOL    HW227156   1.095   0.506   2.630 -0.1164  0.5961 -0.2264
 6846SOL    HW327157   1.007   0.435   2.529  0.3811 -1.4066  0.7030
 6846SOL    MW427158   1.030   0.507   2.572 -0.0172 -0.6056 -0.3880
 6847SOL     OW27159   4.155   6.097   2.573  0.0612  0.2743  0.4363
 6847SOL    HW227160   4.145   6.181   2.618  2.2153  0.4341  0.7232
 6847SOL    HW327161   4.193   6.039   2.639 -1.0719 -0.8674  0.1344
 6847SOL    MW427162   4.159   6.100   2.587  0.1959  0.1448  0.4343
 6848SOL     OW27163   6.164   0.860   3.798  0.0149 -0.9010  0.0288
 6848SOL    HW227164   6.129   0.771   3.796 -0.2293 -0.8413  1.1082
 6848SOL    HW327165   6.258   0.849   3.805  0.0655 -1.0669 -0.8272
 6848SOL    MW427166   6.172   0.847   3.799 -0.0107 -0.9150  0.0583
 6849SOL     OW27167   4.662   6.422   2.217  0.1092 -0.2952  0.1480
 6849SOL    HW227168   4.610   6.387   2.289 -2.2379 -0.6676 -1.6165
 6849SOL    HW327169   4.648   6.516   2.220  0.8979 -0.1861  0.7898
 6849SOL    MW427170   4.653   6.430   2.227 -0.0964 -0.3300 -0.0001
 6850SOL     OW27171   1.180   4.673   4.529 -0.1266  0.0362  0.8366
 6850SOL    HW227172   1.091   4.707   4.519  0.3462  0.6729 -1.9857
 6850SOL    HW327173   1.224   4.736   4.585 -0.4074  1.9925 -1.0173
 6850SOL    MW427174   1.174   4.686   4.535 -0.1013  0.3783  0.2196
 6851SOL     OW27175   2.879   5.946   0.833 -0.3022 -0.2221 -0.3242
 6851SOL    HW227176   2.917   5.875   0.885  0.2572  0.7760  0.6753
 6851SOL    HW327177   2.954   6.000   0.810 -1.0431  1.6629  1.4655
 6851SOL    MW427178   2.894   5.943   0.837 -0.3261  0.1583  0.0438
 6852SOL     OW27179   2.199   1.550   1.115  0.4612  0.7155 -0.5349
 6852SOL    HW227180   2.265   1.618   1.102  1.1285 -0.2616 -2.7726
 6852SOL    HW327181   2.249   1.475   1.149  0.3638  0.2795 -1.3270
 6852SOL    MW427182   2.214   1.549   1.118  0.5364  0.5291 -0.9347
 6853SOL     OW27183   3.358   2.148   4.407  0.6672 -0.4425 -0.1459
 6853SOL    HW227184   3.291   2.149   4.339 -0.0839 -0.6654  0.5822
 6853SOL    HW327185   3.409   2.069   4.390  0.1062 -0.8156 -0.0878
 6853SOL    MW427186   3.356   2.138   4.395  0.4941 -0.5212 -0.0422
 6854SOL     OW27187   0.911   2.766   2.671  0.1287  0.4966 -0.0193
 6854SOL    HW227188   0.950   2.815   2.744 -1.3756 -0.6619  1.6789
 6854SOL    HW327189   0.974   2.697   2.652  0.7452  1.0786 -0.1324
 6854SOL    MW427190   0.924   2.764   2.678  0.0116  0.4206  0.1899
 6855SOL     OW27191   1.557   2.699   1.106  0.0771  0.0375 -0.0095
 6855SOL    HW227192   1.623   2.769   1.109  1.3751 -1.0933 -1.0916
 6855SOL    HW327193   1.489   2.733   1.048 -0.6770  1.4918  1.6450
 6855SOL    MW427194   1.557   2.713   1.099  0.1489  0.0802  0.0660
 6856SOL     OW27195   4.042   1.452   4.625 -0.1319  0.1135  0.4277
 6856SOL    HW227196   3.963   1.453   4.572  0.2943 -1.4561 -0.3012
 6856SOL    HW327197   4.111   1.483   4.566  0.0192  0.2625  0.6800
 6856SOL    MW427198   4.041   1.456   4.611 -0.0557 -0.0739  0.3648
 6857SOL     OW27199   0.959   1.692   2.348  0.6627 -0.1549  0.7752
 6857SOL    HW227200   0.884   1.702   2.289  0.5523 -0.5225  0.8490
 6857SOL    HW327201   1.033   1.728   2.299  0.4302  0.2467  0.7173
 6857SOL    MW427202   0.959   1.698   2.334  0.6175 -0.1504  0.7773
 6858SOL     OW27203   2.714   2.045   2.821 -0.2204  0.2192 -0.2157
 6858SOL    HW227204   2.752   2.116   2.871 -0.4309  1.1587 -1.3509
 6858SOL    HW327205   2.718   1.969   2.880  1.4262  0.7821  0.4416
 6858SOL    MW427206   2.719   2.044   2.836 -0.0310  0.4175 -0.2787
 6859SOL     OW27207   3.930   2.831   0.791  0.1789  0.4241 -0.1102
 6859SOL    HW227208   3.959   2.921   0.806 -2.4760  1.4285 -0.2853
 6859SOL    HW327209   3.957   2.811   0.702  1.0169  0.9539  0.0190
 6859SOL    MW427210   3.937   2.840   0.781 -0.0608  0.6265 -0.1162
 6860SOL     OW27211   4.252   2.872   4.276 -0.4221 -0.0488 -0.0925
 6860SOL    HW227212   4.300   2.914   4.347  0.0323 -0.8022  0.0458
 6860SOL    HW327213   4.160   2.884   4.299 -0.2791 -0.6400  0.8374
 6860SOL    MW427214   4.246   2.879   4.288 -0.3433 -0.2262  0.0485
 6861SOL     OW27215   3.733   0.625   3.462 -0.0348  0.1399  0.1712
 6861SOL    HW227216   3.828   0.621   3.477 -0.0754 -0.7542  0.2287
 6861SOL    HW327217   3.720   0.709   3.418  0.9956 -0.3792 -1.2118
 6861SOL    MW427218   3.744   0.635   3.458  0.0958 -0.0465 -0.0037
 6862SOL     OW27219   5.018   5.870   0.603  0.5429 -0.3040 -0.4596
 6862SOL    HW227220   5.020   5.781   0.568  4.5438 -0.0801 -1.3509
 6862SOL    HW327221   5.027   5.858   0.698 -2.0273 -0.7904 -0.2105
 6862SOL    MW427222   5.020   5.857   0.611  0.7317 -0.3387 -0.5443
 6863SOL     OW27223   2.494   2.193   3.471  0.4846  0.0844 -0.3887
 6863SOL    HW227224   2.492   2.137   3.393 -1.6073 -0.2075 -0.1810
 6863SOL    HW327225   2.410   2.177   3.514  0.3639  2.4127  0.3843
 6863SOL    MW427226   2.483   2.183   3.466  0.1926  0.3531 -0.2593
 6864SOL     OW27227   2.993   1.443   5.720  0.2534 -0.0333 -0.0232
 6864SOL    HW227228   2.985   1.455   5.625  0.6104  2.1603  0.1619
 6864SOL    HW327229   2.908   1.411   5.748 -0.1791  0.2489 -0.9756
 6864SOL    MW427230   2.981   1.440   5.711  0.2434  0.2933 -0.1244
 6865SOL     OW27231   3.704   3.082   0.561  0.0787  0.0407  0.0166
 6865SOL    HW227232   3.798   3.095   0.560  0.2283 -0.9704 -0.2987
 6865SOL    HW327233   3.690   3.007   0.618 -0.5797  0.4614  0.4206
 6865SOL    MW427234   3.714   3.074   0.568  0.0115 -0.0372  0.0283
 6866SOL     OW27235   1.685   1.539   6.242  0.0041 -0.1886 -0.4544
 6866SOL    HW227236   1.738   1.522   6.164  1.6442  3.5117 -0.3642
 6866SOL    HW327237   1.595   1.542   6.209  0.2374 -2.2291 -1.4478
 6866SOL    MW427238   1.680   1.538   6.227  0.2513  0.0304 -0.5736
 6867SOL     OW27239   1.399   3.677   5.052 -0.1260 -1.1107 -0.2121
 6867SOL    HW227240   1.427   3.713   5.136  1.3326 -3.7795  0.5391
 6867SOL    HW327241   1.304   3.687   5.053 -0.0318  0.0150  1.1769
 6867SOL    MW427242   1.390   3.683   5.063  0.0789 -1.3143  0.0703
 6868SOL     OW27243   2.278   0.632   3.430 -0.0849 -0.0155 -0.1552
 6868SOL    HW227244   2.350   0.591   3.477  0.8331 -0.0700 -1.5348
 6868SOL    HW327245   2.308   0.722   3.415 -0.4924  0.0880 -0.3583
 6868SOL    MW427246   2.291   0.639   3.434 -0.0175 -0.0090 -0.3640
 6869SOL     OW27247   6.415   5.280   1.348  0.0259 -0.1017 -0.1236
 6869SOL    HW227248   6.488   5.307   1.403  0.1782  0.2450 -0.4891
 6869SOL    HW327249   6.414   5.184   1.354  0.1427 -0.0742  0.3450
 6869SOL    MW427250   6.424   5.271   1.356  0.0614 -0.0523 -0.1100
 6870SOL     OW27251   1.357   0.952   3.892  0.0628 -0.2665  0.4999
 6870SOL    HW227252   1.420   0.898   3.844  1.3378  1.1277  0.5164
 6870SOL    HW327253   1.409   0.992   3.962 -0.6975  1.3641  0.1835
 6870SOL    MW427254   1.372   0.950   3.895  0.1307  0.1326  0.4604
 6871SOL     OW27255   6.290   2.036   1.869  0.1044  0.1220 -0.3170
 6871SOL    HW227256   6.323   1.947   1.884 -1.4736 -0.6920 -1.4077
 6871SOL    HW327257   6.277   2.041   1.775  0.0537  1.4841 -0.2557
 6871SOL    MW427258   6.293   2.025   1.859 -0.1105  0.1943 -0.4528
 6872SOL     OW27259   2.444   2.392   2.661  0.0689 -0.4309  0.2612
 6872SOL    HW227260   2.436   2.380   2.567 -0.0846 -1.3384  0.3800
 6872SOL    HW327261   2.458   2.304   2.695  0.6103 -0.0540  1.0421
 6872SOL    MW427262   2.445   2.379   2.653  0.1201 -0.5009  0.3799
 6873SOL     OW27263   4.151   2.398   3.654 -0.0556 -0.7490 -0.5525
 6873SOL    HW227264   4.117   2.448   3.580 -1.7510 -0.9100  0.0751
 6873SOL    HW327265   4.159   2.462   3.725  0.0910 -0.8900 -0.4409
 6873SOL    MW427266   4.147   2.413   3.653 -0.2599 -0.7888 -0.4549
 6874SOL     OW27267   5.257   2.607   0.582  0.5453 -0.5006  0.0425
 6874SOL    HW227268   5.260   2.644   0.493  1.0986  0.7162  0.5386
 6874SOL    HW327269   5.189   2.539   0.577 -2.0481  1.9037 -0.4817
 6874SOL    MW427270   5.248   2.603   0.569  0.2761 -0.0228  0.0388
 6875SOL     OW27271   2.779   6.264   1.024 -0.1269  0.5116 -0.0788
 6875SOL    HW227272   2.749   6.257   0.934 -2.7213  0.0432  0.7296
 6875SOL    HW327273   2.784   6.358   1.041 -1.6824  0.6419 -0.1594
 6875SOL    MW427274   2.776   6.276   1.015 -0.6744  0.4670  0.0173
 6876SOL     OW27275   4.674   4.511   1.232 -0.4998 -0.1090 -0.1855
 6876SOL    HW227276   4.764   4.482   1.217 -0.8415 -1.2325 -0.1757
 6876SOL    HW327277   4.646   4.463   1.310 -0.3396  2.0481  1.2832
 6876SOL    MW427278   4.682   4.500   1.240 -0.5238  0.0274  0.0096
 6877SOL     OW27279   0.162   5.209   6.066 -0.2771  0.6971 -0.5622
 6877SOL    HW227280   0.182   5.258   5.986  2.5147 -1.3825 -1.3004
 6877SOL    HW327281   0.223   5.244   6.131 -0.7011  0.5869 -0.1003
 6877SOL    MW427282   0.173   5.220   6.064  0.0353  0.4082 -0.5987
 6878SOL     OW27283   0.501   5.554   3.246 -0.3857 -0.2978 -0.7666
 6878SOL    HW227284   0.560   5.480   3.239 -1.3436 -1.1471 -0.1134
 6878SOL    HW327285   0.441   5.544   3.171 -1.8687 -1.4479  0.5165
 6878SOL    MW427286   0.501   5.543   3.235 -0.7078 -0.5616 -0.5111
 6879SOL     OW27287   4.898   5.106   1.399 -0.1152  0.2809  0.4174
 6879SOL    HW227288   4.906   5.172   1.468  0.9761  0.3958  0.1992
 6879SOL    HW327289   4.833   5.044   1.432  2.0599 -0.9809  2.6509
 6879SOL    MW427290   4.891   5.106   1.412  0.3157  0.1296  0.6833
 6880SOL     OW27291   4.683   6.447   0.373 -0.1843 -0.3792 -0.8297
 6880SOL    HW227292   4.697   6.374   0.433 -2.0440  1.1133  1.6245
 6880SOL    HW327293   4.673   6.406   0.287 -0.0568 -2.8746  0.2549
 6880SOL    MW427294   4.684   6.432   0.369 -0.4128 -0.5115 -0.3628
 6881SOL     OW27295   3.239   1.765   1.584  0.2929  0.0416 -0.5079
 6881SOL    HW227296   3.242   1.770   1.489  0.8639  1.4277 -0.4417
 6881SOL    HW327297   3.326   1.793   1.612 -0.2138  0.7271  0.4504
 6881SOL    MW427298   3.251   1.770   1.575  0.3013  0.3150 -0.3728
 6882SOL     OW27299   1.341   4.863   4.055  0.0770 -0.3053  0.0552
 6882SOL    HW227300   1.254   4.895   4.032  0.0143  0.4824  1.3165
 6882SOL    HW327301   1.328   4.814   4.136  0.8799  0.2223  0.5112
 6882SOL    MW427302   1.328   4.860   4.063  0.1747 -0.1317  0.2818
 6883SOL     OW27303   4.982   5.475   0.110 -0.3542 -0.2919  0.4013
 6883SOL    HW227304   4.988   5.485   0.015 -1.3088 -1.2648  0.2224
 6883SOL    HW327305   4.966   5.563   0.142 -1.4702 -0.1507 -0.4746
 6883SOL    MW427306   4.981   5.488   0.101 -0.6274 -0.4016  0.2621
 6884SOL     OW27307   3.113   3.277   5.825 -0.3821 -0.8496  0.6771
 6884SOL    HW227308   3.117   3.256   5.732 -2.8228 -1.1104  0.5523
 6884SOL    HW327309   3.199   3.253   5.859  0.7756 -0.2134 -1.5794
 6884SOL    MW427310   3.125   3.271   5.817 -0.5513 -0.8001  0.3629
 6885SOL     OW27311   0.136   2.754   4.007 -0.5373 -0.1523 -0.5061
 6885SOL    HW227312   0.108   2.745   4.098 -0.4742  1.7829 -0.2527
 6885SOL    HW327313   0.209   2.693   3.998 -0.9478 -0.8257  0.5487
 6885SOL    MW427314   0.142   2.744   4.018 -0.5831  0.0141 -0.3335
 6886SOL     OW27315   2.607   4.284   1.445  0.1775  0.1513  0.7055
 6886SOL    HW227316   2.536   4.336   1.408  1.4411  1.8192  0.4642
 6886SOL    HW327317   2.684   4.310   1.394  0.8674 -2.1193  0.4757
 6886SOL    MW427318   2.608   4.294   1.434  0.4353  0.0718  0.6433
 6887SOL     OW27319   2.236   3.301   5.624  0.3976 -0.2770  0.7345
 6887SOL    HW227320   2.177   3.299   5.699  1.5405 -2.2251  1.6680
 6887SOL    HW327321   2.317   3.339   5.657  0.3695  0.4208  0.0262
 6887SOL    MW427322   2.239   3.305   5.638  0.5447 -0.4419  0.7642
 6888SOL     OW27323   6.187   2.260   2.487 -0.2180  0.2224  0.3060
 6888SOL    HW227324   6.222   2.341   2.526  0.8245  0.2708 -0.6687
 6888SOL    HW327325   6.263   2.219   2.445 -1.2522  0.1126 -1.5519
 6888SOL    MW427326   6.202   2.265   2.487 -0.2169  0.2143 -0.0677
 6889SOL     OW27327   5.509   4.155   2.390  0.7044  0.8461 -0.3774
 6889SOL    HW227328   5.574   4.177   2.457 -0.4515  0.0532  1.0569
 6889SOL    HW327329   5.436   4.215   2.407 -0.3080 -0.4973  0.2141
 6889SOL    MW427330   5.508   4.166   2.401  0.4183  0.5642 -0.1101
 6890SOL     OW27331   3.915   0.571   4.786  0.2631  0.4996  0.3078
 6890SOL    HW227332   3.927   0.578   4.881  0.8840  1.0406  0.1948
 6890SOL    HW327333   3.980   0.631   4.749  0.1644  0.1362 -0.4698
 6890SOL    MW427334   3.925   0.580   4.794  0.3320  0.5230  0.1903
 6891SOL     OW27335   4.936   5.508   3.456  0.2507  0.2121  0.2132
 6891SOL    HW227336   5.026   5.481   3.475  0.4511 -0.0947 -1.0632
 6891SOL    HW327337   4.908   5.556   3.534  1.8634  1.1632  0.2577
 6891SOL    MW427338   4.944   5.511   3.469  0.4899  0.2971  0.0506
 6892SOL     OW27339   3.675   1.141   4.033  0.4332  0.2273  0.7925
 6892SOL    HW227340   3.604   1.100   4.083 -0.4287 -0.1382 -0.6495
 6892SOL    HW327341   3.731   1.068   4.006  1.2432  0.4894  1.7184
 6892SOL    MW427342   3.673   1.126   4.036  0.4263  0.2136  0.7244
 6893SOL     OW27343   5.782   4.211   3.568  0.1554 -0.6843  0.1980
 6893SOL    HW227344   5.722   4.151   3.612 -0.6920 -0.1790 -0.2399
 6893SOL    HW327345   5.869   4.181   3.593 -0.2570 -1.9676  0.1459
 6893SOL    MW427346   5.785   4.199   3.577 -0.0108 -0.7870  0.1334
 6894SOL     OW27347   0.108   5.016   3.141  0.4195 -0.6120 -0.3131
 6894SOL    HW227348   0.019   5.047   3.157  0.8143  0.5128 -0.2342
 6894SOL    HW327349   0.109   4.993   3.048 -0.1234 -1.2277 -0.1721
 6894SOL    MW427350   0.096   5.017   3.131  0.4000 -0.5448 -0.2841
 6895SOL     OW27351   1.645   5.877   2.240  0.4625  0.2328 -0.1722
 6895SOL    HW227352   1.663   5.881   2.146 -0.7382  1.1850 -0.3840
 6895SOL    HW327353   1.703   5.808   2.272  0.6816 -0.3192 -1.6554
 6895SOL    MW427354   1.655   5.869   2.232  0.3330  0.2856 -0.3958
 6896SOL     OW27355   6.268   1.867   3.573  0.6782 -0.1629  0.4875
 6896SOL    HW227356   6.237   1.930   3.507  0.4766  0.5144  1.2157
 6896SOL    HW327357   6.188   1.839   3.618  0.6955 -1.3946 -0.2013
 6896SOL    MW427358   6.253   1.872   3.570  0.6539 -0.2361  0.4927
 6897SOL     OW27359   5.528   6.222   2.454 -0.3398 -0.6667 -0.4733
 6897SOL    HW227360   5.517   6.317   2.455 -2.3095 -0.8253  1.9613
 6897SOL    HW327361   5.445   6.188   2.422 -0.9128 -1.5940  1.7999
 6897SOL    MW427362   5.516   6.230   2.450 -0.6753 -0.8099  0.1478
 6898SOL     OW27363   2.820   1.790   2.466  0.1588 -0.4554  0.9955
 6898SOL    HW227364   2.860   1.818   2.384  1.7828 -1.2005  1.4976
 6898SOL    HW327365   2.834   1.696   2.469 -2.3734 -0.9167  0.8459
 6898SOL    MW427366   2.827   1.782   2.455  0.0390 -0.6146  1.0420
 6899SOL     OW27367   3.305   2.183   0.152 -0.2658 -0.2997 -0.1256
 6899SOL    HW227368   3.386   2.230   0.130 -0.2397 -0.3956 -0.2333
 6899SOL    HW327369   3.317   2.157   0.244  0.1958 -1.0657 -0.3948
 6899SOL    MW427370   3.317   2.186   0.161 -0.2014 -0.4134 -0.1753
 6900SOL     OW27371   6.401   2.668   6.072  0.2804  0.4150  0.6123
 6900SOL    HW227372   6.358   2.721   6.005  0.6887  1.0757  0.8613
 6900SOL    HW327373   6.490   2.655   6.038  0.1851 -0.1171  0.5539
 6900SOL    MW427374   6.407   2.673   6.059  0.3217  0.4320  0.6374
 6901SOL     OW27375   4.321   4.187   2.745 -0.2005  0.0380  0.2427
 6901SOL    HW227376   4.402   4.229   2.715  0.6117 -1.1058  0.7965
 6901SOL    HW327377   4.339   4.094   2.742 -0.8481 -0.1900  2.1674
 6901SOL    MW427378   4.334   4.180   2.741 -0.1788 -0.1430  0.5697
 6902SOL     OW27379   4.206   4.893   0.083 -0.5875 -0.0993  1.2462
 6902SOL    HW227380   4.236   4.826   0.022  0.3683  0.2912  1.2656
 6902SOL    HW327381   4.175   4.964   0.027  2.3944  1.2151  1.1085
 6902SOL    MW427382   4.206   4.893   0.068 -0.0679  0.1256  1.2306
 6903SOL     OW27383   1.999   2.868   5.514 -0.0611 -0.2467 -0.4199
 6903SOL    HW227384   1.986   2.774   5.501 -1.2456 -0.3136  0.9838
 6903SOL    HW327385   1.910   2.905   5.511  0.1507  0.4856  1.3244
 6903SOL    MW427386   1.985   2.860   5.512 -0.1895 -0.1589 -0.0045
 6904SOL     OW27387   2.230   0.227   5.266  0.1745 -0.7979 -0.3824
 6904SOL    HW227388   2.165   0.245   5.199  2.1018  1.2176 -1.8584
 6904SOL    HW327389   2.301   0.183   5.219  1.8423  1.2376  0.0935
 6904SOL    MW427390   2.231   0.224   5.251  0.6488 -0.2634 -0.5143
 6905SOL     OW27391   2.481   1.364   3.515  0.0755  0.0710 -0.5566
 6905SOL    HW227392   2.386   1.370   3.522 -0.1966 -3.2321  0.2480
 6905SOL    HW327393   2.502   1.405   3.431 -1.9872  1.0697 -0.6430
 6905SOL    MW427394   2.471   1.370   3.505 -0.2326 -0.2330 -0.4618
 6906SOL     OW27395   0.734   6.101   1.593 -0.3053 -0.3424 -0.4476
 6906SOL    HW227396   0.686   6.040   1.649  0.4706 -0.6147 -0.0516
 6906SOL    HW327397   0.820   6.110   1.636 -0.6893  1.7059 -0.0041
 6906SOL    MW427398   0.739   6.094   1.606 -0.2536 -0.1081 -0.3369
 6907SOL     OW27399   2.390   5.819   2.620  0.0554  0.1148 -0.0761
 6907SOL    HW227400   2.322   5.884   2.639 -0.7420 -0.4404 -0.9672
 6907SOL    HW327401   2.430   5.801   2.705 -0.1225  1.3149  0.2741
 6907SOL    MW427402   2.386   5.825   2.634 -0.0733  0.1999 -0.1474
 6908SOL     OW27403   4.652   1.927   4.480  0.2250 -0.1915 -0.2653
 6908SOL    HW227404   4.723   1.956   4.537 -0.6795 -1.1439  1.4225
 6908SOL    HW327405   4.694   1.912   4.395  1.6843  0.8898  0.2280
 6908SOL    MW427406   4.667   1.929   4.476  0.2982 -0.1745  0.0224
 6909SOL     OW27407   3.278   1.172   2.611  0.4589 -0.0663 -0.2347
 6909SOL    HW227408   3.345   1.150   2.676 -0.1512 -1.1211  0.0478
 6909SOL    HW327409   3.220   1.232   2.657  0.3102 -0.4175  0.0447
 6909SOL    MW427410   3.279   1.177   2.626  0.3588 -0.2518 -0.1606
 6910SOL     OW27411   4.403   5.197   2.441 -0.4412  0.0583  0.3466
 6910SOL    HW227412   4.489   5.233   2.465 -0.6407  0.9506 -0.2044
 6910SOL    HW327413   4.387   5.231   2.353  0.4938 -3.5319 -1.3494
 6910SOL    MW427414   4.413   5.206   2.432 -0.3442 -0.2977  0.0501
 6911SOL     OW27415   1.088   4.664   1.721 -0.1622 -0.0328 -0.4722
 6911SOL    HW227416   1.005   4.673   1.675 -0.5717 -0.6920  0.1191
 6911SOL    HW327417   1.089   4.736   1.784  0.4130  0.8899 -1.4953
 6911SOL    MW427418   1.077   4.675   1.723 -0.1404  0.0020 -0.5291
 6912SOL     OW27419   2.313   4.336   0.391  0.2579  0.0433  0.1372
 6912SOL    HW227420   2.351   4.421   0.369 -1.9299  0.7780 -1.1642
 6912SOL    HW327421   2.311   4.289   0.307  2.3246 -1.7668  0.9919
 6912SOL    MW427422   2.318   4.341   0.377  0.2419 -0.0986  0.0782
 6913SOL     OW27423   1.946   1.450   3.656  0.4425 -0.1930  1.0676
 6913SOL    HW227424   1.981   1.500   3.730 -2.5106  0.5676  2.0686
 6913SOL    HW327425   1.907   1.372   3.696 -1.4324  0.3622  0.4143
 6913SOL    MW427426   1.946   1.446   3.671 -0.1945 -0.0194  1.1135
 6914SOL     OW27427   1.378   3.522   2.907 -0.3763  0.0491  0.2626
 6914SOL    HW227428   1.299   3.484   2.869  0.2270 -1.6380  0.6105
 6914SOL    HW327429   1.368   3.617   2.893 -2.3249 -0.1325  0.0831
 6914SOL    MW427430   1.366   3.530   2.900 -0.5538 -0.1974  0.2848
 6915SOL     OW27431   3.814   5.183   4.613 -0.2291 -0.0209 -0.8180
 6915SOL    HW227432   3.752   5.115   4.639 -0.3200  0.0706 -0.7936
 6915SOL    HW327433   3.786   5.261   4.661 -0.0334 -0.0044 -0.7290
 6915SOL    MW427434   3.802   5.184   4.623 -0.2153 -0.0066 -0.8030
 6916SOL     OW27435   5.824   0.485   3.650  0.2114  0.4616  0.1925
 6916SOL    HW227436   5.740   0.485   3.694  0.4084  0.9373  0.5738
 6916SOL    HW327437   5.803   0.488   3.557 -0.1866  0.9518  0.2990
 6916SOL    MW427438   5.810   0.485   3.643  0.1848  0.5891  0.2569
 6917SOL     OW27439   6.392   1.878   3.159 -0.2072  0.1126  0.1498
 6917SOL    HW227440   6.408   1.969   3.135  0.5433 -0.0513 -0.0108
 6917SOL    HW327441   6.465   1.855   3.217  0.5668 -0.8823 -1.1585
 6917SOL    MW427442   6.404   1.887   3.164 -0.0061 -0.0403 -0.0440
 6918SOL     OW27443   3.179   4.959   5.363 -0.0861  0.4932  0.1126
 6918SOL    HW227444   3.189   5.052   5.382 -1.3573  0.9890 -1.4862
 6918SOL    HW327445   3.103   4.932   5.415 -0.9954  0.8613 -0.9988
 6918SOL    MW427446   3.170   4.968   5.373 -0.3738  0.6072 -0.2450
 6919SOL     OW27447   5.803   1.751   3.654 -0.0715 -0.4973 -0.1379
 6919SOL    HW227448   5.742   1.756   3.581 -2.3052 -1.1689  1.5610
 6919SOL    HW327449   5.758   1.697   3.719  2.0027 -0.3126  1.5602
 6919SOL    MW427450   5.789   1.745   3.653 -0.0925 -0.5615  0.3103
 6920SOL     OW27451   0.001   2.075   5.036  0.2763 -0.0260 -0.0289
 6920SOL    HW227452   0.019   2.051   4.945  0.0267  0.4521 -0.2080
 6920SOL    HW327453   0.055   2.153   5.051  1.2082 -0.7703  0.5958
 6920SOL    MW427454   0.011   2.082   5.026  0.3663 -0.0612  0.0299
 6921SOL     OW27455   2.239   0.905   5.466 -0.1268  0.7879  0.0724
 6921SOL    HW227456   2.233   0.835   5.531  1.4682  0.0651 -0.5256
 6921SOL    HW327457   2.231   0.861   5.381 -3.7131  1.8706 -0.3300
 6921SOL    MW427458   2.237   0.890   5.463 -0.3895  0.8354 -0.0596
 6922SOL     OW27459   0.880   1.844   3.372  0.1167 -0.1275 -0.5376
 6922SOL    HW227460   0.798   1.889   3.391  0.1319  0.7064 -2.2621
 6922SOL    HW327461   0.860   1.751   3.388 -0.4384  0.2685  1.3240
 6922SOL    MW427462   0.866   1.837   3.377  0.0455  0.0348 -0.5195
 6923SOL     OW27463   0.965   2.158   3.593 -0.4313  0.0333 -0.4037
 6923SOL    HW227464   0.889   2.125   3.546 -0.8958 -0.2125  0.5010
 6923SOL    HW327465   1.021   2.082   3.606 -0.9034 -0.1640  0.5525
 6923SOL    MW427466   0.963   2.144   3.588 -0.5548 -0.0252 -0.1581
 6924SOL     OW27467   1.507   1.688   1.539 -0.0398  0.0806  0.6085
 6924SOL    HW227468   1.549   1.610   1.575  1.4124 -0.0289 -1.1631
 6924SOL    HW327469   1.414   1.675   1.555 -0.0875 -3.0362 -1.3266
 6924SOL    MW427470   1.500   1.676   1.545  0.1455 -0.3451  0.1195
 6925SOL     OW27471   2.321   6.362   0.956  0.6827 -0.0450  0.1398
 6925SOL    HW227472   2.255   6.415   1.001  1.0438 -0.0310  0.6624
 6925SOL    HW327473   2.316   6.390   0.865 -1.0036 -1.0451 -0.1075
 6925SOL    MW427474   2.312   6.373   0.950  0.5078 -0.1751  0.1762
 6926SOL     OW27475   0.432   3.089   3.984 -0.5611  0.1253 -0.1225
 6926SOL    HW227476   0.452   3.156   3.919  1.8161 -1.6796 -1.4100
 6926SOL    HW327477   0.337   3.077   3.979 -0.6255  1.1192 -2.1626
 6926SOL    MW427478   0.422   3.096   3.975 -0.2560  0.0183 -0.5615
 6927SOL     OW27479   6.296   1.068   3.420  0.0809 -0.2353  0.1334
 6927SOL    HW227480   6.337   1.059   3.506  0.4756  0.4826  0.0322
 6927SOL    HW327481   6.340   1.143   3.380 -0.1402 -0.5212 -0.6744
 6927SOL    MW427482   6.307   1.077   3.426  0.1038 -0.1783  0.0135
 6928SOL     OW27483   3.795   4.333   1.515 -0.0493 -0.4692  0.4617
 6928SOL    HW227484   3.774   4.311   1.425  1.3315 -1.6415  0.3916
 6928SOL    HW327485   3.723   4.389   1.544 -1.3762 -1.4306 -0.8354
 6928SOL    MW427486   3.782   4.337   1.507 -0.0422 -0.7507  0.2813
 6929SOL     OW27487   2.447   4.989   3.264  0.1813 -0.1211  0.0264
 6929SOL    HW227488   2.440   5.054   3.334 -0.8633  0.5227 -0.6524
 6929SOL    HW327489   2.362   4.993   3.219  0.5313 -1.1229 -0.7502
 6929SOL    MW427490   2.435   4.998   3.268  0.0896 -0.1683 -0.1656
 6930SOL     OW27491   5.020   4.302   1.918 -0.1704 -0.0154 -0.0687
 6930SOL    HW227492   4.938   4.349   1.900 -2.0240 -2.8486  0.3376
 6930SOL    HW327493   5.045   4.330   2.006 -0.9240  0.5816 -0.0365
 6930SOL    MW427494   5.012   4.312   1.927 -0.5144 -0.3105 -0.0108
 6931SOL     OW27495   1.515   5.079   5.687 -0.3685 -0.1703 -0.1135
 6931SOL    HW227496   1.541   5.100   5.776 -2.9471 -0.3078  0.7561
 6931SOL    HW327497   1.528   5.160   5.638  0.4342  0.1057  0.5502
 6931SOL    MW427498   1.520   5.092   5.692 -0.6028 -0.1520  0.0888
 6932SOL     OW27499   5.519   2.425   2.791 -0.6242  0.0570  0.1853
 6932SOL    HW227500   5.460   2.427   2.866 -2.5025  0.9414 -1.2261
 6932SOL    HW327501   5.563   2.510   2.792 -1.6995  0.6388 -0.4748
 6932SOL    MW427502   5.517   2.436   2.801 -1.0139  0.2504 -0.0880
 6933SOL     OW27503   0.110   2.182   1.468  0.1903 -0.0053 -0.1566
 6933SOL    HW227504   0.172   2.193   1.396 -0.7353  0.7402 -0.8769
 6933SOL    HW327505   0.027   2.213   1.432 -0.2882  0.4220  1.2574
 6933SOL    MW427506   0.107   2.188   1.454  0.0051  0.1494 -0.0650
 6934SOL     OW27507   3.488   1.813   2.406  0.0795 -0.3848  0.5484
 6934SOL    HW227508   3.484   1.848   2.317 -0.8063  0.2257  0.8134
 6934SOL    HW327509   3.523   1.885   2.459 -2.1718  0.3424  1.1751
 6934SOL    MW427510   3.492   1.827   2.401 -0.3344 -0.2083  0.6660
 6935SOL     OW27511   5.158   3.279   6.354  0.3445  0.1197 -0.1005
 6935SOL    HW227512   5.144   3.348   6.290 -0.0799  0.3147  0.1950
 6935SOL    HW327513   5.145   3.198   6.306 -1.5524  0.2842  0.0828
 6935SOL    MW427514   5.155   3.277   6.339  0.0383  0.1671 -0.0373
 6936SOL     OW27515   5.868   5.604   5.452 -0.3700 -0.2759 -0.0844
 6936SOL    HW227516   5.778   5.585   5.479 -0.4209  0.0605 -0.0123
 6936SOL    HW327517   5.922   5.573   5.524 -0.4780  0.2457  0.2225
 6936SOL    MW427518   5.863   5.597   5.465 -0.3909 -0.1627 -0.0344
 6937SOL     OW27519   2.379   5.150   1.217 -0.0593 -0.3598  0.4078
 6937SOL    HW227520   2.283   5.145   1.211 -0.2672  1.0890  1.7497
 6937SOL    HW327521   2.410   5.069   1.178 -1.9575 -2.2946  2.5762
 6937SOL    MW427522   2.370   5.139   1.211 -0.3372 -0.4239  0.8709
 6938SOL     OW27523   5.331   3.861   3.903  0.3749 -0.6366  0.2554
 6938SOL    HW227524   5.325   3.942   3.852  1.4184 -0.7960 -0.1521
 6938SOL    HW327525   5.425   3.854   3.924 -0.0447 -0.3871  2.5000
 6938SOL    MW427526   5.343   3.871   3.899  0.4572 -0.6247  0.4978
 6939SOL     OW27527   2.449   2.634   1.589 -0.7863 -0.4476  0.0572
 6939SOL    HW227528   2.479   2.571   1.523 -1.5036  0.4689 -1.1863
 6939SOL    HW327529   2.493   2.715   1.566 -1.0258 -0.1177  0.7354
 6939SOL    MW427530   2.459   2.636   1.577 -0.9126 -0.2831 -0.0174
 6940SOL     OW27531   1.115   3.074   1.845  0.0935  0.4895 -0.8085
 6940SOL    HW227532   1.152   3.053   1.760 -0.8305  1.4045 -1.4625
 6940SOL    HW327533   1.021   3.087   1.828 -0.1658  0.3782  0.4028
 6940SOL    MW427534   1.107   3.073   1.831 -0.0626  0.5955 -0.7349
 6941SOL     OW27535   4.209   1.929   2.047 -0.1951  0.3463 -0.3204
 6941SOL    HW227536   4.170   1.847   2.076  2.9344 -1.9262 -1.8753
 6941SOL    HW327537   4.158   1.955   1.971 -1.0718 -0.3003  0.0344
 6941SOL    MW427538   4.197   1.922   2.041  0.1021 -0.0389 -0.4788
 6942SOL     OW27539   6.116   6.481   6.247  0.3086 -0.2522  0.1545
 6942SOL    HW227540   6.048   6.536   6.288 -1.5410 -1.7155 -0.8192
 6942SOL    HW327541   6.088   6.472   6.156  1.5597 -1.3195 -0.1535
 6942SOL    MW427542   6.103   6.487   6.240  0.2296 -0.5861 -0.0146
 6943SOL     OW27543   4.191   4.148   1.124  0.3931  0.2319  0.5228
 6943SOL    HW227544   4.191   4.096   1.044 -1.2765  1.5166 -0.3965
 6943SOL    HW327545   4.191   4.084   1.195  0.3522 -0.9727 -0.5342
 6943SOL    MW427546   4.191   4.133   1.123  0.1674  0.2424  0.2620
 6944SOL     OW27547   6.304   1.086   0.342 -0.5708  0.0931 -0.4744
 6944SOL    HW227548   6.388   1.100   0.385 -0.5474  1.6195 -0.9754
 6944SOL    HW327549   6.295   0.990   0.339  1.6398 -0.1518 -1.3910
 6944SOL    MW427550   6.314   1.075   0.348 -0.2761  0.2622 -0.6615
 6945SOL     OW27551   2.966   2.181   5.298 -0.0027  0.2901 -0.0015
 6945SOL    HW227552   2.945   2.213   5.210 -1.2402 -0.1982  0.0915
 6945SOL    HW327553   3.041   2.122   5.284  1.2676  1.9077 -0.3839
 6945SOL    MW427554   2.973   2.177   5.284  0.0016  0.4391 -0.0397
 6946SOL     OW27555   3.821   4.565   3.574 -0.1855  0.0681 -0.2102
 6946SOL    HW227556   3.830   4.510   3.496  1.2418 -0.1984  0.1114
 6946SOL    HW327557   3.752   4.627   3.552  0.2158  0.0254 -1.7055
 6946SOL    MW427558   3.813   4.566   3.560  0.0558  0.0273 -0.3650
 6947SOL     OW27559   1.021   2.950   2.857  0.2596  0.1187  0.1680
 6947SOL    HW227560   1.020   2.973   2.950  0.4525  1.3034 -0.1051
 6947SOL    HW327561   1.057   3.028   2.814 -0.9748  0.0520 -1.0234
 6947SOL    MW427562   1.026   2.963   2.864  0.1222  0.2662 -0.0253
 6948SOL     OW27563   5.126   3.534   0.145  0.4424 -0.0767  0.4221
 6948SOL    HW227564   5.179   3.504   0.071 -0.6317 -0.6138 -0.1411
 6948SOL    HW327565   5.128   3.630   0.137  2.4172 -0.0026  1.2024
 6948SOL    MW427566   5.133   3.543   0.134  0.5612 -0.1378  0.4507
 6949SOL     OW27567   2.362   5.322   0.250  0.3145  0.6808  0.4103
 6949SOL    HW227568   2.272   5.353   0.261  0.2366  0.5042  0.2812
 6949SOL    HW327569   2.407   5.351   0.330  0.5741  2.2542 -0.2800
 6949SOL    MW427570   2.356   5.330   0.262  0.3385  0.8651  0.3022
 6950SOL     OW27571   6.315   0.720   2.287  0.0075 -0.1811 -0.1891
 6950SOL    HW227572   6.343   0.629   2.280 -0.2195 -0.2613 -0.0477
 6950SOL    HW327573   6.231   0.716   2.332 -0.1737  0.0704 -0.5009
 6950SOL    MW427574   6.308   0.708   2.292 -0.0463 -0.1585 -0.2116
 6951SOL     OW27575   5.858   2.061   3.704 -0.2422 -0.2397  0.3811
 6951SOL    HW227576   5.784   2.098   3.657 -0.5212 -0.8514  0.3385
 6951SOL    HW327577   5.855   1.967   3.686  0.0508 -0.3876  1.0573
 6951SOL    MW427578   5.848   2.054   3.696 -0.2404 -0.3399  0.4647
 6952SOL     OW27579   6.241   2.150   3.729  0.0782 -0.5559  0.1190
 6952SOL    HW227580   6.312   2.106   3.775 -0.2271 -0.5900  0.5662
 6952SOL    HW327581   6.199   2.081   3.677  0.7062 -0.4248 -0.5694
 6952SOL    MW427582   6.245   2.135   3.728  0.1208 -0.5431  0.0872
 6953SOL     OW27583   2.272   1.328   1.310  0.4172 -0.2020  0.0592
 6953SOL    HW227584   2.198   1.267   1.310  0.6716 -0.5221  0.6220
 6953SOL    HW327585   2.349   1.273   1.298  0.5034  0.2441 -1.7321
 6953SOL    MW427586   2.272   1.313   1.308  0.4621 -0.1854 -0.1029
 6954SOL     OW27587   2.204   1.385   2.038 -0.3100 -0.5921 -0.8005
 6954SOL    HW227588   2.193   1.465   2.088 -0.8317 -1.2721  0.2066
 6954SOL    HW327589   2.156   1.318   2.088  0.6075 -1.6578 -1.2887
 6954SOL    MW427590   2.197   1.387   2.051 -0.2578 -0.8224 -0.7320
 6955SOL     OW27591   4.800   6.348   3.495 -0.0371  0.2824 -0.0911
 6955SOL    HW227592   4.745   6.404   3.550  3.1982  2.5812  1.0866
 6955SOL    HW327593   4.787   6.260   3.530 -0.3920  1.2406  2.3794
 6955SOL    MW427594   4.791   6.344   3.506  0.3429  0.7121  0.3903
 6956SOL     OW27595   4.264   0.624   2.921  0.0600 -0.4606  0.0382
 6956SOL    HW227596   4.195   0.680   2.885 -0.0390 -0.8703 -0.4165
 6956SOL    HW327597   4.297   0.575   2.846 -0.5925 -1.8007  0.6095
 6956SOL    MW427598   4.259   0.625   2.906 -0.0392 -0.6915  0.0536
 6957SOL     OW27599   3.229   0.162   1.268  0.7114  0.0575  0.3422
 6957SOL    HW227600   3.199   0.077   1.299  1.3161  0.2649  1.5696
 6957SOL    HW327601   3.170   0.185   1.196 -0.8426 -0.3732  1.4576
 6957SOL    MW427602   3.217   0.154   1.262  0.5862  0.0280  0.6513
 6958SOL     OW27603   5.068   6.367   5.793  0.3455  0.0585 -0.5697
 6958SOL    HW227604   5.101   6.380   5.704  0.8571 -1.2721 -0.6027
 6958SOL    HW327605   5.112   6.288   5.823 -0.3219  0.1225  0.6338
 6958SOL    MW427606   5.078   6.358   5.785  0.3249 -0.1086 -0.4153
 6959SOL     OW27607   3.993   1.557   5.473 -1.1295  0.0452 -0.3585
 6959SOL    HW227608   4.003   1.492   5.404  0.6785  0.3924 -0.4831
 6959SOL    HW327609   3.999   1.507   5.555 -0.4625 -0.0538 -0.4586
 6959SOL    MW427610   3.995   1.542   5.475 -0.8030  0.0779 -0.3882
 6960SOL     OW27611   0.041   6.202   6.412 -0.1057  0.0826  0.2737
 6960SOL    HW227612  -0.020   6.186   6.340  0.8385 -2.8467  0.0037
 6960SOL    HW327613   0.028   6.129   6.472  1.8032  0.3877  1.1285
 6960SOL    MW427614   0.032   6.190   6.410  0.2707 -0.2636  0.3509
 6961SOL     OW27615   6.414   0.860   3.249  0.2067  0.5595 -0.2793
 6961SOL    HW227616   6.391   0.767   3.252 -1.9569  1.0678  0.4139
 6961SOL    HW327617   6.379   0.897   3.330  0.5169  2.0908 -0.8029
 6961SOL    MW427618   6.406   0.853   3.260 -0.0378  0.8286 -0.2569
 6962SOL     OW27619   2.211   4.377   3.258 -0.5807 -0.4600 -0.3433
 6962SOL    HW227620   2.269   4.305   3.234 -1.1510 -0.9349 -0.3272
 6962SOL    HW327621   2.211   4.377   3.353  1.1915  1.0248 -0.3036
 6962SOL    MW427622   2.219   4.367   3.267 -0.4221 -0.3268 -0.3360
 6963SOL     OW27623   5.986   3.669   0.226 -0.4691  0.3557 -0.2586
 6963SOL    HW227624   5.895   3.697   0.221 -1.4069 -1.8302  2.0510
 6963SOL    HW327625   6.036   3.749   0.243 -2.4556  1.2223  2.0159
 6963SOL    MW427626   5.981   3.683   0.228 -0.8549  0.1816  0.3463
 6964SOL     OW27627   4.383   3.124   1.611 -0.5299 -0.0551 -0.3890
 6964SOL    HW227628   4.328   3.190   1.653  0.6049  0.1011  0.9395
 6964SOL    HW327629   4.322   3.058   1.580 -1.6411  1.2882 -1.1802
 6964SOL    MW427630   4.368   3.124   1.613 -0.5268  0.1427 -0.3181
 6965SOL     OW27631   3.159   5.597   4.457  0.0912  0.5652  0.0225
 6965SOL    HW227632   3.074   5.608   4.498  0.7568  0.7480  1.4154
 6965SOL    HW327633   3.173   5.502   4.457  0.5591  0.6187  1.2678
 6965SOL    MW427634   3.150   5.586   4.462  0.2408  0.5964  0.3705
 6966SOL     OW27635   3.810   0.113   4.223 -0.4972  0.3896 -0.1890
 6966SOL    HW227636   3.769   0.100   4.309 -0.7808 -0.4780 -0.4446
 6966SOL    HW327637   3.827   0.207   4.219  3.7580 -0.0055  2.7262
 6966SOL    MW427638   3.807   0.123   4.234  0.0268  0.2230  0.1619
 6967SOL     OW27639   3.289   1.596   2.097 -0.4370  0.2793  0.0520
 6967SOL    HW227640   3.326   1.640   2.020 -2.4425  0.8657 -0.6463
 6967SOL    HW327641   3.238   1.523   2.060 -2.2724  1.1804  0.6939
 6967SOL    MW427642   3.287   1.592   2.082 -0.9437  0.4756  0.0446
 6968SOL     OW27643   0.966   6.467   2.679  0.3857  0.1449  0.1363
 6968SOL    HW227644   0.901   6.535   2.666  1.3611  0.8283 -1.4296
 6968SOL    HW327645   0.930   6.390   2.635  0.8949  0.7089 -1.3127
 6968SOL    MW427646   0.953   6.466   2.672  0.5816  0.3095 -0.2615
 6969SOL     OW27647   5.717   3.272   0.377 -0.4739  0.0987 -0.2059
 6969SOL    HW227648   5.653   3.207   0.405 -0.4009 -0.7971 -1.9656
 6969SOL    HW327649   5.664   3.344   0.341 -0.5479  0.9411  1.5089
 6969SOL    MW427650   5.701   3.273   0.376 -0.4741  0.0916 -0.2118
 6970SOL     OW27651   1.397   1.159   3.092 -0.2642 -0.4175  0.2762
 6970SOL    HW227652   1.353   1.190   3.012  0.9848  0.1058 -0.2381
 6970SOL    HW327653   1.362   1.071   3.106 -1.4850 -0.0142 -0.0848
 6970SOL    MW427654   1.386   1.152   3.083 -0.2605 -0.2952  0.1607
 6971SOL     OW27655   0.192   4.721   0.241 -0.0212  0.1238 -0.6304
 6971SOL    HW227656   0.106   4.708   0.281 -1.2632 -0.4367 -3.2321
 6971SOL    HW327657   0.241   4.642   0.265 -0.1074  0.5641  1.0947
 6971SOL    MW427658   0.187   4.709   0.250 -0.1964  0.1079 -0.7460
 6972SOL     OW27659   5.635   6.360   0.666  0.0508 -0.3148 -0.3118
 6972SOL    HW227660   5.670   6.440   0.706 -0.5904 -0.2683  0.1768
 6972SOL    HW327661   5.693   6.291   0.696  0.2936 -0.1053 -0.2997
 6972SOL    MW427662   5.647   6.361   0.675 -0.0017 -0.2810 -0.2458
 6973SOL     OW27663   4.772   1.287   0.234  0.1010  0.0557  0.3984
 6973SOL    HW227664   4.717   1.209   0.241 -0.2901  0.3164  0.2736
 6973SOL    HW327665   4.728   1.352   0.289 -0.0063  0.4252 -0.1093
 6973SOL    MW427666   4.759   1.285   0.242  0.0352  0.1389  0.3150
 6974SOL     OW27667   4.660   1.589   5.836  0.2847  0.4636 -0.4140
 6974SOL    HW227668   4.675   1.496   5.819 -0.3915  0.4837 -1.1720
 6974SOL    HW327669   4.658   1.596   5.932 -1.6060 -0.6497 -0.3193
 6974SOL    MW427670   4.661   1.578   5.847 -0.0540  0.3194 -0.5015
 6975SOL     OW27671   1.541   0.391   0.042  0.5623  0.1183  0.6922
 6975SOL    HW227672   1.542   0.487   0.035 -1.8233  0.1944  0.3521
 6975SOL    HW327673   1.556   0.361  -0.048  2.9425  0.0629  1.0454
 6975SOL    MW427674   1.543   0.400   0.029  0.5616  0.1210  0.6939
 6976SOL     OW27675   1.329   2.313   0.670  0.3096  0.9498 -0.0768
 6976SOL    HW227676   1.267   2.317   0.743 -0.5977 -4.2264 -0.1880
 6976SOL    HW327677   1.276   2.326   0.592  0.1105  0.4686 -0.0228
 6976SOL    MW427678   1.314   2.315   0.669  0.1636  0.2034 -0.0843
 6977SOL     OW27679   2.363   0.505   4.704 -0.6677  0.2485 -0.5431
 6977SOL    HW227680   2.327   0.422   4.674  0.4501 -0.7135  0.6439
 6977SOL    HW327681   2.431   0.527   4.640 -1.7525  0.9063 -1.5204
 6977SOL    MW427682   2.367   0.497   4.692 -0.6634  0.2084 -0.5155
 6978SOL     OW27683   2.591   0.525   2.094 -0.4278 -0.0727  0.5155
 6978SOL    HW227684   2.589   0.499   2.186 -0.2470 -0.0446  0.5290
 6978SOL    HW327685   2.574   0.445   2.045 -0.9990  0.0048  0.5857
 6978SOL    MW427686   2.589   0.511   2.100 -0.4793 -0.0588  0.5266
 6979SOL     OW27687   3.997   5.248   6.078  0.4191  0.0896 -0.2913
 6979SOL    HW227688   4.022   5.339   6.096 -1.7725  0.7741 -0.3211
 6979SOL    HW327689   4.054   5.220   6.007  1.8537  1.0657  0.4427
 6979SOL    MW427690   4.008   5.256   6.071  0.3192  0.3087 -0.1984
 6980SOL     OW27691   0.116   3.929   6.131 -0.7299 -0.1353  0.0869
 6980SOL    HW227692   0.137   3.916   6.038 -0.8020 -0.3033  0.0955
 6980SOL    HW327693   0.042   3.871   6.147 -1.8409  1.1481 -0.1887
 6980SOL    MW427694   0.109   3.920   6.121 -0.8860  0.0118  0.0517
 6981SOL     OW27695   2.044   1.741   1.825  0.1249 -0.5150  0.3805
 6981SOL    HW227696   2.087   1.674   1.772  1.5378 -0.4781  1.4030
 6981SOL    HW327697   2.108   1.813   1.829 -0.3339 -0.1370  1.3320
 6981SOL    MW427698   2.058   1.742   1.819  0.2508 -0.4602  0.6410
 6982SOL     OW27699   6.244   1.284   2.293  0.2317  0.1557  0.4639
 6982SOL    HW227700   6.248   1.360   2.235 -0.8537  1.9182  2.5455
 6982SOL    HW327701   6.266   1.319   2.379  0.8651 -2.1691  1.3088
 6982SOL    MW427702   6.248   1.298   2.296  0.1721  0.0815  0.8500
 6983SOL     OW27703   3.945   6.200   5.893  0.0343 -0.0794 -0.1771
 6983SOL    HW227704   4.028   6.222   5.850  0.7161  1.9935  1.9513
 6983SOL    HW327705   3.881   6.259   5.854 -0.0894 -0.5330 -0.6675
 6983SOL    MW427706   3.948   6.211   5.882  0.1080  0.1342  0.0390
 6984SOL     OW27707   3.893   3.869   0.963 -0.4914  0.1431 -0.1093
 6984SOL    HW227708   3.837   3.925   1.017 -0.3571 -0.2501  0.4398
 6984SOL    HW327709   3.855   3.782   0.970  0.6494 -0.2972  0.9454
 6984SOL    MW427710   3.881   3.865   0.971 -0.3231  0.0331  0.1023
 6985SOL     OW27711   5.374   5.206   4.261 -1.1128 -0.1937 -0.1111
 6985SOL    HW227712   5.342   5.296   4.255  1.4681  0.8743  0.7087
 6985SOL    HW327713   5.410   5.188   4.175 -0.7136 -0.0199  0.0122
 6985SOL    MW427714   5.375   5.216   4.249 -0.7196 -0.0299  0.0133
 6986SOL     OW27715   2.758   5.072   3.664 -0.1594  0.3236  0.2452
 6986SOL    HW227716   2.768   5.093   3.571  0.3686  0.9218  0.4322
 6986SOL    HW327717   2.671   5.032   3.670 -0.1365  0.1454 -0.5275
 6986SOL    MW427718   2.748   5.070   3.653 -0.0867  0.3790  0.1679
 6987SOL     OW27719   5.816   2.702   3.845  0.3152  0.5372 -0.1847
 6987SOL    HW227720   5.779   2.613   3.841 -1.2671  1.1235  0.6157
 6987SOL    HW327721   5.796   2.732   3.934  2.0683  1.2072  0.0249
 6987SOL    MW427722   5.809   2.694   3.856  0.3377  0.7029 -0.0515
 6988SOL     OW27723   6.391   4.497   1.246  0.0011  1.1667 -0.0491
 6988SOL    HW227724   6.410   4.406   1.268 -0.5825  1.3796  1.4524
 6988SOL    HW327725   6.321   4.491   1.181  1.3066  0.5286 -1.4595
 6988SOL    MW427726   6.384   4.484   1.241  0.0963  1.1106 -0.0371
 6989SOL     OW27727   3.718   5.817   5.045  0.4111 -1.1928  0.2957
 6989SOL    HW227728   3.791   5.851   5.098 -0.4584 -0.4357  1.0649
 6989SOL    HW327729   3.646   5.807   5.108 -0.4405 -0.9581 -0.6097
 6989SOL    MW427730   3.718   5.820   5.061  0.1840 -1.0619  0.2777
 6990SOL     OW27731   2.586   2.037   6.383  0.6897 -0.2246  0.2091
 6990SOL    HW227732   2.634   1.961   6.414  1.4055  0.1944  0.1589
 6990SOL    HW327733   2.528   2.003   6.315 -0.6913 -1.1045  1.7547
 6990SOL    MW427734   2.585   2.023   6.378  0.6019 -0.2854  0.4064
 6991SOL     OW27735   3.369   2.476   6.306 -0.2584  0.4692  0.0934
 6991SOL    HW227736   3.302   2.486   6.374  0.4194  3.1521  0.5070
 6991SOL    HW327737   3.334   2.524   6.231  0.7026  0.9809 -0.0461
 6991SOL    MW427738   3.355   2.484   6.305 -0.0422  0.8907  0.1296
 6992SOL     OW27739   3.892   3.502   2.687 -0.1111 -0.0619  0.1426
 6992SOL    HW227740   3.835   3.564   2.732 -1.6523 -2.0778  1.1164
 6992SOL    HW327741   3.839   3.469   2.614  1.6157  1.5964 -2.0291
 6992SOL    MW427742   3.878   3.505   2.683 -0.0866 -0.1091 -0.0154
 6993SOL     OW27743   3.531   4.544   2.207  0.0674  0.3241 -0.2557
 6993SOL    HW227744   3.554   4.467   2.155  2.6000 -0.1116  1.3520
 6993SOL    HW327745   3.508   4.611   2.143 -0.2345 -1.1484 -1.7593
 6993SOL    MW427746   3.531   4.543   2.192  0.3617  0.0723 -0.2419
 6994SOL     OW27747   3.518   1.953   0.693  0.4855 -0.3956  0.3434
 6994SOL    HW227748   3.442   1.910   0.653 -0.3724  0.7987  0.6533
 6994SOL    HW327749   3.483   1.996   0.771  1.4787  0.1860  0.4783
 6994SOL    MW427750   3.503   1.953   0.698  0.5033 -0.1613  0.4021
 6995SOL     OW27751   0.030   1.321   1.159 -0.1716  0.3122  0.2176
 6995SOL    HW227752   0.066   1.407   1.179 -0.7817  0.8289 -0.7956
 6995SOL    HW327753  -0.003   1.289   1.242  3.3057 -0.5852  1.4221
 6995SOL    MW427754   0.030   1.328   1.172  0.2067  0.2620  0.2429
 6996SOL     OW27755   0.399   5.520   5.058 -0.2306  0.2654 -0.8536
 6996SOL    HW227756   0.423   5.457   4.989  1.5475 -0.8917  0.7201
 6996SOL    HW327757   0.392   5.466   5.137 -1.2567  1.7039  0.0716
 6996SOL    MW427758   0.402   5.504   5.059 -0.1314  0.3026 -0.5239
 6997SOL     OW27759   2.904   3.404   0.535 -0.3842  0.2103 -0.4492
 6997SOL    HW227760   2.924   3.329   0.478 -1.5187 -0.6419  0.2301
 6997SOL    HW327761   2.809   3.416   0.525 -0.2888  1.2592 -0.1739
 6997SOL    MW427762   2.894   3.396   0.526 -0.5213  0.2362 -0.3233
 6998SOL     OW27763   6.073   3.101   3.063  0.0794  0.3330  0.3088
 6998SOL    HW227764   6.142   3.087   3.129  1.2770  1.2754 -0.6901
 6998SOL    HW327765   6.082   3.193   3.039 -0.2312 -0.0252 -1.2562
 6998SOL    MW427766   6.083   3.111   3.069  0.1964  0.4101 -0.0295
 6999SOL     OW27767   1.014   5.738   5.942 -0.1488 -0.0761  0.1155
 6999SOL    HW227768   1.085   5.704   5.996 -1.0589 -0.4270  1.1304
 6999SOL    HW327769   1.013   5.832   5.960 -1.1777 -0.3444  1.6516
 6999SOL    MW427770   1.023   5.746   5.951 -0.4046 -0.1578  0.4521
 7000SOL     OW27771   5.361   2.058   2.221  0.1929  0.4304  0.1827
 7000SOL    HW227772   5.347   1.963   2.228 -0.0984  0.4359 -0.3171
 7000SOL    HW327773   5.273   2.095   2.213  0.1041  0.9719  2.8249
 7000SOL    MW427774   5.348   2.050   2.221  0.1427  0.5026  0.4654
 7001SOL     OW27775   6.146   1.448   3.125 -0.8304 -0.1069 -0.1493
 7001SOL    HW227776   6.236   1.467   3.150 -0.1321 -1.3891 -1.5199
 7001SOL    HW327777   6.115   1.528   3.083 -0.5517  0.5290  0.8112
 7001SOL    MW427778   6.154   1.461   3.123 -0.7015 -0.1922 -0.2034
 7002SOL     OW27779   3.169   5.252   5.346 -0.0787 -0.0597 -0.0024
 7002SOL    HW227780   3.207   5.254   5.434 -0.1542  0.8795  0.0182
 7002SOL    HW327781   3.204   5.331   5.303 -1.6557  0.5992 -0.1304
 7002SOL    MW427782   3.179   5.263   5.352 -0.2967  0.1512 -0.0166
 7003SOL     OW27783   4.839   6.038   5.961  0.2171 -0.3449  0.6959
 7003SOL    HW227784   4.921   5.989   5.971  0.3959  0.1352  1.7721
 7003SOL    HW327785   4.781   5.979   5.913  0.6414 -1.3575  1.3925
 7003SOL    MW427786   4.842   6.024   5.956  0.2967 -0.4151  0.9298
 7004SOL     OW27787   2.934   1.215   3.353  0.1642  0.3250 -0.0896
 7004SOL    HW227788   2.848   1.179   3.333  0.1880  0.8771 -1.3442
 7004SOL    HW327789   2.996   1.147   3.326  0.1774  0.8930 -1.6427
 7004SOL    MW427790   2.931   1.202   3.347  0.1691  0.4728 -0.4600
 7005SOL     OW27791   2.910   0.781   6.391  0.0734  0.5053 -0.0386
 7005SOL    HW227792   2.835   0.838   6.376 -0.3682 -0.0063  0.1928
 7005SOL    HW327793   2.876   0.712   6.448  0.2160 -0.7606 -1.4128
 7005SOL    MW427794   2.895   0.779   6.396  0.0340  0.2708 -0.1893
 7006SOL     OW27795   0.012   0.688   5.315  0.4141 -0.3008 -0.0120
 7006SOL    HW227796   0.103   0.707   5.292  1.0228 -1.8715  0.9220
 7006SOL    HW327797   0.014   0.671   5.409 -1.2739  1.8492  0.4891
 7006SOL    MW427798   0.024   0.688   5.324  0.2717 -0.2244  0.1774
 7007SOL     OW27799   2.172   5.978   4.103 -0.2763  1.0993 -0.7164
 7007SOL    HW227800   2.252   6.011   4.145 -0.2208 -0.1120  0.1885
 7007SOL    HW327801   2.169   6.024   4.019  0.1156  2.9031  0.1940
 7007SOL    MW427802   2.182   5.989   4.098 -0.2173  1.1775 -0.4769
 7008SOL     OW27803   3.650   1.355   1.883  0.0660  0.1220  0.2419
 7008SOL    HW227804   3.642   1.300   1.805  0.3080  0.4099  0.0105
 7008SOL    HW327805   3.635   1.296   1.957 -2.2933  0.2043 -0.0703
 7008SOL    MW427806   3.647   1.340   1.882 -0.2134  0.1708  0.1702
 7009SOL     OW27807   4.167   0.773   0.932 -0.5000 -0.6931 -0.1408
 7009SOL    HW227808   4.136   0.749   1.019  0.6303  0.1271  0.5192
 7009SOL    HW327809   4.237   0.836   0.948 -2.4712  2.1265 -1.7254
 7009SOL    MW427810   4.172   0.778   0.945 -0.6109 -0.2128 -0.2628
 7010SOL     OW27811   4.119   6.441   0.396  0.3040  0.1237  0.1247
 7010SOL    HW227812   4.192   6.384   0.372 -0.9464 -1.1415 -0.8677
 7010SOL    HW327813   4.148   6.529   0.370  1.0666 -0.5037 -1.2602
 7010SOL    MW427814   4.132   6.445   0.389  0.2396 -0.1260 -0.1889
 7011SOL     OW27815   1.282   2.391   5.405 -0.3847 -0.3309  0.5802
 7011SOL    HW227816   1.346   2.355   5.344  0.5538 -1.2649  2.0343
 7011SOL    HW327817   1.279   2.327   5.477 -1.8687  0.4333  1.2452
 7011SOL    MW427818   1.290   2.378   5.407 -0.4566 -0.3533  0.8598
 7012SOL     OW27819   2.625   4.168   4.561  0.1233 -0.5446  0.1069
 7012SOL    HW227820   2.676   4.207   4.632 -1.0938  0.6360  0.3694
 7012SOL    HW327821   2.537   4.158   4.597 -0.5153  0.0725 -1.2111
 7012SOL    MW427822   2.620   4.172   4.575 -0.1215 -0.3074 -0.0324
 7013SOL     OW27823   2.682   5.532   4.276  0.0924  0.5954 -0.2174
 7013SOL    HW227824   2.611   5.468   4.289  0.2338  0.8792  2.5657
 7013SOL    HW327825   2.637   5.613   4.254 -0.6048  0.8946  1.9847
 7013SOL    MW427826   2.667   5.534   4.275  0.0191  0.6723  0.4404
 7014SOL     OW27827   2.756   2.424   2.159  0.2262 -0.4485  0.1016
 7014SOL    HW227828   2.767   2.512   2.122 -0.7692 -0.4709 -0.2921
 7014SOL    HW327829   2.823   2.371   2.117  2.2864  0.5354  1.9034
 7014SOL    MW427830   2.766   2.429   2.149  0.3667 -0.3217  0.2874
 7015SOL     OW27831   1.988   2.311   1.306 -0.2284  0.1815 -0.4929
 7015SOL    HW227832   2.076   2.344   1.288 -0.2502  0.3705 -0.2621
 7015SOL    HW327833   1.989   2.221   1.275  1.3521 -1.2901  3.2012
 7015SOL    MW427834   1.999   2.304   1.300 -0.0227  0.0123  0.0249
 7016SOL     OW27835   4.108   5.644   1.572 -0.1139  0.2234 -0.3052
 7016SOL    HW227836   4.192   5.599   1.579  0.1953  0.8297 -0.1075
 7016SOL    HW327837   4.063   5.625   1.654 -0.8841 -1.5044 -1.0758
 7016SOL    MW427838   4.113   5.635   1.584 -0.1747  0.0754 -0.3808
 7017SOL     OW27839   3.937   5.070   5.511 -0.2143 -0.8142 -0.0415
 7017SOL    HW227840   3.968   5.048   5.599 -0.5757 -1.7266 -0.1301
 7017SOL    HW327841   4.009   5.044   5.453  0.2915  0.3975  0.0264
 7017SOL    MW427842   3.951   5.064   5.515 -0.1953 -0.7747 -0.0442
 7018SOL     OW27843   0.732   3.191   2.205  0.5890 -0.2219  0.4320
 7018SOL    HW227844   0.687   3.275   2.202 -2.6167 -1.7173  1.6495
 7018SOL    HW327845   0.728   3.159   2.115  0.7536  0.4106  0.1970
 7018SOL    MW427846   0.725   3.198   2.192  0.1877 -0.3357  0.5616
 7019SOL     OW27847   5.986   2.176   0.644  0.3880 -0.5196  0.3531
 7019SOL    HW227848   5.982   2.263   0.683  1.1202 -0.0362 -0.6259
 7019SOL    HW327849   6.052   2.183   0.576 -0.4692 -1.5001 -0.6077
 7019SOL    MW427850   5.994   2.188   0.640  0.3715 -0.5852  0.0971
 7020SOL     OW27851   5.201   1.750   4.916 -0.1719  0.1336 -0.1476
 7020SOL    HW227852   5.276   1.762   4.975  1.6740 -0.3934 -2.2407
 7020SOL    HW327853   5.171   1.661   4.935 -1.2674  0.8488  1.7143
 7020SOL    MW427854   5.207   1.739   4.926 -0.0729  0.1585 -0.1781
 7021SOL     OW27855   3.666   1.545   5.411 -0.5404 -0.1844 -0.5368
 7021SOL    HW227856   3.627   1.509   5.491  1.9833 -0.7228  0.5454
 7021SOL    HW327857   3.711   1.624   5.440  0.7940 -0.6354 -1.3153
 7021SOL    MW427858   3.667   1.550   5.425 -0.0314 -0.3149 -0.4967
 7022SOL     OW27859   2.541   6.296   2.300  0.2974 -0.1264  0.2165
 7022SOL    HW227860   2.621   6.255   2.268  0.3962  0.7206 -0.6590
 7022SOL    HW327861   2.506   6.233   2.363  0.9232 -1.1331 -0.4092
 7022SOL    MW427862   2.547   6.282   2.304  0.3930 -0.1474  0.0184
 7023SOL     OW27863   4.201   2.309   0.963  0.1590 -1.1810 -0.5652
 7023SOL    HW227864   4.177   2.307   0.870 -0.4586  0.8432 -0.4913
 7023SOL    HW327865   4.127   2.352   1.006  1.3500 -0.1766  0.5506
 7023SOL    MW427866   4.188   2.314   0.956  0.2346 -0.7814 -0.4082
 7024SOL     OW27867   2.672   2.272   0.493  0.1701  0.4531  0.3908
 7024SOL    HW227868   2.635   2.360   0.490  1.2107  0.9002  0.3251
 7024SOL    HW327869   2.674   2.244   0.402  1.9010  1.2605  0.1518
 7024SOL    MW427870   2.667   2.280   0.481  0.5358  0.6186  0.3506
 7025SOL     OW27871   3.152   3.802   2.778  0.0745 -0.1179 -0.3736
 7025SOL    HW227872   3.176   3.831   2.865 -0.1007 -0.2775 -0.2707
 7025SOL    HW327873   3.069   3.754   2.790 -0.4547  0.6806 -0.7668
 7025SOL    MW427874   3.144   3.799   2.791 -0.0184 -0.0336 -0.4119
 7026SOL     OW27875   6.002   2.696   0.492  0.2129  0.4411 -0.1668
 7026SOL    HW227876   6.085   2.681   0.447  0.8430  0.6750  0.8832
 7026SOL    HW327877   5.959   2.765   0.441  1.1296  1.0507 -0.1295
 7026SOL    MW427878   6.007   2.703   0.479  0.4170  0.5524 -0.0233
 7027SOL     OW27879   0.727   0.871   1.005 -0.2582 -0.4577  0.3109
 7027SOL    HW227880   0.634   0.896   1.002  0.1244  1.3595  1.6895
 7027SOL    HW327881   0.759   0.909   1.087  2.2458  0.9658 -1.2091
 7027SOL    MW427882   0.719   0.879   1.016  0.1227 -0.0301  0.2923
 7028SOL     OW27883   4.325   5.689   3.166  0.1090  0.5046 -0.1208
 7028SOL    HW227884   4.244   5.650   3.201  0.6724  0.0748  0.7265
 7028SOL    HW327885   4.347   5.758   3.230  0.3249  0.7336 -0.4431
 7028SOL    MW427886   4.317   5.693   3.179  0.2118  0.4781 -0.0516
 7029SOL     OW27887   5.787   6.096   1.654 -0.5896  0.0367  0.6233
 7029SOL    HW227888   5.805   6.003   1.668  0.0459 -0.2955 -1.8933
 7029SOL    HW327889   5.859   6.141   1.699  1.4011 -0.9168 -1.4067
 7029SOL    MW427890   5.799   6.090   1.662 -0.2431 -0.1329  0.0234
 7030SOL     OW27891   6.051   2.193   5.301 -0.0647 -0.5755  0.1793
 7030SOL    HW227892   6.137   2.234   5.311 -0.4784  1.4797 -3.0634
 7030SOL    HW327893   5.989   2.261   5.327 -0.7527 -1.5228  1.0822
 7030SOL    MW427894   6.055   2.208   5.305 -0.2100 -0.4293 -0.1294
 7031SOL     OW27895   1.465   3.221   3.602  0.5601 -0.5709 -0.1427
 7031SOL    HW227896   1.455   3.316   3.607 -1.2917 -0.7129 -0.4451
 7031SOL    HW327897   1.430   3.189   3.686  0.8222 -1.0075 -0.1963
 7031SOL    MW427898   1.459   3.229   3.614  0.3504 -0.6472 -0.1897
 7032SOL     OW27899   4.860   1.954   0.936 -0.0495 -0.4426  0.5630
 7032SOL    HW227900   4.867   2.047   0.958 -0.6996  0.1534 -1.5306
 7032SOL    HW327901   4.856   1.909   1.021 -0.4578  1.4872  1.6153
 7032SOL    MW427902   4.861   1.960   0.951 -0.1891 -0.1094  0.4256
 7033SOL     OW27903   3.323   5.909   5.814  0.6759  0.5124 -0.2385
 7033SOL    HW227904   3.244   5.858   5.830  2.1236 -2.0325 -0.5965
 7033SOL    HW327905   3.386   5.876   5.878  1.4605  2.5084  0.0709
 7033SOL    MW427906   3.321   5.898   5.825  0.9704  0.4400 -0.2449
 7034SOL     OW27907   4.740   3.264   5.190  0.1731 -0.2665 -0.5114
 7034SOL    HW227908   4.747   3.309   5.106 -2.4151 -1.7708 -1.6342
 7034SOL    HW327909   4.659   3.297   5.228  0.9038 -0.2060  1.0582
 7034SOL    MW427910   4.730   3.275   5.184 -0.0719 -0.4570 -0.4524
 7035SOL     OW27911   1.862   1.276   0.268 -0.0534  0.0302 -0.1952
 7035SOL    HW227912   1.857   1.185   0.239 -1.5686  0.3309 -0.9929
 7035SOL    HW327913   1.865   1.327   0.187 -0.3694  0.7370  0.2233
 7035SOL    MW427914   1.862   1.271   0.253 -0.2950  0.1632 -0.2452
 7036SOL     OW27915   2.566   2.632   2.327  0.5737 -0.2433 -0.0096
 7036SOL    HW227916   2.561   2.537   2.333 -0.5665 -0.3236 -1.4891
 7036SOL    HW327917   2.626   2.649   2.255 -0.6927  0.0689 -1.0382
 7036SOL    MW427918   2.573   2.622   2.318  0.2561 -0.2127 -0.3405
 7037SOL     OW27919   3.562   3.420   2.566 -0.1776  0.3120  0.2411
 7037SOL    HW227920   3.585   3.329   2.547  1.1362  0.2595  1.8330
 7037SOL    HW327921   3.512   3.449   2.490  0.9636 -1.1771 -1.1394
 7037SOL    MW427922   3.559   3.412   2.554  0.1463  0.1086  0.2690
 7038SOL     OW27923   5.278   6.014   4.479 -0.2262 -0.2115  0.2308
 7038SOL    HW227924   5.210   5.973   4.426  0.0300  3.6867 -3.6749
 7038SOL    HW327925   5.355   6.015   4.422  0.8431  2.0244  1.5754
 7038SOL    MW427926   5.279   6.009   4.464 -0.0513  0.5978 -0.1071
 7039SOL     OW27927   2.562   3.663   2.646 -0.4683 -0.2384 -0.0645
 7039SOL    HW227928   2.468   3.649   2.654 -0.7422  1.3311 -0.1586
 7039SOL    HW327929   2.574   3.756   2.666  1.0421 -0.3712 -0.2227
 7039SOL    MW427930   2.551   3.673   2.650 -0.3051 -0.0488 -0.0978
 7040SOL     OW27931   6.286   5.478   2.646  0.3039  0.0877 -0.3655
 7040SOL    HW227932   6.323   5.420   2.713  0.0953 -2.4921 -2.3165
 7040SOL    HW327933   6.355   5.541   2.628  1.6854 -1.3035 -0.1469
 7040SOL    MW427934   6.300   5.479   2.653  0.4586 -0.4362 -0.5941
 7041SOL     OW27935   6.042   3.719   3.462  0.0204  0.0847  0.1498
 7041SOL    HW227936   6.048   3.730   3.557 -1.2995 -3.3072  0.7726
 7041SOL    HW327937   5.955   3.753   3.439  0.3358  0.8956  0.1229
 7041SOL    MW427938   6.031   3.725   3.471 -0.1121 -0.2558  0.2284
 7042SOL     OW27939   5.856   5.045   5.146 -0.2931  0.1713 -0.1708
 7042SOL    HW227940   5.787   4.987   5.112 -0.5623  0.5712 -0.3132
 7042SOL    HW327941   5.833   5.131   5.112  1.7192 -0.0955 -2.4342
 7042SOL    MW427942   5.844   5.048   5.137 -0.0631  0.1889 -0.4882
 7043SOL     OW27943   1.875   3.604   1.072 -0.0791  0.3958 -0.3734
 7043SOL    HW227944   1.863   3.586   0.979 -0.4480  0.8332 -0.4177
 7043SOL    HW327945   1.851   3.696   1.082 -2.6780 -0.2805  0.5843
 7043SOL    MW427946   1.870   3.614   1.061 -0.4706  0.3643 -0.2529
 7044SOL     OW27947   0.983   5.120   5.929 -0.4378 -0.0051 -0.7459
 7044SOL    HW227948   0.982   5.104   5.835  0.9260  0.6559 -0.8850
 7044SOL    HW327949   1.046   5.191   5.941 -2.0438  1.2867  0.4652
 7044SOL    MW427950   0.991   5.127   5.918 -0.4698  0.2525 -0.6044
 7045SOL     OW27951   0.754   3.394   1.131  0.9738 -0.1964 -0.2936
 7045SOL    HW227952   0.772   3.477   1.174 -0.6831 -0.2762  0.6346
 7045SOL    HW327953   0.665   3.371   1.158  0.4356 -1.0543 -2.4982
 7045SOL    MW427954   0.744   3.402   1.140  0.6842 -0.3201 -0.4620
 7046SOL     OW27955   4.612   0.786   4.151  0.0637 -0.1389  0.0370
 7046SOL    HW227956   4.653   0.736   4.080  1.6619  1.0036  0.0950
 7046SOL    HW327957   4.565   0.856   4.106  0.7773  0.3713  0.0635
 7046SOL    MW427958   4.611   0.789   4.135  0.3687  0.0791  0.0481
 7047SOL     OW27959   2.143   3.276   3.846  0.2131  0.3925  0.4539
 7047SOL    HW227960   2.093   3.253   3.925 -1.2292  1.7402 -0.0056
 7047SOL    HW327961   2.104   3.222   3.777  0.5651  0.2066  0.3960
 7047SOL    MW427962   2.131   3.266   3.847  0.0693  0.5458  0.3856
 7048SOL     OW27963   6.118   6.418   1.373  0.0739 -0.6052 -0.1915
 7048SOL    HW227964   6.030   6.453   1.385 -0.2532 -1.3973 -0.1784
 7048SOL    HW327965   6.176   6.484   1.413 -0.3777  0.6229 -1.5043
 7048SOL    MW427966   6.114   6.431   1.380 -0.0289 -0.5477 -0.3630
 7049SOL     OW27967   4.379   2.154   1.997 -0.2071  0.0944  0.1709
 7049SOL    HW227968   4.315   2.085   2.012 -2.9439  2.2729 -0.6826
 7049SOL    HW327969   4.417   2.170   2.084 -1.2801 -0.7947  0.8287
 7049SOL    MW427970   4.376   2.147   2.011 -0.7097  0.2645  0.1450
 7050SOL     OW27971   0.762   0.500   0.677  0.3184 -0.6823 -0.2616
 7050SOL    HW227972   0.731   0.513   0.588 -0.2989  1.6678  0.2093
 7050SOL    HW327973   0.852   0.468   0.667 -0.0053 -1.1907 -1.7096
 7050SOL    MW427974   0.770   0.498   0.664  0.1943 -0.4393 -0.3905
 7051SOL     OW27975   6.390   1.044   0.810  0.5497  0.0573 -0.3645
 7051SOL    HW227976   6.466   1.094   0.839 -0.8065  1.5968  0.6984
 7051SOL    HW327977   6.329   1.045   0.884 -0.2702 -1.7167 -0.9319
 7051SOL    MW427978   6.392   1.051   0.823  0.2626  0.0264 -0.2991
 7052SOL     OW27979   1.701   0.579   5.507 -0.0197 -0.0570  0.3661
 7052SOL    HW227980   1.791   0.587   5.477 -0.6864  1.3829 -1.5077
 7052SOL    HW327981   1.657   0.657   5.472 -1.8314 -0.3254  1.8579
 7052SOL    MW427982   1.707   0.591   5.498 -0.3467  0.0976  0.3157
 7053SOL     OW27983   5.204   0.488   2.702  0.9426  0.6563  0.1253
 7053SOL    HW227984   5.174   0.424   2.637  1.1572  0.8429 -0.1638
 7053SOL    HW327985   5.189   0.573   2.661  1.8258  0.7560 -0.0235
 7053SOL    MW427986   5.198   0.491   2.688  1.0875  0.6940  0.0675
 7054SOL     OW27987   2.285   2.065   5.742 -0.2889 -0.0803  0.2606
 7054SOL    HW227988   2.311   1.981   5.779 -0.5067 -0.1893  0.1664
 7054SOL    HW327989   2.364   2.119   5.749 -0.1171 -0.3218  0.2284
 7054SOL    MW427990   2.299   2.061   5.748 -0.2950 -0.1265  0.2439
 7055SOL     OW27991   4.343   0.059   4.587  0.5459 -0.4822  0.3169
 7055SOL    HW227992   4.408   0.123   4.617 -1.3763  1.4195  0.6473
 7055SOL    HW327993   4.300   0.029   4.668  1.0604 -1.8465  0.1186
 7055SOL    MW427994   4.346   0.063   4.602  0.3602 -0.4113  0.3343
 7056SOL     OW27995   3.376   6.182   1.297  0.4383  0.6257 -0.0751
 7056SOL    HW227996   3.286   6.210   1.315  0.1149  0.7619 -1.7414
 7056SOL    HW327997   3.425   6.263   1.287  0.8313  0.5524  1.1020
 7056SOL    MW427998   3.371   6.196   1.298  0.4475  0.6340 -0.1397
 7057SOL     OW27999   1.767   6.307   4.761  0.1302 -0.0599  0.4594
 7057SOL    HW228000   1.774   6.237   4.696  0.3197 -0.8776  1.3378
 7057SOL    HW328001   1.852   6.352   4.758 -0.0744  0.2853 -0.2679
 7057SOL    MW428002   1.780   6.304   4.752  0.1282 -0.1223  0.4794
 7058SOL     OW28003   1.577   4.616   0.889 -0.1600  0.1286  0.3605
 7058SOL    HW228004   1.626   4.677   0.834  0.8502 -0.6945  0.3253
 7058SOL    HW328005   1.517   4.573   0.829 -0.4570  0.6548  0.2750
 7058SOL    MW428006   1.576   4.619   0.874 -0.0659  0.0895  0.3446
 7059SOL     OW28007   1.862   3.755   1.530 -0.5745 -0.1492  0.4147
 7059SOL    HW228008   1.889   3.844   1.508 -1.1582  0.2889  1.4079
 7059SOL    HW328009   1.834   3.718   1.446 -0.7143  0.7386  0.0536
 7059SOL    MW428010   1.862   3.762   1.516 -0.6699  0.0257  0.4980
 7060SOL     OW28011   1.211   2.155   1.198 -0.0077  0.0494 -0.1808
 7060SOL    HW228012   1.232   2.248   1.207 -0.8592  0.2201  0.1033
 7060SOL    HW328013   1.270   2.111   1.259  1.6161  0.2165 -1.5532
 7060SOL    MW428014   1.221   2.161   1.207  0.0942  0.0940 -0.3244
 7061SOL     OW28015   3.448   1.169   5.317  0.1934  0.4409 -0.0734
 7061SOL    HW228016   3.535   1.208   5.317 -0.0457  0.9863  0.2254
 7061SOL    HW328017   3.458   1.087   5.366 -0.3103  2.5215  3.9359
 7061SOL    MW428018   3.461   1.163   5.323  0.0954  0.7874  0.4950
 7062SOL     OW28019   5.263   2.805   2.928  0.1652 -0.2476 -0.4592
 7062SOL    HW228020   5.205   2.750   2.876  2.1229 -1.4341 -1.5123
 7062SOL    HW328021   5.297   2.746   2.996  0.9616  0.1157 -0.5320
 7062SOL    MW428022   5.260   2.790   2.930  0.5286 -0.3562 -0.6077
 7063SOL     OW28023   2.421   4.358   2.913  0.1096 -0.2165 -0.4648
 7063SOL    HW228024   2.334   4.393   2.930  0.1258  0.6987 -2.0522
 7063SOL    HW328025   2.444   4.390   2.825  1.6050 -1.3118 -0.5327
 7063SOL    MW428026   2.413   4.367   2.904  0.3090 -0.2403 -0.6832
 7064SOL     OW28027   0.605   1.157   2.900  0.2830  0.3958 -0.3608
 7064SOL    HW228028   0.676   1.202   2.947 -0.2665  1.3331 -0.4047
 7064SOL    HW328029   0.577   1.220   2.834 -2.6068  1.2796  1.5579
 7064SOL    MW428030   0.611   1.171   2.897 -0.1708  0.6361 -0.1134
 7065SOL     OW28031   4.077   5.089   2.647  0.9913 -0.2760 -0.3133
 7065SOL    HW228032   4.083   5.184   2.651  0.9275 -0.1385 -2.5386
 7065SOL    HW328033   4.146   5.059   2.707  1.1905  1.1540  0.2131
 7065SOL    MW428034   4.087   5.097   2.655  1.0092 -0.0692 -0.5374
 7066SOL     OW28035   0.016   6.095   5.449 -0.6508  0.3737  0.5300
 7066SOL    HW228036   0.036   6.010   5.487  1.2274  0.5683  0.1231
 7066SOL    HW328037  -0.063   6.081   5.397 -1.3996 -0.6553  1.8819
 7066SOL    MW428038   0.009   6.082   5.447 -0.5018  0.2636  0.6547
 7067SOL     OW28039   6.123   1.689   1.171  0.4087 -0.1883 -0.4140
 7067SOL    HW228040   6.030   1.703   1.157  0.3864  1.2362  0.9432
 7067SOL    HW328041   6.129   1.602   1.211 -0.3655 -0.1579 -0.2243
 7067SOL    MW428042   6.112   1.680   1.174  0.3036  0.0036 -0.2099
 7068SOL     OW28043   1.946   5.521   5.661 -0.0882 -0.0781 -0.3657
 7068SOL    HW228044   1.942   5.489   5.571  0.5685 -0.3800 -0.2940
 7068SOL    HW328045   1.915   5.448   5.714 -1.1930  0.3592 -0.3962
 7068SOL    MW428046   1.942   5.507   5.656 -0.1473 -0.0602 -0.3603
 7069SOL     OW28047   2.694   6.347   1.364 -0.2482 -0.0429  0.0509
 7069SOL    HW228048   2.770   6.289   1.358  0.0292  0.4308 -1.3247
 7069SOL    HW328049   2.648   6.318   1.443  1.6418  0.0104  1.2672
 7069SOL    MW428050   2.698   6.336   1.374  0.0377  0.0266  0.0299
 7070SOL     OW28051   4.370   3.712   2.536  0.3296  0.1866  0.2998
 7070SOL    HW228052   4.315   3.786   2.562 -0.1234 -0.5733  1.5792
 7070SOL    HW328053   4.361   3.709   2.440 -1.0930  0.6838  0.3873
 7070SOL    MW428054   4.361   3.721   2.526  0.0821  0.1519  0.4802
 7071SOL     OW28055   1.883   5.633   4.912  0.8824  0.0398  0.1498
 7071SOL    HW228056   1.802   5.597   4.874  0.8696  0.8854 -0.6536
 7071SOL    HW328057   1.868   5.630   5.006  1.3129 -3.0719  0.2125
 7071SOL    MW428058   1.870   5.628   4.919  0.9375 -0.2592  0.0521
 7072SOL     OW28059   3.233   4.016   4.503  0.1627  0.0283  0.1499
 7072SOL    HW228060   3.227   4.000   4.597 -0.3211  0.7458  0.2459
 7072SOL    HW328061   3.144   4.035   4.476  0.3616  0.2269 -0.3778
 7072SOL    MW428062   3.221   4.016   4.512  0.1251  0.1492  0.0929
 7073SOL     OW28063   4.620   2.189   0.072  0.1813  0.1068  0.2181
 7073SOL    HW228064   4.578   2.259   0.123 -2.3451 -2.0777  1.3866
 7073SOL    HW328065   4.557   2.169   0.003  1.1024 -0.6933 -0.4120
 7073SOL    MW428066   4.606   2.196   0.070 -0.0305 -0.2870  0.2891
 7074SOL     OW28067   3.887   2.517   6.185 -0.1625 -0.0949  0.0254
 7074SOL    HW228068   3.851   2.597   6.147  0.3257  0.6828  1.1530
 7074SOL    HW328069   3.812   2.459   6.195 -0.5630  0.3161 -0.5372
 7074SOL    MW428070   3.873   2.520   6.181 -0.1510  0.0620  0.1000
 7075SOL     OW28071   1.302   0.106   6.200  0.1990  0.0220 -0.4072
 7075SOL    HW228072   1.286   0.092   6.293  0.8467  1.0163 -0.1371
 7075SOL    HW328073   1.328   0.020   6.167  0.8550 -0.1424  0.5160
 7075SOL    MW428074   1.303   0.093   6.208  0.3710  0.1315 -0.2498
 7076SOL     OW28075   1.786   3.692   3.789 -0.3326 -0.1233 -0.7655
 7076SOL    HW228076   1.834   3.750   3.848 -0.5198 -0.4453 -0.2906
 7076SOL    HW328077   1.753   3.622   3.845  0.0590 -0.7998 -1.3628
 7076SOL    MW428078   1.788   3.690   3.804 -0.3056 -0.2550 -0.7817
 7077SOL     OW28079   2.177   5.053   3.872 -0.1912  0.5138  0.4256
 7077SOL    HW228080   2.208   4.967   3.900  0.8043  1.0411  0.9906
 7077SOL    HW328081   2.244   5.085   3.812 -1.1909  0.3734 -0.8352
 7077SOL    MW428082   2.190   5.046   3.868 -0.1918  0.5648  0.3338
 7078SOL     OW28083   6.016   3.956   0.299 -0.4586 -0.5270  0.0446
 7078SOL    HW228084   6.007   3.990   0.210 -0.6476 -1.0249 -0.1312
 7078SOL    HW328085   6.095   3.998   0.333 -1.5091  1.2757  0.3879
 7078SOL    MW428086   6.025   3.966   0.292 -0.6221 -0.3548  0.0667
 7079SOL     OW28087   5.075   3.892   0.933 -0.3535 -0.0014 -0.4485
 7079SOL    HW228088   5.022   3.972   0.939 -1.4397 -0.7486  0.3025
 7079SOL    HW328089   5.063   3.862   0.843  0.0249  0.6433 -0.7234
 7079SOL    MW428090   5.066   3.899   0.922 -0.4469 -0.0150 -0.3856
 7080SOL     OW28091   5.492   2.379   3.708 -0.8104 -0.0453 -0.4873
 7080SOL    HW228092   5.521   2.296   3.670 -0.1815 -0.5795  1.0752
 7080SOL    HW328093   5.451   2.354   3.791 -1.8910  1.0932 -0.6447
 7080SOL    MW428094   5.490   2.365   3.714 -0.8700  0.0344 -0.3019
 7081SOL     OW28095   3.755   5.059   6.085 -0.8374  0.3052  0.0227
 7081SOL    HW228096   3.714   5.125   6.142  1.1653 -0.3912  2.4608
 7081SOL    HW328097   3.839   5.099   6.060 -1.0843  0.0114 -1.3010
 7081SOL    MW428098   3.761   5.073   6.090 -0.6057  0.1746  0.1698
 7082SOL     OW28099   1.943   4.897   2.999 -0.1434 -0.0070  0.3045
 7082SOL    HW228100   1.923   4.976   2.950  0.8012  0.5206  0.7383
 7082SOL    HW328101   1.912   4.915   3.088  1.2325  0.4082  0.7215
 7082SOL    MW428102   1.936   4.909   3.004  0.1628  0.1174  0.4167
 7083SOL     OW28103   0.688   4.031   2.501  0.6246  0.4511 -0.0419
 7083SOL    HW228104   0.749   3.988   2.441 -0.1037 -0.5032 -0.1349
 7083SOL    HW328105   0.690   3.977   2.580 -0.5398  0.0138 -0.2789
 7083SOL    MW428106   0.696   4.018   2.503  0.3749  0.2675 -0.0855
 7084SOL     OW28107   0.750   0.675   1.399  0.2132 -1.3029  0.3747
 7084SOL    HW228108   0.786   0.761   1.376  0.1668 -1.1378  0.9229
 7084SOL    HW328109   0.825   0.615   1.392  0.2815 -1.1917  0.1544
 7084SOL    MW428110   0.765   0.678   1.395  0.2161 -1.2664  0.4180
 7085SOL     OW28111   6.238   4.565   4.885 -0.3783 -0.1879 -0.7056
 7085SOL    HW228112   6.314   4.512   4.862 -1.1854 -0.4560 -2.9386
 7085SOL    HW328113   6.190   4.513   4.949  0.2022 -0.9425 -0.8759
 7085SOL    MW428114   6.242   4.551   4.891 -0.4082 -0.3228 -1.0227
 7086SOL     OW28115   5.212   1.913   6.241 -0.1269 -0.6822 -0.0963
 7086SOL    HW228116   5.295   1.960   6.232 -1.4466  1.5877 -1.4746
 7086SOL    HW328117   5.184   1.930   6.330  0.2011 -0.2472 -0.0743
 7086SOL    MW428118   5.219   1.921   6.251 -0.2577 -0.3253 -0.2753
 7087SOL     OW28119   1.898   1.734   4.256 -0.0726  0.5526  0.5044
 7087SOL    HW228120   1.921   1.666   4.320 -1.4245 -0.5242 -0.1168
 7087SOL    HW328121   1.904   1.816   4.305  1.4552  0.0035  1.3053
 7087SOL    MW428122   1.902   1.736   4.271 -0.0494  0.3381  0.5281
 7088SOL     OW28123   1.669   2.942   0.299  0.6183  0.5892  0.1009
 7088SOL    HW228124   1.723   2.866   0.321 -0.2043  0.2728  1.0954
 7088SOL    HW328125   1.665   2.993   0.380 -0.5782  0.5965  0.0572
 7088SOL    MW428126   1.676   2.938   0.312  0.3519  0.5484  0.2264
 7089SOL     OW28127   2.163   3.651   3.722  0.7642  0.1904 -0.8151
 7089SOL    HW228128   2.158   3.624   3.814  2.5491 -1.1929 -1.0807
 7089SOL    HW328129   2.171   3.746   3.725  2.0164  0.0738  0.5430
 7089SOL    MW428130   2.163   3.660   3.734  1.1649 -0.0075 -0.6710
 7090SOL     OW28131   5.604   6.127   1.253  0.2445  0.1995 -0.6336
 7090SOL    HW228132   5.531   6.148   1.311 -0.9638 -2.0555 -1.2226
 7090SOL    HW328133   5.589   6.183   1.176  0.9878  2.0540  0.4866
 7090SOL    MW428134   5.592   6.137   1.250  0.1831  0.1466 -0.5635
 7091SOL     OW28135   3.723   6.331   5.748  0.0727 -0.8608 -0.1531
 7091SOL    HW228136   3.689   6.421   5.750  1.8793 -0.1288  1.5994
 7091SOL    HW328137   3.659   6.281   5.798 -1.5664 -0.8745 -2.1216
 7091SOL    MW428138   3.710   6.336   5.755  0.0948 -0.7660 -0.1816
 7092SOL     OW28139   0.637   5.543   3.736  0.2481 -0.7611  0.1972
 7092SOL    HW228140   0.566   5.567   3.677  1.6527  0.8961 -0.9252
 7092SOL    HW328141   0.691   5.481   3.687 -0.1600 -1.6698  0.8741
 7092SOL    MW428142   0.635   5.538   3.722  0.3796 -0.6624  0.1384
 7093SOL     OW28143   5.263   6.127   2.428 -0.2156 -0.2574 -0.2885
 7093SOL    HW228144   5.226   6.045   2.461  0.4067  0.5697  2.8138
 7093SOL    HW328145   5.235   6.193   2.491  1.7025  1.3987 -1.0601
 7093SOL    MW428146   5.255   6.125   2.441  0.1196  0.0702  0.0190
 7094SOL     OW28147   3.672   1.908   0.234  0.9554 -0.8573  0.2465
 7094SOL    HW228148   3.590   1.935   0.194  1.8320  0.5080 -0.7400
 7094SOL    HW328149   3.670   1.946   0.322  0.0625 -1.7997  0.6446
 7094SOL    MW428150   3.661   1.917   0.240  0.9533 -0.8015  0.1689
 7095SOL     OW28151   1.271   4.221   3.334  0.1464 -0.2973 -0.0136
 7095SOL    HW228152   1.219   4.231   3.414 -0.2688 -0.4206 -0.2693
 7095SOL    HW328153   1.301   4.130   3.337  1.1222  0.0246  0.5986
 7095SOL    MW428154   1.268   4.211   3.345  0.2203 -0.2711  0.0334
 7096SOL     OW28155   3.572   4.038   5.526  0.7376  0.3437  0.1833
 7096SOL    HW228156   3.606   4.026   5.615  0.6664  0.5545  0.2392
 7096SOL    HW328157   3.554   4.132   5.520 -0.2745  0.1725  0.3129
 7096SOL    MW428158   3.574   4.049   5.537  0.5947  0.3489  0.2078
 7097SOL     OW28159   4.334   2.746   3.801  0.0857 -0.0410  0.0323
 7097SOL    HW228160   4.249   2.703   3.809  0.2291 -0.4216 -0.3810
 7097SOL    HW328161   4.396   2.685   3.841  0.5881 -1.2552 -2.3714
 7097SOL    MW428162   4.331   2.732   3.807  0.1709 -0.2514 -0.3394
 7098SOL     OW28163   0.713   6.146   0.239 -0.1298 -0.3257 -0.1834
 7098SOL    HW228164   0.760   6.072   0.201  0.2478 -1.4527  2.2894
 7098SOL    HW328165   0.773   6.180   0.306 -1.6253  0.0883  0.9885
 7098SOL    MW428166   0.727   6.141   0.243 -0.2773 -0.4198  0.2975
 7099SOL     OW28167   1.773   1.489   4.101 -0.3788 -0.3820 -0.5045
 7099SOL    HW228168   1.750   1.439   4.022 -0.4347 -0.2710 -0.5580
 7099SOL    HW328169   1.776   1.580   4.072 -0.9277 -0.2814 -0.2624
 7099SOL    MW428170   1.771   1.494   4.087 -0.4586 -0.3541 -0.4796
 7100SOL     OW28171   5.029   3.579   0.873  0.1840  0.4842 -0.6211
 7100SOL    HW228172   5.111   3.627   0.865  0.2359  0.8212  1.4749
 7100SOL    HW328173   4.962   3.641   0.843  0.3575  1.5293  1.0546
 7100SOL    MW428174   5.031   3.593   0.868  0.2137  0.6666 -0.1235
 7101SOL     OW28175   4.712   4.604   3.797  0.1321  0.0755 -0.3756
 7101SOL    HW228176   4.689   4.511   3.790 -0.3545  0.2062 -0.5543
 7101SOL    HW328177   4.786   4.605   3.857  0.5399 -0.4875 -0.8564
 7101SOL    MW428178   4.719   4.592   3.804  0.1217  0.0185 -0.4626
 7102SOL     OW28179   4.586   2.318   1.669  0.1885 -0.0144 -0.1691
 7102SOL    HW228180   4.518   2.385   1.662  0.2154  0.0610  0.2631
 7102SOL    HW328181   4.552   2.243   1.621 -0.8638 -0.5111  1.2914
 7102SOL    MW428182   4.573   2.317   1.662  0.0532 -0.0699  0.0806
 7103SOL     OW28183   2.385   3.688   1.450 -0.2333  0.7519  0.0943
 7103SOL    HW228184   2.322   3.617   1.439 -0.0414  0.6610 -0.5188
 7103SOL    HW328185   2.398   3.722   1.361  2.6244 -1.0364 -0.2890
 7103SOL    MW428186   2.379   3.683   1.437  0.1691  0.5040 -0.0371
 7104SOL     OW28187   4.652   4.004   0.494  0.2847 -0.0743 -0.1080
 7104SOL    HW228188   4.658   4.047   0.409  1.7615 -0.3969 -0.1908
 7104SOL    HW328189   4.738   4.017   0.534 -0.6485  0.8409  1.7336
 7104SOL    MW428190   4.664   4.011   0.488  0.3564  0.0039  0.1241
 7105SOL     OW28191   4.025   1.805   1.602  0.7489 -0.5018  0.0130
 7105SOL    HW228192   4.043   1.863   1.528 -3.3569  0.0603 -0.7646
 7105SOL    HW328193   4.070   1.846   1.676  0.1636  2.2460 -1.0460
 7105SOL    MW428194   4.034   1.818   1.602  0.1300 -0.0651 -0.2293
 7106SOL     OW28195   2.833   1.662   6.154 -0.0502  0.1831  0.2094
 7106SOL    HW228196   2.926   1.684   6.143  0.1585 -0.4028  0.7382
 7106SOL    HW328197   2.832   1.567   6.165 -0.9008 -0.0825 -1.7185
 7106SOL    MW428198   2.845   1.652   6.154 -0.1349  0.0707  0.0248
 7107SOL     OW28199   2.083   3.434   5.419  0.2224  0.1007 -0.3993
 7107SOL    HW228200   2.035   3.517   5.429  0.5913  0.4037 -1.0592
 7107SOL    HW328201   2.075   3.391   5.504 -0.7856  0.3758 -0.3420
 7107SOL    MW428202   2.076   3.439   5.431  0.1381  0.1769 -0.4788
 7108SOL     OW28203   4.649   1.254   5.547 -0.6629  0.4291  0.4149
 7108SOL    HW228204   4.566   1.260   5.500 -0.3742 -0.4790 -0.2419
 7108SOL    HW328205   4.714   1.290   5.486 -0.5185  0.7910  0.7779
 7108SOL    MW428206   4.647   1.259   5.532 -0.6058  0.3570  0.3761
 7109SOL     OW28207   3.917   6.480   0.208 -0.1541 -0.0537  0.0748
 7109SOL    HW228208   3.958   6.422   0.144  2.0108  0.4906  0.8977
 7109SOL    HW328209   3.964   6.465   0.289 -2.9400 -0.8389  1.6925
 7109SOL    MW428210   3.928   6.471   0.210 -0.2361 -0.0855  0.3968
 7110SOL     OW28211   1.704   4.849   0.764  0.0683  0.0512  0.0336
 7110SOL    HW228212   1.792   4.874   0.738  0.9791  0.3617  3.0700
 7110SOL    HW328213   1.662   4.931   0.791 -1.1221 -0.1296 -1.1109
 7110SOL    MW428214   1.710   4.863   0.764  0.0314  0.0683  0.2832
 7111SOL     OW28215   0.525   2.948   0.699  0.1621 -0.5289  0.1689
 7111SOL    HW228216   0.538   2.972   0.791 -1.5863  1.6977 -0.0615
 7111SOL    HW328217   0.445   2.896   0.699  0.7861 -1.5121 -0.0020
 7111SOL    MW428218   0.516   2.944   0.711  0.0137 -0.3649  0.1160
 7112SOL     OW28219   3.594   4.422   2.934  0.1199 -0.3304  0.1050
 7112SOL    HW228220   3.561   4.482   2.867 -2.6389 -0.8344  0.8955
 7112SOL    HW328221   3.625   4.346   2.886  0.4017  0.2659 -0.6883
 7112SOL    MW428222   3.594   4.420   2.919 -0.2069 -0.3182  0.1046
 7113SOL     OW28223   1.937   5.715   0.934 -0.4439 -0.2267 -0.6669
 7113SOL    HW228224   1.985   5.658   0.874  1.4831 -2.0726  2.4142
 7113SOL    HW328225   1.998   5.786   0.955 -1.0420  0.3064 -0.6658
 7113SOL    MW428226   1.951   5.717   0.929 -0.2686 -0.3999 -0.2602
 7114SOL     OW28227   3.151   2.707   2.200 -0.3667 -0.0112 -0.0219
 7114SOL    HW228228   3.242   2.687   2.179 -0.7700 -1.1849 -0.7170
 7114SOL    HW328229   3.156   2.754   2.284  0.8453 -0.3315  0.1024
 7114SOL    MW428230   3.164   2.711   2.208 -0.2600 -0.2084 -0.0972
 7115SOL     OW28231   1.280   5.017   0.667 -0.0945  0.1153  0.2846
 7115SOL    HW228232   1.264   5.110   0.651 -1.7129  0.0871  1.4883
 7115SOL    HW328233   1.319   5.014   0.754  0.7115 -0.2957 -0.0800
 7115SOL    MW428234   1.283   5.029   0.676 -0.2017  0.0573  0.3953
 7116SOL     OW28235   4.070   3.857   4.061  0.2651  0.2697  0.0466
 7116SOL    HW228236   4.163   3.834   4.070 -0.0198 -1.4709 -1.0293
 7116SOL    HW328237   4.045   3.820   3.976 -1.6832 -0.2402  0.8098
 7116SOL    MW428238   4.079   3.849   4.051 -0.0295 -0.0272  0.0053
 7117SOL     OW28239   1.030   1.232   2.965  0.0188 -0.1521  0.1170
 7117SOL    HW228240   1.032   1.138   2.983  0.2149 -0.3307 -0.7555
 7117SOL    HW328241   1.113   1.249   2.919 -0.2824  0.3308 -0.2586
 7117SOL    MW428242   1.041   1.222   2.961  0.0049 -0.1120 -0.0477
 7118SOL     OW28243   4.099   6.442   4.179 -0.1930  0.4243  0.3464
 7118SOL    HW228244   4.111   6.474   4.269  0.7276 -0.3156  0.5037
 7118SOL    HW328245   4.005   6.446   4.165 -0.1819  2.3644  0.6554
 7118SOL    MW428246   4.088   6.446   4.189 -0.0701  0.5826  0.4080
 7119SOL     OW28247   2.424   1.861   2.654 -0.0755 -0.6572 -0.4514
 7119SOL    HW228248   2.351   1.913   2.620 -1.2596 -0.9747  1.4296
 7119SOL    HW328249   2.465   1.917   2.720 -0.0491 -1.3123  0.0978
 7119SOL    MW428250   2.420   1.875   2.658 -0.2282 -0.7856 -0.1308
 7120SOL     OW28251   1.611   2.644   4.509 -0.2913  0.0019 -0.4791
 7120SOL    HW228252   1.587   2.712   4.572 -1.2971 -0.3458 -0.4607
 7120SOL    HW328253   1.703   2.626   4.526 -0.4919  0.0587  0.7595
 7120SOL    MW428254   1.620   2.651   4.519 -0.4505 -0.0365 -0.3133
 7121SOL     OW28255   0.927   0.254   0.638 -0.0633 -0.0433 -0.1502
 7121SOL    HW228256   0.984   0.225   0.567 -0.8959 -1.7452 -0.1811
 7121SOL    HW328257   0.839   0.231   0.609 -0.6280  1.0419  0.6044
 7121SOL    MW428258   0.923   0.247   0.625 -0.2477 -0.1247 -0.0547
 7122SOL     OW28259   0.124   5.324   5.812  0.4617  0.4199 -0.8868
 7122SOL    HW228260   0.083   5.411   5.811 -2.2421 -0.7480 -1.0641
 7122SOL    HW328261   0.059   5.266   5.773  1.8123 -1.8623 -0.0015
 7122SOL    MW428262   0.110   5.328   5.807  0.2832 -0.0353 -0.7934
 7123SOL     OW28263   1.571   5.138   5.964  0.1473 -0.2987 -0.5311
 7123SOL    HW228264   1.559   5.067   6.028  0.0864  0.6303  0.5240
 7123SOL    HW328265   1.664   5.158   5.969  0.1015 -0.0808 -0.5774
 7123SOL    MW428266   1.582   5.131   5.973  0.1332 -0.1474 -0.3980
 7124SOL     OW28267   3.512   1.457   3.021  0.0631  0.5239  0.2766
 7124SOL    HW228268   3.424   1.441   3.055  0.0164 -0.3631 -0.2195
 7124SOL    HW328269   3.498   1.509   2.942 -0.1545 -0.7915 -0.5938
 7124SOL    MW428270   3.499   1.461   3.015  0.0282  0.2333  0.0963
 7125SOL     OW28271   4.998   4.966   3.162  0.2010  0.0666 -0.0838
 7125SOL    HW228272   4.994   4.959   3.257 -3.9776 -0.3879 -0.1014
 7125SOL    HW328273   4.932   5.033   3.140  0.8860  0.0015 -2.6754
 7125SOL    MW428274   4.988   4.974   3.171 -0.2600 -0.0020 -0.4281
 7126SOL     OW28275   0.159   5.908   0.924  0.1380 -0.2589  0.3187
 7126SOL    HW228276   0.099   5.977   0.952  0.8641  0.4184  0.2500
 7126SOL    HW328277   0.105   5.829   0.918 -0.8398  0.4304 -0.2049
 7126SOL    MW428278   0.144   5.907   0.927  0.1048 -0.0786  0.2406
 7127SOL     OW28279   2.462   3.074   3.266  0.4216  0.0921 -0.2251
 7127SOL    HW228280   2.380   3.077   3.218  0.6419  1.1886 -0.5653
 7127SOL    HW328281   2.491   2.983   3.258 -1.1396 -0.5161  0.5923
 7127SOL    MW428282   2.455   3.062   3.258  0.2447  0.1565 -0.1621
 7128SOL     OW28283   3.020   4.557   0.396 -0.3580 -0.3092  0.0178
 7128SOL    HW228284   3.102   4.606   0.396 -0.7813  0.4133  0.7680
 7128SOL    HW328285   3.006   4.532   0.487  0.1705 -2.4174 -0.4186
 7128SOL    MW428286   3.029   4.560   0.408 -0.3441 -0.4921  0.0592
 7129SOL     OW28287   0.586   2.217   2.985  1.0517 -0.3700 -0.1809
 7129SOL    HW228288   0.505   2.250   3.023  1.2993  0.3951 -0.3023
 7129SOL    HW328289   0.560   2.179   2.901  0.6887 -0.9669  0.1931
 7129SOL    MW428290   0.572   2.216   2.979  1.0365 -0.3478 -0.1476
 7130SOL     OW28291   4.391   2.775   1.752 -0.0689 -0.2140  0.4264
 7130SOL    HW228292   4.378   2.849   1.811  1.6125 -0.5802  1.2968
 7130SOL    HW328293   4.460   2.803   1.693  0.6037 -1.0765  0.7811
 7130SOL    MW428294   4.398   2.789   1.752  0.2417 -0.3761  0.5880
 7131SOL     OW28295   3.314   0.867   1.745 -0.2415 -0.0723  0.3360
 7131SOL    HW228296   3.298   0.961   1.754 -1.5093 -0.2496  0.1329
 7131SOL    HW328297   3.235   0.833   1.704 -1.0028 -1.6440  2.8582
 7131SOL    MW428298   3.301   0.875   1.741 -0.5092 -0.3031  0.6420
 7132SOL     OW28299   3.741   3.586   5.979  0.0762  0.1287 -0.7012
 7132SOL    HW228300   3.709   3.522   6.043 -2.5794  0.3259 -1.7142
 7132SOL    HW328301   3.691   3.665   5.997  2.3029  1.5619 -0.3957
 7132SOL    MW428302   3.730   3.588   5.990  0.0196  0.3438 -0.7945
 7133SOL     OW28303   2.808   1.914   3.387 -0.5011  0.2797  0.0062
 7133SOL    HW228304   2.841   1.969   3.458  0.4208 -0.4259  0.1484
 7133SOL    HW328305   2.797   1.828   3.427  1.9321 -0.6573 -1.1014
 7133SOL    MW428306   2.811   1.910   3.402 -0.0584  0.0630 -0.1212
 7134SOL     OW28307   2.479   5.832   4.464 -0.3589  0.3801 -0.0008
 7134SOL    HW228308   2.537   5.756   4.472  0.5166  0.8352 -1.4978
 7134SOL    HW328309   2.393   5.795   4.447 -0.1892 -0.2927  0.5651
 7134SOL    MW428310   2.475   5.817   4.463 -0.2210  0.3513 -0.1236
 7135SOL     OW28311   1.467   0.705   1.965 -0.3252  0.3728  0.2268
 7135SOL    HW228312   1.454   0.734   2.055 -0.1345  1.9246 -0.2205
 7135SOL    HW328313   1.506   0.780   1.920  3.6709 -1.6531 -0.1634
 7135SOL    MW428314   1.471   0.719   1.971  0.2272  0.3103  0.1163
 7136SOL     OW28315   1.131   1.015   3.753  0.0452 -0.3033  0.0200
 7136SOL    HW228316   1.092   1.086   3.804 -0.1014 -1.7167  1.9767
 7136SOL    HW328317   1.222   1.011   3.783 -0.0649 -1.2130  0.2456
 7136SOL    MW428318   1.138   1.024   3.763  0.0114 -0.6098  0.3079
 7137SOL     OW28319   3.030   3.207   4.961  0.2361 -0.7668  0.9147
 7137SOL    HW228320   2.950   3.188   5.011 -0.5093 -1.5523 -0.5227
 7137SOL    HW328321   2.999   3.248   4.881  1.5408  2.2404  1.8076
 7137SOL    MW428322   3.015   3.210   4.957  0.3099 -0.4737  0.8428
 7138SOL     OW28323   5.098   6.094   4.014  0.2373 -0.2023 -0.3715
 7138SOL    HW228324   5.018   6.062   3.974 -0.4271  1.4900 -0.4499
 7138SOL    HW328325   5.168   6.052   3.964 -0.4522 -3.8822  1.3834
 7138SOL    MW428326   5.097   6.084   4.002  0.0587 -0.4645 -0.1503
 7139SOL     OW28327   3.066   4.431   0.933 -0.2359 -0.4594  0.0554
 7139SOL    HW228328   2.991   4.374   0.914 -0.0766 -0.4978 -0.4709
 7139SOL    HW328329   3.142   4.376   0.920  0.0006  0.2508 -2.0094
 7139SOL    MW428330   3.066   4.416   0.929 -0.1837 -0.3707 -0.2865
 7140SOL     OW28331   5.375   3.456   5.731 -0.1640  0.2208  0.1443
 7140SOL    HW228332   5.357   3.521   5.663 -0.6920 -0.3091 -0.2261
 7140SOL    HW328333   5.331   3.490   5.809 -0.4797  0.2880 -0.0622
 7140SOL    MW428334   5.367   3.469   5.733 -0.2753  0.1597  0.0682
 7141SOL     OW28335   0.588   0.975   3.829  0.2985  0.4775 -0.4729
 7141SOL    HW228336   0.603   0.887   3.863  0.0474 -0.6584 -3.0902
 7141SOL    HW328337   0.499   0.997   3.857  0.0061 -0.5160 -0.6027
 7141SOL    MW428338   0.578   0.967   3.837  0.2268  0.1965 -0.8354
 7142SOL     OW28339   3.362   4.360   4.539  0.2144 -0.5646  0.0413
 7142SOL    HW228340   3.408   4.306   4.474  0.7620 -1.2944  0.9949
 7142SOL    HW328341   3.409   4.342   4.621 -1.4891 -0.9694  0.9672
 7142SOL    MW428342   3.374   4.350   4.541  0.0619 -0.7143  0.2893
 7143SOL     OW28343   3.131   5.232   0.626 -0.2988  0.0989  0.5616
 7143SOL    HW228344   3.069   5.305   0.624  0.2253  0.6323  2.3147
 7143SOL    HW328345   3.091   5.168   0.684 -0.1861 -0.4924 -0.0036
 7143SOL    MW428346   3.118   5.233   0.633 -0.2147  0.0912  0.7183
 7144SOL     OW28347   2.701   0.895   1.534  0.2907  0.1644 -0.1853
 7144SOL    HW228348   2.689   0.814   1.584 -0.5420  0.6272  0.3914
 7144SOL    HW328349   2.622   0.901   1.480  0.8968 -0.0051 -1.1111
 7144SOL    MW428350   2.689   0.885   1.533  0.2608  0.2031 -0.2314
 7145SOL     OW28351   1.626   5.457   2.438  0.0512 -0.4827  0.0992
 7145SOL    HW228352   1.647   5.413   2.521  1.2615  0.2663  0.2218
 7145SOL    HW328353   1.541   5.422   2.413  0.3197 -1.8119  0.9208
 7145SOL    MW428354   1.618   5.447   2.446  0.2463 -0.5593  0.2238
 7146SOL     OW28355   0.407   5.740   1.326 -0.7267  0.1463  0.3400
 7146SOL    HW228356   0.417   5.693   1.409  1.8269  0.8808  0.5275
 7146SOL    HW328357   0.453   5.685   1.262 -1.0239  0.5238 -0.2089
 7146SOL    MW428358   0.414   5.726   1.329 -0.4290  0.2930  0.2923
 7147SOL     OW28359   4.964   3.017   5.147  0.4886  0.2751 -0.1121
 7147SOL    HW228360   4.947   2.923   5.133  1.7774  0.2844 -2.1605
 7147SOL    HW328361   4.965   3.027   5.242  2.0568 -2.1523  0.2358
 7147SOL    MW428362   4.962   3.006   5.157  0.8656 -0.0440 -0.3364
 7148SOL     OW28363   6.111   1.741   1.799 -0.2575  0.1393  0.1729
 7148SOL    HW228364   6.171   1.668   1.784 -0.4311  0.1181 -0.4786
 7148SOL    HW328365   6.120   1.796   1.721 -0.0242  0.8986  0.7211
 7148SOL    MW428366   6.120   1.738   1.786 -0.2496  0.2367  0.1592
 7149SOL     OW28367   2.479   3.015   1.668  0.4772  1.0664 -0.3293
 7149SOL    HW228368   2.464   2.993   1.760 -0.8162 -0.2230 -0.8244
 7149SOL    HW328369   2.512   3.105   1.671  2.3393  0.4166  1.5095
 7149SOL    MW428370   2.482   3.024   1.680  0.5522  0.8106 -0.1520
 7150SOL     OW28371   1.593   2.275   1.704 -0.7292 -0.1755  0.1667
 7150SOL    HW228372   1.645   2.195   1.692 -0.2715  0.1217  0.1593
 7150SOL    HW328373   1.506   2.243   1.726 -0.9346 -0.7204 -1.2675
 7150SOL    MW428374   1.589   2.260   1.705 -0.6959 -0.2082 -0.0235
 7151SOL     OW28375   0.923   0.766   3.328 -0.2096 -0.0389  0.1180
 7151SOL    HW228376   0.867   0.831   3.287  0.6682  0.8897  0.3407
 7151SOL    HW328377   0.935   0.798   3.418 -1.3293 -1.5343  0.8337
 7151SOL    MW428378   0.917   0.779   3.335 -0.2415 -0.1137  0.2418
 7152SOL     OW28379   0.383   3.603   2.920 -0.1518 -0.2956  0.4912
 7152SOL    HW228380   0.422   3.624   2.835 -1.6383 -0.8285 -0.3619
 7152SOL    HW328381   0.446   3.543   2.961  1.2017  0.9583  0.3570
 7152SOL    MW428382   0.397   3.598   2.914 -0.1694 -0.2005  0.3610
 7153SOL     OW28383   1.837   5.698   0.524  0.4561 -0.0070 -0.3965
 7153SOL    HW228384   1.834   5.628   0.458 -0.1243 -2.0118  1.6176
 7153SOL    HW328385   1.768   5.759   0.498 -0.0525 -0.9790 -1.4108
 7153SOL    MW428386   1.828   5.696   0.512  0.3125 -0.3998 -0.2646
 7154SOL     OW28387   3.922   1.885   4.831 -0.3985 -0.1624  0.3001
 7154SOL    HW228388   3.868   1.912   4.906 -0.2039 -0.7461  0.6568
 7154SOL    HW328389   3.895   1.943   4.760 -2.0632 -0.9281  0.2553
 7154SOL    MW428390   3.911   1.896   4.832 -0.5925 -0.3405  0.3413
 7155SOL     OW28391   3.292   6.254   5.528 -0.2597 -0.4655 -0.4166
 7155SOL    HW228392   3.226   6.247   5.460 -0.0876 -0.1952 -0.6136
 7155SOL    HW328393   3.325   6.165   5.540 -0.1956 -0.4907 -0.7798
 7155SOL    MW428394   3.288   6.241   5.521 -0.2285 -0.4332 -0.4905
 7156SOL     OW28395   0.113   6.237   0.494 -0.4363 -0.1092  0.4325
 7156SOL    HW228396   0.084   6.285   0.571 -2.1361 -0.7091  0.2165
 7156SOL    HW328397   0.162   6.162   0.528  0.6643  0.7747  0.8286
 7156SOL    MW428398   0.115   6.233   0.508 -0.5153 -0.0717  0.4563
 7157SOL     OW28399   5.942   1.361   1.671  0.1103  0.2360  0.2262
 7157SOL    HW228400   6.002   1.294   1.640  1.5239  0.8139  1.5990
 7157SOL    HW328401   5.954   1.434   1.610  0.1668  0.0389  0.0004
 7157SOL    MW428402   5.951   1.362   1.659  0.3043  0.2863  0.3775
 7158SOL     OW28403   6.316   5.704   1.861  0.0853  0.3286 -0.2677
 7158SOL    HW228404   6.337   5.651   1.784 -0.2206  1.4777 -1.1760
 7158SOL    HW328405   6.255   5.770   1.829 -0.4653  0.5109  1.0897
 7158SOL    MW428406   6.311   5.706   1.847 -0.0277  0.5042 -0.2084
 7159SOL     OW28407   0.079   2.275   4.440 -0.2183  0.6490 -0.4903
 7159SOL    HW228408   0.079   2.197   4.385  0.1405 -0.3164  0.8329
 7159SOL    HW328409   0.164   2.316   4.423  1.1628 -1.2184  1.4131
 7159SOL    MW428410   0.091   2.270   4.430  0.0113  0.2752 -0.0646
 7160SOL     OW28411   6.409   2.687   2.927 -0.0167  0.0267 -0.8873
 7160SOL    HW228412   6.468   2.672   3.001  1.5227  0.2671 -2.0319
 7160SOL    HW328413   6.322   2.685   2.966  0.7703  0.8057  1.0543
 7160SOL    MW428414   6.405   2.685   2.942  0.2903  0.1612 -0.7822
 7161SOL     OW28415   2.110   1.607   6.246  0.2344  0.2645 -0.2764
 7161SOL    HW228416   2.109   1.511   6.246  0.1094  0.2208  1.7724
 7161SOL    HW328417   2.095   1.631   6.154 -0.7781 -1.6598 -0.6651
 7161SOL    MW428418   2.108   1.598   6.234  0.0843  0.0048 -0.0574
 7162SOL     OW28419   5.660   3.640   0.757 -0.1098 -0.1628  0.4500
 7162SOL    HW228420   5.598   3.612   0.690 -1.9371 -1.2089  2.4897
 7162SOL    HW328421   5.717   3.564   0.771 -0.0477 -0.1151  0.4609
 7162SOL    MW428422   5.660   3.626   0.750 -0.3427 -0.2945  0.7205
 7163SOL     OW28423   3.697   3.472   5.327  0.1922  0.1393 -0.0526
 7163SOL    HW228424   3.784   3.511   5.324 -0.2335  1.0987 -0.4065
 7163SOL    HW328425   3.639   3.545   5.346 -0.4844 -0.5944  0.8325
 7163SOL    MW428426   3.701   3.487   5.329  0.0468  0.1691  0.0175
 7164SOL     OW28427   2.997   2.249   6.189  0.1225 -0.4830 -0.1628
 7164SOL    HW228428   3.055   2.275   6.260  0.5009 -0.1552 -0.5911
 7164SOL    HW328429   3.042   2.176   6.147  0.2936 -0.1422 -0.5787
 7164SOL    MW428430   3.010   2.243   6.193  0.1950 -0.3948 -0.2742
 7165SOL     OW28431   6.318   3.273   0.632 -0.1590  0.2401 -0.0488
 7165SOL    HW228432   6.307   3.201   0.694  0.4062  0.0204 -0.1963
 7165SOL    HW328433   6.247   3.334   0.653 -0.0023  0.1437  0.7788
 7165SOL    MW428434   6.307   3.271   0.643 -0.0637  0.1984  0.0409
 7166SOL     OW28435   4.571   3.521   2.692  0.4256  0.2891  0.1781
 7166SOL    HW228436   4.575   3.425   2.685 -0.5394  0.1559  1.1728
 7166SOL    HW328437   4.571   3.551   2.601  2.9869 -0.5050 -0.1661
 7166SOL    MW428438   4.571   3.512   2.679  0.6362  0.1668  0.2639
 7167SOL     OW28439   5.459   3.049   2.448 -0.8181  0.0595 -0.4008
 7167SOL    HW228440   5.548   3.083   2.452 -0.1753 -1.5226 -0.2512
 7167SOL    HW328441   5.471   2.955   2.431 -2.4656 -0.1296 -0.6131
 7167SOL    MW428442   5.473   3.041   2.447 -0.9506 -0.1742 -0.4091
 7168SOL     OW28443   0.362   1.947   6.188  0.3317  0.2353 -0.4553
 7168SOL    HW228444   0.442   1.992   6.215  0.2134  1.2355 -1.7081
 7168SOL    HW328445   0.302   2.017   6.164 -0.6776 -0.5278 -0.2240
 7168SOL    MW428446   0.365   1.962   6.189  0.1829  0.2666 -0.5901
 7169SOL     OW28447   5.813   4.642   3.387  0.6647 -0.0936  0.0655
 7169SOL    HW228448   5.720   4.666   3.387  1.1509  1.9457  0.0628
 7169SOL    HW328449   5.842   4.657   3.297  0.8806 -1.3629 -0.1017
 7169SOL    MW428450   5.804   4.647   3.375  0.7574  0.0080  0.0431
 7170SOL     OW28451   3.603   0.397   1.349  0.6367 -0.1172 -0.3627
 7170SOL    HW228452   3.563   0.399   1.436  1.1776  1.0116 -0.1345
 7170SOL    HW328453   3.690   0.361   1.363 -0.0546 -2.1276 -0.7973
 7170SOL    MW428454   3.609   0.392   1.362  0.6168 -0.2335 -0.3899
 7171SOL     OW28455   2.512   1.628   0.015 -0.3267 -0.2650 -0.4857
 7171SOL    HW228456   2.454   1.629  -0.061 -0.8248  0.6581 -0.1053
 7171SOL    HW328457   2.471   1.688   0.078  0.9901  0.3727 -0.1897
 7171SOL    MW428458   2.499   1.636   0.013 -0.2187 -0.0591 -0.3964
 7172SOL     OW28459   6.417   3.203   5.687  0.0103  0.2508 -0.0855
 7172SOL    HW228460   6.410   3.299   5.692  2.0878  0.4089  0.4581
 7172SOL    HW328461   6.463   3.178   5.766 -0.5450 -1.2330 -0.2080
 7172SOL    MW428462   6.422   3.213   5.698  0.2111  0.0759 -0.0300
 7173SOL     OW28463   2.285   2.018   2.240  0.1132  0.5304 -0.0633
 7173SOL    HW228464   2.325   2.028   2.326 -0.5952  1.1658  0.2032
 7173SOL    HW328465   2.215   1.954   2.253 -1.4279  2.2169  0.3668
 7173SOL    MW428466   2.281   2.011   2.253 -0.1836  0.8368  0.0286
 7174SOL     OW28467   4.969   5.116   2.483 -0.3305 -0.4819 -0.2330
 7174SOL    HW228468   4.994   5.194   2.533 -1.2643  1.1500 -2.1690
 7174SOL    HW328469   4.908   5.149   2.417  1.4924 -2.3579 -3.0165
 7174SOL    MW428470   4.964   5.130   2.481 -0.2132 -0.5141 -0.8557
 7175SOL     OW28471   4.562   6.329   5.676  0.7606 -0.2120  0.4352
 7175SOL    HW228472   4.583   6.414   5.636 -0.3178  1.4055  2.9901
 7175SOL    HW328473   4.647   6.296   5.706  1.3872 -0.7960 -1.8353
 7175SOL    MW428474   4.576   6.336   5.675  0.7010 -0.0757  0.4727
 7176SOL     OW28475   0.436   2.646   4.280 -0.6248  0.0905  0.4134
 7176SOL    HW228476   0.430   2.622   4.188 -0.7040 -0.5511  0.5790
 7176SOL    HW328477   0.513   2.598   4.312 -0.1942  0.8329  0.5289
 7176SOL    MW428478   0.445   2.637   4.272 -0.5784  0.1038  0.4505
 7177SOL     OW28479   2.902   4.798   3.033  0.0789  0.1175  0.3228
 7177SOL    HW228480   2.950   4.880   3.046  1.4674 -0.5233 -0.4971
 7177SOL    HW328481   2.970   4.735   3.008 -0.9086 -1.3586  1.2024
 7177SOL    MW428482   2.918   4.800   3.032  0.1318 -0.1618  0.3307
 7178SOL     OW28483   5.307   3.681   0.813  0.1186 -0.0790 -0.8459
 7178SOL    HW228484   5.335   3.646   0.898  0.7237  1.3375 -0.4242
 7178SOL    HW328485   5.368   3.642   0.750  1.5115  1.0124 -0.2462
 7178SOL    MW428486   5.319   3.671   0.816  0.3822  0.2519 -0.7111
 7179SOL     OW28487   5.360   0.403   2.360  0.3853  0.4804  0.0492
 7179SOL    HW228488   5.450   0.400   2.326  0.4719 -0.7240  0.3401
 7179SOL    HW328489   5.324   0.317   2.341 -0.6899  0.9077  0.0426
 7179SOL    MW428490   5.367   0.392   2.353  0.2549  0.3779  0.0867
 7180SOL     OW28491   5.716   4.920   3.656  0.6044 -0.2755 -0.3996
 7180SOL    HW228492   5.697   4.832   3.689 -1.7023  0.9441  1.8972
 7180SOL    HW328493   5.775   4.906   3.581  2.1705 -3.5873  1.2472
 7180SOL    MW428494   5.721   4.907   3.650  0.5067 -0.5516  0.1207
 7181SOL     OW28495   2.008   2.761   0.928  0.6865 -0.4824  0.2624
 7181SOL    HW228496   2.057   2.832   0.886 -0.7347  0.2540 -0.2126
 7181SOL    HW328497   2.011   2.689   0.865  0.5737 -0.2071 -0.0589
 7181SOL    MW428498   2.015   2.761   0.915  0.4841 -0.3489  0.1573
 7182SOL     OW28499   2.497   0.852   1.363  0.4762 -0.0632 -0.2351
 7182SOL    HW228500   2.420   0.877   1.413 -0.0937  0.2063 -1.2124
 7182SOL    HW328501   2.482   0.761   1.339 -1.4626  0.9803 -3.6739
 7182SOL    MW428502   2.485   0.843   1.366  0.1452  0.1100 -0.8177
 7183SOL     OW28503   5.822   0.796   1.276 -0.0865 -0.0587  0.1189
 7183SOL    HW228504   5.773   0.761   1.202 -0.1053  3.0014 -1.4625
 7183SOL    HW328505   5.911   0.765   1.263 -0.2822 -0.3188 -0.6529
 7183SOL    MW428506   5.827   0.787   1.265 -0.1148  0.3107 -0.1916
 7184SOL     OW28507   0.614   3.539   5.011  0.4587  0.3715 -0.1843
 7184SOL    HW228508   0.571   3.458   4.982  1.4967 -0.5232  0.7024
 7184SOL    HW328509   0.552   3.608   4.988 -0.9956 -0.7743  0.1159
 7184SOL    MW428510   0.600   3.538   5.004  0.4037  0.1023 -0.0277
 7185SOL     OW28511   4.222   1.021   3.519  0.4881  0.5730 -0.2585
 7185SOL    HW228512   4.220   0.963   3.442 -1.9681 -0.7080  0.6446
 7185SOL    HW328513   4.199   0.963   3.592  4.0760  1.4417  1.7578
 7185SOL    MW428514   4.219   1.005   3.519  0.6374  0.5186  0.1267
 7186SOL     OW28515   1.168   3.163   0.973  0.4265 -0.2477 -0.8007
 7186SOL    HW228516   1.263   3.147   0.976  0.6269  0.9229  0.2654
 7186SOL    HW328517   1.147   3.193   1.062 -1.1959 -1.7316 -0.6377
 7186SOL    MW428518   1.178   3.165   0.985  0.2389 -0.2890 -0.6385
 7187SOL     OW28519   0.298   0.584   4.879 -0.1524  0.0960  0.1816
 7187SOL    HW228520   0.382   0.597   4.835  0.2299  0.3675  0.9759
 7187SOL    HW328521   0.266   0.500   4.848 -0.3280  0.6892 -1.3134
 7187SOL    MW428522   0.305   0.575   4.869 -0.1252  0.2101  0.0892
 7188SOL     OW28523   0.552   5.111   5.600 -0.3604  0.1184 -0.1312
 7188SOL    HW228524   0.503   5.047   5.547  0.5076 -0.3353 -0.3993
 7188SOL    HW328525   0.614   5.150   5.538 -0.7166  1.0506  0.0910
 7188SOL    MW428526   0.553   5.107   5.585 -0.2929  0.1815 -0.1373
 7189SOL     OW28527   2.974   4.790   4.484  0.2063 -0.2473 -0.1265
 7189SOL    HW228528   3.064   4.778   4.515  0.9487  2.9068 -0.6516
 7189SOL    HW328529   2.984   4.828   4.396 -1.6726 -0.6335 -0.5482
 7189SOL    MW428530   2.987   4.793   4.476  0.0563  0.1179 -0.2514
 7190SOL     OW28531   6.030   4.203   5.401  0.2250  0.3337  0.0181
 7190SOL    HW228532   6.011   4.128   5.346 -0.3566 -0.9984  1.9320
 7190SOL    HW328533   5.960   4.265   5.383  0.1174 -0.0151 -0.8016
 7190SOL    MW428534   6.018   4.202   5.391  0.1340  0.1119  0.1625
 7191SOL     OW28535   3.478   3.844   2.263 -0.3519  0.2786 -0.1390
 7191SOL    HW228536   3.483   3.913   2.196  0.7195 -0.6661 -1.0802
 7191SOL    HW328537   3.501   3.764   2.216  1.9588 -0.2057  1.6319
 7191SOL    MW428538   3.482   3.843   2.248  0.0943  0.0901 -0.0295
 7192SOL     OW28539   6.333   5.772   6.223 -1.0314 -0.6460  0.6883
 7192SOL    HW228540   6.320   5.853   6.174  0.4721 -0.4651  0.5240
 7192SOL    HW328541   6.356   5.707   6.157  0.6659 -0.4852  1.0630
 7192SOL    MW428542   6.334   5.774   6.208 -0.6091 -0.6010  0.7160
 7193SOL     OW28543   0.297   4.677   6.259 -0.1330  0.6708  0.0674
 7193SOL    HW228544   0.257   4.719   6.183  1.7380 -0.3733 -1.5827
 7193SOL    HW328545   0.273   4.585   6.252  0.2540  0.5224  0.5883
 7193SOL    MW428546   0.289   4.671   6.248  0.1649  0.5135 -0.0816
 7194SOL     OW28547   0.196   4.396   1.011 -0.5092  0.7253 -0.1744
 7194SOL    HW228548   0.123   4.356   1.058  1.4727  1.4902  4.0743
 7194SOL    HW328549   0.189   4.489   1.031  0.5516  1.0953 -1.3895
 7194SOL    MW428550   0.186   4.403   1.020 -0.1078  0.8751  0.2258
 7195SOL     OW28551   4.175   0.180   0.976  0.4461 -0.4818 -0.6491
 7195SOL    HW228552   4.176   0.175   0.880  3.5128  1.5454 -0.8759
 7195SOL    HW328553   4.209   0.095   1.004 -1.7540 -1.6233 -1.1876
 7195SOL    MW428554   4.180   0.168   0.967  0.5604 -0.3650 -0.7501
 7196SOL     OW28555   1.475   2.127   0.260  0.1543  0.5393  0.2948
 7196SOL    HW228556   1.504   2.173   0.182 -1.7260  0.1413 -0.6997
 7196SOL    HW328557   1.556   2.093   0.300  1.0889 -0.1993 -2.0668
 7196SOL    MW428558   1.490   2.129   0.255  0.0295  0.3893 -0.1480
 7197SOL     OW28559   5.426   3.149   5.933 -0.0474  0.1654  0.8257
 7197SOL    HW228560   5.427   3.142   6.029 -2.0619 -0.4574  0.8282
 7197SOL    HW328561   5.337   3.176   5.912  0.3620  0.2502 -0.8903
 7197SOL    MW428562   5.415   3.152   5.943 -0.2592  0.0944  0.5996
 7198SOL     OW28563   5.167   0.346   1.051  0.3091 -0.0386 -0.2884
 7198SOL    HW228564   5.090   0.351   0.994  1.1649 -0.5642 -1.5459
 7198SOL    HW328565   5.192   0.437   1.066 -1.6587  0.2453  1.7576
 7198SOL    MW428566   5.160   0.358   1.046  0.1624 -0.0704 -0.1844
 7199SOL     OW28567   5.557   3.440   4.335 -0.1951 -0.1340  0.6855
 7199SOL    HW228568   5.572   3.349   4.362 -0.2736  0.0971  1.5169
 7199SOL    HW328569   5.478   3.436   4.281  0.4239 -0.7184 -0.2233
 7199SOL    MW428570   5.549   3.427   4.331 -0.1238 -0.1806  0.6753
 7200SOL     OW28571   2.360   6.121   1.443 -0.1308 -0.3247  0.0021
 7200SOL    HW228572   2.387   6.043   1.492  0.3081  0.1238  0.4819
 7200SOL    HW328573   2.398   6.108   1.356  0.5401 -0.3136  0.2878
 7200SOL    MW428574   2.368   6.109   1.438  0.0157 -0.2640  0.1031
 7201SOL     OW28575   2.651   3.497   0.459 -0.1303  0.1834  0.0329
 7201SOL    HW228576   2.652   3.579   0.410 -0.7901  1.0870  1.4706
 7201SOL    HW328577   2.572   3.452   0.429 -0.6345  0.8164  0.3918
 7201SOL    MW428578   2.640   3.502   0.448 -0.2839  0.3862  0.2699
 7202SOL     OW28579   1.558   4.031   2.118  0.1773 -0.3415 -0.0047
 7202SOL    HW228580   1.583   3.996   2.203  1.2413 -0.3896 -0.3106
 7202SOL    HW328581   1.587   4.123   2.120  0.6977 -0.4856 -0.4926
 7202SOL    MW428582   1.565   4.039   2.129  0.3863 -0.3668 -0.1094
 7203SOL     OW28583   0.047   4.877   4.670 -0.4097 -0.2302  0.1005
 7203SOL    HW228584   0.020   4.939   4.601  1.0485  0.2065 -0.1137
 7203SOL    HW328585  -0.028   4.873   4.729 -0.6425  1.5873 -0.0079
 7203SOL    MW428586   0.034   4.885   4.669 -0.2480  0.0672  0.0579
 7204SOL     OW28587   1.447   3.654   2.259 -0.2742 -0.2443 -0.0139
 7204SOL    HW228588   1.526   3.691   2.299 -0.1480 -1.5888  1.0632
 7204SOL    HW328589   1.408   3.601   2.328 -2.6496  1.0787 -0.2461
 7204SOL    MW428590   1.453   3.652   2.273 -0.5710 -0.2471  0.0976
 7205SOL     OW28591   5.613   6.021   0.777  0.2574  0.2462  0.1288
 7205SOL    HW228592   5.536   6.035   0.721  1.4272  0.4887 -1.4928
 7205SOL    HW328593   5.684   6.004   0.716  1.5339  0.1457  1.5836
 7205SOL    MW428594   5.612   6.021   0.762  0.5802  0.2649  0.1068
 7206SOL     OW28595   1.294   2.567   1.597 -0.1998  0.2416  0.1229
 7206SOL    HW228596   1.333   2.607   1.519 -0.6498  0.8811  0.2239
 7206SOL    HW328597   1.210   2.611   1.608  1.0629  2.2722  2.6557
 7206SOL    MW428598   1.288   2.578   1.588 -0.0926  0.5939  0.4704
 7207SOL     OW28599   4.631   5.921   5.821  0.0229 -0.0684 -0.1689
 7207SOL    HW228600   4.568   5.934   5.892  1.1027 -1.5266  1.1225
 7207SOL    HW328601   4.578   5.922   5.741 -1.0596  3.0626  0.4444
 7207SOL    MW428602   4.616   5.923   5.820  0.0225  0.1523  0.0824
 7208SOL     OW28603   3.258   1.829   1.308 -0.2168  0.6085  0.4196
 7208SOL    HW228604   3.194   1.896   1.328 -0.0501  0.7492  0.4806
 7208SOL    HW328605   3.213   1.770   1.247 -1.2417 -0.6556  2.2937
 7208SOL    MW428606   3.244   1.830   1.302 -0.3300  0.4603  0.6749
 7209SOL     OW28607   5.611   1.623   0.514 -0.5713 -0.4233 -0.3900
 7209SOL    HW228608   5.608   1.547   0.573 -1.7303  0.1635  0.3484
 7209SOL    HW328609   5.629   1.585   0.428  2.4722 -1.1996  0.4475
 7209SOL    MW428610   5.613   1.608   0.511 -0.3226 -0.4483 -0.1821
 7210SOL     OW28611   1.233   5.672   5.467  0.7827 -0.6107  0.4005
 7210SOL    HW228612   1.172   5.650   5.396  1.5397 -0.4117 -0.3316
 7210SOL    HW328613   1.179   5.669   5.546 -0.9521  2.4694 -0.4604
 7210SOL    MW428614   1.218   5.669   5.468  0.6537 -0.1781  0.1903
 7211SOL     OW28615   1.397   1.813   2.067 -0.4996  0.0911 -0.7890
 7211SOL    HW228616   1.388   1.766   1.983  0.9672  1.0835 -1.5298
 7211SOL    HW328617   1.453   1.756   2.120  2.0371  1.2977 -2.0075
 7211SOL    MW428618   1.403   1.799   2.063  0.0286  0.3813 -1.0475
 7212SOL     OW28619   4.491   0.539   3.896  0.4413  0.4241  0.1544
 7212SOL    HW228620   4.435   0.515   3.822  1.1024  0.0769 -0.2430
 7212SOL    HW328621   4.437   0.523   3.973  0.4063 -1.1474 -0.1601
 7212SOL    MW428622   4.477   0.533   3.896  0.5239  0.1710  0.0605
 7213SOL     OW28623   0.242   4.432   0.715 -0.0896 -0.3894 -0.1146
 7213SOL    HW228624   0.331   4.466   0.719 -0.2827  0.1555 -0.3527
 7213SOL    HW328625   0.214   4.428   0.806 -0.4932  1.2703 -0.1389
 7213SOL    MW428626   0.250   4.436   0.727 -0.1684 -0.0986 -0.1492
 7214SOL     OW28627   1.347   0.291   3.001  0.1910 -0.0972 -0.2285
 7214SOL    HW228628   1.352   0.204   2.962  1.3753  0.1091 -0.5671
 7214SOL    HW328629   1.284   0.282   3.072 -0.9600 -0.8193 -1.3030
 7214SOL    MW428630   1.339   0.278   3.005  0.1954 -0.1653 -0.4149
 7215SOL     OW28631   3.009   0.860   0.335  0.1083  0.1172  0.1431
 7215SOL    HW228632   3.025   0.913   0.413  1.3939  0.4902 -0.3361
 7215SOL    HW328633   3.090   0.869   0.284 -0.0293 -1.5117 -0.4106
 7215SOL    MW428634   3.022   0.868   0.339  0.2598 -0.0485  0.0068
 7216SOL     OW28635   5.409   0.379   1.333  0.5316  0.4524  0.3931
 7216SOL    HW228636   5.318   0.391   1.361  0.2302 -2.3299  0.8440
 7216SOL    HW328637   5.449   0.466   1.344 -1.9933  1.7011  0.3585
 7216SOL    MW428638   5.402   0.392   1.338  0.1587  0.2501  0.4480
 7217SOL     OW28639   4.374   1.940   1.559  0.0144  0.2439  0.1145
 7217SOL    HW228640   4.391   1.907   1.647  2.4492  1.2174  0.0945
 7217SOL    HW328641   4.434   2.015   1.549 -2.6393  2.4058 -1.1377
 7217SOL    MW428642   4.384   1.946   1.569 -0.0145  0.6575 -0.0534
 7218SOL     OW28643   3.189   4.918   5.880 -0.2699 -0.3800 -0.2284
 7218SOL    HW228644   3.252   4.947   5.815 -1.6794 -0.8951 -1.8984
 7218SOL    HW328645   3.192   4.985   5.948  1.2355  0.1796 -0.7957
 7218SOL    MW428646   3.198   4.931   5.880 -0.2573 -0.3741 -0.5236
 7219SOL     OW28647   1.087   4.897   2.366  0.3881  0.8498  0.4115
 7219SOL    HW228648   1.098   4.893   2.461  1.8161  0.1911  0.2357
 7219SOL    HW328649   1.047   4.813   2.344  0.0500  1.0059  0.4199
 7219SOL    MW428650   1.083   4.885   2.376  0.5319  0.7835  0.3894
 7220SOL     OW28651   3.314   2.847   5.864 -0.4245 -0.0704  0.3632
 7220SOL    HW228652   3.331   2.784   5.934  0.7835 -0.7183 -0.4804
 7220SOL    HW328653   3.387   2.908   5.868 -0.7870  0.3815  0.1869
 7220SOL    MW428654   3.326   2.847   5.874 -0.3130 -0.0962  0.2286
 7221SOL     OW28655   0.254   4.736   4.548 -0.6043  0.0240 -0.4740
 7221SOL    HW228656   0.204   4.768   4.623 -0.2620 -1.7453  0.5781
 7221SOL    HW328657   0.343   4.729   4.581 -0.6236 -1.6956 -0.7073
 7221SOL    MW428658   0.259   4.739   4.562 -0.5617 -0.4363 -0.3659
 7222SOL     OW28659   3.602   5.995   0.625  0.4747  0.0905 -0.6696
 7222SOL    HW228660   3.617   5.903   0.645 -0.6903  0.1246  0.4324
 7222SOL    HW328661   3.624   6.003   0.532 -0.5486 -1.5666 -1.0917
 7222SOL    MW428662   3.607   5.984   0.615  0.1859 -0.1236 -0.5799
 7223SOL     OW28663   6.396   1.506   2.436  0.1212  0.0362 -0.1188
 7223SOL    HW228664   6.422   1.461   2.517  1.4110  0.3453 -0.3495
 7223SOL    HW328665   6.376   1.595   2.464  0.7166  0.1852 -0.1517
 7223SOL    MW428666   6.397   1.512   2.451  0.3699  0.0967 -0.1535
 7224SOL     OW28667   2.040   1.805   6.431  0.5232  0.2742  0.4217
 7224SOL    HW228668   2.095   1.879   6.457 -0.2914  1.3297 -0.6908
 7224SOL    HW328669   2.088   1.763   6.360 -0.1301  1.3054 -0.6742
 7224SOL    MW428670   2.053   1.810   6.425  0.3295  0.5496  0.1303
 7225SOL     OW28671   2.452   1.085   2.709 -0.2273 -0.4822  0.1032
 7225SOL    HW228672   2.397   1.142   2.762  1.0264  0.9105 -0.0364
 7225SOL    HW328673   2.451   1.124   2.622  0.9762 -0.3908  0.1019
 7225SOL    MW428674   2.445   1.098   2.705  0.0969 -0.2864  0.0846
 7226SOL     OW28675   4.712   2.417   1.434 -0.5119 -0.1779 -0.2185
 7226SOL    HW228676   4.791   2.379   1.395  0.2022  0.1995  0.8146
 7226SOL    HW328677   4.695   2.364   1.512 -1.4988 -0.4734 -0.6222
 7226SOL    MW428678   4.720   2.405   1.439 -0.5479 -0.1671 -0.1355
 7227SOL     OW28679   2.310   3.045   2.732 -0.5376 -0.5055  0.3604
 7227SOL    HW228680   2.357   3.008   2.806 -0.8651 -0.0220  0.8217
 7227SOL    HW328681   2.371   3.038   2.658  0.5201  0.6934  1.0840
 7227SOL    MW428682   2.324   3.039   2.732 -0.4412 -0.2835  0.5167
 7228SOL     OW28683   1.142   2.975   1.375 -0.2846 -0.3002  0.1285
 7228SOL    HW228684   1.124   3.069   1.362  0.4592 -0.2872 -0.9324
 7228SOL    HW328685   1.178   2.970   1.463 -0.1688  0.4356  0.1319
 7228SOL    MW428686   1.144   2.987   1.385 -0.1712 -0.2014 -0.0110
 7229SOL     OW28687   1.321   3.344   5.847  0.3223 -0.2171  0.0727
 7229SOL    HW228688   1.388   3.396   5.804 -0.4203  0.5622 -0.1782
 7229SOL    HW328689   1.290   3.399   5.919 -1.7610  0.5344 -1.2981
 7229SOL    MW428690   1.326   3.358   5.850 -0.0506 -0.0152 -0.1413
 7230SOL     OW28691   0.021   3.119   0.446 -0.0236  0.6102 -0.9552
 7230SOL    HW228692   0.003   3.185   0.513 -1.1937  1.1851 -1.7924
 7230SOL    HW328693   0.006   3.165   0.363 -0.7336 -0.6621 -1.5663
 7230SOL    MW428694   0.017   3.134   0.444 -0.2717  0.5182 -1.1462
 7231SOL     OW28695   1.473   5.147   5.257 -0.0714 -0.2224 -0.0548
 7231SOL    HW228696   1.418   5.075   5.287 -0.1591  0.3138  1.1504
 7231SOL    HW328697   1.411   5.211   5.222 -0.2419  0.3191  1.1700
 7231SOL    MW428698   1.457   5.146   5.256 -0.1055 -0.0802  0.2658
 7232SOL     OW28699   0.665   4.504   2.303 -0.4051 -0.7177 -0.1514
 7232SOL    HW228700   0.628   4.448   2.372 -1.0744 -0.7249 -0.5160
 7232SOL    HW328701   0.690   4.443   2.234  0.9153 -0.7867  0.3469
 7232SOL    MW428702   0.664   4.488   2.303 -0.3192 -0.7277 -0.1337
 7233SOL     OW28703   5.561   1.521   3.217 -0.3119 -0.4758  0.1993
 7233SOL    HW228704   5.584   1.448   3.160  0.1999  0.3701 -0.7231
 7233SOL    HW328705   5.512   1.482   3.288 -1.7544 -1.4788 -1.2696
 7233SOL    MW428706   5.558   1.506   3.219 -0.4347 -0.4965 -0.1162
 7234SOL     OW28707   0.083   4.844   4.359 -0.0926  0.3184 -0.4376
 7234SOL    HW228708   0.116   4.929   4.330  0.4551  0.4135  0.4042
 7234SOL    HW328709   0.133   4.826   4.439 -0.6372 -0.5135 -0.2764
 7234SOL    MW428710   0.094   4.853   4.366 -0.0922  0.2212 -0.3052
 7235SOL     OW28711   3.785   0.172   2.674  1.0050  0.1357 -0.0077
 7235SOL    HW228712   3.725   0.177   2.748  0.5404  0.8203 -0.4224
 7235SOL    HW328713   3.868   0.207   2.707  1.3311 -1.2130  0.6924
 7235SOL    MW428714   3.788   0.177   2.688  0.9867  0.0481  0.0300
 7236SOL     OW28715   5.789   3.817   3.882 -0.0628  0.1284  0.5471
 7236SOL    HW228716   5.761   3.896   3.836 -1.4128  0.5026  1.9256
 7236SOL    HW328717   5.860   3.782   3.829 -2.0916  0.0231 -2.3611
 7236SOL    MW428718   5.794   3.823   3.869 -0.5086  0.1639  0.3452
 7237SOL     OW28719   4.424   4.083   3.226  0.0879 -0.4195 -0.2180
 7237SOL    HW228720   4.363   4.158   3.226 -0.9381 -1.2243  0.5315
 7237SOL    HW328721   4.506   4.119   3.192 -0.8866  0.6364 -1.5944
 7237SOL    MW428722   4.427   4.098   3.222 -0.1761 -0.3864 -0.3007
 7238SOL     OW28723   6.323   0.319   5.500  0.1036  0.4589  0.0824
 7238SOL    HW228724   6.396   0.369   5.535  0.5039  0.2419 -0.4403
 7238SOL    HW328725   6.249   0.380   5.500  0.2210  0.6101  0.8202
 7238SOL    MW428726   6.323   0.333   5.504  0.1719  0.4502  0.1107
 7239SOL     OW28727   1.581   3.313   1.186  0.1816  0.5685 -0.0446
 7239SOL    HW228728   1.575   3.323   1.281  0.1485  1.1752 -0.1073
 7239SOL    HW328729   1.575   3.402   1.152  0.2387  0.3587 -0.6154
 7239SOL    MW428730   1.579   3.326   1.194  0.1848  0.6209 -0.1282
 7240SOL     OW28731   3.401   5.160   6.403  0.5005  0.4223 -0.0242
 7240SOL    HW228732   3.451   5.198   6.331 -1.3561 -0.2185 -1.7758
 7240SOL    HW328733   3.461   5.099   6.445  1.9295  1.5218 -0.3810
 7240SOL    MW428734   3.415   5.157   6.399  0.4441  0.4828 -0.3024
 7241SOL     OW28735   5.829   4.039   6.369  0.0526  0.4402 -0.6216
 7241SOL    HW228736   5.808   4.076   6.283 -1.1113 -0.4250 -0.7343
 7241SOL    HW328737   5.755   3.982   6.389 -0.5844  1.9626  1.7614
 7241SOL    MW428738   5.816   4.036   6.360 -0.1850  0.5269 -0.3221
 7242SOL     OW28739   5.235   6.418   5.137  0.3121 -0.1119  0.7264
 7242SOL    HW228740   5.220   6.323   5.143  1.3187 -0.3010  0.4799
 7242SOL    HW328741   5.186   6.444   5.059 -0.0715 -0.4023  0.8640
 7242SOL    MW428742   5.226   6.409   5.127  0.3943 -0.1751  0.7120
 7243SOL     OW28743   3.345   4.018   0.623 -0.2400 -0.0070  0.0667
 7243SOL    HW228744   3.380   4.037   0.710  2.6474 -0.9659 -0.7720
 7243SOL    HW328745   3.420   3.983   0.574 -1.9748 -0.3442 -2.5469
 7243SOL    MW428746   3.360   4.016   0.628 -0.0879 -0.1780 -0.3888
 7244SOL     OW28747   3.744   5.950   6.001 -0.3274  0.1392 -0.0250
 7244SOL    HW228748   3.808   5.997   6.054  0.4384  0.6500 -1.3315
 7244SOL    HW328749   3.789   5.936   5.917 -0.9916 -1.8379 -0.0968
 7244SOL    MW428750   3.759   5.954   5.997 -0.3140 -0.0543 -0.2069
 7245SOL     OW28751   4.267   6.195   0.694 -0.7120  0.2586 -0.2365
 7245SOL    HW228752   4.269   6.122   0.757 -0.1193 -0.2808 -0.8657
 7245SOL    HW328753   4.179   6.231   0.703 -0.5616  0.3637  1.0837
 7245SOL    MW428754   4.256   6.190   0.703 -0.6140  0.2013 -0.1453
 7246SOL     OW28755   0.063   6.012   1.269  0.0906  0.2348 -0.2314
 7246SOL    HW228756   0.124   6.076   1.232 -0.3906  0.0040 -1.4615
 7246SOL    HW328757  -0.024   6.050   1.253 -0.1199  0.2532  0.9177
 7246SOL    MW428758   0.059   6.026   1.262 -0.0006  0.2067 -0.2421
 7247SOL     OW28759   6.258   6.400   4.558 -0.2880 -0.6278 -0.0402
 7247SOL    HW228760   6.165   6.385   4.539 -0.0495  0.0185 -1.8628
 7247SOL    HW328761   6.268   6.495   4.556  0.4669 -0.7026 -0.1393
 7247SOL    MW428762   6.247   6.411   4.556 -0.1569 -0.5524 -0.2938
 7248SOL     OW28763   2.772   5.917   1.312  0.0935 -0.0926  0.3202
 7248SOL    HW228764   2.679   5.921   1.332 -0.1602 -0.9563 -0.6204
 7248SOL    HW328765   2.779   5.955   1.224  0.9443  2.0113  1.2194
 7248SOL    MW428766   2.761   5.923   1.303  0.1723  0.0710  0.3147
 7249SOL     OW28767   4.123   2.013   1.796 -0.2623  0.2519 -0.5759
 7249SOL    HW228768   4.182   2.084   1.772  0.9341  0.0509  1.5468
 7249SOL    HW328769   4.037   2.041   1.763  0.1556  2.7356  0.2434
 7249SOL    MW428770   4.119   2.026   1.788 -0.0494  0.5531 -0.1877
 7250SOL     OW28771   0.941   4.045   1.147 -0.5552  0.7213  0.0976
 7250SOL    HW228772   0.943   3.962   1.100  0.6545  0.4933  0.5356
 7250SOL    HW328773   1.031   4.060   1.175 -1.1351  1.1118  1.8899
 7250SOL    MW428774   0.953   4.036   1.145 -0.4721  0.7428  0.3919
 7251SOL     OW28775   0.278   5.976   3.450 -0.3307  0.3298 -0.0256
 7251SOL    HW228776   0.348   5.917   3.421  0.2798  0.3222  1.3810
 7251SOL    HW328777   0.307   6.008   3.535 -0.6243  2.7350 -0.7600
 7251SOL    MW428778   0.291   5.972   3.458 -0.2889  0.6461  0.0631
 7252SOL     OW28779   5.010   0.686   5.580  0.3726 -0.7014  0.3365
 7252SOL    HW228780   4.948   0.742   5.625  1.2117  1.4533 -1.0364
 7252SOL    HW328781   4.964   0.660   5.499  0.9196  0.2114 -0.2823
 7252SOL    MW428782   4.996   0.690   5.575  0.5555 -0.2967  0.0737
 7253SOL     OW28783   4.270   2.253   1.783  0.5825  0.0862  0.1425
 7253SOL    HW228784   4.301   2.342   1.763  1.3777  0.0183  1.0269
 7253SOL    HW328785   4.324   2.224   1.856  0.1102 -1.0151  0.0782
 7253SOL    MW428786   4.281   2.261   1.790  0.6251 -0.0681  0.2507
 7254SOL     OW28787   3.263   4.338   1.275  0.0962 -0.3771 -0.6037
 7254SOL    HW228788   3.247   4.286   1.197  0.8723 -0.8907 -0.4355
 7254SOL    HW328789   3.200   4.306   1.339  0.7564 -1.3295 -0.4108
 7254SOL    MW428790   3.253   4.327   1.273  0.2857 -0.5706 -0.5560
 7255SOL     OW28791   5.756   2.241   2.955  0.6851 -0.3860 -0.3154
 7255SOL    HW228792   5.754   2.218   2.862  0.5154 -1.9772  0.0531
 7255SOL    HW328793   5.849   2.236   2.979  0.7077 -0.1515 -0.3463
 7255SOL    MW428794   5.768   2.237   2.946  0.6657 -0.5650 -0.2709
 7256SOL     OW28795   3.733   0.746   5.390 -0.1236 -0.2758 -0.0280
 7256SOL    HW228796   3.669   0.675   5.393 -0.3845 -0.0699 -0.5602
 7256SOL    HW328797   3.738   0.770   5.298  0.7427 -0.3008  0.0059
 7256SOL    MW428798   3.725   0.740   5.378 -0.0437 -0.2519 -0.0937
 7257SOL     OW28799   4.172   3.457   4.509 -0.8944 -0.0089 -0.3578
 7257SOL    HW228800   4.194   3.364   4.501 -0.9564  0.1206 -2.5988
 7257SOL    HW328801   4.183   3.476   4.602 -0.5585 -2.1740  0.0990
 7257SOL    MW428802   4.176   3.447   4.520 -0.8583 -0.2775 -0.5932
 7258SOL     OW28803   5.856   2.012   5.018 -0.5067  0.2995  0.2141
 7258SOL    HW228804   5.900   2.075   5.075 -0.5972 -0.8432  1.5989
 7258SOL    HW328805   5.769   2.050   5.003 -0.5906  0.4786  1.1013
 7258SOL    MW428806   5.850   2.026   5.024 -0.5297  0.1723  0.5138
 7259SOL     OW28807   0.056   1.114   5.804 -0.0840 -0.0536  0.1011
 7259SOL    HW228808   0.148   1.124   5.778  0.6343 -0.3762  2.3687
 7259SOL    HW328809   0.020   1.203   5.800  0.4679  0.1560 -0.2641
 7259SOL    MW428810   0.063   1.127   5.800  0.0836 -0.0685  0.3521
 7260SOL     OW28811   2.647   1.183   5.471 -0.2494  0.0123 -0.0055
 7260SOL    HW228812   2.623   1.275   5.474  1.1085  0.3795  0.2858
 7260SOL    HW328813   2.568   1.136   5.501 -1.4695  0.9457 -1.5960
 7260SOL    MW428814   2.633   1.189   5.475 -0.2312  0.1839 -0.1769
 7261SOL     OW28815   5.303   5.217   1.346  0.8915  0.4785  0.5932
 7261SOL    HW228816   5.232   5.273   1.314  0.1439 -0.3076  0.8308
 7261SOL    HW328817   5.273   5.186   1.431  1.0957 -0.6165  0.2865
 7261SOL    MW428818   5.290   5.220   1.353  0.8198  0.2303  0.5841
 7262SOL     OW28819   4.785   3.299   1.470  0.0700  0.4164  0.0615
 7262SOL    HW228820   4.742   3.280   1.553  0.6297  1.8677  0.7254
 7262SOL    HW328821   4.732   3.255   1.404 -0.8931 -0.0183  1.1009
 7262SOL    MW428822   4.772   3.291   1.472  0.0168  0.5506  0.2862
 7263SOL     OW28823   5.714   3.974   2.805  0.2146 -0.2921  0.3223
 7263SOL    HW228824   5.711   3.880   2.820  0.0026 -0.3020  0.2202
 7263SOL    HW328825   5.705   4.012   2.893  1.4317 -0.3765  0.4915
 7263SOL    MW428826   5.712   3.967   2.819  0.3472 -0.3046  0.3311
 7264SOL     OW28827   0.262   2.240   0.456 -0.3144  0.0561 -0.2423
 7264SOL    HW228828   0.202   2.315   0.453 -0.9590 -0.2540  2.2284
 7264SOL    HW328829   0.204   2.164   0.468  0.4229 -0.6441 -1.0343
 7264SOL    MW428830   0.246   2.240   0.457 -0.3021 -0.0772 -0.0208
 7265SOL     OW28831   1.347   6.378   0.017 -0.0213 -0.4513 -0.0816
 7265SOL    HW228832   1.442   6.383   0.014  0.0140 -0.9465  0.0710
 7265SOL    HW328833   1.324   6.408   0.106  0.0501 -1.0737  0.1520
 7265SOL    MW428834   1.356   6.383   0.029 -0.0072 -0.5988 -0.0306
 7266SOL     OW28835   6.353   4.278   3.309  0.0128 -0.1373 -0.2399
 7266SOL    HW228836   6.335   4.323   3.227  1.6844 -0.6315 -0.9262
 7266SOL    HW328837   6.308   4.194   3.301 -0.9070  0.3282 -0.0772
 7266SOL    MW428838   6.344   4.273   3.298  0.1120 -0.1411 -0.3090
 7267SOL     OW28839   5.639   0.534   0.012  0.0447  0.7945 -0.1724
 7267SOL    HW228840   5.593   0.454   0.037  1.9978 -0.5480 -0.6282
 7267SOL    HW328841   5.673   0.569   0.094  1.5120 -0.3986 -0.2395
 7267SOL    MW428842   5.637   0.528   0.026  0.4960  0.4599 -0.2414
 7268SOL     OW28843   1.595   5.850   6.025  0.1076 -0.2511  0.1197
 7268SOL    HW228844   1.637   5.917   5.970  2.1871 -1.0969  0.6007
 7268SOL    HW328845   1.609   5.768   5.978 -2.8950 -0.3822 -0.7377
 7268SOL    MW428846   1.603   5.848   6.011 -0.0142 -0.3800  0.0700
 7269SOL     OW28847   0.209   0.527   0.855 -0.2065  0.3917 -0.1419
 7269SOL    HW228848   0.189   0.467   0.783  1.4793 -0.2676 -0.1053
 7269SOL    HW328849   0.229   0.470   0.929  0.6947  0.9973  0.1031
 7269SOL    MW428850   0.209   0.512   0.856  0.1348  0.3846 -0.1047
 7270SOL     OW28851   1.782   0.835   2.672  0.4656 -0.5117  0.0350
 7270SOL    HW228852   1.758   0.921   2.639  0.7499 -0.3460  0.2521
 7270SOL    HW328853   1.793   0.847   2.767 -2.7442 -1.5147  0.6349
 7270SOL    MW428854   1.781   0.848   2.680  0.0796 -0.6222  0.1428
 7271SOL     OW28855   3.354   0.892   2.261 -0.2383 -0.0528  0.1467
 7271SOL    HW228856   3.412   0.969   2.253 -0.4097 -0.0111 -0.8056
 7271SOL    HW328857   3.286   0.920   2.322 -0.2099  0.5128 -0.0672
 7271SOL    MW428858   3.353   0.906   2.268 -0.2572  0.0273 -0.0072
 7272SOL     OW28859   0.545   6.361   1.222 -0.2934  0.9070  0.1864
 7272SOL    HW228860   0.579   6.351   1.133  1.5502  1.3151  0.8018
 7272SOL    HW328861   0.519   6.273   1.248  2.2619  0.1409  0.3908
 7272SOL    MW428862   0.546   6.348   1.214  0.2870  0.8598  0.2946
 7273SOL     OW28863   3.653   6.359   4.733 -0.2993  0.0630 -0.0999
 7273SOL    HW228864   3.739   6.342   4.772  0.4669  0.7639 -1.4126
 7273SOL    HW328865   3.640   6.453   4.744 -0.0802  0.2661 -1.4768
 7273SOL    MW428866   3.663   6.369   4.740 -0.1693  0.1822 -0.4548
 7274SOL     OW28867   3.146   0.208   4.416 -0.6487  0.1104 -0.2272
 7274SOL    HW228868   3.066   0.163   4.390 -0.6398 -0.2515  0.3565
 7274SOL    HW328869   3.217   0.158   4.377 -0.6801  0.1261 -0.3041
 7274SOL    MW428870   3.145   0.196   4.407 -0.6517  0.0647 -0.1603
 7275SOL     OW28871   2.322   2.710   3.265  0.0394  0.0210  0.9337
 7275SOL    HW228872   2.256   2.776   3.243  1.0572  0.7230 -0.1380
 7275SOL    HW328873   2.280   2.627   3.243 -0.2904  0.4978 -0.3525
 7275SOL    MW428874   2.308   2.708   3.259  0.1302  0.1765  0.6226
 7276SOL     OW28875   3.701   2.015   0.494 -0.0505  0.1363 -0.0816
 7276SOL    HW228876   3.648   1.996   0.571  0.5565  0.6267  0.4625
 7276SOL    HW328877   3.730   2.105   0.506  2.1261 -0.5667  0.3860
 7276SOL    MW428878   3.698   2.024   0.506  0.3168  0.1082  0.0519
 7277SOL     OW28879   0.913   0.995   5.786 -0.6053 -0.3146 -0.3427
 7277SOL    HW228880   0.978   1.024   5.849  0.6112  2.4531 -2.6865
 7277SOL    HW328881   0.963   0.947   5.719 -1.4248 -0.6896 -0.7071
 7277SOL    MW428882   0.928   0.992   5.785 -0.5530  0.0011 -0.7000
 7278SOL     OW28883   4.216   1.220   2.307  0.6078 -0.5056  0.2024
 7278SOL    HW228884   4.223   1.155   2.236  3.7262  0.2269 -0.3008
 7278SOL    HW328885   4.207   1.168   2.386 -2.8949 -1.3545 -0.5831
 7278SOL    MW428886   4.216   1.205   2.308  0.5571 -0.5209  0.0324
 7279SOL     OW28887   4.819   1.628   5.434 -0.2087 -0.4023 -0.0240
 7279SOL    HW228888   4.725   1.627   5.450 -0.2518 -1.0100 -0.2574
 7279SOL    HW328889   4.828   1.621   5.339  0.0633 -1.9750  0.0788
 7279SOL    MW428890   4.808   1.627   5.423 -0.1785 -0.6900 -0.0413
 7280SOL     OW28891   5.831   4.805   4.313  0.7951 -0.4317  0.6654
 7280SOL    HW228892   5.806   4.775   4.226 -0.0028 -1.1117  1.1159
 7280SOL    HW328893   5.864   4.894   4.299  0.2955 -0.3802 -0.2683
 7280SOL    MW428894   5.832   4.813   4.300  0.6239 -0.5146  0.6016
 7281SOL     OW28895   0.779   3.546   3.360  0.2978 -0.3665 -0.1974
 7281SOL    HW228896   0.859   3.531   3.310 -0.4305  0.8226 -1.8314
 7281SOL    HW328897   0.792   3.630   3.402  0.1644 -0.4698  0.0502
 7281SOL    MW428898   0.791   3.555   3.359  0.1841 -0.2232 -0.3803
 7282SOL     OW28899   4.759   1.771   1.392  0.8788  0.1879  0.5471
 7282SOL    HW228900   4.666   1.752   1.378  0.7156  1.2042  0.1662
 7282SOL    HW328901   4.769   1.772   1.487  1.0416 -2.2966  0.6379
 7282SOL    MW428902   4.748   1.768   1.403  0.8788 -0.0058  0.5089
 7283SOL     OW28903   2.631   3.325   4.716 -0.4083 -0.0399 -0.1596
 7283SOL    HW228904   2.605   3.360   4.630  0.8420  1.0829 -0.1188
 7283SOL    HW328905   2.569   3.364   4.777 -0.9035 -0.3269 -0.4687
 7283SOL    MW428906   2.619   3.335   4.713 -0.3087  0.0704 -0.1950
 7284SOL     OW28907   0.086   4.834   6.107  0.9196 -0.0111 -0.0018
 7284SOL    HW228908   0.045   4.778   6.041  1.8315 -0.0583 -0.5385
 7284SOL    HW328909   0.023   4.905   6.121 -0.1794 -1.0622  0.5638
 7284SOL    MW428910   0.072   4.836   6.100  0.8949 -0.1560  0.0020
 7285SOL     OW28911   2.995   1.930   3.871  0.1518  0.0445 -0.6482
 7285SOL    HW228912   2.942   1.853   3.852  0.1820  0.0051 -0.5746
 7285SOL    HW328913   3.083   1.907   3.842  0.1085  0.1459 -0.8589
 7285SOL    MW428914   2.999   1.917   3.865  0.1501  0.0527 -0.6663
 7286SOL     OW28915   0.991   2.952   5.168  0.3721  0.1046  0.2219
 7286SOL    HW228916   0.966   2.862   5.147 -0.7222  0.1867  1.1262
 7286SOL    HW328917   0.964   2.965   5.258  1.4880  1.0198  0.4540
 7286SOL    MW428918   0.984   2.942   5.177  0.3749  0.2362  0.3718
 7287SOL     OW28919   1.895   4.895   5.003  0.7686 -0.0259 -0.1862
 7287SOL    HW228920   1.896   4.824   5.066 -0.5091 -0.0766 -0.1952
 7287SOL    HW328921   1.820   4.949   5.028  1.0023  0.6605 -0.8893
 7287SOL    MW428922   1.885   4.893   5.014  0.6308  0.0580 -0.2802
 7288SOL     OW28923   5.652   0.383   2.989 -0.0609 -0.3941 -0.8741
 7288SOL    HW228924   5.706   0.418   2.918 -0.1315 -0.8905 -1.1769
 7288SOL    HW328925   5.572   0.353   2.945 -0.8770  0.9296 -0.3490
 7288SOL    MW428926   5.648   0.383   2.974 -0.1779 -0.2850 -0.8448
 7289SOL     OW28927   6.301   1.552   5.506 -0.1423 -0.1388  0.3400
 7289SOL    HW228928   6.347   1.591   5.581 -0.7433 -0.3058  0.8023
 7289SOL    HW328929   6.355   1.575   5.430 -0.3965  1.4406  0.6142
 7289SOL    MW428930   6.315   1.560   5.506 -0.2551  0.0475  0.4372
 7290SOL     OW28931   2.948   0.652   3.699 -0.0767  0.3294  0.5961
 7290SOL    HW228932   2.924   0.745   3.696 -2.5074 -0.2509 -0.2139
 7290SOL    HW328933   2.875   0.609   3.742 -0.5992 -1.5959 -1.9508
 7290SOL    MW428934   2.935   0.659   3.704 -0.4663 -0.0012  0.1532
 7291SOL     OW28935   0.104   0.450   2.876 -0.3772  0.5121 -0.0474
 7291SOL    HW228936   0.106   0.522   2.940  0.4048  1.0884 -0.6887
 7291SOL    HW328937   0.189   0.407   2.887 -1.5323 -1.5537  1.6468
 7291SOL    MW428938   0.116   0.454   2.886 -0.4264  0.3156  0.0915
 7292SOL     OW28939   5.780   5.932   1.198 -0.2002  0.1124  0.7541
 7292SOL    HW228940   5.711   5.997   1.217  0.0307  0.6626 -0.2144
 7292SOL    HW328941   5.765   5.908   1.107  1.0701  0.4656  0.4306
 7292SOL    MW428942   5.769   5.937   1.189 -0.0022  0.2316  0.5836
 7293SOL     OW28943   4.623   0.464   2.778 -0.5253 -0.0556  0.4101
 7293SOL    HW228944   4.664   0.440   2.861  1.1223 -0.9281 -0.6001
 7293SOL    HW328945   4.610   0.559   2.785 -2.7553 -0.4308  2.5956
 7293SOL    MW428946   4.627   0.474   2.789 -0.6022 -0.2203  0.5651
 7294SOL     OW28947   5.720   2.660   0.415  0.1003 -0.3134 -0.4720
 7294SOL    HW228948   5.732   2.630   0.505  0.0003 -1.3245 -0.7829
 7294SOL    HW328949   5.759   2.748   0.413 -2.3001  0.9081  1.2392
 7294SOL    MW428950   5.726   2.668   0.427 -0.2296 -0.2856 -0.2872
 7295SOL     OW28951   4.130   0.699   0.038 -0.0902  0.8224 -0.5677
 7295SOL    HW228952   4.189   0.773   0.053  1.3039 -0.6435  1.8128
 7295SOL    HW328953   4.049   0.723   0.082  1.7574 -0.6236  4.3057
 7295SOL    MW428954   4.127   0.711   0.045  0.3375  0.4382  0.3894
 7296SOL     OW28955   0.309   2.930   0.979 -0.2600  0.5253 -0.1101
 7296SOL    HW228956   0.386   2.987   0.976 -2.1444  3.3055  0.6128
 7296SOL    HW328957   0.265   2.945   0.895 -1.5886  1.4313  0.7113
 7296SOL    MW428958   0.313   2.940   0.967 -0.6839  1.0116  0.0937
 7297SOL     OW28959   4.792   5.939   4.166  0.0188 -0.3359 -0.5432
 7297SOL    HW228960   4.739   5.859   4.171  0.2707 -0.5767 -1.6179
 7297SOL    HW328961   4.794   5.961   4.073 -1.3686  1.8284 -0.1390
 7297SOL    MW428962   4.785   5.931   4.155 -0.1310 -0.0821 -0.6316
 7298SOL     OW28963   5.079   1.236   0.976 -0.0984 -0.7164  0.6133
 7298SOL    HW228964   5.077   1.329   1.002 -0.5091 -1.3536  3.1485
 7298SOL    HW328965   5.009   1.228   0.912  0.3958  0.8387 -0.1874
 7298SOL    MW428966   5.070   1.247   0.971 -0.0874 -0.5953  0.8421
 7299SOL     OW28967   4.873   3.506   0.245 -0.3071 -0.6321  0.4095
 7299SOL    HW228968   4.968   3.510   0.231 -0.3228  1.0783  0.6003
 7299SOL    HW328969   4.836   3.493   0.158  0.0098  1.3259 -0.0546
 7299SOL    MW428970   4.881   3.505   0.232 -0.2674 -0.1481  0.3735
 7300SOL     OW28971   4.293   1.880   0.286  0.0650  0.0945  1.0853
 7300SOL    HW228972   4.201   1.863   0.265  0.3224 -2.0744  1.5566
 7300SOL    HW328973   4.341   1.853   0.209  0.3774  0.5788  1.1062
 7300SOL    MW428974   4.287   1.874   0.273  0.1402 -0.1278  1.1502
 7301SOL     OW28975   5.649   3.412   6.043  0.6665 -0.3000  0.5885
 7301SOL    HW228976   5.647   3.346   5.974  0.0506  0.0970  0.2218
 7301SOL    HW328977   5.659   3.495   5.997  1.1751 -0.1038  1.0329
 7301SOL    MW428978   5.650   3.414   6.028  0.6524 -0.2217  0.5987
 7302SOL     OW28979   5.016   2.640   3.058 -0.2605 -0.0970  0.2384
 7302SOL    HW228980   4.934   2.590   3.051 -0.9468  1.0689 -0.4905
 7302SOL    HW328981   4.987   2.730   3.072  0.9182  0.3170  0.1221
 7302SOL    MW428982   5.001   2.646   3.059 -0.1956  0.1114  0.1269
 7303SOL     OW28983   2.607   4.661   4.309  0.8390  0.3602 -0.2739
 7303SOL    HW228984   2.575   4.571   4.319  1.5822 -0.0411 -1.3627
 7303SOL    HW328985   2.619   4.691   4.399 -1.5439  0.1767  0.1763
 7303SOL    MW428986   2.605   4.653   4.322  0.6226  0.2830 -0.3582
 7304SOL     OW28987   5.425   0.630   6.163  0.3375  0.5666  0.0227
 7304SOL    HW228988   5.449   0.551   6.115 -1.9763  0.0619 -0.4146
 7304SOL    HW328989   5.412   0.601   6.253  0.5425  0.6919  0.0962
 7304SOL    MW428990   5.427   0.616   6.168  0.0593  0.5165 -0.0253
 7305SOL     OW28991   2.173   3.882   2.783  0.2451  0.0320  0.8121
 7305SOL    HW228992   2.192   3.882   2.689 -1.2658  0.7371  0.4720
 7305SOL    HW328993   2.240   3.826   2.821  0.1586 -1.2927 -0.8453
 7305SOL    MW428994   2.184   3.875   2.775  0.0343 -0.0498  0.5486
 7306SOL     OW28995   3.471   1.255   1.221 -0.0475 -0.4524  0.3350
 7306SOL    HW228996   3.442   1.180   1.274  0.0820 -0.8953 -0.2082
 7306SOL    HW328997   3.399   1.318   1.228 -1.6062 -1.8493 -1.6230
 7306SOL    MW428998   3.457   1.253   1.229 -0.2361 -0.6951  0.0050
 7307SOL     OW28999   6.077   2.193   1.963 -0.1518 -0.2571  0.0963
 7307SOL    HW229000   6.021   2.132   2.011  1.4963  0.0119  2.5963
 7307SOL    HW329001   6.153   2.141   1.938  0.0158  0.1326 -0.2129
 7307SOL    MW429002   6.080   2.178   1.966  0.0877 -0.1702  0.3854
 7308SOL     OW29003   0.209   5.600   4.524  0.4950  0.0126 -0.3331
 7308SOL    HW229004   0.205   5.561   4.436  1.8270  1.5739 -1.1339
 7308SOL    HW329005   0.118   5.626   4.542  0.5010  1.4224 -2.1042
 7308SOL    MW429006   0.196   5.598   4.515  0.6715  0.4046 -0.6725
 7309SOL     OW29007   0.476   0.629   2.833 -0.6600  0.1617 -0.8697
 7309SOL    HW229008   0.467   0.679   2.913 -0.7518 -0.5497 -0.4263
 7309SOL    HW329009   0.419   0.553   2.845 -0.0285 -0.3888 -1.2505
 7309SOL    MW429010   0.467   0.626   2.845 -0.5888 -0.0048 -0.8615
 7310SOL     OW29011   2.869   6.091   0.518 -0.0003 -0.1237 -0.0713
 7310SOL    HW229012   2.924   6.059   0.589 -1.2234 -1.7921  0.1915
 7310SOL    HW329013   2.929   6.104   0.444  1.1412  0.7922  0.9669
 7310SOL    MW429014   2.884   6.089   0.518 -0.0111 -0.2230  0.1004
 7311SOL     OW29015   6.190   4.074   1.590  0.2366 -0.2832 -0.1466
 7311SOL    HW229016   6.136   4.142   1.630  1.0334  0.4246 -0.2432
 7311SOL    HW329017   6.178   3.998   1.646 -0.0102  0.1858  0.4544
 7311SOL    MW429018   6.181   4.073   1.602  0.3092 -0.1280 -0.0801
 7312SOL     OW29019   1.464   1.287   6.244  0.4007  0.3235 -0.2869
 7312SOL    HW229020   1.442   1.371   6.204 -3.2032 -1.3000 -2.2051
 7312SOL    HW329021   1.461   1.224   6.171  1.7137 -1.6514  1.2700
 7312SOL    MW429022   1.460   1.290   6.229  0.0985 -0.1512 -0.3346
 7313SOL     OW29023   3.158   3.173   6.209 -0.8529 -0.1108  0.4178
 7313SOL    HW229024   3.063   3.169   6.221 -0.8205 -1.3496  0.4208
 7313SOL    HW329025   3.186   3.081   6.210  0.1760  0.1551 -1.0349
 7313SOL    MW429026   3.149   3.160   6.211 -0.7129 -0.2392  0.2265
 7314SOL     OW29027   5.704   5.212   5.589 -0.4939  0.3616  0.1543
 7314SOL    HW229028   5.644   5.194   5.662 -0.0135  0.1894  0.5136
 7314SOL    HW329029   5.682   5.145   5.524 -1.5430  1.0693 -0.2534
 7314SOL    MW429030   5.693   5.201   5.590 -0.5689  0.4323  0.1480
 7315SOL     OW29031   1.267   0.237   5.069 -1.4189 -0.1688  0.0409
 7315SOL    HW229032   1.271   0.302   4.998  0.6359 -1.5645 -1.2097
 7315SOL    HW329033   1.232   0.286   5.144  1.1431  2.7577 -0.4524
 7315SOL    MW429034   1.263   0.252   5.069 -0.8098  0.0332 -0.1892
 7316SOL     OW29035   0.155   3.250   1.435 -0.6623  0.0207  0.3645
 7316SOL    HW229036   0.193   3.257   1.348 -0.2696 -1.5934  0.3720
 7316SOL    HW329037   0.098   3.173   1.431 -0.2125 -0.4128  1.6664
 7316SOL    MW429038   0.152   3.241   1.423 -0.5511 -0.2495  0.5372
 7317SOL     OW29039   0.061   3.883   0.936  0.3343  0.4250 -0.5535
 7317SOL    HW229040   0.026   3.856   1.021  0.5145  0.5547 -0.4392
 7317SOL    HW329041   0.029   3.816   0.875 -0.6788  0.9059 -0.5671
 7317SOL    MW429042   0.052   3.871   0.939  0.2244  0.5055 -0.5402
 7318SOL     OW29043   1.586   3.076   0.543  0.5716  0.0517  0.3943
 7318SOL    HW229044   1.554   3.029   0.619 -0.8528 -2.0344 -1.3561
 7318SOL    HW329045   1.525   3.149   0.531 -0.0666 -0.4614  0.4600
 7318SOL    MW429046   1.574   3.080   0.551  0.2995 -0.2913  0.1720
 7319SOL     OW29047   0.989   0.623   6.387 -0.2989  0.0833 -0.0446
 7319SOL    HW229048   1.025   0.710   6.400 -1.3751  0.2405  2.3971
 7319SOL    HW329049   1.055   0.578   6.333  1.6824  1.5101  1.0306
 7319SOL    MW429050   1.003   0.628   6.382 -0.1795  0.2923  0.4194
 7320SOL     OW29051   5.472   4.288   5.406  0.3446 -0.0423  0.0929
 7320SOL    HW229052   5.543   4.229   5.433  0.7259  1.2030  2.0214
 7320SOL    HW329053   5.395   4.231   5.398  1.1322 -1.1098 -0.1971
 7320SOL    MW429054   5.471   4.273   5.408  0.4988 -0.0188  0.3090
 7321SOL     OW29055   0.553   5.811   4.656 -0.7677 -0.5027 -0.2611
 7321SOL    HW229056   0.537   5.822   4.750 -0.0038 -0.9529 -0.0678
 7321SOL    HW329057   0.476   5.849   4.614  0.1745  2.4447  0.4376
 7321SOL    MW429058   0.541   5.817   4.663 -0.5426 -0.1732 -0.1434
 7322SOL     OW29059   2.995   4.071   3.720  0.2778  0.2148  0.1322
 7322SOL    HW229060   2.995   4.098   3.812  0.1524  0.9868 -0.0884
 7322SOL    HW329061   2.946   3.989   3.720  0.0892  0.3178  0.7241
 7322SOL    MW429062   2.989   4.064   3.732  0.2364  0.3303  0.1812
 7323SOL     OW29063   0.510   4.888   6.041 -0.2345 -0.0880 -0.0564
 7323SOL    HW229064   0.521   4.950   6.113 -0.0567 -0.0227 -0.1381
 7323SOL    HW329065   0.578   4.913   5.978 -1.9507  1.4455 -1.3853
 7323SOL    MW429066   0.521   4.899   6.042 -0.4375  0.1230 -0.2425
 7324SOL     OW29067   1.298   1.296   2.866  0.0944 -0.5090 -0.1027
 7324SOL    HW229068   1.369   1.351   2.899 -0.4898 -0.0735  0.4641
 7324SOL    HW329069   1.341   1.232   2.809  0.8626  0.1310 -0.2599
 7324SOL    MW429070   1.313   1.295   2.863  0.1187 -0.3671 -0.0487
 7325SOL     OW29071   6.379   0.746   2.832  0.1738  0.6120 -0.3882
 7325SOL    HW229072   6.439   0.746   2.757 -0.0903  0.7683 -0.6029
 7325SOL    HW329073   6.427   0.700   2.901 -0.0558 -0.6395 -1.0279
 7325SOL    MW429074   6.393   0.740   2.831  0.1087  0.4675 -0.5009
 7326SOL     OW29075   5.691   1.652   5.590  0.3368 -0.0784 -0.4134
 7326SOL    HW229076   5.700   1.722   5.526  0.2398  0.0117 -0.3296
 7326SOL    HW329077   5.780   1.632   5.617  0.5606 -1.5416 -2.0875
 7326SOL    MW429078   5.704   1.658   5.585  0.3536 -0.2596 -0.6232
 7327SOL     OW29079   4.616   2.807   0.331  0.1249 -0.0977  0.0825
 7327SOL    HW229080   4.689   2.746   0.321 -0.1093 -0.8659  2.3755
 7327SOL    HW329081   4.654   2.884   0.374 -0.0456  0.3736 -0.5934
 7327SOL    MW429082   4.631   2.809   0.335  0.0715 -0.1368  0.2959
 7328SOL     OW29083   5.110   2.832   4.132  0.2626  0.6430 -0.1858
 7328SOL    HW229084   5.094   2.844   4.039  0.0396  0.9196 -0.1135
 7328SOL    HW329085   5.203   2.807   4.137  0.0004 -0.4676 -0.5596
 7328SOL    MW429086   5.120   2.830   4.120  0.1986  0.5330 -0.2256
 7329SOL     OW29087   0.264   1.440   2.871 -0.8357 -0.3631 -0.2897
 7329SOL    HW229088   0.235   1.361   2.916 -0.2403 -0.0399  0.6947
 7329SOL    HW329089   0.206   1.509   2.903  1.1126  0.3568  1.9606
 7329SOL    MW429090   0.253   1.439   2.881 -0.5001 -0.2255  0.1371
 7330SOL     OW29091   0.038   0.321   3.301  0.4554  0.8847  0.6093
 7330SOL    HW229092  -0.041   0.281   3.339  0.3580  0.6573  0.1809
 7330SOL    HW329093   0.109   0.295   3.360  0.7912 -1.9005 -0.8483
 7330SOL    MW429094   0.037   0.313   3.314  0.4868  0.4873  0.3605
 7331SOL     OW29095   1.667   2.459   5.588  0.1946  0.7216  0.1984
 7331SOL    HW229096   1.675   2.458   5.492 -0.7303 -0.1841  0.1205
 7331SOL    HW329097   1.635   2.547   5.608 -1.3655  0.3479 -0.5019
 7331SOL    MW429098   1.664   2.470   5.578 -0.1333  0.5528  0.0957
 7332SOL     OW29099   5.999   1.946   4.670  0.8411 -0.5147  0.5270
 7332SOL    HW229100   5.920   1.899   4.641  0.4383  0.0939  0.6217
 7332SOL    HW329101   6.014   1.914   4.759 -0.2249  0.5038  1.1032
 7332SOL    MW429102   5.991   1.935   4.678  0.6473 -0.3000  0.6155
 7333SOL     OW29103   6.205   4.039   2.555 -0.1738 -0.0065 -0.4409
 7333SOL    HW229104   6.179   4.083   2.474 -1.0352 -0.3587 -0.3725
 7333SOL    HW329105   6.122   4.028   2.603  0.3533  0.5062  0.6427
 7333SOL    MW429106   6.190   4.044   2.551 -0.2179  0.0147 -0.2889
 7334SOL     OW29107   4.075   0.784   2.832  0.4097 -0.7201  0.0974
 7334SOL    HW229108   3.984   0.755   2.839  0.3874 -1.2270 -1.7702
 7334SOL    HW329109   4.102   0.758   2.744  2.8886 -2.0509  1.1616
 7334SOL    MW429110   4.066   0.777   2.821  0.7338 -0.9625 -0.0086
 7335SOL     OW29111   3.279   6.187   0.930  0.2068  0.8648  0.1380
 7335SOL    HW229112   3.276   6.092   0.927  0.8150  0.8490 -2.4014
 7335SOL    HW329113   3.211   6.212   0.993  0.2644 -1.2162  1.0997
 7335SOL    MW429114   3.270   6.178   0.938  0.2946  0.5881 -0.0702
 7336SOL     OW29115   5.448   6.472   2.550 -0.2244  0.2203  0.2875
 7336SOL    HW229116   5.455   6.567   2.545 -0.8970  0.1999 -1.7499
 7336SOL    HW329117   5.383   6.456   2.619  1.2605  1.1174  1.9870
 7336SOL    MW429118   5.441   6.482   2.558 -0.1172  0.3360  0.2429
 7337SOL     OW29119   1.658   5.945   1.278  0.5644 -0.2515  0.6581
 7337SOL    HW229120   1.718   5.900   1.337 -0.4099 -0.6839  1.3378
 7337SOL    HW329121   1.621   5.875   1.224  1.2281  0.1047 -0.2835
 7337SOL    MW429122   1.661   5.930   1.278  0.5234 -0.2616  0.6236
 7338SOL     OW29123   5.545   5.875   5.245 -0.0322 -0.3072 -0.7953
 7338SOL    HW229124   5.468   5.896   5.192 -0.7207 -1.9403 -0.4859
 7338SOL    HW329125   5.512   5.870   5.335  0.4693 -0.8184 -0.6315
 7338SOL    MW429126   5.531   5.877   5.250 -0.0569 -0.5901 -0.7328
 7339SOL     OW29127   6.318   0.676   4.983 -0.5410  0.5562  0.0319
 7339SOL    HW229128   6.272   0.753   4.948 -0.2944  0.1307 -1.2986
 7339SOL    HW329129   6.406   0.708   5.001  0.2649  0.1465 -2.6575
 7339SOL    MW429130   6.323   0.691   4.981 -0.4021  0.4460 -0.4985
 7340SOL     OW29131   0.980   2.012   2.918 -0.2540  0.3503  0.2721
 7340SOL    HW229132   0.993   2.060   3.000 -1.9425 -0.6026  1.1663
 7340SOL    HW329133   1.065   1.972   2.900  0.3473  1.1931  1.1444
 7340SOL    MW429134   0.992   2.013   2.927 -0.3974  0.3358  0.5052
 7341SOL     OW29135   5.826   2.707   4.979 -0.1020 -0.1844 -0.0883
 7341SOL    HW229136   5.823   2.803   4.986  1.0210 -0.2029  0.8512
 7341SOL    HW329137   5.790   2.676   5.062 -2.3268 -0.6380 -1.1378
 7341SOL    MW429138   5.821   2.716   4.991 -0.2474 -0.2467 -0.1028
 7342SOL     OW29139   5.568   2.522   4.539  0.3561 -0.1939  0.0254
 7342SOL    HW229140   5.596   2.595   4.594  0.9624 -0.9561  0.7523
 7342SOL    HW329141   5.650   2.478   4.514 -0.0396 -1.0408  0.1893
 7342SOL    MW429142   5.583   2.526   4.543  0.3839 -0.4062  0.1429
 7343SOL     OW29143   5.635   5.286   2.320  0.0172  0.1513  0.5582
 7343SOL    HW229144   5.612   5.232   2.395  0.7390  0.0562  0.7219
 7343SOL    HW329145   5.723   5.317   2.339  0.0103  0.5432 -0.0162
 7343SOL    MW429146   5.644   5.283   2.332  0.1116  0.1905  0.5040
 7344SOL     OW29147   4.121   4.465   3.995  0.0916 -0.3229 -0.9829
 7344SOL    HW229148   4.173   4.480   4.074 -1.3087 -0.9296  0.1144
 7344SOL    HW329149   4.141   4.375   3.970 -0.2755 -0.5051 -0.6482
 7344SOL    MW429150   4.131   4.455   4.002 -0.1416 -0.4270 -0.7940
 7345SOL     OW29151   4.993   0.522   5.961  0.7520  0.3447  0.3897
 7345SOL    HW229152   5.075   0.573   5.954  0.9120 -0.0580 -0.8361
 7345SOL    HW329153   5.011   0.441   5.914  0.4108 -0.7795  2.1170
 7345SOL    MW429154   5.006   0.518   5.954  0.7281  0.1433  0.4558
 7346SOL     OW29155   4.028   1.247   3.583  0.5015  0.0510  0.0970
 7346SOL    HW229156   4.092   1.185   3.548  1.0138  0.0437  1.0236
 7346SOL    HW329157   3.947   1.227   3.536  1.1433 -0.0049 -1.0303
 7346SOL    MW429158   4.026   1.236   3.572  0.6537  0.0426  0.0705
 7347SOL     OW29159   1.615   2.296   3.024  0.1711  0.5520  0.7425
 7347SOL    HW229160   1.599   2.207   3.056  1.1664 -0.2204 -0.7908
 7347SOL    HW329161   1.626   2.286   2.929 -0.6448  2.4587  0.3950
 7347SOL    MW429162   1.614   2.283   3.015  0.1947  0.7017  0.4944
 7348SOL     OW29163   3.959   0.925   1.567 -0.2912 -0.3125  0.2706
 7348SOL    HW229164   4.033   0.868   1.590  0.0104 -0.0129  0.0574
 7348SOL    HW329165   3.980   1.009   1.608 -0.0201  0.0654 -0.6230
 7348SOL    MW429166   3.972   0.929   1.575 -0.2156 -0.2231  0.1246
 7349SOL     OW29167   4.398   0.720   2.576  0.2763  0.1949  0.2648
 7349SOL    HW229168   4.350   0.796   2.609  1.6781  0.5514  1.5775
 7349SOL    HW329169   4.442   0.752   2.497  0.1471  0.4845  0.3087
 7349SOL    MW429170   4.397   0.735   2.570  0.4442  0.2802  0.4438
 7350SOL     OW29171   3.280   0.538   1.962 -0.8613  0.1632  0.0072
 7350SOL    HW229172   3.191   0.529   1.928 -0.8493  3.1193 -1.1081
 7350SOL    HW329173   3.335   0.536   1.884 -0.1686  0.5999  0.4810
 7350SOL    MW429174   3.275   0.536   1.947 -0.7683  0.6108 -0.0774
 7351SOL     OW29175   3.806   6.038   2.739  0.1938 -0.2045  0.3289
 7351SOL    HW229176   3.859   6.031   2.660  0.2054 -0.3180  0.3467
 7351SOL    HW329177   3.858   6.093   2.798 -0.1907  0.5852 -0.0563
 7351SOL    MW429178   3.820   6.045   2.737  0.1446 -0.1153  0.2804
 7352SOL     OW29179   1.558   0.289   5.283  0.3683  0.4360 -0.1206
 7352SOL    HW229180   1.563   0.212   5.339  0.9762 -0.4199 -1.3177
 7352SOL    HW329181   1.650   0.314   5.270  0.2577  0.3328 -1.1242
 7352SOL    MW429182   1.571   0.282   5.289  0.4339  0.3095 -0.4109
 7353SOL     OW29183   5.528   5.905   3.136  0.2064 -0.1600  0.1303
 7353SOL    HW229184   5.568   5.899   3.222 -1.2721  2.4098  1.1238
 7353SOL    HW329185   5.434   5.897   3.153 -0.0780 -0.2416 -1.3314
 7353SOL    MW429186   5.521   5.903   3.150 -0.0262  0.1683  0.0685
 7354SOL     OW29187   2.794   2.749   4.460 -0.2485 -0.1799 -0.0601
 7354SOL    HW229188   2.827   2.710   4.379 -1.4898 -0.5188 -0.4206
 7354SOL    HW329189   2.826   2.839   4.458  2.2503 -0.9750  0.5419
 7354SOL    MW429190   2.803   2.756   4.449 -0.0826 -0.3295 -0.0282
 7355SOL     OW29191   6.225   2.555   0.199 -0.1199 -0.0750  0.3008
 7355SOL    HW229192   6.187   2.593   0.119  2.7666  2.9283  0.1408
 7355SOL    HW329193   6.271   2.476   0.170  1.4827  1.3531 -1.2617
 7355SOL    MW429194   6.226   2.550   0.185  0.4724  0.5097  0.0735
 7356SOL     OW29195   1.588   3.496   4.958 -0.3214 -0.2827 -0.1300
 7356SOL    HW229196   1.512   3.535   5.003 -2.5660 -1.4691 -2.6343
 7356SOL    HW329197   1.555   3.415   4.921  1.9000 -0.3240 -2.2418
 7356SOL    MW429198   1.573   3.491   4.959 -0.3245 -0.4447 -0.7391
 7357SOL     OW29199   4.954   5.295   0.629  0.3794  0.1607 -0.1815
 7357SOL    HW229200   4.902   5.259   0.701  0.5928 -0.3779 -0.2966
 7357SOL    HW329201   4.930   5.242   0.553  0.9574  0.0334 -0.2767
 7357SOL    MW429202   4.944   5.284   0.629  0.4838  0.0728 -0.2093
 7358SOL     OW29203   5.208   4.870   1.571 -0.2297 -0.7701  0.5496
 7358SOL    HW229204   5.299   4.855   1.545 -0.2395 -1.1689  0.7398
 7358SOL    HW329205   5.165   4.899   1.490  0.1527 -0.1886  0.5514
 7358SOL    MW429206   5.214   4.872   1.557 -0.1806 -0.7460  0.5749
 7359SOL     OW29207   6.096   1.307   1.037 -0.2836  0.0915 -0.3332
 7359SOL    HW229208   6.110   1.347   0.951  2.1533  0.0355 -0.0365
 7359SOL    HW329209   6.155   1.231   1.037 -0.0596  0.2311  1.4620
 7359SOL    MW429210   6.106   1.302   1.026  0.0675  0.1025 -0.0572
 7360SOL     OW29211   0.316   0.921   2.121 -0.0014  0.0484  0.0346
 7360SOL    HW229212   0.407   0.893   2.136  0.2928  1.6303  1.5652
 7360SOL    HW329213   0.317   0.963   2.036  0.0556 -2.3383 -1.2202
 7360SOL    MW429214   0.328   0.923   2.112  0.0449 -0.0578  0.0710
 7361SOL     OW29215   1.340   2.913   4.985 -0.5130  0.0448 -0.2040
 7361SOL    HW229216   1.374   2.988   5.033 -0.2883  0.9282 -1.6910
 7361SOL    HW329217   1.414   2.852   4.981 -0.2075  0.4129 -0.3075
 7361SOL    MW429218   1.354   2.915   4.991 -0.4430  0.2099 -0.4139
 7362SOL     OW29219   4.838   0.557   1.091 -0.3556  0.0428  0.9887
 7362SOL    HW229220   4.857   0.479   1.038  0.8069  0.6454  0.4731
 7362SOL    HW329221   4.746   0.576   1.074 -0.0463  0.1381 -0.7475
 7362SOL    MW429222   4.828   0.549   1.082 -0.1614  0.1349  0.6916
 7363SOL     OW29223   3.006   2.605   0.944 -0.5188 -0.1279 -0.1372
 7363SOL    HW229224   3.064   2.679   0.959  0.0720 -0.7957  0.9704
 7363SOL    HW329225   2.918   2.642   0.953 -0.2615  0.0431  2.9003
 7363SOL    MW429226   3.002   2.619   0.947 -0.4069 -0.1934  0.4097
 7364SOL     OW29227   2.267   1.008   5.817  0.4610  0.1017 -0.5369
 7364SOL    HW229228   2.238   1.083   5.869  1.3584  0.3681 -0.4117
 7364SOL    HW329229   2.186   0.974   5.777 -0.0937  0.5184  0.2026
 7364SOL    MW429230   2.252   1.013   5.819  0.5062  0.1918 -0.4228
 7365SOL     OW29231   0.236   1.774   5.962  0.0678 -0.2317  0.1991
 7365SOL    HW229232   0.212   1.856   5.919 -1.4553 -0.9632 -0.4514
 7365SOL    HW329233   0.296   1.800   6.032  1.3532  1.1783 -1.3359
 7365SOL    MW429234   0.241   1.788   5.966  0.0365 -0.1422 -0.0893
 7366SOL     OW29235   5.868   5.661   4.618 -0.0655  0.4290 -0.7076
 7366SOL    HW229236   5.890   5.728   4.682  0.6798  0.2839 -0.8060
 7366SOL    HW329237   5.932   5.672   4.548 -0.2877 -0.0229 -0.9864
 7366SOL    MW429238   5.879   5.671   4.618  0.0035  0.3502 -0.7574
 7367SOL     OW29239   2.651   0.362   3.277  0.2262 -0.5253  0.6152
 7367SOL    HW229240   2.741   0.366   3.244  0.0254 -2.2329 -0.2284
 7367SOL    HW329241   2.605   0.431   3.229  0.7432 -0.6721 -0.1104
 7367SOL    MW429242   2.657   0.372   3.266  0.2680 -0.7699  0.4081
 7368SOL     OW29243   0.272   4.473   0.262  0.3846 -0.2831 -0.1070
 7368SOL    HW229244   0.221   4.455   0.183 -0.0238 -2.7932  0.6484
 7368SOL    HW329245   0.226   4.427   0.332  0.1923  2.6598  1.8492
 7368SOL    MW429246   0.260   4.464   0.260  0.3054 -0.2260  0.2508
 7369SOL     OW29247   0.782   2.965   3.736 -0.4270 -0.3662  0.1118
 7369SOL    HW229248   0.872   2.940   3.759  0.1288  2.9196  2.2167
 7369SOL    HW329249   0.791   3.053   3.699 -2.8675  1.6283  3.6248
 7369SOL    MW429250   0.795   2.973   3.735 -0.6757  0.3305  0.8531
 7370SOL     OW29251   3.383   4.981   5.691  0.2212  0.2179  0.6442
 7370SOL    HW229252   3.384   5.055   5.631  0.7506 -1.6182 -1.7980
 7370SOL    HW329253   3.475   4.971   5.718  0.1237  0.5398  1.0982
 7370SOL    MW429254   3.395   4.989   5.686  0.2782  0.0181  0.3819
 7371SOL     OW29255   3.724   2.425   0.291 -0.2288  0.0138  0.5425
 7371SOL    HW229256   3.727   2.383   0.377  1.3406 -2.9195 -0.8016
 7371SOL    HW329257   3.815   2.450   0.273 -0.4937  0.3807 -0.3418
 7371SOL    MW429258   3.737   2.423   0.300 -0.0567 -0.3248  0.2485
 7372SOL     OW29259   2.224   0.063   2.240  0.1536  0.0155 -0.0192
 7372SOL    HW229260   2.213  -0.032   2.235 -0.7188  0.0732  0.5445
 7372SOL    HW329261   2.231   0.091   2.149 -0.6542 -0.4706 -0.2380
 7372SOL    MW429262   2.224   0.054   2.227 -0.0681 -0.0410  0.0263
 7373SOL     OW29263   4.185   4.324   0.075 -0.1574 -0.4344 -0.1241
 7373SOL    HW229264   4.263   4.276   0.048 -0.2554 -0.4283 -0.4217
 7373SOL    HW329265   4.190   4.325   0.171  0.3617 -0.1698 -0.1499
 7373SOL    MW429266   4.196   4.317   0.084 -0.1019 -0.3987 -0.1668
 7374SOL     OW29267   0.257   2.669   5.420  0.3127  0.0184 -0.0338
 7374SOL    HW229268   0.283   2.603   5.356 -1.5808 -0.5254 -0.2966
 7374SOL    HW329269   0.275   2.753   5.376  3.4706 -0.2054  0.6084
 7374SOL    MW429270   0.263   2.672   5.405  0.4795 -0.0829  0.0162
 7375SOL     OW29271   5.284   0.756   0.739  0.2026 -0.1328 -0.1786
 7375SOL    HW229272   5.223   0.826   0.763  1.3599  1.1197 -0.7783
 7375SOL    HW329273   5.353   0.760   0.805  0.1206 -0.9411 -0.0315
 7375SOL    MW429274   5.285   0.765   0.751  0.3445 -0.0742 -0.2383
 7376SOL     OW29275   2.262   5.153   3.418 -0.1159  0.3624  0.0430
 7376SOL    HW229276   2.201   5.207   3.368 -0.9999  0.1180  0.8241
 7376SOL    HW329277   2.207   5.085   3.457  0.7525 -0.2192  0.2851
 7376SOL    MW429278   2.246   5.151   3.417 -0.1180  0.2534  0.1780
 7377SOL     OW29279   2.276   5.487   3.279 -0.1881  0.4055 -0.8630
 7377SOL    HW229280   2.238   5.574   3.266 -0.7044 -0.0512 -2.6777
 7377SOL    HW329281   2.355   5.488   3.224 -0.6713 -0.5477 -1.5889
 7377SOL    MW429282   2.282   5.499   3.270 -0.3200  0.2194 -1.1982
 7378SOL     OW29283   2.181   2.870   0.097 -0.0779 -0.5289  0.3083
 7378SOL    HW229284   2.208   2.788   0.056  0.5867 -1.2454  2.0755
 7378SOL    HW329285   2.215   2.864   0.186 -0.2028  1.5900  0.5398
 7378SOL    MW429286   2.189   2.858   0.103 -0.0067 -0.3439  0.5720
 7379SOL     OW29287   6.247   1.112   4.490  0.1962  0.2572  0.6741
 7379SOL    HW229288   6.266   1.046   4.424 -0.7966 -1.8077  2.3491
 7379SOL    HW329289   6.151   1.119   4.490  0.2559  1.2317  0.9774
 7379SOL    MW429290   6.237   1.104   4.482  0.0730  0.1134  0.9351
 7380SOL     OW29291   1.945   1.008   4.635  0.0406 -0.0053 -0.2029
 7380SOL    HW229292   1.863   1.024   4.587 -0.4579 -0.4638  0.4713
 7380SOL    HW329293   1.979   1.095   4.655  0.1945  0.1921 -1.2810
 7380SOL    MW429294   1.939   1.022   4.631 -0.0049 -0.0397 -0.2562
 7381SOL     OW29295   0.502   1.714   5.527  0.1474  0.1418  0.2942
 7381SOL    HW229296   0.588   1.717   5.486  0.1528 -0.9126  0.2111
 7381SOL    HW329297   0.521   1.698   5.620  0.1085  1.8929  0.6427
 7381SOL    MW429298   0.516   1.713   5.534  0.1430  0.2337  0.3292
 7382SOL     OW29299   1.233   6.335   4.548  0.2440 -0.1459  0.3684
 7382SOL    HW229300   1.207   6.365   4.461  1.1270 -1.0847 -0.2443
 7382SOL    HW329301   1.328   6.344   4.549  0.6952 -3.4620 -0.1337
 7382SOL    MW429302   1.242   6.340   4.537  0.4200 -0.7073  0.2213
 7383SOL     OW29303   2.941   3.431   3.438  0.5338 -0.0838 -0.2904
 7383SOL    HW229304   3.011   3.449   3.375  0.3824 -0.1137 -0.4711
 7383SOL    HW329305   2.889   3.512   3.439  1.6926  0.6982  1.3419
 7383SOL    MW429306   2.943   3.444   3.430  0.6667  0.0154 -0.0989
 7384SOL     OW29307   6.281   4.390   4.516 -0.1167  0.7258  0.1716
 7384SOL    HW229308   6.208   4.382   4.577  1.1887 -0.7164  1.6496
 7384SOL    HW329309   6.300   4.484   4.512 -0.1539  0.8388  2.1046
 7384SOL    MW429310   6.274   4.401   4.523  0.0506  0.5504  0.6216
 7385SOL     OW29311   2.959   0.269   2.195  0.0731  1.1206 -1.1669
 7385SOL    HW229312   2.952   0.324   2.273 -0.8796  0.0205 -0.4493
 7385SOL    HW329313   3.052   0.246   2.190 -0.1935 -0.7692  1.0881
 7385SOL    MW429314   2.970   0.273   2.204 -0.0877  0.7261 -0.7747
 7386SOL     OW29315   2.219   2.733   6.110 -0.2396 -0.2832  0.5601
 7386SOL    HW229316   2.277   2.808   6.100 -1.1816  0.4046  0.1240
 7386SOL    HW329317   2.169   2.730   6.028 -1.1111 -0.6052  1.0898
 7386SOL    MW429318   2.220   2.742   6.098 -0.4789 -0.2349  0.5724
 7387SOL     OW29319   4.222   3.223   5.073 -0.2802 -0.5619 -0.1727
 7387SOL    HW229320   4.140   3.178   5.094 -0.4573  0.1754  0.7613
 7387SOL    HW329321   4.279   3.206   5.148 -0.0029 -0.0649 -0.2662
 7387SOL    MW429322   4.218   3.215   5.085 -0.2670 -0.3990 -0.0618
 7388SOL     OW29323   3.766   5.537   5.920 -0.2074  0.0703  0.2674
 7388SOL    HW229324   3.766   5.442   5.906 -0.3756  0.2025 -0.6985
 7388SOL    HW329325   3.676   5.564   5.903 -0.8507  0.0826  3.1513
 7388SOL    MW429326   3.754   5.528   5.916 -0.3145  0.0894  0.5205
 7389SOL     OW29327   2.209   1.557   2.660 -0.7757 -0.1113  0.9617
 7389SOL    HW229328   2.167   1.472   2.674  1.3950 -1.3679  0.2846
 7389SOL    HW329329   2.295   1.535   2.624 -0.6449  2.4279 -0.4733
 7389SOL    MW429330   2.215   1.543   2.657 -0.4721  0.0579  0.6830
 7390SOL     OW29331   3.513   5.993   3.341  0.2559  0.3489 -0.0294
 7390SOL    HW229332   3.553   6.048   3.409 -1.2511  0.0337  1.1431
 7390SOL    HW329333   3.483   5.915   3.387 -0.3066 -0.1281 -1.1689
 7390SOL    MW429334   3.514   5.990   3.356 -0.0172  0.2444 -0.0250
 7391SOL     OW29335   4.700   2.142   5.966  0.0559 -0.1203  0.0455
 7391SOL    HW229336   4.710   2.090   6.046  1.8118 -0.0518 -0.1067
 7391SOL    HW329337   4.785   2.138   5.924 -0.2811  1.4900 -0.8423
 7391SOL    MW429338   4.712   2.134   5.971  0.2431  0.1012 -0.0917
 7392SOL     OW29339   4.903   2.774   0.598  0.1173  0.4083  0.2847
 7392SOL    HW229340   4.948   2.853   0.567  0.1297  0.4737  0.4701
 7392SOL    HW329341   4.843   2.805   0.666 -0.0427  0.2890  0.1976
 7392SOL    MW429342   4.901   2.788   0.603  0.0978  0.4012  0.2977
 7393SOL     OW29343   5.711   2.675   0.704  1.5991 -0.0869 -0.0588
 7393SOL    HW229344   5.735   2.759   0.742 -0.2892  0.2475  0.4848
 7393SOL    HW329345   5.692   2.619   0.780 -3.2481  0.8892 -0.2193
 7393SOL    MW429346   5.712   2.678   0.719  0.7104  0.0860 -0.0082
 7394SOL     OW29347   1.281   5.064   2.241 -0.1023  0.6548 -0.2565
 7394SOL    HW229348   1.214   5.013   2.288  0.4309  1.4177  1.4023
 7394SOL    HW329349   1.364   5.022   2.264  0.2210  1.3975 -0.0255
 7394SOL    MW429350   1.283   5.052   2.250  0.0107  0.8534 -0.0072
 7395SOL     OW29351   3.338   3.753   4.450 -0.0512 -0.3061  0.3564
 7395SOL    HW229352   3.317   3.846   4.461  0.3994 -0.2032  0.3427
 7395SOL    HW329353   3.365   3.724   4.538 -3.0291 -1.1624  1.1158
 7395SOL    MW429354   3.339   3.761   4.463 -0.3847 -0.4055  0.4548
 7396SOL     OW29355   5.777   4.796   2.137 -0.2160  0.6693 -0.2187
 7396SOL    HW229356   5.732   4.854   2.199 -0.1593  0.6304 -0.1411
 7396SOL    HW329357   5.761   4.835   2.052  2.2532  2.4385  0.0467
 7396SOL    MW429358   5.769   4.808   2.134  0.1172  0.8976 -0.1735
 7397SOL     OW29359   5.597   5.093   4.382 -0.3862 -0.7440  0.5523
 7397SOL    HW229360   5.529   5.149   4.345  1.4957  0.7529 -0.8284
 7397SOL    HW329361   5.554   5.008   4.394 -2.4485  0.1126 -0.3691
 7397SOL    MW429362   5.582   5.089   4.379 -0.4100 -0.4335  0.2485
 7398SOL     OW29363   5.105   5.326   4.658  0.3084  0.3916 -0.6336
 7398SOL    HW229364   5.150   5.364   4.733 -0.0690 -0.7758  0.2166
 7398SOL    HW329365   5.173   5.276   4.612  0.4390  0.7387 -0.8236
 7398SOL    MW429366   5.120   5.324   4.662  0.2758  0.2834 -0.5465
 7399SOL     OW29367   3.748   5.247   5.857 -0.7143 -0.0047  0.2325
 7399SOL    HW229368   3.819   5.185   5.840 -0.9837 -0.4864  0.8404
 7399SOL    HW329369   3.683   5.197   5.905 -1.7417  0.2747 -0.8248
 7399SOL    MW429370   3.749   5.232   5.861 -0.8854 -0.0314  0.1732
 7400SOL     OW29371   1.052   5.866   4.594  0.3947  0.2454  0.2557
 7400SOL    HW229372   1.045   5.958   4.620 -0.3038  0.5548 -0.9327
 7400SOL    HW329373   0.961   5.838   4.582  0.5727 -0.7659  1.1071
 7400SOL    MW429374   1.039   5.874   4.596  0.3260  0.1528  0.2113
 7401SOL     OW29375   1.460   0.711   5.031 -1.0427 -0.0008  0.6232
 7401SOL    HW229376   1.475   0.623   5.064 -0.6889 -0.5141 -0.8219
 7401SOL    HW329377   1.542   0.758   5.051  0.1701 -1.0022 -1.5828
 7401SOL    MW429378   1.473   0.706   5.038 -0.8360 -0.2007  0.1415
 7402SOL     OW29379   4.659   2.827   1.125 -0.1491  0.5689  0.2875
 7402SOL    HW229380   4.573   2.858   1.098 -1.2106  0.9649  3.6427
 7402SOL    HW329381   4.643   2.739   1.161  0.7571  0.7924  1.2947
 7402SOL    MW429382   4.646   2.819   1.126 -0.1696  0.6506  0.8631
 7403SOL     OW29383   1.652   5.115   0.972 -0.2079 -0.3878  0.1815
 7403SOL    HW229384   1.716   5.054   1.010 -0.9166 -0.4380  1.3475
 7403SOL    HW329385   1.703   5.193   0.950  0.6748 -1.3054 -1.1289
 7403SOL    MW429386   1.667   5.117   0.974 -0.1850 -0.5155  0.1625
 7404SOL     OW29387   5.509   2.932   4.073  0.2140 -0.5382 -0.4470
 7404SOL    HW229388   5.599   2.902   4.065  0.4096 -1.0551  2.5463
 7404SOL    HW329389   5.463   2.859   4.114 -1.0862  0.4512 -0.0706
 7404SOL    MW429390   5.515   2.918   4.078  0.0683 -0.4759 -0.0024
 7405SOL     OW29391   2.408   6.146   2.509  0.0963  0.0118  0.5464
 7405SOL    HW229392   2.336   6.105   2.556  0.8883 -2.1599 -0.0346
 7405SOL    HW329393   2.487   6.109   2.548  1.0051  2.5586  1.3846
 7405SOL    MW429394   2.409   6.136   2.520  0.3207  0.0613  0.5804
 7406SOL     OW29395   4.014   6.095   2.927 -0.1387 -0.6248  0.2476
 7406SOL    HW229396   3.962   6.138   2.995  1.3175  2.7020 -0.5189
 7406SOL    HW329397   4.026   6.006   2.959 -1.5950  0.0762  3.1224
 7406SOL    MW429398   4.009   6.089   2.940 -0.1387 -0.0934  0.5258
 7407SOL     OW29399   1.550   2.810   3.414  0.0436  0.0202  0.4252
 7407SOL    HW229400   1.477   2.769   3.368  1.2205 -2.0023  0.2269
 7407SOL    HW329401   1.530   2.795   3.507  0.0941 -0.3194  0.3817
 7407SOL    MW429402   1.537   2.803   3.420  0.2055 -0.2914  0.3933
 7408SOL     OW29403   0.236   4.516   4.364 -0.0120 -0.1221 -0.0272
 7408SOL    HW229404   0.214   4.584   4.428  0.5697  0.4777 -0.4493
 7408SOL    HW329405   0.153   4.495   4.321 -0.2608  0.0424  0.3656
 7408SOL    MW429406   0.222   4.522   4.367  0.0319 -0.0213 -0.0310
 7409SOL     OW29407   4.369   0.707   4.270  0.1729  0.5392  0.4710
 7409SOL    HW229408   4.324   0.708   4.185  0.0329  2.4320  0.5330
 7409SOL    HW329409   4.457   0.740   4.251  0.4097  0.2061  0.9523
 7409SOL    MW429410   4.375   0.711   4.256  0.1857  0.7449  0.5427
 7410SOL     OW29411   5.848   3.393   3.237  0.4910 -0.5435  0.0058
 7410SOL    HW229412   5.784   3.382   3.307  0.5208 -0.8193 -0.0075
 7410SOL    HW329413   5.842   3.311   3.187  0.0826 -0.1373 -0.6342
 7410SOL    MW429414   5.839   3.381   3.239  0.4410 -0.5263 -0.0804
 7411SOL     OW29415   3.818   0.663   2.748 -0.3046  0.1585  0.0792
 7411SOL    HW229416   3.729   0.665   2.712 -0.6015 -0.1130  0.7831
 7411SOL    HW329417   3.852   0.577   2.723  0.2747  0.7610 -1.3577
 7411SOL    MW429418   3.811   0.652   2.740 -0.2673  0.2022 -0.0175
 7412SOL     OW29419   2.859   4.790   0.981 -0.1256  0.6893  0.2951
 7412SOL    HW229420   2.897   4.784   0.894 -1.4497 -0.0396 -0.2617
 7412SOL    HW329421   2.887   4.710   1.025 -0.4614  0.4655  0.1077
 7412SOL    MW429422   2.868   4.779   0.975 -0.3446  0.5636  0.1969
 7413SOL     OW29423   0.946   1.813   2.018  0.3388 -0.1101 -0.2751
 7413SOL    HW229424   0.860   1.801   2.058 -0.1118 -0.1644 -1.2360
 7413SOL    HW329425   0.997   1.862   2.083  0.0544 -1.3284  0.9018
 7413SOL    MW429426   0.942   1.818   2.031  0.2418 -0.2780 -0.2466
 7414SOL     OW29427   6.164   2.075   3.383  0.6334  0.1496  0.6859
 7414SOL    HW229428   6.087   2.132   3.390  0.0505 -0.4056 -0.8205
 7414SOL    HW329429   6.137   2.006   3.323  2.4362  0.1371 -0.1636
 7414SOL    MW429430   6.150   2.073   3.376  0.7943  0.0747  0.3751
 7415SOL     OW29431   3.844   6.121   4.783  0.2442  0.0399  0.3228
 7415SOL    HW229432   3.896   6.082   4.713 -1.7115  1.0205 -1.7955
 7415SOL    HW329433   3.763   6.071   4.785 -0.3744  1.0282  0.8232
 7415SOL    MW429434   3.841   6.110   4.774 -0.0955  0.2996  0.1093
 7416SOL     OW29435   5.167   4.857   0.321  0.5230 -0.4952 -0.4976
 7416SOL    HW229436   5.074   4.856   0.346  0.7807 -2.8464  0.6716
 7416SOL    HW329437   5.214   4.860   0.405  1.4736 -1.5792 -0.9680
 7416SOL    MW429438   5.161   4.857   0.335  0.6824 -0.9484 -0.4054
 7417SOL     OW29439   1.896   6.334   4.103 -0.2434 -0.2508 -0.6607
 7417SOL    HW229440   1.812   6.320   4.059  0.6484 -2.9473 -1.6798
 7417SOL    HW329441   1.872   6.357   4.193 -2.0517  1.5894 -1.5216
 7417SOL    MW429442   1.882   6.335   4.109 -0.3643 -0.3638 -0.9087
 7418SOL     OW29443   1.990   4.332   6.339 -0.3693 -0.2533 -0.4639
 7418SOL    HW229444   2.078   4.369   6.330 -0.3625 -0.3858 -0.9949
 7418SOL    HW329445   1.974   4.330   6.433 -0.0659  0.3972 -0.3903
 7418SOL    MW429446   2.000   4.337   6.350 -0.3284 -0.1850 -0.5242
 7419SOL     OW29447   0.308   6.189   0.889  0.1906 -0.3447  0.0433
 7419SOL    HW229448   0.373   6.130   0.928  0.0296 -0.7845 -0.3470
 7419SOL    HW329449   0.278   6.143   0.811 -0.0483  0.1916 -0.1824
 7419SOL    MW429450   0.313   6.175   0.884  0.1379 -0.3320 -0.0380
 7420SOL     OW29451   6.345   2.699   1.687 -0.2042 -0.2673 -0.0463
 7420SOL    HW229452   6.294   2.681   1.608 -0.7830  0.7786  0.0783
 7420SOL    HW329453   6.436   2.687   1.660 -0.3948  0.1469 -0.9054
 7420SOL    MW429454   6.350   2.695   1.673 -0.3057 -0.0747 -0.1432
 7421SOL     OW29455   2.389   5.380   1.002  0.0043  0.4294 -0.0847
 7421SOL    HW229456   2.393   5.349   0.911  1.9807  2.1462 -0.6756
 7421SOL    HW329457   2.387   5.301   1.055 -1.5750 -0.6164 -1.6034
 7421SOL    MW429458   2.389   5.366   0.997  0.0567  0.5179 -0.3631
 7422SOL     OW29459   1.823   3.445   0.103 -0.1907 -0.6099 -0.4962
 7422SOL    HW229460   1.745   3.406   0.143 -0.1274 -1.4897 -1.1936
 7422SOL    HW329461   1.852   3.380   0.039  2.5536 -1.4797  1.4154
 7422SOL    MW429462   1.817   3.431   0.100  0.1797 -0.8407 -0.3360
 7423SOL     OW29463   3.522   1.755   1.583 -0.2235  0.5144  0.1343
 7423SOL    HW229464   3.540   1.848   1.574 -1.6590  0.6840 -1.8233
 7423SOL    HW329465   3.506   1.725   1.493 -0.7255 -1.4075  0.8114
 7423SOL    MW429466   3.522   1.763   1.570 -0.4791  0.2832 -0.0347
 7424SOL     OW29467   3.701   5.013   5.169  0.4455  0.1556 -0.0013
 7424SOL    HW229468   3.721   4.963   5.248  0.7563 -0.6562 -0.5723
 7424SOL    HW329469   3.627   5.068   5.192  0.6779  0.0918  0.9172
 7424SOL    MW429470   3.694   5.013   5.182  0.5172  0.0401  0.0446
 7425SOL     OW29471   4.303   5.403   2.599  0.2263 -0.3604  0.2567
 7425SOL    HW229472   4.211   5.375   2.600  0.3257 -0.9304 -1.8012
 7425SOL    HW329473   4.350   5.328   2.564  0.9977  1.0012 -1.8527
 7425SOL    MW429474   4.297   5.389   2.594  0.3412 -0.2560 -0.2931
 7426SOL     OW29475   1.950   4.320   3.156  0.2500 -0.7834 -0.2636
 7426SOL    HW229476   2.008   4.337   3.230 -0.1747 -0.5158  0.0105
 7426SOL    HW329477   1.953   4.400   3.104  2.0206 -1.6357 -1.5644
 7426SOL    MW429478   1.958   4.333   3.159  0.4276 -0.8606 -0.3991
 7427SOL     OW29479   0.557   0.639   1.606 -0.2821  0.6812 -0.1097
 7427SOL    HW229480   0.571   0.554   1.648  0.1414  1.2694  0.9710
 7427SOL    HW329481   0.627   0.645   1.541 -0.7393 -0.0911 -0.6930
 7427SOL    MW429482   0.568   0.628   1.603 -0.2865  0.6569 -0.0440
 7428SOL     OW29483   0.848   4.594   0.304  0.3318  0.1761  0.4798
 7428SOL    HW229484   0.760   4.555   0.300 -0.4242  1.9046 -1.5757
 7428SOL    HW329485   0.855   4.627   0.394 -0.6049 -1.0324  1.0351
 7428SOL    MW429486   0.837   4.593   0.316  0.1085  0.2447  0.2818
 7429SOL     OW29487   0.917   0.680   5.999 -0.7096 -0.1168  0.5118
 7429SOL    HW229488   0.884   0.683   5.909  0.7914 -0.6274 -0.0909
 7429SOL    HW329489   0.874   0.604   6.038  0.9052 -1.7935 -0.7793
 7429SOL    MW429490   0.907   0.670   5.992 -0.2985 -0.4054  0.2620
 7430SOL     OW29491   5.409   6.322   0.824 -0.0746  0.0496  0.2272
 7430SOL    HW229492   5.354   6.252   0.790 -0.6648  1.2862 -1.5164
 7430SOL    HW329493   5.484   6.325   0.764  0.4583  0.2624  0.8823
 7430SOL    MW429494   5.412   6.314   0.811 -0.0822  0.2408  0.0836
 7431SOL     OW29495   0.210   3.797   2.979 -0.0770 -0.1651  0.2415
 7431SOL    HW229496   0.252   3.720   2.942 -1.5622 -1.4916  1.1606
 7431SOL    HW329497   0.160   3.835   2.906 -0.7174 -1.1082  0.1694
 7431SOL    MW429498   0.209   3.792   2.965 -0.3574 -0.4646  0.3533
 7432SOL     OW29499   2.122   1.339   5.308 -0.0340 -0.0359  0.6212
 7432SOL    HW229500   2.182   1.319   5.379  1.0524  1.1798  0.0949
 7432SOL    HW329501   2.052   1.391   5.348 -0.1642 -0.5204  1.0318
 7432SOL    MW429502   2.121   1.343   5.322  0.0922  0.0606  0.6059
 7433SOL     OW29503   1.238   5.711   2.917 -0.3228  0.0817  0.2845
 7433SOL    HW229504   1.148   5.728   2.888 -0.3074 -0.0068  0.1851
 7433SOL    HW329505   1.241   5.617   2.933  0.1057 -0.1422 -0.9648
 7433SOL    MW429506   1.226   5.701   2.915 -0.2642  0.0405  0.1066
 7434SOL     OW29507   4.687   4.101   3.641  0.1044  0.7972 -0.1311
 7434SOL    HW229508   4.659   4.186   3.674  1.4728  0.9500  0.7221
 7434SOL    HW329509   4.622   4.039   3.673  0.0323  1.2991  0.7113
 7434SOL    MW429510   4.675   4.104   3.649  0.2754  0.8836  0.0926
 7435SOL     OW29511   0.439   3.274   5.885  0.0251  0.1802  0.0986
 7435SOL    HW229512   0.351   3.244   5.909  0.0500  0.9507  1.2876
 7435SOL    HW329513   0.424   3.339   5.817 -0.3577  0.4529  0.4360
 7435SOL    MW429514   0.425   3.279   5.880 -0.0221  0.3178  0.3000
 7436SOL     OW29515   2.948   1.691   0.832  0.6990 -0.8629 -0.5921
 7436SOL    HW229516   2.922   1.630   0.763 -2.1281  0.3574 -0.7309
 7436SOL    HW329517   2.869   1.742   0.850  1.9799  0.3798  1.9923
 7436SOL    MW429518   2.934   1.690   0.825  0.4950 -0.5380 -0.2695
 7437SOL     OW29519   1.109   6.338   3.483  0.3751 -0.3950  0.2413
 7437SOL    HW229520   1.060   6.417   3.458  2.1957  0.7223  0.0629
 7437SOL    HW329521   1.092   6.276   3.412 -2.0233 -0.6466  0.9432
 7437SOL    MW429522   1.100   6.340   3.470  0.2988 -0.2808  0.3104
 7438SOL     OW29523   6.234   1.949   0.387  0.2315  0.4534  0.2417
 7438SOL    HW229524   6.256   1.949   0.294  1.8623  0.5705  0.6037
 7438SOL    HW329525   6.239   1.857   0.413  0.5051  0.5038  0.3700
 7438SOL    MW429526   6.238   1.937   0.378  0.4827  0.4755  0.3064
 7439SOL     OW29527   0.675   5.883   5.783  0.9164 -0.0724 -0.0796
 7439SOL    HW229528   0.693   5.789   5.788 -0.0771 -0.3406 -1.0617
 7439SOL    HW329529   0.586   5.893   5.817  1.2957  0.6295  0.7466
 7439SOL    MW429530   0.665   5.872   5.788  0.8354 -0.0152 -0.1002
 7440SOL     OW29531   1.596   3.239   3.347  0.0568  0.0524  0.3281
 7440SOL    HW229532   1.613   3.332   3.339 -0.4886 -0.0058 -1.9001
 7440SOL    HW329533   1.571   3.227   3.439  1.7101  1.7918  1.0757
 7440SOL    MW429534   1.595   3.249   3.358  0.2030  0.2742  0.1328
 7441SOL     OW29535   3.448   5.564   5.912  0.2913  0.0043  0.1115
 7441SOL    HW229536   3.402   5.484   5.935 -1.9535  1.1304 -0.1478
 7441SOL    HW329537   3.480   5.548   5.823 -1.7295 -0.0130 -0.6630
 7441SOL    MW429538   3.447   5.552   5.903 -0.2715  0.1506 -0.0249
 7442SOL     OW29539   5.580   0.081   0.432  0.4968 -0.6892  0.2676
 7442SOL    HW229540   5.631   0.153   0.468  1.3537 -0.8221 -0.6361
 7442SOL    HW329541   5.600   0.006   0.488  0.4938 -0.4967  0.5272
 7442SOL    MW429542   5.589   0.080   0.444  0.6095 -0.6814  0.1826
 7443SOL     OW29543   3.939   1.882   0.467 -0.2914 -0.3903  0.3426
 7443SOL    HW229544   3.856   1.926   0.451  0.5123  0.9096 -0.4167
 7443SOL    HW329545   3.957   1.834   0.387 -0.3288 -0.7182  0.5281
 7443SOL    MW429546   3.931   1.881   0.455 -0.1903 -0.2620  0.2669
 7444SOL     OW29547   5.609   6.391   0.160 -0.7742 -0.0850 -0.1221
 7444SOL    HW229548   5.523   6.357   0.137 -1.6304  1.8890 -0.0128
 7444SOL    HW329549   5.604   6.408   0.254  0.7879 -2.7504  0.5293
 7444SOL    MW429550   5.597   6.389   0.169 -0.6811 -0.1763 -0.0217
 7445SOL     OW29551   0.691   6.054   3.762  0.2702 -0.0653  0.1175
 7445SOL    HW229552   0.618   6.035   3.820  0.8951  1.9548  1.6812
 7445SOL    HW329553   0.685   6.148   3.745  2.2002  0.0578 -0.1350
 7445SOL    MW429554   0.681   6.064   3.767  0.6073  0.2174  0.2905
 7446SOL     OW29555   1.038   1.666   5.648  0.0927 -0.3106 -0.5439
 7446SOL    HW229556   0.975   1.660   5.720 -0.3595 -1.6644 -1.0326
 7446SOL    HW329557   1.076   1.579   5.641  2.2385  0.5095 -0.1221
 7446SOL    MW429558   1.035   1.654   5.656  0.3162 -0.3810 -0.5527
 7447SOL     OW29559   4.483   2.994   2.643 -0.0075  0.2924 -0.2417
 7447SOL    HW229560   4.512   3.029   2.558  1.4037 -0.8839 -0.2862
 7447SOL    HW329561   4.406   3.046   2.665  0.6161  1.7979 -1.4151
 7447SOL    MW429562   4.477   3.006   2.634  0.2610  0.3358 -0.4024
 7448SOL     OW29563   3.825   5.323   0.648 -0.0020 -0.0535 -0.2486
 7448SOL    HW229564   3.852   5.413   0.662  0.1231 -0.2792  1.0499
 7448SOL    HW329565   3.732   5.329   0.626  0.3981  0.5014 -1.9428
 7448SOL    MW429566   3.816   5.336   0.647  0.0673 -0.0101 -0.3008
 7449SOL     OW29567   2.247   3.443   6.424 -0.3716  0.1213 -0.0118
 7449SOL    HW229568   2.200   3.450   6.507  0.8935 -0.4386  0.7875
 7449SOL    HW329569   2.182   3.466   6.358 -1.5616  0.0696  1.0875
 7449SOL    MW429570   2.232   3.447   6.426 -0.3617  0.0406  0.2387
 7450SOL     OW29571   3.070   1.087   2.025  0.0305  0.0099 -0.7627
 7450SOL    HW229572   3.007   1.139   1.976 -0.0326  0.2405 -0.4375
 7450SOL    HW329573   3.045   0.996   2.008 -1.0761  0.1075  0.2477
 7450SOL    MW429574   3.059   1.082   2.017 -0.1238  0.0532 -0.5865
 7451SOL     OW29575   5.299   2.304   3.306  0.6650 -0.8720 -0.0175
 7451SOL    HW229576   5.282   2.350   3.388  1.3435  0.6686 -0.7099
 7451SOL    HW329577   5.377   2.346   3.270  0.5016 -1.6489 -1.3580
 7451SOL    MW429578   5.307   2.316   3.312  0.7330 -0.7712 -0.2857
 7452SOL     OW29579   1.535   4.191   2.993 -0.1913  0.4051  0.4159
 7452SOL    HW229580   1.560   4.130   2.924 -1.4659 -2.0639  2.0041
 7452SOL    HW329581   1.534   4.276   2.950  0.0623 -0.8757 -2.3389
 7452SOL    MW429582   1.538   4.194   2.978 -0.3260 -0.0897  0.2620
 7453SOL     OW29583   4.379   5.061   1.262  0.2512 -0.7499  0.8583
 7453SOL    HW229584   4.290   5.097   1.267  0.0964 -1.0782  0.4868
 7453SOL    HW329585   4.400   5.039   1.353  0.0577 -0.4179  0.9864
 7453SOL    MW429586   4.370   5.063   1.275  0.2052 -0.7494  0.8262
 7454SOL     OW29587   5.855   4.672   1.829  0.0136 -0.0669  1.1115
 7454SOL    HW229588   5.941   4.714   1.825 -0.5660  1.2600  1.8748
 7454SOL    HW329589   5.873   4.582   1.856  1.2350 -0.1057  0.2564
 7454SOL    MW429590   5.869   4.666   1.832  0.0983  0.1031  1.0994
 7455SOL     OW29591   6.107   2.477   4.307  0.8278  0.4424  0.5608
 7455SOL    HW229592   6.080   2.568   4.301 -1.1805  0.0228  1.9368
 7455SOL    HW329593   6.104   2.457   4.401  1.6093 -0.9329  0.3254
 7455SOL    MW429594   6.103   2.486   4.319  0.6660  0.2056  0.7113
 7456SOL     OW29595   3.956   0.414   2.762 -0.1860 -0.2771 -0.0642
 7456SOL    HW229596   3.992   0.427   2.849 -1.2371  0.2566  0.3164
 7456SOL    HW329597   4.030   0.387   2.708  0.8557  1.2357  0.5557
 7456SOL    MW429598   3.970   0.412   2.766 -0.1872 -0.0071  0.0678
 7457SOL     OW29599   4.499   1.527   1.605  0.9880  0.4058  0.0704
 7457SOL    HW229600   4.453   1.499   1.685  1.3236  1.2244  0.5541
 7457SOL    HW329601   4.449   1.602   1.574  1.7489  1.0411  0.3686
 7457SOL    MW429602   4.486   1.533   1.612  1.1327  0.5976  0.1735
 7458SOL     OW29603   1.748   2.510   0.503  0.4467  0.1576  0.1740
 7458SOL    HW229604   1.695   2.571   0.555 -0.2608 -0.2845 -0.0029
 7458SOL    HW329605   1.688   2.478   0.435  1.2314  0.3970 -0.6612
 7458SOL    MW429606   1.733   2.514   0.501  0.4568  0.1308  0.0404
 7459SOL     OW29607   1.881   0.204   0.158  0.0734  0.4069  0.3258
 7459SOL    HW229608   1.949   0.226   0.095  0.3715 -0.1754  0.4361
 7459SOL    HW329609   1.819   0.277   0.153 -1.2465 -0.7821 -2.4459
 7459SOL    MW429610   1.882   0.217   0.149 -0.0614  0.1732 -0.0253
 7460SOL     OW29611   5.651   3.920   2.303  0.3629  0.0387 -0.5946
 7460SOL    HW229612   5.636   3.845   2.360  0.8694 -0.3232 -0.9312
 7460SOL    HW329613   5.594   3.989   2.339 -0.2780 -0.5695 -0.4303
 7460SOL    MW429614   5.641   3.919   2.316  0.3452 -0.0893 -0.6174
 7461SOL     OW29615   0.278   5.702   6.387  0.0673 -0.5584 -0.6199
 7461SOL    HW229616   0.245   5.643   6.320  0.6771 -2.7200  0.8674
 7461SOL    HW329617   0.212   5.700   6.457  0.5456 -0.2307 -0.1447
 7461SOL    MW429618   0.265   5.694   6.388  0.2109 -0.8004 -0.3610
 7462SOL     OW29619   5.495   4.113   3.916  0.0330  0.0233 -0.0612
 7462SOL    HW229620   5.494   4.094   4.010  2.4595  1.2425  0.2997
 7462SOL    HW329621   5.454   4.199   3.908 -0.6872 -0.3285 -0.2077
 7462SOL    MW429622   5.490   4.122   3.927  0.2581  0.1377 -0.0329
 7463SOL     OW29623   6.420   4.423   4.257 -0.0937 -0.0567 -1.0704
 7463SOL    HW229624   6.435   4.349   4.198  1.6173 -1.0672  0.5477
 7463SOL    HW329625   6.356   4.390   4.320  0.5466 -0.1244 -0.4447
 7463SOL    MW429626   6.413   4.409   4.258  0.2165 -0.1990 -0.7744
 7464SOL     OW29627   4.849   3.093   6.325 -0.1389  0.1215 -0.9078
 7464SOL    HW229628   4.792   3.145   6.383 -1.1261 -0.7012 -1.1300
 7464SOL    HW329629   4.814   3.005   6.329  1.5637 -0.5845 -0.4910
 7464SOL    MW429630   4.837   3.089   6.334 -0.0445 -0.0802 -0.8821
 7465SOL     OW29631   4.823   0.699   2.959  0.1844 -0.8919 -0.7190
 7465SOL    HW229632   4.894   0.640   2.935  0.1144 -0.8662 -0.9888
 7465SOL    HW329633   4.865   0.784   2.971  0.2771 -0.9824 -0.3784
 7465SOL    MW429634   4.838   0.703   2.957  0.1874 -0.9004 -0.7097
 7466SOL     OW29635   5.049   4.245   3.749  0.3546  0.6745  0.6782
 7466SOL    HW229636   5.055   4.260   3.655 -1.4774 -1.8171  0.0589
 7466SOL    HW329637   5.140   4.241   3.778  0.9526  2.2829 -0.7995
 7466SOL    MW429638   5.062   4.247   3.740  0.1918  0.5580  0.4016
 7467SOL     OW29639   5.374   5.874   0.266 -0.0768 -0.4313 -0.7036
 7467SOL    HW229640   5.397   5.964   0.290  1.1715 -0.8414 -0.2518
 7467SOL    HW329641   5.347   5.880   0.175  0.8699  0.2863 -0.9675
 7467SOL    MW429642   5.374   5.887   0.257  0.2128 -0.3907 -0.6788
 7468SOL     OW29643   5.420   4.378   0.726  0.2732 -0.2535  0.4988
 7468SOL    HW229644   5.360   4.343   0.661  0.9736  1.2870 -1.0343
 7468SOL    HW329645   5.506   4.343   0.701  0.9218  2.1222 -0.8253
 7468SOL    MW429646   5.423   4.369   0.714  0.4512  0.2632  0.1218
 7469SOL     OW29647   3.365   1.120   4.726 -0.3624 -0.6764 -0.4867
 7469SOL    HW229648   3.416   1.061   4.671  0.2347 -0.8205  0.2099
 7469SOL    HW329649   3.357   1.200   4.674 -0.6740 -1.1470 -1.1920
 7469SOL    MW429650   3.370   1.123   4.712 -0.3247 -0.7575 -0.4878
 7470SOL     OW29651   0.185   0.111   5.460 -0.0507 -0.5666 -0.1930
 7470SOL    HW229652   0.195   0.140   5.370  0.2013 -1.1314 -0.3515
 7470SOL    HW329653   0.166   0.191   5.509  3.1187  0.3271 -0.2049
 7470SOL    MW429654   0.184   0.125   5.455  0.4007 -0.5232 -0.2155
 7471SOL     OW29655   2.846   5.804   4.689  0.0045 -0.3590  0.2630
 7471SOL    HW229656   2.854   5.820   4.595 -0.3614 -1.8584 -0.0485
 7471SOL    HW329657   2.909   5.735   4.707  2.4624  2.0828  1.7955
 7471SOL    MW429658   2.855   5.797   4.679  0.2805 -0.2347  0.4241
 7472SOL     OW29659   1.775   2.066   3.634  0.5587 -0.2854  0.3278
 7472SOL    HW229660   1.845   2.103   3.580 -0.8724  0.7468 -0.8884
 7472SOL    HW329661   1.792   1.972   3.635  1.6625 -0.1086 -0.3738
 7472SOL    MW429662   1.786   2.059   3.627  0.5155 -0.1259  0.0747
 7473SOL     OW29663   3.555   3.886   6.316 -0.3152 -0.5428  0.0421
 7473SOL    HW229664   3.540   3.822   6.247  1.1198  0.0689 -0.8725
 7473SOL    HW329665   3.540   3.971   6.274 -0.0638 -0.1960  0.6398
 7473SOL    MW429666   3.551   3.889   6.301 -0.0927 -0.4163  0.0003
 7474SOL     OW29667   1.827   3.316   3.593 -0.3558  0.3652  0.1859
 7474SOL    HW229668   1.911   3.361   3.596  1.0271 -1.9583 -1.0208
 7474SOL    HW329669   1.775   3.368   3.532  1.2312  0.2760 -1.3136
 7474SOL    MW429670   1.831   3.329   3.586  0.0360  0.0469 -0.1711
 7475SOL     OW29671   1.623   0.368   0.544  0.1447 -0.0002 -0.0865
 7475SOL    HW229672   1.682   0.358   0.619 -0.0026  1.6831  0.3068
 7475SOL    HW329673   1.539   0.333   0.573  0.6179 -1.2828 -0.2216
 7475SOL    MW429674   1.620   0.362   0.557  0.1877  0.0527 -0.0524
 7476SOL     OW29675   3.787   1.535   4.518  0.4424  0.5073  0.4290
 7476SOL    HW229676   3.754   1.556   4.431 -0.1365 -1.3822  0.1589
 7476SOL    HW329677   3.748   1.602   4.575 -0.6051  0.7078 -0.4950
 7476SOL    MW429678   3.777   1.547   4.514  0.2278  0.2845  0.2714
 7477SOL     OW29679   5.549   5.404   0.269 -0.6843  0.0377 -0.6148
 7477SOL    HW229680   5.601   5.340   0.221 -0.3910 -0.4049  0.2648
 7477SOL    HW329681   5.612   5.469   0.300 -0.9249  0.5365 -1.1542
 7477SOL    MW429682   5.564   5.404   0.267 -0.6773  0.0451 -0.5699
 7478SOL     OW29683   1.857   5.018   6.327  0.8909  0.1918 -0.4661
 7478SOL    HW229684   1.918   4.954   6.361  0.6941  0.8375  1.1972
 7478SOL    HW329685   1.886   5.101   6.365 -0.2865  0.6938 -0.6224
 7478SOL    MW429686   1.869   5.021   6.336  0.7096  0.3432 -0.2673
 7479SOL     OW29687   2.765   0.499   3.882 -0.5897  0.5073  0.1572
 7479SOL    HW229688   2.802   0.414   3.858 -0.3290  0.8167 -0.5916
 7479SOL    HW329689   2.672   0.491   3.865 -0.5276  0.4442 -0.1741
 7479SOL    MW429690   2.758   0.487   3.876 -0.5471  0.5398  0.0147
 7480SOL     OW29691   2.800   2.219   0.745  0.4606 -0.2292  0.2870
 7480SOL    HW229692   2.727   2.196   0.688  0.4558 -1.3212  0.7051
 7480SOL    HW329693   2.834   2.134   0.776 -1.8206  0.2087  4.7623
 7480SOL    MW429694   2.795   2.204   0.742  0.1590 -0.3155  0.9326
 7481SOL     OW29695   3.731   3.030   2.102  0.1341  0.7754 -0.2097
 7481SOL    HW229696   3.636   3.020   2.107 -0.1063  1.4389 -2.4186
 7481SOL    HW329697   3.761   2.952   2.055  0.4777  1.3206 -0.9145
 7481SOL    MW429698   3.722   3.018   2.097  0.1477  0.9349 -0.5941
 7482SOL     OW29699   0.690   1.996   3.658 -0.0714  0.2020 -0.2613
 7482SOL    HW229700   0.657   2.076   3.698  0.9661 -0.0197  1.1442
 7482SOL    HW329701   0.612   1.942   3.644 -0.6624  1.0344 -0.2562
 7482SOL    MW429702   0.676   1.999   3.662 -0.0125  0.2826 -0.0752
 7483SOL     OW29703   4.367   5.407   5.588 -0.3479  0.2782  0.3307
 7483SOL    HW229704   4.425   5.469   5.633  0.3477 -1.0812  1.3421
 7483SOL    HW329705   4.306   5.377   5.655  0.5955 -1.6498  0.3855
 7483SOL    MW429706   4.367   5.412   5.603 -0.1317 -0.1555  0.4714
 7484SOL     OW29707   0.337   3.877   3.870 -0.5924  0.5495 -0.1188
 7484SOL    HW229708   0.353   3.970   3.854  2.8645 -0.1169 -1.3879
 7484SOL    HW329709   0.367   3.862   3.960  3.4266 -0.0079 -1.3465
 7484SOL    MW429710   0.343   3.887   3.880  0.3939  0.3880 -0.4482
 7485SOL     OW29711   2.076   0.701   3.612 -0.2553 -0.0335 -0.1126
 7485SOL    HW229712   2.084   0.796   3.624  0.0133  0.1390 -1.4954
 7485SOL    HW329713   2.158   0.676   3.569 -1.2999 -0.4773 -1.9616
 7485SOL    MW429714   2.088   0.710   3.608 -0.3577 -0.0693 -0.5390
 7486SOL     OW29715   2.108   5.130   1.152 -0.4067 -0.6727  0.0909
 7486SOL    HW229716   2.038   5.129   1.216 -1.3456 -1.8531 -0.9046
 7486SOL    HW329717   2.092   5.209   1.100  0.2384  0.1722  1.1553
 7486SOL    MW429718   2.097   5.140   1.153 -0.4455 -0.7170  0.1000
 7487SOL     OW29719   3.054   4.428   3.534  0.2018 -0.5091  0.2074
 7487SOL    HW229720   3.022   4.440   3.444 -1.9352  0.4159  1.0287
 7487SOL    HW329721   3.114   4.501   3.548  0.3318 -0.4995 -0.3756
 7487SOL    MW429722   3.057   4.439   3.524 -0.0630 -0.3858  0.2388
 7488SOL     OW29723   3.061   5.171   5.104  0.2457 -0.4719  0.6992
 7488SOL    HW229724   3.082   5.197   5.194  2.0193  0.6740  0.0220
 7488SOL    HW329725   3.067   5.253   5.054 -1.5351 -0.9393 -0.3573
 7488SOL    MW429726   3.065   5.185   5.109  0.2447 -0.3824  0.4704
 7489SOL     OW29727   3.846   6.442   5.290 -0.3345 -0.4043 -0.3028
 7489SOL    HW229728   3.889   6.357   5.286  0.1216 -0.2454  0.7828
 7489SOL    HW329729   3.830   6.457   5.383  0.7242  1.2333 -0.3260
 7489SOL    MW429730   3.849   6.433   5.302 -0.1347 -0.1673 -0.1626
 7490SOL     OW29731   3.342   3.643   6.269  0.2328 -0.0489  0.5721
 7490SOL    HW229732   3.327   3.700   6.193 -0.3052  0.2661  0.9018
 7490SOL    HW329733   3.334   3.555   6.234 -0.6357  0.0960  0.3667
 7490SOL    MW429734   3.339   3.639   6.254  0.0472  0.0118  0.5885
 7491SOL     OW29735   4.142   5.620   2.367  0.1199  0.0206 -0.5325
 7491SOL    HW229736   4.207   5.659   2.426  0.9854 -0.4102 -1.1787
 7491SOL    HW329737   4.058   5.630   2.413  0.8444 -0.8390  1.0591
 7491SOL    MW429738   4.139   5.626   2.381  0.3297 -0.1496 -0.4078
 7492SOL     OW29739   5.343   0.311   3.186 -0.1923 -0.4876  0.1794
 7492SOL    HW229740   5.374   0.235   3.234  0.2227  1.3452  3.0651
 7492SOL    HW329741   5.402   0.382   3.212 -2.0362  1.3655 -0.4090
 7492SOL    MW429742   5.355   0.310   3.196 -0.3809 -0.0013  0.4825
 7493SOL     OW29743   5.913   2.051   1.568  0.0102  0.2848  0.2977
 7493SOL    HW229744   5.926   2.109   1.643 -0.4061  0.0738  0.5349
 7493SOL    HW329745   5.827   2.012   1.582 -0.4317  0.8480 -0.6942
 7493SOL    MW429746   5.903   2.054   1.579 -0.1030  0.3313  0.1981
 7494SOL     OW29747   0.310   4.026   1.164  0.0917  0.7506  0.0076
 7494SOL    HW229748   0.224   3.985   1.155  0.4854 -0.8341  2.5250
 7494SOL    HW329749   0.342   4.036   1.075 -2.0364 -0.0741 -0.9048
 7494SOL    MW429750   0.303   4.022   1.151 -0.1371  0.4327  0.2193
 7495SOL     OW29751   4.991   3.256   5.693 -0.1365  0.5056 -0.7153
 7495SOL    HW229752   5.047   3.266   5.770 -0.3772  0.0391 -0.4701
 7495SOL    HW329753   4.997   3.163   5.672 -0.1836  0.6054 -1.1799
 7495SOL    MW429754   4.999   3.245   5.700 -0.1744  0.4572 -0.7442
 7496SOL     OW29755   6.130   3.072   5.499  0.2275  0.1949  0.0987
 7496SOL    HW229756   6.171   2.986   5.497 -0.3848 -0.1364 -2.6197
 7496SOL    HW329757   6.183   3.125   5.440 -0.6163  1.0705  0.0973
 7496SOL    MW429758   6.142   3.068   5.491  0.0354  0.2667 -0.2602
 7497SOL     OW29759   5.478   0.684   4.820  0.1902 -0.0635 -0.2247
 7497SOL    HW229760   5.514   0.698   4.733  0.5288 -1.0871 -0.2635
 7497SOL    HW329761   5.389   0.720   4.816 -0.0082 -0.6412 -1.1794
 7497SOL    MW429762   5.471   0.690   4.808  0.2087 -0.2748 -0.3557
 7498SOL     OW29763   2.928   2.674   6.258  0.2377  0.7587  0.3456
 7498SOL    HW229764   2.932   2.697   6.165  1.3698 -2.1067 -0.4000
 7498SOL    HW329765   2.914   2.758   6.303 -2.9988  1.9905 -2.5171
 7498SOL    MW429766   2.927   2.688   6.252 -0.0400  0.5431 -0.1304
 7499SOL     OW29767   0.674   1.562   2.829  0.6821  0.0439  0.5884
 7499SOL    HW229768   0.761   1.522   2.831 -0.2230 -2.0195  0.1271
 7499SOL    HW329769   0.619   1.501   2.781 -0.6852  2.0921 -0.6394
 7499SOL    MW429770   0.678   1.549   2.823  0.3823  0.0419  0.3656
 7500SOL     OW29771   1.774   0.144   1.107  0.7977  0.1952  0.0902
 7500SOL    HW229772   1.855   0.164   1.154  0.5628 -0.6284  0.8724
 7500SOL    HW329773   1.803   0.110   1.023  1.2357  1.2286 -0.1898
 7500SOL    MW429774   1.789   0.142   1.102  0.8245  0.2229  0.1565
 7501SOL     OW29775   0.584   2.857   3.883 -0.5220  0.1749 -0.9357
 7501SOL    HW229776   0.528   2.931   3.907  2.1409  1.1790  3.2771
 7501SOL    HW329777   0.646   2.893   3.819  0.9801  1.9436  1.3305
 7501SOL    MW429778   0.585   2.871   3.877  0.0275  0.5408 -0.0809
 7502SOL     OW29779   5.826   5.201   6.311 -0.5409  0.0686 -0.6139
 7502SOL    HW229780   5.830   5.295   6.290  1.2001 -0.1187 -1.2996
 7502SOL    HW329781   5.762   5.195   6.382  1.2678  2.1567  1.3588
 7502SOL    MW429782   5.818   5.213   6.317 -0.0725  0.3194 -0.4441
 7503SOL     OW29783   0.509   2.036   5.418  0.8093 -0.1160  0.1946
 7503SOL    HW229784   0.569   2.097   5.374 -0.3716  0.4829 -0.6300
 7503SOL    HW329785   0.487   1.972   5.351  0.2915 -0.1583  0.4042
 7503SOL    MW429786   0.514   2.036   5.403  0.5852 -0.0425  0.1134
 7504SOL     OW29787   4.661   3.182   1.728 -0.0538  0.2438 -0.0394
 7504SOL    HW229788   4.587   3.121   1.724 -0.5932  0.8303  0.6002
 7504SOL    HW329789   4.738   3.126   1.737 -0.5888 -0.3541  1.0657
 7504SOL    MW429790   4.661   3.167   1.729 -0.1956  0.2423  0.1908
 7505SOL     OW29791   4.516   4.087   5.432  0.3894 -0.2723 -0.0712
 7505SOL    HW229792   4.585   4.055   5.375  0.7441 -1.4317  0.9722
 7505SOL    HW329793   4.554   4.164   5.474 -0.2564  1.2722 -2.1398
 7505SOL    MW429794   4.530   4.093   5.430  0.3510 -0.2215 -0.2064
 7506SOL     OW29795   2.496   1.135   3.781  0.7367 -0.0960  0.4004
 7506SOL    HW229796   2.463   1.223   3.763  1.7548  0.1024 -0.5611
 7506SOL    HW329797   2.561   1.147   3.850 -1.5960 -0.5825  2.8632
 7506SOL    MW429798   2.500   1.148   3.788  0.5633 -0.1340  0.5985
 7507SOL     OW29799   3.742   3.670   4.920  0.1239  0.3497 -0.4121
 7507SOL    HW229800   3.833   3.686   4.944  0.2009  1.8196 -1.5499
 7507SOL    HW329801   3.722   3.584   4.957  1.7567  0.2959  0.4267
 7507SOL    MW429802   3.751   3.661   4.928  0.3495  0.5365 -0.4515
 7508SOL     OW29803   1.344   6.418   0.897 -0.1402 -0.1653 -0.2453
 7508SOL    HW229804   1.411   6.427   0.965 -0.4625 -0.0075  0.0521
 7508SOL    HW329805   1.325   6.324   0.894  1.3799 -0.4825 -1.5823
 7508SOL    MW429806   1.350   6.406   0.905  0.0179 -0.1863 -0.3825
 7509SOL     OW29807   0.793   0.333   0.911 -0.6490  0.0963  0.2766
 7509SOL    HW229808   0.789   0.363   0.821  1.5335  0.5027  0.2474
 7509SOL    HW329809   0.818   0.410   0.961  0.6102 -0.6402  0.8397
 7509SOL    MW429810   0.796   0.347   0.906 -0.1949  0.0528  0.3470
 7510SOL     OW29811   4.940   6.360   2.506  0.9328  0.5487  0.8394
 7510SOL    HW229812   4.951   6.422   2.434 -0.7352 -0.5449 -0.4238
 7510SOL    HW329813   4.887   6.408   2.570 -0.4868  0.4191 -0.1967
 7510SOL    MW429814   4.935   6.375   2.505  0.5254  0.3873  0.5361
 7511SOL     OW29815   5.717   6.176   0.382 -0.5751 -0.1270 -0.9780
 7511SOL    HW229816   5.719   6.127   0.300 -2.1549 -0.0990 -1.0571
 7511SOL    HW329817   5.747   6.113   0.448  1.9385  0.2014 -1.6692
 7511SOL    MW429818   5.722   6.161   0.380 -0.4519 -0.0800 -1.0796
 7512SOL     OW29819   1.282   1.506   3.667 -0.8185 -0.1022 -0.7019
 7512SOL    HW229820   1.302   1.444   3.737 -1.5101  0.3963 -0.0595
 7512SOL    HW329821   1.188   1.495   3.651 -0.8790  0.5448 -0.8103
 7512SOL    MW429822   1.272   1.496   3.674 -0.9178  0.0490 -0.6315
 7513SOL     OW29823   5.821   4.862   5.716 -0.2226  0.0989 -0.1538
 7513SOL    HW229824   5.771   4.805   5.658 -3.4226  0.0152  2.4049
 7513SOL    HW329825   5.817   4.819   5.802  1.8679  1.5725  0.7728
 7513SOL    MW429826   5.814   4.849   5.720 -0.3690  0.2823  0.3060
 7514SOL     OW29827   6.203   1.010   0.023 -0.1267  0.3987 -0.1658
 7514SOL    HW229828   6.198   0.988   0.116 -2.0694 -0.6462 -0.4755
 7514SOL    HW329829   6.168   1.099   0.018 -2.8031 -0.5715 -0.1705
 7514SOL    MW429830   6.198   1.019   0.035 -0.7362  0.1329 -0.2073
 7515SOL     OW29831   2.048   4.372   0.534 -0.1249 -0.3342 -0.4069
 7515SOL    HW229832   2.075   4.430   0.605  0.3297 -1.7831  0.6458
 7515SOL    HW329833   2.126   4.362   0.480 -0.0251 -0.4937 -0.2295
 7515SOL    MW429834   2.061   4.379   0.536 -0.0518 -0.5464 -0.2446
 7516SOL     OW29835   3.570   2.389   5.973 -0.1859  0.1101  0.2554
 7516SOL    HW229836   3.616   2.473   5.977  1.4777 -0.7372 -0.2578
 7516SOL    HW329837   3.609   2.337   6.044 -1.5733 -0.0733  0.9155
 7516SOL    MW429838   3.581   2.393   5.983 -0.1494 -0.0259  0.2748
 7517SOL     OW29839   3.176   3.494   0.229  0.5014  0.3396 -0.1293
 7517SOL    HW229840   3.091   3.522   0.262 -0.3469 -0.4037 -1.5701
 7517SOL    HW329841   3.221   3.457   0.305 -0.9916 -0.4601  0.3931
 7517SOL    MW429842   3.171   3.493   0.243  0.1925  0.1360 -0.2505
 7518SOL     OW29843   4.365   6.000   1.726  0.1336  0.6374 -0.1637
 7518SOL    HW229844   4.452   6.040   1.726  0.4457  0.0335 -1.5564
 7518SOL    HW329845   4.383   5.906   1.730 -0.4116  0.4827 -1.0118
 7518SOL    MW429846   4.379   5.993   1.726  0.1028  0.5373 -0.4593
 7519SOL     OW29847   1.025   2.609   3.160 -0.6209  0.1639 -0.0473
 7519SOL    HW229848   1.057   2.628   3.249  1.7909 -1.6047 -0.4132
 7519SOL    HW329849   1.105   2.601   3.108 -1.5030 -4.5259 -1.1183
 7519SOL    MW429850   1.040   2.610   3.165 -0.4191 -0.6882 -0.2369
 7520SOL     OW29851   5.544   6.462   6.171 -0.6883  0.2044 -0.6299
 7520SOL    HW229852   5.569   6.538   6.224 -0.8966 -0.9137  1.1347
 7520SOL    HW329853   5.624   6.410   6.164 -1.2705 -0.9432  0.8465
 7520SOL    MW429854   5.558   6.466   6.177 -0.7926 -0.0945 -0.2023
 7521SOL     OW29855   0.238   3.317   1.161  0.7332 -0.0782  0.3529
 7521SOL    HW229856   0.330   3.303   1.183  1.0166  1.5989  0.3156
 7521SOL    HW329857   0.226   3.412   1.164 -0.0714  0.0786 -3.2657
 7521SOL    MW429858   0.248   3.327   1.164  0.6645  0.1638 -0.1295
 7522SOL     OW29859   1.515   6.132   4.419  0.2090  0.5665 -0.2704
 7522SOL    HW229860   1.546   6.047   4.450  1.3112  0.1865 -2.2368
 7522SOL    HW329861   1.489   6.179   4.498  0.8253 -1.1097  0.9727
 7522SOL    MW429862   1.516   6.127   4.433  0.4357  0.2952 -0.3658
 7523SOL     OW29863   1.593   1.416   3.473  0.3278  0.3393 -0.2262
 7523SOL    HW229864   1.518   1.399   3.416  0.1949 -0.3427  0.1371
 7523SOL    HW329865   1.650   1.472   3.422  0.2398 -0.3205 -1.0677
 7523SOL    MW429866   1.590   1.421   3.459  0.2987  0.1623 -0.2893
 7524SOL     OW29867   5.226   4.576   4.310 -0.2564 -0.1048  0.3247
 7524SOL    HW229868   5.318   4.553   4.299 -0.3500 -0.3443  0.0287
 7524SOL    HW329869   5.208   4.558   4.402 -0.8135 -3.0966 -0.2478
 7524SOL    MW429870   5.236   4.571   4.321 -0.3422 -0.5311  0.2101
 7525SOL     OW29871   1.927   3.756   3.535 -0.0621  0.7031 -0.0337
 7525SOL    HW229872   1.869   3.727   3.605  0.4941 -0.3135  0.0154
 7525SOL    HW329873   2.010   3.775   3.579  0.6020 -0.9074 -0.5294
 7525SOL    MW429874   1.931   3.755   3.550  0.0989  0.3565 -0.0926
 7526SOL     OW29875   0.370   4.364   1.389 -0.2004 -0.3215  0.2552
 7526SOL    HW229876   0.420   4.376   1.309  0.6211  2.7915  1.0713
 7526SOL    HW329877   0.433   4.328   1.452  0.0103  0.0488  0.2635
 7526SOL    MW429878   0.385   4.361   1.387 -0.0642  0.1381  0.3639
 7527SOL     OW29879   4.134   1.998   1.411 -0.5476  0.1035  0.3604
 7527SOL    HW229880   4.217   1.970   1.449 -0.1981 -0.7084 -0.9408
 7527SOL    HW329881   4.130   1.954   1.326 -1.7280  1.1202 -0.1500
 7527SOL    MW429882   4.144   1.989   1.405 -0.6572  0.1305  0.1214
 7528SOL     OW29883   2.169   0.361   4.507  0.2000 -0.6870  0.3830
 7528SOL    HW229884   2.102   0.305   4.469  0.0290 -0.1630 -0.0977
 7528SOL    HW329885   2.131   0.449   4.505  0.8808 -0.3885  0.1421
 7528SOL    MW429886   2.156   0.365   4.502  0.2673 -0.5785  0.2878
 7529SOL     OW29887   0.722   3.846   0.516 -0.0080 -0.1349 -0.2720
 7529SOL    HW229888   0.687   3.900   0.445 -1.2211 -0.8106 -0.2212
 7529SOL    HW329889   0.700   3.756   0.490 -1.6612 -0.3232  1.5340
 7529SOL    MW429890   0.714   3.841   0.503 -0.3861 -0.2489 -0.0270
 7530SOL     OW29891   2.508   3.301   3.402  0.2050  0.0444  0.3455
 7530SOL    HW229892   2.494   3.223   3.349  1.9720 -2.1901  2.8846
 7530SOL    HW329893   2.433   3.304   3.461  0.7192 -0.4647  1.0360
 7530SOL    MW429894   2.496   3.291   3.403  0.5059 -0.3176  0.7716
 7531SOL     OW29895   5.847   0.187   1.330  0.2816  0.6764 -0.1829
 7531SOL    HW229896   5.793   0.125   1.282  0.1027 -0.3880  1.3268
 7531SOL    HW329897   5.852   0.264   1.273 -2.4019  0.6333 -0.5872
 7531SOL    MW429898   5.840   0.189   1.317 -0.0961  0.5303 -0.0371
 7532SOL     OW29899   4.952   0.072   2.235  0.0900  0.0173 -0.3708
 7532SOL    HW229900   4.928   0.163   2.214  1.6178  0.1050 -1.9552
 7532SOL    HW329901   4.872   0.023   2.223 -0.1584  0.7892 -2.1563
 7532SOL    MW429902   4.939   0.078   2.231  0.2588  0.1307 -0.8154
 7533SOL     OW29903   4.063   4.346   1.241 -0.0878  0.1861 -0.2346
 7533SOL    HW229904   4.125   4.285   1.200  0.9301  0.4245  0.8794
 7533SOL    HW329905   4.083   4.430   1.201  0.4095  0.2820  0.1926
 7533SOL    MW429906   4.074   4.349   1.231  0.1121  0.2302 -0.0312
 7534SOL     OW29907   5.273   2.932   3.878  0.0297  0.4279  0.0585
 7534SOL    HW229908   5.356   2.934   3.925 -0.1751  1.4200  0.3903
 7534SOL    HW329909   5.293   2.972   3.793 -0.1011  0.6570  0.1346
 7534SOL    MW429910   5.287   2.938   3.873 -0.0146  0.5890  0.1123
 7535SOL     OW29911   4.809   2.501   5.021  0.2276 -0.5132  0.6403
 7535SOL    HW229912   4.718   2.490   4.995  0.7089 -2.4594 -0.4044
 7535SOL    HW329913   4.859   2.456   4.954  1.8548 -1.1158  2.1733
 7535SOL    MW429914   4.804   2.494   5.009  0.5058 -0.8495  0.7048
 7536SOL     OW29915   2.988   5.433   1.979  0.7138 -0.6604 -0.6190
 7536SOL    HW229916   2.900   5.396   1.975  0.6414 -0.7209  0.8499
 7536SOL    HW329917   2.987   5.505   1.916 -0.9513  0.4499  0.5868
 7536SOL    MW429918   2.976   5.437   1.970  0.4846 -0.5219 -0.2661
 7537SOL     OW29919   5.337   1.357   0.266  0.2876 -0.0467 -0.1605
 7537SOL    HW229920   5.403   1.425   0.254  0.2556 -0.0461 -0.3289
 7537SOL    HW329921   5.268   1.399   0.318  1.2167 -0.5444  1.5698
 7537SOL    MW429922   5.337   1.371   0.272  0.4060 -0.1123  0.0456
 7538SOL     OW29923   4.408   6.384   3.249 -0.1845 -0.3589  0.2385
 7538SOL    HW229924   4.421   6.406   3.342  2.6725  1.7413 -0.5161
 7538SOL    HW329925   4.327   6.429   3.225 -0.2413  0.1972  1.3876
 7538SOL    MW429926   4.399   6.393   3.258  0.1850 -0.0084  0.2906
 7539SOL     OW29927   0.603   5.066   1.180 -0.6775  0.6023 -0.3295
 7539SOL    HW229928   0.622   5.017   1.100 -1.7862  0.9817 -0.8497
 7539SOL    HW329929   0.623   5.005   1.250  3.2274  1.2331 -0.6925
 7539SOL    MW429930   0.608   5.051   1.179 -0.3085  0.7356 -0.4461
 7540SOL     OW29931   3.351   4.805   3.087 -0.6861 -0.1840 -0.0246
 7540SOL    HW229932   3.381   4.834   3.001 -2.2937 -0.1759 -0.6109
 7540SOL    HW329933   3.406   4.853   3.149  0.4785 -0.1711 -1.0223
 7540SOL    MW429934   3.362   4.815   3.084 -0.7445 -0.1812 -0.2336
 7541SOL     OW29935   4.478   4.649   6.366  0.2562  0.0339  0.4142
 7541SOL    HW229936   4.495   4.579   6.430 -0.0379  0.9989  1.6018
 7541SOL    HW329937   4.383   4.657   6.364  0.1930 -0.8461 -1.1464
 7541SOL    MW429938   4.468   4.641   6.374  0.2091  0.0451  0.3650
 7542SOL     OW29939   5.473   5.462   1.654  0.2795 -0.1745 -0.6911
 7542SOL    HW229940   5.441   5.405   1.725  1.2866 -0.4080 -0.4120
 7542SOL    HW329941   5.394   5.485   1.605 -0.1429 -2.0067 -0.9573
 7542SOL    MW429942   5.458   5.457   1.657  0.3566 -0.4470 -0.6894
 7543SOL     OW29943   0.098   1.967   2.200  0.0118  0.3696 -0.5309
 7543SOL    HW229944   0.117   2.052   2.158  0.9599  0.1298 -0.6183
 7543SOL    HW329945   0.184   1.933   2.224 -0.4639  0.1423  0.9388
 7543SOL    MW429946   0.112   1.974   2.197  0.0741  0.3080 -0.3485
 7544SOL     OW29947   3.151   5.303   4.384  0.2101  0.4587 -0.4797
 7544SOL    HW229948   3.232   5.254   4.397 -0.1838 -0.1103 -0.1469
 7544SOL    HW329949   3.084   5.251   4.428 -0.5225  0.3742 -1.6470
 7544SOL    MW429950   3.153   5.290   4.391  0.0615  0.3725 -0.5898
 7545SOL     OW29951   2.090   3.184   2.302 -0.1418 -0.1938  0.1612
 7545SOL    HW229952   2.060   3.271   2.328 -1.7974 -0.8639  0.6456
 7545SOL    HW329953   2.185   3.186   2.314 -0.3078  1.1059  1.5364
 7545SOL    MW429954   2.098   3.195   2.307 -0.3822 -0.1107  0.4066
 7546SOL     OW29955   4.433   2.246   5.652 -0.3231 -0.0183  0.1777
 7546SOL    HW229956   4.497   2.189   5.608 -0.4628  0.6152 -0.8738
 7546SOL    HW329957   4.410   2.312   5.587 -0.3914  1.0809  1.2758
 7546SOL    MW429958   4.438   2.247   5.638 -0.3505  0.2103  0.1839
 7547SOL     OW29959   5.985   0.691   6.367 -0.2440 -0.0198  0.0074
 7547SOL    HW229960   5.913   0.641   6.330  0.9008 -0.9396 -1.0683
 7547SOL    HW329961   5.995   0.658   6.456 -0.1681 -0.9908 -0.3538
 7547SOL    MW429962   5.977   0.680   6.374 -0.0829 -0.2693 -0.1822
 7548SOL     OW29963   0.145   5.729   1.263 -0.3396  0.1520  0.2193
 7548SOL    HW229964   0.137   5.818   1.228  0.9783  0.1152 -0.2274
 7548SOL    HW329965   0.238   5.719   1.280 -0.4493 -1.2260  0.0706
 7548SOL    MW429966   0.156   5.740   1.261 -0.1802 -0.0347  0.1408
 7549SOL     OW29967   5.378   0.344   5.638  0.5562 -0.6901 -0.1688
 7549SOL    HW229968   5.351   0.275   5.578 -0.0777 -0.5533 -0.0409
 7549SOL    HW329969   5.347   0.316   5.724 -1.7107  0.7767 -0.4220
 7549SOL    MW429970   5.370   0.331   5.641  0.1735 -0.4785 -0.1853
 7550SOL     OW29971   0.869   0.413   6.104  0.3101 -0.0768 -0.3383
 7550SOL    HW229972   0.841   0.380   6.190  1.7270 -0.0317  0.1794
 7550SOL    HW329973   0.955   0.373   6.091  0.8958  1.2980 -0.9204
 7550SOL    MW429974   0.877   0.403   6.114  0.5743  0.1105 -0.3468
 7551SOL     OW29975   2.109   6.390   3.936 -0.4376 -0.2597 -0.0036
 7551SOL    HW229976   2.113   6.306   3.891  0.6843 -0.9267  1.2398
 7551SOL    HW329977   2.058   6.372   4.015  0.6434 -0.0603  0.7691
 7551SOL    MW429978   2.103   6.376   3.941 -0.1470 -0.3214  0.2624
 7552SOL     OW29979   1.811   2.303   3.335  0.0539 -0.3041  0.0010
 7552SOL    HW229980   1.786   2.388   3.373  1.8487  0.0765  0.4143
 7552SOL    HW329981   1.875   2.324   3.268  0.8688 -1.3550  0.4198
 7552SOL    MW429982   1.816   2.317   3.331  0.3982 -0.3925  0.1108
 7553SOL     OW29983   4.780   1.533   4.232 -0.0895  0.3123 -0.2762
 7553SOL    HW229984   4.805   1.447   4.200  0.7033  0.5160 -0.2094
 7553SOL    HW329985   4.789   1.528   4.327 -0.0896  0.4531 -0.2673
 7553SOL    MW429986   4.784   1.521   4.240  0.0151  0.3578 -0.2662
 7554SOL     OW29987   3.238   3.774   1.082  0.0175  0.0150 -0.0516
 7554SOL    HW229988   3.255   3.766   0.988  0.0430  1.8287 -0.2504
 7554SOL    HW329989   3.308   3.832   1.113 -1.5523  1.6953  0.5095
 7554SOL    MW429990   3.250   3.781   1.073 -0.1863  0.4760 -0.0038
 7555SOL     OW29991   1.557   6.018   0.256 -0.3731 -0.1643 -0.1052
 7555SOL    HW229992   1.602   6.093   0.294  1.9643 -1.3427 -0.3180
 7555SOL    HW329993   1.465   6.041   0.259  0.1636  2.1799  0.9458
 7555SOL    MW429994   1.551   6.031   0.262  0.0061 -0.0105  0.0054
 7556SOL     OW29995   1.960   1.290   4.188  0.1218  0.5978 -0.0995
 7556SOL    HW229996   1.898   1.223   4.215  0.1058  0.2363 -1.0184
 7556SOL    HW329997   1.905   1.362   4.156  0.1662  0.3319 -0.7855
 7556SOL    MW429998   1.945   1.291   4.188  0.1256  0.5151 -0.3112
 7557SOL     OW29999   2.860   1.378   6.092  0.2969 -0.0451  0.1706
 7557SOL    HW230000   2.818   1.411   6.012  0.4996 -1.6348 -0.6377
 7557SOL    HW330001   2.788   1.350   6.148  0.1829 -0.4255 -0.1572
 7557SOL    MW430002   2.845   1.379   6.089  0.3086 -0.3050  0.0207
 7558SOL     OW30003   4.419   3.929   2.301 -0.4377 -0.3607  0.4921
 7558SOL    HW230004   4.332   3.964   2.319  0.3043  0.6990  2.3112
 7558SOL    HW330005   4.476   4.006   2.298  0.7303 -1.1612  1.1798
 7558SOL    MW430006   4.415   3.944   2.303 -0.1857 -0.3265  0.8229
 7559SOL     OW30007   5.633   5.639   3.591  0.0546 -0.2321 -0.3141
 7559SOL    HW230008   5.723   5.664   3.570  0.2837  0.3485  1.2256
 7559SOL    HW330009   5.611   5.692   3.668 -1.2018 -1.1926  0.0191
 7559SOL    MW430010   5.642   5.649   3.599 -0.0809 -0.2822 -0.0670
 7560SOL     OW30011   3.517   1.524   0.883  0.3675 -0.0608 -0.0145
 7560SOL    HW230012   3.565   1.476   0.951  1.9209  0.8332 -0.4270
 7560SOL    HW330013   3.519   1.466   0.807 -0.2952 -0.5415  0.3244
 7560SOL    MW430014   3.524   1.510   0.882  0.4850 -0.0063 -0.0242
 7561SOL     OW30015   0.806   3.870   2.304 -0.0630  0.2284  0.1218
 7561SOL    HW230016   0.742   3.799   2.307  0.1647 -0.0200 -0.5738
 7561SOL    HW330017   0.891   3.826   2.307  0.0839  0.4336 -0.7139
 7561SOL    MW430018   0.809   3.855   2.304 -0.0136  0.2227 -0.0803
 7562SOL     OW30019   3.750   4.173   6.262 -0.1282  0.1042  0.3263
 7562SOL    HW230020   3.824   4.233   6.269 -0.1873  0.5308 -1.9255
 7562SOL    HW330021   3.673   4.229   6.258 -0.3695 -0.2218  0.3183
 7562SOL    MW430022   3.750   4.188   6.262 -0.1678  0.1175  0.0282
 7563SOL     OW30023   5.265   2.302   1.309  0.2138 -0.0382  0.0991
 7563SOL    HW230024   5.216   2.252   1.244 -0.2889 -0.8158  1.0318
 7563SOL    HW330025   5.349   2.320   1.268 -0.7750  1.1908 -1.4822
 7563SOL    MW430026   5.270   2.298   1.295  0.0170  0.0213  0.0135
 7564SOL     OW30027   4.967   0.836   3.302  0.0483 -0.0424 -0.4567
 7564SOL    HW230028   5.026   0.761   3.305  0.4238  0.2214 -1.0056
 7564SOL    HW330029   4.995   0.891   3.376  0.1372 -0.1792 -0.3880
 7564SOL    MW430030   4.979   0.833   3.312  0.1095 -0.0257 -0.5200
 7565SOL     OW30031   2.354   0.136   1.384  0.0626 -0.0019  0.0452
 7565SOL    HW230032   2.422   0.148   1.450 -0.3150 -1.5729  0.7796
 7565SOL    HW330033   2.391   0.071   1.324 -0.7959 -0.9731  0.5275
 7565SOL    MW430034   2.368   0.129   1.385 -0.1005 -0.3373  0.2057
 7566SOL     OW30035   4.049   4.302   0.834 -0.6330  0.4319 -0.3104
 7566SOL    HW230036   4.077   4.237   0.770  1.2651 -1.8429  2.5734
 7566SOL    HW330037   3.988   4.254   0.891 -0.0037  1.4470  1.2780
 7566SOL    MW430038   4.045   4.287   0.833 -0.2996  0.2657  0.2797
 7567SOL     OW30039   0.054   1.182   1.881 -0.6105  0.0836  0.0397
 7567SOL    HW230040   0.078   1.163   1.972  0.3484 -1.1919 -0.4397
 7567SOL    HW330041  -0.041   1.171   1.879 -0.3687 -3.0768  0.2792
 7567SOL    MW430042   0.045   1.178   1.893 -0.4521 -0.5016  0.0080
 7568SOL     OW30043   2.500   3.319   2.134 -0.0400  0.5805  0.3258
 7568SOL    HW230044   2.530   3.409   2.115  1.2413  0.0799 -0.1585
 7568SOL    HW330045   2.581   3.268   2.139 -0.7851 -0.7100 -0.2357
 7568SOL    MW430046   2.515   3.324   2.132  0.0308  0.3442  0.1878
 7569SOL     OW30047   5.865   5.464   6.226  0.2382 -0.0863 -0.2085
 7569SOL    HW230048   5.814   5.519   6.285 -0.0185 -0.1724 -0.3497
 7569SOL    HW330049   5.954   5.497   6.234  0.1682  0.0461  0.0618
 7569SOL    MW430050   5.870   5.475   6.235  0.1951 -0.0802 -0.1915
 7570SOL     OW30051   0.194   1.689   3.373 -0.1345 -0.5493 -0.3477
 7570SOL    HW230052   0.222   1.765   3.322 -1.2859 -0.5530 -1.0144
 7570SOL    HW330053   0.268   1.629   3.371  0.8423  0.5974  0.3007
 7570SOL    MW430054   0.207   1.691   3.366 -0.1575 -0.3985 -0.3501
 7571SOL     OW30055   0.301   6.360   1.445 -0.0238 -0.1069  0.2194
 7571SOL    HW230056   0.299   6.314   1.361 -0.5756 -2.1013  1.2553
 7571SOL    HW330057   0.382   6.331   1.486 -0.0641  0.3607  0.6357
 7571SOL    MW430058   0.311   6.350   1.439 -0.1019 -0.3083  0.4110
 7572SOL     OW30059   5.161   2.886   5.514 -0.6596  0.5647 -0.3042
 7572SOL    HW230060   5.125   2.802   5.487 -2.0464  0.2322  2.2213
 7572SOL    HW330061   5.255   2.872   5.516 -0.7955 -0.5805 -0.9396
 7572SOL    MW430062   5.168   2.873   5.511 -0.8605  0.3697 -0.0548
 7573SOL     OW30063   0.964   2.279   5.362 -0.0085  0.5644  0.1025
 7573SOL    HW230064   1.010   2.353   5.402  0.0544 -0.5212  2.1486
 7573SOL    HW330065   1.013   2.261   5.282  0.5373  2.1242  0.0587
 7573SOL    MW430066   0.976   2.286   5.357  0.0718  0.6270  0.3667
 7574SOL     OW30067   0.841   0.847   2.060 -0.1571  0.4247 -0.3083
 7574SOL    HW230068   0.907   0.851   2.130  0.0400  2.0515 -0.5501
 7574SOL    HW330069   0.758   0.864   2.105 -0.0646  1.1858 -0.4188
 7574SOL    MW430070   0.839   0.850   2.075 -0.1189  0.7398 -0.3548
 7575SOL     OW30071   4.848   0.850   5.340 -0.4521 -0.0919  0.3365
 7575SOL    HW230072   4.829   0.875   5.250  1.1678  0.1956  0.0453
 7575SOL    HW330073   4.831   0.930   5.391  0.2819  0.2598  0.0398
 7575SOL    MW430074   4.843   0.864   5.335 -0.1415 -0.0076  0.2589
 7576SOL     OW30075   3.465   5.469   1.524 -0.0120 -0.0015  0.3360
 7576SOL    HW230076   3.537   5.519   1.488 -0.3350  0.4182  0.2638
 7576SOL    HW330077   3.396   5.533   1.538 -0.8175 -0.5895 -0.7557
 7576SOL    MW430078   3.465   5.484   1.521 -0.1609 -0.0237  0.1824
 7577SOL     OW30079   5.014   1.279   3.901  0.1355 -0.6594  0.0578
 7577SOL    HW230080   5.042   1.342   3.836  0.9912 -0.8375  0.2362
 7577SOL    HW330081   5.037   1.194   3.863 -0.8709 -0.8655 -0.1178
 7577SOL    MW430082   5.020   1.276   3.888  0.1156 -0.7101  0.0582
 7578SOL     OW30083   0.047   2.051   0.487 -0.1304  0.3639 -0.0642
 7578SOL    HW230084   0.016   2.020   0.572 -0.0961 -0.8888 -0.4879
 7578SOL    HW330085  -0.032   2.054   0.432 -0.1706  1.2722  0.0273
 7578SOL    MW430086   0.032   2.047   0.491 -0.1311  0.3184 -0.1081
 7579SOL     OW30087   3.052   2.452   3.216 -0.2733  0.4000 -0.1088
 7579SOL    HW230088   3.052   2.493   3.130  1.6466  2.3063  0.7203
 7579SOL    HW330089   3.020   2.520   3.275  1.4923  0.2603  1.0877
 7579SOL    MW430090   3.048   2.466   3.213  0.2129  0.6330  0.1585
 7580SOL     OW30091   0.475   4.529   3.643 -0.1285 -0.2960 -0.0161
 7580SOL    HW230092   0.544   4.468   3.668  0.3840  0.1856 -0.2369
 7580SOL    HW330093   0.520   4.613   3.632 -0.6369 -0.1127 -0.7886
 7580SOL    MW430094   0.490   4.532   3.645 -0.1280 -0.2082 -0.1472
 7581SOL     OW30095   4.074   4.126   3.288  0.2158  1.3027 -0.0693
 7581SOL    HW230096   4.107   4.203   3.242  1.4797 -0.3100 -2.0441
 7581SOL    HW330097   4.084   4.055   3.225  1.5459 -0.9972  2.5176
 7581SOL    MW430098   4.080   4.127   3.273  0.5580  0.7865  0.0114
 7582SOL     OW30099   6.123   3.407   0.207  0.4145  0.2194  0.0867
 7582SOL    HW230100   6.118   3.400   0.112  0.6454 -0.8629  0.1404
 7582SOL    HW330101   6.074   3.487   0.228  0.0447  0.2631 -0.9048
 7582SOL    MW430102   6.116   3.417   0.197  0.3962  0.0823 -0.0370
 7583SOL     OW30103   1.063   6.136   4.640  0.2380  0.3111 -0.0596
 7583SOL    HW230104   1.110   6.214   4.609 -0.5946  1.5489  1.6313
 7583SOL    HW330105   1.005   6.169   4.708 -2.9765 -1.1440 -1.8685
 7583SOL    MW430106   1.062   6.151   4.645 -0.2960  0.2824 -0.0751
 7584SOL     OW30107   1.175   4.149   5.540 -0.4716 -0.2715 -0.2177
 7584SOL    HW230108   1.095   4.097   5.554 -1.0530  0.6770  0.0792
 7584SOL    HW330109   1.206   4.169   5.628 -0.9343  0.8823 -0.2949
 7584SOL    MW430110   1.168   4.145   5.553 -0.6094  0.0059 -0.1887
 7585SOL     OW30111   4.571   4.771   0.463  0.0551 -0.1811 -0.0983
 7585SOL    HW230112   4.552   4.761   0.556 -0.6468  2.5337  0.1568
 7585SOL    HW330113   4.503   4.721   0.419 -0.8278  0.1165  0.8822
 7585SOL    MW430114   4.559   4.763   0.469 -0.1540  0.2164  0.0647
 7586SOL     OW30115   5.485   3.758   3.050  0.1182 -0.1247 -0.2074
 7586SOL    HW230116   5.406   3.774   2.999 -0.1492  1.3573  0.6130
 7586SOL    HW330117   5.458   3.771   3.141  1.0673 -0.6671  0.1723
 7586SOL    MW430118   5.471   3.762   3.055  0.2082 -0.0007 -0.0491
 7587SOL     OW30119   0.407   4.099   4.141  0.4926  0.0426 -0.3485
 7587SOL    HW230120   0.502   4.103   4.131  0.5210  0.5531  0.1022
 7587SOL    HW330121   0.390   4.128   4.231 -0.2252  2.0270 -1.0513
 7587SOL    MW430122   0.417   4.104   4.151  0.4017  0.3718 -0.3817
 7588SOL     OW30123   3.722   2.628   3.434  0.2163 -0.2704  0.0188
 7588SOL    HW230124   3.740   2.698   3.372  0.9313 -0.7363 -0.3147
 7588SOL    HW330125   3.627   2.620   3.435  0.1819 -0.0276 -0.7658
 7588SOL    MW430126   3.712   2.636   3.426  0.3061 -0.2998 -0.1287
 7589SOL     OW30127   0.939   4.008   5.547  0.2201  0.7101  0.2187
 7589SOL    HW230128   0.937   3.982   5.455 -1.3494 -0.6359  0.5907
 7589SOL    HW330129   0.887   4.088   5.550 -0.3546  0.3461  0.0469
 7589SOL    MW430130   0.932   4.015   5.535 -0.0628  0.4845  0.2451
 7590SOL     OW30131   5.607   0.388   0.373  0.2121  0.7333 -0.3540
 7590SOL    HW230132   5.608   0.410   0.466  0.7226 -0.4649 -0.0567
 7590SOL    HW330133   5.666   0.452   0.333  1.9023 -0.2095  0.5265
 7590SOL    MW430134   5.615   0.400   0.380  0.5025  0.4508 -0.1986
 7591SOL     OW30135   5.994   2.553   4.806 -0.4915 -0.1079 -0.2994
 7591SOL    HW230136   5.943   2.616   4.856 -0.9128 -0.5828 -0.1166
 7591SOL    HW330137   5.972   2.468   4.844  0.1692 -0.3584 -0.4506
 7591SOL    MW430138   5.984   2.550   4.817 -0.4599 -0.2036 -0.2952
 7592SOL     OW30139   0.112   3.912   4.186 -0.1438  0.2217 -0.0731
 7592SOL    HW230140   0.053   3.864   4.245 -0.9759 -0.3332 -1.3296
 7592SOL    HW330141   0.135   3.991   4.235 -0.7038 -0.2845  1.0527
 7592SOL    MW430142   0.107   3.916   4.201 -0.3275  0.0817 -0.0904
 7593SOL     OW30143   4.444   1.822   2.186  0.3663  0.4502  0.5984
 7593SOL    HW230144   4.402   1.902   2.154  1.7785  1.6416  1.6029
 7593SOL    HW330145   4.402   1.805   2.270 -0.9915 -0.7855 -0.2672
 7593SOL    MW430146   4.433   1.831   2.193  0.3735  0.4444  0.6167
 7594SOL     OW30147   3.992   2.154   0.797 -0.2740  0.4168  0.2210
 7594SOL    HW230148   3.977   2.235   0.749 -1.7719  1.4494  2.2848
 7594SOL    HW330149   3.909   2.138   0.843  0.6272 -1.2532  1.3638
 7594SOL    MW430150   3.979   2.162   0.797 -0.3528  0.3327  0.6441
 7595SOL     OW30151   2.181   3.783   6.100  0.5104  0.7005 -0.5489
 7595SOL    HW230152   2.251   3.844   6.123  0.8236  0.6134 -1.2600
 7595SOL    HW330153   2.102   3.824   6.134  1.1001 -0.1088  2.0242
 7595SOL    MW430154   2.180   3.796   6.108  0.6295  0.5822 -0.3032
 7596SOL     OW30155   5.600   2.950   1.594  0.3863  0.1295  0.6491
 7596SOL    HW230156   5.631   2.919   1.509 -1.2021 -2.2378  0.8380
 7596SOL    HW330157   5.670   2.927   1.655  1.8289  2.4283  0.0046
 7596SOL    MW430158   5.613   2.943   1.591  0.3671  0.1204  0.5890
 7597SOL     OW30159   4.964   1.480   5.151  0.1155  0.3607 -0.1722
 7597SOL    HW230160   5.005   1.467   5.236  0.0780 -3.3561 -0.5912
 7597SOL    HW330161   5.035   1.472   5.088 -0.1441  1.3199 -0.6059
 7597SOL    MW430162   4.978   1.477   5.154  0.0763 -0.0031 -0.2847
 7598SOL     OW30163   4.630   2.336   3.793  0.0112 -0.4341  0.3268
 7598SOL    HW230164   4.598   2.329   3.882 -1.2348 -1.1622 -0.1574
 7598SOL    HW330165   4.649   2.429   3.782  0.6758 -0.4177  1.5028
 7598SOL    MW430166   4.628   2.348   3.803 -0.0655 -0.5280  0.4180
 7599SOL     OW30167   2.916   2.315   4.533 -0.0160 -0.2036 -0.5025
 7599SOL    HW230168   2.861   2.277   4.464 -1.0125  0.4795 -0.1087
 7599SOL    HW330169   2.904   2.257   4.608 -0.4981  0.1415 -0.3067
 7599SOL    MW430170   2.907   2.302   4.534 -0.2111 -0.0680 -0.4247
 7600SOL     OW30171   4.625   0.136   5.540  0.3730  0.1717  0.4938
 7600SOL    HW230172   4.533   0.160   5.549  0.3083  0.0105  0.2597
 7600SOL    HW330173   4.671   0.194   5.602  0.2791  1.2951 -0.4615
 7600SOL    MW430174   4.619   0.147   5.550  0.3521  0.2987  0.3369
 7601SOL     OW30175   1.666   1.847   1.115 -0.5926 -0.4522  0.0919
 7601SOL    HW230176   1.701   1.762   1.088  2.1209  0.8255 -0.7790
 7601SOL    HW330177   1.645   1.891   1.033  0.2489  0.5415  0.3914
 7601SOL    MW430178   1.668   1.841   1.101 -0.1235 -0.1525  0.0165
 7602SOL     OW30179   2.182   4.767   0.812 -0.3318 -0.4912 -0.3682
 7602SOL    HW230180   2.236   4.801   0.740 -1.9116 -0.0278 -1.3674
 7602SOL    HW330181   2.132   4.843   0.841  0.5949 -0.5676  1.5580
 7602SOL    MW430182   2.183   4.781   0.806 -0.4180 -0.4402 -0.2459
 7603SOL     OW30183   4.377   1.776   3.141  0.2192 -0.0289 -0.3642
 7603SOL    HW230184   4.400   1.812   3.055  2.8460 -0.5415  0.0317
 7603SOL    HW330185   4.335   1.849   3.187 -0.5366  0.4748 -1.8032
 7603SOL    MW430186   4.375   1.791   3.136  0.4661 -0.0301 -0.5018
 7604SOL     OW30187   5.108   5.963   2.789  0.3197  0.3213  0.3162
 7604SOL    HW230188   5.038   6.028   2.786  0.5223  0.5259 -1.6399
 7604SOL    HW330189   5.184   6.011   2.821 -0.0957  0.4415  1.1382
 7604SOL    MW430190   5.109   5.978   2.793  0.2916  0.3642  0.1665
 7605SOL     OW30191   0.927   2.046   4.184 -0.1060  0.5476 -0.3077
 7605SOL    HW230192   0.907   2.053   4.277 -0.5573 -0.6310 -0.2938
 7605SOL    HW330193   0.879   2.119   4.143  0.1842  1.1332  0.3806
 7605SOL    MW430194   0.918   2.057   4.191 -0.1273  0.4694 -0.2151
 7606SOL     OW30195   5.899   5.300   2.415 -0.7262  0.4879 -0.0359
 7606SOL    HW230196   5.875   5.346   2.496 -1.9058  2.1923 -1.2955
 7606SOL    HW330197   5.900   5.207   2.440 -0.6194  1.0011  2.0211
 7606SOL    MW430198   5.896   5.294   2.429 -0.8677  0.7805  0.0693
 7607SOL     OW30199   4.484   3.586   0.441 -0.3434 -0.2052 -0.1228
 7607SOL    HW230200   4.557   3.623   0.391  0.2413  0.1953  0.9869
 7607SOL    HW330201   4.467   3.502   0.400 -0.0275  0.2072 -1.1290
 7607SOL    MW430202   4.492   3.580   0.429 -0.2246 -0.0980 -0.1092
 7608SOL     OW30203   3.434   4.100   6.197  0.5319 -0.5919  0.5126
 7608SOL    HW230204   3.340   4.090   6.212  0.1648  0.9472 -0.5081
 7608SOL    HW330205   3.448   4.195   6.193  1.3366 -0.6834 -3.6006
 7608SOL    MW430206   3.423   4.111   6.199  0.5896 -0.4009 -0.1648
 7609SOL     OW30207   4.974   1.439   3.193  0.5288 -0.1369 -0.0962
 7609SOL    HW230208   4.970   1.365   3.254  1.3374  0.6840  0.9924
 7609SOL    HW330209   4.927   1.509   3.238  2.3931  0.9344  0.2943
 7609SOL    MW430210   4.967   1.438   3.207  0.8815  0.1128  0.0990
 7610SOL     OW30211   3.349   4.929   0.659 -0.0715  0.1621 -0.0383
 7610SOL    HW230212   3.290   4.914   0.732 -0.0316  1.2517  0.2372
 7610SOL    HW330213   3.337   4.853   0.602 -0.7120 -0.2926  0.6860
 7610SOL    MW430214   3.340   4.917   0.661 -0.1507  0.2459  0.0936
 7611SOL     OW30215   5.190   3.727   5.185  0.2520 -0.4237  0.4437
 7611SOL    HW230216   5.160   3.747   5.274  0.8590 -0.8921  0.7637
 7611SOL    HW330217   5.196   3.631   5.183  0.8782 -0.3812  0.1130
 7611SOL    MW430218   5.187   3.717   5.197  0.4147 -0.4799  0.4423
 7612SOL     OW30219   4.357   0.083   3.500 -0.2339  0.8576 -0.4608
 7612SOL    HW230220   4.444   0.112   3.525 -0.4158  0.7939  0.2667
 7612SOL    HW330221   4.318   0.049   3.581 -1.1663  1.4741 -0.6210
 7612SOL    MW430222   4.363   0.082   3.514 -0.3809  0.9305 -0.3860
 7613SOL     OW30223   1.632   3.696   6.163  0.1606 -0.1626  0.2303
 7613SOL    HW230224   1.605   3.765   6.225 -0.4342 -0.6323  0.5151
 7613SOL    HW330225   1.670   3.743   6.090 -1.3287  0.5621 -0.1307
 7613SOL    MW430226   1.633   3.711   6.162 -0.1143 -0.1289  0.2203
 7614SOL     OW30227   3.537   3.177   0.034  0.3484 -0.3372  0.2209
 7614SOL    HW230228   3.513   3.263  -0.001  0.3652  0.0625  1.1810
 7614SOL    HW330229   3.513   3.180   0.126  2.1651 -0.6518  0.7460
 7614SOL    MW430230   3.531   3.189   0.041  0.5903 -0.3260  0.4169
 7615SOL     OW30231   2.714   2.369   5.314 -0.2053  0.0352 -0.1689
 7615SOL    HW230232   2.740   2.458   5.292  0.1302  0.1874  0.7893
 7615SOL    HW330233   2.763   2.349   5.394 -1.5432 -0.3909  0.5712
 7615SOL    MW430234   2.724   2.378   5.322 -0.3376 -0.0010  0.0552
 7616SOL     OW30235   4.537   5.358   4.309  0.5018  0.3605  0.4051
 7616SOL    HW230236   4.603   5.414   4.350  0.6194  0.5382 -0.0259
 7616SOL    HW330237   4.579   5.323   4.231 -0.0927  0.9145 -0.1767
 7616SOL    MW430238   4.551   5.361   4.304  0.4389  0.4570  0.2715
 7617SOL     OW30239   3.807   6.289   2.403  0.1557 -0.1586  0.0326
 7617SOL    HW230240   3.873   6.220   2.404 -0.6989 -1.0640  2.1715
 7617SOL    HW330241   3.755   6.272   2.325 -1.0622 -3.1111  1.3211
 7617SOL    MW430242   3.809   6.278   2.393 -0.1178 -0.6676  0.4848
 7618SOL     OW30243   4.178   1.118   0.683  0.0520 -0.4473 -0.7160
 7618SOL    HW230244   4.111   1.127   0.751 -1.7034 -0.0403 -2.4191
 7618SOL    HW330245   4.194   1.024   0.677 -0.2615 -0.5355 -0.1951
 7618SOL    MW430246   4.172   1.107   0.691 -0.2210 -0.4053 -0.8720
 7619SOL     OW30247   4.705   3.201   0.111  0.0319 -0.0520  0.4881
 7619SOL    HW230248   4.654   3.123   0.134  2.1776 -1.6960 -0.0204
 7619SOL    HW330249   4.771   3.207   0.180  0.5905  0.6751 -0.1022
 7619SOL    MW430250   4.707   3.191   0.123  0.3887 -0.1730  0.3431
 7620SOL     OW30251   5.400   2.479   1.704 -0.3650  0.5331  0.1167
 7620SOL    HW230252   5.421   2.570   1.724  0.0791  0.1858  1.3676
 7620SOL    HW330253   5.486   2.438   1.690 -0.5798  0.3692 -0.7692
 7620SOL    MW430254   5.414   2.486   1.705 -0.3348  0.4656  0.1648
 7621SOL     OW30255   5.631   3.666   1.035  0.4423  0.4286 -0.8472
 7621SOL    HW230256   5.540   3.647   1.058 -0.2181  3.2867 -0.7249
 7621SOL    HW330257   5.635   3.653   0.940 -0.0783  0.2334 -0.8458
 7621SOL    MW430258   5.619   3.662   1.025  0.2865  0.7799 -0.8309
 7622SOL     OW30259   4.230   5.565   4.129 -0.0195  0.1108  0.4771
 7622SOL    HW230260   4.285   5.607   4.195  1.1479 -2.1538  1.0257
 7622SOL    HW330261   4.193   5.489   4.174 -1.2962 -0.0324 -0.7465
 7622SOL    MW430262   4.232   5.561   4.144 -0.0339 -0.2069  0.3880
 7623SOL     OW30263   3.491   1.804   3.241  0.2372 -0.1343 -0.2183
 7623SOL    HW230264   3.585   1.788   3.230  0.1808  0.1040 -1.1410
 7623SOL    HW330265   3.485   1.858   3.319  0.8529 -0.3036 -0.0455
 7623SOL    MW430266   3.503   1.809   3.250  0.3110 -0.1252 -0.3173
 7624SOL     OW30267   0.500   4.374   1.135  0.4097 -0.0917  0.0636
 7624SOL    HW230268   0.583   4.333   1.113 -0.6579 -1.6264 -1.3073
 7624SOL    HW330269   0.433   4.313   1.103 -1.2488  1.4377  0.4352
 7624SOL    MW430270   0.502   4.361   1.128  0.0500 -0.0924 -0.0683
 7625SOL     OW30271   4.920   0.059   6.102 -0.7171 -0.0532  0.0959
 7625SOL    HW230272   4.981   0.009   6.047 -1.6942 -3.0390  1.5039
 7625SOL    HW330273   4.833   0.035   6.069 -1.2346  0.3425  1.1386
 7625SOL    MW430274   4.917   0.049   6.090 -0.9143 -0.3950  0.4192
 7626SOL     OW30275   6.121   2.075   6.133 -0.0499 -0.5729  0.1744
 7626SOL    HW230276   6.210   2.040   6.136  0.3502  0.3107 -0.9474
 7626SOL    HW330277   6.078   2.026   6.063 -0.1791 -0.3831  0.1208
 7626SOL    MW430278   6.127   2.064   6.125 -0.0141 -0.4313  0.0193
 7627SOL     OW30279   2.230   3.965   1.379  0.1722  0.0739  0.7270
 7627SOL    HW230280   2.322   3.991   1.387 -0.2424  1.3602  1.7239
 7627SOL    HW330281   2.233   3.875   1.348  1.7298  0.6986 -1.1269
 7627SOL    MW430282   2.242   3.957   1.376  0.3230  0.3260  0.6139
 7628SOL     OW30283   4.598   4.968   3.284 -0.2900 -0.2670 -0.4174
 7628SOL    HW230284   4.661   4.963   3.355  0.3099  0.8625 -0.8443
 7628SOL    HW330285   4.537   4.896   3.300  0.3505 -0.5666  0.7295
 7628SOL    MW430286   4.598   4.958   3.295 -0.1263 -0.1575 -0.3224
 7629SOL     OW30287   1.569   3.934   0.286  0.2278 -0.1136 -0.7734
 7629SOL    HW230288   1.605   3.902   0.369  1.0208  1.1588 -0.6029
 7629SOL    HW330289   1.520   4.013   0.311  0.6615  0.4057 -1.5391
 7629SOL    MW430290   1.567   3.941   0.300  0.3896  0.1228 -0.8519
 7630SOL     OW30291   6.082   5.935   1.460 -0.2265  0.5659 -0.2334
 7630SOL    HW230292   6.177   5.921   1.462 -0.4076 -0.7045  0.3364
 7630SOL    HW330293   6.054   5.898   1.376 -0.4334 -0.7345  0.3812
 7630SOL    MW430294   6.091   5.928   1.449 -0.2777  0.2267 -0.0772
 7631SOL     OW30295   2.289   1.422   5.099 -0.4766 -0.3480 -0.4017
 7631SOL    HW230296   2.221   1.410   5.165 -1.3375  0.7709 -1.0360
 7631SOL    HW330297   2.304   1.517   5.098  1.7921 -0.6535  0.3818
 7631SOL    MW430298   2.282   1.433   5.108 -0.2909 -0.2407 -0.3820
 7632SOL     OW30299   2.564   1.110   5.932  0.5085  0.5082  0.1001
 7632SOL    HW230300   2.507   1.037   5.956  1.1322  0.3578  1.2179
 7632SOL    HW330301   2.523   1.187   5.972  1.0175  0.4169  0.8114
 7632SOL    MW430302   2.551   1.111   5.940  0.6580  0.4763  0.3414
 7633SOL     OW30303   2.777   3.678   4.785 -0.0383  0.3935 -0.1173
 7633SOL    HW230304   2.698   3.653   4.737 -1.1787  0.8747  1.4382
 7633SOL    HW330305   2.788   3.771   4.765 -0.9565  0.7864  1.1029
 7633SOL    MW430306   2.768   3.687   4.776 -0.3099  0.5089  0.2489
 7634SOL     OW30307   4.570   0.638   1.425  0.0153  0.1889  0.0372
 7634SOL    HW230308   4.562   0.686   1.343  0.4987 -0.0717 -0.1704
 7634SOL    HW330309   4.560   0.546   1.400 -0.9666  0.1749  0.4372
 7634SOL    MW430310   4.568   0.632   1.411 -0.0505  0.1527  0.0626
 7635SOL     OW30311   5.149   1.556   3.000  0.2468  0.0751 -0.5496
 7635SOL    HW230312   5.095   1.518   3.070  1.8478 -0.3870  0.4736
 7635SOL    HW330313   5.216   1.490   2.983  1.6053  1.3930 -0.4901
 7635SOL    MW430314   5.150   1.542   3.007  0.6373  0.1880 -0.4067
 7636SOL     OW30315   1.866   1.730   5.865 -0.2164 -0.0755 -0.4825
 7636SOL    HW230316   1.876   1.789   5.790  0.0588  0.7863  0.2148
 7636SOL    HW330317   1.799   1.773   5.919  0.7147  0.1419  0.5348
 7636SOL    MW430318   1.858   1.744   5.862 -0.0572  0.0669 -0.2563
 7637SOL     OW30319   0.593   1.696   3.194 -0.3656 -0.4932  0.4355
 7637SOL    HW230320   0.593   1.767   3.259  0.2428 -1.2299  1.2761
 7637SOL    HW330321   0.551   1.734   3.117  4.0633  2.4012 -0.9236
 7637SOL    MW430322   0.588   1.710   3.193  0.2990 -0.2085  0.3671
 7638SOL     OW30323   2.195   3.647   3.186  0.4343 -0.2544  0.0592
 7638SOL    HW230324   2.176   3.653   3.093  0.8707 -2.1824 -0.2093
 7638SOL    HW330325   2.272   3.590   3.191 -0.3643 -1.2846  1.6498
 7638SOL    MW430326   2.203   3.640   3.174  0.3865 -0.6447  0.2337
 7639SOL     OW30327   0.823   1.581   3.119 -0.3212 -0.4584  0.6642
 7639SOL    HW230328   0.743   1.624   3.150 -0.2173 -0.6827  1.2505
 7639SOL    HW330329   0.888   1.651   3.118 -0.8836  0.0855 -1.2928
 7639SOL    MW430330   0.821   1.596   3.123 -0.3817 -0.4162  0.4833
 7640SOL     OW30331   4.250   1.039   2.098 -0.9571  0.4374  0.4478
 7640SOL    HW230332   4.321   1.087   2.056 -2.2577  1.9634 -0.0872
 7640SOL    HW330333   4.295   0.975   2.153  0.8456  1.7683  0.6371
 7640SOL    MW430334   4.266   1.037   2.100 -0.8909  0.8144  0.4022
 7641SOL     OW30335   2.066   1.578   3.870  0.5587  0.1531  0.0588
 7641SOL    HW230336   2.114   1.654   3.838  0.8345  0.8175  1.9728
 7641SOL    HW330337   1.985   1.615   3.907  0.1412 -0.6146 -0.0720
 7641SOL    MW430338   2.061   1.593   3.870  0.5400  0.1395  0.2940
 7642SOL     OW30339   4.980   1.025   0.543  0.4572  0.5867 -0.0511
 7642SOL    HW230340   4.951   1.085   0.612 -0.6732 -1.2822  1.1893
 7642SOL    HW330341   4.971   1.076   0.462 -2.9997  1.3269  0.6233
 7642SOL    MW430342   4.975   1.040   0.541 -0.1480  0.4378  0.2016
 7643SOL     OW30343   6.136   2.517   5.513  0.6689  0.0544 -0.2467
 7643SOL    HW230344   6.191   2.484   5.584  0.9532 -0.8598 -0.8811
 7643SOL    HW330345   6.172   2.603   5.493  1.4088 -0.2321 -0.1645
 7643SOL    MW430346   6.148   2.524   5.520  0.8040 -0.1040 -0.3196
 7644SOL     OW30347   2.314   1.166   1.669  0.3788 -0.7592 -0.3147
 7644SOL    HW230348   2.295   1.112   1.592 -3.2178  0.1265 -0.2254
 7644SOL    HW330349   2.300   1.107   1.743  2.1880 -1.1523 -0.2317
 7644SOL    MW430350   2.310   1.151   1.669  0.1430 -0.6942 -0.2920
 7645SOL     OW30351   1.724   1.403   3.825  0.4445  0.1996 -0.3958
 7645SOL    HW230352   1.698   1.489   3.792  1.6935  1.1074  0.8632
 7645SOL    HW330353   1.646   1.348   3.815 -1.0770  2.0419  0.7469
 7645SOL    MW430354   1.710   1.407   3.819  0.4086  0.5625 -0.0789
 7646SOL     OW30355   6.276   1.878   5.826  0.0255  0.3717  0.0916
 7646SOL    HW230356   6.347   1.829   5.783  0.7167 -0.1579  1.7416
 7646SOL    HW330357   6.309   1.895   5.915 -1.3822  1.3098  0.4730
 7646SOL    MW430358   6.290   1.873   5.832 -0.0691  0.4256  0.3596
 7647SOL     OW30359   5.557   1.055   4.766  0.1692  0.0113  0.2140
 7647SOL    HW230360   5.628   1.056   4.701  0.4045  0.2842  0.4760
 7647SOL    HW330361   5.589   0.997   4.835  0.2576  0.3600  0.4667
 7647SOL    MW430362   5.571   1.047   4.766  0.2119  0.0933  0.2819
 7648SOL     OW30363   3.643   2.392   6.234 -0.0415 -0.1399 -0.9724
 7648SOL    HW230364   3.646   2.297   6.247  0.1594  0.1724  1.6775
 7648SOL    HW330365   3.557   2.418   6.267  0.5708  0.7856 -0.0562
 7648SOL    MW430366   3.632   2.383   6.240  0.0658  0.0234 -0.5019
 7649SOL     OW30367   3.591   6.169   5.048  0.0975 -0.3851 -0.4249
 7649SOL    HW230368   3.600   6.263   5.036  0.1224 -0.2135  0.7717
 7649SOL    HW330369   3.597   6.132   4.960 -1.6144  0.8650 -1.1144
 7649SOL    MW430370   3.593   6.177   5.035 -0.1251 -0.1975 -0.3580
 7650SOL     OW30371   4.941   2.363   5.671 -0.2284 -0.0313  0.1374
 7650SOL    HW230372   4.989   2.440   5.700 -0.0380 -0.0699 -0.0700
 7650SOL    HW330373   4.936   2.307   5.748 -1.3618  0.6818  0.6032
 7650SOL    MW430374   4.947   2.366   5.685 -0.3529  0.0577  0.1715
 7651SOL     OW30375   3.393   0.281   1.972 -0.7970  0.5572 -0.1359
 7651SOL    HW230376   3.479   0.290   2.011 -0.6455  0.2056 -0.3926
 7651SOL    HW330377   3.351   0.366   1.989  0.1883  1.3442 -1.4434
 7651SOL    MW430378   3.398   0.294   1.979 -0.6470  0.6146 -0.3423
 7652SOL     OW30379   3.177   2.529   1.387 -0.5375 -0.6161  0.7711
 7652SOL    HW230380   3.138   2.602   1.433  0.0624  0.5968 -0.5666
 7652SOL    HW330381   3.135   2.529   1.301  1.1047 -0.3600 -0.0785
 7652SOL    MW430382   3.166   2.538   1.382 -0.2417 -0.4223  0.4825
 7653SOL     OW30383   2.032   3.203   4.961  0.1375  0.3706  0.1272
 7653SOL    HW230384   1.999   3.136   5.021 -0.8783  0.6097 -0.1463
 7653SOL    HW330385   2.018   3.286   5.007 -1.1841  0.6070 -0.6339
 7653SOL    MW430386   2.026   3.205   4.975 -0.1709  0.4334 -0.0093
 7654SOL     OW30387   4.879   4.149   2.285 -0.5601 -0.1897  0.1705
 7654SOL    HW230388   4.787   4.175   2.287  0.1119  2.4949 -0.2239
 7654SOL    HW330389   4.884   4.077   2.348 -2.4799  1.2761  2.1600
 7654SOL    MW430390   4.867   4.143   2.294 -0.7248  0.3579  0.3810
 7655SOL     OW30391   5.137   4.510   1.225  0.0640  0.2209  0.4055
 7655SOL    HW230392   5.168   4.423   1.251 -0.2640 -0.5351 -1.5119
 7655SOL    HW330393   5.090   4.543   1.301  0.2049 -1.2737  1.1875
 7655SOL    MW430394   5.135   4.503   1.238  0.0393 -0.0761  0.2557
 7656SOL     OW30395   2.260   4.997   5.903 -0.3660  0.4134  0.0140
 7656SOL    HW230396   2.208   5.062   5.951  0.0184  0.1994  0.7303
 7656SOL    HW330397   2.339   4.987   5.955 -0.6177 -0.9702  0.1555
 7656SOL    MW430398   2.263   5.004   5.916 -0.3485  0.2027  0.1272
 7657SOL     OW30399   4.460   3.623   1.280 -0.7317 -0.2430  0.1062
 7657SOL    HW230400   4.413   3.549   1.319 -0.4547 -0.2079  0.5203
 7657SOL    HW330401   4.549   3.591   1.267 -0.6222  0.0028  0.2451
 7657SOL    MW430402   4.465   3.609   1.284 -0.6807 -0.2060  0.1792
 7658SOL     OW30403   6.149   5.468   4.544  0.4394  0.5922  0.0953
 7658SOL    HW230404   6.237   5.436   4.566  0.1559 -0.2654  0.0111
 7658SOL    HW330405   6.094   5.390   4.544 -0.6778  1.3267  1.8027
 7658SOL    MW430406   6.153   5.453   4.547  0.2546  0.5760  0.3095
 7659SOL     OW30407   4.233   0.490   5.030 -0.0928 -0.2686  0.2061
 7659SOL    HW230408   4.325   0.516   5.040 -0.1562 -0.8050  3.0405
 7659SOL    HW330409   4.185   0.572   5.034  0.1869 -0.1039  0.2519
 7659SOL    MW430410   4.239   0.504   5.032 -0.0642 -0.3177  0.5861
 7660SOL     OW30411   5.829   0.242   0.253 -0.0945  0.3277  0.1195
 7660SOL    HW230412   5.744   0.274   0.284 -1.7261 -0.9256 -2.6808
 7660SOL    HW330413   5.829   0.149   0.275 -0.1452  0.0016 -1.1570
 7660SOL    MW430414   5.818   0.234   0.260 -0.3165  0.1193 -0.4184
 7661SOL     OW30415   2.079   2.252   4.465  0.5619  0.1943  0.7273
 7661SOL    HW230416   2.099   2.344   4.449 -0.3088  0.0741 -1.4353
 7661SOL    HW330417   1.996   2.237   4.419 -0.7818 -1.0462  3.3386
 7661SOL    MW430418   2.071   2.262   4.457  0.2698  0.0148  0.7865
 7662SOL     OW30419   2.217   4.961   4.770  0.8096 -0.1712 -0.2854
 7662SOL    HW230420   2.162   4.883   4.773  1.6594 -0.8649 -1.5484
 7662SOL    HW330421   2.273   4.954   4.847  0.0688 -0.1767  0.2573
 7662SOL    MW430422   2.217   4.950   4.780  0.8240 -0.2635 -0.3805
 7663SOL     OW30423   5.286   4.650   2.871  0.0261 -0.2629 -0.0724
 7663SOL    HW230424   5.245   4.737   2.875 -0.7401 -0.5298 -1.5553
 7663SOL    HW330425   5.307   4.638   2.779  1.5990 -1.0064  0.3627
 7663SOL    MW430426   5.283   4.660   2.859  0.1325 -0.3962 -0.2106
 7664SOL     OW30427   3.094   1.812   6.390 -0.1823  0.1178  0.7332
 7664SOL    HW230428   3.186   1.786   6.383 -0.1787  0.3720 -0.3264
 7664SOL    HW330429   3.088   1.858   6.474  0.7556  0.5119  0.5937
 7664SOL    MW430430   3.105   1.814   6.400 -0.0581  0.2033  0.5750
 7665SOL     OW30431   0.916   3.942   3.143 -0.5774 -0.1373 -0.6206
 7665SOL    HW230432   0.998   3.985   3.122 -0.0243 -1.0470 -0.3733
 7665SOL    HW330433   0.857   4.013   3.168  0.1983  0.5007 -0.5708
 7665SOL    MW430434   0.919   3.957   3.143 -0.4021 -0.1731 -0.5814
 7666SOL     OW30435   2.924   2.506   0.438  0.6618  0.4432 -0.6818
 7666SOL    HW230436   2.976   2.427   0.451 -0.7186 -0.4051 -0.0577
 7666SOL    HW330437   2.966   2.572   0.494  2.7788  0.6883 -2.4034
 7666SOL    MW430438   2.936   2.504   0.447  0.7590  0.3636 -0.8266
 7667SOL     OW30439   6.062   4.964   6.014  0.5293 -0.1017 -0.0409
 7667SOL    HW230440   6.087   4.888   6.066  0.5227  0.7164  1.2003
 7667SOL    HW330441   6.117   4.959   5.935  0.7435 -1.2075  0.1702
 7667SOL    MW430442   6.073   4.953   6.010  0.5567 -0.1397  0.1507
 7668SOL     OW30443   3.691   1.900   1.080  0.0369 -0.4842  0.3782
 7668SOL    HW230444   3.636   1.822   1.071 -0.8989  0.2059 -0.1119
 7668SOL    HW330445   3.712   1.924   0.990 -1.4689  1.0360  0.3885
 7668SOL    MW430446   3.687   1.893   1.067 -0.2852 -0.1926  0.3149
 7669SOL     OW30447   3.283   2.852   1.444 -0.2968 -0.5461  0.3376
 7669SOL    HW230448   3.363   2.847   1.496 -0.9628 -0.8531  1.3620
 7669SOL    HW330449   3.268   2.946   1.432  0.6857 -0.5009 -0.6222
 7669SOL    MW430450   3.291   2.864   1.449 -0.2550 -0.5806  0.3461
 7670SOL     OW30451   2.018   3.036   5.193 -0.5248 -0.0335 -0.0954
 7670SOL    HW230452   2.086   2.986   5.239 -1.1608 -0.4823  0.3870
 7670SOL    HW330453   1.984   3.095   5.259 -2.0500 -1.2893  0.3063
 7670SOL    MW430454   2.023   3.037   5.208 -0.8099 -0.2584  0.0212
 7671SOL     OW30455   1.225   4.650   5.406 -0.0562 -0.7145 -0.1206
 7671SOL    HW230456   1.257   4.564   5.434  0.7710 -0.3367  0.1538
 7671SOL    HW330457   1.140   4.633   5.367  0.3655 -1.7456 -0.6316
 7671SOL    MW430458   1.218   4.636   5.404  0.1086 -0.8007 -0.1518
 7672SOL     OW30459   0.360   6.003   1.475  0.2139 -0.5663  0.1237
 7672SOL    HW230460   0.348   5.913   1.444  0.7474 -1.1710  1.6046
 7672SOL    HW330461   0.420   6.042   1.411 -0.1951 -1.1872 -0.6536
 7672SOL    MW430462   0.366   5.997   1.462  0.2303 -0.7280  0.2165
 7673SOL     OW30463   4.934   4.026   1.948  0.1674  0.0625  0.1247
 7673SOL    HW230464   4.965   4.116   1.946 -1.0896  0.5359  1.0783
 7673SOL    HW330465   4.890   4.014   1.863 -0.7848  0.7694  0.5081
 7673SOL    MW430466   4.932   4.036   1.936 -0.1241  0.2182  0.3011
 7674SOL     OW30467   3.118   0.781   1.568 -0.3219  0.0250 -0.5311
 7674SOL    HW230468   3.062   0.840   1.518  0.3842  0.4272 -0.8714
 7674SOL    HW330469   3.063   0.705   1.587 -1.4820  1.1194  0.5951
 7674SOL    MW430470   3.103   0.779   1.564 -0.3818  0.2225 -0.4274
 7675SOL     OW30471   3.542   1.080   0.189  0.4133 -0.2010  0.4140
 7675SOL    HW230472   3.529   0.999   0.140 -2.0835  0.2366  0.2149
 7675SOL    HW330473   3.542   1.053   0.281 -1.3244 -0.4158  0.3959
 7675SOL    MW430474   3.540   1.066   0.195 -0.1454 -0.1716  0.3854
 7676SOL     OW30475   1.657   3.071   2.373 -0.0275  0.1928 -0.1008
 7676SOL    HW230476   1.677   2.986   2.412 -0.0647  0.3707  0.3071
 7676SOL    HW330477   1.570   3.094   2.407  0.3573  0.8011  0.4993
 7676SOL    MW430478   1.648   3.063   2.382  0.0183  0.2965  0.0322
 7677SOL     OW30479   2.446   5.807   2.903  0.5461  0.3253  0.4138
 7677SOL    HW230480   2.473   5.760   2.983  1.4825 -1.4744 -0.8873
 7677SOL    HW330481   2.500   5.886   2.903  1.0450  0.0031  1.2391
 7677SOL    MW430482   2.457   5.811   2.914  0.7355  0.0454  0.3510
 7678SOL     OW30483   1.936   6.424   3.329 -0.1761 -0.4519  0.0005
 7678SOL    HW230484   1.943   6.510   3.372  0.6466  0.2106 -1.3813
 7678SOL    HW330485   1.861   6.431   3.271 -1.6641 -1.5526  1.6884
 7678SOL    MW430486   1.927   6.436   3.327 -0.2639 -0.5097  0.0409
 7679SOL     OW30487   1.032   2.108   5.575 -0.3624 -0.6032  0.2244
 7679SOL    HW230488   0.994   2.162   5.506 -0.2592 -0.3644  0.3499
 7679SOL    HW330489   0.958   2.084   5.630 -0.4194 -0.6440  0.1281
 7679SOL    MW430490   1.017   2.112   5.573 -0.3563 -0.5771  0.2283
 7680SOL     OW30491   1.846   0.967   2.055 -0.0273 -0.2920  0.5458
 7680SOL    HW230492   1.814   0.896   1.999 -1.0550  1.4105 -1.1481
 7680SOL    HW330493   1.786   0.968   2.130 -0.4025 -0.7805  0.2562
 7680SOL    MW430494   1.834   0.957   2.058 -0.2124 -0.1318  0.2841
 7681SOL     OW30495   4.893   0.440   5.267 -0.0733  0.2258  0.1914
 7681SOL    HW230496   4.841   0.489   5.330  0.6253  0.9534  0.2266
 7681SOL    HW330497   4.962   0.502   5.240 -0.7068  0.1686 -1.7482
 7681SOL    MW430498   4.895   0.455   5.271 -0.0647  0.3142 -0.0599
 7682SOL     OW30499   4.157   5.637   1.181 -0.4689  0.0616 -0.2195
 7682SOL    HW230500   4.234   5.636   1.124 -0.0449  1.4729  0.2834
 7682SOL    HW330501   4.091   5.587   1.134  0.1585  0.4376 -1.5278
 7682SOL    MW430502   4.159   5.630   1.167 -0.3302  0.2974 -0.3258
 7683SOL     OW30503   1.854   0.134   2.914 -0.2074 -0.1389 -0.1038
 7683SOL    HW230504   1.853   0.157   2.821 -1.0380 -1.6553 -0.5088
 7683SOL    HW330505   1.790   0.193   2.954 -0.0279  0.3585 -0.5403
 7683SOL    MW430506   1.845   0.145   2.907 -0.2933 -0.2734 -0.2148
 7684SOL     OW30507   6.378   3.782   5.694  0.0764  0.0233 -0.4426
 7684SOL    HW230508   6.325   3.861   5.697 -0.9027 -0.6286 -0.2421
 7684SOL    HW330509   6.430   3.791   5.614 -2.0027 -0.3535 -1.9209
 7684SOL    MW430510   6.378   3.793   5.684 -0.3271 -0.1124 -0.6112
 7685SOL     OW30511   6.169   0.389   3.921 -0.8263 -0.4100  0.0331
 7685SOL    HW230512   6.264   0.384   3.931 -0.9846 -0.4924  1.9848
 7685SOL    HW330513   6.146   0.310   3.873 -0.0297 -1.1841  0.8850
 7685SOL    MW430514   6.178   0.378   3.916 -0.7421 -0.5230  0.4030
 7686SOL     OW30515   3.064   3.063   2.496 -0.6221 -0.5175  0.0227
 7686SOL    HW230516   3.157   3.084   2.495 -0.1513 -2.3829 -0.1855
 7686SOL    HW330517   3.061   2.969   2.476 -2.5675 -0.4300 -0.2828
 7686SOL    MW430518   3.075   3.053   2.493 -0.8167 -0.7520 -0.0451
 7687SOL     OW30519   0.090   1.112   0.526  0.9492  0.0811  0.5673
 7687SOL    HW230520   0.038   1.151   0.596  0.8936  1.8395 -0.4015
 7687SOL    HW330521   0.154   1.179   0.503  1.2567 -0.6269 -0.7714
 7687SOL    MW430522   0.092   1.126   0.532  0.9824  0.2197  0.2628
 7688SOL     OW30523   3.395   2.951   4.523  0.0739 -0.3682 -0.0815
 7688SOL    HW230524   3.314   2.903   4.539  0.3386 -0.4356  1.1211
 7688SOL    HW330525   3.367   3.030   4.476 -0.4278 -1.3838 -1.5722
 7688SOL    MW430526   3.381   2.955   4.519  0.0426 -0.5111 -0.1195
 7689SOL     OW30527   3.916   3.054   1.287 -0.1870  0.4200 -0.2980
 7689SOL    HW230528   3.872   3.128   1.245  0.0162  0.8512  0.2352
 7689SOL    HW330529   3.999   3.045   1.240 -0.0406  0.7825 -0.1087
 7689SOL    MW430530   3.921   3.062   1.275 -0.1409  0.5247 -0.2027
 7690SOL     OW30531   6.375   0.803   1.084 -0.0474 -0.2091 -0.4060
 7690SOL    HW230532   6.354   0.820   1.175  0.1254 -0.4210 -0.3257
 7690SOL    HW330533   6.349   0.712   1.069 -0.0577 -0.1815 -0.5608
 7690SOL    MW430534   6.369   0.793   1.094 -0.0260 -0.2334 -0.4158
 7691SOL     OW30535   2.031   5.002   1.470  0.3159  0.3404 -0.2484
 7691SOL    HW230536   2.109   4.950   1.450  0.3889  1.0470 -1.9727
 7691SOL    HW330537   1.960   4.938   1.477  0.0438 -0.0059 -4.1415
 7691SOL    MW430538   2.032   4.987   1.468  0.2896  0.3879 -0.9896
 7692SOL     OW30539   1.955   3.556   2.103  0.4134  0.1310  0.1961
 7692SOL    HW230540   1.913   3.472   2.083  3.1289 -0.9958 -1.4863
 7692SOL    HW330541   1.892   3.622   2.074 -0.9307 -1.3782 -0.4918
 7692SOL    MW430542   1.941   3.553   2.096  0.5943 -0.2168 -0.1167
 7693SOL     OW30543   1.884   5.476   4.374  0.1261  0.6482 -0.2980
 7693SOL    HW230544   1.914   5.460   4.463  1.1474  0.3448 -0.6899
 7693SOL    HW330545   1.801   5.429   4.368 -0.0794  0.8866  0.5669
 7693SOL    MW430546   1.877   5.468   4.385  0.2338  0.6397 -0.2356
 7694SOL     OW30547   1.471   1.736   0.613 -0.0239 -0.2426  0.1126
 7694SOL    HW230548   1.553   1.745   0.663  0.7354 -1.9892 -0.7505
 7694SOL    HW330549   1.426   1.820   0.627  3.0164  1.8575 -1.3754
 7694SOL    MW430550   1.476   1.748   0.622  0.4774 -0.1959 -0.1976
 7695SOL     OW30551   6.086   3.355   5.300  0.2447 -0.1517 -0.2873
 7695SOL    HW230552   6.015   3.410   5.333  0.1529 -0.3429 -0.1634
 7695SOL    HW330553   6.049   3.313   5.221  1.0473  1.6824 -1.7117
 7695SOL    MW430554   6.072   3.356   5.294  0.3385  0.0651 -0.4589
 7696SOL     OW30555   5.472   2.722   0.319 -0.3627 -0.4426 -0.1029
 7696SOL    HW230556   5.493   2.771   0.239  1.0258 -1.6611 -0.5254
 7696SOL    HW330557   5.557   2.697   0.355 -1.0036 -1.1422  0.9865
 7696SOL    MW430558   5.486   2.725   0.313 -0.2640 -0.6957 -0.0149
 7697SOL     OW30559   1.290   0.806   0.475  0.0261  0.6763  0.1882
 7697SOL    HW230560   1.289   0.738   0.408 -0.5296  0.4865  0.3846
 7697SOL    HW330561   1.213   0.860   0.456  1.7044  2.7062 -1.4288
 7697SOL    MW430562   1.280   0.804   0.464  0.1742  0.9191  0.0008
 7698SOL     OW30563   3.480   3.433   6.400 -0.3359  0.1507 -0.5407
 7698SOL    HW230564   3.545   3.438   6.330 -0.5955  1.3535 -0.7033
 7698SOL    HW330565   3.431   3.515   6.395 -0.9602 -0.1346  0.4690
 7698SOL    MW430566   3.482   3.444   6.390 -0.4525  0.2717 -0.4289
 7699SOL     OW30567   5.911   0.653   0.836  0.0254 -0.7187  0.2770
 7699SOL    HW230568   5.840   0.589   0.838 -0.4465 -0.1736  1.4357
 7699SOL    HW330569   5.885   0.715   0.767  0.4976 -1.7436 -0.8708
 7699SOL    MW430570   5.898   0.652   0.827  0.0254 -0.7820  0.2785
 7700SOL     OW30571   5.289   4.078   5.315 -0.5774  0.1119 -0.2332
 7700SOL    HW230572   5.296   3.987   5.285  0.2027  0.3102 -0.6963
 7700SOL    HW330573   5.231   4.074   5.391 -0.3794 -0.8029 -0.1182
 7700SOL    MW430574   5.282   4.066   5.321 -0.4483  0.0173 -0.2791
 7701SOL     OW30575   3.754   2.812   6.394  0.2637 -0.4305 -0.3329
 7701SOL    HW230576   3.692   2.874   6.355 -1.8328 -1.1054  1.6228
 7701SOL    HW330577   3.698   2.739   6.423  2.4166 -2.4755 -1.0340
 7701SOL    MW430578   3.738   2.810   6.393  0.2711 -0.7894 -0.1673
 7702SOL     OW30579   5.342   0.839   3.512 -0.3291 -0.0246  0.1652
 7702SOL    HW230580   5.262   0.876   3.550 -0.0537  0.1570  0.5613
 7702SOL    HW330581   5.413   0.889   3.550 -0.0889  0.7637 -1.2562
 7702SOL    MW430582   5.341   0.850   3.522 -0.2611  0.1034  0.0300
 7703SOL     OW30583   5.116   4.155   5.558  0.5734 -0.2233 -0.2666
 7703SOL    HW230584   5.038   4.203   5.530 -0.9881 -1.8221  1.0315
 7703SOL    HW330585   5.151   4.207   5.630  1.4702  1.1416 -1.6533
 7703SOL    MW430586   5.110   4.168   5.564  0.4857 -0.2541 -0.2783
 7704SOL     OW30587   5.287   1.640   6.264  0.2234  0.4070 -0.0275
 7704SOL    HW230588   5.256   1.730   6.273  1.7759  0.8383  1.7416
 7704SOL    HW330589   5.256   1.596   6.343 -0.8918 -0.7550 -1.0878
 7704SOL    MW430590   5.279   1.646   6.275  0.2811  0.3106  0.0660
 7705SOL     OW30591   4.535   2.490   4.962 -0.2255  0.5275  0.5744
 7705SOL    HW230592   4.477   2.510   4.888  1.7951  2.8959 -0.5083
 7705SOL    HW330593   4.503   2.546   5.032 -1.5684 -1.0490  1.3023
 7705SOL    MW430594   4.523   2.500   4.961 -0.1361  0.6320  0.5276
 7706SOL     OW30595   3.121   5.925   3.628  0.4175  0.2518 -0.0678
 7706SOL    HW230596   3.061   6.000   3.631 -2.2574 -1.7499  0.5530
 7706SOL    HW330597   3.094   5.870   3.702  1.6860 -1.7374 -0.9997
 7706SOL    MW430598   3.109   5.927   3.639  0.2320 -0.2748 -0.1088
 7707SOL     OW30599   5.063   4.923   3.421  0.1944  0.2923 -0.1455
 7707SOL    HW230600   4.986   4.947   3.472 -0.0493  0.8285 -0.7533
 7707SOL    HW330601   5.126   4.993   3.438 -0.1177  0.8157 -1.0553
 7707SOL    MW430602   5.061   4.936   3.430  0.1211  0.4321 -0.3457
 7708SOL     OW30603   0.819   0.992   4.595 -0.5146 -0.1158  0.0675
 7708SOL    HW230604   0.900   0.943   4.578  0.7159  1.1552  1.9166
 7708SOL    HW330605   0.801   0.977   4.688 -1.3311  1.1600  0.1382
 7708SOL    MW430606   0.828   0.984   4.605 -0.4600  0.2202  0.3208
 7709SOL     OW30607   1.448   4.673   2.326 -0.2997 -0.0464  0.2769
 7709SOL    HW230608   1.394   4.737   2.372 -0.0746  0.5978 -0.3460
 7709SOL    HW330609   1.496   4.628   2.396  0.0102  0.8904  0.6808
 7709SOL    MW430610   1.447   4.675   2.342 -0.2291  0.1622  0.2480
 7710SOL     OW30611   6.043   4.921   0.558  0.5706 -0.0583 -0.9190
 7710SOL    HW230612   6.089   5.004   0.561  0.5961 -0.0857 -0.5344
 7710SOL    HW330613   6.057   4.889   0.469  1.9808 -0.4462 -0.5880
 7710SOL    MW430614   6.051   4.927   0.547  0.7600 -0.1131 -0.8246
 7711SOL     OW30615   5.120   0.216   1.283  0.0738 -0.3730 -0.1803
 7711SOL    HW230616   5.150   0.238   1.195  0.9991 -1.9268 -0.2971
 7711SOL    HW330617   5.062   0.140   1.269 -0.6768  0.0714  0.4522
 7711SOL    MW430618   5.116   0.209   1.269  0.0968 -0.5194 -0.1123
 7712SOL     OW30619   0.505   2.826   2.651  0.0701  0.3918 -0.6031
 7712SOL    HW230620   0.417   2.859   2.666 -0.2743 -0.5970 -0.3693
 7712SOL    HW330621   0.498   2.776   2.569  0.3976  0.2845 -0.5668
 7712SOL    MW430622   0.492   2.824   2.642  0.0679  0.2472 -0.5675
 7713SOL     OW30623   3.162   3.487   3.718  0.2130  0.4308  0.2225
 7713SOL    HW230624   3.111   3.566   3.704 -0.2317  0.0811 -0.1458
 7713SOL    HW330625   3.100   3.415   3.708  0.9369 -0.0430 -1.1178
 7713SOL    MW430626   3.147   3.488   3.715  0.2499  0.3221 -0.0029
 7714SOL     OW30627   2.018   0.432   2.771 -0.7289 -0.8791 -0.6914
 7714SOL    HW230628   2.081   0.503   2.758 -0.7215 -0.4839  1.1712
 7714SOL    HW330629   2.049   0.361   2.716  0.7367 -0.3093 -0.6318
 7714SOL    MW430630   2.030   0.432   2.762 -0.5346 -0.7518 -0.4378
 7715SOL     OW30631   0.481   4.017   1.400  0.2659  0.0949 -0.0738
 7715SOL    HW230632   0.444   4.056   1.480  0.2901 -1.5310  0.7680
 7715SOL    HW330633   0.414   4.030   1.334  0.6560  2.3825 -0.1014
 7715SOL    MW430634   0.468   4.024   1.402  0.3206  0.1822  0.0336
 7716SOL     OW30635   4.343   4.290   1.528  0.6288 -0.0508  0.3062
 7716SOL    HW230636   4.271   4.353   1.534  0.0684 -0.5925 -0.4411
 7716SOL    HW330637   4.367   4.272   1.619  2.9482  3.5642  0.6061
 7716SOL    MW430638   4.336   4.296   1.541  0.8608  0.3547  0.2471
 7717SOL     OW30639   4.381   4.029   4.713  0.0082  0.6359  1.0273
 7717SOL    HW230640   4.340   4.058   4.632 -0.0535  0.4561  0.9953
 7717SOL    HW330641   4.372   3.934   4.712 -0.2843  0.6574  1.4014
 7717SOL    MW430642   4.375   4.020   4.702 -0.0385  0.6150  1.0724
 7718SOL     OW30643   1.429   3.113   6.162 -0.1520  0.1723  0.3469
 7718SOL    HW230644   1.466   3.200   6.175  2.5184 -0.8008  0.0240
 7718SOL    HW330645   1.453   3.065   6.241 -0.8094 -0.5101  0.1442
 7718SOL    MW430646   1.437   3.118   6.174  0.1136 -0.0461  0.2776
 7719SOL     OW30647   3.588   0.723   6.128 -0.0756  0.1422 -0.4273
 7719SOL    HW230648   3.520   0.786   6.106  0.2398  0.5599 -0.2257
 7719SOL    HW330649   3.570   0.648   6.072 -1.3839 -0.2195  0.4420
 7719SOL    MW430650   3.577   0.722   6.118 -0.2066  0.1496 -0.2860
 7720SOL     OW30651   4.374   0.907   5.738  0.0924 -0.2066 -0.1321
 7720SOL    HW230652   4.321   0.890   5.816  0.1489  0.6608  0.1073
 7720SOL    HW330653   4.423   0.987   5.760  1.5918 -1.0386 -0.2988
 7720SOL    MW430654   4.373   0.915   5.752  0.2977 -0.2019 -0.1225
 7721SOL     OW30655   2.883   5.990   4.010  0.4208  0.1867  0.5573
 7721SOL    HW230656   2.894   5.899   4.039  1.0482 -0.6852 -2.1894
 7721SOL    HW330657   2.951   6.038   4.056  0.0658 -0.6847  2.0698
 7721SOL    MW430658   2.893   5.984   4.020  0.4567 -0.0433  0.3945
 7722SOL     OW30659   1.794   2.508   1.248 -0.0675 -0.2035 -0.3174
 7722SOL    HW230660   1.757   2.490   1.334  0.6037 -1.3947 -0.2519
 7722SOL    HW330661   1.871   2.451   1.243  1.1570  1.4246 -0.8622
 7722SOL    MW430662   1.799   2.498   1.259  0.1826 -0.1458 -0.3806
 7723SOL     OW30663   3.869   3.523   4.657  0.2085 -0.2530  0.1365
 7723SOL    HW230664   3.952   3.569   4.663 -0.4839  1.0284  0.2470
 7723SOL    HW330665   3.807   3.578   4.705 -1.1385 -0.0851 -1.6697
 7723SOL    MW430666   3.871   3.536   4.664 -0.0606 -0.0618 -0.0872
 7724SOL     OW30667   5.721   2.999   3.820 -0.6448 -0.3937  0.2787
 7724SOL    HW230668   5.798   2.982   3.874 -2.3699 -1.9513  2.4360
 7724SOL    HW330669   5.752   2.991   3.730  1.8764  0.0020  1.0538
 7724SOL    MW430670   5.735   2.996   3.815 -0.5397 -0.5470  0.6656
 7725SOL     OW30671   4.425   5.958   6.000  0.1530 -0.2635 -1.1023
 7725SOL    HW230672   4.349   5.943   6.056  1.1154  0.7620  0.5550
 7725SOL    HW330673   4.400   6.034   5.946 -0.3609 -0.5587 -1.2863
 7725SOL    MW430674   4.411   5.966   6.000  0.2122 -0.1671 -0.9079
 7726SOL     OW30675   1.501   4.793   5.616 -0.2902  0.2128  0.1110
 7726SOL    HW230676   1.518   4.759   5.704 -1.1855  0.7802  0.5192
 7726SOL    HW330677   1.518   4.887   5.624 -0.1321  0.2297 -0.3949
 7726SOL    MW430678   1.506   4.801   5.629 -0.3875  0.2899  0.0981
 7727SOL     OW30679   6.258   3.710   0.832 -0.0074 -0.0970 -0.3247
 7727SOL    HW230680   6.205   3.790   0.831  1.4029  0.9291  1.4752
 7727SOL    HW330681   6.287   3.701   0.923  1.1231 -1.8286 -0.8041
 7727SOL    MW430682   6.255   3.719   0.844  0.3279 -0.1901 -0.1505
 7728SOL     OW30683   0.021   0.238   1.270  0.3464  0.1681 -0.2886
 7728SOL    HW230684  -0.041   0.310   1.281  1.4372  1.1913 -0.6895
 7728SOL    HW330685   0.103   0.270   1.307  1.3731 -0.1030 -2.1835
 7728SOL    MW430686   0.023   0.251   1.276  0.6258  0.2673 -0.5915
 7729SOL     OW30687   2.789   6.342   2.520 -0.3691  0.0955  0.0478
 7729SOL    HW230688   2.882   6.321   2.508 -0.3187 -0.9876  1.8244
 7729SOL    HW330689   2.746   6.313   2.440  0.9861  2.0472 -1.4713
 7729SOL    MW430690   2.796   6.335   2.508 -0.1836  0.2101  0.0818
 7730SOL     OW30691   3.712   1.459   3.508 -0.2037  0.6723 -0.0453
 7730SOL    HW230692   3.778   1.434   3.444  1.4405  2.1424  0.9809
 7730SOL    HW330693   3.632   1.470   3.457  0.0266 -2.1109 -1.1811
 7730SOL    MW430694   3.710   1.457   3.493  0.0436  0.4991 -0.0598
 7731SOL     OW30695   3.830   5.962   3.466 -0.3968  0.4051  0.4284
 7731SOL    HW230696   3.873   5.989   3.384  2.1772  1.3323  1.9556
 7731SOL    HW330697   3.773   6.035   3.488  0.5730  1.1449  0.5509
 7731SOL    MW430698   3.828   5.975   3.458  0.0708  0.6250  0.6460
 7732SOL     OW30699   2.661   6.413   4.262  0.5081 -0.3474  0.4988
 7732SOL    HW230700   2.634   6.487   4.208  0.9731 -1.2590 -1.0529
 7732SOL    HW330701   2.741   6.443   4.305 -0.2579  0.6413  1.2749
 7732SOL    MW430702   2.668   6.426   4.260  0.4684 -0.3373  0.3964
 7733SOL     OW30703   1.121   4.267   1.515 -0.1187  0.2305  0.0716
 7733SOL    HW230704   1.032   4.297   1.534 -0.7600 -1.2362 -0.4070
 7733SOL    HW330705   1.125   4.179   1.552  1.3951  0.5343  0.7060
 7733SOL    MW430706   1.110   4.259   1.522 -0.0036  0.0771  0.0921
 7734SOL     OW30707   1.648   1.203   1.975 -0.2830 -0.4210 -0.4202
 7734SOL    HW230708   1.737   1.211   1.940 -0.2946 -1.4532 -0.7292
 7734SOL    HW330709   1.659   1.210   2.069 -0.1433  1.5352 -0.5350
 7734SOL    MW430710   1.662   1.205   1.982 -0.2661 -0.2991 -0.4761
 7735SOL     OW30711   5.729   4.867   2.405 -0.3500 -0.6002 -0.1107
 7735SOL    HW230712   5.636   4.886   2.393 -0.4211 -0.3723  0.7662
 7735SOL    HW330713   5.737   4.773   2.390 -1.0318 -0.9476  1.5665
 7735SOL    MW430714   5.718   4.857   2.401 -0.4493 -0.6159  0.2263
 7736SOL     OW30715   6.072   1.694   3.007  0.1847  0.6731  0.1236
 7736SOL    HW230716   6.073   1.753   3.082  1.1197  0.1234  0.5541
 7736SOL    HW330717   5.992   1.642   3.018  0.3478  0.5570  0.7718
 7736SOL    MW430718   6.062   1.695   3.018  0.3296  0.5852  0.2659
 7737SOL     OW30719   3.823   1.596   1.381  0.7082 -0.4213  0.1878
 7737SOL    HW230720   3.903   1.555   1.413  2.2537  1.6057 -0.8496
 7737SOL    HW330721   3.774   1.619   1.460  0.9639 -1.9549  0.8296
 7737SOL    MW430722   3.827   1.594   1.396  0.9459 -0.3562  0.1356
 7738SOL     OW30723   4.585   1.989   1.898  0.6040 -0.4120 -0.0714
 7738SOL    HW230724   4.603   1.957   1.986  3.3720  0.5349 -0.2085
 7738SOL    HW330725   4.538   2.071   1.912  3.2337  1.0674  0.7227
 7738SOL    MW430726   4.581   1.996   1.911  1.3161 -0.0919  0.0153
 7739SOL     OW30727   1.523   3.310   1.476  0.0260 -0.3015 -0.6463
 7739SOL    HW230728   1.482   3.391   1.447 -1.1512 -0.1216  1.3119
 7739SOL    HW330729   1.594   3.338   1.533 -0.7479 -0.5884  0.5071
 7739SOL    MW430730   1.527   3.324   1.479 -0.2314 -0.3156 -0.2357
 7740SOL     OW30731   4.245   1.416   0.243 -0.1318  0.2710  0.7010
 7740SOL    HW230732   4.247   1.424   0.148 -0.3638 -1.1884  0.5391
 7740SOL    HW330733   4.292   1.334   0.261 -0.4491  0.3124  1.8054
 7740SOL    MW430734   4.251   1.406   0.233 -0.2043  0.0839  0.8254
 7741SOL     OW30735   5.972   3.749   2.056  0.0371  0.2037  0.4030
 7741SOL    HW230736   5.994   3.744   2.149  1.8126  2.1229  0.1697
 7741SOL    HW330737   5.936   3.663   2.035  2.3049 -1.3405  2.2347
 7741SOL    MW430738   5.970   3.737   2.065  0.5706  0.2531  0.6139
 7742SOL     OW30739   3.522   2.825   1.590  0.3993  0.2278 -0.1616
 7742SOL    HW230740   3.575   2.873   1.527  1.2955 -0.8968 -0.2946
 7742SOL    HW330741   3.537   2.733   1.568 -1.0120 -0.1366  0.2935
 7742SOL    MW430742   3.531   2.819   1.578  0.3313  0.0313 -0.1191
 7743SOL     OW30743   1.367   6.116   3.961  0.1171 -0.9306  0.4073
 7743SOL    HW230744   1.439   6.081   4.013  0.2711 -3.0091 -1.0738
 7743SOL    HW330745   1.408   6.150   3.882 -0.4671 -1.6286 -0.2078
 7743SOL    MW430746   1.382   6.116   3.957  0.0604 -1.2969  0.1307
 7744SOL     OW30747   1.519   2.438   0.317  0.4428 -0.4405  0.7381
 7744SOL    HW230748   1.505   2.344   0.327  1.9171 -0.8863 -0.9755
 7744SOL    HW330749   1.575   2.446   0.240  0.0027  1.8817  0.5961
 7744SOL    MW430750   1.524   2.427   0.309  0.5793 -0.1929  0.4933
 7745SOL     OW30751   3.874   5.145   6.412 -0.0620  0.8970  0.0447
 7745SOL    HW230752   3.896   5.116   6.501  0.0230  0.3521 -0.1532
 7745SOL    HW330753   3.843   5.066   6.368 -0.0394  1.1551 -0.4340
 7745SOL    MW430754   3.873   5.131   6.418 -0.0478  0.8592 -0.0446
 7746SOL     OW30755   2.296   3.583   2.672  0.0751  0.0328  0.1018
 7746SOL    HW230756   2.254   3.638   2.606  1.3165 -0.6495 -1.3108
 7746SOL    HW330757   2.267   3.494   2.652  0.5350 -0.1943  0.4232
 7746SOL    MW430758   2.287   3.579   2.661  0.2996 -0.0872 -0.0422
 7747SOL     OW30759   1.574   5.009   2.606  0.0025 -0.3843  0.5944
 7747SOL    HW230760   1.660   4.972   2.622  1.1544  1.0515 -1.7530
 7747SOL    HW330761   1.589   5.104   2.601 -1.9052 -0.0014  1.0980
 7747SOL    MW430762   1.587   5.017   2.608 -0.0972 -0.1444  0.3511
 7748SOL     OW30763   1.040   2.345   4.196 -0.1315  0.3278  0.2453
 7748SOL    HW230764   1.100   2.369   4.126 -0.4987 -0.9322 -0.5446
 7748SOL    HW330765   0.957   2.328   4.152  0.7839 -5.7568 -0.0806
 7748SOL    MW430766   1.037   2.346   4.181 -0.0592 -0.6412  0.0981
 7749SOL     OW30767   1.863   5.743   1.422 -0.0620  0.1519  0.0808
 7749SOL    HW230768   1.901   5.695   1.349  0.7414  2.5738 -1.1946
 7749SOL    HW330769   1.924   5.815   1.439 -1.1582  0.7236  1.9276
 7749SOL    MW430770   1.876   5.746   1.415 -0.1006  0.5469  0.1562
 7750SOL     OW30771   4.678   5.245   1.656 -0.3213 -0.4058  0.1322
 7750SOL    HW230772   4.644   5.308   1.720  0.0821 -1.4978  1.4726
 7750SOL    HW330773   4.733   5.186   1.707  0.8519 -0.7189 -1.4166
 7750SOL    MW430774   4.681   5.245   1.671 -0.1133 -0.5912  0.1047
 7751SOL     OW30775   3.471   2.937   3.715  0.2787  0.2924  0.5811
 7751SOL    HW230776   3.436   2.992   3.785 -1.6068 -0.2987  0.1663
 7751SOL    HW330777   3.420   2.963   3.637 -1.0783 -2.3368  0.4729
 7751SOL    MW430778   3.459   2.948   3.714 -0.1491 -0.1325  0.5121
 7752SOL     OW30779   5.627   2.156   1.149  0.2677 -0.0311 -0.1581
 7752SOL    HW230780   5.706   2.166   1.096 -0.5076  1.1773 -1.1581
 7752SOL    HW330781   5.592   2.245   1.155  0.2179 -0.1432  2.2658
 7752SOL    MW430782   5.633   2.169   1.143  0.1589  0.1136  0.0298
 7753SOL     OW30783   1.218   1.964   6.020 -0.0775 -0.0051  0.4504
 7753SOL    HW230784   1.235   1.919   5.937  0.9381  2.9710 -1.0960
 7753SOL    HW330785   1.287   1.934   6.079  0.2856 -0.7769 -0.3571
 7753SOL    MW430786   1.229   1.954   6.017  0.1044  0.2857  0.1398
 7754SOL     OW30787   2.983   1.921   4.231  0.0512  0.2098 -0.1590
 7754SOL    HW230788   3.029   2.001   4.205  1.2708 -0.2395  0.5476
 7754SOL    HW330789   2.910   1.915   4.169 -0.5737  2.2956  0.2863
 7754SOL    MW430790   2.979   1.931   4.219  0.1296  0.4257 -0.0070
 7755SOL     OW30791   1.541   0.238   6.224 -0.2895 -0.4905  0.1958
 7755SOL    HW230792   1.530   0.310   6.162  0.7394 -2.3650 -2.3145
 7755SOL    HW330793   1.469   0.179   6.204  0.4353 -1.4340  0.3270
 7755SOL    MW430794   1.530   0.240   6.214 -0.0582 -0.8623 -0.1181
 7756SOL     OW30795   0.926   0.130   0.341 -0.1599 -0.0878 -0.4411
 7756SOL    HW230796   0.928   0.035   0.354 -0.8259 -0.3082 -1.7740
 7756SOL    HW330797   1.017   0.157   0.347  0.6113 -1.3971 -3.7383
 7756SOL    MW430798   0.938   0.121   0.343 -0.1460 -0.2897 -1.0520
 7757SOL     OW30799   2.699   3.924   6.220  0.3910 -0.0527  0.1097
 7757SOL    HW230800   2.653   3.910   6.136  1.4504 -1.4995 -0.2708
 7757SOL    HW330801   2.629   3.923   6.285 -0.1499 -5.3673 -0.0632
 7757SOL    MW430802   2.683   3.922   6.217  0.4594 -0.9448  0.0367
 7758SOL     OW30803   0.169   6.438   2.777  0.2615 -0.5232  0.2799
 7758SOL    HW230804   0.186   6.512   2.718 -0.3570 -1.0137 -0.5435
 7758SOL    HW330805   0.176   6.475   2.865 -1.0717  0.7671 -0.1158
 7758SOL    MW430806   0.173   6.452   2.781  0.0040 -0.4177  0.1191
 7759SOL     OW30807   5.592   1.246   1.833  0.0604 -0.1185 -0.4267
 7759SOL    HW230808   5.609   1.334   1.800  0.1132  0.2233  0.4997
 7759SOL    HW330809   5.660   1.192   1.792  0.8138  0.4969 -0.0336
 7759SOL    MW430810   5.604   1.250   1.823  0.1668  0.0078 -0.2526
 7760SOL     OW30811   1.765   5.106   5.475  0.2552  0.4478  0.4373
 7760SOL    HW230812   1.701   5.140   5.537 -1.0956  0.3218 -0.8402
 7760SOL    HW330813   1.743   5.014   5.466 -0.5388  0.7740 -1.3190
 7760SOL    MW430814   1.754   5.098   5.482 -0.0278  0.4742  0.0370
 7761SOL     OW30815   3.896   5.485   2.026  0.1138  0.2943 -0.0708
 7761SOL    HW230816   3.876   5.515   1.938  0.3894  0.8745  0.0625
 7761SOL    HW330817   3.856   5.398   2.031 -0.0125  0.3098 -0.7205
 7761SOL    MW430818   3.888   5.477   2.015  0.1335  0.3729 -0.1389
 7762SOL     OW30819   3.280   3.011   0.383  0.0702 -0.1610  0.1581
 7762SOL    HW230820   3.192   2.972   0.380 -0.3722  0.5289  2.3613
 7762SOL    HW330821   3.333   2.946   0.430 -0.1749  0.8800  1.9901
 7762SOL    MW430822   3.275   2.997   0.389 -0.0205  0.0674  0.6905
 7763SOL     OW30823   3.932   1.737   0.699 -0.2391 -0.2555  0.3865
 7763SOL    HW230824   3.929   1.805   0.633 -0.9240 -1.5428 -0.9657
 7763SOL    HW330825   3.844   1.738   0.738 -0.7032 -1.2081 -0.5731
 7763SOL    MW430826   3.920   1.746   0.696 -0.3907 -0.5511  0.0815
 7764SOL     OW30827   1.174   2.842   0.546 -0.7707 -0.6153  0.0074
 7764SOL    HW230828   1.219   2.838   0.631 -0.3066  1.8675 -0.0691
 7764SOL    HW330829   1.232   2.796   0.486 -0.4249 -1.1802  0.7501
 7764SOL    MW430830   1.187   2.835   0.550 -0.6639 -0.3622  0.0953
 7765SOL     OW30831   0.449   3.293   3.737  0.4364  0.2361 -0.0689
 7765SOL    HW230832   0.359   3.314   3.763  0.9310  0.1532  1.8477
 7765SOL    HW330833   0.440   3.246   3.654 -1.5361 -2.2268  1.3998
 7765SOL    MW430834   0.436   3.290   3.729  0.2414 -0.0998  0.3777
 7766SOL     OW30835   0.949   5.858   0.560  0.2823  0.0169  1.1199
 7766SOL    HW230836   1.002   5.861   0.639  0.6074 -0.5215  0.9232
 7766SOL    HW330837   0.907   5.944   0.557  2.1531  0.9705  0.5925
 7766SOL    MW430838   0.950   5.870   0.570  0.5720  0.0717  1.0244
 7767SOL     OW30839   1.128   5.983   3.869 -0.4088  0.0916 -0.0735
 7767SOL    HW230840   1.216   6.007   3.898 -0.3557  0.2638 -0.3715
 7767SOL    HW330841   1.072   5.999   3.945  0.1552 -2.3713  0.9610
 7767SOL    MW430842   1.132   5.988   3.883 -0.3273 -0.2106  0.0237
 7768SOL     OW30843   0.389   2.315   5.777  0.0770  0.1580 -0.0716
 7768SOL    HW230844   0.450   2.262   5.828  0.3045  0.8072  0.3473
 7768SOL    HW330845   0.344   2.253   5.720 -1.2985 -0.8793  1.9834
 7768SOL    MW430846   0.391   2.300   5.777 -0.0745  0.1068  0.2548
 7769SOL     OW30847   2.955   4.720   6.109 -0.3680 -0.6838  0.4590
 7769SOL    HW230848   2.870   4.712   6.067 -0.3298  1.6075 -0.2002
 7769SOL    HW330849   2.965   4.814   6.126  1.1485 -1.1193  2.4256
 7769SOL    MW430850   2.945   4.731   6.106 -0.1629 -0.4389  0.6315
 7770SOL     OW30851   5.283   0.685   4.040  0.2684 -0.1744  0.3213
 7770SOL    HW230852   5.376   0.670   4.021 -0.1045 -1.4294 -0.6010
 7770SOL    HW330853   5.236   0.623   3.984 -1.1632  0.8467  0.3447
 7770SOL    MW430854   5.289   0.675   4.030  0.0303 -0.2053  0.2027
 7771SOL     OW30855   1.304   6.141   0.757  0.1890 -0.0663 -0.2581
 7771SOL    HW230856   1.233   6.077   0.763 -0.4664  0.7048  0.4085
 7771SOL    HW330857   1.369   6.099   0.702 -1.1342 -0.4606 -1.5892
 7771SOL    MW430858   1.303   6.127   0.751 -0.0720 -0.0165 -0.3458
 7772SOL     OW30859   5.554   1.550   0.236  0.0391  0.2726 -0.1814
 7772SOL    HW230860   5.590   1.517   0.154  1.1430  1.1977 -0.1089
 7772SOL    HW330861   5.517   1.635   0.214 -1.6303 -0.4059 -0.1260
 7772SOL    MW430862   5.554   1.557   0.222 -0.0355  0.3051 -0.1645
 7773SOL     OW30863   3.721   2.789   3.702  0.0411 -0.3532  0.1714
 7773SOL    HW230864   3.706   2.714   3.645 -0.1306  0.9638 -1.5954
 7773SOL    HW330865   3.645   2.846   3.688 -0.2454 -0.2023  2.1019
 7773SOL    MW430866   3.709   2.787   3.693 -0.0193 -0.1596  0.1930
 7774SOL     OW30867   5.066   0.148   5.556 -0.1072 -0.3901 -0.2122
 7774SOL    HW230868   5.144   0.145   5.501  0.4450 -2.4547  0.6047
 7774SOL    HW330869   5.006   0.084   5.517 -0.7392  0.0016  0.0980
 7774SOL    MW430870   5.068   0.139   5.544 -0.1177 -0.6108 -0.0635
 7775SOL     OW30871   2.603   5.614   0.558 -0.1910  0.3304  0.0703
 7775SOL    HW230872   2.513   5.644   0.542 -0.4814  0.2046  1.3928
 7775SOL    HW330873   2.658   5.677   0.512 -0.9233  0.8239 -0.1410
 7775SOL    MW430874   2.598   5.626   0.550 -0.3260  0.3789  0.2169
 7776SOL     OW30875   2.846   1.031   1.047  0.2798 -0.1631  0.0551
 7776SOL    HW230876   2.806   0.945   1.032 -0.4624  0.5017 -2.2726
 7776SOL    HW330877   2.772   1.089   1.067  0.3861  0.4540 -1.1989
 7776SOL    MW430878   2.831   1.027   1.048  0.1959  0.0060 -0.4174
 7777SOL     OW30879   0.478   5.984   3.940  0.7947 -0.4304  0.3320
 7777SOL    HW230880   0.498   5.902   3.985 -0.9055 -0.0843  1.8609
 7777SOL    HW330881   0.429   6.035   4.005 -0.7746  0.5950 -1.5595
 7777SOL    MW430882   0.475   5.980   3.955  0.3633 -0.2494  0.2842
 7778SOL     OW30883   3.491   3.774   4.243 -0.8835  0.1490  0.7632
 7778SOL    HW230884   3.528   3.692   4.209 -1.0576  0.7422 -0.9603
 7778SOL    HW330885   3.436   3.747   4.316 -0.1249 -1.1572  0.8820
 7778SOL    MW430886   3.489   3.760   4.248 -0.8064  0.0549  0.5515
 7779SOL     OW30887   6.379   5.603   6.021  0.2881 -0.0819 -0.6271
 7779SOL    HW230888   6.445   5.550   6.066  0.2638 -1.1631 -1.7980
 7779SOL    HW330889   6.301   5.548   6.018  0.0547  0.2613 -1.2991
 7779SOL    MW430890   6.377   5.589   6.026  0.2541 -0.1792 -0.8703
 7780SOL     OW30891   1.382   5.547   3.245  0.0631  0.2156 -0.6794
 7780SOL    HW230892   1.293   5.582   3.257  0.2421 -0.1010  2.1910
 7780SOL    HW330893   1.368   5.453   3.229 -0.1456  0.1892 -0.3694
 7780SOL    MW430894   1.368   5.539   3.244  0.0592  0.1704 -0.2598
 7781SOL     OW30895   3.381   3.641   2.034 -0.1779 -0.3510  0.8818
 7781SOL    HW230896   3.360   3.695   1.958  1.6165 -0.1948  0.4721
 7781SOL    HW330897   3.461   3.595   2.011  0.8746  0.3094  2.9513
 7781SOL    MW430898   3.389   3.642   2.021  0.1977 -0.2433  1.1008
 7782SOL     OW30899   5.078   6.364   2.036 -0.1157  0.0228 -0.0660
 7782SOL    HW230900   5.149   6.314   2.077  0.5887  0.8072 -0.2893
 7782SOL    HW330901   5.030   6.402   2.110  1.1968  1.4966  0.0809
 7782SOL    MW430902   5.081   6.362   2.051  0.1504  0.3207 -0.0761
 7783SOL     OW30903   4.024   3.647   5.551 -0.4722  0.2631 -0.2643
 7783SOL    HW230904   3.961   3.635   5.622  1.7060 -2.4457  1.4521
 7783SOL    HW330905   4.106   3.612   5.586  1.1416  0.3332 -3.5808
 7783SOL    MW430906   4.026   3.641   5.565  0.0281 -0.0850 -0.4754
 7784SOL     OW30907   2.483   3.367   6.040  0.2585  0.2817  0.0531
 7784SOL    HW230908   2.491   3.462   6.047  3.7764  0.0663  0.9610
 7784SOL    HW330909   2.496   3.349   5.947  4.2062  0.5914  0.3815
 7784SOL    MW430910   2.486   3.377   6.028  1.2435  0.2941  0.2162
 7785SOL     OW30911   1.875   4.941   2.521 -0.1565 -0.1453  0.2240
 7785SOL    HW230912   1.858   5.026   2.480  0.5153  0.7883  1.7967
 7785SOL    HW330913   1.966   4.945   2.550 -0.2006 -1.2917  0.5931
 7785SOL    MW430914   1.885   4.952   2.520 -0.0737 -0.1734  0.4802
 7786SOL     OW30915   3.053   6.435   0.424 -0.1208  0.5970  0.2215
 7786SOL    HW230916   3.033   6.347   0.390  0.8556  0.3753  0.1810
 7786SOL    HW330917   3.059   6.490   0.347 -0.0907  0.5574  0.1955
 7786SOL    MW430918   3.051   6.430   0.410  0.0120  0.5625  0.2127
 7787SOL     OW30919   5.117   1.470   4.922  0.0839 -0.2832 -0.1475
 7787SOL    HW230920   5.175   1.404   4.961  0.9185 -0.0798 -1.0012
 7787SOL    HW330921   5.074   1.424   4.850  0.9884  0.1933 -1.0155
 7787SOL    MW430922   5.119   1.455   4.918  0.3133 -0.1935 -0.3746
 7788SOL     OW30923   0.304   3.677   1.726 -0.5888 -0.1459 -0.3424
 7788SOL    HW230924   0.239   3.742   1.699 -1.5569 -0.8069  0.3359
 7788SOL    HW330925   0.275   3.596   1.683  0.0684 -0.3454 -0.4191
 7788SOL    MW430926   0.291   3.675   1.717 -0.6298 -0.2594 -0.2630
 7789SOL     OW30927   5.347   5.569   1.121 -0.2885 -0.1169 -0.0465
 7789SOL    HW230928   5.410   5.540   1.054  0.3906  0.2136  0.4344
 7789SOL    HW330929   5.297   5.491   1.143 -0.2967 -0.2987 -0.7109
 7789SOL    MW430930   5.349   5.555   1.115 -0.1999 -0.0973 -0.0707
 7790SOL     OW30931   5.143   5.084   0.812 -0.2752 -0.0490 -1.2489
 7790SOL    HW230932   5.228   5.109   0.848 -0.2471 -0.8002 -0.7595
 7790SOL    HW330933   5.088   5.162   0.823  0.1622  0.2183 -0.9391
 7790SOL    MW430934   5.147   5.098   0.818 -0.2137 -0.1129 -1.1435
 7791SOL     OW30935   3.770   2.816   4.693 -0.4471  0.0430 -0.0524
 7791SOL    HW230936   3.849   2.764   4.681 -0.0674  0.2864  1.2190
 7791SOL    HW330937   3.762   2.868   4.613  0.9728  0.3885  0.0023
 7791SOL    MW430938   3.779   2.816   4.681 -0.2096  0.1207  0.1226
 7792SOL     OW30939   5.043   4.696   1.955 -0.4549  0.3093 -0.4682
 7792SOL    HW230940   5.064   4.647   1.875 -1.0677  0.0670 -0.4877
 7792SOL    HW330941   4.951   4.720   1.944 -1.1230 -1.3809  1.0098
 7792SOL    MW430942   5.033   4.692   1.943 -0.6239  0.0544 -0.2757
 7793SOL     OW30943   2.363   5.990   6.035  0.1010 -0.0962  0.2926
 7793SOL    HW230944   2.289   6.042   6.004  0.4617  1.1094  1.3455
 7793SOL    HW330945   2.340   5.900   6.015 -0.5913  0.4526 -1.5134
 7793SOL    MW430946   2.350   5.985   6.029  0.0573  0.1353  0.1932
 7794SOL     OW30947   4.008   3.943   0.503  0.1832  0.1307  0.2106
 7794SOL    HW230948   3.943   3.877   0.523  0.2171 -0.5141 -1.5771
 7794SOL    HW330949   3.959   4.025   0.500 -0.2025 -0.0849  0.6681
 7794SOL    MW430950   3.993   3.945   0.505  0.1368  0.0171  0.0351
 7795SOL     OW30951   2.893   0.622   5.368 -0.4595  0.1061  0.2149
 7795SOL    HW230952   2.975   0.615   5.318 -0.8764  1.3235 -0.6817
 7795SOL    HW330953   2.908   0.692   5.431 -0.5446 -0.2230  0.6087
 7795SOL    MW430954   2.906   0.630   5.370 -0.5258  0.2233  0.1485
 7796SOL     OW30955   4.264   4.029   0.361 -0.0378 -0.3194  0.0665
 7796SOL    HW230956   4.316   4.007   0.284  0.1569 -0.0661  0.1250
 7796SOL    HW330957   4.218   3.948   0.383 -0.4468 -0.2769 -0.5867
 7796SOL    MW430958   4.265   4.016   0.354 -0.0660 -0.2804 -0.0120
 7797SOL     OW30959   3.736   6.298   0.516  0.3180 -0.4504 -0.2264
 7797SOL    HW230960   3.736   6.346   0.433  0.9837  0.0269  0.0428
 7797SOL    HW330961   3.683   6.220   0.499 -2.1528  1.1156 -0.2439
 7797SOL    MW430962   3.729   6.294   0.503  0.0798 -0.1808 -0.1932
 7798SOL     OW30963   4.816   0.350   4.127 -0.6732 -0.1625 -0.0946
 7798SOL    HW230964   4.770   0.424   4.085  1.3427  1.0736 -0.2670
 7798SOL    HW330965   4.888   0.391   4.175  1.7758 -2.1166 -1.8457
 7798SOL    MW430966   4.819   0.365   4.128 -0.0841 -0.2572 -0.3484
 7799SOL     OW30967   4.980   2.089   1.382 -0.5095  0.3493 -0.2908
 7799SOL    HW230968   5.052   2.046   1.428 -0.2503  1.5888  0.5127
 7799SOL    HW330969   4.942   2.021   1.327 -0.5949 -1.0895  1.4909
 7799SOL    MW430970   4.984   2.075   1.381 -0.4866  0.3230  0.0503
 7800SOL     OW30971   1.470   1.386   5.261  0.0983 -0.1448 -0.3869
 7800SOL    HW230972   1.537   1.406   5.325 -1.2153  0.2604  0.9158
 7800SOL    HW330973   1.434   1.471   5.236 -0.1072 -0.3683 -0.8686
 7800SOL    MW430974   1.474   1.400   5.266 -0.1021 -0.1208 -0.2786
 7801SOL     OW30975   3.493   6.259   2.476 -0.0823 -0.0169 -0.4827
 7801SOL    HW230976   3.548   6.182   2.466  2.5164  1.6427  0.0842
 7801SOL    HW330977   3.424   6.232   2.537  0.2593 -2.0890 -0.9640
 7801SOL    MW430978   3.491   6.246   2.483  0.3056 -0.0713 -0.4714
 7802SOL     OW30979   5.160   2.522   6.396 -0.0459  0.0535 -0.3460
 7802SOL    HW230980   5.166   2.431   6.425  0.5902  0.1679 -0.1061
 7802SOL    HW330981   5.129   2.516   6.305  1.0533 -0.4544 -0.6953
 7802SOL    MW430982   5.156   2.509   6.388  0.1831  0.0016 -0.3604
 7803SOL     OW30983   0.695   1.426   5.734  0.1296 -0.3654  0.3479
 7803SOL    HW230984   0.634   1.376   5.788  0.9583 -2.0318 -0.1872
 7803SOL    HW330985   0.779   1.381   5.745  0.4132 -0.5082 -1.9234
 7803SOL    MW430986   0.698   1.413   5.742  0.2764 -0.6041 -0.0224
 7804SOL     OW30987   1.548   4.586   6.408 -0.0811 -0.0705 -0.1050
 7804SOL    HW230988   1.497   4.623   6.480  0.1406 -2.7833  1.6251
 7804SOL    HW330989   1.484   4.536   6.357 -0.1538  1.4826 -1.6316
 7804SOL    MW430990   1.532   4.584   6.411 -0.0614 -0.2235 -0.0782
 7805SOL     OW30991   2.806   6.035   5.638 -0.4545  0.2221  0.1844
 7805SOL    HW230992   2.889   6.079   5.627 -0.5880  0.1002 -1.5431
 7805SOL    HW330993   2.808   6.001   5.728  1.2378  0.4329  0.2454
 7805SOL    MW430994   2.817   6.036   5.649 -0.2488  0.2339 -0.0355
 7806SOL     OW30995   4.575   2.492   2.960 -0.1522  0.5424  0.2841
 7806SOL    HW230996   4.657   2.517   2.918 -1.0143  0.9109 -1.2533
 7806SOL    HW330997   4.601   2.434   3.032  1.4883  1.3080  0.3415
 7806SOL    MW430998   4.589   2.488   2.964 -0.0495  0.6921  0.0888
 7807SOL     OW30999   3.298   1.223   0.298 -0.4448  0.6096  0.3320
 7807SOL    HW231000   3.370   1.182   0.251 -0.3071  1.2179 -0.0001
 7807SOL    HW331001   3.267   1.156   0.358  0.0717  0.1766  0.1200
 7807SOL    MW431002   3.303   1.209   0.300 -0.3585  0.6327  0.2602
 7808SOL     OW31003   0.876   0.080   1.013 -0.3014  0.2471 -0.0640
 7808SOL    HW231004   0.835   0.163   0.986 -0.4521  0.1042 -0.2843
 7808SOL    HW331005   0.886   0.088   1.108 -1.0198  0.2080  0.0208
 7808SOL    MW431006   0.872   0.092   1.022 -0.4160  0.2231 -0.0819
 7809SOL     OW31007   4.529   3.003   6.224  0.0274  0.3370  0.2205
 7809SOL    HW231008   4.556   2.991   6.133 -0.8550  0.4249 -0.0648
 7809SOL    HW331009   4.495   2.917   6.251 -0.9567  0.6490  0.0242
 7809SOL    MW431010   4.528   2.990   6.216 -0.2189  0.3897  0.1570
 7810SOL     OW31011   2.194   3.466   4.246  0.6185 -0.3017  0.7450
 7810SOL    HW231012   2.155   3.478   4.159  0.2231 -1.8928  0.6720
 7810SOL    HW331013   2.119   3.453   4.304  0.9161 -0.0581  1.1864
 7810SOL    MW431014   2.179   3.466   4.242  0.6056 -0.4795  0.7936
 7811SOL     OW31015   0.623   3.343   4.301  0.0996 -0.0425 -0.8223
 7811SOL    HW231016   0.658   3.432   4.301  1.1914 -0.4454  0.5777
 7811SOL    HW331017   0.595   3.328   4.210 -1.1572  2.1088 -0.8593
 7811SOL    MW431018   0.624   3.352   4.289  0.0779  0.1882 -0.6424
 7812SOL     OW31019   5.646   4.138   5.139  0.5552 -0.2486 -0.5298
 7812SOL    HW231020   5.740   4.127   5.123  0.7829  1.4592 -0.6192
 7812SOL    HW331021   5.635   4.118   5.232  1.2430  0.6947 -0.2251
 7812SOL    MW431022   5.657   4.134   5.149  0.6760  0.1012 -0.5014
 7813SOL     OW31023   2.873   0.529   5.849 -0.0679  0.0169  0.1005
 7813SOL    HW231024   2.863   0.495   5.760 -0.3906  0.0913  0.1050
 7813SOL    HW331025   2.965   0.552   5.856  0.5910 -2.4430  0.6721
 7813SOL    MW431026   2.884   0.527   5.838 -0.0235 -0.2979  0.1765
 7814SOL     OW31027   3.531   0.475   2.331 -0.2405  0.1828 -0.2907
 7814SOL    HW231028   3.444   0.447   2.362 -0.5596 -0.6350 -1.8293
 7814SOL    HW331029   3.524   0.570   2.323 -1.1717  0.0757 -0.8866
 7814SOL    MW431030   3.519   0.484   2.334 -0.4054  0.0608 -0.5724
 7815SOL     OW31031   3.294   2.930   6.222 -0.3761 -0.5984  0.1542
 7815SOL    HW231032   3.386   2.956   6.222 -0.0613 -1.6827  0.6589
 7815SOL    HW331033   3.268   2.930   6.314 -0.6483 -1.0814  0.0846
 7815SOL    MW431034   3.303   2.934   6.234 -0.3705 -0.8052  0.2116
 7816SOL     OW31035   4.933   4.767   6.110 -0.9007 -0.0108  0.4807
 7816SOL    HW231036   4.938   4.794   6.018  0.1472  0.9229  0.7867
 7816SOL    HW331037   5.021   4.780   6.143 -1.2005 -0.6135  1.5632
 7816SOL    MW431038   4.945   4.772   6.102 -0.8020  0.0329  0.6639
 7817SOL     OW31039   3.535   2.825   5.472 -0.2206 -0.0827 -0.2422
 7817SOL    HW231040   3.512   2.778   5.552  1.1140 -0.3514  0.0171
 7817SOL    HW331041   3.628   2.805   5.458 -0.4074 -0.0245 -1.8472
 7817SOL    MW431042   3.544   2.816   5.480 -0.0691 -0.1105 -0.4198
 7818SOL     OW31043   6.305   5.782   2.115 -0.4651  0.2763 -0.3813
 7818SOL    HW231044   6.307   5.731   2.034 -0.5680 -0.9705  0.3761
 7818SOL    HW331045   6.219   5.766   2.152 -0.1626  0.2624  0.3352
 7818SOL    MW431046   6.294   5.773   2.109 -0.4388  0.1100 -0.1868
 7819SOL     OW31047   5.629   0.698   4.587  0.0811  0.0965  0.1504
 7819SOL    HW231048   5.706   0.642   4.592  0.1081  0.2201  1.5210
 7819SOL    HW331049   5.663   0.787   4.595 -0.2907  0.0892  2.7398
 7819SOL    MW431050   5.644   0.702   4.589  0.0356  0.1118  0.6728
 7820SOL     OW31051   5.826   5.080   4.217 -0.1414  0.1826 -0.1004
 7820SOL    HW231052   5.902   5.104   4.270  0.8276  1.5911 -1.9810
 7820SOL    HW331053   5.752   5.089   4.277  0.6979  3.4034  0.6723
 7820SOL    MW431054   5.826   5.085   4.232  0.0972  0.7934 -0.2466
 7821SOL     OW31055   4.690   1.436   3.756 -0.0194 -0.4799  0.3535
 7821SOL    HW231056   4.692   1.347   3.790  1.0309 -0.1696  1.1636
 7821SOL    HW331057   4.671   1.491   3.832  0.1143  0.0488  0.0150
 7821SOL    MW431058   4.688   1.432   3.770  0.1369 -0.3692  0.4157
 7822SOL     OW31059   5.540   3.887   0.739  0.0490  0.1284 -0.3616
 7822SOL    HW231060   5.575   3.799   0.755 -0.9114 -0.1165  0.4459
 7822SOL    HW331061   5.590   3.944   0.797 -1.9036 -0.4476  2.0737
 7822SOL    MW431062   5.551   3.883   0.748 -0.3354  0.0201  0.0662
 7823SOL     OW31063   4.479   2.736   3.306  0.2308  0.0044  0.0706
 7823SOL    HW231064   4.395   2.752   3.262 -0.0551 -0.3551  0.4717
 7823SOL    HW331065   4.475   2.790   3.385  0.1943 -0.3446  0.3085
 7823SOL    MW431066   4.467   2.745   3.311  0.1882 -0.0891  0.1549
 7824SOL     OW31067   4.505   0.778   4.863 -0.2929 -0.1244 -0.0136
 7824SOL    HW231068   4.477   0.828   4.939  1.8735  0.1351  0.6901
 7824SOL    HW331069   4.502   0.687   4.892  1.3658  0.0233  0.7480
 7824SOL    MW431070   4.501   0.773   4.877  0.2118 -0.0707  0.1797
 7825SOL     OW31071   3.183   2.831   3.147  0.3561 -0.1064 -0.1146
 7825SOL    HW231072   3.262   2.797   3.190 -0.1557  1.6747  2.4538
 7825SOL    HW331073   3.216   2.893   3.082  1.1141  0.6997  1.0026
 7825SOL    MW431074   3.198   2.835   3.144  0.3885  0.2349  0.3717
 7826SOL     OW31075   0.095   5.742   3.186  0.5014 -0.1337 -0.3491
 7826SOL    HW231076   0.090   5.754   3.280 -0.6192 -0.4974 -0.3426
 7826SOL    HW331077   0.112   5.829   3.151  1.7451 -0.1357  0.2283
 7826SOL    MW431078   0.096   5.755   3.194  0.5177 -0.1820 -0.2721
 7827SOL     OW31079   5.782   3.310   1.831  0.1333 -0.0793 -0.5112
 7827SOL    HW231080   5.773   3.404   1.849 -0.8692 -0.1314 -0.6663
 7827SOL    HW331081   5.721   3.268   1.892 -0.3214 -0.5381 -1.2587
 7827SOL    MW431082   5.773   3.317   1.842 -0.0589 -0.1467 -0.6303
 7828SOL     OW31083   3.542   1.862   4.042 -0.2444 -0.7631  0.7016
 7828SOL    HW231084   3.527   1.855   4.136  0.6275  2.6798  1.2338
 7828SOL    HW331085   3.637   1.847   4.032  0.2141  1.7072  0.8551
 7828SOL    MW431086   3.553   1.859   4.053 -0.0689  0.0170  0.7920
 7829SOL     OW31087   3.668   1.735   6.059  0.3984 -0.4574 -0.4532
 7829SOL    HW231088   3.751   1.762   6.099  0.1233  1.1240 -0.8852
 7829SOL    HW331089   3.609   1.809   6.073 -0.5070 -0.9637 -1.4275
 7829SOL    MW431090   3.671   1.748   6.066  0.2426 -0.3155 -0.6387
 7830SOL     OW31091   4.664   4.033   5.200  0.0602 -0.5467  0.2459
 7830SOL    HW231092   4.620   3.973   5.140 -1.7746  0.0545  0.9422
 7830SOL    HW331093   4.646   4.120   5.165  0.4247 -0.2664  0.7395
 7830SOL    MW431094   4.656   4.037   5.187 -0.1338 -0.4304  0.4029
 7831SOL     OW31095   4.577   3.838   5.025  0.1483  0.0705  0.1459
 7831SOL    HW231096   4.658   3.861   4.980  0.3308 -1.7665 -0.5607
 7831SOL    HW331097   4.589   3.747   5.050 -1.4408 -0.0379  0.6139
 7831SOL    MW431098   4.589   3.829   5.022 -0.0373 -0.1862  0.1144
 7832SOL     OW31099   0.921   1.467   2.812  0.3493  0.2863  0.4442
 7832SOL    HW231100   0.944   1.495   2.724  0.9571 -1.1716  0.1100
 7832SOL    HW331101   1.002   1.471   2.861  0.3810 -0.5037  0.4762
 7832SOL    MW431102   0.934   1.471   2.807  0.4337 -0.0103  0.4043
 7833SOL     OW31103   4.926   4.408   1.573 -0.2810 -0.5421  0.1317
 7833SOL    HW231104   4.902   4.480   1.515  0.0167 -0.5407  0.0090
 7833SOL    HW331105   4.990   4.446   1.633 -1.3476 -0.2682  1.1226
 7833SOL    MW431106   4.931   4.422   1.573 -0.3825 -0.5057  0.2463
 7834SOL     OW31107   3.871   3.739   1.406 -0.0756  0.1146 -0.0239
 7834SOL    HW231108   3.963   3.729   1.432 -0.3194 -0.7317  0.5189
 7834SOL    HW331109   3.832   3.653   1.417 -1.1770  0.6794  0.6661
 7834SOL    MW431110   3.878   3.727   1.411 -0.2531  0.0775  0.1387
 7835SOL     OW31111   1.429   0.559   0.778  0.0085  0.5082  0.1595
 7835SOL    HW231112   1.513   0.605   0.770 -1.3049  3.1997  0.6959
 7835SOL    HW331113   1.443   0.497   0.850  1.7912  0.1686 -0.4152
 7835SOL    MW431114   1.442   0.557   0.787  0.0704  0.8185  0.1545
 7836SOL     OW31115   4.136   4.711   1.814  0.2088  0.3240  0.3712
 7836SOL    HW231116   4.213   4.766   1.802  0.9981 -0.9036 -0.2655
 7836SOL    HW331117   4.067   4.773   1.842  0.9552  1.6845 -0.7014
 7836SOL    MW431118   4.137   4.727   1.816  0.4114  0.3415  0.1457
 7837SOL     OW31119   5.744   2.434   3.827  0.3259  0.0172 -0.3000
 7837SOL    HW231120   5.754   2.353   3.878 -1.0291 -0.8004 -1.2548
 7837SOL    HW331121   5.652   2.433   3.800  0.5692  1.3441 -1.2433
 7837SOL    MW431122   5.733   2.423   3.830  0.1792  0.0844 -0.5505
 7838SOL     OW31123   0.726   3.640   0.832  0.1089 -0.7332  0.2220
 7838SOL    HW231124   0.633   3.654   0.852  0.2683 -1.8064  1.9647
 7838SOL    HW331125   0.773   3.698   0.891  0.5567 -1.1197  0.2551
 7838SOL    MW431126   0.720   3.649   0.842  0.1890 -0.9258  0.4563
 7839SOL     OW31127   2.622   5.820   4.213 -0.1336 -0.3603  0.1479
 7839SOL    HW231128   2.580   5.777   4.138 -0.2159  0.6760 -0.4194
 7839SOL    HW331129   2.550   5.857   4.263  0.0318  0.7984 -0.4377
 7839SOL    MW431130   2.607   5.819   4.209 -0.1226 -0.0707 -0.0042
 7840SOL     OW31131   2.637   2.635   5.634 -0.1963  0.0885  0.5037
 7840SOL    HW231132   2.639   2.541   5.615 -0.1873 -0.5175  3.0493
 7840SOL    HW331133   2.694   2.645   5.711  0.3933  2.3164 -0.1618
 7840SOL    MW431134   2.645   2.624   5.642 -0.1173  0.3025  0.7518
 7841SOL     OW31135   1.704   2.010   4.667  0.0924 -0.0776 -0.2492
 7841SOL    HW231136   1.644   1.960   4.612  0.5637 -2.1924  1.0317
 7841SOL    HW331137   1.715   2.094   4.622 -4.0063  0.5560 -0.4174
 7841SOL    MW431138   1.698   2.015   4.654 -0.3862 -0.2730 -0.1024
 7842SOL     OW31139   0.981   5.717   3.728  0.0665 -0.4359  0.6833
 7842SOL    HW231140   1.036   5.754   3.660 -0.7024  1.5111  1.0327
 7842SOL    HW331141   1.005   5.765   3.807 -2.6013  1.1410  0.6887
 7842SOL    MW431142   0.991   5.728   3.730 -0.3870  0.0290  0.7301
 7843SOL     OW31143   2.872   3.070   3.025 -0.2854 -0.1210 -0.0952
 7843SOL    HW231144   2.890   3.144   2.967  0.2332  0.2189  0.4817
 7843SOL    HW331145   2.793   3.096   3.073 -2.0143 -1.3152 -2.1300
 7843SOL    MW431146   2.864   3.083   3.024 -0.4451 -0.2337 -0.2875
 7844SOL     OW31147   2.499   1.373   1.999 -0.7044  0.2379  0.1913
 7844SOL    HW231148   2.412   1.334   1.998  0.3738 -2.3935  1.2568
 7844SOL    HW331149   2.542   1.337   1.921 -1.0150  2.9397 -1.3877
 7844SOL    MW431150   2.493   1.363   1.988 -0.6031  0.2472  0.1235
 7845SOL     OW31151   0.918   6.114   2.988  0.1205 -0.3577  0.4633
 7845SOL    HW231152   0.831   6.076   2.980 -0.6907  1.4226  0.4942
 7845SOL    HW331153   0.963   6.085   2.908  0.2923 -3.0458  1.4131
 7845SOL    MW431154   0.913   6.105   2.976  0.0362 -0.4775  0.5927
 7846SOL     OW31155   1.286   0.363   0.141 -0.2795  1.2329  0.2054
 7846SOL    HW231156   1.358   0.386   0.083  0.3295 -0.5310  0.2209
 7846SOL    HW331157   1.217   0.331   0.082  0.5276 -1.0476  0.4256
 7846SOL    MW431158   1.286   0.362   0.126 -0.0927  0.6993  0.2365
 7847SOL     OW31159   4.849   5.048   4.599  0.4444 -0.0548  0.5377
 7847SOL    HW231160   4.787   4.980   4.624  1.5552 -0.8792  1.1602
 7847SOL    HW331161   4.880   5.083   4.682 -0.0702  1.1921  0.2229
 7847SOL    MW431162   4.845   5.044   4.613  0.5230  0.0010  0.5783
 7848SOL     OW31163   1.706   2.086   0.389 -0.0061  0.1124  0.1693
 7848SOL    HW231164   1.737   2.003   0.425  1.5957  1.0534  1.0716
 7848SOL    HW331165   1.779   2.119   0.337 -0.8934  0.6167 -0.8068
 7848SOL    MW431166   1.720   2.080   0.387  0.0882  0.3031  0.1595
 7849SOL     OW31167   2.077   3.288   4.506  0.0389  0.1167  0.4766
 7849SOL    HW231168   2.105   3.322   4.591 -1.0545  1.2095  0.4233
 7849SOL    HW331169   2.097   3.194   4.511 -0.3201  0.0878  2.0785
 7849SOL    MW431170   2.083   3.280   4.518 -0.1528  0.2571  0.6809
 7850SOL     OW31171   4.545   5.357   0.982 -0.5386 -0.8326  0.4522
 7850SOL    HW231172   4.515   5.395   1.064  1.7377  0.4554  0.7796
 7850SOL    HW331173   4.628   5.402   0.964  0.8431 -3.6128 -0.6969
 7850SOL    MW431174   4.552   5.368   0.990 -0.0560 -1.0295  0.3438
 7851SOL     OW31175   4.438   1.769   4.644 -0.3389  0.4970 -0.0373
 7851SOL    HW231176   4.360   1.825   4.650  0.0881  1.0755  0.1445
 7851SOL    HW331177   4.511   1.830   4.640  0.1018 -0.0458 -0.3317
 7851SOL    MW431178   4.437   1.784   4.644 -0.2244  0.5017 -0.0522
 7852SOL     OW31179   5.843   3.318   6.227 -0.6953 -0.0408 -0.1678
 7852SOL    HW231180   5.780   3.375   6.182 -0.8025 -0.7248 -0.9197
 7852SOL    HW331181   5.788   3.257   6.277 -0.5805  1.8980  2.5315
 7852SOL    MW431182   5.827   3.318   6.227 -0.6943  0.1248  0.0891
 7853SOL     OW31183   1.227   0.325   1.099 -0.2910 -0.2449 -0.3860
 7853SOL    HW231184   1.232   0.338   1.004  1.6822 -2.6039 -0.7112
 7853SOL    HW331185   1.299   0.379   1.134 -0.6655  0.1832 -0.2600
 7853SOL    MW431186   1.237   0.334   1.091 -0.0801 -0.4997 -0.4123
 7854SOL     OW31187   1.053   3.967   6.158  0.0015  0.7942 -0.4562
 7854SOL    HW231188   1.130   3.949   6.211 -0.3993  0.7390  0.1240
 7854SOL    HW331189   1.044   4.063   6.162 -0.8069  0.6976  0.7326
 7854SOL    MW431190   1.062   3.977   6.166 -0.1580  0.7741 -0.2228
 7855SOL     OW31191   0.382   3.479   5.692  0.5227 -0.0954 -0.0184
 7855SOL    HW231192   0.316   3.462   5.625  0.6908  1.0780 -0.4968
 7855SOL    HW331193   0.376   3.573   5.709  0.7205 -0.3114  1.3724
 7855SOL    MW431194   0.372   3.489   5.686  0.5710  0.0309  0.1020
 7856SOL     OW31195   1.688   3.509   3.381 -0.0514  0.2490  0.4195
 7856SOL    HW231196   1.776   3.516   3.344 -0.4645  1.2618 -0.4270
 7856SOL    HW331197   1.685   3.578   3.447  1.0543 -2.2247  3.2988
 7856SOL    MW431198   1.700   3.519   3.385  0.0400  0.0562  0.6877
 7857SOL     OW31199   2.643   1.256   6.207  0.5140  0.4726 -0.0312
 7857SOL    HW231200   2.608   1.172   6.237  0.4893 -0.7839 -3.2088
 7857SOL    HW331201   2.615   1.318   6.274  0.9697 -2.0503  2.7432
 7857SOL    MW431202   2.634   1.253   6.220  0.5709 -0.0260 -0.0844
 7858SOL     OW31203   0.328   3.232   0.710  0.6093  0.1216  0.2755
 7858SOL    HW231204   0.328   3.136   0.713  3.2877  0.0389  0.3774
 7858SOL    HW331205   0.291   3.254   0.625 -0.6312 -0.9688  0.5139
 7858SOL    MW431206   0.323   3.222   0.699  0.7990 -0.0332  0.3204
 7859SOL     OW31207   0.478   1.144   0.664  0.3408 -0.1409 -0.1495
 7859SOL    HW231208   0.553   1.181   0.712  0.2929  0.9387 -0.8829
 7859SOL    HW331209   0.489   1.049   0.674  1.8184 -0.0148 -0.2298
 7859SOL    MW431210   0.490   1.136   0.671  0.5295  0.0182 -0.2569
 7860SOL     OW31211   6.184   2.749   3.074  0.4474  0.0133  0.5394
 7860SOL    HW231212   6.102   2.711   3.043  1.1925 -1.0127 -0.2545
 7860SOL    HW331213   6.159   2.800   3.151 -0.6739 -1.7769  1.4244
 7860SOL    MW431214   6.170   2.751   3.080  0.3977 -0.3582  0.5514
 7861SOL     OW31215   2.519   0.257   2.028  0.2507  0.0036 -0.0899
 7861SOL    HW231216   2.551   0.212   1.950 -1.1245  0.9862 -1.2562
 7861SOL    HW331217   2.433   0.218   2.046 -1.1798  2.3456 -1.3892
 7861SOL    MW431218   2.512   0.246   2.020 -0.1195  0.4423 -0.4152
 7862SOL     OW31219   4.748   1.010   2.313  0.1178 -0.1758  0.1079
 7862SOL    HW231220   4.826   0.956   2.318  1.0577  1.2141  4.0441
 7862SOL    HW331221   4.762   1.080   2.377 -2.8860  2.2241 -1.5266
 7862SOL    MW431222   4.760   1.012   2.322 -0.1545  0.3242  0.4116
 7863SOL     OW31223   0.424   1.221   1.060 -0.1708  0.0847  0.5644
 7863SOL    HW231224   0.513   1.237   1.027  0.1473 -0.1583  1.2787
 7863SOL    HW331225   0.423   1.261   1.147 -0.5932 -0.3869  0.7815
 7863SOL    MW431226   0.436   1.228   1.067 -0.1846 -0.0096  0.6873
 7864SOL     OW31227   0.186   0.927   2.964 -0.0523  0.4132  0.3537
 7864SOL    HW231228   0.169   1.016   2.993  0.3754  0.5428  0.2095
 7864SOL    HW331229   0.282   0.919   2.964 -0.0962 -0.2082  0.8594
 7864SOL    MW431230   0.197   0.937   2.968 -0.0017  0.3483  0.4014
 7865SOL     OW31231   5.820   3.153   3.121 -0.2117 -0.1398  0.4136
 7865SOL    HW231232   5.911   3.126   3.108 -0.0949 -0.0141  0.9515
 7865SOL    HW331233   5.786   3.166   3.032  0.5021  0.5014  0.2209
 7865SOL    MW431234   5.828   3.151   3.107 -0.1021 -0.0386  0.4592
 7866SOL     OW31235   3.964   6.179   5.255 -0.0078 -0.3198 -0.5912
 7866SOL    HW231236   4.059   6.174   5.245  0.2569 -2.4705  1.8217
 7866SOL    HW331237   3.935   6.087   5.257 -2.2338  0.2795 -1.7972
 7866SOL    MW431238   3.972   6.166   5.254 -0.2666 -0.5245 -0.4320
 7867SOL     OW31239   3.453   4.019   2.030 -0.2422 -0.6429  0.8735
 7867SOL    HW231240   3.477   4.111   2.030 -1.0718 -0.3985  2.1613
 7867SOL    HW331241   3.368   4.016   1.986  0.2335 -0.9476 -0.0537
 7867SOL    MW431242   3.445   4.031   2.024 -0.2889 -0.6509  0.9211
 7868SOL     OW31243   1.079   3.113   4.687 -0.0812 -0.0633  0.1648
 7868SOL    HW231244   1.008   3.066   4.644 -0.4994  0.6896  0.0179
 7868SOL    HW331245   1.051   3.121   4.778  1.1507 -2.3457  0.8270
 7868SOL    MW431246   1.066   3.108   4.693  0.0262 -0.2651  0.2328
 7869SOL     OW31247   2.918   1.235   4.611 -0.2442  0.1428 -0.6165
 7869SOL    HW231248   2.896   1.223   4.519  0.0115  0.9445 -0.7920
 7869SOL    HW331249   2.990   1.174   4.627 -0.1004  0.2056 -1.0201
 7869SOL    MW431250   2.924   1.226   4.601 -0.1915  0.2569 -0.6929
 7870SOL     OW31251   0.048   0.322   3.657 -0.0288  0.5118 -0.2382
 7870SOL    HW231252   0.083   0.262   3.722  1.2671 -0.5732 -1.8789
 7870SOL    HW331253  -0.029   0.277   3.622 -0.0734  0.5903 -0.2413
 7870SOL    MW431254   0.042   0.308   3.661  0.1363  0.3790 -0.4550
 7871SOL     OW31255   2.880   5.018   1.951  0.1394  0.0999 -0.1688
 7871SOL    HW231256   2.928   5.066   2.019  2.8610  1.9061 -3.0858
 7871SOL    HW331257   2.836   5.086   1.901 -0.6614 -1.0417 -1.0646
 7871SOL    MW431258   2.881   5.034   1.953  0.3928  0.1876 -0.6718
 7872SOL     OW31259   0.282   3.502   4.156 -0.8924 -0.0850 -0.1878
 7872SOL    HW231260   0.364   3.498   4.108 -1.2327 -0.4481 -0.7449
 7872SOL    HW331261   0.294   3.444   4.231 -1.2321 -1.5039 -1.1949
 7872SOL    MW431262   0.294   3.494   4.160 -0.9821 -0.3201 -0.3941
 7873SOL     OW31263   4.206   3.157   3.063  0.7013  0.2798 -0.2016
 7873SOL    HW231264   4.295   3.125   3.079  0.4999 -0.3876 -0.4272
 7873SOL    HW331265   4.203   3.241   3.110  1.2877  0.0706  0.2237
 7873SOL    MW431266   4.218   3.164   3.071  0.7521  0.1641 -0.1753
 7874SOL     OW31267   5.602   1.084   1.050 -0.0593  0.4830  0.4384
 7874SOL    HW231268   5.554   1.007   1.080 -0.8466  0.5140 -0.6834
 7874SOL    HW331269   5.559   1.157   1.094 -0.9431  0.4894 -0.3860
 7874SOL    MW431270   5.590   1.084   1.059 -0.2798  0.4879  0.1816
 7875SOL     OW31271   6.209   3.152   4.794  0.0555 -0.1876 -0.5695
 7875SOL    HW231272   6.255   3.171   4.876  0.1082  0.7246 -0.8030
 7875SOL    HW331273   6.244   3.066   4.767  1.2907  0.2691 -0.5025
 7875SOL    MW431274   6.220   3.143   4.801  0.2254 -0.0070 -0.5915
 7876SOL     OW31275   1.814   2.793   0.662 -0.0679  0.0479 -0.1916
 7876SOL    HW231276   1.726   2.803   0.626  0.2116 -0.4571 -1.0279
 7876SOL    HW331277   1.800   2.781   0.756 -0.7312  3.0279  0.1963
 7876SOL    MW431278   1.800   2.793   0.669 -0.1185  0.3744 -0.2507
 7877SOL     OW31279   5.034   4.362   0.725  0.1349 -0.1357 -0.4480
 7877SOL    HW231280   4.979   4.386   0.650  1.4880 -0.1654 -1.4908
 7877SOL    HW331281   5.097   4.434   0.731  1.3558 -1.1681 -0.6904
 7877SOL    MW431282   5.035   4.375   0.716  0.4745 -0.2758 -0.6176
 7878SOL     OW31283   4.287   0.545   0.801 -0.1398  0.2607 -0.5472
 7878SOL    HW231284   4.332   0.484   0.858  0.4156  1.2537  0.1080
 7878SOL    HW331285   4.288   0.628   0.849 -1.5659  0.6142 -1.0573
 7878SOL    MW431286   4.293   0.548   0.815 -0.2547  0.4384 -0.5280
 7879SOL     OW31287   1.917   1.325   5.798 -0.3142 -0.3467  0.0911
 7879SOL    HW231288   1.950   1.242   5.833 -1.6508 -1.6788 -1.6005
 7879SOL    HW331289   1.870   1.300   5.718 -0.5646  2.0864 -0.6020
 7879SOL    MW431290   1.915   1.310   5.792 -0.5236 -0.2014 -0.2235
 7880SOL     OW31291   2.147   4.791   0.438 -0.5926  0.1021  0.1585
 7880SOL    HW231292   2.062   4.811   0.479 -0.1648  0.1123  1.0730
 7880SOL    HW331293   2.208   4.787   0.512  0.5642  1.8805 -0.6255
 7880SOL    MW431294   2.144   4.793   0.453 -0.3835  0.3381  0.1758
 7881SOL     OW31295   4.928   5.775   3.137  0.3303  0.0313 -0.1126
 7881SOL    HW231296   4.857   5.756   3.076  0.7048 -0.8371 -0.3027
 7881SOL    HW331297   4.885   5.796   3.219 -0.2169  2.3167 -0.9222
 7881SOL    MW431298   4.913   5.775   3.140  0.3075  0.2183 -0.2445
 7882SOL     OW31299   5.078   3.452   6.161 -0.2248 -0.6694  0.2211
 7882SOL    HW231300   5.115   3.517   6.101  0.4036  1.4819  2.7486
 7882SOL    HW331301   4.996   3.491   6.191 -1.4519 -2.5299 -0.5084
 7882SOL    MW431302   5.072   3.466   6.157 -0.3038 -0.6311  0.4583
 7883SOL     OW31303   0.824   2.578   3.431 -0.2191 -0.2313  0.2445
 7883SOL    HW231304   0.789   2.666   3.437 -0.9950 -0.6141  1.8647
 7883SOL    HW331305   0.756   2.528   3.385 -0.0861 -0.1598 -0.0377
 7883SOL    MW431306   0.811   2.583   3.425 -0.3039 -0.2723  0.4211
 7884SOL     OW31307   0.218   4.891   1.270 -0.2566 -0.6300  0.0781
 7884SOL    HW231308   0.132   4.918   1.302 -0.0143  1.2146 -0.6569
 7884SOL    HW331309   0.233   4.947   1.193  2.0043 -0.1913  0.7745
 7884SOL    MW431310   0.209   4.902   1.264  0.0737 -0.3287  0.0730
 7885SOL     OW31311   3.547   4.383   0.039  0.3928 -0.3667  0.1386
 7885SOL    HW231312   3.526   4.377  -0.054  0.5552 -0.7797  0.1271
 7885SOL    HW331313   3.462   4.387   0.083  0.3207  0.8520 -0.0854
 7885SOL    MW431314   3.533   4.383   0.033  0.4047 -0.2604  0.1075
 7886SOL     OW31315   3.568   0.195   1.751 -0.8942 -0.1458  0.2539
 7886SOL    HW231316   3.499   0.214   1.815  0.1138 -0.2957  1.4246
 7886SOL    HW331317   3.587   0.102   1.762  0.0116  0.0554  0.4829
 7886SOL    MW431318   3.561   0.185   1.761 -0.6417 -0.1390  0.4386
 7887SOL     OW31319   4.301   3.158   0.790  0.6598 -0.2059 -0.0150
 7887SOL    HW231320   4.379   3.189   0.836 -0.0578 -0.3250  1.3323
 7887SOL    HW331321   4.334   3.117   0.710  2.0716 -1.4749  1.1943
 7887SOL    MW431322   4.315   3.157   0.785  0.7514 -0.3890  0.3223
 7888SOL     OW31323   5.212   3.208   4.288 -0.0489  0.1225 -0.1774
 7888SOL    HW231324   5.234   3.267   4.360  0.2470  0.3453 -0.4476
 7888SOL    HW331325   5.123   3.233   4.264  0.6714  1.6776 -1.4454
 7888SOL    MW431326   5.203   3.219   4.295  0.0852  0.3571 -0.3803
 7889SOL     OW31327   5.908   0.960   6.198 -0.4229  0.2050 -0.3038
 7889SOL    HW231328   5.931   0.877   6.241 -0.5689  0.6655  0.7112
 7889SOL    HW331329   5.979   0.976   6.137 -0.6404 -0.9175 -0.8843
 7889SOL    MW431330   5.920   0.951   6.196 -0.4708  0.1176 -0.2464
 7890SOL     OW31331   0.581   5.072   6.247  0.1091  0.0570  0.2154
 7890SOL    HW231332   0.581   5.145   6.309  2.7020  0.5219 -0.1975
 7890SOL    HW331333   0.655   5.018   6.275 -1.4052 -2.1396  0.1574
 7890SOL    MW431334   0.591   5.075   6.259  0.2514 -0.1715  0.1532
 7891SOL     OW31335   1.781   1.718   3.930 -0.1407  0.2745 -0.2390
 7891SOL    HW231336   1.773   1.791   3.991 -2.9418  1.4948 -1.8636
 7891SOL    HW331337   1.760   1.756   3.845 -2.0362 -2.4162 -1.1204
 7891SOL    MW431338   1.777   1.733   3.927 -0.7603  0.0805 -0.5696
 7892SOL     OW31339   2.561   4.403   0.729  0.5178 -0.2989  0.1894
 7892SOL    HW231340   2.566   4.419   0.823 -2.6149 -1.2136  0.6213
 7892SOL    HW331341   2.590   4.312   0.719 -3.8741 -2.0850  1.1913
 7892SOL    MW431342   2.566   4.393   0.740 -0.4750 -0.6552  0.3786
 7893SOL     OW31343   6.107   4.591   3.995 -0.0862 -0.3439  0.1807
 7893SOL    HW231344   6.100   4.603   4.090 -0.9992  1.1098 -0.0415
 7893SOL    HW331345   6.086   4.677   3.958  3.8742  0.2132 -1.2481
 7893SOL    MW431346   6.103   4.604   4.003  0.3159 -0.0786 -0.0371
 7894SOL     OW31347   5.816   5.136   6.038 -0.1040 -0.5575 -0.1671
 7894SOL    HW231348   5.820   5.162   6.130  0.7199  0.3062 -0.4340
 7894SOL    HW331349   5.864   5.053   6.034  1.9722  0.5766 -0.1887
 7894SOL    MW431350   5.823   5.128   6.050  0.2786 -0.2939 -0.2052
 7895SOL     OW31351   4.174   3.041   4.794 -0.0665  0.3883 -0.1702
 7895SOL    HW231352   4.233   3.111   4.821  0.1616 -0.3311  1.3357
 7895SOL    HW331353   4.111   3.034   4.866 -0.2794 -0.7314 -0.4425
 7895SOL    MW431354   4.173   3.049   4.807 -0.0645  0.1457 -0.0075
 7896SOL     OW31355   2.494   0.260   0.173 -0.1642  0.1869 -0.1792
 7896SOL    HW231356   2.502   0.216   0.089 -0.6803 -2.4177  1.0428
 7896SOL    HW331357   2.563   0.222   0.227 -0.1048  1.5163  0.7154
 7896SOL    MW431358   2.504   0.249   0.169 -0.2245  0.0186  0.1000
 7897SOL     OW31359   3.378   6.403   5.743 -0.4376  1.0708  0.1038
 7897SOL    HW231360   3.461   6.448   5.732  0.0953  0.5213  1.6407
 7897SOL    HW331361   3.367   6.353   5.662  1.6961 -0.3354  0.5859
 7897SOL    MW431362   3.387   6.402   5.731 -0.0858  0.8128  0.3702
 7898SOL     OW31363   3.928   5.642   6.117 -0.5864 -0.0043 -0.2523
 7898SOL    HW231364   4.003   5.584   6.130 -0.0813  0.7093  0.0771
 7898SOL    HW331365   3.893   5.618   6.032  0.5334  0.2195 -0.7849
 7898SOL    MW431366   3.933   5.631   6.108 -0.3720  0.1193 -0.2791
 7899SOL     OW31367   1.873   3.862   3.983  0.0243 -0.3348  0.0111
 7899SOL    HW231368   1.942   3.928   3.986 -0.0577 -0.2023 -0.8779
 7899SOL    HW331369   1.808   3.893   4.046 -0.5796  1.0800 -1.2459
 7899SOL    MW431370   1.874   3.875   3.992 -0.0662 -0.1306 -0.2720
 7900SOL     OW31371   6.296   2.523   2.032  0.0052 -0.4488 -0.0104
 7900SOL    HW231372   6.387   2.553   2.027  0.4435 -1.6002  0.5322
 7900SOL    HW331373   6.302   2.439   2.078 -1.4002 -0.2768  0.5179
 7900SOL    MW431374   6.309   2.516   2.038 -0.1224 -0.5780  0.1309
 7901SOL     OW31375   1.383   0.347   2.699 -0.3205 -0.1422 -0.4469
 7901SOL    HW231376   1.436   0.334   2.620 -1.3316 -0.1502 -1.1368
 7901SOL    HW331377   1.400   0.269   2.752  0.8778  0.1705 -0.3435
 7901SOL    MW431378   1.392   0.335   2.695 -0.2958 -0.1020 -0.5243
 7902SOL     OW31379   3.100   5.670   3.769  0.3594 -0.2270 -0.0294
 7902SOL    HW231380   3.010   5.636   3.774  0.5763 -1.1018 -1.4363
 7902SOL    HW331381   3.128   5.677   3.861 -0.4913 -1.7691  0.3856
 7902SOL    MW431382   3.092   5.666   3.782  0.2758 -0.5459 -0.1602
 7903SOL     OW31383   3.294   0.759   0.367  0.3180  0.5392 -0.5728
 7903SOL    HW231384   3.379   0.736   0.404  0.4288  1.8548  0.0740
 7903SOL    HW331385   3.257   0.676   0.336  1.9610 -0.0030 -1.1718
 7903SOL    MW431386   3.300   0.745   0.368  0.5494  0.6412 -0.5665
 7904SOL     OW31387   5.471   3.095   4.299  1.0814 -0.2567 -0.5206
 7904SOL    HW231388   5.511   3.059   4.220 -0.9780 -0.8943 -1.3541
 7904SOL    HW331389   5.377   3.097   4.280  0.7987  3.3961  0.3792
 7904SOL    MW431390   5.464   3.091   4.286  0.7724  0.1411 -0.5118
 7905SOL     OW31391   6.035   4.119   4.497  0.1062 -0.0937  0.3559
 7905SOL    HW231392   6.074   4.139   4.583 -0.9180 -1.0283  1.0721
 7905SOL    HW331393   6.110   4.109   4.439  0.9943 -1.8385  1.6941
 7905SOL    MW431394   6.050   4.120   4.501  0.0883 -0.4472  0.6270
 7906SOL     OW31395   0.261   0.633   3.436  0.3893 -0.1061  0.4088
 7906SOL    HW231396   0.175   0.601   3.407  0.3497 -0.8904  1.3221
 7906SOL    HW331397   0.268   0.721   3.400 -0.2426 -0.5227 -0.7702
 7906SOL    MW431398   0.251   0.640   3.427  0.3007 -0.2646  0.3737
 7907SOL     OW31399   6.240   4.000   3.800 -0.4141  0.0918 -0.2418
 7907SOL    HW231400   6.225   4.085   3.758 -1.0424  0.0317 -0.1419
 7907SOL    HW331401   6.324   4.010   3.846 -0.7926  0.8602  0.2938
 7907SOL    MW431402   6.249   4.012   3.800 -0.5470  0.1853 -0.1579
 7908SOL     OW31403   0.271   4.828   3.575  0.2855 -0.4567 -0.2983
 7908SOL    HW231404   0.227   4.894   3.521 -0.4037 -0.4819  0.2160
 7908SOL    HW331405   0.199   4.781   3.618  0.6775 -2.6173 -1.8551
 7908SOL    MW431406   0.255   4.830   3.574  0.2463 -0.7451 -0.4359
 7909SOL     OW31407   4.825   0.923   1.641  0.2325  0.1736  0.2514
 7909SOL    HW231408   4.822   0.829   1.623 -1.0040  0.3293 -0.4895
 7909SOL    HW331409   4.775   0.963   1.570  0.1172  1.3343  0.9460
 7909SOL    MW431410   4.818   0.916   1.629  0.0542  0.3473  0.2453
 7910SOL     OW31411   5.898   2.354   3.616  0.2603 -0.1767 -0.5378
 7910SOL    HW231412   5.837   2.400   3.674  2.9738  0.6066  1.8905
 7910SOL    HW331413   5.922   2.275   3.664  0.3009 -1.1135 -2.0110
 7910SOL    MW431414   5.893   2.349   3.630  0.6236 -0.1969 -0.4118
 7911SOL     OW31415   2.588   5.267   0.078  0.2877 -0.9470  0.4563
 7911SOL    HW231416   2.627   5.194   0.126 -0.6097 -0.4299  2.0658
 7911SOL    HW331417   2.503   5.282   0.121 -0.4883 -0.3138 -1.1916
 7911SOL    MW431418   2.582   5.260   0.090  0.0669 -0.7952  0.4512
 7912SOL     OW31419   4.901   1.226   1.196 -0.0406 -0.1487  0.2518
 7912SOL    HW231420   4.957   1.237   1.119 -0.7293 -0.2189 -0.2642
 7912SOL    HW331421   4.813   1.243   1.164 -0.4886 -1.4475  0.7206
 7912SOL    MW431422   4.897   1.229   1.181 -0.1906 -0.3293  0.2456
 7913SOL     OW31423   5.570   4.080   1.431 -0.2847 -0.2520  0.2529
 7913SOL    HW231424   5.581   4.146   1.499  1.1409  1.8795 -1.8815
 7913SOL    HW331425   5.625   4.007   1.459  0.7900  0.8416  1.0833
 7913SOL    MW431426   5.579   4.079   1.443  0.0452  0.1735  0.0808
 7914SOL     OW31427   4.949   3.752   1.205 -0.0259  0.2801  0.5758
 7914SOL    HW231428   5.030   3.768   1.253  0.0353  1.0355  0.2175
 7914SOL    HW331429   4.969   3.772   1.114 -0.1414 -1.1492  0.2038
 7914SOL    MW431430   4.962   3.756   1.200 -0.0331  0.1912  0.4795
 7915SOL     OW31431   1.795   6.378   4.363  0.3500 -0.4019  0.2094
 7915SOL    HW231432   1.704   6.393   4.386 -0.1523  0.5361 -2.1087
 7915SOL    HW331433   1.845   6.426   4.428 -0.8453 -0.0689  0.9066
 7915SOL    MW431434   1.790   6.386   4.374  0.1260 -0.2342 -0.0044
 7916SOL     OW31435   4.040   1.189   0.903 -0.0853 -0.0927 -0.7975
 7916SOL    HW231436   4.010   1.114   0.954  0.7463  0.1949  0.1548
 7916SOL    HW331437   3.961   1.240   0.887 -0.3422 -0.0629  0.4364
 7916SOL    MW431438   4.026   1.186   0.908 -0.0095 -0.0509 -0.5091
 7917SOL     OW31439   4.727   3.143   2.056  0.0502 -0.5698  0.2207
 7917SOL    HW231440   4.752   3.127   2.146  1.4775  3.0654  0.6571
 7917SOL    HW331441   4.806   3.128   2.005  0.1817  0.4694  0.0830
 7917SOL    MW431442   4.741   3.139   2.061  0.2558  0.0469  0.2601
 7918SOL     OW31443   0.476   6.121   5.099  0.1326  0.0157 -0.2661
 7918SOL    HW231444   0.541   6.186   5.070  1.4518 -0.9921  0.3339
 7918SOL    HW331445   0.438   6.160   5.179  0.9967  0.0170  0.1572
 7918SOL    MW431446   0.480   6.135   5.106  0.4207 -0.1171 -0.1311
 7919SOL     OW31447   5.582   1.510   4.094  0.1363 -0.5601  0.1065
 7919SOL    HW231448   5.612   1.430   4.138  2.0285 -0.2207 -0.4622
 7919SOL    HW331449   5.496   1.528   4.133  0.9295 -1.2588  2.3756
 7919SOL    MW431450   5.575   1.502   4.105  0.4906 -0.6075  0.3309
 7920SOL     OW31451   4.661   0.220   5.918  0.1177  0.2486 -0.3786
 7920SOL    HW231452   4.692   0.245   5.831 -0.7326  2.8889 -0.0164
 7920SOL    HW331453   4.633   0.303   5.958  0.8885 -0.8003  2.5949
 7920SOL    MW431454   4.661   0.234   5.912  0.1072  0.4586  0.0615
 7921SOL     OW31455   2.364   1.432   5.790 -0.0851  0.2446  0.0075
 7921SOL    HW231456   2.385   1.500   5.726  0.0243  1.7972  1.6449
 7921SOL    HW331457   2.274   1.450   5.815  0.3742  0.6184  1.4380
 7921SOL    MW431458   2.355   1.443   5.785 -0.0101  0.4988  0.4122
 7922SOL     OW31459   3.218   6.163   5.287  0.4432 -0.3898 -0.0694
 7922SOL    HW231460   3.289   6.099   5.282  0.3370 -0.4330 -1.6592
 7922SOL    HW331461   3.225   6.212   5.205 -0.4446  0.5923  0.4273
 7922SOL    MW431462   3.228   6.161   5.276  0.3121 -0.2659 -0.2136
 7923SOL     OW31463   2.227   2.384   1.879  0.1491  0.0284  0.1688
 7923SOL    HW231464   2.143   2.377   1.925  0.4385 -1.3284  0.5386
 7923SOL    HW331465   2.287   2.419   1.945  0.5625 -1.9096  0.9024
 7923SOL    MW431466   2.223   2.388   1.894  0.2418 -0.4063  0.3144
 7924SOL     OW31467   3.235   1.459   4.557 -0.5820 -0.0744  0.3283
 7924SOL    HW231468   3.172   1.455   4.486 -0.7069 -0.3685  0.4533
 7924SOL    HW331469   3.182   1.462   4.637 -0.4961  2.4929  0.3577
 7924SOL    MW431470   3.220   1.459   4.558 -0.5871  0.2255  0.3487
 7925SOL     OW31471   5.195   5.855   2.486  0.4328  0.0647 -0.4312
 7925SOL    HW231472   5.247   5.822   2.559  0.4228 -0.6169 -0.7269
 7925SOL    HW331473   5.105   5.832   2.508  0.5251 -0.9835 -1.0908
 7925SOL    MW431474   5.190   5.848   2.499  0.4437 -0.1635 -0.5572
 7926SOL     OW31475   4.930   2.203   2.512 -0.7505 -0.4144  0.1365
 7926SOL    HW231476   5.020   2.173   2.498 -0.7231  0.1464 -0.9600
 7926SOL    HW331477   4.892   2.136   2.570 -0.0238 -1.3597 -0.4385
 7926SOL    MW431478   4.937   2.190   2.518 -0.6510 -0.4651 -0.0840
 7927SOL     OW31479   1.671   6.465   0.009 -0.0028  0.1708 -0.4917
 7927SOL    HW231480   1.667   6.524  -0.066 -1.9270  2.8639  1.4686
 7927SOL    HW331481   1.728   6.510   0.072  0.1919 -1.1316  0.3018
 7927SOL    MW431482   1.678   6.479   0.008 -0.2310  0.3543 -0.1284
 7928SOL     OW31483   2.944   1.514   0.617 -0.3324  0.3395 -0.3142
 7928SOL    HW231484   2.980   1.569   0.548 -0.8174  0.2293 -0.6631
 7928SOL    HW331485   2.945   1.425   0.580  1.0312  0.0073  0.4731
 7928SOL    MW431486   2.949   1.509   0.603 -0.2165  0.2811 -0.2564
 7929SOL     OW31487   3.984   1.015   0.441 -0.2397  0.1705 -0.4017
 7929SOL    HW231488   4.054   0.963   0.481  0.6167  0.2840 -1.7249
 7929SOL    HW331489   3.912   1.008   0.504  0.9435  0.0821  1.0250
 7929SOL    MW431490   3.984   1.007   0.455  0.0294  0.1738 -0.3880
 7930SOL     OW31491   3.171   3.328   1.811 -0.1348 -0.1053  0.1415
 7930SOL    HW231492   3.114   3.257   1.837 -0.8881  0.3469 -0.2512
 7930SOL    HW331493   3.126   3.371   1.739 -0.1333  1.3220  0.9448
 7930SOL    MW431494   3.158   3.325   1.805 -0.2340  0.1427  0.1956
 7931SOL     OW31495   5.735   6.463   2.215  0.3612  0.5554  0.1057
 7931SOL    HW231496   5.807   6.477   2.276  0.3255 -0.1077  0.3080
 7931SOL    HW331497   5.768   6.396   2.154  0.3646  1.1404 -0.5500
 7931SOL    MW431498   5.749   6.456   2.215  0.3570  0.5451  0.0459
 7932SOL     OW31499   3.647   0.446   0.885  0.2689 -0.0942  0.5985
 7932SOL    HW231500   3.600   0.362   0.879  1.2625 -0.5859 -1.7069
 7932SOL    HW331501   3.724   0.426   0.939 -0.4215 -0.1720  1.5707
 7932SOL    MW431502   3.651   0.432   0.891  0.3089 -0.1693  0.4226
 7933SOL     OW31503   1.287   1.613   5.204 -0.0087 -0.4931  0.1977
 7933SOL    HW231504   1.274   1.687   5.264  0.9930 -0.7450  0.7587
 7933SOL    HW331505   1.369   1.634   5.158 -0.9269 -0.1404 -1.3610
 7933SOL    MW431506   1.296   1.626   5.206  0.0023 -0.4798  0.0661
 7934SOL     OW31507   0.866   6.369   3.889 -0.2703  0.1978  0.8572
 7934SOL    HW231508   0.835   6.435   3.827 -0.4161  0.4689  1.2162
 7934SOL    HW331509   0.931   6.319   3.840 -0.2396  0.5366  0.5477
 7934SOL    MW431510   0.870   6.371   3.875 -0.2855  0.2782  0.8637
 7935SOL     OW31511   3.648   0.640   3.959 -0.0470  0.3828 -0.0120
 7935SOL    HW231512   3.624   0.713   3.902 -2.0828  0.2216  0.5767
 7935SOL    HW331513   3.655   0.679   4.046  0.5749  0.1618  0.0463
 7935SOL    MW431514   3.646   0.655   3.963 -0.2335  0.3324  0.0734
 7936SOL     OW31515   2.562   3.301   2.848  0.0097  0.3087 -0.5733
 7936SOL    HW231516   2.574   3.209   2.824  1.0582  0.2253  0.1892
 7936SOL    HW331517   2.467   3.314   2.851 -0.1550 -0.9017 -0.1392
 7936SOL    MW431518   2.551   3.291   2.845  0.1263  0.1380 -0.4154
 7937SOL     OW31519   2.202   5.780   1.668 -0.3793 -0.1190 -0.2395
 7937SOL    HW231520   2.207   5.854   1.728  0.6157 -0.6515  0.3564
 7937SOL    HW331521   2.118   5.739   1.687 -0.8448  0.7260 -0.4279
 7937SOL    MW431522   2.191   5.785   1.678 -0.3095 -0.0777 -0.1857
 7938SOL     OW31523   1.152   0.367   0.832  0.3133 -0.0662 -0.2479
 7938SOL    HW231524   1.094   0.301   0.794 -0.1771  0.3682 -0.2556
 7938SOL    HW331525   1.221   0.379   0.766 -0.4198  0.5348 -0.9208
 7938SOL    MW431526   1.154   0.360   0.818  0.1519  0.0704 -0.3377
 7939SOL     OW31527   2.172   6.125   0.309 -0.7935  0.7464 -0.0202
 7939SOL    HW231528   2.083   6.097   0.287 -0.2357 -0.2483 -1.1220
 7939SOL    HW331529   2.183   6.098   0.401 -1.3860  0.2252 -0.0908
 7939SOL    MW431530   2.162   6.117   0.318 -0.7980  0.5464 -0.1749
 7940SOL     OW31531   5.634   4.393   4.013 -0.1181  0.5170  0.7882
 7940SOL    HW231532   5.612   4.420   4.102 -0.4459  2.4067  0.1867
 7940SOL    HW331533   5.590   4.309   4.002  0.3305  0.0171  2.5501
 7940SOL    MW431534   5.625   4.385   4.023 -0.1022  0.7004  0.9413
 7941SOL     OW31535   4.798   6.246   5.784 -0.7023 -0.0170  0.3885
 7941SOL    HW231536   4.810   6.173   5.844  0.2837 -0.5448 -0.4360
 7941SOL    HW331537   4.875   6.302   5.798 -0.1264 -0.4709 -0.8110
 7941SOL    MW431538   4.810   6.244   5.794 -0.4962 -0.1465  0.1215
 7942SOL     OW31539   5.965   1.178   0.775 -0.1923 -0.5884  0.1977
 7942SOL    HW231540   6.028   1.189   0.705  0.9962  0.6664  1.3985
 7942SOL    HW331541   5.995   1.100   0.822  0.9529  0.3919  1.1781
 7942SOL    MW431542   5.977   1.169   0.772  0.1156 -0.2935  0.4855
 7943SOL     OW31543   0.006   0.661   4.688  0.0173 -0.3868 -0.5854
 7943SOL    HW231544   0.048   0.661   4.774  0.5188  1.0327 -0.8049
 7943SOL    HW331545  -0.085   0.640   4.705  0.3691 -1.3731  0.1445
 7943SOL    MW431546   0.000   0.658   4.701  0.1299 -0.3297 -0.5181
 7944SOL     OW31547   4.303   6.128   2.070  0.0344  0.8086 -0.5644
 7944SOL    HW231548   4.306   6.173   2.155  1.2968 -0.0359 -0.1354
 7944SOL    HW331549   4.255   6.047   2.088 -0.1010  0.8428 -0.7698
 7944SOL    MW431550   4.297   6.124   2.084  0.1831  0.7017 -0.5349
 7945SOL     OW31551   2.837   2.570   4.656 -0.3005 -0.0723 -0.1474
 7945SOL    HW231552   2.847   2.496   4.596 -1.8648 -0.6718  0.2795
 7945SOL    HW331553   2.827   2.646   4.599  2.4807  0.0669 -0.6051
 7945SOL    MW431554   2.837   2.570   4.641 -0.1399 -0.1331 -0.1515
 7946SOL     OW31555   1.872   2.683   0.028 -0.3376 -0.0210 -0.4389
 7946SOL    HW231556   1.961   2.704   0.056  0.2864  1.0614 -2.9799
 7946SOL    HW331557   1.864   2.588   0.040  0.2233  0.1949  2.1356
 7946SOL    MW431558   1.882   2.673   0.033 -0.1813  0.1503 -0.4345
 7947SOL     OW31559   5.588   5.697   4.600  0.3056 -0.1134 -0.5037
 7947SOL    HW231560   5.678   5.695   4.633  1.4821  2.5148 -3.1248
 7947SOL    HW331561   5.537   5.727   4.675  1.7070 -0.9010  0.8325
 7947SOL    MW431562   5.593   5.700   4.614  0.6457  0.1295 -0.6732
 7948SOL     OW31563   0.752   3.011   4.049 -0.5604  0.5291 -0.0096
 7948SOL    HW231564   0.680   2.973   3.998 -0.5437 -0.3548  0.6063
 7948SOL    HW331565   0.820   3.027   3.984 -0.9068  0.3507 -0.4276
 7948SOL    MW431566   0.751   3.008   4.033 -0.6039  0.3889  0.0165
 7949SOL     OW31567   6.210   3.375   4.612  0.4945 -0.2631 -0.1635
 7949SOL    HW231568   6.305   3.386   4.604  0.3415  2.9031  0.8294
 7949SOL    HW331569   6.199   3.304   4.674  2.1789 -1.1403 -0.7966
 7949SOL    MW431570   6.221   3.367   4.619  0.6966  0.0389 -0.1160
 7950SOL     OW31571   1.014   1.840   5.408  0.0157 -0.0639 -0.3288
 7950SOL    HW231572   1.026   1.912   5.470 -0.2754 -1.0181  0.8757
 7950SOL    HW331573   0.981   1.768   5.461 -0.8251 -0.7446 -1.7150
 7950SOL    MW431574   1.011   1.840   5.423 -0.1337 -0.2796 -0.3528
 7951SOL     OW31575   0.784   0.807   5.179  0.3263 -0.8183 -0.3664
 7951SOL    HW231576   0.735   0.735   5.138 -1.5060 -0.1699  0.5324
 7951SOL    HW331577   0.737   0.886   5.152  1.1974 -0.1105  0.1451
 7951SOL    MW431578   0.771   0.808   5.170  0.1995 -0.6394 -0.1803
 7952SOL     OW31579   0.191   3.689   6.376  0.4777 -0.2324  0.2891
 7952SOL    HW231580   0.265   3.634   6.403  1.3332 -0.1531 -1.7489
 7952SOL    HW331581   0.223   3.779   6.388  0.8860 -0.1969 -0.9937
 7952SOL    MW431582   0.205   3.694   6.381  0.6444 -0.2173 -0.1490
 7953SOL     OW31583   3.670   4.530   2.450 -0.3440 -0.2541  0.3289
 7953SOL    HW231584   3.698   4.621   2.455  0.6504 -0.4633 -0.9178
 7953SOL    HW331585   3.626   4.523   2.365 -0.1273 -1.0011  0.2709
 7953SOL    MW431586   3.668   4.541   2.440 -0.1842 -0.3803  0.1567
 7954SOL     OW31587   6.368   5.290   4.601 -0.3195  0.2076 -0.1934
 7954SOL    HW231588   6.454   5.332   4.602  0.1547 -0.6491 -1.4860
 7954SOL    HW331589   6.348   5.271   4.693  0.2587  1.6054  0.2342
 7954SOL    MW431590   6.376   5.293   4.613 -0.1806  0.2790 -0.3075
 7955SOL     OW31591   1.012   3.565   3.222  0.6467 -0.6955  0.1257
 7955SOL    HW231592   1.019   3.657   3.247  1.8899 -0.7217 -0.0409
 7955SOL    HW331593   1.103   3.533   3.225  0.2192 -1.9374  0.2769
 7955SOL    MW431594   1.025   3.573   3.225  0.7544 -0.8628  0.1237
 7956SOL     OW31595   5.367   4.586   3.815  0.0632  0.6057 -0.4819
 7956SOL    HW231596   5.399   4.613   3.901 -0.1447 -0.6020 -0.0077
 7956SOL    HW331597   5.290   4.641   3.799  0.5489  1.3566 -0.2323
 7956SOL    MW431598   5.361   4.597   3.824  0.0998  0.5455 -0.3864
 7957SOL     OW31599   1.410   1.785   2.565  0.0665 -0.2081 -0.3342
 7957SOL    HW231600   1.325   1.740   2.563 -0.7084  1.0939  0.8785
 7957SOL    HW331601   1.413   1.833   2.482 -0.3894 -0.2675 -0.3921
 7957SOL    MW431602   1.399   1.785   2.554 -0.0959 -0.0441 -0.1819
 7958SOL     OW31603   5.438   0.870   1.480 -0.3363 -0.5263  0.3754
 7958SOL    HW231604   5.521   0.910   1.454  0.0875 -1.3764  0.3983
 7958SOL    HW331605   5.453   0.839   1.570 -1.0039  0.2057  0.7460
 7958SOL    MW431606   5.451   0.871   1.488 -0.3684 -0.5419  0.4273
 7959SOL     OW31607   0.232   5.863   4.829 -0.5470  0.4067  0.1578
 7959SOL    HW231608   0.216   5.769   4.841 -0.6634  0.5030  0.7528
 7959SOL    HW331609   0.147   5.904   4.843 -0.4955  0.6035 -0.1044
 7959SOL    MW431610   0.219   5.856   4.832 -0.5556  0.4454  0.2017
 7960SOL     OW31611   2.951   1.488   2.120 -0.0572 -0.1162  0.7292
 7960SOL    HW231612   2.867   1.463   2.159 -1.0528  2.2571  0.2798
 7960SOL    HW331613   3.016   1.455   2.181 -1.3893 -0.3693  2.0887
 7960SOL    MW431614   2.948   1.481   2.133 -0.3643  0.1636  0.8493
 7961SOL     OW31615   3.801   1.590   0.476 -0.2161  0.1312 -0.1695
 7961SOL    HW231616   3.865   1.565   0.409  1.7407  0.9134  1.3011
 7961SOL    HW331617   3.852   1.640   0.539 -2.3805  1.0035  0.9693
 7961SOL    MW431618   3.816   1.593   0.475 -0.2435  0.3495  0.1748
 7962SOL     OW31619   2.196   0.696   6.005  0.2037 -0.7754 -0.3561
 7962SOL    HW231620   2.203   0.696   5.909 -0.3428 -3.4735 -0.4760
 7962SOL    HW331621   2.177   0.605   6.027 -0.7247 -0.0147  2.2696
 7962SOL    MW431622   2.195   0.684   5.995  0.0091 -1.0310 -0.0255
 7963SOL     OW31623   0.122   3.130   4.229  0.3561 -0.4035  0.0739
 7963SOL    HW231624   0.060   3.101   4.296  0.8266  0.8573  1.0963
 7963SOL    HW331625   0.207   3.133   4.273  0.3288  2.5699  0.1559
 7963SOL    MW431626   0.125   3.127   4.243  0.4146  0.1552  0.2196
 7964SOL     OW31627   3.121   3.967   4.167 -0.2249  0.0320 -0.5947
 7964SOL    HW231628   3.068   4.012   4.101 -0.2931  0.6220 -0.1397
 7964SOL    HW331629   3.188   4.030   4.192 -0.2411 -0.1647 -0.0467
 7964SOL    MW431630   3.123   3.981   4.162 -0.2361  0.0839 -0.4623
 7965SOL     OW31631   3.893   1.455   2.393 -0.5411  0.3642  0.0754
 7965SOL    HW231632   3.826   1.521   2.378 -1.5348 -0.1775  1.8505
 7965SOL    HW331633   3.890   1.400   2.315 -3.3492 -0.5896  0.7300
 7965SOL    MW431634   3.884   1.456   2.381 -1.0427  0.1669  0.3960
 7966SOL     OW31635   1.348   2.552   2.451 -0.2453 -0.1711  0.4119
 7966SOL    HW231636   1.285   2.596   2.394  0.2935 -1.6079 -1.3982
 7966SOL    HW331637   1.325   2.459   2.447  0.5534 -0.4547  1.6101
 7966SOL    MW431638   1.337   2.545   2.443 -0.0689 -0.3981  0.3312
 7967SOL     OW31639   4.489   2.394   0.200  0.3578 -0.7817  0.2190
 7967SOL    HW231640   4.527   2.477   0.170 -0.4700 -0.0417  1.1774
 7967SOL    HW331641   4.506   2.393   0.294 -1.2572 -0.8163  0.5262
 7967SOL    MW431642   4.496   2.405   0.208  0.0355 -0.6887  0.3860
 7968SOL     OW31643   4.747   5.468   5.780 -0.1816 -0.1917 -0.1553
 7968SOL    HW231644   4.756   5.439   5.870  0.8219  0.5964  0.0124
 7968SOL    HW331645   4.820   5.428   5.734  1.0669  1.7623  0.0229
 7968SOL    MW431646   4.758   5.459   5.786  0.1156  0.1701 -0.1096
 7969SOL     OW31647   0.461   0.562   4.002  0.0006  0.1052  0.0853
 7969SOL    HW231648   0.492   0.603   3.922  2.0125 -1.4393 -0.0086
 7969SOL    HW331649   0.528   0.583   4.067 -0.7010 -0.1449  0.9106
 7969SOL    MW431650   0.474   0.570   4.000  0.1735 -0.1316  0.1818
 7970SOL     OW31651   4.787   2.017   1.559 -0.2222  0.2126  0.0139
 7970SOL    HW231652   4.825   1.942   1.604 -0.3094  0.2223  0.1036
 7970SOL    HW331653   4.857   2.049   1.502  0.5708  1.4291  1.5864
 7970SOL    MW431654   4.801   2.012   1.557 -0.1291  0.3744  0.2332
 7971SOL     OW31655   1.792   5.067   4.641  0.0865 -0.1339 -0.4784
 7971SOL    HW231656   1.826   5.142   4.689  0.3234 -0.7828  0.4004
 7971SOL    HW331657   1.869   5.027   4.601 -0.1591  0.6537 -1.8085
 7971SOL    MW431658   1.806   5.072   4.642  0.0853 -0.1156 -0.5379
 7972SOL     OW31659   5.937   3.244   1.274 -0.0947 -0.5187  0.3232
 7972SOL    HW231660   5.853   3.260   1.232  1.0177 -1.0797 -2.2907
 7972SOL    HW331661   5.972   3.331   1.292 -1.0970 -0.2830  1.2246
 7972SOL    MW431662   5.931   3.257   1.271 -0.0802 -0.5616  0.0972
 7973SOL     OW31663   2.692   5.223   6.209  0.2844 -0.2914 -0.8195
 7973SOL    HW231664   2.701   5.184   6.296  0.7010 -0.1855 -0.8162
 7973SOL    HW331665   2.781   5.240   6.180  0.2453 -1.7653 -1.9358
 7973SOL    MW431666   2.705   5.220   6.217  0.3342 -0.4719 -0.9664
 7974SOL     OW31667   5.654   5.574   6.405 -0.6265 -0.5159 -0.1491
 7974SOL    HW231668   5.658   5.648   6.465 -3.9051  0.1479 -0.5724
 7974SOL    HW331669   5.561   5.556   6.395 -0.2323 -1.2376 -4.2534
 7974SOL    MW431670   5.643   5.581   6.411 -1.0071 -0.5236 -0.7465
 7975SOL     OW31671   0.885   4.491   0.757 -0.0928  0.1245 -0.2185
 7975SOL    HW231672   0.940   4.446   0.693  0.3856  0.7623 -0.2630
 7975SOL    HW331673   0.848   4.421   0.811  1.7997 -0.2482  0.6684
 7975SOL    MW431674   0.887   4.476   0.756  0.2200  0.1595 -0.1073
 7976SOL     OW31675   2.486   1.768   4.261  0.3089  0.3834 -0.1930
 7976SOL    HW231676   2.451   1.771   4.172 -2.2331  2.1154  0.7563
 7976SOL    HW331677   2.416   1.729   4.313  1.2464  0.5829  1.2637
 7976SOL    MW431678   2.472   1.763   4.256  0.0972  0.6383  0.1245
 7977SOL     OW31679   3.679   5.936   5.554  0.4407 -0.0093  0.1833
 7977SOL    HW231680   3.664   5.849   5.515 -0.5945  0.3639 -0.2971
 7977SOL    HW331681   3.734   5.919   5.630 -1.0402 -1.3218  1.0456
 7977SOL    MW431682   3.684   5.922   5.559  0.1087 -0.1333  0.2337
 7978SOL     OW31683   2.966   1.699   5.825  0.3653  0.3610 -0.0969
 7978SOL    HW231684   2.988   1.613   5.790 -0.4137  0.7110 -1.4963
 7978SOL    HW331685   3.003   1.762   5.763  1.1320  1.0666  1.0320
 7978SOL    MW431686   2.974   1.696   5.813  0.3637  0.5003 -0.1326
 7979SOL     OW31687   3.214   3.018   5.307  0.1048 -0.4023  0.0725
 7979SOL    HW231688   3.156   3.004   5.382  0.3720 -0.8439  0.2040
 7979SOL    HW331689   3.281   3.078   5.339 -0.0494 -0.2158  0.0446
 7979SOL    MW431690   3.216   3.024   5.322  0.1197 -0.4360  0.0862
 7980SOL     OW31691   4.656   2.467   0.652 -0.2192 -0.5529 -0.0771
 7980SOL    HW231692   4.640   2.402   0.583 -0.8962 -1.9910  1.3627
 7980SOL    HW331693   4.624   2.549   0.616 -0.4324 -1.2384 -1.5210
 7980SOL    MW431694   4.650   2.469   0.638 -0.3366 -0.8331 -0.0776
 7981SOL     OW31695   4.651   5.392   2.413  0.6491  0.2156  0.0578
 7981SOL    HW231696   4.611   5.452   2.351 -1.8497 -0.0907  1.2643
 7981SOL    HW331697   4.668   5.446   2.490 -2.0790 -0.5718  1.3417
 7981SOL    MW431698   4.648   5.407   2.415 -0.0405  0.0713  0.3864
 7982SOL     OW31699   2.166   6.444   6.420 -0.5493 -0.0591  0.4028
 7982SOL    HW231700   2.105   6.372   6.406 -0.0597 -0.6004  0.9725
 7982SOL    HW331701   2.206   6.425   6.505  0.8522 -0.0494 -0.2207
 7982SOL    MW431702   2.163   6.432   6.430 -0.2998 -0.1292  0.3957
 7983SOL     OW31703   1.263   0.880   1.498  0.2376 -0.1757 -0.3117
 7983SOL    HW231704   1.318   0.804   1.511 -0.6605 -1.0295 -1.3120
 7983SOL    HW331705   1.182   0.860   1.545  1.0536  1.4948  2.0220
 7983SOL    MW431706   1.259   0.868   1.506  0.2267 -0.0680 -0.1358
 7984SOL     OW31707   0.076   1.709   0.591  0.7040  0.2221 -0.4620
 7984SOL    HW231708   0.091   1.672   0.678 -1.1588 -0.9614 -0.5971
 7984SOL    HW331709   0.162   1.741   0.564  2.4039 -3.4236 -0.0339
 7984SOL    MW431710   0.089   1.708   0.599  0.6825 -0.4150 -0.4233
 7985SOL     OW31711   3.198   4.813   2.507  0.3214 -0.3134  0.6667
 7985SOL    HW231712   3.142   4.813   2.429 -0.6637  0.2180  1.3445
 7985SOL    HW331713   3.287   4.821   2.473 -0.0389 -0.8170 -0.4261
 7985SOL    MW431714   3.202   4.814   2.492  0.1439 -0.3097  0.6119
 7986SOL     OW31715   5.014   2.742   0.082  0.2946 -0.0151 -0.6771
 7986SOL    HW231716   5.053   2.666   0.038  2.7073  0.2177  0.8477
 7986SOL    HW331717   5.088   2.785   0.125 -1.7057  0.3865  2.7168
 7986SOL    MW431718   5.029   2.738   0.082  0.3490  0.0686 -0.0281
 7987SOL     OW31719   1.756   2.275   4.575  0.0925 -0.1582  0.0109
 7987SOL    HW231720   1.810   2.330   4.631  0.4211 -0.8101  0.3510
 7987SOL    HW331721   1.775   2.305   4.486  0.0409  0.4640  0.2052
 7987SOL    MW431722   1.766   2.286   4.570  0.1291 -0.1621  0.0814
 7988SOL     OW31723   4.173   5.569   2.106 -0.1079 -0.6553 -0.1607
 7988SOL    HW231724   4.083   5.538   2.095 -0.7294  0.8231  0.5431
 7988SOL    HW331725   4.173   5.612   2.192  0.7289  1.1205 -0.9974
 7988SOL    MW431726   4.161   5.570   2.116 -0.0795 -0.2260 -0.1783
 7989SOL     OW31727   0.928   2.401   0.196 -0.1669 -0.1401  0.0565
 7989SOL    HW231728   0.966   2.395   0.284 -1.5991 -0.3898  0.6856
 7989SOL    HW331729   0.861   2.469   0.203  1.0635  1.3013 -1.3985
 7989SOL    MW431730   0.924   2.409   0.209 -0.1935  0.0171 -0.0525
 7990SOL     OW31731   1.867   5.288   4.803 -0.4183 -0.6852 -0.0765
 7990SOL    HW231732   1.936   5.237   4.845 -0.7213  0.4700  1.9861
 7990SOL    HW331733   1.913   5.348   4.745  0.2447 -0.7117  0.4099
 7990SOL    MW431734   1.882   5.289   4.801 -0.3708 -0.5363  0.2598
 7991SOL     OW31735   3.073   1.464   4.790 -0.0970  0.2636 -0.1097
 7991SOL    HW231736   2.978   1.457   4.801  0.1799 -0.8531  2.0096
 7991SOL    HW331737   3.109   1.406   4.856  2.1016  1.0682 -0.5329
 7991SOL    MW431738   3.065   1.455   4.800  0.2296  0.2224  0.1141
 7992SOL     OW31739   1.473   5.345   4.152 -1.0935  0.2291 -0.4490
 7992SOL    HW231740   1.468   5.253   4.127 -1.3310 -0.3737  1.6577
 7992SOL    HW331741   1.512   5.345   4.239 -1.4516  2.1011 -0.2328
 7992SOL    MW431742   1.477   5.333   4.160 -1.1721  0.3965 -0.1425
 7993SOL     OW31743   3.942   4.280   5.078 -0.6890 -0.1298  0.5140
 7993SOL    HW231744   4.000   4.256   5.151  1.8372  0.0325 -1.2931
 7993SOL    HW331745   3.862   4.230   5.094  1.0622 -2.8202  1.6078
 7993SOL    MW431746   3.939   4.270   5.090 -0.1246 -0.4633  0.4199
 7994SOL     OW31747   3.036   5.959   1.871 -0.0927  0.1067  0.2200
 7994SOL    HW231748   2.964   5.897   1.860 -0.6130  0.5877  0.8502
 7994SOL    HW331749   3.086   5.953   1.789  0.5100 -1.9337  0.6886
 7994SOL    MW431750   3.033   5.950   1.858 -0.0819 -0.0990  0.3650
 7995SOL     OW31751   1.085   5.638   5.692 -0.0751  0.3091 -0.1565
 7995SOL    HW231752   1.044   5.555   5.666 -0.0364  0.3867 -0.4750
 7995SOL    HW331753   1.061   5.650   5.784 -0.0407 -0.0792 -0.0965
 7995SOL    MW431754   1.077   5.629   5.701 -0.0654  0.2681 -0.1906
 7996SOL     OW31755   3.473   3.686   4.694  0.9399 -0.3372  0.5592
 7996SOL    HW231756   3.432   3.620   4.751 -0.3542  2.1057  2.6692
 7996SOL    HW331757   3.530   3.735   4.753  0.1311  1.8383 -0.3861
 7996SOL    MW431758   3.475   3.684   4.709  0.6624  0.2722  0.7129
 7997SOL     OW31759   1.511   2.219   1.345 -0.3731 -0.0320 -0.6400
 7997SOL    HW231760   1.549   2.189   1.262  0.8829  0.9861 -0.4730
 7997SOL    HW331761   1.587   2.242   1.398 -1.2110  0.8191  0.2204
 7997SOL    MW431762   1.526   2.218   1.341 -0.3179  0.2146 -0.5044
 7998SOL     OW31763   4.984   1.222   5.906  0.0261 -0.4835  0.5743
 7998SOL    HW231764   5.034   1.174   5.839 -3.1914 -0.9961 -1.7065
 7998SOL    HW331765   5.003   1.176   5.987  3.4128 -0.4106 -0.0274
 7998SOL    MW431766   4.993   1.210   5.908  0.0484 -0.5415  0.1940
 7999SOL     OW31767   0.446   2.720   2.363  0.2643  0.5216  0.6223
 7999SOL    HW231768   0.463   2.800   2.312  1.1914  0.8736  1.4465
 7999SOL    HW331769   0.533   2.687   2.385 -0.1117 -0.5465  0.5750
 7999SOL    MW431770   0.460   2.726   2.359  0.3370  0.4271  0.7248
 8000SOL     OW31771   3.213   5.815   5.451  0.1178 -0.0754  0.7995
 8000SOL    HW231772   3.207   5.838   5.358  3.5746 -1.3420  0.1063
 8000SOL    HW331773   3.289   5.863   5.483  2.4676 -3.7735  1.4052
 8000SOL    MW431774   3.222   5.824   5.443  0.8839 -0.7304  0.7880
 8001SOL     OW31775   0.493   1.216   5.886  0.6694  0.0843 -0.3209
 8001SOL    HW231776   0.480   1.181   5.974  1.1613  1.9252  0.5469
 8001SOL    HW331777   0.410   1.201   5.841  0.3695 -0.7643  0.4962
 8001SOL    MW431778   0.480   1.209   5.891  0.6947  0.2152 -0.0986
 8002SOL     OW31779   4.511   6.132   5.345 -0.6337  0.2183 -0.0832
 8002SOL    HW231780   4.509   6.083   5.427  0.7645  0.8631  0.3513
 8002SOL    HW331781   4.569   6.081   5.288 -0.6719  0.3961 -0.2833
 8002SOL    MW431782   4.518   6.118   5.348 -0.4543  0.3269 -0.0523
 8003SOL     OW31783   2.547   6.396   6.358 -0.1460  0.0313 -0.5249
 8003SOL    HW231784   2.595   6.415   6.438 -1.2678 -1.4925  0.5560
 8003SOL    HW331785   2.614   6.392   6.290  1.1111 -0.8870  0.7231
 8003SOL    MW431786   2.562   6.398   6.359 -0.1282 -0.2909 -0.2176
 8004SOL     OW31787   0.350   2.326   3.106 -0.0118 -0.0226  0.5776
 8004SOL    HW231788   0.369   2.350   3.197  1.8641 -1.4429  0.5990
 8004SOL    HW331789   0.377   2.402   3.055 -0.1870  0.4076  1.1068
 8004SOL    MW431790   0.356   2.339   3.111  0.2126 -0.1532  0.6502
 8005SOL     OW31791   2.363   1.248   2.512 -0.8950 -0.1460 -0.6389
 8005SOL    HW231792   2.326   1.209   2.433 -0.6254 -0.1831 -0.7493
 8005SOL    HW331793   2.421   1.317   2.480  1.5407 -2.0508 -0.6728
 8005SOL    MW431794   2.366   1.252   2.498 -0.5381 -0.4022 -0.6579
 8006SOL     OW31795   1.173   1.374   1.466  0.4216  0.4167 -0.2794
 8006SOL    HW231796   1.228   1.303   1.500  0.4207  0.7580  0.4527
 8006SOL    HW331797   1.221   1.407   1.390  1.3832  0.8929  0.5066
 8006SOL    MW431798   1.187   1.369   1.461  0.5483  0.5246 -0.0791
 8007SOL     OW31799   6.094   3.660   6.368  0.0392  0.0068  0.1895
 8007SOL    HW231800   6.046   3.639   6.449  0.7976 -0.3179  0.5590
 8007SOL    HW331801   6.111   3.754   6.375 -0.1742  0.0425  0.2533
 8007SOL    MW431802   6.090   3.670   6.380  0.1111 -0.0313  0.2467
 8008SOL     OW31803   2.859   4.561   5.491  0.1727  0.0510 -0.1467
 8008SOL    HW231804   2.845   4.516   5.408 -0.4153  1.1092 -0.6434
 8008SOL    HW331805   2.912   4.637   5.468  0.0664  0.3181  0.4606
 8008SOL    MW431806   2.864   4.565   5.477  0.0811  0.2258 -0.1321
 8009SOL     OW31807   4.584   4.994   4.882  0.5727 -0.0590  0.5561
 8009SOL    HW231808   4.653   4.929   4.873  1.1036  0.4833  0.6683
 8009SOL    HW331809   4.595   5.030   4.970 -1.9486 -2.3218  1.9535
 8009SOL    MW431810   4.594   4.990   4.892  0.3101 -0.2860  0.7553
 8010SOL     OW31811   5.108   2.269   5.469 -0.5198  0.2271  0.5092
 8010SOL    HW231812   5.067   2.292   5.385 -1.4836 -1.0033  0.6043
 8010SOL    HW331813   5.062   2.322   5.533  0.1893  1.1401  0.2867
 8010SOL    MW431814   5.097   2.279   5.466 -0.5534  0.1852  0.4924
 8011SOL     OW31815   3.043   5.481   1.554  0.0308  0.5428  0.7035
 8011SOL    HW231816   3.050   5.528   1.637  0.5453  0.0103  0.9656
 8011SOL    HW331817   3.048   5.550   1.487 -0.0692  0.9414  1.0966
 8011SOL    MW431818   3.045   5.497   1.556  0.0855  0.5251  0.7899
 8012SOL     OW31819   2.638   0.314   5.525 -0.1269  0.3960 -0.3754
 8012SOL    HW231820   2.724   0.351   5.544 -1.2860  2.3824  1.4432
 8012SOL    HW331821   2.634   0.234   5.579  0.7173  0.0488 -0.8179
 8012SOL    MW431822   2.649   0.308   5.535 -0.1684  0.6123 -0.1938
 8013SOL     OW31823   6.054   0.650   0.221  0.2904 -0.3391  0.8233
 8013SOL    HW231824   6.043   0.684   0.310 -0.3554  0.9395  0.2783
 8013SOL    HW331825   6.066   0.556   0.233  2.8172  0.1015  2.4431
 8013SOL    MW431826   6.054   0.642   0.234  0.5386 -0.1123  0.9651
 8014SOL     OW31827   0.324   3.072   3.257  0.2006  0.3830 -0.1144
 8014SOL    HW231828   0.379   3.096   3.332  1.6279 -0.7850 -0.7297
 8014SOL    HW331829   0.258   3.014   3.293  0.3002  0.5815  0.3957
 8014SOL    MW431830   0.323   3.068   3.272  0.4020  0.2551 -0.1283
 8015SOL     OW31831   6.420   3.762   3.206 -0.0168  0.0827 -0.2410
 8015SOL    HW231832   6.475   3.755   3.128  0.1408  0.7111 -0.1942
 8015SOL    HW331833   6.338   3.720   3.180  0.9765 -2.2703  0.2133
 8015SOL    MW431834   6.416   3.756   3.192  0.1351 -0.1448 -0.1749
 8016SOL     OW31835   6.003   6.290   4.508  0.0103  0.1544  0.4567
 8016SOL    HW231836   5.982   6.275   4.416  1.0745  1.6197 -0.0669
 8016SOL    HW331837   5.919   6.313   4.548 -0.3259  0.3648 -0.3445
 8016SOL    MW431838   5.989   6.291   4.501  0.1064  0.3755  0.2819
 8017SOL     OW31839   2.147   1.866   0.554 -0.2246  0.0597  0.1634
 8017SOL    HW231840   2.052   1.858   0.553 -0.1620 -1.2085  1.1927
 8017SOL    HW331841   2.163   1.950   0.597 -0.9248 -1.4127  3.7313
 8017SOL    MW431842   2.137   1.876   0.560 -0.3087 -0.3019  0.7700
 8018SOL     OW31843   5.074   0.182   4.278 -0.1471 -0.5637  0.3751
 8018SOL    HW231844   5.043   0.140   4.358 -0.8442 -1.4545 -0.3427
 8018SOL    HW331845   5.069   0.276   4.297 -0.4912 -0.7606  1.3061
 8018SOL    MW431846   5.069   0.189   4.291 -0.2844 -0.7072  0.4032
 8019SOL     OW31847   2.110   4.570   2.713  0.1148  0.3278 -0.3656
 8019SOL    HW231848   2.042   4.637   2.697 -1.2039 -1.1463 -1.2120
 8019SOL    HW331849   2.189   4.605   2.672 -1.1626  0.3153 -3.0507
 8019SOL    MW431850   2.111   4.584   2.706 -0.2277  0.1317 -0.8315
 8020SOL     OW31851   3.921   2.695   4.232 -0.0477 -0.4554 -0.3094
 8020SOL    HW231852   3.878   2.619   4.193  1.2959 -1.5985  0.3424
 8020SOL    HW331853   3.927   2.758   4.161  0.4865 -1.6913 -1.4035
 8020SOL    MW431854   3.916   2.693   4.217  0.2001 -0.7692 -0.3678
 8021SOL     OW31855   3.273   0.152   1.615  0.0578 -0.4869  0.2591
 8021SOL    HW231856   3.332   0.120   1.547  1.6760 -0.0716  1.4171
 8021SOL    HW331857   3.307   0.238   1.639 -2.5819  0.9767 -0.8485
 8021SOL    MW431858   3.285   0.159   1.610 -0.0770 -0.2390  0.2658
 8022SOL     OW31859   1.737   3.610   1.332 -0.0256  0.6267 -0.5752
 8022SOL    HW231860   1.764   3.584   1.245  1.2369 -1.3885  0.3368
 8022SOL    HW331861   1.643   3.628   1.324  0.0502  0.3687 -2.2988
 8022SOL    MW431862   1.728   3.609   1.320  0.1510  0.3267 -0.6823
 8023SOL     OW31863   0.432   0.951   2.611 -0.6208  0.2056 -0.0805
 8023SOL    HW231864   0.422   0.861   2.580 -2.5305  0.2254  0.3927
 8023SOL    HW331865   0.351   0.971   2.658 -0.4787  2.3466 -0.6021
 8023SOL    MW431866   0.420   0.942   2.613 -0.8540  0.4907 -0.0869
 8024SOL     OW31867   4.854   3.205   2.515  0.1459  0.4262 -0.4537
 8024SOL    HW231868   4.929   3.187   2.458 -0.4927 -0.7950 -0.9614
 8024SOL    HW331869   4.863   3.142   2.586 -0.9977 -0.5622 -1.1333
 8024SOL    MW431870   4.865   3.194   2.517 -0.0892  0.1346 -0.6103
 8025SOL     OW31871   5.726   0.642   0.253  0.2763  0.6354 -0.6250
 8025SOL    HW231872   5.811   0.680   0.277 -0.2553  1.3867  0.0954
 8025SOL    HW331873   5.662   0.709   0.278 -0.5972 -0.2870 -0.3676
 8025SOL    MW431874   5.729   0.656   0.259  0.0909  0.6128 -0.4960
 8026SOL     OW31875   0.199   0.538   2.340 -0.0909 -0.4181 -0.3199
 8026SOL    HW231876   0.237   0.613   2.386  1.1280  0.5118 -2.6520
 8026SOL    HW331877   0.189   0.471   2.407  0.9401  1.0644  1.4044
 8026SOL    MW431878   0.203   0.539   2.355  0.2060 -0.0998 -0.4001
 8027SOL     OW31879   3.216   6.282   4.634  0.1590  0.5364  0.0750
 8027SOL    HW231880   3.190   6.342   4.704  0.5582  0.0773  0.6250
 8027SOL    HW331881   3.301   6.248   4.661  0.2396  0.2166 -0.5501
 8027SOL    MW431882   3.224   6.286   4.646  0.2223  0.4337  0.0651
 8028SOL     OW31883   3.499   4.660   6.435 -0.7088 -0.0870  0.6023
 8028SOL    HW231884   3.548   4.713   6.497 -1.3931  1.4100 -0.0882
 8028SOL    HW331885   3.532   4.571   6.449  0.3381  0.4637  1.9241
 8028SOL    MW431886   3.510   4.655   6.445 -0.6610  0.1832  0.6856
 8029SOL     OW31887   6.383   1.971   6.081 -0.1438 -0.3324  0.4129
 8029SOL    HW231888   6.450   2.035   6.058  1.3284 -2.0546 -0.3957
 8029SOL    HW331889   6.414   1.932   6.163 -0.5197 -0.6445  0.4134
 8029SOL    MW431890   6.396   1.974   6.089  0.0009 -0.6008  0.3063
 8030SOL     OW31891   5.001   2.197   6.245  0.0592 -0.2641 -0.2577
 8030SOL    HW231892   5.045   2.192   6.161  1.4968 -1.3352  0.5131
 8030SOL    HW331893   4.956   2.114   6.255 -0.9124  0.2381 -0.3812
 8030SOL    MW431894   5.001   2.186   6.235  0.1207 -0.3391 -0.1723
 8031SOL     OW31895   1.720   3.725   2.030 -0.1122 -0.1749 -0.1917
 8031SOL    HW231896   1.663   3.649   2.038 -0.6882  0.3447  0.8227
 8031SOL    HW331897   1.674   3.783   1.970 -0.2033 -0.1537 -0.1016
 8031SOL    MW431898   1.707   3.722   2.024 -0.2002 -0.1036 -0.0460
 8032SOL     OW31899   5.454   6.237   3.517 -0.3810 -0.6652 -0.3469
 8032SOL    HW231900   5.467   6.213   3.425  1.2411 -0.9436 -0.0908
 8032SOL    HW331901   5.520   6.304   3.534 -0.3846 -0.8984  0.7042
 8032SOL    MW431902   5.465   6.243   3.507 -0.1675 -0.7327 -0.1744
 8033SOL     OW31903   1.040   0.856   4.890 -0.2887 -0.5193  0.2985
 8033SOL    HW231904   1.092   0.913   4.834  0.0990 -1.2019 -0.0371
 8033SOL    HW331905   1.067   0.879   4.979 -0.0060 -0.3025  0.1580
 8033SOL    MW431906   1.050   0.867   4.894 -0.2002 -0.5807  0.2357
 8034SOL     OW31907   1.347   2.085   2.073  0.4411  0.0856 -0.4336
 8034SOL    HW231908   1.373   2.147   2.004  1.2936  1.4852  1.0545
 8034SOL    HW331909   1.387   2.002   2.047  0.3215  0.4551 -1.8613
 8034SOL    MW431910   1.356   2.082   2.060  0.5378  0.3190 -0.4257
 8035SOL     OW31911   3.370   2.060   1.819 -0.0204 -0.2917 -0.3218
 8035SOL    HW231912   3.399   1.975   1.852  0.4444  0.0756  0.2551
 8035SOL    HW331913   3.283   2.073   1.857  0.1886 -0.2196  0.1439
 8035SOL    MW431914   3.363   2.051   1.828  0.0685 -0.2338 -0.1842
 8036SOL     OW31915   5.507   2.059   4.574 -0.5454 -0.4934 -0.1900
 8036SOL    HW231916   5.597   2.040   4.601  0.3262  2.2878 -0.8817
 8036SOL    HW331917   5.455   2.044   4.653  0.8056 -0.2723  0.7832
 8036SOL    MW431918   5.512   2.054   4.588 -0.2522 -0.0973 -0.1529
 8037SOL     OW31919   6.374   3.651   2.642 -0.2623  0.0294 -0.2532
 8037SOL    HW231920   6.403   3.586   2.578  0.0602  0.9844 -1.1065
 8037SOL    HW331921   6.454   3.699   2.665 -0.7914  1.4521 -1.1936
 8037SOL    MW431922   6.388   3.649   2.637 -0.2896  0.3431 -0.4899
 8038SOL     OW31923   2.855   0.814   4.694  0.0905 -0.2734  0.4812
 8038SOL    HW231924   2.775   0.807   4.641  0.3361  0.6353 -0.0486
 8038SOL    HW331925   2.836   0.766   4.774 -0.7995 -0.5142  0.1342
 8038SOL    MW431926   2.842   0.807   4.697  0.0054 -0.1853  0.3655
 8039SOL     OW31927   2.189   4.544   4.388 -0.2126  0.1099 -0.7503
 8039SOL    HW231928   2.235   4.605   4.331  0.8153  1.1312  1.0830
 8039SOL    HW331929   2.238   4.546   4.470 -0.9753 -2.1384 -0.1560
 8039SOL    MW431930   2.201   4.552   4.391 -0.1776 -0.0520 -0.4300
 8040SOL     OW31931   1.408   2.926   2.153 -0.4157  0.1490 -0.2147
 8040SOL    HW231932   1.421   2.839   2.190 -0.0961  0.9017  1.5104
 8040SOL    HW331933   1.496   2.960   2.139 -0.3767  1.6878  2.8976
 8040SOL    MW431934   1.421   2.919   2.156 -0.3684  0.4514  0.4236
 8041SOL     OW31935   3.843   1.866   1.325 -0.3599 -0.0539 -0.2702
 8041SOL    HW231936   3.797   1.884   1.243  3.2114  0.8746 -2.3079
 8041SOL    HW331937   3.847   1.771   1.330 -1.2835 -0.1264 -0.7795
 8041SOL    MW431938   3.838   1.856   1.315 -0.0105  0.0591 -0.6063
 8042SOL     OW31939   2.873   1.161   3.019 -0.1994  0.1371 -0.0385
 8042SOL    HW231940   2.966   1.153   2.998 -0.3755 -1.5602 -0.2610
 8042SOL    HW331941   2.828   1.131   2.941 -0.9298 -0.0381  0.4454
 8042SOL    MW431942   2.880   1.156   3.006 -0.3190 -0.1099 -0.0040
 8043SOL     OW31943   2.255   4.764   1.816 -0.3364 -0.4585  0.1313
 8043SOL    HW231944   2.256   4.730   1.727  0.9263 -0.2170  0.0385
 8043SOL    HW331945   2.335   4.731   1.856 -0.5810 -0.0589  0.9835
 8043SOL    MW431946   2.266   4.755   1.810 -0.2021 -0.3739  0.2315
 8044SOL     OW31947   1.663   5.280   0.335  0.2694 -0.0507  0.1475
 8044SOL    HW231948   1.604   5.214   0.371 -0.3324  0.4412  0.0718
 8044SOL    HW331949   1.616   5.319   0.262  0.4669  0.7077  0.4081
 8044SOL    MW431950   1.649   5.277   0.330  0.2160  0.1143  0.1719
 8045SOL     OW31951   5.003   1.135   6.171 -0.0150 -0.4473 -0.8088
 8045SOL    HW231952   5.015   1.228   6.190  1.7975 -0.8686  0.3297
 8045SOL    HW331953   5.088   1.095   6.190 -1.0150 -2.4927 -0.3618
 8045SOL    MW431954   5.016   1.142   6.176  0.0922 -0.7727 -0.5996
 8046SOL     OW31955   2.573   2.970   2.968 -0.3341  0.3645 -0.1706
 8046SOL    HW231956   2.603   2.927   3.048  0.6482  0.4487 -0.4808
 8046SOL    HW331957   2.542   2.898   2.913  1.1250  0.0352 -0.6098
 8046SOL    MW431958   2.573   2.955   2.972 -0.0120  0.3321 -0.2695
 8047SOL     OW31959   5.832   4.716   4.820 -0.6582 -0.5731  0.4116
 8047SOL    HW231960   5.754   4.695   4.768 -1.6704 -0.7874  1.9682
 8047SOL    HW331961   5.894   4.753   4.756 -2.4437  0.6808 -0.6768
 8047SOL    MW431962   5.830   4.718   4.804 -1.0273 -0.4359  0.4733
 8048SOL     OW31963   0.401   5.954   1.040  0.2525  0.1735  0.2575
 8048SOL    HW231964   0.451   5.873   1.054 -0.6748 -0.3093  0.9703
 8048SOL    HW331965   0.322   5.925   0.994  1.2666  1.1444 -2.2373
 8048SOL    MW431966   0.397   5.939   1.036  0.2639  0.2379  0.0224
 8049SOL     OW31967   1.786   2.985   0.065  0.3686  0.1734 -0.6233
 8049SOL    HW231968   1.809   2.899   0.030  0.0039  0.2514 -1.0804
 8049SOL    HW331969   1.766   2.970   0.157  4.6612  0.5110  0.5389
 8049SOL    MW431970   1.786   2.972   0.072  0.8869  0.2282 -0.5302
 8050SOL     OW31971   1.643   1.262   4.718  0.3058  0.5148  0.2445
 8050SOL    HW231972   1.595   1.266   4.636  0.0710 -0.8931  0.2760
 8050SOL    HW331973   1.720   1.317   4.705  0.6540 -0.2772 -1.1982
 8050SOL    MW431974   1.647   1.270   4.706  0.3208  0.2246  0.0583
 8051SOL     OW31975   1.453   4.634   2.742 -0.0829 -0.5698  0.0404
 8051SOL    HW231976   1.476   4.559   2.797 -0.2254  0.1881  1.1564
 8051SOL    HW331977   1.418   4.699   2.803 -1.8653 -0.3393 -1.1347
 8051SOL    MW431978   1.451   4.633   2.757 -0.3369 -0.4394  0.0326
 8052SOL     OW31979   3.985   1.294   6.225  0.2840  0.5771  0.0246
 8052SOL    HW231980   4.017   1.317   6.137 -1.4603  0.7820 -0.6065
 8052SOL    HW331981   3.956   1.377   6.262 -0.6339  0.2568  0.0640
 8052SOL    MW431982   3.986   1.308   6.218 -0.0672  0.5619 -0.0535
 8053SOL     OW31983   1.273   1.736   0.905  0.0607 -0.2629 -0.8612
 8053SOL    HW231984   1.232   1.722   0.990  1.1891  3.2168  0.4180
 8053SOL    HW331985   1.326   1.658   0.890 -1.1732 -1.5262  0.9645
 8053SOL    MW431986   1.274   1.724   0.914  0.0468  0.0296 -0.4515
 8054SOL     OW31987   3.487   1.949   5.183  0.1269  0.3030  0.5591
 8054SOL    HW231988   3.564   1.980   5.231  1.1668 -0.4271 -0.6002
 8054SOL    HW331989   3.460   2.024   5.130  1.7361 -0.2522 -1.1118
 8054SOL    MW431990   3.493   1.963   5.183  0.4764  0.1334  0.1857
 8055SOL     OW31991   2.730   2.296   6.274 -0.1066 -0.3248  0.0218
 8055SOL    HW231992   2.820   2.282   6.245  0.6082 -0.5990  2.1759
 8055SOL    HW331993   2.697   2.208   6.293 -0.1860 -0.1076  0.9434
 8055SOL    MW431994   2.738   2.282   6.273 -0.0228 -0.3323  0.4276
 8056SOL     OW31995   0.487   4.520   2.922 -0.3232  0.2194 -0.0655
 8056SOL    HW231996   0.514   4.449   2.863 -1.0365 -0.0551 -0.0808
 8056SOL    HW331997   0.477   4.596   2.865 -0.5088  0.0827 -0.2204
 8056SOL    MW431998   0.489   4.520   2.906 -0.4418  0.1652 -0.0879
 8057SOL     OW31999   2.896   4.181   1.646 -0.2688 -0.0024 -0.2831
 8057SOL    HW232000   2.889   4.217   1.735  0.7584 -0.0193 -0.1883
 8057SOL    HW332001   2.863   4.092   1.654 -0.8051  0.2076 -0.0673
 8057SOL    MW432002   2.891   4.174   1.659 -0.2041  0.0231 -0.2421
 8058SOL     OW32003   2.168   0.094   1.741 -0.0356  0.0346  0.6357
 8058SOL    HW232004   2.216   0.012   1.728  0.4963 -0.1797  3.3506
 8058SOL    HW332005   2.148   0.124   1.652  0.1989 -2.7363 -0.4741
 8058SOL    MW432006   2.172   0.087   1.728  0.0656 -0.3593  0.8475
 8059SOL     OW32007   0.424   1.750   3.634  0.0986  0.4406  0.1114
 8059SOL    HW232008   0.348   1.718   3.586  2.3305 -2.8386 -1.6572
 8059SOL    HW332009   0.420   1.705   3.719  1.1756 -1.7459 -0.9003
 8059SOL    MW432010   0.414   1.740   3.639  0.5352 -0.2805 -0.2554
 8060SOL     OW32011   4.667   3.746   3.346 -0.0866  0.3459 -0.6388
 8060SOL    HW232012   4.619   3.793   3.277 -2.0785  1.6948  1.5304
 8060SOL    HW332013   4.600   3.699   3.394  1.4212 -1.5328 -0.2730
 8060SOL    MW432014   4.652   3.746   3.343 -0.1504  0.2760 -0.3044
 8061SOL     OW32015   5.248   4.479   0.914  0.0430 -0.6098  0.6257
 8061SOL    HW232016   5.310   4.454   0.845 -0.6641 -0.4765 -0.0808
 8061SOL    HW332017   5.268   4.421   0.987 -0.0240 -1.6230 -0.1435
 8061SOL    MW432018   5.259   4.468   0.914 -0.0591 -0.7259  0.4310
 8062SOL     OW32019   2.730   5.551   0.127  0.1758  0.1318  0.2543
 8062SOL    HW232020   2.644   5.592   0.137 -0.0736 -0.5152  0.8145
 8062SOL    HW332021   2.716   5.481   0.064  0.1199 -0.4306  0.8751
 8062SOL    MW432022   2.717   5.547   0.120  0.1355 -0.0278  0.4101
 8063SOL     OW32023   5.165   2.184   2.994 -0.2652 -0.5937 -0.1183
 8063SOL    HW232024   5.081   2.140   3.003 -1.0552  0.3057 -2.3960
 8063SOL    HW332025   5.222   2.120   2.952 -0.4788 -0.5110 -0.5455
 8063SOL    MW432026   5.161   2.170   2.990 -0.3976 -0.4642 -0.4752
 8064SOL     OW32027   6.372   4.143   4.962  0.3397  0.3208 -0.1313
 8064SOL    HW232028   6.300   4.132   5.024  0.3249  0.3611 -0.1414
 8064SOL    HW332029   6.397   4.235   4.969 -0.5882  0.6757 -1.2033
 8064SOL    MW432030   6.366   4.153   4.971  0.2153  0.3729 -0.2741
 8065SOL     OW32031   3.254   5.118   4.640  0.0073  0.0974 -0.0251
 8065SOL    HW232032   3.292   5.032   4.655 -1.3304 -0.9555 -2.1993
 8065SOL    HW332033   3.307   5.157   4.570  0.7804  1.2064  1.1330
 8065SOL    MW432034   3.266   5.112   4.633 -0.0672  0.1048 -0.1591
 8066SOL     OW32035   3.414   2.818   0.199  0.5565 -0.0227  0.1996
 8066SOL    HW232036   3.454   2.751   0.145 -0.7368 -0.0900 -0.7221
 8066SOL    HW332037   3.345   2.772   0.247  1.1150  0.2157  1.2614
 8066SOL    MW432038   3.410   2.803   0.198  0.4595 -0.0001  0.2181
 8067SOL     OW32039   4.758   6.207   4.268  0.1945  0.4912 -0.0396
 8067SOL    HW232040   4.761   6.120   4.228  0.3063  0.9390 -1.0476
 8067SOL    HW332041   4.770   6.267   4.194 -2.5861  1.4744  0.2150
 8067SOL    MW432042   4.760   6.203   4.253 -0.1576  0.6800 -0.1390
 8068SOL     OW32043   5.727   3.074   2.322  0.1907 -0.0273 -0.2191
 8068SOL    HW232044   5.813   3.097   2.355 -1.1065  2.0197  2.0692
 8068SOL    HW332045   5.687   3.157   2.298 -0.3201 -1.1262 -3.7731
 8068SOL    MW432046   5.733   3.088   2.323 -0.0479  0.0978 -0.3861
 8069SOL     OW32047   0.093   1.401   3.867  0.4080 -0.2948  0.1889
 8069SOL    HW232048   0.043   1.342   3.923 -0.4493 -0.0829 -0.3354
 8069SOL    HW332049   0.184   1.391   3.896  0.1067 -0.9326  0.9338
 8069SOL    MW432050   0.099   1.391   3.878  0.2551 -0.3510  0.2180
 8070SOL     OW32051   2.897   1.651   2.805  0.0082 -0.5479  0.2788
 8070SOL    HW232052   2.978   1.644   2.856  0.0143 -1.4768  0.1677
 8070SOL    HW332053   2.925   1.647   2.714 -0.0200  0.9232  0.1906
 8070SOL    MW432054   2.911   1.649   2.800  0.0053 -0.4764  0.2525
 8071SOL     OW32055   1.272   4.483   6.296 -0.0501  0.1081  0.2425
 8071SOL    HW232056   1.284   4.528   6.212  1.3186 -0.0479  0.3400
 8071SOL    HW332057   1.208   4.537   6.343 -0.1463  0.6916 -0.5375
 8071SOL    MW432058   1.265   4.496   6.291  0.1178  0.1645  0.1525
 8072SOL     OW32059   1.370   6.126   2.905  0.1124  0.1248 -0.6430
 8072SOL    HW232060   1.331   6.175   2.977  2.2915 -0.4565  1.0450
 8072SOL    HW332061   1.411   6.193   2.850 -1.7056  0.5857 -1.5307
 8072SOL    MW432062   1.370   6.142   2.907  0.1600  0.1089 -0.5374
 8073SOL     OW32063   0.920   0.266   4.503 -0.8266  0.0336 -0.0488
 8073SOL    HW232064   1.011   0.273   4.474 -0.9982  1.4435 -0.3117
 8073SOL    HW332065   0.920   0.191   4.563  0.4257 -0.2141 -0.3248
 8073SOL    MW432066   0.932   0.257   4.508 -0.6840  0.1869 -0.1199
 8074SOL     OW32067   4.810   4.452   4.871  0.4976 -0.2555 -0.0138
 8074SOL    HW232068   4.724   4.470   4.911 -0.8561 -0.5872 -2.5999
 8074SOL    HW332069   4.870   4.509   4.919 -1.1912  0.2397  1.6661
 8074SOL    MW432070   4.807   4.462   4.883  0.0962 -0.2339 -0.1334
 8075SOL     OW32071   3.638   4.402   0.569 -0.5246  0.4663  0.0653
 8075SOL    HW232072   3.561   4.389   0.515 -1.1685  2.8068  0.3000
 8075SOL    HW332073   3.633   4.494   0.596  1.2862  0.1419  1.7412
 8075SOL    MW432074   3.627   4.413   0.566 -0.3706  0.7323  0.3174
 8076SOL     OW32075   3.442   0.956   4.011  0.0825  0.1791 -0.2540
 8076SOL    HW232076   3.449   0.943   4.106 -1.3997 -2.9986 -0.4464
 8076SOL    HW332077   3.377   1.025   4.001 -0.6555 -0.2736  1.0747
 8076SOL    MW432078   3.435   0.963   4.022 -0.2104 -0.2999 -0.1041
 8077SOL     OW32079   5.332   3.213   1.560 -0.1897 -0.2560 -0.6592
 8077SOL    HW232080   5.398   3.221   1.629  0.5607 -0.4932 -1.3273
 8077SOL    HW332081   5.382   3.182   1.484 -1.3771 -2.4503 -0.6352
 8077SOL    MW432082   5.348   3.210   1.559 -0.2474 -0.5768 -0.7442
 8078SOL     OW32083   4.381   4.609   4.725  0.7286 -0.3699 -0.1764
 8078SOL    HW232084   4.370   4.685   4.783  0.4356 -0.6612  0.1558
 8078SOL    HW332085   4.353   4.640   4.639  1.1103  0.0519 -0.1565
 8078SOL    MW432086   4.376   4.623   4.722  0.7403 -0.3527 -0.1299
 8079SOL     OW32087   0.507   5.300   2.915 -0.2704 -0.2619  0.0376
 8079SOL    HW232088   0.542   5.214   2.889 -0.6115 -0.3923  0.0008
 8079SOL    HW332089   0.445   5.280   2.985  0.7322  0.1041  1.0505
 8079SOL    MW432090   0.503   5.286   2.921 -0.1831 -0.2308  0.1664
 8080SOL     OW32091   4.241   0.268   0.477 -0.1836  0.3262  0.1904
 8080SOL    HW232092   4.232   0.363   0.478  0.3736  0.3946 -0.6349
 8080SOL    HW332093   4.314   0.250   0.536  0.0248  0.4466 -0.0317
 8080SOL    MW432094   4.249   0.278   0.485 -0.0826  0.3511  0.0522
 8081SOL     OW32095   1.584   4.332   1.155 -0.3843 -0.3451 -0.2847
 8081SOL    HW232096   1.591   4.301   1.065  0.2047  0.0216 -0.3716
 8081SOL    HW332097   1.508   4.390   1.155 -1.8069 -2.1273 -0.0093
 8081SOL    MW432098   1.575   4.336   1.144 -0.4943 -0.5319 -0.2598
 8082SOL     OW32099   3.134   0.915   5.405  0.3765 -0.0227  0.7107
 8082SOL    HW232100   3.201   0.868   5.357  1.0936  2.1685 -0.5702
 8082SOL    HW332101   3.182   0.974   5.463 -0.4816 -0.0521  1.4859
 8082SOL    MW432102   3.149   0.916   5.406  0.3579  0.2626  0.6439
 8083SOL     OW32103   5.014   5.386   5.772 -0.2863 -0.0427 -0.3066
 8083SOL    HW232104   5.008   5.298   5.809  0.0974  0.6781  1.5956
 8083SOL    HW332105   5.083   5.380   5.707 -0.4756 -1.2147 -0.4132
 8083SOL    MW432106   5.022   5.374   5.769 -0.2607 -0.1022 -0.0697
 8084SOL     OW32107   4.529   4.441   4.094  0.4706  0.7991 -0.1734
 8084SOL    HW232108   4.527   4.370   4.030 -0.3481 -0.3645  1.0940
 8084SOL    HW332109   4.558   4.400   4.175  1.3384  2.2153  0.2628
 8084SOL    MW432110   4.533   4.427   4.096  0.4771  0.8324  0.0514
 8085SOL     OW32111   4.560   3.990   4.502 -0.0891 -0.0690 -0.0701
 8085SOL    HW232112   4.505   3.970   4.578  0.4619 -1.9003 -0.1091
 8085SOL    HW332113   4.646   4.012   4.540  0.4575 -1.9223 -0.1495
 8085SOL    MW432114   4.564   3.991   4.517  0.0557 -0.5551 -0.0857
 8086SOL     OW32115   2.855   3.594   2.260  0.0654 -0.2868  0.1782
 8086SOL    HW232116   2.803   3.642   2.324 -0.9527 -0.5223 -0.4506
 8086SOL    HW332117   2.888   3.518   2.309  1.1928  0.6993  1.0099
 8086SOL    MW432118   2.852   3.590   2.275  0.0798 -0.1878  0.2050
 8087SOL     OW32119   1.903   3.988   1.341  0.3549  0.0323 -0.6998
 8087SOL    HW232120   1.982   4.039   1.358  0.8382 -0.9753  0.1410
 8087SOL    HW332121   1.832   4.045   1.371  0.7729  0.7859 -1.1002
 8087SOL    MW432122   1.904   4.002   1.348  0.4738 -0.0012 -0.6417
 8088SOL     OW32123   4.627   3.366   0.601  0.4977  0.3611  0.2015
 8088SOL    HW232124   4.579   3.434   0.649  3.4324  0.8751  2.7290
 8088SOL    HW332125   4.716   3.400   0.596  1.1392 -1.4913 -2.3065
 8088SOL    MW432126   4.632   3.380   0.607  0.9696  0.1845  0.2041
 8089SOL     OW32127   6.358   1.283   1.477 -0.3481 -0.3672 -0.1225
 8089SOL    HW232128   6.390   1.195   1.457 -0.2454 -0.6778  1.3231
 8089SOL    HW332129   6.432   1.326   1.520 -0.7922  0.0267  0.2501
 8089SOL    MW432130   6.372   1.277   1.480 -0.3931 -0.3562  0.1174
 8090SOL     OW32131   4.015   3.696   1.746  0.3030 -0.0176 -0.5563
 8090SOL    HW232132   4.051   3.702   1.658  0.2358  1.4145 -0.5160
 8090SOL    HW332133   4.015   3.787   1.778 -0.7999 -0.3416  0.4486
 8090SOL    MW432134   4.020   3.709   1.738  0.1486  0.1286 -0.4184
 8091SOL     OW32135   1.872   4.082   3.431  0.5856  0.1628  0.1493
 8091SOL    HW232136   1.808   4.058   3.364 -1.0639  1.5122  1.1716
 8091SOL    HW332137   1.932   4.007   3.434 -2.7486 -2.7509  1.3770
 8091SOL    MW432138   1.872   4.069   3.422 -0.0720 -0.0436  0.4461
 8092SOL     OW32139   5.399   1.427   2.893 -0.3544 -0.5187  0.3872
 8092SOL    HW232140   5.344   1.473   2.830 -1.0644 -0.8434  0.7639
 8092SOL    HW332141   5.455   1.496   2.930  0.0442 -0.3196 -0.5522
 8092SOL    MW432142   5.399   1.442   2.890 -0.3955 -0.5353  0.3130
 8093SOL     OW32143   4.264   5.133   4.916 -0.4033 -0.4561 -0.3174
 8093SOL    HW232144   4.193   5.135   4.851 -0.6695  3.2360 -0.1062
 8093SOL    HW332145   4.342   5.157   4.866 -0.3999  1.2453  0.4519
 8093SOL    MW432146   4.265   5.136   4.901 -0.4380  0.2555 -0.1880
 8094SOL     OW32147   4.577   5.383   3.389  0.4027  0.1627  0.0476
 8094SOL    HW232148   4.591   5.453   3.325 -0.0053 -0.1901 -0.4282
 8094SOL    HW332149   4.654   5.327   3.380 -0.3970 -0.7560 -1.2563
 8094SOL    MW432150   4.589   5.385   3.380  0.2434 -0.0050 -0.1872
 8095SOL     OW32151   6.111   5.492   0.036  0.8534 -0.0860  0.3394
 8095SOL    HW232152   6.096   5.586   0.020 -0.1656 -0.1429  0.8679
 8095SOL    HW332153   6.035   5.464   0.087  1.0497 -1.2512  0.0282
 8095SOL    MW432154   6.099   5.501   0.041  0.7449 -0.2473  0.3681
 8096SOL     OW32155   2.914   0.500   3.455 -0.1404  0.0993  0.1527
 8096SOL    HW232156   2.954   0.547   3.529  0.4909  0.4031 -0.3706
 8096SOL    HW332157   2.821   0.521   3.461  0.4345  4.6234 -2.2338
 8096SOL    MW432158   2.907   0.509   3.466  0.0187  0.7363 -0.2312
 8097SOL     OW32159   4.115   2.825   4.609  0.4041  0.2954 -0.1829
 8097SOL    HW232160   4.159   2.896   4.656 -2.0754  1.7369  0.1380
 8097SOL    HW332161   4.102   2.757   4.676  1.5344  0.1121 -0.1346
 8097SOL    MW432162   4.119   2.825   4.624  0.2260  0.4614 -0.1342
 8098SOL     OW32163   1.476   2.592   1.826 -0.1415 -0.0442 -0.1132
 8098SOL    HW232164   1.398   2.569   1.776 -0.6215  0.3034  0.4539
 8098SOL    HW332165   1.533   2.636   1.763 -0.8702  0.6687 -0.2919
 8098SOL    MW432166   1.473   2.595   1.811 -0.3010  0.0957 -0.0620
 8099SOL     OW32167   2.465   1.697   3.030 -0.5441  0.0627  0.1401
 8099SOL    HW232168   2.377   1.726   3.009 -0.8967 -2.1772 -1.9230
 8099SOL    HW332169   2.484   1.629   2.966  2.5369  0.1553  0.7925
 8099SOL    MW432170   2.456   1.691   3.019 -0.1841 -0.2206 -0.0460
 8100SOL     OW32171   6.320   3.664   3.653 -1.0231  0.5403 -0.3160
 8100SOL    HW232172   6.380   3.631   3.720 -2.0179 -2.1390 -0.6217
 8100SOL    HW332173   6.352   3.752   3.634  1.1769  0.2178  1.4256
 8100SOL    MW432174   6.332   3.671   3.660 -0.8641  0.1442 -0.1266
 8101SOL     OW32175   6.050   5.295   3.213 -0.2860  0.0589 -0.1351
 8101SOL    HW232176   6.073   5.380   3.176 -3.3543  1.2205  0.3234
 8101SOL    HW332177   5.986   5.259   3.151 -0.3524 -1.1094  0.5820
 8101SOL    MW432178   6.044   5.302   3.200 -0.6996  0.0580  0.0200
 8102SOL     OW32179   0.822   3.419   0.696 -0.4268 -0.2617  0.1893
 8102SOL    HW232180   0.762   3.479   0.741  0.3254  1.2897 -0.7886
 8102SOL    HW332181   0.847   3.356   0.764  0.4771  1.8301  1.9346
 8102SOL    MW432182   0.817   3.419   0.711 -0.2083  0.2190  0.2905
 8103SOL     OW32183   4.703   3.761   0.361 -0.7649 -0.7057 -0.6694
 8103SOL    HW232184   4.711   3.797   0.272 -1.9429  1.1812 -0.0494
 8103SOL    HW332185   4.705   3.837   0.418  1.7553 -1.9713  1.1293
 8103SOL    MW432186   4.705   3.776   0.356 -0.5878 -0.6237 -0.3502
 8104SOL     OW32187   6.106   4.420   0.243 -0.2391  0.4270 -0.0495
 8104SOL    HW232188   6.059   4.466   0.173 -0.8506  0.1171  0.1454
 8104SOL    HW332189   6.139   4.340   0.201  0.0688  0.6204 -0.1749
 8104SOL    MW432190   6.104   4.415   0.228 -0.2792  0.4116 -0.0403
 8105SOL     OW32191   4.913   4.923   0.406  0.2341  0.0969  0.1176
 8105SOL    HW232192   4.948   4.914   0.494 -0.9117  1.9085  0.8228
 8105SOL    HW332193   4.889   5.016   0.399  3.1555  0.8459 -3.1960
 8105SOL    MW432194   4.914   4.934   0.416  0.4684  0.4348 -0.2266
 8106SOL     OW32195   4.439   1.435   3.623  0.2272 -1.0134  0.2803
 8106SOL    HW232196   4.532   1.439   3.646 -0.2987 -1.6321  2.7923
 8106SOL    HW332197   4.432   1.489   3.544  2.2477  1.6211  1.7282
 8106SOL    MW432198   4.451   1.443   3.616  0.4244 -0.7474  0.8027
 8107SOL     OW32199   4.701   4.734   2.472  0.8286  0.2756  0.2601
 8107SOL    HW232200   4.606   4.738   2.480  0.7245 -1.5705  0.4828
 8107SOL    HW332201   4.734   4.770   2.554  0.3334  0.7110  0.2733
 8107SOL    MW432202   4.693   4.739   2.484  0.7495  0.0895  0.2912
 8108SOL     OW32203   5.570   3.829   2.039 -0.2119  0.4456 -0.0231
 8108SOL    HW232204   5.588   3.857   2.129  1.3698  1.9837 -0.7582
 8108SOL    HW332205   5.475   3.833   2.031 -0.3313  0.9570  1.3724
 8108SOL    MW432206   5.560   3.833   2.050 -0.0189  0.7160  0.0640
 8109SOL     OW32207   4.260   6.261   2.330 -0.1525  0.3045  0.0992
 8109SOL    HW232208   4.213   6.228   2.406  0.9083 -0.1449  0.5784
 8109SOL    HW332209   4.349   6.227   2.340  0.0798  0.4964 -1.1856
 8109SOL    MW432210   4.266   6.252   2.342  0.0181  0.2705 -0.0071
 8110SOL     OW32211   2.740   0.143   2.970  0.5688 -0.1308 -0.2345
 8110SOL    HW232212   2.797   0.198   3.023 -0.8449  0.2475  0.9791
 8110SOL    HW332213   2.653   0.181   2.982  0.0982 -0.4313 -2.3529
 8110SOL    MW432214   2.736   0.155   2.979  0.3202 -0.1205 -0.3539
 8111SOL     OW32215   0.783   1.159   4.267 -0.1677 -0.5347 -0.3906
 8111SOL    HW232216   0.743   1.091   4.322 -1.4924  0.4501 -0.0949
 8111SOL    HW332217   0.777   1.124   4.178 -2.2565 -0.1987 -0.4312
 8111SOL    MW432218   0.777   1.145   4.263 -0.6181 -0.3605 -0.3569
 8112SOL     OW32219   4.850   4.790   0.024  0.1736 -0.0953  0.0670
 8112SOL    HW232220   4.820   4.707  -0.013 -0.0949  0.0121  0.0412
 8112SOL    HW332221   4.812   4.792   0.112 -0.9239  0.5961 -0.3964
 8112SOL    MW432222   4.841   4.779   0.030 -0.0066  0.0101  0.0025
 8113SOL     OW32223   4.706   3.049   0.464 -0.1363  0.3502 -0.2348
 8113SOL    HW232224   4.679   3.081   0.550 -0.0556  0.5136 -0.2712
 8113SOL    HW332225   4.759   3.120   0.427  0.4389 -0.0158 -0.1200
 8113SOL    MW432226   4.709   3.063   0.471 -0.0497  0.3235 -0.2245
 8114SOL     OW32227   1.757   4.498   1.310 -0.8901  0.3055 -0.2970
 8114SOL    HW232228   1.713   4.430   1.257  2.9173 -3.0701  0.3694
 8114SOL    HW332229   1.779   4.566   1.246 -2.6787 -0.1703 -1.5290
 8114SOL    MW432230   1.754   4.498   1.294 -0.6238 -0.2026 -0.3716
 8115SOL     OW32231   4.335   1.198   0.380  0.1573 -0.1025 -0.4583
 8115SOL    HW232232   4.339   1.214   0.474 -1.3633  0.2061 -0.4131
 8115SOL    HW332233   4.306   1.107   0.372 -1.9450  0.5156 -0.5521
 8115SOL    MW432234   4.331   1.188   0.391 -0.3207  0.0198 -0.4647
 8116SOL     OW32235   2.781   0.515   2.843 -0.0311 -0.2328 -0.2659
 8116SOL    HW232236   2.869   0.501   2.878 -0.5530 -0.4865  1.0042
 8116SOL    HW332237   2.774   0.610   2.834  0.1217 -0.1539  0.3584
 8116SOL    MW432238   2.792   0.526   2.847 -0.0798 -0.2558 -0.0160
 8117SOL     OW32239   0.438   6.161   6.031  0.1722 -0.0904  0.1287
 8117SOL    HW232240   0.358   6.197   5.992  0.4342 -2.1761 -2.6191
 8117SOL    HW332241   0.414   6.144   6.122 -2.4677 -0.4043 -0.5350
 8117SOL    MW432242   0.424   6.163   6.038 -0.1416 -0.4070 -0.3214
 8118SOL     OW32243   4.305   4.676   1.518 -0.0244 -0.0644  0.2000
 8118SOL    HW232244   4.230   4.617   1.514  0.7478 -0.9908 -1.2360
 8118SOL    HW332245   4.303   4.723   1.435  0.6500  0.3458  0.4132
 8118SOL    MW432246   4.295   4.674   1.507  0.1665 -0.1325  0.0387
 8119SOL     OW32247   2.701   3.877   1.436 -0.0033  0.3142  0.2516
 8119SOL    HW232248   2.621   3.922   1.409  0.7357  1.4552 -0.1552
 8119SOL    HW332249   2.715   3.906   1.526 -0.3725 -0.3759  0.5340
 8119SOL    MW432250   2.692   3.887   1.444  0.0455  0.3737  0.2352
 8120SOL     OW32251   3.798   2.066   6.422  0.5129 -0.1427  0.1152
 8120SOL    HW232252   3.767   2.002   6.487  0.2534  0.7831  0.9237
 8120SOL    HW332253   3.722   2.081   6.366  0.2734  0.2056  0.5336
 8120SOL    MW432254   3.784   2.059   6.423  0.4470  0.0254  0.2771
 8121SOL     OW32255   4.308   0.913   0.394 -0.1335 -0.1617  0.0590
 8121SOL    HW232256   4.361   0.834   0.387 -0.2276 -0.3304  1.1511
 8121SOL    HW332257   4.302   0.930   0.488  0.2986  1.4188 -0.1731
 8121SOL    MW432258   4.314   0.905   0.405 -0.0889  0.0246  0.1725
 8122SOL     OW32259   5.494   1.507   6.132  0.2500 -0.8496 -0.5724
 8122SOL    HW232260   5.419   1.549   6.175 -0.6583 -1.9914 -0.9756
 8122SOL    HW332261   5.547   1.579   6.099 -1.2727  0.0000 -1.2594
 8122SOL    MW432262   5.491   1.522   6.133 -0.0708 -0.8881 -0.7162
 8123SOL     OW32263   3.437   0.606   1.743  0.5342 -0.4117 -0.5947
 8123SOL    HW232264   3.406   0.696   1.742 -0.3487 -0.6549 -3.1700
 8123SOL    HW332265   3.531   0.612   1.761  0.3612  0.9617 -0.0973
 8123SOL    MW432266   3.445   0.619   1.745  0.3949 -0.2626 -0.8689
 8124SOL     OW32267   2.025   5.452   1.426  0.1434  0.2645  0.0406
 8124SOL    HW232268   1.940   5.420   1.395  0.4514  0.1563 -0.7262
 8124SOL    HW332269   2.081   5.449   1.348  0.7558  0.6610  0.4579
 8124SOL    MW432270   2.021   5.447   1.411  0.2649  0.3026 -0.0055
 8125SOL     OW32271   1.260   4.236   1.265 -0.1089 -0.1469 -0.3866
 8125SOL    HW232272   1.203   4.233   1.342 -0.9066  0.0445 -0.9588
 8125SOL    HW332273   1.286   4.328   1.258 -0.9581  0.0531 -0.9997
 8125SOL    MW432274   1.256   4.248   1.275 -0.3262 -0.0953 -0.5430
 8126SOL     OW32275   6.043   5.499   5.640  0.5069 -0.1117  0.1076
 8126SOL    HW232276   6.093   5.419   5.622  1.0990  0.2594  0.0710
 8126SOL    HW332277   6.038   5.503   5.735  0.7507 -0.0260  0.1170
 8126SOL    MW432278   6.049   5.489   5.650  0.6172 -0.0514  0.1040
 8127SOL     OW32279   1.634   2.737   1.623 -0.1581  0.5550 -0.1236
 8127SOL    HW232280   1.587   2.809   1.581  0.9088  0.5706 -1.3669
 8127SOL    HW332281   1.709   2.778   1.664 -0.0795  0.2730  0.0174
 8127SOL    MW432282   1.637   2.752   1.623 -0.0070  0.5198 -0.2691
 8128SOL     OW32283   2.978   1.130   2.331 -0.2824 -0.0521 -0.2442
 8128SOL    HW232284   2.950   1.135   2.240 -0.3356 -0.8318 -0.2771
 8128SOL    HW332285   3.042   1.200   2.341  0.9057 -0.9334 -1.3073
 8128SOL    MW432286   2.983   1.140   2.321 -0.1327 -0.2712 -0.3888
 8129SOL     OW32287   0.542   5.910   1.705  0.5797  0.0587 -0.0328
 8129SOL    HW232288   0.488   5.954   1.639 -0.6240  1.0876  1.5601
 8129SOL    HW332289   0.538   5.817   1.682 -0.4581  0.3127 -0.9415
 8129SOL    MW432290   0.535   5.904   1.693  0.2840  0.2280  0.0574
 8130SOL     OW32291   5.377   0.651   0.025  0.7204  0.1428 -0.0257
 8130SOL    HW232292   5.457   0.602   0.044  0.6251  0.9346  2.8784
 8130SOL    HW332293   5.307   0.599   0.064  0.3563  1.4265  1.1055
 8130SOL    MW432294   5.378   0.638   0.032  0.6598  0.4166  0.5067
 8131SOL     OW32295   3.031   0.474   1.835 -0.4196 -0.7061 -0.2236
 8131SOL    HW232296   2.992   0.494   1.750 -1.5072  3.0956  0.9479
 8131SOL    HW332297   2.963   0.498   1.898  1.9264  1.2364  1.7751
 8131SOL    MW432298   3.017   0.480   1.832 -0.2535  0.0518  0.1946
 8132SOL     OW32299   3.978   2.440   4.533 -0.2388  0.4891  0.4673
 8132SOL    HW232300   3.895   2.451   4.487  0.1914  0.7820 -0.2657
 8132SOL    HW332301   4.042   2.481   4.475  0.4924 -0.2114  0.7621
 8132SOL    MW432302   3.976   2.447   4.519 -0.0855  0.4353  0.4095
 8133SOL     OW32303   5.551   1.610   2.577 -0.1124  0.1692 -0.2405
 8133SOL    HW232304   5.471   1.576   2.616 -0.5182  0.8992 -0.4062
 8133SOL    HW332305   5.550   1.576   2.487 -0.5725  0.6917 -0.4414
 8133SOL    MW432306   5.540   1.601   2.570 -0.2267  0.3345 -0.2889
 8134SOL     OW32307   2.863   5.508   1.157 -0.0625 -0.5691 -0.5213
 8134SOL    HW232308   2.916   5.431   1.137  0.7221  0.1455 -1.3138
 8134SOL    HW332309   2.881   5.527   1.249  0.2777 -0.9111 -0.5157
 8134SOL    MW432310   2.872   5.500   1.166  0.0859 -0.5199 -0.6252
 8135SOL     OW32311   0.583   2.166   0.313  0.2869  0.4678 -0.1346
 8135SOL    HW232312   0.617   2.216   0.239  1.3627 -1.2147 -0.8272
 8135SOL    HW332313   0.488   2.164   0.299  0.4823 -0.0183 -1.6413
 8135SOL    MW432314   0.575   2.172   0.301  0.4546  0.1817 -0.4248
 8136SOL     OW32315   6.076   0.732   0.488 -0.0859  0.4481  0.2504
 8136SOL    HW232316   6.031   0.799   0.538 -1.9946 -0.9298  0.5004
 8136SOL    HW332317   6.108   0.670   0.553  0.0981  0.1936 -0.0777
 8136SOL    MW432318   6.074   0.733   0.503 -0.3134  0.2327  0.2401
 8137SOL     OW32319   4.304   0.494   5.941  0.1115  0.2804 -0.3912
 8137SOL    HW232320   4.349   0.549   5.876 -1.5773  0.1468 -1.7462
 8137SOL    HW332321   4.343   0.407   5.929  1.1343  0.6535  0.1181
 8137SOL    MW432322   4.315   0.490   5.931  0.0236  0.3120 -0.5028
 8138SOL     OW32323   5.801   2.351   4.480  0.2315 -0.3814 -0.3039
 8138SOL    HW232324   5.892   2.367   4.507 -0.0112 -1.0328  0.9672
 8138SOL    HW332325   5.809   2.297   4.401  0.9527 -1.0070  0.1841
 8138SOL    MW432326   5.814   2.346   4.473  0.2946 -0.5498 -0.0718
 8139SOL     OW32327   0.097   5.881   5.990  0.1796 -0.0775 -0.1722
 8139SOL    HW232328   0.024   5.892   5.930  0.7596 -0.5385 -0.9807
 8139SOL    HW332329   0.175   5.904   5.939  0.6766 -0.3909  0.4233
 8139SOL    MW432330   0.098   5.885   5.975  0.3217 -0.1797 -0.2003
 8140SOL     OW32331   3.948   3.350   0.964 -0.6158 -0.3165 -0.4197
 8140SOL    HW232332   3.912   3.411   0.899  0.3639  1.9521  1.0634
 8140SOL    HW332333   4.038   3.378   0.975 -0.7792 -0.5852  1.9674
 8140SOL    MW432334   3.955   3.362   0.957 -0.5081 -0.0526  0.0909
 8141SOL     OW32335   0.601   3.710   3.182 -0.2080 -0.1375 -0.6583
 8141SOL    HW232336   0.657   3.675   3.251  0.5222 -0.6646 -1.5003
 8141SOL    HW332337   0.644   3.685   3.100 -0.8100  0.8744 -1.3144
 8141SOL    MW432338   0.614   3.702   3.180 -0.1911 -0.0735 -0.8560
 8142SOL     OW32339   3.411   6.178   1.575  0.6869  0.2131 -0.2472
 8142SOL    HW232340   3.326   6.154   1.612  0.1985  1.5418 -0.4516
 8142SOL    HW332341   3.402   6.162   1.481  0.2296  1.4909 -0.4369
 8142SOL    MW432342   3.398   6.172   1.567  0.5622  0.5570 -0.2992
 8143SOL     OW32343   1.512   4.242   5.385  0.2382  0.0429 -0.4029
 8143SOL    HW232344   1.479   4.197   5.308  0.8757  0.4473 -0.9228
 8143SOL    HW332345   1.569   4.177   5.428 -0.0414 -0.1486 -0.3193
 8143SOL    MW432346   1.516   4.228   5.381  0.2854  0.0710 -0.4605
 8144SOL     OW32347   0.585   3.691   3.907 -0.3069 -0.3580 -0.5050
 8144SOL    HW232348   0.640   3.659   3.836  0.7608 -0.2056  0.2283
 8144SOL    HW332349   0.509   3.730   3.863  0.1525 -0.5981 -1.5378
 8144SOL    MW432350   0.582   3.692   3.892 -0.1054 -0.3696 -0.5445
 8145SOL     OW32351   4.144   3.590   0.760  0.0956  0.0454 -0.4935
 8145SOL    HW232352   4.206   3.663   0.747  0.5358 -0.2543 -0.0983
 8145SOL    HW332353   4.173   3.523   0.698  0.4092 -0.2486 -0.0312
 8145SOL    MW432354   4.156   3.591   0.750  0.1951 -0.0329 -0.3804
 8146SOL     OW32355   3.411   1.957   2.179  0.3036  0.4744  0.0743
 8146SOL    HW232356   3.399   2.046   2.212  0.0711  0.6091 -0.3687
 8146SOL    HW332357   3.328   1.935   2.138 -0.2454 -0.5976  1.6450
 8146SOL    MW432358   3.399   1.966   2.178  0.2005  0.3507  0.2231
 8147SOL     OW32359   2.817   5.605   5.047 -0.0995 -0.0423  0.2396
 8147SOL    HW232360   2.796   5.557   5.127  0.7081 -0.6627  0.0971
 8147SOL    HW332361   2.912   5.615   5.051 -0.0756  0.0486 -0.5689
 8147SOL    MW432362   2.827   5.600   5.058  0.0102 -0.1122  0.1141
 8148SOL     OW32363   5.158   2.573   5.684  0.2530  0.1965  0.0731
 8148SOL    HW232364   5.124   2.578   5.595  0.7202 -0.3610 -0.1445
 8148SOL    HW332365   5.248   2.541   5.674 -0.0734 -1.0196  0.8164
 8148SOL    MW432366   5.166   2.570   5.671  0.2715 -0.0375  0.1425
 8149SOL     OW32367   1.243   1.516   4.115  0.7690  0.8100  0.3409
 8149SOL    HW232368   1.259   1.572   4.191  2.7679  1.6622 -0.6580
 8149SOL    HW332369   1.240   1.576   4.041 -2.4709  0.1486 -0.2028
 8149SOL    MW432370   1.245   1.531   4.115  0.6052  0.8352  0.1374
 8150SOL     OW32371   0.913   6.061   0.057 -0.3232 -0.1958 -0.0303
 8150SOL    HW232372   0.989   6.118   0.048  0.1907 -0.9507 -0.4925
 8150SOL    HW332373   0.949   5.975   0.075 -1.0627 -0.5554 -0.2314
 8150SOL    MW432374   0.928   6.057   0.058 -0.3530 -0.3429 -0.1178
 8151SOL     OW32375   5.184   0.759   1.724 -0.2351  0.2336 -0.1772
 8151SOL    HW232376   5.132   0.702   1.780 -0.0588 -1.5828 -1.7212
 8151SOL    HW332377   5.220   0.699   1.658 -0.9954  2.3005 -2.6192
 8151SOL    MW432378   5.182   0.743   1.722 -0.3122  0.2667 -0.7031
 8152SOL     OW32379   4.721   2.863   3.498 -0.6008  0.1860 -0.0982
 8152SOL    HW232380   4.629   2.848   3.521 -0.8501  0.3275 -0.9634
 8152SOL    HW332381   4.752   2.926   3.563 -1.4744  1.0856 -0.5220
 8152SOL    MW432382   4.713   2.869   3.509 -0.7490  0.3233 -0.2683
 8153SOL     OW32383   4.202   1.114   3.181  0.0188 -0.7925  0.5551
 8153SOL    HW232384   4.201   1.202   3.217 -1.3660 -0.4043 -0.3652
 8153SOL    HW332385   4.289   1.080   3.202  0.5077  0.7277  1.0666
 8153SOL    MW432386   4.214   1.121   3.188 -0.0994 -0.5407  0.5011
 8154SOL     OW32387   4.579   3.905   6.254 -0.4342  0.4396 -0.2109
 8154SOL    HW232388   4.510   3.971   6.255 -1.1136 -0.2715  0.2878
 8154SOL    HW332389   4.660   3.956   6.249 -0.8964  1.3566  1.0450
 8154SOL    MW432390   4.581   3.920   6.253 -0.5848  0.4668  0.0206
 8155SOL     OW32391   4.911   2.763   5.035  0.0121 -0.1858 -0.1170
 8155SOL    HW232392   4.889   2.822   4.963 -0.2841  0.0810  0.1938
 8155SOL    HW332393   4.865   2.681   5.014 -1.6676  0.4900  0.7374
 8155SOL    MW432394   4.902   2.760   5.023 -0.2486 -0.0614  0.0367
 8156SOL     OW32395   3.139   3.370   2.653  0.1833 -0.5693 -0.3700
 8156SOL    HW232396   3.073   3.321   2.702  0.7295 -0.2811  0.6886
 8156SOL    HW332397   3.095   3.395   2.572 -0.6240 -1.3860 -0.2028
 8156SOL    MW432398   3.125   3.367   2.649  0.1488 -0.6391 -0.2082
 8157SOL     OW32399   3.269   2.607   0.670  0.1830 -0.3896  0.5784
 8157SOL    HW232400   3.181   2.642   0.683  0.0125 -1.1847  1.7182
 8157SOL    HW332401   3.306   2.660   0.599 -1.4526 -0.5026 -0.3998
 8157SOL    MW432402   3.263   2.619   0.663 -0.0553 -0.5094  0.5998
 8158SOL     OW32403   2.456   2.957   0.869  0.0120 -0.3918 -0.1292
 8158SOL    HW232404   2.494   2.870   0.877  0.8102 -0.1244 -0.8645
 8158SOL    HW332405   2.510   3.012   0.925 -0.3596 -0.3206  0.1655
 8158SOL    MW432406   2.468   2.953   0.877  0.0683 -0.3472 -0.1873
 8159SOL     OW32407   4.803   6.294   3.780 -0.1024  0.4527 -0.7193
 8159SOL    HW232408   4.874   6.338   3.733 -0.1707  1.1412 -0.1905
 8159SOL    HW332409   4.766   6.362   3.837 -0.8063 -0.0533 -0.5648
 8159SOL    MW432410   4.808   6.309   3.781 -0.2043  0.4767 -0.6291
 8160SOL     OW32411   4.330   3.404   2.151 -0.3267  0.2707  0.4842
 8160SOL    HW232412   4.367   3.465   2.214  1.0090 -0.0408  0.0301
 8160SOL    HW332413   4.240   3.435   2.138  0.1406  1.7944  0.6915
 8160SOL    MW432414   4.323   3.416   2.158 -0.0888  0.4306  0.4517
 8161SOL     OW32415   5.848   5.024   3.912 -0.0414  0.2084 -0.1994
 8161SOL    HW232416   5.761   5.023   3.871 -0.0926  0.8576 -0.1293
 8161SOL    HW332417   5.830   5.025   4.006  0.0061  1.3016 -0.1853
 8161SOL    MW432418   5.834   5.024   3.919 -0.0419  0.4383 -0.1883
 8162SOL     OW32419   3.754   4.481   0.906  0.2399  0.2677 -0.1822
 8162SOL    HW232420   3.830   4.537   0.888  0.1809  0.1836 -0.7073
 8162SOL    HW332421   3.791   4.408   0.956  0.3633  0.6388  0.2678
 8162SOL    MW432422   3.769   4.479   0.910  0.2484  0.3055 -0.1921
 8163SOL     OW32423   4.197   1.083   4.084  0.4016  0.0007  0.6275
 8163SOL    HW232424   4.182   1.164   4.133  1.4089 -0.2879  1.4342
 8163SOL    HW332425   4.292   1.078   4.073  0.3273 -0.9128  0.2951
 8163SOL    MW432426   4.207   1.093   4.089  0.5247 -0.1579  0.6901
 8164SOL     OW32427   3.762   5.207   2.015 -0.2056  0.4764  0.2976
 8164SOL    HW232428   3.680   5.251   1.995  0.4483  1.4926 -0.2303
 8164SOL    HW332429   3.738   5.115   2.026 -0.9461  0.1461 -3.1224
 8164SOL    MW432430   3.748   5.201   2.014 -0.2170  0.5669 -0.2233
 8165SOL     OW32431   5.494   5.507   2.220 -0.3849 -0.4868  0.2256
 8165SOL    HW232432   5.528   5.592   2.249  1.8685 -0.7363 -1.3318
 8165SOL    HW332433   5.551   5.443   2.263  0.0168 -1.0238 -1.0429
 8165SOL    MW432434   5.506   5.509   2.229 -0.0346 -0.5905 -0.1472
 8166SOL     OW32435   6.030   1.301   4.004  0.2981  0.0180 -0.2735
 8166SOL    HW232436   6.091   1.286   4.076  1.2790 -0.7687 -1.2348
 8166SOL    HW332437   6.076   1.269   3.926 -1.5204 -1.0313 -0.9782
 8166SOL    MW432438   6.044   1.295   4.003  0.1876 -0.2243 -0.4933
 8167SOL     OW32439   4.182   5.888   2.068 -0.2859 -0.5425  0.1388
 8167SOL    HW232440   4.168   5.893   1.973 -1.1612  0.3971  0.3008
 8167SOL    HW332441   4.106   5.841   2.101  0.3786 -1.5324  0.3209
 8167SOL    MW432442   4.170   5.883   2.060 -0.3137 -0.5491  0.1842
 8168SOL     OW32443   0.773   6.097   5.310 -0.3399 -0.0956  0.2247
 8168SOL    HW232444   0.700   6.068   5.365  0.4007 -0.7301  0.9152
 8168SOL    HW332445   0.842   6.119   5.373  0.8494 -1.6933 -0.4368
 8168SOL    MW432446   0.773   6.096   5.326 -0.0853 -0.3901  0.2285
 8169SOL     OW32447   2.832   5.157   3.364  0.0722 -0.1880 -0.3036
 8169SOL    HW232448   2.826   5.252   3.371  2.4018  0.1000 -1.2660
 8169SOL    HW332449   2.921   5.141   3.333 -0.7135 -2.6111 -1.5792
 8169SOL    MW432450   2.843   5.167   3.361  0.2759 -0.4697 -0.5989
 8170SOL     OW32451   0.993   3.833   2.750  0.2261 -0.4755 -0.4902
 8170SOL    HW232452   0.908   3.793   2.769 -0.0261  0.4669  0.4721
 8170SOL    HW332453   0.980   3.926   2.765  1.7103 -0.4262  0.7898
 8170SOL    MW432454   0.980   3.840   2.755  0.3886 -0.3447 -0.1944
 8171SOL     OW32455   1.815   0.761   1.549  0.0022  0.2080  0.4547
 8171SOL    HW232456   1.880   0.812   1.500  0.9558 -0.1128  1.3490
 8171SOL    HW332457   1.820   0.673   1.511  0.6718 -0.0162  1.0473
 8171SOL    MW432458   1.824   0.756   1.537  0.2164  0.1361  0.6509
 8172SOL     OW32459   6.377   3.548   0.054  0.0401  0.0857  0.2284
 8172SOL    HW232460   6.435   3.601   0.001  0.9289 -0.4105  0.6798
 8172SOL    HW332461   6.293   3.550   0.008  0.2175  1.3598 -0.0801
 8172SOL    MW432462   6.374   3.555   0.041  0.1808  0.1883  0.2472
 8173SOL     OW32463   5.712   0.111   2.843  0.2756 -0.0889  0.3323
 8173SOL    HW232464   5.752   0.026   2.865 -1.0716 -1.4848 -2.2068
 8173SOL    HW332465   5.619   0.097   2.855  0.1358  1.8576  2.1755
 8173SOL    MW432466   5.705   0.098   2.848  0.0794 -0.0163  0.2405
 8174SOL     OW32467   2.827   1.384   4.872  0.3484 -0.6295 -0.2222
 8174SOL    HW232468   2.817   1.302   4.920  0.5365 -0.8062 -0.4802
 8174SOL    HW332469   2.826   1.452   4.939 -0.9967 -0.7465 -0.0929
 8174SOL    MW432470   2.826   1.382   4.887  0.1957 -0.6683 -0.2392
 8175SOL     OW32471   3.934   2.814   3.949  1.0871 -0.4181  0.5472
 8175SOL    HW232472   3.854   2.862   3.970  0.6101 -1.5431  1.4547
 8175SOL    HW332473   4.002   2.881   3.946  0.5718  0.2601  2.4332
 8175SOL    MW432474   3.932   2.829   3.952  0.9562 -0.4771  0.9158
 8176SOL     OW32475   3.520   5.939   1.190 -0.3061 -0.2738  0.4329
 8176SOL    HW232476   3.477   6.021   1.216  0.1559 -0.7604  3.0247
 8176SOL    HW332477   3.588   5.926   1.256  1.2002 -1.5505 -1.2986
 8176SOL    MW432478   3.523   5.948   1.202 -0.0464 -0.5064  0.5464
 8177SOL     OW32479   4.551   5.128   5.256 -0.7391 -0.8743 -0.2300
 8177SOL    HW232480   4.543   5.216   5.218  1.0406 -0.9797 -0.9742
 8177SOL    HW332481   4.553   5.143   5.351  1.6373  0.1680 -0.3700
 8177SOL    MW432482   4.550   5.142   5.264 -0.1907 -0.7507 -0.3466
 8178SOL     OW32483   4.610   6.377   5.981  0.1645  0.0306  0.4227
 8178SOL    HW232484   4.596   6.463   5.941 -0.1276  0.0910  0.6513
 8178SOL    HW332485   4.627   6.319   5.907 -1.2936 -0.0445  0.1111
 8178SOL    MW432486   4.610   6.381   5.966 -0.0664  0.0287  0.4118
 8179SOL     OW32487   6.302   6.118   0.365 -0.3199  0.4592  0.0270
 8179SOL    HW232488   6.389   6.141   0.400  0.5298 -2.3396 -0.0031
 8179SOL    HW332489   6.290   6.177   0.291  1.5009  1.0349  0.1363
 8179SOL    MW432490   6.312   6.129   0.360  0.0324  0.1659  0.0374
 8180SOL     OW32491   5.854   3.878   4.427 -0.5790 -0.9406  0.3014
 8180SOL    HW232492   5.864   3.903   4.335 -0.4520 -2.7473 -0.2144
 8180SOL    HW332493   5.908   3.941   4.475 -0.2008 -0.3049 -0.9084
 8180SOL    MW432494   5.862   3.890   4.422 -0.5123 -1.0951  0.0737
 8181SOL     OW32495   1.862   4.252   6.107 -0.0361  0.2171 -0.9368
 8181SOL    HW232496   1.886   4.237   6.198 -0.6190  2.9095 -0.2785
 8181SOL    HW332497   1.944   4.280   6.065  0.1262 -0.5569 -1.1559
 8181SOL    MW432498   1.876   4.253   6.113 -0.0916  0.4702 -0.8788
 8182SOL     OW32499   1.865   3.979   4.439  0.5614 -0.2748 -0.2712
 8182SOL    HW232500   1.887   4.046   4.503 -0.4887 -0.5883  0.4465
 8182SOL    HW332501   1.944   3.970   4.385  0.7578  1.4460 -0.3258
 8182SOL    MW432502   1.878   3.987   4.440  0.4487 -0.0891 -0.1837
 8183SOL     OW32503   4.446   3.193   1.995 -0.0323 -0.5233  0.1741
 8183SOL    HW232504   4.445   3.267   2.056 -1.6547 -1.3170  1.1943
 8183SOL    HW332505   4.537   3.162   1.997  0.4396  0.8246  0.4858
 8183SOL    MW432506   4.458   3.198   2.004 -0.1841 -0.4502  0.3498
 8184SOL     OW32507   6.303   1.005   4.234  0.0370  0.2778  0.5352
 8184SOL    HW232508   6.367   0.941   4.201 -1.0116 -1.8010  2.2807
 8184SOL    HW332509   6.238   1.012   4.164 -0.6794 -1.8777  0.9259
 8184SOL    MW432510   6.303   0.998   4.220 -0.1959 -0.2809  0.8170
 8185SOL     OW32511   3.000   5.673   4.205 -0.3569  0.4001 -0.1161
 8185SOL    HW232512   3.073   5.673   4.143  0.5137 -2.1746  0.7490
 8185SOL    HW332513   3.038   5.637   4.286 -2.7567 -2.0189  0.0652
 8185SOL    MW432514   3.015   5.668   4.208 -0.5587 -0.2588  0.0220
 8186SOL     OW32515   2.490   3.331   5.758  0.6808  0.2521 -0.2770
 8186SOL    HW232516   2.506   3.239   5.737  0.7323 -0.4149  2.3380
 8186SOL    HW332517   2.541   3.380   5.693  0.2184 -1.5132 -2.0572
 8186SOL    MW432518   2.499   3.325   5.746  0.6266 -0.0688 -0.1669
 8187SOL     OW32519   4.507   5.169   5.530  0.0901  0.0743 -0.4464
 8187SOL    HW232520   4.459   5.251   5.527  0.1718  0.2549  1.8898
 8187SOL    HW332521   4.585   5.188   5.582  0.3920 -1.3479 -0.3319
 8187SOL    MW432522   4.511   5.182   5.536  0.1407 -0.0895 -0.1231
 8188SOL     OW32523   3.301   3.530   1.227 -0.1365  1.0154  0.0851
 8188SOL    HW232524   3.271   3.610   1.184  0.8179  0.8806 -0.8776
 8188SOL    HW332525   3.378   3.558   1.279 -1.0392  1.1009  1.4342
 8188SOL    MW432526   3.307   3.545   1.229 -0.1297  1.0089  0.1361
 8189SOL     OW32527   3.859   4.285   1.045  0.0649 -0.2113  0.4179
 8189SOL    HW232528   3.823   4.202   1.077 -0.0873  0.0796  1.0220
 8189SOL    HW332529   3.918   4.314   1.115 -1.7843  1.4268  1.3915
 8189SOL    MW432530   3.862   4.277   1.058 -0.1992  0.0432  0.6261
 8190SOL     OW32531   2.062   0.150   0.367 -0.6207  0.3506 -0.0863
 8190SOL    HW232532   2.120   0.226   0.362  1.1343 -0.9323 -0.2288
 8190SOL    HW332533   1.997   0.165   0.299 -0.6399  1.9527  0.2399
 8190SOL    MW432534   2.061   0.162   0.358 -0.3917  0.3927 -0.0621
 8191SOL     OW32535   4.844   4.726   3.097 -0.3620 -0.1142 -0.7086
 8191SOL    HW232536   4.890   4.664   3.041  0.7982 -2.2910  2.3483
 8191SOL    HW332537   4.914   4.772   3.144 -1.1961 -1.0013  1.5278
 8191SOL    MW432538   4.859   4.724   3.096 -0.3190 -0.5185 -0.0102
 8192SOL     OW32539   1.416   4.045   4.377  0.3257  0.1176 -0.4069
 8192SOL    HW232540   1.326   4.076   4.388  0.0728 -0.8987  0.5036
 8192SOL    HW332541   1.460   4.070   4.459 -0.0168 -2.2878  0.5831
 8192SOL    MW432542   1.410   4.052   4.389  0.2471 -0.3339 -0.1562
 8193SOL     OW32543   2.755   1.109   5.721 -0.5772  0.1156 -0.0280
 8193SOL    HW232544   2.732   1.121   5.629 -1.9214  0.2510  0.3118
 8193SOL    HW332545   2.671   1.100   5.766  0.0705 -0.1886  1.1577
 8193SOL    MW432546   2.741   1.109   5.715 -0.6691  0.0933  0.1733
 8194SOL     OW32547   3.686   1.085   4.691 -0.2074  0.0740  0.3043
 8194SOL    HW232548   3.777   1.065   4.670 -0.9182 -0.9875 -2.1317
 8194SOL    HW332549   3.667   1.165   4.641 -0.5830  0.3803  0.9253
 8194SOL    MW432550   3.696   1.093   4.681 -0.3507 -0.0256  0.0648
 8195SOL     OW32551   1.038   4.392   2.421  0.0713 -0.2955  0.3636
 8195SOL    HW232552   1.028   4.302   2.452 -2.3811 -0.0486  0.4678
 8195SOL    HW332553   1.112   4.426   2.471  1.4134 -2.3891 -0.0941
 8195SOL    MW432554   1.046   4.384   2.432 -0.0752 -0.5392  0.3169
 8196SOL     OW32555   2.970   3.923   4.979  0.1168 -0.6357  0.3460
 8196SOL    HW232556   3.046   3.942   4.924 -0.5183  0.5551 -0.1514
 8196SOL    HW332557   2.993   3.960   5.065 -0.0168  0.0163  0.1088
 8196SOL    MW432558   2.983   3.930   4.983  0.0154 -0.3925  0.2491
 8197SOL     OW32559   5.645   2.185   0.094  0.6008  0.1351 -0.3540
 8197SOL    HW232560   5.589   2.258   0.121  1.3329  1.2477 -1.6637
 8197SOL    HW332561   5.705   2.171   0.167  1.1792  1.6410 -0.5022
 8197SOL    MW432562   5.646   2.193   0.107  0.7737  0.4806 -0.5463
 8198SOL     OW32563   1.783   6.368   0.908  0.2888  0.2260 -0.6562
 8198SOL    HW232564   1.718   6.342   0.843 -0.0330  1.1400 -0.7109
 8198SOL    HW332565   1.775   6.302   0.977 -2.1517  1.4037  0.3064
 8198SOL    MW432566   1.773   6.356   0.909 -0.0757  0.5020 -0.5364
 8199SOL     OW32567   1.663   5.162   2.136 -0.0292 -0.4989  0.0526
 8199SOL    HW232568   1.628   5.093   2.192  0.5109 -1.3267 -0.6048
 8199SOL    HW332569   1.735   5.121   2.089  0.7175  0.6948  0.1011
 8199SOL    MW432570   1.668   5.148   2.137  0.1406 -0.4506 -0.0277
 8200SOL     OW32571   0.191   1.460   4.228 -0.2453  0.4235 -0.2747
 8200SOL    HW232572   0.136   1.387   4.201 -2.0341  1.5111  0.2254
 8200SOL    HW332573   0.177   1.468   4.322  3.7258 -1.5499  0.6754
 8200SOL    MW432574   0.182   1.452   4.237  0.0426  0.3066 -0.0833
 8201SOL     OW32575   1.930   0.299   1.396 -0.6472  0.7914  0.1570
 8201SOL    HW232576   1.861   0.235   1.414 -2.6592  3.0466  1.0269
 8201SOL    HW332577   1.995   0.284   1.464 -2.0106  0.8580  1.5393
 8201SOL    MW432578   1.929   0.289   1.407 -1.0926  1.0978  0.4542
 8202SOL     OW32579   4.844   4.493   6.354  0.7771  0.1009  0.9172
 8202SOL    HW232580   4.776   4.463   6.415  0.9405 -1.7714  0.2631
 8202SOL    HW332581   4.820   4.453   6.271  2.6097 -0.5445  0.6496
 8202SOL    MW432582   4.832   4.484   6.351  1.0404 -0.2313  0.7956
 8203SOL     OW32583   3.227   4.834   4.583 -0.4333  0.9497 -0.0365
 8203SOL    HW232584   3.243   4.761   4.643  1.6551  1.6239  0.3118
 8203SOL    HW332585   3.312   4.851   4.543 -0.8696  3.1681 -0.1396
 8203SOL    MW432586   3.240   4.827   4.585 -0.2153  1.3313 -0.0041
 8204SOL     OW32587   1.220   2.112   0.407 -0.6424 -0.7012  0.3213
 8204SOL    HW232588   1.305   2.127   0.366 -0.8530 -3.0445 -1.1370
 8204SOL    HW332589   1.156   2.128   0.337 -1.1897 -1.8247  0.5383
 8204SOL    MW432590   1.222   2.116   0.392 -0.7424 -1.1586  0.1575
 8205SOL     OW32591   5.990   4.639   2.551  0.0122  0.1115 -0.5175
 8205SOL    HW232592   5.916   4.613   2.495  0.1433  0.1425 -0.7077
 8205SOL    HW332593   6.061   4.656   2.489  0.1538  0.1638 -0.3399
 8205SOL    MW432594   5.990   4.638   2.535  0.0482  0.1225 -0.5192
 8206SOL     OW32595   2.879   1.671   3.169  0.7251  0.0955 -0.8218
 8206SOL    HW232596   2.841   1.592   3.132  1.7564 -0.5132 -0.6203
 8206SOL    HW332597   2.838   1.743   3.120 -0.1301 -0.5634 -1.0863
 8206SOL    MW432598   2.869   1.670   3.157  0.7483 -0.0718 -0.8301
 8207SOL     OW32599   3.241   1.484   3.511 -0.7820 -0.3725  0.2177
 8207SOL    HW232600   3.177   1.510   3.445 -0.1894  0.0379 -0.1961
 8207SOL    HW332601   3.220   1.538   3.587 -0.2835  0.5132 -0.2569
 8207SOL    MW432602   3.230   1.494   3.512 -0.6380 -0.2015  0.1005
 8208SOL     OW32603   5.871   0.506   0.548  0.2555  0.0933  0.1416
 8208SOL    HW232604   5.957   0.518   0.508  1.0641 -0.9839  1.4480
 8208SOL    HW332605   5.874   0.418   0.585 -1.6865 -0.2359 -0.3802
 8208SOL    MW432606   5.883   0.496   0.548  0.1059 -0.0922  0.2451
 8209SOL     OW32607   1.651   0.570   1.129 -0.5254 -0.0886 -0.1613
 8209SOL    HW232608   1.630   0.483   1.162 -1.2838 -0.0324 -0.4728
 8209SOL    HW332609   1.578   0.624   1.157 -0.5443  0.2354 -0.8188
 8209SOL    MW432610   1.639   0.566   1.137 -0.6280 -0.0384 -0.2892
 8210SOL     OW32611   0.580   2.672   3.175 -0.1946  0.1413 -0.4381
 8210SOL    HW232612   0.543   2.726   3.245  1.1973 -0.1133  0.5284
 8210SOL    HW332613   0.666   2.711   3.158  0.1225 -0.7411 -0.9217
 8210SOL    MW432614   0.587   2.685   3.182  0.0309 -0.0087 -0.3744
 8211SOL     OW32615   3.432   2.409   5.411  0.1820  0.5446  0.4256
 8211SOL    HW232616   3.362   2.398   5.347  0.1240 -0.1503  0.6004
 8211SOL    HW332617   3.504   2.447   5.361  0.1016  0.1041 -0.0320
 8211SOL    MW432618   3.432   2.412   5.396  0.1637  0.3948  0.3883
 8212SOL     OW32619   3.135   2.860   4.538 -0.0037 -0.3242  0.1804
 8212SOL    HW232620   3.070   2.930   4.535 -1.0276 -1.2784 -1.0452
 8212SOL    HW332621   3.105   2.803   4.608 -1.1086 -1.2898 -1.0265
 8212SOL    MW432622   3.123   2.862   4.547 -0.2846 -0.5775 -0.1405
 8213SOL     OW32623   0.649   3.198   0.537  0.2917 -0.3996 -0.8229
 8213SOL    HW232624   0.688   3.265   0.593  0.9788 -0.1459 -1.6002
 8213SOL    HW332625   0.583   3.157   0.593  0.2287  0.5591 -0.1615
 8213SOL    MW432626   0.645   3.202   0.552  0.3741 -0.2397 -0.8382
 8214SOL     OW32627   1.665   6.312   3.943  0.2770  0.1723 -0.1018
 8214SOL    HW232628   1.605   6.383   3.966 -1.3957 -1.2856  0.2268
 8214SOL    HW332629   1.632   6.236   3.991  0.3521 -1.5088 -2.5325
 8214SOL    MW432630   1.652   6.311   3.953  0.0662 -0.2418 -0.3792
 8215SOL     OW32631   0.014   4.562   5.742  0.1626  0.2663  0.2103
 8215SOL    HW232632   0.061   4.597   5.667 -0.5160  1.2317  0.2135
 8215SOL    HW332633  -0.067   4.526   5.706  0.7947 -1.2357  0.2245
 8215SOL    MW432634   0.009   4.562   5.727  0.1565  0.1955  0.2126
 8216SOL     OW32635   4.520   1.048   4.359  0.8358 -0.3573  0.3254
 8216SOL    HW232636   4.430   1.081   4.369  0.4778 -1.4027  0.6592
 8216SOL    HW332637   4.532   0.989   4.433  1.4725 -0.9526 -0.2404
 8216SOL    MW432638   4.510   1.045   4.370  0.8726 -0.5738  0.2948
 8217SOL     OW32639   5.545   1.009   0.664  0.4123 -0.1199 -0.5803
 8217SOL    HW232640   5.494   1.069   0.610 -1.4346 -1.3154 -0.2418
 8217SOL    HW332641   5.603   1.066   0.715  0.6043  1.1628 -2.1442
 8217SOL    MW432642   5.546   1.025   0.664  0.1940 -0.1084 -0.7419
 8218SOL     OW32643   6.054   1.933   0.760 -0.5804  0.0744  0.4741
 8218SOL    HW232644   6.149   1.937   0.758 -0.6059  0.6527 -0.9222
 8218SOL    HW332645   6.025   2.019   0.731 -1.4787 -0.7715 -1.3827
 8218SOL    MW432646   6.063   1.945   0.756 -0.7023  0.0391  0.0449
 8219SOL     OW32647   0.385   0.333   2.100 -0.0726 -0.1886  0.6837
 8219SOL    HW232648   0.408   0.399   2.035 -1.2050 -0.3236  0.1292
 8219SOL    HW332649   0.398   0.377   2.184  0.7143  0.2143  0.3622
 8219SOL    MW432650   0.390   0.348   2.103 -0.1182 -0.1533  0.5681
 8220SOL     OW32651   3.516   5.331   2.036 -0.0449  0.5370  0.0500
 8220SOL    HW232652   3.447   5.349   1.974 -0.6170  0.4290  0.6424
 8220SOL    HW332653   3.482   5.361   2.120  0.3041 -0.2318  0.4848
 8220SOL    MW432654   3.503   5.337   2.039 -0.0744  0.4213  0.1855
 8221SOL     OW32655   3.108   5.855   6.423 -1.1348 -0.5448  0.2026
 8221SOL    HW232656   3.168   5.782   6.442  0.1068  0.0634 -1.1805
 8221SOL    HW332657   3.031   5.837   6.477 -0.8971 -2.9138 -0.1272
 8221SOL    MW432658   3.106   5.843   6.433 -0.9396 -0.7771 -0.0234
 8222SOL     OW32659   5.392   6.425   5.946 -0.0658 -0.1968  0.3033
 8222SOL    HW232660   5.409   6.332   5.930  0.0989 -0.0594 -0.3264
 8222SOL    HW332661   5.460   6.452   6.009  0.4990 -0.2628 -0.2707
 8222SOL    MW432662   5.403   6.416   5.952  0.0304 -0.1874  0.1445
 8223SOL     OW32663   1.188   5.750   1.617 -0.0501 -0.1680 -0.5913
 8223SOL    HW232664   1.184   5.662   1.580 -1.9644 -0.8323  0.9955
 8223SOL    HW332665   1.261   5.792   1.572  1.4482 -2.8120 -0.8245
 8223SOL    MW432666   1.197   5.744   1.606 -0.1050 -0.6045 -0.4127
 8224SOL     OW32667   3.853   5.036   0.958 -0.2041  0.5912  0.2773
 8224SOL    HW232668   3.800   5.113   0.976 -1.2418  0.4026 -1.6209
 8224SOL    HW332669   3.865   5.038   0.863  3.5740  0.8086  0.6371
 8224SOL    MW432670   3.847   5.046   0.948  0.1575  0.5950  0.0743
 8225SOL     OW32671   2.765   0.428   1.336 -0.0167  0.4311 -0.4941
 8225SOL    HW232672   2.779   0.340   1.370 -2.6951  0.6295  1.3879
 8225SOL    HW332673   2.852   0.469   1.339  0.5634 -0.7844  2.7450
 8225SOL    MW432674   2.778   0.422   1.341 -0.2935  0.2969  0.1816
 8226SOL     OW32675   3.064   1.464   4.360  0.2565 -0.2738  0.1865
 8226SOL    HW232676   3.065   1.501   4.272  1.5212 -2.9937 -1.0461
 8226SOL    HW332677   2.973   1.476   4.390 -0.6535 -0.7448 -2.1569
 8226SOL    MW432678   3.052   1.470   4.353  0.3033 -0.6948 -0.2853
 8227SOL     OW32679   0.742   6.232   0.661 -0.5501  0.7605 -0.0231
 8227SOL    HW232680   0.806   6.299   0.686  0.3578  0.0331 -0.3612
 8227SOL    HW332681   0.660   6.280   0.652 -0.1354  1.6544  0.7682
 8227SOL    MW432682   0.740   6.247   0.663 -0.3756  0.7825  0.0367
 8228SOL     OW32683   4.579   6.037   3.082 -0.0713  0.5230 -0.2791
 8228SOL    HW232684   4.601   6.081   3.000 -1.6108  1.7245 -0.0753
 8228SOL    HW332685   4.498   5.989   3.062 -0.5133  0.9139  0.5644
 8228SOL    MW432686   4.571   6.036   3.068 -0.3327  0.7331 -0.1409
 8229SOL     OW32687   1.251   3.423   1.662 -0.3824 -0.3919 -0.2937
 8229SOL    HW232688   1.167   3.415   1.616 -1.0202 -3.6719  1.1564
 8229SOL    HW332689   1.314   3.380   1.605  0.3430  1.7419 -1.2067
 8229SOL    MW432690   1.248   3.416   1.649 -0.3708 -0.5431 -0.2228
 8230SOL     OW32691   2.828   4.400   3.692  0.0381 -0.1459  0.1021
 8230SOL    HW232692   2.797   4.490   3.683  0.5322  0.3243  2.3398
 8230SOL    HW332693   2.904   4.395   3.633 -0.3653  0.7067 -0.5068
 8230SOL    MW432694   2.834   4.411   3.683  0.0501  0.0286  0.3170
 8231SOL     OW32695   0.923   4.922   0.959 -0.2767  0.8569  0.1389
 8231SOL    HW232696   0.827   4.916   0.958 -0.3741  2.0358  0.5413
 8231SOL    HW332697   0.946   4.966   0.877  0.2437 -2.5959 -1.7364
 8231SOL    MW432698   0.913   4.927   0.948 -0.2209  0.5569 -0.0554
 8232SOL     OW32699   5.007   3.316   2.039  0.3011 -0.2936 -0.5755
 8232SOL    HW232700   5.035   3.385   1.979 -0.5878  0.0452 -0.6171
 8232SOL    HW332701   4.965   3.251   1.983  0.1998 -0.3696 -0.4139
 8232SOL    MW432702   5.005   3.316   2.024  0.1705 -0.2589 -0.5596
 8233SOL     OW32703   6.200   6.396   1.896 -0.4969  0.4825  0.3599
 8233SOL    HW232704   6.276   6.337   1.890 -0.5840  0.3065  0.9481
 8233SOL    HW332705   6.227   6.474   1.847 -0.7884 -0.4559 -1.3905
 8233SOL    MW432706   6.214   6.399   1.889 -0.5469  0.3354  0.2066
 8234SOL     OW32707   1.916   6.016   0.203 -0.2995 -0.3315  0.3964
 8234SOL    HW232708   1.900   5.936   0.252 -0.9324  0.5529  1.6542
 8234SOL    HW332709   1.868   6.084   0.249 -0.0867  0.7243 -0.8668
 8234SOL    MW432710   1.908   6.014   0.215 -0.3549 -0.0755  0.3957
 8235SOL     OW32711   4.157   6.462   3.776 -0.3616  0.5354  0.0729
 8235SOL    HW232712   4.214   6.533   3.807  0.1048  0.3254 -0.2935
 8235SOL    HW332713   4.186   6.385   3.825  0.9340  0.0183 -1.4315
 8235SOL    MW432714   4.169   6.462   3.787 -0.1291  0.4394 -0.1739
 8236SOL     OW32715   0.072   3.330   4.596  0.2998  0.3543 -0.3463
 8236SOL    HW232716   0.035   3.244   4.575 -1.2343  1.0052 -0.4000
 8236SOL    HW332717   0.094   3.324   4.689 -1.3152  0.4215  0.0575
 8236SOL    MW432718   0.070   3.318   4.606 -0.1157  0.4491 -0.3001
 8237SOL     OW32719   2.554   0.229   1.562  0.1502  0.5905 -0.8654
 8237SOL    HW232720   2.593   0.210   1.647  1.1431  3.0416 -0.6833
 8237SOL    HW332721   2.628   0.226   1.501 -0.7660 -2.5390 -1.9757
 8237SOL    MW432722   2.569   0.226   1.565  0.1603  0.5010 -0.9879
 8238SOL     OW32723   6.056   5.806   2.241 -0.6724  0.3134 -0.2226
 8238SOL    HW232724   6.056   5.892   2.200 -0.5685  0.3513 -0.1429
 8238SOL    HW332725   6.036   5.822   2.333  1.0257  0.4345  0.1597
 8238SOL    MW432726   6.054   5.819   2.248 -0.4347  0.3343 -0.1616
 8239SOL     OW32727   1.590   3.791   0.781  0.1533 -0.0704  0.5959
 8239SOL    HW232728   1.582   3.847   0.704  0.8690  0.0991  0.6369
 8239SOL    HW332729   1.512   3.811   0.834  0.4049  0.8985  0.6127
 8239SOL    MW432730   1.579   3.801   0.778  0.2809  0.0798  0.6035
 8240SOL     OW32731   3.860   3.340   3.388  0.1866  0.0511 -0.2407
 8240SOL    HW232732   3.815   3.392   3.322 -1.2477  0.8030  1.2510
 8240SOL    HW332733   3.844   3.250   3.362 -1.1774  0.3206 -0.4352
 8240SOL    MW432734   3.852   3.335   3.376 -0.1826  0.1858 -0.0696
 8241SOL     OW32735   5.486   2.747   2.704 -0.2888  0.1083 -0.6784
 8241SOL    HW232736   5.476   2.755   2.609 -0.3472 -0.4800 -0.7238
 8241SOL    HW332737   5.423   2.811   2.739  0.1693  0.7662 -1.0343
 8241SOL    MW432738   5.476   2.756   2.696 -0.2361  0.1175 -0.7314
 8242SOL     OW32739   2.632   4.699   1.288  0.5920 -0.9303  0.1553
 8242SOL    HW232740   2.720   4.697   1.250  0.3677  0.0043 -0.4387
 8242SOL    HW332741   2.633   4.774   1.347 -0.0477 -0.4574 -0.4381
 8242SOL    MW432742   2.644   4.708   1.291  0.4780 -0.7446 -0.0014
 8243SOL     OW32743   6.136   5.193   6.136 -0.1726 -0.2306 -0.0128
 8243SOL    HW232744   6.111   5.185   6.228  2.2613 -1.3631  0.6312
 8243SOL    HW332745   6.092   5.119   6.093 -0.5233 -0.2732  0.4085
 8243SOL    MW432746   6.127   5.182   6.142  0.1022 -0.3856  0.1277
 8244SOL     OW32747   5.839   0.107   4.417 -0.1574 -0.4353  0.1240
 8244SOL    HW232748   5.821   0.043   4.486  3.0821 -1.8006 -0.1052
 8244SOL    HW332749   5.819   0.061   4.335  1.4335 -0.9332 -0.0108
 8244SOL    MW432750   5.834   0.092   4.415  0.4799 -0.6811  0.0760
 8245SOL     OW32751   6.265   0.464   2.576 -0.0466 -0.3111  0.0921
 8245SOL    HW232752   6.215   0.518   2.514  0.0653  0.1925  0.4323
 8245SOL    HW332753   6.346   0.513   2.590  0.6034 -1.1782 -0.5382
 8245SOL    MW432754   6.269   0.477   2.570  0.0540 -0.3591  0.0539
 8246SOL     OW32755   2.182   2.192   5.516  0.3316 -0.1367 -0.3402
 8246SOL    HW232756   2.271   2.215   5.489 -0.0046  0.7653 -0.7252
 8246SOL    HW332757   2.194   2.126   5.585  1.2306 -1.6522 -1.8697
 8246SOL    MW432758   2.196   2.186   5.522  0.4058 -0.2176 -0.5928
 8247SOL     OW32759   4.682   5.987   5.171  0.2172 -0.1623 -0.1580
 8247SOL    HW232760   4.719   5.900   5.156 -1.0602 -0.7662  0.0806
 8247SOL    HW332761   4.663   6.020   5.083  0.1558 -0.3736 -0.2251
 8247SOL    MW432762   4.685   5.980   5.157  0.0405 -0.2699 -0.1354
 8248SOL     OW32763   6.140   5.469   6.025 -0.0656  0.1794  0.0689
 8248SOL    HW232764   6.156   5.381   6.060  1.6519 -0.5045 -2.1476
 8248SOL    HW332765   6.046   5.471   6.007 -0.0943 -1.3238 -0.0870
 8248SOL    MW432766   6.130   5.458   6.027  0.1572 -0.1091 -0.2441
 8249SOL     OW32767   3.154   6.367   2.206 -0.6248 -0.4753  0.1049
 8249SOL    HW232768   3.084   6.338   2.263 -2.2148 -0.0307 -1.5294
 8249SOL    HW332769   3.174   6.456   2.235 -1.0786 -0.4294  0.2856
 8249SOL    MW432770   3.148   6.375   2.217 -0.8944 -0.4106 -0.0869
 8250SOL     OW32771   0.157   0.462   5.921  0.0326 -0.0427 -0.2345
 8250SOL    HW232772   0.119   0.448   5.834 -0.4586  1.7587 -0.3421
 8250SOL    HW332773   0.084   0.447   5.982 -0.3866  1.4431 -0.3276
 8250SOL    MW432774   0.142   0.458   5.918 -0.0875  0.3910 -0.2609
 8251SOL     OW32775   4.773   2.006   0.235  0.6312 -0.3502  0.1231
 8251SOL    HW232776   4.821   2.069   0.289 -0.4605 -0.0964  0.8568
 8251SOL    HW332777   4.726   2.060   0.172  0.5203 -0.5068  0.0724
 8251SOL    MW432778   4.773   2.022   0.234  0.4725 -0.3374  0.2132
 8252SOL     OW32779   3.675   6.478   5.077  0.3047 -0.1490 -0.3287
 8252SOL    HW232780   3.730   6.459   5.153  0.3285  0.5675 -0.1539
 8252SOL    HW332781   3.597   6.520   5.114  0.9295  1.4988 -0.7800
 8252SOL    MW432782   3.672   6.481   5.092  0.3903  0.1630 -0.3652
 8253SOL     OW32783   0.049   5.868   2.814  0.0627 -0.1596 -0.2417
 8253SOL    HW232784   0.100   5.789   2.793 -0.2011 -0.8336  1.4928
 8253SOL    HW332785   0.090   5.903   2.893  1.1726  2.4162 -1.8299
 8253SOL    MW432786   0.061   5.862   2.822  0.1743  0.0913 -0.2224
 8254SOL     OW32787   1.280   2.296   1.510  0.4222  0.0155  0.2050
 8254SOL    HW232788   1.283   2.389   1.534 -0.3305  0.7945 -2.4073
 8254SOL    HW332789   1.349   2.286   1.444 -0.3854 -0.9390 -0.5303
 8254SOL    MW432790   1.290   2.307   1.504  0.2163 -0.0076 -0.2367
 8255SOL     OW32791   0.440   2.303   2.146 -0.1230  0.6836  0.2416
 8255SOL    HW232792   0.521   2.330   2.102  0.7820  0.0479  1.4508
 8255SOL    HW332793   0.402   2.386   2.176  0.9906  0.8929  1.1594
 8255SOL    MW432794   0.446   2.318   2.144  0.1433  0.6273  0.5222
 8256SOL     OW32795   2.605   4.525   3.998 -0.1877 -0.0287 -0.0612
 8256SOL    HW232796   2.617   4.525   3.903 -0.3550  2.9646 -0.1809
 8256SOL    HW332797   2.675   4.469   4.031  0.3774 -0.4782 -1.9017
 8256SOL    MW432798   2.615   4.517   3.990 -0.1352  0.3069 -0.3198
 8257SOL     OW32799   0.075   4.042   5.847  0.0801 -0.0265 -0.2961
 8257SOL    HW232800   0.112   4.126   5.820 -1.2749 -0.0610 -2.5583
 8257SOL    HW332801  -0.020   4.055   5.844 -0.1760 -0.9711  1.7675
 8257SOL    MW432802   0.067   4.055   5.843 -0.1325 -0.1557 -0.3223
 8258SOL     OW32803   1.641   1.734   2.206 -0.1037 -0.0559  1.0303
 8258SOL    HW232804   1.705   1.759   2.273 -0.2658 -0.6477  1.4073
 8258SOL    HW332805   1.622   1.642   2.224  1.1225 -0.7499 -0.8298
 8258SOL    MW432806   1.647   1.725   2.217  0.0367 -0.2256  0.8346
 8259SOL     OW32807   3.262   5.859   2.974 -0.3341 -0.5852 -0.5769
 8259SOL    HW232808   3.284   5.941   3.018  0.4174 -0.0592 -1.8852
 8259SOL    HW332809   3.204   5.815   3.035  0.9872 -0.0834  1.1410
 8259SOL    MW432810   3.257   5.864   2.988 -0.0606 -0.4496 -0.5228
 8260SOL     OW32811   3.901   2.264   3.997  0.5035 -0.6764  0.0426
 8260SOL    HW232812   3.833   2.211   4.040 -0.3960  0.9808  0.7602
 8260SOL    HW332813   3.874   2.267   3.905  0.1084 -0.7859  0.1534
 8260SOL    MW432814   3.888   2.258   3.990  0.3327 -0.4722  0.1519
 8261SOL     OW32815   5.647   2.463   4.128  0.1769 -1.2946 -0.4866
 8261SOL    HW232816   5.730   2.426   4.099  0.8493  0.0605 -0.3521
 8261SOL    HW332817   5.581   2.422   4.071  1.2995  0.2759 -3.0969
 8261SOL    MW432818   5.649   2.453   4.116  0.4137 -0.9086 -0.8132
 8262SOL     OW32819   5.187   1.927   1.466  0.0675 -0.2095  0.3119
 8262SOL    HW232820   5.229   1.852   1.423  0.7421  0.3088  0.0577
 8262SOL    HW332821   5.255   1.994   1.469 -0.1605 -0.0104  1.6258
 8262SOL    MW432822   5.201   1.926   1.461  0.1264 -0.1148  0.4517
 8263SOL     OW32823   3.549   5.748   4.574  0.0830  0.0445  0.5827
 8263SOL    HW232824   3.643   5.754   4.558 -0.0222  1.8594  0.4119
 8263SOL    HW332825   3.509   5.774   4.492 -0.5485  0.1414  0.9181
 8263SOL    MW432826   3.556   5.752   4.561 -0.0142  0.2967  0.6044
 8264SOL     OW32827   3.322   0.055   4.819  0.4229 -0.3287 -0.0383
 8264SOL    HW232828   3.233   0.085   4.800 -0.0567 -2.3384 -1.2448
 8264SOL    HW332829   3.378   0.115   4.769 -0.3356  0.1301 -0.3679
 8264SOL    MW432830   3.317   0.067   4.810  0.2596 -0.5333 -0.2410
 8265SOL     OW32831   5.445   4.595   0.568 -0.2938  0.0945  0.6783
 8265SOL    HW232832   5.350   4.593   0.582 -0.5038 -2.8480 -0.4080
 8265SOL    HW332833   5.478   4.521   0.619  0.9168 -0.9623 -1.4978
 8265SOL    MW432834   5.437   4.585   0.577 -0.1618 -0.4332  0.2479
 8266SOL     OW32835   2.711   6.334   5.323  0.2509  0.4224  0.0761
 8266SOL    HW232836   2.700   6.367   5.234  1.7490  0.3399 -0.1656
 8266SOL    HW332837   2.757   6.251   5.312  1.3053  0.8753  0.9769
 8266SOL    MW432838   2.715   6.327   5.310  0.5877  0.4712  0.1631
 8267SOL     OW32839   2.440   5.697   5.500  0.3134  0.0865 -0.4650
 8267SOL    HW232840   2.420   5.789   5.517 -0.5680 -0.0303 -0.8072
 8267SOL    HW332841   2.532   5.697   5.475  0.9727  0.5898  1.7019
 8267SOL    MW432842   2.450   5.709   5.499  0.2841  0.1375 -0.2243
 8268SOL     OW32843   3.408   4.768   6.187  0.2986  0.5485 -0.7764
 8268SOL    HW232844   3.463   4.730   6.256 -0.4725  1.4627  0.3905
 8268SOL    HW332845   3.357   4.694   6.154  0.9786  0.0188 -0.6631
 8268SOL    MW432846   3.409   4.753   6.192  0.2866  0.5992 -0.6075
 8269SOL     OW32847   6.286   1.522   1.751 -0.5560  0.1051  0.7732
 8269SOL    HW232848   6.251   1.442   1.791  0.1626 -0.9776 -0.6847
 8269SOL    HW332849   6.377   1.501   1.731  0.4400  2.1832  2.6523
 8269SOL    MW432850   6.293   1.508   1.754 -0.3298  0.2364  0.8287
 8270SOL     OW32851   2.154   6.185   4.756  0.2499  0.2096  0.2642
 8270SOL    HW232852   2.247   6.187   4.779  0.3426  0.4559 -0.1273
 8270SOL    HW332853   2.110   6.166   4.839  0.5857  1.0927  0.6585
 8270SOL    MW432854   2.161   6.183   4.770  0.3064  0.3586  0.2646
 8271SOL     OW32855   6.244   1.666   6.232 -0.5584  0.5482 -0.3548
 8271SOL    HW232856   6.234   1.719   6.311 -1.8058 -1.9795  1.3501
 8271SOL    HW332857   6.157   1.662   6.193 -0.3090  0.4336 -0.9181
 8271SOL    MW432858   6.231   1.672   6.238 -0.6901  0.1996 -0.2042
 8272SOL     OW32859   4.588   3.122   5.589 -0.0500  0.2007 -0.0138
 8272SOL    HW232860   4.512   3.103   5.644  0.6272  0.8568  1.1922
 8272SOL    HW332861   4.572   3.210   5.557 -0.0352  0.1403 -0.1885
 8272SOL    MW432862   4.576   3.131   5.592  0.0413  0.2793  0.1223
 8273SOL     OW32863   4.520   2.621   3.999  0.7223  0.5078 -0.1646
 8273SOL    HW232864   4.579   2.690   3.970 -1.3497  2.2121 -0.6051
 8273SOL    HW332865   4.473   2.658   4.073 -1.7219  0.3602 -1.5073
 8273SOL    MW432866   4.521   2.635   4.005  0.1265  0.7132 -0.3999
 8274SOL     OW32867   1.902   1.888   3.166  0.2489  0.2281  0.0752
 8274SOL    HW232868   1.943   1.873   3.081  1.7405  1.3166  0.5568
 8274SOL    HW332869   1.954   1.957   3.206 -0.4403 -0.2266  1.8746
 8274SOL    MW432870   1.914   1.895   3.160  0.3547  0.3117  0.3762
 8275SOL     OW32871   2.079   5.889   5.311  0.1013  0.0212 -0.4697
 8275SOL    HW232872   2.000   5.876   5.363 -0.3192 -1.1088 -1.3257
 8275SOL    HW332873   2.047   5.927   5.229  0.6942  1.3562 -0.0966
 8275SOL    MW432874   2.065   5.892   5.307  0.1241  0.0483 -0.5334
 8276SOL     OW32875   3.899   4.886   1.870  0.0944 -0.6297 -0.2382
 8276SOL    HW232876   3.845   4.900   1.948 -0.3492  0.9352 -0.7860
 8276SOL    HW332877   3.837   4.872   1.799  0.4387 -0.2739 -0.6159
 8276SOL    MW432878   3.884   4.886   1.871  0.0813 -0.3763 -0.3603
 8277SOL     OW32879   4.447   1.148   1.934  0.1207  0.0932  0.3124
 8277SOL    HW232880   4.473   1.122   1.845 -0.1379 -0.0575  0.2804
 8277SOL    HW332881   4.528   1.176   1.976  0.5447 -1.5438  0.6301
 8277SOL    MW432882   4.461   1.148   1.927  0.1425 -0.1427  0.3501
 8278SOL     OW32883   1.129   6.481   2.094 -0.1276  0.0567 -0.9153
 8278SOL    HW232884   1.103   6.554   2.038 -0.7329 -0.2263 -1.0122
 8278SOL    HW332885   1.194   6.518   2.154 -1.8907  1.1828  0.3781
 8278SOL    MW432886   1.134   6.496   2.095 -0.4401  0.1679 -0.7574
 8279SOL     OW32887   4.830   5.270   3.371 -0.1915 -0.1871  0.0916
 8279SOL    HW232888   4.823   5.227   3.457 -0.8112  0.1381  0.2098
 8279SOL    HW332889   4.848   5.361   3.392 -0.3334 -0.1101 -0.1228
 8279SOL    MW432890   4.831   5.276   3.385 -0.2920 -0.1340  0.0789
 8280SOL     OW32891   5.696   3.822   1.316 -0.0612  0.1079 -0.4577
 8280SOL    HW232892   5.706   3.750   1.253 -0.0430  1.0868 -1.5925
 8280SOL    HW332893   5.659   3.894   1.266  2.6043  1.8979 -0.1107
 8280SOL    MW432894   5.693   3.822   1.301  0.2929  0.4732 -0.5616
 8281SOL     OW32895   4.255   4.243   3.916  0.0212  0.3723 -0.1595
 8281SOL    HW232896   4.242   4.222   3.823  0.2828 -3.9769  0.5744
 8281SOL    HW332897   4.182   4.201   3.961  0.6931  1.1237  1.7559
 8281SOL    MW432898   4.243   4.235   3.909  0.1443 -0.1024  0.1901
 8282SOL     OW32899   5.191   3.604   4.327  0.5064 -0.0769  0.1878
 8282SOL    HW232900   5.122   3.621   4.391  0.5908  2.5340 -0.2870
 8282SOL    HW332901   5.172   3.664   4.255  1.9592 -0.9837 -1.0094
 8282SOL    MW432902   5.180   3.614   4.326  0.7092  0.1479 -0.0328
 8283SOL     OW32903   1.455   3.834   4.148 -0.3965 -0.3520  0.5158
 8283SOL    HW232904   1.527   3.898   4.156 -0.2164 -0.1278 -1.9821
 8283SOL    HW332905   1.394   3.858   4.217  1.7559 -0.3644  2.5504
 8283SOL    MW432906   1.457   3.846   4.158 -0.0887 -0.3241  0.4547
 8284SOL     OW32907   6.183   5.023   0.827  0.2094  0.1574  0.7921
 8284SOL    HW232908   6.231   5.060   0.752  0.0006  0.2458  0.7006
 8284SOL    HW332909   6.165   4.933   0.801 -0.4607  0.3840  0.4422
 8284SOL    MW432910   6.187   5.016   0.813  0.0935  0.1990  0.7338
 8285SOL     OW32911   2.022   5.363   0.571 -0.3578  0.3950 -0.0150
 8285SOL    HW232912   2.002   5.289   0.630 -0.6250  0.9827  0.6415
 8285SOL    HW332913   1.945   5.368   0.514 -0.5100  0.3957  0.1859
 8285SOL    MW432914   2.009   5.354   0.572 -0.4131  0.4726  0.0981
 8286SOL     OW32915   2.731   3.479   1.644  0.0137  0.4186 -0.0476
 8286SOL    HW232916   2.712   3.492   1.551  0.8161  2.4920  0.0247
 8286SOL    HW332917   2.664   3.529   1.689  0.4877  0.6312  0.4356
 8286SOL    MW432918   2.720   3.488   1.638  0.1821  0.7202  0.0257
 8287SOL     OW32919   1.764   0.974   0.255 -0.1722 -0.0378 -0.1361
 8287SOL    HW232920   1.701   0.939   0.192  0.8480 -2.3787  0.0552
 8287SOL    HW332921   1.840   0.917   0.247  1.4465  1.9197  0.5834
 8287SOL    MW432922   1.765   0.962   0.246  0.1759 -0.0884 -0.0160
 8288SOL     OW32923   2.102   0.166   4.286 -0.5673 -0.5322  0.0663
 8288SOL    HW232924   2.175   0.129   4.336  0.1789 -0.2907 -0.8076
 8288SOL    HW332925   2.144   0.206   4.209 -1.6987 -1.0790 -0.8547
 8288SOL    MW432926   2.117   0.167   4.282 -0.6181 -0.5725 -0.1705
 8289SOL     OW32927   2.662   6.181   0.345  0.0687  1.1140  0.2009
 8289SOL    HW232928   2.725   6.137   0.401 -0.1661  1.0105  0.3893
 8289SOL    HW332929   2.619   6.245   0.402  0.0649  1.2443  0.0537
 8289SOL    MW432930   2.664   6.183   0.360  0.0372  1.1176  0.2063
 8290SOL     OW32931   3.608   2.664   5.984  0.2863  0.1723  0.2213
 8290SOL    HW232932   3.523   2.653   6.026 -0.9728  2.4645 -1.5490
 8290SOL    HW332933   3.653   2.730   6.037 -0.3805  1.3520 -0.6365
 8290SOL    MW432934   3.603   2.671   5.996  0.0322  0.6304 -0.1254
 8291SOL     OW32935   1.971   4.311   2.333  0.4038  0.0769 -0.5011
 8291SOL    HW232936   1.933   4.307   2.246 -0.5091  1.3352 -0.1823
 8291SOL    HW332937   2.056   4.354   2.321  0.2029  0.4037 -0.7480
 8291SOL    MW432938   1.977   4.316   2.320  0.2569  0.2860 -0.4916
 8292SOL     OW32939   3.773   1.215   5.945 -0.2096  0.0782  0.2293
 8292SOL    HW232940   3.866   1.233   5.958 -0.0938 -1.4733  2.1917
 8292SOL    HW332941   3.732   1.237   6.029 -1.5324  0.2602 -0.4339
 8292SOL    MW432942   3.780   1.220   5.958 -0.3688 -0.1025  0.4007
 8293SOL     OW32943   5.999   6.366   5.990  0.1350 -0.0854  0.2588
 8293SOL    HW232944   6.011   6.401   5.902  1.8869 -0.1766  0.4116
 8293SOL    HW332945   6.002   6.271   5.979 -3.0814 -0.2714  0.0396
 8293SOL    MW432946   6.001   6.358   5.977 -0.0582 -0.1219  0.2500
 8294SOL     OW32947   5.561   0.929   2.050  0.1479 -0.0574  0.0296
 8294SOL    HW232948   5.535   1.017   2.077 -0.0887  0.1018 -0.6958
 8294SOL    HW332949   5.654   0.924   2.071  0.4639  0.8135 -1.0295
 8294SOL    MW432950   5.570   0.940   2.056  0.1584  0.0785 -0.2058
 8295SOL     OW32951   1.643   0.894   5.991  0.1415  0.4100  0.5365
 8295SOL    HW232952   1.574   0.875   5.927 -0.5146  0.6539  1.1532
 8295SOL    HW332953   1.719   0.916   5.938 -0.2078 -0.0122 -0.1633
 8295SOL    MW432954   1.644   0.895   5.975  0.0089  0.3865  0.5255
 8296SOL     OW32955   6.287   3.793   1.679 -0.5888 -0.3313  0.6047
 8296SOL    HW232956   6.269   3.756   1.766  0.5923 -2.9514 -0.1739
 8296SOL    HW332957   6.277   3.719   1.619 -0.3056  1.1688 -1.3880
 8296SOL    MW432958   6.283   3.778   1.683 -0.3956 -0.4791  0.2391
 8297SOL     OW32959   0.725   0.143   3.763  0.3611  0.3437  0.2248
 8297SOL    HW232960   0.671   0.107   3.692  1.3544  0.5159 -0.6524
 8297SOL    HW332961   0.666   0.149   3.838  0.2229 -3.4055  0.5628
 8297SOL    MW432962   0.710   0.139   3.763  0.4739 -0.1282  0.1536
 8298SOL     OW32963   2.479   5.580   1.754 -0.1416 -0.3172  0.3824
 8298SOL    HW232964   2.391   5.542   1.765 -0.5534 -0.0974 -1.6941
 8298SOL    HW332965   2.465   5.674   1.762  0.2199 -0.3466  1.6455
 8298SOL    MW432966   2.465   5.587   1.757 -0.1483 -0.2921  0.2751
 8299SOL     OW32967   5.492   2.016   3.426  0.0936  0.0538  0.1899
 8299SOL    HW232968   5.568   1.986   3.376 -0.0853 -0.4608  0.2257
 8299SOL    HW332969   5.489   1.958   3.502  0.1480  0.5988  0.6163
 8299SOL    MW432970   5.502   2.005   3.429  0.0772  0.0578  0.2508
 8300SOL     OW32971   6.270   3.802   2.436 -0.2131 -0.0173  0.6248
 8300SOL    HW232972   6.244   3.874   2.494  0.3010  0.2499  0.5228
 8300SOL    HW332973   6.306   3.736   2.495 -1.7895 -0.7225  0.8633
 8300SOL    MW432974   6.271   3.803   2.451 -0.3532 -0.0751  0.6428
 8301SOL     OW32975   3.267   0.136   5.080  0.3092 -0.0700  0.2450
 8301SOL    HW232976   3.347   0.154   5.130  0.1399  0.0115  0.4901
 8301SOL    HW332977   3.297   0.129   4.989  0.5679  0.1601  0.3089
 8301SOL    MW432978   3.282   0.138   5.075  0.3210 -0.0289  0.2857
 8302SOL     OW32979   2.193   1.332   3.566 -0.5778  0.3499 -0.2897
 8302SOL    HW232980   2.193   1.277   3.644 -0.2042  0.6627 -0.0617
 8302SOL    HW332981   2.127   1.399   3.584  1.5816  2.2822  1.1390
 8302SOL    MW432982   2.184   1.334   3.579 -0.2436  0.6461 -0.0711
 8303SOL     OW32983   1.971   0.540   1.892  0.2084  0.7825  0.4228
 8303SOL    HW232984   1.906   0.470   1.904 -0.1771  1.0455 -0.1188
 8303SOL    HW332985   1.920   0.618   1.875  0.6661  0.9921 -0.0312
 8303SOL    MW432986   1.956   0.541   1.891  0.2179  0.8449  0.2914
 8304SOL     OW32987   2.360   1.233   6.119  0.2845 -0.1157 -1.2790
 8304SOL    HW232988   2.446   1.264   6.146 -0.2136  0.0451  0.2353
 8304SOL    HW332989   2.339   1.162   6.181 -0.4710 -0.4737 -1.9184
 8304SOL    MW432990   2.368   1.227   6.131  0.1191 -0.1418 -1.1636
 8305SOL     OW32991   1.174   0.298   6.057 -0.1274 -0.1530 -0.1533
 8305SOL    HW232992   1.161   0.273   5.966  0.8367 -0.1800 -0.2961
 8305SOL    HW332993   1.213   0.221   6.098 -0.3329 -0.0571  0.2299
 8305SOL    MW432994   1.177   0.285   6.051 -0.0273 -0.1439 -0.1216
 8306SOL     OW32995   2.050   4.845   2.300  0.2984 -0.6106 -0.2371
 8306SOL    HW232996   2.092   4.796   2.229 -0.1238  0.4603 -1.2532
 8306SOL    HW332997   2.037   4.933   2.264 -0.7219 -0.2910  0.8571
 8306SOL    MW432998   2.054   4.850   2.286  0.1081 -0.4271 -0.2268
 8307SOL     OW32999   0.035   4.483   6.077  0.5526 -0.0341  0.1910
 8307SOL    HW233000  -0.003   4.535   6.147  1.2807 -0.4794  0.9342
 8307SOL    HW333001  -0.034   4.420   6.054  0.0075  0.6493 -0.0838
 8307SOL    MW433002   0.021   4.481   6.083  0.5767 -0.0027  0.2528
 8308SOL     OW33003   5.934   0.943   0.579  0.7937  0.2439  0.3846
 8308SOL    HW233004   5.859   0.887   0.599  0.4567 -0.5064 -2.4920
 8308SOL    HW333005   5.922   1.020   0.635 -1.4515 -0.4091  0.8974
 8308SOL    MW433006   5.922   0.946   0.589  0.4530  0.0587  0.0727
 8309SOL     OW33007   3.460   4.869   2.400  0.0438  0.1628  0.1523
 8309SOL    HW233008   3.477   4.955   2.363 -0.7914 -0.3714 -1.5538
 8309SOL    HW333009   3.533   4.815   2.372 -0.4485 -0.1724 -0.5146
 8309SOL    MW433010   3.472   4.874   2.392 -0.1314  0.0481 -0.1608
 8310SOL     OW33011   2.449   5.326   0.739 -0.6085  0.3063 -0.3603
 8310SOL    HW233012   2.531   5.329   0.690 -0.7549  1.2744 -0.5630
 8310SOL    HW333013   2.397   5.398   0.703 -2.0745 -1.0692 -1.1428
 8310SOL    MW433014   2.453   5.336   0.728 -0.8213  0.2526 -0.4903
 8311SOL     OW33015   6.244   6.138   1.268  0.2370 -0.3986 -0.1440
 8311SOL    HW233016   6.230   6.174   1.355  0.2764  1.0644 -0.7201
 8311SOL    HW333017   6.156   6.115   1.237  0.1097  0.1042 -0.1495
 8311SOL    MW433018   6.230   6.139   1.275  0.2254 -0.1392 -0.2207
 8312SOL     OW33019   4.720   0.729   2.670 -0.3887 -0.1310  0.5357
 8312SOL    HW233020   4.748   0.719   2.761 -1.8950  0.7734  1.1442
 8312SOL    HW333021   4.772   0.801   2.636 -0.3848  0.0557  0.9374
 8312SOL    MW433022   4.730   0.737   2.678 -0.5870  0.0130  0.6689
 8313SOL     OW33023   5.437   5.163   0.853 -0.0848  0.2973  0.2851
 8313SOL    HW233024   5.438   5.105   0.929  0.2233 -0.0405  0.0268
 8313SOL    HW333025   5.510   5.132   0.799 -1.3611 -0.6076 -0.9976
 8313SOL    MW433026   5.447   5.151   0.856 -0.2125  0.1333  0.0818
 8314SOL     OW33027   4.288   5.468   5.966 -0.0036  0.0300 -0.1943
 8314SOL    HW233028   4.326   5.549   5.932  1.3191 -0.4412  0.0875
 8314SOL    HW333029   4.363   5.419   6.000 -1.1268  0.1154  2.6680
 8314SOL    MW433030   4.303   5.472   5.966  0.0227 -0.0209  0.2205
 8315SOL     OW33031   2.716   6.251   3.124  0.2801 -0.5566 -0.0373
 8315SOL    HW233032   2.656   6.325   3.122 -1.1079 -1.5743  1.6186
 8315SOL    HW333033   2.800   6.287   3.093 -0.3625  1.6545  0.6491
 8315SOL    MW433034   2.719   6.265   3.119  0.0121 -0.3992  0.2717
 8316SOL     OW33035   0.477   2.166   3.506  0.0470 -0.1182  0.6783
 8316SOL    HW233036   0.390   2.127   3.514 -0.4608  0.7602 -0.2809
 8316SOL    HW333037   0.501   2.191   3.596 -1.9547  2.2245  0.6644
 8316SOL    MW433038   0.469   2.164   3.519 -0.2841  0.3068  0.5499
 8317SOL     OW33039   5.509   0.570   2.751 -0.3334  0.0529 -0.6459
 8317SOL    HW233040   5.425   0.577   2.796 -0.1355 -0.2863 -0.2110
 8317SOL    HW333041   5.574   0.591   2.819 -0.0263 -0.5782 -0.7340
 8317SOL    MW433042   5.507   0.573   2.766 -0.2668 -0.0751 -0.6001
 8318SOL     OW33043   4.477   1.760   1.380  0.0492 -0.4546 -0.6869
 8318SOL    HW233044   4.488   1.816   1.302  1.1983 -0.8604 -0.8399
 8318SOL    HW333045   4.441   1.819   1.446  1.2475  0.5085 -0.8397
 8318SOL    MW433046   4.474   1.775   1.378  0.3590 -0.3811 -0.7272
 8319SOL     OW33047   3.964   3.344   2.894  0.0226 -0.3549 -0.2223
 8319SOL    HW233048   3.982   3.413   2.958 -1.8857 -0.7889  0.8489
 8319SOL    HW333049   3.940   3.391   2.814  0.8781  0.1879 -0.1788
 8319SOL    MW433050   3.963   3.359   2.892 -0.1163 -0.3406 -0.0753
 8320SOL     OW33051   2.997   4.598   1.562 -0.2153  0.2354  0.1232
 8320SOL    HW233052   2.939   4.672   1.543 -0.0328  0.6817  1.1910
 8320SOL    HW333053   3.085   4.634   1.552 -0.1260  0.0423  0.2189
 8320SOL    MW433054   3.001   4.613   1.558 -0.1794  0.2688  0.2767
 8321SOL     OW33055   2.761   4.219   2.110 -0.5338  0.4670  0.2557
 8321SOL    HW233056   2.686   4.204   2.052  0.1638  0.6171 -0.7189
 8321SOL    HW333057   2.761   4.144   2.169 -1.3192  0.3526  0.1226
 8321SOL    MW433058   2.751   4.207   2.110 -0.5454  0.4717  0.1096
 8322SOL     OW33059   2.898   3.266   5.441  0.2201  0.2046 -0.0825
 8322SOL    HW233060   2.987   3.252   5.475 -0.2636  0.7664  1.5015
 8322SOL    HW333061   2.853   3.314   5.510 -1.4994 -0.5548 -0.6081
 8322SOL    MW433062   2.904   3.270   5.455 -0.0706  0.1786  0.0572
 8323SOL     OW33063   2.431   4.841   5.284  0.5279 -0.1147 -0.0698
 8323SOL    HW233064   2.451   4.932   5.264  1.5988 -0.7434 -2.1609
 8323SOL    HW333065   2.338   4.840   5.303  0.5784  1.4622  0.3966
 8323SOL    MW433066   2.422   4.853   5.284  0.6759  0.0104 -0.2842
 8324SOL     OW33067   1.030   5.272   3.903  0.0597 -0.0432  0.0243
 8324SOL    HW233068   1.004   5.334   3.835 -2.2177 -3.1724 -2.2216
 8324SOL    HW333069   0.963   5.279   3.970 -0.7563 -0.6945 -0.7018
 8324SOL    MW433070   1.018   5.281   3.902 -0.3484 -0.5420 -0.3678
 8325SOL     OW33071   3.527   2.338   4.277  0.2394  0.3061 -0.1451
 8325SOL    HW233072   3.457   2.394   4.243  0.1825  1.5001  1.8084
 8325SOL    HW333073   3.482   2.272   4.330  0.4719 -0.2731 -0.6456
 8325SOL    MW433074   3.512   2.337   4.279  0.2626  0.3872  0.0466
 8326SOL     OW33075   4.619   0.409   6.117 -0.2117  0.2139  0.1591
 8326SOL    HW233076   4.530   0.435   6.139  0.0833 -0.3409  2.1340
 8326SOL    HW333077   4.662   0.491   6.093 -1.9562  0.1957 -3.9423
 8326SOL    MW433078   4.613   0.423   6.117 -0.4029  0.1383 -0.1215
 8327SOL     OW33079   3.929   4.408   6.343  0.2191 -0.6879  0.1618
 8327SOL    HW233080   3.895   4.458   6.416  0.1591 -1.9943  1.0751
 8327SOL    HW333081   4.017   4.381   6.371  0.9404  0.3126 -1.0176
 8327SOL    MW433082   3.936   4.411   6.357  0.3064 -0.7282  0.1267
 8328SOL     OW33083   2.264   2.296   1.624  0.1569  0.2441 -0.0017
 8328SOL    HW233084   2.254   2.338   1.709  2.7285 -0.4022  0.6932
 8328SOL    HW333085   2.243   2.204   1.640 -1.1683  0.4367 -0.5239
 8328SOL    MW433086   2.260   2.289   1.637  0.3214  0.1843  0.0211
 8329SOL     OW33087   4.265   5.544   1.844 -0.6002 -0.1242  0.1721
 8329SOL    HW233088   4.286   5.451   1.848 -2.1015 -0.5095 -0.3943
 8329SOL    HW333089   4.199   5.557   1.911  0.3307  0.7702  0.9565
 8329SOL    MW433090   4.259   5.534   1.853 -0.6754 -0.0570  0.2009
 8330SOL     OW33091   4.838   3.425   4.487 -0.6919  0.7039  0.2843
 8330SOL    HW233092   4.915   3.481   4.487  0.6954 -1.1157  0.1235
 8330SOL    HW333093   4.815   3.415   4.580 -1.4098  2.0645  0.2831
 8330SOL    MW433094   4.845   3.431   4.499 -0.6036  0.6434  0.2629
 8331SOL     OW33095   4.026   5.829   0.540  0.2521  0.4146 -0.5289
 8331SOL    HW233096   4.111   5.813   0.498 -0.0974 -0.8728 -0.8023
 8331SOL    HW333097   3.979   5.884   0.478  0.9236  1.2621 -0.3114
 8331SOL    MW433098   4.031   5.834   0.526  0.2946  0.3565 -0.5363
 8332SOL     OW33099   4.662   5.675   3.536 -0.2839  0.0666 -0.0900
 8332SOL    HW233100   4.578   5.632   3.522  0.5959 -2.1572  0.9532
 8332SOL    HW333101   4.682   5.718   3.452 -3.1765  2.1695  0.1369
 8332SOL    MW433102   4.654   5.675   3.523 -0.5495  0.0506  0.0776
 8333SOL     OW33103   0.137   2.221   2.104  0.0903 -1.1179  0.5168
 8333SOL    HW233104   0.225   2.259   2.106 -0.2176 -0.2307 -1.0275
 8333SOL    HW333105   0.120   2.204   2.011 -2.0917  0.5531  0.5183
 8333SOL    MW433106   0.146   2.224   2.092 -0.2382 -0.7804  0.3132
 8334SOL     OW33107   5.698   1.338   3.045 -0.0049  0.4026  0.5652
 8334SOL    HW233108   5.639   1.273   3.006  1.4487  0.2342 -1.4929
 8334SOL    HW333109   5.766   1.286   3.088  0.5088  0.5267 -0.0691
 8334SOL    MW433110   5.699   1.322   3.045  0.2547  0.3968  0.2099
 8335SOL     OW33111   1.863   2.820   1.762  0.0281 -0.3290  0.4216
 8335SOL    HW233112   1.949   2.805   1.722 -0.6736  0.1293 -1.4000
 8335SOL    HW333113   1.882   2.847   1.852  2.0103  2.5122 -0.6819
 8335SOL    MW433114   1.877   2.822   1.768  0.1970  0.1064  0.0357
 8336SOL     OW33115   2.517   0.351   4.982  0.0153  0.1460  0.3013
 8336SOL    HW233116   2.515   0.385   5.071 -1.5599 -1.8060  1.0889
 8336SOL    HW333117   2.498   0.427   4.927  1.7831  1.5527  1.5167
 8336SOL    MW433118   2.514   0.366   4.987  0.0407  0.0741  0.5655
 8337SOL     OW33119   5.335   0.622   4.484  0.0128 -0.1337  0.1825
 8337SOL    HW233120   5.264   0.590   4.540 -1.1875  1.1606 -0.5211
 8337SOL    HW333121   5.378   0.690   4.537 -0.2214  0.1068  0.0665
 8337SOL    MW433122   5.331   0.627   4.499 -0.1765  0.0688  0.0744
 8338SOL     OW33123   6.065   0.332   4.215  0.3184  0.2617 -0.5216
 8338SOL    HW233124   6.096   0.362   4.130  0.4100  1.5917 -0.0385
 8338SOL    HW333125   5.978   0.372   4.225 -0.1373 -0.7189 -0.4245
 8338SOL    MW433126   6.058   0.341   4.205  0.2704  0.3078 -0.4450
 8339SOL     OW33127   0.291   4.846   0.839  0.6578 -0.1800 -0.2997
 8339SOL    HW233128   0.217   4.792   0.812  0.7567 -0.3436 -0.2462
 8339SOL    HW333129   0.353   4.784   0.878 -0.5554  0.3639  2.7139
 8339SOL    MW433130   0.289   4.831   0.840  0.5108 -0.1298  0.1050
 8340SOL     OW33131   4.138   4.987   1.030 -0.0042 -0.6156 -0.1030
 8340SOL    HW233132   4.162   5.017   0.942 -0.9306  1.7415  0.3831
 8340SOL    HW333133   4.044   5.000   1.035  0.2742  1.1083  1.8406
 8340SOL    MW433134   4.129   4.992   1.019 -0.0897 -0.0772  0.2176
 8341SOL     OW33135   5.942   2.657   2.936 -0.4088  0.3800 -0.1649
 8341SOL    HW233136   5.857   2.700   2.924 -1.0609 -1.0577 -0.9258
 8341SOL    HW333137   5.952   2.602   2.858  1.0040  0.1606  0.1532
 8341SOL    MW433138   5.932   2.656   2.924 -0.3084  0.1613 -0.2233
 8342SOL     OW33139   5.186   3.082   1.178  0.3926  0.1707 -0.0614
 8342SOL    HW233140   5.280   3.066   1.185  0.3877 -0.4411 -1.2063
 8342SOL    HW333141   5.159   3.036   1.099 -0.4430  2.3327 -1.1245
 8342SOL    MW433142   5.195   3.074   1.169  0.2817  0.3752 -0.3527
 8343SOL     OW33143   2.891   2.106   5.890  0.4041  0.1778 -0.0473
 8343SOL    HW233144   2.853   2.055   5.818 -0.1332  0.9135 -0.2999
 8343SOL    HW333145   2.846   2.075   5.968  0.3451  0.0063 -0.1487
 8343SOL    MW433146   2.880   2.095   5.891  0.3254  0.2522 -0.0940
 8344SOL     OW33147   0.326   0.563   1.850 -0.7457  0.1903  0.1009
 8344SOL    HW233148   0.305   0.606   1.934  0.4778  0.9567  0.0512
 8344SOL    HW333149   0.298   0.626   1.784 -1.5648 -0.3468 -0.0723
 8344SOL    MW433150   0.319   0.577   1.853 -0.6923  0.2205  0.0715
 8345SOL     OW33151   0.734   0.521   4.870  0.2788 -0.1331 -0.4134
 8345SOL    HW233152   0.689   0.537   4.953  0.2534  0.2969 -0.5051
 8345SOL    HW333153   0.819   0.564   4.881 -0.0156  0.5792 -0.8840
 8345SOL    MW433154   0.739   0.529   4.882  0.2366  0.0176 -0.4876
 8346SOL     OW33155   1.602   0.920   1.619  0.2514  0.2268 -0.0982
 8346SOL    HW233156   1.682   0.869   1.607  1.6519  2.3469 -0.3405
 8346SOL    HW333157   1.597   0.935   1.714 -0.2179 -0.4323 -0.0152
 8346SOL    MW433158   1.612   0.916   1.630  0.3742  0.4196 -0.1192
 8347SOL     OW33159   0.993   0.366   5.275 -0.0792 -0.1032 -0.4880
 8347SOL    HW233160   1.061   0.316   5.321 -0.2187 -0.6367 -0.8492
 8347SOL    HW333161   0.935   0.398   5.345  0.7436  0.6759 -0.1469
 8347SOL    MW433162   0.994   0.364   5.291  0.0110 -0.0708 -0.4907
 8348SOL     OW33163   1.182   1.590   0.325 -0.4848  0.0247 -0.0169
 8348SOL    HW233164   1.172   1.683   0.341  1.6981  0.6318 -1.7588
 8348SOL    HW333165   1.258   1.564   0.376 -0.3413 -0.5147 -0.4926
 8348SOL    MW433166   1.190   1.599   0.334 -0.1779  0.0336 -0.3095
 8349SOL     OW33167   4.986   0.109   0.436 -0.0352 -0.2444 -0.3798
 8349SOL    HW233168   5.055   0.060   0.391  0.1832  0.4677 -0.8341
 8349SOL    HW333169   4.911   0.106   0.376 -0.6862 -1.6982  0.4585
 8349SOL    MW433170   4.985   0.102   0.422 -0.0923 -0.3423 -0.3291
 8350SOL     OW33171   4.214   2.008   0.694  0.3121 -0.1728  0.6957
 8350SOL    HW233172   4.145   2.067   0.725  0.8832 -0.1879  2.0744
 8350SOL    HW333173   4.201   1.928   0.746 -0.4445 -1.3010 -1.1304
 8350SOL    MW433174   4.203   2.005   0.705  0.2876 -0.3237  0.6367
 8351SOL     OW33175   2.249   5.254   5.215  0.2070 -0.2535  0.2013
 8351SOL    HW233176   2.251   5.275   5.308  0.5351  0.4490  0.0496
 8351SOL    HW333177   2.220   5.163   5.211  0.3453 -0.3422  0.9939
 8351SOL    MW433178   2.245   5.245   5.227  0.2685 -0.1725  0.2858
 8352SOL     OW33179   0.303   6.105   4.117 -0.0087  0.1171  0.1266
 8352SOL    HW233180   0.211   6.096   4.095  0.2748 -0.2372 -1.0118
 8352SOL    HW333181   0.322   6.033   4.177  0.1280 -1.4857 -1.7527
 8352SOL    MW433182   0.294   6.094   4.122  0.0468 -0.1411 -0.2715
 8353SOL     OW33183   0.748   1.356   2.484  0.0539 -0.1646 -0.4548
 8353SOL    HW233184   0.655   1.376   2.471 -0.0474 -0.7579 -0.6635
 8353SOL    HW333185   0.785   1.436   2.521 -0.8852 -0.4937  1.2827
 8353SOL    MW433186   0.741   1.369   2.487 -0.0833 -0.2863 -0.2531
 8354SOL     OW33187   1.072   5.540   2.682 -0.2365 -0.2914 -0.7337
 8354SOL    HW233188   1.140   5.555   2.616 -0.4930  1.7330 -0.5817
 8354SOL    HW333189   1.067   5.622   2.730  0.9978 -2.1402  2.8855
 8354SOL    MW433190   1.080   5.552   2.679 -0.1075 -0.2682 -0.2361
 8355SOL     OW33191   4.037   5.494   4.950 -0.4543 -0.1441 -0.3056
 8355SOL    HW233192   4.094   5.566   4.923 -0.6162 -0.1863 -0.7674
 8355SOL    HW333193   3.948   5.528   4.938 -0.5310 -0.4533 -0.6125
 8355SOL    MW433194   4.032   5.508   4.945 -0.4858 -0.1904 -0.4070
 8356SOL     OW33195   0.687   4.338   3.678  0.0963  0.2151  0.5474
 8356SOL    HW233196   0.761   4.337   3.618 -0.4170  0.0550 -0.0991
 8356SOL    HW333197   0.725   4.354   3.764  0.7783  1.1760  0.0819
 8356SOL    MW433198   0.702   4.340   3.682  0.1185  0.3207  0.4007
 8357SOL     OW33199   0.064   1.117   4.615 -0.0811 -0.3052 -0.2386
 8357SOL    HW233200  -0.027   1.131   4.588  0.0774  0.0080 -0.6382
 8357SOL    HW333201   0.094   1.204   4.644 -0.0355 -0.4947  0.2787
 8357SOL    MW433202   0.056   1.131   4.615 -0.0542 -0.2889 -0.2231
 8358SOL     OW33203   3.864   2.112   4.673  0.0790 -0.3352  0.0270
 8358SOL    HW233204   3.941   2.153   4.712 -0.9886  0.0517  1.8664
 8358SOL    HW333205   3.795   2.178   4.679  0.2262  0.5254 -4.4411
 8358SOL    MW433206   3.865   2.126   4.679 -0.0424 -0.1706 -0.3198
 8359SOL     OW33207   5.705   2.795   2.875 -0.3846  0.6648 -0.3930
 8359SOL    HW233208   5.736   2.881   2.848 -0.8835  0.7058 -0.8566
 8359SOL    HW333209   5.650   2.765   2.802 -0.3251  0.0125 -0.1832
 8359SOL    MW433210   5.702   2.802   2.862 -0.4425  0.5841 -0.4265
 8360SOL     OW33211   2.387   2.521   6.013 -0.4116 -0.1832 -0.3388
 8360SOL    HW233212   2.332   2.596   6.035  0.0982  0.4472 -1.1405
 8360SOL    HW333213   2.385   2.517   5.917 -0.6543 -1.3671 -0.2951
 8360SOL    MW433214   2.380   2.531   6.003 -0.3763 -0.2562 -0.4388
 8361SOL     OW33215   1.470   0.932   2.506 -0.3526  0.0498  0.3364
 8361SOL    HW233216   1.380   0.955   2.483 -0.8236 -1.6748  0.3641
 8361SOL    HW333217   1.485   0.976   2.590 -0.9761  0.7764  0.0836
 8361SOL    MW433218   1.460   0.941   2.514 -0.4970 -0.0819  0.3067
 8362SOL     OW33219   3.257   5.359   5.949 -0.1040 -0.2892  0.1522
 8362SOL    HW233220   3.225   5.382   5.861 -1.3343 -0.9467  0.3965
 8362SOL    HW333221   3.214   5.423   6.006  0.7999  0.2210  0.2772
 8362SOL    MW433222   3.247   5.371   5.945 -0.1471 -0.3086  0.2009
 8363SOL     OW33223   3.808   0.953   0.013  0.1904 -0.7018 -0.1888
 8363SOL    HW233224   3.776   0.863   0.003  0.0388 -0.6077 -0.5656
 8363SOL    HW333225   3.826   0.982  -0.076 -0.0106 -0.2669 -0.0924
 8363SOL    MW433226   3.806   0.945   0.000  0.1439 -0.6320 -0.2258
 8364SOL     OW33227   6.198   4.864   3.623  0.2464 -0.3920  0.2515
 8364SOL    HW233228   6.275   4.808   3.637  0.5260  0.4798  2.7195
 8364SOL    HW333229   6.159   4.873   3.709 -0.3580  2.3685 -0.2057
 8364SOL    MW433230   6.203   4.858   3.636  0.2035  0.0872  0.5168
 8365SOL     OW33231   3.040   2.349   0.748  0.2114 -0.4644 -0.4085
 8365SOL    HW233232   2.950   2.322   0.730  0.3986 -0.8264 -0.8125
 8365SOL    HW333233   3.031   2.425   0.806 -0.3185 -1.4290  0.8280
 8365SOL    MW433234   3.027   2.355   0.753  0.1662 -0.6394 -0.2987
 8366SOL     OW33235   4.522   3.467   4.761  0.4779 -0.2487  0.5575
 8366SOL    HW233236   4.436   3.442   4.796  1.1158 -1.4111  1.4025
 8366SOL    HW333237   4.515   3.454   4.667 -0.5448  0.5590  0.5085
 8366SOL    MW433238   4.510   3.462   4.754  0.4271 -0.2955  0.6625
 8367SOL     OW33239   1.336   1.881   0.152  0.3667 -0.6737  0.2374
 8367SOL    HW233240   1.277   1.904   0.080  1.7720 -0.7411 -1.0036
 8367SOL    HW333241   1.378   1.964   0.176 -0.5248 -0.5435  1.4209
 8367SOL    MW433242   1.334   1.895   0.145  0.4345 -0.6654  0.2298
 8368SOL     OW33243   1.114   1.178   6.229 -0.1616 -0.2738  0.5053
 8368SOL    HW233244   1.184   1.187   6.294  1.3485 -2.7263 -0.6472
 8368SOL    HW333245   1.062   1.105   6.261 -0.9549  0.1686  0.2486
 8368SOL    MW433246   1.117   1.170   6.242 -0.0670 -0.5390  0.3193
 8369SOL     OW33247   2.040   1.772   5.036  0.0578 -0.2233 -0.1192
 8369SOL    HW233248   2.039   1.853   4.985 -0.3238 -0.0108  0.2250
 8369SOL    HW333249   2.128   1.736   5.023  0.0421 -0.0473 -0.7344
 8369SOL    MW433250   2.052   1.778   5.027  0.0054 -0.1720 -0.1550
 8370SOL     OW33251   5.870   2.603   6.224  0.0187  0.4722  0.5357
 8370SOL    HW233252   5.790   2.555   6.206  1.1582 -1.1886 -0.3938
 8370SOL    HW333253   5.841   2.681   6.270 -2.1654  0.1819 -0.2152
 8370SOL    MW433254   5.856   2.607   6.228 -0.1191  0.2148  0.3140
 8371SOL     OW33255   1.370   4.513   1.220  0.1394 -0.8406  0.3313
 8371SOL    HW233256   1.391   4.532   1.311  1.5408  0.7571 -0.2687
 8371SOL    HW333257   1.318   4.587   1.191 -1.2036 -1.8468  0.0955
 8371SOL    MW433258   1.366   4.525   1.228  0.1471 -0.7626  0.2210
 8372SOL     OW33259   6.221   0.569   1.823 -0.1266 -0.5274  0.0429
 8372SOL    HW233260   6.308   0.544   1.854 -0.2861  0.0824  1.0192
 8372SOL    HW333261   6.232   0.582   1.729  1.6244  2.5211  0.5226
 8372SOL    MW433262   6.234   0.567   1.815  0.0834 -0.0448  0.2350
 8373SOL     OW33263   5.363   2.736   4.472  0.4103 -0.1828 -0.0473
 8373SOL    HW233264   5.278   2.778   4.455 -0.0398  0.0649  2.4955
 8373SOL    HW333265   5.425   2.808   4.477  0.6003 -0.2809 -0.8713
 8373SOL    MW433266   5.360   2.751   4.470  0.3760 -0.1630  0.1795
 8374SOL     OW33267   2.395   0.880   1.094 -0.2254 -0.0757 -0.4321
 8374SOL    HW233268   2.365   0.806   1.042 -2.8373 -0.2349  1.1097
 8374SOL    HW333269   2.419   0.842   1.179  1.4283  0.4994 -0.6074
 8374SOL    MW433270   2.394   0.865   1.099 -0.3518 -0.0208 -0.2518
 8375SOL     OW33271   2.552   1.335   5.053  0.6568 -0.2492  0.0045
 8375SOL    HW233272   2.462   1.357   5.078  0.3175 -1.0068 -0.5121
 8375SOL    HW333273   2.575   1.402   4.988 -0.0059 -0.7952 -0.8164
 8375SOL    MW433274   2.543   1.347   5.048  0.5246 -0.4212 -0.1719
 8376SOL     OW33275   5.767   3.684   4.637 -0.0892 -0.8772 -0.8941
 8376SOL    HW233276   5.821   3.727   4.570 -2.4699  0.9857 -1.7694
 8376SOL    HW333277   5.806   3.712   4.720  0.2398  0.5552 -1.4856
 8376SOL    MW433278   5.780   3.694   4.639 -0.3599 -0.4425 -1.0876
 8377SOL     OW33279   0.411   0.311   3.904 -0.2004  0.9107 -0.0958
 8377SOL    HW233280   0.458   0.250   3.961 -2.5250  0.1086  1.0714
 8377SOL    HW333281   0.431   0.398   3.940  1.2686  0.7091 -0.3515
 8377SOL    MW433282   0.420   0.314   3.916 -0.3133  0.7782  0.0244
 8378SOL     OW33283   2.948   0.920   3.683 -0.2116 -0.3612 -0.1844
 8378SOL    HW233284   3.023   0.977   3.700 -0.9703 -0.0013  2.3778
 8378SOL    HW333285   2.947   0.910   3.588  2.1700  0.8299 -0.4211
 8378SOL    MW433286   2.958   0.926   3.673  0.0025 -0.1565  0.1224
 8379SOL     OW33287   0.873   1.255   0.148  0.3138  0.1234  0.3122
 8379SOL    HW233288   0.855   1.168   0.183  0.4129  0.2415  0.6586
 8379SOL    HW333289   0.921   1.238   0.066 -1.5071 -0.1898 -0.7400
 8379SOL    MW433290   0.877   1.242   0.142  0.0867  0.0976  0.2191
 8380SOL     OW33291   5.291   5.994   6.044 -0.1550 -0.5384 -0.0787
 8380SOL    HW233292   5.379   5.973   6.078  0.8970  0.2355 -2.1503
 8380SOL    HW333293   5.242   5.913   6.054  0.6186 -0.8459  1.6077
 8380SOL    MW433294   5.296   5.981   6.050  0.0859 -0.4769 -0.1296
 8381SOL     OW33295   4.499   4.459   3.428  0.3234  0.1054 -0.8534
 8381SOL    HW233296   4.513   4.553   3.439  0.0329  0.3595 -2.4680
 8381SOL    HW333297   4.404   4.449   3.426  0.3341 -0.3469  0.0958
 8381SOL    MW433298   4.489   4.470   3.430  0.2865  0.0792 -0.9412
 8382SOL     OW33299   0.355   1.499   1.871 -0.1072 -0.0412  0.0798
 8382SOL    HW233300   0.414   1.565   1.907 -0.3930  0.4214 -0.2928
 8382SOL    HW333301   0.393   1.415   1.899 -0.1006  0.2898  1.0989
 8382SOL    MW433302   0.368   1.496   1.879 -0.1440  0.0635  0.1651
 8383SOL     OW33303   4.158   3.272   5.767 -0.0410  0.4880 -0.0863
 8383SOL    HW233304   4.178   3.363   5.746 -0.0491  0.2416 -1.2751
 8383SOL    HW333305   4.064   3.270   5.782 -0.6418  0.2006 -3.1654
 8383SOL    MW433306   4.148   3.284   5.766 -0.1213  0.4176 -0.6494
 8384SOL     OW33307   4.332   4.839   4.922 -0.0805 -0.3523 -0.4175
 8384SOL    HW233308   4.413   4.890   4.918  1.2721 -2.2760  0.5256
 8384SOL    HW333309   4.293   4.862   5.006  0.2759 -0.5093 -0.2052
 8384SOL    MW433310   4.338   4.849   4.933  0.1450 -0.6269 -0.2651
 8385SOL     OW33311   4.389   3.608   5.345  0.5656  0.1632  0.3540
 8385SOL    HW233312   4.358   3.646   5.427 -0.2734  1.5794 -0.5665
 8385SOL    HW333313   4.313   3.561   5.311  1.1743 -1.1812  0.7821
 8385SOL    MW433314   4.374   3.607   5.351  0.5352  0.1727  0.2890
 8386SOL     OW33315   4.060   1.515   1.499  0.7202 -0.0996 -0.2571
 8386SOL    HW233316   4.051   1.609   1.516 -0.8590 -0.0298 -1.2916
 8386SOL    HW333317   4.106   1.510   1.415 -3.3559 -0.0170 -2.7387
 8386SOL    MW433318   4.065   1.527   1.490 -0.0259 -0.0795 -0.7210
 8387SOL     OW33319   2.432   1.818   1.373 -0.4141  0.1682  0.3675
 8387SOL    HW233320   2.498   1.845   1.438  0.4585 -1.1049  0.0368
 8387SOL    HW333321   2.410   1.729   1.398 -0.9783  0.0953 -0.3799
 8387SOL    MW433322   2.438   1.810   1.385 -0.3734 -0.0094  0.2253
 8388SOL     OW33323   5.344   3.429   4.166  0.4301  0.4760 -0.2117
 8388SOL    HW233324   5.308   3.341   4.181 -0.3888  0.7727 -0.3603
 8388SOL    HW333325   5.282   3.488   4.210  2.3727  0.8583  2.2074
 8388SOL    MW433326   5.331   3.425   4.174  0.5784  0.5656  0.0878
 8389SOL     OW33327   6.079   3.896   3.145  0.2790  0.0663 -0.0314
 8389SOL    HW233328   5.987   3.908   3.165 -0.0354 -0.2938 -1.1741
 8389SOL    HW333329   6.091   3.937   3.059  1.4185  1.0120  0.5363
 8389SOL    MW433330   6.069   3.903   3.136  0.3878  0.1435 -0.1073
 8390SOL     OW33331   3.239   1.462   3.102  0.0463  0.0334 -0.3054
 8390SOL    HW233332   3.205   1.456   3.191  1.4350 -1.8162  0.1768
 8390SOL    HW333333   3.208   1.546   3.069  0.7523  1.4749  2.4580
 8390SOL    MW433334   3.230   1.472   3.109  0.3227 -0.0204  0.1228
 8391SOL     OW33335   4.257   5.915   1.139  0.2633 -0.1164  0.3396
 8391SOL    HW233336   4.230   5.825   1.157  0.9953 -0.7543 -1.4944
 8391SOL    HW333337   4.333   5.930   1.195  1.7819 -1.6186 -1.2125
 8391SOL    MW433338   4.263   5.905   1.149  0.5602 -0.3988 -0.1072
 8392SOL     OW33339   2.375   4.652   1.568  0.6720 -0.1162 -0.2334
 8392SOL    HW233340   2.373   4.593   1.493 -0.8900 -1.3474  0.7109
 8392SOL    HW333341   2.466   4.683   1.572  1.1173 -1.1261 -1.7574
 8392SOL    MW433342   2.387   4.648   1.559  0.5247 -0.4119 -0.3099
 8393SOL     OW33343   0.957   2.584   1.221  0.1832 -0.3851  1.1375
 8393SOL    HW233344   0.885   2.646   1.209  1.0206  0.3589 -0.4363
 8393SOL    HW333345   0.916   2.498   1.211 -0.5797  0.0099  0.7336
 8393SOL    MW433346   0.942   2.580   1.218  0.1931 -0.2348  0.8766
 8394SOL     OW33347   0.109   5.348   1.876  0.4108  0.1079 -0.1189
 8394SOL    HW233348   0.091   5.407   1.950 -2.0357 -0.7119  0.0097
 8394SOL    HW333349   0.151   5.405   1.811 -0.0753  1.5375  0.7571
 8394SOL    MW433350   0.112   5.364   1.877  0.0239  0.1883  0.0136
 8395SOL     OW33351   4.708   4.924   6.123 -0.1227  0.2056 -0.4914
 8395SOL    HW233352   4.671   4.921   6.211  1.2758  0.8786  0.1539
 8395SOL    HW333353   4.780   4.861   6.125  0.4317  0.8124 -0.8846
 8395SOL    MW433354   4.713   4.915   6.135  0.1350  0.3745 -0.4582
 8396SOL     OW33355   3.385   2.832   2.626 -0.5212  1.3948 -0.2508
 8396SOL    HW233356   3.444   2.817   2.699 -0.5731  2.2169 -0.0269
 8396SOL    HW333357   3.430   2.795   2.550 -0.7026  0.0565  0.2672
 8396SOL    MW433358   3.398   2.825   2.625 -0.5519  1.3267 -0.1529
 8397SOL     OW33359   2.426   1.024   2.054 -0.2993  0.2126  0.1063
 8397SOL    HW233360   2.435   0.929   2.062 -0.5370  0.1113 -0.7531
 8397SOL    HW333361   2.506   1.051   2.009 -0.0415  0.4769  0.7153
 8397SOL    MW433362   2.438   1.015   2.049 -0.2966  0.2341  0.0733
 8398SOL     OW33363   5.324   1.601   3.540  0.1427  0.8835 -0.9169
 8398SOL    HW233364   5.315   1.645   3.456  0.8695  3.1189  0.1007
 8398SOL    HW333365   5.277   1.657   3.602  0.0499 -0.4378  0.2569
 8398SOL    MW433366   5.317   1.614   3.537  0.2264  1.0041 -0.6278
 8399SOL     OW33367   0.171   0.135   3.841  0.2835  0.3005 -0.3210
 8399SOL    HW233368   0.234   0.200   3.871  0.2793  0.4222 -0.5729
 8399SOL    HW333369   0.119   0.114   3.919  0.1436  0.7614 -0.2858
 8399SOL    MW433370   0.172   0.141   3.855  0.2645  0.3774 -0.3496
 8400SOL     OW33371   1.044   2.397   0.458 -0.5695  0.3773  0.3183
 8400SOL    HW233372   1.043   2.466   0.524  1.1016  0.6777  0.0567
 8400SOL    HW333373   1.021   2.317   0.505  0.3200  0.6347  1.1981
 8400SOL    MW433374   1.041   2.396   0.473 -0.2317  0.4509  0.3998
 8401SOL     OW33375   4.265   3.517   4.152 -0.0416  0.3776  0.1380
 8401SOL    HW233376   4.288   3.452   4.085 -0.7851 -1.1986  1.3296
 8401SOL    HW333377   4.172   3.503   4.167  0.3185 -0.1573  2.2983
 8401SOL    MW433378   4.256   3.506   4.145 -0.0922  0.0991  0.5803
 8402SOL     OW33379   3.775   4.687   4.745 -0.1992 -0.6233 -0.0690
 8402SOL    HW233380   3.854   4.634   4.739  0.1130 -0.1484 -0.1539
 8402SOL    HW333381   3.792   4.748   4.817 -1.2311 -1.7536  1.1818
 8402SOL    MW433382   3.788   4.688   4.754 -0.2942 -0.7098  0.0848
 8403SOL     OW33383   0.062   5.151   0.262  0.0440 -0.5357  0.0223
 8403SOL    HW233384   0.125   5.095   0.307  0.0482 -1.2020 -0.7706
 8403SOL    HW333385   0.055   5.112   0.174 -2.3707 -1.2130  0.4472
 8403SOL    MW433386   0.070   5.139   0.256 -0.2740 -0.7129 -0.0262
 8404SOL     OW33387   5.984   6.418   5.707 -0.4284 -0.6456 -0.0134
 8404SOL    HW233388   5.999   6.493   5.650  1.1219 -0.3368  0.7506
 8404SOL    HW333389   6.022   6.344   5.659 -1.8881 -0.9767 -0.7318
 8404SOL    MW433390   5.991   6.418   5.693 -0.4164 -0.6486 -0.0074
 8405SOL     OW33391   4.806   2.499   3.169 -0.2296 -0.0478  0.0489
 8405SOL    HW233392   4.760   2.511   3.252  1.2583 -1.1047  1.0754
 8405SOL    HW333393   4.886   2.452   3.192 -0.2124 -1.2323 -2.1156
 8405SOL    MW433394   4.811   2.494   3.183 -0.0310 -0.3436 -0.1013
 8406SOL     OW33395   4.944   0.233   4.743  0.7777  0.1981  0.5342
 8406SOL    HW233396   4.981   0.212   4.657  0.2199 -1.1970  0.6104
 8406SOL    HW333397   4.849   0.229   4.730  0.6613  1.4461  0.8835
 8406SOL    MW433398   4.937   0.230   4.730  0.6887  0.1787  0.5903
 8407SOL     OW33399   1.920   4.149   0.969  0.3921 -0.1214  0.4626
 8407SOL    HW233400   2.006   4.161   1.011  0.3340 -0.1877  0.6010
 8407SOL    HW333401   1.888   4.066   1.005  1.0100 -0.9746 -0.8576
 8407SOL    MW433402   1.927   4.140   0.979  0.4660 -0.2427  0.3067
 8408SOL     OW33403   3.940   4.551   5.032  0.1181  0.2419  0.3839
 8408SOL    HW233404   3.976   4.582   4.949 -0.3950  1.4756  0.6038
 8408SOL    HW333405   3.970   4.460   5.038 -0.1142  0.0174 -1.3057
 8408SOL    MW433406   3.949   4.543   5.022  0.0197  0.3750  0.1900
 8409SOL     OW33407   5.807   4.363   5.400  0.1689  0.1523  0.0030
 8409SOL    HW233408   5.743   4.293   5.412 -0.3495  0.6065 -0.1318
 8409SOL    HW333409   5.815   4.372   5.305  0.6186 -0.0698  0.0155
 8409SOL    MW433410   5.800   4.355   5.389  0.1598  0.1830 -0.0131
 8410SOL     OW33411   2.533   3.629   6.086 -0.2506  0.0658  0.0484
 8410SOL    HW233412   2.626   3.618   6.102  0.0825  1.6527 -0.6668
 8410SOL    HW333413   2.494   3.632   6.173  0.4650  0.1670  0.3710
 8410SOL    MW433414   2.540   3.628   6.099 -0.1122  0.2885 -0.0034
 8411SOL     OW33415   1.653   3.409   4.539  0.3106  0.0839  0.1484
 8411SOL    HW233416   1.561   3.430   4.551  0.4192  0.2090  0.8149
 8411SOL    HW333417   1.661   3.388   4.446 -0.5746 -0.8479  0.2613
 8411SOL    MW433418   1.642   3.409   4.528  0.2082 -0.0225  0.2512
 8412SOL     OW33419   2.026   0.902   6.036  0.1621 -0.1255 -0.6981
 8412SOL    HW233420   1.966   0.893   5.963  0.0468  0.0064 -0.6201
 8412SOL    HW333421   2.081   0.823   6.033  0.4296  0.0773 -1.1725
 8412SOL    MW433422   2.025   0.890   6.026  0.1821 -0.0813 -0.7504
 8413SOL     OW33423   4.115   3.926   3.062 -0.0109  0.1781 -0.0598
 8413SOL    HW233424   4.022   3.906   3.054 -0.1262  0.5033  0.4331
 8413SOL    HW333425   4.134   3.980   2.985 -0.2115  0.0429 -0.2047
 8413SOL    MW433426   4.105   3.931   3.050 -0.0526  0.2031 -0.0139
 8414SOL     OW33427   2.790   4.465   2.559 -0.5800  0.5581 -0.1129
 8414SOL    HW233428   2.843   4.487   2.636 -1.0397  1.4710 -0.0402
 8414SOL    HW333429   2.763   4.550   2.524 -0.8846  0.1339 -0.9299
 8414SOL    MW433430   2.793   4.479   2.564 -0.6808  0.6226 -0.2111
 8415SOL     OW33431   2.009   5.682   3.969 -0.3095 -0.0495 -0.2413
 8415SOL    HW233432   1.972   5.621   4.033  0.0804 -0.0777 -0.0411
 8415SOL    HW333433   2.095   5.705   4.005  0.6768 -1.4039 -1.6131
 8415SOL    MW433434   2.015   5.677   3.982 -0.1279 -0.2319 -0.3959
 8416SOL     OW33435   4.243   0.903   5.989  0.1279  0.7316 -0.3356
 8416SOL    HW233436   4.292   0.971   6.034  0.4906 -0.0076  0.4197
 8416SOL    HW333437   4.196   0.857   6.060  0.0215  0.0983 -0.8094
 8416SOL    MW433438   4.243   0.906   6.005  0.1618  0.5505 -0.2985
 8417SOL     OW33439   4.182   4.561   2.549 -0.3690  0.4019  0.1203
 8417SOL    HW233440   4.262   4.583   2.501 -0.1576  1.2445  0.8303
 8417SOL    HW333441   4.111   4.578   2.486 -0.0625  0.8751 -0.1078
 8417SOL    MW433442   4.183   4.566   2.534 -0.3007  0.5755  0.1839
 8418SOL     OW33443   3.465   3.525   0.682 -0.1874  0.3809 -0.3003
 8418SOL    HW233444   3.523   3.458   0.647  0.9996  1.3114 -0.1666
 8418SOL    HW333445   3.391   3.476   0.718 -0.1740 -0.7529 -1.7194
 8418SOL    MW433446   3.463   3.510   0.682 -0.0290  0.3541 -0.4699
 8419SOL     OW33447   1.150   5.906   5.167 -0.0417  0.2111 -0.0994
 8419SOL    HW233448   1.228   5.867   5.128  1.0307  1.5094  0.6715
 8419SOL    HW333449   1.095   5.831   5.190  1.0935 -0.7441 -0.3972
 8419SOL    MW433450   1.153   5.891   5.165  0.2496  0.2564 -0.0369
 8420SOL     OW33451   1.309   1.511   1.268 -0.1329  0.1715 -0.2300
 8420SOL    HW233452   1.289   1.481   1.179  1.5227  0.0481 -0.5846
 8420SOL    HW333453   1.344   1.600   1.256 -0.5794  0.4399  0.3808
 8420SOL    MW433454   1.311   1.519   1.255  0.0266  0.1906 -0.1962
 8421SOL     OW33455   5.086   3.756   0.381  0.3398  0.3207  0.0109
 8421SOL    HW233456   5.096   3.790   0.292  0.7045  2.4363  0.8026
 8421SOL    HW333457   5.005   3.706   0.379  0.2244  0.5235 -1.4470
 8421SOL    MW433458   5.077   3.754   0.369  0.3727  0.6266 -0.0770
 8422SOL     OW33459   5.418   2.097   5.998  0.2202  0.3389  0.6068
 8422SOL    HW233460   5.409   2.002   6.004  2.5589  0.1390  2.8376
 8422SOL    HW333461   5.412   2.127   6.088 -0.1486  2.2933 -0.0283
 8422SOL    MW433462   5.416   2.088   6.010  0.4801  0.5704  0.8174
 8423SOL     OW33463   5.950   1.999   5.886  0.3288 -0.0434  0.5141
 8423SOL    HW233464   5.907   1.957   5.812  0.2801 -0.6554  0.8881
 8423SOL    HW333465   5.905   2.083   5.896 -0.5124 -0.5034  0.6503
 8423SOL    MW433466   5.938   2.005   5.878  0.2114 -0.1848  0.5814
 8424SOL     OW33467   1.098   3.751   3.958 -0.6651 -0.0251  0.2140
 8424SOL    HW233468   1.031   3.692   3.993  1.1421 -1.2923  1.7590
 8424SOL    HW333469   1.144   3.782   4.036  1.0775  0.1132 -0.8290
 8424SOL    MW433470   1.095   3.747   3.973 -0.1968 -0.1741  0.2803
 8425SOL     OW33471   1.514   2.940   4.168  0.1031 -0.2400 -0.2216
 8425SOL    HW233472   1.602   2.936   4.205 -0.5141 -1.4864  1.2251
 8425SOL    HW333473   1.527   2.939   4.073  1.7052  1.9173 -0.1079
 8425SOL    MW433474   1.527   2.940   4.160  0.2331 -0.1198 -0.0158
 8426SOL     OW33475   3.807   1.810   4.095  0.2445 -0.0920 -0.1483
 8426SOL    HW233476   3.851   1.764   4.024  0.3316 -1.3596  0.6963
 8426SOL    HW333477   3.871   1.876   4.124  0.2745  0.3137 -1.1047
 8426SOL    MW433478   3.821   1.813   4.089  0.2600 -0.2057 -0.1631
 8427SOL     OW33479   4.498   0.687   0.393  0.0344 -0.2234  0.0106
 8427SOL    HW233480   4.532   0.644   0.315  2.0281 -1.1817  1.3320
 8427SOL    HW333481   4.561   0.756   0.411  0.3517 -0.8718  1.5116
 8427SOL    MW433482   4.511   0.691   0.385  0.3393 -0.4354  0.3830
 8428SOL     OW33483   1.589   3.839   1.135  0.0181  0.5461 -0.5210
 8428SOL    HW233484   1.503   3.872   1.108  0.0723  0.1191 -1.2359
 8428SOL    HW333485   1.591   3.852   1.230 -0.2328  1.9710 -0.6859
 8428SOL    MW433486   1.578   3.845   1.144 -0.0079  0.6777 -0.6370
 8429SOL     OW33487   5.479   3.449   2.529 -0.3153 -0.4806  0.3534
 8429SOL    HW233488   5.386   3.426   2.527 -0.4149 -0.0557 -0.1677
 8429SOL    HW333489   5.510   3.416   2.613 -1.3174  0.9073  1.2944
 8429SOL    MW433490   5.471   3.441   2.540 -0.4607 -0.2414  0.4088
 8430SOL     OW33491   4.814   5.620   1.786  0.1163  0.2705  0.1224
 8430SOL    HW233492   4.861   5.658   1.712  0.8889 -1.6193 -0.4325
 8430SOL    HW333493   4.879   5.612   1.855 -0.1122  0.2348  0.3377
 8430SOL    MW433494   4.828   5.624   1.785  0.1881  0.0164  0.0776
 8431SOL     OW33495   0.624   2.997   4.726  0.5050  0.3193 -0.1621
 8431SOL    HW233496   0.532   3.002   4.750  0.2988  0.3724 -0.9551
 8431SOL    HW333497   0.629   3.034   4.638  1.6774  2.7309  0.8253
 8431SOL    MW433498   0.613   3.002   4.718  0.6325  0.6445 -0.1365
 8432SOL     OW33499   0.499   1.846   0.293 -0.2830  0.3257 -0.4658
 8432SOL    HW233500   0.406   1.865   0.289 -0.8528 -1.8181  1.0651
 8432SOL    HW333501   0.517   1.792   0.216 -0.8627 -1.2362  0.4563
 8432SOL    MW433502   0.489   1.841   0.282 -0.4346 -0.1632 -0.1422
 8433SOL     OW33503   0.937   4.366   1.887  0.5080 -0.1275 -0.0331
 8433SOL    HW233504   0.855   4.353   1.935 -1.2002  0.9240 -2.4706
 8433SOL    HW333505   0.976   4.444   1.926  0.0710 -0.2921  0.7537
 8433SOL    MW433506   0.931   4.374   1.898  0.2250 -0.0105 -0.2509
 8434SOL     OW33507   1.870   1.132   6.398  0.4244  0.1648 -1.0638
 8434SOL    HW233508   1.926   1.061   6.368  1.8620  0.8888 -0.2046
 8434SOL    HW333509   1.891   1.205   6.340  1.4474  0.8576  0.1341
 8434SOL    MW433510   1.880   1.133   6.386  0.7491  0.3517 -0.7924
 8435SOL     OW33511   1.851   3.778   5.009  0.1964 -0.6852 -0.0519
 8435SOL    HW233512   1.831   3.703   5.065  1.0880 -1.6060 -0.9297
 8435SOL    HW333513   1.929   3.752   4.961 -1.0230 -0.3081 -2.3962
 8435SOL    MW433514   1.858   3.765   5.010  0.1531 -0.7570 -0.4770
 8436SOL     OW33515   0.446   1.306   5.019  0.2533  0.6548  0.2368
 8436SOL    HW233516   0.454   1.212   5.004  1.7385  1.0068 -1.4073
 8436SOL    HW333517   0.478   1.319   5.108 -2.6792 -0.6804  1.6475
 8436SOL    MW433518   0.451   1.296   5.029  0.0623  0.5251  0.2060
 8437SOL     OW33519   2.763   5.840   0.431 -0.0992 -0.4077 -0.3377
 8437SOL    HW233520   2.820   5.916   0.449 -1.7780  1.5952 -2.6952
 8437SOL    HW333521   2.794   5.808   0.346 -0.3803 -1.4047 -0.0665
 8437SOL    MW433522   2.775   5.846   0.422 -0.3578 -0.2750 -0.6130
 8438SOL     OW33523   2.952   0.887   2.898  0.3034 -0.1738 -0.1038
 8438SOL    HW233524   2.899   0.963   2.923 -1.2192 -0.2554 -2.7053
 8438SOL    HW333525   2.931   0.821   2.964 -1.1104  0.5534  0.2246
 8438SOL    MW433526   2.942   0.888   2.910 -0.0840 -0.0886 -0.4037
 8439SOL     OW33527   3.891   2.321   1.262 -0.1035 -0.9452 -0.4349
 8439SOL    HW233528   3.985   2.307   1.269  0.2398  1.0138 -0.7164
 8439SOL    HW333529   3.859   2.319   1.352  0.6889  1.1695 -0.0495
 8439SOL    MW433530   3.899   2.319   1.275  0.0464 -0.4077 -0.4212
 8440SOL     OW33531   1.991   0.835   0.222 -0.0514  0.0334 -0.3895
 8440SOL    HW233532   1.973   0.758   0.167  0.4967 -1.2116  1.0901
 8440SOL    HW333533   2.023   0.798   0.304  1.8422  1.8947 -0.2000
 8440SOL    MW433534   1.993   0.820   0.225  0.2708  0.1147 -0.1693
 8441SOL     OW33535   3.892   2.561   1.585 -0.0208  0.6824 -0.3304
 8441SOL    HW233536   3.819   2.586   1.641  0.0700 -0.3804  0.2906
 8441SOL    HW333537   3.874   2.470   1.560  1.0209  0.4285 -0.2412
 8441SOL    MW433538   3.880   2.552   1.589  0.1286  0.5087 -0.2367
 8442SOL     OW33539   0.371   0.750   0.140  0.7410 -0.1069 -0.2279
 8442SOL    HW233540   0.445   0.811   0.136  0.7726 -0.2139 -1.6569
 8442SOL    HW333541   0.409   0.668   0.171  0.7239  0.5126  1.5837
 8442SOL    MW433542   0.386   0.747   0.144  0.7429 -0.0393 -0.1774
 8443SOL     OW33543   0.361   4.204   0.130 -0.2598  0.4257  0.0858
 8443SOL    HW233544   0.439   4.259   0.125  0.8663 -1.0005  1.0961
 8443SOL    HW333545   0.316   4.232   0.210 -0.2194  0.5372  0.0695
 8443SOL    MW433546   0.366   4.215   0.140 -0.1059  0.2522  0.2169
 8444SOL     OW33547   5.181   1.774   3.695 -0.5214 -0.1173  0.3915
 8444SOL    HW233548   5.218   1.789   3.782  0.5380 -0.6864  0.0549
 8444SOL    HW333549   5.170   1.862   3.659  0.8491  0.0829  0.3817
 8444SOL    MW433550   5.185   1.787   3.702 -0.2008 -0.1660  0.3458
 8445SOL     OW33551   0.090   6.045   2.622 -0.0800 -0.6536 -0.1568
 8445SOL    HW233552   0.182   6.068   2.638 -0.2865  0.6514 -0.7077
 8445SOL    HW333553   0.068   5.984   2.693  0.9376 -0.2541  0.5300
 8445SOL    MW433554   0.099   6.040   2.633  0.0270 -0.4287 -0.1389
 8446SOL     OW33555   2.315   5.097   0.674  0.4704  0.0062 -0.4460
 8446SOL    HW233556   2.351   5.184   0.686  1.9285 -0.7834  1.3840
 8446SOL    HW333557   2.254   5.106   0.600  1.3571  2.2993 -0.9755
 8446SOL    MW433558   2.311   5.110   0.666  0.7798  0.2046 -0.2744
 8447SOL     OW33559   1.287   0.383   5.315  0.3603 -0.5707 -0.2256
 8447SOL    HW233560   1.304   0.477   5.318 -2.2915 -0.0444  0.6141
 8447SOL    HW333561   1.371   0.345   5.290  1.4554  2.0134 -0.8387
 8447SOL    MW433562   1.301   0.391   5.312  0.1549 -0.1603 -0.1957
 8448SOL     OW33563   1.491   1.254   4.466  0.2397  0.2184 -0.0242
 8448SOL    HW233564   1.422   1.224   4.408  0.2815  0.0487  0.0143
 8448SOL    HW333565   1.541   1.317   4.414 -0.2148  0.6852  0.0908
 8448SOL    MW433566   1.489   1.258   4.452  0.1852  0.2576 -0.0039
 8449SOL     OW33567   2.367   6.263   5.125 -0.2323  0.0986  0.6405
 8449SOL    HW233568   2.360   6.211   5.205  1.3854  0.1305  0.8509
 8449SOL    HW333569   2.394   6.350   5.154 -2.5042  1.0037  0.2550
 8449SOL    MW433570   2.370   6.268   5.139 -0.3186  0.2223  0.6174
 8450SOL     OW33571   6.318   0.512   5.812 -0.6648 -0.3872  0.5494
 8450SOL    HW233572   6.286   0.423   5.818 -1.0185 -0.2502  0.6850
 8450SOL    HW333573   6.281   0.557   5.888  0.2663 -0.3604  1.0090
 8450SOL    MW433574   6.309   0.506   5.823 -0.5886 -0.3656  0.6279
 8451SOL     OW33575   0.756   2.751   4.628  0.0668  0.1548 -0.1213
 8451SOL    HW233576   0.702   2.801   4.689  0.3545  0.9554 -0.5132
 8451SOL    HW333577   0.787   2.816   4.564  0.3253 -0.5489 -0.7227
 8451SOL    MW433578   0.753   2.766   4.628  0.1389  0.1676 -0.2524
 8452SOL     OW33579   1.350   4.441   1.898 -0.2768  0.5649 -0.0588
 8452SOL    HW233580   1.264   4.476   1.875 -0.2082  1.0599  0.4104
 8452SOL    HW333581   1.359   4.459   1.992  0.9538  1.9134 -0.3854
 8452SOL    MW433582   1.340   4.448   1.908 -0.1054  0.8081 -0.0400
 8453SOL     OW33583   4.711   4.937   2.290  0.3423 -0.1812 -0.5937
 8453SOL    HW233584   4.690   4.868   2.353 -0.9269 -1.0482 -1.9056
 8453SOL    HW333585   4.782   4.901   2.237  0.8512  0.2270 -0.2087
 8453SOL    MW433586   4.718   4.923   2.291  0.2420 -0.2417 -0.7160
 8454SOL     OW33587   0.319   2.495   6.234 -0.3067 -0.3931 -0.1758
 8454SOL    HW233588   0.248   2.510   6.297 -0.4531  0.8054 -0.6097
 8454SOL    HW333589   0.363   2.416   6.267 -1.0388 -0.4075  0.8223
 8454SOL    MW433590   0.315   2.487   6.247 -0.4226 -0.2368 -0.1014
 8455SOL     OW33591   4.958   1.907   3.984  0.6331  0.1425  0.5169
 8455SOL    HW233592   4.945   1.837   4.048  0.1025  0.1887  0.4607
 8455SOL    HW333593   4.949   1.988   4.034  1.1625  0.1790  0.5651
 8455SOL    MW433594   4.955   1.908   3.999  0.6329  0.1534  0.5159
 8456SOL     OW33595   0.332   2.917   6.359 -0.3307  0.4789 -0.7162
 8456SOL    HW233596   0.376   3.001   6.370 -2.2376  1.6380 -1.4980
 8456SOL    HW333597   0.253   2.938   6.310 -1.2065 -1.6853 -0.3196
 8456SOL    MW433598   0.328   2.931   6.354 -0.6978  0.3463 -0.7670
 8457SOL     OW33599   6.370   6.286   4.248  0.1310  0.3996 -0.1579
 8457SOL    HW233600   6.330   6.362   4.289 -0.8081 -1.2912  2.2635
 8457SOL    HW333601   6.425   6.248   4.316  0.1412 -1.4121 -1.1133
 8457SOL    MW433602   6.372   6.291   4.262  0.0085 -0.0625  0.0356
 8458SOL     OW33603   4.313   1.103   2.914 -0.0567 -0.2110 -0.1703
 8458SOL    HW233604   4.246   1.110   2.982 -1.0811 -1.7418 -0.9509
 8458SOL    HW333605   4.367   1.029   2.941 -1.4253 -1.8843 -1.7166
 8458SOL    MW433606   4.311   1.094   2.926 -0.3725 -0.6337 -0.4773
 8459SOL     OW33607   3.998   2.806   0.487  0.4951 -0.1557 -0.0971
 8459SOL    HW233608   4.077   2.770   0.527 -0.1016 -0.9538  0.4005
 8459SOL    HW333609   3.956   2.731   0.445  0.4956  0.4448 -1.2184
 8459SOL    MW433610   4.003   2.791   0.486  0.4164 -0.1817 -0.1794
 8460SOL     OW33611   2.371   0.719   2.866 -0.1436  0.1063  0.0193
 8460SOL    HW233612   2.458   0.750   2.844  0.2750 -0.7639  0.4063
 8460SOL    HW333613   2.319   0.736   2.787  0.5217  0.0815 -0.4315
 8460SOL    MW433614   2.375   0.726   2.852 -0.0006 -0.0118  0.0109
 8461SOL     OW33615   1.659   3.257   3.818  0.1819 -0.2220 -0.6483
 8461SOL    HW233616   1.573   3.215   3.808 -0.4299  1.0157 -0.8027
 8461SOL    HW333617   1.691   3.267   3.729 -0.9058  2.0199 -0.8747
 8461SOL    MW433618   1.652   3.253   3.805 -0.0424  0.2371 -0.6985
 8462SOL     OW33619   5.688   2.361   5.052  0.1359  0.4154 -0.0773
 8462SOL    HW233620   5.754   2.368   4.984 -1.2383  0.0773 -1.5085
 8462SOL    HW333621   5.617   2.419   5.023 -0.2909  0.6330  1.3099
 8462SOL    MW433622   5.687   2.370   5.039 -0.1017  0.3995 -0.0831
 8463SOL     OW33623   4.953   0.535   1.800 -0.2768  0.1051 -0.4493
 8463SOL    HW233624   4.908   0.587   1.867  0.5102  2.3396 -1.5753
 8463SOL    HW333625   4.916   0.565   1.717 -0.0579 -1.4423 -1.1585
 8463SOL    MW433626   4.942   0.546   1.798 -0.1441  0.1958 -0.6915
 8464SOL     OW33627   1.154   3.136   2.707 -0.0364 -0.6298  0.4064
 8464SOL    HW233628   1.242   3.124   2.742 -0.8373 -1.0679  2.3766
 8464SOL    HW333629   1.154   3.084   2.626  1.9228  0.5744 -0.4532
 8464SOL    MW433630   1.166   3.127   2.701  0.1165 -0.5288  0.5529
 8465SOL     OW33631   4.759   1.623   6.101  0.2236  0.0141  0.3075
 8465SOL    HW233632   4.820   1.557   6.133  0.8847 -0.2849 -1.4592
 8465SOL    HW333633   4.812   1.701   6.088 -0.3288  0.5771  1.2933
 8465SOL    MW433634   4.774   1.625   6.104  0.2380  0.0489  0.2044
 8466SOL     OW33635   0.260   2.619   0.727  0.0343 -0.1250 -0.1703
 8466SOL    HW233636   0.276   2.529   0.753  1.0098 -0.1832 -0.9132
 8466SOL    HW333637   0.323   2.636   0.657 -1.1975  0.6209 -1.1641
 8466SOL    MW433638   0.270   2.610   0.721  0.0005 -0.0343 -0.3994
 8467SOL     OW33639   3.952   4.696   0.884  0.3946 -0.1924  0.0937
 8467SOL    HW233640   4.042   4.730   0.878  0.3756 -0.2342 -0.5270
 8467SOL    HW333641   3.900   4.759   0.834  0.2285 -0.6694 -0.3443
 8467SOL    MW433642   3.957   4.709   0.876  0.3701 -0.2609 -0.0460
 8468SOL     OW33643   1.206   2.674   4.467 -0.5172  0.0235  0.6808
 8468SOL    HW233644   1.232   2.743   4.406 -0.2230 -0.1132  0.6461
 8468SOL    HW333645   1.112   2.663   4.453 -0.0002 -2.1422 -1.9889
 8468SOL    MW433646   1.197   2.682   4.457 -0.4101 -0.2803  0.3240
 8469SOL     OW33647   4.545   6.409   2.479  0.8148  0.0486  0.0118
 8469SOL    HW233648   4.522   6.332   2.532  2.1604 -0.8188 -0.6033
 8469SOL    HW333649   4.485   6.477   2.508  1.2926 -0.4800  2.4177
 8469SOL    MW433650   4.534   6.408   2.490  1.0554 -0.1356  0.2481
 8470SOL     OW33651   4.394   4.264   1.820  0.4396 -0.0092 -0.1721
 8470SOL    HW233652   4.373   4.205   1.893 -0.2235 -1.1134 -1.2081
 8470SOL    HW333653   4.417   4.347   1.862  0.5513 -0.7497  1.3068
 8470SOL    MW433654   4.394   4.267   1.835  0.3668 -0.2526 -0.1137
 8471SOL     OW33655   2.415   1.791   0.611  0.5639  0.5074  0.3997
 8471SOL    HW233656   2.333   1.814   0.568  0.6728 -0.3783 -0.3160
 8471SOL    HW333657   2.478   1.782   0.540  1.4799  1.8716  0.9924
 8471SOL    MW433658   2.412   1.793   0.596  0.6991  0.5705  0.3835
 8472SOL     OW33659   2.501   1.085   3.511 -0.8009 -0.0165  0.1305
 8472SOL    HW233660   2.525   1.060   3.600 -2.8432 -0.1391  0.6947
 8472SOL    HW333661   2.492   1.180   3.515 -0.1710  0.0662 -0.1681
 8472SOL    MW433662   2.503   1.094   3.523 -0.9872 -0.0218  0.1655
 8473SOL     OW33663   4.676   4.815   4.622  0.9090 -0.0373  0.2247
 8473SOL    HW233664   4.587   4.797   4.650  1.3178 -3.7382 -0.3281
 8473SOL    HW333665   4.680   4.784   4.531  2.8770 -0.6918  0.4791
 8473SOL    MW433666   4.665   4.808   4.614  1.2226 -0.6119  0.1854
 8474SOL     OW33667   6.115   3.958   0.845 -0.4098  0.0757 -0.8934
 8474SOL    HW233668   6.141   4.024   0.908 -1.2096 -0.4664  0.0383
 8474SOL    HW333669   6.044   3.910   0.888  0.2375 -1.4851 -1.4603
 8474SOL    MW433670   6.109   3.960   0.859 -0.4299 -0.2018 -0.8453
 8475SOL     OW33671   5.595   1.654   4.425 -0.4724  0.1155 -0.1828
 8475SOL    HW233672   5.571   1.562   4.420  0.1399  0.0101 -1.5240
 8475SOL    HW333673   5.512   1.701   4.419 -0.9698 -0.3270  2.1516
 8475SOL    MW433674   5.581   1.648   4.424 -0.4572  0.0432 -0.0518
 8476SOL     OW33675   4.535   2.333   4.501  0.2224 -0.2765  0.1254
 8476SOL    HW233676   4.490   2.301   4.424 -1.1695 -0.1740  0.8734
 8476SOL    HW333677   4.480   2.308   4.575  1.5074 -0.3640  1.1053
 8476SOL    MW433678   4.522   2.326   4.501  0.2083 -0.2745  0.3534
 8477SOL     OW33679   4.066   3.737   2.221 -0.1859  0.0208 -0.4584
 8477SOL    HW233680   4.053   3.720   2.314 -0.6215  0.9479 -0.3413
 8477SOL    HW333681   4.100   3.655   2.186  1.4234  0.1164  0.7849
 8477SOL    MW433682   4.069   3.724   2.229 -0.0311  0.1558 -0.2789
 8478SOL     OW33683   0.765   1.360   1.641 -0.2282 -0.1679  0.3772
 8478SOL    HW233684   0.816   1.303   1.700  0.5989  0.0994 -0.0562
 8478SOL    HW333685   0.746   1.438   1.693  0.8426  0.2398  0.1952
 8478SOL    MW433686   0.769   1.362   1.656  0.0222 -0.0789  0.2960
 8479SOL     OW33687   2.536   5.255   5.963 -0.0463 -0.0069  0.1210
 8479SOL    HW233688   2.559   5.198   5.890 -2.2555  0.2652 -0.8933
 8479SOL    HW333689   2.546   5.201   6.041  1.4845 -0.5837 -0.4399
 8479SOL    MW433690   2.540   5.240   5.964 -0.1358 -0.0471 -0.0868
 8480SOL     OW33691   0.559   3.859   6.255 -0.5058 -0.2087 -0.1012
 8480SOL    HW233692   0.649   3.827   6.255 -0.6567 -0.6452  0.4868
 8480SOL    HW333693   0.514   3.805   6.190 -0.5933 -0.7227  0.3820
 8480SOL    MW433694   0.565   3.848   6.246 -0.5373 -0.3341  0.0401
 8481SOL     OW33695   5.983   5.089   2.049 -0.5552  0.0073 -0.2820
 8481SOL    HW233696   5.893   5.120   2.054 -0.0741  1.6793 -1.4228
 8481SOL    HW333697   6.035   5.168   2.036  0.7871 -1.1766 -2.8029
 8481SOL    MW433698   5.978   5.104   2.048 -0.3146  0.0717 -0.7651
 8482SOL     OW33699   2.984   3.618   0.845 -0.1923  0.3020 -0.8581
 8482SOL    HW233700   2.901   3.572   0.847 -0.0844  0.1088  1.1053
 8482SOL    HW333701   2.962   3.709   0.867  0.1324  0.1866 -0.0208
 8482SOL    MW433702   2.970   3.624   0.848 -0.1352  0.2613 -0.4886
 8483SOL     OW33703   2.254   2.680   1.023  0.2360 -0.1292  0.3006
 8483SOL    HW233704   2.298   2.685   0.938  0.7228  1.3713  0.6022
 8483SOL    HW333705   2.162   2.701   1.004  0.4974  1.0051  0.2367
 8483SOL    MW433706   2.247   2.683   1.009  0.3347  0.2184  0.3320
 8484SOL     OW33707   0.705   5.796   3.559  0.4445  0.1042 -0.5548
 8484SOL    HW233708   0.674   5.866   3.616 -0.7075 -1.1823  0.4651
 8484SOL    HW333709   0.763   5.744   3.614 -0.3808 -0.9328 -0.6385
 8484SOL    MW433710   0.708   5.798   3.574  0.1836 -0.2024 -0.4313
 8485SOL     OW33711   5.728   3.778   0.238  0.4178  0.1695  0.4635
 8485SOL    HW233712   5.664   3.711   0.264 -2.0273  1.5170 -1.5777
 8485SOL    HW333713   5.714   3.849   0.300 -0.0393  0.4245  0.0774
 8485SOL    MW433714   5.718   3.778   0.250  0.0349  0.3809  0.1432
 8486SOL     OW33715  -0.003   2.352   6.003  0.3467 -0.4625 -0.0360
 8486SOL    HW233716   0.032   2.440   6.016  1.3055 -0.6858 -0.9965
 8486SOL    HW333717  -0.053   2.357   5.921 -0.7484 -0.4850  0.6147
 8486SOL    MW433718  -0.005   2.364   5.994  0.3287 -0.4949 -0.0769
 8487SOL     OW33719   0.413   5.112   0.772 -0.8647 -0.3202  0.2242
 8487SOL    HW233720   0.486   5.110   0.710 -1.6959  2.3505 -0.9913
 8487SOL    HW333721   0.412   5.024   0.810  2.8871 -0.5191  0.2605
 8487SOL    MW433722   0.423   5.100   0.769 -0.4794  0.0059  0.0686
 8488SOL     OW33723   2.883   4.452   1.772 -0.3440  0.1193 -0.0461
 8488SOL    HW233724   2.788   4.454   1.772 -0.3658  2.5001 -1.5563
 8488SOL    HW333725   2.908   4.495   1.690  2.0445 -1.3332 -0.1735
 8488SOL    MW433726   2.874   4.458   1.761 -0.0318  0.2418 -0.2622
 8489SOL     OW33727   4.824   1.229   2.472  0.1841  0.5853 -0.2628
 8489SOL    HW233728   4.780   1.305   2.434 -1.4831  1.0498  2.3339
 8489SOL    HW333729   4.909   1.263   2.502  0.2588  0.9236 -0.8365
 8489SOL    MW433730   4.829   1.244   2.471 -0.0260  0.6912  0.0041
 8490SOL     OW33731   3.643   4.308   1.263 -0.2379 -0.0869 -0.0969
 8490SOL    HW233732   3.570   4.252   1.291  0.9018 -1.5481  0.0907
 8490SOL    HW333733   3.656   4.286   1.170  2.0312 -2.3952  0.6345
 8490SOL    MW433734   3.635   4.298   1.254  0.2118 -0.5843  0.0243
 8491SOL     OW33735   1.748   0.295   1.969  0.5968 -0.0150  0.1166
 8491SOL    HW233736   1.804   0.218   1.957 -0.1947 -0.5478 -0.2739
 8491SOL    HW333737   1.695   0.274   2.045 -0.6378 -0.5039 -0.8440
 8491SOL    MW433738   1.748   0.282   1.977  0.3295 -0.1498 -0.0616
 8492SOL     OW33739   1.863   1.685   5.251 -0.0947 -0.6975 -0.0514
 8492SOL    HW233740   1.858   1.591   5.232  2.4101 -1.1749  1.1983
 8492SOL    HW333741   1.912   1.721   5.177  1.0834 -0.8459  0.6299
 8492SOL    MW433742   1.869   1.677   5.238  0.3912 -0.7801  0.2034
 8493SOL     OW33743   4.717   4.228   1.827 -0.0153 -0.3041  0.9322
 8493SOL    HW233744   4.624   4.211   1.813  0.1955 -0.3354 -0.6365
 8493SOL    HW333745   4.761   4.169   1.767  1.0370 -0.3957  1.7672
 8493SOL    MW433746   4.710   4.218   1.817  0.1514 -0.3203  0.8354
 8494SOL     OW33747   5.801   0.435   4.191  0.1440 -0.0076 -0.1376
 8494SOL    HW233748   5.726   0.462   4.138 -0.5878 -1.8807 -0.1331
 8494SOL    HW333749   5.764   0.413   4.276  0.9196  0.4217  0.3194
 8494SOL    MW433750   5.786   0.435   4.195  0.1498 -0.1981 -0.0767
 8495SOL     OW33751   3.132   1.706   4.133 -0.3937  0.1291  0.2762
 8495SOL    HW233752   3.083   1.635   4.091 -0.8386 -1.5384  3.3556
 8495SOL    HW333753   3.067   1.773   4.153 -1.0636 -0.9880  2.0903
 8495SOL    MW433754   3.117   1.706   4.130 -0.5408 -0.2383  0.9219
 8496SOL     OW33755   4.397   3.724   4.691  0.3591  0.3869 -0.9137
 8496SOL    HW233756   4.426   3.643   4.732  0.4685  0.2215 -1.3148
 8496SOL    HW333757   4.388   3.702   4.598 -0.3319  0.6362 -0.9075
 8496SOL    MW433758   4.400   3.711   4.684  0.2824  0.3980 -0.9658
 8497SOL     OW33759   2.613   1.172   0.542  0.2167 -0.6110  0.2916
 8497SOL    HW233760   2.563   1.134   0.470  0.0805  0.3595 -0.1336
 8497SOL    HW333761   2.551   1.230   0.586  0.4291 -0.8532  0.9220
 8497SOL    MW433762   2.598   1.174   0.539  0.2268 -0.5149  0.3187
 8498SOL     OW33763   2.014   3.158   4.071 -0.0627  0.2058 -0.2341
 8498SOL    HW233764   2.023   3.101   4.148  0.9160 -1.2964 -1.4000
 8498SOL    HW333765   1.921   3.156   4.050 -0.2953  0.4038  0.7202
 8498SOL    MW433766   2.003   3.150   4.079  0.0358  0.0337 -0.2620
 8499SOL     OW33767   1.789   5.555   6.429  0.0795 -0.7353 -0.5319
 8499SOL    HW233768   1.785   5.603   6.346  0.4758 -0.7160 -0.5411
 8499SOL    HW333769   1.782   5.623   6.496  2.2235 -0.4434 -0.5135
 8499SOL    MW433770   1.788   5.571   6.427  0.4146 -0.6942 -0.5307
 8500SOL     OW33771   0.351   4.079   1.648  0.0474 -0.7285  0.6751
 8500SOL    HW233772   0.353   4.173   1.667  1.8570 -0.6517  0.2814
 8500SOL    HW333773   0.343   4.037   1.733 -0.7082 -0.2302  0.8573
 8500SOL    MW433774   0.350   4.086   1.661  0.1865 -0.6526  0.6472
 8501SOL     OW33775   0.818   2.314   5.900 -0.5450  0.1675 -0.4297
 8501SOL    HW233776   0.857   2.238   5.944 -1.9754  0.3611  1.3358
 8501SOL    HW333777   0.892   2.361   5.863  0.5518 -1.1508 -0.0173
 8501SOL    MW433778   0.833   2.310   5.901 -0.5890  0.0191 -0.1423
 8502SOL     OW33779   0.498   1.757   5.823 -0.2155  0.4083  0.3153
 8502SOL    HW233780   0.554   1.756   5.901  1.1536 -1.3997 -0.6218
 8502SOL    HW333781   0.443   1.680   5.832 -0.5241  0.5653 -0.1859
 8502SOL    MW433782   0.498   1.747   5.835 -0.0756  0.1905  0.1255
 8503SOL     OW33783   1.437   2.279   3.851 -0.2846 -0.7470  0.0711
 8503SOL    HW233784   1.513   2.315   3.897 -1.0912  0.7116  0.3127
 8503SOL    HW333785   1.451   2.301   3.759 -2.0460  2.8324  0.4791
 8503SOL    MW433786   1.448   2.286   3.845 -0.6234 -0.0823  0.1568
 8504SOL     OW33787   6.106   6.323   4.998  0.2223 -0.0452  0.3052
 8504SOL    HW233788   6.021   6.328   4.955 -0.4426  1.0182  1.6470
 8504SOL    HW333789   6.112   6.233   5.031 -2.0917  0.7617  3.3701
 8504SOL    MW433790   6.096   6.312   4.997 -0.1707  0.2016  0.8866
 8505SOL     OW33791   5.177   3.242   3.419  0.1136 -0.1086 -0.0654
 8505SOL    HW233792   5.086   3.217   3.408  0.1610 -1.3752  1.9448
 8505SOL    HW333793   5.227   3.172   3.376  0.1639 -0.9515  1.3316
 8505SOL    MW433794   5.172   3.229   3.412  0.1265 -0.3869  0.3841
 8506SOL     OW33795   1.350   4.208   5.788 -0.0576 -0.0514 -0.2503
 8506SOL    HW233796   1.347   4.216   5.883 -2.0957 -0.6645 -0.2103
 8506SOL    HW333797   1.442   4.193   5.768  0.6717  1.7144  1.4541
 8506SOL    MW433798   1.361   4.207   5.798 -0.2303  0.1007 -0.0202
 8507SOL     OW33799   3.765   3.174   4.701 -0.3996 -0.6771  0.5426
 8507SOL    HW233800   3.713   3.249   4.731  0.3422  0.4168 -0.8069
 8507SOL    HW333801   3.775   3.119   4.778 -0.1323  1.0967  1.8237
 8507SOL    MW433802   3.759   3.177   4.715 -0.2664 -0.2988  0.5336
 8508SOL     OW33803   6.089   2.650   1.859  0.3004  0.2365 -0.2268
 8508SOL    HW233804   6.085   2.593   1.936 -0.6345  2.2056  1.2465
 8508SOL    HW333805   6.180   2.680   1.856  0.4274 -0.1287 -0.1214
 8508SOL    MW433806   6.101   2.646   1.868  0.1938  0.4481 -0.0185
 8509SOL     OW33807   1.518   2.448   4.941  0.0229 -0.3180  0.0764
 8509SOL    HW233808   1.535   2.417   4.851 -0.8315 -0.2195 -0.1291
 8509SOL    HW333809   1.604   2.451   4.982  0.7156  1.6185 -1.3618
 8509SOL    MW433810   1.531   2.444   4.934  0.0016 -0.0495 -0.1404
 8510SOL     OW33811   1.558   4.332   3.299 -0.5237 -0.0526 -0.5379
 8510SOL    HW233812   1.480   4.276   3.292 -1.0189  0.7339 -1.4814
 8510SOL    HW333813   1.630   4.277   3.269 -0.4252 -1.3025  1.7632
 8510SOL    MW433814   1.557   4.318   3.294 -0.5760 -0.1137 -0.3588
 8511SOL     OW33815   5.973   6.261   1.799 -0.3922  0.0707  0.1510
 8511SOL    HW233816   6.059   6.300   1.814 -1.1423  1.7464  0.4036
 8511SOL    HW333817   5.941   6.239   1.887  0.7661 -2.9497 -0.0942
 8511SOL    MW433818   5.980   6.263   1.813 -0.3383 -0.1067  0.1520
 8512SOL     OW33819   2.718   1.127   2.129 -0.4176  0.3399 -0.0640
 8512SOL    HW233820   2.777   1.155   2.059 -0.5783  1.3612  0.1843
 8512SOL    HW333821   2.749   1.041   2.155  1.5014  1.1944  0.6453
 8512SOL    MW433822   2.730   1.119   2.123 -0.1856  0.5874  0.0623
 8513SOL     OW33823   5.348   3.109   5.137 -0.6661 -0.1493 -0.2516
 8513SOL    HW233824   5.270   3.097   5.083 -0.0061 -0.6957 -1.1031
 8513SOL    HW333825   5.315   3.148   5.219 -1.7412  0.1982 -0.8338
 8513SOL    MW433826   5.333   3.113   5.141 -0.7209 -0.1755 -0.4408
 8514SOL     OW33827   3.637   0.264   0.556  0.0513  0.0032 -0.0195
 8514SOL    HW233828   3.626   0.170   0.572  1.7583 -0.2582 -0.2447
 8514SOL    HW333829   3.731   0.278   0.559 -0.2123  1.8215  0.5322
 8514SOL    MW433830   3.648   0.253   0.558  0.2417  0.2086  0.0236
 8515SOL     OW33831   3.997   5.673   2.787 -0.0805 -0.0154  0.6256
 8515SOL    HW233832   3.913   5.704   2.753  0.1687 -0.4220 -0.3916
 8515SOL    HW333833   3.993   5.578   2.780  0.1713 -0.0831  1.2960
 8515SOL    MW433834   3.986   5.665   2.782 -0.0144 -0.0779  0.5799
 8516SOL     OW33835   6.053   3.715   2.345  0.1814  0.0402  0.2943
 8516SOL    HW233836   5.999   3.712   2.423  1.3189  1.7113  1.2107
 8516SOL    HW333837   6.134   3.757   2.373  0.2976  1.5132 -1.9554
 8516SOL    MW433838   6.057   3.720   2.359  0.3468  0.4550  0.1184
 8517SOL     OW33839   5.513   4.930   2.166 -0.1784  0.4034  0.2876
 8517SOL    HW233840   5.455   4.984   2.221 -1.7459  0.2392 -1.1238
 8517SOL    HW333841   5.455   4.865   2.127  0.8231  0.6508 -1.7247
 8517SOL    MW433842   5.497   4.929   2.168 -0.2531  0.4144 -0.1641
 8518SOL     OW33843   3.676   6.272   2.903  0.0783  0.2566  0.4527
 8518SOL    HW233844   3.718   6.293   2.820  0.5826 -1.6765  0.1744
 8518SOL    HW333845   3.590   6.314   2.897 -1.1855 -2.2879 -2.4499
 8518SOL    MW433846   3.670   6.280   2.891 -0.0219 -0.3342  0.0330
 8519SOL     OW33847   0.716   0.244   4.850 -0.1774  0.0429 -0.1929
 8519SOL    HW233848   0.708   0.337   4.829  1.8637  0.8547  2.1604
 8519SOL    HW333849   0.743   0.242   4.942  2.4620 -2.7323 -0.8570
 8519SOL    MW433850   0.718   0.256   4.859  0.4402 -0.2161  0.0300
 8520SOL     OW33851   3.095   3.502   4.678 -0.0261  0.3461 -0.3665
 8520SOL    HW233852   3.035   3.577   4.683 -0.6348 -0.1607  0.1247
 8520SOL    HW333853   3.118   3.496   4.585  1.2985  2.1041 -0.2047
 8520SOL    MW433854   3.090   3.511   4.666  0.0683  0.5112 -0.2804
 8521SOL     OW33855   1.329   2.553   3.606 -0.5886  0.3164  0.1536
 8521SOL    HW233856   1.388   2.482   3.582 -1.0825 -0.3105  0.7534
 8521SOL    HW333857   1.270   2.561   3.532 -1.1285 -0.5543  0.4781
 8521SOL    MW433858   1.329   2.545   3.593 -0.7250  0.1188  0.2756
 8522SOL     OW33859   2.450   2.644   4.718 -0.6767  0.0427  0.3704
 8522SOL    HW233860   2.366   2.657   4.761 -0.2583  1.9027  0.6901
 8522SOL    HW333861   2.511   2.624   4.790 -0.6180 -0.1675  0.2639
 8522SOL    MW433862   2.447   2.643   4.733 -0.6137  0.2604  0.3986
 8523SOL     OW33863   2.799   1.421   3.056  0.0610  0.0192 -0.2121
 8523SOL    HW233864   2.823   1.333   3.026 -0.4985 -0.3567  0.4227
 8523SOL    HW333865   2.735   1.451   2.991 -2.5339 -1.5146  1.4586
 8523SOL    MW433866   2.794   1.414   3.043 -0.3551 -0.2328  0.0921
 8524SOL     OW33867   6.199   4.419   6.318  0.7788  0.2657 -0.0774
 8524SOL    HW233868   6.214   4.387   6.229  1.3814 -0.9953  0.4522
 8524SOL    HW333869   6.255   4.496   6.326 -0.3010  1.1949 -1.2153
 8524SOL    MW433870   6.208   4.425   6.308  0.7159  0.2219 -0.1577
 8525SOL     OW33871   1.141   1.227   4.622 -0.9645  0.4211 -0.5379
 8525SOL    HW233872   1.114   1.222   4.714 -0.3472  0.1581 -0.3638
 8525SOL    HW333873   1.062   1.253   4.575 -1.4896 -0.2309 -0.0359
 8525SOL    MW433874   1.127   1.230   4.628 -0.9523  0.3004 -0.4487
 8526SOL     OW33875   4.610   3.722   0.019  0.0024 -0.1399 -0.0919
 8526SOL    HW233876   4.692   3.742   0.064  0.2305 -0.7602 -0.2142
 8526SOL    HW333877   4.611   3.777  -0.059  0.3473 -0.2026 -0.1359
 8526SOL    MW433878   4.621   3.732   0.014  0.0780 -0.2300 -0.1139
 8527SOL     OW33879   0.008   2.905   5.640  0.0025  0.4813  0.2975
 8527SOL    HW233880  -0.007   2.999   5.640 -1.6319  0.2368  0.2109
 8527SOL    HW333881   0.103   2.896   5.649  0.2157  2.1306 -0.0875
 8527SOL    MW433882   0.019   2.916   5.641 -0.1850  0.6666  0.2353
 8528SOL     OW33883   6.117   4.777   1.796 -0.1107  0.1622 -0.7356
 8528SOL    HW233884   6.129   4.872   1.801 -1.0163  0.2496  0.1173
 8528SOL    HW333885   6.202   4.740   1.818 -0.1709  0.7694  0.5653
 8528SOL    MW433886   6.129   4.785   1.799 -0.2381  0.2539 -0.4515
 8529SOL     OW33887   0.003   1.170   5.090 -0.3125 -0.7758  0.1512
 8529SOL    HW233888  -0.075   1.159   5.144 -0.3120  2.3940  1.0486
 8529SOL    HW333889   0.076   1.151   5.148 -0.3656 -1.1277  0.1047
 8529SOL    MW433890   0.003   1.166   5.105 -0.3194 -0.4040  0.2635
 8530SOL     OW33891   6.235   1.381   6.334  0.3606  0.4395 -0.3584
 8530SOL    HW233892   6.228   1.471   6.302  0.6257  0.6518  0.1732
 8530SOL    HW333893   6.202   1.385   6.423 -0.4930 -0.1736 -0.6320
 8530SOL    MW433894   6.230   1.393   6.341  0.2829  0.3867 -0.3243
 8531SOL     OW33895   2.889   4.666   2.075  0.2080  0.1006  0.6067
 8531SOL    HW233896   2.916   4.574   2.082 -0.0641 -0.1082 -0.8215
 8531SOL    HW333897   2.953   4.706   2.017  1.0807  1.1704  2.2164
 8531SOL    MW433898   2.901   4.659   2.069  0.2873  0.2142  0.6307
 8532SOL     OW33899   4.109   1.221   5.088  0.3591 -0.0987  0.5879
 8532SOL    HW233900   4.086   1.129   5.099  0.4569 -0.2814 -0.6225
 8532SOL    HW333901   4.080   1.262   5.169 -0.5911 -1.0194  0.7422
 8532SOL    MW433902   4.102   1.214   5.100  0.2467 -0.2443  0.4485
 8533SOL     OW33903   1.001   2.484   5.584  0.1727  0.2903 -0.3656
 8533SOL    HW233904   1.028   2.448   5.669 -0.2078  0.8830  0.0135
 8533SOL    HW333905   1.036   2.573   5.584 -0.6641  0.6226 -0.4200
 8533SOL    MW433906   1.009   2.491   5.595  0.0121  0.4123 -0.3227
 8534SOL     OW33907   3.139   3.192   1.207  0.1901  0.5155  0.2113
 8534SOL    HW233908   3.165   3.232   1.124 -0.6426  1.2911  0.3135
 8534SOL    HW333909   3.065   3.135   1.184  0.6430 -0.0974  0.2528
 8534SOL    MW433910   3.133   3.189   1.193  0.1400  0.5369  0.2303
 8535SOL     OW33911   5.203   1.496   0.063  0.5526  0.3444 -0.6393
 8535SOL    HW233912   5.238   1.427   0.120 -1.8523 -1.5026 -1.2479
 8535SOL    HW333913   5.153   1.553   0.121  0.8754  0.4152 -0.4287
 8535SOL    MW433914   5.201   1.494   0.078  0.2779  0.1101 -0.6918
 8536SOL     OW33915   2.907   4.557   2.796 -0.1774  0.3822 -0.2398
 8536SOL    HW233916   2.873   4.549   2.886  1.3270 -0.2240  0.3060
 8536SOL    HW333917   2.981   4.616   2.804 -0.3503  0.7381 -1.1938
 8536SOL    MW433918   2.912   4.563   2.809 -0.0017  0.3492 -0.2937
 8537SOL     OW33919   5.483   3.652   6.024 -0.2627  0.7433 -0.3669
 8537SOL    HW233920   5.542   3.710   6.073  0.8819 -0.3652 -0.3690
 8537SOL    HW333921   5.532   3.630   5.945  0.6128 -2.4189  0.8800
 8537SOL    MW433922   5.497   3.656   6.020  0.0039  0.1798 -0.2026
 8538SOL     OW33923   0.169   0.145   2.026  0.0897 -0.1982 -0.2598
 8538SOL    HW233924   0.107   0.184   2.087  0.6627 -1.3763  1.1368
 8538SOL    HW333925   0.245   0.202   2.029 -0.4352  0.5744 -1.0518
 8538SOL    MW433926   0.171   0.158   2.035  0.0960 -0.2517 -0.1801
 8539SOL     OW33927   2.340   3.762   5.668 -0.7079 -0.0851 -0.5580
 8539SOL    HW233928   2.286   3.704   5.722 -0.3506  0.1367  0.0452
 8539SOL    HW333929   2.321   3.735   5.578 -1.6840 -0.1419 -0.3543
 8539SOL    MW433930   2.330   3.751   5.663 -0.7895 -0.0634 -0.4515
 8540SOL     OW33931   3.140   5.206   1.639  0.0918  0.2640  0.1043
 8540SOL    HW233932   3.082   5.144   1.594  1.3054 -2.0579  1.5489
 8540SOL    HW333933   3.117   5.291   1.602 -2.8600 -0.7876 -0.7674
 8540SOL    MW433934   3.129   5.209   1.628 -0.1375 -0.1811  0.1799
 8541SOL     OW33935   0.784   2.265   4.073 -0.3130 -0.3032 -0.2513
 8541SOL    HW233936   0.829   2.243   3.992 -1.1817  1.8993 -1.4070
 8541SOL    HW333937   0.721   2.194   4.086  2.4986 -2.7976  0.7546
 8541SOL    MW433938   0.781   2.253   4.064 -0.0567 -0.3417 -0.2710
 8542SOL     OW33939   3.484   2.563   1.275 -0.2563 -0.0939  0.4628
 8542SOL    HW233940   3.492   2.490   1.213  1.5871 -0.5850  1.2088
 8542SOL    HW333941   3.423   2.531   1.341  1.2461 -1.4005  1.2926
 8542SOL    MW433942   3.477   2.549   1.275  0.1851 -0.3311  0.6707
 8543SOL     OW33943   2.450   4.445   3.665  0.1561  0.1611 -0.1396
 8543SOL    HW233944   2.500   4.376   3.711 -0.6334  0.9137  1.9806
 8543SOL    HW333945   2.372   4.400   3.632 -0.1554 -0.0737  0.8750
 8543SOL    MW433946   2.447   4.430   3.667  0.0108  0.2294  0.2740
 8544SOL     OW33947   2.334   0.907   3.084  0.2049 -0.0278  0.1485
 8544SOL    HW233948   2.345   0.850   3.008  0.9883  0.5970 -0.2126
 8544SOL    HW333949   2.239   0.904   3.102  0.3428 -2.2981  0.8366
 8544SOL    MW433950   2.323   0.899   3.076  0.3264 -0.2449  0.1916
 8545SOL     OW33951   4.559   0.570   0.989  0.6595  0.5748  0.5882
 8545SOL    HW233952   4.511   0.487   0.991 -0.5933  1.2630 -0.2143
 8545SOL    HW333953   4.548   0.602   0.899 -1.3170  3.0087  1.6155
 8545SOL    MW433954   4.551   0.563   0.977  0.2335  0.9867  0.6178
 8546SOL     OW33955   0.027   4.107   1.559  0.0605 -0.0854 -0.2956
 8546SOL    HW233956  -0.066   4.095   1.581  0.1663 -1.3528 -0.4665
 8546SOL    HW333957   0.073   4.050   1.621  0.9562  2.5355  1.6257
 8546SOL    MW433958   0.021   4.098   1.570  0.1927  0.0932 -0.0647
 8547SOL     OW33959   5.549   4.063   4.180 -0.1924  0.5813 -0.6003
 8547SOL    HW233960   5.517   3.989   4.231  1.5857  0.9736  1.2183
 8547SOL    HW333961   5.527   4.140   4.233 -0.2605  1.2106 -1.5157
 8547SOL    MW433962   5.542   4.064   4.194  0.0332  0.7161 -0.4811
 8548SOL     OW33963   1.990   2.406   5.245  0.1819 -0.4008 -0.2225
 8548SOL    HW233964   1.999   2.316   5.278  0.0200 -0.1230  0.6214
 8548SOL    HW333965   1.928   2.398   5.172  1.2503 -1.1726 -1.0730
 8548SOL    MW433966   1.983   2.393   5.240  0.3015 -0.4660 -0.2233
 8549SOL     OW33967   6.281   2.070   1.598  0.2968 -0.0089  0.7790
 8549SOL    HW233968   6.369   2.100   1.578 -0.3436  1.9194  0.6687
 8549SOL    HW333969   6.224   2.125   1.545 -0.9935 -1.3701  0.6688
 8549SOL    MW433970   6.285   2.081   1.589  0.0421  0.0659  0.7499
 8550SOL     OW33971   4.226   2.479   1.992  0.1796 -0.0507  0.2746
 8550SOL    HW233972   4.259   2.391   1.978  1.4409  0.3215  0.7910
 8550SOL    HW333973   4.303   2.536   1.984 -0.4109  0.8917  0.9844
 8550SOL    MW433974   4.240   2.475   1.989  0.2681  0.1227  0.4364
 8551SOL     OW33975   3.901   5.387   1.536 -0.2267 -0.2561  0.1991
 8551SOL    HW233976   3.980   5.421   1.495 -0.8101  1.3628  0.3731
 8551SOL    HW333977   3.860   5.332   1.469  0.6637 -0.5350 -0.1302
 8551SOL    MW433978   3.906   5.384   1.522 -0.1862 -0.0793  0.1786
 8552SOL     OW33979   2.127   2.715   1.695 -0.3567  0.7533  0.8639
 8552SOL    HW233980   2.187   2.716   1.770  0.4501 -1.0065  0.2984
 8552SOL    HW333981   2.077   2.634   1.705 -1.6080  1.4626  0.5185
 8552SOL    MW433982   2.129   2.705   1.706 -0.4154  0.6147  0.7437
 8553SOL     OW33983   0.859   0.737   2.475 -0.4185  0.0540 -0.6364
 8553SOL    HW233984   0.819   0.788   2.546 -0.4225 -0.8581  0.0245
 8553SOL    HW333985   0.916   0.675   2.519 -0.5607 -0.6459 -1.4278
 8553SOL    MW433986   0.861   0.736   2.490 -0.4378 -0.1587 -0.6536
 8554SOL     OW33987   0.144   1.203   3.006 -0.2940  0.0224 -0.4388
 8554SOL    HW233988   0.049   1.215   3.002 -0.7286 -1.9238  1.7414
 8554SOL    HW333989   0.166   1.220   3.098  1.3694 -0.1022 -0.7896
 8554SOL    MW433990   0.134   1.206   3.018 -0.1319 -0.2508 -0.1974
 8555SOL     OW33991   2.008   4.372   4.200 -0.3385 -0.2789  0.2318
 8555SOL    HW233992   2.052   4.424   4.267 -0.2466  0.4278 -0.3674
 8555SOL    HW333993   2.029   4.416   4.118  0.9040 -2.0348 -0.4587
 8555SOL    MW433994   2.017   4.385   4.198 -0.1625 -0.4173  0.0617
 8556SOL     OW33995   0.438   4.657   0.994 -0.1392 -0.2334 -0.1208
 8556SOL    HW233996   0.411   4.633   1.083 -2.4987 -0.7396 -0.9019
 8556SOL    HW333997   0.449   4.573   0.949  0.0264  0.0355 -0.5856
 8556SOL    MW433998   0.436   4.643   1.000 -0.4287 -0.2647 -0.2852
 8557SOL     OW33999   6.369   4.639   6.290  0.0480  0.2051 -0.1589
 8557SOL    HW234000   6.427   4.711   6.262  1.5723 -0.1830  1.8005
 8557SOL    HW334001   6.335   4.667   6.374 -2.0079  0.0202 -0.8711
 8557SOL    MW434002   6.373   4.652   6.297 -0.0221  0.1295  0.0056
 8558SOL     OW34003   1.384   3.580   3.348 -0.1467  1.0568 -0.3704
 8558SOL    HW234004   1.475   3.572   3.323 -0.1448 -0.9640  0.0847
 8558SOL    HW334005   1.335   3.537   3.278 -0.5452  0.1128  0.4575
 8558SOL    MW434006   1.389   3.573   3.336 -0.1990  0.6657 -0.2011
 8559SOL     OW34007   3.164   1.845   3.625 -0.5049  0.2911 -0.0945
 8559SOL    HW234008   3.146   1.801   3.542  0.1360  0.0081 -0.0830
 8559SOL    HW334009   3.210   1.780   3.678  1.4340  1.2837 -0.4705
 8559SOL    MW434010   3.168   1.831   3.621 -0.1645  0.3848 -0.1426
 8560SOL     OW34011   4.866   3.237   0.335 -0.5323 -0.7261  0.6969
 8560SOL    HW234012   4.880   3.331   0.322  0.4023 -0.6819  1.8928
 8560SOL    HW334013   4.943   3.196   0.297 -1.2030 -1.0661 -0.3317
 8560SOL    MW434014   4.878   3.244   0.328 -0.4975 -0.7651  0.7190
 8561SOL     OW34015   5.407   1.177   5.537 -0.3371  0.5652 -0.2526
 8561SOL    HW234016   5.348   1.181   5.612  2.3109 -0.5190  2.0767
 8561SOL    HW334017   5.405   1.085   5.510  0.3523  0.4939 -0.0730
 8561SOL    MW434018   5.399   1.165   5.544  0.1032  0.4127  0.0784
 8562SOL     OW34019   4.910   1.387   1.770  0.5363  0.2964  0.1945
 8562SOL    HW234020   4.980   1.449   1.788  0.5961 -0.3665  2.7390
 8562SOL    HW334021   4.955   1.308   1.739  0.7452  0.4847  0.0178
 8562SOL    MW434022   4.925   1.385   1.769  0.5718  0.2338  0.5069
 8563SOL     OW34023   4.235   1.172   1.257 -0.0162  0.6142 -0.0046
 8563SOL    HW234024   4.256   1.201   1.169 -1.5245 -0.8855 -0.9379
 8563SOL    HW334025   4.261   1.080   1.259 -0.2299  0.5574  1.0282
 8563SOL    MW434026   4.241   1.163   1.246 -0.2434  0.4089  0.0085
 8564SOL     OW34027   5.083   3.583   1.980 -0.2695  0.4086  0.0515
 8564SOL    HW234028   5.157   3.584   1.919 -0.7331  1.4308 -0.5224
 8564SOL    HW334029   5.093   3.664   2.031 -2.5282  2.1035 -1.9846
 8564SOL    MW434030   5.094   3.594   1.979 -0.6287  0.7671 -0.2929
 8565SOL     OW34031   4.686   0.905   0.386  0.2992  0.2597  0.0432
 8565SOL    HW234032   4.743   0.895   0.310  0.3896 -1.2955  0.2925
 8565SOL    HW334033   4.745   0.906   0.461  0.2077  1.7496  0.1223
 8565SOL    MW434034   4.701   0.904   0.386  0.2990  0.2511  0.0866
 8566SOL     OW34035   2.065   1.757   5.403  0.0866  0.2899  0.3885
 8566SOL    HW234036   1.992   1.740   5.344  0.4196 -1.1066  0.3477
 8566SOL    HW334037   2.123   1.815   5.354 -0.0279 -0.2168 -0.3528
 8566SOL    MW434038   2.063   1.763   5.389  0.1154  0.0388  0.2853
 8567SOL     OW34039   5.589   3.489   0.232 -0.3005  0.2273 -0.7293
 8567SOL    HW234040   5.582   3.490   0.137  0.1977 -0.9583 -0.8041
 8567SOL    HW334041   5.500   3.473   0.263 -0.1415 -1.6440 -1.1130
 8567SOL    MW434042   5.576   3.487   0.224 -0.2138 -0.1760 -0.7898
 8568SOL     OW34043   0.755   6.374   5.589  0.7112  0.0871 -0.0256
 8568SOL    HW234044   0.814   6.442   5.621  0.1439  0.0319  1.1736
 8568SOL    HW334045   0.680   6.377   5.649 -0.6613  0.3683 -1.6681
 8568SOL    MW434046   0.753   6.384   5.601  0.4553  0.1169 -0.0841
 8569SOL     OW34047   2.696   3.897   5.537  0.6188  0.0911  0.6467
 8569SOL    HW234048   2.663   3.817   5.579 -1.5749 -0.8070 -2.4022
 8569SOL    HW334049   2.623   3.959   5.542  0.5778  0.2261 -0.9862
 8569SOL    MW434050   2.682   3.895   5.543  0.3240 -0.0096  0.0290
 8570SOL     OW34051   4.956   3.831   2.800 -0.3844 -0.1639 -0.1829
 8570SOL    HW234052   4.946   3.736   2.801 -1.2312 -0.1165 -1.6760
 8570SOL    HW334053   4.901   3.862   2.872 -1.2954 -0.7180 -0.6275
 8570SOL    MW434054   4.948   3.823   2.810 -0.6163 -0.2308 -0.4385
 8571SOL     OW34055   4.858   6.078   2.495  0.0130 -0.0047  0.1358
 8571SOL    HW234056   4.863   6.084   2.400  1.1764 -0.1664  0.1725
 8571SOL    HW334057   4.883   6.165   2.526  0.9955 -0.3358  0.3103
 8571SOL    MW434058   4.862   6.090   2.487  0.2962 -0.0697  0.1637
 8572SOL     OW34059   1.824   2.356   4.303  0.1658  0.9997 -0.4010
 8572SOL    HW234060   1.822   2.435   4.249  0.1284  1.3293  0.0803
 8572SOL    HW334061   1.756   2.300   4.267  0.4870  1.0024 -1.0236
 8572SOL    MW434062   1.815   2.359   4.291  0.2032  1.0436 -0.4197
 8573SOL     OW34063   1.190   5.017   5.578 -0.0153 -0.2467  0.1359
 8573SOL    HW234064   1.234   4.946   5.626  1.2012 -0.4730 -1.2616
 8573SOL    HW334065   1.218   5.097   5.623 -0.5004 -0.5680  1.0293
 8573SOL    MW434066   1.200   5.018   5.591  0.0812 -0.3189  0.0694
 8574SOL     OW34067   0.880   4.620   1.331 -0.0266  0.1509 -0.2065
 8574SOL    HW234068   0.958   4.569   1.349 -0.4623 -0.0640  1.1887
 8574SOL    HW334069   0.911   4.694   1.279  0.9328 -0.4556 -0.5122
 8574SOL    MW434070   0.894   4.623   1.327  0.0425  0.0425 -0.0627
 8575SOL     OW34071   6.006   2.337   0.049  0.0668  0.0353 -0.2866
 8575SOL    HW234072   6.101   2.336   0.059  0.1263 -0.8149 -0.8168
 8575SOL    HW334073   5.978   2.421   0.086  0.9457 -0.0233  0.5338
 8575SOL    MW434074   6.015   2.348   0.055  0.1906 -0.0846 -0.2483
 8576SOL     OW34075   0.443   5.361   4.822  0.1504  0.1258 -0.6570
 8576SOL    HW234076   0.494   5.283   4.841  2.8044  1.9029  0.1576
 8576SOL    HW334077   0.490   5.403   4.750 -1.1673  0.9894 -1.0415
 8576SOL    MW434078   0.456   5.356   4.815  0.3267  0.4742 -0.6002
 8577SOL     OW34079   5.350   1.874   5.722  0.0218  0.3830  0.3118
 8577SOL    HW234080   5.405   1.796   5.725 -1.3546 -0.8892 -3.1178
 8577SOL    HW334081   5.261   1.843   5.732 -0.6501  1.2416 -2.1437
 8577SOL    MW434082   5.346   1.860   5.724 -0.2485  0.3284 -0.4647
 8578SOL     OW34083   1.971   4.757   4.763 -0.4352 -0.0259 -0.4871
 8578SOL    HW234084   1.920   4.807   4.826 -2.0488 -0.6619 -1.2510
 8578SOL    HW334085   1.917   4.753   4.684 -1.3265 -4.5364  0.0822
 8578SOL    MW434086   1.957   4.763   4.761 -0.7657 -0.7049 -0.5128
 8579SOL     OW34087   0.482   2.814   3.381 -0.3396 -0.0414  0.0091
 8579SOL    HW234088   0.432   2.755   3.437  0.2358  0.3214  0.9341
 8579SOL    HW334089   0.569   2.819   3.422  0.0188  0.4504 -0.7664
 8579SOL    MW434090   0.487   2.807   3.394 -0.2164  0.0714  0.0288
 8580SOL     OW34091   4.178   3.525   0.126 -0.3543  0.4309 -0.2991
 8580SOL    HW234092   4.092   3.556   0.097 -1.5877 -0.4240  2.1191
 8580SOL    HW334093   4.183   3.550   0.218  0.9263 -1.6346  0.2745
 8580SOL    MW434094   4.167   3.532   0.134 -0.3480  0.0456  0.0957
 8581SOL     OW34095   2.817   5.531   2.812  0.9431 -0.1172  0.1100
 8581SOL    HW234096   2.766   5.527   2.893 -0.4545 -0.4518 -0.7535
 8581SOL    HW334097   2.874   5.454   2.815  2.0485  0.6893  1.4554
 8581SOL    MW434098   2.818   5.520   2.823  0.9046 -0.0549  0.1736
 8582SOL     OW34099   6.418   0.779   4.062  0.0606 -0.0597 -0.2497
 8582SOL    HW234100   6.366   0.700   4.074  0.1796 -0.5301 -2.3967
 8582SOL    HW334101   6.499   0.761   4.110  0.4481 -1.6721 -1.3731
 8582SOL    MW434102   6.422   0.766   4.070  0.1274 -0.3345 -0.6812
 8583SOL     OW34103   2.488   0.440   3.853 -0.0816 -0.4690  0.0419
 8583SOL    HW234104   2.457   0.479   3.935  0.2021  0.5895 -0.3349
 8583SOL    HW334105   2.460   0.349   3.858  0.6151 -0.6458  1.6821
 8583SOL    MW434106   2.480   0.434   3.865  0.0478 -0.3527  0.2086
 8584SOL     OW34107   0.611   1.003   5.727 -0.9457 -0.0436  0.7396
 8584SOL    HW234108   0.574   1.081   5.769 -0.6074  1.3901 -1.4836
 8584SOL    HW334109   0.695   0.989   5.772 -0.0043  2.1962 -0.2021
 8584SOL    MW434110   0.617   1.011   5.739 -0.7768  0.4410  0.3220
 8585SOL     OW34111   5.035   4.494   0.369 -0.1791  0.0728 -0.0517
 8585SOL    HW234112   5.051   4.516   0.277 -3.0013 -2.2754 -1.2607
 8585SOL    HW334113   4.941   4.510   0.381 -0.1882 -1.2161  1.9310
 8585SOL    MW434114   5.024   4.499   0.358 -0.5526 -0.4071  0.0504
 8586SOL     OW34115   0.736   2.516   5.526 -0.2164  0.0531 -0.1095
 8586SOL    HW234116   0.821   2.496   5.565 -0.1558  1.9061  0.8272
 8586SOL    HW334117   0.734   2.611   5.521 -1.7442 -0.0062 -1.2879
 8586SOL    MW434118   0.747   2.526   5.531 -0.4100  0.2897 -0.1414
 8587SOL     OW34119   0.056   1.015   1.441 -0.0674 -0.2812  0.5504
 8587SOL    HW234120   0.047   0.975   1.527  0.3075  0.1699  0.8081
 8587SOL    HW334121   0.149   1.008   1.421 -0.0240  0.2885  0.5214
 8587SOL    MW434122   0.067   1.009   1.449 -0.0122 -0.1466  0.5806
 8588SOL     OW34123   0.604   4.552   6.290  0.0017  0.1794 -0.7549
 8588SOL    HW234124   0.541   4.620   6.311 -2.5310 -1.7136 -1.7067
 8588SOL    HW334125   0.594   4.486   6.359  1.2362 -0.0144 -0.7260
 8588SOL    MW434126   0.595   4.552   6.302 -0.1696 -0.0959 -0.8766
 8589SOL     OW34127   4.464   2.910   5.422  0.2915 -0.2609 -0.1268
 8589SOL    HW234128   4.458   2.829   5.473 -0.4367 -0.4102 -0.4338
 8589SOL    HW334129   4.523   2.966   5.472  0.3179 -0.7553  0.4017
 8589SOL    MW434130   4.471   2.907   5.435  0.1989 -0.3459 -0.0976
 8590SOL     OW34131   1.000   5.326   3.224 -0.1674  0.8127  0.1099
 8590SOL    HW234132   1.083   5.326   3.176 -1.2050 -1.8597 -1.9348
 8590SOL    HW334133   1.013   5.262   3.293 -0.1682  1.3233  0.5953
 8590SOL    MW434134   1.013   5.318   3.227 -0.3044  0.5275 -0.0958
 8591SOL     OW34135   0.685   1.469   1.232  0.2353 -0.1661  0.2253
 8591SOL    HW234136   0.745   1.403   1.267 -0.8745 -1.3363  0.0003
 8591SOL    HW334137   0.598   1.436   1.255 -0.3735  0.7468 -0.7197
 8591SOL    MW434138   0.682   1.456   1.239  0.0085 -0.2000  0.0709
 8592SOL     OW34139   2.897   0.311   3.138 -0.5320  0.2416 -0.9167
 8592SOL    HW234140   2.938   0.251   3.201 -1.7514 -0.1738 -0.4885
 8592SOL    HW334141   2.960   0.382   3.128  0.6951 -0.8213 -0.9818
 8592SOL    MW434142   2.911   0.312   3.145 -0.5310  0.0466 -0.8688
 8593SOL     OW34143   5.883   3.968   4.768 -0.0577  0.5043 -0.2943
 8593SOL    HW234144   5.955   3.905   4.773 -0.8914 -0.6187 -1.6854
 8593SOL    HW334145   5.825   3.944   4.840 -0.7173 -0.8220 -1.2258
 8593SOL    MW434146   5.885   3.956   4.778 -0.2547  0.1812 -0.6007
 8594SOL     OW34147   4.609   0.390   3.362  0.8045 -0.6271 -0.2345
 8594SOL    HW234148   4.677   0.322   3.364 -1.1921 -2.7204  0.4361
 8594SOL    HW334149   4.613   0.425   3.273 -0.3841 -4.1704 -1.8848
 8594SOL    MW434150   4.619   0.386   3.351  0.3843 -1.3708 -0.3637
 8595SOL     OW34151   0.472   6.342   3.807 -0.7592  0.5777 -0.5847
 8595SOL    HW234152   0.383   6.367   3.833 -1.5588 -0.5862 -2.0307
 8595SOL    HW334153   0.486   6.387   3.724 -0.4549 -0.1093 -0.9195
 8595SOL    MW434154   0.462   6.351   3.800 -0.8245  0.3335 -0.8197
 8596SOL     OW34155   4.726   5.488   4.461  0.2642 -0.2782 -0.3747
 8596SOL    HW234156   4.773   5.446   4.532 -0.6186 -0.2613  0.2330
 8596SOL    HW334157   4.793   5.504   4.394  1.1341 -0.1557  0.5017
 8596SOL    MW434158   4.741   5.484   4.461  0.2625 -0.2598 -0.1789
 8597SOL     OW34159   3.452   0.622   4.602 -0.0254  0.1009  0.2698
 8597SOL    HW234160   3.400   0.606   4.524  0.4787  0.4393 -0.1385
 8597SOL    HW334161   3.542   0.628   4.570  0.1367  0.6679  0.8199
 8597SOL    MW434162   3.457   0.620   4.588  0.0625  0.2204  0.2885
 8598SOL     OW34163   3.512   6.356   5.363  0.1288  0.2161  0.4355
 8598SOL    HW234164   3.426   6.342   5.402 -0.1718 -0.3712 -0.4099
 8598SOL    HW334165   3.571   6.299   5.413 -0.8296 -3.3009 -2.0583
 8598SOL    MW434166   3.509   6.347   5.375 -0.0373 -0.3254 -0.0050
 8599SOL     OW34167   0.646   3.906   0.088 -0.4668  0.3640  0.0027
 8599SOL    HW234168   0.614   3.893  -0.001 -0.9730 -1.2141  0.3794
 8599SOL    HW334169   0.573   3.877   0.144  0.5762 -0.6368  0.8954
 8599SOL    MW434170   0.632   3.900   0.084 -0.3960  0.0238  0.1702
 8600SOL     OW34171   2.366   6.071   0.942 -0.0623  0.5331  0.4270
 8600SOL    HW234172   2.334   6.157   0.968  1.7077  1.6609 -0.9161
 8600SOL    HW334173   2.294   6.012   0.962 -0.8675  2.1087  2.5505
 8600SOL    MW434174   2.352   6.075   0.948  0.0650  0.8898  0.5300
 8601SOL     OW34175   1.302   6.235   3.157 -0.5589 -0.5045  0.2877
 8601SOL    HW234176   1.352   6.165   3.200 -1.0809 -1.4512 -0.5941
 8601SOL    HW334177   1.212   6.221   3.186 -0.5782  0.1628  0.5556
 8601SOL    MW434178   1.296   6.224   3.167 -0.6303 -0.5414  0.2067
 8602SOL     OW34179   4.953   0.403   3.536  0.1054  0.2232  0.3220
 8602SOL    HW234180   4.943   0.498   3.532  0.2246  0.3174  1.7409
 8602SOL    HW334181   5.040   0.390   3.573  0.2508 -0.4482 -0.2470
 8602SOL    MW434182   4.963   0.414   3.541  0.1403  0.1470  0.4342
 8603SOL     OW34183   2.376   0.688   0.546  0.4859  0.8720 -0.1791
 8603SOL    HW234184   2.409   0.599   0.544  0.6755  0.9263  0.3441
 8603SOL    HW334185   2.397   0.720   0.634 -1.4124  0.7269  0.3689
 8603SOL    MW434186   2.383   0.681   0.557  0.2604  0.8600 -0.0378
 8604SOL     OW34187   5.328   5.379   5.939  0.0192 -0.4781  0.0702
 8604SOL    HW234188   5.320   5.344   6.028 -0.4115  0.6902  0.5071
 8604SOL    HW334189   5.282   5.315   5.885 -3.6352  0.9023  1.2601
 8604SOL    MW434190   5.321   5.366   5.944 -0.5198 -0.1418  0.2848
 8605SOL     OW34191   1.650   2.798   3.944  0.2946  0.2698 -0.0642
 8605SOL    HW234192   1.735   2.756   3.955  0.3359  0.4247  0.2192
 8605SOL    HW334193   1.634   2.796   3.849  1.0783  1.1474 -0.2311
 8605SOL    MW434194   1.659   2.792   3.933  0.4034  0.4060 -0.0489
 8606SOL     OW34195   0.503   3.356   1.239 -0.5819 -0.3431 -0.3753
 8606SOL    HW234196   0.500   3.300   1.317  2.6699  1.4395  1.2830
 8606SOL    HW334197   0.470   3.441   1.270  0.3282  0.2674 -1.0367
 8606SOL    MW434198   0.498   3.360   1.254 -0.0328 -0.0274 -0.2438
 8607SOL     OW34199   2.399   1.848   3.549  0.1563 -0.1763 -0.4754
 8607SOL    HW234200   2.365   1.784   3.486  0.7241  0.6045 -1.6239
 8607SOL    HW334201   2.492   1.856   3.528  0.3855  0.0197  0.5590
 8607SOL    MW434202   2.407   1.841   3.538  0.2615 -0.0474 -0.4904
 8608SOL     OW34203   5.807   0.540   2.810 -0.0817  0.0987 -0.0264
 8608SOL    HW234204   5.805   0.574   2.721  1.1947 -1.4441 -0.6905
 8608SOL    HW334205   5.887   0.575   2.848  0.1143 -0.4048  0.0255
 8608SOL    MW434206   5.817   0.549   2.803  0.1125 -0.1713 -0.1072
 8609SOL     OW34207   3.564   2.117   2.011  0.3835  0.7386 -0.0597
 8609SOL    HW234208   3.532   2.041   2.060  0.0611  0.7208 -0.2870
 8609SOL    HW334209   3.503   2.124   1.937  1.1062  0.5198 -0.6758
 8609SOL    MW434210   3.551   2.108   2.008  0.4363  0.7074 -0.1710
 8610SOL     OW34211   3.391   5.730   4.338  0.6981 -1.0671 -0.0142
 8610SOL    HW234212   3.364   5.803   4.283  0.7677  0.4746  1.9284
 8610SOL    HW334213   3.309   5.695   4.373  0.8380  0.6120  2.1361
 8610SOL    MW434214   3.376   5.735   4.335  0.7258 -0.6422  0.5258
 8611SOL     OW34215   5.055   4.317   0.047 -0.1625 -0.0469 -0.0195
 8611SOL    HW234216   5.009   4.391   0.007 -1.2860  1.1532  3.1434
 8611SOL    HW334217   5.131   4.357   0.089  1.0532 -1.2623 -0.9698
 8611SOL    MW434218   5.059   4.332   0.047 -0.1503 -0.0489  0.2724
 8612SOL     OW34219   1.580   0.512   2.820  0.2657  0.6037  0.2130
 8612SOL    HW234220   1.546   0.546   2.903  1.7293 -2.8088  2.4315
 8612SOL    HW334221   1.516   0.446   2.793  0.5126  0.7134 -0.6732
 8612SOL    MW434222   1.567   0.508   2.828  0.4914  0.1680  0.3888
 8613SOL     OW34223   5.843   0.707   6.007  0.3032 -0.1867  0.2130
 8613SOL    HW234224   5.829   0.644   6.078 -2.5053  1.3117  1.1840
 8613SOL    HW334225   5.824   0.792   6.048  2.4360  1.1819 -1.4238
 8613SOL    MW434226   5.839   0.710   6.022  0.2141  0.1915  0.1252
 8614SOL     OW34227   6.300   2.934   4.208  0.5233 -0.3842 -0.4922
 8614SOL    HW234228   6.242   2.988   4.262 -1.6609 -1.4769 -1.6352
 8614SOL    HW334229   6.296   2.974   4.121  0.7753 -1.0194 -0.7989
 8614SOL    MW434230   6.292   2.947   4.203  0.2684 -0.6122 -0.6834
 8615SOL     OW34231   1.625   2.182   4.209  0.1926  0.6446 -0.3577
 8615SOL    HW234232   1.534   2.198   4.184 -0.0386 -0.9663 -0.6397
 8615SOL    HW334233   1.621   2.108   4.270  1.2542  1.0735  0.2765
 8615SOL    MW434234   1.612   2.174   4.214  0.3022  0.4886 -0.3112
 8616SOL     OW34235   4.681   3.340   3.265 -0.3550 -0.4583  0.1373
 8616SOL    HW234236   4.761   3.300   3.298 -0.5723 -0.6047  0.4864
 8616SOL    HW334237   4.712   3.411   3.209  0.0757 -2.2462 -2.0121
 8616SOL    MW434238   4.696   3.344   3.262 -0.3268 -0.7135 -0.1002
 8617SOL     OW34239   3.014   1.173   4.106 -0.0745  0.0513 -0.7268
 8617SOL    HW234240   2.971   1.099   4.063 -0.5553 -0.8556  1.1618
 8617SOL    HW334241   2.987   1.165   4.198  2.3930  0.7415  0.1258
 8617SOL    MW434242   3.005   1.162   4.113  0.1876  0.0227 -0.3651
 8618SOL     OW34243   1.117   4.804   1.966  0.2685  0.0684  0.3835
 8618SOL    HW234244   1.031   4.845   1.958  0.7923  1.3586  1.0864
 8618SOL    HW334245   1.098   4.713   1.990 -0.8950  0.5557  1.4185
 8618SOL    MW434246   1.104   4.797   1.968  0.1841  0.3029  0.6128
 8619SOL     OW34247   5.010   0.304   6.212 -0.2880  0.1956 -0.2841
 8619SOL    HW234248   4.980   0.232   6.157 -1.3292 -0.4363  1.0516
 8619SOL    HW334249   5.100   0.281   6.235  0.7429  1.2154 -2.8525
 8619SOL    MW434250   5.018   0.292   6.208 -0.2894  0.2468 -0.4467
 8620SOL     OW34251   0.046   5.691   0.632 -0.1777  0.2263 -0.4319
 8620SOL    HW234252   0.024   5.608   0.673 -0.5434 -1.1189 -3.1287
 8620SOL    HW334253   0.130   5.715   0.670 -0.4359 -0.9400  0.9704
 8620SOL    MW434254   0.054   5.683   0.642 -0.2600 -0.1051 -0.6027
 8621SOL     OW34255   5.902   6.451   3.528  0.1438  0.0745 -0.0625
 8621SOL    HW234256   5.934   6.490   3.447 -0.0490  0.3580 -0.0034
 8621SOL    HW334257   5.913   6.519   3.594 -2.6624  1.0528 -0.4641
 8621SOL    MW434258   5.908   6.465   3.526 -0.2519  0.2410 -0.1077
 8622SOL     OW34259   3.112   0.511   6.285 -0.9564  0.8976 -0.2421
 8622SOL    HW234260   3.071   0.566   6.218  0.8776 -0.4432 -2.6317
 8622SOL    HW334261   3.154   0.440   6.236 -0.4531 -0.8248  2.4480
 8622SOL    MW434262   3.112   0.509   6.269 -0.6480  0.4935 -0.2025
 8623SOL     OW34263   3.681   3.344   6.117  0.2289  0.2040  0.2298
 8623SOL    HW234264   3.651   3.262   6.079  1.7315  0.7016 -2.2998
 8623SOL    HW334265   3.768   3.324   6.152  0.7237  0.7305 -0.6534
 8623SOL    MW434266   3.689   3.331   6.116  0.4924  0.3391 -0.2205
 8624SOL     OW34267   2.379   3.377   0.606 -0.0059  0.3036  0.1596
 8624SOL    HW234268   2.423   3.293   0.612 -1.7739 -0.6673  0.2409
 8624SOL    HW334269   2.310   3.373   0.672 -1.0656  1.2088 -0.8401
 8624SOL    MW434270   2.375   3.365   0.616 -0.3790  0.2949  0.0385
 8625SOL     OW34271   5.359   6.125   1.944 -0.4942 -0.1023 -0.0491
 8625SOL    HW234272   5.454   6.119   1.934 -0.5142  0.5216 -0.6263
 8625SOL    HW334273   5.347   6.184   2.018 -0.4445  1.5972 -1.3448
 8625SOL    MW434274   5.370   6.132   1.953 -0.4903  0.2043 -0.2962
 8626SOL     OW34275   5.297   5.806   6.412 -0.5069  0.2462  0.1650
 8626SOL    HW234276   5.321   5.719   6.381 -0.3332  1.2761 -2.9201
 8626SOL    HW334277   5.206   5.817   6.384 -0.5688  1.0105  0.6439
 8626SOL    MW434278   5.288   5.796   6.404 -0.4922  0.4829 -0.1788
 8627SOL     OW34279   0.683   4.800   1.772  0.4221  0.6796 -0.0461
 8627SOL    HW234280   0.654   4.738   1.840  0.5102  0.6108 -0.0711
 8627SOL    HW334281   0.716   4.744   1.702 -0.4909  0.7141 -0.5245
 8627SOL    MW434282   0.683   4.784   1.771  0.3133  0.6751 -0.1125
 8628SOL     OW34283   1.749   2.010   1.327  0.2167 -0.4288  0.2494
 8628SOL    HW234284   1.712   1.955   1.258  1.9162 -2.2264  0.6641
 8628SOL    HW334285   1.705   1.981   1.407 -0.5166  0.4579  0.1874
 8628SOL    MW434286   1.738   1.999   1.329  0.3442 -0.5490  0.2959
 8629SOL     OW34287   0.557   1.003   1.500  0.1718 -0.1935 -0.2285
 8629SOL    HW234288   0.471   0.966   1.482  0.4912 -0.7272 -0.6702
 8629SOL    HW334289   0.541   1.098   1.505 -0.4467 -0.2898 -0.2251
 8629SOL    MW434290   0.543   1.011   1.499  0.1323 -0.2766 -0.2863
 8630SOL     OW34291   0.723   2.642   5.940  0.5196 -0.1286 -0.7164
 8630SOL    HW234292   0.739   2.572   6.003  0.3276  0.0765 -0.4395
 8630SOL    HW334293   0.649   2.611   5.888 -2.9133  1.8637  2.5031
 8630SOL    MW434294   0.716   2.629   5.941  0.0413  0.1613 -0.2551
 8631SOL     OW34295   3.005   0.710   6.131  0.2411  0.1061 -0.2963
 8631SOL    HW234296   3.047   0.796   6.131 -0.3231  0.3888 -0.5731
 8631SOL    HW334297   2.954   0.709   6.212  0.0688  0.1239 -0.4042
 8631SOL    MW434298   3.004   0.721   6.141  0.1439  0.1457 -0.3471
 8632SOL     OW34299   2.543   1.822   2.398  0.1045  0.1421 -0.0894
 8632SOL    HW234300   2.628   1.787   2.423 -0.4016 -0.4742  0.8882
 8632SOL    HW334301   2.507   1.857   2.480 -1.6970 -2.0614  0.1453
 8632SOL    MW434302   2.549   1.822   2.412 -0.2000 -0.2300  0.0706
 8633SOL     OW34303   0.151   5.416   4.319 -0.1883 -0.6322  0.1950
 8633SOL    HW234304   0.103   5.477   4.263 -0.1947 -2.2730 -1.6985
 8633SOL    HW334305   0.091   5.343   4.332  0.5933 -1.2206  0.5730
 8633SOL    MW434306   0.137   5.415   4.313 -0.0860 -0.9263 -0.0050
 8634SOL     OW34307   2.748   4.151   4.854  0.6228 -0.0800 -0.1297
 8634SOL    HW234308   2.786   4.236   4.831 -1.3596  0.6716 -0.8669
 8634SOL    HW334309   2.798   4.088   4.801  1.8617  0.6522  0.1330
 8634SOL    MW434310   2.760   4.154   4.844  0.5247  0.1158 -0.1923
 8635SOL     OW34311   2.524   3.325   0.940  0.2860  0.1470 -0.4377
 8635SOL    HW234312   2.496   3.285   1.023  0.6660 -0.1403 -0.4442
 8635SOL    HW334313   2.443   3.351   0.897  0.0389 -0.4574 -0.3489
 8635SOL    MW434314   2.510   3.323   0.945  0.3036  0.0294 -0.4268
 8636SOL     OW34315   4.456   4.535   1.860 -0.1372 -0.1272  0.0038
 8636SOL    HW234316   4.477   4.558   1.770  1.5279 -0.3618  0.3060
 8636SOL    HW334317   4.457   4.618   1.908  1.3309 -0.2565  0.2322
 8636SOL    MW434318   4.459   4.549   1.855  0.2762 -0.1752  0.0738
 8637SOL     OW34319   4.015   3.185   4.615  0.0696 -0.3254 -0.2298
 8637SOL    HW234320   3.923   3.182   4.642 -0.0625  3.7638  0.4426
 8637SOL    HW334321   4.062   3.140   4.684 -1.2625 -0.3805  0.6742
 8637SOL    MW434322   4.009   3.179   4.628 -0.1236  0.2068 -0.0218
 8638SOL     OW34323   3.769   1.745   3.222 -0.3032 -0.6638  0.5386
 8638SOL    HW234324   3.838   1.788   3.273  0.2248  0.2083 -0.8349
 8638SOL    HW334325   3.799   1.654   3.212  1.5326  0.0687 -1.3882
 8638SOL    MW434326   3.782   1.738   3.227  0.0087 -0.4521  0.1032
 8639SOL     OW34327   4.627   4.872   2.979  0.6530  0.0482 -0.3207
 8639SOL    HW234328   4.714   4.833   2.980  0.4254 -0.6202 -2.2332
 8639SOL    HW334329   4.614   4.906   3.068  2.3246 -0.9830  0.3517
 8639SOL    MW434330   4.636   4.871   2.991  0.8435 -0.1760 -0.4843
 8640SOL     OW34331   3.914   0.378   6.186 -0.2585  0.3547  0.2604
 8640SOL    HW234332   3.838   0.421   6.226 -3.3820 -3.4102 -1.0494
 8640SOL    HW334333   3.965   0.346   6.261 -0.6076  1.8018  1.1649
 8640SOL    MW434334   3.911   0.380   6.201 -0.7167  0.0489  0.2069
 8641SOL     OW34335   4.753   0.596   4.013  0.0282 -0.2271  0.0399
 8641SOL    HW234336   4.694   0.593   3.937  2.2782 -1.3910 -1.7798
 8641SOL    HW334337   4.836   0.626   3.978  1.4399 -1.8196  1.8251
 8641SOL    MW434338   4.756   0.599   3.998  0.5113 -0.5908  0.0353
 8642SOL     OW34339   0.704   4.307   2.824 -0.0746 -0.8005 -0.1428
 8642SOL    HW234340   0.747   4.365   2.887 -0.0582  0.2193 -1.0740
 8642SOL    HW334341   0.712   4.352   2.740 -2.4071 -0.8626 -0.4687
 8642SOL    MW434342   0.710   4.321   2.822 -0.3802 -0.6741 -0.3087
 8643SOL     OW34343   3.214   5.564   1.247  0.4868  0.1569 -0.3827
 8643SOL    HW234344   3.235   5.477   1.282 -1.0779 -0.2554 -0.3767
 8643SOL    HW334345   3.184   5.547   1.158 -3.2085  0.1320  0.6620
 8643SOL    MW434346   3.213   5.550   1.240 -0.2072  0.0992 -0.2441
 8644SOL     OW34347   2.291   3.863   0.464 -0.6499  0.3488  0.3175
 8644SOL    HW234348   2.282   3.795   0.530 -0.6328 -0.6445 -0.6892
 8644SOL    HW334349   2.321   3.940   0.513  1.3650 -0.9199  1.1748
 8644SOL    MW434350   2.294   3.864   0.479 -0.3818  0.0504  0.2978
 8645SOL     OW34351   0.723   1.997   5.027 -0.3253  0.1828  0.3109
 8645SOL    HW234352   0.723   2.076   5.080 -1.8532  0.5530 -0.2014
 8645SOL    HW334353   0.802   1.950   5.055  0.7267  1.9447  0.4930
 8645SOL    MW434354   0.734   2.001   5.038 -0.3881  0.4641  0.2673
 8646SOL     OW34355   1.859   6.175   2.715  0.1203  0.4746  0.1034
 8646SOL    HW234356   1.901   6.203   2.633 -2.0313  2.0800 -0.5330
 8646SOL    HW334357   1.897   6.233   2.782  1.9082 -0.8632  0.3356
 8646SOL    MW434358   1.870   6.186   2.713  0.0723  0.5099  0.0501
 8647SOL     OW34359   1.610   3.941   3.834  0.1759  0.0549  0.4211
 8647SOL    HW234360   1.621   3.971   3.744 -0.8446  0.5754  0.4622
 8647SOL    HW334361   1.662   3.860   3.838  0.4315  0.1524 -0.5568
 8647SOL    MW434362   1.618   3.934   3.823  0.0750  0.1365  0.2975
 8648SOL     OW34363   6.213   3.399   3.572 -0.6927 -0.0465 -0.1866
 8648SOL    HW234364   6.229   3.491   3.593  0.2630 -0.5079  1.2712
 8648SOL    HW334365   6.205   3.397   3.477 -0.0922  1.4554 -0.2941
 8648SOL    MW434366   6.214   3.411   3.562 -0.4874  0.0908 -0.0084
 8649SOL     OW34367   6.205   1.237   1.821  0.4960 -0.2077  0.6456
 8649SOL    HW234368   6.181   1.192   1.740  1.7572 -0.0126  0.1430
 8649SOL    HW334369   6.135   1.215   1.882  0.3772 -1.7323  0.0036
 8649SOL    MW434370   6.192   1.228   1.818  0.6467 -0.3831  0.4946
 8650SOL     OW34371   1.090   5.364   5.338 -0.2627 -0.0430  0.1120
 8650SOL    HW234372   1.008   5.384   5.294  0.1191 -3.8011 -2.7706
 8650SOL    HW334373   1.156   5.370   5.270  1.1102 -1.5997  1.2342
 8650SOL    MW434374   1.088   5.367   5.323 -0.0312 -0.7442 -0.1203
 8651SOL     OW34375   0.025   1.615   2.917  0.3528 -0.7382  0.1401
 8651SOL    HW234376  -0.048   1.591   2.859 -1.0310 -0.2843  1.5982
 8651SOL    HW334377   0.045   1.706   2.894  0.5461 -0.9067 -0.3581
 8651SOL    MW434378   0.018   1.624   2.907  0.1957 -0.7006  0.2668
 8652SOL     OW34379   3.255   1.401   6.335  0.2103 -0.0651 -0.1961
 8652SOL    HW234380   3.191   1.339   6.299 -0.9257  1.2273 -0.4860
 8652SOL    HW334381   3.323   1.346   6.372 -1.4167 -1.5261  0.7774
 8652SOL    MW434382   3.255   1.386   6.335 -0.1542 -0.0874 -0.1059
 8653SOL     OW34383   1.819   3.307   3.123  0.1801  0.3053  0.3091
 8653SOL    HW234384   1.815   3.212   3.117 -1.4451  0.3086  0.8206
 8653SOL    HW334385   1.872   3.334   3.047  2.9181 -1.1036  1.5560
 8653SOL    MW434386   1.826   3.298   3.112  0.3269  0.1199  0.5411
 8654SOL     OW34387   4.200   4.075   1.389 -0.2045  0.2540  0.4198
 8654SOL    HW234388   4.260   4.001   1.400 -0.2938 -0.1429 -1.4923
 8654SOL    HW334389   4.254   4.152   1.406  0.1137 -0.1879  1.5288
 8654SOL    MW434390   4.215   4.075   1.393 -0.1743  0.1434  0.3139
 8655SOL     OW34391   3.121   4.366   4.696  0.3014 -0.2276  0.3362
 8655SOL    HW234392   3.134   4.457   4.725 -0.0841 -0.9579  2.9984
 8655SOL    HW334393   3.192   4.351   4.634  0.6348  1.7417  0.1694
 8655SOL    MW434394   3.132   4.376   4.691  0.2945 -0.0641  0.6654
 8656SOL     OW34395   2.009   3.112   3.665 -0.0242 -0.0510  0.3458
 8656SOL    HW234396   1.927   3.152   3.635  0.5767  1.1217  0.2264
 8656SOL    HW334397   2.055   3.089   3.585 -0.2083 -0.6762  0.4135
 8656SOL    MW434398   2.004   3.114   3.651  0.0308  0.0212  0.3390
 8657SOL     OW34399   4.340   2.433   6.285  0.2196  0.0086  0.0766
 8657SOL    HW234400   4.421   2.477   6.260 -0.9215  3.3449  1.5115
 8657SOL    HW334401   4.272   2.477   6.235 -1.0295 -0.1012  1.5725
 8657SOL    MW434402   4.342   2.445   6.275 -0.0957  0.4343  0.4633
 8658SOL     OW34403   1.663   5.059   1.417  0.1359  0.9125  0.1563
 8658SOL    HW234404   1.595   5.049   1.483 -1.1989 -2.3126 -1.4367
 8658SOL    HW334405   1.723   4.986   1.434 -0.7222 -0.5629 -2.5289
 8658SOL    MW434406   1.662   5.048   1.428 -0.1535  0.2924 -0.4082
 8659SOL     OW34407   0.075   1.341   0.765 -0.4679  0.0269 -0.0612
 8659SOL    HW234408   0.160   1.354   0.725 -0.9996 -0.3972 -1.3805
 8659SOL    HW334409   0.094   1.297   0.848  0.6832  1.2169  0.3315
 8659SOL    MW434410   0.088   1.337   0.771 -0.3862  0.1280 -0.1835
 8660SOL     OW34411   1.914   3.217   6.377 -0.2469 -0.0974  0.4455
 8660SOL    HW234412   1.936   3.198   6.286  1.7879 -1.2189  1.1246
 8660SOL    HW334413   1.868   3.139   6.408 -1.7369  0.6294  0.1916
 8660SOL    MW434414   1.911   3.204   6.369 -0.1751 -0.1495  0.5016
 8661SOL     OW34415   2.497   4.401   5.004  0.0079  0.0975 -0.1460
 8661SOL    HW234416   2.494   4.306   4.989 -2.0299  0.1431 -0.3240
 8661SOL    HW334417   2.447   4.414   5.084  0.9300  0.9711  0.3074
 8661SOL    MW434418   2.490   4.390   5.012 -0.1393  0.2188 -0.1097
 8662SOL     OW34419   0.658   5.116   1.573 -0.1960 -0.2727 -0.2050
 8662SOL    HW234420   0.713   5.052   1.529  0.6449 -0.0582  0.5031
 8662SOL    HW334421   0.580   5.067   1.598 -0.2608 -0.6212 -1.0716
 8662SOL    MW434422   0.655   5.101   1.571 -0.0936 -0.2904 -0.2259
 8663SOL     OW34423   1.431   1.894   3.876  0.1900  0.2618 -0.0527
 8663SOL    HW234424   1.386   1.971   3.913  0.2106 -0.0976  0.7531
 8663SOL    HW334425   1.361   1.830   3.863  0.3097  0.0789  0.1931
 8663SOL    MW434426   1.416   1.896   3.879  0.2085  0.1902  0.0860
 8664SOL     OW34427   1.135   5.235   0.366  0.3284  0.9854 -0.3030
 8664SOL    HW234428   1.190   5.158   0.351 -1.3905 -0.4241  0.3514
 8664SOL    HW334429   1.122   5.272   0.278  1.4861  0.7865 -0.5796
 8664SOL    MW434430   1.141   5.230   0.352  0.2543  0.7732 -0.2531
 8665SOL     OW34431   1.398   3.835   0.522 -0.3732 -0.3406  0.0391
 8665SOL    HW234432   1.349   3.916   0.507  1.7578  1.0879  0.2716
 8665SOL    HW334433   1.402   3.793   0.436 -0.1623  0.6485 -0.4540
 8665SOL    MW434434   1.392   3.840   0.509 -0.0642 -0.0216  0.0047
 8666SOL     OW34435   2.961   4.905   3.567  0.1927  0.2206 -0.1030
 8666SOL    HW234436   2.907   4.977   3.599 -1.2754 -0.3209 -1.2843
 8666SOL    HW334437   2.908   4.862   3.501  2.0413 -0.4179 -1.2555
 8666SOL    MW434438   2.947   4.909   3.563  0.2429  0.0649 -0.4109
 8667SOL     OW34439   0.245   1.791   5.496  0.4677 -0.1047  0.4842
 8667SOL    HW234440   0.327   1.772   5.541  0.2915 -0.8027  0.5247
 8667SOL    HW334441   0.261   1.874   5.450  1.8637 -1.1990 -1.1090
 8667SOL    MW434442   0.258   1.800   5.496  0.6286 -0.3412  0.2793
 8668SOL     OW34443   2.289   2.215   4.302  0.0378  0.0313  0.2768
 8668SOL    HW234444   2.335   2.134   4.324  0.3465  0.2660  0.5132
 8668SOL    HW334445   2.211   2.214   4.356  0.7184  0.5378  1.3082
 8668SOL    MW434446   2.285   2.204   4.312  0.1683  0.1291  0.4440
 8669SOL     OW34447   4.891   2.161   4.119  0.1431 -0.3438  0.7330
 8669SOL    HW234448   4.967   2.182   4.173  2.0995  0.2071 -2.0035
 8669SOL    HW334449   4.852   2.084   4.162  1.0034  0.5485  3.3259
 8669SOL    MW434450   4.896   2.153   4.132  0.5147 -0.1534  0.7141
 8670SOL     OW34451   4.249   1.243   1.637 -0.0239 -1.0240 -0.7728
 8670SOL    HW234452   4.274   1.283   1.720  0.2383  0.5672 -1.5627
 8670SOL    HW334453   4.160   1.211   1.652 -0.9452  1.4024 -0.5116
 8670SOL    MW434454   4.241   1.244   1.650 -0.1109 -0.4939 -0.8425
 8671SOL     OW34455   4.737   1.743   2.227 -0.4312  0.0060  0.0831
 8671SOL    HW234456   4.748   1.723   2.320 -1.2563 -0.3379  0.1079
 8671SOL    HW334457   4.653   1.788   2.222  0.6398  2.0926 -0.1948
 8671SOL    MW434458   4.728   1.746   2.239 -0.3988  0.2359  0.0497
 8672SOL     OW34459   4.390   5.744   4.297 -0.3721  0.7546  0.1861
 8672SOL    HW234460   4.374   5.816   4.237  0.5570 -0.3705 -1.4749
 8672SOL    HW334461   4.312   5.743   4.354 -1.0411  2.1640 -0.6469
 8672SOL    MW434462   4.377   5.753   4.297 -0.3378  0.7921 -0.1430
 8673SOL     OW34463   0.287   2.852   1.722 -0.0637  0.2693 -0.0146
 8673SOL    HW234464   0.292   2.763   1.757  2.4774  1.5551  3.4715
 8673SOL    HW334465   0.225   2.897   1.778  0.6026  1.3065 -0.0803
 8673SOL    MW434466   0.280   2.846   1.734  0.3595  0.5758  0.4366
 8674SOL     OW34467   5.238   0.463   0.525  0.1170 -0.6805 -0.3048
 8674SOL    HW234468   5.173   0.510   0.472  0.3716 -1.0468 -0.9518
 8674SOL    HW334469   5.189   0.390   0.563 -0.0257 -0.5146 -0.1651
 8674SOL    MW434470   5.223   0.460   0.523  0.1318 -0.7069 -0.3717
 8675SOL     OW34471   3.853   0.606   0.364  0.0964 -0.3651 -0.3238
 8675SOL    HW234472   3.862   0.533   0.303  1.2793 -1.2790  0.8794
 8675SOL    HW334473   3.898   0.679   0.321 -0.8586 -0.4071 -1.4191
 8675SOL    MW434474   3.860   0.606   0.350  0.1264 -0.4912 -0.3096
 8676SOL     OW34475   2.718   3.515   3.143  0.2918 -0.9915 -0.0580
 8676SOL    HW234476   2.674   3.431   3.136 -3.3250  0.8028 -1.2689
 8676SOL    HW334477   2.729   3.530   3.237 -2.0858 -1.4236  0.3398
 8676SOL    MW434478   2.714   3.506   3.154 -0.4991 -0.8117 -0.1653
 8677SOL     OW34479   1.210   1.018   2.423 -0.0640 -0.0112  0.5332
 8677SOL    HW234480   1.192   1.102   2.465 -0.1588  0.3315 -0.1804
 8677SOL    HW334481   1.125   0.987   2.392  0.1286  0.2006 -0.2386
 8677SOL    MW434482   1.197   1.025   2.424 -0.0511  0.0620  0.3372
 8678SOL     OW34483   3.490   1.264   6.423 -0.2868  0.0069 -0.1537
 8678SOL    HW234484   3.561   1.328   6.432 -0.2881 -0.0190  0.0449
 8678SOL    HW334485   3.510   1.196   6.487 -0.9229  0.4080  0.4837
 8678SOL    MW434486   3.502   1.264   6.432 -0.3709  0.0564 -0.0434
 8679SOL     OW34487   6.251   6.354   3.357 -0.1248 -0.0901 -0.0857
 8679SOL    HW234488   6.174   6.302   3.335 -0.8192  0.9376 -0.1593
 8679SOL    HW334489   6.312   6.338   3.284 -0.7907  0.1053 -0.6990
 8679SOL    MW434490   6.249   6.345   3.344 -0.3042  0.0713 -0.1763
 8680SOL     OW34491   4.780   4.301   0.922 -0.2426  0.3011  0.6238
 8680SOL    HW234492   4.831   4.360   0.978  1.1320 -1.0871  0.9141
 8680SOL    HW334493   4.813   4.318   0.833  0.8846 -0.6858  0.8268
 8680SOL    MW434494   4.791   4.311   0.917  0.0875 -0.0123  0.6889
 8681SOL     OW34495   5.018   2.343   3.298  0.1421  0.3779 -0.6012
 8681SOL    HW234496   5.109   2.318   3.283  0.1636 -0.1961  0.4623
 8681SOL    HW334497   4.987   2.284   3.366 -0.5102  1.6997  0.2844
 8681SOL    MW434498   5.026   2.332   3.305  0.0588  0.4766 -0.3440
 8682SOL     OW34499   5.389   6.191   1.465 -0.0560 -0.7026 -0.1546
 8682SOL    HW234500   5.444   6.257   1.509 -1.0671  0.1321 -0.0814
 8682SOL    HW334501   5.315   6.242   1.431 -1.4497 -1.9607  0.8952
 8682SOL    MW434502   5.387   6.207   1.467 -0.3733 -0.7585 -0.0064
 8683SOL     OW34503   0.879   0.781   0.624  0.2256  0.0912  0.3431
 8683SOL    HW234504   0.939   0.730   0.678  0.9484  0.9393  0.3781
 8683SOL    HW334505   0.807   0.722   0.605  0.8288 -0.7924  0.7341
 8683SOL    MW434506   0.877   0.767   0.629  0.4006  0.0865  0.3993
 8684SOL     OW34507   5.338   1.273   4.332  0.3332 -0.3541  0.3616
 8684SOL    HW234508   5.329   1.285   4.237 -1.2743 -0.6435  0.4449
 8684SOL    HW334509   5.314   1.181   4.346  0.6619 -0.3404  1.0480
 8684SOL    MW434510   5.334   1.262   4.321  0.1645 -0.3905  0.4632
 8685SOL     OW34511   4.975   5.756   1.370 -0.4805  0.0907 -0.2820
 8685SOL    HW234512   5.059   5.758   1.324 -0.9433  1.9840 -1.1311
 8685SOL    HW334513   4.998   5.748   1.462  0.5380 -1.3007 -0.6203
 8685SOL    MW434514   4.989   5.755   1.376 -0.4072  0.1569 -0.4387
 8686SOL     OW34515   1.350   3.326   2.196 -0.5066 -0.5920  0.3209
 8686SOL    HW234516   1.286   3.321   2.125 -0.6958  0.3192  0.4075
 8686SOL    HW334517   1.305   3.376   2.265  0.3288  0.1475  0.3472
 8686SOL    MW434518   1.336   3.332   2.196 -0.4214 -0.3742  0.3358
 8687SOL     OW34519   6.394   4.708   2.884  0.4640  0.5312 -0.7367
 8687SOL    HW234520   6.377   4.704   2.978 -0.2420 -1.4468 -0.9103
 8687SOL    HW334521   6.317   4.753   2.848 -0.4425 -0.8351 -0.5905
 8687SOL    MW434522   6.382   4.713   2.892  0.2513  0.0899 -0.7403
 8688SOL     OW34523   1.946   5.400   1.974 -0.4487 -0.0568 -0.6205
 8688SOL    HW234524   1.910   5.412   2.061  1.6741 -0.1622  0.3311
 8688SOL    HW334525   1.953   5.489   1.938 -0.8836  0.0243 -0.5091
 8688SOL    MW434526   1.943   5.413   1.981 -0.2260 -0.0600 -0.4802
 8689SOL     OW34527   4.713   6.089   3.532  0.3969 -0.5332 -0.1830
 8689SOL    HW234528   4.664   6.104   3.612  0.2208  0.5151 -0.4621
 8689SOL    HW334529   4.650   6.106   3.462  1.3508  1.8330 -0.5663
 8689SOL    MW434530   4.699   6.094   3.533  0.4995 -0.0827 -0.2704
 8690SOL     OW34531   0.668   1.731   1.342 -0.1513 -0.0099 -0.2417
 8690SOL    HW234532   0.667   1.651   1.289  1.6030 -0.3640  0.2176
 8690SOL    HW334533   0.654   1.802   1.278  2.6208 -0.3660 -1.3553
 8690SOL    MW434534   0.666   1.730   1.326  0.4459 -0.1036 -0.3280
 8691SOL     OW34535   1.833   2.438   5.808  0.0597  0.1133 -0.0318
 8691SOL    HW234536   1.757   2.453   5.752 -1.5357 -1.0666  1.7002
 8691SOL    HW334537   1.906   2.428   5.747 -1.5325 -0.7233 -1.8948
 8691SOL    MW434538   1.833   2.438   5.793 -0.3609 -0.1528 -0.0491
 8692SOL     OW34539   5.070   3.735   4.122  0.5087  0.1880  0.0316
 8692SOL    HW234540   5.011   3.781   4.181 -1.0242  0.7174 -1.8117
 8692SOL    HW334541   5.109   3.804   4.069  1.4472 -0.3139  0.0631
 8692SOL    MW434542   5.067   3.750   4.123  0.4303  0.1916 -0.2075
 8693SOL     OW34543   3.051   4.636   6.356 -0.1197 -0.3003 -0.3781
 8693SOL    HW234544   3.125   4.601   6.307  0.1822 -0.4681  0.1930
 8693SOL    HW334545   2.987   4.659   6.289  0.0445 -1.0907 -0.8210
 8693SOL    MW434546   3.052   4.634   6.341 -0.0582 -0.4267 -0.3612
 8694SOL     OW34547   1.618   5.675   3.103 -0.0775  0.1227  0.0408
 8694SOL    HW234548   1.579   5.751   3.060 -0.4853 -0.8678 -1.4408
 8694SOL    HW334549   1.543   5.630   3.144 -0.1729 -0.5450 -0.8325
 8694SOL    MW434550   1.603   5.679   3.103 -0.1439 -0.0961 -0.2699
 8695SOL     OW34551   3.974   5.677   1.808 -0.0979  0.5815 -0.2332
 8695SOL    HW234552   3.891   5.694   1.763  0.0964 -0.2379 -0.9125
 8695SOL    HW334553   4.013   5.763   1.820 -1.5045  1.0951  0.9941
 8695SOL    MW434554   3.968   5.691   1.804 -0.2578  0.5411 -0.1609
 8696SOL     OW34555   1.321   2.911   1.176 -0.3238 -0.3454  0.3912
 8696SOL    HW234556   1.270   2.859   1.113 -0.3335 -0.7014  0.6900
 8696SOL    HW334557   1.258   2.933   1.245 -0.4722  0.5755 -0.0223
 8696SOL    MW434558   1.306   2.907   1.177 -0.3447 -0.2709  0.3760
 8697SOL     OW34559   5.106   2.900   3.302  0.3391  0.3100  0.4857
 8697SOL    HW234560   5.194   2.937   3.293  1.4142 -1.7554  1.7051
 8697SOL    HW334561   5.121   2.810   3.332 -2.1499 -0.7491 -1.1471
 8697SOL    MW434562   5.120   2.893   3.305  0.1525 -0.1022  0.4311
 8698SOL     OW34563   1.393   0.714   1.235 -0.2168 -0.4088 -0.0010
 8698SOL    HW234564   1.378   0.680   1.323  0.3804  0.2633  0.3664
 8698SOL    HW334565   1.323   0.676   1.182 -0.3996 -1.0579  0.6972
 8698SOL    MW434566   1.382   0.705   1.240 -0.1621 -0.4058  0.1396
 8699SOL     OW34567   6.374   5.578   3.777 -0.7587 -0.4474  0.4003
 8699SOL    HW234568   6.329   5.520   3.715  1.3210 -1.4614 -0.2612
 8699SOL    HW334569   6.398   5.521   3.850  1.6769 -0.5927 -0.4435
 8699SOL    MW434570   6.371   5.562   3.778 -0.1630 -0.6003  0.2017
 8700SOL     OW34571   2.996   0.124   0.148 -0.1065  0.3655  0.1093
 8700SOL    HW234572   3.007   0.218   0.156 -0.7651  0.4727 -0.2072
 8700SOL    HW334573   3.057   0.098   0.079  2.9848 -0.0474  2.7424
 8700SOL    MW434574   3.005   0.133   0.140  0.2144  0.3252  0.4150
 8701SOL     OW34575   0.948   3.975   5.253  0.3071  0.1250  0.1824
 8701SOL    HW234576   1.010   4.035   5.212 -0.7799 -0.9461 -3.3658
 8701SOL    HW334577   0.867   3.987   5.205 -0.0818 -3.8625 -0.5162
 8701SOL    MW434578   0.946   3.984   5.241  0.1124 -0.5424 -0.3779
 8702SOL     OW34579   5.640   1.691   5.978  0.2038  0.1279  0.0509
 8702SOL    HW234580   5.702   1.635   5.931  1.0179  1.0916 -0.0396
 8702SOL    HW334581   5.578   1.719   5.910  0.2712 -0.0024 -0.0658
 8702SOL    MW434582   5.640   1.687   5.963  0.3201  0.2379  0.0236
 8703SOL     OW34583   3.061   2.716   5.770 -0.1145  0.2679  0.3456
 8703SOL    HW234584   3.060   2.774   5.694 -1.7085 -0.0726  0.0734
 8703SOL    HW334585   3.143   2.668   5.763  0.0077  0.6316 -0.8686
 8703SOL    MW434586   3.071   2.718   5.759 -0.3087  0.2710  0.1495
 8704SOL     OW34587   5.922   6.459   1.617 -0.4141  0.6115 -0.6957
 8704SOL    HW234588   5.886   6.408   1.545 -2.7462 -0.3934  1.0514
 8704SOL    HW334589   5.973   6.397   1.668 -0.8091  0.7154 -0.1648
 8704SOL    MW434590   5.924   6.444   1.614 -0.7739  0.4926 -0.3951
 8705SOL     OW34591   3.081   5.768   5.903 -0.3195  0.5857 -0.0114
 8705SOL    HW234592   2.990   5.773   5.873 -1.0603 -0.4349  1.9213
 8705SOL    HW334593   3.081   5.697   5.966  1.9841  0.1555 -0.4284
 8705SOL    MW434594   3.069   5.759   5.907 -0.1133  0.3943  0.1886
 8706SOL     OW34595   4.071   2.064   2.368 -0.3781 -0.1313 -0.2921
 8706SOL    HW234596   4.146   2.114   2.400 -1.6697 -0.0159  2.8711
 8706SOL    HW334597   4.022   2.127   2.314  1.4631 -0.0834 -2.0233
 8706SOL    MW434598   4.074   2.079   2.365 -0.3056 -0.1097 -0.1032
 8707SOL     OW34599   2.728   5.206   0.869  0.3259  0.2499 -0.4312
 8707SOL    HW234600   2.736   5.241   0.958  3.0916  0.4377 -0.6664
 8707SOL    HW334601   2.651   5.150   0.873  0.5774 -0.0701  2.2319
 8707SOL    MW434602   2.719   5.203   0.882  0.7240  0.2324 -0.1109
 8708SOL     OW34603   4.300   5.951   0.875  0.1052  0.1246  0.3005
 8708SOL    HW234604   4.286   5.958   0.970 -2.8274  0.5980 -0.0698
 8708SOL    HW334605   4.212   5.935   0.839  0.9479  1.1457 -2.4489
 8708SOL    MW434606   4.286   5.950   0.883 -0.1705  0.3218 -0.1111
 8709SOL     OW34607   3.071   0.644   4.519 -0.0531 -0.3286 -0.1380
 8709SOL    HW234608   3.067   0.739   4.508  1.0875 -0.2747 -0.1703
 8709SOL    HW334609   3.057   0.630   4.613  1.2444 -0.0097  0.1222
 8709SOL    MW434610   3.069   0.655   4.530  0.2686 -0.2794 -0.1079
 8710SOL     OW34611   2.547   2.406   5.099 -0.7742  0.0308  0.2691
 8710SOL    HW234612   2.598   2.372   5.173 -0.3259  0.1684  0.0182
 8710SOL    HW334613   2.475   2.343   5.090  0.7801 -1.6701 -1.0533
 8710SOL    MW434614   2.544   2.393   5.108 -0.5100 -0.1754  0.0615
 8711SOL     OW34615   1.464   2.248   2.733  0.1287 -0.2619  0.1507
 8711SOL    HW234616   1.469   2.343   2.722 -0.2991 -0.3905 -1.4789
 8711SOL    HW334617   1.416   2.236   2.815 -0.7369  0.9540 -0.1411
 8711SOL    MW434618   1.458   2.259   2.743 -0.0420 -0.1184 -0.1028
 8712SOL     OW34619   3.468   4.043   0.886  0.4831  0.6023  0.5535
 8712SOL    HW234620   3.477   3.948   0.879  1.0004  0.5954  1.2370
 8712SOL    HW334621   3.545   4.079   0.843  0.2470  0.7167  0.2226
 8712SOL    MW434622   3.479   4.036   0.880  0.5202  0.6165  0.6000
 8713SOL     OW34623   5.576   5.582   1.285  0.1227 -0.2696 -0.7885
 8713SOL    HW234624   5.551   5.533   1.363  0.9173  1.8145  0.8817
 8713SOL    HW334625   5.496   5.586   1.232 -1.0742  0.0968  0.9722
 8713SOL    MW434626   5.562   5.576   1.288  0.0696  0.0537 -0.3358
 8714SOL     OW34627   0.942   1.847   5.141  0.0593 -0.4225 -0.5965
 8714SOL    HW234628   0.918   1.756   5.126  2.3049 -0.9557 -1.2519
 8714SOL    HW334629   0.975   1.849   5.230  0.7308 -0.4183 -0.8424
 8714SOL    MW434630   0.943   1.835   5.151  0.4442 -0.4923 -0.7154
 8715SOL     OW34631   1.759   0.872   1.144  0.5825  0.7786 -0.2744
 8715SOL    HW234632   1.826   0.843   1.205  0.1095 -0.0346 -0.1258
 8715SOL    HW334633   1.677   0.865   1.194  0.2095  0.2596 -0.9486
 8715SOL    MW434634   1.757   0.868   1.159  0.4709  0.6029 -0.3438
 8716SOL     OW34635   3.400   3.256   5.890  0.2310 -0.4304 -0.1251
 8716SOL    HW234636   3.465   3.303   5.837  0.6017 -1.8087 -0.9384
 8716SOL    HW334637   3.374   3.320   5.957  0.0401  1.2298 -1.6960
 8716SOL    MW434638   3.405   3.271   5.892  0.2548 -0.3932 -0.4396
 8717SOL     OW34639   0.166   2.873   3.385  0.0171 -0.5447 -0.4528
 8717SOL    HW234640   0.206   2.787   3.395  1.2683  0.1180  0.4510
 8717SOL    HW334641   0.155   2.906   3.474  1.2058  0.9502 -0.8096
 8717SOL    MW434642   0.170   2.866   3.398  0.3390 -0.2600 -0.3806
 8718SOL     OW34643   4.682   4.917   1.447 -0.1936  0.1387 -0.0912
 8718SOL    HW234644   4.596   4.926   1.487 -0.5663 -1.8435 -0.3641
 8718SOL    HW334645   4.665   4.880   1.361  0.9657 -1.0942  0.1746
 8718SOL    MW434646   4.669   4.914   1.441 -0.0898 -0.2855 -0.0921
 8719SOL     OW34647   3.962   1.478   5.736 -0.2454  0.3960  0.4485
 8719SOL    HW234648   3.884   1.525   5.765 -2.4476 -1.3159 -2.1835
 8719SOL    HW334649   3.967   1.402   5.793 -0.7868  0.2830  0.3497
 8719SOL    MW434650   3.952   1.474   5.747 -0.6074  0.1553  0.0882
 8720SOL     OW34651   0.165   6.304   5.592 -0.2110 -0.3709  0.3496
 8720SOL    HW234652   0.155   6.243   5.519 -0.9750  1.3463 -1.0434
 8720SOL    HW334653   0.185   6.388   5.551 -0.0837  0.5312  2.1556
 8720SOL    MW434654   0.166   6.307   5.577 -0.2950 -0.0253  0.4041
 8721SOL     OW34655   3.043   4.001   5.254  0.9393 -0.1342 -0.1391
 8721SOL    HW234656   3.137   4.017   5.252  1.4195 -2.2995  1.1023
 8721SOL    HW334657   3.026   3.970   5.343 -0.9390  0.0807 -0.3783
 8721SOL    MW434658   3.053   3.999   5.265  0.7548 -0.3915 -0.0069
 8722SOL     OW34659   2.126   5.019   2.623 -0.6256 -0.1495  0.3741
 8722SOL    HW234660   2.191   5.008   2.692 -2.0833 -1.7934  1.5792
 8722SOL    HW334661   2.169   5.074   2.557  1.1737  0.6186  2.1054
 8722SOL    MW434662   2.140   5.025   2.623 -0.5805 -0.2651  0.7615
 8723SOL     OW34663   0.090   0.527   1.205  0.3810  0.0512  0.2860
 8723SOL    HW234664   0.140   0.607   1.190 -0.6278  0.4288 -1.2567
 8723SOL    HW334665   0.142   0.458   1.162  0.3783  0.1848  0.0654
 8723SOL    MW434666   0.103   0.528   1.197  0.2475  0.1186  0.0534
 8724SOL     OW34667   1.978   2.598   5.450 -0.2665  0.2849 -0.1685
 8724SOL    HW234668   2.000   2.541   5.376 -2.7495 -1.2363  0.1599
 8724SOL    HW334669   2.020   2.557   5.525 -2.7642 -1.7720  0.2187
 8724SOL    MW434670   1.986   2.585   5.450 -0.9236 -0.1872 -0.0741
 8725SOL     OW34671   2.703   5.113   1.301 -0.3489 -0.8968  0.4438
 8725SOL    HW234672   2.656   5.163   1.234 -0.0248  0.5675  1.2553
 8725SOL    HW334673   2.726   5.178   1.367  1.6330 -1.8101  0.7252
 8725SOL    MW434674   2.700   5.128   1.301 -0.0446 -0.8241  0.5880
 8726SOL     OW34675   5.238   4.263   1.317 -0.4424 -0.8621  0.7307
 8726SOL    HW234676   5.156   4.228   1.282 -0.0802  0.0299 -1.1694
 8726SOL    HW334677   5.299   4.257   1.244  0.7298  0.0051  1.6036
 8726SOL    MW434678   5.235   4.258   1.303 -0.2400 -0.6300  0.5952
 8727SOL     OW34679   1.210   1.422   5.659  0.2543  0.4098 -0.6588
 8727SOL    HW234680   1.222   1.356   5.590  1.2662  0.0849 -0.1865
 8727SOL    HW334681   1.285   1.480   5.649  0.7639 -0.0094  0.5561
 8727SOL    MW434682   1.222   1.421   5.648  0.4551  0.3117 -0.4362
 8728SOL     OW34683   0.004   4.679   3.640  0.4130 -0.1997 -0.5248
 8728SOL    HW234684   0.004   4.613   3.571  0.8209  0.2649 -0.9799
 8728SOL    HW334685  -0.004   4.629   3.721  2.2667 -0.9533 -0.7565
 8728SOL    MW434686   0.003   4.664   3.642  0.7114 -0.2378 -0.6154
 8729SOL     OW34687   0.834   2.771   0.350 -0.2638  0.4654 -0.0284
 8729SOL    HW234688   0.842   2.752   0.443  2.5459 -0.2944 -0.3418
 8729SOL    HW334689   0.791   2.857   0.347 -0.9435  0.2415  1.9227
 8729SOL    MW434690   0.829   2.780   0.362  0.0172  0.3356  0.1877
 8730SOL     OW34691   5.377   1.736   2.258  0.0333 -0.3600  0.3393
 8730SOL    HW234692   5.304   1.700   2.309  1.1593 -1.9735  0.9082
 8730SOL    HW334693   5.378   1.685   2.178  0.2792 -0.0543  0.1467
 8730SOL    MW434694   5.367   1.725   2.254  0.2143 -0.5326  0.3889
 8731SOL     OW34695   1.014   1.835   6.245 -0.1497 -0.5257  0.1549
 8731SOL    HW234696   1.049   1.914   6.287 -1.7782 -0.4703  1.5220
 8731SOL    HW334697   0.997   1.861   6.155 -0.3984  0.6093  0.5138
 8731SOL    MW434698   1.017   1.849   6.239 -0.3974 -0.3687  0.3826
 8732SOL     OW34699   3.088   5.640   3.051 -0.1645  0.3426 -0.0056
 8732SOL    HW234700   2.994   5.628   3.056 -0.1484 -0.1363 -0.6416
 8732SOL    HW334701   3.113   5.594   2.970  0.6638  0.1049  0.3756
 8732SOL    MW434702   3.079   5.632   3.041 -0.0531  0.2481 -0.0392
 8733SOL     OW34703   4.503   3.265   0.924 -0.1040  0.6928 -0.5639
 8733SOL    HW234704   4.581   3.253   0.977 -0.3606  0.1554 -0.2953
 8733SOL    HW334705   4.493   3.360   0.915 -1.6110  0.9827  2.7093
 8733SOL    MW434706   4.512   3.276   0.929 -0.3367  0.6601 -0.0966
 8734SOL     OW34707   0.872   0.059   4.691  0.0780 -0.2395  0.3938
 8734SOL    HW234708   0.948   0.056   4.749  1.1299  1.2939 -0.7872
 8734SOL    HW334709   0.808   0.112   4.738  0.4090 -0.1266  0.7227
 8734SOL    MW434710   0.874   0.066   4.704  0.2605 -0.0223  0.2814
 8735SOL     OW34711   0.093   3.239   3.226  0.2020 -0.2765 -0.0539
 8735SOL    HW234712   0.056   3.210   3.142 -0.9817  0.2854  0.2584
 8735SOL    HW334713   0.170   3.184   3.238 -0.6905 -1.6953 -0.5773
 8735SOL    MW434714   0.098   3.228   3.216 -0.0719 -0.3895 -0.0817
 8736SOL     OW34715   4.781   1.009   4.278 -0.2864 -0.2688 -0.5583
 8736SOL    HW234716   4.698   1.049   4.306 -0.4936 -1.0991  0.0530
 8736SOL    HW334717   4.754   0.928   4.236  0.3006 -1.6435  1.5837
 8736SOL    MW434718   4.766   1.004   4.276 -0.2363 -0.5598 -0.1950
 8737SOL     OW34719   1.152   2.802   4.116  0.1574  0.1870 -0.0294
 8737SOL    HW234720   1.155   2.869   4.184 -0.2734 -1.0757  1.2756
 8737SOL    HW334721   1.060   2.778   4.110  0.3278 -0.4054 -0.3553
 8737SOL    MW434722   1.141   2.808   4.124  0.1230 -0.0578  0.0998
 8738SOL     OW34723   4.640   5.779   0.859  0.0988 -0.2263 -0.0913
 8738SOL    HW234724   4.642   5.853   0.919  2.2242 -1.6574  1.7768
 8738SOL    HW334725   4.562   5.793   0.806 -1.9187  1.2019  2.9528
 8738SOL    MW434726   4.630   5.790   0.860  0.1130 -0.2267  0.5568
 8739SOL     OW34727   1.409   3.476   3.627 -0.2327  0.7020 -0.1555
 8739SOL    HW234728   1.342   3.484   3.695  0.4224 -0.9872  0.7438
 8739SOL    HW334729   1.365   3.504   3.547 -1.4147  1.4775  0.7188
 8739SOL    MW434730   1.394   3.481   3.625 -0.3022  0.5815  0.0785
 8740SOL     OW34731   5.411   4.066   0.309 -0.1514 -0.4237  0.0770
 8740SOL    HW234732   5.354   4.058   0.385 -3.1689  0.9508 -1.8442
 8740SOL    HW334733   5.411   3.979   0.268 -2.2179 -0.1368 -0.6726
 8740SOL    MW434734   5.403   4.054   0.313 -0.8221 -0.2045 -0.2754
 8741SOL     OW34735   4.630   6.196   2.852 -0.0347 -0.4385 -0.4628
 8741SOL    HW234736   4.725   6.187   2.859  0.4580  2.1602 -2.4622
 8741SOL    HW334737   4.608   6.266   2.913 -0.8083 -1.4104  0.4166
 8741SOL    MW434738   4.639   6.204   2.861 -0.0718 -0.2239 -0.6106
 8742SOL     OW34739   0.381   5.709   6.086 -0.1815  0.0921 -0.5976
 8742SOL    HW234740   0.436   5.646   6.039  0.1443 -1.7475  2.0424
 8742SOL    HW334741   0.291   5.685   6.061 -0.0112 -0.7925 -0.3881
 8742SOL    MW434742   0.376   5.697   6.076 -0.1161 -0.2673 -0.2217
 8743SOL     OW34743   1.641   4.604   2.517 -0.3120  0.1024  0.2675
 8743SOL    HW234744   1.688   4.521   2.526  1.8839  1.1389 -0.7564
 8743SOL    HW334745   1.601   4.620   2.602  4.0165  0.6899  2.4362
 8743SOL    MW434746   1.642   4.595   2.529  0.5488  0.3167  0.4185
 8744SOL     OW34747   6.278   5.550   0.269 -0.6808 -0.4223  0.2680
 8744SOL    HW234748   6.232   5.505   0.199  0.3528 -0.6534 -0.2809
 8744SOL    HW334749   6.274   5.643   0.245  2.4959 -0.6963 -1.9457
 8744SOL    MW434750   6.271   5.556   0.256 -0.1253 -0.4890 -0.0965
 8745SOL     OW34751   2.704   6.366   5.042  0.0424  0.1071  0.1432
 8745SOL    HW234752   2.770   6.326   4.985 -0.4611  1.3346 -1.3810
 8745SOL    HW334753   2.628   6.307   5.036  0.3966 -0.3896  0.5031
 8745SOL    MW434754   2.702   6.353   5.033  0.0227  0.2035 -0.0104
 8746SOL     OW34755   2.964   5.059   0.798  0.1455  0.1323 -0.2978
 8746SOL    HW234756   2.890   5.117   0.819  0.5421 -0.0006  1.7442
 8746SOL    HW334757   2.923   4.977   0.772 -0.5504 -0.4026  2.1484
 8746SOL    MW434758   2.949   5.056   0.798  0.1060  0.0442  0.2943
 8747SOL     OW34759   3.315   6.364   6.008  0.1236  0.5033  0.1838
 8747SOL    HW234760   3.333   6.387   5.917  1.2037 -0.2075  0.2062
 8747SOL    HW334761   3.238   6.307   6.004  0.2134  0.4138 -0.2885
 8747SOL    MW434762   3.307   6.360   5.995  0.2780  0.3977  0.1244
 8748SOL     OW34763   2.043   6.477   5.848 -0.4365 -0.4031 -1.0672
 8748SOL    HW234764   2.021   6.543   5.782  1.9690  1.2698 -0.3492
 8748SOL    HW334765   1.977   6.488   5.916  0.0013  1.4587 -0.8857
 8748SOL    MW434766   2.031   6.487   5.848 -0.0614  0.0632 -0.9485
 8749SOL     OW34767   5.913   1.463   2.909 -0.4681 -0.3982  0.0851
 8749SOL    HW234768   5.852   1.425   2.973 -0.5735  0.3821  0.4665
 8749SOL    HW334769   5.947   1.388   2.860 -0.1621 -1.0496  1.2526
 8749SOL    MW434770   5.909   1.448   2.911 -0.4416 -0.3812  0.2895
 8750SOL     OW34771   5.699   1.369   0.038  0.5817 -0.0143 -0.4019
 8750SOL    HW234772   5.778   1.358   0.091  0.6045  0.0502 -0.4230
 8750SOL    HW334773   5.721   1.326  -0.045  0.0994 -1.2322  0.0794
 8750SOL    MW434774   5.713   1.361   0.034  0.5211 -0.1665 -0.3412
 8751SOL     OW34775   4.227   5.947   6.213 -0.0982  0.2229 -0.3060
 8751SOL    HW234776   4.257   6.033   6.244  0.8854  0.5890 -2.0967
 8751SOL    HW334777   4.132   5.948   6.226 -0.0258  1.3566  0.2356
 8751SOL    MW434778   4.218   5.959   6.219  0.0411  0.4208 -0.4708
 8752SOL     OW34779   3.080   3.766   6.324  0.3492  0.0931 -0.2586
 8752SOL    HW234780   3.103   3.858   6.330  0.6337  0.0576 -0.7955
 8752SOL    HW334781   3.162   3.722   6.302  0.2918 -0.3327  0.3556
 8752SOL    MW434782   3.094   3.772   6.322  0.3791  0.0322 -0.2484
 8753SOL     OW34783   5.034   5.210   6.178 -0.2756  0.1143 -0.3714
 8753SOL    HW234784   4.982   5.159   6.116  1.9982 -0.7667 -1.6697
 8753SOL    HW334785   5.005   5.181   6.264 -1.3983 -0.8663 -1.0606
 8753SOL    MW434786   5.024   5.199   6.181 -0.1237 -0.1313 -0.6336
 8754SOL     OW34787   3.498   2.109   1.128  0.5113  0.2200  0.0407
 8754SOL    HW234788   3.575   2.054   1.112  0.3361  0.3162 -1.2462
 8754SOL    HW334789   3.520   2.193   1.087 -0.0963  0.4044  0.0893
 8754SOL    MW434790   3.511   2.113   1.120  0.4081  0.2570 -0.1227
 8755SOL     OW34791   2.010   1.734   3.407 -0.3486  0.2019  0.3719
 8755SOL    HW234792   2.035   1.760   3.318 -1.0007 -1.4668 -0.3302
 8755SOL    HW334793   2.091   1.700   3.445 -0.1648  0.5105  0.2593
 8755SOL    MW434794   2.024   1.733   3.400 -0.4104  0.0225  0.2644
 8756SOL     OW34795   3.234   5.954   2.143  0.3009 -0.2250 -0.1488
 8756SOL    HW234796   3.195   5.969   2.230  0.9612 -1.0592  0.3010
 8756SOL    HW334797   3.316   6.003   2.145  0.6663 -0.8368 -0.0337
 8756SOL    MW434798   3.240   5.962   2.155  0.4362 -0.4158 -0.0742
 8757SOL     OW34799   6.118   1.847   3.217  0.2058  0.3301  0.3068
 8757SOL    HW234800   6.112   1.777   3.282  0.1073 -0.5600 -0.6311
 8757SOL    HW334801   6.212   1.852   3.197  0.1845  0.2706  0.1860
 8757SOL    MW434802   6.130   1.838   3.223  0.1900  0.2048  0.1671
 8758SOL     OW34803   3.804   3.046   1.709  0.7816  0.5146  0.1820
 8758SOL    HW234804   3.898   3.061   1.700  0.6434  1.5832  0.3365
 8758SOL    HW334805   3.774   3.118   1.765  0.1729 -0.9145  1.7404
 8758SOL    MW434806   3.813   3.058   1.715  0.6831  0.4671  0.4080
 8759SOL     OW34807   1.262   1.224   4.281  0.5507 -0.0144 -0.4640
 8759SOL    HW234808   1.288   1.250   4.192 -1.1653 -0.0802 -1.0221
 8759SOL    HW334809   1.220   1.139   4.269  1.4425 -0.6295  0.6191
 8759SOL    MW434810   1.260   1.216   4.267  0.4420 -0.1043 -0.3947
 8760SOL     OW34811   0.462   2.774   5.571  0.1082 -0.0901  0.0535
 8760SOL    HW234812   0.482   2.723   5.649 -0.4804  0.0782  0.3186
 8760SOL    HW334813   0.384   2.733   5.534 -0.9845  1.2120  0.8305
 8760SOL    MW434814   0.454   2.762   5.576 -0.1136  0.1039  0.1910
 8761SOL     OW34815   6.045   0.881   4.546 -0.5860 -0.7285  0.2782
 8761SOL    HW234816   5.974   0.816   4.540 -0.8498 -0.3472 -1.2332
 8761SOL    HW334817   6.029   0.939   4.471  0.0452  0.6745  1.2071
 8761SOL    MW434818   6.033   0.880   4.535 -0.5375 -0.4931  0.2013
 8762SOL     OW34819   5.062   5.344   2.604 -0.4494  0.1841 -0.2499
 8762SOL    HW234820   5.052   5.413   2.539 -2.5778  1.2770  1.1003
 8762SOL    HW334821   5.050   5.389   2.688 -0.9027 -1.6610  0.7207
 8762SOL    MW434822   5.059   5.359   2.606 -0.7900  0.0849  0.0563
 8763SOL     OW34823   4.460   4.731   3.413  0.2381  0.5243  0.1579
 8763SOL    HW234824   4.373   4.769   3.415  0.5259  1.1902  0.1499
 8763SOL    HW334825   4.488   4.731   3.504  1.0229  2.1900 -0.0452
 8763SOL    MW434826   4.453   4.736   3.425  0.3796  0.8319  0.1301
 8764SOL     OW34827   6.300   5.285   0.931  0.2121  0.1077 -0.5430
 8764SOL    HW234828   6.259   5.372   0.932  0.5742  0.3411 -2.2848
 8764SOL    HW334829   6.228   5.224   0.944 -0.1526  0.6379 -0.0207
 8764SOL    MW434830   6.285   5.289   0.933  0.2118  0.2084 -0.7039
 8765SOL     OW34831   4.081   5.815   3.562 -0.4502  0.0453  0.6381
 8765SOL    HW234832   4.032   5.864   3.628 -0.5064  0.0332  0.6053
 8765SOL    HW334833   4.051   5.851   3.478 -0.5412 -0.0917  0.6120
 8765SOL    MW434834   4.071   5.826   3.559 -0.4696  0.0256  0.6303
 8766SOL     OW34835   1.402   5.676   0.428 -0.0915  0.3894  0.3367
 8766SOL    HW234836   1.418   5.597   0.480  0.1615 -0.0545 -0.4077
 8766SOL    HW334837   1.416   5.648   0.338 -1.2839  0.9618 -0.0368
 8766SOL    MW434838   1.406   5.662   0.423 -0.2154  0.4064  0.1892
 8767SOL     OW34839   4.065   2.810   1.915  0.3626 -0.4612  0.2780
 8767SOL    HW234840   4.058   2.716   1.899 -0.2794 -0.4351  0.3724
 8767SOL    HW334841   4.114   2.817   1.997  2.6681 -0.6280 -0.9913
 8767SOL    MW434842   4.071   2.798   1.923  0.5821 -0.4798  0.1230
 8768SOL     OW34843   2.928   4.266   5.484 -0.3851 -0.2281 -0.2481
 8768SOL    HW234844   2.919   4.353   5.524 -0.0691 -0.1079 -0.4327
 8768SOL    HW334845   2.929   4.205   5.558  0.3353  0.0028 -0.0640
 8768SOL    MW434846   2.927   4.270   5.499 -0.2484 -0.1818 -0.2481
 8769SOL     OW34847   3.140   3.228   0.131  0.2380 -0.0320 -0.1875
 8769SOL    HW234848   3.159   3.308   0.181 -0.2998 -0.9205  1.5192
 8769SOL    HW334849   3.091   3.259   0.055 -0.0997  1.2620  0.5155
 8769SOL    MW434850   3.136   3.243   0.128  0.1225  0.0215  0.1304
 8770SOL     OW34851   6.330   6.405   5.324  0.9447 -0.3391  0.3050
 8770SOL    HW234852   6.356   6.496   5.309 -0.0651 -0.1591 -0.4376
 8770SOL    HW334853   6.327   6.397   5.420  1.1037  0.3892  0.3782
 8770SOL    MW434854   6.333   6.416   5.335  0.8324 -0.2193  0.2167
 8771SOL     OW34855   4.050   6.224   5.532  0.2872  0.1163  0.0609
 8771SOL    HW234856   4.137   6.262   5.523  0.3711  0.2056  1.1287
 8771SOL    HW334857   4.023   6.204   5.442  1.0081  0.9714 -0.3640
 8771SOL    MW434858   4.058   6.227   5.519  0.3934  0.2409  0.1457
 8772SOL     OW34859   5.107   1.995   4.513 -0.5190  0.0671 -0.1960
 8772SOL    HW234860   5.026   2.022   4.556 -1.5098  0.2342 -2.0729
 8772SOL    HW334861   5.087   1.908   4.477  0.1814  0.0456 -0.5464
 8772SOL    MW434862   5.093   1.987   4.514 -0.5573  0.0863 -0.4898
 8773SOL     OW34863   6.367   5.157   5.715  0.4713 -0.2404  0.2497
 8773SOL    HW234864   6.305   5.094   5.752  1.4928 -1.4724 -0.0381
 8773SOL    HW334865   6.321   5.196   5.641  0.4463 -2.1309 -0.8028
 8773SOL    MW434866   6.353   5.154   5.710  0.6028 -0.6524  0.0728
 8774SOL     OW34867   5.526   6.413   4.210 -0.0966  0.6772 -0.2843
 8774SOL    HW234868   5.480   6.403   4.127 -1.4348 -0.5198  0.5528
 8774SOL    HW334869   5.475   6.478   4.258 -0.1922  0.2804  0.1614
 8774SOL    MW434870   5.513   6.420   4.206 -0.2858  0.4669 -0.1151
 8775SOL     OW34871   2.128   3.174   0.199  0.3578 -0.1233 -0.2234
 8775SOL    HW234872   2.131   3.270   0.192 -2.1328  0.0418  0.1788
 8775SOL    HW334873   2.116   3.144   0.109 -0.4932  0.0553 -0.1730
 8775SOL    MW434874   2.127   3.183   0.186 -0.0831 -0.0780 -0.1637
 8776SOL     OW34875   1.002   5.723   4.034  0.3530  0.2634  0.0974
 8776SOL    HW234876   0.976   5.804   4.078  1.3061  1.4634 -1.4504
 8776SOL    HW334877   1.091   5.707   4.065  0.3579  0.1038 -0.0016
 8776SOL    MW434878   1.010   5.732   4.044  0.4794  0.4006 -0.1199
 8777SOL     OW34879   0.112   3.741   2.019 -0.1322 -0.0999  0.3777
 8777SOL    HW234880   0.184   3.784   1.973  0.8245 -0.6317  1.3241
 8777SOL    HW334881   0.101   3.793   2.099 -1.2313  0.3386 -0.0401
 8777SOL    MW434882   0.120   3.754   2.023 -0.1510 -0.1122  0.4474
 8778SOL     OW34883   5.786   1.106   1.645  0.3339 -0.3067 -0.4929
 8778SOL    HW234884   5.857   1.044   1.661  1.1417  0.4312 -1.1457
 8778SOL    HW334885   5.748   1.077   1.562 -0.0182 -0.5792 -0.2443
 8778SOL    MW434886   5.790   1.094   1.636  0.3940 -0.2453 -0.5462
 8779SOL     OW34887   0.083   1.045   6.300  0.1816  1.0238  0.2656
 8779SOL    HW234888   0.061   1.135   6.322 -0.8198  0.4275  1.9241
 8779SOL    HW334889   0.022   1.023   6.229 -0.1608  1.3926  0.4401
 8779SOL    MW434890   0.072   1.054   6.293  0.0043  0.9938  0.5074
 8780SOL     OW34891   6.020   1.239   2.794  0.2340  0.3521  0.0102
 8780SOL    HW234892   6.080   1.252   2.721 -0.1375  1.9148 -0.0346
 8780SOL    HW334893   6.048   1.155   2.833  0.2658 -0.6471 -2.0400
 8780SOL    MW434894   6.032   1.229   2.790  0.1892  0.4264 -0.2662
 8781SOL     OW34895   5.348   1.118   0.845 -0.4297 -0.1784 -0.3309
 8781SOL    HW234896   5.392   1.116   0.930  0.6602  0.6742 -0.8458
 8781SOL    HW334897   5.402   1.061   0.790 -2.1984 -2.3003 -0.0100
 8781SOL    MW434898   5.361   1.110   0.849 -0.5193 -0.3459 -0.3565
 8782SOL     OW34899   4.465   4.914   0.986  0.0632 -0.1434  0.3995
 8782SOL    HW234900   4.440   4.968   1.061 -1.5788  0.0237 -0.2367
 8782SOL    HW334901   4.382   4.885   0.948  0.8902 -1.8324 -0.2142
 8782SOL    MW434902   4.451   4.918   0.991 -0.0443 -0.3442  0.2346
 8783SOL     OW34903   5.064   5.658   4.559 -0.2900 -0.0716 -0.2610
 8783SOL    HW234904   5.031   5.685   4.474  0.0487 -2.6041 -1.3028
 8783SOL    HW334905   5.156   5.638   4.544 -0.3649 -1.1184  0.5180
 8783SOL    MW434906   5.072   5.659   4.546 -0.2552 -0.5439 -0.2957
 8784SOL     OW34907   3.220   2.965   0.055 -0.0409 -0.0358  0.1868
 8784SOL    HW234908   3.223   3.056   0.082  1.2437  0.0022  0.0179
 8784SOL    HW334909   3.288   2.922   0.107 -0.3031 -0.7955 -0.0726
 8784SOL    MW434910   3.230   2.971   0.065  0.0940 -0.1310  0.1303
 8785SOL     OW34911   4.954   2.923   3.072 -0.3525 -0.3765  0.0826
 8785SOL    HW234912   4.971   3.002   3.021 -0.4475 -0.6231 -0.3420
 8785SOL    HW334913   5.012   2.930   3.147 -1.4499  0.8359  0.8569
 8785SOL    MW434914   4.963   2.934   3.075 -0.5098 -0.2491  0.1287
 8786SOL     OW34915   1.887   1.457   4.708 -0.0205 -0.0263 -0.1635
 8786SOL    HW234916   1.860   1.538   4.750 -0.2880  0.4448 -1.2016
 8786SOL    HW334917   1.916   1.484   4.621 -0.7742 -1.1187 -0.7781
 8786SOL    MW434918   1.888   1.471   4.702 -0.1553 -0.1082 -0.3816
 8787SOL     OW34919   0.189   1.932   1.154  0.2909 -0.5339  0.4631
 8787SOL    HW234920   0.245   2.004   1.185  1.4638 -1.5188  0.7003
 8787SOL    HW334921   0.120   1.924   1.220 -2.0193  2.6539 -1.2658
 8787SOL    MW434922   0.187   1.941   1.167  0.1408 -0.2432  0.2663
 8788SOL     OW34923   4.597   1.252   1.368 -0.1867  0.0520 -0.1839
 8788SOL    HW234924   4.515   1.292   1.395  0.2705  1.2269 -0.5057
 8788SOL    HW334925   4.664   1.317   1.386  0.8002 -1.1620  0.7486
 8788SOL    MW434926   4.595   1.266   1.374  0.0038  0.0468 -0.1033
 8789SOL     OW34927   5.202   4.492   5.797 -0.2374  0.2806 -0.2203
 8789SOL    HW234928   5.106   4.491   5.793 -0.3236 -0.2436  1.2989
 8789SOL    HW334929   5.228   4.405   5.765 -0.2972  0.2201 -0.1046
 8789SOL    MW434930   5.193   4.480   5.792 -0.2566  0.2034 -0.0046
 8790SOL     OW34931   6.037   4.882   6.428 -0.0517 -0.0308 -0.9956
 8790SOL    HW234932   6.051   4.976   6.420  1.4622 -0.1326 -0.0552
 8790SOL    HW334933   6.004   4.855   6.343 -1.2264  1.4499 -1.0593
 8790SOL    MW434934   6.035   4.891   6.416 -0.0070  0.1511 -0.8799
 8791SOL     OW34935   0.269   2.505   2.667 -0.2434 -0.0319 -0.0022
 8791SOL    HW234936   0.362   2.490   2.682 -0.1491 -0.2009 -0.7286
 8791SOL    HW334937   0.261   2.600   2.660 -0.0604 -0.0446 -0.3688
 8791SOL    MW434938   0.280   2.516   2.668 -0.2068 -0.0559 -0.1464
 8792SOL     OW34939   3.720   4.634   5.158 -0.8184 -0.2418 -0.2545
 8792SOL    HW234940   3.641   4.582   5.142 -1.1046  0.7753 -2.5681
 8792SOL    HW334941   3.789   4.589   5.109 -0.4761  0.0669 -0.0581
 8792SOL    MW434942   3.718   4.621   5.149 -0.8110 -0.0668 -0.5338
 8793SOL     OW34943   3.793   4.951   4.144 -0.0443  0.1064 -0.0207
 8793SOL    HW234944   3.740   4.871   4.135 -0.6944  0.4451  0.6673
 8793SOL    HW334945   3.806   4.981   4.054  0.4112 -0.8974 -0.3068
 8793SOL    MW434946   3.788   4.944   4.131 -0.0700  0.0187  0.0323
 8794SOL     OW34947   1.505   5.994   5.657  0.3364 -0.0526  0.5358
 8794SOL    HW234948   1.509   5.927   5.590  0.8471 -1.3899  1.8340
 8794SOL    HW334949   1.432   5.967   5.714 -0.7902  1.6341 -0.0270
 8794SOL    MW434950   1.496   5.982   5.656  0.2552 -0.0065  0.6328
 8795SOL     OW34951   1.845   2.572   3.794  0.2773  0.1089 -0.7205
 8795SOL    HW234952   1.928   2.531   3.819  0.3296  0.5011 -0.2279
 8795SOL    HW334953   1.870   2.657   3.758  0.0706  0.4627 -0.0638
 8795SOL    MW434954   1.860   2.578   3.793  0.2569  0.2073 -0.5689
 8796SOL     OW34955   4.654   0.143   1.202  0.1819 -0.2112  0.1957
 8796SOL    HW234956   4.631   0.222   1.252  1.3775  0.2119  0.1284
 8796SOL    HW334957   4.596   0.075   1.236 -0.4078  0.5394  0.7340
 8796SOL    MW434958   4.644   0.145   1.213  0.2618 -0.0563  0.2578
 8797SOL     OW34959   5.879   4.586   0.791 -0.2689 -0.2766  0.5967
 8797SOL    HW234960   5.819   4.526   0.747 -0.6204 -0.6882  1.5984
 8797SOL    HW334961   5.823   4.637   0.850  0.0299  1.0457 -0.2305
 8797SOL    MW434962   5.864   4.584   0.793 -0.2759 -0.1565  0.6197
 8798SOL     OW34963   5.486   1.373   3.448 -0.0728  0.4241 -0.1488
 8798SOL    HW234964   5.417   1.433   3.475 -0.3779 -0.3616  0.8800
 8798SOL    HW334965   5.442   1.307   3.395 -0.8943 -2.0939  3.3457
 8798SOL    MW434966   5.471   1.373   3.445 -0.2214 -0.0118  0.4480
 8799SOL     OW34967   5.964   1.757   0.572 -0.0661 -0.0870 -0.1534
 8799SOL    HW234968   5.907   1.802   0.511  3.6289  2.6866 -1.9709
 8799SOL    HW334969   6.008   1.827   0.620  0.8195 -2.0686  2.1593
 8799SOL    MW434970   5.962   1.772   0.571  0.5383  0.0175 -0.0881
 8800SOL     OW34971   3.111   6.475   6.311 -0.6237 -0.0875  0.1481
 8800SOL    HW234972   3.126   6.557   6.265  0.3436  0.9295  2.1415
 8800SOL    HW334973   3.190   6.423   6.295 -0.2470  0.3022  0.6963
 8800SOL    MW434974   3.123   6.479   6.303 -0.4464  0.0981  0.4834
 8801SOL     OW34975   1.290   4.416   5.039  0.3316  0.1212  0.9764
 8801SOL    HW234976   1.383   4.392   5.035  0.1864 -0.3457 -1.9537
 8801SOL    HW334977   1.291   4.511   5.049  1.1529  0.1642  0.6224
 8801SOL    MW434978   1.303   4.425   5.040  0.4208  0.0653  0.5431
 8802SOL     OW34979   0.404   2.901   2.021  0.2520  0.0128 -0.6601
 8802SOL    HW234980   0.416   2.952   2.101  1.6878  1.1048 -1.5221
 8802SOL    HW334981   0.490   2.860   2.005  0.2426  0.4829 -2.0657
 8802SOL    MW434982   0.417   2.902   2.030  0.4402  0.2189 -0.9593
 8803SOL     OW34983   1.062   2.180   6.056  0.6256  0.0714  0.3831
 8803SOL    HW234984   0.999   2.175   6.128  1.6848 -0.2441  1.3204
 8803SOL    HW334985   1.104   2.094   6.055 -1.0032 -0.8029 -2.1865
 8803SOL    MW434986   1.059   2.168   6.066  0.5504 -0.0856  0.1677
 8804SOL     OW34987   4.837   3.470   5.357  0.1687 -0.2159 -0.2861
 8804SOL    HW234988   4.801   3.422   5.282 -0.1237 -0.8569  0.2509
 8804SOL    HW334989   4.773   3.456   5.427  1.3026 -1.1396  0.6114
 8804SOL    MW434990   4.824   3.462   5.357  0.2797 -0.4224 -0.0968
 8805SOL     OW34991   6.324   2.271   1.330  0.4410  0.2388  0.1103
 8805SOL    HW234992   6.290   2.199   1.277  0.0470  0.0122  0.6593
 8805SOL    HW334993   6.331   2.344   1.269 -0.3763  0.0942 -0.1740
 8805SOL    MW434994   6.320   2.271   1.315  0.2812  0.1898  0.1453
 8806SOL     OW34995   4.103   5.020   3.630 -0.7299 -0.1313  0.0830
 8806SOL    HW234996   4.077   4.987   3.716 -0.9368  1.4433  0.6639
 8806SOL    HW334997   4.187   5.063   3.646 -0.9920  0.5773 -0.3865
 8806SOL    MW434998   4.111   5.021   3.644 -0.7917  0.1700  0.0977
 8807SOL     OW34999   3.439   0.537   4.870 -0.4657 -0.1055 -0.6406
 8807SOL    HW235000   3.370   0.485   4.911 -0.3623  0.1219 -0.1637
 8807SOL    HW335001   3.413   0.545   4.779  0.3875 -2.4829 -1.1526
 8807SOL    MW435002   3.427   0.531   4.864 -0.3395 -0.3892 -0.6452
 8808SOL     OW35003   0.519   1.858   5.172  0.2273  0.0006  0.5983
 8808SOL    HW235004   0.454   1.912   5.127  1.2656 -1.4444 -3.0034
 8808SOL    HW335005   0.603   1.884   5.134  1.8052  1.0546  4.3500
 8808SOL    MW435006   0.522   1.868   5.161  0.5725 -0.0510  0.6181
 8809SOL     OW35007   1.079   1.341   4.914  0.1718  0.1079 -0.0013
 8809SOL    HW235008   1.171   1.326   4.935  0.3283  1.9296  0.8705
 8809SOL    HW335009   1.071   1.437   4.911 -1.5209 -0.0209 -0.8951
 8809SOL    MW435010   1.090   1.352   4.916 -0.0309  0.3313 -0.0042
 8810SOL     OW35011   5.211   3.757   1.331  0.1718 -0.5228  0.3609
 8810SOL    HW235012   5.165   3.746   1.414  1.6570 -0.1676  1.2748
 8810SOL    HW335013   5.261   3.838   1.342  3.0782 -2.1811  0.5142
 8810SOL    MW435014   5.212   3.766   1.344  0.7512 -0.6948  0.5017
 8811SOL     OW35015   3.359   0.749   3.300 -0.1454  0.4924 -0.1584
 8811SOL    HW235016   3.438   0.784   3.340  0.7682  0.1912 -1.6343
 8811SOL    HW335017   3.300   0.824   3.292  0.4877  0.9863 -0.2266
 8811SOL    MW435018   3.362   0.763   3.304  0.0587  0.5178 -0.3621
 8812SOL     OW35019   2.793   3.468   3.849 -0.1415  0.0851  0.1169
 8812SOL    HW235020   2.757   3.471   3.761  0.3264 -0.7148 -0.1110
 8812SOL    HW335021   2.734   3.411   3.898 -0.6138  0.8300  0.4297
 8812SOL    MW435022   2.781   3.461   3.844 -0.1421  0.0779  0.1281
 8813SOL     OW35023   4.230   4.654   0.439 -0.3175 -0.2001 -0.3901
 8813SOL    HW235024   4.170   4.593   0.481 -1.2659  1.7105  1.1881
 8813SOL    HW335025   4.174   4.711   0.387  0.4324  0.0167 -0.9823
 8813SOL    MW435026   4.215   4.653   0.437 -0.3437  0.0806 -0.2600
 8814SOL     OW35027   0.916   0.155   1.321  0.2873  0.3685  0.2466
 8814SOL    HW235028   0.867   0.081   1.358 -1.4700  0.6190 -1.4037
 8814SOL    HW335029   1.007   0.126   1.319 -0.0761 -0.9594  1.4493
 8814SOL    MW435030   0.921   0.142   1.326  0.0075  0.2263  0.1876
 8815SOL     OW35031   4.272   2.043   5.735  0.2830 -0.0924  0.2008
 8815SOL    HW235032   4.315   2.126   5.716 -1.2157  0.7475  0.3565
 8815SOL    HW335033   4.314   2.012   5.815 -0.2740  1.3672  1.0933
 8815SOL    MW435034   4.283   2.050   5.743  0.0118  0.2110  0.3391
 8816SOL     OW35035   3.259   1.494   6.061 -0.1474 -0.2613 -0.2274
 8816SOL    HW235036   3.183   1.446   6.029 -1.5006  1.5703  0.1482
 8816SOL    HW335037   3.275   1.457   6.148 -1.4796  0.2678  0.2643
 8816SOL    MW435038   3.251   1.482   6.068 -0.5017  0.0502 -0.1130
 8817SOL     OW35039   2.694   2.388   3.446 -0.3206 -0.3113  0.3950
 8817SOL    HW235040   2.650   2.472   3.457 -0.0595  0.0401 -1.0803
 8817SOL    HW335041   2.628   2.323   3.470 -1.2342  0.2611 -0.4773
 8817SOL    MW435042   2.679   2.390   3.450 -0.4067 -0.1894  0.0853
 8818SOL     OW35043   0.798   4.203   0.047  0.3505 -0.1625 -0.0175
 8818SOL    HW235044   0.750   4.179  -0.032 -1.2310  0.0056  0.8609
 8818SOL    HW335045   0.874   4.251   0.015  1.4741 -2.7630 -1.6132
 8818SOL    MW435046   0.802   4.206   0.033  0.2901 -0.4834 -0.1122
 8819SOL     OW35047   0.835   5.161   2.069  0.0215 -0.4596 -0.3792
 8819SOL    HW235048   0.879   5.104   2.005  0.5734  0.2308 -0.6248
 8819SOL    HW335049   0.845   5.114   2.153 -2.1280 -2.1770 -1.0041
 8819SOL    MW435050   0.842   5.147   2.072 -0.1893 -0.5951 -0.4940
 8820SOL     OW35051   3.577   5.743   6.369 -0.3107  0.0485  0.2680
 8820SOL    HW235052   3.609   5.676   6.308  0.4024 -0.7486  1.4860
 8820SOL    HW335053   3.482   5.728   6.373 -0.3185 -0.1034 -0.3790
 8820SOL    MW435054   3.569   5.732   6.361 -0.2176 -0.0767  0.3433
 8821SOL     OW35055   2.656   2.571   1.001 -0.0062 -0.0777 -0.2045
 8821SOL    HW235056   2.601   2.494   0.989  0.3357 -0.1903 -1.1490
 8821SOL    HW335057   2.698   2.558   1.086 -0.0675 -0.8618 -0.2904
 8821SOL    MW435058   2.654   2.559   1.011  0.0308 -0.1960 -0.3404
 8822SOL     OW35059   3.590   0.696   0.395 -0.0604 -0.2351 -0.1324
 8822SOL    HW235060   3.671   0.664   0.356  2.0264  3.9717  0.0951
 8822SOL    HW335061   3.600   0.680   0.489 -0.6024 -1.7757 -0.3248
 8822SOL    MW435062   3.602   0.690   0.402  0.1434  0.1167 -0.1277
 8823SOL     OW35063   0.060   2.646   0.500 -0.4988  0.4335  0.2773
 8823SOL    HW235064   0.135   2.669   0.554  0.7807 -2.6298  0.0183
 8823SOL    HW335065   0.022   2.568   0.543 -2.5646  0.9374 -0.4940
 8823SOL    MW435066   0.065   2.638   0.513 -0.6025  0.0958  0.1414
 8824SOL     OW35067   5.607   0.879   6.177  0.5568  0.0373 -0.5140
 8824SOL    HW235068   5.556   0.798   6.170  0.1243  0.4195 -2.1133
 8824SOL    HW335069   5.613   0.895   6.271  1.8046 -2.5367 -0.0771
 8824SOL    MW435070   5.601   0.871   6.189  0.6644 -0.2519 -0.6674
 8825SOL     OW35071   1.935   4.920   0.545  0.3158  0.0688  0.3821
 8825SOL    HW235072   1.951   5.010   0.574 -1.8024  1.1669 -1.5884
 8825SOL    HW335073   1.897   4.928   0.458 -1.4730 -2.6461  0.7630
 8825SOL    MW435074   1.932   4.933   0.537 -0.1997 -0.1445  0.1724
 8826SOL     OW35075   1.579   1.613   3.213 -0.0234  0.8174 -0.6571
 8826SOL    HW235076   1.645   1.643   3.150  2.0846  0.2635  1.1705
 8826SOL    HW335077   1.556   1.692   3.262 -1.0394  1.0786 -1.5098
 8826SOL    MW435078   1.585   1.628   3.211  0.1207  0.7788 -0.5285
 8827SOL     OW35079   1.639   6.367   2.149 -0.4464  0.7273 -0.3832
 8827SOL    HW235080   1.609   6.388   2.060 -1.2496  1.4975  0.0565
 8827SOL    HW335081   1.562   6.330   2.192 -0.2914  1.1093  0.2366
 8827SOL    MW435082   1.625   6.365   2.143 -0.5319  0.8793 -0.2434
 8828SOL     OW35083   3.439   1.549   5.859 -0.3558  0.9116 -0.3286
 8828SOL    HW235084   3.384   1.527   5.935 -1.1444  3.1509 -0.1731
 8828SOL    HW335085   3.430   1.644   5.850  3.5862  1.4519 -0.2392
 8828SOL    MW435086   3.430   1.558   5.868  0.0602  1.2783 -0.2963
 8829SOL     OW35087   5.513   5.298   0.525  0.1770  0.5987 -0.0846
 8829SOL    HW235088   5.532   5.322   0.434  1.9404  0.9364  0.3206
 8829SOL    HW335089   5.424   5.265   0.524 -0.0345  1.1431 -1.8373
 8829SOL    MW435090   5.504   5.297   0.513  0.3818  0.7151 -0.2624
 8830SOL     OW35091   1.100   3.658   5.044 -0.0960 -0.5204 -0.3786
 8830SOL    HW235092   1.047   3.669   5.123  1.1918  1.5569  0.3014
 8830SOL    HW335093   1.085   3.738   4.994  1.6045 -0.2976 -0.6154
 8830SOL    MW435094   1.091   3.670   5.048  0.2983 -0.2170 -0.3201
 8831SOL     OW35095   1.350   4.642   6.088  0.4839 -0.1254 -0.1141
 8831SOL    HW235096   1.264   4.673   6.059 -0.4562 -0.5596  2.0095
 8831SOL    HW335097   1.364   4.562   6.037  0.6214  1.0310 -1.9781
 8831SOL    MW435098   1.340   4.635   6.077  0.3780 -0.0301 -0.0799
 8832SOL     OW35099   0.172   5.971   5.263  0.1674  0.0389  0.0167
 8832SOL    HW235100   0.246   6.031   5.265 -0.0368  0.2715  1.0498
 8832SOL    HW335101   0.115   6.000   5.335 -0.9919 -0.0524 -0.8243
 8832SOL    MW435102   0.174   5.983   5.273 -0.0125  0.0575  0.0421
 8833SOL     OW35103   3.332   5.565   5.471  0.1502  0.2011  0.0554
 8833SOL    HW235104   3.290   5.528   5.548  0.8930  0.1777  0.4591
 8833SOL    HW335105   3.302   5.656   5.469 -1.8830 -0.4212 -1.0878
 8833SOL    MW435106   3.322   5.572   5.481 -0.0201  0.1159 -0.0422
 8834SOL     OW35107   3.980   1.299   5.321 -0.5228 -0.6222  0.4967
 8834SOL    HW235108   3.884   1.296   5.318 -0.6611  1.5259  1.0319
 8834SOL    HW335109   4.003   1.241   5.393 -1.3211 -2.0665 -0.3664
 8834SOL    MW435110   3.970   1.291   5.330 -0.6464 -0.5293  0.4534
 8835SOL     OW35111   0.418   0.576   3.663  0.0268  0.1154  0.5266
 8835SOL    HW235112   0.336   0.573   3.712 -0.1675  0.5271  0.2406
 8835SOL    HW335113   0.392   0.605   3.575  0.5385  0.7474  0.5725
 8835SOL    MW435114   0.404   0.580   3.658  0.0687  0.2531  0.4949
 8836SOL     OW35115   2.834   0.477   4.516  0.2915 -0.4529 -0.2250
 8836SOL    HW235116   2.836   0.414   4.589  0.1724  1.0406  1.1129
 8836SOL    HW335117   2.916   0.525   4.523 -0.6418  1.1539  0.2911
 8836SOL    MW435118   2.845   0.475   4.526  0.1527 -0.0439  0.0196
 8837SOL     OW35119   1.213   1.224   5.455 -0.1360 -0.1862 -0.2963
 8837SOL    HW235120   1.189   1.263   5.371 -0.2010  0.6256  0.0977
 8837SOL    HW335121   1.304   1.197   5.444 -0.1493 -0.0966 -0.6275
 8837SOL    MW435122   1.222   1.225   5.443 -0.1463 -0.0673 -0.2880
 8838SOL     OW35123   4.371   2.673   2.397 -0.3642  0.1406  0.4588
 8838SOL    HW235124   4.433   2.600   2.398 -1.9257 -1.2964  3.1190
 8838SOL    HW335125   4.352   2.690   2.489 -1.8473  2.4101 -0.1687
 8838SOL    MW435126   4.377   2.666   2.409 -0.7659  0.2504  0.7270
 8839SOL     OW35127   0.126   3.284   6.169 -0.0814 -0.2287  0.4705
 8839SOL    HW235128   0.172   3.368   6.163  0.1763 -0.2890  1.3764
 8839SOL    HW335129   0.033   3.307   6.170 -0.0216  0.0173  0.3101
 8839SOL    MW435130   0.120   3.298   6.169 -0.0395 -0.2042  0.5689
 8840SOL     OW35131   2.566   2.441   0.185 -0.2590 -0.2078 -0.0077
 8840SOL    HW235132   2.614   2.366   0.150  1.0172  1.0714 -1.1406
 8840SOL    HW335133   2.505   2.465   0.116 -0.0479  0.3238 -0.0103
 8840SOL    MW435134   2.564   2.434   0.172 -0.0627  0.0311 -0.1575
 8841SOL     OW35135   6.282   5.033   4.526  0.5588  0.5353 -0.3126
 8841SOL    HW235136   6.300   5.121   4.560  2.1108 -0.9155  3.2327
 8841SOL    HW335137   6.201   5.007   4.569  1.6571 -0.7448  1.1081
 8841SOL    MW435138   6.274   5.041   4.536  0.9085  0.1750  0.3426
 8842SOL     OW35139   6.266   1.434   0.600  0.4232 -0.9447  0.0539
 8842SOL    HW235140   6.203   1.429   0.672  2.2634  1.9078  2.1085
 8842SOL    HW335141   6.344   1.388   0.632  2.0018  2.0651  0.9918
 8842SOL    MW435142   6.268   1.427   0.614  0.8742 -0.1713  0.4487
 8843SOL     OW35143   4.082   5.444   3.793  0.0692  0.1462 -0.1019
 8843SOL    HW235144   4.014   5.392   3.835 -0.0087  0.5439  0.2735
 8843SOL    HW335145   4.164   5.414   3.832 -0.0519  0.9344  0.8036
 8843SOL    MW435146   4.084   5.433   3.804  0.0430  0.3027  0.0671
 8844SOL     OW35147   4.982   0.868   2.330 -0.1486 -0.4145 -0.2606
 8844SOL    HW235148   4.964   0.779   2.298  0.1887 -0.1658 -1.1586
 8844SOL    HW335149   5.045   0.904   2.267 -1.2036  0.8945 -0.6030
 8844SOL    MW435150   4.988   0.861   2.318 -0.2433 -0.2090 -0.4242
 8845SOL     OW35151   6.072   0.315   0.960  0.3114 -0.4214  0.4468
 8845SOL    HW235152   6.116   0.398   0.977 -1.2740  0.8038 -1.0747
 8845SOL    HW335153   6.125   0.250   1.006  2.6886  1.1670  0.1245
 8845SOL    MW435154   6.085   0.317   0.968  0.4159 -0.0502  0.2036
 8846SOL     OW35155   3.383   3.615   3.865  0.0125  0.5220  0.4533
 8846SOL    HW235156   3.296   3.591   3.836 -0.3804  1.5844  0.7107
 8846SOL    HW335157   3.370   3.691   3.921  0.9459 -0.2293  1.7653
 8846SOL    MW435158   3.370   3.622   3.869  0.0838  0.5631  0.6604
 8847SOL     OW35159   6.285   0.832   1.330 -0.3403 -0.4303 -0.6732
 8847SOL    HW235160   6.366   0.879   1.352 -0.5286 -0.8011  0.9617
 8847SOL    HW335161   6.216   0.899   1.335 -0.0086  0.3631 -4.0287
 8847SOL    MW435162   6.287   0.847   1.334 -0.3214 -0.3745 -0.9002
 8848SOL     OW35163   5.319   1.200   3.255  0.2546 -0.1457  0.2905
 8848SOL    HW235164   5.246   1.202   3.193  0.9682  0.0503 -0.5606
 8848SOL    HW335165   5.337   1.107   3.268 -2.2969 -0.4030  3.1503
 8848SOL    MW435166   5.312   1.188   3.248  0.0121 -0.1538  0.5555
 8849SOL     OW35167   0.957   1.978   0.814  0.3633 -0.0043 -0.5036
 8849SOL    HW235168   0.903   2.044   0.857 -0.3428  1.4862 -3.4349
 8849SOL    HW335169   1.041   1.981   0.861 -0.9180 -0.0004  1.9828
 8849SOL    MW435170   0.961   1.987   0.826  0.1011  0.1929 -0.5623
 8850SOL     OW35171   3.449   4.594   5.601 -0.0844 -0.4768 -0.0344
 8850SOL    HW235172   3.487   4.666   5.652  2.1853 -1.6304  0.0184
 8850SOL    HW335173   3.523   4.538   5.579 -1.2193 -0.9783 -3.1066
 8850SOL    MW435174   3.463   4.596   5.604  0.0653 -0.6952 -0.4327
 8851SOL     OW35175   2.803   0.995   6.062  0.9484 -0.4083 -0.7479
 8851SOL    HW235176   2.733   1.054   6.032  0.1051 -1.1382 -0.2742
 8851SOL    HW335177   2.792   0.991   6.157  1.0207 -1.2779 -0.7637
 8851SOL    MW435178   2.792   1.002   6.070  0.8467 -0.6193 -0.6875
 8852SOL     OW35179   2.788   2.106   4.743 -0.0358 -0.2051 -0.4698
 8852SOL    HW235180   2.736   2.076   4.669 -1.2786  0.2780  0.1760
 8852SOL    HW335181   2.741   2.183   4.776  1.5927  0.8250 -0.4174
 8852SOL    MW435182   2.775   2.112   4.738  0.0151 -0.0054 -0.3777
 8853SOL     OW35183   4.929   0.118   3.682  0.3164  0.7194  0.1907
 8853SOL    HW235184   4.920   0.161   3.767 -0.4481  0.1389  0.4270
 8853SOL    HW335185   5.021   0.092   3.677 -0.0644 -1.3151  1.9177
 8853SOL    MW435186   4.940   0.120   3.693  0.1653  0.3744  0.4497
 8854SOL     OW35187   0.358   5.293   1.218  0.4028 -0.3286 -0.1081
 8854SOL    HW235188   0.438   5.279   1.269 -0.2598 -1.1055  0.7310
 8854SOL    HW335189   0.376   5.251   1.134  0.7123 -0.9080  0.2429
 8854SOL    MW435190   0.371   5.286   1.214  0.3562 -0.5075  0.0489
 8855SOL     OW35191   1.476   5.873   2.940 -0.1843  0.1250 -0.2458
 8855SOL    HW235192   1.400   5.815   2.939  0.1788 -0.4166  1.2750
 8855SOL    HW335193   1.440   5.959   2.962 -0.3454 -0.1407  0.5261
 8855SOL    MW435194   1.461   5.877   2.942 -0.1576  0.0185  0.0567
 8856SOL     OW35195   4.712   5.677   6.053 -0.0151  0.1948  0.2993
 8856SOL    HW235196   4.656   5.681   5.975 -1.6242 -1.2647  1.2895
 8856SOL    HW335197   4.709   5.765   6.090 -0.3513  0.5447 -0.5348
 8856SOL    MW435198   4.704   5.689   6.047 -0.2718  0.0484  0.3199
 8857SOL     OW35199   0.415   4.743   0.411 -0.3965 -0.2594  0.0459
 8857SOL    HW235200   0.321   4.758   0.410 -0.1339  1.6087 -0.3514
 8857SOL    HW335201   0.450   4.801   0.343  1.1111 -0.3761  0.6691
 8857SOL    MW435202   0.407   4.752   0.402 -0.1630 -0.0283  0.0757
 8858SOL     OW35203   6.369   5.093   6.177 -0.0885  0.3366  0.6603
 8858SOL    HW235204   6.443   5.139   6.138 -0.2430 -0.1363 -0.1979
 8858SOL    HW335205   6.292   5.142   6.148 -0.3205 -0.9024 -0.9495
 8858SOL    MW435206   6.368   5.106   6.168 -0.1395  0.1107  0.3347
 8859SOL     OW35207   3.475   4.315   2.064  0.2468  0.1182 -0.1195
 8859SOL    HW235208   3.398   4.299   2.118 -0.9914 -0.9622 -2.0715
 8859SOL    HW335209   3.441   4.321   1.975  2.4113 -0.2974 -1.0502
 8859SOL    MW435210   3.461   4.314   2.059  0.3690 -0.0792 -0.4998
 8860SOL     OW35211   2.700   4.833   2.833  0.7477  0.4476 -0.3621
 8860SOL    HW235212   2.759   4.821   2.907  0.1782 -0.3480 -0.0216
 8860SOL    HW335213   2.616   4.797   2.863  0.4738  0.2487 -1.3400
 8860SOL    MW435214   2.696   4.827   2.847  0.6364  0.3164 -0.4462
 8861SOL     OW35215   1.733   1.233   5.609 -0.1166 -0.6356  0.4972
 8861SOL    HW235216   1.758   1.161   5.552  0.2501 -0.5746  0.5818
 8861SOL    HW335217   1.658   1.200   5.658  0.8399 -1.4081  1.4564
 8861SOL    MW435218   1.726   1.219   5.608  0.0580 -0.7294  0.6349
 8862SOL     OW35219   1.654   0.277   3.066  0.1162  0.0094  0.0857
 8862SOL    HW235220   1.640   0.272   3.160 -0.5836 -1.0398 -0.0516
 8862SOL    HW335221   1.567   0.266   3.028  0.6764 -2.4192 -0.7105
 8862SOL    MW435222   1.641   0.275   3.073  0.0978 -0.4495 -0.0375
 8863SOL     OW35223   0.616   4.591   1.948 -0.2928  0.7365 -0.2340
 8863SOL    HW235224   0.533   4.547   1.961  0.3470 -0.5535 -0.3249
 8863SOL    HW335225   0.682   4.524   1.966  0.7483  1.9142  0.5503
 8863SOL    MW435226   0.614   4.576   1.952 -0.0710  0.7217 -0.1426
 8864SOL     OW35227   5.475   2.878   5.159  0.4999 -0.4676 -0.6745
 8864SOL    HW235228   5.442   2.967   5.151 -0.4560 -0.7608 -0.2212
 8864SOL    HW335229   5.555   2.876   5.107 -0.6182  0.0676 -2.4894
 8864SOL    MW435230   5.481   2.889   5.151  0.2263 -0.4357 -0.8541
 8865SOL     OW35231   2.736   0.100   0.664  0.3827 -0.0538  0.4791
 8865SOL    HW235232   2.684   0.139   0.734 -1.9392 -0.8127 -0.7281
 8865SOL    HW335233   2.731   0.006   0.680 -0.3245 -0.2476 -0.7657
 8865SOL    MW435234   2.729   0.093   0.676 -0.0170 -0.1795  0.1556
 8866SOL     OW35235   5.003   6.207   4.414 -0.2147  0.1024  0.3093
 8866SOL    HW235236   4.917   6.220   4.374 -0.8969 -0.0408  1.7059
 8866SOL    HW335237   4.986   6.166   4.498  1.2879 -0.7771  0.2295
 8866SOL    MW435238   4.990   6.204   4.419 -0.1064 -0.0325  0.4831
 8867SOL     OW35239   3.078   0.508   3.240 -0.0084 -0.0692  1.0809
 8867SOL    HW235240   3.019   0.514   3.315  1.1573 -1.3193  2.1525
 8867SOL    HW335241   3.161   0.475   3.276 -0.0782 -3.0230 -1.0452
 8867SOL    MW435242   3.081   0.505   3.254  0.1362 -0.6239  0.9418
 8868SOL     OW35243   6.180   5.896   0.967 -0.5495  0.2296  0.3313
 8868SOL    HW235244   6.128   5.863   1.040  0.8786 -0.7101  0.9539
 8868SOL    HW335245   6.251   5.833   0.957  0.2380  1.2432 -0.7892
 8868SOL    MW435246   6.182   5.883   0.975 -0.2572  0.2394  0.2656
 8869SOL     OW35247   5.750   0.972   2.702  0.5474 -0.0034  0.1411
 8869SOL    HW235248   5.666   0.993   2.741  1.3386 -0.1878  2.0757
 8869SOL    HW335249   5.763   1.037   2.634 -1.0829  0.0949 -0.0956
 8869SOL    MW435250   5.741   0.983   2.698  0.4367 -0.0148  0.3651
 8870SOL     OW35251   2.434   3.122   4.692 -0.0406 -0.0256  0.3787
 8870SOL    HW235252   2.504   3.185   4.707 -0.3981  0.4974 -0.1260
 8870SOL    HW335253   2.479   3.039   4.679  0.4114 -0.0297  1.7204
 8870SOL    MW435254   2.449   3.119   4.693 -0.0282  0.0429  0.4891
 8871SOL     OW35255   0.808   5.254   4.060  0.2278 -0.4830 -0.3042
 8871SOL    HW235256   0.757   5.179   4.028  1.7046 -0.8472 -1.9889
 8871SOL    HW335257   0.770   5.330   4.017 -1.2372 -0.2034  1.3646
 8871SOL    MW435258   0.796   5.254   4.050  0.2293 -0.4941 -0.3063
 8872SOL     OW35259   2.194   5.228   1.550 -0.3801 -0.3248 -0.0182
 8872SOL    HW235260   2.131   5.164   1.517 -0.7784  0.5885 -1.1232
 8872SOL    HW335261   2.159   5.313   1.521  0.1146  0.4029  1.4289
 8872SOL    MW435262   2.181   5.231   1.542 -0.3674 -0.1083  0.0269
 8873SOL     OW35263   6.210   0.651   1.570  0.8246 -0.2435  0.5160
 8873SOL    HW235264   6.188   0.744   1.565  1.2684  0.0032  2.2960
 8873SOL    HW335265   6.133   0.606   1.534 -0.0033  0.7815  0.9589
 8873SOL    MW435266   6.197   0.657   1.565  0.7739 -0.0757  0.8093
 8874SOL     OW35267   1.024   0.783   5.624  0.2247  0.2434  0.4206
 8874SOL    HW235268   1.030   0.832   5.542  0.6855  1.4417  1.1355
 8874SOL    HW335269   1.114   0.763   5.648  0.0170 -1.8034 -0.3027
 8874SOL    MW435270   1.036   0.787   5.617  0.2581  0.1315  0.4195
 8875SOL     OW35271   2.720   3.158   0.357 -0.4467  0.4330 -0.1807
 8875SOL    HW235272   2.717   3.066   0.331 -0.3145  0.7499 -1.3636
 8875SOL    HW335273   2.814   3.177   0.367 -0.4625  0.5083 -0.1720
 8875SOL    MW435274   2.732   3.148   0.355 -0.4314  0.4848 -0.3356
 8876SOL     OW35275   3.390   0.368   0.436 -0.0510 -0.3393 -0.9511
 8876SOL    HW235276   3.326   0.327   0.492  0.0166  0.1094 -0.5410
 8876SOL    HW335277   3.475   0.341   0.472  0.0386  2.0142  0.7691
 8876SOL    MW435278   3.393   0.359   0.448 -0.0303  0.0304 -0.6700
 8877SOL     OW35279   1.017   0.656   5.187 -0.6475 -0.0256  0.5123
 8877SOL    HW235280   0.948   0.717   5.214 -0.7628 -0.3068  0.8648
 8877SOL    HW335281   0.996   0.575   5.233 -0.4997 -0.3360  0.0382
 8877SOL    MW435282   1.005   0.654   5.197 -0.6432 -0.1037  0.4963
 8878SOL     OW35283   2.571   5.345   2.982  0.7132 -0.1020 -0.1384
 8878SOL    HW235284   2.617   5.272   3.024  0.6931 -0.8446 -1.3294
 8878SOL    HW335285   2.582   5.328   2.888  0.8463  1.5372 -0.4471
 8878SOL    MW435286   2.579   5.333   2.975  0.7281  0.0163 -0.3363
 8879SOL     OW35287   2.029   1.622   2.438  0.4373 -0.1691  0.2929
 8879SOL    HW235288   2.074   1.630   2.522  0.4195  0.7383  0.2192
 8879SOL    HW335289   2.072   1.685   2.381 -2.7100  2.9017  0.9885
 8879SOL    MW435290   2.040   1.631   2.441  0.0197  0.3558  0.3750
 8880SOL     OW35291   2.154   4.488   2.006 -0.1128  0.1098 -0.1424
 8880SOL    HW235292   2.140   4.580   2.031  0.8185 -0.0439  1.0621
 8880SOL    HW335293   2.196   4.494   1.920  0.7192  0.8791  0.2830
 8880SOL    MW435294   2.158   4.501   1.998  0.1199  0.1910  0.0726
 8881NA      NA35295   0.190   0.867   0.025 -0.2790  0.4121  0.1074
 8882NA      NA35296   6.104   2.761   3.493  0.1551 -0.7402 -0.1507
 8883NA      NA35297   5.758   0.409   5.683 -0.3641 -0.5535 -0.1366
 8884NA      NA35298   5.271   2.400   1.520 -0.0539  0.3689 -0.1959
 8885NA      NA35299   3.354   4.536   5.842  0.7156  0.2673 -0.2842
 8886NA      NA35300   3.820   4.098   2.016  0.1626 -0.5915  0.2823
 8887NA      NA35301   6.192   2.878   0.033  0.2398  0.6034 -0.1113
   6.42842   6.42842   6.42842
