A-SYNC WITH LIG-47 in water
35301
  121NASP     N    1   2.667   6.141   6.251 -0.2248 -0.3134  0.4966
  121NASP    H1    2   2.617   6.160   6.165 -1.1766 -0.5024  0.9924
  121NASP    H2    3   2.748   6.199   6.267 -0.4890  0.4274 -0.6904
  121NASP    H3    4   2.600   6.175   6.319  1.2834  0.2218  1.7813
  121NASP    CA    5   2.690   5.994   6.258  0.1029 -0.1557 -0.1700
  121NASP    HA    6   2.589   5.952   6.260 -1.0947  2.4231 -1.7530
  121NASP    CB    7   2.751   5.934   6.134 -0.4099 -0.1242  0.7477
  121NASP   HB1    8   2.769   5.827   6.142 -1.2541 -0.4115 -0.8376
  121NASP   HB2    9   2.850   5.980   6.129  1.1271 -3.0703  1.5503
  121NASP    CG   10   2.672   5.967   6.007 -0.0467  0.0438  0.5667
  121NASP   OD1   11   2.725   5.958   5.892  0.3490 -0.0407  0.0560
  121NASP   OD2   12   2.556   6.006   6.013  0.5172 -0.0301  0.0366
  121NASP     C   13   2.760   5.949   6.393 -0.0732  0.1401  0.3404
  121NASP     O   14   2.835   6.027   6.454 -0.1096  0.4032  0.5978
  122ASN      N   15   2.738   5.828   6.441  0.3266  0.0535 -0.4312
  122ASN      H   16   2.684   5.767   6.381 -0.9588  0.5220  0.2137
  122ASN     CA   17   2.777   5.780   6.572 -0.2957 -0.0084  0.0901
  122ASN     HA   18   2.744   5.851   6.649  0.2224 -0.3532  0.6368
  122ASN     CB   19   2.723   5.640   6.599 -0.7089  0.4482  1.1338
  122ASN    HB1   20   2.778   5.603   6.686  2.0639  2.0698  0.1929
  122ASN    HB2   21   2.763   5.580   6.517 -0.3956  0.7698  1.0494
  122ASN     CG   22   2.576   5.639   6.612  0.2354 -0.5335 -0.2177
  122ASN    OD1   23   2.525   5.733   6.669  0.2649  0.0716 -0.1648
  122ASN    ND2   24   2.503   5.543   6.582  0.0859  0.2250  0.1344
  122ASN   HD21   25   2.408   5.540   6.616 -0.2857 -1.6135 -0.9239
  122ASN   HD22   26   2.544   5.461   6.540  2.7479  0.5811  1.8180
  122ASN      C   27   2.926   5.797   6.580  0.0504  0.0850 -0.1518
  122ASN      O   28   2.997   5.762   6.489  0.4404 -0.3261  0.0314
  123GLU      N   29   2.974   5.851   6.694 -0.4744  0.5449 -1.1288
  123GLU      H   30   2.907   5.854   6.770 -0.0983 -0.5437 -0.7285
  123GLU     CA   31   3.115   5.863   6.736  0.1109 -0.4221 -0.3671
  123GLU     HA   32   3.182   5.891   6.655  0.8420  0.6371  0.5744
  123GLU     CB   33   3.112   5.966   6.851 -0.3152  0.1454  0.0667
  123GLU    HB1   34   3.073   5.932   6.946  1.5943  3.0282  2.0691
  123GLU    HB2   35   3.040   6.043   6.825 -1.5396  0.3173  3.5207
  123GLU     CG   36   3.250   6.024   6.878 -0.0310 -0.5295 -0.2795
  123GLU    HG1   37   3.316   5.937   6.881 -1.8964 -2.0418 -0.8655
  123GLU    HG2   38   3.257   6.089   6.966 -2.0104  0.2953 -0.6820
  123GLU     CD   39   3.300   6.102   6.752 -0.0965  0.8460 -0.3381
  123GLU    OE1   40   3.226   6.176   6.682 -0.5189  0.0858 -0.5138
  123GLU    OE2   41   3.422   6.081   6.723 -0.1515 -0.4609  0.2290
  123GLU      C   42   3.176   5.729   6.779  0.7269 -0.6043 -0.4910
  123GLU      O   43   3.115   5.660   6.868 -0.1523 -0.0114  0.0879
  124ALA      N   44   3.295   5.688   6.734  0.1231 -0.0967 -0.3108
  124ALA      H   45   3.343   5.744   6.665 -0.2030 -3.7317 -3.7890
  124ALA     CA   46   3.364   5.561   6.764 -0.3094  0.2047  0.2598
  124ALA     HA   47   3.279   5.493   6.759  1.1169 -1.8443  2.0314
  124ALA     CB   48   3.467   5.525   6.655  0.1224  0.2635 -0.4421
  124ALA    HB1   49   3.514   5.427   6.659 -0.2136  0.0863 -0.7289
  124ALA    HB2   50   3.557   5.586   6.664  0.0269  0.2305  0.9557
  124ALA    HB3   51   3.415   5.528   6.559 -1.3538 -1.8208  0.2075
  124ALA      C   52   3.412   5.545   6.910  0.0021  0.0991  0.2696
  124ALA      O   53   3.448   5.434   6.955 -0.0197 -0.4061  0.0437
  125TYR      N   54   3.421   5.658   6.981 -0.0788 -0.0258 -0.0899
  125TYR      H   55   3.432   5.738   6.921  0.6669 -0.7901 -1.0117
  125TYR     CA   56   3.436   5.669   7.127 -0.4613  0.4631  0.0134
  125TYR     HA   57   3.520   5.604   7.155 -0.9460  0.4761  1.5886
  125TYR     CB   58   3.469   5.815   7.170  0.4403  0.2909 -0.0071
  125TYR    HB1   59   3.498   5.807   7.275  0.2988  0.1498  0.0196
  125TYR    HB2   60   3.379   5.875   7.159  0.0906  0.1621  1.8279
  125TYR     CG   61   3.582   5.890   7.104 -0.5786 -0.4519 -0.4099
  125TYR    CD1   62   3.710   5.823   7.088  0.0559 -0.0923 -0.6140
  125TYR    HD1   63   3.720   5.723   7.126  2.9507  0.3248 -0.1077
  125TYR    CE1   64   3.812   5.890   7.019  0.6316  0.0336 -0.2344
  125TYR    HE1   65   3.905   5.843   6.991 -0.5275 -2.4724 -0.1517
  125TYR     CZ   66   3.804   6.028   6.988 -0.3205  0.3753  0.2843
  125TYR     OH   67   3.906   6.092   6.923  0.3812  0.5590  0.2818
  125TYR     HH   68   3.970   6.038   6.875  0.6145 -0.3756  1.5853
  125TYR    CE2   69   3.685   6.093   7.009  0.6535  0.3997  0.8716
  125TYR    HE2   70   3.673   6.196   6.977 -0.3103  0.1664  0.4189
  125TYR    CD2   71   3.572   6.024   7.064 -0.9340 -0.3195  0.5488
  125TYR    HD2   72   3.479   6.077   7.078 -1.1227 -0.4374 -0.2164
  125TYR      C   73   3.320   5.612   7.210  0.4413  0.1216  0.3010
  125TYR      O   74   3.330   5.546   7.312  0.0692  0.1896  0.3830
  126GLU      N   75   3.199   5.628   7.158 -0.1294  0.5687 -0.0347
  126GLU      H   76   3.195   5.670   7.067  0.4089 -1.5048 -1.0725
  126GLU     CA   77   3.076   5.576   7.217 -0.1112  0.5243  0.2202
  126GLU     HA   78   3.078   5.566   7.325 -3.4252 -0.6827  0.2724
  126GLU     CB   79   2.976   5.691   7.198 -0.7657  0.4051 -0.2006
  126GLU    HB1   80   2.885   5.661   7.251  1.3748 -1.7230  2.5798
  126GLU    HB2   81   2.958   5.692   7.090  1.6672 -2.1371 -0.7614
  126GLU     CG   82   3.021   5.830   7.255  0.1860 -0.1019  0.2796
  126GLU    HG1   83   3.128   5.853   7.252  0.3343 -0.7751  0.0550
  126GLU    HG2   84   2.998   5.821   7.361 -0.6416 -0.5153  0.0767
  126GLU     CD   85   2.929   5.937   7.193 -0.6525 -0.5945  0.3259
  126GLU    OE1   86   2.981   6.051   7.175 -0.2057  0.0681 -0.0991
  126GLU    OE2   87   2.811   5.915   7.176 -0.1444 -0.3683 -0.4982
  126GLU      C   88   3.031   5.442   7.147  0.0725 -1.0102  0.3841
  126GLU      O   89   2.978   5.355   7.221 -0.7308 -0.8103  0.1153
  127MET      N   90   3.039   5.426   7.014  0.0479  0.2360  0.1563
  127MET      H   91   3.082   5.498   6.957 -0.1086 -0.6126 -1.0877
  127MET     CA   92   2.994   5.313   6.943 -0.2715  0.0744  0.2340
  127MET     HA   93   2.924   5.263   7.011 -1.2246 -1.7038 -1.9103
  127MET     CB   94   2.910   5.361   6.819 -0.5654  0.5162 -0.1839
  127MET    HB1   95   2.979   5.411   6.752  0.7545 -0.2637  0.5678
  127MET    HB2   96   2.835   5.437   6.845 -0.8653  0.1411  0.0641
  127MET     CG   97   2.851   5.241   6.743 -0.0380 -0.4313 -0.0237
  127MET    HG1   98   2.807   5.178   6.820  2.5828 -0.0865  1.9130
  127MET    HG2   99   2.938   5.189   6.703 -0.6242 -1.3504 -0.1203
  127MET     SD  100   2.752   5.289   6.596 -0.3453 -0.5721 -0.0675
  127MET     CE  101   2.785   5.143   6.497  0.0822 -0.4601  0.8352
  127MET    HE1  102   2.751   5.051   6.545 -3.3860  0.8753  1.2510
  127MET    HE2  103   2.893   5.133   6.491  0.1729 -0.1671  1.8464
  127MET    HE3  104   2.737   5.140   6.400 -1.0018 -2.8253  1.3688
  127MET      C  105   3.111   5.222   6.903 -0.1052 -0.5126 -0.7632
  127MET      O  106   3.210   5.271   6.841 -0.6629 -0.1744  0.2572
  128PRO      N  107   3.119   5.093   6.934 -0.3496 -0.0623 -0.0183
  128PRO     CD  108   3.045   5.023   7.034  0.0393  0.3844 -0.1673
  128PRO    HD1  109   2.937   5.027   7.017 -0.4990 -1.0609  2.3429
  128PRO    HD2  110   3.064   5.063   7.133 -0.5117  0.4230 -0.0752
  128PRO     CG  111   3.080   4.873   7.028 -0.2395  0.2845 -0.2160
  128PRO    HG1  112   3.017   4.810   6.965  0.8704  0.0637 -1.1329
  128PRO    HG2  113   3.084   4.843   7.133 -0.6278  2.3379  0.4215
  128PRO     CB  114   3.212   4.882   6.956 -0.3032 -0.3724  0.0622
  128PRO    HB1  115   3.270   4.898   7.047 -1.0909  0.8431  0.3757
  128PRO    HB2  116   3.261   4.795   6.912  1.1439 -0.1184  1.1021
  128PRO     CA  117   3.218   5.009   6.872  0.4822 -0.2070  0.6074
  128PRO     HA  118   3.314   5.060   6.882 -1.9414  4.7367  2.2368
  128PRO      C  119   3.196   4.994   6.725  0.6073  0.0668 -0.6285
  128PRO      O  120   3.083   4.966   6.681 -0.0457 -0.3779 -0.8006
  129SER      N  121   3.305   5.012   6.652  0.7222 -0.2432  0.4330
  129SER      H  122   3.388   5.053   6.691  0.5406  1.0031 -0.4183
  129SER     CA  123   3.312   4.970   6.512  0.2199 -0.1646 -0.7462
  129SER     HA  124   3.220   4.990   6.458 -0.3206 -0.1200  0.1674
  129SER     CB  125   3.416   5.057   6.437  0.4478 -0.2448 -0.6872
  129SER    HB1  126   3.380   5.058   6.334  0.8593 -0.0227 -0.8343
  129SER    HB2  127   3.512   5.006   6.448  0.4116 -0.0291  0.7081
  129SER     OG  128   3.410   5.192   6.478  0.3111  0.2594  0.9621
  129SER    HG1  129   3.494   5.231   6.454 -0.3889  0.8465 -0.7451
  129SER      C  130   3.350   4.823   6.495 -0.6914 -0.5829 -0.6571
  129SER      O  131   3.436   4.769   6.569 -0.3149 -0.0107  0.2324
  130GLU      N  132   3.282   4.760   6.406  0.3274  0.4789  0.1686
  130GLU      H  133   3.219   4.817   6.351 -0.8265  1.3310  2.2853
  130GLU     CA  134   3.297   4.621   6.367 -0.2286  0.2207 -0.1144
  130GLU     HA  135   3.287   4.561   6.457 -1.9757  2.5056  1.3191
  130GLU     CB  136   3.180   4.576   6.275 -0.2034 -0.5327 -0.0628
  130GLU    HB1  137   3.193   4.481   6.224 -1.4274 -0.0904 -1.2423
  130GLU    HB2  138   3.178   4.639   6.186 -1.6981 -2.9656 -1.8601
  130GLU     CG  139   3.051   4.570   6.351  1.0557 -0.6210 -0.3961
  130GLU    HG1  140   3.026   4.658   6.410  1.0729 -1.6073  1.1210
  130GLU    HG2  141   3.051   4.488   6.422  4.1817  0.6288  1.2418
  130GLU     CD  142   2.933   4.531   6.263  0.1708  0.1914  1.1090
  130GLU    OE1  143   2.951   4.479   6.146 -0.0715  0.6006 -0.1379
  130GLU    OE2  144   2.813   4.539   6.305 -0.1500 -0.0760 -0.0475
  130GLU      C  145   3.433   4.593   6.292  0.1313  0.8197 -0.3133
  130GLU      O  146   3.481   4.687   6.221  0.0989 -0.0701 -0.0738
  131GLU      N  147   3.503   4.479   6.316  0.3752 -0.4383  0.8710
  131GLU      H  148   3.462   4.418   6.386  0.0124 -0.5984  0.5216
  131GLU     CA  149   3.639   4.442   6.263  0.4054 -0.1416  0.2153
  131GLU     HA  150   3.661   4.489   6.168 -0.3727 -2.5046 -1.2321
  131GLU     CB  151   3.747   4.482   6.366 -1.2830  0.2884 -0.4315
  131GLU    HB1  152   3.759   4.589   6.383  1.7970 -0.2928  2.0087
  131GLU    HB2  153   3.845   4.457   6.326 -1.7769 -0.7433 -1.0417
  131GLU     CG  154   3.731   4.416   6.504  0.3233 -0.3028  0.2143
  131GLU    HG1  155   3.720   4.309   6.488 -1.2154 -0.5297  2.3544
  131GLU    HG2  156   3.644   4.466   6.548  0.2388 -1.5317  1.5098
  131GLU     CD  157   3.857   4.445   6.592 -0.2776  0.9329 -0.0130
  131GLU    OE1  158   3.863   4.398   6.708  0.1661  0.4592 -0.2365
  131GLU    OE2  159   3.958   4.497   6.541 -0.2759  0.3041 -0.2521
  131GLU      C  160   3.642   4.295   6.216  0.9240  0.0361  0.4475
  131GLU      O  161   3.749   4.238   6.179  0.2408 -0.1428 -0.5798
  132GLY      N  162   3.525   4.229   6.209  0.2122  0.0948 -0.1725
  132GLY      H  163   3.443   4.279   6.239 -0.4907 -1.4370  0.5522
  132GLY     CA  164   3.506   4.098   6.154  0.4050  0.1077 -0.2522
  132GLY    HA1  165   3.551   4.088   6.055  1.2963  2.5189 -0.1785
  132GLY    HA2  166   3.400   4.072   6.158  0.6029 -0.5773  1.2750
  132GLY      C  167   3.571   3.988   6.235  0.2836 -0.0417  0.7161
  132GLY      O  168   3.637   4.008   6.341 -0.0046  0.3759  0.2447
  133TYR      N  169   3.554   3.865   6.183  0.3974  0.0553 -0.1498
  133TYR      H  170   3.490   3.862   6.106 -0.1236 -2.8539  0.2879
  133TYR     CA  171   3.600   3.736   6.244  0.9066 -0.1113 -0.6960
  133TYR     HA  172   3.559   3.737   6.345 -0.5478  0.9193 -1.2542
  133TYR     CB  173   3.558   3.605   6.174  0.1214  0.6502  0.2986
  133TYR    HB1  174   3.582   3.516   6.232 -1.3098 -0.3391 -0.5635
  133TYR    HB2  175   3.616   3.600   6.082 -0.2578 -1.8930  0.1502
  133TYR     CG  176   3.405   3.596   6.153 -0.7245 -0.2190 -0.6304
  133TYR    CD1  177   3.351   3.632   6.029 -0.4734 -0.3402  0.1387
  133TYR    HD1  178   3.419   3.657   5.949 -0.8046 -0.2306 -0.1110
  133TYR    CE1  179   3.213   3.639   6.008 -0.9323 -1.1073  0.8987
  133TYR    HE1  180   3.168   3.651   5.911  1.0261 -0.8264 -0.0284
  133TYR     CZ  181   3.125   3.619   6.114 -0.5648 -0.0513  0.0092
  133TYR     OH  182   2.991   3.607   6.089 -0.4379 -0.4470 -1.0536
  133TYR     HH  183   2.941   3.562   6.157  0.9304 -1.2670 -0.5609
  133TYR    CE2  184   3.177   3.570   6.237  0.4746 -0.7869 -0.0655
  133TYR    HE2  185   3.107   3.539   6.313 -1.5231  0.6422 -1.2182
  133TYR    CD2  186   3.316   3.567   6.260  0.1591  0.2128 -0.7959
  133TYR    HD2  187   3.349   3.535   6.357 -0.9071 -1.1631 -0.8608
  133TYR      C  188   3.753   3.736   6.257  0.8775  0.5309  0.2145
  133TYR      O  189   3.816   3.780   6.162 -0.4879  0.2885 -0.1148
  134GLN      N  190   3.811   3.677   6.361  0.1189 -0.4616 -0.2976
  134GLN      H  191   3.752   3.666   6.443 -1.9168 -1.9171 -1.8522
  134GLN     CA  192   3.949   3.623   6.364  0.3371 -0.8117 -0.3641
  134GLN     HA  193   4.007   3.697   6.309 -1.1080  0.5110 -0.1715
  134GLN     CB  194   4.010   3.612   6.504  0.0807 -0.3758  0.0195
  134GLN    HB1  195   4.015   3.710   6.551  0.8535 -1.8190  3.1915
  134GLN    HB2  196   4.111   3.572   6.497  0.0269 -0.5291  0.1012
  134GLN     CG  197   3.926   3.529   6.602 -0.6891 -0.3798  0.4578
  134GLN    HG1  198   3.932   3.425   6.571 -1.1338 -0.8950  1.9856
  134GLN    HG2  199   3.825   3.569   6.597  0.0548  1.4861 -1.2338
  134GLN     CD  200   3.975   3.543   6.747  0.7876 -0.1430 -0.0871
  134GLN    OE1  201   3.894   3.541   6.842  0.4206 -0.2704  0.0344
  134GLN    NE2  202   4.101   3.538   6.777 -0.0573 -0.0358  0.3592
  134GLN   HE21  203   4.122   3.525   6.875 -1.4320 -2.4327  0.4104
  134GLN   HE22  204   4.179   3.542   6.713 -1.3351  0.0984 -1.2508
  134GLN      C  205   3.950   3.496   6.278  0.5056  0.0427 -0.3867
  134GLN      O  206   3.847   3.427   6.271  0.3281 -0.2914 -0.2305
  135ASP      N  207   4.059   3.475   6.213  0.4299 -0.8505  0.2425
  135ASP      H  208   4.133   3.542   6.207  0.7301 -1.2699 -1.3213
  135ASP     CA  209   4.091   3.352   6.141 -0.7528  0.6280 -0.1012
  135ASP     HA  210   4.022   3.341   6.057  0.3599 -2.1932 -0.7301
  135ASP     CB  211   4.237   3.357   6.089  0.2720  0.0216 -0.6177
  135ASP    HB1  212   4.254   3.260   6.043  0.8268 -0.0956 -0.1677
  135ASP    HB2  213   4.305   3.372   6.173 -0.3195  1.1074 -0.3189
  135ASP     CG  214   4.255   3.472   5.995 -0.0993 -0.5009  0.1529
  135ASP    OD1  215   4.202   3.454   5.877 -0.3024  0.1848 -0.3260
  135ASP    OD2  216   4.338   3.566   6.018 -0.4795  0.2002 -0.8235
  135ASP      C  217   4.083   3.225   6.226  0.2564  0.0971  0.0793
  135ASP      O  218   4.086   3.230   6.348 -0.1274  0.1161 -0.2563
  136TYR      N  219   4.052   3.116   6.168  0.2679 -0.0646  0.7641
  136TYR      H  220   4.033   3.119   6.069 -1.8948  1.6867  1.1451
  136TYR     CA  221   4.055   2.980   6.227 -0.3828  1.2013 -0.5240
  136TYR     HA  222   3.990   2.976   6.314 -0.5453 -1.3800 -0.6760
  136TYR     CB  223   3.993   2.888   6.129  0.6572  0.2063  0.3030
  136TYR    HB1  224   3.973   2.795   6.181  2.0541  0.0592  0.6088
  136TYR    HB2  225   4.065   2.865   6.050 -0.2666 -0.8105 -0.2738
  136TYR     CG  226   3.861   2.922   6.057 -0.2726 -0.6388  0.0747
  136TYR    CD1  227   3.739   2.941   6.129 -0.8217 -0.3678  0.2477
  136TYR    HD1  228   3.746   2.933   6.236 -0.6000 -0.3122  0.2377
  136TYR    CE1  229   3.618   2.967   6.059 -0.4818  0.8801  0.5108
  136TYR    HE1  230   3.525   2.972   6.115 -0.1499  0.0321  1.1669
  136TYR     CZ  231   3.615   2.965   5.919  0.0875 -0.9787  1.2107
  136TYR     OH  232   3.500   2.995   5.852  0.2102 -0.0998  0.1092
  136TYR     HH  233   3.422   2.971   5.903 -0.1727 -0.3727 -0.5773
  136TYR    CE2  234   3.737   2.947   5.846 -0.0323  0.4363  0.0598
  136TYR    HE2  235   3.747   2.962   5.740 -0.4197  1.8627  0.2020
  136TYR    CD2  236   3.856   2.926   5.917  0.6421  0.3987  0.1163
  136TYR    HD2  237   3.945   2.908   5.859 -0.3030 -0.2873 -1.1895
  136TYR      C  238   4.204   2.931   6.256 -0.4148  0.1444 -0.1933
  136TYR      O  239   4.302   2.998   6.226 -0.1438  0.1664  0.1441
  137GLU      N  240   4.213   2.805   6.310 -0.3580 -0.0364 -0.3227
  137GLU      H  241   4.122   2.765   6.328 -0.6215  1.2434  1.3773
  137GLU     CA  242   4.333   2.727   6.333  0.0361  0.4182 -0.4470
  137GLU     HA  243   4.406   2.775   6.399  0.8880  0.0058 -1.0595
  137GLU     CB  244   4.293   2.593   6.398 -0.3881 -0.2426 -0.6767
  137GLU    HB1  245   4.219   2.553   6.328 -0.9815 -0.1537 -0.1090
  137GLU    HB2  246   4.252   2.625   6.494  2.2504  1.2469  0.0633
  137GLU     CG  247   4.415   2.497   6.416 -0.1895  0.8038  0.5041
  137GLU    HG1  248   4.487   2.545   6.483  0.7723 -0.3748  0.3442
  137GLU    HG2  249   4.453   2.467   6.318 -1.5432  1.3864 -0.2193
  137GLU     CD  250   4.375   2.371   6.486  0.2020  0.7102 -0.4335
  137GLU    OE1  251   4.257   2.337   6.494 -0.2225  0.2574 -0.5354
  137GLU    OE2  252   4.472   2.312   6.538  0.0950  0.7219  0.1875
  137GLU      C  253   4.413   2.703   6.199  0.0805  0.3172  0.0965
  137GLU      O  254   4.349   2.650   6.106  0.0006 -0.1582  0.0746
  138PRO      N  255   4.546   2.723   6.195 -0.2695 -0.1455 -0.1076
  138PRO     CD  256   4.633   2.756   6.307  0.5331  0.3844 -0.1128
  138PRO    HD1  257   4.613   2.706   6.401 -0.6522 -1.1593 -1.1415
  138PRO    HD2  258   4.630   2.864   6.322  0.1483  0.0407  3.0025
  138PRO     CG  259   4.778   2.724   6.264  0.9020  0.1955 -0.1122
  138PRO    HG1  260   4.797   2.627   6.310 -1.8300  0.5290  2.0014
  138PRO    HG2  261   4.845   2.797   6.310  0.2497  0.4359  0.4804
  138PRO     CB  262   4.775   2.722   6.111  0.1628 -0.1883  0.9202
  138PRO    HB1  263   4.790   2.819   6.065 -2.4840  0.0845  0.4731
  138PRO    HB2  264   4.851   2.649   6.083  0.2886  0.8515 -1.7096
  138PRO     CA  265   4.630   2.681   6.083  0.1696  0.3312 -0.5088
  138PRO     HA  266   4.594   2.735   5.996  1.1396 -1.7307 -2.2855
  138PRO      C  267   4.613   2.532   6.040 -0.2085  0.3312 -0.1673
  138PRO      O  268   4.619   2.435   6.114  0.3962 -0.2240  0.4458
  139GLU      N  269   4.612   2.521   5.910 -0.1766  0.1966  0.1993
  139GLU      H  270   4.618   2.607   5.856  0.2603 -0.2550 -0.4884
  139GLU     CA  271   4.598   2.401   5.828 -0.6573 -0.1916  0.0347
  139GLU     HA  272   4.544   2.336   5.896  0.3354  1.1440  2.1878
  139GLU     CB  273   4.526   2.440   5.697  0.5414 -0.5026  0.7453
  139GLU    HB1  274   4.545   2.357   5.630 -0.4087 -1.3653  1.5199
  139GLU    HB2  275   4.572   2.531   5.658 -0.2053 -0.4340  0.0140
  139GLU     CG  276   4.379   2.466   5.712  0.0153  0.5499  0.3692
  139GLU    HG1  277   4.372   2.565   5.757 -0.7016 -0.9294  3.8988
  139GLU    HG2  278   4.339   2.398   5.788 -0.8186  1.1490  0.4852
  139GLU     CD  279   4.306   2.458   5.575 -0.9183  0.2972  0.1453
  139GLU    OE1  280   4.366   2.503   5.474 -0.0937 -0.0692  0.0931
  139GLU    OE2  281   4.202   2.394   5.571 -0.0910 -0.0736 -0.4537
  139GLU      C  282   4.737   2.327   5.809 -0.4013 -0.4148 -0.5255
  139GLU      O  283   4.844   2.386   5.834 -0.7999  0.1038  0.6620
  140CALA     N  284   4.732   2.202   5.759 -0.0252  0.1800  0.0913
  140CALA     H  285   4.641   2.169   5.734 -0.0426 -1.1954  1.8233
  140CALA    CA  286   4.839   2.099   5.754 -0.7372 -0.4558 -0.5672
  140CALA    HA  287   4.925   2.120   5.818 -1.0872 -0.7074 -0.0046
  140CALA    CB  288   4.776   1.962   5.796 -0.4079 -0.6142 -0.1880
  140CALA   HB1  289   4.832   1.870   5.773 -0.2722 -0.8319  0.9541
  140CALA   HB2  290   4.682   1.951   5.742 -1.5331 -1.4556  1.8390
  140CALA   HB3  291   4.748   1.957   5.901  1.8059  1.6150  0.6234
  140CALA     C  292   4.901   2.099   5.613 -0.3276 -0.4143  0.5737
  140CALA   OC1  293   4.838   2.042   5.518  0.2697  0.4464  0.3704
  140CALA   OC2  294   5.023   2.143   5.600  1.1779 -0.2168  0.0685
  141L47      C  295   3.306   3.194   6.297  0.0222 -0.5642  0.0207
  141L47      H  296   3.347   3.159   6.393  1.6816 -0.7556 -0.7316
  141L47     H1  297   3.256   3.106   6.253 -1.5217 -0.2040  0.9700
  141L47     H2  298   3.247   3.285   6.314  1.4119  0.2228  0.8344
  141L47     C1  299   3.430   3.231   6.219  0.5730  0.0018  0.4309
  141L47      O  300   3.537   3.212   6.276  0.5891  0.5586  0.1987
  141L47      N  301   3.407   3.271   6.086 -0.1906 -0.1136 -0.1103
  141L47     C2  302   3.276   3.268   6.022  0.0406  0.2530 -0.0803
  141L47     H3  303   3.206   3.339   6.068 -0.5708 -1.2498  1.4362
  141L47     H4  304   3.229   3.169   6.022 -0.8368  0.6350 -1.5737
  141L47     C3  305   3.299   3.307   5.874 -0.8778  0.1182 -0.3491
  141L47     H5  306   3.256   3.406   5.855  1.7763  0.9892 -2.5193
  141L47     H6  307   3.262   3.225   5.811 -1.9662  0.1150  0.2876
  141L47     C4  308   3.452   3.311   5.865  0.1647  0.1179  0.4477
  141L47     C5  309   3.505   3.299   5.987 -0.3802  0.1796  0.3005
  141L47     C6  310   3.644   3.312   6.006 -0.1750 -0.0281  0.2545
  141L47     H7  311   3.693   3.317   6.103  0.2372 -0.3769  0.0674
  141L47     C7  312   3.724   3.333   5.898  0.3576  0.3470 -0.7685
  141L47     H8  313   3.832   3.344   5.906  0.1722  0.9156  1.6270
  141L47     C8  314   3.669   3.342   5.775 -0.8144  0.5849  0.8098
  141L47     C9  315   3.528   3.326   5.747 -0.0031  0.0568 -0.1268
  141L47     H9  316   3.485   3.326   5.648 -1.6990 -2.5492  0.5283
  141L47      S  317   3.771   3.345   5.629 -0.0759  0.1880 -0.1599
  141L47     O1  318   3.700   3.388   5.505  0.3798 -0.3233 -0.6622
  141L47     O2  319   3.880   3.246   5.645 -0.2687  0.5294 -0.2632
  141L47     N1  320   3.858   3.489   5.664 -0.0646  0.1350  0.0428
  141L47    C10  321   3.783   3.615   5.703  0.1790 -0.5252 -0.2693
  141L47    H10  322   3.683   3.607   5.747  0.6725  1.5156  1.3283
  141L47    H11  323   3.765   3.678   5.615 -3.7454  0.0919  0.7725
  141L47    C11  324   3.856   3.689   5.824 -0.2612  0.3440 -0.0182
  141L47    H12  325   3.882   3.611   5.897  0.7598  0.0679 -0.6686
  141L47    H13  326   3.787   3.759   5.873  0.1682 -0.1565  1.3602
  141L47    C12  327   3.986   3.764   5.809 -0.2465 -0.4969 -0.6854
  141L47    H14  328   4.026   3.802   5.903 -2.6765  0.8428 -0.0974
  141L47    H15  329   3.980   3.857   5.753  0.7727  0.5751  0.9066
  141L47     N2  330   4.094   3.675   5.750 -0.3500  0.0409  0.5969
  141L47    H16  331   4.182   3.728   5.749 -0.3008  0.1553  3.2920
  141L47    H17  332   4.115   3.589   5.801  0.0351 -0.4843 -0.4252
  141L47    C13  333   4.052   3.642   5.607 -0.0640  0.5662  0.5232
  141L47    H18  334   4.145   3.633   5.551 -0.1372 -2.2039  0.6956
  141L47    H19  335   3.986   3.717   5.563 -1.8985 -2.4412 -2.3477
  141L47    C14  336   3.977   3.508   5.579 -0.0714 -0.1473  0.0389
  141L47    H20  337   3.949   3.517   5.473 -2.1820 -1.3900  0.4393
  141L47    H21  338   4.046   3.425   5.597  1.1366  0.5567 -1.0854
  142SOL     OW  339   1.654   5.765   1.356 -0.1525 -0.2359 -0.1556
  142SOL    HW2  340   1.725   5.829   1.359 -0.2922 -0.0511 -0.6803
  142SOL    HW3  341   1.611   5.781   1.273 -1.4015  0.2791  0.5714
  142SOL    MW4  342   1.658   5.775   1.345 -0.3357 -0.1435 -0.1289
  143SOL     OW  343   2.769   3.146   2.420 -0.2194 -0.2745 -0.0959
  143SOL    HW2  344   2.763   3.232   2.462  0.5036  0.1574 -0.8604
  143SOL    HW3  345   2.845   3.152   2.363 -2.1065 -0.2330 -2.7934
  143SOL    MW4  346   2.778   3.158   2.418 -0.3730 -0.2120 -0.5527
  144SOL     OW  347   6.233   5.091   4.173 -0.2836  0.2380  0.7805
  144SOL    HW2  348   6.322   5.057   4.163 -0.5061 -0.5756  1.4578
  144SOL    HW3  349   6.231   5.129   4.261  0.3026  3.1465 -0.3587
  144SOL    MW4  350   6.245   5.091   4.183 -0.2356  0.5144  0.7196
  145SOL     OW  351   1.208   4.267   3.753 -0.3444  0.1722 -0.1718
  145SOL    HW2  352   1.253   4.347   3.779 -0.5192  0.6210 -1.1974
  145SOL    HW3  353   1.276   4.214   3.710  0.3294 -1.2416  2.4273
  145SOL    MW4  354   1.223   4.271   3.750 -0.2786  0.0449  0.0358
  146SOL     OW  355   1.548   3.148   5.477  0.0924  0.2294  0.4773
  146SOL    HW2  356   1.609   3.176   5.409  1.8945 -1.9659  1.0504
  146SOL    HW3  357   1.504   3.072   5.439 -2.1078  1.5606  0.2202
  146SOL    MW4  358   1.551   3.142   5.463  0.0399  0.1154  0.5190
  147SOL     OW  359   2.752   3.690   2.655  0.0402 -0.2669  0.3418
  147SOL    HW2  360   2.836   3.644   2.666 -1.2127 -2.7070  0.4216
  147SOL    HW3  361   2.702   3.668   2.733 -1.7341 -1.3770 -1.0332
  147SOL    MW4  362   2.757   3.681   2.667 -0.3592 -0.7353  0.1709
  148SOL     OW  363   5.099   2.982   4.345  0.2114 -0.3555 -0.1835
  148SOL    HW2  364   5.110   2.992   4.250  2.9104  0.4682  0.1388
  148SOL    HW3  365   5.067   3.068   4.374 -1.7061 -0.9416 -0.4147
  148SOL    MW4  366   5.096   2.995   4.336  0.3145 -0.3242 -0.1715
  149SOL     OW  367   3.878   6.039   1.963 -0.0524  0.0702 -0.1839
  149SOL    HW2  368   3.827   6.065   2.040  0.6296 -0.3508  0.4211
  149SOL    HW3  369   3.814   6.034   1.893 -0.6178  0.8962  0.2543
  149SOL    MW4  370   3.863   6.042   1.964 -0.0370  0.1236 -0.0462
  150SOL     OW  371   4.184   0.184   0.921 -0.1590 -0.8936 -0.1516
  150SOL    HW2  372   4.220   0.205   1.007 -1.7307 -2.4825  0.9797
  150SOL    HW3  373   4.120   0.253   0.904  0.6546 -0.1893 -0.3850
  150SOL    MW4  374   4.180   0.196   0.930 -0.2590 -1.0103 -0.0331
  151SOL     OW  375   3.467   3.030   2.065 -0.8145 -0.0863  0.3199
  151SOL    HW2  376   3.549   3.013   2.018  0.2148 -0.6097  2.2150
  151SOL    HW3  377   3.479   3.118   2.101 -1.1298 -0.1161  0.4938
  151SOL    MW4  378   3.480   3.040   2.063 -0.7203 -0.1592  0.5928
  152SOL     OW  379   1.792   0.667   5.143  0.5126  0.2345 -0.2320
  152SOL    HW2  380   1.761   0.630   5.061  1.8340  0.2323 -0.7618
  152SOL    HW3  381   1.764   0.759   5.141 -1.0413 -0.2082  0.1734
  152SOL    MW4  382   1.784   0.674   5.132  0.4819  0.1758 -0.2484
  153SOL     OW  383   2.434   6.222   1.665 -0.2545  0.5349 -0.2159
  153SOL    HW2  384   2.527   6.242   1.674  0.2682 -2.1545  0.9948
  153SOL    HW3  385   2.416   6.158   1.733 -2.3926 -0.9414 -2.0328
  153SOL    MW4  386   2.444   6.217   1.675 -0.4677 -0.0147 -0.2959
  154SOL     OW  387   1.417   3.211   3.784 -1.0501  0.2533 -0.3056
  154SOL    HW2  388   1.488   3.243   3.840 -0.4059 -1.2314 -0.2183
  154SOL    HW3  389   1.348   3.277   3.792 -0.0664  1.2287  0.3987
  154SOL    MW4  390   1.417   3.224   3.793 -0.8353  0.1861 -0.2012
  155SOL     OW  391   3.223   4.474   0.589 -0.0040 -0.4883 -0.0588
  155SOL    HW2  392   3.252   4.485   0.499 -0.9552 -1.0590 -0.4562
  155SOL    HW3  393   3.229   4.379   0.605  2.0449 -0.2261  1.1661
  155SOL    MW4  394   3.228   4.463   0.579  0.1408 -0.5290  0.0504
  156SOL     OW  395   4.832   1.565   3.975 -0.2670 -0.0866  0.2521
  156SOL    HW2  396   4.821   1.653   3.937  0.1059 -0.3041 -0.3669
  156SOL    HW3  397   4.926   1.556   3.987 -0.2338 -0.7166 -0.4497
  156SOL    MW4  398   4.843   1.576   3.972 -0.2134 -0.1984  0.0778
  157SOL     OW  399   6.037   3.357   3.165 -0.4656  0.0011  0.0443
  157SOL    HW2  400   6.078   3.297   3.103 -1.6871 -1.8604  0.9379
  157SOL    HW3  401   6.106   3.420   3.187  0.7115 -0.7391 -1.3339
  157SOL    MW4  402   6.051   3.357   3.160 -0.4715 -0.3422 -0.0197
  158SOL     OW  403   5.869   1.060   5.651  0.4548 -0.6910  0.2646
  158SOL    HW2  404   5.884   1.092   5.739 -0.5421  0.4614  0.0466
  158SOL    HW3  405   5.814   1.127   5.610  0.2303 -1.5889 -0.9696
  158SOL    MW4  406   5.863   1.073   5.657  0.2937 -0.6574  0.0730
  159SOL     OW  407   3.205   4.701   1.166  0.0400  0.5540 -0.3300
  159SOL    HW2  408   3.136   4.647   1.128  1.7012 -2.4938  0.6937
  159SOL    HW3  409   3.235   4.756   1.094 -1.1456 -0.5110 -1.6924
  159SOL    MW4  410   3.200   4.701   1.151  0.1027  0.0114 -0.3747
  160SOL     OW  411   3.695   1.895   0.357 -0.0834  0.2817 -0.4724
  160SOL    HW2  412   3.702   1.890   0.452  0.6404  2.5906 -0.3416
  160SOL    HW3  413   3.609   1.936   0.342 -0.9534 -1.5991 -0.9315
  160SOL    MW4  414   3.684   1.900   0.367 -0.1027  0.3381 -0.5157
  161SOL     OW  415   6.377   5.757   2.010 -0.3294  0.6041 -0.3849
  161SOL    HW2  416   6.460   5.775   1.966  0.3959 -1.5898 -0.0132
  161SOL    HW3  417   6.382   5.807   2.091  0.9686 -0.0661 -0.0287
  161SOL    MW4  418   6.389   5.766   2.015 -0.0624  0.2262 -0.2888
  162SOL     OW  419   2.106   2.357   2.750 -0.6439  0.1405 -0.4597
  162SOL    HW2  420   2.038   2.320   2.693 -1.9058 -0.5532  1.4028
  162SOL    HW3  421   2.180   2.297   2.741 -1.0124 -0.2540 -0.9513
  162SOL    MW4  422   2.107   2.344   2.741 -0.8590 -0.0031 -0.2788
  163SOL     OW  423   3.219   4.110   1.716  0.7534 -0.6973 -0.1892
  163SOL    HW2  424   3.235   4.205   1.718 -3.8382  0.3022  0.1517
  163SOL    HW3  425   3.211   4.086   1.809 -0.8717 -0.6995 -0.2909
  163SOL    MW4  426   3.220   4.120   1.729 -0.0668 -0.5657 -0.1577
  164SOL     OW  427   5.218   0.907   3.401  0.0579  0.6776 -0.8039
  164SOL    HW2  428   5.144   0.849   3.416  0.8134  0.0085  0.4783
  164SOL    HW3  429   5.191   0.962   3.327 -1.0856 -0.5933 -1.3601
  164SOL    MW4  430   5.205   0.907   3.393  0.0067  0.4217 -0.7081
  165SOL     OW  431   0.722   0.817   6.074  0.0207  0.1873  0.4681
  165SOL    HW2  432   0.733   0.842   6.166 -1.0047  2.1007  0.1165
  165SOL    HW3  433   0.657   0.878   6.040  0.4204 -0.4401 -1.5520
  165SOL    MW4  434   0.715   0.829   6.082 -0.0619  0.3570  0.1552
  166SOL     OW  435   0.831   0.944   2.004 -0.0764  0.6476 -0.0333
  166SOL    HW2  436   0.912   0.993   1.991 -0.1433  0.1964 -2.7243
  166SOL    HW3  437   0.761   1.004   1.978 -0.4041  0.2251 -0.1430
  166SOL    MW4  438   0.833   0.958   1.999 -0.1285  0.5323 -0.4028
  167SOL     OW  439   5.496   1.794   0.503  0.1696  0.0193 -0.2107
  167SOL    HW2  440   5.502   1.871   0.446 -0.1886 -0.3107 -0.7074
  167SOL    HW3  441   5.574   1.798   0.558 -1.0587  2.1202  1.5592
  167SOL    MW4  442   5.507   1.805   0.503 -0.0398  0.2530 -0.0427
  168SOL     OW  443   0.163   0.369   2.152 -0.1244 -0.3770  0.3838
  168SOL    HW2  444   0.251   0.398   2.175 -0.6652 -0.1210  2.2499
  168SOL    HW3  445   0.157   0.386   2.058  1.3838  0.7513  0.4409
  168SOL    MW4  446   0.174   0.375   2.143  0.0032 -0.1944  0.6376
  169SOL     OW  447   4.602   1.076   1.330  0.0793 -0.4132 -0.3507
  169SOL    HW2  448   4.692   1.104   1.310 -0.4400  0.1153 -2.2004
  169SOL    HW3  449   4.582   1.012   1.261 -0.9095 -0.6531  0.1461
  169SOL    MW4  450   4.612   1.071   1.318 -0.1197 -0.3752 -0.5292
  170SOL     OW  451   1.336   4.410   1.745  0.0036 -0.3878  0.0017
  170SOL    HW2  452   1.282   4.438   1.819  2.5077  0.9265  1.4554
  170SOL    HW3  453   1.379   4.330   1.776 -0.1724 -0.7759 -0.7120
  170SOL    MW4  454   1.334   4.403   1.759  0.3108 -0.2656  0.0993
  171SOL     OW  455   0.172   1.695   1.254  0.6150 -0.6601  0.2007
  171SOL    HW2  456   0.170   1.704   1.158  0.9453 -0.1249  0.2431
  171SOL    HW3  457   0.257   1.653   1.272  0.0157 -1.9475  0.1725
  171SOL    MW4  458   0.183   1.691   1.244  0.5795 -0.7593  0.2026
  172SOL     OW  459   4.078   5.744   3.658  0.3270 -0.0014  0.2333
  172SOL    HW2  460   4.125   5.661   3.672 -0.3000 -0.2076  1.1579
  172SOL    HW3  461   4.043   5.736   3.569  3.7924  1.0422 -1.3985
  172SOL    MW4  462   4.080   5.732   3.648  0.7015  0.1091  0.1400
  173SOL     OW  463   6.342   0.489   0.683  0.1064 -0.0848  0.0827
  173SOL    HW2  464   6.311   0.477   0.594 -0.7063 -0.5509  0.4126
  173SOL    HW3  465   6.264   0.476   0.737  1.2060 -3.5448  1.1061
  173SOL    MW4  466   6.328   0.486   0.679  0.1443 -0.6028  0.2613
  174SOL     OW  467   2.936   1.639   3.342 -0.5377 -0.1768 -0.2671
  174SOL    HW2  468   2.970   1.608   3.258  1.1605 -0.2586  0.4063
  174SOL    HW3  469   2.936   1.561   3.398  1.4381  0.4842  0.7277
  174SOL    MW4  470   2.940   1.625   3.339 -0.0530 -0.1004 -0.0470
  175SOL     OW  471   1.142   4.656   0.675  0.5891  0.4142 -0.1064
  175SOL    HW2  472   1.063   4.695   0.715  0.6559  1.8779 -1.3240
  175SOL    HW3  473   1.193   4.625   0.750  0.2838  2.2509  0.9494
  175SOL    MW4  474   1.138   4.657   0.690  0.5576  0.8496 -0.1277
  176SOL     OW  475   0.336   5.440   1.090 -0.5901  0.1601  0.2372
  176SOL    HW2  476   0.281   5.517   1.098 -0.1323  0.5484 -0.2847
  176SOL    HW3  477   0.283   5.377   1.040 -0.4717  0.6268 -0.4939
  176SOL    MW4  478   0.322   5.442   1.084 -0.5141  0.2729  0.0718
  177SOL     OW  479   3.886   2.058   5.138 -0.2342 -0.0873  0.3265
  177SOL    HW2  480   3.851   2.065   5.227  0.0037  2.4956  0.3019
  177SOL    HW3  481   3.975   2.092   5.144  0.1397 -0.8181 -0.7392
  177SOL    MW4  482   3.893   2.064   5.150 -0.1535  0.1570  0.1827
  178SOL     OW  483   1.258   0.684   1.330 -0.5476 -0.0068 -0.5150
  178SOL    HW2  484   1.268   0.657   1.422  0.7265  0.6509 -0.4333
  178SOL    HW3  485   1.260   0.602   1.281 -1.8956 -0.4185  0.0755
  178SOL    MW4  486   1.260   0.670   1.336 -0.5573  0.0257 -0.4263
  179SOL     OW  487   1.556   4.280   6.235 -0.6774 -0.2394 -0.3409
  179SOL    HW2  488   1.589   4.194   6.260 -1.5294 -0.4184  0.2086
  179SOL    HW3  489   1.474   4.289   6.283 -1.2299  0.3520 -1.3511
  179SOL    MW4  490   1.549   4.269   6.244 -0.8627 -0.1850 -0.4017
  180SOL     OW  491   3.137   2.991   2.627 -0.2248  0.0025  0.3742
  180SOL    HW2  492   3.134   3.084   2.602  1.1442 -0.7869 -3.4760
  180SOL    HW3  493   3.047   2.961   2.620 -1.1162  1.3342  3.8511
  180SOL    MW4  494   3.125   2.999   2.623 -0.1618  0.0740  0.3250
  181SOL     OW  495   4.889   1.979   3.598  0.2565  0.2705  0.2729
  181SOL    HW2  496   4.883   2.026   3.515 -1.2117 -0.7799 -0.2569
  181SOL    HW3  497   4.815   2.011   3.649  1.2415  1.0225  1.2740
  181SOL    MW4  498   4.878   1.989   3.594  0.1928  0.2311  0.3351
  182SOL     OW  499   5.493   2.478   4.232  0.7576 -0.3279 -0.3642
  182SOL    HW2  500   5.549   2.551   4.260  0.7478 -0.8510  1.1565
  182SOL    HW3  501   5.544   2.399   4.255  0.0957 -0.8033 -0.5020
  182SOL    MW4  502   5.507   2.477   4.239  0.6690 -0.4597 -0.1817
  183SOL     OW  503   1.992   2.291   5.554 -0.3352 -0.1136 -0.2775
  183SOL    HW2  504   1.905   2.322   5.578  0.2893 -0.6009  3.1864
  183SOL    HW3  505   1.992   2.199   5.578  0.5828 -0.6227 -2.0798
  183SOL    MW4  506   1.981   2.283   5.561 -0.1317 -0.2450 -0.0583
  184SOL     OW  507   4.944   1.797   5.510  0.0224  0.3908  0.7391
  184SOL    HW2  508   4.899   1.881   5.517 -1.1329 -0.0275 -1.0438
  184SOL    HW3  509   5.037   1.819   5.517 -0.1608  2.0468 -1.1102
  184SOL    MW4  510   4.950   1.811   5.512 -0.1542  0.5541  0.2599
  185SOL     OW  511   2.258   4.725   5.095  0.4410  0.2800 -0.2959
  185SOL    HW2  512   2.266   4.652   5.156 -1.5271  0.8044  0.6784
  185SOL    HW3  513   2.287   4.690   5.011 -1.6671 -2.0457 -0.1589
  185SOL    MW4  514   2.263   4.711   5.092 -0.0968  0.0423 -0.1493
  186SOL     OW  515   3.340   3.956   0.671 -0.8244  0.4421 -0.4927
  186SOL    HW2  516   3.360   3.914   0.587 -0.4916  1.7628 -1.1089
  186SOL    HW3  517   3.279   3.896   0.714 -0.9426 -0.3003 -1.6469
  186SOL    MW4  518   3.335   3.943   0.665 -0.7961  0.5184 -0.7263
  187SOL     OW  519   2.155   1.357   6.252  0.3161 -0.0206  0.0999
  187SOL    HW2  520   2.104   1.380   6.174 -0.1405 -1.0546  0.0766
  187SOL    HW3  521   2.097   1.377   6.325 -0.0659 -1.0071  0.0811
  187SOL    MW4  522   2.141   1.363   6.251  0.2054 -0.2872  0.0944
  188SOL     OW  523   4.485   3.753   0.203  0.1876  0.5543 -0.4828
  188SOL    HW2  524   4.472   3.674   0.150  0.6069 -0.8087  1.3533
  188SOL    HW3  525   4.427   3.741   0.278  1.0848  1.4598  0.3781
  188SOL    MW4  526   4.475   3.741   0.206  0.3613  0.4939 -0.1270
  189SOL     OW  527   5.917   0.721   4.918 -0.5776 -0.1392 -0.2364
  189SOL    HW2  528   5.864   0.701   4.995  0.1794  0.0460  0.3414
  189SOL    HW3  529   6.001   0.750   4.953 -0.8513  1.8277 -1.0918
  189SOL    MW4  530   5.921   0.722   4.933 -0.5138  0.1448 -0.2730
  190SOL     OW  531   5.291   4.493   2.597 -0.3228 -0.2994  0.6939
  190SOL    HW2  532   5.266   4.401   2.590  0.4575 -0.4349 -0.4791
  190SOL    HW3  533   5.263   4.532   2.514  0.9569  0.1121  0.4295
  190SOL    MW4  534   5.284   4.486   2.585 -0.0510 -0.2630  0.5042
  191SOL     OW  535   2.596   0.769   2.553  0.5654 -0.1666 -0.2548
  191SOL    HW2  536   2.605   0.856   2.592  0.8209 -0.3253  0.0435
  191SOL    HW3  537   2.539   0.783   2.478  0.1231  0.1590  0.1302
  191SOL    MW4  538   2.589   0.783   2.548  0.5408 -0.1445 -0.1646
  192SOL     OW  539   5.919   0.872   4.677  0.0268 -0.2938 -0.2233
  192SOL    HW2  540   5.928   0.808   4.606 -1.8418 -0.6829 -0.1751
  192SOL    HW3  541   5.907   0.818   4.756 -2.0230  0.0477 -0.2471
  192SOL    MW4  542   5.918   0.856   4.678 -0.4902 -0.3001 -0.2201
  193SOL     OW  543   1.749   0.858   5.881 -0.6817  0.0859  0.1865
  193SOL    HW2  544   1.843   0.842   5.885 -0.8083 -0.7658 -0.0177
  193SOL    HW3  545   1.735   0.897   5.794 -0.3139  1.7669  0.8535
  193SOL    MW4  546   1.759   0.861   5.870 -0.6498  0.1953  0.2476
  194SOL     OW  547   6.144   0.103   2.630 -0.3195  0.6329  0.0716
  194SOL    HW2  548   6.158   0.193   2.601  1.4916  0.6761  0.9220
  194SOL    HW3  549   6.107   0.111   2.718  2.0004  0.6416  1.1211
  194SOL    MW4  550   6.141   0.116   2.638  0.2255  0.6397  0.3223
  195SOL     OW  551   4.764   3.590   5.182 -0.2409 -0.4853 -0.3314
  195SOL    HW2  552   4.816   3.565   5.258  1.4737  0.2525 -1.2089
  195SOL    HW3  553   4.763   3.513   5.126 -0.1646 -0.5264 -0.2750
  195SOL    MW4  554   4.770   3.577   5.185 -0.0046 -0.3934 -0.4398
  196SOL     OW  555   2.955   5.875   2.251 -0.2654  0.4246  0.7643
  196SOL    HW2  556   2.864   5.902   2.238 -0.1936  0.2231 -0.2102
  196SOL    HW3  557   2.954   5.780   2.238  0.4010  0.6395 -1.2861
  196SOL    MW4  558   2.943   5.866   2.248 -0.1680  0.4264  0.3652
  197SOL     OW  559   4.176   5.822   0.568 -0.5745  0.1899 -0.6401
  197SOL    HW2  560   4.140   5.850   0.484 -0.1390 -2.1570 -1.6864
  197SOL    HW3  561   4.128   5.742   0.590  1.0271 -0.6257  0.0678
  197SOL    MW4  562   4.165   5.815   0.560 -0.3057 -0.2274 -0.6847
  198SOL     OW  563   5.481   0.461   4.453 -0.1884 -0.6584  0.6148
  198SOL    HW2  564   5.548   0.499   4.509 -0.7421  0.1923  0.7350
  198SOL    HW3  565   5.529   0.413   4.386  0.5549  0.1807  0.5292
  198SOL    MW4  566   5.496   0.460   4.451 -0.1634 -0.4355  0.6194
  199SOL     OW  567   6.148   3.137   4.886 -0.0372 -0.2244  0.0044
  199SOL    HW2  568   6.108   3.223   4.873 -0.3107 -0.0766  1.7138
  199SOL    HW3  569   6.227   3.139   4.832  0.7462  1.6678  1.1411
  199SOL    MW4  570   6.153   3.149   4.877  0.0301  0.0447  0.3799
  200SOL     OW  571   3.454   0.231   2.976  0.0577 -0.2282 -0.2875
  200SOL    HW2  572   3.448   0.304   3.038 -1.2330 -0.1729 -0.4461
  200SOL    HW3  573   3.374   0.180   2.991  0.9950 -1.6974 -0.0901
  200SOL    MW4  574   3.442   0.234   2.986  0.0110 -0.4147 -0.2823
  201SOL     OW  575   5.684   0.130   2.442  0.1505 -0.2513 -0.8579
  201SOL    HW2  576   5.713   0.060   2.384 -2.3372 -0.7329 -1.6829
  201SOL    HW3  577   5.632   0.188   2.386 -2.3801 -0.7430  0.7658
  201SOL    MW4  578   5.681   0.129   2.427 -0.5116 -0.3797 -0.7525
  202SOL     OW  579   4.337   1.153   2.271 -0.1965 -0.1587  0.1794
  202SOL    HW2  580   4.328   1.179   2.179 -1.2796  1.3821  0.6698
  202SOL    HW3  581   4.272   1.206   2.317  1.4102  0.3061  2.0585
  202SOL    MW4  582   4.327   1.164   2.265 -0.1274  0.1059  0.4921
  203SOL     OW  583   3.640   4.323   2.886 -0.8155  0.5445 -0.7597
  203SOL    HW2  584   3.661   4.249   2.828 -0.6309 -1.3044  1.5266
  203SOL    HW3  585   3.550   4.306   2.915 -0.2031  0.2492  1.0862
  203SOL    MW4  586   3.631   4.311   2.882 -0.7104  0.2616 -0.2145
  204SOL     OW  587   2.690   1.091   3.552 -0.3486 -0.5029  0.6531
  204SOL    HW2  588   2.766   1.069   3.606  0.9275  1.4430 -0.2394
  204SOL    HW3  589   2.619   1.104   3.615  0.6165 -0.1670  1.7100
  204SOL    MW4  590   2.691   1.089   3.567 -0.0529 -0.2019  0.6748
  205SOL     OW  591   0.561   4.641   6.357 -0.5210 -0.1662  0.1661
  205SOL    HW2  592   0.646   4.674   6.386 -0.9266 -0.2373  1.5363
  205SOL    HW3  593   0.517   4.718   6.320 -0.5843  0.3386  1.2395
  205SOL    MW4  594   0.566   4.656   6.356 -0.5829 -0.1090  0.4885
  206SOL     OW  595   4.541   0.620   1.147  0.3369  0.9372  0.5558
  206SOL    HW2  596   4.553   0.544   1.090  1.3863  0.9920  0.6897
  206SOL    HW3  597   4.539   0.584   1.236  0.9781  1.0752  0.6291
  206SOL    MW4  598   4.542   0.605   1.151  0.5600  0.9626  0.5832
  207SOL     OW  599   4.484   1.875   3.514  0.8221 -0.3256 -0.0840
  207SOL    HW2  600   4.397   1.852   3.548  0.7350 -0.9030 -0.7004
  207SOL    HW3  601   4.471   1.886   3.420  1.5413 -1.0108 -0.2692
  207SOL    MW4  602   4.471   1.874   3.506  0.9055 -0.4922 -0.1897
  208SOL     OW  603   4.866   3.134   2.434 -0.5812 -0.3521 -0.7825
  208SOL    HW2  604   4.875   3.224   2.404  0.5444 -0.0542  0.3310
  208SOL    HW3  605   4.779   3.130   2.473 -0.0092  0.8106  0.7611
  208SOL    MW4  606   4.856   3.145   2.435 -0.3572 -0.1594 -0.4319
  209SOL     OW  607   4.837   1.614   5.672  0.1764 -0.0148  0.4810
  209SOL    HW2  608   4.874   1.687   5.622 -1.2327  0.0776 -0.4650
  209SOL    HW3  609   4.851   1.537   5.617 -1.9292  0.1797 -0.4067
  209SOL    MW4  610   4.844   1.614   5.658 -0.2873  0.0231  0.2391
  210SOL     OW  611   2.697   3.192   4.774  0.2213  0.4101  0.2985
  210SOL    HW2  612   2.785   3.216   4.804 -0.1819  1.4775  0.6689
  210SOL    HW3  613   2.662   3.273   4.737 -0.8516  0.1586  0.7415
  210SOL    MW4  614   2.704   3.206   4.773  0.0266  0.5178  0.4058
  211SOL     OW  615   3.950   3.372   5.125 -0.0385  0.0834  0.6916
  211SOL    HW2  616   3.917   3.459   5.148 -0.8510  0.0556 -0.3192
  211SOL    HW3  617   3.913   3.314   5.191 -0.5446  0.3224  0.6215
  211SOL    MW4  618   3.941   3.376   5.137 -0.2125  0.1112  0.5490
  212SOL     OW  619   1.316   5.390   2.423  0.0819 -0.0806  0.0190
  212SOL    HW2  620   1.336   5.302   2.455 -1.3279 -0.4150  0.0755
  212SOL    HW3  621   1.359   5.449   2.485  1.3679 -0.7169 -0.2468
  212SOL    MW4  622   1.324   5.386   2.435  0.0656 -0.2086 -0.0086
  213SOL     OW  623   4.846   5.436   6.011  0.3451 -0.4302 -0.2719
  213SOL    HW2  624   4.802   5.353   6.031 -1.4044  0.5688  0.2160
  213SOL    HW3  625   4.929   5.431   6.060 -1.1323 -0.6058  2.3755
  213SOL    MW4  626   4.851   5.424   6.020 -0.0807 -0.3215  0.1418
  214SOL     OW  627   2.025   0.743   4.799 -0.2167  0.2865 -0.0094
  214SOL    HW2  628   1.963   0.777   4.734 -0.6635  0.6870  0.6167
  214SOL    HW3  629   2.080   0.683   4.749 -0.2277  0.9627 -0.8758
  214SOL    MW4  630   2.024   0.740   4.784 -0.2771  0.4286 -0.0411
  215SOL     OW  631   4.657   4.120   5.291  0.3173  0.1056 -0.2348
  215SOL    HW2  632   4.596   4.167   5.348 -0.1260 -0.6192 -0.0915
  215SOL    HW3  633   4.734   4.177   5.285 -0.3359  1.0104 -0.3546
  215SOL    MW4  634   4.659   4.134   5.297  0.1726  0.1293 -0.2317
  216SOL     OW  635   4.137   2.301   6.253 -0.0891  0.3702  0.1174
  216SOL    HW2  636   4.198   2.331   6.186  0.4332 -0.7242  0.0708
  216SOL    HW3  637   4.181   2.320   6.336  1.0879 -1.8171  0.0725
  216SOL    MW4  638   4.151   2.307   6.255  0.1351 -0.0628  0.1054
  217SOL     OW  639   2.642   6.346   4.213 -0.3619  0.2156 -0.2234
  217SOL    HW2  640   2.614   6.295   4.290 -0.9480  0.5103 -0.2367
  217SOL    HW3  641   2.578   6.324   4.146  0.4278 -0.4190 -0.7932
  217SOL    MW4  642   2.630   6.336   4.214 -0.3350  0.1708 -0.3003
  218SOL     OW  643   5.604   4.537   1.422  0.5913 -0.1455  0.3025
  218SOL    HW2  644   5.511   4.522   1.439  0.1037  0.2270 -1.7954
  218SOL    HW3  645   5.610   4.630   1.402  1.2493 -0.3446 -0.4986
  218SOL    MW4  646   5.593   4.547   1.422  0.6138 -0.1226 -0.0800
  219SOL     OW  647   2.181   5.225   6.276  0.5599 -0.2341 -0.2640
  219SOL    HW2  648   2.269   5.204   6.308  0.4343  0.1227  0.3440
  219SOL    HW3  649   2.194   5.292   6.209  0.7730 -0.4179 -0.4063
  219SOL    MW4  650   2.194   5.231   6.272  0.5714 -0.2113 -0.2025
  220SOL     OW  651   3.578   2.137   1.824  0.0375 -0.1586 -0.7851
  220SOL    HW2  652   3.556   2.124   1.916 -2.1802 -1.9719 -1.4815
  220SOL    HW3  653   3.549   2.226   1.804  0.8354  0.3702  0.2883
  220SOL    MW4  654   3.571   2.147   1.834 -0.1498 -0.3281 -0.7354
  221SOL     OW  655   3.733   2.715   4.981  0.3524 -0.5212 -0.7020
  221SOL    HW2  656   3.742   2.802   4.942  0.9076 -0.6002 -0.7534
  221SOL    HW3  657   3.675   2.729   5.056  0.7233 -0.0447 -0.5014
  221SOL    MW4  658   3.726   2.728   4.986  0.4746 -0.4687 -0.6823
  222SOL     OW  659   4.644   3.605   1.916  0.4399 -0.4018  0.2817
  222SOL    HW2  660   4.558   3.629   1.951  1.4529  2.3101  1.1588
  222SOL    HW3  661   4.683   3.688   1.890  2.7008 -1.5942 -0.3839
  222SOL    MW4  662   4.638   3.619   1.917  0.8719 -0.2013  0.3096
  223SOL     OW  663   2.661   1.568   5.346  0.3657 -0.2932 -0.1101
  223SOL    HW2  664   2.615   1.636   5.395  1.4325  0.4521 -0.1030
  223SOL    HW3  665   2.723   1.531   5.409 -0.1005 -1.1853 -0.1585
  223SOL    MW4  666   2.663   1.572   5.361  0.4449 -0.3125 -0.1155
  224SOL     OW  667   5.906   2.373   5.602  0.2320  0.3243 -0.5704
  224SOL    HW2  668   5.828   2.357   5.549 -0.4089  2.5230 -0.3774
  224SOL    HW3  669   5.878   2.360   5.692  0.8827 -1.7051 -0.6074
  224SOL    MW4  670   5.892   2.369   5.607  0.2333  0.3467 -0.5498
  225SOL     OW  671   4.231   3.004   5.802  0.1525  0.6850  0.1097
  225SOL    HW2  672   4.196   3.092   5.815 -0.5677  0.4665 -0.2648
  225SOL    HW3  673   4.195   2.976   5.717 -0.6083 -0.4102  0.7576
  225SOL    MW4  674   4.222   3.012   5.792 -0.0429  0.5117  0.1458
  226SOL     OW  675   3.321   1.033   3.612  0.0486 -0.7074 -0.2842
  226SOL    HW2  676   3.406   1.075   3.622 -0.4068  0.2082 -0.1005
  226SOL    HW3  677   3.271   1.094   3.558 -1.0794 -0.3030  1.1350
  226SOL    MW4  678   3.326   1.047   3.606 -0.1603 -0.5333 -0.0727
  227SOL     OW  679   0.479   0.321   4.979 -0.4461  0.4987  0.2001
  227SOL    HW2  680   0.515   0.409   4.979  0.9135 -0.0011 -1.4298
  227SOL    HW3  681   0.410   0.323   5.045 -0.6154  2.8372  0.0282
  227SOL    MW4  682   0.474   0.333   4.987 -0.2891  0.7413 -0.0376
  228SOL     OW  683   4.334   0.244   1.156  0.1490 -0.0058 -0.0795
  228SOL    HW2  684   4.296   0.180   1.216 -1.8715  1.4580  0.3035
  228SOL    HW3  685   4.305   0.329   1.190  1.9719  1.0865 -1.0948
  228SOL    MW4  686   4.326   0.247   1.168  0.1229  0.3314 -0.1629
  229SOL     OW  687   6.404   3.422   4.183 -0.4895  0.1333 -0.0533
  229SOL    HW2  688   6.387   3.508   4.145 -1.7408  0.1416  0.4815
  229SOL    HW3  689   6.335   3.366   4.146 -1.4030  0.0125  1.7257
  229SOL    MW4  690   6.392   3.426   4.173 -0.7751  0.1185  0.2519
  230SOL     OW  691   2.417   0.278   6.013  0.3096  0.1055  0.5113
  230SOL    HW2  692   2.429   0.184   5.997 -0.9229 -0.3236  1.9500
  230SOL    HW3  693   2.331   0.285   6.053 -0.5967  2.1319 -1.5917
  230SOL    MW4  694   2.408   0.266   6.017  0.0274  0.3163  0.4237
  231SOL     OW  695   0.538   0.225   3.613 -0.2193  0.1041  0.2379
  231SOL    HW2  696   0.625   0.260   3.594 -0.4348  1.9492  2.3306
  231SOL    HW3  697   0.555   0.137   3.647  0.4690 -1.2056 -3.0651
  231SOL    MW4  698   0.552   0.218   3.615 -0.1569  0.1747  0.0782
  232SOL     OW  699   0.270   6.215  -0.002 -0.3185 -0.0402 -0.4080
  232SOL    HW2  700   0.193   6.269   0.013 -0.6728 -0.1642 -1.6429
  232SOL    HW3  701   0.328   6.270  -0.054 -0.3893 -0.5842 -1.0833
  232SOL    MW4  702   0.267   6.229  -0.007 -0.3746 -0.1284 -0.6600
  233SOL     OW  703   3.858   5.176   4.256  0.0926 -0.2581  0.3179
  233SOL    HW2  704   3.905   5.220   4.185 -0.3293  1.0553  0.8274
  233SOL    HW3  705   3.922   5.166   4.325  0.4385 -1.3195 -0.1336
  233SOL    MW4  706   3.872   5.181   4.256  0.0826 -0.2248  0.3255
  234SOL     OW  707   4.062   1.025   3.022  0.3503 -0.3459 -0.2204
  234SOL    HW2  708   4.019   1.106   2.994 -0.4211 -0.9656 -0.8839
  234SOL    HW3  709   4.155   1.047   3.024  0.0568  0.9644  1.0034
  234SOL    MW4  710   4.068   1.039   3.018  0.2098 -0.2548 -0.1464
  235SOL     OW  711   0.493   5.263   5.595  0.9962  0.7245 -0.6863
  235SOL    HW2  712   0.436   5.332   5.562  1.5300  2.6731  2.1419
  235SOL    HW3  713   0.433   5.194   5.625  0.4389  0.1624 -2.8992
  235SOL    MW4  714   0.478   5.263   5.595  0.9931  0.9074 -0.6051
  236SOL     OW  715   1.325   0.533   6.378 -0.3200 -0.4051 -0.0282
  236SOL    HW2  716   1.248   0.528   6.321 -0.4048 -0.2053  0.0684
  236SOL    HW3  717   1.395   0.493   6.327 -0.6219 -1.1219  0.1080
  236SOL    MW4  718   1.324   0.527   6.364 -0.3710 -0.4733  0.0025
  237SOL     OW  719   4.935   3.111   5.624  0.3153 -0.2146 -0.1053
  237SOL    HW2  720   5.009   3.054   5.646  0.0833 -1.0054 -1.2552
  237SOL    HW3  721   4.876   3.055   5.574 -0.1590  0.9139 -0.8515
  237SOL    MW4  722   4.937   3.096   5.620  0.2221 -0.1701 -0.3555
  238SOL     OW  723   3.575   4.671   4.909 -0.1867 -0.0958  0.5483
  238SOL    HW2  724   3.487   4.692   4.877 -0.0710 -0.7512 -0.2287
  238SOL    HW3  725   3.610   4.755   4.939 -0.4881  0.4645 -0.6077
  238SOL    MW4  726   3.568   4.685   4.909 -0.2112 -0.1084  0.2933
  239SOL     OW  727   0.947   1.554   0.121  0.1537 -0.2974  0.3117
  239SOL    HW2  728   0.931   1.532   0.213  2.9711 -1.4801  0.6283
  239SOL    HW3  729   0.995   1.479   0.087  1.7963  1.3864 -1.2889
  239SOL    MW4  730   0.951   1.541   0.128  0.7421 -0.2313  0.1423
  240SOL     OW  731   4.796   4.353   1.603  0.1430 -0.3359  0.1191
  240SOL    HW2  732   4.870   4.403   1.638  1.1154 -1.2684 -0.5492
  240SOL    HW3  733   4.738   4.420   1.566  0.5167  0.4304  0.8835
  240SOL    MW4  734   4.798   4.369   1.603  0.3206 -0.3578  0.1318
  241SOL     OW  735   2.866   0.301   1.256 -0.3717 -0.3839  0.0736
  241SOL    HW2  736   2.807   0.367   1.291  1.2996  0.9531  0.5293
  241SOL    HW3  737   2.836   0.287   1.166 -0.5865  1.2701 -0.1434
  241SOL    MW4  738   2.854   0.308   1.249 -0.1795  0.0107  0.1051
  242SOL     OW  739   3.812   1.138   4.705  0.1510 -0.2659  0.2177
  242SOL    HW2  740   3.753   1.212   4.722  1.8241  1.3895 -0.8858
  242SOL    HW3  741   3.823   1.096   4.791 -1.0539  0.5744  0.8090
  242SOL    MW4  742   3.806   1.142   4.719  0.2128  0.0634  0.1501
  243SOL     OW  743   2.018   6.155   0.265 -0.4845  0.3503 -0.5724
  243SOL    HW2  744   1.945   6.209   0.293  0.0653  0.3790  0.8823
  243SOL    HW3  745   1.978   6.078   0.226 -1.3398 -0.2669  1.4127
  243SOL    MW4  746   2.003   6.152   0.264 -0.5248  0.2727 -0.1185
  244SOL     OW  747   0.484   1.208   6.326 -0.2005  0.1987 -0.1053
  244SOL    HW2  748   0.435   1.290   6.325 -3.1471 -1.4329  0.3608
  244SOL    HW3  749   0.440   1.153   6.260  1.0609 -1.3488  0.2743
  244SOL    MW4  750   0.472   1.211   6.317 -0.4228 -0.2208  0.0063
  245SOL     OW  751   0.305   3.145   4.646 -0.5029 -0.0573 -0.5477
  245SOL    HW2  752   0.325   3.163   4.554  1.0165  0.0314 -0.2161
  245SOL    HW3  753   0.331   3.225   4.692 -1.2051 -0.1240 -0.0217
  245SOL    MW4  754   0.311   3.158   4.640 -0.3951 -0.0544 -0.4346
  246SOL     OW  755   5.480   0.115   0.207 -0.0864 -0.0613  0.7192
  246SOL    HW2  756   5.410   0.097   0.269 -0.8089  1.2211  0.3190
  246SOL    HW3  757   5.435   0.129   0.124  0.7444 -0.3024  0.2174
  246SOL    MW4  758   5.465   0.115   0.204 -0.0721  0.0761  0.6002
  247SOL     OW  759   5.245   5.628   4.905  0.3048  0.1624  0.5766
  247SOL    HW2  760   5.302   5.553   4.885 -1.6592 -0.7827 -2.0006
  247SOL    HW3  761   5.241   5.630   5.001  1.1164 -2.5312  0.7450
  247SOL    MW4  762   5.252   5.618   4.915  0.1528 -0.3177  0.2588
  248SOL     OW  763   4.657   1.930   1.742 -0.2651  0.0225  0.1013
  248SOL    HW2  764   4.571   1.907   1.775  0.5520 -1.0487  1.5721
  248SOL    HW3  765   4.640   1.973   1.658 -2.3474  1.6625  1.2645
  248SOL    MW4  766   4.643   1.933   1.735 -0.4321  0.0976  0.4488
  249SOL     OW  767   3.908   3.438   4.293 -0.1180 -0.1272  0.1054
  249SOL    HW2  768   3.895   3.527   4.261 -1.3257 -0.2957  0.0942
  249SOL    HW3  769   3.823   3.412   4.327  0.9468 -0.1767  2.9437
  249SOL    MW4  770   3.895   3.446   4.293 -0.1369 -0.1559  0.4784
  250SOL     OW  771   5.118   1.052   3.180  0.5613 -0.1145  0.1141
  250SOL    HW2  772   5.097   0.992   3.109  0.3257 -0.9319  0.8611
  250SOL    HW3  773   5.142   1.134   3.136 -0.3841 -0.3485 -0.8736
  250SOL    MW4  774   5.119   1.055   3.165  0.4055 -0.2532  0.0824
  251SOL     OW  775   2.713   5.402   4.057  0.0362 -0.3392  0.1385
  251SOL    HW2  776   2.677   5.332   4.111 -0.2742  0.1794  0.6179
  251SOL    HW3  777   2.667   5.395   3.974  0.9319 -1.5143 -0.2799
  251SOL    MW4  778   2.702   5.392   4.054  0.1134 -0.4258  0.1466
  252SOL     OW  779   1.049   4.156   3.946  0.1382 -0.3289  0.0235
  252SOL    HW2  780   1.093   4.073   3.961  1.1448  0.0498 -0.7374
  252SOL    HW3  781   1.102   4.200   3.880 -0.3981  0.8982  0.3769
  252SOL    MW4  782   1.062   4.151   3.939  0.2003 -0.1170 -0.0302
  253SOL     OW  783   3.893   5.934   5.456 -0.2005 -0.0704  0.1733
  253SOL    HW2  784   3.986   5.955   5.455 -0.2205  0.0971 -2.0180
  253SOL    HW3  785   3.890   5.838   5.447 -0.2350  0.0505 -1.2430
  253SOL    MW4  786   3.905   5.924   5.455 -0.2077 -0.0324 -0.3027
  254SOL     OW  787   4.452   2.942   4.050 -0.1598  0.1715  0.0118
  254SOL    HW2  788   4.483   2.955   4.139  1.9765 -1.2183 -0.4287
  254SOL    HW3  789   4.479   3.022   4.003  1.6384 -0.4004 -0.0268
  254SOL    MW4  790   4.460   2.954   4.055  0.3593 -0.0873 -0.0514
  255SOL     OW  791   1.560   5.972   0.360  0.4105  0.0293 -0.5351
  255SOL    HW2  792   1.486   5.974   0.421  0.9385 -1.6194  0.2255
  255SOL    HW3  793   1.546   6.047   0.302 -2.8027 -1.1903 -1.5448
  255SOL    MW4  794   1.548   5.982   0.361  0.0562 -0.3492 -0.5679
  256SOL     OW  795   5.664   5.324   2.017 -0.1535 -0.4827 -0.4149
  256SOL    HW2  796   5.570   5.311   2.031 -0.4777  0.2270 -1.6875
  256SOL    HW3  797   5.690   5.255   1.957  0.6540 -1.9845  1.5583
  256SOL    MW4  798   5.655   5.313   2.011 -0.0898 -0.5872 -0.3225
  257SOL     OW  799   4.101   2.655   4.003  0.2229 -0.2124 -0.1244
  257SOL    HW2  800   4.107   2.563   4.027  0.1335 -0.6024 -1.5362
  257SOL    HW3  801   4.154   2.664   3.924 -0.5513  0.7295 -0.5711
  257SOL    MW4  802   4.109   2.644   3.996  0.1089 -0.1396 -0.3696
  258SOL     OW  803   3.945   3.641   2.658 -0.2468  0.4649 -0.2043
  258SOL    HW2  804   3.940   3.736   2.647 -0.2949  0.4696 -0.1388
  258SOL    HW3  805   3.856   3.614   2.677  0.0059  0.6080  1.3821
  258SOL    MW4  806   3.933   3.650   2.659 -0.2198  0.4844  0.0137
  259SOL     OW  807   0.073   2.330   5.305 -0.1924 -0.7735 -0.3124
  259SOL    HW2  808   0.162   2.359   5.287 -0.1140 -1.0342 -0.3567
  259SOL    HW3  809   0.071   2.318   5.400 -0.1199 -0.9569 -0.3330
  259SOL    MW4  810   0.084   2.332   5.315 -0.1725 -0.8321 -0.3209
  260SOL     OW  811   0.401   5.896   0.812  0.0907  0.2921 -0.2414
  260SOL    HW2  812   0.439   5.879   0.726 -0.3093  1.2709 -0.6197
  260SOL    HW3  813   0.420   5.817   0.862 -0.4058 -0.6471 -1.4784
  260SOL    MW4  814   0.409   5.883   0.807 -0.0276  0.2973 -0.4545
  261SOL     OW  815   6.337   5.857   2.905  0.4427  0.0427 -0.6350
  261SOL    HW2  816   6.253   5.822   2.878 -1.6598  1.9025  2.6712
  261SOL    HW3  817   6.354   5.815   2.990  2.0728  0.8187 -0.5404
  261SOL    MW4  818   6.328   5.847   2.913  0.3804  0.3905 -0.1863
  262SOL     OW  819   6.423   1.427   6.404 -0.3982  0.0964  0.0136
  262SOL    HW2  820   6.438   1.520   6.389 -1.4862  0.4355  0.8374
  262SOL    HW3  821   6.418   1.389   6.316 -0.5440  0.9303 -0.3519
  262SOL    MW4  822   6.424   1.434   6.391 -0.5610  0.2511  0.0740
  263SOL     OW  823   4.479   1.881   5.357 -0.3921  0.6347  0.2047
  263SOL    HW2  824   4.389   1.880   5.324 -0.7669  1.1770  1.1898
  263SOL    HW3  825   4.523   1.812   5.308 -1.6408 -0.4331  0.5522
  263SOL    MW4  826   4.473   1.872   5.346 -0.6063  0.5654  0.3805
  264SOL     OW  827   6.233   2.738   1.161  0.5631 -0.2287 -0.1565
  264SOL    HW2  828   6.176   2.662   1.147  0.1265 -0.2363  1.4431
  264SOL    HW3  829   6.307   2.724   1.102 -0.0414 -1.3350 -0.6879
  264SOL    MW4  830   6.235   2.726   1.151  0.4258 -0.3757 -0.0156
  265SOL     OW  831   2.078   4.014   1.344  0.8169 -0.6274 -0.4389
  265SOL    HW2  832   2.108   4.081   1.406  2.5109 -1.1704 -0.6257
  265SOL    HW3  833   1.983   4.026   1.340  0.5898 -0.6799  2.4263
  265SOL    MW4  834   2.069   4.024   1.352  1.0104 -0.7059 -0.0855
  266SOL     OW  835   0.878   5.587   2.467  1.2380  0.5140 -0.2616
  266SOL    HW2  836   0.858   5.563   2.377  0.1266  0.5421 -0.0382
  266SOL    HW3  837   0.945   5.524   2.495  0.7120 -0.2679 -0.7235
  266SOL    MW4  838   0.884   5.575   2.459  1.0219  0.4145 -0.2931
  267SOL     OW  839   1.991   5.407   3.217  0.0276 -0.2803 -1.0657
  267SOL    HW2  840   1.910   5.458   3.224 -0.8374 -1.7911  2.0679
  267SOL    HW3  841   2.060   5.470   3.239 -0.4016  0.6797 -2.3217
  267SOL    MW4  842   1.989   5.422   3.221 -0.1432 -0.3529 -0.8179
  268SOL     OW  843   4.266   0.242   5.729  0.1247 -0.7112 -0.1216
  268SOL    HW2  844   4.349   0.273   5.764 -0.7204 -0.0807  1.4277
  268SOL    HW3  845   4.203   0.255   5.800 -1.1425 -1.9487 -0.9479
  268SOL    MW4  846   4.269   0.248   5.743 -0.1540 -0.7913 -0.0262
  269SOL     OW  847   3.627   2.054   2.547  0.0533 -0.8545 -0.1689
  269SOL    HW2  848   3.629   2.048   2.643  1.7517 -0.6204 -0.1588
  269SOL    HW3  849   3.627   1.963   2.518 -0.0214 -0.9262  0.0476
  269SOL    MW4  850   3.627   2.041   2.556  0.2675 -0.8331 -0.1390
  270SOL     OW  851   3.651   3.722   0.804 -0.0945  0.0913 -0.1331
  270SOL    HW2  852   3.710   3.666   0.755 -0.8797 -1.7389  0.8777
  270SOL    HW3  853   3.564   3.700   0.771 -0.6865 -1.4842  2.1854
  270SOL    MW4  854   3.647   3.712   0.793 -0.2762 -0.3580  0.3062
  271SOL     OW  855   1.136   1.817   0.426  0.1551 -0.6610  0.2014
  271SOL    HW2  856   1.158   1.758   0.354  1.7162 -1.6356  1.4015
  271SOL    HW3  857   1.204   1.884   0.423  0.9425 -1.3670  1.4355
  271SOL    MW4  858   1.148   1.818   0.416  0.4649 -0.8827  0.5226
  272SOL     OW  859   4.004   0.151   3.699  0.3280 -0.1811  0.7174
  272SOL    HW2  860   4.074   0.217   3.696 -0.0032  0.1460 -0.6372
  272SOL    HW3  861   4.043   0.076   3.743  2.1470 -0.6493 -1.4887
  272SOL    MW4  862   4.018   0.150   3.704  0.5243 -0.1997  0.2476
  273SOL     OW  863   4.209   1.703   5.704 -0.3128  0.3139 -0.1159
  273SOL    HW2  864   4.168   1.778   5.750 -1.6399  0.6665 -1.7819
  273SOL    HW3  865   4.135   1.648   5.678  0.5269 -0.6328 -0.5530
  273SOL    MW4  866   4.194   1.706   5.707 -0.3771  0.2355 -0.3934
  274SOL     OW  867   3.004   3.606   1.439 -0.4016 -0.1776 -0.0628
  274SOL    HW2  868   3.094   3.605   1.472 -0.9176 -0.9011  1.4365
  274SOL    HW3  869   3.014   3.608   1.344  1.3172 -4.1332 -0.1856
  274SOL    MW4  870   3.017   3.606   1.431 -0.2429 -0.7950  0.1188
  275SOL     OW  871   5.597   3.506   4.231 -0.7220 -0.0165 -0.2069
  275SOL    HW2  872   5.507   3.518   4.260 -0.7399 -0.6761  0.0289
  275SOL    HW3  873   5.645   3.483   4.310 -0.4302 -0.0913 -0.4026
  275SOL    MW4  874   5.592   3.504   4.245 -0.6859 -0.1134 -0.2016
  276SOL     OW  875   5.626   4.475   1.159  0.2086  1.0307  0.0836
  276SOL    HW2  876   5.609   4.381   1.159  2.0452  0.6565 -0.1510
  276SOL    HW3  877   5.628   4.499   1.251 -0.8677  0.9931  0.1361
  276SOL    MW4  878   5.624   4.466   1.171  0.3089  0.9763  0.0596
  277SOL     OW  879   0.972   2.922   6.266 -0.4991  0.2880  0.4794
  277SOL    HW2  880   0.968   2.999   6.323  0.0414  0.3963  0.3789
  277SOL    HW3  881   0.904   2.864   6.299 -0.4958  0.5460  0.9456
  277SOL    MW4  882   0.963   2.925   6.278 -0.4274  0.3363  0.5277
  278SOL     OW  883   2.024   0.378   5.399 -0.9275  0.7397 -0.1061
  278SOL    HW2  884   1.939   0.356   5.361 -0.7183  0.1051 -0.2075
  278SOL    HW3  885   2.025   0.333   5.483 -0.5092  0.3873 -0.2996
  278SOL    MW4  886   2.013   0.369   5.405 -0.8447  0.6095 -0.1450
  279SOL     OW  887   1.151   5.656   1.667  0.1031 -0.4101 -0.1470
  279SOL    HW2  888   1.161   5.659   1.763 -0.3384 -0.8791 -0.0861
  279SOL    HW3  889   1.110   5.571   1.650 -1.2798  0.3281 -0.6186
  279SOL    MW4  890   1.147   5.645   1.678 -0.1376 -0.3746 -0.2012
  280SOL     OW  891   6.352   1.933   1.350  0.0340 -0.0826  0.4387
  280SOL    HW2  892   6.286   1.981   1.401 -0.9005 -0.8787  0.0070
  280SOL    HW3  893   6.356   1.979   1.266 -1.4741 -1.1810 -0.2923
  280SOL    MW4  894   6.343   1.945   1.345 -0.2883 -0.3325  0.2853
  281SOL     OW  895   0.500   1.222   5.807 -0.3388 -0.9325 -0.2263
  281SOL    HW2  896   0.576   1.185   5.761  0.0963 -0.4145  0.0718
  281SOL    HW3  897   0.532   1.242   5.895 -1.3991 -2.7482  0.6212
  281SOL    MW4  898   0.514   1.220   5.812 -0.4213 -1.1037 -0.0751
  282SOL     OW  899   2.414   2.538   5.928 -0.0498 -0.7297  1.1232
  282SOL    HW2  900   2.381   2.553   6.016 -2.1968 -0.6058  0.3491
  282SOL    HW3  901   2.336   2.521   5.875  0.7927  2.2282 -1.3877
  282SOL    MW4  902   2.399   2.538   5.932 -0.2219 -0.3231  0.6898
  283SOL     OW  903   4.114   4.230   2.878 -0.1322  0.1918  0.6009
  283SOL    HW2  904   4.036   4.285   2.885 -1.8366 -2.0760  0.5583
  283SOL    HW3  905   4.086   4.145   2.910  2.3657 -0.7261  0.5634
  283SOL    MW4  906   4.100   4.226   2.883 -0.0275 -0.2285  0.5904
  284SOL     OW  907   3.071   5.488   1.700  0.2212  0.0316 -0.3164
  284SOL    HW2  908   3.084   5.562   1.758  0.2263 -0.6885  0.6239
  284SOL    HW3  909   3.103   5.412   1.749 -1.8210 -0.9273 -0.3426
  284SOL    MW4  910   3.077   5.488   1.714 -0.0476 -0.1899 -0.1958
  285SOL     OW  911   4.943   2.389   1.054  0.0326 -0.0326 -1.1824
  285SOL    HW2  912   4.882   2.383   0.980 -0.8075  1.6660 -0.6867
  285SOL    HW3  913   5.004   2.458   1.029 -0.0706  0.3436 -0.4166
  285SOL    MW4  914   4.943   2.397   1.041 -0.0918  0.2412 -1.0160
  286SOL     OW  915   2.890   4.794   3.110  0.2465  0.3416 -0.1754
  286SOL    HW2  916   2.860   4.715   3.065 -1.0364  1.2076 -0.9099
  286SOL    HW3  917   2.948   4.762   3.179  1.0505 -1.1333 -1.4732
  286SOL    MW4  918   2.894   4.780   3.113  0.1834  0.2613 -0.4435
  287SOL     OW  919   1.447   1.788   6.172  0.3351 -0.8969 -0.4374
  287SOL    HW2  920   1.527   1.832   6.143  0.5883 -1.8094 -1.1434
  287SOL    HW3  921   1.472   1.741   6.252  0.2719 -0.4699 -0.1598
  287SOL    MW4  922   1.461   1.788   6.179  0.3602 -0.9609 -0.4939
  288SOL     OW  923   5.404   1.910   3.937 -0.1167  0.1941  1.0624
  288SOL    HW2  924   5.492   1.873   3.943 -0.0933  0.0428 -0.0324
  288SOL    HW3  925   5.350   1.852   3.991 -0.6817 -3.5041 -2.9144
  288SOL    MW4  926   5.408   1.897   3.945 -0.1882 -0.3138  0.3932
  289SOL     OW  927   5.567   3.578   2.987  0.0216  0.0312  0.0062
  289SOL    HW2  928   5.645   3.537   3.022 -0.6009  0.1980  1.6634
  289SOL    HW3  929   5.595   3.666   2.961  0.1200  0.5826  1.8736
  289SOL    MW4  930   5.581   3.584   2.988 -0.0475  0.1260  0.4712
  290SOL     OW  931   0.274   5.629   5.300  0.2805  0.1549 -0.6648
  290SOL    HW2  932   0.306   5.653   5.213 -1.4313  2.7625 -0.6908
  290SOL    HW3  933   0.179   5.631   5.292  0.0535  2.1237  1.6080
  290SOL    MW4  934   0.266   5.632   5.287  0.0247  0.7587 -0.3684
  291SOL     OW  935   3.131   5.818   4.595  0.4846 -0.0638 -0.3533
  291SOL    HW2  936   3.045   5.778   4.584 -0.4736  1.2729  1.5783
  291SOL    HW3  937   3.167   5.775   4.672  1.3660 -0.3034 -0.8941
  291SOL    MW4  938   3.124   5.807   4.604  0.4745  0.0810 -0.1698
  292SOL     OW  939   3.992   1.359   4.154 -0.6249  0.0021 -0.4642
  292SOL    HW2  940   3.955   1.271   4.154  0.7431 -0.6017 -0.0501
  292SOL    HW3  941   4.085   1.346   4.174  0.0162  1.3726 -2.2696
  292SOL    MW4  942   4.000   1.346   4.157 -0.3598  0.1033 -0.6478
  293SOL     OW  943   2.534   3.391   1.110 -0.2344  0.4798  0.8150
  293SOL    HW2  944   2.458   3.448   1.105 -2.2792 -2.0383  1.0321
  293SOL    HW3  945   2.526   3.334   1.033 -0.4062 -1.8763  2.4677
  293SOL    MW4  946   2.523   3.391   1.099 -0.5269 -0.1633  1.0617
  294SOL     OW  947   4.883   4.741   5.844 -0.0422  0.6184  0.0791
  294SOL    HW2  948   4.912   4.831   5.828  2.0261 -0.3201 -1.9451
  294SOL    HW3  949   4.960   4.697   5.879 -0.4690 -0.8328 -0.7569
  294SOL    MW4  950   4.897   4.747   5.847  0.1744  0.3031 -0.2983
  295SOL     OW  951   4.384   5.440   2.400  0.4975 -0.3324 -0.3474
  295SOL    HW2  952   4.428   5.407   2.321 -1.2568 -0.1526 -1.4600
  295SOL    HW3  953   4.370   5.362   2.454  1.2483 -0.5397 -0.4413
  295SOL    MW4  954   4.388   5.425   2.397  0.3651 -0.3360 -0.5066
  296SOL     OW  955   2.999   4.737   2.772  0.7328  0.4671 -0.3520
  296SOL    HW2  956   2.961   4.679   2.706 -0.0982  0.3014  0.2427
  296SOL    HW3  957   2.927   4.796   2.795  1.2019  0.9270 -0.0594
  296SOL    MW4  958   2.984   4.737   2.766  0.6850  0.5059 -0.2350
  297SOL     OW  959   5.343  -0.004   1.509 -0.1712 -0.4916  0.2432
  297SOL    HW2  960   5.393  -0.078   1.476 -1.1639 -1.2591  0.4135
  297SOL    HW3  961   5.400   0.037   1.574  0.9380 -0.2581 -0.8331
  297SOL    MW4  962   5.357  -0.008   1.513 -0.1558 -0.5621  0.1237
  298SOL     OW  963   0.133   3.472   2.714  0.1492 -0.7388  0.0769
  298SOL    HW2  964   0.151   3.565   2.726 -0.4869 -0.3790 -1.5752
  298SOL    HW3  965   0.039   3.463   2.729  0.4877 -1.4958  2.1505
  298SOL    MW4  966   0.123   3.483   2.718  0.1099 -0.7912  0.1325
  299SOL     OW  967   5.418   2.733   2.121 -0.5202 -0.5597  0.3067
  299SOL    HW2  968   5.345   2.732   2.184 -0.4195  0.9915  0.4822
  299SOL    HW3  969   5.461   2.817   2.135  1.6664 -1.6523  0.5792
  299SOL    MW4  970   5.414   2.744   2.131 -0.2184 -0.4992  0.3658
  300SOL     OW  971   5.782   5.058   2.720 -0.7844 -0.5834  0.3881
  300SOL    HW2  972   5.857   5.021   2.767 -0.2595  1.0433  0.8839
  300SOL    HW3  973   5.771   5.001   2.643  0.3578 -1.3875  0.7967
  300SOL    MW4  974   5.790   5.045   2.716 -0.5645 -0.4749  0.5074
  301SOL     OW  975   4.361   6.241   0.521  0.2387 -0.4643 -0.3741
  301SOL    HW2  976   4.363   6.158   0.473 -1.8450 -1.7593  1.5664
  301SOL    HW3  977   4.390   6.218   0.609  0.4535  1.0658 -0.0187
  301SOL    MW4  978   4.365   6.227   0.526 -0.0078 -0.4333 -0.0712
  302SOL     OW  979   2.662   0.638   1.729  0.7795 -0.4773  0.0002
  302SOL    HW2  980   2.663   0.562   1.672  0.8006 -0.8599  0.4975
  302SOL    HW3  981   2.753   0.650   1.755  0.6708 -0.7592  0.5328
  302SOL    MW4  982   2.674   0.629   1.725  0.7679 -0.5650  0.1361
  303SOL     OW  983   1.790   6.402   3.070  0.1094 -0.1770 -0.2874
  303SOL    HW2  984   1.764   6.337   3.004  1.0588 -1.2724  0.3722
  303SOL    HW3  985   1.746   6.372   3.150  0.0922  0.3431 -0.0988
  303SOL    MW4  986   1.781   6.389   3.072  0.2324 -0.2529 -0.1755
  304SOL     OW  987   5.626   6.112   4.903 -0.2153 -0.0369 -0.1087
  304SOL    HW2  988   5.627   6.065   4.987 -0.0106  1.3894  0.7211
  304SOL    HW3  989   5.718   6.135   4.887 -0.1126 -1.1582 -1.2483
  304SOL    MW4  990   5.638   6.109   4.912 -0.1747  0.0034 -0.1496
  305SOL     OW  991   6.351   0.161   5.920  0.1101 -0.5553  0.3695
  305SOL    HW2  992   6.266   0.185   5.883  0.6516  0.5712 -0.1856
  305SOL    HW3  993   6.341   0.174   6.014 -0.6381 -1.4239  0.4231
  305SOL    MW4  994   6.338   0.166   5.928  0.0829 -0.5213  0.3033
  306SOL     OW  995   2.070   5.895   3.167  0.2967 -0.3897 -0.6541
  306SOL    HW2  996   2.071   5.985   3.200 -1.2968 -0.0918 -1.3093
  306SOL    HW3  997   2.153   5.858   3.195  1.2914  1.4947 -0.9450
  306SOL    MW4  998   2.081   5.902   3.175  0.2177 -0.1017 -0.7789
  307SOL     OW  999   2.810   1.823   1.378  0.1623  0.1943 -0.3523
  307SOL    HW2 1000   2.765   1.798   1.459  1.1927 -1.4421 -0.2279
  307SOL    HW3 1001   2.744   1.868   1.327 -1.2441 -0.9216  0.3878
  307SOL    MW4 1002   2.795   1.825   1.382  0.1127 -0.1689 -0.2383
  308SOL     OW 1003   3.799   3.638   4.632  0.3809 -0.1386  0.3309
  308SOL    HW2 1004   3.786   3.635   4.727 -0.8365 -0.3271  0.1774
  308SOL    HW3 1005   3.885   3.598   4.618 -0.6247 -2.8117  1.1403
  308SOL    MW4 1006   3.809   3.632   4.643  0.0876 -0.5161  0.4175
  309SOL     OW 1007   4.132   2.832   2.072  0.1482 -0.0438 -0.2684
  309SOL    HW2 1008   4.088   2.748   2.086 -0.3444 -0.2115 -2.5267
  309SOL    HW3 1009   4.061   2.896   2.069  0.5285  0.5397  1.5601
  309SOL    MW4 1010   4.117   2.830   2.074  0.1334  0.0110 -0.3251
  310SOL     OW 1011   3.410   4.000   5.439 -0.6741  0.0108  0.0701
  310SOL    HW2 1012   3.369   3.915   5.425  0.0752 -0.6201  1.5295
  310SOL    HW3 1013   3.357   4.042   5.507 -1.2507  0.8973 -0.8801
  310SOL    MW4 1014   3.397   3.995   5.446 -0.6513  0.0445  0.1373
  311SOL     OW 1015   4.719   5.449   3.860 -0.3265  0.0525  0.3493
  311SOL    HW2 1016   4.763   5.520   3.907  0.2306  0.2856 -0.4951
  311SOL    HW3 1017   4.748   5.459   3.769 -1.1633 -0.5465  0.0008
  311SOL    MW4 1018   4.728   5.460   3.854 -0.3634  0.0042  0.1919
  312SOL     OW 1019   2.107   0.018   5.075  0.5828  0.2333 -0.1950
  312SOL    HW2 1020   2.096  -0.070   5.038  1.4614 -0.3353  0.8372
  312SOL    HW3 1021   2.190   0.048   5.038 -0.2923  1.1512 -1.4989
  312SOL    MW4 1022   2.117   0.010   5.065  0.5832  0.2794 -0.2308
  313SOL     OW 1023   2.331   2.366   3.620  0.6834 -0.2310  0.1080
  313SOL    HW2 1024   2.405   2.352   3.561 -0.5893  1.4048 -2.0315
  313SOL    HW3 1025   2.256   2.381   3.563 -0.6484  1.5156  2.1107
  313SOL    MW4 1026   2.331   2.366   3.605  0.3398  0.2153  0.0900
  314SOL     OW 1027   0.203   1.328   4.871 -0.3803 -0.1355 -0.0519
  314SOL    HW2 1028   0.205   1.265   4.799  4.3234  0.3234 -0.6716
  314SOL    HW3 1029   0.161   1.406   4.834  1.0054 -0.2698 -2.0830
  314SOL    MW4 1030   0.198   1.330   4.857  0.4231 -0.0927 -0.4017
  315SOL     OW 1031   3.343   6.265   4.578 -0.4444 -0.1369  0.3234
  315SOL    HW2 1032   3.413   6.295   4.519 -0.6832 -0.7933 -0.3067
  315SOL    HW3 1033   3.277   6.228   4.520 -0.7598 -0.6511  0.9981
  315SOL    MW4 1034   3.344   6.264   4.562 -0.5175 -0.2914  0.3293
  316SOL     OW 1035   3.886   4.718   6.165 -0.6366 -0.6506  0.7431
  316SOL    HW2 1036   3.919   4.791   6.112 -2.2617 -1.2191 -1.1886
  316SOL    HW3 1037   3.844   4.761   6.240 -0.6521  0.3668  0.1790
  316SOL    MW4 1038   3.885   4.733   6.168 -0.8530 -0.5914  0.4138
  317SOL     OW 1039   1.216   1.844   3.760 -0.0779  0.6714 -0.0021
  317SOL    HW2 1040   1.260   1.863   3.677 -1.5310  0.9209 -0.7575
  317SOL    HW3 1041   1.272   1.884   3.826  1.9221 -0.8494 -0.6672
  317SOL    MW4 1042   1.229   1.852   3.758 -0.0058  0.5037 -0.1895
  318SOL     OW 1043   1.037   5.921   3.806 -0.0479 -0.4067  0.0525
  318SOL    HW2 1044   1.119   5.873   3.820  0.4498  0.6497  0.8735
  318SOL    HW3 1045   1.024   5.920   3.711  1.3839  0.1683 -0.1740
  318SOL    MW4 1046   1.046   5.914   3.795  0.2067 -0.1915  0.1309
  319SOL     OW 1047   0.643   3.667   2.335  0.2769 -0.2523 -0.1026
  319SOL    HW2 1048   0.600   3.615   2.267  0.2541 -1.5815  0.8936
  319SOL    HW3 1049   0.659   3.605   2.406  1.0778  0.9145  0.7665
  319SOL    MW4 1050   0.639   3.652   2.336  0.3795 -0.2737  0.1435
  320SOL     OW 1051   5.840   4.450   0.990  0.5118 -0.0872 -0.1287
  320SOL    HW2 1052   5.875   4.361   0.992  0.4165 -0.1166  1.6663
  320SOL    HW3 1053   5.774   4.452   1.059 -0.7430  0.9059 -1.2866
  320SOL    MW4 1054   5.836   4.438   0.999  0.3336  0.0400 -0.0447
  321SOL     OW 1055   3.006   0.022   1.940 -0.0108  0.4877  0.1386
  321SOL    HW2 1056   3.090   0.028   1.986  0.6943  0.6123 -1.1285
  321SOL    HW3 1057   2.972   0.111   1.941 -0.2878  0.3824  0.9184
  321SOL    MW4 1058   3.012   0.034   1.947  0.0457  0.4903  0.0743
  322SOL     OW 1059   0.069   4.551   1.028 -0.0072  0.0038  0.2216
  322SOL    HW2 1060   0.054   4.642   1.000  0.0004 -0.0283  0.1121
  322SOL    HW3 1061   0.003   4.500   0.979 -0.6125  0.0592  0.9669
  322SOL    MW4 1062   0.058   4.556   1.018 -0.0860  0.0069  0.3055
  323SOL     OW 1063   0.217   6.177   3.575 -0.3498 -0.3825  0.2809
  323SOL    HW2 1064   0.230   6.219   3.490 -4.7581  0.0142 -0.4403
  323SOL    HW3 1065   0.226   6.083   3.557  1.0171 -0.2040 -0.0530
  323SOL    MW4 1066   0.220   6.170   3.562 -0.7510 -0.3066  0.1417
  324SOL     OW 1067   0.251   0.206   4.676  0.1622 -0.5064  0.0937
  324SOL    HW2 1068   0.191   0.181   4.606  1.6841 -2.4128 -0.6184
  324SOL    HW3 1069   0.287   0.291   4.649 -0.3891 -0.5090 -0.6700
  324SOL    MW4 1070   0.248   0.214   4.663  0.2903 -0.7583 -0.1010
  325SOL     OW 1071   2.709   3.634   4.899 -0.7890  0.7319 -0.2414
  325SOL    HW2 1072   2.798   3.624   4.934 -0.9794  0.3468  0.1340
  325SOL    HW3 1073   2.671   3.704   4.952 -0.6959  0.9286 -0.4322
  325SOL    MW4 1074   2.716   3.642   4.911 -0.8018  0.7070 -0.2170
  326SOL     OW 1075   5.419   0.789   2.698 -0.1996  0.5287 -0.0599
  326SOL    HW2 1076   5.507   0.776   2.732 -0.1089  0.3032 -0.3708
  326SOL    HW3 1077   5.421   0.749   2.611 -1.1311 -1.1660  0.6426
  326SOL    MW4 1078   5.431   0.782   2.691 -0.3105  0.2754 -0.0083
  327SOL     OW 1079   2.478   1.123   3.713 -0.4819  0.2955  0.0533
  327SOL    HW2 1080   2.506   1.190   3.774 -0.7792 -0.6605  1.2779
  327SOL    HW3 1081   2.436   1.056   3.768 -0.2682 -0.8493 -1.1271
  327SOL    MW4 1082   2.476   1.123   3.728 -0.4930  0.0183  0.0591
  328SOL     OW 1083   0.131   2.016   5.589 -0.0185 -0.0723  0.3965
  328SOL    HW2 1084   0.191   2.013   5.663  2.3869  0.1831 -1.4112
  328SOL    HW3 1085   0.117   2.109   5.572  1.3864 -0.0462 -0.8537
  328SOL    MW4 1086   0.137   2.028   5.597  0.4842 -0.0351 -0.0069
  329SOL     OW 1087   1.017   0.264   3.253  0.1121  0.0502  0.3568
  329SOL    HW2 1088   0.956   0.329   3.218 -0.6113  0.5340  2.3577
  329SOL    HW3 1089   1.101   0.310   3.256 -0.0556  0.3643  0.2813
  329SOL    MW4 1090   1.020   0.279   3.249 -0.0055  0.1554  0.6108
  330SOL     OW 1091   6.307   3.957   3.817 -0.6337 -0.3560  0.8846
  330SOL    HW2 1092   6.244   3.962   3.889 -0.1032  1.0378  1.2701
  330SOL    HW3 1093   6.393   3.954   3.859 -0.2955  0.9969  0.3242
  330SOL    MW4 1094   6.310   3.957   3.832 -0.5191  0.0064  0.8615
  331SOL     OW 1095   5.336   3.101   5.139 -0.0950  0.0270 -0.3899
  331SOL    HW2 1096   5.298   3.063   5.059 -0.5101  0.3431 -0.3441
  331SOL    HW3 1097   5.430   3.102   5.122 -0.1281 -0.4845 -0.6280
  331SOL    MW4 1098   5.343   3.096   5.126 -0.1542  0.0012 -0.4152
  332SOL     OW 1099   6.374   0.674   0.190  0.0532 -0.0687  0.0567
  332SOL    HW2 1100   6.334   0.691   0.275 -2.0263  0.0246 -0.8968
  332SOL    HW3 1101   6.361   0.755   0.140 -0.6869 -0.8496 -1.0606
  332SOL    MW4 1102   6.367   0.687   0.195 -0.3188 -0.1594 -0.2165
  333SOL     OW 1103   1.908   3.539   0.859  0.1442 -0.3183  0.1551
  333SOL    HW2 1104   1.917   3.634   0.850  2.0378 -0.6267 -2.3885
  333SOL    HW3 1105   1.998   3.509   0.875 -0.4418 -1.7184  0.9488
  333SOL    MW4 1106   1.921   3.548   0.860  0.3167 -0.5437 -0.0758
  334SOL     OW 1107   3.296   6.390   2.681 -0.2362 -0.2226  0.0117
  334SOL    HW2 1108   3.380   6.434   2.679 -0.7652  0.8698 -2.4844
  334SOL    HW3 1109   3.237   6.447   2.631 -2.0989 -1.6405  0.4337
  334SOL    MW4 1110   3.299   6.403   2.674 -0.5517 -0.2655 -0.2620
  335SOL     OW 1111   6.042   2.492   0.982 -0.1419  0.1085 -0.6517
  335SOL    HW2 1112   5.979   2.544   0.934 -0.5405  1.4882  1.2472
  335SOL    HW3 1113   5.993   2.455   1.056  0.5459 -1.5197 -0.9541
  335SOL    MW4 1114   6.028   2.494   0.986 -0.1038  0.0757 -0.4410
  336SOL     OW 1115   4.901   4.668   3.567  0.0215  0.5818  0.8767
  336SOL    HW2 1116   4.857   4.607   3.507 -0.1277  1.2439  0.2966
  336SOL    HW3 1117   4.860   4.651   3.652 -1.0347  0.8409  0.4455
  336SOL    MW4 1118   4.890   4.658   3.570 -0.1375  0.7033  0.7433
  337SOL     OW 1119   4.474   2.394   4.791 -0.2424  0.5267 -0.0358
  337SOL    HW2 1120   4.380   2.381   4.805 -0.0786 -0.1967  0.4441
  337SOL    HW3 1121   4.505   2.432   4.872  0.1637 -0.7783  0.4377
  337SOL    MW4 1122   4.465   2.397   4.803 -0.1672  0.2591  0.0900
  338SOL     OW 1123   2.015   1.483   5.623 -0.1641  0.5337 -0.5499
  338SOL    HW2 1124   2.087   1.546   5.630  0.2656 -0.0584  0.8469
  338SOL    HW3 1125   1.950   1.513   5.686  0.1195 -0.4675  0.2625
  338SOL    MW4 1126   2.016   1.495   5.632 -0.0700  0.3235 -0.2584
  339SOL     OW 1127   1.777   2.306   3.040 -0.1133 -0.2761 -0.3699
  339SOL    HW2 1128   1.719   2.383   3.045  0.0706  0.0944 -2.7001
  339SOL    HW3 1129   1.865   2.344   3.027  0.2600 -0.8803  0.3276
  339SOL    MW4 1130   1.781   2.321   3.039 -0.0398 -0.3069 -0.5853
  340SOL     OW 1131   5.322   5.322   3.306  0.1224 -0.2996 -0.3803
  340SOL    HW2 1132   5.359   5.336   3.393 -2.6038 -0.1018  0.8549
  340SOL    HW3 1133   5.290   5.231   3.309 -0.9039  0.0356 -0.7580
  340SOL    MW4 1134   5.322   5.312   3.318 -0.3727 -0.2292 -0.2672
  341SOL     OW 1135   5.204   4.869   3.071 -0.1864 -0.4338  0.3412
  341SOL    HW2 1136   5.298   4.850   3.067  0.4925  2.4934 -0.6844
  341SOL    HW3 1137   5.184   4.905   2.984 -2.4405 -1.5826  0.3193
  341SOL    MW4 1138   5.214   4.871   3.059 -0.3942 -0.1991  0.2030
  342SOL     OW 1139   3.834   1.955   1.567  0.0010  0.1642 -0.1478
  342SOL    HW2 1140   3.753   1.919   1.531  0.5324  0.7179 -1.9867
  342SOL    HW3 1141   3.828   2.049   1.549  0.9770  0.2308 -0.1462
  342SOL    MW4 1142   3.822   1.962   1.560  0.1999  0.2461 -0.3902
  343SOL     OW 1143   5.328   3.778   1.762 -0.1769 -0.2417  0.0286
  343SOL    HW2 1144   5.356   3.757   1.851  1.6053  2.3016  0.1646
  343SOL    HW3 1145   5.347   3.699   1.712 -1.5370 -1.8643  1.8913
  343SOL    MW4 1146   5.334   3.765   1.767 -0.1212 -0.1202  0.2923
  344SOL     OW 1147   0.384   0.044   5.506 -0.3724  0.1072  0.3978
  344SOL    HW2 1148   0.342  -0.041   5.522 -2.7714  0.8334 -1.4547
  344SOL    HW3 1149   0.358   0.098   5.581 -0.3650 -0.2735  0.6739
  344SOL    MW4 1150   0.375   0.040   5.518 -0.6880  0.1528  0.1898
  345SOL     OW 1151   1.683   3.423   2.511  0.6310 -0.2519  0.0123
  345SOL    HW2 1152   1.757   3.369   2.483  0.2639 -0.2584 -0.9822
  345SOL    HW3 1153   1.724   3.498   2.555  1.1661 -0.9814  0.7745
  345SOL    MW4 1154   1.699   3.426   2.513  0.6532 -0.3490 -0.0184
  346SOL     OW 1155   5.245   4.146   5.712  0.0798 -0.0134  1.0242
  346SOL    HW2 1156   5.276   4.090   5.640  0.2210  1.9520 -0.5068
  346SOL    HW3 1157   5.234   4.085   5.786 -0.7807 -2.2470 -0.8105
  346SOL    MW4 1158   5.248   4.130   5.712 -0.0151 -0.0488  0.5802
  347SOL     OW 1159   3.018   4.091   3.508  0.3073 -0.0597  0.2167
  347SOL    HW2 1160   2.992   4.010   3.552  2.2546 -0.2033  1.1840
  347SOL    HW3 1161   2.972   4.089   3.424 -1.6108 -0.9466  1.2212
  347SOL    MW4 1162   3.008   4.080   3.503  0.3112 -0.1957  0.4768
  348SOL     OW 1163   5.329   6.155   6.372 -0.0654  0.8235 -0.0070
  348SOL    HW2 1164   5.381   6.099   6.429  0.1526 -1.6309 -2.4024
  348SOL    HW3 1165   5.364   6.139   6.284 -3.5048  0.6186 -1.4810
  348SOL    MW4 1166   5.341   6.146   6.368 -0.4904  0.4727 -0.5175
  349SOL     OW 1167   3.824   4.871   1.295  0.0597 -0.2081 -0.7332
  349SOL    HW2 1168   3.805   4.957   1.334  0.1352 -0.5840  0.1474
  349SOL    HW3 1169   3.750   4.816   1.321  0.4821 -0.6658 -0.4696
  349SOL    MW4 1170   3.812   4.875   1.304  0.1254 -0.3181 -0.5822
  350SOL     OW 1171   4.660   4.144   1.467 -0.1627 -0.4104  0.4933
  350SOL    HW2 1172   4.708   4.213   1.512  0.2247 -1.1704  1.2858
  350SOL    HW3 1173   4.574   4.182   1.449  0.4536  0.6918 -0.2265
  350SOL    MW4 1174   4.655   4.158   1.471 -0.0303 -0.3652  0.5029
  351SOL     OW 1175   1.178   0.064   1.735  0.6540  0.1279  0.1619
  351SOL    HW2 1176   1.252   0.064   1.675  2.9115  5.3410  2.3731
  351SOL    HW3 1177   1.217   0.060   1.822 -2.0565 -0.8869  1.4760
  351SOL    MW4 1178   1.193   0.063   1.739  0.5942  0.6818  0.6270
  352SOL     OW 1179   1.171   3.080   0.950  0.2290 -0.1714  0.2082
  352SOL    HW2 1180   1.206   3.160   0.910 -0.8702 -0.6592 -1.8595
  352SOL    HW3 1181   1.100   3.111   1.007  0.8525  0.4167  0.6908
  352SOL    MW4 1182   1.167   3.095   0.953  0.1662 -0.1582 -0.0009
  353SOL     OW 1183   2.050   0.881   4.412  0.1959  0.2105 -0.0223
  353SOL    HW2 1184   2.053   0.785   4.407  0.5539  0.1863  0.4893
  353SOL    HW3 1185   2.112   0.910   4.345  0.7057  0.0583  0.3744
  353SOL    MW4 1186   2.059   0.872   4.403  0.3104  0.1872  0.0975
  354SOL     OW 1187   4.889   5.346   1.493  0.0354  0.2132  0.2518
  354SOL    HW2 1188   4.808   5.344   1.543 -0.5275  2.6254 -0.4247
  354SOL    HW3 1189   4.864   5.319   1.404  0.2605 -0.3043  0.3392
  354SOL    MW4 1190   4.875   5.342   1.488 -0.0092  0.4632  0.1741
  355SOL     OW 1191   1.384   3.045   5.091  0.2932  0.4903 -0.5534
  355SOL    HW2 1192   1.476   3.021   5.078  0.0159 -0.9176 -0.0443
  355SOL    HW3 1193   1.335   2.981   5.041 -0.5593 -1.7523  2.7997
  355SOL    MW4 1194   1.390   3.034   5.083  0.1441  0.0087 -0.0438
  356SOL     OW 1195   5.107   3.128   3.585 -0.1283  0.8716  0.2536
  356SOL    HW2 1196   5.077   3.168   3.667 -0.9436  0.0622  0.3712
  356SOL    HW3 1197   5.131   3.202   3.530  0.7018  1.4269  1.3103
  356SOL    MW4 1198   5.106   3.143   3.589 -0.1264  0.8381  0.4085
  357SOL     OW 1199   0.161   2.924   1.999  0.2539 -0.2335  0.4835
  357SOL    HW2 1200   0.198   2.846   1.957  1.1087  1.0640 -1.2876
  357SOL    HW3 1201   0.146   2.986   1.927  2.1282  2.2439  2.0648
  357SOL    MW4 1202   0.164   2.922   1.984  0.6139  0.2646  0.4584
  358SOL     OW 1203   4.670   5.010   5.787 -0.5101  0.0463 -0.0659
  358SOL    HW2 1204   4.642   5.101   5.784  0.2908  0.3014 -0.2032
  358SOL    HW3 1205   4.597   4.960   5.751 -1.9902  0.3659  2.2863
  358SOL    MW4 1206   4.657   5.015   5.782 -0.5997  0.1221  0.2263
  359SOL     OW 1207   0.057   4.654   1.285  0.5532  0.4090  0.0969
  359SOL    HW2 1208   0.060   4.748   1.272 -1.6441  0.3108 -1.5758
  359SOL    HW3 1209   0.070   4.617   1.198 -1.4773 -0.7214  0.2258
  359SOL    MW4 1210   0.059   4.661   1.272 -0.0046  0.2469 -0.1068
  360SOL     OW 1211   0.528   1.328   0.487 -0.0147 -0.0385 -0.3662
  360SOL    HW2 1212   0.433   1.329   0.497  0.0811 -0.4933  0.6730
  360SOL    HW3 1213   0.550   1.412   0.447 -0.9158 -0.2096 -1.2446
  360SOL    MW4 1214   0.519   1.339   0.483 -0.1210 -0.1210 -0.3450
  361SOL     OW 1215   3.908   2.187   4.493  0.2421  0.3393 -0.3176
  361SOL    HW2 1216   3.896   2.280   4.475  1.6176  0.7240  0.6408
  361SOL    HW3 1217   3.983   2.183   4.552 -1.0723 -1.2197  1.3422
  361SOL    MW4 1218   3.916   2.199   4.498  0.2502  0.1844  0.0278
  362SOL     OW 1219   0.205   0.021   5.285 -0.2953  0.2878 -0.4358
  362SOL    HW2 1220   0.119   0.004   5.324 -1.3858  5.3119 -0.0111
  362SOL    HW3 1221   0.265   0.025   5.360 -0.3690  0.1681 -0.3694
  362SOL    MW4 1222   0.202   0.019   5.300 -0.4489  0.9349 -0.3710
  363SOL     OW 1223   5.102   2.239   3.085 -0.0750 -0.4536  0.4877
  363SOL    HW2 1224   5.010   2.241   3.114 -0.5432 -1.7433 -0.7929
  363SOL    HW3 1225   5.141   2.317   3.125 -1.4925 -0.3603  1.8080
  363SOL    MW4 1226   5.095   2.250   3.094 -0.3238 -0.6114  0.4929
  364SOL     OW 1227   3.283   0.931   5.281  0.3606 -0.0503  0.1085
  364SOL    HW2 1228   3.205   0.893   5.242  0.1088  0.0792  0.4786
  364SOL    HW3 1229   3.349   0.862   5.277  0.4792  0.1069 -0.9545
  364SOL    MW4 1230   3.282   0.917   5.276  0.3430 -0.0125  0.0171
  365SOL     OW 1231   4.540   2.927   1.687  0.1062  0.2771 -0.2274
  365SOL    HW2 1232   4.517   2.892   1.773 -0.8127  1.0721 -0.1266
  365SOL    HW3 1233   4.615   2.984   1.702 -0.1810  0.5764  0.0935
  365SOL    MW4 1234   4.547   2.930   1.700 -0.0529  0.4215 -0.1717
  366SOL     OW 1235   5.082   0.098   5.205  0.1422  0.2708  0.8656
  366SOL    HW2 1236   5.090   0.125   5.296 -2.2391  2.2677  0.6100
  366SOL    HW3 1237   5.078   0.180   5.156 -2.4890 -0.5777 -0.5697
  366SOL    MW4 1238   5.083   0.112   5.210 -0.5191  0.4223  0.6425
  367SOL     OW 1239   5.766   5.367   3.378  0.2962 -0.4630  0.4412
  367SOL    HW2 1240   5.742   5.449   3.422  1.4614  0.1236  0.0322
  367SOL    HW3 1241   5.694   5.351   3.317  0.2684  0.5085  0.2047
  367SOL    MW4 1242   5.753   5.376   3.376  0.4463 -0.2575  0.3560
  368SOL     OW 1243   3.019   3.037   1.688  0.2760  0.0369  0.1028
  368SOL    HW2 1244   2.925   3.033   1.670  0.7093 -0.6856 -2.4909
  368SOL    HW3 1245   3.045   3.125   1.661  0.2909  0.3984  1.2597
  368SOL    MW4 1246   3.010   3.048   1.682  0.3351 -0.0107 -0.0868
  369SOL     OW 1247   1.950   2.998   4.053  0.1009  0.3934 -0.6039
  369SOL    HW2 1248   1.977   3.067   4.113  0.2310  0.4971 -0.7841
  369SOL    HW3 1249   2.025   2.984   3.996  0.3586 -0.4095 -0.1034
  369SOL    MW4 1250   1.963   3.005   4.054  0.1521  0.3012 -0.5616
  370SOL     OW 1251   5.848   5.420   0.066 -0.3562  0.0144  0.3446
  370SOL    HW2 1252   5.887   5.442  -0.019 -0.6783  1.0548  0.4530
  370SOL    HW3 1253   5.758   5.452   0.060 -0.0879  1.0497  1.4326
  370SOL    MW4 1254   5.841   5.428   0.054 -0.3633  0.2883  0.5025
  371SOL     OW 1255   0.319   3.667   2.261  0.4582 -0.0557  0.0565
  371SOL    HW2 1256   0.245   3.667   2.322  0.6176  0.6844  0.2573
  371SOL    HW3 1257   0.278   3.658   2.175  0.1563 -0.0302  0.1940
  371SOL    MW4 1258   0.304   3.666   2.258  0.4394  0.0453  0.1011
  372SOL     OW 1259   4.095   4.900   0.670 -0.0622  0.0855 -0.4178
  372SOL    HW2 1260   4.095   4.938   0.758  2.5480  0.4897 -0.5114
  372SOL    HW3 1261   4.075   4.807   0.684 -2.3903  0.6160  0.2442
  372SOL    MW4 1262   4.092   4.893   0.684 -0.0250  0.2088 -0.3428
  373SOL     OW 1263   2.904   6.395   1.080  0.0164 -0.2863  0.8344
  373SOL    HW2 1264   2.974   6.419   1.141  0.1170  0.0581  0.5859
  373SOL    HW3 1265   2.930   6.309   1.047 -0.7263 -1.1098  2.2883
  373SOL    MW4 1266   2.917   6.387   1.084 -0.0683 -0.3495  0.9934
  374SOL     OW 1267   2.203   0.698   4.151  0.2821 -0.1252  0.0389
  374SOL    HW2 1268   2.243   0.784   4.163 -1.6560  0.6336  1.5168
  374SOL    HW3 1269   2.180   0.670   4.239 -0.1901 -1.6375 -0.5424
  374SOL    MW4 1270   2.205   0.706   4.164 -0.0359 -0.2246  0.1572
  375SOL     OW 1271   1.941   6.034   6.033  0.0007 -0.5801  0.0107
  375SOL    HW2 1272   1.854   6.017   6.067  0.1952 -3.0815 -0.5386
  375SOL    HW3 1273   1.977   6.101   6.091 -2.1633  0.2881  0.4113
  375SOL    MW4 1274   1.934   6.040   6.045 -0.2591 -0.7956 -0.0089
  376SOL     OW 1275   2.877   0.255   0.573 -0.0563 -0.0950  0.2973
  376SOL    HW2 1276   2.809   0.290   0.629 -0.1294  0.1256  0.0720
  376SOL    HW3 1277   2.855   0.163   0.563  0.6225 -0.4361  1.6105
  376SOL    MW4 1278   2.865   0.247   0.579  0.0236 -0.1109  0.4408
  377SOL     OW 1279   5.866   5.229   6.130 -0.3572 -0.1277  0.4542
  377SOL    HW2 1280   5.909   5.149   6.101 -2.5867 -0.3508 -2.7174
  377SOL    HW3 1281   5.803   5.200   6.196  0.5340 -0.5709  1.1326
  377SOL    MW4 1282   5.863   5.215   6.135 -0.5338 -0.2156  0.1253
  378SOL     OW 1283   5.618   3.915   5.815  0.8872 -0.4130 -0.0807
  378SOL    HW2 1284   5.558   3.902   5.888  1.5557  1.9451  0.9854
  378SOL    HW3 1285   5.588   3.854   5.748 -1.8208 -0.3197  0.9194
  378SOL    MW4 1286   5.606   3.906   5.816  0.6182 -0.0896  0.1919
  379SOL     OW 1287   0.515   2.678   6.320 -0.9490 -0.1003 -0.2139
  379SOL    HW2 1288   0.458   2.663   6.245 -0.2059  1.0488 -1.0365
  379SOL    HW3 1289   0.494   2.606   6.380 -1.3059 -1.2564 -1.6519
  379SOL    MW4 1290   0.505   2.666   6.318 -0.8980 -0.1012 -0.5122
  380SOL     OW 1291   3.784   6.283   5.694  0.0210  0.1275  0.2640
  380SOL    HW2 1292   3.752   6.308   5.607  0.9127  0.8441  0.1194
  380SOL    HW3 1293   3.873   6.319   5.698  0.3982 -0.8312  1.0634
  380SOL    MW4 1294   3.792   6.291   5.683  0.1884  0.0956  0.3504
  381SOL     OW 1295   1.336   5.386   1.771 -0.1740  0.1676 -0.2585
  381SOL    HW2 1296   1.379   5.398   1.856  0.3444 -0.4782 -0.4187
  381SOL    HW3 1297   1.380   5.449   1.713  1.4128 -1.2819 -0.7070
  381SOL    MW4 1298   1.348   5.396   1.775  0.1037 -0.1088 -0.3388
  382SOL     OW 1299   0.594   5.622   3.831  0.1278 -0.0428  0.2268
  382SOL    HW2 1300   0.619   5.532   3.850 -0.0850  0.0656  1.0516
  382SOL    HW3 1301   0.517   5.614   3.775  0.1348 -0.3732  0.2637
  382SOL    MW4 1302   0.587   5.609   3.826  0.1007 -0.0721  0.3405
  383SOL     OW 1303   2.976   2.403   1.469  0.3072 -0.1885 -0.3454
  383SOL    HW2 1304   3.000   2.344   1.397  1.5199 -0.4786  0.2663
  383SOL    HW3 1305   3.029   2.482   1.455  1.4900 -0.7144  0.8492
  383SOL    MW4 1306   2.986   2.405   1.458  0.6232 -0.2961 -0.1071
  384SOL     OW 1307   5.510   0.612   1.326  0.3848  0.3275 -0.6856
  384SOL    HW2 1308   5.603   0.603   1.305  0.0868 -1.6990 -1.3435
  384SOL    HW3 1309   5.498   0.706   1.341  1.9025  1.1004 -3.5948
  384SOL    MW4 1310   5.520   0.623   1.325  0.5457  0.1621 -1.1563
  385SOL     OW 1311   0.916   5.495   0.360 -0.1386  0.1266 -0.1043
  385SOL    HW2 1312   0.915   5.540   0.444 -0.9656  0.3010 -0.2064
  385SOL    HW3 1313   0.834   5.445   0.357  0.3616 -0.7088 -0.3614
  385SOL    MW4 1314   0.905   5.494   0.371 -0.1817  0.0394 -0.1517
  386SOL     OW 1315   3.023   4.928   6.302 -0.0934 -0.6212 -0.1081
  386SOL    HW2 1316   3.028   4.903   6.209 -1.7863 -0.7820 -0.1776
  386SOL    HW3 1317   2.969   4.860   6.342  0.0986 -0.2018  0.8883
  386SOL    MW4 1318   3.017   4.916   6.295 -0.2914 -0.5871  0.0142
  387SOL     OW 1319   4.290   5.188   0.162 -0.0721 -0.3154  0.2195
  387SOL    HW2 1320   4.358   5.171   0.097 -0.5986 -0.5229 -0.2841
  387SOL    HW3 1321   4.300   5.119   0.227 -0.6964 -1.1925 -0.5925
  387SOL    MW4 1322   4.300   5.177   0.162 -0.2239 -0.4585  0.0459
  388SOL     OW 1323   5.586   5.535   0.051  0.0115  0.4062  0.1869
  388SOL    HW2 1324   5.620   5.624   0.057  0.2696  0.2780  0.7213
  388SOL    HW3 1325   5.518   5.539  -0.016  0.4005  0.8827 -0.1845
  388SOL    MW4 1326   5.582   5.547   0.043  0.0969  0.4522  0.2084
  389SOL     OW 1327   5.259   0.743   4.688  0.0837 -0.5936 -0.6796
  389SOL    HW2 1328   5.354   0.740   4.699  0.0054  0.0968  0.2852
  389SOL    HW3 1329   5.234   0.651   4.679  0.4147 -1.2591  3.2992
  389SOL    MW4 1330   5.268   0.730   4.688  0.1171 -0.5903 -0.0274
  390SOL     OW 1331   1.632   3.306   3.196  0.0178 -0.3239 -0.1061
  390SOL    HW2 1332   1.667   3.270   3.114  1.9069 -1.2236  1.0023
  390SOL    HW3 1333   1.571   3.239   3.227  0.9934 -1.0683  0.2831
  390SOL    MW4 1334   1.629   3.292   3.189  0.3958 -0.5408  0.0915
  391SOL     OW 1335   2.431   0.755   1.807 -0.5353  0.2957  0.2643
  391SOL    HW2 1336   2.511   0.724   1.764  0.2541  0.8560  1.2886
  391SOL    HW3 1337   2.387   0.809   1.741  0.6190  1.0864  0.1162
  391SOL    MW4 1338   2.436   0.758   1.793 -0.2789  0.4739  0.3799
  392SOL     OW 1339   1.659   1.212   3.315 -0.3189 -0.6538 -0.3332
  392SOL    HW2 1340   1.609   1.279   3.268 -2.8266 -1.0623  1.5385
  392SOL    HW3 1341   1.716   1.261   3.374 -1.5812 -0.1273  0.4820
  392SOL    MW4 1342   1.660   1.227   3.317 -0.8163 -0.6382  0.0213
  393SOL     OW 1343   3.890   5.576   0.427  0.2723 -0.1730  0.1263
  393SOL    HW2 1344   3.902   5.595   0.520 -0.3287  1.2439 -0.0694
  393SOL    HW3 1345   3.830   5.501   0.425 -0.5506  0.4553  0.8641
  393SOL    MW4 1346   3.884   5.568   0.439  0.0844  0.0968  0.1978
  394SOL     OW 1347   3.226   3.346   5.520  0.5506  0.3553  0.3987
  394SOL    HW2 1348   3.183   3.392   5.592  0.6351 -0.1715  0.7895
  394SOL    HW3 1349   3.188   3.259   5.521  1.1647  0.0836  0.3332
  394SOL    MW4 1350   3.215   3.341   5.529  0.6427  0.2500  0.4416
  395SOL     OW 1351   3.541   1.247   5.894 -0.1136 -0.7307  0.3122
  395SOL    HW2 1352   3.608   1.223   5.831  0.2223 -0.5524  0.6008
  395SOL    HW3 1353   3.465   1.193   5.870 -0.4682  0.3458 -1.1488
  395SOL    MW4 1354   3.539   1.237   5.883 -0.1160 -0.5652  0.1575
  396SOL     OW 1355   5.984   1.138   5.336 -0.1256  0.6231  0.1996
  396SOL    HW2 1356   6.061   1.189   5.310  1.0267 -2.4523 -3.2799
  396SOL    HW3 1357   5.910   1.191   5.309  0.8799  1.8319 -0.2886
  396SOL    MW4 1358   5.985   1.152   5.329  0.1591  0.3768 -0.3239
  397SOL     OW 1359   5.484   1.129   3.187 -0.2446 -0.5939 -0.0508
  397SOL    HW2 1360   5.439   1.080   3.118 -0.0424 -0.9872  0.0902
  397SOL    HW3 1361   5.554   1.071   3.215  0.2668 -0.0458 -0.1711
  397SOL    MW4 1362   5.487   1.115   3.181 -0.1505 -0.5735 -0.0481
  398SOL     OW 1363   0.309   0.930   3.613 -0.4654 -0.3458 -0.2093
  398SOL    HW2 1364   0.285   0.915   3.521 -2.4338 -1.9493  0.4726
  398SOL    HW3 1365   0.329   0.843   3.647  0.4575  0.2513  0.8534
  398SOL    MW4 1366   0.308   0.917   3.605 -0.6033 -0.4786  0.0208
  399SOL     OW 1367   2.527   3.621   5.417 -0.1502 -0.1375  0.1021
  399SOL    HW2 1368   2.489   3.623   5.330 -0.3996 -1.3855  0.1626
  399SOL    HW3 1369   2.461   3.579   5.472  0.6038 -0.7556  0.5721
  399SOL    MW4 1370   2.513   3.616   5.413 -0.0836 -0.3837  0.1721
  400SOL     OW 1371   1.969   2.517   0.862 -0.5017 -0.2923  0.4606
  400SOL    HW2 1372   1.981   2.603   0.822  2.1963  0.5856  2.8436
  400SOL    HW3 1373   1.944   2.460   0.789  0.4593  1.9119 -1.7303
  400SOL    MW4 1374   1.968   2.520   0.847 -0.0189  0.1143  0.4860
  401SOL     OW 1375   0.679   2.233   1.712  0.1135  0.5802  0.2527
  401SOL    HW2 1376   0.657   2.241   1.619  0.6601 -0.4588  0.0257
  401SOL    HW3 1377   0.774   2.241   1.715  0.2676 -1.0976  0.5145
  401SOL    MW4 1378   0.688   2.235   1.700  0.2060  0.2217  0.2573
  402SOL     OW 1379   1.870   1.892   1.142 -0.3972  0.2996  0.1795
  402SOL    HW2 1380   1.875   1.939   1.225 -0.4893 -1.2185  1.0857
  402SOL    HW3 1381   1.846   1.959   1.078 -2.5006  1.1578  1.7431
  402SOL    MW4 1382   1.867   1.907   1.144 -0.6868  0.2125  0.5054
  403SOL     OW 1383   2.513   3.100   4.958  0.1296  0.5876 -0.7037
  403SOL    HW2 1384   2.486   3.025   4.905 -0.0325  1.0963 -1.3511
  403SOL    HW3 1385   2.575   3.147   4.903  2.6768 -0.6974  0.8328
  403SOL    MW4 1386   2.518   3.096   4.944  0.4443  0.4852 -0.5864
  404SOL     OW 1387   6.088   5.321   5.354 -0.5936 -0.0164 -0.2563
  404SOL    HW2 1388   6.017   5.264   5.326  0.2431 -1.0561 -0.2961
  404SOL    HW3 1389   6.064   5.407   5.320 -0.5780 -0.8421 -2.4931
  404SOL    MW4 1390   6.075   5.325   5.346 -0.4812 -0.2625 -0.5567
  405SOL     OW 1391   3.049   1.637   1.643  0.6025 -0.0283 -0.4190
  405SOL    HW2 1392   3.052   1.687   1.561  2.1576  1.1843  0.3109
  405SOL    HW3 1393   3.048   1.546   1.616  1.5095  0.3378 -1.7980
  405SOL    MW4 1394   3.049   1.632   1.629  0.9273  0.1800 -0.5047
  406SOL     OW 1395   3.825   2.692   3.301  0.4311  0.3673 -0.0430
  406SOL    HW2 1396   3.916   2.699   3.331  0.1619  1.3891  0.6091
  406SOL    HW3 1397   3.791   2.781   3.310 -0.9079 -0.1850  0.6147
  406SOL    MW4 1398   3.833   2.705   3.307  0.2189  0.4292  0.1298
  407SOL     OW 1399   0.222   1.319   0.493 -0.8195 -0.0771 -0.4957
  407SOL    HW2 1400   0.201   1.365   0.575 -0.0149 -0.1734 -0.2222
  407SOL    HW3 1401   0.140   1.279   0.466 -1.3714  0.9472 -0.3672
  407SOL    MW4 1402   0.208   1.320   0.500 -0.7862  0.0453 -0.4426
  408SOL     OW 1403   1.016   4.906   0.209 -0.6954 -0.1781 -0.5326
  408SOL    HW2 1404   0.988   4.988   0.249 -0.1500 -0.4382  0.4020
  408SOL    HW3 1405   1.067   4.934   0.133  0.0692  0.3813  0.1667
  408SOL    MW4 1406   1.019   4.920   0.204 -0.5226 -0.1386 -0.3170
  409SOL     OW 1407   3.373   6.181   4.863  0.0731 -0.1688  0.0721
  409SOL    HW2 1408   3.279   6.192   4.876 -0.4808 -3.1924 -0.5765
  409SOL    HW3 1409   3.387   6.199   4.770 -0.0160 -0.3750  0.0169
  409SOL    MW4 1410   3.363   6.185   4.852 -0.0117 -0.5949 -0.0208
  410SOL     OW 1411   6.094   2.323   1.546  0.8485  0.2544 -0.7679
  410SOL    HW2 1412   6.125   2.340   1.635 -0.9952 -1.6207  0.3192
  410SOL    HW3 1413   6.141   2.243   1.520  1.0009  0.5107 -1.2811
  410SOL    MW4 1414   6.105   2.314   1.554  0.6253  0.0408 -0.6921
  411SOL     OW 1415   5.393   5.720   1.511 -0.3096 -0.8242 -0.1057
  411SOL    HW2 1416   5.398   5.711   1.606 -1.0571 -0.5410 -0.0366
  411SOL    HW3 1417   5.485   5.721   1.483  0.1206  2.2916  0.9348
  411SOL    MW4 1418   5.406   5.719   1.520 -0.3514 -0.3757  0.0407
  412SOL     OW 1419   4.021   4.313   5.455  0.1069  0.1301  0.6248
  412SOL    HW2 1420   4.048   4.241   5.513  1.4009 -0.3279 -0.4870
  412SOL    HW3 1421   4.101   4.335   5.406 -0.6357  1.3667 -0.0720
  412SOL    MW4 1422   4.035   4.306   5.456  0.1797  0.2328  0.3862
  413SOL     OW 1423   4.280   0.514   4.270  0.2536  0.1916 -0.3702
  413SOL    HW2 1424   4.245   0.563   4.345  0.8228  0.9880 -0.6127
  413SOL    HW3 1425   4.312   0.432   4.307 -0.5663  0.0574  0.0697
  413SOL    MW4 1426   4.279   0.510   4.285  0.2205  0.2790 -0.3442
  414SOL     OW 1427   0.608   2.211   1.438 -0.1192  0.1371  0.2441
  414SOL    HW2 1428   0.518   2.223   1.407 -0.9704  1.9221  3.0495
  414SOL    HW3 1429   0.636   2.128   1.400 -2.6294 -0.0613 -1.3871
  414SOL    MW4 1430   0.600   2.202   1.429 -0.5627  0.3465  0.3990
  415SOL     OW 1431   1.074   5.995   4.098  0.0054  0.1703 -0.2447
  415SOL    HW2 1432   1.159   6.040   4.100 -0.6341  1.4272  0.6200
  415SOL    HW3 1433   1.054   5.985   4.005 -0.0646  2.2197 -0.4952
  415SOL    MW4 1434   1.082   6.000   4.086 -0.0882  0.6066 -0.1636
  416SOL     OW 1435   1.960   5.697   0.640 -0.2451 -0.2422  0.6958
  416SOL    HW2 1436   1.988   5.621   0.692  0.9297 -0.5718 -0.3613
  416SOL    HW3 1437   1.995   5.772   0.688  1.4659 -0.5833  0.0712
  416SOL    MW4 1438   1.969   5.697   0.653  0.1356 -0.3307  0.4739
  417SOL     OW 1439   5.922   2.724   6.030 -0.2298 -0.8016 -0.0912
  417SOL    HW2 1440   5.893   2.810   6.001 -2.1935 -2.2271 -2.9013
  417SOL    HW3 1441   6.012   2.716   5.997  0.5868  0.6955  1.6315
  417SOL    MW4 1442   5.930   2.734   6.022 -0.3811 -0.7922 -0.2347
  418SOL     OW 1443   2.511   1.174   1.704  0.3134  0.0295  0.2306
  418SOL    HW2 1444   2.530   1.135   1.618 -0.7192 -1.9177  0.8323
  418SOL    HW3 1445   2.579   1.139   1.761  0.3053  0.3969  0.4686
  418SOL    MW4 1446   2.522   1.164   1.700  0.1761 -0.1789  0.3414
  419SOL     OW 1447   1.461   0.588   4.910  0.2054 -0.0897 -0.6636
  419SOL    HW2 1448   1.423   0.673   4.934  0.7935  0.2275 -0.8362
  419SOL    HW3 1449   1.550   0.609   4.882 -0.0713 -0.6048 -1.9743
  419SOL    MW4 1450   1.468   0.602   4.910  0.2465 -0.1158 -0.8593
  420SOL     OW 1451   3.103   4.720   3.849 -0.5649 -0.1539  0.0624
  420SOL    HW2 1452   3.183   4.667   3.851 -0.8516 -0.7714 -1.9393
  420SOL    HW3 1453   3.035   4.662   3.882 -0.3788 -0.0132  0.6963
  420SOL    MW4 1454   3.105   4.705   3.854 -0.5781 -0.2168 -0.1181
  421SOL     OW 1455   3.265   1.035   1.752 -0.2852 -0.1747  0.4773
  421SOL    HW2 1456   3.172   1.021   1.734  0.3991 -1.2345 -2.8702
  421SOL    HW3 1457   3.292   0.958   1.801 -0.8998 -0.4547  0.3812
  421SOL    MW4 1458   3.256   1.023   1.756 -0.2760 -0.3515  0.0230
  422SOL     OW 1459   4.639   0.640   2.827  0.5368 -0.4277  0.1980
  422SOL    HW2 1460   4.572   0.704   2.853  1.6768  0.2526  1.6297
  422SOL    HW3 1461   4.649   0.653   2.733 -1.2072 -0.4488 -0.0300
  422SOL    MW4 1462   4.632   0.650   2.818  0.4571 -0.3407  0.3568
  423SOL     OW 1463   1.847   0.498   3.351 -0.0833  0.3705 -0.0042
  423SOL    HW2 1464   1.920   0.457   3.305  0.1956 -0.3360  1.0478
  423SOL    HW3 1465   1.770   0.475   3.298  0.2799 -0.1068 -0.3258
  423SOL    MW4 1466   1.846   0.489   3.338  0.0014  0.2143  0.0921
  424SOL     OW 1467   4.427   4.754   6.339  0.3956  0.4425  0.1462
  424SOL    HW2 1468   4.388   4.776   6.423  0.0674  0.6846 -0.0633
  424SOL    HW3 1469   4.409   4.660   6.327 -0.4456  0.6220 -0.1043
  424SOL    MW4 1470   4.420   4.744   6.348  0.2413  0.4982  0.0855
  425SOL     OW 1471   3.679   5.392   2.370 -0.4958 -0.1968 -0.3464
  425SOL    HW2 1472   3.651   5.332   2.440  0.5379 -1.0105 -0.6117
  425SOL    HW3 1473   3.736   5.455   2.414 -0.5136 -0.2099 -0.3043
  425SOL    MW4 1474   3.683   5.392   2.385 -0.3618 -0.3059 -0.3758
  426SOL     OW 1475   5.772   4.705   2.791  0.1450 -0.0665 -0.1692
  426SOL    HW2 1476   5.801   4.615   2.806 -1.4695 -0.5950 -0.0098
  426SOL    HW3 1477   5.717   4.700   2.713 -0.5868  0.6392  0.2823
  426SOL    MW4 1478   5.769   4.693   2.782 -0.1646 -0.0431 -0.0886
  427SOL     OW 1479   0.511   3.444   5.117 -0.0333  0.1594 -0.3458
  427SOL    HW2 1480   0.519   3.349   5.119 -0.6408  0.1163  1.0375
  427SOL    HW3 1481   0.562   3.474   5.193 -0.8659  0.8327 -0.0344
  427SOL    MW4 1482   0.519   3.436   5.127 -0.2233  0.2426 -0.1222
  428SOL     OW 1483   0.144   1.248   3.141 -0.0533 -0.0126 -0.5527
  428SOL    HW2 1484   0.230   1.242   3.183 -0.4549 -1.0919  0.1441
  428SOL    HW3 1485   0.112   1.335   3.166 -0.8617 -1.0829  2.6064
  428SOL    MW4 1486   0.151   1.259   3.150 -0.2129 -0.2962 -0.0440
  429SOL     OW 1487   1.967   2.320   4.060  0.2108 -0.1070 -0.4770
  429SOL    HW2 1488   2.008   2.278   3.984  1.5445  0.0851  0.1067
  429SOL    HW3 1489   1.951   2.410   4.031  3.0658  0.7347  0.1900
  429SOL    MW4 1490   1.970   2.327   4.046  0.7635  0.0294 -0.3120
  430SOL     OW 1491   4.599   3.374   2.250  0.1472 -0.0952 -0.2252
  430SOL    HW2 1492   4.596   3.469   2.262  2.1476  0.0262 -0.5097
  430SOL    HW3 1493   4.677   3.358   2.197  1.6679 -2.1266  2.3716
  430SOL    MW4 1494   4.609   3.384   2.245  0.6118 -0.3472  0.0798
  431SOL     OW 1495   2.544   4.346   4.065  0.2571  0.3396 -0.5577
  431SOL    HW2 1496   2.633   4.315   4.081 -0.6846 -3.0351 -0.9961
  431SOL    HW3 1497   2.496   4.321   4.144 -0.4122  1.8778 -0.4427
  431SOL    MW4 1498   2.550   4.339   4.078  0.0445  0.0973 -0.6003
  432SOL     OW 1499   5.930   3.265   2.889  0.3554 -0.1742  0.0421
  432SOL    HW2 1500   5.847   3.266   2.841  0.2574 -1.4136  0.1605
  432SOL    HW3 1501   5.977   3.189   2.853  1.8027  0.9899 -0.6255
  432SOL    MW4 1502   5.925   3.255   2.878  0.5334 -0.1841 -0.0303
  433SOL     OW 1503   5.812   3.347   4.851  0.2472 -0.2110 -0.0935
  433SOL    HW2 1504   5.753   3.320   4.781 -0.3584 -0.9297  0.6615
  433SOL    HW3 1505   5.786   3.437   4.871  0.4598  0.0167 -0.8138
  433SOL    MW4 1506   5.801   3.355   4.845  0.1954 -0.2758 -0.0889
  434SOL     OW 1507   4.936   5.476   4.715 -0.6495 -0.3891  0.5931
  434SOL    HW2 1508   4.891   5.461   4.798 -1.1073  0.0597  0.4312
  434SOL    HW3 1509   4.934   5.571   4.703 -0.6689 -0.4550  0.0302
  434SOL    MW4 1510   4.930   5.487   4.724 -0.7125 -0.3386  0.4975
  435SOL     OW 1511   5.396   5.563   6.270  0.6361 -0.3271 -0.4009
  435SOL    HW2 1512   5.355   5.636   6.316  0.1914 -1.1425  0.5390
  435SOL    HW3 1513   5.336   5.489   6.283  0.8654 -0.7778 -1.6787
  435SOL    MW4 1514   5.383   5.563   6.277  0.6077 -0.4941 -0.4455
  436SOL     OW 1515   1.430   6.370   3.295 -0.2243  0.2936 -0.0624
  436SOL    HW2 1516   1.520   6.338   3.293 -0.8943 -1.8620  1.1552
  436SOL    HW3 1517   1.416   6.409   3.209  0.9868 -1.9879 -1.3820
  436SOL    MW4 1518   1.440   6.371   3.284 -0.1529 -0.2918 -0.0758
  437SOL     OW 1519   0.387   5.202   3.917 -0.0401 -0.1912 -0.0013
  437SOL    HW2 1520   0.295   5.221   3.900  0.2999 -0.2143 -2.1130
  437SOL    HW3 1521   0.414   5.269   3.980 -0.9341  1.2456 -1.0912
  437SOL    MW4 1522   0.378   5.214   3.923 -0.1132 -0.0046 -0.4237
  438SOL     OW 1523   5.402   0.156   3.664 -0.4226 -0.3475  0.2382
  438SOL    HW2 1524   5.441   0.146   3.751 -1.0218  0.6891  0.6486
  438SOL    HW3 1525   5.316   0.115   3.672 -0.0142 -1.3126 -0.2273
  438SOL    MW4 1526   5.396   0.149   3.676 -0.4478 -0.3381  0.2309
  439SOL     OW 1527   4.731   2.709   4.817  0.0960  0.2404  0.1224
  439SOL    HW2 1528   4.694   2.735   4.902  1.1455 -0.0157  0.6708
  439SOL    HW3 1529   4.691   2.770   4.755  0.5521  1.5063  1.0327
  439SOL    MW4 1530   4.721   2.721   4.820  0.2947  0.3736  0.3148
  440SOL     OW 1531   1.567   5.660   5.352  0.1287  0.4494 -0.4035
  440SOL    HW2 1532   1.486   5.619   5.321  1.3567 -3.0602  0.6102
  440SOL    HW3 1533   1.542   5.703   5.434 -0.8595  0.1943 -0.5589
  440SOL    MW4 1534   1.553   5.661   5.358  0.1603 -0.0473 -0.2903
  441SOL     OW 1535   2.170   3.724   5.322  1.0430 -0.4315 -0.3384
  441SOL    HW2 1536   2.222   3.803   5.337 -0.1075  0.5062 -1.0411
  441SOL    HW3 1537   2.082   3.747   5.352  0.5673 -1.2550 -1.0333
  441SOL    MW4 1538   2.165   3.737   5.328  0.8284 -0.4165 -0.5228
  442SOL     OW 1539   4.931   3.985   3.913  0.3102  0.0318 -0.6575
  442SOL    HW2 1540   4.876   3.919   3.871  0.3098  0.0696 -0.7174
  442SOL    HW3 1541   4.978   3.937   3.982  0.2259 -0.0065 -0.6270
  442SOL    MW4 1542   4.930   3.970   3.916  0.2990  0.0317 -0.6614
  443SOL     OW 1543   2.354   6.034   4.935  0.0682  0.3358  0.0925
  443SOL    HW2 1544   2.306   5.992   5.006 -0.6240  0.8801 -0.0432
  443SOL    HW3 1545   2.422   5.970   4.911 -0.3915 -0.3149  0.4925
  443SOL    MW4 1546   2.357   6.020   4.941 -0.0838  0.3218  0.1274
  444SOL     OW 1547   4.163   2.909   4.122  0.0792  0.0603 -0.0158
  444SOL    HW2 1548   4.146   2.822   4.086 -1.8570  0.9041 -1.2414
  444SOL    HW3 1549   4.250   2.932   4.089  0.5271 -1.3104  0.1671
  444SOL    MW4 1550   4.173   2.901   4.113 -0.1171 -0.0092 -0.1534
  445SOL     OW 1551   3.309   1.252   1.994  0.1785  0.3091  0.2193
  445SOL    HW2 1552   3.358   1.305   1.931  2.2961 -1.3100  0.3597
  445SOL    HW3 1553   3.314   1.163   1.958 -0.4508 -0.3039  1.5751
  445SOL    MW4 1554   3.316   1.247   1.981  0.3749  0.0146  0.4167
  446SOL     OW 1555   3.955   5.701   3.418 -0.1316 -0.0917 -0.0803
  446SOL    HW2 1556   3.980   5.609   3.408  1.2895  0.2268  0.2619
  446SOL    HW3 1557   4.019   5.749   3.364 -0.4344  0.7354  0.2792
  446SOL    MW4 1558   3.967   5.695   3.409  0.0159  0.0595  0.0123
  447SOL     OW 1559   6.054   4.864   3.782 -0.4307  0.1864 -0.5983
  447SOL    HW2 1560   6.050   4.951   3.742  0.4085 -0.3810 -1.9676
  447SOL    HW3 1561   6.056   4.881   3.876 -1.4679  1.5955 -0.7938
  447SOL    MW4 1562   6.054   4.878   3.789 -0.4569  0.2974 -0.8048
  448SOL     OW 1563   0.607   2.649   3.625 -0.5402 -0.3347 -0.3818
  448SOL    HW2 1564   0.560   2.663   3.542 -0.6718 -0.4007 -0.3198
  448SOL    HW3 1565   0.551   2.588   3.674 -1.9298  1.8517  0.9463
  448SOL    MW4 1566   0.593   2.643   3.621 -0.7409 -0.0549 -0.1984
  449SOL     OW 1567   4.321   2.196   3.571  0.0053 -0.1478  0.2534
  449SOL    HW2 1568   4.278   2.136   3.510 -0.6550  0.0633  0.4920
  449SOL    HW3 1569   4.255   2.263   3.588  0.7423  0.6628 -0.0213
  449SOL    MW4 1570   4.306   2.197   3.565  0.0154 -0.0130  0.2487
  450SOL     OW 1571   2.806   3.453   1.130 -0.6135 -0.1984 -0.1429
  450SOL    HW2 1572   2.852   3.409   1.202  0.4615 -0.2867 -0.8702
  450SOL    HW3 1573   2.714   3.431   1.145 -0.4453 -0.0720  1.3013
  450SOL    MW4 1574   2.800   3.444   1.142 -0.4495 -0.1933 -0.0483
  451SOL     OW 1575   6.312   0.395   1.232  0.3394 -0.1170  0.4379
  451SOL    HW2 1576   6.314   0.307   1.268 -0.8845  0.0194  0.9043
  451SOL    HW3 1577   6.230   0.398   1.182 -0.0868  1.0296  1.1795
  451SOL    MW4 1578   6.301   0.384   1.230  0.1217  0.0523  0.5973
  452SOL     OW 1579   0.563   2.768   5.029  0.1179  0.1645  0.4612
  452SOL    HW2 1580   0.516   2.767   5.112  2.2064 -4.5097  1.8711
  452SOL    HW3 1581   0.515   2.706   4.974  0.4690  1.0043 -0.8423
  452SOL    MW4 1582   0.550   2.760   5.033  0.4398 -0.3414  0.4752
  453SOL     OW 1583   3.537   1.713   1.673  0.1352  0.3870 -0.0233
  453SOL    HW2 1584   3.613   1.736   1.727  0.5890  2.3030 -1.3908
  453SOL    HW3 1585   3.484   1.793   1.671 -2.5545 -1.1745  1.7510
  453SOL    MW4 1586   3.540   1.726   1.680 -0.1598  0.4338  0.0304
  454SOL     OW 1587   5.280   5.079   5.308  0.1604  0.0254 -0.1683
  454SOL    HW2 1588   5.319   5.166   5.318  0.2646 -0.1213  0.7279
  454SOL    HW3 1589   5.198   5.083   5.357  0.2603 -0.4393  0.0473
  454SOL    MW4 1590   5.274   5.091   5.316  0.1873 -0.0553 -0.0216
  455SOL     OW 1591   1.830   4.533   4.259  0.3306  0.6116 -0.0270
  455SOL    HW2 1592   1.892   4.524   4.331  0.0324  0.0868  0.1740
  455SOL    HW3 1593   1.760   4.471   4.280  0.5783 -0.0785 -1.1078
  455SOL    MW4 1594   1.829   4.524   4.271  0.3239  0.4513 -0.1430
  456SOL     OW 1595   2.626   2.762   1.007  0.3000 -0.8316 -0.7091
  456SOL    HW2 1596   2.539   2.763   1.048  0.1196  0.5868 -1.0690
  456SOL    HW3 1597   2.648   2.669   1.000 -0.3099 -1.1637  1.2187
  456SOL    MW4 1598   2.617   2.750   1.011  0.1957 -0.6883 -0.5022
  457SOL     OW 1599   1.996   3.652   1.305  0.5507  0.1025  0.2169
  457SOL    HW2 1600   2.059   3.638   1.376 -0.0531 -1.2738  0.5227
  457SOL    HW3 1601   1.911   3.652   1.349  0.3101  2.3067 -0.1413
  457SOL    MW4 1602   1.993   3.650   1.320  0.4393  0.2117  0.2099
  458SOL     OW 1603   5.464   3.086   1.974 -0.1425  0.0061 -0.0475
  458SOL    HW2 1604   5.404   3.136   1.919  0.3205  0.0938 -0.4824
  458SOL    HW3 1605   5.499   3.018   1.915 -1.6039 -1.5614  0.7955
  458SOL    MW4 1606   5.461   3.083   1.959 -0.2742 -0.1891  0.0063
  459SOL     OW 1607   2.797   2.476   3.842  0.1696  0.4484 -0.3747
  459SOL    HW2 1608   2.868   2.535   3.866 -0.3903  0.8255  0.3789
  459SOL    HW3 1609   2.841   2.399   3.807  0.9930  0.2723  0.9732
  459SOL    MW4 1610   2.812   2.474   3.840  0.2044  0.4749 -0.0975
  460SOL     OW 1611   1.673   2.122   4.349 -0.0316 -0.0344  0.0073
  460SOL    HW2 1612   1.692   2.106   4.442 -0.5776 -0.4111  0.0588
  460SOL    HW3 1613   1.580   2.101   4.340 -0.1126  0.5150 -0.5142
  460SOL    MW4 1614   1.663   2.117   4.360 -0.1143 -0.0116 -0.0547
  461SOL     OW 1615   2.419   6.209   6.115  0.3626  0.4738  0.2518
  461SOL    HW2 1616   2.426   6.118   6.085 -0.4232  0.3598  0.3893
  461SOL    HW3 1617   2.326   6.221   6.133  0.4684  1.3007  0.2735
  461SOL    MW4 1618   2.407   6.198   6.114  0.2729  0.5679  0.2728
  462SOL     OW 1619   0.373   4.804   2.247 -0.5872 -0.1030 -0.4815
  462SOL    HW2 1620   0.400   4.732   2.189  1.1543  0.9953 -1.1202
  462SOL    HW3 1621   0.397   4.774   2.335 -1.1014 -0.8259 -0.5745
  462SOL    MW4 1622   0.380   4.791   2.251 -0.4252 -0.0535 -0.5781
  463SOL     OW 1623   4.436   0.570   3.206  0.7911 -0.4736  0.2950
  463SOL    HW2 1624   4.457   0.663   3.196  1.9547 -0.6572  0.8439
  463SOL    HW3 1625   4.412   0.560   3.298  1.8989 -0.9128  0.5647
  463SOL    MW4 1626   4.436   0.581   3.217  1.0907 -0.5558  0.4030
  464SOL     OW 1627   5.493   5.311   3.823  0.7516 -0.3831  0.4978
  464SOL    HW2 1628   5.449   5.351   3.898  2.3802 -1.1726  1.9408
  464SOL    HW3 1629   5.525   5.227   3.856 -0.6317 -1.9325 -1.8139
  464SOL    MW4 1630   5.491   5.305   3.837  0.7839 -0.6917  0.3832
  465SOL     OW 1631   3.805   4.865   6.388 -0.0502 -0.0480  0.3679
  465SOL    HW2 1632   3.893   4.902   6.388 -0.5531  1.2357  1.0587
  465SOL    HW3 1633   3.777   4.869   6.480 -1.0860  0.2740  0.0585
  465SOL    MW4 1634   3.813   4.870   6.400 -0.2532  0.1639  0.4182
  466SOL     OW 1635   2.960   0.740   5.953  0.1305  0.1203  0.0989
  466SOL    HW2 1636   3.028   0.739   5.885  0.9695 -1.0879  0.9166
  466SOL    HW3 1637   2.976   0.822   6.000  0.3766  0.3321 -0.3398
  466SOL    MW4 1638   2.971   0.751   5.950  0.2737 -0.0111  0.1489
  467SOL     OW 1639   0.402   1.729   6.121  0.2201  0.1087  0.3802
  467SOL    HW2 1640   0.417   1.822   6.138  1.2973 -0.1986  1.3121
  467SOL    HW3 1641   0.487   1.696   6.092 -1.0873  0.2100 -4.2484
  467SOL    MW4 1642   0.415   1.737   6.120  0.1897  0.0815 -0.1076
  468SOL     OW 1643   2.193   2.805   1.511  0.1294  0.2309 -0.4394
  468SOL    HW2 1644   2.286   2.782   1.507  0.2214  0.4266  0.4613
  468SOL    HW3 1645   2.151   2.728   1.547  0.0919  0.5331  0.1708
  468SOL    MW4 1646   2.200   2.792   1.515  0.1366  0.2966 -0.2401
  469SOL     OW 1647   3.261   3.724   3.846 -0.1005  0.1055 -0.6083
  469SOL    HW2 1648   3.340   3.745   3.797 -0.6641  0.4270 -1.4247
  469SOL    HW3 1649   3.230   3.808   3.879  0.0887 -0.0661  0.0089
  469SOL    MW4 1650   3.267   3.738   3.844 -0.1499  0.1252 -0.6346
  470SOL     OW 1651   0.249   3.653   5.404  0.3022  0.1202 -0.2930
  470SOL    HW2 1652   0.185   3.634   5.473  0.6499 -1.5106 -0.3937
  470SOL    HW3 1653   0.334   3.637   5.444  0.4744 -1.9130 -1.3718
  470SOL    MW4 1654   0.252   3.649   5.418  0.3708 -0.3632 -0.4486
  471SOL     OW 1655   1.737   2.090   4.629  0.2763  0.1181  0.0650
  471SOL    HW2 1656   1.750   2.148   4.703 -0.2881 -1.0975  1.1441
  471SOL    HW3 1657   1.787   2.011   4.651 -1.9971 -1.3162  0.4389
  471SOL    MW4 1658   1.746   2.087   4.641 -0.0981 -0.2315  0.2567
  472SOL     OW 1659   1.221   6.138   0.910 -0.2216 -0.7929  0.4574
  472SOL    HW2 1660   1.176   6.123   0.993 -0.5634 -0.2656  0.3784
  472SOL    HW3 1661   1.221   6.053   0.866 -2.2341 -0.5702 -0.0720
  472SOL    MW4 1662   1.215   6.125   0.916 -0.5322 -0.6939  0.3772
  473SOL     OW 1663   2.367   5.597   3.910  0.3810 -0.4768  0.5018
  473SOL    HW2 1664   2.433   5.541   3.867  0.2448 -0.2795  0.0280
  473SOL    HW3 1665   2.375   5.575   4.003  1.9229  0.3716  0.6074
  473SOL    MW4 1666   2.377   5.586   3.916  0.5665 -0.3388  0.4533
  474SOL     OW 1667   5.302   0.287   5.823  0.6729  0.0066  0.1569
  474SOL    HW2 1668   5.279   0.273   5.915  1.6217 -2.3566  0.1091
  474SOL    HW3 1669   5.218   0.294   5.778  0.0261 -3.1107  0.6769
  474SOL    MW4 1670   5.288   0.286   5.829  0.7127 -0.7165  0.2192
  475SOL     OW 1671   5.919   1.753   5.962  0.2848 -0.2508 -0.2495
  475SOL    HW2 1672   5.845   1.732   5.905  0.3061  0.0435 -0.3866
  475SOL    HW3 1673   5.936   1.845   5.946 -1.9632  0.8647  2.7684
  475SOL    MW4 1674   5.911   1.762   5.952 -0.0090 -0.0648  0.1306
  476SOL     OW 1675   3.181   2.666   3.721 -0.1627 -0.2111  0.3065
  476SOL    HW2 1676   3.221   2.628   3.800 -2.6466 -1.6570  0.9928
  476SOL    HW3 1677   3.162   2.590   3.666 -1.4687  0.4671 -0.1960
  476SOL    MW4 1678   3.184   2.651   3.724 -0.6627 -0.3124  0.3308
  477SOL     OW 1679   1.222   6.321   0.306 -0.3668 -0.0801 -0.6756
  477SOL    HW2 1680   1.187   6.265   0.374  1.3444 -0.8737 -0.3892
  477SOL    HW3 1681   1.258   6.396   0.353 -0.2352 -0.0608 -0.8061
  477SOL    MW4 1682   1.222   6.324   0.321 -0.1237 -0.1822 -0.6550
  478SOL     OW 1683   3.529   3.801   3.741  0.0709 -0.4038  0.3294
  478SOL    HW2 1684   3.561   3.712   3.724 -0.4484 -0.4876 -0.2639
  478SOL    HW3 1685   3.547   3.849   3.661  2.1988  0.6180  1.3262
  478SOL    MW4 1686   3.536   3.796   3.728  0.2832 -0.2801  0.3826
  479SOL     OW 1687   2.105   0.633   5.063  0.1181 -0.0097 -0.1524
  479SOL    HW2 1688   2.082   0.699   4.997 -1.4245 -1.2498 -0.9455
  479SOL    HW3 1689   2.021   0.608   5.101  0.6690 -1.4290  0.1931
  479SOL    MW4 1690   2.091   0.638   5.059 -0.0127 -0.3606 -0.2114
  480SOL     OW 1691   4.150   6.343   2.598 -0.0530  0.1069  0.4169
  480SOL    HW2 1692   4.122   6.431   2.620 -1.2498 -0.3511  0.8130
  480SOL    HW3 1693   4.077   6.287   2.625  0.6855 -1.0034  0.1863
  480SOL    MW4 1694   4.137   6.347   2.604 -0.1135 -0.1000  0.4388
  481SOL     OW 1695   4.661   3.883   0.531 -0.0807 -0.2012 -0.3433
  481SOL    HW2 1696   4.694   3.973   0.525  1.6603 -0.7793  0.1235
  481SOL    HW3 1697   4.600   3.875   0.457 -1.1969  1.7011  0.2924
  481SOL    MW4 1698   4.657   3.894   0.520  0.0017 -0.0265 -0.1978
  482SOL     OW 1699   3.372   2.948   2.778  0.3261 -0.4288  0.2472
  482SOL    HW2 1700   3.293   2.980   2.735  0.7168 -0.7616 -0.7541
  482SOL    HW3 1701   3.360   2.853   2.782  0.5928 -0.4633  0.2490
  482SOL    MW4 1702   3.360   2.940   2.772  0.4128 -0.4773  0.1153
  483SOL     OW 1703   4.111   3.141   5.387 -0.0304  0.0061 -0.5096
  483SOL    HW2 1704   4.027   3.146   5.341 -0.9212  0.9689  1.1222
  483SOL    HW3 1705   4.103   3.064   5.444  0.9690 -1.0360 -1.7181
  483SOL    MW4 1706   4.099   3.131   5.389 -0.0161 -0.0044 -0.4537
  484SOL     OW 1707   0.846   6.302   4.017 -0.1263 -0.8858  0.3436
  484SOL    HW2 1708   0.825   6.210   4.036  1.5035 -1.0493  1.5053
  484SOL    HW3 1709   0.891   6.299   3.933 -2.0539 -0.8377 -0.7700
  484SOL    MW4 1710   0.849   6.289   4.008 -0.1656 -0.9010  0.3500
  485SOL     OW 1711   3.700   5.936   1.149 -0.3528 -0.5586 -0.1866
  485SOL    HW2 1712   3.636   5.974   1.089  1.0055 -0.2567 -1.5008
  485SOL    HW3 1713   3.648   5.909   1.225 -1.7364  1.5899 -0.2722
  485SOL    MW4 1714   3.685   5.937   1.151 -0.3561 -0.2353 -0.3713
  486SOL     OW 1715   2.462   1.944   6.186 -0.2433  0.1506 -0.3390
  486SOL    HW2 1716   2.403   1.895   6.128  1.7487 -2.7319 -0.1686
  486SOL    HW3 1717   2.549   1.927   6.150  0.8584  0.3217  2.0633
  486SOL    MW4 1718   2.466   1.935   6.173  0.1649 -0.2071  0.0005
  487SOL     OW 1719   0.380   4.922   3.966 -0.4360 -0.5137 -0.3077
  487SOL    HW2 1720   0.403   4.881   3.883  1.5962 -0.9616  0.3948
  487SOL    HW3 1721   0.379   5.016   3.947  0.9927 -0.5413 -0.6832
  487SOL    MW4 1722   0.383   4.929   3.953  0.0206 -0.5765 -0.2646
  488SOL     OW 1723   2.250   3.866   2.594 -0.0407 -0.1521  0.0497
  488SOL    HW2 1724   2.336   3.833   2.571  0.6699  2.0841 -0.7704
  488SOL    HW3 1725   2.243   3.950   2.548 -1.4174  1.1729  2.4691
  488SOL    MW4 1726   2.260   3.873   2.585 -0.1286  0.3178  0.2607
  489SOL     OW 1727   1.974   5.153   5.413 -0.4115 -0.0405  0.3285
  489SOL    HW2 1728   1.973   5.248   5.402  1.4906  0.0139  0.4337
  489SOL    HW3 1729   1.889   5.125   5.378  0.3709  1.3426 -3.1115
  489SOL    MW4 1730   1.962   5.162   5.407 -0.0573  0.1492 -0.1115
  490SOL     OW 1731   4.640   4.988   1.909 -0.7870 -0.5559 -0.0543
  490SOL    HW2 1732   4.649   4.998   2.004  1.0311  0.1306 -0.2647
  490SOL    HW3 1733   4.638   5.078   1.875  1.6038 -0.7400 -0.8691
  490SOL    MW4 1734   4.641   5.001   1.917 -0.2317 -0.4896 -0.1896
  491SOL     OW 1735   6.035   3.876   1.807  0.6649  0.0299 -0.6545
  491SOL    HW2 1736   6.078   3.951   1.847 -0.2314  1.3239 -2.0155
  491SOL    HW3 1737   6.107   3.821   1.776  1.3325  0.2497  0.4617
  491SOL    MW4 1738   6.050   3.878   1.808  0.6347  0.2296 -0.6868
  492SOL     OW 1739   6.378   0.233   2.232  0.0927 -1.0024  1.3094
  492SOL    HW2 1740   6.460   0.277   2.209 -0.1923 -0.8444  0.5756
  492SOL    HW3 1741   6.390   0.143   2.203 -0.7723 -0.5027 -0.8080
  492SOL    MW4 1742   6.390   0.227   2.225 -0.0590 -0.9156  0.9332
  493SOL     OW 1743   2.248   3.349   6.289  0.1797  0.1250  0.3399
  493SOL    HW2 1744   2.167   3.306   6.317  1.3942 -2.2805  0.4065
  493SOL    HW3 1745   2.274   3.402   6.364 -1.4432  1.1917  0.2063
  493SOL    MW4 1746   2.241   3.351   6.302  0.1258 -0.0516  0.3310
  494SOL     OW 1747   4.946   4.483   4.654 -0.4314  0.4309  0.1402
  494SOL    HW2 1748   4.855   4.483   4.624 -0.3491  2.0102 -0.1739
  494SOL    HW3 1749   4.958   4.396   4.691 -1.2170 -0.8766 -2.3972
  494SOL    MW4 1750   4.936   4.472   4.655 -0.5242  0.4668 -0.2360
  495SOL     OW 1751   2.190   1.708   1.750  0.2599  0.5043 -0.3244
  495SOL    HW2 1752   2.260   1.741   1.694  0.7588  0.3660  0.2006
  495SOL    HW3 1753   2.222   1.622   1.780 -1.4315 -0.9416 -2.4270
  495SOL    MW4 1754   2.204   1.701   1.747  0.1026  0.2953 -0.5325
  496SOL     OW 1755   3.965   0.890   1.817  0.3076 -0.0410  0.3333
  496SOL    HW2 1756   3.949   0.864   1.907  2.6299 -0.1293  0.8015
  496SOL    HW3 1757   4.061   0.891   1.809  0.1823 -0.9234 -2.3863
  496SOL    MW4 1758   3.976   0.887   1.828  0.5975 -0.1691  0.0362
  497SOL     OW 1759   1.791   0.035   5.459  0.0330 -0.4688  0.4407
  497SOL    HW2 1760   1.778  -0.039   5.518 -0.2486  1.1420  2.5022
  497SOL    HW3 1761   1.703   0.069   5.442  0.2008 -0.2158  0.0447
  497SOL    MW4 1762   1.778   0.030   5.465  0.0180 -0.2229  0.6604
  498SOL     OW 1763   2.925   4.152   2.112 -0.3576  0.1766  0.3120
  498SOL    HW2 1764   2.948   4.217   2.046 -1.3929 -1.8184 -2.1682
  498SOL    HW3 1765   2.840   4.118   2.085 -1.0316 -0.4573  2.9519
  498SOL    MW4 1766   2.917   4.156   2.100 -0.5831 -0.1702  0.3331
  499SOL     OW 1767   2.515   3.106   2.296 -0.1803  0.2231 -0.0246
  499SOL    HW2 1768   2.595   3.144   2.332 -0.8273  0.1598  1.5647
  499SOL    HW3 1769   2.446   3.166   2.322 -0.6795  0.2357 -1.3204
  499SOL    MW4 1770   2.517   3.119   2.304 -0.3315  0.2164  0.0141
  500SOL     OW 1771   4.375   4.756   1.188  0.5960  0.1453 -0.3214
  500SOL    HW2 1772   4.320   4.681   1.165  0.4171  0.9633 -2.9869
  500SOL    HW3 1773   4.461   4.718   1.206 -0.1061 -0.8969  0.9963
  500SOL    MW4 1774   4.379   4.741   1.187  0.4798  0.1157 -0.4992
  501SOL     OW 1775   3.688   3.191   1.639 -0.2871  0.2350  0.5646
  501SOL    HW2 1776   3.688   3.205   1.544 -0.8158  2.0442  0.7908
  501SOL    HW3 1777   3.596   3.177   1.661 -0.3530  1.2468  0.9736
  501SOL    MW4 1778   3.676   3.191   1.629 -0.3656  0.6072  0.6484
  502SOL     OW 1779   2.296   5.838   4.335 -0.6666 -0.3846  0.4604
  502SOL    HW2 1780   2.332   5.762   4.380  0.5541  0.3376  0.7509
  502SOL    HW3 1781   2.321   5.912   4.390 -1.6275  0.2599  0.0569
  502SOL    MW4 1782   2.304   5.838   4.349 -0.6323 -0.2043  0.4455
  503SOL     OW 1783   3.719   2.807   0.719  0.6849 -0.1806  0.7765
  503SOL    HW2 1784   3.782   2.874   0.691 -0.9344  1.3598  0.6511
  503SOL    HW3 1785   3.724   2.740   0.651  1.8152  0.1600  0.5022
  503SOL    MW4 1786   3.728   2.807   0.706  0.6204  0.0675  0.7238
  504SOL     OW 1787   4.483   6.233   5.007  0.2544  0.6307  0.4464
  504SOL    HW2 1788   4.575   6.220   4.983  0.2089  1.0881  0.0021
  504SOL    HW3 1789   4.476   6.199   5.096  0.7264  0.0772  0.2753
  504SOL    MW4 1790   4.494   6.227   5.015  0.3107  0.6180  0.3652
  505SOL     OW 1791   6.092   2.713   3.727  0.5206  0.2141  0.0597
  505SOL    HW2 1792   6.035   2.656   3.676  0.5327 -0.3111  0.6105
  505SOL    HW3 1793   6.151   2.652   3.773  1.6372  0.7491 -0.6175
  505SOL    MW4 1794   6.093   2.697   3.727  0.6695  0.2154  0.0430
  506SOL     OW 1795   0.475   6.059   4.744 -0.0795 -0.0911  0.3032
  506SOL    HW2 1796   0.451   6.074   4.835 -1.6027 -0.1148 -0.0814
  506SOL    HW3 1797   0.467   5.965   4.732  1.1179 -0.2266  0.3939
  506SOL    MW4 1798   0.471   6.049   4.754 -0.1225 -0.1121  0.2644
  507SOL     OW 1799   4.614   1.393   2.266 -0.1354 -0.1173  0.0239
  507SOL    HW2 1800   4.699   1.426   2.237  0.3839 -0.7973  0.7473
  507SOL    HW3 1801   4.621   1.298   2.262 -0.9667 -0.1838 -0.1825
  507SOL    MW4 1802   4.626   1.385   2.262 -0.1766 -0.2158  0.0921
  508SOL     OW 1803   2.881   2.375   4.707  0.1392 -0.0263  0.1153
  508SOL    HW2 1804   2.844   2.458   4.676  1.3697 -0.0496 -1.5090
  508SOL    HW3 1805   2.855   2.311   4.641 -1.7711 -1.2640  1.9078
  508SOL    MW4 1806   2.873   2.377   4.694  0.0495 -0.1927  0.1375
  509SOL     OW 1807   1.972   0.729   3.623  0.1418  0.4250  0.1163
  509SOL    HW2 1808   2.014   0.797   3.676 -0.2989  1.8512 -1.2773
  509SOL    HW3 1809   1.880   0.733   3.648 -0.0426  1.0024 -0.6003
  509SOL    MW4 1810   1.965   0.739   3.633  0.0593  0.6894 -0.1621
  510SOL     OW 1811   3.206   3.144   1.899  0.2399  0.7919 -0.3610
  510SOL    HW2 1812   3.238   3.075   1.958 -1.8801  1.0284  1.1995
  510SOL    HW3 1813   3.132   3.104   1.853  0.5510  1.2699 -1.2936
  510SOL    MW4 1814   3.200   3.130   1.901  0.0012  0.8862 -0.2781
  511SOL     OW 1815   5.735   0.134   1.131 -0.2946  0.3314  0.0640
  511SOL    HW2 1816   5.731   0.227   1.111  1.0669  0.4449  0.2336
  511SOL    HW3 1817   5.643   0.108   1.141 -0.7313  1.4716 -0.7469
  511SOL    MW4 1818   5.722   0.143   1.130 -0.1726  0.4968 -0.0206
  512SOL     OW 1819   2.521   4.673   0.107  0.5623  0.0341 -0.0043
  512SOL    HW2 1820   2.456   4.647   0.041  0.6417 -1.5862  0.5052
  512SOL    HW3 1821   2.589   4.717   0.057 -1.4304  2.9157 -0.4153
  512SOL    MW4 1822   2.521   4.675   0.092  0.3099  0.2005  0.0087
  513SOL     OW 1823   4.371   1.646   1.079 -0.7432  0.3038 -0.2558
  513SOL    HW2 1824   4.465   1.650   1.097 -0.9144 -0.1429  0.8290
  513SOL    HW3 1825   4.330   1.652   1.165 -1.6945  0.0520 -0.6815
  513SOL    MW4 1826   4.378   1.647   1.092 -0.8913  0.2117 -0.1689
  514SOL     OW 1827   3.146   0.339   5.877 -0.1210  0.4782  0.7025
  514SOL    HW2 1828   3.053   0.360   5.865  0.0832  0.7739 -0.4160
  514SOL    HW3 1829   3.187   0.360   5.793  0.4389 -2.5445  0.1033
  514SOL    MW4 1830   3.139   0.344   5.864 -0.0202  0.1184  0.4758
  515SOL     OW 1831   1.716   0.612   0.976 -0.0637  0.2634  0.2302
  515SOL    HW2 1832   1.798   0.629   1.022  0.1674 -1.1947  0.3891
  515SOL    HW3 1833   1.675   0.540   1.024 -1.2096  0.6366 -0.1431
  515SOL    MW4 1834   1.721   0.605   0.988 -0.1844  0.1203  0.2019
  516SOL     OW 1835   2.665   4.689   4.274 -0.8880 -0.1773 -0.4488
  516SOL    HW2 1836   2.708   4.611   4.310 -0.5062  0.5613  0.7673
  516SOL    HW3 1837   2.615   4.724   4.348 -0.1390  1.3607 -0.6297
  516SOL    MW4 1838   2.664   4.683   4.288 -0.7388  0.1231 -0.3122
  517SOL     OW 1839   4.827   1.599   1.308 -0.4232  0.5349  0.1567
  517SOL    HW2 1840   4.786   1.577   1.224 -1.7074  0.0136  0.8879
  517SOL    HW3 1841   4.910   1.639   1.285 -0.3942 -0.3392 -1.3469
  517SOL    MW4 1842   4.832   1.602   1.294 -0.5888  0.3508  0.0548
  518SOL     OW 1843   0.757   6.381   1.701 -0.1607 -0.2920  0.1278
  518SOL    HW2 1844   0.718   6.339   1.624  0.3823 -2.5762  1.0316
  518SOL    HW3 1845   0.783   6.467   1.670  0.0455 -1.1372 -2.2571
  518SOL    MW4 1846   0.755   6.387   1.687 -0.0619 -0.7049 -0.0676
  519SOL     OW 1847   5.383   5.572   2.847  0.6360 -0.1096 -0.2886
  519SOL    HW2 1848   5.363   5.660   2.876 -1.2537 -1.0003  1.3582
  519SOL    HW3 1849   5.361   5.516   2.921  2.1688 -1.9611 -1.1158
  519SOL    MW4 1850   5.378   5.576   2.860  0.5889 -0.4714 -0.1804
  520SOL     OW 1851   0.645   4.383   2.374  0.4212 -0.2826  0.2380
  520SOL    HW2 1852   0.555   4.400   2.401 -0.4157 -3.0187 -0.5759
  520SOL    HW3 1853   0.691   4.361   2.455  1.1597  3.5851  1.0850
  520SOL    MW4 1854   0.639   4.382   2.388  0.4082 -0.1333  0.2424
  521SOL     OW 1855   2.524   0.283   5.328 -0.1011  0.2889  0.1339
  521SOL    HW2 1856   2.470   0.313   5.255 -1.8205  0.2920  1.3507
  521SOL    HW3 1857   2.481   0.319   5.406  1.0567 -0.6144  1.2307
  521SOL    MW4 1858   2.511   0.292   5.329 -0.1752  0.1702  0.4392
  522SOL     OW 1859   0.524   3.868   4.596  0.3779 -0.1122 -0.8611
  522SOL    HW2 1860   0.614   3.866   4.562  0.5973  0.5179 -0.3298
  522SOL    HW3 1861   0.500   3.776   4.604  1.3883 -0.3186  0.0515
  522SOL    MW4 1862   0.533   3.855   4.593  0.5402 -0.0563 -0.6706
  523SOL     OW 1863   3.503   0.166   2.691  0.0396  0.3961 -0.1844
  523SOL    HW2 1864   3.472   0.175   2.781 -0.9522  1.4759 -0.5987
  523SOL    HW3 1865   3.585   0.118   2.698 -0.2827  0.0010  1.2408
  523SOL    MW4 1866   3.509   0.161   2.704 -0.1338  0.4864 -0.0511
  524SOL     OW 1867   5.969   5.163   0.442 -0.0111 -0.2850  0.1871
  524SOL    HW2 1868   5.916   5.191   0.366  1.3170  1.4825 -0.1612
  524SOL    HW3 1869   6.042   5.115   0.404 -0.2501 -0.9103  0.5049
  524SOL    MW4 1870   5.971   5.160   0.427  0.1326 -0.1343  0.1831
  525SOL     OW 1871   0.165   5.830   4.174 -0.4720 -0.8507  0.7136
  525SOL    HW2 1872   0.085   5.835   4.121 -0.5863  1.1303  0.9793
  525SOL    HW3 1873   0.169   5.915   4.219  2.8361 -0.0361 -0.8131
  525SOL    MW4 1874   0.155   5.842   4.173 -0.0506 -0.4818  0.5473
  526SOL     OW 1875   3.814   4.061   1.124  0.5970  0.4514 -0.3504
  526SOL    HW2 1876   3.854   4.104   1.049 -0.4101  2.4223  0.1757
  526SOL    HW3 1877   3.795   4.132   1.185  0.6062 -1.0052  1.4065
  526SOL    MW4 1878   3.817   4.076   1.122  0.4653  0.5192 -0.0492
  527SOL     OW 1879   5.813   0.091   1.397 -0.6509  0.1146 -0.0002
  527SOL    HW2 1880   5.774   0.012   1.435 -2.2724  1.5335  1.4908
  527SOL    HW3 1881   5.804   0.079   1.302 -1.1210 -1.3585  0.2020
  527SOL    MW4 1882   5.806   0.079   1.390 -0.9268  0.1075  0.2232
  528SOL     OW 1883   1.105   0.330   5.947 -0.0444  0.7363  0.1575
  528SOL    HW2 1884   1.064   0.245   5.962 -0.6866  1.2614  1.5012
  528SOL    HW3 1885   1.179   0.311   5.889 -1.0676 -0.5068 -0.7953
  528SOL    MW4 1886   1.109   0.316   5.941 -0.2641  0.6415  0.2090
  529SOL     OW 1887   1.306   3.578   4.388 -0.4743 -0.2567 -0.1908
  529SOL    HW2 1888   1.331   3.662   4.425  0.6418 -0.2575 -0.8909
  529SOL    HW3 1889   1.283   3.524   4.463  1.8110 -0.2883  0.5738
  529SOL    MW4 1890   1.306   3.582   4.402 -0.0255 -0.2610 -0.1823
  530SOL     OW 1891   2.694   4.812   2.616 -0.2765 -0.5279 -0.1785
  530SOL    HW2 1892   2.670   4.736   2.563 -2.1472 -0.5407  0.6410
  530SOL    HW3 1893   2.623   4.874   2.603 -1.1302 -0.7748  2.7785
  530SOL    MW4 1894   2.682   4.810   2.607 -0.6360 -0.5622  0.3198
  531SOL     OW 1895   4.092   4.578   4.532  0.2704 -0.1641  0.2901
  531SOL    HW2 1896   4.181   4.543   4.539  0.8654  1.2055 -0.0107
  531SOL    HW3 1897   4.062   4.550   4.446  0.8511  0.2953 -0.0715
  531SOL    MW4 1898   4.100   4.570   4.521  0.4255  0.0772  0.2027
  532SOL     OW 1899   0.996   5.021   4.035 -0.5971 -0.2688 -1.3367
  532SOL    HW2 1900   0.958   4.933   4.036 -0.2467 -0.4179 -0.9079
  532SOL    HW3 1901   0.924   5.078   4.006 -1.1626 -0.5400 -0.5130
  532SOL    MW4 1902   0.981   5.017   4.031 -0.6255 -0.3242 -1.1714
  533SOL     OW 1903   3.237   4.131   5.648  0.0652  0.9523 -0.1414
  533SOL    HW2 1904   3.225   4.119   5.742 -0.4553 -0.8293 -0.3917
  533SOL    HW3 1905   3.160   4.181   5.620  0.2079  1.4590  0.3681
  533SOL    MW4 1906   3.225   4.136   5.657  0.0154  0.7841 -0.1072
  534SOL     OW 1907   4.832   0.036   4.818  0.0228 -0.3527 -0.1515
  534SOL    HW2 1908   4.849  -0.054   4.792  0.3944 -0.5248  0.6597
  534SOL    HW3 1909   4.918   0.070   4.844 -0.3791 -0.3195  1.2027
  534SOL    MW4 1910   4.846   0.029   4.818  0.0188 -0.3710  0.1342
  535SOL     OW 1911   0.001   5.516   6.036 -0.1246  0.7822  0.0702
  535SOL    HW2 1912  -0.064   5.452   6.006  2.7741 -3.2122  1.3509
  535SOL    HW3 1913  -0.005   5.514   6.132  2.8069 -1.1194  0.3575
  535SOL    MW4 1914  -0.008   5.507   6.045  0.6446  0.0043  0.2771
  536SOL     OW 1915   1.220   1.675   1.859  0.1142  0.2895  0.1595
  536SOL    HW2 1916   1.156   1.606   1.845 -1.1735  1.3550  0.6482
  536SOL    HW3 1917   1.286   1.661   1.791 -1.3508 -0.0117 -1.2424
  536SOL    MW4 1918   1.220   1.664   1.848 -0.2490  0.3903  0.0390
  537SOL     OW 1919   0.799   5.662   4.044  0.3249  0.2735 -0.1731
  537SOL    HW2 1920   0.744   5.665   4.122 -0.1187  0.6949 -0.4949
  537SOL    HW3 1921   0.737   5.656   3.971  0.7594 -2.2788 -0.4285
  537SOL    MW4 1922   0.783   5.661   4.045  0.3237 -0.0076 -0.2493
  538SOL     OW 1923   0.351   3.847   6.324  0.3057  0.1894 -0.4160
  538SOL    HW2 1924   0.423   3.891   6.369 -0.2095 -0.2794  0.9045
  538SOL    HW3 1925   0.275   3.859   6.381 -0.2724 -0.8241 -0.9283
  538SOL    MW4 1926   0.350   3.855   6.337  0.1615 -0.0062 -0.3094
  539SOL     OW 1927   2.133   0.224   3.786  0.1276  0.0279  0.4804
  539SOL    HW2 1928   2.134   0.159   3.857  0.3776  0.5871  0.9982
  539SOL    HW3 1929   2.224   0.251   3.777 -0.0214  0.5515  0.5019
  539SOL    MW4 1930   2.145   0.219   3.794  0.1409  0.1708  0.5516
  540SOL     OW 1931   1.583   4.167   4.509  0.1355 -0.3052 -0.0125
  540SOL    HW2 1932   1.622   4.081   4.525  1.2951  0.2679  0.3533
  540SOL    HW3 1933   1.606   4.219   4.586 -0.1289  0.4815 -0.4490
  540SOL    MW4 1934   1.591   4.162   4.521  0.2536 -0.1258 -0.0218
  541SOL     OW 1935   6.371   5.202   2.270  0.5763  0.1617 -0.0364
  541SOL    HW2 1936   6.438   5.269   2.259  1.0640 -0.2151  0.5242
  541SOL    HW3 1937   6.419   5.119   2.264 -0.1040 -0.1632 -1.3231
  541SOL    MW4 1938   6.386   5.200   2.268  0.5509  0.0691 -0.1322
  542SOL     OW 1939   5.876   3.678   1.911  0.6728 -0.7345  0.1268
  542SOL    HW2 1940   5.832   3.626   1.843 -1.5583 -0.1832  1.0799
  542SOL    HW3 1941   5.924   3.745   1.862 -0.5985 -0.5648 -0.9478
  542SOL    MW4 1942   5.877   3.680   1.895  0.2107 -0.6394  0.1107
  543SOL     OW 1943   0.556   3.914   3.960 -0.1902  0.4122 -0.1201
  543SOL    HW2 1944   0.571   3.871   3.876  0.8171 -0.4209  0.4642
  543SOL    HW3 1945   0.638   3.958   3.980 -0.2092  0.1006  0.7024
  543SOL    MW4 1946   0.569   3.914   3.952 -0.0598  0.2612  0.0655
  544SOL     OW 1947   4.361   0.943   1.442 -0.4305  0.0612 -0.0045
  544SOL    HW2 1948   4.352   0.920   1.535  1.0149 -1.4589 -0.1827
  544SOL    HW3 1949   4.455   0.945   1.427 -0.6218 -1.5263 -1.8206
  544SOL    MW4 1950   4.372   0.940   1.452 -0.2651 -0.3488 -0.2676
  545SOL     OW 1951   0.453   1.165   3.954 -0.3288  0.2884 -0.2851
  545SOL    HW2 1952   0.487   1.254   3.963  1.4276 -0.4819  1.5841
  545SOL    HW3 1953   0.386   1.172   3.886 -0.4328  3.0576 -0.0328
  545SOL    MW4 1954   0.449   1.178   3.946 -0.1107  0.5522 -0.0052
  546SOL     OW 1955   2.228   3.599   1.430 -0.2929 -0.0062 -0.5717
  546SOL    HW2 1956   2.245   3.536   1.500 -1.5479  1.9534  1.6326
  546SOL    HW3 1957   2.242   3.684   1.470 -4.1194  1.3680 -1.7115
  546SOL    MW4 1958   2.232   3.602   1.444 -0.9633  0.4336 -0.4313
  547SOL     OW 1959   2.236   5.905   2.895 -0.1299  0.1558 -0.4503
  547SOL    HW2 1960   2.254   5.826   2.946 -2.9571 -0.1771  0.2056
  547SOL    HW3 1961   2.286   5.974   2.938  1.9645 -1.1147 -0.7184
  547SOL    MW4 1962   2.245   5.904   2.907 -0.2266 -0.0557 -0.3992
  548SOL     OW 1963   1.934   2.806   5.068 -0.1664  0.2929 -0.0224
  548SOL    HW2 1964   1.961   2.742   5.134 -0.9663  0.5314  0.5622
  548SOL    HW3 1965   1.975   2.888   5.097 -0.3081  0.3428  0.0396
  548SOL    MW4 1966   1.943   2.809   5.081 -0.2906  0.3310  0.0629
  549SOL     OW 1967   5.636   6.261   3.538 -0.1651 -0.0023 -0.0254
  549SOL    HW2 1968   5.609   6.345   3.500 -2.0738 -0.7519 -0.4170
  549SOL    HW3 1969   5.628   6.275   3.632  2.5787  1.2007  0.1160
  549SOL    MW4 1970   5.631   6.274   3.545 -0.0549  0.0576 -0.0584
  550SOL     OW 1971   1.322   4.237   4.548 -0.1452 -0.3648 -0.1186
  550SOL    HW2 1972   1.410   4.205   4.528 -0.0267 -0.6391  0.7774
  550SOL    HW3 1973   1.266   4.195   4.482  0.4957  0.5209 -1.2562
  550SOL    MW4 1974   1.326   4.227   4.536 -0.0450 -0.2842 -0.1505
  551SOL     OW 1975   2.781   6.190   1.331  0.3124 -0.1331 -0.0718
  551SOL    HW2 1976   2.791   6.284   1.314 -0.6188 -0.2937 -1.6844
  551SOL    HW3 1977   2.689   6.179   1.354  0.3467 -0.6830 -0.1764
  551SOL    MW4 1978   2.770   6.201   1.332  0.1940 -0.2269 -0.2984
  552SOL     OW 1979   0.442   0.057   2.256  0.5688 -0.4825 -0.5903
  552SOL    HW2 1980   0.497  -0.014   2.289  0.0549 -0.1849  0.9802
  552SOL    HW3 1981   0.356   0.039   2.294  0.1757  0.3905 -1.0620
  552SOL    MW4 1982   0.438   0.045   2.265  0.4492 -0.3281 -0.4453
  553SOL     OW 1983   4.499   3.342   3.452  0.0755 -0.0262 -0.0386
  553SOL    HW2 1984   4.523   3.310   3.365 -1.5034 -1.1068 -0.1074
  553SOL    HW3 1985   4.494   3.263   3.506 -1.4902  0.3468  0.3928
  553SOL    MW4 1986   4.502   3.328   3.447 -0.3394 -0.1196  0.0092
  554SOL     OW 1987   5.414   3.426   3.742  0.2345  0.3959 -0.0392
  554SOL    HW2 1988   5.469   3.483   3.795 -0.2081  1.7168 -0.9609
  554SOL    HW3 1989   5.436   3.448   3.652 -1.2015  0.3542 -0.4245
  554SOL    MW4 1990   5.424   3.436   3.737 -0.0133  0.5647 -0.2116
  555SOL     OW 1991   2.515   6.270   4.731  0.5511  0.5446 -0.5917
  555SOL    HW2 1992   2.580   6.317   4.785 -1.3625  0.8834  1.5704
  555SOL    HW3 1993   2.528   6.178   4.752  0.9355  0.5219 -0.9083
  555SOL    MW4 1994   2.526   6.264   4.741  0.3493  0.5863 -0.3482
  556SOL     OW 1995   0.524   0.420   0.137  0.1031  0.2329  0.0613
  556SOL    HW2 1996   0.548   0.468   0.058 -2.0448 -1.2440 -1.6414
  556SOL    HW3 1997   0.569   0.336   0.128 -1.8370 -0.7815 -0.8131
  556SOL    MW4 1998   0.533   0.415   0.126 -0.4363 -0.0958 -0.2787
  557SOL     OW 1999   4.048   1.898   1.381 -0.0126  0.3327  0.4944
  557SOL    HW2 2000   4.078   1.985   1.355 -1.0315  1.3037  2.4322
  557SOL    HW3 2001   4.006   1.910   1.465 -1.4868 -1.8127  0.1592
  557SOL    MW4 2002   4.047   1.911   1.388 -0.3415  0.1778  0.7059
  558SOL     OW 2003   0.940   3.444   5.106  0.0472  0.5650 -0.1704
  558SOL    HW2 2004   0.951   3.427   5.200  1.8445  0.4298 -0.3651
  558SOL    HW3 2005   0.960   3.537   5.096  0.3649  0.4670 -0.4718
  558SOL    MW4 2006   0.944   3.454   5.117  0.3262  0.5342 -0.2358
  559SOL     OW 2007   1.036   0.786   3.184 -0.2122 -0.0606 -0.3723
  559SOL    HW2 2008   1.092   0.778   3.106  1.4865 -2.6190  0.9769
  559SOL    HW3 2009   1.091   0.832   3.248 -0.4877 -0.5670  0.2349
  559SOL    MW4 2010   1.051   0.791   3.182 -0.0244 -0.4650 -0.1142
  560SOL     OW 2011   1.427   3.097   3.239 -0.5563  0.5171 -0.4102
  560SOL    HW2 2012   1.402   3.012   3.276  0.2744  0.3673 -0.1734
  560SOL    HW3 2013   1.426   3.084   3.144 -2.4736  0.8373 -0.4781
  560SOL    MW4 2014   1.424   3.084   3.232 -0.6997  0.5395 -0.3879
  561SOL     OW 2015   3.038   4.007   0.107 -0.3645 -0.0040  0.3070
  561SOL    HW2 2016   2.997   3.942   0.050  1.9161  1.0592 -2.8368
  561SOL    HW3 2017   3.117   3.964   0.140  0.2762  0.5758 -0.4329
  561SOL    MW4 2018   3.043   3.993   0.104  0.0209  0.2128 -0.2054
  562SOL     OW 2019   4.944   2.169   4.398  0.2092 -0.0608 -0.1257
  562SOL    HW2 2020   4.891   2.212   4.330  0.9667  0.8102 -0.1878
  562SOL    HW3 2021   4.957   2.080   4.365 -1.1890 -0.2931 -0.1123
  562SOL    MW4 2022   4.939   2.163   4.384  0.1247  0.0234 -0.1321
  563SOL     OW 2023   1.465   2.616   0.036  0.1715 -0.1863 -0.5501
  563SOL    HW2 2024   1.389   2.603  -0.021  0.1090  0.6806 -0.6782
  563SOL    HW3 2025   1.512   2.690  -0.002  1.1005 -0.7254 -0.4834
  563SOL    MW4 2026   1.461   2.624   0.024  0.2859 -0.1431 -0.5582
  564SOL     OW 2027   0.985   0.756   1.699 -0.0887  0.5634 -0.2800
  564SOL    HW2 2028   0.890   0.760   1.710 -0.1871  0.0820 -0.9018
  564SOL    HW3 2029   1.020   0.762   1.788 -0.6953  0.8905 -0.0599
  564SOL    MW4 2030   0.977   0.757   1.712 -0.1817  0.5430 -0.3330
  565SOL     OW 2031   5.231   0.470   0.309 -0.4915  0.4287 -0.6390
  565SOL    HW2 2032   5.149   0.464   0.357 -0.9714  1.1936 -1.3257
  565SOL    HW3 2033   5.209   0.439   0.221  0.6265 -2.0338 -0.1530
  565SOL    MW4 2034   5.218   0.465   0.303 -0.4073  0.2047 -0.6655
  566SOL     OW 2035   6.182   2.517   0.752 -0.1657 -0.2448 -0.3130
  566SOL    HW2 2036   6.123   2.520   0.828 -1.5184 -0.5672 -1.3182
  566SOL    HW3 2037   6.126   2.539   0.677  0.8949 -1.0109 -1.3602
  566SOL    MW4 2038   6.167   2.520   0.752 -0.2043 -0.3884 -0.5838
  567SOL     OW 2039   3.980   2.498   5.442  0.5127  0.0203  0.1668
  567SOL    HW2 2040   4.063   2.472   5.482 -0.1520 -2.6549  0.0207
  567SOL    HW3 2041   3.970   2.590   5.464  2.2246 -0.2654  2.4898
  567SOL    MW4 2042   3.990   2.507   5.450  0.6508 -0.3703  0.4540
  568SOL     OW 2043   5.132   2.555   1.284  0.0101  0.2742 -0.1960
  568SOL    HW2 2044   5.057   2.568   1.227 -0.9121 -1.0817  0.6449
  568SOL    HW3 2045   5.196   2.510   1.230 -0.6152 -0.4586 -0.3433
  568SOL    MW4 2046   5.130   2.551   1.270 -0.1941 -0.0014 -0.1045
  569SOL     OW 2047   2.121   3.151   3.513  0.4337 -0.0297  0.1231
  569SOL    HW2 2048   2.063   3.077   3.494  0.6976  0.3394 -2.6395
  569SOL    HW3 2049   2.063   3.219   3.547 -0.6121 -0.1001 -1.3825
  569SOL    MW4 2050   2.106   3.150   3.515  0.3305  0.0097 -0.4400
  570SOL     OW 2051   1.802   0.900   0.923 -0.5479  0.1862  0.0330
  570SOL    HW2 2052   1.860   0.837   0.964  1.7888  0.6918 -2.2245
  570SOL    HW3 2053   1.714   0.870   0.944  0.4896 -2.7020  0.6329
  570SOL    MW4 2054   1.798   0.888   0.931 -0.1027 -0.1281 -0.1857
  571SOL     OW 2055   3.442   2.634   4.642  0.5088 -0.0115 -0.6636
  571SOL    HW2 2056   3.492   2.644   4.562  2.0834 -1.9517 -0.0028
  571SOL    HW3 2057   3.446   2.720   4.685 -2.6562  1.9611 -3.7576
  571SOL    MW4 2058   3.449   2.647   4.637  0.2990 -0.0072 -0.9846
  572SOL     OW 2059   5.092   2.142   1.431  0.3444  0.1114  0.5249
  572SOL    HW2 2060   5.012   2.189   1.409  1.6030  1.6646 -0.9764
  572SOL    HW3 2061   5.104   2.159   1.525 -1.9615 -1.6430  1.2281
  572SOL    MW4 2062   5.083   2.151   1.441  0.2062  0.0848  0.4196
  573SOL     OW 2063   4.313   6.128   3.089 -0.2237 -0.2646 -0.1755
  573SOL    HW2 2064   4.269   6.048   3.059  0.2174  0.2597 -2.3440
  573SOL    HW3 2065   4.397   6.128   3.043  0.4549  0.6923  0.9951
  573SOL    MW4 2066   4.318   6.117   3.079 -0.0760 -0.0692 -0.3071
  574SOL     OW 2067   4.572   5.572   4.379  0.2294  0.1843  0.6856
  574SOL    HW2 2068   4.593   5.502   4.442  0.8667 -0.8545 -0.6407
  574SOL    HW3 2069   4.653   5.621   4.370  0.6634 -0.7386 -0.6204
  574SOL    MW4 2070   4.586   5.569   4.386  0.3707 -0.0745  0.3383
  575SOL     OW 2071   0.931   0.428   2.134 -0.3107  0.0385  0.0684
  575SOL    HW2 2072   0.962   0.466   2.216 -0.2022 -0.5226  0.2899
  575SOL    HW3 2073   0.881   0.498   2.092 -0.8054  0.1640  0.8535
  575SOL    MW4 2074   0.928   0.442   2.139 -0.3616 -0.0190  0.2012
  576SOL     OW 2075   0.273   6.046   5.391  0.7008 -0.4488 -0.2323
  576SOL    HW2 2076   0.366   6.041   5.369  1.2386 -1.8666  2.0243
  576SOL    HW3 2077   0.267   6.116   5.456 -0.0324  0.4516 -1.2466
  576SOL    MW4 2078   0.284   6.054   5.397  0.6751 -0.5171 -0.0684
  577SOL     OW 2079   5.946   4.506   5.799 -0.0166 -0.0605 -0.3491
  577SOL    HW2 2080   5.934   4.416   5.828  0.4154  0.0355  0.1522
  577SOL    HW3 2081   6.012   4.501   5.729 -0.0462 -0.1433 -0.3701
  577SOL    MW4 2082   5.953   4.494   5.793  0.0365 -0.0588 -0.2857
  578SOL     OW 2083   0.542   2.941   4.600  0.3783 -0.0016 -0.4145
  578SOL    HW2 2084   0.494   3.013   4.559 -0.9069  0.5465  1.8722
  578SOL    HW3 2085   0.512   2.863   4.555  0.1775  0.6952 -1.5261
  578SOL    MW4 2086   0.532   2.940   4.589  0.1823  0.1627 -0.2595
  579SOL     OW 2087   5.691   2.741   5.694  0.4869  0.6544 -0.3707
  579SOL    HW2 2088   5.772   2.779   5.661  1.3162 -1.1861 -0.5791
  579SOL    HW3 2089   5.713   2.708   5.781 -0.2788  0.9081 -0.0703
  579SOL    MW4 2090   5.704   2.741   5.701  0.4953  0.4451 -0.3585
  580SOL     OW 2091   2.272   5.647   6.257 -0.2698  0.0204 -0.0483
  580SOL    HW2 2092   2.252   5.561   6.220 -1.2917  0.7809 -1.3873
  580SOL    HW3 2093   2.367   5.650   6.262 -0.1402 -0.6299 -1.5019
  580SOL    MW4 2094   2.282   5.636   6.253 -0.3875  0.0350 -0.4167
  581SOL     OW 2095   3.495   5.125   1.119  0.0873  0.3979  0.2722
  581SOL    HW2 2096   3.440   5.202   1.105 -0.1173 -0.1192 -2.1314
  581SOL    HW3 2097   3.581   5.150   1.087  0.1331 -0.2028 -0.0934
  581SOL    MW4 2098   3.499   5.139   1.113  0.0663  0.2505 -0.0932
  582SOL     OW 2099   2.054   3.748   4.687  0.1423 -0.2508  0.1283
  582SOL    HW2 2100   1.990   3.817   4.668  0.8630 -0.0762 -1.9406
  582SOL    HW3 2101   2.113   3.749   4.612  0.1727 -3.1432 -0.0041
  582SOL    MW4 2102   2.053   3.757   4.675  0.2414 -0.6094 -0.1621
  583SOL     OW 2103   4.466   0.037   0.370  0.1494 -0.3052  0.4626
  583SOL    HW2 2104   4.548   0.017   0.327  0.2808  1.2287 -0.0428
  583SOL    HW3 2105   4.446  -0.042   0.421  1.5820 -0.9392  0.0876
  583SOL    MW4 2106   4.474   0.024   0.371  0.3558 -0.1865  0.3465
  584SOL     OW 2107   5.408   4.581   1.018 -0.1425  0.2665  0.5352
  584SOL    HW2 2108   5.401   4.543   0.931 -0.8115  2.6568 -0.5328
  584SOL    HW3 2109   5.477   4.531   1.061 -0.8348 -1.9651 -0.7855
  584SOL    MW4 2110   5.416   4.570   1.012 -0.3221  0.2874  0.2201
  585SOL     OW 2111   2.561   1.672   1.086  0.2967  0.1300  0.0995
  585SOL    HW2 2112   2.620   1.689   1.012 -0.0992  1.6101  0.0868
  585SOL    HW3 2113   2.599   1.597   1.131  1.8368  0.6579 -0.2781
  585SOL    MW4 2114   2.574   1.664   1.082  0.4476  0.3949  0.0480
  586SOL     OW 2115   6.081   3.299   6.173  0.6471 -0.5266 -0.3422
  586SOL    HW2 2116   6.025   3.221   6.167  1.0927 -0.9963  1.0765
  586SOL    HW3 2117   6.164   3.273   6.133 -0.5171  0.6585 -3.8824
  586SOL    MW4 2118   6.084   3.286   6.167  0.5523 -0.4322 -0.6221
  587SOL     OW 2119   0.081   0.461   5.487 -0.1106  0.1352  0.8060
  587SOL    HW2 2120   0.039   0.436   5.405  1.7344  0.6964 -0.3750
  587SOL    HW3 2121   0.047   0.548   5.506 -0.9043 -0.1872  0.9302
  587SOL    MW4 2122   0.071   0.469   5.479  0.0281  0.1668  0.6665
  588SOL     OW 2123   0.156   3.652   6.125 -0.0902 -0.1282 -0.1408
  588SOL    HW2 2124   0.202   3.729   6.160  0.0019  0.3045 -1.1677
  588SOL    HW3 2125   0.172   3.583   6.190 -0.5514  0.8273  1.0277
  588SOL    MW4 2126   0.164   3.653   6.139 -0.1389  0.0550 -0.1221
  589SOL     OW 2127   1.271   5.237   3.858 -0.2800 -0.4961  0.8735
  589SOL    HW2 2128   1.314   5.317   3.827 -0.5565  0.5068  2.8538
  589SOL    HW3 2129   1.275   5.244   3.954 -3.5575 -1.0245  1.1790
  589SOL    MW4 2130   1.277   5.249   3.867 -0.7489 -0.4335  1.1751
  590SOL     OW 2131   1.578   1.955   1.433 -0.2897  0.0181 -0.5251
  590SOL    HW2 2132   1.532   2.013   1.492 -0.6388 -0.0416 -0.7390
  590SOL    HW3 2133   1.663   1.998   1.418 -0.4703  0.3716 -0.5315
  590SOL    MW4 2134   1.583   1.968   1.439 -0.3596  0.0569 -0.5542
  591SOL     OW 2135   0.420   3.909   1.765  0.3141 -0.4661 -0.8025
  591SOL    HW2 2136   0.349   3.935   1.823  0.4908  0.5231 -0.9957
  591SOL    HW3 2137   0.377   3.865   1.692 -0.1515  0.4624 -1.1042
  591SOL    MW4 2138   0.405   3.907   1.763  0.2760 -0.2131 -0.8678
  592SOL     OW 2139   0.336   0.340   2.627 -0.1480 -0.3348 -0.1878
  592SOL    HW2 2140   0.265   0.302   2.574 -0.3745  0.4639 -0.4702
  592SOL    HW3 2141   0.348   0.278   2.699 -2.2160  0.2576  0.7460
  592SOL    MW4 2142   0.328   0.326   2.630 -0.4508 -0.1513 -0.1019
  593SOL     OW 2143   0.633   2.764   1.905  0.8611  0.4007  0.1013
  593SOL    HW2 2144   0.623   2.669   1.899 -0.8201  0.4842  0.8374
  593SOL    HW3 2145   0.607   2.797   1.818 -1.8337  0.3268  0.7753
  593SOL    MW4 2146   0.628   2.756   1.892  0.2838  0.4019  0.2874
  594SOL     OW 2147   5.904   0.555   3.628 -0.1419 -0.2411 -0.1867
  594SOL    HW2 2148   5.926   0.631   3.681  2.1208 -0.3543 -0.8872
  594SOL    HW3 2149   5.810   0.565   3.611 -0.3958  1.1321  1.6468
  594SOL    MW4 2150   5.894   0.567   3.633  0.1231 -0.0748 -0.0372
  595SOL     OW 2151   5.377   2.412   0.189 -0.2473 -0.0613  0.1125
  595SOL    HW2 2152   5.446   2.472   0.160 -0.4402 -0.6276 -1.6134
  595SOL    HW3 2153   5.394   2.332   0.140 -0.4506 -1.1860  1.8207
  595SOL    MW4 2154   5.389   2.410   0.179 -0.2995 -0.2844  0.1102
  596SOL     OW 2155   2.875   1.019   0.299 -0.0622 -0.4836  0.0885
  596SOL    HW2 2156   2.928   0.967   0.238  0.7479  0.1966  0.1921
  596SOL    HW3 2157   2.931   1.093   0.323 -0.9827  0.1406  0.3837
  596SOL    MW4 2158   2.890   1.022   0.294 -0.0767 -0.3115  0.1412
  597SOL     OW 2159   0.780   0.749   5.588 -0.1424  0.3328  0.2475
  597SOL    HW2 2160   0.834   0.671   5.590 -1.7079 -0.7976  2.1358
  597SOL    HW3 2161   0.809   0.800   5.664  1.1512  1.8762 -1.1962
  597SOL    MW4 2162   0.791   0.746   5.598 -0.1783  0.3873  0.3062
  598SOL     OW 2163   2.342   3.865   3.480  0.1140 -0.2476  0.1938
  598SOL    HW2 2164   2.307   3.804   3.545  1.2999 -1.1505  0.0229
  598SOL    HW3 2165   2.375   3.809   3.410  1.5798  0.5523  0.1978
  598SOL    MW4 2166   2.342   3.850   3.479  0.4638 -0.2612  0.1718
  599SOL     OW 2167   3.340   1.031   1.403  0.2634  0.7441  0.1124
  599SOL    HW2 2168   3.395   0.968   1.450 -1.4812 -0.5687  0.5136
  599SOL    HW3 2169   3.340   1.108   1.460  0.8504  0.3837  0.6219
  599SOL    MW4 2170   3.347   1.033   1.417  0.1107  0.5234  0.2325
  600SOL     OW 2171   6.032   0.284   0.507  0.1857  0.2145 -0.1021
  600SOL    HW2 2172   5.974   0.250   0.576 -0.8953 -1.0547 -1.5690
  600SOL    HW3 2173   6.110   0.230   0.514 -0.9920 -1.8195 -1.5438
  600SOL    MW4 2174   6.034   0.272   0.517 -0.1123 -0.2213 -0.4858
  601SOL     OW 2175   5.687   4.888   6.142 -0.2042  0.2377  0.6394
  601SOL    HW2 2176   5.723   4.912   6.057  0.2111 -0.1754  0.6930
  601SOL    HW3 2177   5.648   4.969   6.176  1.9948  1.1191  1.2425
  601SOL    MW4 2178   5.687   4.902   6.135  0.1408  0.2995  0.7260
  602SOL     OW 2179   0.527   5.238   4.390 -0.4251 -0.0208 -0.2873
  602SOL    HW2 2180   0.505   5.145   4.382  1.3448 -0.4713 -0.4277
  602SOL    HW3 2181   0.491   5.278   4.311  0.5288 -0.9723 -1.2300
  602SOL    MW4 2182   0.519   5.231   4.378 -0.0657 -0.2058 -0.4302
  603SOL     OW 2183   0.809   1.771   5.028 -0.4897 -0.6035  0.0416
  603SOL    HW2 2184   0.763   1.693   5.059 -2.0867  0.3764  0.2522
  603SOL    HW3 2185   0.759   1.798   4.951 -1.0576  1.2121  1.0005
  603SOL    MW4 2186   0.796   1.764   5.022 -0.7753 -0.2347  0.1959
  604SOL     OW 2187   0.648   1.092   0.082  0.0887 -0.1918  0.4997
  604SOL    HW2 2188   0.601   1.157   0.030  1.0289  2.0718  2.3119
  604SOL    HW3 2189   0.601   1.089   0.165  0.1965 -1.7247  0.5424
  604SOL    MW4 2190   0.636   1.100   0.086  0.2270 -0.0954  0.7445
  605SOL     OW 2191   4.171   4.167   2.607 -0.0395  0.3171 -0.1292
  605SOL    HW2 2192   4.216   4.239   2.563  3.0994 -0.8862  0.8200
  605SOL    HW3 2193   4.154   4.199   2.695  1.9476 -0.2003  0.5011
  605SOL    MW4 2194   4.175   4.180   2.612  0.6368  0.0901  0.0792
  606SOL     OW 2195   5.033   0.975   1.371  0.2522  0.2912  0.4693
  606SOL    HW2 2196   4.968   0.904   1.377 -0.1036  0.6837  1.4262
  606SOL    HW3 2197   5.075   0.961   1.286  0.8522 -1.6265  1.0372
  606SOL    MW4 2198   5.030   0.963   1.360  0.2844  0.0899  0.6705
  607SOL     OW 2199   2.715   4.004   0.812 -0.2973 -0.3025 -0.4022
  607SOL    HW2 2200   2.676   3.925   0.851 -0.1014  0.3493  1.2012
  607SOL    HW3 2201   2.723   4.065   0.886  1.6516  0.4101 -1.1423
  607SOL    MW4 2202   2.711   4.001   0.827 -0.0143 -0.1225 -0.2883
  608SOL     OW 2203   5.992   1.719   4.154  0.2288  0.2005  0.5066
  608SOL    HW2 2204   6.047   1.652   4.196 -0.7604  0.1876  1.8450
  608SOL    HW3 2205   5.930   1.745   4.222 -1.1517  0.5289 -0.8208
  608SOL    MW4 2206   5.991   1.714   4.168 -0.0839  0.2422  0.5080
  609SOL     OW 2207   0.137   2.594   5.832 -0.9683 -0.3245  0.3097
  609SOL    HW2 2208   0.178   2.636   5.756 -0.4733  0.6655  1.0937
  609SOL    HW3 2209   0.108   2.667   5.886  2.2403 -0.8206  2.9895
  609SOL    MW4 2210   0.139   2.609   5.829 -0.4796 -0.2593  0.7667
  610SOL     OW 2211   3.300   0.509   2.431 -0.8679 -0.0638  0.1923
  610SOL    HW2 2212   3.256   0.469   2.506 -0.3985 -1.8015 -0.4204
  610SOL    HW3 2213   3.236   0.505   2.360 -0.0997 -1.7495 -0.4498
  610SOL    MW4 2214   3.286   0.503   2.431 -0.7046 -0.5155  0.0268
  611SOL     OW 2215   5.559   5.002   2.882 -0.7153 -0.3865  0.4463
  611SOL    HW2 2216   5.614   5.020   2.805 -0.0349 -1.9726  0.5218
  611SOL    HW3 2217   5.618   5.015   2.957  0.0530 -3.3649  0.4881
  611SOL    MW4 2218   5.574   5.006   2.882 -0.5242 -0.9887  0.4618
  612SOL     OW 2219   6.070   4.651   6.010 -0.7708 -0.5280  0.2143
  612SOL    HW2 2220   6.127   4.702   5.953 -0.0973 -1.0036  0.4446
  612SOL    HW3 2221   6.012   4.604   5.950 -1.1826  0.2411 -0.0074
  612SOL    MW4 2222   6.070   4.651   5.994 -0.7363 -0.4893  0.2155
  613SOL     OW 2223   0.292   0.841   4.470  0.2256  0.0399  0.0262
  613SOL    HW2 2224   0.352   0.793   4.414  0.0611 -0.4541  0.2736
  613SOL    HW3 2225   0.248   0.774   4.522  0.0319  0.4568  0.4066
  613SOL    MW4 2226   0.294   0.826   4.470  0.1783  0.0297  0.1090
  614SOL     OW 2227   2.466   3.900   0.001 -0.7401 -0.0896 -0.4299
  614SOL    HW2 2228   2.536   3.926   0.060 -2.4562  1.3539  1.0823
  614SOL    HW3 2229   2.437   3.982  -0.039  0.0578 -0.9646 -3.0399
  614SOL    MW4 2230   2.472   3.914   0.003 -0.8613 -0.0146 -0.5747
  615SOL     OW 2231   2.659   5.713   4.369  0.0330  0.6341 -0.3221
  615SOL    HW2 2232   2.601   5.638   4.377  1.6443 -0.5844  0.7517
  615SOL    HW3 2233   2.701   5.702   4.283  1.9400 -1.0774  0.7248
  615SOL    MW4 2234   2.657   5.701   4.358  0.4972  0.2475 -0.0423
  616SOL     OW 2235   0.793   5.042   5.524 -0.3831  0.3307 -0.1437
  616SOL    HW2 2236   0.707   5.056   5.485  0.6276  0.9389 -2.2653
  616SOL    HW3 2237   0.786   4.957   5.567 -1.8023 -0.0038 -0.9739
  616SOL    MW4 2238   0.780   5.032   5.525 -0.4370  0.3668 -0.5332
  617SOL     OW 2239   1.219   4.044   0.820  0.0327  0.0249 -0.0865
  617SOL    HW2 2240   1.243   4.119   0.875  0.0605 -0.2878  0.3327
  617SOL    HW3 2241   1.205   4.082   0.733 -0.3207  0.5728  0.2016
  617SOL    MW4 2242   1.220   4.059   0.816 -0.0102  0.0559  0.0068
  618SOL     OW 2243   2.837   0.524   2.437  0.2279 -0.0197 -0.5271
  618SOL    HW2 2244   2.826   0.470   2.515  0.5598 -0.1328 -0.5575
  618SOL    HW3 2245   2.750   0.525   2.397  0.1884 -0.4399 -0.4637
  618SOL    MW4 2246   2.824   0.517   2.442  0.2665 -0.0901 -0.5228
  619SOL     OW 2247   1.057   5.893   0.244  0.1001  0.0496 -0.3067
  619SOL    HW2 2248   1.132   5.834   0.239  0.2251  0.2396 -0.7120
  619SOL    HW3 2249   1.066   5.950   0.168  1.0693  1.8945  1.1090
  619SOL    MW4 2250   1.068   5.892   0.234  0.2445  0.3181 -0.1734
  620SOL     OW 2251   5.320   5.904   5.230  0.1683  0.3110  0.3984
  620SOL    HW2 2252   5.266   5.963   5.177 -2.2476 -0.3404  1.9750
  620SOL    HW3 2253   5.298   5.926   5.320  2.5306 -0.0900  1.1441
  620SOL    MW4 2254   5.310   5.914   5.235  0.1612  0.1721  0.7048
  621SOL     OW 2255   0.586   5.211   5.073  0.2323 -0.1544 -0.0517
  621SOL    HW2 2256   0.641   5.135   5.053  0.5478 -0.3472  1.3992
  621SOL    HW3 2257   0.594   5.268   4.997  1.1882 -0.9021 -0.5341
  621SOL    MW4 2258   0.594   5.208   5.060  0.4001 -0.2785  0.0761
  622SOL     OW 2259   3.437   0.638   1.609  0.5303 -0.1160 -0.1217
  622SOL    HW2 2260   3.418   0.612   1.519  0.8282  1.0557 -0.5507
  622SOL    HW3 2261   3.466   0.729   1.601  1.3739 -0.2639  1.0700
  622SOL    MW4 2262   3.438   0.647   1.596  0.6809  0.0191 -0.0211
  623SOL     OW 2263   0.619   1.778   1.175  0.7132 -0.2359 -0.2949
  623SOL    HW2 2264   0.675   1.701   1.170  0.6192 -0.4869  1.6925
  623SOL    HW3 2265   0.538   1.747   1.216  0.5542  0.8299  0.2428
  623SOL    MW4 2266   0.616   1.764   1.180  0.6799 -0.1284  0.0383
  624SOL     OW 2267   1.576   4.354   2.498 -0.2622 -0.4853 -0.5317
  624SOL    HW2 2268   1.631   4.422   2.459 -1.3484  1.2462  0.7507
  624SOL    HW3 2269   1.620   4.331   2.580 -0.5589 -0.3395 -0.3264
  624SOL    MW4 2270   1.589   4.360   2.504 -0.4446 -0.2376 -0.3354
  625SOL     OW 2271   2.641   0.679   0.856 -0.8198 -0.4641  0.0366
  625SOL    HW2 2272   2.594   0.758   0.881 -0.2974 -0.4239  0.9549
  625SOL    HW3 2273   2.722   0.710   0.816 -0.9425 -0.5356 -0.2709
  625SOL    MW4 2274   2.646   0.693   0.854 -0.7671 -0.4683  0.1172
  626SOL     OW 2275   1.655   2.373   5.858 -0.3535 -0.0045 -0.2436
  626SOL    HW2 2276   1.578   2.415   5.896  0.2984  0.5990  0.4497
  626SOL    HW3 2277   1.698   2.330   5.933  1.5995  2.2002  0.0093
  626SOL    MW4 2278   1.651   2.373   5.873 -0.0098  0.3660 -0.1188
  627SOL     OW 2279   3.404   5.011   1.784 -0.2193  0.2656  0.1478
  627SOL    HW2 2280   3.374   5.008   1.693 -1.6305  1.8043  0.5289
  627SOL    HW3 2281   3.337   4.964   1.833  1.2125 -1.7714  0.2951
  627SOL    MW4 2282   3.391   5.004   1.778 -0.2166  0.1999  0.2175
  628SOL     OW 2283   1.296   3.481   3.483  0.6108  0.0785 -0.0083
  628SOL    HW2 2284   1.315   3.454   3.393  0.8551  0.4264 -0.0610
  628SOL    HW3 2285   1.231   3.416   3.513  1.2958 -0.6591 -0.0832
  628SOL    MW4 2286   1.290   3.469   3.475  0.7334  0.0271 -0.0251
  629SOL     OW 2287   1.906   2.195   5.152 -0.3131 -0.4272 -0.1110
  629SOL    HW2 2288   1.916   2.113   5.200  0.9539  0.0917  0.5539
  629SOL    HW3 2289   1.932   2.263   5.214  1.1610  0.2792 -1.4372
  629SOL    MW4 2290   1.911   2.193   5.167  0.0486 -0.2655 -0.1982
  630SOL     OW 2291   3.041   5.315   2.089 -0.1908 -0.2383 -0.0999
  630SOL    HW2 2292   2.961   5.263   2.097 -0.9382  0.7631 -0.8251
  630SOL    HW3 2293   3.086   5.278   2.014 -1.0303  0.5154 -1.0089
  630SOL    MW4 2294   3.036   5.303   2.080 -0.4002 -0.0067 -0.3155
  631SOL     OW 2295   3.059   6.022   2.765 -0.2256 -0.1921 -0.6475
  631SOL    HW2 2296   3.016   6.106   2.749  0.1860 -0.0563 -1.0447
  631SOL    HW3 2297   3.020   5.963   2.700  0.7750  0.1336 -1.5646
  631SOL    MW4 2298   3.048   6.025   2.754 -0.0393 -0.1312 -0.8209
  632SOL     OW 2299   1.579   1.785   4.753 -0.1770  0.0303 -0.1981
  632SOL    HW2 2300   1.611   1.755   4.668  0.6717 -0.7216  0.3625
  632SOL    HW3 2301   1.490   1.751   4.759 -0.8618  1.4863 -1.4603
  632SOL    MW4 2302   1.572   1.776   4.743 -0.1554  0.1232 -0.2907
  633SOL     OW 2303   5.224   0.145   4.514 -0.4931 -0.4077 -0.1698
  633SOL    HW2 2304   5.131   0.149   4.537  0.0140  1.4076  1.7904
  633SOL    HW3 2305   5.268   0.122   4.596  0.8393 -0.9337 -1.0018
  633SOL    MW4 2306   5.217   0.142   4.528 -0.2504 -0.2376 -0.0210
  634SOL     OW 2307   2.148   5.955   4.737 -0.4744 -0.0376 -0.2206
  634SOL    HW2 2308   2.202   5.976   4.813 -0.3616  0.0882 -0.3358
  634SOL    HW3 2309   2.128   5.862   4.748 -1.3660  0.2299  0.5281
  634SOL    MW4 2310   2.153   5.945   4.749 -0.5772  0.0143 -0.1370
  635SOL     OW 2311   5.254   4.890   3.700 -0.4366 -0.5154 -0.1944
  635SOL    HW2 2312   5.274   4.797   3.708  1.1538 -0.1339  0.8114
  635SOL    HW3 2313   5.182   4.904   3.762  0.0027 -0.9112  0.4231
  635SOL    MW4 2314   5.247   4.880   3.709 -0.1688 -0.5172  0.0198
  636SOL     OW 2315   0.456   0.326   3.140  0.1135 -0.0562 -0.5291
  636SOL    HW2 2316   0.400   0.318   3.218 -0.9836  1.3613 -1.1442
  636SOL    HW3 2317   0.490   0.237   3.127  2.6662  0.1334  3.2229
  636SOL    MW4 2318   0.453   0.313   3.149  0.3055  0.1558 -0.1152
  637SOL     OW 2319   5.354   4.863   4.021 -0.5536  0.5167  0.5638
  637SOL    HW2 2320   5.402   4.871   4.104  1.0431  1.4864 -0.3966
  637SOL    HW3 2321   5.300   4.942   4.016  0.9471  1.5511 -0.2322
  637SOL    MW4 2322   5.353   4.874   4.031 -0.1449  0.7811  0.3321
  638SOL     OW 2323   0.512   5.872   4.057  0.0349  0.1403 -0.3544
  638SOL    HW2 2324   0.589   5.877   4.114  0.4076 -0.2807 -0.8078
  638SOL    HW3 2325   0.525   5.943   3.993  1.3286 -1.4279 -1.9495
  638SOL    MW4 2326   0.524   5.882   4.056  0.2547 -0.1221 -0.6247
  639SOL     OW 2327   2.507   6.189   0.977  0.7990 -0.4997  0.3150
  639SOL    HW2 2328   2.543   6.262   1.027  0.5514  1.1861 -1.8008
  639SOL    HW3 2329   2.438   6.229   0.923  1.9359 -1.8922 -2.3501
  639SOL    MW4 2330   2.502   6.204   0.976  0.9163 -0.4610 -0.3158
  640SOL     OW 2331   1.993   3.071   5.168 -0.1936 -0.4061  0.7913
  640SOL    HW2 2332   2.068   3.124   5.192  0.0975 -0.1899 -0.5021
  640SOL    HW3 2333   1.960   3.111   5.088 -0.5922 -1.5540  0.3587
  640SOL    MW4 2334   1.998   3.083   5.161 -0.2078 -0.5290  0.5636
  641SOL     OW 2335   0.275   5.572   5.025 -0.2616 -0.0660  0.3098
  641SOL    HW2 2336   0.232   5.611   4.949 -0.1959 -1.3948 -0.4395
  641SOL    HW3 2337   0.261   5.478   5.015  3.8780 -0.7579 -0.7340
  641SOL    MW4 2338   0.267   5.565   5.014  0.2932 -0.3326  0.0732
  642SOL     OW 2339   4.928  -0.000   1.275  0.6831  0.3524 -0.1623
  642SOL    HW2 2340   4.980   0.070   1.235 -0.2751  1.2461  0.1069
  642SOL    HW3 2341   4.990  -0.046   1.333  0.7702  2.6995  1.7787
  642SOL    MW4 2342   4.943   0.003   1.278  0.5682  0.7800  0.1293
  643SOL     OW 2343   1.760   4.186   0.097  0.0416  0.2868 -0.2257
  643SOL    HW2 2344   1.718   4.119   0.043  2.5011  1.5459 -4.1942
  643SOL    HW3 2345   1.849   4.153   0.112  0.9423  2.0079 -1.3115
  643SOL    MW4 2346   1.767   4.173   0.092  0.4849  0.6800 -0.8926
  644SOL     OW 2347   4.829   2.457   4.735  0.1582  0.5460  0.1079
  644SOL    HW2 2348   4.806   2.392   4.802 -1.7099 -0.8649 -1.7547
  644SOL    HW3 2349   4.785   2.537   4.764 -0.8433 -0.1153  0.4805
  644SOL    MW4 2350   4.820   2.459   4.748 -0.2204  0.2726 -0.0887
  645SOL     OW 2351   3.792   3.715   1.433  0.2744 -0.2410  0.2011
  645SOL    HW2 2352   3.879   3.679   1.451  0.2460 -0.0371  0.7482
  645SOL    HW3 2353   3.738   3.686   1.506 -0.1412 -0.4366 -0.1787
  645SOL    MW4 2354   3.797   3.706   1.445  0.2158 -0.2399  0.2232
  646SOL     OW 2355   3.998   5.632   3.111 -0.2285  0.1458  0.0749
  646SOL    HW2 2356   4.011   5.659   3.020  0.1980  0.5027  0.2356
  646SOL    HW3 2357   3.931   5.691   3.144 -0.8362 -0.3933 -0.1852
  646SOL    MW4 2358   3.991   5.643   3.103 -0.2524  0.1217  0.0618
  647SOL     OW 2359   4.971   5.784   5.757  0.1157 -0.2778  0.0695
  647SOL    HW2 2360   4.914   5.835   5.699  0.6819  1.2906  0.8362
  647SOL    HW3 2361   4.930   5.792   5.843  1.3148  0.6487  0.5849
  647SOL    MW4 2362   4.958   5.792   5.761  0.3486  0.0514  0.2386
  648SOL     OW 2363   3.432   0.978   4.457 -0.1245 -0.0798  0.4266
  648SOL    HW2 2364   3.481   0.979   4.538 -0.7623 -2.0105  0.8873
  648SOL    HW3 2365   3.340   0.972   4.484 -0.3182 -1.3947 -0.3952
  648SOL    MW4 2366   3.426   0.978   4.471 -0.2342 -0.5080  0.3790
  649SOL     OW 2367   0.385   0.496   2.925  0.7263  0.1481  0.0153
  649SOL    HW2 2368   0.345   0.442   2.857  0.7898  0.9311 -0.6600
  649SOL    HW3 2369   0.420   0.433   2.988 -0.4482 -0.5745 -0.0166
  649SOL    MW4 2370   0.384   0.480   2.925  0.5797  0.1561 -0.0780
  650SOL     OW 2371   3.853   6.295   4.085  0.5174 -0.3048  0.3085
  650SOL    HW2 2372   3.912   6.248   4.144  1.1906 -0.8253 -0.7246
  650SOL    HW3 2373   3.862   6.248   4.001 -1.0679 -0.1337  0.0219
  650SOL    MW4 2374   3.862   6.283   4.081  0.3971 -0.3509  0.1344
  651SOL     OW 2375   3.444   6.223   5.507  0.3094 -0.1941 -0.3895
  651SOL    HW2 2376   3.434   6.162   5.580  2.0159  0.6214  0.5823
  651SOL    HW3 2377   3.430   6.310   5.546  0.8360  0.2251 -1.1171
  651SOL    MW4 2378   3.441   6.227   5.522  0.6040 -0.0312 -0.3573
  652SOL     OW 2379   0.569   1.981   0.464  0.2649 -0.5696  0.4419
  652SOL    HW2 2380   0.504   1.916   0.491  0.8583 -0.9292  1.0371
  652SOL    HW3 2381   0.606   2.014   0.546 -1.4560  2.0651  0.2639
  652SOL    MW4 2382   0.566   1.977   0.478  0.1161 -0.2694  0.4970
  653SOL     OW 2383   3.879   5.043   5.334  0.0569 -0.1703 -0.5568
  653SOL    HW2 2384   3.819   4.993   5.389  0.6774 -0.7298 -0.3772
  653SOL    HW3 2385   3.966   5.018   5.365  0.3890  1.8308  0.2944
  653SOL    MW4 2386   3.882   5.033   5.345  0.1826  0.0199 -0.4208
  654SOL     OW 2387   3.734   2.049   4.664 -0.3256 -0.3035 -0.0197
  654SOL    HW2 2388   3.808   2.091   4.620 -0.3244 -1.0669 -0.7692
  654SOL    HW3 2389   3.765   1.961   4.684 -0.7851 -0.3850  0.3460
  654SOL    MW4 2390   3.748   2.043   4.661 -0.3861 -0.4150 -0.0703
  655SOL     OW 2391   0.217   4.216   5.682  0.2094  0.0110  0.1152
  655SOL    HW2 2392   0.260   4.275   5.744 -1.1968  0.8598  0.3236
  655SOL    HW3 2393   0.230   4.129   5.720  0.9452  0.3261  0.6258
  655SOL    MW4 2394   0.225   4.213   5.695  0.1210  0.1646  0.2101
  656SOL     OW 2395   2.016   2.650   4.622  0.7857 -0.2480  0.5851
  656SOL    HW2 2396   2.038   2.650   4.715  0.5168 -2.0333  0.6855
  656SOL    HW3 2397   2.084   2.594   4.582 -0.3237 -1.2596  0.0593
  656SOL    MW4 2398   2.028   2.643   4.629  0.6038 -0.6170  0.5290
  657SOL     OW 2399   4.774   5.771   1.581 -0.4439  0.0065  0.0719
  657SOL    HW2 2400   4.728   5.759   1.498  0.4484 -0.4453 -0.3686
  657SOL    HW3 2401   4.842   5.704   1.581 -0.8654 -0.4645  1.4976
  657SOL    MW4 2402   4.777   5.761   1.570 -0.3818 -0.1152  0.2019
  658SOL     OW 2403   4.703   2.292   3.814 -0.1954 -0.2287 -0.0274
  658SOL    HW2 2404   4.703   2.353   3.887  0.8073  1.6937 -1.5353
  658SOL    HW3 2405   4.617   2.251   3.816 -0.5163  0.4725  1.6407
  658SOL    MW4 2406   4.692   2.294   3.824 -0.1054  0.1175 -0.0062
  659SOL     OW 2407   1.560   6.018   0.760  0.2468 -0.2948  0.0404
  659SOL    HW2 2408   1.645   6.060   0.747  0.1036 -0.2691 -0.8986
  659SOL    HW3 2409   1.532   6.046   0.847 -0.5546  2.8778 -1.1074
  659SOL    MW4 2410   1.568   6.027   0.770  0.1222  0.1272 -0.2349
  660SOL     OW 2411   5.926   6.239   1.372  0.0129 -0.3765 -0.0275
  660SOL    HW2 2412   5.922   6.155   1.327  0.1096 -1.4061  1.8126
  660SOL    HW3 2413   5.955   6.218   1.461 -2.1716  1.2904  1.1887
  660SOL    MW4 2414   5.929   6.225   1.378 -0.2625 -0.2925  0.3758
  661SOL     OW 2415   6.020   0.118   2.882  0.2632  0.2659  0.5085
  661SOL    HW2 2416   6.028   0.208   2.913  0.8867  0.2272  0.4810
  661SOL    HW3 2417   6.104   0.077   2.906 -1.0466 -1.1383  3.1373
  661SOL    MW4 2418   6.032   0.124   2.889  0.1727  0.0756  0.8517
  662SOL     OW 2419   2.369   4.139   3.394 -0.0119 -0.4136  0.5619
  662SOL    HW2 2420   2.338   4.160   3.305 -0.5193  0.3595  0.9098
  662SOL    HW3 2421   2.388   4.045   3.391 -0.7204 -0.5460 -0.1693
  662SOL    MW4 2422   2.367   4.129   3.381 -0.1723 -0.3291  0.5114
  663SOL     OW 2423   0.867   2.701   5.267 -0.4185 -0.2326  0.0847
  663SOL    HW2 2424   0.819   2.622   5.241 -0.7352 -0.9265  2.4977
  663SOL    HW3 2425   0.947   2.667   5.307 -0.4237  0.6621  0.8804
  663SOL    MW4 2426   0.871   2.686   5.269 -0.4610 -0.2061  0.5081
  664SOL     OW 2427   0.847   5.258   6.150 -0.3568  0.6509 -0.4596
  664SOL    HW2 2428   0.931   5.289   6.117 -0.5418  1.1733 -0.4408
  664SOL    HW3 2429   0.868   5.221   6.236  0.3610 -1.9645 -1.6768
  664SOL    MW4 2430   0.861   5.257   6.157 -0.2865  0.3747 -0.6177
  665SOL     OW 2431   1.986   2.443   6.077  0.2644 -0.3250  0.2604
  665SOL    HW2 2432   2.021   2.514   6.022 -1.9913 -0.1902 -1.1169
  665SOL    HW3 2433   2.059   2.381   6.083  0.2799 -1.1781 -4.4036
  665SOL    MW4 2434   2.000   2.444   6.070 -0.0311 -0.4198 -0.5367
  666SOL     OW 2435   1.949   5.444   1.903 -0.1705 -0.3020  0.3220
  666SOL    HW2 2436   1.911   5.529   1.881  0.6172  0.1115  0.5266
  666SOL    HW3 2437   1.925   5.387   1.830  1.8650  0.8697 -1.3856
  666SOL    MW4 2438   1.941   5.448   1.891  0.2020 -0.0929  0.1237
  667SOL     OW 2439   5.703   0.342   0.808  0.2627 -0.0918  0.0251
  667SOL    HW2 2440   5.680   0.398   0.733  1.2426  2.0463  1.2574
  667SOL    HW3 2441   5.694   0.399   0.884 -1.6055 -2.4597  1.7188
  667SOL    MW4 2442   5.698   0.357   0.808  0.1455 -0.1221  0.4111
  668SOL     OW 2443   0.064   4.731   3.748 -0.7138  0.2258 -0.3282
  668SOL    HW2 2444   0.044   4.717   3.841 -0.4803 -1.8504 -0.5549
  668SOL    HW3 2445   0.150   4.692   3.736  0.1559  2.2420 -1.0283
  668SOL    MW4 2446   0.073   4.724   3.759 -0.5682  0.2179 -0.4504
  669SOL     OW 2447   3.702   2.981   0.103  0.3967 -0.1806 -0.3374
  669SOL    HW2 2448   3.722   3.058   0.050 -1.3907  1.2995  1.0468
  669SOL    HW3 2449   3.637   2.933   0.052  2.3567 -1.5017 -1.7523
  669SOL    MW4 2450   3.696   2.985   0.089  0.4195 -0.1596 -0.3415
  670SOL     OW 2451   1.712   2.512   5.282 -0.8338  0.5702  0.2738
  670SOL    HW2 2452   1.723   2.503   5.187  0.6189 -0.6513  0.5105
  670SOL    HW3 2453   1.617   2.508   5.295 -1.0430  0.3321 -1.0976
  670SOL    MW4 2454   1.701   2.510   5.271 -0.6697  0.3777  0.1241
  671SOL     OW 2455   1.050   6.087   1.132  0.3292  0.2164  0.5639
  671SOL    HW2 2456   0.966   6.117   1.096  0.2395 -0.4965  0.1565
  671SOL    HW3 2457   1.037   6.087   1.227  0.4466  1.7724  0.6108
  671SOL    MW4 2458   1.037   6.091   1.140  0.3328  0.3277  0.5164
  672SOL     OW 2459   2.998   4.542   4.470 -0.2429  0.0827 -0.3693
  672SOL    HW2 2460   3.061   4.570   4.536 -1.1592  1.5462 -0.0664
  672SOL    HW3 2461   3.052   4.505   4.400  0.8202 -0.2972  0.6229
  672SOL    MW4 2462   3.013   4.541   4.469 -0.2236  0.2257 -0.1984
  673SOL     OW 2463   0.936   0.506   5.744 -0.3049  0.5238 -0.2470
  673SOL    HW2 2464   0.966   0.529   5.832  1.2166  3.0699 -1.3146
  673SOL    HW3 2465   0.990   0.432   5.718  2.0261  2.1816 -0.4090
  673SOL    MW4 2466   0.947   0.499   5.752  0.2034  1.0785 -0.4092
  674SOL     OW 2467   1.155   4.330   1.539 -0.4602 -0.3306 -0.1714
  674SOL    HW2 2468   1.210   4.370   1.606 -1.2086  0.3882  0.0329
  674SOL    HW3 2469   1.143   4.239   1.569 -0.0726 -0.2568  0.2107
  674SOL    MW4 2470   1.160   4.323   1.552 -0.5078 -0.2260 -0.0940
  675SOL     OW 2471   5.548   2.011   3.067  0.0721  0.1304 -0.5658
  675SOL    HW2 2472   5.557   2.031   2.974  0.7982 -2.0670 -1.0119
  675SOL    HW3 2473   5.455   2.027   3.086 -0.2064  0.0937 -1.7971
  675SOL    MW4 2474   5.537   2.016   3.057  0.1312 -0.1644 -0.7871
  676SOL     OW 2475   3.490   0.125   1.688  0.5430 -0.0985  0.2752
  676SOL    HW2 2476   3.532   0.145   1.604  2.0900  1.1737  1.2902
  676SOL    HW3 2477   3.432   0.199   1.704 -0.3468 -0.7255 -0.0348
  676SOL    MW4 2478   3.488   0.138   1.679  0.6297 -0.0134  0.3682
  677SOL     OW 2479   1.274   1.077   2.482  0.4685 -0.6499 -0.8916
  677SOL    HW2 2480   1.337   1.110   2.546  2.0660  0.5239 -2.9505
  677SOL    HW3 2481   1.322   1.011   2.433 -0.5548 -1.1254 -1.2915
  677SOL    MW4 2482   1.288   1.073   2.484  0.5443 -0.5578 -1.2160
  678SOL     OW 2483   3.328   4.287   4.771 -0.4736 -0.5841 -0.3428
  678SOL    HW2 2484   3.306   4.371   4.731  0.2922 -0.7399 -1.1296
  678SOL    HW3 2485   3.422   4.292   4.788  0.0776 -2.0582 -2.4366
  678SOL    MW4 2486   3.337   4.299   4.768 -0.2998 -0.7992 -0.7228
  679SOL     OW 2487   3.629   2.948   3.917 -0.3162  0.5968  0.2089
  679SOL    HW2 2488   3.568   3.019   3.940 -1.7464  0.2896 -2.3036
  679SOL    HW3 2489   3.690   2.988   3.855 -0.8724 -0.2328 -0.8937
  679SOL    MW4 2490   3.629   2.963   3.912 -0.5783  0.4468 -0.2681
  680SOL     OW 2491   3.894   5.599   0.124  0.3559 -0.3450 -0.0850
  680SOL    HW2 2492   3.889   5.509   0.156 -0.4791  0.0872  1.0421
  680SOL    HW3 2493   3.859   5.652   0.195 -0.2249  0.7806 -1.1736
  680SOL    MW4 2494   3.889   5.594   0.138  0.1691 -0.1395 -0.0799
  681SOL     OW 2495   4.070   2.373   5.812  0.0707 -0.3673 -0.0087
  681SOL    HW2 2496   4.109   2.356   5.727  0.6780  0.3386  0.1203
  681SOL    HW3 2497   4.045   2.465   5.809  0.5510 -0.2062  0.7497
  681SOL    MW4 2498   4.072   2.383   5.801  0.2142 -0.2529  0.1084
  682SOL     OW 2499   2.350   4.303   5.752  0.0140 -0.2240  0.8806
  682SOL    HW2 2500   2.435   4.287   5.793 -0.3349 -1.5773  1.1157
  682SOL    HW3 2501   2.366   4.378   5.693  1.5251 -0.8453  0.4456
  682SOL    MW4 2502   2.363   4.311   5.749  0.1673 -0.4846  0.8543
  683SOL     OW 2503   4.568   5.634   2.499 -0.4681  0.0303  0.7373
  683SOL    HW2 2504   4.525   5.551   2.481 -0.5849  0.3991 -0.8995
  683SOL    HW3 2505   4.533   5.693   2.431  2.5447  0.3542 -0.6745
  683SOL    MW4 2506   4.557   5.631   2.488 -0.0860  0.1217  0.3351
  684SOL     OW 2507   5.283   0.827   1.499 -0.2883  0.2875 -0.6900
  684SOL    HW2 2508   5.308   0.753   1.554  1.2421  0.4943 -1.0372
  684SOL    HW3 2509   5.283   0.902   1.559  0.2640  0.3339 -0.7427
  684SOL    MW4 2510   5.287   0.827   1.514 -0.0135  0.3209 -0.7428
  685SOL     OW 2511   4.779   0.969   5.032  0.0267  0.6684 -0.6571
  685SOL    HW2 2512   4.847   0.907   5.007 -0.4780  0.2849 -1.1274
  685SOL    HW3 2513   4.713   0.960   4.963  0.2198  2.1797 -1.0759
  685SOL    MW4 2514   4.779   0.959   5.020 -0.0144  0.8172 -0.7744
  686SOL     OW 2515   4.929   5.409   5.463  0.4138 -0.2427 -0.2333
  686SOL    HW2 2516   4.901   5.347   5.396 -0.1968  0.4584 -0.6408
  686SOL    HW3 2517   4.905   5.368   5.546 -0.9724 -0.0941 -0.5395
  686SOL    MW4 2518   4.922   5.396   5.465  0.1504 -0.1306 -0.3275
  687SOL     OW 2519   3.458   6.017   3.463  0.0317 -0.0190  0.5188
  687SOL    HW2 2520   3.476   5.966   3.385  0.1814  1.2575 -0.3211
  687SOL    HW3 2521   3.468   5.956   3.536  1.3231 -0.8936 -0.3588
  687SOL    MW4 2522   3.461   6.002   3.462  0.2218  0.0340  0.2922
  688SOL     OW 2523   4.894   6.219   5.650 -0.6179 -0.7218  0.1147
  688SOL    HW2 2524   4.802   6.222   5.675 -0.1154  1.6215  2.0731
  688SOL    HW3 2525   4.903   6.287   5.583 -0.1540 -0.1999  0.6916
  688SOL    MW4 2526   4.883   6.228   5.644 -0.4904 -0.3438  0.4492
  689SOL     OW 2527   1.436   1.086   1.756 -0.0061  0.1431  0.3966
  689SOL    HW2 2528   1.528   1.069   1.740 -0.1350 -1.7367  1.2735
  689SOL    HW3 2529   1.390   1.033   1.691 -0.4423 -1.1080  1.6561
  689SOL    MW4 2530   1.442   1.076   1.746 -0.0806 -0.2700  0.6784
  690SOL     OW 2531   2.098   4.653   5.519  0.7522  0.1379  0.4101
  690SOL    HW2 2532   2.075   4.675   5.609  0.4422  0.9311  0.1452
  690SOL    HW3 2533   2.039   4.706   5.466 -0.1603 -1.4639 -0.2700
  690SOL    MW4 2534   2.087   4.663   5.524  0.5909  0.0312  0.2854
  691SOL     OW 2535   5.221   2.038   5.762 -0.1765  0.3093  0.5412
  691SOL    HW2 2536   5.145   2.062   5.708  0.5615 -0.8494 -1.0885
  691SOL    HW3 2537   5.296   2.072   5.713  0.4363  0.3843  1.5262
  691SOL    MW4 2538   5.221   2.046   5.748  0.0017  0.1663  0.4562
  692SOL     OW 2539   0.694   3.280   3.272 -0.3629  0.5406  0.0992
  692SOL    HW2 2540   0.679   3.200   3.323 -0.0274  1.9131  2.4780
  692SOL    HW3 2541   0.788   3.295   3.278 -0.2653  0.5794 -1.2285
  692SOL    MW4 2542   0.704   3.271   3.279 -0.3058  0.7268  0.2378
  693SOL     OW 2543   3.661   2.030   5.943  0.1219  0.1315 -0.1862
  693SOL    HW2 2544   3.702   1.966   6.001 -0.7674  0.5847  0.9885
  693SOL    HW3 2545   3.704   2.113   5.964 -0.1935  0.2979 -0.1816
  693SOL    MW4 2546   3.672   2.032   5.953 -0.0371  0.2132 -0.0306
  694SOL     OW 2547   2.483   0.520   0.585 -0.0823  0.1357  0.2591
  694SOL    HW2 2548   2.480   0.449   0.521  0.7099  1.7604 -1.6947
  694SOL    HW3 2549   2.512   0.596   0.534  0.6114  1.5074  2.5871
  694SOL    MW4 2550   2.486   0.520   0.570  0.1137  0.5310  0.3085
  695SOL     OW 2551   5.160   4.561   4.884  0.4403  0.1049  0.7640
  695SOL    HW2 2552   5.204   4.632   4.931  0.8773  0.7116 -0.5058
  695SOL    HW3 2553   5.069   4.590   4.876  0.5594  0.4018  0.4754
  695SOL    MW4 2554   5.154   4.574   4.889  0.5137  0.2241  0.5584
  696SOL     OW 2555   3.941   3.802   1.750  0.1861 -0.4642  0.1542
  696SOL    HW2 2556   3.880   3.760   1.810 -0.0441  0.6775  0.7353
  696SOL    HW3 2557   3.898   3.884   1.726 -0.9978 -1.9315 -3.6502
  696SOL    MW4 2558   3.927   3.807   1.755 -0.0005 -0.5072 -0.2711
  697SOL     OW 2559   3.493   3.668   2.791 -0.0986  0.0051  0.4588
  697SOL    HW2 2560   3.489   3.739   2.726  1.6695  1.3450  1.7146
  697SOL    HW3 2561   3.428   3.693   2.857 -0.5242 -0.3344  0.1706
  697SOL    MW4 2562   3.484   3.681   2.791  0.0785  0.1371  0.5865
  698SOL     OW 2563   3.140   2.024   0.920 -0.2366 -0.1009  0.0015
  698SOL    HW2 2564   3.116   2.036   0.828 -1.7146  1.2575  0.5196
  698SOL    HW3 2565   3.059   1.995   0.962  0.0145  0.8293  1.1537
  698SOL    MW4 2566   3.126   2.022   0.913 -0.3985  0.2010  0.2219
  699SOL     OW 2567   4.537   2.223   4.371 -0.2790  0.6648  0.4913
  699SOL    HW2 2568   4.562   2.218   4.463  0.2548  0.9383  0.3638
  699SOL    HW3 2569   4.605   2.277   4.330  1.0423 -1.6307 -0.5908
  699SOL    MW4 2570   4.549   2.229   4.378 -0.0342  0.3980  0.3317
  700SOL     OW 2571   4.150   4.886   5.007  0.1923  0.3273 -0.2602
  700SOL    HW2 2572   4.217   4.851   5.066 -0.2103  0.6110  0.3737
  700SOL    HW3 2573   4.081   4.820   5.006 -0.4650  0.9708  0.7574
  700SOL    MW4 2574   4.150   4.873   5.015  0.0524  0.4496 -0.0423
  701SOL     OW 2575   4.246   4.754   4.777 -0.0475  0.1206  0.1467
  701SOL    HW2 2576   4.205   4.786   4.697 -1.1764 -2.4653 -0.4326
  701SOL    HW3 2577   4.210   4.809   4.846 -0.9046  0.8983 -0.8786
  701SOL    MW4 2578   4.236   4.765   4.776 -0.3095 -0.1180 -0.0650
  702SOL     OW 2579   3.793   3.412   1.805 -0.0933 -0.1074  0.0413
  702SOL    HW2 2580   3.888   3.407   1.797  0.1748  1.0447  1.8975
  702SOL    HW3 2581   3.760   3.343   1.748  1.8145 -0.0382 -1.2320
  702SOL    MW4 2582   3.801   3.402   1.796  0.1938  0.0537  0.1182
  703SOL     OW 2583   3.153   2.620   0.917  1.1580  0.5817 -0.3758
  703SOL    HW2 2584   3.112   2.581   0.839  0.1114  0.5161  0.1931
  703SOL    HW3 2585   3.178   2.708   0.890 -1.7776  1.6200 -0.0274
  703SOL    MW4 2586   3.151   2.626   0.903  0.6326  0.7101 -0.2548
  704SOL     OW 2587   4.283   0.054   1.341 -0.0806 -0.0850  0.3084
  704SOL    HW2 2588   4.288   0.105   1.422  0.6229 -0.6628  0.6419
  704SOL    HW3 2589   4.191   0.027   1.335 -0.1782  0.1249  0.8118
  704SOL    MW4 2590   4.272   0.057   1.351 -0.0006 -0.1335  0.4188
  705SOL     OW 2591   2.736   0.749   4.985 -0.1536 -0.0030  0.1800
  705SOL    HW2 2592   2.772   0.660   4.978  1.8677  0.8262 -1.0870
  705SOL    HW3 2593   2.731   0.779   4.894  0.4986  1.6387  0.6499
  705SOL    MW4 2594   2.740   0.741   4.972  0.1991  0.3230  0.0748
  706SOL     OW 2595   3.705   0.915   0.269  0.3448  0.0375 -0.3422
  706SOL    HW2 2596   3.698   1.009   0.287 -1.5352 -0.2627  0.7284
  706SOL    HW3 2597   3.620   0.879   0.294  1.7557 -2.3223  1.4993
  706SOL    MW4 2598   3.693   0.923   0.274  0.2829 -0.3134  0.0420
  707SOL     OW 2599   3.111   4.706   0.895  0.0544 -0.3314 -0.1149
  707SOL    HW2 2600   3.016   4.690   0.888 -0.2261  0.1684  1.9296
  707SOL    HW3 2601   3.117   4.794   0.933  1.3532 -0.3608 -0.2338
  707SOL    MW4 2602   3.099   4.716   0.899  0.1887 -0.2694  0.1391
  708SOL     OW 2603   1.022   1.650   2.584  0.1685 -0.2958  0.5740
  708SOL    HW2 2604   0.959   1.666   2.654 -0.2417  0.0863  0.1160
  708SOL    HW3 2605   0.991   1.570   2.541  1.2167 -1.3842  1.7128
  708SOL    MW4 2606   1.010   1.641   2.588  0.2527 -0.3890  0.6639
  709SOL     OW 2607   3.282   0.248   4.394 -0.3876  0.2298 -0.3453
  709SOL    HW2 2608   3.374   0.222   4.381 -0.5321 -1.2972  1.3030
  709SOL    HW3 2609   3.262   0.303   4.318  1.5658 -0.2890 -1.3103
  709SOL    MW4 2610   3.292   0.252   4.382 -0.1490 -0.0401 -0.2551
  710SOL     OW 2611   2.445   2.259   5.647  0.3387 -0.3711 -0.2968
  710SOL    HW2 2612   2.396   2.337   5.620  2.8315  0.6288 -2.4167
  710SOL    HW3 2613   2.515   2.293   5.703  0.2300 -1.3817  0.4750
  710SOL    MW4 2614   2.448   2.274   5.650  0.6532 -0.3725 -0.4747
  711SOL     OW 2615   0.388   0.830   4.992 -0.1764 -0.7849 -0.3442
  711SOL    HW2 2616   0.301   0.797   4.971  0.1760 -0.3447 -2.8060
  711SOL    HW3 2617   0.398   0.908   4.938  1.6644 -0.6971  0.0578
  711SOL    MW4 2618   0.378   0.836   4.982  0.1130 -0.7152 -0.6160
  712SOL     OW 2619   0.989   3.828   0.369  0.2297 -0.0650 -0.2616
  712SOL    HW2 2620   1.037   3.910   0.359  1.6393 -0.9313 -0.9024
  712SOL    HW3 2621   0.975   3.819   0.463  1.2600  0.2684 -0.0659
  712SOL    MW4 2622   0.994   3.837   0.380  0.5516 -0.1353 -0.3204
  713SOL     OW 2623   6.394   1.609   2.321  0.1882  0.2033 -0.3776
  713SOL    HW2 2624   6.462   1.614   2.254 -0.0205 -0.1794 -0.6269
  713SOL    HW3 2625   6.312   1.614   2.272  0.0362  0.4597 -0.0998
  713SOL    MW4 2626   6.392   1.610   2.305  0.1406  0.1866 -0.3738
  714SOL     OW 2627   0.231   6.254   5.574  0.3462 -0.2062 -0.1072
  714SOL    HW2 2628   0.233   6.208   5.658 -0.0207 -0.4209 -0.2128
  714SOL    HW3 2629   0.141   6.284   5.565  1.1385  2.9064  1.2030
  714SOL    MW4 2630   0.219   6.252   5.584  0.4023  0.1761  0.0517
  715SOL     OW 2631   2.274   3.422   5.859  0.0197  0.0168  0.1364
  715SOL    HW2 2632   2.316   3.376   5.787  0.8929  2.3251 -0.9075
  715SOL    HW3 2633   2.202   3.470   5.818  1.1331  2.1531  0.5462
  715SOL    MW4 2634   2.270   3.422   5.844  0.2818  0.6032  0.0527
  716SOL     OW 2635   4.779   5.933   5.621  0.1139 -0.1579  0.1876
  716SOL    HW2 2636   4.726   5.886   5.685 -1.2980 -0.1301 -0.9158
  716SOL    HW3 2637   4.787   6.021   5.658  0.5835 -0.5290  1.0158
  716SOL    MW4 2638   4.773   5.939   5.634 -0.0104 -0.2032  0.1513
  717SOL     OW 2639   2.157   5.315   5.592 -0.3009  0.3350 -0.1244
  717SOL    HW2 2640   2.097   5.263   5.538  0.0282 -1.7781  1.4202
  717SOL    HW3 2641   2.217   5.356   5.529 -1.0896 -0.4783 -1.4513
  717SOL    MW4 2642   2.157   5.314   5.576 -0.3615 -0.0511 -0.0957
  718SOL     OW 2643   5.916   3.044   2.463  0.2425 -0.3605  0.5628
  718SOL    HW2 2644   5.862   3.080   2.393 -0.6900  0.7199  1.7698
  718SOL    HW3 2645   5.852   3.008   2.525  0.9596 -0.1155  1.4613
  718SOL    MW4 2646   5.900   3.044   2.462  0.2141 -0.1857  0.8406
  719SOL     OW 2647   1.023   3.905   3.622  0.3804  0.8436  0.4525
  719SOL    HW2 2648   1.019   3.837   3.690 -1.3511  1.4057  0.9442
  719SOL    HW3 2649   1.117   3.923   3.613  0.9054 -1.5498  0.3509
  719SOL    MW4 2650   1.035   3.898   3.630  0.2212  0.6020  0.5040
  720SOL     OW 2651   5.283   4.820   0.849  0.3634 -0.2463  0.1732
  720SOL    HW2 2652   5.298   4.752   0.915  0.9725  0.0246  0.3175
  720SOL    HW3 2653   5.263   4.771   0.769 -0.4668 -0.5735  0.5670
  720SOL    MW4 2654   5.282   4.804   0.847  0.3342 -0.2537  0.2442
  721SOL     OW 2655   5.521   3.710   2.371  0.2425 -0.5030 -0.1508
  721SOL    HW2 2656   5.557   3.746   2.290  0.1153 -0.3664 -0.1475
  721SOL    HW3 2657   5.427   3.728   2.365 -0.0220 -2.0002 -0.7481
  721SOL    MW4 2658   5.514   3.717   2.359  0.1908 -0.6825 -0.2292
  722SOL     OW 2659   3.254   5.779   3.298 -0.8572 -0.1597 -0.1041
  722SOL    HW2 2660   3.192   5.845   3.267 -2.6226 -1.6293  0.1448
  722SOL    HW3 2661   3.265   5.799   3.392  0.9925  1.5346 -0.5910
  722SOL    MW4 2662   3.248   5.790   3.307 -0.8461 -0.1301 -0.1355
  723SOL     OW 2663   0.075   1.526   3.308 -0.5728  0.0715 -0.3911
  723SOL    HW2 2664   0.033   1.609   3.329  0.9599  0.5332  1.0993
  723SOL    HW3 2665   0.169   1.545   3.315 -0.1570 -1.4128 -1.5497
  723SOL    MW4 2666   0.082   1.540   3.312 -0.3157 -0.0634 -0.3473
  724SOL     OW 2667   3.723   4.969   2.694  0.0647  0.2372  0.0831
  724SOL    HW2 2668   3.699   4.995   2.783  0.9208 -0.9672  0.7033
  724SOL    HW3 2669   3.816   4.992   2.687  0.4732 -1.2453  0.1672
  724SOL    MW4 2670   3.732   4.975   2.705  0.2316 -0.1173  0.1760
  725SOL     OW 2671   0.055   4.941   2.287  0.2200  0.0642  0.0712
  725SOL    HW2 2672   0.075   4.933   2.194 -0.2115 -1.0022  0.0594
  725SOL    HW3 2673   0.094   4.864   2.327  1.3977  1.0702  0.9740
  725SOL    MW4 2674   0.063   4.930   2.280  0.3185  0.0563  0.1888
  726SOL     OW 2675   2.505   2.803   5.838 -0.5336  0.1721 -0.4097
  726SOL    HW2 2676   2.440   2.864   5.871  0.1671  1.3223 -1.0941
  726SOL    HW3 2677   2.468   2.717   5.856 -2.0566  0.7861 -0.4486
  726SOL    MW4 2678   2.492   2.800   5.845 -0.6421  0.4048 -0.5051
  727SOL     OW 2679   1.540   2.919   4.491 -0.1883  0.0167 -0.5192
  727SOL    HW2 2680   1.513   2.947   4.403 -0.3704  1.1709 -0.1118
  727SOL    HW3 2681   1.461   2.931   4.545 -0.1859 -1.0255 -0.2496
  727SOL    MW4 2682   1.526   2.924   4.486 -0.2120  0.0315 -0.4299
  728SOL     OW 2683   2.450   5.621   1.311  0.4862  0.1016  0.0141
  728SOL    HW2 2684   2.448   5.665   1.226 -1.0047 -1.0557 -0.5941
  728SOL    HW3 2685   2.541   5.595   1.322  0.5240 -0.8114 -1.8534
  728SOL    MW4 2686   2.462   5.623   1.301  0.2944 -0.1716 -0.3125
  729SOL     OW 2687   5.737   0.259   3.134 -0.3056 -0.2839  0.2663
  729SOL    HW2 2688   5.667   0.297   3.186  0.4374  0.8660  0.4640
  729SOL    HW3 2689   5.702   0.256   3.045 -0.6806  0.0684  0.4003
  729SOL    MW4 2690   5.723   0.264   3.129 -0.2570 -0.0857  0.3101
  730SOL     OW 2691   2.495   4.946   1.122 -0.0015  0.3205  0.2434
  730SOL    HW2 2692   2.462   4.878   1.181  0.8699 -0.1054  0.2409
  730SOL    HW3 2693   2.589   4.929   1.115 -0.1869 -0.0296 -1.7951
  730SOL    MW4 2694   2.503   4.935   1.129  0.0890  0.2181 -0.0259
  731SOL     OW 2695   5.379   1.466   5.148 -0.2706  0.6440 -0.2454
  731SOL    HW2 2696   5.303   1.445   5.093  1.3642 -0.5512 -2.1752
  731SOL    HW3 2697   5.357   1.427   5.233 -1.1382 -1.2242 -1.2446
  731SOL    MW4 2698   5.366   1.458   5.152 -0.1694  0.2398 -0.6319
  732SOL     OW 2699   5.128   2.355   1.898 -0.4129  0.0482 -0.2506
  732SOL    HW2 2700   5.194   2.403   1.948 -1.6810  2.9815 -1.2029
  732SOL    HW3 2701   5.083   2.301   1.963  1.4990 -0.4418  0.7441
  732SOL    MW4 2702   5.131   2.354   1.913 -0.3279  0.3705 -0.2450
  733SOL     OW 2703   2.777   4.542   3.063  0.1569  0.1078  0.3238
  733SOL    HW2 2704   2.823   4.479   3.008  1.1711  1.0153  0.0782
  733SOL    HW3 2705   2.690   4.550   3.024 -0.4396 -2.0337  1.1007
  733SOL    MW4 2706   2.772   4.535   3.050  0.2120 -0.0550  0.3939
  734SOL     OW 2707   4.737   2.382   3.223 -0.2729  0.3472 -0.0755
  734SOL    HW2 2708   4.810   2.444   3.231  0.5359 -0.6169  0.1775
  734SOL    HW3 2709   4.662   2.437   3.200  0.4906  1.3826 -0.1804
  734SOL    MW4 2710   4.737   2.398   3.221 -0.0655  0.3566 -0.0559
  735SOL     OW 2711   0.242   1.146   3.773  0.3212  0.2894  1.0200
  735SOL    HW2 2712   0.277   1.083   3.710  0.6509  0.9774  0.5009
  735SOL    HW3 2713   0.160   1.107   3.803  1.1885 -1.0520  1.7831
  735SOL    MW4 2714   0.236   1.132   3.769  0.4791  0.2032  1.0522
  736SOL     OW 2715   2.754   4.976   4.270  0.0779 -0.0318 -0.2146
  736SOL    HW2 2716   2.752   4.908   4.202  2.2090 -0.0048 -0.3746
  736SOL    HW3 2717   2.838   5.020   4.257  0.0360  0.7071  1.7465
  736SOL    MW4 2718   2.765   4.973   4.259  0.3535  0.0693  0.0230
  737SOL     OW 2719   2.844   2.428   2.576 -0.9789  0.5483  0.5553
  737SOL    HW2 2720   2.890   2.365   2.522 -0.2211 -0.1446  1.9460
  737SOL    HW3 2721   2.800   2.486   2.514 -0.6595 -0.5763 -0.7655
  737SOL    MW4 2722   2.844   2.428   2.561 -0.8368  0.3085  0.5646
  738SOL     OW 2723   0.839   4.474   5.974 -0.2631  0.2377  1.1211
  738SOL    HW2 2724   0.879   4.391   6.003 -3.0471 -1.1812  1.2336
  738SOL    HW3 2725   0.816   4.458   5.883  1.2146  1.7927  0.4240
  738SOL    MW4 2726   0.842   4.461   5.966 -0.4355  0.2556  1.0440
  739SOL     OW 2727   5.128   4.184   3.173  0.0090 -0.2897  0.2995
  739SOL    HW2 2728   5.211   4.221   3.205 -0.2682  0.2718  0.3823
  739SOL    HW3 2729   5.067   4.258   3.174 -0.3469 -0.5687 -0.3016
  739SOL    MW4 2730   5.131   4.199   3.178 -0.0745 -0.2524  0.2311
  740SOL     OW 2731   5.508   3.975   3.963 -0.1888 -0.2020 -0.0693
  740SOL    HW2 2732   5.544   3.994   3.876 -0.0585  0.1935  0.0643
  740SOL    HW3 2733   5.496   3.880   3.965 -1.7520 -0.0627 -1.1160
  740SOL    MW4 2734   5.511   3.965   3.952 -0.3778 -0.1314 -0.1898
  741SOL     OW 2735   4.144   2.196   5.102 -0.0290  0.3947  0.3996
  741SOL    HW2 2736   4.092   2.274   5.081 -1.4344 -0.4132  0.7478
  741SOL    HW3 2737   4.214   2.228   5.158  1.2947  1.9099 -1.9494
  741SOL    MW4 2738   4.146   2.211   5.106 -0.0397  0.4880  0.1356
  742SOL     OW 2739   2.999   5.628   5.605  0.3239  0.1863  0.2832
  742SOL    HW2 2740   2.920   5.645   5.657  0.1016 -0.3409  0.1149
  742SOL    HW3 2741   3.049   5.710   5.612 -0.3567  0.6260  0.1678
  742SOL    MW4 2742   2.995   5.641   5.613  0.2048  0.1748  0.2458
  743SOL     OW 2743   5.068   3.628   0.891  0.5129 -0.1465  0.7392
  743SOL    HW2 2744   5.123   3.689   0.842  0.2671 -0.3459  0.1997
  743SOL    HW3 2745   4.980   3.665   0.886 -0.1324 -1.7327 -1.7358
  743SOL    MW4 2746   5.064   3.641   0.884  0.3954 -0.3821  0.3415
  744SOL     OW 2747   0.355   5.507   1.888 -0.0808 -0.2922 -0.1874
  744SOL    HW2 2748   0.381   5.582   1.835  0.0752  0.4395  0.8875
  744SOL    HW3 2749   0.437   5.460   1.906 -0.3167 -1.4375 -1.8546
  744SOL    MW4 2750   0.370   5.510   1.884 -0.0913 -0.3468 -0.2656
  745SOL     OW 2751   0.489   0.413   3.877  0.1933 -0.2698 -0.2506
  745SOL    HW2 2752   0.514   0.365   3.797  0.6641  0.2892 -0.4405
  745SOL    HW3 2753   0.421   0.474   3.848 -0.6064 -0.9902  0.0449
  745SOL    MW4 2754   0.483   0.415   3.862  0.1499 -0.2911 -0.2367
  746SOL     OW 2755   0.618   1.449   5.541  0.1800 -0.0004 -0.2926
  746SOL    HW2 2756   0.529   1.484   5.532  0.4918  1.0581  0.5292
  746SOL    HW3 2757   0.674   1.518   5.506  0.7430 -0.1643  0.2853
  746SOL    MW4 2758   0.613   1.463   5.535  0.2954  0.1176 -0.1079
  747SOL     OW 2759   2.920   6.240   2.607  0.2090 -0.2721 -0.7535
  747SOL    HW2 2760   2.865   6.313   2.638  0.2490 -1.3433  2.1976
  747SOL    HW3 2761   2.945   6.265   2.518 -3.3448  1.2352 -1.5288
  747SOL    MW4 2762   2.916   6.253   2.599 -0.2546 -0.2146 -0.4664
  748SOL     OW 2763   0.586   1.677   0.709  0.2864 -0.1189  0.4061
  748SOL    HW2 2764   0.667   1.647   0.667 -0.1172 -0.6386 -0.0139
  748SOL    HW3 2765   0.527   1.697   0.636 -0.5379 -1.3419  0.7083
  748SOL    MW4 2766   0.589   1.675   0.694  0.1244 -0.3488  0.3905
  749SOL     OW 2767   0.871   4.253   3.516  0.4213  0.0898  0.1523
  749SOL    HW2 2768   0.863   4.243   3.421  0.3409  0.9127  0.0713
  749SOL    HW3 2769   0.828   4.175   3.552 -0.2065  0.1373 -0.4713
  749SOL    MW4 2770   0.864   4.241   3.508  0.3278  0.2046  0.0593
  750SOL     OW 2771   1.709   1.004   1.707 -0.1658  0.1179  0.1760
  750SOL    HW2 2772   1.744   0.939   1.769 -1.0087 -0.0781  0.4585
  750SOL    HW3 2773   1.779   1.068   1.697 -0.3852  0.7374  2.1616
  750SOL    MW4 2774   1.723   1.004   1.714 -0.3060  0.1738  0.4752
  751SOL     OW 2775   2.042   2.383   0.116 -0.4415  0.3168 -0.4234
  751SOL    HW2 2776   2.132   2.383   0.083 -0.1286  2.0923  0.3175
  751SOL    HW3 2777   2.052   2.401   0.210 -1.5074 -0.8086 -0.0792
  751SOL    MW4 2778   2.055   2.385   0.124 -0.5408  0.4026 -0.2802
  752SOL     OW 2779   3.782   2.036   0.014  0.9600  0.6302 -0.2733
  752SOL    HW2 2780   3.746   1.954   0.047  1.9635 -0.1911 -1.1689
  752SOL    HW3 2781   3.712   2.071  -0.042 -0.1130  1.2370  1.3839
  752SOL    MW4 2782   3.768   2.030   0.011  0.9508  0.6019 -0.1728
  753SOL     OW 2783   5.055   0.707   3.466 -0.1518  0.2827 -0.5052
  753SOL    HW2 2784   5.003   0.699   3.546  0.8868  1.8173  0.3789
  753SOL    HW3 2785   5.000   0.669   3.397 -1.7985  0.4920  0.6428
  753SOL    MW4 2786   5.040   0.701   3.467 -0.2320  0.5128 -0.2371
  754SOL     OW 2787   2.094   2.600   1.172 -0.2655  0.1498  0.0574
  754SOL    HW2 2788   2.068   2.682   1.214 -1.4757 -0.1386 -0.0698
  754SOL    HW3 2789   2.101   2.622   1.079 -0.3884  0.1596  0.0500
  754SOL    MW4 2790   2.091   2.614   1.165 -0.4414  0.1130  0.0397
  755SOL     OW 2791   5.619   6.012   0.935 -0.1069  0.1805  0.0594
  755SOL    HW2 2792   5.581   6.022   0.847  0.0052 -1.4599 -0.2107
  755SOL    HW3 2793   5.706   6.051   0.928  0.1348 -0.4724 -0.7413
  755SOL    MW4 2794   5.625   6.019   0.923 -0.0602 -0.1221 -0.0819
  756SOL     OW 2795   5.591   3.254   3.222  0.2344 -0.3098  0.5141
  756SOL    HW2 2796   5.518   3.245   3.161  0.5028  1.2752 -0.0898
  756SOL    HW3 2797   5.657   3.192   3.189  0.3218  0.4124 -0.7634
  756SOL    MW4 2798   5.590   3.244   3.209  0.2814 -0.0054  0.2659
  757SOL     OW 2799   4.067   4.256   0.120 -0.0380 -0.0412 -0.7366
  757SOL    HW2 2800   4.051   4.350   0.112  0.9485  0.1277 -0.9171
  757SOL    HW3 2801   4.032   4.219   0.040  0.0575  0.2495 -0.9161
  757SOL    MW4 2802   4.061   4.264   0.108  0.1048  0.0195 -0.7841
  758SOL     OW 2803   4.770   3.048   1.784 -0.8460 -0.1167 -0.8086
  758SOL    HW2 2804   4.835   2.980   1.766 -0.6586  0.2199 -1.4342
  758SOL    HW3 2805   4.735   3.025   1.870  0.3533 -0.1188 -0.2929
  758SOL    MW4 2806   4.774   3.036   1.793 -0.6630 -0.0726 -0.8231
  759SOL     OW 2807   0.396   0.434   5.777  0.0847  0.0916 -0.1332
  759SOL    HW2 2808   0.459   0.380   5.825 -0.2478 -0.7614 -0.6444
  759SOL    HW3 2809   0.448   0.504   5.739  0.7072 -0.4997 -0.3903
  759SOL    MW4 2810   0.411   0.436   5.778  0.1229 -0.0989 -0.2346
  760SOL     OW 2811   5.777   2.762   2.167 -0.1284  0.0225  0.0098
  760SOL    HW2 2812   5.843   2.741   2.233 -0.8148 -0.7718  0.4641
  760SOL    HW3 2813   5.703   2.799   2.217 -0.8300 -1.0006 -0.2460
  760SOL    MW4 2814   5.776   2.764   2.183 -0.3115 -0.2173  0.0360
  761SOL     OW 2815   2.040   2.267   4.906  0.2311 -0.7279  0.1701
  761SOL    HW2 2816   1.999   2.227   4.983 -1.7626 -0.9005 -0.9189
  761SOL    HW3 2817   2.072   2.193   4.854 -0.6279 -0.7764 -0.3165
  761SOL    MW4 2818   2.039   2.252   4.909 -0.1453 -0.7571 -0.0378
  762SOL     OW 2819   4.263   1.469   2.645 -0.5948  0.0353 -0.1971
  762SOL    HW2 2820   4.197   1.409   2.679 -0.1172 -0.4480 -0.1180
  762SOL    HW3 2821   4.219   1.514   2.573 -0.9792 -0.3525 -0.2090
  762SOL    MW4 2822   4.248   1.467   2.640 -0.5825 -0.0797 -0.1883
  763SOL     OW 2823   3.833   2.090   0.923 -0.0677  0.2079 -0.3244
  763SOL    HW2 2824   3.872   2.003   0.929 -0.9123 -0.1900 -0.4552
  763SOL    HW3 2825   3.902   2.144   0.883  1.2410  0.1307  1.6768
  763SOL    MW4 2826   3.848   2.086   0.918 -0.0065  0.1452 -0.0776
  764SOL     OW 2827   0.683   4.541   1.617 -0.1520 -0.7096  0.4001
  764SOL    HW2 2828   0.745   4.547   1.689 -1.9242  2.5257  1.8621
  764SOL    HW3 2829   0.631   4.463   1.637  0.3301 -0.6905  1.8203
  764SOL    MW4 2830   0.684   4.531   1.629 -0.3222 -0.2802  0.7804
  765SOL     OW 2831   2.455   3.246   1.316  0.2435 -0.6226  0.1795
  765SOL    HW2 2832   2.500   3.292   1.244  0.5713 -0.5577  0.4221
  765SOL    HW3 2833   2.512   3.172   1.336  0.7772  0.0400  1.1831
  765SOL    MW4 2834   2.469   3.243   1.309  0.3572 -0.5266  0.3439
  766SOL     OW 2835   4.815   1.837   3.897  0.9722  0.1970 -0.0641
  766SOL    HW2 2836   4.895   1.874   3.861  0.1088  1.3430 -0.9083
  766SOL    HW3 2837   4.745   1.879   3.846 -0.1488 -0.9236  0.5092
  766SOL    MW4 2838   4.816   1.847   3.885  0.7104  0.2003 -0.0998
  767SOL     OW 2839   2.790   4.874   3.524 -0.2546 -0.7380 -0.1203
  767SOL    HW2 2840   2.745   4.805   3.573 -2.9504  0.8671 -0.1136
  767SOL    HW3 2841   2.754   4.867   3.435  0.0712  0.1189 -0.3312
  767SOL    MW4 2842   2.779   4.864   3.518 -0.5673 -0.4132 -0.1473
  768SOL     OW 2843   4.114   4.796   1.370 -0.9539 -0.4264 -0.1321
  768SOL    HW2 2844   4.032   4.828   1.332 -0.4017  0.7457 -0.3929
  768SOL    HW3 2845   4.102   4.809   1.464 -1.0699 -0.2585 -0.1683
  768SOL    MW4 2846   4.101   4.802   1.378 -0.8963 -0.2496 -0.1712
  769SOL     OW 2847   4.943   5.032   0.651  0.0670 -0.0474 -0.2729
  769SOL    HW2 2848   4.949   4.939   0.626  0.0774 -0.5543  1.4991
  769SOL    HW3 2849   4.988   5.037   0.735 -0.1018  1.5419 -0.2534
  769SOL    MW4 2850   4.950   5.020   0.658  0.0461  0.0954 -0.0365
  770SOL     OW 2851   4.745   0.292   2.349 -0.2998  0.5599  0.0968
  770SOL    HW2 2852   4.653   0.271   2.364 -0.2661  0.0192 -0.3984
  770SOL    HW3 2853   4.769   0.239   2.273  0.2074  1.2848 -0.2622
  770SOL    MW4 2854   4.736   0.282   2.341 -0.2285  0.5842 -0.0159
  771SOL     OW 2855   3.473   0.702   4.445 -0.2721 -0.4245 -0.5643
  771SOL    HW2 2856   3.555   0.675   4.404  1.5280  1.0219  1.7977
  771SOL    HW3 2857   3.476   0.798   4.445 -1.4844 -0.3537  0.4758
  771SOL    MW4 2858   3.484   0.711   4.440 -0.1945 -0.2243 -0.1154
  772SOL     OW 2859   5.171   0.746   0.824  0.5557  0.0733  0.4926
  772SOL    HW2 2860   5.093   0.792   0.855 -0.5388 -0.3352 -1.4793
  772SOL    HW3 2861   5.137   0.666   0.784  2.1371 -0.8307  0.8920
  772SOL    MW4 2862   5.156   0.741   0.823  0.6200 -0.0999  0.2851
  773SOL     OW 2863   5.173   4.499   4.505 -0.0153  0.1833  0.4830
  773SOL    HW2 2864   5.092   4.505   4.557  0.6412  0.6436  1.4735
  773SOL    HW3 2865   5.156   4.554   4.429 -0.9277 -0.3619  0.2720
  773SOL    MW4 2866   5.160   4.507   4.502 -0.0491  0.1721  0.5858
  774SOL     OW 2867   5.206   2.739   3.387 -0.3517 -0.0883  0.3284
  774SOL    HW2 2868   5.140   2.802   3.416 -0.0785  0.5038 -0.3055
  774SOL    HW3 2869   5.264   2.727   3.462  0.2599  1.3002  0.1113
  774SOL    MW4 2870   5.205   2.745   3.401 -0.2350  0.1730  0.2161
  775SOL     OW 2871   4.940   0.399   6.378  0.0024  0.2018  0.0497
  775SOL    HW2 2872   5.023   0.378   6.421 -0.1282  0.3397  0.3761
  775SOL    HW3 2873   4.908   0.476   6.424 -0.5109 -0.0937  0.2022
  775SOL    MW4 2874   4.947   0.406   6.390 -0.0826  0.1810  0.1129
  776SOL     OW 2875   5.128   2.019   2.391 -0.5644  0.0807 -0.6871
  776SOL    HW2 2876   5.172   2.036   2.307  0.1071  1.4910 -0.0990
  776SOL    HW3 2877   5.186   1.958   2.436 -0.5913 -0.1754 -1.0001
  776SOL    MW4 2878   5.142   2.013   2.386 -0.4793  0.2330 -0.6508
  777SOL     OW 2879   5.790   2.343   0.204 -0.0778  0.5975 -0.3622
  777SOL    HW2 2880   5.885   2.347   0.220  0.2279 -1.4848 -1.3149
  777SOL    HW3 2881   5.766   2.433   0.180  2.0788  0.7866 -2.1650
  777SOL    MW4 2882   5.800   2.356   0.203  0.2470  0.3477 -0.7257
  778SOL     OW 2883   2.536   3.080   4.401  0.3297 -0.7844  0.4864
  778SOL    HW2 2884   2.600   3.136   4.355 -0.2713 -0.3369  0.1794
  778SOL    HW3 2885   2.585   3.045   4.476  0.8012 -0.0626  0.5345
  778SOL    MW4 2886   2.551   3.083   4.405  0.3126 -0.6301  0.4523
  779SOL     OW 2887   5.925   2.387   3.146  0.0875 -0.5954  0.5781
  779SOL    HW2 2888   5.899   2.305   3.104 -0.2784 -0.4800  0.5749
  779SOL    HW3 2889   6.008   2.366   3.190  0.2073 -0.8546  0.2359
  779SOL    MW4 2890   5.933   2.373   3.146  0.0551 -0.6143  0.5325
  780SOL     OW 2891   4.130   0.834   4.918  0.1934  0.6235  0.5412
  780SOL    HW2 2892   4.148   0.887   4.995 -0.3656  0.7263  0.6092
  780SOL    HW3 2893   4.147   0.744   4.945  1.7138  0.7955  0.2569
  780SOL    MW4 2894   4.134   0.829   4.932  0.3202  0.6597  0.5127
  781SOL     OW 2895   2.801   0.358   0.324  0.1239  0.4696  0.1268
  781SOL    HW2 2896   2.839   0.293   0.264 -0.4451 -0.6999  1.0017
  781SOL    HW3 2897   2.817   0.323   0.411 -2.8958 -0.0952  0.5666
  781SOL    MW4 2898   2.808   0.345   0.327 -0.3496  0.2408  0.3002
  782SOL     OW 2899   0.878   1.470   1.392 -0.6172 -0.1279 -0.1808
  782SOL    HW2 2900   0.936   1.525   1.443 -0.0758  0.5625 -1.4783
  782SOL    HW3 2901   0.807   1.446   1.452 -0.6419  1.6256  0.5418
  782SOL    MW4 2902   0.876   1.474   1.406 -0.5490  0.1946 -0.2566
  783SOL     OW 2903   5.136   5.013   4.316  0.2149  0.1654 -0.6228
  783SOL    HW2 2904   5.181   5.094   4.343 -0.3748 -0.2148  1.7883
  783SOL    HW3 2905   5.054   5.043   4.278  1.9237  0.8250 -4.2549
  783SOL    MW4 2906   5.131   5.028   4.315  0.3625  0.2022 -0.7839
  784SOL     OW 2907   2.818   2.237   3.696  0.1167 -0.1485 -0.3368
  784SOL    HW2 2908   2.865   2.155   3.707  0.0337 -0.0757  0.6603
  784SOL    HW3 2909   2.759   2.222   3.622  0.5914 -0.7547 -0.5896
  784SOL    MW4 2910   2.816   2.225   3.688  0.1683 -0.2188 -0.2386
  785SOL     OW 2911   4.996   3.897   3.612 -0.2379 -0.6982 -0.8807
  785SOL    HW2 2912   4.969   3.822   3.558 -1.7709 -0.0109 -1.1087
  785SOL    HW3 2913   5.057   3.945   3.556 -0.6984 -0.7743 -1.4607
  785SOL    MW4 2914   5.001   3.894   3.597 -0.5009 -0.6175 -0.9873
  786SOL     OW 2915   4.977   0.378   1.263  0.5890 -0.0921  0.8000
  786SOL    HW2 2916   4.968   0.453   1.204 -1.1651 -0.0360  1.0830
  786SOL    HW3 2917   5.028   0.411   1.337  0.6379  0.5518  0.4807
  786SOL    MW4 2918   4.983   0.392   1.265  0.3640  0.0003  0.7952
  787SOL     OW 2919   2.592   0.020   6.300  0.2920 -0.8169 -0.1896
  787SOL    HW2 2920   2.504   0.058   6.295  0.0329 -1.0356  1.8951
  787SOL    HW3 2921   2.591  -0.031   6.381  2.1943 -1.2562 -0.4078
  787SOL    MW4 2922   2.580   0.018   6.310  0.5088 -0.9037  0.0567
  788SOL     OW 2923   4.743   0.894   2.442 -0.2270  0.2106  0.0760
  788SOL    HW2 2924   4.695   0.968   2.405 -0.9451 -0.0477  0.4774
  788SOL    HW3 2925   4.770   0.843   2.365  0.3996  0.9453 -0.2116
  788SOL    MW4 2926   4.741   0.897   2.427 -0.2391  0.2735  0.0910
  789SOL     OW 2927   2.158   4.918   5.975 -0.2733 -0.0932  0.0989
  789SOL    HW2 2928   2.083   4.970   6.006  0.8044  0.4028  2.0618
  789SOL    HW3 2929   2.214   4.982   5.931 -1.1047 -0.5263 -1.6698
  789SOL    MW4 2930   2.156   4.933   5.974 -0.2408 -0.0849  0.1245
  790SOL     OW 2931   2.414   5.109   6.378 -0.4391 -0.0623 -0.8150
  790SOL    HW2 2932   2.390   5.047   6.446 -0.4702  0.8959  0.0707
  790SOL    HW3 2933   2.459   5.057   6.312 -0.7893 -1.0770 -0.2637
  790SOL    MW4 2934   2.417   5.094   6.378 -0.4894 -0.0697 -0.6254
  791SOL     OW 2935   2.037   1.397   0.068  0.6282 -0.2020 -0.0757
  791SOL    HW2 2936   1.974   1.466   0.046  0.6051 -0.3533 -0.4969
  791SOL    HW3 2937   1.987   1.336   0.123  0.7738  0.3414  0.6817
  791SOL    MW4 2938   2.022   1.398   0.072  0.6444 -0.1503 -0.0314
  792SOL     OW 2939   4.094   1.426   3.253 -0.2166 -0.5466  0.7392
  792SOL    HW2 2940   4.089   1.360   3.322  0.7502  0.7942  2.1680
  792SOL    HW3 2941   4.165   1.484   3.281  0.8482 -0.4611 -1.8649
  792SOL    MW4 2942   4.103   1.425   3.266  0.0514 -0.3584  0.5841
  793SOL     OW 2943   3.540   4.312   4.137 -0.7720  0.3750  0.2956
  793SOL    HW2 2944   3.627   4.274   4.144  0.3775  2.6859 -0.4922
  793SOL    HW3 2945   3.497   4.289   4.219  1.5904  1.5352  1.9842
  793SOL    MW4 2946   3.546   4.304   4.149 -0.3087  0.8330  0.4145
  794SOL     OW 2947   1.950   4.236   3.093  0.2987 -0.2342  0.2909
  794SOL    HW2 2948   1.899   4.176   3.148 -0.9442  0.5889  0.0799
  794SOL    HW3 2949   2.001   4.179   3.036  1.4561 -1.1207  2.1011
  794SOL    MW4 2950   1.950   4.220   3.093  0.2875 -0.2426  0.5019
  795SOL     OW 2951   2.016   0.643   1.417  0.2239  0.4383 -0.1264
  795SOL    HW2 2952   2.022   0.699   1.495  0.2466 -0.2914  0.4113
  795SOL    HW3 2953   2.006   0.704   1.344 -2.1313  1.1049  0.6505
  795SOL    MW4 2954   2.015   0.658   1.418 -0.0838  0.4300  0.0470
  796SOL     OW 2955   4.046   2.328   2.657 -0.0826  0.7348  0.0373
  796SOL    HW2 2956   3.978   2.321   2.724 -0.7848  0.3275 -0.6890
  796SOL    HW3 2957   4.031   2.253   2.600  1.3386  0.3300  0.1598
  796SOL    MW4 2958   4.035   2.317   2.658  0.0123  0.6277 -0.0424
  797SOL     OW 2959   0.337   3.093   5.331  0.2828 -0.0826  0.0637
  797SOL    HW2 2960   0.270   3.089   5.263 -0.4552 -0.8592  0.8096
  797SOL    HW3 2961   0.343   3.003   5.364  0.5723  0.2861  1.0611
  797SOL    MW4 2962   0.329   3.081   5.327  0.2236 -0.1364  0.2937
  798SOL     OW 2963   0.740   4.159   0.925  0.1297 -0.4892 -0.2633
  798SOL    HW2 2964   0.753   4.117   0.839  0.1274  1.2336 -1.1510
  798SOL    HW3 2965   0.660   4.210   0.915  0.6190  0.4604  0.4530
  798SOL    MW4 2966   0.731   4.160   0.912  0.1940 -0.1366 -0.2859
  799SOL     OW 2967   5.249   1.013   2.079  0.6290 -0.2857  0.0314
  799SOL    HW2 2968   5.325   1.060   2.114  0.4486  0.6257 -0.7592
  799SOL    HW3 2969   5.174   1.048   2.128  0.4246  0.6988 -0.9628
  799SOL    MW4 2970   5.249   1.024   2.090  0.5782 -0.0356 -0.2041
  800SOL     OW 2971   5.930   2.923   3.831 -0.0036  0.4087 -0.2392
  800SOL    HW2 2972   5.973   2.841   3.807  0.1844  0.8239 -1.4271
  800SOL    HW3 2973   5.964   2.944   3.918  2.0798  0.6023 -1.0278
  800SOL    MW4 2974   5.941   2.915   3.839  0.2961  0.4890 -0.5000
  801SOL     OW 2975   3.812   3.501   0.671 -0.2821 -0.4149  0.4518
  801SOL    HW2 2976   3.831   3.499   0.578  0.1086  0.1820  0.5089
  801SOL    HW3 2977   3.877   3.443   0.711 -0.6318 -0.8970  0.3307
  801SOL    MW4 2978   3.823   3.493   0.664 -0.2767 -0.3998  0.4434
  802SOL     OW 2979   4.671   5.008   1.571 -0.6332 -0.4854  0.0363
  802SOL    HW2 2980   4.765   5.017   1.586 -0.8605 -1.8455  2.7486
  802SOL    HW3 2981   4.660   5.034   1.479  2.0289  1.8491  0.2285
  802SOL    MW4 2982   4.682   5.012   1.561 -0.3119 -0.3569  0.4195
  803SOL     OW 2983   3.775   1.805   4.774 -0.2590 -0.3765 -0.6599
  803SOL    HW2 2984   3.740   1.795   4.862  0.2244 -0.7307 -0.5067
  803SOL    HW3 2985   3.834   1.731   4.762 -1.1202 -0.9371 -1.6708
  803SOL    MW4 2986   3.778   1.794   4.784 -0.3089 -0.4972 -0.7731
  804SOL     OW 2987   0.820   1.075   1.438  0.3085 -0.1921  0.3162
  804SOL    HW2 2988   0.903   1.068   1.486  0.0484 -1.0637  0.6600
  804SOL    HW3 2989   0.769   1.000   1.467  0.0477 -0.6278 -1.1668
  804SOL    MW4 2990   0.824   1.064   1.448  0.2398 -0.3646  0.1659
  805SOL     OW 2991   5.054   6.143   4.564  0.2603 -0.0525  0.1835
  805SOL    HW2 2992   5.069   6.205   4.493  0.0326 -1.5918 -1.2782
  805SOL    HW3 2993   5.127   6.157   4.624 -0.0553  1.9352  0.1629
  805SOL    MW4 2994   5.066   6.153   4.563  0.1887  0.0066 -0.0120
  806SOL     OW 2995   5.813   1.164   3.807 -0.5635 -0.2620  0.1482
  806SOL    HW2 2996   5.803   1.256   3.832  0.4055  0.1144 -0.7683
  806SOL    HW3 2997   5.732   1.143   3.760 -0.3597  0.4611 -0.5643
  806SOL    MW4 2998   5.801   1.173   3.804 -0.4088 -0.1169 -0.0667
  807SOL     OW 2999   0.345   2.244   1.330  0.5627  0.1801  0.0745
  807SOL    HW2 3000   0.283   2.289   1.272  0.3711  0.0769  0.1950
  807SOL    HW3 3001   0.332   2.151   1.309 -0.3333  0.0583  1.0784
  807SOL    MW4 3002   0.335   2.237   1.319  0.4192  0.1504  0.2229
  808SOL     OW 3003   3.317   4.678   1.434  0.3341 -0.0353  0.4612
  808SOL    HW2 3004   3.309   4.583   1.440 -1.1080 -0.1187 -1.6211
  808SOL    HW3 3005   3.287   4.699   1.345  1.9207  2.2461  0.3852
  808SOL    MW4 3006   3.312   4.668   1.423  0.3532  0.2547  0.1765
  809SOL     OW 3007   2.375   5.725   1.580  0.3279  0.6620 -0.1084
  809SOL    HW2 3008   2.436   5.669   1.628  0.1220  0.9927  0.5490
  809SOL    HW3 3009   2.381   5.695   1.489 -0.5143 -1.0894  0.3740
  809SOL    MW4 3010   2.384   5.714   1.574  0.1896  0.4746  0.0420
  810SOL     OW 3011   5.881   2.614   4.773  0.1212  0.0975  0.0824
  810SOL    HW2 3012   5.847   2.526   4.759  0.3921  0.0300 -0.1464
  810SOL    HW3 3013   5.805   2.671   4.763  0.3435  0.0935 -2.0086
  810SOL    MW4 3014   5.866   2.610   4.770  0.1863  0.0880 -0.2236
  811SOL     OW 3015   5.131   1.625   6.280 -0.0635 -0.1601  0.5228
  811SOL    HW2 3016   5.151   1.633   6.187  0.1505  1.3878  0.6768
  811SOL    HW3 3017   5.066   1.555   6.284 -0.0622 -0.2724 -0.7822
  811SOL    MW4 3018   5.125   1.616   6.268 -0.0351  0.0293  0.3709
  812SOL     OW 3019   0.428   6.003   2.361 -0.3559  0.1952 -0.4727
  812SOL    HW2 3020   0.361   5.985   2.294 -1.4736  1.0336  0.3724
  812SOL    HW3 3021   0.430   5.924   2.415  0.0694 -0.2204 -1.0790
  812SOL    MW4 3022   0.419   5.990   2.359 -0.4473  0.2510 -0.4412
  813SOL     OW 3023   0.279   1.368   4.223  0.9999  0.0446 -0.2550
  813SOL    HW2 3024   0.341   1.415   4.168  1.6150 -1.3019 -0.7632
  813SOL    HW3 3025   0.216   1.330   4.162 -0.1833  1.1494  0.2374
  813SOL    MW4 3026   0.279   1.369   4.208  0.9250  0.0127 -0.2571
  814SOL     OW 3027   3.274   0.364   6.255 -0.0766 -0.0221 -0.0032
  814SOL    HW2 3028   3.273   0.391   6.163 -1.6768  0.9110  0.2363
  814SOL    HW3 3029   3.303   0.442   6.302 -2.9566  0.8538  0.5453
  814SOL    MW4 3030   3.278   0.378   6.249 -0.6677  0.2166  0.1008
  815SOL     OW 3031   2.977   3.330   0.017  0.5038  0.7373 -0.1170
  815SOL    HW2 3032   2.932   3.306   0.098  1.3117  0.3272  0.2147
  815SOL    HW3 3033   3.069   3.314   0.035  0.6917  0.6575 -1.1143
  815SOL    MW4 3034   2.983   3.325   0.030  0.6352  0.6727 -0.2048
  816SOL     OW 3035   3.737   0.262   2.287  0.0249 -0.0682 -0.0574
  816SOL    HW2 3036   3.775   0.350   2.290  1.2224 -0.5255  3.6491
  816SOL    HW3 3037   3.645   0.276   2.308  0.3411  0.3439  1.1971
  816SOL    MW4 3038   3.730   0.276   2.290  0.2246 -0.0742  0.5971
  817SOL     OW 3039   2.908   4.147   0.685 -0.2038 -0.1047 -0.0193
  817SOL    HW2 3040   2.869   4.193   0.611  1.2274 -0.7155 -1.2117
  817SOL    HW3 3041   2.836   4.097   0.724 -1.8821  3.1494  1.4677
  817SOL    MW4 3042   2.894   4.146   0.681 -0.2364  0.2441  0.0195
  818SOL     OW 3043   4.794   5.492   1.971 -0.0198  0.2199 -0.0143
  818SOL    HW2 3044   4.889   5.484   1.957  0.0262 -0.3007  0.5417
  818SOL    HW3 3045   4.785   5.556   2.041 -0.0128 -0.5602  0.7167
  818SOL    MW4 3046   4.805   5.499   1.978 -0.0128  0.0483  0.1555
  819SOL     OW 3047   4.436   2.980   1.218 -0.2517  0.5170 -0.5821
  819SOL    HW2 3048   4.351   2.937   1.216  0.8452 -1.7788 -0.4519
  819SOL    HW3 3049   4.476   2.950   1.299  2.2702 -1.8534 -2.4972
  819SOL    MW4 3050   4.430   2.971   1.228  0.2257 -0.0987 -0.8176
  820SOL     OW 3051   1.789   5.939   0.520  0.2037  0.6670  0.3386
  820SOL    HW2 3052   1.820   5.849   0.522  1.0413  0.8963 -0.8795
  820SOL    HW3 3053   1.710   5.936   0.466 -0.2089  0.5523  0.9403
  820SOL    MW4 3054   1.783   5.927   0.513  0.2598  0.6821  0.2573
  821SOL     OW 3055   4.633   1.590   2.968  0.0813 -0.0096  0.4241
  821SOL    HW2 3056   4.678   1.513   3.003  0.3916 -0.1780 -0.3245
  821SOL    HW3 3057   4.550   1.557   2.935  0.3882 -0.1029 -0.2695
  821SOL    MW4 3058   4.628   1.576   2.968  0.1627 -0.0441  0.2338
  822SOL     OW 3059   4.113   2.079   2.116  0.3794 -0.5640 -0.2286
  822SOL    HW2 3060   4.039   2.087   2.057 -0.4422  0.3759  0.8848
  822SOL    HW3 3061   4.190   2.084   2.059 -0.3877 -0.5196 -1.2858
  822SOL    MW4 3062   4.114   2.080   2.101  0.1698 -0.4341 -0.2212
  823SOL     OW 3063   5.174   1.859   2.790  0.8441  0.5127 -0.9317
  823SOL    HW2 3064   5.093   1.888   2.749  0.8675  1.0085 -0.6288
  823SOL    HW3 3065   5.146   1.807   2.865  0.8066  1.1503 -0.5019
  823SOL    MW4 3066   5.160   1.856   2.794  0.8422  0.6622 -0.8351
  824SOL     OW 3067   5.113   2.483   0.558  0.0230 -0.1880 -0.4393
  824SOL    HW2 3068   5.158   2.399   0.566  2.6838  1.0878 -0.9107
  824SOL    HW3 3069   5.063   2.476   0.476 -2.9683 -2.5459  1.3450
  824SOL    MW4 3070   5.112   2.471   0.548 -0.0206 -0.3308 -0.2660
  825SOL     OW 3071   2.603   2.171   3.559  0.8133  0.2923 -0.0594
  825SOL    HW2 3072   2.586   2.245   3.500  0.2310 -1.2301 -1.9243
  825SOL    HW3 3073   2.517   2.134   3.577  0.9691  0.7809  1.9205
  825SOL    MW4 3074   2.590   2.176   3.553  0.7570  0.1559 -0.0442
  826SOL     OW 3075   0.409   5.432   1.556  0.1118  0.2365  0.0347
  826SOL    HW2 3076   0.453   5.422   1.471 -2.9055  0.0975 -1.6829
  826SOL    HW3 3077   0.333   5.487   1.536  0.6687  2.4648  3.2769
  826SOL    MW4 3078   0.405   5.438   1.542 -0.2128  0.5121  0.2358
  827SOL     OW 3079   4.039   1.357   5.722 -0.1810  0.1296  0.6835
  827SOL    HW2 3080   4.103   1.401   5.779 -0.3616 -0.1184  1.0838
  827SOL    HW3 3081   3.984   1.307   5.782 -1.0853  0.7547  0.4052
  827SOL    MW4 3082   4.040   1.357   5.738 -0.3241  0.1794  0.6996
  828SOL     OW 3083   4.734   5.312   6.358  0.2658  0.8268  0.8855
  828SOL    HW2 3084   4.707   5.403   6.370  0.9892  0.9967  1.2381
  828SOL    HW3 3085   4.746   5.304   6.263  0.6203  1.2203  0.8923
  828SOL    MW4 3086   4.732   5.323   6.347  0.4081  0.9011  0.9329
  829SOL     OW 3087   6.352   0.496   2.941  1.2019 -0.2474  0.0840
  829SOL    HW2 3088   6.408   0.487   2.864 -0.4124 -0.2208 -1.1642
  829SOL    HW3 3089   6.366   0.585   2.970 -1.5014  1.4374 -3.0708
  829SOL    MW4 3090   6.361   0.506   2.934  0.6322 -0.0216 -0.4969
  830SOL     OW 3091   0.249   5.546   0.677 -0.3875 -0.6785  0.0121
  830SOL    HW2 3092   0.202   5.629   0.689 -1.2366 -1.2472  0.7275
  830SOL    HW3 3093   0.332   5.558   0.723  0.2379  0.3606 -1.3125
  830SOL    MW4 3094   0.254   5.559   0.685 -0.4170 -0.6164 -0.0683
  831SOL     OW 3095   0.222   1.062   1.730 -0.0635  0.3787  0.5911
  831SOL    HW2 3096   0.128   1.065   1.743  0.0988  1.7091  1.7193
  831SOL    HW3 3097   0.259   1.067   1.819  1.0675  0.6736  0.1328
  831SOL    MW4 3098   0.215   1.063   1.743  0.1071  0.5931  0.6795
  832SOL     OW 3099   1.191   2.245   4.983  0.0692  0.3322  0.0315
  832SOL    HW2 3100   1.110   2.289   5.006  0.2360  0.4008  0.5056
  832SOL    HW3 3101   1.200   2.176   5.049 -0.2216 -0.4606 -0.7329
  832SOL    MW4 3102   1.182   2.242   4.995  0.0528  0.2366 -0.0068
  833SOL     OW 3103   4.221   1.925   2.555 -0.0173  0.0339  0.2236
  833SOL    HW2 3104   4.142   1.895   2.510 -0.4014 -0.7367  1.3652
  833SOL    HW3 3105   4.291   1.867   2.524 -0.3841 -0.8421  0.9957
  833SOL    MW4 3106   4.220   1.914   2.545 -0.1164 -0.1833  0.4761
  834SOL     OW 3107   4.731   0.542   1.598 -0.2040 -0.1941  0.1176
  834SOL    HW2 3108   4.735   0.487   1.520  0.4351 -0.1571  0.1213
  834SOL    HW3 3109   4.702   0.627   1.566  1.9946  0.4146 -0.4270
  834SOL    MW4 3110   4.728   0.546   1.584  0.1704 -0.1089  0.0462
  835SOL     OW 3111   4.814   0.344   5.465 -0.4526 -0.2548  0.3629
  835SOL    HW2 3112   4.819   0.381   5.377 -2.2430 -0.6508  0.0429
  835SOL    HW3 3113   4.819   0.249   5.452  1.2110 -0.2596  0.8943
  835SOL    MW4 3114   4.815   0.336   5.452 -0.4693 -0.3077  0.3908
  836SOL     OW 3115   2.677   3.510   0.301 -0.5999  0.3669  0.5453
  836SOL    HW2 3116   2.708   3.430   0.258 -2.6268 -1.1995  1.8350
  836SOL    HW3 3117   2.739   3.578   0.272  0.7934 -1.4926 -1.1347
  836SOL    MW4 3118   2.689   3.509   0.291 -0.6835 -0.0851  0.4938
  837SOL     OW 3119   5.299   4.135   0.684  0.2894  0.5448  0.3999
  837SOL    HW2 3120   5.376   4.121   0.738  1.6291 -1.5849 -1.8551
  837SOL    HW3 3121   5.246   4.056   0.696 -0.3707  0.9409  0.1404
  837SOL    MW4 3122   5.302   4.123   0.693  0.3791  0.3160  0.0682
  838SOL     OW 3123   2.059   2.646   6.265  0.1073  0.2917 -0.1678
  838SOL    HW2 3124   2.042   2.707   6.193 -1.5188 -0.9295 -0.8888
  838SOL    HW3 3125   2.008   2.568   6.243  0.4492 -0.5427  1.7653
  838SOL    MW4 3126   2.050   2.644   6.253 -0.0622  0.0205 -0.0079
  839SOL     OW 3127   4.997   2.383   2.694 -0.1606  0.3064  0.3401
  839SOL    HW2 3128   4.945   2.362   2.616 -0.1079  3.2011 -0.5925
  839SOL    HW3 3129   5.051   2.306   2.708 -1.8796 -1.2577 -1.0280
  839SOL    MW4 3130   4.997   2.370   2.685 -0.3805  0.4819  0.0365
  840SOL     OW 3131   0.598   5.893   2.663  0.2745  0.0637  0.7939
  840SOL    HW2 3132   0.628   5.804   2.681  1.5036  0.7591  2.4526
  840SOL    HW3 3133   0.512   5.898   2.704 -0.6837 -0.8974 -0.9839
  840SOL    MW4 3134   0.590   5.882   2.671  0.3102  0.0287  0.7782
  841SOL     OW 3135   2.285   2.071   0.703  0.5657 -0.1331  0.3866
  841SOL    HW2 3136   2.351   2.095   0.768  1.4319 -1.6801  0.1104
  841SOL    HW3 3137   2.216   2.027   0.754  0.6266 -0.1889  0.4202
  841SOL    MW4 3138   2.284   2.069   0.719  0.6880 -0.3446  0.3546
  842SOL     OW 3139   2.063   4.209   4.575  0.2194 -0.3037  0.0556
  842SOL    HW2 3140   2.043   4.300   4.552  2.0396  0.5597  1.5831
  842SOL    HW3 3141   2.143   4.189   4.527  0.1620 -0.9065  0.1999
  842SOL    MW4 3142   2.071   4.219   4.566  0.4520 -0.2693  0.2762
  843SOL     OW 3143   0.074   5.972   5.653  0.3748  0.0955 -0.1331
  843SOL    HW2 3144   0.074   5.905   5.585  2.1689  1.0137 -1.1156
  843SOL    HW3 3145   0.126   6.044   5.617  4.3886 -0.6389  3.3054
  843SOL    MW4 3146   0.081   5.973   5.640  1.1411  0.1197  0.1910
  844SOL     OW 3147   5.347   5.728   4.287 -0.2132 -0.1035 -0.2398
  844SOL    HW2 3148   5.273   5.730   4.348  0.6301  1.6276  0.8011
  844SOL    HW3 3149   5.412   5.675   4.332  0.3538  1.0504  0.3371
  844SOL    MW4 3150   5.346   5.721   4.301 -0.0271  0.2771 -0.0264
  845SOL     OW 3151   5.668   6.395   5.588  0.8866 -0.0075  0.4577
  845SOL    HW2 3152   5.743   6.451   5.565  1.1987 -0.2698  0.8260
  845SOL    HW3 3153   5.611   6.452   5.640  1.3528 -0.1114  1.0948
  845SOL    MW4 3154   5.670   6.410   5.591  0.9893 -0.0558  0.5903
  846SOL     OW 3155   1.576   0.970   0.699 -0.2002  0.1741 -0.1683
  846SOL    HW2 3156   1.492   0.942   0.663  0.1078 -0.6962 -0.2510
  846SOL    HW3 3157   1.631   0.891   0.695  0.3372  0.4877  0.7162
  846SOL    MW4 3158   1.572   0.956   0.694 -0.0886  0.1006 -0.0625
  847SOL     OW 3159   5.678   4.265   2.881 -0.7879  0.3424  0.4240
  847SOL    HW2 3160   5.679   4.187   2.936 -3.6377  1.3412  2.0900
  847SOL    HW3 3161   5.667   4.232   2.792 -1.6919 -1.1800  1.0710
  847SOL    MW4 3162   5.677   4.250   2.877 -1.2832  0.2733  0.7291
  848SOL     OW 3163   5.426   1.363   0.095  0.4944 -0.0887  0.2714
  848SOL    HW2 3164   5.518   1.358   0.069  0.0800 -0.5601 -1.2411
  848SOL    HW3 3165   5.427   1.406   0.181  2.3277 -2.4551  1.5500
  848SOL    MW4 3166   5.438   1.368   0.103  0.6816 -0.4631  0.2405
  849SOL     OW 3167   4.517   0.330   5.446  0.9771  0.9633  0.0083
  849SOL    HW2 3168   4.530   0.284   5.363  0.0642 -0.5774  0.6703
  849SOL    HW3 3169   4.605   0.357   5.473  1.8427 -1.9348  0.4009
  849SOL    MW4 3170   4.531   0.328   5.439  0.9708  0.3777  0.1474
  850SOL     OW 3171   0.118   2.484   2.932 -0.0498  0.4193  0.1609
  850SOL    HW2 3172   0.211   2.508   2.937  1.1169 -3.3834  0.2352
  850SOL    HW3 3173   0.077   2.531   3.005  1.9854  1.5262  0.6682
  850SOL    MW4 3174   0.125   2.493   2.942  0.3726  0.0636  0.2377
  851SOL     OW 3175   3.740   0.445   4.728  0.3554  0.1405  0.1863
  851SOL    HW2 3176   3.820   0.494   4.711  1.1330 -1.2728 -0.4035
  851SOL    HW3 3177   3.766   0.378   4.792  0.0038 -1.1532 -0.9666
  851SOL    MW4 3178   3.754   0.442   4.735  0.4116 -0.2167 -0.0436
  852SOL     OW 3179   3.960   5.359   4.901  0.5701  0.3327 -0.1165
  852SOL    HW2 3180   3.991   5.269   4.906  1.2425  0.4749 -1.1897
  852SOL    HW3 3181   3.869   5.356   4.930  1.4631 -0.1376  2.9829
  852SOL    MW4 3182   3.952   5.347   4.905  0.7766  0.2894  0.1509
  853SOL     OW 3183   2.356   1.246   1.343  0.3364 -0.1121  0.4034
  853SOL    HW2 3184   2.290   1.188   1.382  1.0382  0.6842  2.9640
  853SOL    HW3 3185   2.438   1.198   1.352  0.5718  0.2543  0.2004
  853SOL    MW4 3186   2.358   1.232   1.349  0.4601  0.0413  0.7145
  854SOL     OW 3187   2.206   5.987   1.193  0.4485  0.1478  0.1824
  854SOL    HW2 3188   2.202   5.898   1.228  0.6901  0.7665  1.8553
  854SOL    HW3 3189   2.298   5.998   1.168 -0.0199 -0.8399 -2.2624
  854SOL    MW4 3190   2.218   5.977   1.194  0.4186  0.0991  0.0806
  855SOL     OW 3191   2.084   4.945   4.000  0.4420  0.5096 -0.2632
  855SOL    HW2 3192   2.136   4.868   3.976 -0.4500 -0.4469  0.7893
  855SOL    HW3 3193   2.033   4.966   3.922  0.0107 -0.5380 -0.2682
  855SOL    MW4 3194   2.084   4.938   3.987  0.2674  0.2452 -0.1250
  856SOL     OW 3195   6.054   4.479   5.536  0.0103  0.2350  0.1291
  856SOL    HW2 3196   6.077   4.515   5.450 -1.9283  3.1345  0.7210
  856SOL    HW3 3197   6.130   4.426   5.560  1.4350  0.9045 -2.4940
  856SOL    MW4 3198   6.067   4.476   5.528 -0.0575  0.7059 -0.1389
  857SOL     OW 3199   2.883   1.912   1.048 -0.2612  0.6146 -0.5675
  857SOL    HW2 3200   2.847   1.859   0.976 -1.2980 -0.2927  0.5830
  857SOL    HW3 3201   2.808   1.929   1.105  0.2817  2.4153 -0.3177
  857SOL    MW4 3202   2.869   1.908   1.046 -0.3263  0.7325 -0.3827
  858SOL     OW 3203   0.476   0.523   1.031  0.0269  0.0180  0.0885
  858SOL    HW2 3204   0.546   0.576   0.992 -0.4609  0.4359 -0.2293
  858SOL    HW3 3205   0.400   0.538   0.975  0.3825 -2.6166 -1.2341
  858SOL    MW4 3206   0.476   0.532   1.018  0.0094 -0.2745 -0.1279
  859SOL     OW 3207   4.636   6.023   0.487  0.1451 -0.3620 -0.6282
  859SOL    HW2 3208   4.589   6.093   0.531 -0.7263 -0.2635 -1.6923
  859SOL    HW3 3209   4.710   6.066   0.445  0.5532 -0.3470  0.0843
  859SOL    MW4 3210   4.640   6.038   0.487  0.0839 -0.3470 -0.6746
  860SOL     OW 3211   3.129   2.561   2.367  0.0369  0.0647 -0.0591
  860SOL    HW2 3212   3.047   2.607   2.350  1.4879  2.0767 -2.0976
  860SOL    HW3 3213   3.176   2.616   2.429  0.7109  0.0299 -0.5209
  860SOL    MW4 3214   3.125   2.574   2.373  0.3173  0.3256 -0.3890
  861SOL     OW 3215   4.714   4.676   4.709 -0.3736  0.1886 -0.1578
  861SOL    HW2 3216   4.700   4.749   4.648  0.0053  1.0897  0.8006
  861SOL    HW3 3217   4.694   4.598   4.658 -4.0523  1.0596 -0.3288
  861SOL    MW4 3218   4.710   4.676   4.694 -0.8090  0.4224 -0.0539
  862SOL     OW 3219   1.406   0.874   2.769  0.6963 -0.2678  0.6697
  862SOL    HW2 3220   1.466   0.901   2.838 -1.1293  1.5485  1.6450
  862SOL    HW3 3221   1.451   0.898   2.688  1.7758 -0.0555  1.3018
  862SOL    MW4 3222   1.420   0.880   2.767  0.5979 -0.0002  0.8818
  863SOL     OW 3223   3.158   2.313   2.694  0.1696  0.2121  0.5423
  863SOL    HW2 3224   3.191   2.376   2.630  0.8680  0.7646  1.4092
  863SOL    HW3 3225   3.089   2.265   2.648 -0.2191  1.4455 -0.2227
  863SOL    MW4 3226   3.153   2.315   2.680  0.2104  0.4477  0.5557
  864SOL     OW 3227   5.399   2.314   4.784  0.2068 -0.0610  0.3660
  864SOL    HW2 3228   5.324   2.314   4.844 -1.1720 -0.4508 -1.3007
  864SOL    HW3 3229   5.414   2.222   4.763  1.7049 -0.0673  1.2798
  864SOL    MW4 3230   5.391   2.302   4.789  0.2225 -0.1133  0.2667
  865SOL     OW 3231   2.023   5.113   4.481 -0.5239 -0.0134  0.1133
  865SOL    HW2 3232   2.088   5.163   4.529 -2.2140  1.5772  0.8811
  865SOL    HW3 3233   2.009   5.034   4.534  0.9427 -0.5191 -0.2224
  865SOL    MW4 3234   2.030   5.109   4.494 -0.5533  0.1297  0.1703
  866SOL     OW 3235   1.595   2.213   3.880  0.3427 -0.2087  0.1663
  866SOL    HW2 3236   1.583   2.127   3.839  1.7831  0.8712 -2.8031
  866SOL    HW3 3237   1.654   2.197   3.954  0.9941 -1.7227 -0.6354
  866SOL    MW4 3238   1.601   2.199   3.884  0.6187 -0.2659 -0.3312
  867SOL     OW 3239   5.007   5.076   3.831  0.0941  0.4780  0.2326
  867SOL    HW2 3240   5.091   5.074   3.877  0.2525  0.6340 -0.0475
  867SOL    HW3 3241   5.025   5.122   3.749  0.1289 -0.9817 -0.6170
  867SOL    MW4 3242   5.020   5.082   3.826  0.1196  0.3060  0.0836
  868SOL     OW 3243   4.267   3.759   2.477  0.9798  0.2502  0.1577
  868SOL    HW2 3244   4.296   3.698   2.545  0.6957  0.0290  0.0825
  868SOL    HW3 3245   4.221   3.828   2.523 -2.7754 -1.8544 -0.0096
  868SOL    MW4 3246   4.265   3.760   2.492  0.4469 -0.0567  0.1257
  869SOL     OW 3247   0.644   2.849   1.637 -0.5129 -0.1809 -0.2871
  869SOL    HW2 3248   0.693   2.769   1.656 -1.1011 -0.6035 -0.5607
  869SOL    HW3 3249   0.709   2.907   1.596 -0.0449 -0.4464  0.0628
  869SOL    MW4 3250   0.659   2.846   1.634 -0.5288 -0.2717 -0.2770
  870SOL     OW 3251   3.351   4.753   4.773 -0.6812 -0.2980 -0.1324
  870SOL    HW2 3252   3.333   4.826   4.833  0.3593  0.3135 -0.5225
  870SOL    HW3 3253   3.411   4.791   4.708  2.5812 -2.2351  1.4637
  870SOL    MW4 3254   3.357   4.768   4.773 -0.1135 -0.4729  0.0267
  871SOL     OW 3255   0.677   3.439   4.375 -0.0433  0.1017  0.0841
  871SOL    HW2 3256   0.768   3.452   4.400  0.3043 -2.2277  0.2519
  871SOL    HW3 3257   0.682   3.405   4.286 -0.6002 -1.7832  0.7409
  871SOL    MW4 3258   0.690   3.436   4.366 -0.0709 -0.4543  0.1929
  872SOL     OW 3259   0.244   5.916   0.405 -0.2852 -0.0479  0.3851
  872SOL    HW2 3260   0.272   6.006   0.392 -1.3479  0.1973 -0.3302
  872SOL    HW3 3261   0.162   5.923   0.454 -0.3251 -0.6248  0.4140
  872SOL    MW4 3262   0.237   5.929   0.410 -0.4307 -0.0916  0.2945
  873SOL     OW 3263   0.498   6.320   4.265  0.0965 -0.5034  0.2023
  873SOL    HW2 3264   0.514   6.310   4.172  1.5231  1.9837  0.0868
  873SOL    HW3 3265   0.470   6.234   4.295 -1.0008 -1.2078 -2.6153
  873SOL    MW4 3266   0.496   6.308   4.257  0.1399 -0.2682 -0.1847
  874SOL     OW 3267   2.202   2.248   3.153 -0.1165 -0.1290  0.2374
  874SOL    HW2 3268   2.145   2.228   3.227 -0.8014  1.0088  0.0371
  874SOL    HW3 3269   2.153   2.311   3.100  0.5071 -0.6413 -1.0053
  874SOL    MW4 3270   2.188   2.254   3.156 -0.1246 -0.0464  0.0470
  875SOL     OW 3271   4.485   6.005   5.540 -0.3412  0.2433 -0.3272
  875SOL    HW2 3272   4.407   5.988   5.593  0.2369 -0.0223  0.4535
  875SOL    HW3 3273   4.499   5.923   5.492 -0.4385  0.2296 -0.3331
  875SOL    MW4 3274   4.477   5.992   5.541 -0.2778  0.2064 -0.2250
  876SOL     OW 3275   0.585   2.164   5.079 -0.2013 -0.2728 -0.0659
  876SOL    HW2 3276   0.604   2.145   4.987  1.0991 -3.7052  0.7723
  876SOL    HW3 3277   0.497   2.128   5.093 -0.7479  0.9840 -0.0878
  876SOL    MW4 3278   0.576   2.157   5.069 -0.1019 -0.5598  0.0418
  877SOL     OW 3279   5.597   3.686   3.269  0.6028 -0.1633  0.4303
  877SOL    HW2 3280   5.526   3.623   3.270  0.6417 -0.2528 -0.7531
  877SOL    HW3 3281   5.674   3.636   3.243  1.5248 -0.4354  3.3813
  877SOL    MW4 3282   5.598   3.671   3.266  0.7296 -0.2110  0.6635
  878SOL     OW 3283   5.462   3.747   5.276  0.5828  0.0876  0.2257
  878SOL    HW2 3284   5.385   3.725   5.327  0.3749 -1.4915 -0.7318
  878SOL    HW3 3285   5.534   3.702   5.320  0.6816  0.1573  0.1379
  878SOL    MW4 3286   5.462   3.738   5.288  0.5684 -0.1116  0.0878
  879SOL     OW 3287   1.437   2.566   2.798 -0.2469 -0.3123 -0.0907
  879SOL    HW2 3288   1.414   2.655   2.773  0.0861 -0.5327 -1.2560
  879SOL    HW3 3289   1.368   2.539   2.858 -1.3822  0.0878 -1.1789
  879SOL    MW4 3290   1.425   2.574   2.802 -0.3527 -0.2886 -0.3880
  880SOL     OW 3291   3.041   3.777   0.369  0.5578  0.2151  0.1282
  880SOL    HW2 3292   3.045   3.866   0.406 -2.1973  0.0937  0.9290
  880SOL    HW3 3293   3.040   3.720   0.445 -1.2237 -0.2720 -0.2232
  880SOL    MW4 3294   3.042   3.782   0.384 -0.0407  0.1348  0.1875
  881SOL     OW 3295   4.852   1.170   1.281  0.3809 -0.0999  0.3843
  881SOL    HW2 3296   4.909   1.103   1.318  0.2790 -0.0271  0.6804
  881SOL    HW3 3297   4.865   1.246   1.338  1.6512  0.6503 -0.8221
  881SOL    MW4 3298   4.861   1.171   1.293  0.5350  0.0087  0.2642
  882SOL     OW 3299   4.337   2.660   4.218 -0.1737  0.4172  0.8240
  882SOL    HW2 3300   4.285   2.740   4.212 -0.8662 -0.1221 -0.9889
  882SOL    HW3 3301   4.428   2.691   4.214 -0.4108  1.1617  1.0148
  882SOL    MW4 3302   4.342   2.675   4.217 -0.2964  0.4442  0.6100
  883SOL     OW 3303   5.954   5.568   5.274 -0.2322  0.3297  0.4076
  883SOL    HW2 3304   5.862   5.577   5.248 -0.0968  0.3806 -0.0674
  883SOL    HW3 3305   5.960   5.610   5.360 -0.5376  0.8094  0.1931
  883SOL    MW4 3306   5.943   5.575   5.282 -0.2546  0.3997  0.3166
  884SOL     OW 3307   2.099   0.597   4.380  0.0702 -0.4586 -0.3814
  884SOL    HW2 3308   2.025   0.546   4.349  1.5406 -2.0335 -1.4457
  884SOL    HW3 3309   2.121   0.560   4.465  0.7144 -1.1959 -0.8550
  884SOL    MW4 3310   2.092   0.586   4.387  0.3492 -0.7636 -0.5843
  885SOL     OW 3311   1.579   6.069   5.348 -0.1359  0.3845  0.0407
  885SOL    HW2 3312   1.530   6.148   5.326  0.1877  0.2591 -1.2461
  885SOL    HW3 3313   1.665   6.082   5.308 -0.2101 -0.7641 -0.5452
  885SOL    MW4 3314   1.584   6.081   5.340 -0.1030  0.2164 -0.2064
  886SOL     OW 3315   1.367   1.055   4.056  0.2713  0.0256  0.1178
  886SOL    HW2 3316   1.412   1.048   3.972  0.7024 -0.9974  0.4146
  886SOL    HW3 3317   1.437   1.065   4.120  0.2062 -2.5233  0.6900
  886SOL    MW4 3318   1.382   1.056   4.054  0.3196 -0.4456  0.2325
  887SOL     OW 3319   4.691   4.413   4.570 -0.4528  0.3477  0.1223
  887SOL    HW2 3320   4.697   4.321   4.596  0.8539  0.7290  1.2549
  887SOL    HW3 3321   4.708   4.413   4.476 -0.6760 -0.5873  0.0753
  887SOL    MW4 3322   4.694   4.401   4.561 -0.3099  0.2747  0.2655
  888SOL     OW 3323   2.379   2.787   3.142  0.2245  0.2481 -0.3582
  888SOL    HW2 3324   2.418   2.733   3.211 -0.5217 -0.6057 -0.5777
  888SOL    HW3 3325   2.289   2.803   3.172  0.2869  0.9665 -0.5318
  888SOL    MW4 3326   2.372   2.782   3.155  0.1342  0.2302 -0.4101
  889SOL     OW 3327   0.598   2.499   2.389 -0.1628  0.3993  0.0207
  889SOL    HW2 3328   0.517   2.465   2.352  0.6474 -0.4429 -1.0511
  889SOL    HW3 3329   0.628   2.430   2.448  0.8661 -0.2801 -1.2431
  889SOL    MW4 3330   0.591   2.485   2.392  0.0799  0.1986 -0.2875
  890SOL     OW 3331   2.900   3.796   3.247 -0.1365  0.4719  0.3614
  890SOL    HW2 3332   2.874   3.865   3.308 -0.8026 -0.2295  0.8972
  890SOL    HW3 3333   2.827   3.734   3.249  0.7109 -0.5517  0.3620
  890SOL    MW4 3334   2.887   3.797   3.255 -0.1126  0.2443  0.4321
  891SOL     OW 3335   5.992   1.395   1.717 -0.2390 -0.3768 -0.0901
  891SOL    HW2 3336   6.025   1.399   1.627  2.5949  1.2501  0.8701
  891SOL    HW3 3337   5.926   1.464   1.722 -1.2409 -1.2114 -1.1312
  891SOL    MW4 3338   5.988   1.405   1.706  0.0027 -0.2723 -0.1008
  892SOL     OW 3339   0.191   3.963   1.904  0.0275  0.1409  0.4160
  892SOL    HW2 3340   0.156   4.017   1.975 -2.2235 -2.0846  1.1373
  892SOL    HW3 3341   0.116   3.942   1.849  1.1456 -0.8100 -0.8252
  892SOL    MW4 3342   0.177   3.967   1.906 -0.1219 -0.2782  0.3474
  893SOL     OW 3343   3.474   0.732   2.505 -0.1465 -0.0340  0.4755
  893SOL    HW2 3344   3.418   0.668   2.460  0.6511 -0.2982 -0.1523
  893SOL    HW3 3345   3.496   0.690   2.589  0.5898 -0.7100 -0.0447
  893SOL    MW4 3346   3.469   0.718   2.510  0.0559 -0.1580  0.3241
  894SOL     OW 3347   4.490   2.948   3.029  0.0889  0.1225 -0.2075
  894SOL    HW2 3348   4.546   2.973   3.102 -0.6600 -0.5860  0.6296
  894SOL    HW3 3349   4.445   3.030   3.004  0.7818  0.4891 -0.2763
  894SOL    MW4 3350   4.491   2.962   3.035  0.0815  0.0774 -0.1061
  895SOL     OW 3351   1.762   1.298   5.632 -0.1272  0.1537 -0.1597
  895SOL    HW2 3352   1.849   1.259   5.625  0.5209  1.6300 -0.9560
  895SOL    HW3 3353   1.765   1.373   5.572 -1.6641  0.7395  0.4474
  895SOL    MW4 3354   1.774   1.303   5.623 -0.2445  0.4258 -0.1847
  896SOL     OW 3355   0.168   3.862   3.854 -0.1700  0.2296  0.1466
  896SOL    HW2 3356   0.217   3.942   3.874  0.5852 -0.2586  0.2668
  896SOL    HW3 3357   0.158   3.818   3.937  1.9867 -1.2377 -0.3001
  896SOL    MW4 3358   0.173   3.867   3.867  0.2142 -0.0284  0.1036
  897SOL     OW 3359   2.394   5.256   2.997  0.2920  0.8098  0.2158
  897SOL    HW2 3360   2.362   5.298   2.917 -1.7603  1.2809  1.1983
  897SOL    HW3 3361   2.464   5.197   2.968  0.5049  1.9371 -1.7210
  897SOL    MW4 3362   2.399   5.254   2.982  0.0493  1.0207  0.0899
  898SOL     OW 3363   3.954   6.094   2.922 -0.0457  0.1187 -0.2579
  898SOL    HW2 3364   3.866   6.122   2.948  0.7231  1.8330  0.7707
  898SOL    HW3 3365   3.957   6.108   2.828 -0.6271  0.8364 -0.1814
  898SOL    MW4 3366   3.943   6.100   2.913 -0.0210  0.4396 -0.1121
  899SOL     OW 3367   3.541   0.950   0.606  0.3218  0.2574  0.0393
  899SOL    HW2 3368   3.502   0.929   0.521 -1.5804  1.5903  0.5139
  899SOL    HW3 3369   3.613   1.009   0.585 -1.0816  1.8200 -0.6101
  899SOL    MW4 3370   3.545   0.955   0.592 -0.1144  0.6395  0.0162
  900SOL     OW 3371   4.207   2.340   4.846 -0.3879 -0.3045  0.1981
  900SOL    HW2 3372   4.219   2.292   4.929 -1.0310  0.8331  0.9807
  900SOL    HW3 3373   4.178   2.273   4.784 -1.2972 -0.9567  1.2689
  900SOL    MW4 3374   4.205   2.325   4.849 -0.5927 -0.2405  0.4426
  901SOL     OW 3375   0.382   2.968   3.004  0.2094  0.0154 -0.6294
  901SOL    HW2 3376   0.453   2.911   3.033 -0.0505 -0.5403 -1.0850
  901SOL    HW3 3377   0.410   3.000   2.919  0.1792  0.2684 -0.5455
  901SOL    MW4 3378   0.395   2.965   2.997  0.1711 -0.0246 -0.6784
  902SOL     OW 3379   6.229   1.265   5.262  0.3272  0.2297 -0.3168
  902SOL    HW2 3380   6.233   1.351   5.304  1.0135  0.4111 -0.7267
  902SOL    HW3 3381   6.254   1.282   5.171 -0.5482 -0.2483 -0.6549
  902SOL    MW4 3382   6.233   1.279   5.256  0.3022  0.1906 -0.4155
  903SOL     OW 3383   4.683   2.662   5.201  0.1825 -0.3029 -0.4288
  903SOL    HW2 3384   4.618   2.605   5.158 -0.6984 -0.4713  1.0684
  903SOL    HW3 3385   4.672   2.747   5.158 -0.7047 -0.4601 -0.5278
  903SOL    MW4 3386   4.673   2.666   5.189 -0.0508 -0.3458 -0.2443
  904SOL     OW 3387   4.033   6.273   4.821  0.4021  0.6037  0.1269
  904SOL    HW2 3388   4.128   6.286   4.817  0.0312  4.0667 -1.9385
  904SOL    HW3 3389   4.004   6.331   4.892 -0.3238  1.1948 -0.6386
  904SOL    MW4 3390   4.042   6.283   4.830  0.2574  1.1386 -0.2466
  905SOL     OW 3391   1.083   4.695   5.992 -0.2300 -0.2119  0.2572
  905SOL    HW2 3392   1.046   4.699   5.904 -1.0029 -0.3989  0.5661
  905SOL    HW3 3393   1.170   4.735   5.983  0.2743 -1.4809 -0.8642
  905SOL    MW4 3394   1.090   4.701   5.979 -0.2654 -0.4040  0.1500
  906SOL     OW 3395   2.509   4.410   5.129  0.3087  0.2292 -0.0609
  906SOL    HW2 3396   2.455   4.351   5.182  1.6294 -1.6345 -0.7136
  906SOL    HW3 3397   2.502   4.376   5.040 -0.4285  2.2490 -0.8407
  906SOL    MW4 3398   2.501   4.398   5.125  0.3857  0.2498 -0.2499
  907SOL     OW 3399   4.379   5.584   3.457  0.8035 -0.4252 -0.4988
  907SOL    HW2 3400   4.443   5.513   3.450  0.0545 -1.0794 -0.8125
  907SOL    HW3 3401   4.302   5.551   3.412  0.7562  0.9637 -1.4881
  907SOL    MW4 3402   4.378   5.570   3.450  0.6984 -0.3282 -0.6707
  908SOL     OW 3403   5.447   0.022   6.161 -0.8633 -0.0825 -0.0162
  908SOL    HW2 3404   5.464  -0.071   6.179  0.0886  0.0916  0.0680
  908SOL    HW3 3405   5.533   0.057   6.136 -1.5835  0.3152 -2.1866
  908SOL    MW4 3406   5.461   0.014   6.160 -0.8327 -0.0071 -0.2915
  909SOL     OW 3407   0.960   0.113   1.567  0.2405 -0.1736 -0.0443
  909SOL    HW2 3408   0.997   0.080   1.486  2.2158  2.4407 -0.3815
  909SOL    HW3 3409   1.025   0.089   1.634 -0.7014 -1.1395  0.5407
  909SOL    MW4 3410   0.974   0.106   1.565  0.3768  0.0439 -0.0116
  910SOL     OW 3411   0.186   2.652   4.489 -0.0602 -0.3533 -0.2749
  910SOL    HW2 3412   0.203   2.576   4.433  1.3432  1.4239 -2.4612
  910SOL    HW3 3413   0.146   2.717   4.430 -0.5751  0.8650  1.3354
  910SOL    MW4 3414   0.183   2.651   4.474  0.0570  0.0419 -0.3509
  911SOL     OW 3415   2.999  -0.001   1.641  0.3358 -0.1794  0.4890
  911SOL    HW2 3416   3.011  -0.003   1.736 -3.3021  0.7312  1.1272
  911SOL    HW3 3417   3.016   0.090   1.617 -0.1348 -0.0702  0.5496
  911SOL    MW4 3418   3.003   0.011   1.650 -0.2063 -0.0449  0.5812
  912SOL     OW 3419   5.395   5.319   2.068  0.0826 -0.3131 -0.3814
  912SOL    HW2 3420   5.333   5.359   2.008  0.3568  0.0200 -0.4492
  912SOL    HW3 3421   5.365   5.229   2.079  0.3871 -0.5622 -1.5159
  912SOL    MW4 3422   5.383   5.312   2.062  0.1590 -0.3021 -0.5400
  913SOL     OW 3423   4.306   5.192   3.088 -0.4732  0.0522 -0.2719
  913SOL    HW2 3424   4.226   5.243   3.090 -0.5465 -0.0683  0.1567
  913SOL    HW3 3425   4.294   5.130   3.016 -1.4770 -1.0797  0.8285
  913SOL    MW4 3426   4.294   5.190   3.079 -0.6153 -0.1130 -0.0702
  914SOL     OW 3427   0.583   1.485   3.612  0.2722 -0.4372  0.5461
  914SOL    HW2 3428   0.623   1.545   3.550  0.2073 -1.1277 -0.1896
  914SOL    HW3 3429   0.566   1.406   3.561 -0.5322 -0.7360  1.2457
  914SOL    MW4 3430   0.586   1.482   3.597  0.1575 -0.5678  0.5414
  915SOL     OW 3431   2.087   4.711   4.525 -0.1262  0.1459 -0.2412
  915SOL    HW2 3432   2.099   4.757   4.441 -0.1664  2.7841  1.0821
  915SOL    HW3 3433   2.030   4.769   4.576 -1.2811 -2.0638  1.1588
  915SOL    MW4 3434   2.081   4.725   4.520 -0.2839  0.2024  0.1181
  916SOL     OW 3435   4.908   2.716   2.682 -0.1788 -0.6928  0.7342
  916SOL    HW2 3436   4.823   2.759   2.670 -0.8976 -1.8223  1.6045
  916SOL    HW3 3437   4.917   2.659   2.605 -0.5047 -1.0458  0.9575
  916SOL    MW4 3438   4.898   2.714   2.670 -0.3166 -0.8884  0.8785
  917SOL     OW 3439   3.065   1.358   1.896  0.0627 -0.2299  0.2134
  917SOL    HW2 3440   3.051   1.447   1.927  0.1094 -0.2899  0.4035
  917SOL    HW3 3441   3.152   1.334   1.927 -0.5966 -0.9416  1.5821
  917SOL    MW4 3442   3.074   1.367   1.904 -0.0181 -0.3317  0.4191
  918SOL     OW 3443   6.343   5.705   1.122 -0.2436  0.4199 -0.0529
  918SOL    HW2 3444   6.298   5.711   1.038 -0.8673  0.2017  0.2605
  918SOL    HW3 3445   6.292   5.641   1.172 -1.5324  2.5601  1.5086
  918SOL    MW4 3446   6.330   5.697   1.117 -0.4960  0.6735  0.1945
  919SOL     OW 3447   3.580   0.710   2.094 -0.2797  0.7338  0.1999
  919SOL    HW2 3448   3.535   0.778   2.145 -0.3673 -0.5723  1.9915
  919SOL    HW3 3449   3.512   0.643   2.079 -0.0514  0.7497 -1.0226
  919SOL    MW4 3450   3.565   0.710   2.099 -0.2612  0.5635  0.2750
  920SOL     OW 3451   3.353   2.701   3.264 -0.3024 -0.5587  0.4172
  920SOL    HW2 3452   3.405   2.667   3.191 -1.8249  0.3548 -1.1545
  920SOL    HW3 3453   3.344   2.627   3.324  2.1964 -0.9274  0.4490
  920SOL    MW4 3454   3.359   2.687   3.262 -0.1736 -0.4868  0.2140
  921SOL     OW 3455   5.430   3.194   2.979  0.4061 -0.0996 -0.0146
  921SOL    HW2 3456   5.428   3.265   2.915 -0.0980 -0.2623 -0.1836
  921SOL    HW3 3457   5.348   3.203   3.028  0.5638 -0.2722  0.2827
  921SOL    MW4 3458   5.419   3.204   2.977  0.3604 -0.1438  0.0023
  922SOL     OW 3459   0.785   0.286   1.396  0.3500 -0.1088  0.2130
  922SOL    HW2 3460   0.728   0.355   1.430 -0.0947  0.0646 -0.8437
  922SOL    HW3 3461   0.848   0.269   1.466 -1.6729 -1.1191  1.9049
  922SOL    MW4 3462   0.786   0.293   1.409  0.0245 -0.2193  0.2968
  923SOL     OW 3463   2.734   2.884   5.964 -0.0660  0.4444  0.5497
  923SOL    HW2 3464   2.759   2.816   6.027  3.6268 -1.5440 -2.5749
  923SOL    HW3 3465   2.665   2.843   5.912  2.0909 -1.1854 -1.2714
  923SOL    MW4 3466   2.728   2.869   5.965  0.7058 -0.0330 -0.1028
  924SOL     OW 3467   1.318   5.664   1.379  0.4776 -0.4817 -0.1281
  924SOL    HW2 3468   1.231   5.644   1.413  1.4941 -2.9817  1.2429
  924SOL    HW3 3469   1.349   5.736   1.433 -0.4454 -0.0112 -0.1952
  924SOL    MW4 3470   1.311   5.670   1.390  0.4900 -0.7495  0.0439
  925SOL     OW 3471   0.670   5.422   0.873  0.1823  0.2143  0.4565
  925SOL    HW2 3472   0.755   5.395   0.909 -1.0757 -0.8801  2.8524
  925SOL    HW3 3473   0.662   5.374   0.790  1.1097 -1.1655  1.1296
  925SOL    MW4 3474   0.680   5.412   0.867  0.1386 -0.1121  0.8614
  926SOL     OW 3475   5.117  -0.000   2.319 -0.0511 -0.5996 -0.0307
  926SOL    HW2 3476   5.162  -0.083   2.298  2.5747  0.6787  0.1470
  926SOL    HW3 3477   5.142   0.018   2.410 -1.0425  0.1542  0.1074
  926SOL    MW4 3478   5.126  -0.009   2.328  0.1645 -0.3315  0.0110
  927SOL     OW 3479   6.245   4.161   3.654 -0.1358 -0.1860  0.3798
  927SOL    HW2 3480   6.274   4.103   3.724  1.7730  0.2733  0.0148
  927SOL    HW3 3481   6.325   4.185   3.607 -1.2288  0.3664 -1.3148
  927SOL    MW4 3482   6.259   4.157   3.657 -0.0282 -0.0525  0.1081
  928SOL     OW 3483   0.707   2.951   2.918  0.5739 -0.4710 -0.2211
  928SOL    HW2 3484   0.740   2.954   3.008 -0.9612 -1.2281  0.3837
  928SOL    HW3 3485   0.682   3.041   2.899  0.7813 -0.3333  0.1452
  928SOL    MW4 3486   0.708   2.963   2.927  0.3988 -0.5528 -0.0930
  929SOL     OW 3487   2.127   5.806   0.032  0.1252 -0.3408 -0.2605
  929SOL    HW2 3488   2.161   5.752  -0.039 -0.6400 -0.3962 -0.5917
  929SOL    HW3 3489   2.109   5.744   0.103  2.1458 -0.1346  0.5095
  929SOL    MW4 3490   2.129   5.790   0.032  0.2908 -0.3209 -0.2026
  930SOL     OW 3491   0.792   4.924   4.300  0.3595 -0.0073  0.0946
  930SOL    HW2 3492   0.700   4.912   4.323  0.2578  0.1487 -0.2137
  930SOL    HW3 3493   0.803   4.877   4.217  0.5523 -0.0126  0.1217
  930SOL    MW4 3494   0.781   4.917   4.292  0.3715  0.0126  0.0575
  931SOL     OW 3495   0.987   2.069   2.172 -0.3240 -0.7362  0.9408
  931SOL    HW2 3496   1.045   2.043   2.244 -0.9470 -0.5931  1.5029
  931SOL    HW3 3497   0.960   2.158   2.194  1.3731  0.2583 -0.6977
  931SOL    MW4 3498   0.991   2.078   2.184 -0.1823 -0.5861  0.7988
  932SOL     OW 3499   2.573   5.877   1.971  0.0142  0.2746 -0.3504
  932SOL    HW2 3500   2.628   5.874   1.893 -1.5960 -0.0181 -1.5148
  932SOL    HW3 3501   2.546   5.786   1.985  2.4045 -0.1871  2.1944
  932SOL    MW4 3502   2.577   5.864   1.963  0.1171  0.1751 -0.1683
  933SOL     OW 3503   2.747   0.102   6.066 -0.1793  0.0731 -0.9371
  933SOL    HW2 3504   2.749   0.198   6.059 -1.0655  0.0695 -1.3907
  933SOL    HW3 3505   2.701   0.086   6.149 -0.5336  0.0368 -1.1406
  933SOL    MW4 3506   2.741   0.113   6.076 -0.3430  0.0678 -1.0238
  934SOL     OW 3507   1.275   0.851   3.378  0.3579 -0.2405 -0.2305
  934SOL    HW2 3508   1.255   0.858   3.472 -0.1155  0.1462 -0.3551
  934SOL    HW3 3509   1.327   0.929   3.359  0.9205 -0.6039 -0.1716
  934SOL    MW4 3510   1.279   0.862   3.388  0.3697 -0.2374 -0.2392
  935SOL     OW 3511   5.401   0.368   1.078 -0.4811  0.0387  0.0200
  935SOL    HW2 3512   5.376   0.302   1.143 -1.5308 -0.1924 -0.5882
  935SOL    HW3 3513   5.379   0.327   0.994  0.4748  0.4908 -0.4578
  935SOL    MW4 3514   5.395   0.354   1.075 -0.4935  0.0678 -0.1233
  936SOL     OW 3515   2.686   4.899   1.683 -0.2627  0.3182 -0.0138
  936SOL    HW2 3516   2.713   4.990   1.670 -2.9595  1.5894  2.1657
  936SOL    HW3 3517   2.692   4.885   1.778  0.7462 -2.0654 -0.3471
  936SOL    MW4 3518   2.690   4.909   1.694 -0.4854  0.1714  0.2298
  937SOL     OW 3519   4.319   4.936   2.440 -0.3539  0.0958 -0.0490
  937SOL    HW2 3520   4.245   4.953   2.381 -1.3575  0.6727  1.3371
  937SOL    HW3 3521   4.280   4.896   2.517  0.9286 -0.5498  0.2894
  937SOL    MW4 3522   4.304   4.933   2.442 -0.3171  0.0868  0.1785
  938SOL     OW 3523   4.731   5.574   5.099 -0.4649 -0.0769  0.2910
  938SOL    HW2 3524   4.733   5.500   5.038 -1.8962  0.3652 -0.3404
  938SOL    HW3 3525   4.718   5.650   5.042  0.1383  0.5673  1.0053
  938SOL    MW4 3526   4.730   5.574   5.083 -0.5741  0.0664  0.3019
  939SOL     OW 3527   3.179   5.765   1.245  0.1038 -0.2987 -0.4399
  939SOL    HW2 3528   3.165   5.772   1.340 -2.2119 -1.5006 -0.6308
  939SOL    HW3 3529   3.261   5.717   1.237  0.9081  0.7493  0.9129
  939SOL    MW4 3530   3.188   5.760   1.256 -0.0956 -0.3190 -0.2866
  940SOL     OW 3531   0.306   1.819   4.495 -0.2040  0.0867  0.0129
  940SOL    HW2 3532   0.215   1.799   4.473  0.0125 -0.4117 -0.4450
  940SOL    HW3 3533   0.342   1.858   4.416  0.8143 -2.4851 -0.8991
  940SOL    MW4 3534   0.298   1.821   4.482 -0.0411 -0.3184 -0.1678
  941SOL     OW 3535   5.154   5.603   5.929 -0.1973  0.1749  0.6239
  941SOL    HW2 3536   5.136   5.668   5.996  1.2081  0.6570  0.5506
  941SOL    HW3 3537   5.115   5.640   5.849 -1.1562 -0.0307  0.9729
  941SOL    MW4 3538   5.146   5.616   5.927 -0.1384  0.2113  0.6603
  942SOL     OW 3539   2.587   5.321   5.982  0.2101  0.6885  0.2528
  942SOL    HW2 3540   2.607   5.415   5.980  2.0493  0.3178 -0.5566
  942SOL    HW3 3541   2.565   5.300   5.891  2.4455 -0.1470 -0.1455
  942SOL    MW4 3542   2.587   5.331   5.969  0.7477  0.5294  0.0934
  943SOL     OW 3543   1.789   6.191   0.693 -0.2160  0.0883 -0.2810
  943SOL    HW2 3544   1.801   6.115   0.637  0.0319  0.7999 -1.2101
  943SOL    HW3 3545   1.726   6.246   0.646 -0.5746  0.3507  0.4918
  943SOL    MW4 3546   1.782   6.189   0.680 -0.2306  0.2168 -0.3016
  944SOL     OW 3547   3.343   0.545   2.059 -0.1793  0.1632 -0.2466
  944SOL    HW2 3548   3.361   0.456   2.026 -0.2804 -0.3969  1.1524
  944SOL    HW3 3549   3.309   0.592   1.983  0.4260 -0.8294 -1.1568
  944SOL    MW4 3550   3.341   0.539   2.044 -0.1128 -0.0417 -0.1821
  945SOL     OW 3551   5.862   4.449   6.150  0.1473  0.9322 -0.0007
  945SOL    HW2 3552   5.908   4.385   6.204 -2.3015  0.0307  1.1845
  945SOL    HW3 3553   5.841   4.521   6.209 -2.7777 -0.1715  0.4489
  945SOL    MW4 3554   5.865   4.450   6.165 -0.5617  0.6676  0.2150
  946SOL     OW 3555   5.064   0.614   5.526  0.5303  0.4744 -0.0787
  946SOL    HW2 3556   5.044   0.545   5.463  0.5833 -0.0094  0.4249
  946SOL    HW3 3557   5.008   0.687   5.500  0.8523  0.4300 -0.9317
  946SOL    MW4 3558   5.054   0.615   5.514  0.5797  0.4048 -0.1248
  947SOL     OW 3559   1.281   0.334   3.298  0.2313 -0.1100 -0.5940
  947SOL    HW2 3560   1.296   0.426   3.318  2.4775 -0.5473 -0.0456
  947SOL    HW3 3561   1.304   0.287   3.378 -1.5758 -1.1354 -0.6252
  947SOL    MW4 3562   1.286   0.340   3.311  0.2892 -0.3030 -0.5258
  948SOL     OW 3563   6.386   3.060   1.531  0.7255 -0.1107 -0.0774
  948SOL    HW2 3564   6.423   3.140   1.492  2.1069 -0.1292  1.1085
  948SOL    HW3 3565   6.294   3.081   1.544  1.1592  1.5034  0.6790
  948SOL    MW4 3566   6.379   3.073   1.527  0.9650  0.0998  0.1789
  949SOL     OW 3567   4.774   2.318   0.516  0.0504  0.0831 -0.6388
  949SOL    HW2 3568   4.800   2.392   0.461  1.2269 -0.3775 -0.7268
  949SOL    HW3 3569   4.704   2.275   0.467 -0.4786  0.9829 -0.6965
  949SOL    MW4 3570   4.768   2.322   0.502  0.1358  0.1410 -0.6580
  950SOL     OW 3571   1.292   3.770   3.090  0.2983 -0.2344  0.0495
  950SOL    HW2 3572   1.253   3.829   3.155 -0.0766  0.2033 -0.5666
  950SOL    HW3 3573   1.359   3.722   3.139 -1.0586 -1.0721  1.1519
  950SOL    MW4 3574   1.296   3.771   3.105  0.0698 -0.2872  0.1137
  951SOL     OW 3575   5.603   5.456   5.811  0.1673  0.1959  0.2973
  951SOL    HW2 3576   5.695   5.431   5.814  0.7283  2.0712  0.0461
  951SOL    HW3 3577   5.594   5.521   5.880 -0.7791  0.6261 -0.2133
  951SOL    MW4 3578   5.614   5.461   5.820  0.1164  0.5001  0.1968
  952SOL     OW 3579   0.246   1.126   5.731 -0.0667  0.3358  0.0274
  952SOL    HW2 3580   0.319   1.185   5.747  0.4213 -0.6573  1.6682
  952SOL    HW3 3581   0.209   1.110   5.818 -1.2370 -0.4520 -0.5935
  952SOL    MW4 3582   0.250   1.132   5.745 -0.1567  0.1008  0.1620
  953SOL     OW 3583   2.645   5.227   4.979 -0.2517 -0.4881  0.5687
  953SOL    HW2 3584   2.599   5.199   4.900 -1.3017 -1.9710  1.6720
  953SOL    HW3 3585   2.736   5.203   4.963 -0.5462 -1.2852  0.0406
  953SOL    MW4 3586   2.651   5.220   4.966 -0.4290 -0.7889  0.6446
  954SOL     OW 3587   2.743   2.131   6.302 -0.6414 -0.5068  0.4189
  954SOL    HW2 3588   2.663   2.151   6.350 -0.2993  2.4548 -0.0302
  954SOL    HW3 3589   2.713   2.105   6.215 -1.3899  4.3862 -1.1507
  954SOL    MW4 3590   2.728   2.131   6.297 -0.6950  0.5295  0.1525
  955SOL     OW 3591   0.334   1.143   2.073 -0.1920 -0.2397 -0.1412
  955SOL    HW2 3592   0.276   1.195   2.017 -1.8749 -3.5591 -1.7824
  955SOL    HW3 3593   0.418   1.189   2.070 -1.7045  2.6652 -0.8638
  955SOL    MW4 3594   0.338   1.156   2.065 -0.6136 -0.2944 -0.4531
  956SOL     OW 3595   0.904   2.485   4.597 -0.3641  0.0325  0.0602
  956SOL    HW2 3596   0.947   2.402   4.577  1.1863  0.5573  1.0468
  956SOL    HW3 3597   0.974   2.550   4.593 -1.2551  1.0767  0.7642
  956SOL    MW4 3598   0.919   2.482   4.594 -0.2771  0.2395  0.2833
  957SOL     OW 3599   0.957   5.014   1.251 -0.3914 -0.0560  0.0062
  957SOL    HW2 3600   0.980   4.926   1.220 -0.1659  0.2004 -0.5898
  957SOL    HW3 3601   0.987   5.016   1.342  1.0033 -0.0982 -0.4180
  957SOL    MW4 3602   0.964   5.003   1.259 -0.1776 -0.0278 -0.1284
  958SOL     OW 3603   2.427   0.195   2.116  0.0736 -0.3929  0.0794
  958SOL    HW2 3604   2.361   0.188   2.047 -2.7051  0.7324  2.3708
  958SOL    HW3 3605   2.406   0.123   2.176  0.2651  0.5273  1.3075
  958SOL    MW4 3606   2.415   0.184   2.115 -0.2677 -0.1230  0.5437
  959SOL     OW 3607   1.057   4.954   6.162 -0.7625 -0.3676 -0.1008
  959SOL    HW2 3608   1.003   4.877   6.146  0.0984 -0.7723 -1.1943
  959SOL    HW3 3609   1.066   4.996   6.076  2.6740 -1.7119 -0.5846
  959SOL    MW4 3610   1.051   4.950   6.148 -0.1955 -0.5984 -0.3089
  960SOL     OW 3611   1.842   6.128   5.280  0.9332 -0.0675 -0.2179
  960SOL    HW2 3612   1.888   6.171   5.352 -0.4498 -0.7361  1.1117
  960SOL    HW3 3613   1.810   6.200   5.226  3.8286  0.4279 -1.4553
  960SOL    MW4 3614   1.844   6.143   5.283  1.1328 -0.0903 -0.2057
  961SOL     OW 3615   3.153   2.281   0.970  0.3008  0.3764 -0.4160
  961SOL    HW2 3616   3.149   2.274   1.065 -0.6186 -0.1466 -0.4890
  961SOL    HW3 3617   3.191   2.198   0.941  1.8781  1.0511 -0.4471
  961SOL    MW4 3618   3.158   2.269   0.979  0.3876  0.3964 -0.4297
  962SOL     OW 3619   2.684   1.727   3.350 -0.0139 -0.7103  0.0940
  962SOL    HW2 3620   2.773   1.695   3.332  0.2302  0.2247 -0.4679
  962SOL    HW3 3621   2.695   1.820   3.368 -0.7424 -0.8478  1.3489
  962SOL    MW4 3622   2.697   1.735   3.350 -0.0778 -0.6051  0.1854
  963SOL     OW 3623   3.388   4.991   3.576 -0.0097  0.1447  0.1998
  963SOL    HW2 3624   3.428   4.995   3.663 -0.7317 -0.4376  0.5746
  963SOL    HW3 3625   3.310   5.046   3.584 -1.5634 -1.9923  0.7692
  963SOL    MW4 3626   3.383   4.999   3.589 -0.3099 -0.2141  0.3244
  964SOL     OW 3627   3.847   1.765   1.233 -0.8887 -0.3278  0.4680
  964SOL    HW2 3628   3.911   1.791   1.299  0.2532 -1.8086  0.0138
  964SOL    HW3 3629   3.762   1.788   1.271 -0.1416  0.9744  1.4239
  964SOL    MW4 3630   3.844   1.771   1.247 -0.6395 -0.3514  0.5342
  965SOL     OW 3631   0.004   4.710   5.187  0.0787  0.1184  0.0569
  965SOL    HW2 3632  -0.025   4.686   5.275  1.9218  1.4687  1.1000
  965SOL    HW3 3633  -0.071   4.755   5.148 -0.6822 -0.2977  1.0110
  965SOL    MW4 3634  -0.009   4.712   5.193  0.2215  0.2417  0.3204
  966SOL     OW 3635   5.451   5.653   5.123  0.2238 -0.0588 -0.4010
  966SOL    HW2 3636   5.371   5.606   5.148 -0.1450  0.5199 -0.4716
  966SOL    HW3 3637   5.441   5.739   5.163  1.3149 -0.3311  0.5049
  966SOL    MW4 3638   5.439   5.658   5.132  0.3191 -0.0184 -0.2908
  967SOL     OW 3639   2.044   4.448   2.460 -0.1373  0.2126 -0.1486
  967SOL    HW2 3640   2.004   4.451   2.373  0.1337  0.6401 -0.2605
  967SOL    HW3 3641   2.105   4.374   2.456 -0.4655 -0.0591 -0.1721
  967SOL    MW4 3642   2.047   4.439   2.448 -0.1448  0.2332 -0.1665
  968SOL     OW 3643   3.862   4.469   3.417 -0.4777 -0.2224  0.0300
  968SOL    HW2 3644   3.893   4.462   3.507 -1.5530 -2.6434  0.2637
  968SOL    HW3 3645   3.775   4.508   3.424  0.0892  1.1706 -0.1657
  968SOL    MW4 3646   3.855   4.473   3.429 -0.5448 -0.3581  0.0350
  969SOL     OW 3647   0.323   2.210   6.065 -0.4526 -0.5485 -0.6938
  969SOL    HW2 3648   0.401   2.235   6.014 -0.4969 -0.7672 -0.8727
  969SOL    HW3 3649   0.290   2.293   6.099  0.1094 -0.4980 -0.2480
  969SOL    MW4 3650   0.329   2.224   6.062 -0.3843 -0.5707 -0.6586
  970SOL     OW 3651   1.640   1.568   5.925 -0.0890  0.0744 -0.4155
  970SOL    HW2 3652   1.680   1.531   6.003 -0.3654 -0.7618 -0.6650
  970SOL    HW3 3653   1.713   1.607   5.877  0.5879 -2.0522 -1.2185
  970SOL    MW4 3654   1.655   1.569   5.929 -0.0362 -0.3165 -0.5544
  971SOL     OW 3655   3.585   4.939   5.005  0.2520 -0.0597 -0.1432
  971SOL    HW2 3656   3.624   5.005   5.063 -1.6133  1.7586 -0.8711
  971SOL    HW3 3657   3.605   4.969   4.917 -0.9162 -0.2520 -0.4930
  971SOL    MW4 3658   3.593   4.951   5.001 -0.1483  0.1548 -0.2854
  972SOL     OW 3659   1.093   2.409   1.450  0.5100 -0.0023 -0.2099
  972SOL    HW2 3660   1.060   2.323   1.473  0.1494 -0.4370 -2.1667
  972SOL    HW3 3661   1.015   2.464   1.443 -0.0491 -0.9508 -4.4988
  972SOL    MW4 3662   1.079   2.405   1.452  0.3887 -0.1848 -1.0339
  973SOL     OW 3663   2.644   2.980   3.437  0.4683 -0.0135  0.2066
  973SOL    HW2 3664   2.682   2.989   3.524  0.9582 -2.2365  0.2748
  973SOL    HW3 3665   2.714   3.009   3.378  0.3795  0.8359  0.5030
  973SOL    MW4 3666   2.658   2.985   3.440  0.5212 -0.1948  0.2547
  974SOL     OW 3667   0.534   0.617   4.901 -0.3787  0.1863 -0.1560
  974SOL    HW2 3668   0.481   0.692   4.929 -0.3694  0.4476 -0.8125
  974SOL    HW3 3669   0.566   0.642   4.814  1.2206  0.2358  0.4135
  974SOL    MW4 3670   0.531   0.630   4.893 -0.1665  0.2273 -0.1675
  975SOL     OW 3671   3.790   1.890   4.157 -0.1751  0.4097 -0.1379
  975SOL    HW2 3672   3.842   1.816   4.124 -2.0737 -1.2416  0.3861
  975SOL    HW3 3673   3.837   1.920   4.235 -0.8771 -2.2939  1.4628
  975SOL    MW4 3674   3.803   1.884   4.163 -0.5182 -0.1649  0.1424
  976SOL     OW 3675   5.989   3.991   4.374 -0.3850 -0.1043 -0.5820
  976SOL    HW2 3676   5.967   4.083   4.363 -0.3957 -0.1901 -1.3146
  976SOL    HW3 3677   6.060   3.991   4.438 -1.0690  0.3299  0.2043
  976SOL    MW4 3678   5.995   4.003   4.381 -0.4767 -0.0583 -0.5749
  977SOL     OW 3679   0.350   2.092   3.755  0.1372  0.2506 -0.3791
  977SOL    HW2 3680   0.343   2.063   3.664 -1.8874  0.3834 -0.3150
  977SOL    HW3 3681   0.362   2.011   3.805 -1.5422 -0.1535 -0.5579
  977SOL    MW4 3682   0.351   2.077   3.750 -0.3515  0.2148 -0.3943
  978SOL     OW 3683   3.164   0.376   3.832  0.1209 -0.3331 -0.2454
  978SOL    HW2 3684   3.123   0.459   3.811 -0.3133 -0.2570  0.8299
  978SOL    HW3 3685   3.127   0.314   3.769 -0.5956  0.0185 -0.1763
  978SOL    MW4 3686   3.154   0.378   3.821 -0.0309 -0.2767 -0.0944
  979SOL     OW 3687   3.032   3.221   2.326  0.2395 -0.1258  0.0831
  979SOL    HW2 3688   3.020   3.231   2.420  3.0303 -0.3990  0.5672
  979SOL    HW3 3689   3.107   3.276   2.305 -0.1913 -0.2266 -1.9626
  979SOL    MW4 3690   3.040   3.230   2.335  0.5509 -0.1752 -0.1229
  980SOL     OW 3691   6.078   0.750   1.645  0.1020  0.0802  0.2656
  980SOL    HW2 3692   6.171   0.739   1.626  0.0817 -0.1897  0.3164
  980SOL    HW3 3693   6.060   0.687   1.715 -0.4926 -1.0561 -0.8835
  980SOL    MW4 3694   6.088   0.740   1.652  0.0208 -0.1053  0.1207
  981SOL     OW 3695   4.632   2.187   5.200  0.3349  0.8418 -0.3338
  981SOL    HW2 3696   4.632   2.104   5.154 -0.5620  0.4507  0.3349
  981SOL    HW3 3697   4.652   2.165   5.291 -2.2673  1.0026  0.3572
  981SOL    MW4 3698   4.635   2.173   5.206 -0.1267  0.8114 -0.1544
  982SOL     OW 3699   5.327   2.107   3.725 -0.4138  0.4714  0.0493
  982SOL    HW2 3700   5.365   2.022   3.747  0.1271  0.9650  1.1010
  982SOL    HW3 3701   5.393   2.149   3.670 -0.4720  0.3920 -0.0801
  982SOL    MW4 3702   5.341   2.101   3.721 -0.3501  0.5260  0.1710
  983SOL     OW 3703   5.426   2.566   2.847 -0.0838 -0.3609  0.3236
  983SOL    HW2 3704   5.389   2.490   2.803 -0.7741  0.1020  0.0879
  983SOL    HW3 3705   5.475   2.612   2.779  0.8298 -0.8926  0.6005
  983SOL    MW4 3706   5.428   2.562   2.832 -0.0543 -0.3700  0.3291
  984SOL     OW 3707   2.381   4.519   4.523  0.7983 -0.0131 -0.4786
  984SOL    HW2 3708   2.294   4.506   4.559  1.3187  0.9110  1.2003
  984SOL    HW3 3709   2.380   4.473   4.439 -1.2372 -0.1477 -0.4102
  984SOL    MW4 3710   2.370   4.511   4.516  0.5984  0.0911 -0.2480
  985SOL     OW 3711   3.436   1.620   0.066  0.1779 -0.3979 -0.2883
  985SOL    HW2 3712   3.391   1.607  -0.018 -1.1659 -0.5956  0.4305
  985SOL    HW3 3713   3.369   1.600   0.132  1.2104 -0.2478  0.8315
  985SOL    MW4 3714   3.421   1.616   0.063  0.1369 -0.4042 -0.0457
  986SOL     OW 3715   1.199   3.141   4.394 -0.1091  0.1014  0.2025
  986SOL    HW2 3716   1.213   3.151   4.300 -0.4561 -2.4056 -0.1807
  986SOL    HW3 3717   1.104   3.129   4.403 -0.4655  2.8689  1.2321
  986SOL    MW4 3718   1.188   3.141   4.383 -0.2019  0.1358  0.2877
  987SOL     OW 3719   5.467   2.426   2.380  0.8172 -0.1557 -0.3036
  987SOL    HW2 3720   5.523   2.358   2.417 -0.6665 -1.1901  0.1088
  987SOL    HW3 3721   5.378   2.399   2.401  0.1463  1.5937 -0.6881
  987SOL    MW4 3722   5.463   2.414   2.388  0.5330 -0.0613 -0.2999
  988SOL     OW 3723   6.127   6.328   5.998  0.2525 -0.0350 -0.0986
  988SOL    HW2 3724   6.110   6.396   6.064  0.3524 -0.5001  0.4082
  988SOL    HW3 3725   6.205   6.283   6.029  0.7651  0.2490 -0.9545
  988SOL    MW4 3726   6.135   6.331   6.011  0.3333 -0.0589 -0.1447
  989SOL     OW 3727   1.369   2.803   3.039  0.3506 -0.0083 -0.0552
  989SOL    HW2 3728   1.385   2.831   2.949 -0.6432  0.1452 -0.1990
  989SOL    HW3 3729   1.455   2.782   3.074  0.5765 -2.1700 -1.7210
  989SOL    MW4 3730   1.382   2.804   3.032  0.2493 -0.2732 -0.2940
  990SOL     OW 3731   0.811   2.961   3.173  0.0414 -0.0467 -0.0983
  990SOL    HW2 3732   0.897   2.924   3.193 -0.4052 -1.4126 -0.5644
  990SOL    HW3 3733   0.781   3.000   3.255  0.8342 -0.1205  0.2316
  990SOL    MW4 3734   0.818   2.961   3.186  0.0871 -0.2366 -0.1163
  991SOL     OW 3735   2.060   5.062   1.437  0.4571  0.2261  0.6725
  991SOL    HW2 3736   2.104   5.048   1.352 -1.3099  0.1883 -0.2780
  991SOL    HW3 3737   2.046   5.156   1.441  0.1886  0.1844  0.7356
  991SOL    MW4 3738   2.064   5.072   1.426  0.1885  0.2156  0.5554
  992SOL     OW 3739   6.137   6.096   2.946 -0.6438  0.0324  0.3163
  992SOL    HW2 3740   6.076   6.054   3.007  1.5630 -1.2008  1.8045
  992SOL    HW3 3741   6.203   6.030   2.929  0.3044  1.3201 -1.2521
  992SOL    MW4 3742   6.137   6.082   2.952 -0.2275  0.0396  0.3057
  993SOL     OW 3743   4.973   5.012   5.893  0.1235 -0.6138  0.0013
  993SOL    HW2 3744   4.888   5.054   5.908  1.2591  1.6146  0.6511
  993SOL    HW3 3745   5.010   5.059   5.819  0.6263 -1.8886 -0.5823
  993SOL    MW4 3746   4.967   5.024   5.885  0.3396 -0.4880  0.0100
  994SOL     OW 3747   2.487   2.955   1.782 -0.3385  0.1746  0.1573
  994SOL    HW2 3748   2.470   3.015   1.855  0.4429 -0.1789  0.6398
  994SOL    HW3 3749   2.507   2.871   1.824  1.5682  0.3180 -0.3997
  994SOL    MW4 3750   2.487   2.952   1.797  0.0161  0.1469  0.1475
  995SOL     OW 3751   6.222   2.799   4.175 -0.1192 -0.5993 -0.0933
  995SOL    HW2 3752   6.167   2.741   4.122  0.6206 -2.5441  1.1507
  995SOL    HW3 3753   6.167   2.822   4.250 -0.3814  0.2455 -0.5431
  995SOL    MW4 3754   6.207   2.794   4.178 -0.0562 -0.7444  0.0115
  996SOL     OW 3755   2.361   1.945   1.083  0.2298 -0.1601 -0.0802
  996SOL    HW2 3756   2.403   1.985   1.007  1.5377  1.4537  1.3838
  996SOL    HW3 3757   2.295   2.009   1.111 -1.3336 -1.4416 -0.7350
  996SOL    MW4 3758   2.358   1.959   1.077  0.1961 -0.1163  0.0266
  997SOL     OW 3759   6.248   6.270   5.104 -0.0843 -0.0212  0.4273
  997SOL    HW2 3760   6.329   6.226   5.131  0.2737  0.8250  0.7703
  997SOL    HW3 3761   6.178   6.215   5.141  0.2738 -1.3745 -0.8162
  997SOL    MW4 3762   6.249   6.257   5.113  0.0102 -0.0881  0.3085
  998SOL     OW 3763   2.606   3.418   3.712  0.1404 -0.3863  0.5856
  998SOL    HW2 3764   2.605   3.513   3.716 -0.4208 -0.4249  1.7926
  998SOL    HW3 3765   2.688   3.392   3.756  1.3771 -0.4306 -1.6112
  998SOL    MW4 3766   2.617   3.427   3.718  0.2295 -0.3972  0.4550
  999SOL     OW 3767   1.579   3.535   5.954  0.4327  0.0621 -0.3739
  999SOL    HW2 3768   1.541   3.610   5.999  1.2357  0.0265  0.3772
  999SOL    HW3 3769   1.510   3.469   5.955 -0.4951  0.9567 -1.5500
  999SOL    MW4 3770   1.565   3.536   5.960  0.4163  0.1754 -0.4299
 1000SOL     OW 3771   3.825   5.740   2.457 -0.2339 -0.3391 -0.3565
 1000SOL    HW2 3772   3.890   5.803   2.489  0.5926 -1.1192 -0.4715
 1000SOL    HW3 3773   3.742   5.786   2.467  0.2880  0.5512  0.1237
 1000SOL    MW4 3774   3.823   5.755   2.462 -0.0560 -0.3245 -0.3083
 1001SOL     OW 3775   4.344   5.900   1.789  0.3137  0.1522  0.9415
 1001SOL    HW2 3776   4.437   5.887   1.808  0.8037  1.8551 -0.1715
 1001SOL    HW3 3777   4.341   5.964   1.719 -1.6454 -1.4211 -0.5744
 1001SOL    MW4 3778   4.356   5.906   1.783  0.1199  0.1693  0.5947
 1002SOL     OW 3779   3.654   1.913   5.322 -0.3224 -0.4079  0.3869
 1002SOL    HW2 3780   3.687   1.965   5.395 -1.4863 -0.6430  1.1063
 1002SOL    HW3 3781   3.717   1.841   5.312 -1.4131 -1.8283  2.8469
 1002SOL    MW4 3782   3.667   1.910   5.330 -0.6198 -0.6263  0.8064
 1003SOL     OW 3783   0.393   2.992   0.846 -0.5853  0.2208 -0.0975
 1003SOL    HW2 3784   0.415   2.899   0.854 -1.9659 -0.0579  0.7236
 1003SOL    HW3 3785   0.461   3.027   0.788 -0.0801 -1.3035 -0.4883
 1003SOL    MW4 3786   0.405   2.984   0.839 -0.7008 -0.0171 -0.0407
 1004SOL     OW 3787   5.611   4.586   4.097 -0.1325  0.2025 -0.2655
 1004SOL    HW2 3788   5.607   4.509   4.041  3.8410 -1.3026  1.1943
 1004SOL    HW3 3789   5.603   4.553   4.186  0.5018  1.6028  0.3519
 1004SOL    MW4 3790   5.610   4.572   4.101  0.4754  0.1887  0.0085
 1005SOL     OW 3791   5.554   2.290   5.012 -0.6328 -0.2755  0.4568
 1005SOL    HW2 3792   5.516   2.312   4.928  1.9684  0.6293 -0.5830
 1005SOL    HW3 3793   5.524   2.359   5.071  0.3096  1.1304 -0.6322
 1005SOL    MW4 3794   5.545   2.302   5.009 -0.1653  0.0293  0.1759
 1006SOL     OW 3795   0.917   5.206   0.001 -0.4267  0.1657 -0.5887
 1006SOL    HW2 3796   0.996   5.153   0.012 -1.1251 -0.7936 -0.0241
 1006SOL    HW3 3797   0.944   5.296   0.020  0.3564 -0.2571  0.3498
 1006SOL    MW4 3798   0.931   5.211   0.005 -0.4155 -0.0167 -0.3904
 1007SOL     OW 3799   2.010   3.055   1.105 -0.7130 -0.8444  0.4225
 1007SOL    HW2 3800   2.003   2.986   1.171 -0.8785  0.6032  1.9769
 1007SOL    HW3 3801   1.926   3.100   1.108 -0.0512  0.4133  0.5727
 1007SOL    MW4 3802   1.998   3.051   1.114 -0.6475 -0.4875  0.6474
 1008SOL     OW 3803   3.662   3.716   5.335  0.5279 -0.3636 -0.0074
 1008SOL    HW2 3804   3.630   3.782   5.274 -2.7155 -2.4651 -0.8337
 1008SOL    HW3 3805   3.599   3.717   5.407  1.9334 -0.7759  1.2769
 1008SOL    MW4 3806   3.650   3.725   5.336  0.2854 -0.6953  0.0530
 1009SOL     OW 3807   2.958   2.637   0.233  0.1433  0.0119  0.0643
 1009SOL    HW2 3808   2.966   2.542   0.236 -0.2529 -0.0309 -0.1473
 1009SOL    HW3 3809   3.038   2.666   0.189  0.4570 -0.1912  0.4933
 1009SOL    MW4 3810   2.969   2.628   0.227  0.1324 -0.0205  0.0930
 1010SOL     OW 3811   5.496   2.774   0.676 -0.3666 -0.6731 -0.3401
 1010SOL    HW2 3812   5.475   2.868   0.676 -1.2895 -0.8727 -0.1064
 1010SOL    HW3 3813   5.443   2.738   0.604 -0.2009 -1.0568 -0.2717
 1010SOL    MW4 3814   5.486   2.782   0.666 -0.4665 -0.7500 -0.3003
 1011SOL     OW 3815   4.598   0.438   3.771  0.4603  0.4560  0.0801
 1011SOL    HW2 3816   4.551   0.457   3.852  0.6299 -0.1022  0.3092
 1011SOL    HW3 3817   4.570   0.507   3.711 -1.9028 -0.7504 -0.3051
 1011SOL    MW4 3818   4.588   0.450   3.774  0.1709  0.2232  0.0595
 1012SOL     OW 3819   3.356   1.976   4.421 -0.1792  0.1540 -0.0991
 1012SOL    HW2 3820   3.411   1.917   4.473  1.4658  1.2938 -0.4502
 1012SOL    HW3 3821   3.414   2.007   4.351 -1.3703  1.1913 -0.6745
 1012SOL    MW4 3822   3.371   1.972   4.418 -0.1193  0.4412 -0.2213
 1013SOL     OW 3823   3.454   1.798   0.894  0.0105  0.4593  0.3238
 1013SOL    HW2 3824   3.400   1.810   0.972 -0.5811  1.8221 -0.2560
 1013SOL    HW3 3825   3.480   1.887   0.868 -0.1617  0.0867 -1.2620
 1013SOL    MW4 3826   3.450   1.811   0.901 -0.0903  0.5899  0.0381
 1014SOL     OW 3827   5.320   1.316   5.373 -0.2717  0.1274 -0.4265
 1014SOL    HW2 3828   5.367   1.240   5.339  1.0049  1.7745 -2.5488
 1014SOL    HW3 3829   5.366   1.339   5.454  0.0761 -0.6084 -0.4100
 1014SOL    MW4 3830   5.332   1.309   5.379 -0.0574  0.2476 -0.7043
 1015SOL     OW 3831   0.837   1.701   2.812 -0.5437 -0.6559  0.0643
 1015SOL    HW2 3832   0.846   1.768   2.880 -1.7290 -0.0388 -0.3695
 1015SOL    HW3 3833   0.877   1.623   2.851 -0.2177 -0.0201  1.0444
 1015SOL    MW4 3834   0.844   1.700   2.826 -0.6571 -0.4906  0.1364
 1016SOL     OW 3835   4.588   1.314   4.681 -0.3565  0.2184 -0.5136
 1016SOL    HW2 3836   4.533   1.268   4.618  1.0616 -0.8511 -1.0319
 1016SOL    HW3 3837   4.546   1.301   4.765 -1.4526  0.3386 -1.0311
 1016SOL    MW4 3838   4.575   1.306   4.684 -0.3140  0.0932 -0.6503
 1017SOL     OW 3839   2.166   4.502   5.299 -0.3610  0.2108 -0.0363
 1017SOL    HW2 3840   2.143   4.563   5.370  0.1864  2.1471 -1.4511
 1017SOL    HW3 3841   2.091   4.505   5.240 -0.7746 -1.3353  0.3622
 1017SOL    MW4 3842   2.153   4.510   5.301 -0.3433  0.2623 -0.1704
 1018SOL     OW 3843   0.239   1.957   2.988 -0.3711 -0.1206  0.1794
 1018SOL    HW2 3844   0.244   2.016   3.063  1.8651 -0.1138  0.0916
 1018SOL    HW3 3845   0.275   1.874   3.020 -2.6418 -1.2554  0.0460
 1018SOL    MW4 3846   0.244   1.953   3.002 -0.3756 -0.2694  0.1502
 1019SOL     OW 3847   4.072   2.223   0.454 -0.8987  0.1699  0.3209
 1019SOL    HW2 3848   4.135   2.262   0.394 -0.8549 -0.6526 -0.1722
 1019SOL    HW3 3849   4.041   2.145   0.410  0.1341 -1.2267  1.9348
 1019SOL    MW4 3850   4.076   2.218   0.441 -0.7567 -0.1229  0.4688
 1020SOL     OW 3851   3.473   4.304   0.975  0.5517  0.2184 -0.0303
 1020SOL    HW2 3852   3.411   4.366   0.937 -0.1379  0.5459  1.5349
 1020SOL    HW3 3853   3.503   4.252   0.901  0.5090  1.8524 -1.2551
 1020SOL    MW4 3854   3.469   4.305   0.960  0.4551  0.4772  0.0146
 1021SOL     OW 3855   6.144   5.659   1.865  0.4701 -0.0927 -0.2478
 1021SOL    HW2 3856   6.228   5.702   1.880  1.3754 -2.1251  1.0995
 1021SOL    HW3 3857   6.090   5.685   1.940  0.2323  0.4823 -0.6218
 1021SOL    MW4 3858   6.148   5.668   1.877  0.5582 -0.2849 -0.1194
 1022SOL     OW 3859   5.099   1.621   2.947  0.0197 -0.5434 -0.1918
 1022SOL    HW2 3860   5.174   1.637   3.004  0.0292 -1.6116  0.1038
 1022SOL    HW3 3861   5.133   1.562   2.879 -0.0038  0.6630 -1.3011
 1022SOL    MW4 3862   5.114   1.615   2.945  0.0178 -0.5252 -0.2992
 1023SOL     OW 3863   4.860   2.018   2.465 -0.1529  0.0991  0.3478
 1023SOL    HW2 3864   4.947   2.002   2.429 -0.0656 -1.0043  1.0129
 1023SOL    HW3 3865   4.863   1.979   2.552 -1.8485 -1.4321 -0.2369
 1023SOL    MW4 3866   4.872   2.011   2.472 -0.3651 -0.2485  0.3584
 1024SOL     OW 3867   6.104   5.196   2.194  0.1648 -0.0712 -0.3537
 1024SOL    HW2 3868   6.068   5.285   2.185  0.5539  0.6003  3.3568
 1024SOL    HW3 3869   6.197   5.210   2.211  0.5594 -1.3309 -1.3383
 1024SOL    MW4 3870   6.112   5.210   2.195  0.2682 -0.1488  0.0059
 1025SOL     OW 3871   3.016   4.395   1.541 -0.3145 -0.2729  0.3543
 1025SOL    HW2 3872   2.940   4.339   1.555 -0.6875  0.0835 -0.1824
 1025SOL    HW3 3873   3.070   4.383   1.618 -1.1034 -0.2375  0.9253
 1025SOL    MW4 3874   3.013   4.386   1.553 -0.4678 -0.2212  0.3588
 1026SOL     OW 3875   0.139   3.666   0.600 -0.2583  0.2656 -0.3174
 1026SOL    HW2 3876   0.065   3.687   0.543 -1.3905  0.6520  1.2272
 1026SOL    HW3 3877   0.203   3.735   0.584 -0.4948  0.2930 -1.1969
 1026SOL    MW4 3878   0.137   3.678   0.590 -0.4388  0.3202 -0.2297
 1027SOL     OW 3879   1.411   6.317   5.004  0.8324  0.2675  0.3351
 1027SOL    HW2 3880   1.428   6.277   4.919  1.3914  2.4954 -0.6631
 1027SOL    HW3 3881   1.490   6.300   5.055  0.4121 -1.2613  0.5558
 1027SOL    MW4 3882   1.424   6.309   4.999  0.8507  0.3597  0.2325
 1028SOL     OW 3883   4.631   1.742   1.139 -0.5658  0.5127 -0.0978
 1028SOL    HW2 3884   4.659   1.730   1.229  1.3682 -0.4165 -0.7799
 1028SOL    HW3 3885   4.615   1.836   1.131  2.4240  1.1646  0.3998
 1028SOL    MW4 3886   4.632   1.753   1.150  0.0838  0.4761 -0.1222
 1029SOL     OW 3887   5.957   1.526   2.303  0.5859  0.8171 -0.8213
 1029SOL    HW2 3888   6.032   1.477   2.336  0.7229  1.6205  0.1353
 1029SOL    HW3 3889   5.954   1.604   2.359 -0.0395  1.5439 -1.8410
 1029SOL    MW4 3890   5.967   1.530   2.315  0.5215  1.0190 -0.8297
 1030SOL     OW 3891   1.149   4.459   5.307  0.3717 -0.4966  0.0941
 1030SOL    HW2 3892   1.057   4.437   5.301  0.4542 -1.4447  1.7077
 1030SOL    HW3 3893   1.193   4.398   5.247 -0.2822  2.5607 -3.8857
 1030SOL    MW4 3894   1.143   4.448   5.298  0.2963 -0.2183 -0.2181
 1031SOL     OW 3895   0.474   2.347   3.547  0.3892  0.1813  0.1473
 1031SOL    HW2 3896   0.517   2.392   3.475 -1.2050  2.1974  0.3423
 1031SOL    HW3 3897   0.544   2.299   3.592  1.9043  1.2033 -1.0504
 1031SOL    MW4 3898   0.489   2.347   3.544  0.3787  0.5821  0.0150
 1032SOL     OW 3899   4.907   0.008   2.887 -0.4219  0.7356 -0.6891
 1032SOL    HW2 3900   4.812   0.002   2.885 -0.4231  0.8835 -1.7752
 1032SOL    HW3 3901   4.925   0.086   2.939 -0.8914  0.7379 -0.5259
 1032SOL    MW4 3902   4.897   0.018   2.893 -0.4840  0.7554 -0.8109
 1033SOL     OW 3903   2.167   4.852   3.162  0.7125  0.0098 -0.3783
 1033SOL    HW2 3904   2.156   4.945   3.179 -0.8786 -0.4082  1.2143
 1033SOL    HW3 3905   2.087   4.825   3.118  0.6165 -0.8173  0.2706
 1033SOL    MW4 3906   2.155   4.860   3.159  0.4899 -0.1545 -0.0826
 1034SOL     OW 3907   0.687   0.244   2.856  0.4204 -0.0383  0.1147
 1034SOL    HW2 3908   0.710   0.159   2.894 -0.1923 -0.1374  0.2843
 1034SOL    HW3 3909   0.595   0.234   2.830  0.5692  0.3201 -0.5788
 1034SOL    MW4 3910   0.678   0.231   2.857  0.3592 -0.0041  0.0456
 1035SOL     OW 3911   3.961   2.006   2.745  0.2683 -0.4344  0.8632
 1035SOL    HW2 3912   4.009   2.066   2.802  0.7028  0.2118 -0.1712
 1035SOL    HW3 3913   4.007   1.923   2.755  1.1639  0.0036  0.4326
 1035SOL    MW4 3914   3.974   2.003   2.754  0.4438 -0.2914  0.6699
 1036SOL     OW 3915   4.800   5.749   3.657 -0.0943 -0.1503  0.0493
 1036SOL    HW2 3916   4.784   5.841   3.675  0.5027  0.3428 -1.7416
 1036SOL    HW3 3917   4.853   5.749   3.577  0.5273 -2.0202  0.4113
 1036SOL    MW4 3918   4.805   5.761   3.649  0.0665 -0.3319 -0.1392
 1037SOL     OW 3919   1.835   4.168   0.996 -0.1749 -0.2854  0.0893
 1037SOL    HW2 3920   1.791   4.087   1.023  1.2316 -1.1592 -0.1130
 1037SOL    HW3 3921   1.918   4.167   1.044  0.3389  0.4847 -0.7433
 1037SOL    MW4 3922   1.840   4.157   1.006  0.0785 -0.2991 -0.0472
 1038SOL     OW 3923   4.529   2.476   5.054 -0.4529 -0.2664  0.0957
 1038SOL    HW2 3924   4.478   2.425   5.116 -0.9170 -0.3321 -0.3381
 1038SOL    HW3 3925   4.613   2.429   5.047 -0.5069 -0.4156  0.4473
 1038SOL    MW4 3926   4.534   2.463   5.061 -0.5212 -0.2948  0.0849
 1039SOL     OW 3927   5.689   2.385   0.475 -0.2322 -0.0877 -0.0552
 1039SOL    HW2 3928   5.728   2.374   0.389 -1.2808  1.5851 -0.8118
 1039SOL    HW3 3929   5.610   2.331   0.474 -0.7273  0.6184 -0.5175
 1039SOL    MW4 3930   5.683   2.377   0.464 -0.4358  0.2262 -0.2160
 1040SOL     OW 3931   3.651   6.039   4.372  0.3449  0.3852  0.0774
 1040SOL    HW2 3932   3.578   6.086   4.411 -0.5501 -0.0798 -0.9930
 1040SOL    HW3 3933   3.648   6.061   4.279 -0.3527 -2.0246 -0.5557
 1040SOL    MW4 3934   3.641   6.048   4.365  0.1347  0.0059 -0.1474
 1041SOL     OW 3935   5.644   2.814   3.205 -0.0141  0.0500 -0.5127
 1041SOL    HW2 3936   5.616   2.874   3.136 -0.4668  0.7174  0.2452
 1041SOL    HW3 3937   5.704   2.754   3.160  1.2012  1.6196 -1.1158
 1041SOL    MW4 3938   5.648   2.814   3.190  0.0865  0.3451 -0.4923
 1042SOL     OW 3939   2.575   3.814   5.790  0.2104  0.2891  0.6890
 1042SOL    HW2 3940   2.490   3.769   5.784 -0.4212  1.5708 -0.6071
 1042SOL    HW3 3941   2.638   3.747   5.764 -0.6468 -0.0939 -0.5564
 1042SOL    MW4 3942   2.572   3.799   5.786  0.0140  0.4077  0.3537
 1043SOL     OW 3943   4.450   0.480   4.019 -0.6388 -0.4271 -0.2701
 1043SOL    HW2 3944   4.432   0.567   4.056 -1.5965 -1.0745  0.9001
 1043SOL    HW3 3945   4.446   0.422   4.095 -0.2565 -1.5231 -1.0776
 1043SOL    MW4 3946   4.447   0.484   4.034 -0.7147 -0.6571 -0.2222
 1044SOL     OW 3947   3.901   0.188   5.235 -0.0401 -0.1652  0.1054
 1044SOL    HW2 3948   3.951   0.189   5.316  0.6918 -0.0053 -0.3386
 1044SOL    HW3 3949   3.821   0.141   5.257 -0.1946  0.5318  1.1134
 1044SOL    MW4 3950   3.897   0.182   5.248  0.0361 -0.0521  0.1798
 1045SOL     OW 3951   5.496   5.557   2.492 -0.0195  0.0300 -0.2874
 1045SOL    HW2 3952   5.500   5.543   2.397 -1.4226 -0.0016 -0.3657
 1045SOL    HW3 3953   5.433   5.629   2.503  1.5113  1.3237  0.5374
 1045SOL    MW4 3954   5.488   5.565   2.481 -0.0027  0.1965 -0.1889
 1046SOL     OW 3955   3.059   0.831   2.598 -0.0542 -0.0830  0.2265
 1046SOL    HW2 3956   3.149   0.851   2.622 -0.1076 -1.3453  1.6345
 1046SOL    HW3 3957   3.065   0.788   2.513  0.7351 -0.7512  0.6140
 1046SOL    MW4 3958   3.071   0.828   2.590  0.0429 -0.3377  0.4634
 1047SOL     OW 3959   2.390   3.593   0.839 -0.3308  0.2386  0.4297
 1047SOL    HW2 3960   2.323   3.617   0.776  0.3495  2.2570  0.4008
 1047SOL    HW3 3961   2.343   3.546   0.908 -1.3738 -0.3626 -0.6638
 1047SOL    MW4 3962   2.375   3.590   0.840 -0.3786  0.4256  0.2816
 1048SOL     OW 3963   5.516   0.071   3.433 -0.3235 -0.3571 -0.6685
 1048SOL    HW2 3964   5.467   0.106   3.508 -0.5626 -0.6718 -0.6759
 1048SOL    HW3 3965   5.452   0.068   3.362  0.3181  1.5863 -1.3978
 1048SOL    MW4 3966   5.501   0.075   3.434 -0.2704 -0.1422 -0.7657
 1049SOL     OW 3967   0.180   2.415   1.204 -0.2088  0.0931  0.1816
 1049SOL    HW2 3968   0.101   2.441   1.253 -0.5630  1.5380 -1.0731
 1049SOL    HW3 3969   0.242   2.487   1.219  0.2531 -0.2171 -0.2134
 1049SOL    MW4 3970   0.178   2.428   1.213 -0.1946  0.2428 -0.0361
 1050SOL     OW 3971   1.394   3.135   6.051  0.5822  0.1441 -0.7098
 1050SOL    HW2 3972   1.405   3.048   6.088  0.3564 -0.2673 -1.5772
 1050SOL    HW3 3973   1.367   3.190   6.125  0.9432 -0.4705 -0.1159
 1050SOL    MW4 3974   1.392   3.131   6.065  0.6001  0.0088 -0.7459
 1051SOL     OW 3975   2.860   2.783   4.767  0.0175 -0.4914 -0.0685
 1051SOL    HW2 3976   2.858   2.762   4.860 -0.3293 -0.6985 -0.1196
 1051SOL    HW3 3977   2.803   2.858   4.757 -0.6862 -1.0347 -0.2444
 1051SOL    MW4 3978   2.852   2.790   4.778 -0.1211 -0.5904 -0.0985
 1052SOL     OW 3979   3.632   0.374   6.007  0.5097 -0.5129 -0.5376
 1052SOL    HW2 3980   3.709   0.394   6.062 -0.9892  1.6405  0.9597
 1052SOL    HW3 3981   3.586   0.305   6.054 -0.5874  1.0861  0.8326
 1052SOL    MW4 3982   3.636   0.368   6.021  0.1672 -0.0178 -0.1593
 1053SOL     OW 3983   4.353   1.347   3.650  0.0234 -0.1166  0.2825
 1053SOL    HW2 3984   4.418   1.292   3.606  0.5231  0.5882  0.1354
 1053SOL    HW3 3985   4.270   1.324   3.608 -0.0542 -1.8958  1.2755
 1053SOL    MW4 3986   4.351   1.337   3.639  0.0791 -0.2584  0.3941
 1054SOL     OW 3987   4.757   2.756   2.224  0.4250 -0.3929  1.4615
 1054SOL    HW2 3988   4.814   2.833   2.220 -0.1569  0.0084  0.7422
 1054SOL    HW3 3989   4.747   2.729   2.133 -1.3528  0.1631  1.4590
 1054SOL    MW4 3990   4.763   2.763   2.211  0.1136 -0.2666  1.3663
 1055SOL     OW 3991   5.804   1.679   4.381 -0.2145 -0.0316 -0.7313
 1055SOL    HW2 3992   5.818   1.602   4.436  0.3512  0.7349  0.2471
 1055SOL    HW3 3993   5.739   1.652   4.317 -1.5469 -0.7184  0.8380
 1055SOL    MW4 3994   5.797   1.665   4.380 -0.3157 -0.0211 -0.3952
 1056SOL     OW 3995   0.700   1.912   3.623  0.1330  0.0191  0.6384
 1056SOL    HW2 3996   0.783   1.871   3.597  0.9650  1.2429  1.2483
 1056SOL    HW3 3997   0.640   1.893   3.550  1.1332 -0.3284 -0.1215
 1056SOL    MW4 3998   0.703   1.904   3.610  0.3747  0.1347  0.6186
 1057SOL     OW 3999   4.894   5.111   4.219  0.3589  0.8162  0.8252
 1057SOL    HW2 4000   4.833   5.136   4.289  0.2813  0.6730  0.8097
 1057SOL    HW3 4001   4.906   5.191   4.168 -1.7571  0.2829 -0.6520
 1057SOL    MW4 4002   4.888   5.125   4.222  0.0695  0.7270  0.6282
 1058SOL     OW 4003   6.065   5.983   3.182 -0.4682 -0.4387  0.1364
 1058SOL    HW2 4004   6.143   6.023   3.222  0.1427  0.0421 -1.4406
 1058SOL    HW3 4005   5.994   6.003   3.242  0.4401  0.0587  1.0772
 1058SOL    MW4 4006   6.066   5.991   3.195 -0.2678 -0.3096  0.0525
 1059SOL     OW 4007   3.221   5.757   3.585  0.4655 -0.4071 -0.0119
 1059SOL    HW2 4008   3.199   5.666   3.565 -0.4586 -0.3921  0.8628
 1059SOL    HW3 4009   3.156   5.783   3.650  0.4602  1.0100 -0.5533
 1059SOL    MW4 4010   3.209   5.748   3.591  0.3428 -0.2182  0.0321
 1060SOL     OW 4011   1.469   0.058   1.275 -0.3716  0.3233 -0.9214
 1060SOL    HW2 4012   1.563   0.048   1.285 -0.2658  2.1120  0.4015
 1060SOL    HW3 4013   1.458   0.125   1.207 -0.7528 -0.8142 -2.0191
 1060SOL    MW4 4014   1.480   0.066   1.267 -0.4080  0.4092 -0.8917
 1061SOL     OW 4015   1.460   5.156   0.531 -0.5147  0.1916  0.2764
 1061SOL    HW2 4016   1.383   5.107   0.501  1.4761 -2.2480 -1.2364
 1061SOL    HW3 4017   1.469   5.226   0.467 -0.5182 -0.5620 -0.5708
 1061SOL    MW4 4018   1.451   5.159   0.519 -0.2525 -0.2297 -0.0350
 1062SOL     OW 4019   5.559   4.816   0.962  0.6787 -0.4287  0.2483
 1062SOL    HW2 4020   5.517   4.734   0.989  2.7153 -2.5235 -2.4395
 1062SOL    HW3 4021   5.520   4.836   0.877  1.0849  0.7314  0.3217
 1062SOL    MW4 4022   5.548   4.808   0.954  1.0010 -0.5520 -0.0966
 1063SOL     OW 4023   0.928   1.526   4.222 -0.5673 -0.3011  0.2484
 1063SOL    HW2 4024   1.016   1.550   4.250 -0.4144 -0.0345 -0.4368
 1063SOL    HW3 4025   0.939   1.493   4.133 -1.1485 -0.3567  0.1885
 1063SOL    MW4 4026   0.941   1.524   4.214 -0.6238 -0.2732  0.1501
 1064SOL     OW 4027   0.564   6.117   0.850  0.3902 -0.3631 -0.1665
 1064SOL    HW2 4028   0.512   6.045   0.815  0.8583 -0.6503 -0.2741
 1064SOL    HW3 4029   0.500   6.187   0.865  0.3170  0.1555 -2.5907
 1064SOL    MW4 4030   0.549   6.117   0.847  0.4423 -0.3326 -0.5006
 1065SOL     OW 4031   1.560   4.665   5.243 -1.1635 -0.1822  0.2369
 1065SOL    HW2 4032   1.537   4.606   5.314 -1.9364 -1.1870 -0.8132
 1065SOL    HW3 4033   1.490   4.730   5.242 -2.1076 -1.1915 -0.7108
 1065SOL    MW4 4034   1.548   4.666   5.252 -1.3901 -0.4479 -0.0267
 1066SOL     OW 4035   5.889   2.866   5.569 -0.1154  0.1972 -0.5445
 1066SOL    HW2 4036   5.956   2.799   5.559  0.1282  0.3620 -0.0579
 1066SOL    HW3 4037   5.858   2.883   5.480  0.4362  0.0650 -0.7650
 1066SOL    MW4 4038   5.893   2.859   5.556 -0.0105  0.2015 -0.5094
 1067SOL     OW 4039   4.925   5.698   2.416 -0.0459 -0.6475  0.2294
 1067SOL    HW2 4040   4.848   5.662   2.373 -0.0779  0.5301 -0.7651
 1067SOL    HW3 4041   4.894   5.724   2.503 -0.7411 -0.2903 -0.1182
 1067SOL    MW4 4042   4.911   5.697   2.422 -0.1418 -0.4450  0.0523
 1068SOL     OW 4043   6.037   1.122   0.567  0.0545 -0.3489  0.0110
 1068SOL    HW2 4044   6.039   1.038   0.613  2.3613  0.0950  0.8481
 1068SOL    HW3 4045   6.019   1.099   0.476 -0.2844 -1.6516  0.3892
 1068SOL    MW4 4046   6.035   1.108   0.561  0.3141 -0.4622  0.1714
 1069SOL     OW 4047   5.374   0.375   0.544  0.7737  0.0566 -0.4056
 1069SOL    HW2 4048   5.293   0.361   0.495 -1.7663 -1.2592  3.6013
 1069SOL    HW3 4049   5.438   0.318   0.502 -1.7916 -2.6450 -1.0405
 1069SOL    MW4 4050   5.371   0.366   0.532  0.1001 -0.4734  0.0393
 1070SOL     OW 4051   4.332   4.603   3.100 -0.3294  0.0933 -0.1535
 1070SOL    HW2 4052   4.263   4.622   3.164 -0.0833  1.4712 -0.2540
 1070SOL    HW3 4053   4.400   4.558   3.150  0.9571  3.2577  1.2377
 1070SOL    MW4 4054   4.332   4.600   3.115 -0.1272  0.6926  0.0168
 1071SOL     OW 4055   4.928   2.552   1.789  0.1160 -0.1192  0.4797
 1071SOL    HW2 4056   4.942   2.527   1.698 -0.6041  0.6014  0.1584
 1071SOL    HW3 4057   4.967   2.481   1.839 -0.7678 -1.2730 -0.3959
 1071SOL    MW4 4058   4.935   2.540   1.783 -0.0956 -0.1764  0.3218
 1072SOL     OW 4059   5.389   3.712   3.980  0.2342  0.5618 -0.2706
 1072SOL    HW2 4060   5.447   3.636   3.983 -0.7536 -0.2575 -1.1303
 1072SOL    HW3 4061   5.352   3.719   4.068  0.3490  0.0559 -0.1839
 1072SOL    MW4 4062   5.391   3.703   3.992  0.1190  0.3869 -0.3726
 1073SOL     OW 4063   0.330   6.184   0.459 -0.1276 -0.2114  0.2791
 1073SOL    HW2 4064   0.425   6.199   0.460 -0.1734  0.1398 -0.5927
 1073SOL    HW3 4065   0.306   6.181   0.552  0.8500 -1.0534  0.5350
 1073SOL    MW4 4066   0.339   6.185   0.471 -0.0047 -0.2762  0.1978
 1074SOL     OW 4067   6.415   1.320   2.488  0.1480  0.3545  0.0263
 1074SOL    HW2 4068   6.482   1.387   2.474  1.3752 -0.2609  2.3702
 1074SOL    HW3 4069   6.359   1.326   2.411  3.0199  0.7370 -2.2160
 1074SOL    MW4 4070   6.416   1.330   2.476  0.6888  0.3238  0.0397
 1075SOL     OW 4071   1.223   2.861   6.371  0.3242 -0.6235 -0.7277
 1075SOL    HW2 4072   1.283   2.847   6.298  2.3422 -1.2799  0.9627
 1075SOL    HW3 4073   1.138   2.875   6.329  1.6203  0.4594 -3.2518
 1075SOL    MW4 4074   1.220   2.861   6.356  0.7615 -0.5673 -0.8377
 1076SOL     OW 4075   5.951   2.052   4.679 -0.3287  0.0135 -0.1569
 1076SOL    HW2 4076   5.950   2.144   4.653 -1.2425  0.1572  0.3724
 1076SOL    HW3 4077   5.871   2.040   4.729 -0.8431 -1.3609 -1.2421
 1076SOL    MW4 4078   5.940   2.062   4.682 -0.5171 -0.1488 -0.2302
 1077SOL     OW 4079   6.016   5.388   2.643 -0.2793  0.0541  0.3233
 1077SOL    HW2 4080   6.076   5.398   2.716 -0.5733  0.5730  0.5016
 1077SOL    HW3 4081   6.069   5.352   2.572  0.6709  2.1229 -0.0782
 1077SOL    MW4 4082   6.031   5.385   2.643 -0.1927  0.3955  0.2938
 1078SOL     OW 4083   1.817   5.187   1.071 -0.0308 -0.4394  0.4358
 1078SOL    HW2 4084   1.748   5.229   1.122 -0.5407 -0.5891 -0.1245
 1078SOL    HW3 4085   1.892   5.245   1.080 -0.5746  0.3328  0.0952
 1078SOL    MW4 4086   1.818   5.200   1.079 -0.1699 -0.3573  0.3169
 1079SOL     OW 4087   2.551   0.688   6.374 -0.0624 -0.2340  0.4941
 1079SOL    HW2 4088   2.621   0.625   6.361 -1.9122 -2.4761  0.6732
 1079SOL    HW3 4089   2.529   0.681   6.467 -0.1994  0.8240  0.5585
 1079SOL    MW4 4090   2.557   0.679   6.384 -0.3246 -0.3902  0.5262
 1080SOL     OW 4091   2.156   3.435   0.970 -1.0639  0.4503  0.5570
 1080SOL    HW2 4092   2.163   3.347   1.005  0.7356 -0.4221 -1.7614
 1080SOL    HW3 4093   2.216   3.487   1.022  2.7774 -1.1478 -1.8778
 1080SOL    MW4 4094   2.165   3.430   0.981 -0.3197  0.1243 -0.0701
 1081SOL     OW 4095   1.349   4.262   2.067 -0.2825 -0.2822 -0.0459
 1081SOL    HW2 4096   1.288   4.228   2.002 -2.4257 -0.3522  1.8489
 1081SOL    HW3 4097   1.300   4.332   2.110  1.0085 -0.3098  1.5525
 1081SOL    MW4 4098   1.334   4.267   2.064 -0.3950 -0.2951  0.4150
 1082SOL     OW 4099   1.605   4.210   2.902  0.0170  0.0772 -0.0746
 1082SOL    HW2 4100   1.618   4.224   2.996 -1.8276 -3.7969  0.9736
 1082SOL    HW3 4101   1.510   4.217   2.890 -0.0098 -1.5761 -1.1354
 1082SOL    MW4 4102   1.594   4.212   2.913 -0.2299 -0.6521 -0.0763
 1083SOL     OW 4103   1.517   5.126   5.297 -0.3752 -0.1688 -0.1925
 1083SOL    HW2 4104   1.554   5.213   5.315 -0.6583 -0.1386  0.2393
 1083SOL    HW3 4105   1.540   5.109   5.205 -0.3832  0.3921 -0.2998
 1083SOL    MW4 4106   1.525   5.135   5.287 -0.4136 -0.0908 -0.1497
 1084SOL     OW 4107   5.903   6.120   4.906  0.5696  0.3777 -0.3977
 1084SOL    HW2 4108   5.936   6.118   4.996 -0.1412  0.7847 -0.1226
 1084SOL    HW3 4109   5.898   6.028   4.880 -3.4667 -0.1885  1.5849
 1084SOL    MW4 4110   5.907   6.108   4.915 -0.0567  0.3567 -0.0998
 1085SOL     OW 4111   2.747   1.313   3.370  0.2994 -0.2288  0.2274
 1085SOL    HW2 4112   2.771   1.262   3.293  0.4338  0.3118 -0.0987
 1085SOL    HW3 4113   2.722   1.248   3.435  1.1285 -0.7407  0.0514
 1085SOL    MW4 4114   2.747   1.298   3.368  0.4265 -0.2250  0.1612
 1086SOL     OW 4115   1.392   3.876   5.431  0.5057  0.2909 -0.1680
 1086SOL    HW2 4116   1.371   3.881   5.524  0.8245 -0.2659 -0.0625
 1086SOL    HW3 4117   1.318   3.828   5.393  0.8639 -0.3756 -0.0343
 1086SOL    MW4 4118   1.379   3.870   5.438  0.5950  0.1295 -0.1365
 1087SOL     OW 4119   3.017   1.727   4.622  0.1496  0.3431  0.3039
 1087SOL    HW2 4120   3.063   1.729   4.538 -0.0432 -0.3513  0.1680
 1087SOL    HW3 4121   2.969   1.644   4.621 -1.0951  1.0376  0.4517
 1087SOL    MW4 4122   3.017   1.716   4.611 -0.0401  0.3431  0.3054
 1088SOL     OW 4123   4.028   3.899   1.187 -0.3332  0.1207  0.2841
 1088SOL    HW2 4124   4.036   3.804   1.184 -0.6522  0.1075 -0.2732
 1088SOL    HW3 4125   3.934   3.916   1.174 -0.1125  0.5503 -0.8745
 1088SOL    MW4 4126   4.016   3.889   1.185 -0.3462  0.1756  0.0577
 1089SOL     OW 4127   2.323   3.971   0.542 -0.0967  0.1928 -0.0018
 1089SOL    HW2 4128   2.402   3.925   0.513 -0.3687 -0.4704  0.3077
 1089SOL    HW3 4129   2.325   4.054   0.494 -1.0470 -1.2336 -2.7447
 1089SOL    MW4 4130   2.334   3.976   0.532 -0.2579 -0.0829 -0.3229
 1090SOL     OW 4131   6.286   1.314   4.995  0.3866  0.1689 -0.8295
 1090SOL    HW2 4132   6.280   1.394   4.943 -0.8438  0.2782 -0.5458
 1090SOL    HW3 4133   6.360   1.266   4.957  0.6086  1.0477 -1.5349
 1090SOL    MW4 4134   6.295   1.318   4.983  0.2535  0.2993 -0.8851
 1091SOL     OW 4135   1.854   1.082   6.232  0.6237  0.0770  0.8224
 1091SOL    HW2 4136   1.872   1.145   6.162  0.5864 -1.0103 -0.1900
 1091SOL    HW3 4137   1.791   1.021   6.193 -1.3028  0.8064  2.5875
 1091SOL    MW4 4138   1.848   1.082   6.218  0.3646  0.0298  0.9217
 1092SOL     OW 4139   4.841   6.149   2.722  0.2965 -0.2709  0.0357
 1092SOL    HW2 4140   4.828   6.244   2.721  2.9361  0.1746 -0.3955
 1092SOL    HW3 4141   4.814   6.120   2.635 -0.9508 -0.0304  0.3168
 1092SOL    MW4 4142   4.836   6.158   2.711  0.4802 -0.1804  0.0159
 1093SOL     OW 4143   5.804   1.190   0.713 -0.1536 -0.3271  0.3663
 1093SOL    HW2 4144   5.732   1.230   0.664 -0.5212 -1.8313 -0.3648
 1093SOL    HW3 4145   5.872   1.175   0.648  0.7159  0.7155  0.9788
 1093SOL    MW4 4146   5.803   1.193   0.698 -0.0874 -0.3880  0.3507
 1094SOL     OW 4147   3.968   1.066   1.021  0.0017  0.2457 -0.5531
 1094SOL    HW2 4148   3.991   0.993   0.962  1.3638  1.0492 -1.0675
 1094SOL    HW3 4149   3.879   1.046   1.050  1.0004 -2.6601  0.8842
 1094SOL    MW4 4150   3.959   1.054   1.017  0.3132 -0.0316 -0.4313
 1095SOL     OW 4151   5.758   6.360   2.227  0.2738 -0.5369  0.0187
 1095SOL    HW2 4152   5.848   6.330   2.220  1.1823  2.0154 -0.6028
 1095SOL    HW3 4153   5.744   6.414   2.149 -0.8849  1.1962  1.3186
 1095SOL    MW4 4154   5.768   6.363   2.216  0.2408  0.0285  0.1082
 1096SOL     OW 4155   5.473   2.905   2.548  0.1955  0.5176 -0.8714
 1096SOL    HW2 4156   5.474   2.809   2.549  2.0516  0.5055 -0.4372
 1096SOL    HW3 4157   5.387   2.928   2.582  0.2002 -0.9951  0.2929
 1096SOL    MW4 4158   5.462   2.895   2.553  0.4410  0.3164 -0.6605
 1097SOL     OW 4159   5.891   5.377   1.736  0.6896  0.1677  0.3947
 1097SOL    HW2 4160   5.872   5.442   1.803 -3.4010 -0.7204  0.3317
 1097SOL    HW3 4161   5.891   5.293   1.783  1.7222 -0.1677 -0.1661
 1097SOL    MW4 4162   5.888   5.374   1.751  0.2862  0.0063  0.3124
 1098SOL     OW 4163   2.487   3.146   3.835 -0.2704 -0.2408 -0.2980
 1098SOL    HW2 4164   2.534   3.219   3.793 -1.2909 -0.0143 -1.0928
 1098SOL    HW3 4165   2.442   3.102   3.763  1.0205 -2.2413  0.0174
 1098SOL    MW4 4166   2.487   3.150   3.820 -0.2347 -0.4749 -0.3612
 1099SOL     OW 4167   2.897   3.499   4.171  0.0462 -0.0998  0.0054
 1099SOL    HW2 4168   2.875   3.566   4.106  0.4720  0.2467  0.2172
 1099SOL    HW3 4169   2.832   3.430   4.157  0.1737 -0.0628 -0.8373
 1099SOL    MW4 4170   2.886   3.498   4.160  0.1192 -0.0492 -0.0779
 1100SOL     OW 4171   3.318   2.995   2.317  0.3492  0.1402  0.7663
 1100SOL    HW2 4172   3.390   3.002   2.254 -0.2923 -0.9501 -0.1291
 1100SOL    HW3 4173   3.344   3.052   2.390  1.1016  1.4596 -0.4790
 1100SOL    MW4 4174   3.331   3.003   2.319  0.3639  0.1704  0.4838
 1101SOL     OW 4175   5.241   5.219   5.021 -0.7606 -0.4999  0.0037
 1101SOL    HW2 4176   5.271   5.155   5.085 -1.0066 -0.7959 -0.1721
 1101SOL    HW3 4177   5.218   5.166   4.944  2.5963  0.0485 -1.5656
 1101SOL    MW4 4178   5.242   5.204   5.019 -0.3501 -0.4666 -0.2266
 1102SOL     OW 4179   5.688   5.445   1.552 -0.2285 -0.1870 -0.1561
 1102SOL    HW2 4180   5.765   5.413   1.599 -0.2236 -0.7635 -0.5464
 1102SOL    HW3 4181   5.702   5.539   1.546 -1.0083  0.1728  2.4085
 1102SOL    MW4 4182   5.700   5.453   1.558 -0.3307 -0.2156  0.1308
 1103SOL     OW 4183   6.330   4.626   3.533 -0.8839 -0.3150  0.1413
 1103SOL    HW2 4184   6.370   4.670   3.608  0.0862 -0.3016 -0.3714
 1103SOL    HW3 4185   6.296   4.544   3.569  1.2955 -1.2418  0.2644
 1103SOL    MW4 4186   6.331   4.621   3.548 -0.4684 -0.4355  0.0899
 1104SOL     OW 4187   6.046   6.309   0.475 -0.3164 -0.1037  0.8912
 1104SOL    HW2 4188   5.992   6.285   0.550 -1.4023  0.1794  0.2364
 1104SOL    HW3 4189   6.003   6.387   0.439  0.0778 -0.3327 -0.1167
 1104SOL    MW4 4190   6.033   6.316   0.480 -0.4076 -0.0966  0.6718
 1105SOL     OW 4191   4.009   2.810   4.871 -0.5692 -0.0772  0.2210
 1105SOL    HW2 4192   4.000   2.820   4.965  0.5861  0.1285  0.3192
 1105SOL    HW3 4193   3.936   2.860   4.834 -0.0359  1.2935  0.9623
 1105SOL    MW4 4194   3.998   2.818   4.878 -0.3464  0.1308  0.3318
 1106SOL     OW 4195   4.739   5.745   2.124  0.1691  0.1522 -0.0091
 1106SOL    HW2 4196   4.798   5.820   2.136  0.0790  0.4037 -1.0198
 1106SOL    HW3 4197   4.654   5.776   2.153  0.0395  0.6023 -0.8389
 1106SOL    MW4 4198   4.736   5.759   2.129  0.1401  0.2447 -0.2519
 1107SOL     OW 4199   6.067   5.001   0.225 -0.0115 -0.1380  0.0459
 1107SOL    HW2 4200   6.056   4.913   0.189 -0.6498 -0.3124  0.6485
 1107SOL    HW3 4201   5.988   5.048   0.198  0.4584  0.3423 -0.5162
 1107SOL    MW4 4202   6.055   4.996   0.217 -0.0337 -0.0976  0.0513
 1108SOL     OW 4203   5.145   3.748   5.102  0.0718  0.4590  0.3456
 1108SOL    HW2 4204   5.153   3.747   5.197  3.5123  1.4928  0.2065
 1108SOL    HW3 4205   5.197   3.673   5.072 -0.0071  0.8149 -0.7438
 1108SOL    MW4 4206   5.152   3.738   5.111  0.5153  0.6424  0.1835
 1109SOL     OW 4207   2.037   1.233   2.187 -0.2070  0.3041 -0.3912
 1109SOL    HW2 4208   1.983   1.242   2.108  0.0762 -1.9439 -0.9135
 1109SOL    HW3 4209   2.088   1.313   2.190 -2.7875  2.0839 -0.4313
 1109SOL    MW4 4210   2.036   1.245   2.177 -0.5101  0.2424 -0.4654
 1110SOL     OW 4211   6.105   5.361   0.612  0.1903 -0.3009 -0.2257
 1110SOL    HW2 4212   6.062   5.317   0.539 -0.4936 -2.0820  1.1833
 1110SOL    HW3 4213   6.167   5.296   0.645 -1.5516 -0.7095  2.5430
 1110SOL    MW4 4214   6.108   5.346   0.607 -0.1297 -0.5898  0.3255
 1111SOL     OW 4215   5.692   3.251   1.999  0.3446 -0.5398  0.1128
 1111SOL    HW2 4216   5.621   3.195   1.967 -0.3586  0.7195 -0.6148
 1111SOL    HW3 4217   5.747   3.265   1.922 -0.9197  1.8600 -0.4423
 1111SOL    MW4 4218   5.690   3.245   1.985  0.0850 -0.0570 -0.0564
 1112SOL     OW 4219   5.365   4.627   3.781  0.1088  0.0825 -0.0717
 1112SOL    HW2 4220   5.355   4.615   3.876 -0.2259 -0.7196 -0.1970
 1112SOL    HW3 4221   5.457   4.609   3.765 -0.2993 -2.2270 -0.2002
 1112SOL    MW4 4222   5.376   4.623   3.792  0.0108 -0.3280 -0.1052
 1113SOL     OW 4223   1.304   2.838   0.223  0.1900 -0.8494 -0.9912
 1113SOL    HW2 4224   1.302   2.848   0.128  0.8305 -1.9541 -1.1377
 1113SOL    HW3 4225   1.235   2.774   0.242  1.9511 -2.8648 -1.0560
 1113SOL    MW4 4226   1.294   2.831   0.213  0.5069 -1.2611 -1.0191
 1114SOL     OW 4227   6.354   0.742   1.573 -0.3215 -0.1648  0.0084
 1114SOL    HW2 4228   6.391   0.818   1.530  0.2285 -0.9042 -0.8663
 1114SOL    HW3 4229   6.387   0.667   1.523  1.1034 -1.1417  2.2347
 1114SOL    MW4 4230   6.363   0.742   1.561 -0.0609 -0.3913  0.1867
 1115SOL     OW 4231   1.228   2.868   4.948  0.6424 -0.3071 -0.7498
 1115SOL    HW2 4232   1.153   2.915   4.913  0.3239  0.0814  0.4206
 1115SOL    HW3 4233   1.248   2.802   4.882 -0.3275 -0.0022 -1.3607
 1115SOL    MW4 4234   1.221   2.865   4.935  0.4724 -0.2156 -0.6760
 1116SOL     OW 4235   3.067   6.145   0.048 -0.3963 -0.3059 -0.5366
 1116SOL    HW2 4236   2.994   6.088   0.071 -1.8729  0.9628 -1.8734
 1116SOL    HW3 4237   3.119   6.151   0.129 -3.5629  1.3745  1.5681
 1116SOL    MW4 4238   3.064   6.138   0.062 -1.0089  0.0832 -0.4353
 1117SOL     OW 4239   0.692   0.527   0.359  0.2957 -1.1807 -0.0306
 1117SOL    HW2 4240   0.635   0.470   0.307  0.2717 -0.8030 -0.4201
 1117SOL    HW3 4241   0.702   0.607   0.307  1.6566 -1.4582 -0.2358
 1117SOL    MW4 4242   0.686   0.530   0.345  0.4721 -1.1674 -0.1091
 1118SOL     OW 4243   5.941   4.504   4.050  0.3285 -0.0603 -0.6984
 1118SOL    HW2 4244   6.026   4.541   4.026  0.0165  1.4062  0.3121
 1118SOL    HW3 4245   5.961   4.443   4.121  0.5064  0.5355 -0.2323
 1118SOL    MW4 4246   5.955   4.501   4.056  0.3108  0.2118 -0.5036
 1119SOL     OW 4247   1.644   2.864   0.469 -0.2677  0.4730 -0.6420
 1119SOL    HW2 4248   1.727   2.848   0.514 -0.5616  0.8183  0.0412
 1119SOL    HW3 4249   1.627   2.784   0.420 -1.1437 -0.9398  1.7850
 1119SOL    MW4 4250   1.652   2.851   0.468 -0.4220  0.3321 -0.2316
 1120SOL     OW 4251   5.112   2.396   4.761  0.3164 -0.1959  0.0147
 1120SOL    HW2 4252   5.022   2.421   4.739  0.2959  0.1934  0.5187
 1120SOL    HW3 4253   5.129   2.441   4.844  0.7749 -0.7400  0.2142
 1120SOL    MW4 4254   5.102   2.405   4.769  0.3742 -0.2163  0.1075
 1121SOL     OW 4255   6.320   3.332   0.973 -0.3096  0.0079  0.3831
 1121SOL    HW2 4256   6.339   3.424   0.954  0.4074 -0.1038  0.5194
 1121SOL    HW3 4257   6.306   3.329   1.067 -2.3833  0.3093  0.1321
 1121SOL    MW4 4258   6.321   3.344   0.983 -0.4886  0.0329  0.3679
 1122SOL     OW 4259   4.718   4.153   4.671 -0.7248  0.6652  0.5090
 1122SOL    HW2 4260   4.760   4.071   4.696 -1.7083  0.6711  2.3722
 1122SOL    HW3 4261   4.710   4.202   4.753 -1.3883  2.0536 -0.3396
 1122SOL    MW4 4262   4.722   4.149   4.685 -0.9421  0.8492  0.6429
 1123SOL     OW 4263   0.359   1.959   4.718  0.2997 -0.2467 -0.3071
 1123SOL    HW2 4264   0.283   2.016   4.724  1.1804  0.9265  0.0134
 1123SOL    HW3 4265   0.340   1.901   4.644  0.2052  1.7380 -1.9171
 1123SOL    MW4 4266   0.346   1.959   4.709  0.4034  0.1699 -0.4772
 1124SOL     OW 4267   2.018   1.016   3.464  0.3691 -0.2617 -0.0666
 1124SOL    HW2 4268   2.056   0.962   3.534  0.7531 -1.1189 -0.9200
 1124SOL    HW3 4269   2.012   0.958   3.389  1.4335  1.0462 -1.2296
 1124SOL    MW4 4270   2.022   1.001   3.463  0.5602 -0.2023 -0.3326
 1125SOL     OW 4271   5.922   3.275   1.838  0.0452 -0.3796 -0.7506
 1125SOL    HW2 4272   5.985   3.347   1.846  0.8595 -0.9515 -1.7719
 1125SOL    HW3 4273   5.968   3.200   1.876 -1.0997 -0.2368  1.0606
 1125SOL    MW4 4274   5.936   3.275   1.844  0.0016 -0.4362 -0.6464
 1126SOL     OW 4275   2.682   0.277   4.715  0.4841 -0.2713  0.0613
 1126SOL    HW2 4276   2.650   0.240   4.633  1.3121 -1.4860  0.2598
 1126SOL    HW3 4277   2.729   0.205   4.758 -0.3219  0.1885  1.8337
 1126SOL    MW4 4278   2.684   0.263   4.710  0.4870 -0.3709  0.3213
 1127SOL     OW 4279   6.106   4.187   5.327 -0.0234 -0.0800 -0.0747
 1127SOL    HW2 4280   6.080   4.156   5.240  0.0275 -1.0903  0.2552
 1127SOL    HW3 4281   6.025   4.220   5.366  0.0718  0.9919 -0.7337
 1127SOL    MW4 4282   6.092   4.187   5.321 -0.0041 -0.0719 -0.1181
 1128SOL     OW 4283   0.980   3.282   3.956  0.1428  0.4391  0.1778
 1128SOL    HW2 4284   1.056   3.316   3.909 -1.9359  3.3138 -1.3824
 1128SOL    HW3 4285   0.957   3.350   4.019 -0.5228 -0.8989  1.4676
 1128SOL    MW4 4286   0.987   3.295   3.958 -0.2193  0.6419  0.1422
 1129SOL     OW 4287   3.541   5.258   3.604 -0.2959  0.1076  0.0362
 1129SOL    HW2 4288   3.493   5.254   3.522 -0.3451  0.7478  0.0289
 1129SOL    HW3 4289   3.629   5.285   3.579 -0.3824  0.5612  0.2224
 1129SOL    MW4 4290   3.547   5.261   3.590 -0.3138  0.2519  0.0598
 1130SOL     OW 4291   3.317   1.069   5.513  0.1950 -0.2895  0.0949
 1130SOL    HW2 4292   3.244   1.048   5.571 -1.1683  0.4571 -1.2650
 1130SOL    HW3 4293   3.303   1.014   5.436  0.3789  0.7245 -0.6852
 1130SOL    MW4 4294   3.306   1.059   5.511  0.0394 -0.0572 -0.1875
 1131SOL     OW 4295   3.400   4.451   5.872 -0.0532  0.1715  0.0604
 1131SOL    HW2 4296   3.438   4.373   5.832 -1.2805  0.4487 -1.7749
 1131SOL    HW3 4297   3.364   4.500   5.798 -0.4654  1.8428  1.3095
 1131SOL    MW4 4298   3.400   4.447   5.857 -0.2695  0.4286 -0.0170
 1132SOL     OW 4299   3.375   1.353   4.431 -0.0208  0.6028 -0.4043
 1132SOL    HW2 4300   3.368   1.351   4.335  1.0151  0.4924 -0.4927
 1132SOL    HW3 4301   3.415   1.438   4.449 -1.3498  1.1601  0.0342
 1132SOL    MW4 4302   3.380   1.364   4.420 -0.0595  0.6617 -0.3581
 1133SOL     OW 4303   2.093   0.899   3.226  0.7260  0.1967  1.2215
 1133SOL    HW2 4304   2.067   0.817   3.185  0.8931 -0.5956  2.6473
 1133SOL    HW3 4305   2.074   0.966   3.160  0.4967 -0.9623  0.0779
 1133SOL    MW4 4306   2.087   0.897   3.212  0.7178 -0.0608  1.2587
 1134SOL     OW 4307   3.017   5.200   3.746  0.3824 -0.6396 -0.5562
 1134SOL    HW2 4308   2.953   5.135   3.776 -0.0082 -0.5383 -1.1692
 1134SOL    HW3 4309   2.990   5.281   3.788  2.4123 -1.3152  2.4373
 1134SOL    MW4 4310   3.005   5.202   3.756  0.5987 -0.7153 -0.2421
 1135SOL     OW 4311   0.018   2.646   0.294  0.2260  0.4815  0.5029
 1135SOL    HW2 4312  -0.021   2.725   0.332 -0.7619 -0.4347  1.4409
 1135SOL    HW3 4313   0.072   2.610   0.364  1.8742  1.0872 -0.4009
 1135SOL    MW4 4314   0.020   2.652   0.308  0.3131  0.4405  0.5074
 1136SOL     OW 4315   3.620   5.472   6.147  0.4753 -0.1986 -0.7882
 1136SOL    HW2 4316   3.700   5.522   6.162  0.4120 -0.1634 -0.5692
 1136SOL    HW3 4317   3.550   5.538   6.147  0.3878 -0.2907 -0.4658
 1136SOL    MW4 4318   3.621   5.487   6.149  0.4554 -0.2061 -0.7168
 1137SOL     OW 4319   0.831   3.465   1.315  0.2209  0.8182 -0.2978
 1137SOL    HW2 4320   0.776   3.435   1.387  0.7563  0.4486 -0.0290
 1137SOL    HW3 4321   0.774   3.464   1.239 -0.2091  0.6842  0.0244
 1137SOL    MW4 4322   0.816   3.461   1.315  0.2348  0.7518 -0.2199
 1138SOL     OW 4323   2.294   1.462   5.898  0.0014 -0.1987 -0.2446
 1138SOL    HW2 4324   2.250   1.426   5.975  0.1375  2.2949  1.0910
 1138SOL    HW3 4325   2.375   1.500   5.933  1.1168 -0.8661 -1.9918
 1138SOL    MW4 4326   2.299   1.462   5.913  0.1665  0.0423 -0.2989
 1139SOL     OW 4327   5.045   2.289   5.381 -0.3618 -0.0058  0.1051
 1139SOL    HW2 4328   5.046   2.242   5.464 -2.4782  0.1160  0.2547
 1139SOL    HW3 4329   4.983   2.241   5.327  1.6692 -0.6481 -1.8184
 1139SOL    MW4 4330   5.037   2.276   5.385 -0.3731 -0.0744 -0.1289
 1140SOL     OW 4331   5.645   1.135   6.281 -0.5625  0.4807  0.5006
 1140SOL    HW2 4332   5.681   1.061   6.331 -0.2033  0.8058  0.7317
 1140SOL    HW3 4333   5.569   1.099   6.235  1.5572 -0.9336 -2.1473
 1140SOL    MW4 4334   5.640   1.121   6.282 -0.2354  0.3370  0.1817
 1141SOL     OW 4335   3.847   3.319   4.038  0.1127  0.0416  0.2200
 1141SOL    HW2 4336   3.888   3.360   4.114  0.7906 -1.3158  0.6277
 1141SOL    HW3 4337   3.914   3.258   4.006 -0.9489 -0.9329 -0.1814
 1141SOL    MW4 4338   3.862   3.316   4.044  0.0620 -0.2660  0.2208
 1142SOL     OW 4339   0.784   4.781   5.685  0.0269  0.4060  0.2960
 1142SOL    HW2 4340   0.876   4.806   5.678 -0.0231  0.9291  1.2843
 1142SOL    HW3 4341   0.757   4.813   5.772 -1.2880  0.9766 -0.2878
 1142SOL    MW4 4342   0.793   4.789   5.696 -0.1532  0.5503  0.3494
 1143SOL     OW 4343   1.474   5.872   1.904 -0.1244 -0.7351 -0.5395
 1143SOL    HW2 4344   1.484   5.871   1.999 -0.3104 -1.2394 -0.5256
 1143SOL    HW3 4345   1.564   5.866   1.871 -0.1242 -1.5240 -0.3990
 1143SOL    MW4 4346   1.487   5.871   1.912 -0.1489 -0.9057 -0.5191
 1144SOL     OW 4347   3.424   5.443   5.631 -0.2552 -0.5955  0.3318
 1144SOL    HW2 4348   3.346   5.405   5.590 -0.3780 -0.2033  0.2038
 1144SOL    HW3 4349   3.394   5.473   5.717 -0.7127  1.2550 -0.4217
 1144SOL    MW4 4350   3.410   5.442   5.637 -0.3317 -0.2996  0.2155
 1145SOL     OW 4351   1.972   1.119   4.154  0.3773  0.4858  0.0875
 1145SOL    HW2 4352   2.044   1.155   4.206 -0.2871 -0.7020  1.9131
 1145SOL    HW3 4353   1.894   1.135   4.207 -0.3761 -0.4377 -0.7082
 1145SOL    MW4 4354   1.971   1.126   4.168  0.1903  0.2073  0.2234
 1146SOL     OW 4355   5.610   1.403   3.179 -0.7944  0.1221  0.8882
 1146SOL    HW2 4356   5.698   1.396   3.140 -0.9129 -0.7513  0.7543
 1146SOL    HW3 4357   5.569   1.318   3.160 -2.1122  0.9515 -0.1232
 1146SOL    MW4 4358   5.617   1.391   3.171 -0.9839  0.1163  0.7371
 1147SOL     OW 4359   4.469   5.204   6.358  0.0998  0.3184  0.3550
 1147SOL    HW2 4360   4.560   5.219   6.385  0.4405 -0.1540 -0.4796
 1147SOL    HW3 4361   4.435   5.292   6.342  1.2304  0.4353 -1.8334
 1147SOL    MW4 4362   4.477   5.218   6.359  0.2939  0.2715 -0.0438
 1148SOL     OW 4363   4.257   3.696   6.231 -0.2758  0.0545  0.1734
 1148SOL    HW2 4364   4.321   3.669   6.296  0.6508  0.4309 -0.5565
 1148SOL    HW3 4365   4.279   3.645   6.153 -1.2829 -0.2922  0.0961
 1148SOL    MW4 4366   4.268   3.686   6.229 -0.2864  0.0584  0.0669
 1149SOL     OW 4367   4.869   3.409   2.680 -0.3916 -0.1414 -0.3674
 1149SOL    HW2 4368   4.933   3.340   2.663 -1.0996 -1.3389  1.5168
 1149SOL    HW3 4369   4.811   3.407   2.604 -1.3030 -2.7421  0.2848
 1149SOL    MW4 4370   4.870   3.399   2.668 -0.6053 -0.6426 -0.0327
 1150SOL     OW 4371   4.526   2.979   2.254 -0.6236  0.5611 -0.0516
 1150SOL    HW2 4372   4.560   3.043   2.191 -1.5544  0.4619 -0.6732
 1150SOL    HW3 4373   4.581   2.902   2.241 -0.4265  0.7460 -0.3310
 1150SOL    MW4 4374   4.538   2.977   2.244 -0.7204  0.5724 -0.1705
 1151SOL     OW 4375   4.669   4.672   4.246  0.2275  0.3930  0.0272
 1151SOL    HW2 4376   4.646   4.747   4.300 -0.5679  0.9332 -1.0295
 1151SOL    HW3 4377   4.659   4.702   4.156  1.7559 -0.4161 -0.4490
 1151SOL    MW4 4378   4.665   4.686   4.242  0.3242  0.3575 -0.1750
 1152SOL     OW 4379   1.864   2.847   4.277 -0.2917  0.3728 -0.0393
 1152SOL    HW2 4380   1.934   2.869   4.339 -0.5797 -0.6946  0.6867
 1152SOL    HW3 4381   1.898   2.875   4.192  0.8702  0.2169  0.3514
 1152SOL    MW4 4382   1.878   2.854   4.274 -0.1764  0.2114  0.1080
 1153SOL     OW 4383   5.314   1.025   4.723 -0.5936 -0.1628 -0.4771
 1153SOL    HW2 4384   5.403   1.032   4.759  0.5502 -2.0465 -2.6815
 1153SOL    HW3 4385   5.275   0.952   4.772  0.0356 -1.0190 -1.2114
 1153SOL    MW4 4386   5.321   1.016   4.735 -0.3596 -0.5243 -0.8648
 1154SOL     OW 4387   2.128   2.724   4.867  0.8642  0.0790 -0.5555
 1154SOL    HW2 4388   2.159   2.645   4.911 -0.2655  0.4314  0.9414
 1154SOL    HW3 4389   2.061   2.759   4.925  0.4575  1.4618 -1.8071
 1154SOL    MW4 4390   2.124   2.718   4.881  0.6615  0.3079 -0.5231
 1155SOL     OW 4391   0.205   6.359   6.185 -0.2603 -0.2139  0.4233
 1155SOL    HW2 4392   0.129   6.418   6.186 -1.6460 -1.8761 -1.1470
 1155SOL    HW3 4393   0.250   6.380   6.104 -0.6167 -1.0991 -0.0160
 1155SOL    MW4 4394   0.201   6.370   6.175 -0.4902 -0.5500  0.1581
 1156SOL     OW 4395   0.877   1.248   0.241 -0.0241  0.1645  0.1047
 1156SOL    HW2 4396   0.835   1.305   0.305 -0.3742 -0.5212  0.4929
 1156SOL    HW3 4397   0.805   1.216   0.186 -0.0223 -0.9765  0.7451
 1156SOL    MW4 4398   0.862   1.252   0.242 -0.0701 -0.0765  0.2404
 1157SOL     OW 4399   3.094   3.756   1.795  0.9607 -0.0399 -0.3574
 1157SOL    HW2 4400   3.151   3.685   1.764 -0.4812 -0.4848 -2.1795
 1157SOL    HW3 4401   3.073   3.806   1.716  0.7960  1.5950  0.6762
 1157SOL    MW4 4402   3.099   3.753   1.780  0.7487  0.1171 -0.4615
 1158SOL     OW 4403   5.567   0.391   3.331 -0.2624  0.3052 -0.1599
 1158SOL    HW2 4404   5.480   0.398   3.370 -0.1563 -0.4150  0.2291
 1158SOL    HW3 4405   5.613   0.329   3.388  1.2970  2.4688  1.0987
 1158SOL    MW4 4406   5.562   0.384   3.344 -0.0427  0.4956  0.0575
 1159SOL     OW 4407   5.783   3.599   0.269  0.2837  0.0297 -0.5496
 1159SOL    HW2 4408   5.818   3.519   0.231  0.0153  0.3871 -1.5628
 1159SOL    HW3 4409   5.705   3.619   0.217  0.9307  1.5153 -1.0059
 1159SOL    MW4 4410   5.777   3.591   0.257  0.3336  0.2729 -0.7434
 1160SOL     OW 4411   1.341   2.772   1.914 -0.3282  0.4653 -0.1780
 1160SOL    HW2 4412   1.335   2.679   1.890 -1.6493  0.7683 -1.1711
 1160SOL    HW3 4413   1.259   2.810   1.882 -0.9676  1.4998  2.4223
 1160SOL    MW4 4414   1.329   2.765   1.907 -0.5869  0.6418  0.0340
 1161SOL     OW 4415   2.536   5.368   4.415 -0.2398  0.4435  0.2614
 1161SOL    HW2 4416   2.628   5.394   4.423  0.0087  0.6967 -2.3106
 1161SOL    HW3 4417   2.537   5.273   4.420 -0.0498  0.5108  1.6900
 1161SOL    MW4 4418   2.548   5.359   4.416 -0.1819  0.4858  0.1105
 1162SOL     OW 4419   3.825   3.512   1.222 -0.4643  0.4644 -0.7147
 1162SOL    HW2 4420   3.772   3.520   1.143 -1.1302  0.0573 -0.3197
 1162SOL    HW3 4421   3.784   3.571   1.285 -1.1849 -0.7356 -0.0285
 1162SOL    MW4 4422   3.813   3.521   1.220 -0.6472  0.2524 -0.5720
 1163SOL     OW 4423   2.428   2.106   1.484  0.7033 -0.1938 -0.3811
 1163SOL    HW2 4424   2.518   2.089   1.513  0.4938 -0.2842  0.2139
 1163SOL    HW3 4425   2.389   2.158   1.554  0.2681 -0.2001 -0.6150
 1163SOL    MW4 4426   2.435   2.111   1.497  0.6182 -0.2066 -0.3335
 1164SOL     OW 4427   3.590   5.227   1.457 -0.2590  0.2115  0.0240
 1164SOL    HW2 4428   3.526   5.159   1.437  0.5059 -0.4823 -0.0960
 1164SOL    HW3 4429   3.569   5.254   1.547 -1.1579  0.5013 -0.2600
 1164SOL    MW4 4430   3.579   5.222   1.466 -0.2767  0.1582 -0.0293
 1165SOL     OW 4431   1.376   2.099   5.811  0.3749 -0.1482  0.2470
 1165SOL    HW2 4432   1.311   2.041   5.773  0.2207  0.6959 -0.8206
 1165SOL    HW3 4433   1.363   2.091   5.906  0.2095 -1.6495  0.1178
 1165SOL    MW4 4434   1.366   2.091   5.818  0.3327 -0.2349  0.0891
 1166SOL     OW 4435   5.211   1.540   4.784 -0.1763  0.0099 -0.5041
 1166SOL    HW2 4436   5.138   1.537   4.722  0.8385 -2.7519 -1.7085
 1166SOL    HW3 4437   5.169   1.538   4.871 -1.6168  3.7638 -0.8887
 1166SOL    MW4 4438   5.196   1.540   4.788 -0.2325  0.1408 -0.7137
 1167SOL     OW 4439   1.117   5.233   1.419  0.3732 -0.3463  0.1471
 1167SOL    HW2 4440   1.104   5.234   1.325 -1.4923 -1.0986  0.3475
 1167SOL    HW3 4441   1.139   5.323   1.442  1.5607 -0.2972 -1.0533
 1167SOL    MW4 4442   1.118   5.245   1.410  0.2837 -0.4390  0.0152
 1168SOL     OW 4443   2.460   5.005   1.449 -0.7024  0.3208 -0.5794
 1168SOL    HW2 4444   2.410   5.053   1.382 -1.3597  0.1357 -0.2349
 1168SOL    HW3 4445   2.475   5.069   1.518  0.4068  0.6476 -1.1122
 1168SOL    MW4 4446   2.455   5.020   1.449 -0.6428  0.3395 -0.6043
 1169SOL     OW 4447   5.270   3.512   5.051 -0.0546 -0.3608 -0.8792
 1169SOL    HW2 4448   5.361   3.488   5.066 -0.3732 -0.2436  1.5768
 1169SOL    HW3 4449   5.220   3.443   5.094 -1.0860  0.7618 -0.2310
 1169SOL    MW4 4450   5.275   3.500   5.058 -0.2327 -0.1972 -0.4696
 1170SOL     OW 4451   0.107   1.241   5.147  0.1524 -0.1483  0.4042
 1170SOL    HW2 4452   0.173   1.207   5.207  0.8288 -0.2840 -0.4028
 1170SOL    HW3 4453   0.152   1.247   5.063 -1.7035 -3.4880 -1.0226
 1170SOL    MW4 4454   0.122   1.237   5.144 -0.0032 -0.6069  0.1095
 1171SOL     OW 4455   1.341   0.577   2.690  0.3332  0.2650 -0.6701
 1171SOL    HW2 4456   1.370   0.662   2.722 -2.5610  0.2792  2.3708
 1171SOL    HW3 4457   1.260   0.595   2.642 -0.1460 -0.7028 -0.2532
 1171SOL    MW4 4458   1.334   0.591   2.688 -0.1118  0.1392 -0.2139
 1172SOL     OW 4459   3.047   5.399   1.157 -0.0505 -0.2852 -0.2172
 1172SOL    HW2 4460   2.998   5.463   1.105  1.5077  0.6601 -0.5622
 1172SOL    HW3 4461   3.070   5.445   1.237  0.0798 -0.7979  0.0459
 1172SOL    MW4 4462   3.043   5.413   1.161  0.1722 -0.2281 -0.2280
 1173SOL     OW 4463   0.178   3.366   4.014  0.6949  0.1966  0.0651
 1173SOL    HW2 4464   0.097   3.384   4.061  1.5111  1.8456  0.8921
 1173SOL    HW3 4465   0.153   3.368   3.921 -1.4127 -5.2780  0.1370
 1173SOL    MW4 4466   0.164   3.368   4.008  0.5245 -0.3081  0.1837
 1174SOL     OW 4467   2.724   1.960   6.060  0.4868  0.5754 -0.5169
 1174SOL    HW2 4468   2.677   1.965   5.977  0.4372  2.0084 -0.4200
 1174SOL    HW3 4469   2.803   1.910   6.039  0.4096  0.8061 -1.3929
 1174SOL    MW4 4470   2.729   1.954   6.046  0.4701  0.7949 -0.6197
 1175SOL     OW 4471   5.355   5.413   5.630 -0.0532 -0.2396  0.3350
 1175SOL    HW2 4472   5.441   5.394   5.665  1.0321  3.3293  0.0183
 1175SOL    HW3 4473   5.351   5.509   5.625 -3.7251 -0.2553 -0.4586
 1175SOL    MW4 4474   5.366   5.423   5.634 -0.3945  0.2292  0.1885
 1176SOL     OW 4475   1.322   2.556   1.579 -0.1626  0.0308 -0.7908
 1176SOL    HW2 4476   1.232   2.524   1.584  0.1774 -0.9372 -0.6548
 1176SOL    HW3 4477   1.372   2.482   1.547  0.5200  0.7112 -1.3354
 1176SOL    MW4 4478   1.317   2.542   1.576 -0.0277 -0.0071 -0.8447
 1177SOL     OW 4479   5.971   1.682   0.925 -0.0102 -0.5761 -0.2817
 1177SOL    HW2 4480   5.941   1.732   1.000 -1.4139  0.4027 -1.4286
 1177SOL    HW3 4481   5.983   1.593   0.958  1.7932  0.3187  1.6282
 1177SOL    MW4 4482   5.968   1.677   0.939  0.0425 -0.3289 -0.1810
 1178SOL     OW 4483   0.359   1.108   5.265 -0.7169  0.8406  0.2584
 1178SOL    HW2 4484   0.436   1.085   5.214 -1.6250  0.0590 -0.8337
 1178SOL    HW3 4485   0.393   1.151   5.343  0.7953  0.7163 -0.2992
 1178SOL    MW4 4486   0.373   1.111   5.268 -0.6372  0.7211  0.0407
 1179SOL     OW 4487   5.824   0.313   3.726  0.9721  0.1025 -0.1623
 1179SOL    HW2 4488   5.746   0.322   3.780 -0.2616 -1.9376 -1.4782
 1179SOL    HW3 4489   5.855   0.403   3.714 -1.4449  1.0287  0.0236
 1179SOL    MW4 4490   5.818   0.326   3.731  0.4904 -0.0445 -0.3114
 1180SOL     OW 4491   2.333   4.857   0.487 -0.8890  0.2719 -0.3148
 1180SOL    HW2 4492   2.322   4.951   0.499  0.1683  0.4297 -0.4825
 1180SOL    HW3 4493   2.400   4.849   0.419 -1.2324 -0.6020 -0.5677
 1180SOL    MW4 4494   2.341   4.868   0.479 -0.7948  0.1774 -0.3703
 1181SOL     OW 4495   1.831   5.053   0.312  0.0764  0.0540  0.1666
 1181SOL    HW2 4496   1.792   5.000   0.242  1.3079 -0.2011 -0.3498
 1181SOL    HW3 4497   1.880   4.990   0.364 -1.6669  0.0636  1.9188
 1181SOL    MW4 4498   1.832   5.038   0.309  0.0089  0.0216  0.3297
 1182SOL     OW 4499   6.317   3.901   3.168 -0.5878 -0.8413  0.6192
 1182SOL    HW2 4500   6.240   3.953   3.189 -0.3592 -1.2613  2.7009
 1182SOL    HW3 4501   6.287   3.810   3.176 -0.5046 -1.0510 -1.1155
 1182SOL    MW4 4502   6.302   3.896   3.172 -0.5467 -0.9244  0.6650
 1183SOL     OW 4503   0.343   3.060   5.731 -0.3018 -0.3662 -0.2330
 1183SOL    HW2 4504   0.328   3.137   5.786 -1.5301 -0.5964 -0.2170
 1183SOL    HW3 4505   0.297   3.081   5.649  2.1431  0.3220 -1.5441
 1183SOL    MW4 4506   0.335   3.073   5.727 -0.1413 -0.3058 -0.4039
 1184SOL     OW 4507   1.563   2.645   0.302  0.0444  0.6367 -0.0853
 1184SOL    HW2 4508   1.655   2.625   0.284  0.1801  1.3719 -0.2649
 1184SOL    HW3 4509   1.522   2.647   0.215 -0.0116  0.9000 -0.0531
 1184SOL    MW4 4510   1.569   2.643   0.288  0.0549  0.7684 -0.1048
 1185SOL     OW 4511   4.942   0.527   2.953 -0.0608  0.1672 -0.5455
 1185SOL    HW2 4512   5.031   0.509   2.980  0.1038 -1.5407 -2.0206
 1185SOL    HW3 4513   4.949   0.551   2.860 -1.2507 -2.0433 -1.2941
 1185SOL    MW4 4514   4.954   0.528   2.944 -0.1961 -0.3498 -0.8389
 1186SOL     OW 4515   5.554   5.776   5.480  0.1830  0.2173 -0.2626
 1186SOL    HW2 4516   5.615   5.845   5.453  0.8623 -0.2975 -0.0614
 1186SOL    HW3 4517   5.610   5.703   5.507 -0.5245 -0.3405 -0.2671
 1186SOL    MW4 4518   5.569   5.776   5.480  0.1793  0.0758 -0.2367
 1187SOL     OW 4519   2.192   6.226   0.033  0.3405  0.4460  0.1514
 1187SOL    HW2 4520   2.277   6.185   0.052  0.5211  0.3672 -0.7652
 1187SOL    HW3 4521   2.141   6.215   0.113  0.2383 -1.9359 -0.1803
 1187SOL    MW4 4522   2.197   6.219   0.046  0.3509  0.1213 -0.0133
 1188SOL     OW 4523   2.296   0.318   2.987  0.4577 -0.2305 -0.3783
 1188SOL    HW2 4524   2.253   0.304   2.903  1.6171  1.0929 -1.2337
 1188SOL    HW3 4525   2.379   0.359   2.965  0.7416  0.2615  1.4248
 1188SOL    MW4 4526   2.301   0.322   2.973  0.6481  0.0090 -0.2532
 1189SOL     OW 4527   4.573   1.457   5.089  0.4755  0.5616 -0.4395
 1189SOL    HW2 4528   4.576   1.389   5.156  1.2073  1.3697  0.3701
 1189SOL    HW3 4529   4.659   1.452   5.046 -0.0013  0.0244 -1.3642
 1189SOL    MW4 4530   4.585   1.447   5.092  0.5092  0.5974 -0.4547
 1190SOL     OW 4531   2.928   3.713   4.357  0.0390  0.3608 -0.1095
 1190SOL    HW2 4532   3.023   3.722   4.361  0.0967 -0.4831  0.6916
 1190SOL    HW3 4533   2.913   3.630   4.313 -0.2891 -0.2810  1.1762
 1190SOL    MW4 4534   2.939   3.703   4.352  0.0034  0.1648  0.1658
 1191SOL     OW 4535   4.413   3.310   5.736  0.1540  0.5107  0.1846
 1191SOL    HW2 4536   4.384   3.288   5.647  1.7109  0.7372 -0.4086
 1191SOL    HW3 4537   4.347   3.371   5.768 -0.3969  0.4886 -0.8524
 1191SOL    MW4 4538   4.400   3.315   5.728  0.2868  0.5377 -0.0305
 1192SOL     OW 4539   2.402   2.284   4.001 -0.1240  0.2179 -0.3123
 1192SOL    HW2 4540   2.403   2.370   3.961  1.0167  0.5908  0.4529
 1192SOL    HW3 4541   2.488   2.246   3.980 -0.1044 -0.1883  0.4508
 1192SOL    MW4 4542   2.414   2.290   3.993  0.0291  0.2135 -0.1107
 1193SOL     OW 4543   4.607   3.581   5.653  0.7478 -0.2831  0.1750
 1193SOL    HW2 4544   4.577   3.530   5.728 -0.7905 -0.1178 -0.2932
 1193SOL    HW3 4545   4.615   3.518   5.582 -0.8059  0.0169 -0.3086
 1193SOL    MW4 4546   4.604   3.566   5.654  0.3398 -0.2217  0.0494
 1194SOL     OW 4547   0.890   6.130   4.276 -0.3006 -0.0862  0.0151
 1194SOL    HW2 4548   0.927   6.116   4.363  0.7336  2.5891  0.1006
 1194SOL    HW3 4549   0.955   6.094   4.216  1.4035  2.3910  0.2507
 1194SOL    MW4 4550   0.903   6.123   4.280  0.0607  0.5936  0.0575
 1195SOL     OW 4551   0.424   2.236   2.991 -0.3761  0.0338  0.2696
 1195SOL    HW2 4552   0.417   2.331   2.983  2.8115  0.4127  0.8280
 1195SOL    HW3 4553   0.395   2.202   2.907  1.7748  1.7882 -1.2834
 1195SOL    MW4 4554   0.419   2.244   2.979  0.3283  0.3153  0.1384
 1196SOL     OW 4555   1.828   3.060   3.541 -0.1563 -0.1751 -0.4010
 1196SOL    HW2 4556   1.846   2.997   3.611 -0.4722  0.6108  0.4175
 1196SOL    HW3 4557   1.746   3.102   3.568  1.1446  2.1284  0.2582
 1196SOL    MW4 4558   1.820   3.057   3.554 -0.0263  0.2325 -0.2060
 1197SOL     OW 4559   3.983   1.985   0.323 -0.5715 -0.2597  0.0600
 1197SOL    HW2 4560   4.046   1.973   0.252 -2.0141  1.5342 -1.6489
 1197SOL    HW3 4561   3.898   1.990   0.279 -1.2946  3.7057  1.5035
 1197SOL    MW4 4562   3.980   1.984   0.308 -0.8572  0.5001  0.0250
 1198SOL     OW 4563   5.533   2.849   4.531 -0.0007  0.4098 -0.0670
 1198SOL    HW2 4564   5.611   2.820   4.485 -1.2674 -2.8811 -0.4746
 1198SOL    HW3 4565   5.561   2.857   4.622  1.2488  1.3807 -0.5110
 1198SOL    MW4 4566   5.547   2.846   4.537 -0.0029  0.1037 -0.1793
 1199SOL     OW 4567   2.660   6.037   2.533  0.6652 -0.2986  0.2394
 1199SOL    HW2 4568   2.660   6.052   2.439  0.1512  4.0570  0.7328
 1199SOL    HW3 4569   2.744   6.072   2.563  0.7164 -1.3795  1.5047
 1199SOL    MW4 4570   2.671   6.043   2.525  0.6041  0.1335  0.4714
 1200SOL     OW 4571   1.296   2.041   0.386 -0.2975  0.4917  0.5123
 1200SOL    HW2 4572   1.226   2.090   0.344 -1.5319  0.0793  1.9990
 1200SOL    HW3 4573   1.334   1.988   0.316 -1.7075  0.4570 -0.2550
 1200SOL    MW4 4574   1.292   2.041   0.371 -0.6464  0.4327  0.6072
 1201SOL     OW 4575   3.607   5.276   4.150 -0.7259  0.2572 -0.2568
 1201SOL    HW2 4576   3.528   5.317   4.185 -0.2387  0.1804  0.9577
 1201SOL    HW3 4577   3.664   5.263   4.226  0.0516 -0.6089 -0.9595
 1201SOL    MW4 4578   3.604   5.280   4.164 -0.5591  0.1328 -0.1893
 1202SOL     OW 4579   3.348   4.548   3.835  0.3700  0.0363 -0.0106
 1202SOL    HW2 4580   3.423   4.489   3.849  0.4257  0.2391  0.5815
 1202SOL    HW3 4581   3.361   4.581   3.746  1.4350  0.6844  0.3671
 1202SOL    MW4 4582   3.360   4.544   3.825  0.5179  0.1486  0.1174
 1203SOL     OW 4583   5.624   5.922   3.498  0.2738 -0.0166 -0.8105
 1203SOL    HW2 4584   5.648   5.892   3.410 -0.8069 -0.2511 -1.0311
 1203SOL    HW3 4585   5.687   5.878   3.556  1.2589  0.4543 -1.4808
 1203SOL    MW4 4586   5.636   5.912   3.494  0.2612  0.0146 -0.9281
 1204SOL     OW 4587   3.080   0.473   2.643  0.3646  0.0154 -0.1847
 1204SOL    HW2 4588   3.114   0.520   2.719  1.8689  0.3198 -1.0024
 1204SOL    HW3 4589   3.008   0.529   2.611  0.7572  0.6951  0.0979
 1204SOL    MW4 4590   3.075   0.487   2.648  0.6149  0.1452 -0.2553
 1205SOL     OW 4591   0.283   2.500   0.420 -0.3183  0.1238 -0.2315
 1205SOL    HW2 4592   0.329   2.542   0.348 -0.3124 -0.5337 -0.6178
 1205SOL    HW3 4593   0.265   2.412   0.389 -1.5964  0.2805  0.0275
 1205SOL    MW4 4594   0.287   2.494   0.407 -0.4862  0.0578 -0.2483
 1206SOL     OW 4595   1.473   2.996   0.661 -0.1812 -0.4265  0.2865
 1206SOL    HW2 4596   1.523   2.932   0.611 -1.3922 -1.1470 -0.0087
 1206SOL    HW3 4597   1.395   2.950   0.691  0.6561 -0.1766  3.2402
 1206SOL    MW4 4598   1.470   2.982   0.658 -0.2305 -0.4886  0.6373
 1207SOL     OW 4599   1.796   5.517   2.436  0.0383 -0.0930  0.1740
 1207SOL    HW2 4600   1.772   5.512   2.528 -0.2509 -0.5738  0.0744
 1207SOL    HW3 4601   1.843   5.435   2.419  2.3028  1.0601  0.5154
 1207SOL    MW4 4602   1.799   5.505   2.446  0.2989 -0.0043  0.2059
 1208SOL     OW 4603   3.778   0.504   0.248  0.0555  0.0700 -0.2710
 1208SOL    HW2 4604   3.775   0.428   0.307 -3.5658 -0.0531 -0.4350
 1208SOL    HW3 4605   3.807   0.469   0.164  1.6634 -0.4396  0.4641
 1208SOL    MW4 4606   3.782   0.490   0.245 -0.2101 -0.0134 -0.1956
 1209SOL     OW 4607   0.220   3.988   6.133  0.0517 -0.1903  0.0354
 1209SOL    HW2 4608   0.289   3.963   6.194 -0.7239 -2.6802 -0.0273
 1209SOL    HW3 4609   0.176   4.062   6.177  0.9152 -0.4682  1.4335
 1209SOL    MW4 4610   0.223   3.995   6.147  0.0633 -0.5555  0.2116
 1210SOL     OW 4611   2.847   5.727   5.809  0.2461  0.1317 -0.5877
 1210SOL    HW2 4612   2.809   5.815   5.810 -0.3609 -0.1350  0.3111
 1210SOL    HW3 4613   2.934   5.738   5.847 -0.7048 -0.0252  1.7744
 1210SOL    MW4 4614   2.853   5.740   5.814  0.0405  0.0758 -0.1575
 1211SOL     OW 4615   2.304   4.306   0.519  0.4507 -0.6468  0.2877
 1211SOL    HW2 4616   2.384   4.332   0.472  1.3136 -1.7613  1.0962
 1211SOL    HW3 4617   2.236   4.306   0.451  1.0556  0.6243 -0.3530
 1211SOL    MW4 4618   2.306   4.309   0.504  0.6444 -0.6262  0.3098
 1212SOL     OW 4619   3.642   2.834   5.460  0.2186  0.3595 -0.3042
 1212SOL    HW2 4620   3.612   2.805   5.374  1.0799 -2.1844  0.1619
 1212SOL    HW3 4621   3.638   2.755   5.514 -0.3678  1.8910  2.0429
 1212SOL    MW4 4622   3.637   2.820   5.456  0.2549  0.2260  0.0669
 1213SOL     OW 4623   4.058   2.572   1.234 -0.1134  0.1977 -0.3314
 1213SOL    HW2 4624   4.094   2.559   1.322  1.5645  4.3145 -0.1838
 1213SOL    HW3 4625   3.974   2.617   1.250 -1.2533 -1.6247 -0.8811
 1213SOL    MW4 4626   4.051   2.576   1.248 -0.0424  0.5004 -0.3845
 1214SOL     OW 4627   3.028   4.548   0.273  0.3195 -0.1386 -0.0869
 1214SOL    HW2 4628   2.989   4.611   0.212 -0.3950 -2.1111 -1.7585
 1214SOL    HW3 4629   3.122   4.569   0.272  0.4988 -0.7437 -2.7258
 1214SOL    MW4 4630   3.035   4.559   0.265  0.2489 -0.4787 -0.6556
 1215SOL     OW 4631   4.396   6.369   1.025  0.6312 -0.1710  0.0167
 1215SOL    HW2 4632   4.375   6.459   1.003 -0.2810  0.1504  1.9935
 1215SOL    HW3 4633   4.470   6.375   1.085  2.2204 -0.9396 -1.7415
 1215SOL    MW4 4634   4.403   6.381   1.030  0.7205 -0.2300  0.0455
 1216SOL     OW 4635   5.238   0.501   6.216  0.8370 -0.4659  0.0129
 1216SOL    HW2 4636   5.206   0.570   6.275 -0.6318 -0.9688 -0.1544
 1216SOL    HW3 4637   5.326   0.530   6.191  0.3134  1.2900  0.0471
 1216SOL    MW4 4638   5.245   0.514   6.220  0.5742 -0.3006 -0.0047
 1217SOL     OW 4639   1.165   1.365   2.717 -0.0296  0.3078 -0.3131
 1217SOL    HW2 4640   1.127   1.380   2.631  0.2396 -0.0039 -0.4872
 1217SOL    HW3 4641   1.250   1.410   2.714  0.3585 -0.4236 -0.5088
 1217SOL    MW4 4642   1.172   1.373   2.705  0.0572  0.1702 -0.3619
 1218SOL     OW 4643   4.458   5.528   1.945 -0.2829  0.4857 -0.1230
 1218SOL    HW2 4644   4.510   5.558   1.870  1.5976  0.7095  1.1830
 1218SOL    HW3 4645   4.377   5.495   1.907  0.7870  0.1739 -2.2905
 1218SOL    MW4 4646   4.454   5.528   1.930  0.1064  0.4741 -0.2367
 1219SOL     OW 4647   1.162   4.117   5.577  0.0452  0.3492  0.2661
 1219SOL    HW2 4648   1.132   4.100   5.488  0.1206 -1.4629  0.5359
 1219SOL    HW3 4649   1.226   4.187   5.568  1.1920 -0.8277 -1.3621
 1219SOL    MW4 4650   1.167   4.124   5.564  0.2065 -0.0452  0.0869
 1220SOL     OW 4651   3.626   5.269   1.918  0.4672 -0.2695  0.1945
 1220SOL    HW2 4652   3.640   5.177   1.896 -0.7736 -0.3062 -0.5465
 1220SOL    HW3 4653   3.567   5.301   1.850 -0.0505  0.7701  1.1051
 1220SOL    MW4 4654   3.620   5.261   1.906  0.2352 -0.1372  0.2169
 1221SOL     OW 4655   5.865   3.840   5.870 -0.2625  0.0821  0.2636
 1221SOL    HW2 4656   5.869   3.832   5.965 -1.9946  0.5173  0.3946
 1221SOL    HW3 4657   5.772   3.840   5.849  0.0840 -0.0383 -1.4461
 1221SOL    MW4 4658   5.853   3.839   5.879 -0.4453  0.1236  0.0554
 1222SOL     OW 4659   5.312   2.799   1.732 -0.0161  0.2664  0.0232
 1222SOL    HW2 4660   5.269   2.822   1.815 -1.8476 -1.2672 -0.4110
 1222SOL    HW3 4661   5.246   2.817   1.665  0.1420 -1.7261 -0.7405
 1222SOL    MW4 4662   5.298   2.804   1.734 -0.2369 -0.1989 -0.1349
 1223SOL     OW 4663   2.682   2.695   1.812  0.0366  0.4590  0.3159
 1223SOL    HW2 4664   2.738   2.677   1.887  0.3553 -0.5335 -0.1480
 1223SOL    HW3 4665   2.742   2.725   1.744 -0.1065  0.2187  0.0834
 1223SOL    MW4 4666   2.697   2.697   1.813  0.0598  0.2964  0.2241
 1224SOL     OW 4667   3.152   3.696   3.256 -0.7780 -0.5184  0.3506
 1224SOL    HW2 4668   3.063   3.731   3.256 -0.0394  1.6270 -1.8462
 1224SOL    HW3 4669   3.203   3.759   3.306 -0.0377 -0.2496 -0.7071
 1224SOL    MW4 4670   3.147   3.709   3.262 -0.5829 -0.1999 -0.0788
 1225SOL     OW 4671   2.760   0.512   1.448  0.7479  0.3792 -0.0909
 1225SOL    HW2 4672   2.840   0.566   1.446 -0.3254  2.0833  0.5570
 1225SOL    HW3 4673   2.706   0.549   1.379 -0.6284  1.1935  1.3564
 1225SOL    MW4 4674   2.764   0.524   1.439  0.4247  0.7115  0.1855
 1226SOL     OW 4675   1.796   6.261   1.647  0.8467 -0.0471 -0.1302
 1226SOL    HW2 4676   1.830   6.180   1.684  1.5228 -0.6101 -1.8753
 1226SOL    HW3 4677   1.845   6.330   1.691  0.8745 -0.6103  0.7547
 1226SOL    MW4 4678   1.807   6.259   1.658  0.9396 -0.1957 -0.2437
 1227SOL     OW 4679   5.575   1.288   5.046  0.6015  0.6924 -0.0897
 1227SOL    HW2 4680   5.591   1.326   4.960 -0.3678  0.5368 -0.3466
 1227SOL    HW3 4681   5.536   1.360   5.097 -1.8563 -0.0588 -0.7712
 1227SOL    MW4 4682   5.572   1.303   5.042  0.1493  0.5728 -0.2135
 1228SOL     OW 4683   1.350   3.117   0.004  0.2769  0.4332  0.3131
 1228SOL    HW2 4684   1.439   3.128  -0.029  0.3667 -1.8376 -0.3837
 1228SOL    HW3 4685   1.316   3.041  -0.043 -2.9639  2.6102 -1.3075
 1228SOL    MW4 4686   1.357   3.109  -0.006 -0.1388  0.4208  0.0073
 1229SOL     OW 4687   1.170   5.125   0.782 -0.1987 -0.1833  0.3212
 1229SOL    HW2 4688   1.152   5.170   0.700  0.9381 -0.8806 -0.3375
 1229SOL    HW3 4689   1.231   5.181   0.829 -0.4018 -0.0571  0.4356
 1229SOL    MW4 4690   1.175   5.138   0.778 -0.0755 -0.2586  0.2494
 1230SOL     OW 4691   5.678   5.722   1.523 -0.1378  0.1765  0.3549
 1230SOL    HW2 4692   5.709   5.776   1.596 -0.2652  0.8849 -0.1068
 1230SOL    HW3 4693   5.709   5.767   1.445  0.0160 -0.5919 -0.0301
 1230SOL    MW4 4694   5.686   5.735   1.522 -0.1343  0.1686  0.2432
 1231SOL     OW 4695   4.306   5.877   5.760  0.1573  0.0454 -0.2423
 1231SOL    HW2 4696   4.261   5.962   5.762  1.5593  0.8162  0.7336
 1231SOL    HW3 4697   4.236   5.812   5.756 -0.9381  1.2557 -2.5923
 1231SOL    MW4 4698   4.291   5.880   5.760  0.1978  0.3068 -0.4236
 1232SOL     OW 4699   3.462   3.746   1.839 -0.4891  0.9168 -0.0218
 1232SOL    HW2 4700   3.458   3.805   1.764 -1.9415  1.0251  0.1121
 1232SOL    HW3 4701   3.508   3.796   1.907 -0.5937  1.4150 -0.3177
 1232SOL    MW4 4702   3.468   3.760   1.838 -0.6945  0.9968 -0.0432
 1233SOL     OW 4703   2.471   2.796   1.446  0.2679 -0.4086 -0.1829
 1233SOL    HW2 4704   2.539   2.734   1.420 -0.7743 -0.7222 -2.3700
 1233SOL    HW3 4705   2.519   2.876   1.468  1.6919 -2.0159  3.2147
 1233SOL    MW4 4706   2.487   2.798   1.445  0.3183 -0.6621 -0.0232
 1234SOL     OW 4707   3.386   0.844   5.706  0.1617 -0.1144 -0.3418
 1234SOL    HW2 4708   3.469   0.796   5.709  0.0202 -0.5851 -2.5393
 1234SOL    HW3 4709   3.377   0.871   5.615 -2.6752 -1.1507 -0.4646
 1234SOL    MW4 4710   3.396   0.841   5.694 -0.2312 -0.3133 -0.6479
 1235SOL     OW 4711   4.730   0.262   0.634 -0.6458  0.4948  0.2250
 1235SOL    HW2 4712   4.735   0.177   0.589 -0.6714  0.8571 -0.4631
 1235SOL    HW3 4713   4.768   0.244   0.720 -0.0898 -0.0770 -0.1220
 1235SOL    MW4 4714   4.736   0.248   0.639 -0.5758  0.4671  0.0884
 1236SOL     OW 4715   4.363   4.420   5.689  0.2364  0.3791 -0.1097
 1236SOL    HW2 4716   4.355   4.340   5.741 -1.1404 -0.0513 -0.9588
 1236SOL    HW3 4717   4.273   4.445   5.668  0.7075  1.4029 -1.0142
 1236SOL    MW4 4718   4.350   4.413   5.693  0.1169  0.4574 -0.3411
 1237SOL     OW 4719   1.128   2.845   4.368 -0.2878  0.5533  0.3787
 1237SOL    HW2 4720   1.208   2.807   4.332 -0.9404 -0.4576 -0.0579
 1237SOL    HW3 4721   1.152   2.873   4.456  0.9804  1.8342 -0.3360
 1237SOL    MW4 4722   1.142   2.843   4.375 -0.2066  0.5889  0.2268
 1238SOL     OW 4723   2.939   4.723   4.865 -0.1164 -0.0630  0.0646
 1238SOL    HW2 4724   2.952   4.753   4.775  1.2766 -0.5571  0.0696
 1238SOL    HW3 4725   2.955   4.628   4.861  0.8599  0.0438  0.9753
 1238SOL    MW4 4726   2.943   4.714   4.852  0.1962 -0.1141  0.1854
 1239SOL     OW 4727   6.380   2.665   3.518  0.3251 -0.2175  0.7073
 1239SOL    HW2 4728   6.351   2.733   3.578 -0.8515  0.6689 -0.7946
 1239SOL    HW3 4729   6.465   2.696   3.486 -0.6253  1.1105 -0.6947
 1239SOL    MW4 4730   6.388   2.678   3.522  0.0444  0.0747  0.3242
 1240SOL     OW 4731   3.850   3.659   3.274 -0.1777 -0.4345 -0.2139
 1240SOL    HW2 4732   3.783   3.654   3.342 -0.6586 -0.3776 -0.6766
 1240SOL    HW3 4733   3.808   3.625   3.196  0.5410 -0.9985 -0.3687
 1240SOL    MW4 4734   3.836   3.654   3.273 -0.1463 -0.5014 -0.2954
 1241SOL     OW 4735   3.135   6.049   6.040  0.0852  0.1546 -0.0357
 1241SOL    HW2 4736   3.092   5.986   5.981  0.3252  1.6703 -1.9546
 1241SOL    HW3 4737   3.228   6.030   6.031  0.0274 -1.3309  1.9871
 1241SOL    MW4 4738   3.141   6.038   6.031  0.1092  0.1586 -0.0220
 1242SOL     OW 4739   5.222   3.666   5.414 -0.3399 -0.2983  0.1603
 1242SOL    HW2 4740   5.277   3.595   5.447  0.8765 -0.1915 -1.4782
 1242SOL    HW3 4741   5.240   3.739   5.473  0.4389 -0.5978  0.3108
 1242SOL    MW4 4742   5.232   3.666   5.426 -0.0767 -0.3237 -0.0360
 1243SOL     OW 4743   3.690   1.896   2.082  0.3737  0.1979  0.6991
 1243SOL    HW2 4744   3.595   1.893   2.075  0.3479  0.4868  0.8887
 1243SOL    HW3 4745   3.707   1.963   2.148  0.6856 -0.4029  1.2435
 1243SOL    MW4 4746   3.680   1.905   2.090  0.4114  0.1567  0.7960
 1244SOL     OW 4747   6.081   2.161   1.960 -0.2014 -0.2893  0.5391
 1244SOL    HW2 4748   6.018   2.217   2.004  0.3777  1.1467 -0.3799
 1244SOL    HW3 4749   6.131   2.221   1.904  2.0491 -1.3331  1.3032
 1244SOL    MW4 4750   6.079   2.176   1.958  0.1719 -0.2376  0.5187
 1245SOL     OW 4751   4.341   3.769   4.023  0.4185  0.4018 -0.2470
 1245SOL    HW2 4752   4.376   3.721   3.948 -0.3014 -0.2661 -0.1714
 1245SOL    HW3 4753   4.265   3.717   4.051  0.8540  0.4712  1.1290
 1245SOL    MW4 4754   4.335   3.756   4.017  0.3810  0.3228 -0.0554
 1246SOL     OW 4755   3.791   1.093   0.608 -0.9856 -0.2752  0.3403
 1246SOL    HW2 4756   3.814   1.165   0.667 -1.1216  0.5290 -0.5706
 1246SOL    HW3 4757   3.867   1.085   0.550 -1.6006  0.1605 -0.5393
 1246SOL    MW4 4758   3.804   1.101   0.608 -1.0847 -0.1116  0.1040
 1247SOL     OW 4759   0.784   0.827   3.427  0.2410  0.6834  0.3635
 1247SOL    HW2 4760   0.733   0.793   3.500 -0.7387  0.1326 -0.5364
 1247SOL    HW3 4761   0.826   0.749   3.390 -0.5023  0.7100 -0.5719
 1247SOL    MW4 4762   0.783   0.812   3.432  0.0137  0.6143  0.1213
 1248SOL     OW 4763   2.148   2.359   0.401 -0.7166 -0.3875  0.0134
 1248SOL    HW2 4764   2.095   2.295   0.449  1.2049 -0.8043  1.7066
 1248SOL    HW3 4765   2.202   2.307   0.343 -0.0295 -0.2250  0.4944
 1248SOL    MW4 4766   2.148   2.344   0.400 -0.3724 -0.4211  0.3003
 1249SOL     OW 4767   5.530   3.430   2.276  0.0847 -0.0599 -0.4096
 1249SOL    HW2 4768   5.593   3.403   2.343  0.6458 -0.5217 -1.1052
 1249SOL    HW3 4769   5.514   3.523   2.294  0.4368 -0.1080  0.1911
 1249SOL    MW4 4770   5.536   3.439   2.287  0.2052 -0.1272 -0.4221
 1250SOL     OW 4771   0.535   0.610   2.729  0.4499 -0.0410 -0.0733
 1250SOL    HW2 4772   0.518   0.704   2.731 -0.8533 -0.2102 -1.3450
 1250SOL    HW3 4773   0.491   0.576   2.806  1.0118  0.3913  0.4481
 1250SOL    MW4 4774   0.527   0.618   2.739  0.3521 -0.0063 -0.1723
 1251SOL     OW 4775   4.430   0.729   5.250 -0.1561  0.1698 -0.4708
 1251SOL    HW2 4776   4.491   0.790   5.293 -0.1976 -0.2040  0.1310
 1251SOL    HW3 4777   4.344   0.754   5.284 -0.0059 -1.3230  1.1665
 1251SOL    MW4 4778   4.427   0.741   5.260 -0.1418 -0.0765 -0.1754
 1252SOL     OW 4779   0.522   4.400   3.664 -0.4740 -0.2957  0.0731
 1252SOL    HW2 4780   0.590   4.464   3.643  0.0711 -0.8345  0.1565
 1252SOL    HW3 4781   0.488   4.372   3.579  0.5966 -1.2694 -0.0578
 1252SOL    MW4 4782   0.526   4.405   3.650 -0.2609 -0.4952  0.0668
 1253SOL     OW 4783   4.555   1.919   2.555 -0.4421 -0.0103 -0.3583
 1253SOL    HW2 4784   4.563   2.014   2.570  2.5610 -0.2974  0.5147
 1253SOL    HW3 4785   4.554   1.881   2.643 -1.0060 -0.8533 -0.7139
 1253SOL    MW4 4786   4.556   1.927   2.569 -0.1203 -0.1594 -0.2900
 1254SOL     OW 4787   4.787   3.946   3.314 -0.2512  0.2370 -0.0645
 1254SOL    HW2 4788   4.797   4.034   3.352 -0.3730  0.9052 -1.5272
 1254SOL    HW3 4789   4.693   3.928   3.321 -0.4233  0.7659 -0.8929
 1254SOL    MW4 4790   4.776   3.955   3.320 -0.2900  0.3949 -0.3668
 1255SOL     OW 4791   5.931   6.134   6.047  0.3516  0.0704 -0.2271
 1255SOL    HW2 4792   5.917   6.079   5.970 -0.9131 -0.2550  0.2142
 1255SOL    HW3 4793   6.015   6.177   6.031  1.1533 -1.6334 -0.7999
 1255SOL    MW4 4794   5.941   6.132   6.035  0.2905 -0.1973 -0.2445
 1256SOL     OW 4795   1.568   2.944   1.867 -0.3696 -0.2242  0.5165
 1256SOL    HW2 4796   1.490   2.891   1.882  0.1687 -1.4565 -0.8729
 1256SOL    HW3 4797   1.554   3.022   1.922 -3.6752  0.7535 -1.4149
 1256SOL    MW4 4798   1.556   2.948   1.876 -0.7347 -0.2578  0.0784
 1257SOL     OW 4799   1.863   5.959   1.404 -0.0441  0.7546  0.0392
 1257SOL    HW2 4800   1.849   5.965   1.498 -0.4644 -1.0992  0.1256
 1257SOL    HW3 4801   1.936   6.018   1.386 -0.8815  2.2555  1.2701
 1257SOL    MW4 4802   1.870   5.968   1.414 -0.2101  0.7080  0.2130
 1258SOL     OW 4803   1.703   4.050   5.644 -0.3408 -0.7451 -0.2539
 1258SOL    HW2 4804   1.694   3.954   5.645 -0.1099 -0.7705  0.5934
 1258SOL    HW3 4805   1.664   4.077   5.561 -0.7543 -1.5425 -0.3319
 1258SOL    MW4 4806   1.697   4.041   5.633 -0.3649 -0.8537 -0.1524
 1259SOL     OW 4807   4.144   5.030   5.440  0.4148  0.1575  0.8129
 1259SOL    HW2 4808   4.151   5.055   5.532  1.4096  0.1570  0.7499
 1259SOL    HW3 4809   4.201   4.953   5.432  1.7701  1.2172 -0.1650
 1259SOL    MW4 4810   4.153   5.023   5.451  0.7248  0.2972  0.6756
 1260SOL     OW 4811   0.121   2.380  -0.011 -0.4596  0.1167 -0.6409
 1260SOL    HW2 4812   0.110   2.471   0.017  0.7016 -0.0040  0.2815
 1260SOL    HW3 4813   0.033   2.352  -0.037 -0.8192  1.5234 -1.0354
 1260SOL    MW4 4814   0.108   2.388  -0.011 -0.3538  0.2864 -0.5712
 1261SOL     OW 4815   3.819   1.508   2.476  0.5126 -0.4962  0.8311
 1261SOL    HW2 4816   3.772   1.582   2.437  1.9296  1.2169  2.1722
 1261SOL    HW3 4817   3.795   1.510   2.568  2.3949 -0.1527  1.3661
 1261SOL    MW4 4818   3.810   1.518   2.483  0.9479 -0.2248  1.0786
 1262SOL     OW 4819   4.028   5.936   3.926  0.2949  0.2172  0.2306
 1262SOL    HW2 4820   3.997   5.904   3.841 -0.5069 -0.0919  0.6249
 1262SOL    HW3 4821   4.100   5.879   3.949 -0.4005 -0.6085  0.4076
 1262SOL    MW4 4822   4.033   5.924   3.918  0.0974  0.0675  0.3060
 1263SOL     OW 4823   1.618   0.702   1.688  0.5286  0.2297  0.1012
 1263SOL    HW2 4824   1.664   0.737   1.611  0.5419  3.1898  1.3070
 1263SOL    HW3 4825   1.657   0.616   1.702  3.8372  1.4551 -0.5301
 1263SOL    MW4 4826   1.629   0.695   1.680  0.9669  0.7819  0.1770
 1264SOL     OW 4827   2.184   1.449   2.514  0.8854  0.1780  0.7452
 1264SOL    HW2 4828   2.254   1.449   2.580  0.7676  2.3592  0.9524
 1264SOL    HW3 4829   2.104   1.465   2.564  0.2477 -1.8998  0.4620
 1264SOL    MW4 4830   2.183   1.451   2.529  0.7857  0.1917  0.7351
 1265SOL     OW 4831   5.130   5.240   2.823  0.3931  0.1523  0.2125
 1265SOL    HW2 4832   5.069   5.215   2.893  1.6819 -0.3271  1.1892
 1265SOL    HW3 4833   5.209   5.269   2.869  0.1895  2.8560 -0.9602
 1265SOL    MW4 4834   5.132   5.240   2.838  0.5363  0.4458  0.1866
 1266SOL     OW 4835   1.938   3.095   3.266 -0.6511 -0.2069 -0.3802
 1266SOL    HW2 4836   1.900   3.066   3.183 -0.6846  2.3890 -1.3632
 1266SOL    HW3 4837   1.866   3.088   3.329 -2.2953  2.4991 -1.7330
 1266SOL    MW4 4838   1.924   3.091   3.263 -0.8724  0.4926 -0.6883
 1267SOL     OW 4839   4.360   1.323   2.033  0.0147  0.3386  0.1436
 1267SOL    HW2 4840   4.394   1.395   2.086  0.9404 -0.8469  1.2156
 1267SOL    HW3 4841   4.425   1.312   1.964  1.2840 -1.1262  1.4891
 1267SOL    MW4 4842   4.373   1.331   2.031  0.3043 -0.0111  0.4626
 1268SOL     OW 4843   6.036   3.156   1.314  0.5665  0.0390 -0.2116
 1268SOL    HW2 4844   6.044   3.089   1.246 -0.4065 -0.4834  0.1665
 1268SOL    HW3 4845   5.969   3.216   1.280 -0.4737 -0.6355  0.5907
 1268SOL    MW4 4846   6.028   3.155   1.300  0.3009 -0.1189 -0.0559
 1269SOL     OW 4847   0.712   0.129   4.063  0.4139 -0.0230  0.3849
 1269SOL    HW2 4848   0.769   0.054   4.046  0.6724  0.2653 -0.0256
 1269SOL    HW3 4849   0.725   0.186   3.987  0.6159  0.6853  0.9516
 1269SOL    MW4 4850   0.721   0.126   4.050  0.4747  0.1085  0.4055
 1270SOL     OW 4851   0.767   1.145   4.182  0.5714  0.5896  0.1407
 1270SOL    HW2 4852   0.802   1.213   4.240  1.0737  0.7828 -0.3824
 1270SOL    HW3 4853   0.824   1.070   4.197  1.2086  0.8943 -0.6891
 1270SOL    MW4 4854   0.779   1.144   4.192  0.7218  0.6553 -0.0378
 1271SOL     OW 4855   0.677   3.413   4.780  0.1587 -0.0759 -0.1747
 1271SOL    HW2 4856   0.676   3.319   4.762  0.6703  0.0730 -1.0223
 1271SOL    HW3 4857   0.623   3.451   4.712  1.7584  0.4558 -1.1953
 1271SOL    MW4 4858   0.670   3.406   4.769  0.4372  0.0139 -0.4212
 1272SOL     OW 4859   2.044   4.758   5.767  0.2523 -0.1532  0.0431
 1272SOL    HW2 4860   2.027   4.843   5.726 -3.5382  0.8338  3.0471
 1272SOL    HW3 4861   2.081   4.780   5.853  1.6002 -1.7783 -0.0532
 1272SOL    MW4 4862   2.047   4.772   5.773 -0.0700 -0.2374  0.4268
 1273SOL     OW 4863   2.902   0.822   5.604  0.2629  0.2172  0.1828
 1273SOL    HW2 4864   2.952   0.866   5.535  0.7535  1.0753  1.0439
 1273SOL    HW3 4865   2.969   0.797   5.669 -0.2062 -0.4043  0.4360
 1273SOL    MW4 4866   2.918   0.825   5.604  0.2657  0.2484  0.3298
 1274SOL     OW 4867   3.021   0.527   6.155  0.4239 -0.2293 -0.1244
 1274SOL    HW2 4868   3.013   0.585   6.079 -0.3713 -0.2539 -0.0629
 1274SOL    HW3 4869   3.095   0.470   6.133  1.1169  0.6938 -0.2557
 1274SOL    MW4 4870   3.030   0.528   6.142  0.4104 -0.1108 -0.1336
 1275SOL     OW 4871   4.028   3.173   0.198  0.7527  0.2558 -0.2010
 1275SOL    HW2 4872   4.006   3.082   0.219  0.2963  0.2916 -0.5192
 1275SOL    HW3 4873   4.021   3.179   0.103  0.4768  0.7008 -0.1564
 1275SOL    MW4 4874   4.025   3.162   0.188  0.6561  0.3193 -0.2371
 1276SOL     OW 4875   2.884   2.320   0.834  0.5025  0.4073 -0.2276
 1276SOL    HW2 4876   2.839   2.404   0.845 -0.4574 -0.0966 -0.1792
 1276SOL    HW3 4877   2.974   2.337   0.862 -0.0950  1.0030  1.5054
 1276SOL    MW4 4878   2.890   2.333   0.839  0.2971  0.4194  0.0074
 1277SOL     OW 4879   4.777   2.607   4.488  0.5478  0.3561  0.6406
 1277SOL    HW2 4880   4.859   2.628   4.445 -0.1851 -0.7790 -1.4649
 1277SOL    HW3 4881   4.802   2.555   4.565  1.8650  2.0210  1.3985
 1277SOL    MW4 4882   4.791   2.603   4.493  0.6249  0.4260  0.4628
 1278SOL     OW 4883   3.573   5.018   3.772 -0.2225  0.0413  0.1680
 1278SOL    HW2 4884   3.584   5.091   3.712 -0.5439 -1.1398 -1.3920
 1278SOL    HW3 4885   3.591   5.055   3.858 -0.4402  1.9566 -0.5593
 1278SOL    MW4 4886   3.577   5.032   3.775 -0.2936  0.1381 -0.1338
 1279SOL     OW 4887   6.284   1.077   3.302  0.3035  0.0229  0.5428
 1279SOL    HW2 4888   6.223   1.008   3.329 -0.4223  0.3630 -0.1924
 1279SOL    HW3 4889   6.272   1.147   3.367  0.6391 -0.3070  0.9679
 1279SOL    MW4 4890   6.274   1.077   3.314  0.2521  0.0243  0.5019
 1280SOL     OW 4891   2.721   3.381   2.544  0.3087 -0.2710  0.5210
 1280SOL    HW2 4892   2.727   3.453   2.607  0.8648  0.1253  0.0240
 1280SOL    HW3 4893   2.663   3.413   2.476  2.2767  0.5946 -0.8253
 1280SOL    MW4 4894   2.714   3.394   2.544  0.6417 -0.1045  0.2778
 1281SOL     OW 4895   0.078   1.609   2.971 -0.3024  0.4733 -0.5851
 1281SOL    HW2 4896   0.037   1.686   3.011  0.0995  0.5292 -0.2747
 1281SOL    HW3 4897   0.114   1.641   2.889  0.6635  0.8365 -0.0361
 1281SOL    MW4 4898   0.077   1.623   2.966 -0.1219  0.5286 -0.4717
 1282SOL     OW 4899   2.054   1.781   1.378  0.0229 -0.0516  0.5550
 1282SOL    HW2 4900   2.083   1.696   1.412  1.0030 -0.5136 -1.2754
 1282SOL    HW3 4901   2.047   1.768   1.283  0.3349  1.9396  0.2073
 1282SOL    MW4 4902   2.057   1.768   1.370  0.1934  0.1501  0.2676
 1283SOL     OW 4903   4.273   0.887   0.871  0.3299 -0.4800 -0.4396
 1283SOL    HW2 4904   4.179   0.872   0.874  0.2184  0.1907 -0.3036
 1283SOL    HW3 4905   4.299   0.893   0.963  0.4637 -0.4281 -0.4810
 1283SOL    MW4 4906   4.264   0.886   0.883  0.3329 -0.3847 -0.4271
 1284SOL     OW 4907   3.247   5.218   3.912  0.4385  0.0326 -0.1653
 1284SOL    HW2 4908   3.175   5.210   3.849 -0.3538  1.0897  0.5744
 1284SOL    HW3 4909   3.295   5.295   3.885 -1.9498  2.6762  2.3999
 1284SOL    MW4 4910   3.244   5.227   3.900  0.0189  0.5209  0.2707
 1285SOL     OW 4911   6.242   5.906   0.750  1.0319  0.6178 -0.4516
 1285SOL    HW2 4912   6.184   5.864   0.813 -0.0973  1.8301 -0.6313
 1285SOL    HW3 4913   6.243   5.846   0.675  1.0047 -0.0002  0.0368
 1285SOL    MW4 4914   6.235   5.892   0.748  0.8793  0.6962 -0.4108
 1286SOL     OW 4915   5.203   6.152   6.011 -0.2074  0.5680 -0.0112
 1286SOL    HW2 4916   5.171   6.242   6.018 -1.6314 -0.0064  1.4957
 1286SOL    HW3 4917   5.166   6.120   5.928 -0.9354  0.9117  0.1687
 1286SOL    MW4 4918   5.194   6.160   6.001 -0.4913  0.5376  0.2114
 1287SOL     OW 4919   1.402   1.485   4.190 -0.7674 -0.4430 -0.6036
 1287SOL    HW2 4920   1.326   1.533   4.224 -1.2552  0.2687 -2.5764
 1287SOL    HW3 4921   1.374   1.453   4.104  1.2529  0.0516 -1.5016
 1287SOL    MW4 4922   1.388   1.487   4.183 -0.5652 -0.2838 -0.9823
 1288SOL     OW 4923   5.186   1.017   4.113  0.0619 -0.0368 -0.1020
 1288SOL    HW2 4924   5.205   1.110   4.109 -0.3029  0.1121  1.3648
 1288SOL    HW3 4925   5.221   0.982   4.031  1.5049  1.1461 -0.0197
 1288SOL    MW4 4926   5.193   1.024   4.101  0.2041  0.1389  0.1024
 1289SOL     OW 4927   0.721   4.014   0.673 -0.2623 -0.2885  0.5367
 1289SOL    HW2 4928   0.744   4.021   0.581  1.4822  0.1398  0.9655
 1289SOL    HW3 4929   0.635   3.971   0.674 -1.1138  1.2466 -1.3315
 1289SOL    MW4 4930   0.712   4.009   0.661 -0.1445 -0.0295  0.3468
 1290SOL     OW 4931   1.500   5.608   3.089  0.1554  0.1085  0.5706
 1290SOL    HW2 4932   1.441   5.681   3.068  1.7334  1.1646 -0.5064
 1290SOL    HW3 4933   1.519   5.618   3.182 -3.4027 -1.9052  1.6915
 1290SOL    MW4 4934   1.495   5.619   3.098 -0.1058 -0.0178  0.5764
 1291SOL     OW 4935   4.215   4.462   3.998  0.4328 -0.3450 -0.2869
 1291SOL    HW2 4936   4.146   4.486   3.936  0.8436  1.7133 -0.0062
 1291SOL    HW3 4937   4.295   4.459   3.944  0.4931 -0.3626 -0.1968
 1291SOL    MW4 4938   4.217   4.465   3.983  0.4950 -0.0758 -0.2380
 1292SOL     OW 4939   2.684   0.243   3.418 -0.0052  0.1108  0.1315
 1292SOL    HW2 4940   2.640   0.220   3.500  0.1601 -0.1961  0.1352
 1292SOL    HW3 4941   2.716   0.332   3.432 -0.3696  0.2294  0.2348
 1292SOL    MW4 4942   2.682   0.252   3.430 -0.0315  0.0860  0.1456
 1293SOL     OW 4943   5.373   3.285   4.802 -0.1603 -0.0680 -0.5471
 1293SOL    HW2 4944   5.308   3.354   4.796  0.3760  0.3096 -3.7282
 1293SOL    HW3 4945   5.322   3.204   4.812 -0.8245  0.5518  1.9376
 1293SOL    MW4 4946   5.358   3.283   4.803 -0.1772  0.0636 -0.6390
 1294SOL     OW 4947   5.504   4.840   5.793  0.2271  0.2789 -0.3902
 1294SOL    HW2 4948   5.499   4.786   5.872  1.4614 -1.5807 -1.5053
 1294SOL    HW3 4949   5.418   4.882   5.788  0.6059  1.6985  2.7213
 1294SOL    MW4 4950   5.492   4.838   5.803  0.4399  0.2208 -0.1268
 1295SOL     OW 4951   5.299   0.932   5.416 -0.0700  0.7330 -0.1397
 1295SOL    HW2 4952   5.344   0.902   5.495 -2.2486 -1.7735  0.2662
 1295SOL    HW3 4953   5.229   0.988   5.448 -0.0277  0.9598 -0.4388
 1295SOL    MW4 4954   5.296   0.935   5.430 -0.3518  0.4322 -0.1256
 1296SOL     OW 4955   5.785   3.975   0.532  0.0631 -0.1894  0.1245
 1296SOL    HW2 4956   5.741   3.945   0.611 -0.3234 -0.8537 -0.3248
 1296SOL    HW3 4957   5.821   3.894   0.493  1.4785  0.2937  0.3542
 1296SOL    MW4 4958   5.784   3.960   0.537  0.1988 -0.2133  0.0955
 1297SOL     OW 4959   4.526   6.107   2.353  0.1851  0.0721  0.7525
 1297SOL    HW2 4960   4.453   6.106   2.415  0.3508  1.0135  0.9817
 1297SOL    HW3 4961   4.503   6.176   2.291 -0.4374 -1.4689 -0.8179
 1297SOL    MW4 4962   4.513   6.116   2.353  0.1248 -0.0070  0.5755
 1298SOL     OW 4963   2.065   2.054   5.964 -0.3176 -0.9067 -0.3219
 1298SOL    HW2 4964   2.106   2.081   5.882  1.8442 -1.9674  0.3414
 1298SOL    HW3 4965   1.988   2.110   5.972 -0.0969 -0.1822 -2.6185
 1298SOL    MW4 4966   2.060   2.065   5.954 -0.0033 -0.9510 -0.5374
 1299SOL     OW 4967   0.910   4.775   4.060  0.7870 -0.3499 -0.3478
 1299SOL    HW2 4968   0.885   4.752   3.970 -0.5625  0.1764 -0.1317
 1299SOL    HW3 4969   0.894   4.695   4.111 -0.4749 -0.0452 -0.2261
 1299SOL    MW4 4970   0.904   4.761   4.055  0.4424 -0.2403 -0.3033
 1300SOL     OW 4971   4.068   1.931   4.814  0.1077  0.0502  0.3132
 1300SOL    HW2 4972   4.024   1.897   4.736 -0.4870 -0.5910  0.9099
 1300SOL    HW3 4973   4.111   1.854   4.852  1.9700  0.6948 -0.3646
 1300SOL    MW4 4974   4.068   1.916   4.809  0.2749  0.0506  0.3025
 1301SOL     OW 4975   1.768   3.718   6.147 -0.4538  0.1369 -0.0545
 1301SOL    HW2 4976   1.773   3.654   6.217 -0.3513  2.0017  1.7586
 1301SOL    HW3 4977   1.800   3.672   6.069  1.2117 -1.4893  1.4998
 1301SOL    MW4 4978   1.773   3.704   6.146 -0.2206  0.1684  0.3898
 1302SOL     OW 4979   0.047   6.092   1.693 -0.2928  0.2032 -0.4549
 1302SOL    HW2 4980  -0.044   6.063   1.690 -0.4871  0.7929 -0.5322
 1302SOL    HW3 4981   0.098   6.019   1.657 -0.6033 -0.6172  0.7143
 1302SOL    MW4 4982   0.042   6.079   1.688 -0.3594  0.1728 -0.3109
 1303SOL     OW 4983   4.892   5.281   0.543 -0.2958 -0.3183 -0.0470
 1303SOL    HW2 4984   4.930   5.197   0.569  2.3556  0.8135  0.1001
 1303SOL    HW3 4985   4.832   5.304   0.614  2.5286  0.0492  2.4419
 1303SOL    MW4 4986   4.889   5.273   0.555  0.4266 -0.1205  0.3008
 1304SOL     OW 4987   0.207   5.637   3.388  0.6623 -0.0823 -0.1310
 1304SOL    HW2 4988   0.119   5.666   3.365  0.7670  0.4628  0.1560
 1304SOL    HW3 4989   0.260   5.658   3.311  1.3977  3.4179  1.1510
 1304SOL    MW4 4990   0.202   5.643   3.374  0.7732  0.4514  0.0760
 1305SOL     OW 4991   2.833   4.795   0.868 -0.0993  0.5872  0.0948
 1305SOL    HW2 4992   2.778   4.745   0.929  0.8828  0.2897  0.7573
 1305SOL    HW3 4993   2.783   4.796   0.787 -0.0903 -1.6459 -0.0138
 1305SOL    MW4 4994   2.819   4.789   0.866  0.0315  0.2533  0.1679
 1306SOL     OW 4995   1.092   0.153   4.844 -0.5003 -0.1786 -0.9117
 1306SOL    HW2 4996   1.042   0.160   4.762 -1.9098 -1.3214 -0.1957
 1306SOL    HW3 4997   1.037   0.197   4.909  1.1495  1.7672 -0.7456
 1306SOL    MW4 4998   1.078   0.160   4.842 -0.4686 -0.0727 -0.7953
 1307SOL     OW 4999   6.040   0.543   1.433  0.2934 -0.6761 -0.1843
 1307SOL    HW2 5000   6.041   0.630   1.473 -0.5313 -1.0641  0.6998
 1307SOL    HW3 5001   6.035   0.560   1.339 -0.4239  0.2273  0.0103
 1307SOL    MW4 5002   6.040   0.557   1.426  0.0900 -0.6081 -0.0420
 1308SOL     OW 5003   2.101   2.087   4.521 -0.1728 -0.9259  0.2531
 1308SOL    HW2 5004   2.154   2.166   4.506 -1.0485 -0.3766  0.0135
 1308SOL    HW3 5005   2.112   2.036   4.441  0.8696 -1.3444  0.6396
 1308SOL    MW4 5006   2.110   2.091   4.509 -0.1508 -0.9087  0.2725
 1309SOL     OW 5007   1.379   5.448   5.974  0.1797 -0.3004  0.0096
 1309SOL    HW2 5008   1.314   5.383   6.001  1.9846 -1.3413  2.1758
 1309SOL    HW3 5009   1.445   5.397   5.927  0.9174  0.2144  0.4728
 1309SOL    MW4 5010   1.379   5.432   5.971  0.5151 -0.3698  0.3565
 1310SOL     OW 5011   0.352   3.855   0.495  0.0106  0.1655  0.6269
 1310SOL    HW2 5012   0.394   3.821   0.415  0.4266  1.0318  0.4639
 1310SOL    HW3 5013   0.425   3.864   0.557  0.0021  1.2659  0.4869
 1310SOL    MW4 5014   0.367   3.852   0.492  0.0643  0.4250  0.5869
 1311SOL     OW 5015   4.181   2.345   3.980  0.2304 -0.1803  0.2601
 1311SOL    HW2 5016   4.185   2.322   4.073 -3.8951 -1.1401  0.4041
 1311SOL    HW3 5017   4.272   2.338   3.950  1.4983 -1.4890  3.8037
 1311SOL    MW4 5018   4.194   2.341   3.988 -0.1466 -0.4796  0.7466
 1312SOL     OW 5019   6.109   6.174   0.745  0.1891  0.3946  0.4560
 1312SOL    HW2 5020   6.159   6.093   0.736 -0.5648  0.0038 -0.2767
 1312SOL    HW3 5021   6.143   6.231   0.676 -2.0960 -0.7970 -1.8193
 1312SOL    MW4 5022   6.120   6.171   0.735 -0.2119  0.1858  0.0592
 1313SOL     OW 5023   5.673   2.569   4.537  0.5209  0.0833  0.0931
 1313SOL    HW2 5024   5.586   2.571   4.578  0.3417 -0.2803 -0.2599
 1313SOL    HW3 5025   5.690   2.476   4.521 -0.9090  0.2875 -3.7236
 1313SOL    MW4 5026   5.663   2.557   4.541  0.3086  0.0622 -0.4571
 1314SOL     OW 5027   5.839   4.913   2.488  0.3592  0.3817  0.6125
 1314SOL    HW2 5028   5.876   4.829   2.513  0.1577  0.3177  0.7036
 1314SOL    HW3 5029   5.802   4.899   2.401 -1.8053 -0.3192  1.5612
 1314SOL    MW4 5030   5.839   4.900   2.480  0.0471  0.2808  0.7497
 1315SOL     OW 5031   4.453   0.523   1.429  0.1539 -0.1859 -0.1795
 1315SOL    HW2 5032   4.508   0.599   1.449  0.3586 -0.0630 -1.1367
 1315SOL    HW3 5033   4.448   0.475   1.511  1.0330  0.2262  0.1324
 1315SOL    MW4 5034   4.459   0.527   1.442  0.2969 -0.1153 -0.2646
 1316SOL     OW 5035   1.030   5.386   3.808 -0.6163  0.2084 -0.3721
 1316SOL    HW2 5036   1.102   5.329   3.836 -0.8514  0.7774  1.5358
 1316SOL    HW3 5037   0.970   5.328   3.762 -0.9909 -1.1976  1.7676
 1316SOL    MW4 5038   1.032   5.371   3.806 -0.6967  0.0980  0.1619
 1317SOL     OW 5039   2.512   3.399   1.528  0.5854 -0.3823  0.8986
 1317SOL    HW2 5040   2.491   3.341   1.454  0.8733 -0.9011  1.2219
 1317SOL    HW3 5041   2.541   3.480   1.487 -1.1030  0.0327  0.4269
 1317SOL    MW4 5042   2.513   3.402   1.513  0.4006 -0.3960  0.8790
 1318SOL     OW 5043   3.975   0.131   2.669  0.0434 -0.2618  0.2606
 1318SOL    HW2 5044   3.890   0.088   2.665  0.2387 -0.7737  1.3086
 1318SOL    HW3 5045   3.983   0.161   2.759  0.7466  0.2698  0.0337
 1318SOL    MW4 5046   3.965   0.129   2.680  0.1619 -0.2592  0.3689
 1319SOL     OW 5047   0.403   5.868   1.723  0.1062  0.0581  0.1436
 1319SOL    HW2 5048   0.463   5.849   1.796  0.1225 -0.2942  0.0400
 1319SOL    HW3 5049   0.433   5.952   1.689 -0.0800  0.3654  0.7285
 1319SOL    MW4 5050   0.415   5.877   1.728  0.0838  0.0521  0.2071
 1320SOL     OW 5051   5.022   3.236   4.461  0.2458  0.5112 -0.0244
 1320SOL    HW2 5052   4.971   3.189   4.526  0.3985  2.2986  1.4701
 1320SOL    HW3 5053   5.103   3.260   4.506  0.5529  1.4124 -1.0047
 1320SOL    MW4 5054   5.026   3.233   4.475  0.3064  0.8659  0.0434
 1321SOL     OW 5055   4.636   4.564   0.177 -0.3651  0.4730  0.6158
 1321SOL    HW2 5056   4.651   4.477   0.214 -0.2123  0.1448 -0.2034
 1321SOL    HW3 5057   4.541   4.568   0.163 -0.2928  0.1893  0.0455
 1321SOL    MW4 5058   4.626   4.553   0.180 -0.3354  0.3923  0.4324
 1322SOL     OW 5059   5.285   5.213   4.480  0.2348 -0.0328 -0.2720
 1322SOL    HW2 5060   5.379   5.230   4.473  0.2619  0.7956  1.4624
 1322SOL    HW3 5061   5.254   5.277   4.544 -1.4862 -0.4086 -0.6812
 1322SOL    MW4 5062   5.293   5.224   4.488  0.0113  0.0269 -0.0972
 1323SOL     OW 5063   1.541   4.460   5.427  0.1900  0.2600  0.4375
 1323SOL    HW2 5064   1.466   4.440   5.484 -0.7290 -0.8619 -1.0865
 1323SOL    HW3 5065   1.541   4.389   5.363  0.7636  1.8184 -1.3796
 1323SOL    MW4 5066   1.531   4.448   5.426  0.1444  0.3176 -0.0033
 1324SOL     OW 5067   0.961   2.844   2.847 -0.1293  0.2352  0.7649
 1324SOL    HW2 5068   0.878   2.887   2.869  0.5022  2.9137 -1.4741
 1324SOL    HW3 5069   1.027   2.911   2.863  1.5170 -1.4213  1.2462
 1324SOL    MW4 5070   0.958   2.858   2.852  0.1712  0.3701  0.5330
 1325SOL     OW 5071   4.732   3.355   5.050  0.0668 -0.5289  0.1839
 1325SOL    HW2 5072   4.810   3.328   5.001  0.3147 -0.8098  0.7159
 1325SOL    HW3 5073   4.740   3.308   5.133  0.0095  0.4760  0.7611
 1325SOL    MW4 5074   4.743   3.345   5.054  0.0920 -0.4334  0.3303
 1326SOL     OW 5075   5.273   2.840   2.918  0.2098  0.1989  0.3577
 1326SOL    HW2 5076   5.249   2.892   2.841  0.7474  1.1262  0.7991
 1326SOL    HW3 5077   5.260   2.750   2.891  0.2277  0.5190 -0.7718
 1326SOL    MW4 5078   5.268   2.835   2.904  0.2831  0.3635  0.2669
 1327SOL     OW 5079   4.880   6.082   0.747  0.3590  0.3362  0.2926
 1327SOL    HW2 5080   4.937   6.158   0.738 -0.8259  1.1331 -0.9545
 1327SOL    HW3 5081   4.911   6.020   0.681  0.6878  0.1466  0.6199
 1327SOL    MW4 5082   4.891   6.084   0.737  0.2460  0.4163  0.1713
 1328SOL     OW 5083   1.104   1.331   0.081 -0.0194  0.5041 -0.6407
 1328SOL    HW2 5084   1.162   1.267   0.039  0.3098  0.7389 -0.5503
 1328SOL    HW3 5085   1.044   1.278   0.133 -0.0703  0.2409 -0.9655
 1328SOL    MW4 5086   1.104   1.315   0.082  0.0173  0.5003 -0.6716
 1329SOL     OW 5087   4.264   2.373   2.855 -0.2928 -0.1263  0.0809
 1329SOL    HW2 5088   4.358   2.375   2.841 -0.1908  0.4562  0.7572
 1329SOL    HW3 5089   4.226   2.370   2.768  0.3623 -1.6673 -0.1913
 1329SOL    MW4 5090   4.271   2.373   2.842 -0.1929 -0.2528  0.1342
 1330SOL     OW 5091   2.811   5.842   3.938  0.0977 -0.4329 -0.0650
 1330SOL    HW2 5092   2.824   5.910   4.005 -1.5905  0.6248 -0.7271
 1330SOL    HW3 5093   2.719   5.852   3.912  0.5837 -1.0878 -2.2410
 1330SOL    MW4 5094   2.800   5.853   3.943 -0.0609 -0.3798 -0.4395
 1331SOL     OW 5095   0.741   4.957   3.380  0.0621  0.2294 -0.7638
 1331SOL    HW2 5096   0.654   4.997   3.378  0.0512  0.1997 -0.9564
 1331SOL    HW3 5097   0.798   5.021   3.337  0.0396  0.0268 -1.0977
 1331SOL    MW4 5098   0.737   4.971   3.374  0.0577  0.1988 -0.8332
 1332SOL     OW 5099   2.955   0.360   4.926  0.2737 -0.4432  0.3415
 1332SOL    HW2 5100   2.979   0.417   4.853 -2.0016 -1.0759 -0.9619
 1332SOL    HW3 5101   2.866   0.386   4.949 -0.3600 -2.6333  0.5277
 1332SOL    MW4 5102   2.947   0.371   4.919 -0.1101 -0.8156  0.1941
 1333SOL     OW 5103   5.747   1.177   1.957 -0.1248  0.5184  0.5299
 1333SOL    HW2 5104   5.810   1.239   1.994 -1.2931  0.7734  2.2142
 1333SOL    HW3 5105   5.709   1.222   1.882  1.3198  0.5431 -0.2277
 1333SOL    MW4 5106   5.751   1.191   1.952 -0.0883  0.5553  0.6521
 1334SOL     OW 5107   5.783   2.602   2.564  0.3628 -0.7943 -0.4212
 1334SOL    HW2 5108   5.781   2.665   2.636  0.2026  0.2713 -1.3505
 1334SOL    HW3 5109   5.843   2.534   2.595  1.0888  0.1480  0.3213
 1334SOL    MW4 5110   5.791   2.601   2.578  0.4375 -0.5294 -0.4459
 1335SOL     OW 5111   2.736   0.481   5.039  0.6519  0.0832 -0.2196
 1335SOL    HW2 5112   2.648   0.458   5.009  0.4124  1.8865 -1.0369
 1335SOL    HW3 5113   2.742   0.443   5.126 -1.6750  1.4620  0.6526
 1335SOL    MW4 5114   2.725   0.473   5.047  0.3133  0.5031 -0.2124
 1336SOL     OW 5115   2.992   1.019   3.439  0.0016  0.3329 -0.1921
 1336SOL    HW2 5116   3.053   1.091   3.453  1.1400 -0.6634  0.0469
 1336SOL    HW3 5117   2.987   0.974   3.523  1.2883 -1.3658 -0.9662
 1336SOL    MW4 5118   2.999   1.023   3.452  0.3216 -0.0226 -0.2627
 1337SOL     OW 5119   1.974   3.726   3.471  0.0572 -0.2998  0.2975
 1337SOL    HW2 5120   1.882   3.704   3.456 -0.7724  0.8695  3.0281
 1337SOL    HW3 5121   1.974   3.821   3.480  1.5135 -0.3065  0.5313
 1337SOL    MW4 5122   1.962   3.736   3.470  0.1399 -0.1464  0.6886
 1338SOL     OW 5123   4.079   5.388   2.540  0.0241  0.3347  0.1645
 1338SOL    HW2 5124   4.078   5.298   2.509 -0.9245  0.1166  0.8036
 1338SOL    HW3 5125   3.987   5.412   2.547  0.2667  1.3581  0.0014
 1338SOL    MW4 5126   4.067   5.379   2.537 -0.0691  0.4409  0.2273
 1339SOL     OW 5127   1.900   4.949   2.584  0.8119  0.5252  0.0132
 1339SOL    HW2 5128   1.826   4.962   2.644  1.1486  1.6636  0.1955
 1339SOL    HW3 5129   1.967   4.906   2.637  0.6716  0.4520  0.1326
 1339SOL    MW4 5130   1.899   4.945   2.599  0.8378  0.6658  0.0530
 1340SOL     OW 5131   1.228   5.745   1.912  0.0527 -0.2921 -0.1312
 1340SOL    HW2 5132   1.177   5.809   1.963 -0.6005  0.6666 -1.8943
 1340SOL    HW3 5133   1.315   5.784   1.906 -0.0703 -0.0482 -0.3602
 1340SOL    MW4 5134   1.233   5.759   1.918 -0.0497 -0.1334 -0.3940
 1341SOL     OW 5135   6.350   4.486   2.836  0.5992 -0.5732 -0.8804
 1341SOL    HW2 5136   6.383   4.567   2.797  2.4749 -1.3224 -0.9736
 1341SOL    HW3 5137   6.299   4.515   2.911  0.3819  0.7290 -1.4938
 1341SOL    MW4 5138   6.348   4.500   2.840  0.8180 -0.5002 -0.9736
 1342SOL     OW 5139   1.176   4.320   0.958  1.1453 -0.2937  0.3845
 1342SOL    HW2 5140   1.082   4.337   0.961  1.2446  0.5031 -0.4515
 1342SOL    HW3 5141   1.202   4.309   1.049  0.2570 -0.4296  0.6283
 1342SOL    MW4 5142   1.167   4.321   0.970  1.0412 -0.2065  0.3063
 1343SOL     OW 5143   0.288   4.362   2.168 -0.7594 -0.4640 -0.0119
 1343SOL    HW2 5144   0.369   4.376   2.119 -0.8211  0.3623  0.1197
 1343SOL    HW3 5145   0.315   4.361   2.259 -0.8845 -0.3128  0.0258
 1343SOL    MW4 5146   0.302   4.364   2.173 -0.7840 -0.3351  0.0105
 1344SOL     OW 5147   2.744   5.265   1.342  0.6854 -0.0227 -0.4200
 1344SOL    HW2 5148   2.658   5.241   1.308  1.2269 -1.9063 -0.5761
 1344SOL    HW3 5149   2.804   5.251   1.269  1.1077  1.4859 -0.3810
 1344SOL    MW4 5150   2.741   5.260   1.328  0.8126 -0.0722 -0.4354
 1345SOL     OW 5151   5.101   1.965   1.917 -0.2189  0.7306 -0.6761
 1345SOL    HW2 5152   5.006   1.962   1.926 -0.3473  1.7230 -1.5117
 1345SOL    HW3 5153   5.117   2.035   1.854  1.0682  0.5467 -0.5830
 1345SOL    MW4 5154   5.091   1.974   1.910 -0.0660  0.8373 -0.7741
 1346SOL     OW 5155   1.110   0.502   6.174  0.1324 -0.7797  0.0919
 1346SOL    HW2 5156   1.107   0.438   6.103 -2.1886  0.3752 -0.9780
 1346SOL    HW3 5157   1.029   0.488   6.222 -1.4742  2.4888 -1.3657
 1346SOL    MW4 5158   1.099   0.492   6.171 -0.3858 -0.1961 -0.2416
 1347SOL     OW 5159   0.563   5.262   0.675 -0.2562 -0.6099 -0.5409
 1347SOL    HW2 5160   0.469   5.280   0.681 -0.2956 -1.1025  0.7540
 1347SOL    HW3 5161   0.585   5.278   0.583 -1.5543 -0.2643 -0.8153
 1347SOL    MW4 5162   0.554   5.267   0.664 -0.4327 -0.6293 -0.4062
 1348SOL     OW 5163   0.095   3.661   5.619 -0.3969  0.1640 -0.9249
 1348SOL    HW2 5164   0.132   3.609   5.691 -0.4064 -1.7086 -2.2054
 1348SOL    HW3 5165   0.002   3.669   5.641  0.0509  1.9775  0.5947
 1348SOL    MW4 5166   0.088   3.655   5.632 -0.3391  0.1562 -0.8934
 1349SOL     OW 5167   3.258   4.574   5.667  0.3119 -0.3545 -0.2994
 1349SOL    HW2 5168   3.262   4.660   5.709  2.1087 -0.5598  0.0430
 1349SOL    HW3 5169   3.249   4.593   5.574 -0.9102  0.1574 -0.0913
 1349SOL    MW4 5170   3.258   4.588   5.660  0.3877 -0.3141 -0.2268
 1350SOL     OW 5171   0.372   1.180   3.301  0.8271  0.0247  0.2004
 1350SOL    HW2 5172   0.330   1.098   3.325 -0.4299  1.0311  1.6334
 1350SOL    HW3 5173   0.457   1.154   3.264  0.0446 -1.9304 -0.3468
 1350SOL    MW4 5174   0.378   1.166   3.299  0.5580 -0.1005  0.3172
 1351SOL     OW 5175   4.443   6.052   1.521 -0.0032  0.1935  0.0386
 1351SOL    HW2 5176   4.438   6.125   1.460 -1.1645  0.1023  0.0097
 1351SOL    HW3 5177   4.389   5.983   1.481 -0.6630  0.0822  1.0921
 1351SOL    MW4 5178   4.435   6.052   1.508 -0.2435  0.1668  0.1738
 1352SOL     OW 5179   2.944   1.069   2.680  0.4006 -0.1519  0.4905
 1352SOL    HW2 5180   2.968   0.978   2.661  0.0150 -0.2479  0.4549
 1352SOL    HW3 5181   2.966   1.080   2.773  2.4013  0.3569  0.0054
 1352SOL    MW4 5182   2.950   1.058   2.690  0.6137 -0.0974  0.4218
 1353SOL     OW 5183   0.896   2.206   4.335  0.3872  0.3541 -0.3002
 1353SOL    HW2 5184   0.855   2.120   4.336  0.8695  0.1024 -1.3198
 1353SOL    HW3 5185   0.970   2.197   4.274  0.9389  1.2572  0.2115
 1353SOL    MW4 5186   0.900   2.194   4.327  0.5236  0.4400 -0.3672
 1354SOL     OW 5187   0.649   2.785   2.481  0.2920  0.1207  0.1117
 1354SOL    HW2 5188   0.604   2.701   2.469  1.1298 -0.0224 -2.9079
 1354SOL    HW3 5189   0.701   2.796   2.402  2.6641  2.0652  1.7787
 1354SOL    MW4 5190   0.650   2.775   2.469  0.7155  0.3584 -0.0668
 1355SOL     OW 5191   4.245   5.434   2.751  0.0629 -0.1132 -0.0632
 1355SOL    HW2 5192   4.219   5.388   2.671 -1.1897  1.5841 -0.6881
 1355SOL    HW3 5193   4.339   5.451   2.738 -0.5194  2.1255 -2.3454
 1355SOL    MW4 5194   4.254   5.430   2.739 -0.1792  0.4061 -0.4468
 1356SOL     OW 5195   3.217   0.860   4.110  0.0422  0.0208 -0.1158
 1356SOL    HW2 5196   3.226   0.783   4.165  0.7428 -0.0432 -0.3049
 1356SOL    HW3 5197   3.274   0.842   4.035  0.0934  0.6582 -0.2328
 1356SOL    MW4 5198   3.226   0.848   4.107  0.1414  0.0964 -0.1562
 1357SOL     OW 5199   3.686   5.637   1.019  0.1142 -0.2120  0.0390
 1357SOL    HW2 5200   3.692   5.711   1.078  0.2477 -0.9259  0.9379
 1357SOL    HW3 5201   3.737   5.568   1.061 -0.1096 -0.8596 -0.7182
 1357SOL    MW4 5202   3.694   5.638   1.032  0.1023 -0.3916  0.0577
 1358SOL     OW 5203   0.068   4.168   3.284  0.0097  0.2647 -0.3502
 1358SOL    HW2 5204  -0.010   4.203   3.326 -0.0324  0.0976 -0.2862
 1358SOL    HW3 5205   0.096   4.236   3.224 -1.8064 -0.7426 -2.4792
 1358SOL    MW4 5206   0.062   4.181   3.282 -0.2355  0.1098 -0.6227
 1359SOL     OW 5207   4.601   3.542   5.969 -0.2854  0.0292 -0.4424
 1359SOL    HW2 5208   4.620   3.448   5.964  1.6805  0.3616 -0.1350
 1359SOL    HW3 5209   4.507   3.547   5.982 -0.3786 -1.9189 -0.0671
 1359SOL    MW4 5210   4.591   3.530   5.970 -0.0383 -0.1839 -0.3524
 1360SOL     OW 5211   0.400   4.624   3.501 -0.9972 -0.0746  0.7565
 1360SOL    HW2 5212   0.438   4.637   3.414 -0.6398 -0.5000  0.8452
 1360SOL    HW3 5213   0.310   4.595   3.484 -1.5550  1.6423  0.5505
 1360SOL    MW4 5214   0.393   4.622   3.487 -1.0237  0.0958  0.7410
 1361SOL     OW 5215   5.178   6.228   3.400  0.4645  0.1862 -0.5713
 1361SOL    HW2 5216   5.164   6.278   3.480  2.1962  0.0723 -0.1477
 1361SOL    HW3 5217   5.170   6.292   3.329  3.6301  1.4056  0.0116
 1361SOL    MW4 5218   5.175   6.243   3.401  1.1106  0.3321 -0.4385
 1362SOL     OW 5219   4.170   2.721   2.442 -0.3154  0.2159 -0.5883
 1362SOL    HW2 5220   4.116   2.642   2.439 -0.4938  0.3601 -1.2893
 1362SOL    HW3 5221   4.253   2.694   2.401 -0.1887  0.2529 -0.3585
 1362SOL    MW4 5222   4.174   2.707   2.436 -0.3222  0.2398 -0.6505
 1363SOL     OW 5223   3.595   3.055   2.660  0.2351 -0.1681 -0.0858
 1363SOL    HW2 5224   3.656   3.008   2.603 -0.1066  0.3711 -0.9100
 1363SOL    HW3 5225   3.535   2.988   2.691  0.8296 -0.5860  0.1940
 1363SOL    MW4 5226   3.595   3.040   2.656  0.2684 -0.1521 -0.1576
 1364SOL     OW 5227   3.062   3.289   3.071 -0.1892  0.3192  0.6887
 1364SOL    HW2 5228   3.058   3.194   3.082 -0.6421  0.2913  0.2939
 1364SOL    HW3 5229   3.120   3.319   3.142  2.4171 -0.5547 -0.9583
 1364SOL    MW4 5230   3.069   3.281   3.082  0.0949  0.2002  0.4193
 1365SOL     OW 5231   4.914   2.778   3.816  0.2153  0.2139  0.0362
 1365SOL    HW2 5232   5.009   2.776   3.804  0.6165 -1.9695  2.7515
 1365SOL    HW3 5233   4.879   2.725   3.744  1.1428  0.0680 -0.3170
 1365SOL    MW4 5234   4.922   2.771   3.804  0.3906 -0.0934  0.3478
 1366SOL     OW 5235   4.213   0.186   1.628 -0.3065 -0.0668 -0.0114
 1366SOL    HW2 5236   4.179   0.262   1.675  0.2059 -0.3787  0.8927
 1366SOL    HW3 5237   4.234   0.123   1.697 -1.3389 -1.2903 -0.7696
 1366SOL    MW4 5238   4.211   0.187   1.643 -0.3751 -0.2694  0.0078
 1367SOL     OW 5239   1.014   3.686   2.489  0.0934 -0.1097 -0.7910
 1367SOL    HW2 5240   1.019   3.715   2.398 -1.4084  1.3149 -0.4697
 1367SOL    HW3 5241   1.013   3.590   2.484 -0.0536 -0.0495 -2.2717
 1367SOL    MW4 5242   1.014   3.677   2.476 -0.1241  0.0862 -0.9439
 1368SOL     OW 5243   0.165   4.958   4.482 -0.0794 -0.1066 -0.2330
 1368SOL    HW2 5244   0.109   5.017   4.533 -1.7612 -0.0532 -2.0471
 1368SOL    HW3 5245   0.131   4.871   4.500 -0.5365 -0.1071 -1.0804
 1368SOL    MW4 5246   0.153   4.954   4.491 -0.3616 -0.0997 -0.5841
 1369SOL     OW 5247   6.294   0.140   0.523 -0.3506  0.4201 -0.8166
 1369SOL    HW2 5248   6.305   0.055   0.479 -0.6234 -0.4093  0.6620
 1369SOL    HW3 5249   6.373   0.189   0.499 -0.1529 -0.2655 -1.6317
 1369SOL    MW4 5250   6.306   0.135   0.514 -0.3605  0.2202 -0.7291
 1370SOL     OW 5251   4.867   2.970   4.898 -0.1420  0.2388  0.2014
 1370SOL    HW2 5252   4.854   2.881   4.866 -0.8385  0.4642 -0.1675
 1370SOL    HW3 5253   4.830   2.969   4.986  0.3120  0.0369  0.3936
 1370SOL    MW4 5254   4.860   2.958   4.906 -0.1740  0.2419  0.1781
 1371SOL     OW 5255   0.717   3.749   6.286 -0.3942 -0.5512 -0.3441
 1371SOL    HW2 5256   0.701   3.840   6.263 -0.3774 -0.5443 -0.3283
 1371SOL    HW3 5257   0.800   3.728   6.243  0.9609  0.2110  1.7727
 1371SOL    MW4 5258   0.726   3.758   6.277 -0.2132 -0.4498 -0.0627
 1372SOL     OW 5259   2.865   4.086   4.232  0.3616  0.0756 -0.0914
 1372SOL    HW2 5260   2.807   4.140   4.179  1.9631  1.5284 -0.4326
 1372SOL    HW3 5261   2.858   4.121   4.320  2.3969  1.8186 -0.5472
 1372SOL    MW4 5262   2.856   4.098   4.237  0.8415  0.4973 -0.1966
 1373SOL     OW 5263   4.833   3.051   5.875  0.1566 -0.0040  0.2980
 1373SOL    HW2 5264   4.754   3.103   5.885 -0.4602 -0.8002 -0.3432
 1373SOL    HW3 5265   4.863   3.070   5.786  0.5577  0.1131  0.4562
 1373SOL    MW4 5266   4.827   3.061   5.864  0.1281 -0.0936  0.2343
 1374SOL     OW 5267   0.825   4.943   0.623 -0.2348 -0.1449 -0.3251
 1374SOL    HW2 5268   0.730   4.942   0.634 -0.1966 -3.4627  0.8982
 1374SOL    HW3 5269   0.859   4.967   0.709  0.1042  1.3719 -0.8456
 1374SOL    MW4 5270   0.817   4.946   0.636 -0.1850 -0.3825 -0.2324
 1375SOL     OW 5271   3.404   3.996   4.832 -0.2060  0.0856 -0.4391
 1375SOL    HW2 5272   3.345   4.066   4.859 -0.0106  0.5611 -1.2113
 1375SOL    HW3 5273   3.490   4.024   4.863 -0.3537 -0.5586  0.5978
 1375SOL    MW4 5274   3.407   4.009   4.840 -0.1997  0.0633 -0.4042
 1376SOL     OW 5275   1.641   1.044   2.049 -0.1489 -0.3355  0.4599
 1376SOL    HW2 5276   1.627   0.958   2.009  1.7514 -0.0567 -0.9539
 1376SOL    HW3 5277   1.559   1.091   2.035 -0.5658 -1.3017 -0.4345
 1376SOL    MW4 5278   1.629   1.039   2.041  0.0468 -0.4262  0.1554
 1377SOL     OW 5279   5.232   2.715   3.877 -0.9408  0.1861  0.2592
 1377SOL    HW2 5280   5.266   2.639   3.925 -2.0999 -1.6328 -1.6247
 1377SOL    HW3 5281   5.280   2.714   3.794 -0.4313  2.0184  0.4891
 1377SOL    MW4 5282   5.243   2.705   3.873 -1.0265  0.1879  0.0410
 1378SOL     OW 5283   2.395   3.681   4.024  0.1680  0.3841 -0.1320
 1378SOL    HW2 5284   2.425   3.631   4.100  0.2935  2.4141  1.2014
 1378SOL    HW3 5285   2.455   3.655   3.954 -0.0768 -1.6734  0.3414
 1378SOL    MW4 5286   2.407   3.671   4.025  0.1523  0.3805  0.1064
 1379SOL     OW 5287   1.568   0.394   0.721  0.6142  0.0147 -0.9166
 1379SOL    HW2 5288   1.525   0.476   0.697  0.6774 -0.0042 -1.0946
 1379SOL    HW3 5289   1.496   0.331   0.730  0.3316  0.5535  1.2599
 1379SOL    MW4 5290   1.553   0.396   0.719  0.5852  0.0833 -0.6530
 1380SOL     OW 5291   3.695   4.625   4.647 -0.6367  0.2999 -0.0762
 1380SOL    HW2 5292   3.664   4.657   4.732  0.8459 -0.4543  0.7807
 1380SOL    HW3 5293   3.628   4.563   4.619 -0.2403 -0.9063  1.4856
 1380SOL    MW4 5294   3.682   4.621   4.655 -0.3888  0.0413  0.2429
 1381SOL     OW 5295   6.343   1.230   2.145  0.5740 -0.0904  0.2552
 1381SOL    HW2 5296   6.353   1.135   2.145 -0.8114 -0.2522  0.2077
 1381SOL    HW3 5297   6.343   1.254   2.052 -2.8239 -0.5271  0.0274
 1381SOL    MW4 5298   6.345   1.220   2.133 -0.0571 -0.1693  0.2189
 1382SOL     OW 5299   4.655   5.371   1.616  0.6535  0.3215 -0.0106
 1382SOL    HW2 5300   4.664   5.334   1.704  1.2458 -0.6510 -0.4552
 1382SOL    HW3 5301   4.628   5.462   1.631 -1.2277 -0.3545  1.1199
 1382SOL    MW4 5302   4.653   5.378   1.630  0.4834  0.1040  0.0799
 1383SOL     OW 5303   2.075   5.550   4.499  0.3734  0.5483  0.1670
 1383SOL    HW2 5304   2.167   5.555   4.474  0.1674 -0.0022 -0.7444
 1383SOL    HW3 5305   2.073   5.580   4.589  1.8431 -1.9068  1.1291
 1383SOL    MW4 5306   2.087   5.554   4.507  0.5402  0.1517  0.1737
 1384SOL     OW 5307   6.110   3.565   1.186 -0.7196 -0.3168  0.4091
 1384SOL    HW2 5308   6.191   3.613   1.168  0.0842 -1.6724  0.2635
 1384SOL    HW3 5309   6.075   3.544   1.100 -0.5106 -0.8792  0.4567
 1384SOL    MW4 5310   6.116   3.569   1.172 -0.5860 -0.5699  0.3962
 1385SOL     OW 5311   4.243   4.614   2.080  0.6797 -0.0255  0.5342
 1385SOL    HW2 5312   4.204   4.623   1.993  1.4757 -1.4170 -0.0021
 1385SOL    HW3 5313   4.321   4.670   2.077  1.2998 -0.8841 -0.0546
 1385SOL    MW4 5314   4.248   4.622   2.068  0.8665 -0.3224  0.3857
 1386SOL     OW 5315   4.866   6.056   1.830 -0.0913  0.0914 -0.4624
 1386SOL    HW2 5316   4.828   6.092   1.750 -2.1265  2.0118  1.2125
 1386SOL    HW3 5317   4.831   6.112   1.900  2.2516 -0.9568  1.7123
 1386SOL    MW4 5318   4.856   6.068   1.829 -0.0507  0.2065  0.0455
 1387SOL     OW 5319   5.593   2.279   1.593 -0.3666 -0.1310 -0.9382
 1387SOL    HW2 5320   5.673   2.258   1.545  0.0431  1.2325 -0.9023
 1387SOL    HW3 5321   5.576   2.371   1.572 -0.5986  0.2880  0.9372
 1387SOL    MW4 5322   5.601   2.288   1.584 -0.3432  0.1042 -0.6860
 1388SOL     OW 5323   0.153   5.298   1.362 -0.4264 -0.7970 -0.7747
 1388SOL    HW2 5324   0.167   5.390   1.385  2.1396 -1.0046 -1.2813
 1388SOL    HW3 5325   0.067   5.298   1.319 -1.0233  1.1347  0.2579
 1388SOL    MW4 5326   0.143   5.310   1.359 -0.1666 -0.5695 -0.7053
 1389SOL     OW 5327   0.553   4.591   4.670  0.3518  0.2455  0.2292
 1389SOL    HW2 5328   0.525   4.499   4.673 -0.6115  0.4311 -1.6172
 1389SOL    HW3 5329   0.548   4.620   4.761 -0.4181 -1.2165  0.6931
 1389SOL    MW4 5330   0.548   4.583   4.682  0.1231  0.0771  0.0468
 1390SOL     OW 5331   4.526   1.729   4.426  0.2347  0.6543 -0.2590
 1390SOL    HW2 5332   4.548   1.806   4.375 -0.3064  2.0468  1.5051
 1390SOL    HW3 5333   4.599   1.719   4.487 -0.0121  0.1661 -0.0347
 1390SOL    MW4 5334   4.538   1.738   4.428  0.1307  0.7736  0.0034
 1391SOL     OW 5335   1.122   3.938   4.843 -0.2295  0.1696 -0.3653
 1391SOL    HW2 5336   1.188   3.992   4.800  0.5285  1.6445  2.4118
 1391SOL    HW3 5337   1.161   3.851   4.848  1.2047  0.8349  0.5193
 1391SOL    MW4 5338   1.136   3.934   4.838  0.0598  0.4519  0.1178
 1392SOL     OW 5339   2.901   0.148   0.145  0.1637  0.5368  0.1493
 1392SOL    HW2 5340   2.988   0.133   0.107 -0.9327 -1.9439 -1.5776
 1392SOL    HW3 5341   2.842   0.152   0.071 -1.4063  0.7382  1.3611
 1392SOL    MW4 5342   2.905   0.146   0.130 -0.1881  0.2361  0.0813
 1393SOL     OW 5343   0.319   1.302   2.671 -0.0944 -0.3743 -0.3484
 1393SOL    HW2 5344   0.312   1.250   2.591  2.2515  0.4536 -1.1758
 1393SOL    HW3 5345   0.389   1.364   2.654 -1.6066  1.9683  1.2338
 1393SOL    MW4 5346   0.327   1.303   2.658  0.0156  0.0440 -0.2488
 1394SOL     OW 5347   1.217   5.587   5.790 -0.3365 -0.2072 -0.0596
 1394SOL    HW2 5348   1.282   5.534   5.836 -1.0064 -0.7731  0.2547
 1394SOL    HW3 5349   1.217   5.553   5.701 -0.6926 -0.6626  0.1160
 1394SOL    MW4 5350   1.226   5.576   5.784 -0.4719 -0.3419  0.0050
 1395SOL     OW 5351   1.001   1.508   1.808  0.2040  0.1509  0.1837
 1395SOL    HW2 5352   1.008   1.521   1.714 -0.9051  2.1715  0.3327
 1395SOL    HW3 5353   0.924   1.559   1.834  0.3093 -0.5960  2.1453
 1395SOL    MW4 5354   0.992   1.516   1.799  0.0715  0.3190  0.4622
 1396SOL     OW 5355   5.453   2.714   0.993  0.3812 -0.0712  0.2608
 1396SOL    HW2 5356   5.485   2.653   0.926  1.2338 -0.6052  1.1360
 1396SOL    HW3 5357   5.509   2.791   0.984  2.3723 -1.1852  2.1052
 1396SOL    MW4 5358   5.464   2.716   0.983  0.7564 -0.2886  0.6196
 1397SOL     OW 5359   5.001   1.380   0.063 -0.0294 -0.2550  0.4980
 1397SOL    HW2 5360   4.942   1.306   0.083  0.6211 -0.7861  0.4913
 1397SOL    HW3 5361   5.071   1.341   0.011  0.7170  0.2182  1.1233
 1397SOL    MW4 5362   5.002   1.365   0.059  0.1549 -0.2626  0.5796
 1398SOL     OW 5363   0.763   2.882   4.119  0.3145 -0.4294  0.6842
 1398SOL    HW2 5364   0.853   2.911   4.113 -0.2159  1.1316 -0.1199
 1398SOL    HW3 5365   0.729   2.924   4.198 -0.0216 -0.0875  0.3630
 1398SOL    MW4 5366   0.770   2.891   4.129  0.2002 -0.1783  0.5357
 1399SOL     OW 5367   6.022   4.232   0.886  0.4510  0.3050  0.1853
 1399SOL    HW2 5368   6.113   4.260   0.883  0.5119  0.0820 -0.1116
 1399SOL    HW3 5369   5.999   4.213   0.795 -0.2421  1.4536  0.0947
 1399SOL    MW4 5370   6.031   4.233   0.873  0.3676  0.4271  0.1342
 1400SOL     OW 5371   4.159   5.174   5.684 -0.2315  0.3574 -0.0767
 1400SOL    HW2 5372   4.169   5.161   5.778 -1.4693  0.0418  0.0308
 1400SOL    HW3 5373   4.205   5.255   5.665 -0.5109  0.7559  0.9175
 1400SOL    MW4 5374   4.166   5.183   5.694 -0.4317  0.3684  0.0687
 1401SOL     OW 5375   0.939   0.129   3.472 -0.2379  0.8683 -0.6062
 1401SOL    HW2 5376   1.007   0.145   3.538 -1.1544  0.1701  0.5574
 1401SOL    HW3 5377   0.972   0.171   3.393  2.2329 -0.6799 -0.5067
 1401SOL    MW4 5378   0.953   0.137   3.471 -0.0328  0.5719 -0.4395
 1402SOL     OW 5379   0.066   3.344   6.035  0.6657  0.0621 -0.2666
 1402SOL    HW2 5380   0.135   3.280   6.055  0.9621  0.3830 -0.2521
 1402SOL    HW3 5381  -0.008   3.291   6.005  1.2795 -0.2341 -1.3194
 1402SOL    MW4 5382   0.066   3.328   6.034  0.7858  0.0653 -0.4036
 1403SOL     OW 5383   3.075   1.206   0.586  0.3971 -0.4156  0.3409
 1403SOL    HW2 5384   3.158   1.200   0.634  0.9949  0.1768 -0.5842
 1403SOL    HW3 5385   3.052   1.299   0.591  1.1307 -0.0947 -1.5609
 1403SOL    MW4 5386   3.083   1.218   0.593  0.5727 -0.2951 -0.0321
 1404SOL     OW 5387   4.992   3.646   6.086 -0.2554 -0.3721  0.2843
 1404SOL    HW2 5388   4.959   3.577   6.029 -0.4651  0.2353 -0.3391
 1404SOL    HW3 5389   4.954   3.727   6.051 -2.1814 -0.1760  2.5608
 1404SOL    MW4 5390   4.983   3.648   6.074 -0.5372 -0.2661  0.5024
 1405SOL     OW 5391   0.163   2.511   2.295 -0.3019 -0.3661  0.2510
 1405SOL    HW2 5392   0.232   2.569   2.263  0.3664 -0.5188  1.3665
 1405SOL    HW3 5393   0.209   2.431   2.321 -0.8422 -0.3133  1.4063
 1405SOL    MW4 5394   0.178   2.508   2.294 -0.2850 -0.3793  0.5506
 1406SOL     OW 5395   2.791   4.622   3.702  0.4295  0.7283 -0.1868
 1406SOL    HW2 5396   2.755   4.603   3.788  1.7149  0.5966  0.3468
 1406SOL    HW3 5397   2.785   4.539   3.654 -2.2254  1.2899 -1.0176
 1406SOL    MW4 5398   2.785   4.609   3.707  0.2488  0.7850 -0.2260
 1407SOL     OW 5399   2.288   2.323   2.433  0.1686 -0.3816  0.0847
 1407SOL    HW2 5400   2.217   2.374   2.392  0.9453  0.8727  0.2657
 1407SOL    HW3 5401   2.305   2.253   2.370 -0.4180  0.0056 -0.5284
 1407SOL    MW4 5402   2.281   2.321   2.419  0.1937 -0.1650  0.0277
 1408SOL     OW 5403   6.204   0.762   5.960  0.0056  0.0253 -0.1822
 1408SOL    HW2 5404   6.131   0.821   5.977 -1.5067 -1.8136  0.1565
 1408SOL    HW3 5405   6.242   0.793   5.878  0.7210  2.7442  1.0613
 1408SOL    MW4 5406   6.199   0.774   5.951 -0.0995  0.1414  0.0265
 1409SOL     OW 5407   4.837   4.221   3.401  0.0290  0.3018 -0.3944
 1409SOL    HW2 5408   4.795   4.302   3.372 -0.0468  0.3588 -0.1270
 1409SOL    HW3 5409   4.801   4.205   3.488 -1.0741 -0.8165 -1.0295
 1409SOL    MW4 5410   4.827   4.230   3.408 -0.1266  0.1617 -0.4429
 1410SOL     OW 5411   0.468   1.446   5.248  0.0505 -0.3671  0.1883
 1410SOL    HW2 5412   0.426   1.384   5.308 -0.0235 -1.0704 -0.5706
 1410SOL    HW3 5413   0.402   1.514   5.235 -1.6142 -2.2417 -2.2259
 1410SOL    MW4 5414   0.454   1.446   5.254 -0.1789 -0.7072 -0.2304
 1411SOL     OW 5415   1.065   5.614   3.118  0.1405  0.0090  0.0801
 1411SOL    HW2 5416   1.132   5.557   3.082  0.1744 -0.1456  0.3781
 1411SOL    HW3 5417   0.996   5.617   3.052 -0.3115 -1.1856  0.4694
 1411SOL    MW4 5418   1.065   5.607   3.105  0.0854 -0.1690  0.1708
 1412SOL     OW 5419   0.094   4.594   0.053 -0.1805 -0.0494 -0.7544
 1412SOL    HW2 5420   0.095   4.651  -0.024 -0.2525 -1.1625 -1.6017
 1412SOL    HW3 5421   0.048   4.515   0.024 -0.4770 -0.3683  0.5270
 1412SOL    MW4 5422   0.088   4.591   0.039 -0.2291 -0.2384 -0.6972
 1413SOL     OW 5423   4.402   0.103   3.416  0.0713  0.1475 -0.3979
 1413SOL    HW2 5424   4.402   0.010   3.397  0.6767  0.5128 -2.4128
 1413SOL    HW3 5425   4.312   0.122   3.445  0.2683 -1.2324  1.3188
 1413SOL    MW4 5426   4.390   0.093   3.418  0.1771  0.0137 -0.4373
 1414SOL     OW 5427   5.869   2.964   1.766 -0.2407 -0.4640 -0.1947
 1414SOL    HW2 5428   5.779   2.975   1.735  0.0313 -2.1141 -1.7320
 1414SOL    HW3 5429   5.923   2.979   1.689  0.6896 -1.1084  0.3118
 1414SOL    MW4 5430   5.864   2.967   1.752 -0.0821 -0.7667 -0.3307
 1415SOL     OW 5431   1.420   4.132   1.084 -0.9088 -0.1794 -0.1793
 1415SOL    HW2 5432   1.449   4.175   1.004  0.5919 -0.2813  0.2831
 1415SOL    HW3 5433   1.457   4.044   1.079  1.2799  0.5415  1.6763
 1415SOL    MW4 5434   1.429   4.126   1.073 -0.4221 -0.0977  0.1266
 1416SOL     OW 5435   1.116   4.071   1.670 -0.2737  0.3902 -0.2728
 1416SOL    HW2 5436   1.194   4.048   1.619  0.1806 -0.8958  0.9210
 1416SOL    HW3 5437   1.043   4.037   1.619 -0.0878  1.6548 -1.4314
 1416SOL    MW4 5438   1.117   4.064   1.657 -0.1892  0.3874 -0.2681
 1417SOL     OW 5439   0.244   5.896   3.549  0.1468  0.4993 -0.2278
 1417SOL    HW2 5440   0.194   5.836   3.494  1.0100  0.5289 -1.0734
 1417SOL    HW3 5441   0.204   5.889   3.636 -0.6553 -0.2357 -0.6488
 1417SOL    MW4 5442   0.232   5.888   3.553  0.1549  0.4063 -0.3949
 1418SOL     OW 5443   0.434   3.286   3.087 -0.0792  0.2385 -0.0521
 1418SOL    HW2 5444   0.341   3.262   3.089 -0.1711  0.6092  0.3397
 1418SOL    HW3 5445   0.464   3.269   3.177  0.1172  0.5610 -0.0569
 1418SOL    MW4 5446   0.425   3.281   3.099 -0.0654  0.3300 -0.0011
 1419SOL     OW 5447   5.762   2.228   5.180  0.3410  0.3316  0.1342
 1419SOL    HW2 5448   5.840   2.261   5.135  0.7498  2.0115  1.9289
 1419SOL    HW3 5449   5.689   2.255   5.125  0.9557 -0.5556 -1.1568
 1419SOL    MW4 5450   5.763   2.236   5.167  0.4760  0.4362  0.2007
 1420SOL     OW 5451   5.663   3.818   2.867 -0.3187  0.2034 -0.1798
 1420SOL    HW2 5452   5.634   3.845   2.779  0.1623  1.1371 -0.0672
 1420SOL    HW3 5453   5.703   3.897   2.903  2.2900 -0.9869 -0.2995
 1420SOL    MW4 5454   5.664   3.832   2.860  0.0889  0.1696 -0.1808
 1421SOL     OW 5455   0.862   0.337   4.176 -0.1690 -0.6203  0.7687
 1421SOL    HW2 5456   0.837   0.425   4.150  0.9076  0.0184  1.7729
 1421SOL    HW3 5457   0.806   0.279   4.125 -2.0109  0.6659  1.2567
 1421SOL    MW4 5458   0.851   0.341   4.166 -0.2700 -0.3663  0.9656
 1422SOL     OW 5459   3.262   2.867   1.128 -0.5512 -0.2895  0.0684
 1422SOL    HW2 5460   3.317   2.790   1.116 -0.7901 -0.3400 -0.7574
 1422SOL    HW3 5461   3.312   2.939   1.089 -0.3450 -0.0238  0.8014
 1422SOL    MW4 5462   3.276   2.867   1.122 -0.5555 -0.2611  0.0561
 1423SOL     OW 5463   3.507   1.189   2.916  0.6882 -0.4458  0.5052
 1423SOL    HW2 5464   3.569   1.126   2.880 -0.6920 -0.9794 -1.0407
 1423SOL    HW3 5465   3.508   1.173   3.010  2.3713 -0.9007  0.4333
 1423SOL    MW4 5466   3.515   1.179   2.924  0.7281 -0.5762  0.2917
 1424SOL     OW 5467   1.406   6.335   0.775  0.5464  0.1472 -0.2097
 1424SOL    HW2 5468   1.472   6.369   0.836  1.2129  0.1359 -0.9141
 1424SOL    HW3 5469   1.349   6.281   0.830 -0.4554  2.2377  0.9085
 1424SOL    MW4 5470   1.407   6.332   0.790  0.5021  0.4215 -0.1551
 1425SOL     OW 5471   2.684   3.571   1.380  0.2032  0.4370  0.2969
 1425SOL    HW2 5472   2.678   3.617   1.296 -1.1989 -0.8058 -0.3362
 1425SOL    HW3 5473   2.763   3.517   1.372 -0.9416 -1.1755 -1.0903
 1425SOL    MW4 5474   2.694   3.570   1.368 -0.1328  0.0603  0.0303
 1426SOL     OW 5475   2.735   6.379   2.383  0.2792 -0.3997 -0.1199
 1426SOL    HW2 5476   2.744   6.467   2.346  2.4439 -0.7269 -0.4925
 1426SOL    HW3 5477   2.745   6.392   2.477  2.7556 -0.4167 -0.3162
 1426SOL    MW4 5478   2.738   6.392   2.390  0.8915 -0.4451 -0.1950
 1427SOL     OW 5479   1.417   0.647   3.053  0.0586 -0.1639  0.3847
 1427SOL    HW2 5480   1.438   0.553   3.056 -0.0400 -0.1908  0.2208
 1427SOL    HW3 5481   1.502   0.690   3.051  0.1245 -0.3005 -1.3485
 1427SOL    MW4 5482   1.431   0.640   3.053  0.0543 -0.1854  0.1344
 1428SOL     OW 5483   0.091   1.085   5.990 -0.2843 -0.3494 -0.4712
 1428SOL    HW2 5484   0.048   0.999   5.994 -1.4851  0.2296 -0.3849
 1428SOL    HW3 5485   0.175   1.072   6.032 -0.3841 -1.5259 -0.5978
 1428SOL    MW4 5486   0.096   1.072   5.996 -0.4559 -0.4283 -0.4765
 1429SOL     OW 5487   2.658   5.052   4.652  0.4019 -0.2443 -0.0930
 1429SOL    HW2 5488   2.572   5.076   4.619  0.3595 -0.9421 -0.5337
 1429SOL    HW3 5489   2.641   5.013   4.738  0.7407  3.8408  2.0310
 1429SOL    MW4 5490   2.644   5.050   4.659  0.4410  0.2026  0.1291
 1430SOL     OW 5491   3.450   0.803   3.953  0.1213 -0.2034 -0.6641
 1430SOL    HW2 5492   3.530   0.857   3.955  0.0221 -0.0597  0.9277
 1430SOL    HW3 5493   3.479   0.717   3.981 -0.1971 -0.2785 -0.5692
 1430SOL    MW4 5494   3.465   0.799   3.957  0.0662 -0.1944 -0.4416
 1431SOL     OW 5495   4.853   4.656   3.861 -0.2091 -0.2471 -0.2752
 1431SOL    HW2 5496   4.865   4.619   3.948 -0.4184  1.0401  0.3101
 1431SOL    HW3 5497   4.915   4.728   3.856 -2.0064  1.3709 -0.1950
 1431SOL    MW4 5498   4.863   4.660   3.872 -0.4738  0.1362 -0.1874
 1432SOL     OW 5499   1.632   3.418  -0.006  0.4151 -0.1013 -0.8917
 1432SOL    HW2 5500   1.716   3.450  -0.038 -0.0237  2.2120  0.1219
 1432SOL    HW3 5501   1.567   3.460  -0.062 -0.1714  0.7393  0.3717
 1432SOL    MW4 5502   1.635   3.428  -0.018  0.2798  0.3148 -0.5913
 1433SOL     OW 5503   2.872   2.015   3.969 -0.1776  0.2782  0.6053
 1433SOL    HW2 5504   2.857   1.922   3.987  1.6973  0.0114  0.9635
 1433SOL    HW3 5505   2.883   2.054   4.055  1.8616  0.2658  0.4140
 1433SOL    MW4 5506   2.872   2.008   3.983  0.3388  0.2414  0.6273
 1434SOL     OW 5507   4.220   3.933   5.476 -0.8528  0.1169 -0.6169
 1434SOL    HW2 5508   4.290   3.892   5.527 -1.2964 -1.3052 -1.1194
 1434SOL    HW3 5509   4.264   3.967   5.397 -0.6676 -0.4338 -0.7501
 1434SOL    MW4 5510   4.235   3.932   5.472 -0.8869 -0.1434 -0.7008
 1435SOL     OW 5511   0.384   5.019   6.381  0.1854 -0.1273 -0.0443
 1435SOL    HW2 5512   0.479   5.015   6.365  0.1059  0.0371 -0.5727
 1435SOL    HW3 5513   0.374   4.989   6.472  0.7446 -0.1311  0.0218
 1435SOL    MW4 5514   0.395   5.014   6.391  0.2487 -0.1061 -0.1053
 1436SOL     OW 5515   4.287   3.079   5.198 -0.1907 -0.3664  0.0652
 1436SOL    HW2 5516   4.282   2.985   5.180 -0.1473 -0.6438  1.3953
 1436SOL    HW3 5517   4.218   3.094   5.263 -0.4592  0.6029 -0.4307
 1436SOL    MW4 5518   4.277   3.068   5.204 -0.2204 -0.2751  0.1753
 1437SOL     OW 5519   2.531   4.831   3.651  0.5975 -0.1523  0.9054
 1437SOL    HW2 5520   2.506   4.923   3.645 -0.5878 -0.3975  1.6487
 1437SOL    HW3 5521   2.512   4.807   3.742  2.2021 -0.7830  1.1034
 1437SOL    MW4 5522   2.525   4.840   3.662  0.6528 -0.2678  1.0296
 1438SOL     OW 5523   1.432   3.130   1.191 -0.0556  0.2077  0.4062
 1438SOL    HW2 5524   1.360   3.190   1.209 -2.3281 -1.5887 -1.9316
 1438SOL    HW3 5525   1.469   3.161   1.108 -1.1165 -1.3203 -0.7120
 1438SOL    MW4 5526   1.427   3.142   1.182 -0.4954 -0.2309 -0.0498
 1439SOL     OW 5527   4.112   5.675   5.795  0.4543  0.3333  0.3053
 1439SOL    HW2 5528   4.025   5.704   5.821 -0.0865  2.0102 -2.8802
 1439SOL    HW3 5529   4.098   5.589   5.756 -0.0083  0.9515 -0.9708
 1439SOL    MW4 5530   4.099   5.668   5.793  0.3219  0.6361 -0.2833
 1440SOL     OW 5531   2.774   1.477   4.902 -0.1530  0.0807 -0.4500
 1440SOL    HW2 5532   2.852   1.455   4.953 -0.2149 -2.7009 -1.3655
 1440SOL    HW3 5533   2.801   1.467   4.811 -1.1835  0.5750 -0.8300
 1440SOL    MW4 5534   2.788   1.473   4.897 -0.2972 -0.2211 -0.6209
 1441SOL     OW 5535   6.143   5.739   0.561 -0.3472 -0.6166  0.0090
 1441SOL    HW2 5536   6.176   5.650   0.550  0.1432 -0.3389 -0.8474
 1441SOL    HW3 5537   6.112   5.763   0.474  1.5783  0.8656 -0.3197
 1441SOL    MW4 5538   6.143   5.730   0.548 -0.0285 -0.3844 -0.1473
 1442SOL     OW 5539   3.173   6.043   1.224  0.1148  0.4474  0.5284
 1442SOL    HW2 5540   3.210   5.957   1.206  0.2500  0.5096  0.5099
 1442SOL    HW3 5541   3.104   6.053   1.158 -0.3476  0.0769  0.9535
 1442SOL    MW4 5542   3.169   6.033   1.213  0.0716  0.4067  0.5821
 1443SOL     OW 5543   6.246   3.332   1.255  0.0667  0.2203  0.2858
 1443SOL    HW2 5544   6.181   3.266   1.282  1.2109 -1.0130  0.1388
 1443SOL    HW3 5545   6.193   3.407   1.227 -1.3693 -1.1411 -0.9169
 1443SOL    MW4 5546   6.230   3.333   1.255  0.0282 -0.1221  0.1077
 1444SOL     OW 5547   4.864   0.372   4.747  0.0350  0.0419  0.4280
 1444SOL    HW2 5548   4.844   0.444   4.688 -1.9301 -0.8201 -0.0157
 1444SOL    HW3 5549   4.908   0.307   4.693 -0.3277 -0.0748  0.2707
 1444SOL    MW4 5550   4.867   0.373   4.732 -0.2721 -0.0872  0.3487
 1445SOL     OW 5551   1.714   0.844   1.471 -0.1424 -0.1232  0.7293
 1445SOL    HW2 5552   1.636   0.843   1.416  1.1920  0.2618 -1.2590
 1445SOL    HW3 5553   1.695   0.910   1.538 -2.5642 -1.9603  1.9990
 1445SOL    MW4 5554   1.701   0.853   1.473 -0.2859 -0.3148  0.6345
 1446SOL     OW 5555   1.333   5.526   5.286 -0.1208 -0.1732 -0.6515
 1446SOL    HW2 5556   1.284   5.524   5.368  3.3932 -0.0180  1.6332
 1446SOL    HW3 5557   1.320   5.439   5.248 -0.6318 -0.7429  0.7851
 1446SOL    MW4 5558   1.325   5.515   5.292  0.2754 -0.2279 -0.1605
 1447SOL     OW 5559   6.349   4.389   6.359 -0.0737 -0.5177  0.0503
 1447SOL    HW2 5560   6.307   4.306   6.382 -1.4319 -0.0099 -0.5305
 1447SOL    HW3 5561   6.299   4.421   6.284  1.6405 -0.1056 -0.9670
 1447SOL    MW4 5562   6.337   4.382   6.352 -0.0267 -0.3963 -0.1606
 1448SOL     OW 5563   2.729   4.756   2.007 -0.4660  0.0659 -0.2063
 1448SOL    HW2 5564   2.741   4.821   2.076 -1.1116 -0.0009 -0.0232
 1448SOL    HW3 5565   2.639   4.769   1.976 -0.0209  0.4083 -1.3749
 1448SOL    MW4 5566   2.719   4.766   2.012 -0.4925  0.1023 -0.3363
 1449SOL     OW 5567   2.229   0.509   1.613  0.5559 -0.3850  0.6505
 1449SOL    HW2 5568   2.204   0.491   1.523 -0.2541  1.6628  0.4183
 1449SOL    HW3 5569   2.323   0.491   1.616  0.6397 -0.2529 -0.6644
 1449SOL    MW4 5570   2.238   0.504   1.602  0.4601 -0.0974  0.4464
 1450SOL     OW 5571   0.288   3.213   6.172  0.0436  0.1138 -0.2891
 1450SOL    HW2 5572   0.275   3.119   6.157  1.1960 -0.4122  1.6923
 1450SOL    HW3 5573   0.357   3.237   6.111 -0.1919 -0.3391 -0.7472
 1450SOL    MW4 5574   0.296   3.203   6.162  0.1646 -0.0154 -0.0881
 1451SOL     OW 5575   1.182   4.996   2.624 -0.2320  0.0261  0.1285
 1451SOL    HW2 5576   1.172   4.924   2.562  0.0569  0.3771 -0.3331
 1451SOL    HW3 5577   1.096   5.038   2.627 -0.2068  0.1027 -0.1602
 1451SOL    MW4 5578   1.169   4.992   2.616 -0.1906  0.0825  0.0295
 1452SOL     OW 5579   0.494   2.710   4.462  0.1079  1.1832  0.8918
 1452SOL    HW2 5580   0.412   2.663   4.473  0.4689  0.5275  0.8525
 1452SOL    HW3 5581   0.521   2.691   4.372  1.5555 -0.6931  1.6668
 1452SOL    MW4 5582   0.487   2.702   4.451  0.3465  0.8491  0.9888
 1453SOL     OW 5583   1.777   0.219   5.859 -0.0082  0.1579  0.8143
 1453SOL    HW2 5584   1.708   0.169   5.816 -1.1999  1.4115  1.2107
 1453SOL    HW3 5585   1.747   0.229   5.950  0.3546  1.2816  0.8308
 1453SOL    MW4 5586   1.764   0.214   5.866 -0.1176  0.4715  0.8688
 1454SOL     OW 5587   0.113   3.126   0.954 -0.3030  0.0831  0.3784
 1454SOL    HW2 5588   0.174   3.153   0.886 -1.2825  0.4215 -0.3828
 1454SOL    HW3 5589   0.039   3.185   0.945  0.5852  1.9237  3.4262
 1454SOL    MW4 5590   0.112   3.137   0.944 -0.3151  0.3706  0.6801
 1455SOL     OW 5591   4.834   1.524   3.234  0.3765  0.2797 -0.5653
 1455SOL    HW2 5592   4.829   1.478   3.149 -0.0959  0.6241 -0.7233
 1455SOL    HW3 5593   4.752   1.503   3.277  0.1615  0.9782 -0.6341
 1455SOL    MW4 5594   4.823   1.515   3.228  0.2858  0.4173 -0.5952
 1456SOL     OW 5595   1.386   3.151   2.920  0.0926  0.6654  0.1219
 1456SOL    HW2 5596   1.400   3.107   2.836  1.1710 -1.1723  1.1984
 1456SOL    HW3 5597   1.430   3.235   2.911 -1.5994  1.4276 -1.8405
 1456SOL    MW4 5598   1.393   3.156   2.908  0.0117  0.5235  0.0050
 1457SOL     OW 5599   6.374   0.969   1.392  0.2068  0.4413 -0.1059
 1457SOL    HW2 5600   6.329   1.035   1.445  1.2779  0.4531  0.8061
 1457SOL    HW3 5601   6.376   1.007   1.304  0.0538  1.2354  0.2283
 1457SOL    MW4 5602   6.368   0.983   1.387  0.3280  0.5476  0.0585
 1458SOL     OW 5603   3.795   0.750   3.931  0.6028 -0.1603  0.3821
 1458SOL    HW2 5604   3.861   0.774   3.997  1.8671  0.3742 -1.0192
 1458SOL    HW3 5605   3.840   0.687   3.875 -0.1493  0.0772 -0.5043
 1458SOL    MW4 5606   3.810   0.745   3.932  0.6704 -0.0584  0.0803
 1459SOL     OW 5607   3.309   2.217   4.705 -0.5803 -0.1229 -0.1107
 1459SOL    HW2 5608   3.293   2.310   4.719  1.5003  0.8486 -3.2963
 1459SOL    HW3 5609   3.247   2.192   4.637  0.2446 -0.5325 -0.7226
 1459SOL    MW4 5610   3.298   2.226   4.698 -0.1970 -0.0488 -0.6118
 1460SOL     OW 5611   0.729   2.009   6.145 -0.3967  0.0901 -0.0712
 1460SOL    HW2 5612   0.772   2.088   6.178 -0.8751 -0.0182  0.8483
 1460SOL    HW3 5613   0.789   1.975   6.078  0.6979  0.2299  0.8123
 1460SOL    MW4 5614   0.743   2.015   6.140 -0.3154  0.0942  0.1667
 1461SOL     OW 5615   5.973   4.900   2.828  0.3777 -1.0422  0.4639
 1461SOL    HW2 5616   6.043   4.852   2.784  0.3914  0.9956 -1.9663
 1461SOL    HW3 5617   5.899   4.839   2.828  0.6735 -1.4924 -1.6381
 1461SOL    MW4 5618   5.972   4.886   2.822  0.4186 -0.8327 -0.1341
 1462SOL     OW 5619   4.838   5.192   5.300  0.1061 -0.2079 -0.0334
 1462SOL    HW2 5620   4.758   5.245   5.306 -0.6791 -1.2186 -1.1443
 1462SOL    HW3 5621   4.819   5.128   5.232  1.3305 -1.4365  0.7405
 1462SOL    MW4 5622   4.824   5.191   5.292  0.1640 -0.5034 -0.0779
 1463SOL     OW 5623   5.942   1.943   1.860  0.5671  0.0625 -0.4117
 1463SOL    HW2 5624   5.998   1.878   1.902  0.3236  0.2111  0.1536
 1463SOL    HW3 5625   5.979   2.027   1.886  0.4781  0.1560 -0.5842
 1463SOL    MW4 5626   5.954   1.945   1.869  0.5232  0.0944 -0.3599
 1464SOL     OW 5627   1.439   2.643   0.574 -0.2040 -0.7058  0.0363
 1464SOL    HW2 5628   1.472   2.647   0.484  0.6501 -2.5687  0.2182
 1464SOL    HW3 5629   1.519   2.644   0.628 -0.7232  0.9964  0.8343
 1464SOL    MW4 5630   1.454   2.644   0.569 -0.1599 -0.7270  0.1656
 1465SOL     OW 5631   3.649   4.349   5.311 -0.1847  0.7366  0.4617
 1465SOL    HW2 5632   3.642   4.444   5.326 -0.0285  0.8911 -0.3855
 1465SOL    HW3 5633   3.719   4.341   5.247  1.2825 -0.1135  2.0852
 1465SOL    MW4 5634   3.657   4.361   5.305  0.0295  0.6448  0.5641
 1466SOL     OW 5635   6.132   0.527   0.411  0.3331  0.0603 -0.6440
 1466SOL    HW2 5636   6.189   0.497   0.339  1.8802 -0.1337  0.5993
 1466SOL    HW3 5637   6.093   0.447   0.446 -1.0654  0.2248 -1.7283
 1466SOL    MW4 5638   6.135   0.513   0.406  0.3528  0.0564 -0.6230
 1467SOL     OW 5639   6.005   5.766   3.896  0.3239  0.0434 -0.0163
 1467SOL    HW2 5640   6.025   5.711   3.972  0.1731  0.9489  0.6925
 1467SOL    HW3 5641   6.007   5.855   3.929 -0.5649  0.4127 -0.8956
 1467SOL    MW4 5642   6.008   5.770   3.910  0.1867  0.2116 -0.0388
 1468SOL     OW 5643   2.538   1.481   0.170  0.1333  0.3278  0.2381
 1468SOL    HW2 5644   2.458   1.430   0.157  1.2920 -1.2795 -1.1619
 1468SOL    HW3 5645   2.510   1.572   0.163 -1.3935 -0.1998 -1.6540
 1468SOL    MW4 5646   2.524   1.486   0.167  0.0848  0.0461 -0.1963
 1469SOL     OW 5647   1.397   1.522   1.467 -0.0660 -0.0507  0.2174
 1469SOL    HW2 5648   1.418   1.537   1.559  1.4635  2.0904 -0.3984
 1469SOL    HW3 5649   1.480   1.537   1.421 -1.1270  0.3881 -1.6348
 1469SOL    MW4 5650   1.411   1.526   1.473 -0.0042  0.2897 -0.1083
 1470SOL     OW 5651   4.862   4.717   6.158 -0.6839 -0.5882  0.2207
 1470SOL    HW2 5652   4.937   4.668   6.125 -0.5953 -0.2132 -0.1546
 1470SOL    HW3 5653   4.800   4.717   6.085 -2.2345 -3.1972  1.3718
 1470SOL    MW4 5654   4.864   4.711   6.144 -0.8768 -0.8829  0.3230
 1471SOL     OW 5655   0.328   2.031   5.099  0.1304 -0.3157 -0.0320
 1471SOL    HW2 5656   0.345   1.963   5.033  0.7719  0.7208 -0.9668
 1471SOL    HW3 5657   0.238   2.059   5.081 -0.8278 -2.1440  1.5402
 1471SOL    MW4 5658   0.318   2.026   5.088  0.0886 -0.4202  0.0521
 1472SOL     OW 5659   3.954   6.076   3.267  0.0956 -0.4076 -0.5390
 1472SOL    HW2 5660   4.028   6.015   3.268 -0.4050 -0.9996  0.4977
 1472SOL    HW3 5661   3.989   6.156   3.306  0.3698 -0.4623 -0.6673
 1472SOL    MW4 5662   3.969   6.079   3.272  0.0657 -0.4929 -0.4191
 1473SOL     OW 5663   3.330   0.250   4.931  0.3033 -0.0491  0.2108
 1473SOL    HW2 5664   3.270   0.191   4.976  0.6126 -0.7920 -0.3279
 1473SOL    HW3 5665   3.281   0.281   4.856  0.6009 -0.7224 -0.2767
 1473SOL    MW4 5666   3.316   0.246   4.927  0.3834 -0.2359  0.0754
 1474SOL     OW 5667   2.041   3.196   5.935 -0.1082 -0.1398 -0.3613
 1474SOL    HW2 5668   2.127   3.158   5.951 -0.2835  0.2114  1.5647
 1474SOL    HW3 5669   2.059   3.288   5.916 -0.0225 -0.2112 -0.6376
 1474SOL    MW4 5670   2.055   3.203   5.934 -0.1200 -0.1029 -0.1436
 1475SOL     OW 5671   0.502   2.396   5.500 -0.5093  0.0324  0.2668
 1475SOL    HW2 5672   0.436   2.420   5.436 -0.3836 -0.0194  0.1167
 1475SOL    HW3 5673   0.485   2.303   5.519  0.2208 -0.2928 -0.6179
 1475SOL    MW4 5674   0.491   2.387   5.494 -0.3964 -0.0173  0.1302
 1476SOL     OW 5675   1.369   1.448   2.189  0.2993  0.2138  0.2278
 1476SOL    HW2 5676   1.327   1.365   2.168 -0.4594  0.1632  1.7427
 1476SOL    HW3 5677   1.298   1.512   2.190  0.9570  1.0168 -1.4578
 1476SOL    MW4 5678   1.355   1.445   2.187  0.2860  0.3131  0.2053
 1477SOL     OW 5679   0.853   5.804   6.068 -0.0414  0.1216 -0.0797
 1477SOL    HW2 5680   0.910   5.731   6.040  0.9040  0.2219  1.4948
 1477SOL    HW3 5681   0.886   5.879   6.020  0.7509  0.0447  0.3337
 1477SOL    MW4 5682   0.865   5.804   6.058  0.1878  0.1247  0.1826
 1478SOL     OW 5683   4.552   5.213   2.697 -0.1101  0.0995 -0.5237
 1478SOL    HW2 5684   4.563   5.235   2.789  0.2751  0.5267 -0.6702
 1478SOL    HW3 5685   4.634   5.240   2.655  0.1525 -1.0918 -0.8118
 1478SOL    MW4 5686   4.564   5.220   2.703 -0.0247 -0.0013 -0.5811
 1479SOL     OW 5687   1.007   4.528   6.383  0.2565  0.4920  0.0933
 1479SOL    HW2 5688   0.928   4.474   6.383 -0.0581  0.8744 -2.0835
 1479SOL    HW3 5689   1.050   4.508   6.467 -2.3091  0.5663  1.5181
 1479SOL    MW4 5690   1.002   4.519   6.394 -0.1235  0.5522 -0.0059
 1480SOL     OW 5691   3.587   3.984   3.941 -0.4472 -0.2517  0.4729
 1480SOL    HW2 5692   3.547   4.064   3.906  0.7096 -0.4182 -1.3473
 1480SOL    HW3 5693   3.558   3.915   3.881  1.4250 -0.5883 -0.1107
 1480SOL    MW4 5694   3.578   3.985   3.928 -0.0475 -0.3181  0.1558
 1481SOL     OW 5695   3.554   3.668   4.325 -0.1713  0.1518  0.1982
 1481SOL    HW2 5696   3.593   3.587   4.358 -2.9092 -0.9012  1.1243
 1481SOL    HW3 5697   3.568   3.731   4.395 -1.9866 -0.8384  1.5342
 1481SOL    MW4 5698   3.561   3.666   4.339 -0.7721 -0.1178  0.4967
 1482SOL     OW 5699   3.570   2.232   3.897  0.1334 -0.3751  0.1754
 1482SOL    HW2 5700   3.605   2.292   3.831  1.1626  0.5123  1.4500
 1482SOL    HW3 5701   3.642   2.222   3.960 -0.9371 -0.8709  1.3641
 1482SOL    MW4 5702   3.584   2.239   3.897  0.1280 -0.3234  0.5004
 1483SOL     OW 5703   2.250   5.972   3.972 -0.1499  0.3477 -0.1100
 1483SOL    HW2 5704   2.205   5.949   3.890  1.3400 -1.8872 -0.3593
 1483SOL    HW3 5705   2.200   5.928   4.040 -0.4862  0.9376  0.0310
 1483SOL    MW4 5706   2.237   5.964   3.970  0.0023  0.1307 -0.1243
 1484SOL     OW 5707   2.964   2.295   6.012 -0.3475  0.2954  0.1295
 1484SOL    HW2 5708   2.939   2.345   6.090  1.4225  0.8693  0.3633
 1484SOL    HW3 5709   3.012   2.358   5.958  0.7694 -0.7898 -0.1888
 1484SOL    MW4 5710   2.967   2.310   6.015  0.0334  0.2279  0.1184
 1485SOL     OW 5711   1.699   4.642   5.536 -0.3956  0.0694 -0.5499
 1485SOL    HW2 5712   1.645   4.578   5.490 -0.6530  0.0761 -0.2537
 1485SOL    HW3 5713   1.743   4.592   5.605  0.5128 -0.0823 -1.2051
 1485SOL    MW4 5714   1.698   4.627   5.539 -0.3097  0.0503 -0.5972
 1486SOL     OW 5715   3.824   1.322   0.760 -0.2193  0.1083 -0.4716
 1486SOL    HW2 5716   3.897   1.351   0.814  0.2300  1.2827 -1.6533
 1486SOL    HW3 5717   3.799   1.399   0.709 -2.0166 -0.3917 -0.4024
 1486SOL    MW4 5718   3.830   1.336   0.760 -0.3971  0.1973 -0.6184
 1487SOL     OW 5719   2.213   3.516   2.049  0.2547 -0.3420  0.4598
 1487SOL    HW2 5720   2.200   3.428   2.083  1.3872 -1.6203 -2.1294
 1487SOL    HW3 5721   2.128   3.542   2.015  0.2395 -1.0804 -0.0885
 1487SOL    MW4 5722   2.200   3.508   2.049  0.4021 -0.6081  0.0458
 1488SOL     OW 5723   5.220   1.107   1.527 -0.0575  0.3046 -0.0870
 1488SOL    HW2 5724   5.148   1.074   1.473 -1.2045  0.0566  1.4869
 1488SOL    HW3 5725   5.199   1.199   1.542  0.0664  0.2896  0.1909
 1488SOL    MW4 5726   5.208   1.115   1.522 -0.1925  0.2699  0.1573
 1489SOL     OW 5727   4.100   1.119   4.712 -0.6668  0.0437  0.4358
 1489SOL    HW2 5728   4.025   1.173   4.687 -1.1039 -0.2784  1.0209
 1489SOL    HW3 5729   4.093   1.110   4.807 -0.3913 -0.7211  0.3969
 1489SOL    MW4 5730   4.089   1.125   4.721 -0.6881 -0.0997  0.5079
 1490SOL     OW 5731   1.153   6.282   3.831  0.1490  0.8604  0.3977
 1490SOL    HW2 5732   1.131   6.364   3.786  0.4259  1.3489  1.1319
 1490SOL    HW3 5733   1.182   6.223   3.761 -3.4693  0.1236 -0.6916
 1490SOL    MW4 5734   1.154   6.285   3.816 -0.2919  0.8276  0.3509
 1491SOL     OW 5735   0.002   6.358   1.706 -0.3240 -0.2742 -0.2038
 1491SOL    HW2 5736   0.037   6.269   1.712 -0.4566 -0.3321 -0.2853
 1491SOL    HW3 5737   0.044   6.396   1.629 -1.0762 -0.6308 -0.8070
 1491SOL    MW4 5738   0.012   6.351   1.697 -0.4407 -0.3288 -0.2941
 1492SOL     OW 5739   2.762   0.747   4.317 -0.3392  0.3221  0.0109
 1492SOL    HW2 5740   2.700   0.715   4.252  0.6671 -0.4324 -0.5925
 1492SOL    HW3 5741   2.828   0.678   4.325  1.4967  1.8822 -0.8097
 1492SOL    MW4 5742   2.763   0.734   4.310  0.0358  0.4284 -0.1770
 1493SOL     OW 5743   3.224   3.413   2.198 -0.5811  0.4721  0.1012
 1493SOL    HW2 5744   3.221   3.503   2.233  0.0577  1.2888 -1.8025
 1493SOL    HW3 5745   3.314   3.385   2.212  0.1439  1.4245 -2.1904
 1493SOL    MW4 5746   3.235   3.421   2.204 -0.4012  0.7055 -0.4523
 1494SOL     OW 5747   4.179   4.664   5.972  1.0438  0.2335  0.3712
 1494SOL    HW2 5748   4.266   4.690   6.003  1.3445  0.6618 -0.7825
 1494SOL    HW3 5749   4.123   4.740   5.990  0.8692 -0.0714  1.1871
 1494SOL    MW4 5750   4.183   4.677   5.979  1.0604  0.2498  0.3266
 1495SOL     OW 5751   4.782   0.004   0.543 -0.0846 -0.2934 -0.9345
 1495SOL    HW2 5752   4.745  -0.010   0.456  0.2453 -2.1989 -0.8064
 1495SOL    HW3 5753   4.726  -0.047   0.602  0.3589  0.0710 -0.1740
 1495SOL    MW4 5754   4.769  -0.005   0.539  0.0174 -0.4968 -0.8173
 1496SOL     OW 5755   5.958   0.440   3.227 -0.0580  0.5739 -0.4415
 1496SOL    HW2 5756   6.033   0.389   3.260  0.1438  2.7679  3.0008
 1496SOL    HW3 5757   5.890   0.374   3.212  0.7397 -0.9875  2.0673
 1496SOL    MW4 5758   5.959   0.424   3.229  0.0739  0.6574  0.3437
 1497SOL     OW 5759   5.373   5.396   1.232  0.1052 -0.0528 -0.0490
 1497SOL    HW2 5760   5.402   5.322   1.178  0.3614  0.0799 -0.0965
 1497SOL    HW3 5761   5.419   5.471   1.195  3.9889 -0.5197  3.0847
 1497SOL    MW4 5762   5.383   5.396   1.220  0.6514 -0.0969  0.3582
 1498SOL     OW 5763   0.572   5.443   1.334  1.0551  0.6723  0.4416
 1498SOL    HW2 5764   0.534   5.414   1.250 -1.0510  1.0932  1.1689
 1498SOL    HW3 5765   0.645   5.384   1.349 -0.1388 -1.1409 -0.4436
 1498SOL    MW4 5766   0.576   5.431   1.325  0.6197  0.4886  0.4207
 1499SOL     OW 5767   3.759   5.031   1.834  0.3934  0.4735 -0.6417
 1499SOL    HW2 5768   3.815   4.990   1.901 -0.2428 -0.6678 -0.7885
 1499SOL    HW3 5769   3.814   5.101   1.797  0.5967  1.4489  1.3735
 1499SOL    MW4 5770   3.774   5.035   1.838  0.3363  0.4516 -0.3952
 1500SOL     OW 5771   4.821   3.040   3.745 -0.4674 -0.1813  0.7147
 1500SOL    HW2 5772   4.886   3.097   3.785 -0.5175 -0.2259  0.8608
 1500SOL    HW3 5773   4.857   2.952   3.755 -0.1806 -0.1396  0.0908
 1500SOL    MW4 5774   4.834   3.036   3.751 -0.4362 -0.1817  0.6517
 1501SOL     OW 5775   3.277   2.152   5.387 -0.5460  0.0260  0.0780
 1501SOL    HW2 5776   3.194   2.119   5.423 -0.6607 -1.5611 -1.4960
 1501SOL    HW3 5777   3.285   2.108   5.303  1.5966  0.6579 -0.0919
 1501SOL    MW4 5778   3.267   2.142   5.381 -0.2784 -0.1000 -0.1521
 1502SOL     OW 5779   2.887   5.706   4.539 -0.1550 -0.2312 -0.2479
 1502SOL    HW2 5780   2.806   5.703   4.487  0.4672 -0.1672 -1.2332
 1502SOL    HW3 5781   2.909   5.614   4.554 -0.0848 -0.2502 -0.4780
 1502SOL    MW4 5782   2.879   5.693   4.534 -0.0637 -0.2252 -0.4083
 1503SOL     OW 5783   1.308   2.471   4.466 -0.0900 -0.0450 -0.1365
 1503SOL    HW2 5784   1.339   2.394   4.513  1.3117  0.6368  0.1113
 1503SOL    HW3 5785   1.381   2.533   4.470 -1.0162  1.1358 -0.7027
 1503SOL    MW4 5786   1.322   2.469   4.473 -0.0273  0.2007 -0.1785
 1504SOL     OW 5787   0.725   0.148   6.222  0.1784  0.0702  0.0409
 1504SOL    HW2 5788   0.796   0.126   6.284 -1.0236 -0.7507  1.1770
 1504SOL    HW3 5789   0.753   0.230   6.182  1.3329  0.2659  1.1749
 1504SOL    MW4 5790   0.738   0.156   6.225  0.1721 -0.0123  0.3404
 1505SOL     OW 5791   5.275   0.118   1.896  0.4323 -0.3458 -0.1554
 1505SOL    HW2 5792   5.203   0.058   1.876 -0.3401  1.2576 -2.7993
 1505SOL    HW3 5793   5.323   0.126   1.814  1.4707  1.3871  0.5627
 1505SOL    MW4 5794   5.272   0.111   1.883  0.4674  0.0944 -0.4095
 1506SOL     OW 5795   4.841   0.851   2.911 -0.0517 -0.2355  0.2373
 1506SOL    HW2 5796   4.855   0.910   2.838  0.6300  1.3703  1.6091
 1506SOL    HW3 5797   4.794   0.776   2.873 -0.4406  0.9112 -1.6432
 1506SOL    MW4 5798   4.836   0.849   2.896 -0.0130  0.1277  0.1702
 1507SOL     OW 5799   3.547   2.603   5.589 -0.2138 -0.3251 -0.4524
 1507SOL    HW2 5800   3.524   2.519   5.548  0.3817 -0.4907 -0.4562
 1507SOL    HW3 5801   3.582   2.579   5.675 -1.0001 -0.0076 -0.0372
 1507SOL    MW4 5802   3.549   2.589   5.595 -0.2390 -0.3050 -0.3981
 1508SOL     OW 5803   3.280   0.527   5.385 -0.0547  0.1726  0.0307
 1508SOL    HW2 5804   3.200   0.575   5.362  0.3433  1.2385  0.8005
 1508SOL    HW3 5805   3.296   0.470   5.310 -1.2754  0.2851 -0.3367
 1508SOL    MW4 5806   3.271   0.526   5.372 -0.1633  0.3280  0.0838
 1509SOL     OW 5807   5.106   1.625   0.483 -0.3112 -0.1945 -0.6569
 1509SOL    HW2 5808   5.173   1.678   0.525 -0.1782  0.5149 -1.7061
 1509SOL    HW3 5809   5.024   1.672   0.499  0.0177  1.4997 -3.1947
 1509SOL    MW4 5810   5.104   1.638   0.490 -0.2503  0.1226 -1.1302
 1510SOL     OW 5811   1.314   2.017   5.452  0.3492  0.6514  0.2803
 1510SOL    HW2 5812   1.278   1.928   5.456  0.9641  0.3213 -1.1258
 1510SOL    HW3 5813   1.238   2.074   5.470 -0.1878 -0.1235  0.5317
 1510SOL    MW4 5814   1.299   2.013   5.455  0.3595  0.5056  0.1280
 1511SOL     OW 5815   4.993   3.060   0.486 -0.5519  0.7767 -0.3635
 1511SOL    HW2 5816   5.086   3.083   0.475 -0.1040 -0.3862  0.7855
 1511SOL    HW3 5817   4.967   3.104   0.566 -1.0230  1.1438 -0.7137
 1511SOL    MW4 5818   5.002   3.069   0.495 -0.5550  0.6717 -0.2581
 1512SOL     OW 5819   4.890   2.161   3.383  0.0304  0.4485  0.1041
 1512SOL    HW2 5820   4.986   2.164   3.377  0.0851  0.1955  0.7354
 1512SOL    HW3 5821   4.867   2.233   3.442 -0.2053  0.8049 -0.4236
 1512SOL    MW4 5822   4.900   2.171   3.390  0.0065  0.4622  0.1178
 1513SOL     OW 5823   5.343   2.012   0.762 -0.3579  0.3329 -0.1700
 1513SOL    HW2 5824   5.436   2.020   0.781 -0.5275 -0.4680  1.0705
 1513SOL    HW3 5825   5.332   1.921   0.733 -0.9869 -0.0581  1.2199
 1513SOL    MW4 5826   5.354   2.001   0.761 -0.4633  0.1756  0.1771
 1514SOL     OW 5827   4.709   1.175   2.059  0.1516  0.4902  1.1947
 1514SOL    HW2 5828   4.785   1.143   2.010 -0.5286 -1.8487  1.5260
 1514SOL    HW3 5829   4.651   1.211   1.992  0.2441 -0.5083  0.5584
 1514SOL    MW4 5830   4.712   1.175   2.044  0.0741  0.0498  1.1545
 1515SOL     OW 5831   0.588   0.610   4.620 -0.3405  0.7311 -0.8134
 1515SOL    HW2 5832   0.529   0.536   4.612  1.0568 -0.4501 -0.4968
 1515SOL    HW3 5833   0.675   0.574   4.603  0.8876  1.4598  2.9829
 1515SOL    MW4 5834   0.592   0.596   4.616  0.0059  0.6714 -0.2708
 1516SOL     OW 5835   5.895   1.778   1.238 -0.3304 -0.1607  0.0117
 1516SOL    HW2 5836   5.989   1.761   1.245 -0.5088 -1.3487 -0.3834
 1516SOL    HW3 5837   5.854   1.715   1.297 -0.9109 -0.0010 -0.2120
 1516SOL    MW4 5838   5.902   1.768   1.247 -0.4306 -0.2964 -0.0700
 1517SOL     OW 5839   0.850   2.270   6.268  0.0856 -0.0514  0.8843
 1517SOL    HW2 5840   0.923   2.270   6.206  0.8385  2.4525  1.6536
 1517SOL    HW3 5841   0.777   2.308   6.219 -0.4217 -1.5036  0.4631
 1517SOL    MW4 5842   0.850   2.275   6.253  0.1180  0.0873  0.9302
 1518SOL     OW 5843   5.966   4.967   4.389  0.5468  0.5180 -0.5008
 1518SOL    HW2 5844   5.892   5.018   4.423  0.8854  0.7504 -0.1161
 1518SOL    HW3 5845   5.925   4.891   4.347 -0.0287  1.5248 -1.8558
 1518SOL    MW4 5846   5.951   4.963   4.388  0.5155  0.6815 -0.6288
 1519SOL     OW 5847   2.028   4.017   0.665  0.5240  0.4389  0.3072
 1519SOL    HW2 5848   2.028   4.105   0.704  1.0960  0.6559 -0.1504
 1519SOL    HW3 5849   2.054   4.032   0.574 -0.4105 -0.0969 -0.0562
 1519SOL    MW4 5850   2.032   4.031   0.658  0.4762  0.3968  0.1988
 1520SOL     OW 5851   4.461   1.583   3.741 -0.0236  0.5579  0.2919
 1520SOL    HW2 5852   4.440   1.618   3.827  2.4556 -0.2335  1.3154
 1520SOL    HW3 5853   4.394   1.518   3.724  0.2547 -0.3309  2.3515
 1520SOL    MW4 5854   4.450   1.579   3.750  0.3402  0.3362  0.6986
 1521SOL     OW 5855   5.349   0.564   5.804 -0.0643  0.7349  0.7045
 1521SOL    HW2 5856   5.445   0.559   5.800 -0.1195  0.1049 -0.6732
 1521SOL    HW3 5857   5.321   0.473   5.803 -0.7111  0.8008 -3.0138
 1521SOL    MW4 5858   5.358   0.551   5.803 -0.1569  0.6605  0.0321
 1522SOL     OW 5859   4.937   3.134   0.218  0.3862  0.4129 -0.4499
 1522SOL    HW2 5860   4.941   3.121   0.313 -2.3717 -0.0055 -0.3078
 1522SOL    HW3 5861   4.996   3.207   0.201  2.0313 -0.3998  1.3631
 1522SOL    MW4 5862   4.945   3.142   0.228  0.2393  0.2505 -0.1919
 1523SOL     OW 5863   0.739   5.212   1.307  0.5885 -0.0584  0.3337
 1523SOL    HW2 5864   0.802   5.142   1.292 -1.0589 -1.5938  0.2757
 1523SOL    HW3 5865   0.679   5.206   1.233  0.4549  1.4914  0.2867
 1523SOL    MW4 5866   0.740   5.202   1.295  0.3535 -0.0565  0.3198
 1524SOL     OW 5867   1.548   3.511   4.248  0.1302  0.3600  0.2178
 1524SOL    HW2 5868   1.622   3.473   4.295  0.9452  0.3773 -1.0024
 1524SOL    HW3 5869   1.484   3.530   4.316 -0.1234 -2.6621  0.9594
 1524SOL    MW4 5870   1.549   3.509   4.263  0.2043 -0.0364  0.1546
 1525SOL     OW 5871   1.130   5.716   5.206  0.6431  0.5166  0.2467
 1525SOL    HW2 5872   1.171   5.802   5.220  0.5021  0.7846 -0.8805
 1525SOL    HW3 5873   1.202   5.654   5.213  1.0071  0.8624 -0.3453
 1525SOL    MW4 5874   1.145   5.719   5.208  0.6725  0.5976  0.0198
 1526SOL     OW 5875   5.792   2.862   0.435 -0.0774  0.3323 -0.4730
 1526SOL    HW2 5876   5.874   2.855   0.385 -0.1786 -1.6914 -0.4214
 1526SOL    HW3 5877   5.786   2.780   0.482 -1.7930  0.7613  0.1184
 1526SOL    MW4 5878   5.802   2.851   0.435 -0.3171  0.1219 -0.3882
 1527SOL     OW 5879   1.063   1.033   1.857 -0.1231 -0.8788  0.3621
 1527SOL    HW2 5880   1.036   1.124   1.871  1.3372 -0.0320 -1.7635
 1527SOL    HW3 5881   1.067   1.025   1.762  1.0837 -2.7746  0.5430
 1527SOL    MW4 5882   1.060   1.044   1.846  0.2288 -1.0172  0.1056
 1528SOL     OW 5883   3.127   5.355   4.741 -0.6383 -0.1520 -0.0984
 1528SOL    HW2 5884   3.124   5.385   4.650 -0.2943  1.6718  0.4436
 1528SOL    HW3 5885   3.220   5.344   4.760 -0.7153 -0.6518 -0.0037
 1528SOL    MW4 5886   3.139   5.357   4.732 -0.6031  0.0227 -0.0144
 1529SOL     OW 5887   0.187   1.648   1.652 -0.6215 -0.0634 -0.2222
 1529SOL    HW2 5888   0.116   1.661   1.589 -1.2855  1.1277  0.7223
 1529SOL    HW3 5889   0.230   1.568   1.623 -0.3978  0.8491 -2.6354
 1529SOL    MW4 5890   0.183   1.639   1.640 -0.6796  0.2141 -0.4160
 1530SOL     OW 5891   1.885   1.924   5.219 -0.1723 -0.0198 -0.4229
 1530SOL    HW2 5892   1.800   1.909   5.178  0.6467  0.9715 -2.6477
 1530SOL    HW3 5893   1.948   1.916   5.147  1.5770 -0.2242  1.0578
 1530SOL    MW4 5894   1.882   1.921   5.204  0.1666  0.0840 -0.5211
 1531SOL     OW 5895   4.830   3.909   4.752 -0.2088 -0.1893  0.1166
 1531SOL    HW2 5896   4.781   3.831   4.726  1.0411 -1.1401  0.5478
 1531SOL    HW3 5897   4.913   3.901   4.706  1.1387 -0.6992  2.4748
 1531SOL    MW4 5898   4.834   3.898   4.742  0.1339 -0.3820  0.4846
 1532SOL     OW 5899   6.354   2.400   5.773  1.1781  0.3102  0.3031
 1532SOL    HW2 5900   6.423   2.463   5.796 -0.3865  1.7439  1.2601
 1532SOL    HW3 5901   6.357   2.335   5.844  0.7155  1.0963  1.0696
 1532SOL    MW4 5902   6.364   2.399   5.786  0.9107  0.6031  0.5305
 1533SOL     OW 5903   0.878   1.773   2.152  0.3919 -0.3905  0.3115
 1533SOL    HW2 5904   0.815   1.832   2.192  0.4735 -0.1250  0.0516
 1533SOL    HW3 5905   0.963   1.812   2.171  0.4254 -0.2081 -0.2055
 1533SOL    MW4 5906   0.881   1.786   2.160  0.4071 -0.3314  0.2090
 1534SOL     OW 5907   3.592   3.455   0.419 -0.6710 -0.7637  0.1471
 1534SOL    HW2 5908   3.668   3.433   0.365 -1.5664 -0.1728 -1.4359
 1534SOL    HW3 5909   3.590   3.388   0.487  1.6569 -0.3734  0.6635
 1534SOL    MW4 5910   3.602   3.443   0.421 -0.4820 -0.6342  0.0064
 1535SOL     OW 5911   2.379   0.676   1.331 -0.3280  0.3726 -0.0661
 1535SOL    HW2 5912   2.321   0.730   1.277 -1.5744  2.6907  3.2406
 1535SOL    HW3 5913   2.463   0.679   1.286 -1.4212  1.4851 -2.2345
 1535SOL    MW4 5914   2.382   0.684   1.318 -0.6367  0.8252  0.0841
 1536SOL     OW 5915   3.165   4.264   3.832 -0.6863  0.1066  0.3000
 1536SOL    HW2 5916   3.138   4.297   3.746 -1.5397 -1.9046 -0.2659
 1536SOL    HW3 5917   3.091   4.283   3.889 -1.0638 -0.5544  0.0398
 1536SOL    MW4 5918   3.152   4.271   3.828 -0.8487 -0.2460  0.1910
 1537SOL     OW 5919   3.863   2.453   0.806  0.2555  0.0626 -0.4415
 1537SOL    HW2 5920   3.827   2.541   0.812  0.1029 -0.0514  0.3387
 1537SOL    HW3 5921   3.953   2.462   0.839  0.5757  0.1110 -1.2817
 1537SOL    MW4 5922   3.870   2.466   0.811  0.2776  0.0539 -0.4494
 1538SOL     OW 5923   1.239   5.363   3.334  0.1073 -0.1254 -0.1015
 1538SOL    HW2 5924   1.149   5.392   3.348  0.5339  1.0274  0.2974
 1538SOL    HW3 5925   1.292   5.416   3.393  0.8906 -2.0640  1.0529
 1538SOL    MW4 5926   1.234   5.374   3.343  0.2669 -0.2291  0.1034
 1539SOL     OW 5927   2.245   3.114   5.304  0.4540 -0.1922 -0.4228
 1539SOL    HW2 5928   2.218   3.181   5.367 -1.0918 -1.3261  0.1712
 1539SOL    HW3 5929   2.331   3.086   5.335  1.3767  1.8299 -0.9824
 1539SOL    MW4 5930   2.253   3.119   5.316  0.3718 -0.0750 -0.4183
 1540SOL     OW 5931   0.157   5.924   2.558 -0.0803  0.5532  0.4059
 1540SOL    HW2 5932   0.198   5.846   2.520 -1.5320 -1.1500  2.1526
 1540SOL    HW3 5933   0.197   5.934   2.644 -0.9074  0.8676  0.7711
 1540SOL    MW4 5934   0.168   5.915   2.564 -0.3809  0.3700  0.6846
 1541SOL     OW 5935   1.194   0.932   0.291 -0.1208  0.2227 -0.1344
 1541SOL    HW2 5936   1.102   0.956   0.295 -0.0134  0.9632 -1.4556
 1541SOL    HW3 5937   1.197   0.852   0.238 -0.2599 -1.6331  2.4677
 1541SOL    MW4 5938   1.183   0.925   0.284 -0.1250  0.0756  0.0346
 1542SOL     OW 5939   2.688   6.168   0.712 -0.4645 -0.1780  0.0768
 1542SOL    HW2 5940   2.631   6.180   0.788  0.4190  2.0036  0.4839
 1542SOL    HW3 5941   2.737   6.088   0.732 -0.9513 -0.1908  1.3511
 1542SOL    MW4 5942   2.687   6.159   0.725 -0.4121  0.1082  0.2986
 1543SOL     OW 5943   1.495   0.684   5.263 -0.5948  0.7970 -0.5041
 1543SOL    HW2 5944   1.559   0.699   5.332 -0.3439 -0.0245 -0.5475
 1543SOL    HW3 5945   1.533   0.725   5.185  0.1809 -0.2276 -0.6760
 1543SOL    MW4 5946   1.508   0.691   5.262 -0.4593  0.5534 -0.5325
 1544SOL     OW 5947   0.158   1.512   0.669  0.1786 -0.2940 -0.1246
 1544SOL    HW2 5948   0.229   1.520   0.733  0.7654  0.0459 -0.8033
 1544SOL    HW3 5949   0.162   1.593   0.619 -0.5671 -0.3620 -0.3011
 1544SOL    MW4 5950   0.168   1.524   0.671  0.1576 -0.2581 -0.2374
 1545SOL     OW 5951   0.297   2.341   5.783  0.2352  0.4932  0.3423
 1545SOL    HW2 5952   0.247   2.277   5.834 -0.6527  0.8281 -0.0723
 1545SOL    HW3 5953   0.261   2.426   5.810 -0.3021  0.6725 -0.8783
 1545SOL    MW4 5954   0.285   2.344   5.794  0.0472  0.5610  0.1265
 1546SOL     OW 5955   0.399   4.990   5.698  0.3340  0.0718  0.7193
 1546SOL    HW2 5956   0.439   4.928   5.637 -0.6074 -0.9824  1.1291
 1546SOL    HW3 5957   0.305   4.977   5.686  0.1344  0.5703  1.6655
 1546SOL    MW4 5958   0.392   4.980   5.688  0.1835 -0.0015  0.8982
 1547SOL     OW 5959   4.062   4.043   1.419 -0.4212  0.1377  0.1790
 1547SOL    HW2 5960   4.089   4.130   1.389  0.5506 -0.1532  0.1733
 1547SOL    HW3 5961   4.056   3.990   1.339 -3.0028  0.6733 -0.0716
 1547SOL    MW4 5962   4.065   4.047   1.404 -0.6336  0.1700  0.1452
 1548SOL     OW 5963   2.322   1.282   3.389  0.3572 -0.4620  0.1648
 1548SOL    HW2 5964   2.374   1.202   3.380  2.1386  0.5759  0.6714
 1548SOL    HW3 5965   2.324   1.302   3.482 -0.9079 -0.3305  0.1834
 1548SOL    MW4 5966   2.329   1.274   3.400  0.4253 -0.3077  0.2341
 1549SOL     OW 5967   1.752   1.227   0.746  0.2563  0.7213  0.2318
 1549SOL    HW2 5968   1.785   1.253   0.660 -0.6690  0.9573 -0.0640
 1549SOL    HW3 5969   1.745   1.132   0.742 -1.5670  0.8534 -0.6433
 1549SOL    MW4 5970   1.756   1.218   0.734 -0.1063  0.7699  0.0773
 1550SOL     OW 5971   4.042   3.168   1.528 -0.0556 -0.3831 -0.0151
 1550SOL    HW2 5972   4.073   3.181   1.439  0.9141 -0.8475  0.2445
 1550SOL    HW3 5973   4.114   3.124   1.573 -0.1830  0.6361  1.2394
 1550SOL    MW4 5974   4.055   3.164   1.522  0.0555 -0.3099  0.1846
 1551SOL     OW 5975   4.642   2.024   3.277  0.0680 -0.1409 -0.0730
 1551SOL    HW2 5976   4.676   1.936   3.264  0.6386 -0.4716  2.8740
 1551SOL    HW3 5977   4.719   2.078   3.293 -0.2997  0.8924 -1.5150
 1551SOL    MW4 5978   4.657   2.020   3.277  0.0948 -0.0482  0.1256
 1552SOL     OW 5979   2.329   5.817   5.925 -0.1010 -0.7032  0.3770
 1552SOL    HW2 5980   2.380   5.881   5.974  1.2761 -0.9113 -0.7362
 1552SOL    HW3 5981   2.249   5.806   5.977 -0.1552  1.5008  0.8865
 1552SOL    MW4 5982   2.325   5.824   5.938  0.0735 -0.4398  0.2974
 1553SOL     OW 5983   0.247   3.500   5.127  0.4032 -0.3653  0.0206
 1553SOL    HW2 5984   0.339   3.473   5.125  0.5013 -0.2871  1.8264
 1553SOL    HW3 5985   0.236   3.543   5.211 -1.5778 -1.4587  0.3923
 1553SOL    MW4 5986   0.258   3.502   5.138  0.1548 -0.4993  0.3079
 1554SOL     OW 5987   5.105   3.989   1.290  0.0538 -0.1292 -0.0831
 1554SOL    HW2 5988   5.014   4.010   1.273 -0.2040 -3.4194 -4.4914
 1554SOL    HW3 5989   5.102   3.917   1.353 -0.0971  1.4174  1.7623
 1554SOL    MW4 5990   5.093   3.982   1.296 -0.0001 -0.3593 -0.4213
 1555SOL     OW 5991   5.360   5.042   2.203 -0.5032  1.0878  0.0978
 1555SOL    HW2 5992   5.415   4.970   2.172 -0.2568  1.5002 -0.4564
 1555SOL    HW3 5993   5.412   5.083   2.272  0.0422  1.6629 -0.6324
 1555SOL    MW4 5994   5.374   5.038   2.208 -0.3987  1.2181 -0.0716
 1556SOL     OW 5995   3.508   2.172   2.110 -0.0507  0.1697 -0.1166
 1556SOL    HW2 5996   3.526   2.262   2.134  1.0937  0.8222 -2.9476
 1556SOL    HW3 5997   3.412   2.166   2.109 -0.1689  1.6745 -0.7732
 1556SOL    MW4 5998   3.497   2.183   2.113  0.0847  0.4543 -0.5768
 1557SOL     OW 5999   2.511   5.821   0.577 -0.2668  0.0240 -0.4653
 1557SOL    HW2 6000   2.535   5.827   0.670 -0.8593 -2.6624 -0.0500
 1557SOL    HW3 6001   2.481   5.909   0.555  1.0129  1.0552  1.5477
 1557SOL    MW4 6002   2.510   5.833   0.587 -0.1761 -0.1944 -0.1449
 1558SOL     OW 6003   3.533   4.899   4.594  0.5957  0.1957 -1.1099
 1558SOL    HW2 6004   3.569   4.847   4.522 -1.2720  0.7746 -2.5428
 1558SOL    HW3 6005   3.464   4.952   4.554  1.3693  2.6523  0.5928
 1558SOL    MW4 6006   3.528   4.899   4.579  0.4513  0.5962 -1.0743
 1559SOL     OW 6007   5.450   0.888   6.382  0.5009 -0.0844 -0.5521
 1559SOL    HW2 6008   5.424   0.964   6.434 -1.1225 -0.4630 -0.7537
 1559SOL    HW3 6009   5.447   0.918   6.292  1.8340  0.1458 -0.5419
 1559SOL    MW4 6010   5.446   0.902   6.377  0.4626 -0.1040 -0.5774
 1560SOL     OW 6011   0.617   1.806   3.870 -0.1921 -0.1693  0.8132
 1560SOL    HW2 6012   0.543   1.753   3.839 -0.7355  0.8352  0.3663
 1560SOL    HW3 6013   0.659   1.838   3.791  0.8579 -0.8799  1.0597
 1560SOL    MW4 6014   0.613   1.803   3.856 -0.1253 -0.1306  0.7868
 1561SOL     OW 6015   0.753   3.889   2.430  0.0166 -0.5920  0.3787
 1561SOL    HW2 6016   0.843   3.874   2.458 -0.1911 -0.2540  1.2709
 1561SOL    HW3 6017   0.720   3.802   2.409  0.5997 -0.6975 -0.1325
 1561SOL    MW4 6018   0.760   3.876   2.431  0.0662 -0.5613  0.4290
 1562SOL     OW 6019   2.182   4.188   4.931 -0.1844  0.2413 -0.1124
 1562SOL    HW2 6020   2.197   4.166   5.023  0.5216  1.9220  0.2050
 1562SOL    HW3 6021   2.232   4.123   4.882  0.6127  0.2135  0.7254
 1562SOL    MW4 6022   2.190   4.176   4.937  0.0139  0.4594  0.0400
 1563SOL     OW 6023   5.692   5.865   6.208 -0.0304 -0.0301 -0.1080
 1563SOL    HW2 6024   5.745   5.944   6.206 -0.4195  0.2361 -0.1236
 1563SOL    HW3 6025   5.681   5.841   6.116 -1.7288  1.1527 -0.2686
 1563SOL    MW4 6026   5.697   5.872   6.196 -0.3059  0.1611 -0.1312
 1564SOL     OW 6027   0.119   6.165   2.052  0.2832  0.6737  0.3528
 1564SOL    HW2 6028   0.159   6.097   2.106  0.8094  0.9499  0.3082
 1564SOL    HW3 6029   0.190   6.198   1.997 -0.3045  0.1931 -0.7295
 1564SOL    MW4 6030   0.133   6.160   2.052  0.2751  0.6468  0.2041
 1565SOL     OW 6031   2.546   1.504   3.446 -0.6998 -0.3700  0.2603
 1565SOL    HW2 6032   2.574   1.429   3.393 -0.0202 -0.9329  1.3781
 1565SOL    HW3 6033   2.586   1.579   3.402 -0.4135 -0.7864 -0.2081
 1565SOL    MW4 6034   2.555   1.504   3.433 -0.5724 -0.4992  0.3460
 1566SOL     OW 6035   3.461   2.244   6.040  0.0191 -0.2164  0.0457
 1566SOL    HW2 6036   3.495   2.328   6.073  1.1756 -0.1883 -1.1600
 1566SOL    HW3 6037   3.375   2.236   6.082  0.1134  1.3118  0.6182
 1566SOL    MW4 6038   3.454   2.254   6.050  0.1841 -0.0111 -0.0378
 1567SOL     OW 6039   6.184   6.286   1.574 -0.3726 -0.0250  0.4142
 1567SOL    HW2 6040   6.249   6.318   1.636 -1.2638  0.4721  1.1355
 1567SOL    HW3 6041   6.144   6.365   1.538  0.3826 -0.3014 -1.1053
 1567SOL    MW4 6042   6.187   6.301   1.578 -0.3905  0.0041  0.3089
 1568SOL     OW 6043   5.944   3.610   5.718  0.6951 -0.0021 -0.1103
 1568SOL    HW2 6044   5.882   3.544   5.750  1.9127 -1.0549  0.1682
 1568SOL    HW3 6045   5.920   3.690   5.763  0.3394 -0.6941  0.9624
 1568SOL    MW4 6046   5.933   3.612   5.728  0.8088 -0.2323  0.0679
 1569SOL     OW 6047   6.278   5.830   5.382 -0.4095 -0.8182  0.1325
 1569SOL    HW2 6048   6.294   5.750   5.332 -1.9720 -0.7467 -0.5507
 1569SOL    HW3 6049   6.283   5.803   5.473 -0.3830 -1.5790 -0.0889
 1569SOL    MW4 6050   6.281   5.816   5.387 -0.6122 -0.9092  0.0131
 1570SOL     OW 6051   3.911   0.657   5.645  0.2583 -0.1464 -0.5342
 1570SOL    HW2 6052   3.900   0.568   5.611 -0.7727 -0.4980  0.6486
 1570SOL    HW3 6053   3.927   0.646   5.738 -1.7635  0.9432  0.0032
 1570SOL    MW4 6054   3.911   0.644   5.653 -0.1445 -0.0490 -0.3073
 1571SOL     OW 6055   2.275   0.536   0.981  0.4291  0.2183  0.1557
 1571SOL    HW2 6056   2.297   0.593   0.907  0.1595  1.7161  1.1859
 1571SOL    HW3 6057   2.360   0.511   1.017  0.5578 -0.3709 -0.5356
 1571SOL    MW4 6058   2.289   0.541   0.976  0.4105  0.3382  0.2004
 1572SOL     OW 6059   4.656   3.397   4.291 -0.9418  0.2159 -0.6913
 1572SOL    HW2 6060   4.600   3.474   4.280 -1.9668 -0.6603 -1.9026
 1572SOL    HW3 6061   4.601   3.333   4.336 -0.4551 -0.1959 -0.6657
 1572SOL    MW4 6062   4.642   3.398   4.296 -1.0129  0.0460 -0.8477
 1573SOL     OW 6063   2.997   0.965   6.353  0.5602  0.0427 -0.1459
 1573SOL    HW2 6064   3.043   0.888   6.386 -1.3831 -0.7025  1.0056
 1573SOL    HW3 6065   2.910   0.932   6.330 -0.3455  1.9119  0.4464
 1573SOL    MW4 6066   2.991   0.951   6.354  0.1843  0.1910  0.0842
 1574SOL     OW 6067   5.350   2.507   1.960 -0.6724  0.2218 -0.3246
 1574SOL    HW2 6068   5.382   2.586   2.002  0.6672  0.5013 -1.7774
 1574SOL    HW3 6069   5.364   2.438   2.024 -3.6211  1.3437  1.7398
 1574SOL    MW4 6070   5.356   2.508   1.974 -0.8847  0.4067 -0.2439
 1575SOL     OW 6071   4.386   3.571   2.655 -0.1161  0.2936 -0.0813
 1575SOL    HW2 6072   4.331   3.493   2.651 -0.0344  0.0563  2.2650
 1575SOL    HW3 6073   4.373   3.606   2.742  3.0101  0.5180  0.4289
 1575SOL    MW4 6074   4.377   3.565   2.666  0.3072  0.2919  0.2956
 1576SOL     OW 6075   4.445   4.333   2.212  0.0499  0.1556 -0.1115
 1576SOL    HW2 6076   4.412   4.244   2.196  0.7841 -0.3457  1.0260
 1576SOL    HW3 6077   4.530   4.319   2.253  0.4524  1.4039 -0.5045
 1576SOL    MW4 6078   4.452   4.319   2.216  0.1998  0.2541 -0.0133
 1577SOL     OW 6079   2.349   2.908   4.791 -0.4290  0.3763 -0.2620
 1577SOL    HW2 6080   2.291   2.854   4.845 -1.4905  1.5707 -0.1640
 1577SOL    HW3 6081   2.368   2.854   4.714 -1.9561  0.0681 -0.4476
 1577SOL    MW4 6082   2.344   2.894   4.788 -0.7705  0.4933 -0.2736
 1578SOL     OW 6083   0.941   3.715   6.133 -0.0885  0.0889 -0.5109
 1578SOL    HW2 6084   1.032   3.689   6.150 -0.3867  0.1827  1.4656
 1578SOL    HW3 6085   0.907   3.646   6.076  0.9811 -0.3813 -0.6086
 1578SOL    MW4 6086   0.949   3.702   6.128  0.0133  0.0393 -0.2630
 1579SOL     OW 6087   2.360   1.694   3.452 -0.2228  0.3051  0.0422
 1579SOL    HW2 6088   2.419   1.767   3.434 -0.9974  1.6310  2.4623
 1579SOL    HW3 6089   2.416   1.617   3.447  0.9994  1.2092 -0.8833
 1579SOL    MW4 6090   2.375   1.694   3.449 -0.1637  0.5993  0.2394
 1580SOL     OW 6091   6.396   4.695   4.009 -0.1771  0.4253  0.5677
 1580SOL    HW2 6092   6.376   4.660   4.096 -0.6990 -0.9850 -0.0781
 1580SOL    HW3 6093   6.320   4.670   3.955  0.1568  1.2233 -0.3111
 1580SOL    MW4 6094   6.383   4.687   4.013 -0.2019  0.3445  0.3665
 1581SOL     OW 6095   4.052   1.820   3.215  0.3461  0.3484  0.1084
 1581SOL    HW2 6096   3.993   1.867   3.156 -0.1885  0.6560  0.8579
 1581SOL    HW3 6097   4.139   1.852   3.193  0.2174  0.0116 -0.9123
 1581SOL    MW4 6098   4.055   1.831   3.204  0.2586  0.3445  0.0726
 1582SOL     OW 6099   6.211   5.383   1.863 -0.1147 -0.3990  0.1454
 1582SOL    HW2 6100   6.126   5.342   1.850 -0.1452 -0.1380 -0.5016
 1582SOL    HW3 6101   6.203   5.469   1.822  0.7781 -0.7550 -0.8377
 1582SOL    MW4 6102   6.199   5.389   1.856 -0.0009 -0.4115 -0.0697
 1583SOL     OW 6103   5.409   4.264   2.977  0.3114  0.1162 -0.1210
 1583SOL    HW2 6104   5.500   4.262   2.949  0.5866 -0.9690  0.8179
 1583SOL    HW3 6105   5.375   4.346   2.940  1.4708  0.2185 -1.0312
 1583SOL    MW4 6106   5.416   4.274   2.968  0.5007 -0.0135 -0.1172
 1584SOL     OW 6107   2.130   1.533   1.523 -0.3062 -0.4188 -0.8868
 1584SOL    HW2 6108   2.119   1.578   1.606  0.1861  0.1873 -1.1418
 1584SOL    HW3 6109   2.225   1.520   1.515 -0.3227 -0.2203 -1.4819
 1584SOL    MW4 6110   2.141   1.537   1.533 -0.2435 -0.3126 -0.9989
 1585SOL     OW 6111   2.894   2.974   5.087 -0.0453  0.6705 -0.1853
 1585SOL    HW2 6112   2.944   2.992   5.167  0.1897 -1.1155  0.1107
 1585SOL    HW3 6113   2.897   2.879   5.078 -1.9924  0.6479 -1.0811
 1585SOL    MW4 6114   2.901   2.964   5.096 -0.2712  0.4319 -0.2644
 1586SOL     OW 6115   2.326   3.509   0.093  0.4712  0.4288  0.5852
 1586SOL    HW2 6116   2.266   3.583   0.106 -0.6158 -0.1628 -0.7675
 1586SOL    HW3 6117   2.309   3.453   0.168 -0.6676  0.3044  0.2645
 1586SOL    MW4 6118   2.316   3.512   0.104  0.1776  0.3343  0.3644
 1587SOL     OW 6119   3.186   2.442   3.528 -0.0164  0.3256  0.3220
 1587SOL    HW2 6120   3.176   2.359   3.574 -1.5925  0.4158  0.1985
 1587SOL    HW3 6121   3.279   2.461   3.532 -0.0062  0.0522  3.0174
 1587SOL    MW4 6122   3.197   2.433   3.535 -0.2230  0.3014  0.6614
 1588SOL     OW 6123   1.992   3.824   2.692 -0.1412 -0.5172 -0.0145
 1588SOL    HW2 6124   1.975   3.913   2.661 -2.0302 -0.3241  1.4514
 1588SOL    HW3 6125   2.082   3.806   2.663  0.2388  1.7882 -0.4752
 1588SOL    MW4 6126   2.002   3.834   2.684 -0.3403 -0.1875  0.1181
 1589SOL     OW 6127   0.094   5.661   2.269 -0.7861 -0.2528 -0.2411
 1589SOL    HW2 6128   0.088   5.646   2.363 -0.0350  0.2084 -0.1098
 1589SOL    HW3 6129   0.181   5.629   2.245 -1.1873 -0.8882 -0.8880
 1589SOL    MW4 6130   0.104   5.655   2.278 -0.7400 -0.2758 -0.3091
 1590SOL     OW 6131   3.652   0.457   1.380 -0.3305 -0.1429 -0.1798
 1590SOL    HW2 6132   3.559   0.479   1.380 -0.0935  0.9558  0.6318
 1590SOL    HW3 6133   3.694   0.527   1.330  0.0494 -0.7294 -0.6956
 1590SOL    MW4 6134   3.646   0.469   1.374 -0.2491 -0.0753 -0.1408
 1591SOL     OW 6135   5.862   2.013   3.832  0.3864  0.3271  0.4560
 1591SOL    HW2 6136   5.953   1.990   3.813  0.0279 -1.5709  0.8515
 1591SOL    HW3 6137   5.815   1.930   3.831 -1.5067  1.3352 -0.4608
 1591SOL    MW4 6138   5.868   1.999   3.830  0.0894  0.2097  0.3872
 1592SOL     OW 6139   5.608   3.113   3.470  0.2957 -0.0650  0.5671
 1592SOL    HW2 6140   5.529   3.058   3.466  0.4882 -0.3226  0.3377
 1592SOL    HW3 6141   5.595   3.178   3.402  0.3301 -0.1692  0.4614
 1592SOL    MW4 6142   5.596   3.114   3.461  0.3256 -0.1127  0.5229
 1593SOL     OW 6143   3.766   2.876   4.706 -0.0524  0.9171 -0.8415
 1593SOL    HW2 6144   3.757   2.943   4.639  1.0502 -1.3288 -3.4114
 1593SOL    HW3 6145   3.818   2.807   4.665  0.9686 -0.4892  2.4573
 1593SOL    MW4 6146   3.772   2.876   4.692  0.2278  0.4353 -0.7453
 1594SOL     OW 6147   1.843   5.126   3.166 -0.0808 -0.2990  0.0252
 1594SOL    HW2 6148   1.771   5.183   3.194  0.4041  0.2906  0.0996
 1594SOL    HW3 6149   1.922   5.180   3.177  0.3665 -0.9124 -0.1154
 1594SOL    MW4 6150   1.844   5.141   3.171  0.0422 -0.3021  0.0165
 1595SOL     OW 6151   6.075   5.757   2.872 -0.0362 -0.2397  0.1084
 1595SOL    HW2 6152   5.997   5.790   2.826  0.4311  0.3894 -0.2414
 1595SOL    HW3 6153   6.045   5.676   2.914 -0.5678 -0.6373 -1.0004
 1595SOL    MW4 6154   6.060   5.751   2.872 -0.0447 -0.2091 -0.0840
 1596SOL     OW 6155   5.292   3.726   4.779 -0.2713  0.5143 -0.2304
 1596SOL    HW2 6156   5.377   3.741   4.820  1.2681 -0.7791 -2.7033
 1596SOL    HW3 6157   5.277   3.632   4.789 -1.4112  0.7133  0.1105
 1596SOL    MW4 6158   5.301   3.715   4.786 -0.2186  0.3699 -0.5117
 1597SOL     OW 6159   4.758   1.677   6.329 -0.0901 -0.0448 -0.3456
 1597SOL    HW2 6160   4.796   1.662   6.415  1.4820 -0.5031 -1.0796
 1597SOL    HW3 6161   4.664   1.676   6.344 -0.0024 -3.3485  0.8896
 1597SOL    MW4 6162   4.751   1.675   6.342  0.1289 -0.5412 -0.2795
 1598SOL     OW 6163   1.499   5.553   1.604  0.5665 -0.6533 -0.4015
 1598SOL    HW2 6164   1.462   5.556   1.516 -0.8173  1.6644  0.1504
 1598SOL    HW3 6165   1.510   5.645   1.629  0.5876 -1.2114  1.9558
 1598SOL    MW4 6166   1.495   5.566   1.596  0.3867 -0.4211 -0.0176
 1599SOL     OW 6167   6.295   0.268   3.675  0.7662  0.2462  0.1849
 1599SOL    HW2 6168   6.345   0.237   3.751  1.1124 -0.1947 -0.2210
 1599SOL    HW3 6169   6.290   0.192   3.617  0.4816  0.5759 -0.2240
 1599SOL    MW4 6170   6.301   0.254   3.678  0.7743  0.2316  0.0774
 1600SOL     OW 6171   0.705   3.489   2.564 -0.2531 -0.1992 -0.2219
 1600SOL    HW2 6172   0.654   3.520   2.639  0.0031 -1.6764  0.5962
 1600SOL    HW3 6173   0.788   3.461   2.602  0.0741 -0.5104 -1.1330
 1600SOL    MW4 6174   0.709   3.490   2.579 -0.1761 -0.4352 -0.2341
 1601SOL     OW 6175   2.391   6.314   0.292 -0.1877  0.4872  0.4548
 1601SOL    HW2 6176   2.433   6.383   0.343 -0.5630  0.1382  1.2601
 1601SOL    HW3 6177   2.428   6.233   0.326  0.2980  0.2856 -0.5290
 1601SOL    MW4 6178   2.401   6.313   0.303 -0.1732  0.4145  0.4313
 1602SOL     OW 6179   3.282   1.590   6.267  0.6208  0.3894 -0.1476
 1602SOL    HW2 6180   3.337   1.599   6.189  0.9370  0.3996  0.0755
 1602SOL    HW3 6181   3.192   1.583   6.232  0.7656  0.3195 -0.5129
 1602SOL    MW4 6182   3.277   1.590   6.252  0.6816  0.3816 -0.1664
 1603SOL     OW 6183   1.600   0.879   2.562 -0.5771 -0.0884 -0.1244
 1603SOL    HW2 6184   1.615   0.914   2.474 -0.1414  1.9212  0.7107
 1603SOL    HW3 6185   1.646   0.939   2.620  0.0809 -1.9860  1.4310
 1603SOL    MW4 6186   1.608   0.891   2.558 -0.4328 -0.0736  0.1910
 1604SOL     OW 6187   3.977   3.988   2.948  0.2461 -0.1860 -0.2548
 1604SOL    HW2 6188   3.886   3.959   2.956 -0.2045  1.2539  0.1525
 1604SOL    HW3 6189   4.029   3.913   2.977 -0.8511 -0.6590  0.5528
 1604SOL    MW4 6190   3.972   3.975   2.953  0.0419 -0.0584 -0.0945
 1605SOL     OW 6191   1.156   2.137   1.969 -0.1234  0.0603 -0.7174
 1605SOL    HW2 6192   1.220   2.194   2.012 -0.3440  0.6109 -1.1037
 1605SOL    HW3 6193   1.107   2.098   2.040 -0.0668  0.4722 -0.4459
 1605SOL    MW4 6194   1.158   2.140   1.984 -0.1451  0.1873 -0.7325
 1606SOL     OW 6195   0.081   2.193   5.921 -0.1836 -0.3914 -0.2323
 1606SOL    HW2 6196  -0.010   2.171   5.940  0.2010 -0.7971  1.3308
 1606SOL    HW3 6197   0.125   2.187   6.006  1.5074 -1.2604 -1.1043
 1606SOL    MW4 6198   0.075   2.189   5.935  0.0903 -0.5596 -0.1411
 1607SOL     OW 6199   1.697   3.426   1.046 -0.8404  0.0073 -0.3913
 1607SOL    HW2 6200   1.713   3.339   1.081 -1.7945  0.6571  1.8529
 1607SOL    HW3 6201   1.770   3.442   0.986 -0.2778 -2.0322 -0.3141
 1607SOL    MW4 6202   1.708   3.417   1.043 -0.8921 -0.1760 -0.0850
 1608SOL     OW 6203   0.227   3.441   1.239 -0.0932 -0.1222 -0.1064
 1608SOL    HW2 6204   0.172   3.404   1.308  1.0341 -1.4142  0.1562
 1608SOL    HW3 6205   0.196   3.530   1.228 -3.0543 -1.1314 -0.8465
 1608SOL    MW4 6206   0.216   3.448   1.247 -0.3351 -0.4258 -0.1694
 1609SOL     OW 6207   2.814   2.570   5.886  0.4279 -0.9264 -0.1225
 1609SOL    HW2 6208   2.746   2.507   5.860 -0.3726 -0.1276 -0.0100
 1609SOL    HW3 6209   2.801   2.582   5.980  0.0066  0.0413 -0.2867
 1609SOL    MW4 6210   2.803   2.563   5.895  0.2667 -0.6933 -0.1293
 1610SOL     OW 6211   4.621   0.252   3.539  0.2913  0.1760 -0.1655
 1610SOL    HW2 6212   4.600   0.284   3.627  1.1631 -1.1411  0.5678
 1610SOL    HW3 6213   4.537   0.225   3.503 -0.0088  0.1607  0.5155
 1610SOL    MW4 6214   4.608   0.252   3.546  0.3667  0.0002  0.0211
 1611SOL     OW 6215   4.014   0.538   4.760 -0.0989  0.2256 -0.7651
 1611SOL    HW2 6216   4.023   0.525   4.855  1.9025  0.9795 -0.7935
 1611SOL    HW3 6217   4.095   0.502   4.724 -1.3808 -1.1775 -2.3491
 1611SOL    MW4 6218   4.026   0.532   4.768 -0.0040  0.1400 -0.9778
 1612SOL     OW 6219   5.084   5.382   2.215 -0.4792  0.5890  0.1843
 1612SOL    HW2 6220   5.122   5.407   2.299 -0.7581 -2.5364  1.4054
 1612SOL    HW3 6221   4.989   5.382   2.230 -0.5343 -3.8428  1.4223
 1612SOL    MW4 6222   5.076   5.385   2.228 -0.5233 -0.4081  0.5087
 1613SOL     OW 6223   1.693   5.496   1.406  0.1817 -0.1358  0.1127
 1613SOL    HW2 6224   1.650   5.453   1.480 -1.2089  0.0757 -0.5400
 1613SOL    HW3 6225   1.673   5.589   1.417 -0.5011 -0.1675 -0.8180
 1613SOL    MW4 6226   1.685   5.503   1.417 -0.0919 -0.1121 -0.0962
 1614SOL     OW 6227   0.893   0.530   0.691  0.8926 -0.4786 -0.3848
 1614SOL    HW2 6228   0.904   0.502   0.600  0.2963 -0.4772 -0.4582
 1614SOL    HW3 6229   0.882   0.448   0.740 -1.3346 -0.3924 -0.6633
 1614SOL    MW4 6230   0.893   0.516   0.686  0.5201 -0.4671 -0.4312
 1615SOL     OW 6231   2.790   0.365   3.831 -0.0112 -0.0753 -0.3935
 1615SOL    HW2 6232   2.819   0.311   3.758 -1.4671  0.0374 -1.0760
 1615SOL    HW3 6233   2.751   0.442   3.790  1.4263  1.2247  0.5490
 1615SOL    MW4 6234   2.789   0.368   3.816 -0.0136  0.1111 -0.3592
 1616SOL     OW 6235   2.518   4.842   2.861  0.9989 -0.0436  0.7103
 1616SOL    HW2 6236   2.542   4.920   2.911  2.4272  0.2618 -0.3744
 1616SOL    HW3 6237   2.587   4.834   2.795 -0.3164 -0.9520 -0.6242
 1616SOL    MW4 6238   2.530   4.851   2.859  1.0138 -0.1232  0.3911
 1617SOL     OW 6239   5.682   2.043   5.883  0.3180 -0.0091 -0.1317
 1617SOL    HW2 6240   5.662   1.974   5.946 -0.4990  1.5570  1.4104
 1617SOL    HW3 6241   5.663   2.004   5.797  3.7511 -3.0188  0.2543
 1617SOL    MW4 6242   5.677   2.029   5.880  0.6632 -0.1996  0.1227
 1618SOL     OW 6243   5.968   4.543   1.328 -0.4202  0.4353  0.0102
 1618SOL    HW2 6244   5.943   4.466   1.278 -1.6687  1.1573 -0.5161
 1618SOL    HW3 6245   6.051   4.519   1.369 -1.6727 -1.8609  1.3587
 1618SOL    MW4 6246   5.976   4.530   1.327 -0.7502  0.2276  0.1187
 1619SOL     OW 6247   5.580   1.234   3.669 -0.2405  0.3045 -0.1745
 1619SOL    HW2 6248   5.520   1.243   3.744  0.4606 -1.1931  0.6287
 1619SOL    HW3 6249   5.526   1.196   3.600 -0.4466 -0.1648  0.2379
 1619SOL    MW4 6250   5.565   1.230   3.670 -0.1752  0.0450 -0.0142
 1620SOL     OW 6251   0.532   4.315   4.113  0.4219 -0.1113  0.0666
 1620SOL    HW2 6252   0.508   4.228   4.145 -0.6777  0.1414 -0.0434
 1620SOL    HW3 6253   0.574   4.299   4.029 -0.1417 -0.5180 -0.1443
 1620SOL    MW4 6254   0.535   4.302   4.106  0.2025 -0.1316  0.0243
 1621SOL     OW 6255   5.570   2.945   2.295 -0.6827 -0.2275  0.4374
 1621SOL    HW2 6256   5.534   2.905   2.374  0.8606 -0.1868  1.1823
 1621SOL    HW3 6257   5.533   3.034   2.294 -0.3861 -0.0858  1.3383
 1621SOL    MW4 6258   5.560   2.952   2.305 -0.4400 -0.2034  0.6546
 1622SOL     OW 6259   3.704   0.309   3.502  0.2477  0.2102 -0.1303
 1622SOL    HW2 6260   3.679   0.370   3.571  0.5488  0.4283 -0.2141
 1622SOL    HW3 6261   3.623   0.295   3.452  0.0568  0.1393  0.1936
 1622SOL    MW4 6262   3.690   0.315   3.505  0.2622  0.2296 -0.0986
 1623SOL     OW 6263   6.415   2.344   0.539  0.1063  0.4986 -0.5786
 1623SOL    HW2 6264   6.469   2.291   0.481 -0.9385  0.2024 -1.2994
 1623SOL    HW3 6265   6.385   2.282   0.606  0.2909  0.5647 -0.4337
 1623SOL    MW4 6266   6.418   2.329   0.541 -0.0072  0.4682 -0.6546
 1624SOL     OW 6267   4.159   4.653   4.186 -0.6081  0.4173 -0.5028
 1624SOL    HW2 6268   4.199   4.603   4.115 -0.3829 -1.5654  0.9272
 1624SOL    HW3 6269   4.140   4.738   4.148 -2.3021 -1.1297 -3.5538
 1624SOL    MW4 6270   4.162   4.657   4.172 -0.8019 -0.0484 -0.7167
 1625SOL     OW 6271   3.374   0.269   3.705  0.2388 -0.8984  0.3081
 1625SOL    HW2 6272   3.378   0.173   3.705  4.4073 -0.9464  2.0159
 1625SOL    HW3 6273   3.323   0.291   3.782 -1.6109 -1.6582 -0.6505
 1625SOL    MW4 6274   3.368   0.259   3.715  0.5448 -1.0050  0.4069
 1626SOL     OW 6275   3.685   2.837   1.683 -0.1770 -0.5112 -0.4485
 1626SOL    HW2 6276   3.612   2.866   1.738  1.1434  1.3861  0.4269
 1626SOL    HW3 6277   3.759   2.828   1.744  0.7974 -0.4489 -1.5846
 1626SOL    MW4 6278   3.685   2.840   1.698  0.1258 -0.2527 -0.4829
 1627SOL     OW 6279   1.216   0.800   5.989  0.6661 -0.3960  0.3155
 1627SOL    HW2 6280   1.131   0.758   5.992  0.2682  0.4156  0.7224
 1627SOL    HW3 6281   1.252   0.775   5.904 -0.1977 -0.3222 -0.0812
 1627SOL    MW4 6282   1.210   0.791   5.978  0.4996 -0.2792  0.3168
 1628SOL     OW 6283   0.997   3.964   2.608 -0.2753  0.0040 -0.3719
 1628SOL    HW2 6284   1.079   3.918   2.588 -0.2494  0.4369 -1.3360
 1628SOL    HW3 6285   1.019   4.056   2.599 -0.8781  0.1200 -0.6749
 1628SOL    MW4 6286   1.011   3.970   2.604 -0.3514  0.0764 -0.5391
 1629SOL     OW 6287   1.011   4.934   4.836  0.2407  0.1389  0.0539
 1629SOL    HW2 6288   1.079   4.891   4.785  1.2730 -0.9781  2.2368
 1629SOL    HW3 6289   1.032   4.913   4.927 -3.3874 -0.7805  0.8274
 1629SOL    MW4 6290   1.023   4.926   4.841 -0.1018 -0.1298  0.4440
 1630SOL     OW 6291   0.367   0.185   0.397 -0.3980  0.3360  0.1043
 1630SOL    HW2 6292   0.363   0.255   0.332 -0.4622 -0.5880 -0.9120
 1630SOL    HW3 6293   0.283   0.140   0.389  0.1925 -0.7242 -0.2611
 1630SOL    MW4 6294   0.356   0.189   0.387 -0.3286  0.0742 -0.0780
 1631SOL     OW 6295   0.195   1.725   4.124 -0.4038  0.4888  0.2956
 1631SOL    HW2 6296   0.242   1.806   4.146  0.8155 -1.0857  4.7424
 1631SOL    HW3 6297   0.264   1.660   4.114 -1.4258 -0.6596  0.4550
 1631SOL    MW4 6298   0.210   1.727   4.126 -0.3777  0.1295  0.9033
 1632SOL     OW 6299   3.300   6.040   4.243 -0.4423 -0.3141 -0.5053
 1632SOL    HW2 6300   3.247   5.964   4.269  1.0474 -0.9501  0.8473
 1632SOL    HW3 6301   3.259   6.114   4.288 -1.6002 -0.3695 -1.4210
 1632SOL    MW4 6302   3.287   6.040   4.252 -0.3985 -0.4053 -0.4476
 1633SOL     OW 6303   5.832   5.542   2.002 -0.3236  0.8077 -0.6074
 1633SOL    HW2 6304   5.775   5.466   2.009 -0.9173  1.0979 -1.9742
 1633SOL    HW3 6305   5.898   5.529   2.070 -0.9324 -0.4715 -0.2383
 1633SOL    MW4 6306   5.834   5.530   2.012 -0.4822  0.6772 -0.7391
 1634SOL     OW 6307   4.243   3.557   3.687  0.7385 -0.2414  0.3187
 1634SOL    HW2 6308   4.279   3.523   3.769 -0.3219  0.5375  1.1376
 1634SOL    HW3 6309   4.305   3.625   3.660  0.6473  0.0942  0.9407
 1634SOL    MW4 6310   4.256   3.562   3.694  0.5866 -0.0943  0.5088
 1635SOL     OW 6311   2.551   5.941   1.539  0.3064  0.5707  0.5327
 1635SOL    HW2 6312   2.615   5.926   1.609  0.4286 -0.2424  0.2596
 1635SOL    HW3 6313   2.495   5.864   1.542 -0.0471  0.8112  0.1174
 1635SOL    MW4 6314   2.552   5.929   1.549  0.2759  0.4952  0.4419
 1636SOL     OW 6315   5.297   0.993   0.796 -0.0112  0.0133 -0.2555
 1636SOL    HW2 6316   5.322   1.012   0.705  0.2419  0.4217 -0.1035
 1636SOL    HW3 6317   5.253   0.909   0.791 -2.5562  1.3022 -1.1840
 1636SOL    MW4 6318   5.295   0.985   0.783 -0.3136  0.2373 -0.3579
 1637SOL     OW 6319   5.225   5.709   4.044 -0.3418 -0.5515 -0.5523
 1637SOL    HW2 6320   5.279   5.699   4.122 -0.4323  1.3836 -0.1832
 1637SOL    HW3 6321   5.285   5.692   3.971  0.6140  0.8069 -0.1295
 1637SOL    MW4 6322   5.240   5.705   4.044 -0.2277 -0.1169 -0.4478
 1638SOL     OW 6323   3.859   0.378   5.607 -0.8097  0.2300 -0.3499
 1638SOL    HW2 6324   3.807   0.368   5.527  1.2133 -1.1120 -1.5991
 1638SOL    HW3 6325   3.809   0.332   5.674 -2.6920  1.6295 -0.7256
 1638SOL    MW4 6326   3.846   0.370   5.605 -0.7911  0.2376 -0.5643
 1639SOL     OW 6327   5.010   1.609   1.031  0.1439 -0.2132 -0.0719
 1639SOL    HW2 6328   4.930   1.633   0.984 -0.4050 -1.3745  0.2451
 1639SOL    HW3 6329   4.993   1.521   1.064  1.3664 -0.2730  0.4343
 1639SOL    MW4 6330   4.997   1.601   1.029  0.2328 -0.3743  0.0367
 1640SOL     OW 6331   2.911   6.293   3.528  0.8120  0.3708 -0.6829
 1640SOL    HW2 6332   2.933   6.381   3.499 -0.7797  1.3060  0.7514
 1640SOL    HW3 6333   2.913   6.297   3.624 -3.0596  0.0308 -0.4162
 1640SOL    MW4 6334   2.914   6.305   3.537  0.0912  0.4493 -0.4585
 1641SOL     OW 6335   3.056   1.188   3.876 -0.5048 -0.2139  0.1406
 1641SOL    HW2 6336   3.136   1.230   3.847 -0.6905 -0.0725 -0.1776
 1641SOL    HW3 6337   3.074   1.160   3.966 -0.2235  0.1327  0.1944
 1641SOL    MW4 6338   3.069   1.190   3.884 -0.4922 -0.1495  0.1057
 1642SOL     OW 6339   0.257   2.330   1.827  0.2128  0.1481  0.4042
 1642SOL    HW2 6340   0.170   2.326   1.866 -0.2585  2.8551 -0.1652
 1642SOL    HW3 6341   0.245   2.303   1.736  0.0309  0.1836  0.4184
 1642SOL    MW4 6342   0.244   2.326   1.820  0.1266  0.5100  0.3309
 1643SOL     OW 6343   2.111   4.823   0.171 -0.0411 -0.6143 -0.5285
 1643SOL    HW2 6344   2.049   4.837   0.100 -0.7385  0.6502  0.2827
 1643SOL    HW3 6345   2.058   4.827   0.251  0.9444 -0.3646  0.1425
 1643SOL    MW4 6346   2.096   4.825   0.172 -0.0031 -0.4146 -0.3329
 1644SOL     OW 6347   5.219   2.287   2.443  0.6912  0.7902 -0.3193
 1644SOL    HW2 6348   5.254   2.293   2.532  0.1673  0.2739 -0.0666
 1644SOL    HW3 6349   5.169   2.205   2.443  0.0246  1.1911 -0.8570
 1644SOL    MW4 6350   5.217   2.277   2.455  0.5341  0.7750 -0.3569
 1645SOL     OW 6351   2.816   0.732   0.142 -0.5039 -0.1400 -0.0642
 1645SOL    HW2 6352   2.818   0.671   0.068  1.1838  0.5339 -0.6447
 1645SOL    HW3 6353   2.755   0.801   0.115 -0.0481  0.0019 -0.7940
 1645SOL    MW4 6354   2.808   0.733   0.128 -0.2211 -0.0323 -0.2371
 1646SOL     OW 6355   3.016   2.023   1.287 -0.2162 -0.2582 -0.3307
 1646SOL    HW2 6356   2.979   1.977   1.212 -0.9569 -0.3750  0.0886
 1646SOL    HW3 6357   2.981   1.976   1.363  1.0090 -0.5255  0.0983
 1646SOL    MW4 6358   3.006   2.011   1.287 -0.1523 -0.3089 -0.2188
 1647SOL     OW 6359   0.077   3.165   0.397 -0.4704 -0.0904  0.1748
 1647SOL    HW2 6360   0.132   3.241   0.413  0.4312 -1.0269  1.7689
 1647SOL    HW3 6361   0.109   3.129   0.314  0.1154  0.3844  0.1898
 1647SOL    MW4 6362   0.089   3.170   0.388 -0.2741 -0.1513  0.3871
 1648SOL     OW 6363   0.128   3.077   5.525 -0.0529 -0.3755  0.0835
 1648SOL    HW2 6364   0.183   3.091   5.448  0.2696  2.2626  0.7021
 1648SOL    HW3 6365   0.073   3.155   5.530 -2.3396 -1.9259  0.7621
 1648SOL    MW4 6366   0.128   3.089   5.515 -0.3120 -0.2320  0.2546
 1649SOL     OW 6367   4.220   2.831   2.694  0.0255  0.1386  0.1075
 1649SOL    HW2 6368   4.207   2.759   2.756  0.2551 -0.5666 -0.6389
 1649SOL    HW3 6369   4.183   2.798   2.612 -3.8368  2.4431  0.6648
 1649SOL    MW4 6370   4.213   2.817   2.691 -0.4538  0.3496  0.0826
 1650SOL     OW 6371   2.794   2.552   5.258 -0.3333 -0.1614 -0.0216
 1650SOL    HW2 6372   2.708   2.594   5.257 -0.5534 -0.4956 -2.6518
 1650SOL    HW3 6373   2.787   2.485   5.326 -1.6623  0.7474  0.7812
 1650SOL    MW4 6374   2.782   2.548   5.267 -0.5377 -0.0856 -0.2627
 1651SOL     OW 6375   2.379   5.594   4.491  0.0739  0.3016 -0.0082
 1651SOL    HW2 6376   2.406   5.621   4.578  0.0978 -0.5726  0.2684
 1651SOL    HW3 6377   2.423   5.510   4.477 -2.7453 -1.4229  0.6431
 1651SOL    MW4 6378   2.388   5.586   4.501 -0.2949 -0.0413  0.1142
 1652SOL     OW 6379   3.223   6.155   0.843  0.0773  0.3639  0.6259
 1652SOL    HW2 6380   3.180   6.231   0.883  0.1420  1.6400 -1.5705
 1652SOL    HW3 6381   3.152   6.108   0.800  0.4660  0.9583 -0.6941
 1652SOL    MW4 6382   3.208   6.159   0.843  0.1371  0.6107  0.1619
 1653SOL     OW 6383   0.009   1.944   1.898 -0.8606 -0.3191 -0.1064
 1653SOL    HW2 6384   0.039   1.993   1.974 -1.8454 -0.8742  0.6636
 1653SOL    HW3 6385   0.050   1.987   1.824  0.2971  0.0978  0.7502
 1653SOL    MW4 6386   0.018   1.956   1.898 -0.8378 -0.3374  0.1082
 1654SOL     OW 6387   4.509   0.141   3.170 -0.3045 -0.1191  0.8592
 1654SOL    HW2 6388   4.535   0.231   3.152  0.2116 -0.2031  1.1703
 1654SOL    HW3 6389   4.467   0.144   3.256 -1.9415  0.1240  0.0934
 1654SOL    MW4 6390   4.507   0.153   3.179 -0.4524 -0.0981  0.7992
 1655SOL     OW 6391   3.019   1.052   2.328  0.2980 -0.3684  0.3032
 1655SOL    HW2 6392   3.004   0.964   2.363  0.3192  0.3671  2.3050
 1655SOL    HW3 6393   2.935   1.077   2.290  0.5366 -1.5561 -1.0870
 1655SOL    MW4 6394   3.006   1.044   2.327  0.3322 -0.4281  0.3839
 1656SOL     OW 6395   0.911   0.179   2.709  0.0187  0.1582  0.2394
 1656SOL    HW2 6396   0.928   0.243   2.641 -1.5263  0.0268 -0.2951
 1656SOL    HW3 6397   0.837   0.214   2.759 -0.8327 -1.1475 -0.0350
 1656SOL    MW4 6398   0.904   0.192   2.707 -0.2974 -0.0314  0.1327
 1657SOL     OW 6399   1.799   3.488   5.527 -0.7677 -0.1850 -0.2203
 1657SOL    HW2 6400   1.758   3.572   5.550 -1.4051 -0.6424  0.3311
 1657SOL    HW3 6401   1.788   3.434   5.605 -0.9453 -1.0076 -0.8137
 1657SOL    MW4 6402   1.793   3.492   5.540 -0.8752 -0.3538 -0.2258
 1658SOL     OW 6403   6.261   2.050   6.268  1.0573 -0.1196 -0.0412
 1658SOL    HW2 6404   6.346   2.014   6.242  1.1342 -0.6702  0.8886
 1658SOL    HW3 6405   6.209   1.973   6.292  0.0615  0.1649 -1.2246
 1658SOL    MW4 6406   6.265   2.035   6.268  0.9360 -0.1547 -0.0746
 1659SOL     OW 6407   2.057   2.885   4.476 -0.3526 -0.4019  0.3640
 1659SOL    HW2 6408   2.070   2.946   4.549 -4.7601 -0.2964  1.3578
 1659SOL    HW3 6409   2.052   2.799   4.517  0.9513 -0.8877 -0.4172
 1659SOL    MW4 6410   2.058   2.882   4.491 -0.7621 -0.4521  0.3921
 1660SOL     OW 6411   0.342   2.718   4.049  0.8306 -0.0876  0.2485
 1660SOL    HW2 6412   0.307   2.632   4.024  0.9290 -0.5685  1.6459
 1660SOL    HW3 6413   0.395   2.745   3.974 -0.0618 -0.7449 -0.6535
 1660SOL    MW4 6414   0.344   2.710   4.036  0.7258 -0.2378  0.3139
 1661SOL     OW 6415   6.253   5.246   0.103  0.3405 -0.2416  0.3530
 1661SOL    HW2 6416   6.331   5.299   0.120  0.5975  0.2168 -1.8768
 1661SOL    HW3 6417   6.185   5.285   0.158  1.1874  0.6985  0.7683
 1661SOL    MW4 6418   6.255   5.258   0.112  0.4861 -0.0571  0.1136
 1662SOL     OW 6419   3.213   3.012   4.115 -0.1079 -0.4111 -0.1384
 1662SOL    HW2 6420   3.193   3.103   4.136  1.4809 -0.1772  0.4803
 1662SOL    HW3 6421   3.176   2.999   4.028 -1.0799  0.5585  0.0981
 1662SOL    MW4 6422   3.205   3.022   4.107 -0.0265 -0.2523 -0.0256
 1663SOL     OW 6423   0.919   3.199   4.438  0.7015  0.8151  0.0893
 1663SOL    HW2 6424   0.921   3.151   4.520  1.2433  0.0047 -0.3785
 1663SOL    HW3 6425   0.847   3.160   4.389  1.1774  0.4272 -0.3141
 1663SOL    MW4 6426   0.910   3.187   4.442  0.8358  0.6570 -0.0256
 1664SOL     OW 6427   3.504   0.792   2.993  0.0187  0.1772  0.1146
 1664SOL    HW2 6428   3.570   0.792   3.062  0.4464 -0.2149 -0.2810
 1664SOL    HW3 6429   3.432   0.843   3.028  0.7524  1.0900  0.3468
 1664SOL    MW4 6430   3.504   0.799   3.006  0.1720  0.2459  0.0931
 1665SOL     OW 6431   2.808   2.242   5.494 -0.2025  0.4000 -0.4889
 1665SOL    HW2 6432   2.852   2.254   5.577 -0.7769 -0.0409 -0.1109
 1665SOL    HW3 6433   2.735   2.305   5.496 -0.2030  0.4054 -0.6632
 1665SOL    MW4 6434   2.804   2.252   5.505 -0.2783  0.3425 -0.4620
 1666SOL     OW 6435   6.266   5.268   1.092 -0.2069 -0.5098  0.1610
 1666SOL    HW2 6436   6.238   5.345   1.142  0.7792 -0.5939  0.8727
 1666SOL    HW3 6437   6.310   5.213   1.157  2.2550 -0.0458 -1.0368
 1666SOL    MW4 6438   6.268   5.271   1.107  0.2481 -0.4597  0.0968
 1667SOL     OW 6439   2.170   3.724   3.267 -0.1446  0.4982  0.1266
 1667SOL    HW2 6440   2.156   3.814   3.240 -1.2054 -0.0195 -1.1658
 1667SOL    HW3 6441   2.098   3.704   3.327 -0.5868  0.1600 -0.5111
 1667SOL    MW4 6442   2.159   3.733   3.271 -0.3429  0.3853 -0.1281
 1668SOL     OW 6443   2.119   3.099   0.846 -0.3439 -0.0999  0.0882
 1668SOL    HW2 6444   2.090   3.089   0.937 -2.5312  0.6441 -0.4590
 1668SOL    HW3 6445   2.205   3.141   0.852 -0.8830  0.8506  1.8100
 1668SOL    MW4 6446   2.126   3.103   0.859 -0.7036  0.1237  0.2432
 1669SOL     OW 6447   4.302   1.923   3.133  0.2644  0.0043  0.1348
 1669SOL    HW2 6448   4.348   2.001   3.163  0.4300 -0.0310 -0.0285
 1669SOL    HW3 6449   4.370   1.857   3.120  0.4278  0.5009 -1.9032
 1669SOL    MW4 6450   4.317   1.924   3.135  0.3078  0.0651 -0.1556
 1670SOL     OW 6451   5.403   4.742   1.693  0.0842  0.0238  0.0904
 1670SOL    HW2 6452   5.386   4.759   1.785 -0.8906  2.1001 -0.4036
 1670SOL    HW3 6453   5.474   4.803   1.670  0.9913 -1.1557 -0.3182
 1670SOL    MW4 6454   5.410   4.752   1.702  0.0752  0.1421 -0.0287
 1671SOL     OW 6455   0.823   2.130   2.943 -0.3937  0.5398 -0.4148
 1671SOL    HW2 6456   0.884   2.201   2.927  0.2268 -0.4580 -2.8902
 1671SOL    HW3 6457   0.878   2.056   2.969 -0.8087  0.3296 -0.1223
 1671SOL    MW4 6458   0.838   2.129   2.945 -0.3666  0.3804 -0.7028
 1672SOL     OW 6459   2.662   3.986   0.244 -0.0072  0.0044 -0.6455
 1672SOL    HW2 6460   2.731   4.040   0.204  1.3473 -0.7803  0.5076
 1672SOL    HW3 6461   2.588   4.045   0.255  1.1531  1.4202 -0.1574
 1672SOL    MW4 6462   2.662   4.001   0.240  0.3246  0.0877 -0.4289
 1673SOL     OW 6463   0.925   3.143   2.340  0.0972 -0.8899 -0.3069
 1673SOL    HW2 6464   0.845   3.188   2.313  0.3880 -0.9077 -1.2387
 1673SOL    HW3 6465   0.897   3.083   2.408 -0.3141  0.6484  0.9591
 1673SOL    MW4 6466   0.911   3.141   2.345  0.0813 -0.6893 -0.2628
 1674SOL     OW 6467   0.175   0.623   3.602  0.1667 -0.1093 -0.1532
 1674SOL    HW2 6468   0.238   0.602   3.533 -0.9168 -0.2877 -1.0992
 1674SOL    HW3 6469   0.118   0.690   3.563 -1.0928 -0.9537  0.1948
 1674SOL    MW4 6470   0.176   0.629   3.588 -0.1424 -0.2442 -0.2321
 1675SOL     OW 6471   2.888   5.670   3.272 -0.1880 -0.5130 -0.1957
 1675SOL    HW2 6472   2.819   5.603   3.273  0.8941 -1.6892  0.9816
 1675SOL    HW3 6473   2.876   5.718   3.354 -0.5088  0.2763 -0.6954
 1675SOL    MW4 6474   2.877   5.667   3.283 -0.0875 -0.5640 -0.1063
 1676SOL     OW 6475   0.289   3.781   3.469  0.5985  0.3921 -0.1472
 1676SOL    HW2 6476   0.329   3.822   3.392 -1.3440 -0.4011 -1.6523
 1676SOL    HW3 6477   0.196   3.803   3.463  0.3131 -0.0774  1.7653
 1676SOL    MW4 6478   0.282   3.790   3.458  0.3046  0.2255 -0.0935
 1677SOL     OW 6479   2.518   3.101   5.850  0.6978  0.1533 -0.4865
 1677SOL    HW2 6480   2.603   3.071   5.817  0.5437  1.2510 -1.9823
 1677SOL    HW3 6481   2.534   3.120   5.943  1.2695 -2.6021  0.0949
 1677SOL    MW4 6482   2.532   3.099   5.858  0.7529 -0.0654 -0.6072
 1678SOL     OW 6483   3.987   5.037   2.671  0.7443 -0.6364  0.4692
 1678SOL    HW2 6484   4.054   4.986   2.627  0.5688 -0.2191 -0.3110
 1678SOL    HW3 6485   4.035   5.099   2.726  0.9687 -1.0599  0.7530
 1678SOL    MW4 6486   4.002   5.039   2.673  0.7508 -0.6372  0.4037
 1679SOL     OW 6487   6.377   3.047   2.403 -0.3502 -0.7063 -0.5002
 1679SOL    HW2 6488   6.330   2.967   2.425  3.0056 -3.5946 -2.7398
 1679SOL    HW3 6489   6.470   3.025   2.414  0.7884  3.3712  0.0152
 1679SOL    MW4 6490   6.383   3.034   2.407  0.2428 -0.5494 -0.7277
 1680SOL     OW 6491   0.178   1.689   2.732  0.1764 -0.1744  0.0197
 1680SOL    HW2 6492   0.164   1.632   2.657  0.7230  1.0305 -1.0313
 1680SOL    HW3 6493   0.258   1.737   2.712 -0.1365  0.8000  0.9662
 1680SOL    MW4 6494   0.186   1.688   2.720  0.2072  0.1131  0.0059
 1681SOL     OW 6495   2.966   1.482   2.324 -0.5554  0.1093 -0.1015
 1681SOL    HW2 6496   2.930   1.426   2.392 -0.5526  0.2272 -0.0017
 1681SOL    HW3 6497   3.045   1.437   2.294 -0.5925  0.0252 -0.0728
 1681SOL    MW4 6498   2.972   1.469   2.329 -0.5599  0.1138 -0.0845
 1682SOL     OW 6499   5.034   5.327   5.158 -0.3072 -0.1814  0.1272
 1682SOL    HW2 6500   5.110   5.278   5.127  0.0626  0.2730  0.3133
 1682SOL    HW3 6501   4.976   5.260   5.194 -0.0811 -0.5498 -0.1816
 1682SOL    MW4 6502   5.036   5.312   5.159 -0.2286 -0.1701  0.1110
 1683SOL     OW 6503   1.086   5.035   3.136 -0.0328 -0.2747 -0.3607
 1683SOL    HW2 6504   1.153   4.976   3.170  0.3485 -1.4137 -2.8181
 1683SOL    HW3 6505   1.046   5.074   3.214  2.1902 -0.9742  1.2420
 1683SOL    MW4 6506   1.090   5.033   3.151  0.3108 -0.5173 -0.4735
 1684SOL     OW 6507   0.643   2.628   5.664  0.4944 -0.2869 -0.1785
 1684SOL    HW2 6508   0.574   2.574   5.626  0.1287 -1.8457  2.4695
 1684SOL    HW3 6509   0.679   2.676   5.589 -2.5373 -0.3659 -1.8742
 1684SOL    MW4 6510   0.639   2.627   5.649  0.0461 -0.5030 -0.0528
 1685SOL     OW 6511   1.272   3.364   4.553  0.2019  0.0641 -0.3831
 1685SOL    HW2 6512   1.283   3.302   4.626  0.3654  0.9196  0.3297
 1685SOL    HW3 6513   1.249   3.308   4.479  0.0860 -0.8336  0.3021
 1685SOL    MW4 6514   1.271   3.348   4.553  0.2082  0.0585 -0.1986
 1686SOL     OW 6515   3.021   1.600   4.002  0.0819 -0.2666  0.0952
 1686SOL    HW2 6516   3.100   1.637   3.961 -0.2998 -0.0271 -0.4377
 1686SOL    HW3 6517   2.998   1.525   3.946  0.2533 -0.6848  0.5755
 1686SOL    MW4 6518   3.028   1.595   3.989  0.0541 -0.2902  0.0883
 1687SOL     OW 6519   4.694   6.408   1.408 -0.0450 -0.4430  0.0063
 1687SOL    HW2 6520   4.777   6.421   1.362 -0.3813  1.2132 -0.1899
 1687SOL    HW3 6521   4.689   6.482   1.469 -0.5778 -1.4835  1.2776
 1687SOL    MW4 6522   4.705   6.419   1.410 -0.1597 -0.3618  0.1482
 1688SOL     OW 6523   2.364   2.410   5.261 -0.2396 -0.0637  0.2697
 1688SOL    HW2 6524   2.279   2.400   5.304 -0.7905  1.7654 -0.2918
 1688SOL    HW3 6525   2.342   2.438   5.172  0.9363 -0.8639 -0.2915
 1688SOL    MW4 6526   2.350   2.413   5.255 -0.1571  0.0721  0.1216
 1689SOL     OW 6527   3.117   6.228   4.405  0.5550  0.7027  0.2560
 1689SOL    HW2 6528   3.048   6.222   4.339  1.7150 -0.8098 -0.9120
 1689SOL    HW3 6529   3.076   6.198   4.486 -0.0395 -0.7431 -0.5400
 1689SOL    MW4 6530   3.102   6.223   4.407  0.6296  0.3124 -0.0031
 1690SOL     OW 6531   0.466   4.830   3.723 -0.5160 -0.8632 -0.2595
 1690SOL    HW2 6532   0.559   4.843   3.703 -0.2555 -0.2570  1.2183
 1690SOL    HW3 6533   0.433   4.778   3.649  1.1976 -1.9037 -0.3597
 1690SOL    MW4 6534   0.474   4.825   3.710 -0.2555 -0.9205 -0.0778
 1691SOL     OW 6535   0.871   4.519   2.979 -0.2878 -0.4141 -0.1920
 1691SOL    HW2 6536   0.901   4.428   2.980 -0.7886 -0.5813 -0.1624
 1691SOL    HW3 6537   0.908   4.557   3.059 -2.5458 -1.4217  1.4490
 1691SOL    MW4 6538   0.880   4.512   2.990 -0.6518 -0.5691  0.0284
 1692SOL     OW 6539   0.465   1.604   1.586 -0.7372 -0.0189  0.1755
 1692SOL    HW2 6540   0.501   1.686   1.621  0.0233 -1.0361  1.9225
 1692SOL    HW3 6541   0.541   1.545   1.583 -1.1809 -0.5417 -1.4864
 1692SOL    MW4 6542   0.480   1.607   1.590 -0.6954 -0.2221  0.1867
 1693SOL     OW 6543   2.750   3.078   1.719  0.6773  0.4259  0.1372
 1693SOL    HW2 6544   2.730   3.169   1.739  3.0511  0.9358  0.3855
 1693SOL    HW3 6545   2.695   3.028   1.779 -0.1411  1.6893  0.4792
 1693SOL    MW4 6546   2.740   3.083   1.729  0.8825  0.6598  0.2151
 1694SOL     OW 6547   6.279   0.916   3.622  0.2102  0.0102 -0.0184
 1694SOL    HW2 6548   6.320   0.937   3.706  0.0092 -1.1343  0.3862
 1694SOL    HW3 6549   6.213   0.850   3.643  0.2264 -0.3686 -1.0843
 1694SOL    MW4 6550   6.276   0.910   3.636  0.1858 -0.1908 -0.1057
 1695SOL     OW 6551   1.287   2.216   6.399 -0.2877  0.1561 -0.3143
 1695SOL    HW2 6552   1.235   2.267   6.337  0.3741  0.3357 -0.7222
 1695SOL    HW3 6553   1.312   2.279   6.466 -0.5285  0.0846 -0.1546
 1695SOL    MW4 6554   1.283   2.231   6.400 -0.2322  0.1703 -0.3470
 1696SOL     OW 6555   5.875   2.074   2.771  0.0464  0.2380 -0.2911
 1696SOL    HW2 6556   5.786   2.110   2.768  0.5291  1.6438  1.0293
 1696SOL    HW3 6557   5.862   1.979   2.768 -1.7751  0.1898  3.2290
 1696SOL    MW4 6558   5.861   2.066   2.770 -0.1303  0.4171  0.3475
 1697SOL     OW 6559   2.935   0.137   3.415 -0.3665 -0.4776  0.4492
 1697SOL    HW2 6560   2.956   0.155   3.323  0.5290 -1.9964  0.3378
 1697SOL    HW3 6561   2.843   0.165   3.423  0.3916  2.5470 -0.0700
 1697SOL    MW4 6562   2.925   0.143   3.404 -0.1483 -0.2789  0.3660
 1698SOL     OW 6563   0.749   5.254   2.954 -0.1933  0.0473  0.0674
 1698SOL    HW2 6564   0.690   5.213   2.891  0.1122  1.1797 -1.0045
 1698SOL    HW3 6565   0.824   5.281   2.901  0.5396  0.0860  1.1165
 1698SOL    MW4 6566   0.751   5.252   2.938 -0.0563  0.2018  0.0644
 1699SOL     OW 6567   4.098   0.434   3.415 -0.2981  0.1731  0.2174
 1699SOL    HW2 6568   4.108   0.339   3.420  0.5918  0.1940 -0.7454
 1699SOL    HW3 6569   4.183   0.468   3.443 -1.0779  0.7607  2.0194
 1699SOL    MW4 6570   4.111   0.426   3.419 -0.2836  0.2534  0.3281
 1700SOL     OW 6571   3.054   0.763   3.362 -0.0483  0.0704  0.0146
 1700SOL    HW2 6572   3.034   0.755   3.269  1.4613  1.6598 -0.4999
 1700SOL    HW3 6573   3.030   0.853   3.384 -2.4828 -0.9021  1.7670
 1700SOL    MW4 6574   3.048   0.774   3.353 -0.1703  0.1518  0.1779
 1701SOL     OW 6575   4.735   3.061   4.197  0.1927  0.9763  0.1291
 1701SOL    HW2 6576   4.778   3.140   4.167  2.0251  0.0894  0.2701
 1701SOL    HW3 6577   4.770   2.992   4.140  2.0469 -0.3948  2.7361
 1701SOL    MW4 6578   4.745   3.062   4.185  0.6791  0.6784  0.4917
 1702SOL     OW 6579   3.973   0.935   4.348 -0.1016  0.2834  0.7033
 1702SOL    HW2 6580   3.935   1.018   4.376  1.6966  1.2044  0.5555
 1702SOL    HW3 6581   3.944   0.872   4.413 -0.4930  1.2780  1.5112
 1702SOL    MW4 6582   3.964   0.938   4.360  0.0840  0.5361  0.7904
 1703SOL     OW 6583   2.428   1.780   5.111  0.0136  0.6222 -0.2612
 1703SOL    HW2 6584   2.500   1.740   5.063  1.0106  1.8582  0.1444
 1703SOL    HW3 6585   2.349   1.736   5.079  0.8189  0.1925 -1.7030
 1703SOL    MW4 6586   2.427   1.769   5.101  0.2514  0.7286 -0.3979
 1704SOL     OW 6587   0.907   0.128   0.402  0.0673  0.8009 -0.4627
 1704SOL    HW2 6588   0.859   0.087   0.474 -0.5813 -0.7872 -1.7367
 1704SOL    HW3 6589   0.992   0.149   0.439  0.2414 -1.2372  0.4268
 1704SOL    MW4 6590   0.912   0.125   0.417  0.0047  0.3224 -0.5134
 1705SOL     OW 6591   6.177   3.191   5.757  0.1589  0.4993  0.0408
 1705SOL    HW2 6592   6.239   3.264   5.747  0.4669  0.0349 -1.7471
 1705SOL    HW3 6593   6.227   3.113   5.733 -0.4530 -0.2102  0.9608
 1705SOL    MW4 6594   6.192   3.190   5.753  0.1188  0.3444 -0.0737
 1706SOL     OW 6595   4.690   1.456   1.070  0.1108  0.5119 -0.3182
 1706SOL    HW2 6596   4.673   1.508   0.992  1.1775  0.1759 -0.7876
 1706SOL    HW3 6597   4.769   1.406   1.050  0.3205  0.3035  0.9171
 1706SOL    MW4 6598   4.698   1.456   1.057  0.2792  0.4401 -0.2172
 1707SOL     OW 6599   2.831   4.169   5.818  0.6193 -0.4363  0.2221
 1707SOL    HW2 6600   2.819   4.080   5.850 -0.1396 -1.4727 -2.6339
 1707SOL    HW3 6601   2.751   4.215   5.841  0.2358 -1.0474  0.1287
 1707SOL    MW4 6602   2.819   4.163   5.825  0.4685 -0.6537 -0.1671
 1708SOL     OW 6603   1.846   2.591   0.302  0.3279 -0.1172 -0.6143
 1708SOL    HW2 6604   1.875   2.671   0.346 -0.4018  0.0668 -0.4601
 1708SOL    HW3 6605   1.876   2.602   0.212 -0.1415  0.5344 -0.7020
 1708SOL    MW4 6606   1.854   2.603   0.296  0.1697 -0.0069 -0.6056
 1709SOL     OW 6607   2.211   0.134   1.406 -0.3417  0.1437 -0.2659
 1709SOL    HW2 6608   2.204   0.227   1.385  3.1028  0.8021  0.8588
 1709SOL    HW3 6609   2.300   0.110   1.380  0.9226 -1.3368  4.4807
 1709SOL    MW4 6610   2.222   0.143   1.399  0.2796  0.0352  0.5088
 1710SOL     OW 6611   5.334   1.060   0.137  0.3875  0.2797  0.0818
 1710SOL    HW2 6612   5.392   1.128   0.172  0.3274  0.2741  0.1930
 1710SOL    HW3 6613   5.331   0.994   0.206 -0.8173  0.8991  0.6507
 1710SOL    MW4 6614   5.341   1.060   0.151  0.2206  0.3607  0.1716
 1711SOL     OW 6615   4.634   1.011   6.342 -0.1124 -0.6743 -0.1234
 1711SOL    HW2 6616   4.695   1.067   6.391 -0.6240 -0.2335  0.0135
 1711SOL    HW3 6617   4.550   1.055   6.350 -0.3603 -1.0413 -0.7015
 1711SOL    MW4 6618   4.631   1.024   6.349 -0.2126 -0.6645 -0.1816
 1712SOL     OW 6619   0.997   5.581   5.997 -0.0279 -0.1305  0.2294
 1712SOL    HW2 6620   1.022   5.542   6.080  0.1777  1.0751  0.7637
 1712SOL    HW3 6621   1.076   5.575   5.943 -0.6466 -2.4585 -0.5392
 1712SOL    MW4 6622   1.011   5.575   6.001 -0.0824 -0.2786  0.1985
 1713SOL     OW 6623   5.122   0.415   1.489  0.0409  0.8940 -0.4924
 1713SOL    HW2 6624   5.072   0.369   1.556 -0.4313  1.2431 -0.6000
 1713SOL    HW3 6625   5.212   0.384   1.501 -0.3895 -0.6489 -1.0795
 1713SOL    MW4 6626   5.127   0.405   1.500 -0.0782  0.7365 -0.5840
 1714SOL     OW 6627   0.021   5.376   0.290  0.5803 -0.2743 -0.0682
 1714SOL    HW2 6628  -0.020   5.413   0.368  0.8389 -1.0411  0.4436
 1714SOL    HW3 6629   0.061   5.295   0.320 -0.8558 -1.5194 -1.3667
 1714SOL    MW4 6630   0.021   5.370   0.304  0.4250 -0.5397 -0.1720
 1715SOL     OW 6631   1.233   3.177   4.118 -0.5626 -0.3471  0.0848
 1715SOL    HW2 6632   1.315   3.129   4.105 -1.5190 -1.5258 -2.2027
 1715SOL    HW3 6633   1.165   3.117   4.088 -2.3465  0.4973  2.1564
 1715SOL    MW4 6634   1.235   3.163   4.112 -0.9241 -0.3912  0.0563
 1716SOL     OW 6635   2.290   0.444   4.045 -0.3058  0.0568  0.2284
 1716SOL    HW2 6636   2.234   0.391   4.101  0.1473 -0.3769  0.2732
 1716SOL    HW3 6637   2.258   0.534   4.058 -0.8094 -0.1528  0.4613
 1716SOL    MW4 6638   2.279   0.449   4.054 -0.3124 -0.0281  0.2651
 1717SOL     OW 6639   5.407   1.845  -0.008 -0.2899  0.3276  0.0128
 1717SOL    HW2 6640   5.400   1.753  -0.033 -0.3833  0.4729 -0.5084
 1717SOL    HW3 6641   5.415   1.892  -0.091  0.4379  0.7340  0.3053
 1717SOL    MW4 6642   5.407   1.839  -0.022 -0.2062  0.4004 -0.0173
 1718SOL     OW 6643   2.737   2.659   3.107  0.1091  0.0703 -0.4628
 1718SOL    HW2 6644   2.780   2.583   3.068  0.7070  0.3634 -0.3912
 1718SOL    HW3 6645   2.661   2.675   3.051  0.0085 -0.5414 -0.5118
 1718SOL    MW4 6646   2.733   2.651   3.095  0.1747  0.0283 -0.4598
 1719SOL     OW 6647   1.588   4.983   3.353  0.0184  0.5284  0.0252
 1719SOL    HW2 6648   1.671   4.936   3.355 -0.4909 -0.6593 -2.5489
 1719SOL    HW3 6649   1.580   5.013   3.263 -1.9527  1.3964  0.4388
 1719SOL    MW4 6650   1.598   4.981   3.342 -0.3089  0.4862 -0.2598
 1720SOL     OW 6651   4.826   2.028   1.940 -0.3045  0.1340 -0.9288
 1720SOL    HW2 6652   4.785   1.996   2.021  0.6849 -0.1550 -0.5233
 1720SOL    HW3 6653   4.761   2.011   1.872 -0.4776 -1.2160 -0.4552
 1720SOL    MW4 6654   4.812   2.021   1.942 -0.1968 -0.0823 -0.8128
 1721SOL     OW 6655   3.438   2.388   2.541 -0.3013  0.0816  0.0546
 1721SOL    HW2 6656   3.459   2.463   2.485 -0.7433 -0.5048 -0.9346
 1721SOL    HW3 6657   3.434   2.314   2.480 -3.6305 -0.1317  0.3289
 1721SOL    MW4 6658   3.440   2.388   2.525 -0.7988 -0.0239 -0.0397
 1722SOL     OW 6659   0.999   3.125   0.052  0.0680 -0.7343 -0.0248
 1722SOL    HW2 6660   1.064   3.131   0.122  0.2135 -3.6357  0.2195
 1722SOL    HW3 6661   0.915   3.117   0.098 -0.2483  0.8267 -0.2939
 1722SOL    MW4 6662   0.996   3.125   0.067  0.0455 -0.9112 -0.0281
 1723SOL     OW 6663   5.550   4.135   0.837 -0.0958 -0.1379 -0.1065
 1723SOL    HW2 6664   5.588   4.048   0.849  0.5737  0.4607  2.9056
 1723SOL    HW3 6665   5.614   4.181   0.784  1.5090 -0.3846  1.5042
 1723SOL    MW4 6666   5.563   4.129   0.832  0.2042 -0.0915  0.5034
 1724SOL     OW 6667   4.817   5.342   4.392 -0.4680  0.3996  0.3542
 1724SOL    HW2 6668   4.871   5.420   4.380  0.7537 -0.6171 -1.3039
 1724SOL    HW3 6669   4.746   5.351   4.328 -1.3264  0.9214  1.3468
 1724SOL    MW4 6670   4.815   5.353   4.382 -0.4201  0.3343  0.2664
 1725SOL     OW 6671   0.801   0.323   3.593  0.5323 -0.3962 -0.2037
 1725SOL    HW2 6672   0.835   0.243   3.553 -1.2154 -0.4399 -1.7775
 1725SOL    HW3 6673   0.867   0.390   3.575  0.7506 -0.8988 -1.3600
 1725SOL    MW4 6674   0.814   0.321   3.585  0.3305 -0.4683 -0.5639
 1726SOL     OW 6675   1.651   4.264   4.765  0.1253  0.3606 -0.0044
 1726SOL    HW2 6676   1.729   4.222   4.802 -0.3774 -1.9698 -1.3840
 1726SOL    HW3 6677   1.584   4.254   4.833 -0.1258 -1.6879 -0.4776
 1726SOL    MW4 6678   1.652   4.257   4.779  0.0259 -0.2171 -0.2488
 1727SOL     OW 6679   5.446   2.344   3.335 -0.4033  0.3057  0.1122
 1727SOL    HW2 6680   5.460   2.437   3.317  0.4615  0.2537  0.4331
 1727SOL    HW3 6681   5.505   2.299   3.274  1.4197  0.0858  1.9036
 1727SOL    MW4 6682   5.456   2.350   3.325 -0.0487  0.2698  0.3909
 1728SOL     OW 6683   3.371   2.668   2.835 -0.2726  0.0426 -0.2230
 1728SOL    HW2 6684   3.414   2.632   2.912  0.9482  1.2852 -0.2646
 1728SOL    HW3 6685   3.440   2.670   2.768 -1.5697 -2.0695 -1.7711
 1728SOL    MW4 6686   3.386   2.664   2.836 -0.2827 -0.0721 -0.4328
 1729SOL     OW 6687   2.563   5.045   2.174 -0.1459  0.1319 -0.1409
 1729SOL    HW2 6688   2.640   5.095   2.202  0.4236 -0.9604  0.3100
 1729SOL    HW3 6689   2.574   4.959   2.215  0.0509 -1.1404 -2.6587
 1729SOL    MW4 6690   2.574   5.040   2.183 -0.0448 -0.1800 -0.4136
 1730SOL     OW 6691   4.117   1.569   3.911 -0.1409 -0.3970 -0.3425
 1730SOL    HW2 6692   4.101   1.647   3.858  0.0743 -0.8284 -1.0652
 1730SOL    HW3 6693   4.067   1.500   3.868 -0.7483 -0.5564  0.5932
 1730SOL    MW4 6694   4.108   1.570   3.898 -0.1926 -0.4750 -0.3144
 1731SOL     OW 6695   2.744   4.079   4.680  0.0344  0.1487  0.5385
 1731SOL    HW2 6696   2.807   4.129   4.628  1.2065 -1.0159  0.7810
 1731SOL    HW3 6697   2.750   3.990   4.647  0.0713 -0.4140  1.9734
 1731SOL    MW4 6698   2.753   4.074   4.669  0.1939 -0.0792  0.7598
 1732SOL     OW 6699   2.225   2.455   4.960  0.4141 -0.6506 -0.3682
 1732SOL    HW2 6700   2.288   2.439   4.891 -1.4390 -0.4286 -2.2158
 1732SOL    HW3 6701   2.152   2.397   4.940 -1.6424  1.8524 -0.6651
 1732SOL    MW4 6702   2.224   2.445   4.948 -0.1017 -0.2911 -0.6512
 1733SOL     OW 6703   6.415   3.426   2.321  0.1366 -0.4458 -0.1634
 1733SOL    HW2 6704   6.472   3.405   2.394  0.8693  1.7371 -0.0392
 1733SOL    HW3 6705   6.461   3.392   2.244  0.0539 -1.4727  0.2236
 1733SOL    MW4 6706   6.428   3.419   2.320  0.2224 -0.2933 -0.0960
 1734SOL     OW 6707   5.391   4.445   1.813 -0.0196  0.3216  0.5014
 1734SOL    HW2 6708   5.388   4.525   1.760  0.6738 -0.4818 -0.7813
 1734SOL    HW3 6709   5.452   4.466   1.884 -0.1535  1.0667  0.4021
 1734SOL    MW4 6710   5.399   4.458   1.816  0.0542  0.3139  0.3191
 1735SOL     OW 6711   4.020   1.820   4.555  0.0126 -0.0059  0.2222
 1735SOL    HW2 6712   4.074   1.896   4.534  0.7482 -0.4149  0.5965
 1735SOL    HW3 6713   4.083   1.752   4.579 -0.6853 -0.3825  1.0271
 1735SOL    MW4 6714   4.035   1.821   4.555  0.0175 -0.1096  0.3778
 1736SOL     OW 6715   3.859   3.912   5.501 -0.2254  0.4412 -0.0741
 1736SOL    HW2 6716   3.824   4.001   5.502 -1.7677 -0.0142 -2.7194
 1736SOL    HW3 6717   3.793   3.861   5.454  1.6386 -1.6050 -0.6540
 1736SOL    MW4 6718   3.846   3.917   5.495 -0.1829  0.1111 -0.4996
 1737SOL     OW 6719   0.404   1.882   2.740  0.3423  0.7343 -0.0484
 1737SOL    HW2 6720   0.379   1.884   2.648 -0.3447 -1.6866  0.0181
 1737SOL    HW3 6721   0.344   1.944   2.783  0.7330  1.9567 -1.1912
 1737SOL    MW4 6722   0.393   1.891   2.734  0.3032  0.5762 -0.1904
 1738SOL     OW 6723   0.115   5.940   1.050 -0.2820 -0.7180  0.6772
 1738SOL    HW2 6724   0.028   5.976   1.033 -0.1823 -0.2048  1.2337
 1738SOL    HW3 6725   0.122   5.865   0.990 -1.1472 -0.8314  0.7086
 1738SOL    MW4 6726   0.105   5.935   1.039 -0.3830 -0.6652  0.7548
 1739SOL     OW 6727   5.661   0.877   5.562  0.4417  0.6730  0.2324
 1739SOL    HW2 6728   5.739   0.902   5.612 -1.4667  3.7339  2.0183
 1739SOL    HW3 6729   5.676   0.785   5.539  3.6385  0.5249  2.2246
 1739SOL    MW4 6730   5.673   0.868   5.566  0.6117  1.0573  0.7309
 1740SOL     OW 6731   4.044   2.515   1.836  0.0148  0.4848 -0.7321
 1740SOL    HW2 6732   4.012   2.449   1.774  0.4932  0.9407 -1.4721
 1740SOL    HW3 6733   4.138   2.517   1.823  0.5264 -1.2551  1.8225
 1740SOL    MW4 6734   4.052   2.506   1.826  0.1454  0.3154 -0.4927
 1741SOL     OW 6735   1.920   4.686   1.488 -0.0283 -0.0645  0.6693
 1741SOL    HW2 6736   1.831   4.696   1.523 -1.1598 -1.9579 -1.3756
 1741SOL    HW3 6737   1.965   4.632   1.552 -0.6483  0.1673  1.3084
 1741SOL    MW4 6738   1.914   4.680   1.501 -0.2594 -0.2838  0.4838
 1742SOL     OW 6739   3.571   1.912   3.925 -0.3647 -0.4873 -0.3025
 1742SOL    HW2 6740   3.625   1.903   4.004  3.0763  1.3940 -2.2014
 1742SOL    HW3 6741   3.526   1.995   3.936  0.2781 -0.1220 -0.3351
 1742SOL    MW4 6742   3.572   1.922   3.937  0.1741 -0.1909 -0.5573
 1743SOL     OW 6743   1.562   1.382   6.307  0.3496  0.4222 -0.1228
 1743SOL    HW2 6744   1.480   1.362   6.261  0.3552 -0.1711  0.1169
 1743SOL    HW3 6745   1.580   1.303   6.359  1.5208  0.1971 -0.8369
 1743SOL    MW4 6746   1.553   1.369   6.308  0.5048  0.3142 -0.1854
 1744SOL     OW 6747   6.019   4.252   0.047  0.0193  0.0594 -0.1724
 1744SOL    HW2 6748   6.011   4.228  -0.045 -2.2602 -1.7827  0.4089
 1744SOL    HW3 6749   6.029   4.168   0.092  4.6261  1.0203  1.1260
 1744SOL    MW4 6750   6.020   4.238   0.041  0.3264 -0.0569  0.0756
 1745SOL     OW 6751   4.901   4.234   2.024 -0.4753  0.0906  0.3810
 1745SOL    HW2 6752   4.822   4.257   1.975 -1.6708 -2.0282  1.1923
 1745SOL    HW3 6753   4.968   4.220   1.957 -1.2080  0.3743 -0.4322
 1745SOL    MW4 6754   4.900   4.235   2.009 -0.7297 -0.1516  0.3808
 1746SOL     OW 6755   3.601   4.820   1.717  0.1864  0.5097 -0.4572
 1746SOL    HW2 6756   3.530   4.872   1.755  0.9766 -0.1407  2.0631
 1746SOL    HW3 6757   3.681   4.866   1.743  0.7718  0.2596 -1.7385
 1746SOL    MW4 6758   3.602   4.833   1.725  0.3679  0.3909 -0.2937
 1747SOL     OW 6759   5.008   3.615   3.991  0.2567  0.4080  0.5601
 1747SOL    HW2 6760   5.041   3.535   4.033  0.6729  0.2087 -0.1207
 1747SOL    HW3 6761   5.044   3.612   3.902 -1.0620  0.5319 -0.0030
 1747SOL    MW4 6762   5.017   3.604   3.985  0.1376  0.3980  0.3960
 1748SOL     OW 6763   1.366   4.041   1.555 -0.1606  0.2367  0.1834
 1748SOL    HW2 6764   1.397   4.073   1.470  0.4893 -0.2932  0.2136
 1748SOL    HW3 6765   1.371   3.946   1.548 -2.1981  0.1130  0.0507
 1748SOL    MW4 6766   1.371   4.033   1.543 -0.3437  0.1505  0.1699
 1749SOL     OW 6767   0.138   3.082   3.338  0.0209 -0.3543 -0.5184
 1749SOL    HW2 6768   0.222   3.036   3.345 -0.2845 -1.3375 -2.5633
 1749SOL    HW3 6769   0.122   3.114   3.426  2.1016 -0.9164  0.1422
 1749SOL    MW4 6770   0.147   3.080   3.351  0.2551 -0.5582 -0.7010
 1750SOL     OW 6771   3.543   3.907   5.184  0.1265 -0.3636  0.3593
 1750SOL    HW2 6772   3.472   3.862   5.139  1.3325 -0.5492 -1.4754
 1750SOL    HW3 6773   3.499   3.969   5.242 -1.5256 -0.2081 -0.9872
 1750SOL    MW4 6774   3.528   3.909   5.186  0.0676 -0.3676 -0.0604
 1751SOL     OW 6775   0.442   5.762   4.421  0.0367 -0.1860 -0.8288
 1751SOL    HW2 6776   0.461   5.851   4.391  2.8231 -0.4588 -0.1650
 1751SOL    HW3 6777   0.499   5.706   4.369  0.2701 -1.2976  0.5551
 1751SOL    MW4 6778   0.452   5.766   4.410  0.4351 -0.3687 -0.5586
 1752SOL     OW 6779   0.694   2.276   4.012 -0.3400 -0.2531 -0.4187
 1752SOL    HW2 6780   0.769   2.279   3.952 -0.8079  1.9714 -0.9634
 1752SOL    HW3 6781   0.722   2.328   4.087 -1.2552  0.4062 -0.5324
 1752SOL    MW4 6782   0.708   2.283   4.014 -0.5225  0.1274 -0.5055
 1753SOL     OW 6783   5.520   0.828   0.604  0.1636 -0.7876  0.1128
 1753SOL    HW2 6784   5.454   0.759   0.614 -0.3085 -0.2009  1.2725
 1753SOL    HW3 6785   5.470   0.905   0.574  0.8525 -1.2059 -2.3241
 1753SOL    MW4 6786   5.505   0.829   0.602  0.1922 -0.7654 -0.0557
 1754SOL     OW 6787   4.664   3.840   5.482  0.3993  0.5933 -0.5522
 1754SOL    HW2 6788   4.625   3.892   5.551 -2.3881  0.2203 -1.7317
 1754SOL    HW3 6789   4.748   3.883   5.464  0.6669  1.3725  2.1669
 1754SOL    MW4 6790   4.670   3.853   5.488  0.0669  0.6469 -0.3491
 1755SOL     OW 6791   2.310   4.606   6.354  0.0872 -0.1007 -0.4326
 1755SOL    HW2 6792   2.295   4.691   6.312 -0.7039 -0.0790 -0.1218
 1755SOL    HW3 6793   2.223   4.577   6.381  0.3343 -1.0408 -0.5864
 1755SOL    MW4 6794   2.296   4.613   6.352  0.0154 -0.2218 -0.4119
 1756SOL     OW 6795   0.624   6.268   1.478  0.9897 -0.4753 -0.0590
 1756SOL    HW2 6796   0.608   6.346   1.425 -0.1474 -0.0055  0.9286
 1756SOL    HW3 6797   0.665   6.207   1.417 -0.8105 -0.1911 -1.6867
 1756SOL    MW4 6798   0.627   6.270   1.463  0.6022 -0.3758 -0.1435
 1757SOL     OW 6799   3.195   2.035   2.838 -0.2298 -0.2189 -0.3808
 1757SOL    HW2 6800   3.236   2.020   2.923 -0.3606  0.2921 -0.2195
 1757SOL    HW3 6801   3.108   2.070   2.860 -0.5096 -0.6942 -0.7208
 1757SOL    MW4 6802   3.189   2.038   2.852 -0.2840 -0.2142 -0.4044
 1758SOL     OW 6803   0.190   2.325   3.417 -0.4286 -0.4251 -0.2742
 1758SOL    HW2 6804   0.261   2.311   3.480 -0.3862 -3.0333 -0.8055
 1758SOL    HW3 6805   0.119   2.270   3.449 -0.7064 -1.1355 -2.0202
 1758SOL    MW4 6806   0.190   2.316   3.430 -0.4597 -0.8630 -0.5746
 1759SOL     OW 6807   4.095   1.953   5.874  0.6504  0.2331 -0.0504
 1759SOL    HW2 6808   4.151   2.030   5.889 -1.2308  1.3157  2.0843
 1759SOL    HW3 6809   4.070   1.924   5.962 -0.0546 -1.7992 -0.8678
 1759SOL    MW4 6810   4.099   1.959   5.888  0.3092  0.1078  0.1234
 1760SOL     OW 6811   4.982   5.613   1.524  0.5107  0.7113  0.7776
 1760SOL    HW2 6812   4.928   5.538   1.501 -1.0022  1.6034  1.2765
 1760SOL    HW3 6813   5.058   5.576   1.568  2.2249 -0.8809 -3.0278
 1760SOL    MW4 6814   4.985   5.598   1.527  0.5373  0.6189  0.3413
 1761SOL     OW 6815   4.113   5.950   1.431  0.2223 -0.2638 -0.0283
 1761SOL    HW2 6816   4.064   6.027   1.460  1.1872  0.5820 -0.6100
 1761SOL    HW3 6817   4.063   5.876   1.467 -0.9806  0.5948  0.1560
 1761SOL    MW4 6818   4.100   5.950   1.440  0.1909 -0.0389 -0.0807
 1762SOL     OW 6819   2.080   2.334   5.298 -0.1330 -0.0790 -0.6546
 1762SOL    HW2 6820   2.052   2.296   5.381 -0.7167  0.7856 -0.4438
 1762SOL    HW3 6821   2.124   2.262   5.252  0.4886 -0.4830  0.5311
 1762SOL    MW4 6822   2.082   2.320   5.303 -0.1280 -0.0182 -0.4704
 1763SOL     OW 6823   3.385   3.839   0.422 -0.2947  0.4357 -0.5330
 1763SOL    HW2 6824   3.477   3.821   0.401 -1.0175 -1.6899 -2.3436
 1763SOL    HW3 6825   3.342   3.846   0.337 -2.0265  0.0388  0.2620
 1763SOL    MW4 6826   3.392   3.838   0.408 -0.6186  0.1029 -0.6670
 1764SOL     OW 6827   3.705   4.196   0.377 -0.2677 -0.2081 -0.9077
 1764SOL    HW2 6828   3.645   4.252   0.426  1.9017  1.2359  0.2182
 1764SOL    HW3 6829   3.769   4.255   0.338  0.4896 -1.6843 -2.0380
 1764SOL    MW4 6830   3.705   4.211   0.378  0.1185 -0.2124 -0.9083
 1765SOL     OW 6831   0.351   6.256   4.610 -0.6380 -0.1891  0.3373
 1765SOL    HW2 6832   0.400   6.192   4.663  1.5300  1.2077  0.1575
 1765SOL    HW3 6833   0.416   6.322   4.587 -3.0234  2.7551  1.4951
 1765SOL    MW4 6834   0.366   6.256   4.614 -0.6667  0.3836  0.4663
 1766SOL     OW 6835   1.049   4.645   0.325  0.5484 -0.0545 -0.1179
 1766SOL    HW2 6836   1.009   4.661   0.411  0.3034 -1.5065  0.0546
 1766SOL    HW3 6837   1.042   4.730   0.280  0.2472  0.5985  1.1085
 1766SOL    MW4 6838   1.043   4.658   0.330  0.4763 -0.1599  0.0667
 1767SOL     OW 6839   3.843   0.563   2.555  0.3762  0.0721 -0.1681
 1767SOL    HW2 6840   3.828   0.582   2.463 -0.9270  0.9382  0.2008
 1767SOL    HW3 6841   3.774   0.502   2.579  1.5997 -1.3459 -0.1047
 1767SOL    MW4 6842   3.832   0.557   2.546  0.3657 -0.0007 -0.1110
 1768SOL     OW 6843   1.713   4.855   4.447 -0.3028 -0.5187  0.5446
 1768SOL    HW2 6844   1.654   4.781   4.460 -2.2158  1.0048  0.9520
 1768SOL    HW3 6845   1.775   4.825   4.381 -2.8771 -1.4853 -1.6028
 1768SOL    MW4 6846   1.713   4.841   4.440 -0.8949 -0.4452  0.3150
 1769SOL     OW 6847   1.729   5.803   6.391 -0.1969 -0.4553 -0.7939
 1769SOL    HW2 6848   1.746   5.709   6.380 -1.0264 -0.5431 -1.3911
 1769SOL    HW3 6849   1.802   5.834   6.445  0.1497 -1.4184 -0.6877
 1769SOL    MW4 6850   1.741   5.795   6.397 -0.2606 -0.5939 -0.8587
 1770SOL     OW 6851   4.807   6.165   2.132 -0.1923 -0.8788 -0.3195
 1770SOL    HW2 6852   4.717   6.188   2.109 -0.1840 -2.5452 -2.2371
 1770SOL    HW3 6853   4.830   6.227   2.202 -2.9916 -0.7989  0.6524
 1770SOL    MW4 6854   4.798   6.176   2.138 -0.5606 -1.0881 -0.4442
 1771SOL     OW 6855   0.475   4.871   0.924  0.0785 -0.1099  0.1788
 1771SOL    HW2 6856   0.554   4.908   0.963  0.6714 -1.3276  0.2023
 1771SOL    HW3 6857   0.483   4.889   0.831  0.7114 -0.7517  0.0963
 1771SOL    MW4 6858   0.486   4.878   0.917  0.2403 -0.3553  0.1710
 1772SOL     OW 6859   3.397   3.293   4.288  0.0988  0.3880  0.0692
 1772SOL    HW2 6860   3.372   3.258   4.374 -0.4890 -1.6126 -0.8649
 1772SOL    HW3 6861   3.325   3.351   4.264 -0.1400  0.2985  0.5640
 1772SOL    MW4 6862   3.384   3.296   4.296 -0.0103  0.1122  0.0113
 1773SOL     OW 6863   2.979   6.231   5.247 -0.0475 -0.1233 -0.0035
 1773SOL    HW2 6864   2.952   6.164   5.183  0.8576 -0.7962  0.2981
 1773SOL    HW3 6865   3.058   6.195   5.287  0.4604  1.1398  0.1682
 1773SOL    MW4 6866   2.986   6.217   5.243  0.1390 -0.0454  0.0590
 1774SOL     OW 6867   2.511   3.798   2.532  0.2611 -0.1775  0.2605
 1774SOL    HW2 6868   2.589   3.790   2.587  0.5742  3.5572  0.6284
 1774SOL    HW3 6869   2.539   3.765   2.447  1.7134 -0.5108  0.8269
 1774SOL    MW4 6870   2.525   3.793   2.528  0.4940  0.2712  0.3838
 1775SOL     OW 6871   5.743   3.675   6.362  0.3247  0.0980 -0.3571
 1775SOL    HW2 6872   5.715   3.750   6.414 -0.9614 -0.2423 -0.5310
 1775SOL    HW3 6873   5.833   3.659   6.390  0.4586  1.4024  0.0280
 1775SOL    MW4 6874   5.751   3.683   6.372  0.1726  0.2252 -0.3292
 1776SOL     OW 6875   0.665   5.604   3.165  0.1262  0.0775  0.6435
 1776SOL    HW2 6876   0.729   5.622   3.096 -1.4418 -0.3714 -1.0049
 1776SOL    HW3 6877   0.717   5.599   3.245  1.9173  1.4435 -0.3621
 1776SOL    MW4 6878   0.681   5.606   3.166  0.1556  0.1985  0.2933
 1777SOL     OW 6879   0.809   4.005   4.041 -0.3413  0.0273  0.2913
 1777SOL    HW2 6880   0.839   3.914   4.033  0.3307  0.1354  1.4658
 1777SOL    HW3 6881   0.881   4.057   4.005 -0.6350  0.1161 -0.1804
 1777SOL    MW4 6882   0.822   4.000   4.035 -0.2914  0.0532  0.3840
 1778SOL     OW 6883   6.287   4.951   1.678  1.3290 -0.2284 -0.3124
 1778SOL    HW2 6884   6.314   4.897   1.753  1.3043 -0.9446 -0.8037
 1778SOL    HW3 6885   6.358   4.938   1.614  0.6062 -0.8637 -1.0055
 1778SOL    MW4 6886   6.300   4.942   1.679  1.2304 -0.4067 -0.4687
 1779SOL     OW 6887   3.483   3.456   3.169 -0.1073 -0.1636  0.2415
 1779SOL    HW2 6888   3.561   3.401   3.179  0.2454  0.4437  0.8329
 1779SOL    HW3 6889   3.466   3.454   3.075  2.4490  2.1599 -0.3901
 1779SOL    MW4 6890   3.491   3.448   3.158  0.2765  0.2231  0.2362
 1780SOL     OW 6891   0.495   2.871   2.113  0.3476  0.1081 -0.1073
 1780SOL    HW2 6892   0.539   2.839   2.035  0.0219 -0.6118 -0.0088
 1780SOL    HW3 6893   0.500   2.966   2.107  0.6455  0.0511 -0.8154
 1780SOL    MW4 6894   0.502   2.879   2.102  0.3439  0.0056 -0.1877
 1781SOL     OW 6895   5.785   5.173   3.567 -0.1387 -0.1677  0.5668
 1781SOL    HW2 6896   5.873   5.160   3.600  0.0256 -0.3079  0.0838
 1781SOL    HW3 6897   5.797   5.218   3.484 -0.3079 -2.7255 -0.9758
 1781SOL    MW4 6898   5.798   5.177   3.560 -0.1394 -0.5237  0.2996
 1782SOL     OW 6899   4.942   0.196   1.628  0.2609  0.1127 -0.0730
 1782SOL    HW2 6900   4.973   0.216   1.716  0.2762  1.4058 -0.3528
 1782SOL    HW3 6901   4.982   0.112   1.608  0.5203 -0.0469  1.0286
 1782SOL    MW4 6902   4.952   0.188   1.637  0.2971  0.2622  0.0354
 1783SOL     OW 6903   3.701   3.534   2.661  0.4519 -0.0830  0.5608
 1783SOL    HW2 6904   3.661   3.582   2.733 -2.1758  0.1243 -0.9124
 1783SOL    HW3 6905   3.691   3.442   2.685 -1.8042 -0.0656 -0.1504
 1783SOL    MW4 6906   3.695   3.528   2.674 -0.1925 -0.0533  0.2726
 1784SOL     OW 6907   3.572   0.104   4.569  0.1882  0.3946 -0.4746
 1784SOL    HW2 6908   3.636   0.172   4.550  0.0217  0.6045 -0.2918
 1784SOL    HW3 6909   3.617   0.022   4.547 -0.0120  0.6245 -1.7747
 1784SOL    MW4 6910   3.586   0.102   4.564  0.1398  0.4526 -0.6220
 1785SOL     OW 6911   6.011   5.527   0.992  0.2830  0.0188 -0.3681
 1785SOL    HW2 6912   5.953   5.517   0.916  0.7828  2.7841 -1.2277
 1785SOL    HW3 6913   5.953   5.515   1.067 -0.9284  0.4516 -1.1976
 1785SOL    MW4 6914   5.995   5.524   0.992  0.1891  0.4408 -0.5910
 1786SOL     OW 6915   5.337   4.165   5.128 -0.4645  0.1929 -0.3672
 1786SOL    HW2 6916   5.355   4.074   5.108 -0.6768 -0.2081  1.1076
 1786SOL    HW3 6917   5.283   4.196   5.055  1.1098 -0.3120 -1.7947
 1786SOL    MW4 6918   5.332   4.157   5.116 -0.2848  0.0734 -0.3610
 1787SOL     OW 6919   2.270   0.387   5.217 -0.2009  0.3435  0.1819
 1787SOL    HW2 6920   2.187   0.386   5.264 -0.1565  0.2504  0.2587
 1787SOL    HW3 6921   2.246   0.410   5.127 -0.2288  1.0274  0.3543
 1787SOL    MW4 6922   2.256   0.390   5.211 -0.1987  0.4215  0.2148
 1788SOL     OW 6923   3.850   4.583   0.465  0.0323  0.2483 -0.1861
 1788SOL    HW2 6924   3.870   4.519   0.397  0.8726  1.0015 -0.6810
 1788SOL    HW3 6925   3.891   4.547   0.544 -1.0551 -0.6893 -0.0326
 1788SOL    MW4 6926   3.858   4.570   0.466 -0.0003  0.2240 -0.2311
 1789SOL     OW 6927   6.249   4.079   4.064  0.9401 -0.0320  0.5812
 1789SOL    HW2 6928   6.158   4.082   4.036  1.3960  0.2387 -0.9704
 1789SOL    HW3 6929   6.247   4.031   4.147 -0.4384 -1.2811 -0.1339
 1789SOL    MW4 6930   6.237   4.073   4.071  0.8183 -0.1611  0.2821
 1790SOL     OW 6931   5.270   5.607   0.470  0.1745 -0.4463 -0.5794
 1790SOL    HW2 6932   5.309   5.659   0.400 -0.2124  1.4342  0.5492
 1790SOL    HW3 6933   5.309   5.641   0.550 -2.4212  0.3384  0.4571
 1790SOL    MW4 6934   5.280   5.618   0.471 -0.2190 -0.0947 -0.2937
 1791SOL     OW 6935   1.374   0.348   3.035 -0.1768  0.0429 -0.1552
 1791SOL    HW2 6936   1.358   0.313   3.122  2.4643  2.5517  1.5133
 1791SOL    HW3 6937   1.288   0.373   3.003 -1.0345  1.4913  2.9242
 1791SOL    MW4 6938   1.361   0.347   3.042  0.0585  0.5650  0.4713
 1792SOL     OW 6939   1.135   6.168   1.397 -0.0761 -0.4072 -0.3360
 1792SOL    HW2 6940   1.063   6.226   1.371 -0.8511 -1.3469 -0.3550
 1792SOL    HW3 6941   1.184   6.219   1.462  0.1155  0.8029 -1.3815
 1792SOL    MW4 6942   1.132   6.182   1.402 -0.1531 -0.3715 -0.4764
 1793SOL     OW 6943   0.880   5.003   1.564 -0.1154  0.3746  0.2022
 1793SOL    HW2 6944   0.929   4.922   1.582 -0.8303 -0.1446 -0.1512
 1793SOL    HW3 6945   0.937   5.073   1.597  2.2211  0.0587 -2.7393
 1793SOL    MW4 6946   0.894   5.001   1.571  0.0986  0.2644 -0.2325
 1794SOL     OW 6947   1.835   3.063   6.147  0.0426  0.5643 -0.4640
 1794SOL    HW2 6948   1.877   2.978   6.159 -0.3581  0.4242  0.0347
 1794SOL    HW3 6949   1.899   3.116   6.100  1.0919  0.6094  0.9491
 1794SOL    MW4 6950   1.849   3.058   6.142  0.1281  0.5517 -0.2118
 1795SOL     OW 6951   5.019   3.614   0.100  0.0107  0.4500 -0.8462
 1795SOL    HW2 6952   5.046   3.528   0.131  0.9002  0.3897 -1.7355
 1795SOL    HW3 6953   4.928   3.603   0.071  0.3481 -0.3826 -1.6408
 1795SOL    MW4 6954   5.011   3.602   0.100  0.1725  0.3322 -1.0684
 1796SOL     OW 6955   0.746   4.980   3.670  0.6898  0.7505  0.5095
 1796SOL    HW2 6956   0.798   4.905   3.699  0.1420  0.3481  0.4718
 1796SOL    HW3 6957   0.749   4.976   3.575 -0.2425  0.1133  0.4859
 1796SOL    MW4 6958   0.753   4.970   3.661  0.4945  0.6133  0.5014
 1797SOL     OW 6959   6.010   0.612   1.878 -0.2731  1.0522  0.5264
 1797SOL    HW2 6960   5.930   0.660   1.901  0.9503  3.0080  1.0040
 1797SOL    HW3 6961   6.063   0.614   1.958  1.1991  1.8941 -0.4241
 1797SOL    MW4 6962   6.007   0.619   1.892  0.0826  1.4213  0.4640
 1798SOL     OW 6963   5.127   1.756   3.362  0.0669  0.3606 -0.7455
 1798SOL    HW2 6964   5.072   1.737   3.439  1.9331  0.2184  0.6202
 1798SOL    HW3 6965   5.137   1.672   3.319 -1.9347  0.6367 -1.8656
 1798SOL    MW4 6966   5.121   1.742   3.367  0.0490  0.3783 -0.7131
 1799SOL     OW 6967   1.096   3.028   3.644  0.2977  0.1718  0.4823
 1799SOL    HW2 6968   1.090   2.983   3.729  0.9330  2.3425  1.7492
 1799SOL    HW3 6969   1.184   3.009   3.613  0.1904 -0.3264  0.4662
 1799SOL    MW4 6970   1.107   3.019   3.651  0.3674  0.3924  0.6473
 1800SOL     OW 6971   4.432   3.568   6.399  0.4361  0.2052  0.1483
 1800SOL    HW2 6972   4.385   3.484   6.404 -1.4382  1.1224 -0.8927
 1800SOL    HW3 6973   4.513   3.548   6.352  0.5888 -1.2160  0.9544
 1800SOL    MW4 6974   4.436   3.554   6.393  0.2090  0.1387  0.1173
 1801SOL     OW 6975   4.330   5.836   1.304  0.3703  0.5016 -0.3123
 1801SOL    HW2 6976   4.330   5.769   1.371  2.3481 -0.1770 -0.9354
 1801SOL    HW3 6977   4.257   5.894   1.328 -1.0065 -1.4801  0.5730
 1801SOL    MW4 6978   4.320   5.835   1.316  0.4496  0.1506 -0.2777
 1802SOL     OW 6979   0.926   3.469   4.429  0.3671  0.3147  0.2048
 1802SOL    HW2 6980   0.980   3.506   4.500  1.7915  0.6683 -1.0138
 1802SOL    HW3 6981   0.935   3.375   4.439  0.4697  0.3584  0.5530
 1802SOL    MW4 6982   0.934   3.462   4.440  0.5686  0.3671  0.0899
 1803SOL     OW 6983   6.393   0.461   1.490  0.2585  0.4348 -0.0067
 1803SOL    HW2 6984   6.317   0.421   1.531  0.4220  0.3014  0.1712
 1803SOL    HW3 6985   6.374   0.458   1.396 -0.1859  0.8848  0.0656
 1803SOL    MW4 6986   6.381   0.455   1.483  0.2215  0.4765  0.0263
 1804SOL     OW 6987   2.441   3.334   6.073  0.1364 -0.0388  0.1613
 1804SOL    HW2 6988   2.406   3.393   6.140 -1.9432  0.3727 -1.1940
 1804SOL    HW3 6989   2.382   3.345   5.998  0.8893 -2.3256 -0.8616
 1804SOL    MW4 6990   2.429   3.343   6.072 -0.0387 -0.2862 -0.1525
 1805SOL     OW 6991   5.167   5.280   0.473  0.2174 -0.0921  0.4040
 1805SOL    HW2 6992   5.213   5.319   0.399 -0.5334 -0.3524 -0.2037
 1805SOL    HW3 6993   5.078   5.313   0.466 -0.1154 -0.9373  0.6012
 1805SOL    MW4 6994   5.162   5.290   0.463  0.0745 -0.2380  0.3498
 1806SOL     OW 6995   4.496   1.589   4.171 -0.0516 -0.7717  0.0060
 1806SOL    HW2 6996   4.565   1.523   4.182  2.3029  1.6940  1.0414
 1806SOL    HW3 6997   4.492   1.634   4.255 -1.9988  0.0611 -0.4924
 1806SOL    MW4 6998   4.505   1.586   4.183  0.0021 -0.3365  0.0768
 1807SOL     OW 6999   0.164   3.949   0.288 -0.0845 -0.5401  0.6988
 1807SOL    HW2 7000   0.197   4.038   0.275  1.4520 -1.1970 -0.1756
 1807SOL    HW3 7001   0.223   3.910   0.353 -1.1992 -0.6981  1.6377
 1807SOL    MW4 7002   0.176   3.955   0.295 -0.0288 -0.6476  0.7073
 1808SOL     OW 7003   3.113   3.957   4.705 -0.3479 -0.2397  0.4607
 1808SOL    HW2 7004   3.026   3.942   4.667 -1.0745  2.3771  0.8864
 1808SOL    HW3 7005   3.097   3.966   4.799  0.3682  0.2342  0.5450
 1808SOL    MW4 7006   3.100   3.956   4.712 -0.3493  0.1681  0.5280
 1809SOL     OW 7007   3.871   2.021   5.718 -0.2859 -0.4225  0.4422
 1809SOL    HW2 7008   3.801   2.019   5.784 -0.7394  0.3261 -0.0017
 1809SOL    HW3 7009   3.950   1.995   5.765 -0.4418  0.9208  1.4820
 1809SOL    MW4 7010   3.872   2.017   5.733 -0.3663 -0.1465  0.5208
 1810SOL     OW 7011   5.022   5.705   0.043  0.0453 -0.4986  0.0468
 1810SOL    HW2 7012   4.983   5.773   0.097  2.6276 -0.2185  1.6995
 1810SOL    HW3 7013   5.063   5.645   0.105  0.8470 -1.6309 -1.5136
 1810SOL    MW4 7014   5.022   5.706   0.058  0.4917 -0.6111  0.0590
 1811SOL     OW 7015   5.763   1.016   4.300 -0.1323 -0.3259 -0.5889
 1811SOL    HW2 7016   5.679   1.016   4.344  0.0601  0.7167 -0.1974
 1811SOL    HW3 7017   5.827   1.033   4.369  0.3112 -0.1914 -1.0239
 1811SOL    MW4 7018   5.761   1.019   4.315 -0.0484 -0.1706 -0.5946
 1812SOL     OW 7019   6.055   5.835   2.121  0.1747  0.8372 -0.0602
 1812SOL    HW2 7020   6.014   5.814   2.205 -1.5249  0.1724 -0.9964
 1812SOL    HW3 7021   6.149   5.821   2.136 -0.1449  0.0947  1.5404
 1812SOL    MW4 7022   6.062   5.830   2.134 -0.0917  0.6515  0.0274
 1813SOL     OW 7023   5.062   2.745   5.275 -0.1091  0.1837  0.1835
 1813SOL    HW2 7024   5.110   2.820   5.311  1.2872 -0.2077 -0.7604
 1813SOL    HW3 7025   4.981   2.742   5.325 -0.5259  2.7319 -0.2052
 1813SOL    MW4 7026   5.058   2.755   5.286  0.0201  0.4683  0.0077
 1814SOL     OW 7027   5.695   1.924   1.542 -0.2307 -0.1634  0.0183
 1814SOL    HW2 7028   5.661   1.943   1.455 -0.5806  1.1178  0.4072
 1814SOL    HW3 7029   5.714   2.010   1.579  0.4740 -0.7193  0.9860
 1814SOL    MW4 7030   5.693   1.938   1.536 -0.1839 -0.0677  0.1973
 1815SOL     OW 7031   4.751   0.741   1.908  0.2013 -0.2462 -0.1109
 1815SOL    HW2 7032   4.732   0.648   1.918  0.6782 -0.6794 -2.5549
 1815SOL    HW3 7033   4.843   0.744   1.880  0.6898  1.0965  1.4808
 1815SOL    MW4 7034   4.761   0.729   1.905  0.3287 -0.1262 -0.2234
 1816SOL     OW 7035   5.993   6.372   4.407  0.0867  0.1857  0.3709
 1816SOL    HW2 7036   5.967   6.314   4.480 -0.0147  0.7589  0.7979
 1816SOL    HW3 7037   5.921   6.364   4.344 -0.7573  1.1151  1.1732
 1816SOL    MW4 7038   5.980   6.363   4.409 -0.0381  0.3839  0.5331
 1817SOL     OW 7039   4.819   1.363   5.292 -0.1849 -0.0006  0.0609
 1817SOL    HW2 7040   4.766   1.380   5.371  0.0607 -2.0387  0.7271
 1817SOL    HW3 7041   4.906   1.394   5.315 -0.3661  0.4431  0.1646
 1817SOL    MW4 7042   4.823   1.370   5.306 -0.1764 -0.2110  0.1625
 1818SOL     OW 7043   5.370   3.482   0.498 -0.1796 -0.0129  0.1937
 1818SOL    HW2 7044   5.326   3.565   0.479  0.4528  0.5749  1.2382
 1818SOL    HW3 7045   5.462   3.505   0.511 -0.0039 -0.8635  0.5688
 1818SOL    MW4 7046   5.376   3.496   0.497 -0.0730 -0.0475  0.3810
 1819SOL     OW 7047   4.522   0.498   5.120  0.1101 -0.6447 -0.2015
 1819SOL    HW2 7048   4.488   0.577   5.162  0.6583 -0.9016  0.7605
 1819SOL    HW3 7049   4.459   0.478   5.052 -0.3760  0.2606 -0.0314
 1819SOL    MW4 7050   4.509   0.506   5.117  0.1183 -0.5592 -0.0521
 1820SOL     OW 7051   2.881   0.376   5.701 -1.0047 -0.2961 -0.2867
 1820SOL    HW2 7052   2.903   0.359   5.609 -0.2396 -0.6920 -0.0307
 1820SOL    HW3 7053   2.824   0.302   5.725  1.4722 -2.0601  0.5142
 1820SOL    MW4 7054   2.876   0.364   5.692 -0.5770 -0.5811 -0.1472
 1821SOL     OW 7055   0.784   4.878   2.691 -0.0785  0.4217  0.5164
 1821SOL    HW2 7056   0.843   4.802   2.688 -0.1954  0.2523  1.8586
 1821SOL    HW3 7057   0.789   4.909   2.781 -2.1070  0.3352  0.7031
 1821SOL    MW4 7058   0.792   4.872   2.703 -0.3616  0.3879  0.7181
 1822SOL     OW 7059   3.141   2.392   5.590 -0.0048  0.2850 -0.2017
 1822SOL    HW2 7060   3.080   2.458   5.623 -0.4105 -0.0028 -0.3674
 1822SOL    HW3 7061   3.140   2.405   5.495 -0.4002 -0.2285 -0.2697
 1822SOL    MW4 7062   3.133   2.402   5.582 -0.1105  0.1793 -0.2325
 1823SOL     OW 7063   3.193   2.468   4.700 -0.1424 -0.4440  1.0326
 1823SOL    HW2 7064   3.101   2.448   4.719  0.5047 -1.1013  3.9906
 1823SOL    HW3 7065   3.196   2.564   4.695 -1.2578 -0.4649 -1.1512
 1823SOL    MW4 7066   3.181   2.478   4.702 -0.2042 -0.5335  1.1347
 1824SOL     OW 7067   4.657   4.873   4.520  0.0788 -0.1189  0.1159
 1824SOL    HW2 7068   4.749   4.895   4.538  0.0731 -1.1238  1.5512
 1824SOL    HW3 7069   4.608   4.948   4.555  0.2669 -0.4399  1.0939
 1824SOL    MW4 7070   4.663   4.886   4.527  0.1029 -0.2938  0.4343
 1825SOL     OW 7071   6.361   1.407   1.478  0.2833 -0.6169  0.0985
 1825SOL    HW2 7072   6.437   1.372   1.523  0.4836 -0.0524  0.2012
 1825SOL    HW3 7073   6.381   1.500   1.464 -0.1447 -0.5897 -0.3713
 1825SOL    MW4 7074   6.373   1.415   1.482  0.2532 -0.5388  0.0500
 1826SOL     OW 7075   1.406   0.586   0.605  0.0650 -0.4773 -0.1170
 1826SOL    HW2 7076   1.329   0.533   0.585 -0.1863  0.1583 -0.8987
 1826SOL    HW3 7077   1.390   0.669   0.560  1.7437 -0.7389 -1.3147
 1826SOL    MW4 7078   1.394   0.590   0.596  0.2533 -0.4279 -0.3782
 1827SOL     OW 7079   2.838   0.696   2.710  0.3746 -0.1545 -0.2658
 1827SOL    HW2 7080   2.760   0.720   2.659  0.0131  1.8878  1.1230
 1827SOL    HW3 7081   2.905   0.759   2.682  0.8513 -0.4551  0.1831
 1827SOL    MW4 7082   2.837   0.708   2.699  0.3898  0.0753 -0.0233
 1828SOL     OW 7083   0.166   0.376   0.729 -0.2284  0.1987 -0.4051
 1828SOL    HW2 7084   0.076   0.403   0.708 -0.5974 -0.7484 -0.0568
 1828SOL    HW3 7085   0.157   0.315   0.802  0.6005 -0.7317 -1.0489
 1828SOL    MW4 7086   0.153   0.372   0.736 -0.1677 -0.0490 -0.4441
 1829SOL     OW 7087   2.385   2.975   0.106  0.0479  0.4181 -0.5638
 1829SOL    HW2 7088   2.413   3.001   0.018  0.5198  0.4159 -0.4169
 1829SOL    HW3 7089   2.423   3.041   0.164  0.8497 -0.3157 -0.2330
 1829SOL    MW4 7090   2.394   2.987   0.102  0.2159  0.3210 -0.5008
 1830SOL     OW 7091   1.050   3.548   4.179 -0.4066  0.2388  0.2486
 1830SOL    HW2 7092   1.144   3.560   4.197 -0.1930 -1.1689  0.1313
 1830SOL    HW3 7093   1.018   3.497   4.253 -0.9109  0.0332 -0.1097
 1830SOL    MW4 7094   1.058   3.543   4.191 -0.4449  0.0260  0.1858
 1831SOL     OW 7095   5.033   1.938   0.389 -0.3997  0.1726 -0.1023
 1831SOL    HW2 7096   5.090   1.961   0.315  1.7444 -0.3818  1.2703
 1831SOL    HW3 7097   5.041   2.011   0.450 -1.3214  0.1593  0.0518
 1831SOL    MW4 7098   5.042   1.950   0.387 -0.2384  0.0977  0.0991
 1832SOL     OW 7099   0.677   5.822   0.953  0.1288 -0.3215 -0.0148
 1832SOL    HW2 7100   0.769   5.819   0.978  0.6692 -0.7072 -1.9260
 1832SOL    HW3 7101   0.639   5.742   0.988  0.3188  0.1873  1.4176
 1832SOL    MW4 7102   0.684   5.811   0.961  0.2252 -0.3053 -0.0780
 1833SOL     OW 7103   5.230   4.072   4.032  0.5266 -0.5456  1.2657
 1833SOL    HW2 7104   5.175   3.994   4.038 -0.6424 -0.0049 -1.3079
 1833SOL    HW3 7105   5.310   4.042   3.990 -0.8173 -0.0608 -1.8617
 1833SOL    MW4 7106   5.233   4.058   4.028  0.1951 -0.4103  0.5135
 1834SOL     OW 7107   4.968   5.710   0.390  0.2734  0.2453  0.4987
 1834SOL    HW2 7108   4.927   5.768   0.326 -0.9227 -0.1169  0.9077
 1834SOL    HW3 7109   5.018   5.648   0.338 -2.6013 -1.5624 -0.3199
 1834SOL    MW4 7110   4.969   5.710   0.375 -0.2637 -0.0410  0.4447
 1835SOL     OW 7111   6.024   0.866   5.541  0.2848  0.2402 -0.0926
 1835SOL    HW2 7112   5.971   0.940   5.568  0.0310  0.2459 -0.5914
 1835SOL    HW3 7113   5.992   0.844   5.453  1.1770  0.3224 -0.4533
 1835SOL    MW4 7114   6.013   0.873   5.533  0.3690  0.2518 -0.2060
 1836SOL     OW 7115   4.324   3.323   0.024 -0.0216  0.1009  0.7028
 1836SOL    HW2 7116   4.387   3.256  -0.003  0.3042  0.9979 -0.8414
 1836SOL    HW3 7117   4.239   3.289  -0.006  0.2545  0.7734 -0.9257
 1836SOL    MW4 7118   4.321   3.309   0.017  0.0578  0.3080  0.2842
 1837SOL     OW 7119   3.289   6.410   3.782 -0.0605 -0.2711 -0.4820
 1837SOL    HW2 7120   3.376   6.374   3.767 -0.4109 -0.7896 -1.3022
 1837SOL    HW3 7121   3.284   6.421   3.877  1.1782  0.4868 -0.4817
 1837SOL    MW4 7122   3.300   6.407   3.792  0.0567 -0.2395 -0.5902
 1838SOL     OW 7123   6.156   3.076   3.124 -0.6172 -0.0653  0.6099
 1838SOL    HW2 7124   6.117   3.112   3.203 -0.0418  2.4202 -0.1662
 1838SOL    HW3 7125   6.222   3.140   3.098  0.3677 -1.6387 -0.9770
 1838SOL    MW4 7126   6.159   3.089   3.131 -0.4113  0.0551  0.2981
 1839SOL     OW 7127   1.317   1.645   4.744  0.3977  0.1852 -0.0183
 1839SOL    HW2 7128   1.367   1.576   4.788 -0.8033 -0.8960 -0.2903
 1839SOL    HW3 7129   1.227   1.612   4.742 -0.4987  2.4083  1.1179
 1839SOL    MW4 7130   1.312   1.631   4.749  0.1210  0.3358  0.0957
 1840SOL     OW 7131   0.818   3.796   1.069  0.2724 -0.6290 -0.8166
 1840SOL    HW2 7132   0.753   3.733   1.036  0.0163 -0.1495 -1.2323
 1840SOL    HW3 7133   0.895   3.780   1.015  0.5160 -1.1972 -0.3241
 1840SOL    MW4 7134   0.819   3.785   1.058  0.2707 -0.6407 -0.8065
 1841SOL     OW 7135   0.231   1.116   4.670  0.1972 -0.4555 -0.5930
 1841SOL    HW2 7136   0.257   1.118   4.578 -1.1100  0.2187 -0.9721
 1841SOL    HW3 7137   0.309   1.086   4.717  1.1641  0.0937 -1.8142
 1841SOL    MW4 7138   0.245   1.112   4.664  0.1523 -0.2941 -0.8041
 1842SOL     OW 7139   4.571   2.248   1.190  0.3331 -0.2122  0.0256
 1842SOL    HW2 7140   4.576   2.335   1.151  0.0893 -0.8372 -1.4578
 1842SOL    HW3 7141   4.496   2.253   1.249  1.2577  1.0113  1.1701
 1842SOL    MW4 7142   4.562   2.260   1.193  0.4229 -0.1333 -0.0191
 1843SOL     OW 7143   4.464   4.293   4.341  0.0094 -0.0303  0.4528
 1843SOL    HW2 7144   4.489   4.203   4.363 -0.0028  0.3222  2.0016
 1843SOL    HW3 7145   4.379   4.285   4.298  0.7895 -0.8801 -1.0440
 1843SOL    MW4 7146   4.456   4.280   4.338  0.1107 -0.0960  0.4597
 1844SOL     OW 7147   0.661   4.859   1.593  0.3087  0.3209  0.3119
 1844SOL    HW2 7148   0.723   4.929   1.573 -0.0509  0.5079 -0.1558
 1844SOL    HW3 7149   0.707   4.778   1.568  0.4823  0.4361  0.2583
 1844SOL    MW4 7150   0.675   4.857   1.587  0.2841  0.3608  0.2432
 1845SOL     OW 7151   5.505   2.017   1.944  0.4206 -0.0246 -0.1928
 1845SOL    HW2 7152   5.595   2.040   1.967 -0.0146 -1.0216  3.0229
 1845SOL    HW3 7153   5.509   1.924   1.920  0.1831 -0.2796  0.7060
 1845SOL    MW4 7154   5.517   2.008   1.944  0.3318 -0.1898  0.3501
 1846SOL     OW 7155   0.952   6.132   5.406  0.2638  0.3892  0.2285
 1846SOL    HW2 7156   0.869   6.149   5.451 -0.1547 -0.8869 -0.0045
 1846SOL    HW3 7157   0.946   6.040   5.380  2.3038 -0.1103  1.3296
 1846SOL    MW4 7158   0.940   6.122   5.408  0.4777  0.1550  0.3430
 1847SOL     OW 7159   2.987   6.063   3.725  0.9527 -0.1443  0.3400
 1847SOL    HW2 7160   2.894   6.084   3.714  1.1749  0.2076 -1.0743
 1847SOL    HW3 7161   2.989   5.969   3.741  0.3573 -0.1690  0.2965
 1847SOL    MW4 7162   2.975   6.053   3.726  0.9035 -0.1011  0.1476
 1848SOL     OW 7163   3.555   0.260   4.273 -0.4597  0.4423 -0.5968
 1848SOL    HW2 7164   3.603   0.284   4.352 -1.1318  0.7741 -0.2845
 1848SOL    HW3 7165   3.614   0.200   4.227 -0.4859 -0.5968  0.6640
 1848SOL    MW4 7166   3.569   0.255   4.277 -0.5518  0.3490 -0.3893
 1849SOL     OW 7167   2.066   5.283   1.139 -0.2184  0.7015  0.7207
 1849SOL    HW2 7168   2.125   5.286   1.064  1.4952  0.4702  1.9998
 1849SOL    HW3 7169   2.100   5.350   1.198 -1.0815  0.3722  1.6097
 1849SOL    MW4 7170   2.078   5.292   1.137 -0.1062  0.6276  1.0067
 1850SOL     OW 7171   3.800   4.868   5.845 -0.4647  0.0701 -0.6025
 1850SOL    HW2 7172   3.745   4.946   5.836  0.7741  0.9702 -0.6157
 1850SOL    HW3 7173   3.744   4.805   5.891 -1.3592  1.0945 -0.2261
 1850SOL    MW4 7174   3.785   4.870   5.850 -0.4193  0.3240 -0.5546
 1851SOL     OW 7175   4.575   0.338   4.551  0.3351 -0.0967 -0.0152
 1851SOL    HW2 7176   4.588   0.425   4.589  2.2748 -0.3007 -0.1137
 1851SOL    HW3 7177   4.613   0.278   4.616  2.5848 -0.5447 -1.6375
 1851SOL    MW4 7178   4.582   0.342   4.565  0.8879 -0.1827 -0.2422
 1852SOL     OW 7179   1.369   0.295   1.509  0.2087 -0.6075  0.2502
 1852SOL    HW2 7180   1.352   0.303   1.603  1.7219 -1.0397  0.5867
 1852SOL    HW3 7181   1.438   0.229   1.503  2.9718  2.1357 -0.8149
 1852SOL    MW4 7182   1.376   0.287   1.521  0.7729 -0.3026  0.1541
 1853SOL     OW 7183   0.786   5.830   1.415  0.3687 -0.3354 -0.5749
 1853SOL    HW2 7184   0.751   5.805   1.500  0.0054  0.4003 -0.5016
 1853SOL    HW3 7185   0.881   5.837   1.429  0.3294 -0.3915 -0.2829
 1853SOL    MW4 7186   0.794   5.828   1.428  0.3156 -0.2457 -0.5267
 1854SOL     OW 7187   3.943   5.798   0.887  0.1609 -0.0720 -0.4184
 1854SOL    HW2 7188   3.861   5.753   0.909 -1.2820  0.4496 -4.0020
 1854SOL    HW3 7189   3.916   5.889   0.871  1.4452  0.1448 -1.4979
 1854SOL    MW4 7190   3.928   5.804   0.888  0.1400  0.0254 -1.0336
 1855SOL     OW 7191   5.436   3.882   3.103  0.0127 -0.0338 -0.2486
 1855SOL    HW2 7192   5.367   3.876   3.169  1.2775 -2.8486  0.9451
 1855SOL    HW3 7193   5.506   3.825   3.135  1.6744  0.3565 -2.8801
 1855SOL    MW4 7194   5.436   3.874   3.116  0.3988 -0.3536 -0.4383
 1856SOL     OW 7195   0.028   4.761   6.251  0.4189  0.0607 -0.2377
 1856SOL    HW2 7196   0.046   4.834   6.311 -0.8110  0.6290 -0.5190
 1856SOL    HW3 7197   0.024   4.802   6.164  2.0744 -0.7321 -0.7177
 1856SOL    MW4 7198   0.030   4.776   6.247  0.4751  0.0311 -0.3382
 1857SOL     OW 7199   4.333   4.501   6.279 -0.5460 -0.7202  0.0824
 1857SOL    HW2 7200   4.245   4.539   6.285 -0.5036 -0.5722 -0.2208
 1857SOL    HW3 7201   4.346   4.458   6.363 -0.4680  0.2344  0.5767
 1857SOL    MW4 7202   4.323   4.501   6.291 -0.5301 -0.5747  0.1076
 1858SOL     OW 7203   2.705   6.404   5.607  0.1171 -0.3515  0.2249
 1858SOL    HW2 7204   2.800   6.402   5.619  0.3372  1.6172 -0.6661
 1858SOL    HW3 7205   2.693   6.432   5.517 -1.3040  0.3606  0.6024
 1858SOL    MW4 7206   2.716   6.408   5.597 -0.0413  0.0022  0.1571
 1859SOL     OW 7207   1.821   3.094   4.902  0.4552  0.2432 -0.0772
 1859SOL    HW2 7208   1.869   3.171   4.872  2.8681 -0.4062  1.7600
 1859SOL    HW3 7209   1.843   3.026   4.838 -0.5067  0.6761 -0.8951
 1859SOL    MW4 7210   1.830   3.095   4.890  0.6467  0.2146  0.0573
 1860SOL     OW 7211   2.094   1.179   2.451 -0.0433 -0.5173  0.1458
 1860SOL    HW2 7212   2.116   1.268   2.479  0.5483 -0.5030 -0.3467
 1860SOL    HW3 7213   2.063   1.189   2.361 -1.6782 -0.5959  0.6710
 1860SOL    MW4 7214   2.093   1.192   2.443 -0.1809 -0.5258  0.1501
 1861SOL     OW 7215   3.054   2.876   4.309  0.0205 -0.8822  0.1473
 1861SOL    HW2 7216   3.126   2.827   4.349 -0.2498 -0.9152  0.5965
 1861SOL    HW3 7217   3.096   2.930   4.241  0.2385 -2.2172 -0.8130
 1861SOL    MW4 7218   3.069   2.877   4.305  0.0136 -1.0627  0.0799
 1862SOL     OW 7219   0.523   2.744   0.966  0.0831  0.4286  0.5512
 1862SOL    HW2 7220   0.474   2.691   1.029 -1.7930  0.3305 -0.9050
 1862SOL    HW3 7221   0.559   2.681   0.904  0.7507  0.6389  0.7093
 1862SOL    MW4 7222   0.522   2.729   0.966 -0.0764  0.4434  0.3799
 1863SOL     OW 7223   2.074   4.096   2.870 -0.0427  0.1222 -0.0919
 1863SOL    HW2 7224   2.154   4.047   2.891 -0.7464 -0.7197  0.7441
 1863SOL    HW3 7225   2.076   4.105   2.775  1.2815  0.5479 -0.0508
 1863SOL    MW4 7226   2.085   4.090   2.860  0.0392  0.0673  0.0238
 1864SOL     OW 7227   3.743   1.073   4.989  0.4316  0.2875  0.6348
 1864SOL    HW2 7228   3.793   1.134   5.043  0.3284  2.6065 -1.6637
 1864SOL    HW3 7229   3.784   0.988   5.004  2.5101  1.4222  1.7887
 1864SOL    MW4 7230   3.755   1.070   4.998  0.6922  0.7432  0.4838
 1865SOL     OW 7231   2.956   4.366   1.951  0.1160 -0.3546  0.0728
 1865SOL    HW2 7232   2.886   4.377   1.887 -1.5557 -0.2106  1.8345
 1865SOL    HW3 7233   2.958   4.448   2.000  2.5824  0.2408 -0.8562
 1865SOL    MW4 7234   2.947   4.378   1.949  0.2209 -0.2570  0.1826
 1866SOL     OW 7235   0.016   1.576   5.477  0.7592  0.2183  0.0323
 1866SOL    HW2 7236  -0.012   1.515   5.545  0.0793 -0.4512 -0.8239
 1866SOL    HW3 7237   0.026   1.522   5.398  0.4002  1.1461 -0.6800
 1866SOL    MW4 7238   0.013   1.561   5.475  0.6222  0.2524 -0.1746
 1867SOL     OW 7239   3.748   1.146   5.683  0.4738 -0.2408 -0.1367
 1867SOL    HW2 7240   3.771   1.061   5.645  2.4919  1.1435 -2.2258
 1867SOL    HW3 7241   3.707   1.194   5.612  2.2611  1.6414  0.0218
 1867SOL    MW4 7242   3.746   1.141   5.669  0.9759  0.1902 -0.3914
 1868SOL     OW 7243   4.845   3.686   3.487 -0.5732 -0.3558 -0.2973
 1868SOL    HW2 7244   4.857   3.615   3.550  1.6380 -0.8126 -1.1177
 1868SOL    HW3 7245   4.858   3.644   3.402 -0.5591  0.7975 -0.8796
 1868SOL    MW4 7246   4.848   3.671   3.484 -0.2796 -0.2639 -0.4823
 1869SOL     OW 7247   1.231   6.171   3.321 -0.7997  0.1129  0.1835
 1869SOL    HW2 7248   1.300   6.230   3.350 -0.1033 -1.6995  2.5133
 1869SOL    HW3 7249   1.157   6.191   3.378 -0.4463 -1.4107  1.2342
 1869SOL    MW4 7250   1.230   6.181   3.332 -0.6612 -0.3272  0.6295
 1870SOL     OW 7251   1.190   4.938   4.434 -0.2215  0.3381  0.0374
 1870SOL    HW2 7252   1.271   4.981   4.410  0.1536  0.5597  1.5666
 1870SOL    HW3 7253   1.124   5.008   4.434  0.2679  0.8667  1.9311
 1870SOL    MW4 7254   1.192   4.953   4.431 -0.1074  0.4371  0.4890
 1871SOL     OW 7255   3.746   3.627   4.127  0.0280  0.1403 -0.0964
 1871SOL    HW2 7256   3.706   3.576   4.057  2.0464 -3.1899  0.9035
 1871SOL    HW3 7257   3.681   3.626   4.197 -0.0836 -0.9723 -0.1909
 1871SOL    MW4 7258   3.732   3.620   4.127  0.2796 -0.4459  0.0231
 1872SOL     OW 7259   3.701   2.322   3.621 -0.1828  1.0446 -0.3429
 1872SOL    HW2 7260   3.607   2.306   3.608 -0.2361 -1.6284  2.2803
 1872SOL    HW3 7261   3.744   2.245   3.585  0.8428  1.3007  0.2967
 1872SOL    MW4 7262   3.694   2.310   3.615 -0.0545  0.7257  0.0876
 1873SOL     OW 7263   6.038   4.038   1.585 -0.3618  0.0831  0.3984
 1873SOL    HW2 7264   6.033   4.009   1.676 -0.0580  0.0782  0.4154
 1873SOL    HW3 7265   6.069   3.962   1.537 -1.4166 -0.2042  0.1371
 1873SOL    MW4 7266   6.041   4.024   1.590 -0.4609  0.0445  0.3662
 1874SOL     OW 7267   5.538   1.987   2.559 -0.0781 -0.0520 -0.0630
 1874SOL    HW2 7268   5.556   1.968   2.651 -0.3807 -0.4121 -0.0753
 1874SOL    HW3 7269   5.583   1.918   2.511  0.3078  0.2930 -0.2014
 1874SOL    MW4 7270   5.547   1.976   2.565 -0.0671 -0.0540 -0.0829
 1875SOL     OW 7271   3.146   5.378   1.431  0.2881  0.0660  0.3121
 1875SOL    HW2 7272   3.135   5.286   1.406  0.6360  0.0348  0.2745
 1875SOL    HW3 7273   3.064   5.400   1.475 -0.2215  0.0355 -0.5897
 1875SOL    MW4 7274   3.133   5.368   1.434  0.2668  0.0578  0.1882
 1876SOL     OW 7275   2.555   2.824   2.940  0.0660 -0.2967  0.2319
 1876SOL    HW2 7276   2.514   2.749   2.897 -0.9259  0.0579  0.5446
 1876SOL    HW3 7277   2.487   2.858   2.998  1.3637 -0.7654  2.1059
 1876SOL    MW4 7278   2.541   2.819   2.942  0.1064 -0.3118  0.5204
 1877SOL     OW 7279   1.127   5.532   2.177 -0.1260  0.5698  0.1441
 1877SOL    HW2 7280   1.157   5.484   2.255  0.4723 -0.5795 -0.7599
 1877SOL    HW3 7281   1.181   5.610   2.175 -1.1647  1.3882  1.6921
 1877SOL    MW4 7282   1.138   5.536   2.187 -0.1841  0.5262  0.2291
 1878SOL     OW 7283   0.829  -0.000   0.164  0.3910 -0.2245 -0.3180
 1878SOL    HW2 7284   0.863   0.011   0.253 -0.3427  0.5053 -0.1121
 1878SOL    HW3 7285   0.815  -0.094   0.155 -2.3428 -0.0860  1.4432
 1878SOL    MW4 7286   0.832  -0.011   0.174 -0.0665 -0.1099 -0.0584
 1879SOL     OW 7287   0.689   6.151   5.501 -0.0311  0.0059  0.6049
 1879SOL    HW2 7288   0.722   6.231   5.542  3.5468 -0.3553 -1.1703
 1879SOL    HW3 7289   0.665   6.095   5.574  2.9659  0.5787  2.1854
 1879SOL    MW4 7290   0.690   6.154   5.516  0.8364  0.0338  0.5792
 1880SOL     OW 7291   3.069   6.311   6.084 -0.7606 -0.1635 -0.0911
 1880SOL    HW2 7292   3.147   6.352   6.121  0.0242  0.6482 -2.4198
 1880SOL    HW3 7293   3.098   6.224   6.057 -0.8115 -0.0819 -0.4170
 1880SOL    MW4 7294   3.083   6.305   6.085 -0.6638 -0.0457 -0.4413
 1881SOL     OW 7295   1.234   3.047   5.521 -0.1344  0.1150 -0.3453
 1881SOL    HW2 7296   1.266   3.082   5.604 -2.2997 -0.8983  1.0281
 1881SOL    HW3 7297   1.291   2.974   5.501  1.1019  1.0614 -0.3825
 1881SOL    MW4 7298   1.245   3.042   5.529 -0.2570  0.1062 -0.1690
 1882SOL     OW 7299   2.715   2.639   4.269  0.0957  0.2755  0.8946
 1882SOL    HW2 7300   2.755   2.632   4.355 -0.9479 -1.2012  1.2958
 1882SOL    HW3 7301   2.628   2.676   4.285 -1.0182 -2.1186  0.8338
 1882SOL    MW4 7302   2.709   2.643   4.282 -0.1890 -0.2352  0.9395
 1883SOL     OW 7303   1.138   0.899   5.518 -0.0354 -0.0323 -0.6270
 1883SOL    HW2 7304   1.044   0.908   5.499 -0.2015 -0.2251  0.0837
 1883SOL    HW3 7305   1.159   0.975   5.572  0.0271 -0.4365 -0.0786
 1883SOL    MW4 7306   1.128   0.910   5.523 -0.0491 -0.1110 -0.4609
 1884SOL     OW 7307   5.163   1.267   3.011 -0.2159 -0.2827  0.2309
 1884SOL    HW2 7308   5.241   1.269   2.956 -0.1556  0.0273  0.3258
 1884SOL    HW3 7309   5.091   1.251   2.950 -0.3712  1.8683 -0.2189
 1884SOL    MW4 7310   5.164   1.265   2.996 -0.2284  0.0420  0.1841
 1885SOL     OW 7311   3.421   5.396   3.826 -0.6244  0.2272 -0.0113
 1885SOL    HW2 7312   3.502   5.420   3.871 -0.2588 -0.5916 -0.2214
 1885SOL    HW3 7313   3.450   5.347   3.749 -1.2916  0.6383 -0.5375
 1885SOL    MW4 7314   3.435   5.393   3.822 -0.6642  0.1734 -0.1084
 1886SOL     OW 7315   3.121   2.746   5.379 -0.1116  0.6927  0.3994
 1886SOL    HW2 7316   3.177   2.733   5.455  0.2210  0.4909  0.1235
 1886SOL    HW3 7317   3.120   2.661   5.335  1.9951  1.4939 -1.3590
 1886SOL    MW4 7318   3.128   2.733   5.383  0.2103  0.7718  0.1310
 1887SOL     OW 7319   2.525   1.929   0.110 -0.2182 -0.7108 -0.4852
 1887SOL    HW2 7320   2.570   1.997   0.161 -0.0701 -1.8349  0.9389
 1887SOL    HW3 7321   2.595   1.890   0.056 -0.2508  0.0565 -1.0989
 1887SOL    MW4 7322   2.540   1.933   0.109 -0.2029 -0.7579 -0.3783
 1888SOL     OW 7323   5.923   4.322   3.047 -0.1682 -0.0894 -0.2068
 1888SOL    HW2 7324   5.878   4.319   3.132  0.8737 -1.0344  0.3445
 1888SOL    HW3 7325   5.852   4.319   2.983 -1.0027  1.1391  0.6163
 1888SOL    MW4 7326   5.907   4.321   3.050 -0.1409 -0.0520 -0.0254
 1889SOL     OW 7327   4.836   3.339   6.199  0.0379 -0.0279 -0.1060
 1889SOL    HW2 7328   4.781   3.414   6.218  0.0804 -0.1908  0.6823
 1889SOL    HW3 7329   4.913   3.350   6.254  0.4955 -0.1426 -0.7136
 1889SOL    MW4 7330   4.839   3.350   6.209  0.1039 -0.0645 -0.0821
 1890SOL     OW 7331   0.411   1.469   2.324  0.3082 -0.0892 -0.6210
 1890SOL    HW2 7332   0.484   1.415   2.355 -0.9559 -0.9126  1.0703
 1890SOL    HW3 7333   0.451   1.554   2.304  1.8376 -0.7302 -0.4372
 1890SOL    MW4 7334   0.426   1.473   2.325  0.3432 -0.2824 -0.3736
 1891SOL     OW 7335   0.076   6.266   2.989  0.0779  0.1035  0.5039
 1891SOL    HW2 7336   0.076   6.213   3.068  0.4565  0.0920  0.4968
 1891SOL    HW3 7337   0.157   6.243   2.944 -1.0322 -1.3678 -0.8815
 1891SOL    MW4 7338   0.086   6.256   2.993 -0.0186 -0.0922  0.3202
 1892SOL     OW 7339   1.787   4.578   2.453 -0.2995  0.4327 -0.8038
 1892SOL    HW2 7340   1.746   4.609   2.533  0.9711  0.1092  0.0008
 1892SOL    HW3 7341   1.868   4.536   2.482 -0.5414 -1.0236 -2.1282
 1892SOL    MW4 7342   1.792   4.577   2.467 -0.1638  0.1979 -0.8724
 1893SOL     OW 7343   0.705   2.192   3.633  0.1743  0.1005  0.5620
 1893SOL    HW2 7344   0.796   2.221   3.638  0.4714 -0.5247 -0.8048
 1893SOL    HW3 7345   0.709   2.097   3.645 -0.2419  0.0104  0.0518
 1893SOL    MW4 7346   0.717   2.183   3.635  0.1586  0.0061  0.3143
 1894SOL     OW 7347   3.220   1.350   4.974 -0.0114  0.0576 -0.1840
 1894SOL    HW2 7348   3.233   1.285   4.904 -0.2695  1.5444 -1.6718
 1894SOL    HW3 7349   3.133   1.331   5.008 -0.8358  0.7110 -1.8368
 1894SOL    MW4 7350   3.211   1.339   4.969 -0.1542  0.3400 -0.5984
 1895SOL     OW 7351   1.879   3.857   0.818 -0.1844 -0.2487  0.9873
 1895SOL    HW2 7352   1.939   3.853   0.892 -2.0020  0.5574  2.5874
 1895SOL    HW3 7353   1.906   3.935   0.769  0.4369 -0.2496  1.3138
 1895SOL    MW4 7354   1.891   3.867   0.821 -0.3422 -0.1424  1.2415
 1896SOL     OW 7355   2.343   5.215   1.989 -0.5597  0.0245 -0.1883
 1896SOL    HW2 7356   2.339   5.240   2.081  0.3626  1.0432 -0.4111
 1896SOL    HW3 7357   2.345   5.119   1.990  1.4103  0.0329  0.9496
 1896SOL    MW4 7358   2.343   5.205   2.001 -0.1781  0.1600 -0.0676
 1897SOL     OW 7359   0.427   0.203   4.074 -0.6143  0.1854 -0.3525
 1897SOL    HW2 7360   0.441   0.262   4.000  1.3631  2.5577  1.6971
 1897SOL    HW3 7361   0.506   0.148   4.077 -0.7153  0.0521 -0.0607
 1897SOL    MW4 7362   0.440   0.204   4.065 -0.3667  0.4808 -0.0436
 1898SOL     OW 7363   2.233   4.049   5.167 -0.1131  0.1669 -0.5925
 1898SOL    HW2 7364   2.303   3.991   5.137 -2.1525 -1.4599 -2.5628
 1898SOL    HW3 7365   2.153   3.998   5.155 -1.8405  2.6445 -0.3632
 1898SOL    MW4 7366   2.231   4.035   5.161 -0.6101  0.2791 -0.8222
 1899SOL     OW 7367   5.985   4.673   2.555  0.1155 -0.1653 -0.3217
 1899SOL    HW2 7368   5.942   4.602   2.603 -0.2523  1.0080  1.1612
 1899SOL    HW3 7369   6.027   4.630   2.481  1.3813 -2.2449  1.4628
 1899SOL    MW4 7370   5.985   4.658   2.552  0.2339 -0.2849  0.1094
 1900SOL     OW 7371   0.397   1.923   4.271 -1.1205 -0.2143 -0.1737
 1900SOL    HW2 7372   0.471   1.941   4.213 -0.3284 -1.3315  0.4696
 1900SOL    HW3 7373   0.384   2.005   4.319 -0.2165 -0.0416 -0.2045
 1900SOL    MW4 7374   0.405   1.937   4.269 -0.8967 -0.3389 -0.0929
 1901SOL     OW 7375   4.455   3.757   3.738 -0.1612 -0.0136  0.0235
 1901SOL    HW2 7376   4.378   3.804   3.705  0.2022  0.1500 -0.6060
 1901SOL    HW3 7377   4.491   3.713   3.661 -0.0296 -0.6673  0.4545
 1901SOL    MW4 7378   4.450   3.757   3.723 -0.0959 -0.0783 -0.0027
 1902SOL     OW 7379   3.110   4.712   3.305  0.7545 -0.4415  0.2852
 1902SOL    HW2 7380   3.110   4.618   3.287  0.3815 -0.7549  1.7661
 1902SOL    HW3 7381   3.099   4.718   3.400  0.8623  1.1034  0.2254
 1902SOL    MW4 7382   3.109   4.700   3.315  0.7195 -0.2790  0.4727
 1903SOL     OW 7383   5.348   2.377   1.175  0.1297  0.1942 -0.3707
 1903SOL    HW2 7384   5.325   2.380   1.083 -0.2425 -0.5112 -0.3069
 1903SOL    HW3 7385   5.337   2.285   1.200  0.8530  0.2538  0.2177
 1903SOL    MW4 7386   5.344   2.365   1.166  0.1760  0.1090 -0.2846
 1904SOL     OW 7387   0.152   3.378   3.736 -0.6003  0.1277  0.2707
 1904SOL    HW2 7388   0.104   3.455   3.705 -0.2794 -0.5285 -2.0335
 1904SOL    HW3 7389   0.243   3.396   3.711 -0.2166 -0.2305  1.3514
 1904SOL    MW4 7390   0.158   3.391   3.728 -0.5074 -0.0061  0.1093
 1905SOL     OW 7391   4.672   1.987   6.252  0.1964 -0.4618  0.2844
 1905SOL    HW2 7392   4.676   2.074   6.291 -2.0469 -1.1037  2.1952
 1905SOL    HW3 7393   4.745   1.939   6.291  0.3355  0.0328  0.6354
 1905SOL    MW4 7394   4.682   1.992   6.262 -0.0812 -0.4812  0.5828
 1906SOL     OW 7395   4.916   1.397   3.605  0.7607  0.2061  0.1959
 1906SOL    HW2 7396   4.962   1.359   3.680  0.5214 -1.9991 -0.7233
 1906SOL    HW3 7397   4.826   1.411   3.638  0.5443 -1.1438  0.2260
 1906SOL    MW4 7398   4.910   1.394   3.619  0.7006 -0.2629  0.0786
 1907SOL     OW 7399   5.992   2.031   5.879  0.6481  0.4110 -0.4254
 1907SOL    HW2 7400   5.900   2.050   5.899 -0.0568 -2.1974 -0.7568
 1907SOL    HW3 7401   6.007   2.074   5.795 -1.0915 -1.0739 -1.5909
 1907SOL    MW4 7402   5.982   2.039   5.870  0.3256 -0.1291 -0.6229
 1908SOL     OW 7403   5.744   0.323   1.531 -0.2869 -0.0882 -0.1444
 1908SOL    HW2 7404   5.786   0.316   1.617  0.6540 -0.3130 -0.6079
 1908SOL    HW3 7405   5.775   0.247   1.482 -0.3317  0.3527 -0.8811
 1908SOL    MW4 7406   5.754   0.312   1.536 -0.1687 -0.0597 -0.3027
 1909SOL     OW 7407   5.073   5.132   2.104  0.1024 -0.0549 -0.2239
 1909SOL    HW2 7408   5.103   5.203   2.160 -1.7745  0.5665  0.0614
 1909SOL    HW3 7409   5.135   5.061   2.120  1.1599  1.0123  0.5967
 1909SOL    MW4 7410   5.085   5.132   2.114 -0.0057  0.1679 -0.0780
 1910SOL     OW 7411   6.076   0.436   0.769  0.0459  0.4600 -0.3551
 1910SOL    HW2 7412   6.029   0.355   0.748  1.4681  0.1599 -2.6647
 1910SOL    HW3 7413   6.014   0.506   0.748 -0.4939  0.0337 -0.2100
 1910SOL    MW4 7414   6.062   0.434   0.764  0.1624  0.3642 -0.6407
 1911SOL     OW 7415   2.053   0.407   3.109  0.0534 -0.0458 -0.2830
 1911SOL    HW2 7416   2.143   0.387   3.082 -0.8579 -3.2490 -1.3804
 1911SOL    HW3 7417   2.007   0.323   3.104 -3.2280  1.6064 -0.5495
 1911SOL    MW4 7418   2.059   0.394   3.104 -0.4998 -0.2504 -0.4630
 1912SOL     OW 7419   4.247   5.939   2.249 -0.2660 -0.3120  0.1261
 1912SOL    HW2 7420   4.292   5.992   2.184  1.1534 -0.4999  0.9118
 1912SOL    HW3 7421   4.185   5.887   2.199  2.0697 -1.8113 -1.3928
 1912SOL    MW4 7422   4.244   5.939   2.234  0.2295 -0.5346  0.0293
 1913SOL     OW 7423   0.309   6.127   1.132 -0.1940 -0.3521  0.1203
 1913SOL    HW2 7424   0.387   6.071   1.131 -0.7635 -1.2838  2.4517
 1913SOL    HW3 7425   0.236   6.066   1.118 -0.6957  0.0215  1.0115
 1913SOL    MW4 7426   0.310   6.111   1.130 -0.3353 -0.4258  0.5455
 1914SOL     OW 7427   6.306   5.439   4.252 -0.4931 -0.4221  0.2063
 1914SOL    HW2 7428   6.259   5.488   4.184  0.0290 -0.1799  0.0165
 1914SOL    HW3 7429   6.363   5.505   4.293  1.8989 -1.2647 -1.5215
 1914SOL    MW4 7430   6.307   5.454   4.248 -0.1087 -0.5013 -0.0467
 1915SOL     OW 7431   5.634   3.111   0.842  0.6183 -0.8030 -0.1192
 1915SOL    HW2 7432   5.567   3.117   0.774  0.6744 -0.4307 -0.1417
 1915SOL    HW3 7433   5.617   3.027   0.885  0.6645 -1.0996 -0.6747
 1915SOL    MW4 7434   5.623   3.101   0.839  0.6318 -0.7930 -0.1954
 1916SOL     OW 7435   6.280   2.299   6.394  0.0606 -0.6443  0.0008
 1916SOL    HW2 7436   6.245   2.288   6.482 -0.6649  0.0880 -0.1883
 1916SOL    HW3 7437   6.284   2.211   6.358  0.9598 -1.0283  0.9844
 1916SOL    MW4 7438   6.276   2.286   6.401  0.0835 -0.5984  0.1056
 1917SOL     OW 7439   1.745   2.548   2.796  0.2666 -0.2922  0.4178
 1917SOL    HW2 7440   1.652   2.553   2.774  0.2891 -1.8109 -0.1479
 1917SOL    HW3 7441   1.750   2.582   2.885 -0.5207  1.6254 -0.1996
 1917SOL    MW4 7442   1.733   2.553   2.805  0.1657 -0.2396  0.2617
 1918SOL     OW 7443   1.689   4.076   0.707  0.2528  0.3371  0.2157
 1918SOL    HW2 7444   1.724   4.035   0.786  0.3588 -2.5757 -1.2323
 1918SOL    HW3 7445   1.609   4.027   0.688 -0.0290  1.2953 -1.2615
 1918SOL    MW4 7446   1.683   4.064   0.715  0.2296  0.0792 -0.1703
 1919SOL     OW 7447   3.487   3.393   2.888 -0.1956 -0.2523 -0.4806
 1919SOL    HW2 7448   3.572   3.352   2.875  0.6095  1.3947 -0.5699
 1919SOL    HW3 7449   3.492   3.475   2.840 -0.9706  1.0123  1.4927
 1919SOL    MW4 7450   3.499   3.398   2.880 -0.1917  0.1318 -0.2320
 1920SOL     OW 7451   3.347   4.154   1.176 -1.1279 -0.0382  0.1868
 1920SOL    HW2 7452   3.406   4.209   1.124 -0.4959 -0.4441  0.4494
 1920SOL    HW3 7453   3.399   4.131   1.253 -1.7848 -0.0733  0.6220
 1920SOL    MW4 7454   3.362   4.158   1.179 -1.1312 -0.0964  0.2789
 1921SOL     OW 7455   1.094   2.262   6.114 -0.7781  0.3194 -0.4194
 1921SOL    HW2 7456   1.120   2.342   6.068  0.2163  0.6309  0.6304
 1921SOL    HW3 7457   1.155   2.195   6.083 -0.3584  0.4394  0.1160
 1921SOL    MW4 7458   1.106   2.264   6.104 -0.5915  0.3763 -0.2103
 1922SOL     OW 7459   4.984   5.927   1.093 -0.1976 -0.4614  0.0079
 1922SOL    HW2 7460   5.072   5.894   1.079 -0.3603 -0.9463  0.1154
 1922SOL    HW3 7461   4.941   5.861   1.147 -0.5504 -0.1112  0.1682
 1922SOL    MW4 7462   4.990   5.914   1.098 -0.2656 -0.4792  0.0433
 1923SOL     OW 7463   3.562   2.416   4.769  0.3630  0.3492 -0.4149
 1923SOL    HW2 7464   3.512   2.482   4.720 -1.0446 -0.7637 -0.5424
 1923SOL    HW3 7465   3.571   2.343   4.708  0.2485 -0.3092  0.3499
 1923SOL    MW4 7466   3.557   2.415   4.754  0.1622  0.1155 -0.3308
 1924SOL     OW 7467   6.079   5.590   1.592  0.1033 -0.1821  0.2006
 1924SOL    HW2 7468   6.038   5.592   1.678  3.3151 -1.4158  1.9157
 1924SOL    HW3 7469   6.130   5.671   1.587 -0.5260  0.1741 -0.8520
 1924SOL    MW4 7470   6.080   5.601   1.602  0.4441 -0.2978  0.2880
 1925SOL     OW 7471   2.203   3.780   0.709 -0.0493 -0.2416 -0.3508
 1925SOL    HW2 7472   2.115   3.815   0.720  0.5273  1.2368 -0.2226
 1925SOL    HW3 7473   2.252   3.850   0.665  1.3957 -0.4961  0.7676
 1925SOL    MW4 7474   2.198   3.794   0.705  0.2174 -0.0801 -0.1863
 1926SOL     OW 7475   1.107   0.026   5.683 -0.1321  0.4938  0.1295
 1926SOL    HW2 7476   1.079   0.048   5.772 -0.2975 -0.9020  0.4440
 1926SOL    HW3 7477   1.027  -0.005   5.639  0.1488  0.1999 -0.1836
 1926SOL    MW4 7478   1.093   0.025   5.689 -0.1168  0.2709  0.1297
 1927SOL     OW 7479   0.908   0.968   0.314 -0.8214 -0.0973 -0.2767
 1927SOL    HW2 7480   0.907   0.971   0.409  0.3365  0.3595 -0.2687
 1927SOL    HW3 7481   0.895   1.059   0.287 -1.4932 -0.2763 -0.5608
 1927SOL    MW4 7482   0.906   0.980   0.323 -0.7573 -0.0606 -0.3131
 1928SOL     OW 7483   0.230   0.710   0.297  0.0529  0.0855 -0.1446
 1928SOL    HW2 7484   0.134   0.701   0.300  0.2410 -2.9971 -0.3794
 1928SOL    HW3 7485   0.251   0.761   0.376 -1.6237 -1.7476  1.6178
 1928SOL    MW4 7486   0.220   0.715   0.308 -0.1435 -0.5630  0.0569
 1929SOL     OW 7487   5.064   4.172   6.242 -0.0787  0.6834  0.0399
 1929SOL    HW2 7488   5.145   4.223   6.235  0.4349 -0.2777 -1.7006
 1929SOL    HW3 7489   4.994   4.237   6.235  0.5528  1.2284 -1.6481
 1929SOL    MW4 7490   5.066   4.187   6.240  0.0724  0.6285 -0.4124
 1930SOL     OW 7491   1.415   6.282   5.371 -0.9334  0.0711  0.6772
 1930SOL    HW2 7492   1.479   6.353   5.370  0.5571 -1.1647  1.8224
 1930SOL    HW3 7493   1.354   6.302   5.300  1.5275  0.6133 -1.4247
 1930SOL    MW4 7494   1.415   6.294   5.362 -0.4121 -0.0204  0.5510
 1931SOL     OW 7495   2.556   0.720   4.538 -0.2136  0.1779 -0.1973
 1931SOL    HW2 7496   2.628   0.708   4.477 -0.4190 -2.9752  0.0371
 1931SOL    HW3 7497   2.486   0.759   4.486  1.3819  2.8264 -0.5338
 1931SOL    MW4 7498   2.556   0.724   4.523 -0.0302  0.1113 -0.2108
 1932SOL     OW 7499   4.507   0.750   2.298 -0.2690  0.3342 -0.5285
 1932SOL    HW2 7500   4.536   0.811   2.231 -0.0988  1.5007  0.5818
 1932SOL    HW3 7501   4.490   0.804   2.375 -1.5747 -0.8167  0.0435
 1932SOL    MW4 7502   4.508   0.765   2.300 -0.4188  0.3363 -0.3065
 1933SOL     OW 7503   4.817   5.058   4.823 -0.3948 -0.0657 -0.2010
 1933SOL    HW2 7504   4.859   5.115   4.758 -0.1081  0.6321  0.5782
 1933SOL    HW3 7505   4.844   4.969   4.799 -2.0308 -0.0704 -2.3321
 1933SOL    MW4 7506   4.826   5.054   4.811 -0.5728  0.0257 -0.3794
 1934SOL     OW 7507   2.872   3.597   1.683 -0.1452 -0.1741 -0.0066
 1934SOL    HW2 7508   2.940   3.647   1.729 -2.2324  1.8267  1.1127
 1934SOL    HW3 7509   2.907   3.586   1.595  2.3675 -0.8202  0.9703
 1934SOL    MW4 7510   2.886   3.603   1.678 -0.0891  0.0046  0.2700
 1935SOL     OW 7511   0.202   2.751   5.576 -0.1099  0.0890  0.0323
 1935SOL    HW2 7512   0.145   2.757   5.499 -0.5946 -2.1430  0.1362
 1935SOL    HW3 7513   0.288   2.779   5.544 -0.6443  0.7606 -0.8749
 1935SOL    MW4 7514   0.206   2.755   5.561 -0.2444 -0.1169 -0.0737
 1936SOL     OW 7515   5.259   3.098   0.411  0.2566 -0.1932  0.3019
 1936SOL    HW2 7516   5.290   3.176   0.365 -0.3346  1.5139  2.6243
 1936SOL    HW3 7517   5.302   3.025   0.367 -0.3019  1.2660 -2.9105
 1936SOL    MW4 7518   5.269   3.099   0.399  0.1049  0.2246  0.1845
 1937SOL     OW 7519   0.426   3.032   1.621  0.3086  0.3107  0.1702
 1937SOL    HW2 7520   0.501   2.981   1.653 -0.0392  0.4821  1.2894
 1937SOL    HW3 7521   0.461   3.120   1.608 -0.1472  0.9188  2.7083
 1937SOL    MW4 7522   0.441   3.037   1.623  0.2025  0.4135  0.6527
 1938SOL     OW 7523   1.707   4.783   1.962  0.0505 -0.5098 -0.2915
 1938SOL    HW2 7524   1.726   4.720   2.031  1.5565 -0.4670 -0.6421
 1938SOL    HW3 7525   1.613   4.801   1.971  0.1685 -0.6650  1.5844
 1938SOL    MW4 7526   1.697   4.777   1.972  0.2648 -0.5246 -0.0902
 1939SOL     OW 7527   1.980   4.156   4.119 -0.1285  0.4065 -0.4411
 1939SOL    HW2 7528   1.967   4.090   4.051  0.9631  0.0157 -0.2922
 1939SOL    HW3 7529   1.944   4.236   4.082  0.5827  0.2340 -1.5518
 1939SOL    MW4 7530   1.974   4.158   4.105  0.1094  0.3322 -0.5680
 1940SOL     OW 7531   6.220   5.265   4.446 -0.2150  0.2858  0.3708
 1940SOL    HW2 7532   6.261   5.318   4.378 -0.3146 -0.9977 -0.7574
 1940SOL    HW3 7533   6.126   5.277   4.432 -0.2349  0.1045  0.3369
 1940SOL    MW4 7534   6.213   5.273   4.435 -0.2308  0.0926  0.2175
 1941SOL     OW 7535   3.471   1.759   5.470  0.9227 -0.0901  0.0821
 1941SOL    HW2 7536   3.504   1.695   5.534  1.6878 -1.7634 -1.8796
 1941SOL    HW3 7537   3.549   1.806   5.440  0.3313  2.1391  1.7535
 1941SOL    MW4 7538   3.486   1.756   5.475  0.9456 -0.0168  0.0438
 1942SOL     OW 7539   1.006   0.953   5.120 -0.4781  0.0883 -0.5357
 1942SOL    HW2 7540   0.969   0.867   5.101  0.4935 -0.1738 -1.2679
 1942SOL    HW3 7541   1.099   0.944   5.103 -0.0317  0.7360  1.3046
 1942SOL    MW4 7542   1.013   0.941   5.116 -0.2910  0.1392 -0.3895
 1943SOL     OW 7543   0.412   2.935   3.361  0.5612  0.1982 -0.5484
 1943SOL    HW2 7544   0.445   2.851   3.328  0.6616  0.5311 -1.3230
 1943SOL    HW3 7545   0.381   2.916   3.449  0.3157 -0.7252 -0.8216
 1943SOL    MW4 7546   0.412   2.921   3.368  0.5420  0.1203 -0.6866
 1944SOL     OW 7547   3.383   0.295   1.937 -0.2392 -0.1356 -0.0450
 1944SOL    HW2 7548   3.477   0.274   1.936 -0.3351 -0.5618 -0.1197
 1944SOL    HW3 7549   3.340   0.213   1.914 -0.5735  0.4085 -1.3975
 1944SOL    MW4 7550   3.390   0.281   1.934 -0.2960 -0.1201 -0.2333
 1945SOL     OW 7551   0.430   1.297   0.924 -0.4637 -0.0759 -0.2989
 1945SOL    HW2 7552   0.514   1.343   0.925 -0.8897  0.7805 -1.3982
 1945SOL    HW3 7553   0.449   1.214   0.881 -0.0389 -0.2272  0.1576
 1945SOL    MW4 7554   0.444   1.292   0.919 -0.4639  0.0171 -0.3837
 1946SOL     OW 7555   5.776   2.298   5.911 -0.2706 -0.3707  0.1887
 1946SOL    HW2 7556   5.736   2.211   5.914  0.7317 -0.8276  0.4225
 1946SOL    HW3 7557   5.861   2.287   5.952  0.2035  0.5515 -0.5254
 1946SOL    MW4 7558   5.782   2.285   5.917 -0.0758 -0.3093  0.1253
 1947SOL     OW 7559   5.541   4.687   3.414  0.1557  0.1274  0.4383
 1947SOL    HW2 7560   5.621   4.721   3.454  0.8097  0.5104 -1.1398
 1947SOL    HW3 7561   5.517   4.753   3.350  0.3368 -1.4190 -1.2920
 1947SOL    MW4 7562   5.549   4.701   3.411  0.2659 -0.0261  0.0018
 1948SOL     OW 7563   5.662   4.279   0.580 -0.3930  0.2291 -0.0266
 1948SOL    HW2 7564   5.646   4.373   0.593 -0.9940  0.0557  0.5287
 1948SOL    HW3 7565   5.745   4.276   0.533 -1.2537  1.1063 -1.7215
 1948SOL    MW4 7566   5.671   4.291   0.576 -0.5858  0.3220 -0.1770
 1949SOL     OW 7567   4.855   3.056   4.631 -0.3648  0.5295 -0.4510
 1949SOL    HW2 7568   4.780   3.115   4.630 -0.7458  0.0700  0.6072
 1949SOL    HW3 7569   4.873   3.039   4.723 -0.0525 -0.7454 -0.7161
 1949SOL    MW4 7570   4.848   3.061   4.643 -0.3739  0.3007 -0.3463
 1950SOL     OW 7571   4.261   0.685   2.801  0.3788  0.3438  0.4247
 1950SOL    HW2 7572   4.184   0.726   2.840  0.0018  0.2224 -0.1834
 1950SOL    HW3 7573   4.287   0.618   2.864  0.9654  1.4547  1.4074
 1950SOL    MW4 7574   4.255   0.681   2.815  0.4064  0.4743  0.4741
 1951SOL     OW 7575   2.067   2.115   3.368 -0.3998 -0.1110 -0.1522
 1951SOL    HW2 7576   2.031   2.154   3.448  0.6611 -0.2458  0.4013
 1951SOL    HW3 7577   2.015   2.036   3.354 -0.9844  0.2306  0.0666
 1951SOL    MW4 7578   2.055   2.110   3.376 -0.3370 -0.0837 -0.0503
 1952SOL     OW 7579   4.777   1.865   4.184 -0.5448  0.4876 -0.7244
 1952SOL    HW2 7580   4.830   1.940   4.214 -0.4516  0.4179 -0.7136
 1952SOL    HW3 7581   4.798   1.857   4.091  3.2414 -2.5103  0.1036
 1952SOL    MW4 7582   4.787   1.874   4.176 -0.0329  0.0829 -0.6137
 1953SOL     OW 7583   0.359   2.742   0.567 -0.0148 -0.2812 -0.0570
 1953SOL    HW2 7584   0.318   2.666   0.526 -0.5179 -0.0647  0.0337
 1953SOL    HW3 7585   0.364   2.807   0.497 -1.8240  0.4611  0.4290
 1953SOL    MW4 7586   0.354   2.741   0.552 -0.3199 -0.1547  0.0191
 1954SOL     OW 7587   1.505   3.899   0.599 -0.5598 -0.2058  0.0582
 1954SOL    HW2 7588   1.424   3.848   0.600 -0.7013 -0.0546 -1.5234
 1954SOL    HW3 7589   1.517   3.924   0.507  1.4219 -0.4421  0.2117
 1954SOL    MW4 7590   1.496   3.896   0.587 -0.3170 -0.2170 -0.1302
 1955SOL     OW 7591   4.763   2.359   3.542  0.3898 -0.1372 -0.2955
 1955SOL    HW2 7592   4.761   2.367   3.638  0.2457  0.9850 -0.3760
 1955SOL    HW3 7593   4.830   2.421   3.515 -0.1414  0.1526 -0.9720
 1955SOL    MW4 7594   4.771   2.368   3.551  0.3007  0.0491 -0.3954
 1956SOL     OW 7595   3.605   6.103   0.128 -0.7679  0.1103  0.3811
 1956SOL    HW2 7596   3.663   6.028   0.144 -0.2037 -0.0011 -1.7981
 1956SOL    HW3 7597   3.536   6.094   0.193 -1.2124 -2.8389 -0.3337
 1956SOL    MW4 7598   3.604   6.092   0.138 -0.7521 -0.2935 -0.0007
 1957SOL     OW 7599   4.264   1.541   6.184  0.5334  0.6444  0.3684
 1957SOL    HW2 7600   4.261   1.576   6.273  0.8495  1.5543  0.0352
 1957SOL    HW3 7601   4.354   1.509   6.173  0.1874 -0.5152  0.7458
 1957SOL    MW4 7602   4.276   1.541   6.194  0.5295  0.6114  0.3742
 1958SOL     OW 7603   5.871   1.577   0.062  0.5913 -0.2423  0.3527
 1958SOL    HW2 7604   5.872   1.628  -0.019 -2.4289 -1.5745 -0.6365
 1958SOL    HW3 7605   5.945   1.517   0.053  3.7386  3.1419  1.1862
 1958SOL    MW4 7606   5.881   1.576   0.050  0.6081  0.0285  0.3321
 1959SOL     OW 7607   2.085   3.816   5.825  0.2962 -0.1687  0.5205
 1959SOL    HW2 7608   2.119   3.850   5.908  1.4190  0.2165 -0.0777
 1959SOL    HW3 7609   2.100   3.887   5.762 -0.4017 -0.5117 -0.0501
 1959SOL    MW4 7610   2.092   3.830   5.827  0.3522 -0.1631  0.3663
 1960SOL     OW 7611   3.296   2.708   5.594  0.0592  0.4507 -0.1214
 1960SOL    HW2 7612   3.387   2.681   5.586  0.2726  1.2865 -0.5979
 1960SOL    HW3 7613   3.299   2.800   5.619 -0.6587  0.3146  0.5210
 1960SOL    MW4 7614   3.308   2.717   5.596 -0.0073  0.5430 -0.0995
 1961SOL     OW 7615   2.800   2.340   1.665 -0.1839 -0.0576 -0.0410
 1961SOL    HW2 7616   2.832   2.320   1.753  1.0294 -3.8677 -1.1405
 1961SOL    HW3 7617   2.874   2.379   1.620 -0.1389 -0.0559  0.0352
 1961SOL    MW4 7618   2.814   2.342   1.671 -0.0179 -0.5601 -0.1760
 1962SOL     OW 7619   5.163   2.948   5.651 -0.1785 -0.7508  0.8525
 1962SOL    HW2 7620   5.162   2.891   5.728 -0.1632 -0.0998  1.3403
 1962SOL    HW3 7621   5.219   3.021   5.676 -0.2298 -0.4979  0.2470
 1962SOL    MW4 7622   5.170   2.950   5.665 -0.1833 -0.6316  0.8370
 1963SOL     OW 7623   5.188   5.762   3.233  0.2110 -0.0447 -0.1975
 1963SOL    HW2 7624   5.275   5.734   3.261  0.0026 -0.7521 -0.2144
 1963SOL    HW3 7625   5.202   5.805   3.149  0.4076 -1.4103 -0.8981
 1963SOL    MW4 7626   5.201   5.764   3.225  0.2094 -0.3182 -0.2922
 1964SOL     OW 7627   6.260   5.161   2.627 -0.1706 -0.4579 -0.1827
 1964SOL    HW2 7628   6.205   5.135   2.553  1.4211 -0.8385 -1.2746
 1964SOL    HW3 7629   6.317   5.229   2.592 -1.3392  1.4944  1.5145
 1964SOL    MW4 7630   6.260   5.166   2.613 -0.1148 -0.2505 -0.1029
 1965SOL     OW 7631   0.845   6.165   0.972 -0.0526  0.2936 -0.4982
 1965SOL    HW2 7632   0.892   6.209   0.901  0.5891 -0.0143 -0.2675
 1965SOL    HW3 7633   0.786   6.105   0.927  2.4431 -2.1220 -0.8116
 1965SOL    MW4 7634   0.844   6.163   0.956  0.3614 -0.0657 -0.5091
 1966SOL     OW 7635   2.835   4.890   2.230 -0.2921 -0.0396  0.7486
 1966SOL    HW2 7636   2.858   4.883   2.323  0.7205 -1.3172  0.4234
 1966SOL    HW3 7637   2.829   4.985   2.214  1.3436  0.2573  1.6945
 1966SOL    MW4 7638   2.837   4.902   2.240  0.0573 -0.1690  0.8305
 1967SOL     OW 7639   1.956   1.469   0.854 -0.3161 -0.1727  0.3736
 1967SOL    HW2 7640   1.877   1.522   0.846 -0.4765 -0.3838  0.5607
 1967SOL    HW3 7641   1.980   1.474   0.946  0.1201  0.2222  0.2430
 1967SOL    MW4 7642   1.949   1.477   0.865 -0.2797 -0.1484  0.3811
 1968SOL     OW 7643   6.373   2.371   0.906  0.7174 -0.1575  0.5371
 1968SOL    HW2 7644   6.326   2.427   0.845 -0.0132 -0.6352  0.6496
 1968SOL    HW3 7645   6.373   2.285   0.865  2.0805 -0.0373  0.2339
 1968SOL    MW4 7646   6.367   2.367   0.893  0.8009 -0.2047  0.5119
 1969SOL     OW 7647   3.118   4.272   0.855 -0.2129 -0.0562  0.5298
 1969SOL    HW2 7648   3.091   4.228   0.774  0.0678  0.0927  0.3558
 1969SOL    HW3 7649   3.169   4.347   0.826 -1.9709  1.2958  0.7791
 1969SOL    MW4 7650   3.121   4.276   0.841 -0.4078  0.1418  0.5397
 1970SOL     OW 7651   5.590   3.260   4.082  0.1014 -0.4011  0.0240
 1970SOL    HW2 7652   5.565   3.310   4.004 -0.7974  0.7334  0.9962
 1970SOL    HW3 7653   5.564   3.316   4.155  0.3618 -1.7048  1.1491
 1970SOL    MW4 7654   5.583   3.274   4.081  0.0172 -0.4234  0.3007
 1971SOL     OW 7655   0.355   3.929   2.895  0.5746  0.0853  0.4913
 1971SOL    HW2 7656   0.289   3.962   2.957 -0.5094 -0.2588 -0.4382
 1971SOL    HW3 7657   0.358   3.995   2.826  0.2833 -0.4945 -0.0896
 1971SOL    MW4 7658   0.346   3.942   2.894  0.3932 -0.0366  0.2920
 1972SOL     OW 7659   6.003   2.578   1.459  0.3873  0.2748  0.5370
 1972SOL    HW2 7660   5.937   2.597   1.525  0.4069  0.8972  0.3873
 1972SOL    HW3 7661   6.042   2.495   1.486 -0.9926 -0.5140  0.1959
 1972SOL    MW4 7662   6.000   2.569   1.471  0.2078  0.2528  0.4722
 1973SOL     OW 7663   2.004   2.639   5.278  0.1504  0.5528 -0.0160
 1973SOL    HW2 7664   2.029   2.548   5.265  0.6472  0.9071 -1.7500
 1973SOL    HW3 7665   2.086   2.684   5.299  0.0989  0.8117 -0.3767
 1973SOL    MW4 7666   2.018   2.633   5.279  0.2092  0.6337 -0.2924
 1974SOL     OW 7667   0.152   2.897   4.926  0.3213  0.5352 -0.0906
 1974SOL    HW2 7668   0.075   2.840   4.930 -0.6301  1.5167 -2.7051
 1974SOL    HW3 7669   0.138   2.961   4.995 -0.5393 -0.0578  0.3030
 1974SOL    MW4 7670   0.140   2.898   4.936  0.0823  0.5865 -0.3837
 1975SOL     OW 7671   4.267   6.053   0.326 -0.2206 -0.2759  0.2041
 1975SOL    HW2 7672   4.218   6.110   0.268  1.1358  0.2102 -0.5182
 1975SOL    HW3 7673   4.335   6.015   0.271  1.0450  0.1192  1.3999
 1975SOL    MW4 7674   4.270   6.056   0.311  0.1254 -0.1596  0.2665
 1976SOL     OW 7675   2.366   4.692   1.234  0.1443  0.7892  0.5265
 1976SOL    HW2 7676   2.324   4.721   1.315  0.0336  0.1836  0.6870
 1976SOL    HW3 7677   2.297   4.646   1.186 -0.6017  3.4280 -1.1720
 1976SOL    MW4 7678   2.351   4.690   1.238  0.0313  1.0574  0.3236
 1977SOL     OW 7679   5.086   3.152   1.712 -0.3719 -0.5722 -0.5813
 1977SOL    HW2 7680   5.064   3.061   1.733  0.6576 -1.2650 -2.2796
 1977SOL    HW3 7681   5.121   3.148   1.623  0.5295  1.3630 -0.3621
 1977SOL    MW4 7682   5.088   3.139   1.703 -0.1171 -0.4083 -0.7765
 1978SOL     OW 7683   3.618   2.399   2.197  0.7445 -0.1406 -0.2508
 1978SOL    HW2 7684   3.703   2.364   2.171  1.2191 -0.2699  1.3775
 1978SOL    HW3 7685   3.637   2.457   2.271 -0.4400  0.8584 -0.6736
 1978SOL    MW4 7686   3.632   2.402   2.204  0.6509 -0.0258 -0.0917
 1979SOL     OW 7687   5.093   4.822   2.598  0.1545 -0.3517 -0.3749
 1979SOL    HW2 7688   5.015   4.865   2.564  1.0168  0.8328 -0.9455
 1979SOL    HW3 7689   5.153   4.817   2.523  0.9488 -0.4396  0.2440
 1979SOL    MW4 7690   5.091   4.827   2.583  0.3731 -0.2070 -0.3685
 1980SOL     OW 7691   4.341   1.406   3.992  0.1692  0.0277  0.5148
 1980SOL    HW2 7692   4.391   1.459   4.054 -0.6285  0.0893  1.1293
 1980SOL    HW3 7693   4.276   1.466   3.955  0.4596 -0.0777 -0.1796
 1980SOL    MW4 7694   4.339   1.421   3.995  0.1023  0.0219  0.5042
 1981SOL     OW 7695   2.666   1.095   1.098  0.0425  0.5709  0.2447
 1981SOL    HW2 7696   2.633   1.066   1.013 -1.5963 -0.5647  1.2159
 1981SOL    HW3 7697   2.648   1.189   1.098  0.7007  0.7214 -0.9181
 1981SOL    MW4 7698   2.659   1.104   1.086 -0.0868  0.4409  0.2194
 1982SOL     OW 7699   2.736   1.449   4.033 -0.3287  0.1634  0.0108
 1982SOL    HW2 7700   2.701   1.538   4.039 -1.1282 -0.2314  2.1764
 1982SOL    HW3 7701   2.790   1.440   4.111  0.6239 -0.9145 -0.7543
 1982SOL    MW4 7702   2.739   1.460   4.044 -0.3085 -0.0309  0.1956
 1983SOL     OW 7703   3.531   1.193   3.185  0.3780 -0.4638 -0.0815
 1983SOL    HW2 7704   3.607   1.234   3.226 -0.1550 -0.4112  0.8698
 1983SOL    HW3 7705   3.458   1.213   3.244 -0.1544 -1.5563 -0.3576
 1983SOL    MW4 7706   3.531   1.201   3.198  0.2374 -0.6010  0.0076
 1984SOL     OW 7707   5.306   6.384   5.139 -0.1770 -0.4180 -0.4220
 1984SOL    HW2 7708   5.226   6.427   5.169 -1.5091 -1.4384 -2.2542
 1984SOL    HW3 7709   5.334   6.330   5.212 -0.5973  0.6936  0.5888
 1984SOL    MW4 7710   5.299   6.382   5.152 -0.4082 -0.4060 -0.5304
 1985SOL     OW 7711   3.536   5.817   2.755 -0.4742 -0.6483 -0.1666
 1985SOL    HW2 7712   3.501   5.892   2.804 -2.0737 -0.7135 -1.1232
 1985SOL    HW3 7713   3.626   5.809   2.785 -0.5560  1.0498  0.6839
 1985SOL    MW4 7714   3.543   5.826   2.765 -0.6960 -0.4329 -0.1806
 1986SOL     OW 7715   0.713   2.822   6.069  0.2913 -0.2497  0.5609
 1986SOL    HW2 7716   0.702   2.880   6.145  0.7142 -0.3216  0.6806
 1986SOL    HW3 7717   0.766   2.749   6.103 -0.4195 -0.8248  0.4763
 1986SOL    MW4 7718   0.719   2.820   6.084  0.2533 -0.3350  0.5655
 1987SOL     OW 7719   5.512   2.247   3.584 -0.1974 -0.1103 -0.4300
 1987SOL    HW2 7720   5.582   2.183   3.578 -0.5860 -0.5933  0.0555
 1987SOL    HW3 7721   5.504   2.283   3.496  2.8571  2.3603  0.1374
 1987SOL    MW4 7722   5.520   2.243   3.572  0.1543  0.1519 -0.2910
 1988SOL     OW 7723   4.422   0.557   0.398  0.2874  0.2632  0.5987
 1988SOL    HW2 7724   4.428   0.490   0.465 -1.6708 -0.2080  0.3582
 1988SOL    HW3 7725   4.506   0.552   0.351  0.8684 -0.7708  1.7021
 1988SOL    MW4 7726   4.434   0.548   0.400  0.1057  0.0646  0.7126
 1989SOL     OW 7727   3.359   1.421   0.711  0.0862  0.1563  0.4404
 1989SOL    HW2 7728   3.277   1.458   0.742 -0.0278  1.0195 -0.8347
 1989SOL    HW3 7729   3.348   1.327   0.722 -1.0515  0.2613  0.3491
 1989SOL    MW4 7730   3.347   1.414   0.716 -0.0789  0.2840  0.2601
 1990SOL     OW 7731   0.223   0.895   5.385  0.7067 -0.6832 -0.3417
 1990SOL    HW2 7732   0.253   0.982   5.359  0.0082 -0.3572 -0.0906
 1990SOL    HW3 7733   0.282   0.835   5.341  0.2444 -0.1190 -1.7780
 1990SOL    MW4 7734   0.235   0.899   5.376  0.5535 -0.5657 -0.4981
 1991SOL     OW 7735   1.640  -0.003   2.392 -0.7886 -0.2687 -0.4408
 1991SOL    HW2 7736   1.700  -0.014   2.318  0.1247 -0.2924  0.2827
 1991SOL    HW3 7737   1.651   0.088   2.418  0.1217 -0.6749  0.6738
 1991SOL    MW4 7738   1.649   0.007   2.386 -0.5480 -0.3254 -0.1983
 1992SOL     OW 7739   3.453   4.243   4.411 -0.1245 -0.1400 -0.3922
 1992SOL    HW2 7740   3.527   4.229   4.471 -0.9380  0.4069  0.7895
 1992SOL    HW3 7741   3.382   4.191   4.448  0.1493 -2.2680 -2.6087
 1992SOL    MW4 7742   3.454   4.234   4.424 -0.1957 -0.3486 -0.5287
 1993SOL     OW 7743   5.912   2.097   3.070 -0.2286 -0.4816 -0.1651
 1993SOL    HW2 7744   5.869   2.058   2.994  1.5073  0.0072 -1.4669
 1993SOL    HW3 7745   5.849   2.089   3.141 -2.0435 -0.6531 -1.7434
 1993SOL    MW4 7746   5.898   2.091   3.070 -0.2390 -0.4397 -0.5451
 1994SOL     OW 7747   3.865   2.389   0.531  0.0914  0.1801  0.3692
 1994SOL    HW2 7748   3.885   2.414   0.622  0.2509 -0.7622  0.5984
 1994SOL    HW3 7749   3.933   2.327   0.508  0.2940  0.7384 -0.5514
 1994SOL    MW4 7750   3.876   2.384   0.540  0.1391  0.1295  0.2779
 1995SOL     OW 7751   4.204   1.870   5.365  0.3942  0.1232 -0.0386
 1995SOL    HW2 7752   4.121   1.840   5.327  0.3276  0.4947 -0.1958
 1995SOL    HW3 7753   4.181   1.953   5.408  0.5437 -0.1204  0.5080
 1995SOL    MW4 7754   4.190   1.877   5.365  0.4052  0.1400  0.0128
 1996SOL     OW 7755   5.509   0.464   0.173  0.0407  0.0334  0.0114
 1996SOL    HW2 7756   5.420   0.477   0.206  0.1701 -3.8016  2.5338
 1996SOL    HW3 7757   5.563   0.457   0.251  1.8564 -1.6257 -1.2872
 1996SOL    MW4 7758   5.505   0.465   0.187  0.2973 -0.6915  0.1729
 1997SOL     OW 7759   2.719   3.954   3.382 -0.1199  0.4900 -0.2908
 1997SOL    HW2 7760   2.653   3.934   3.316 -1.3690  0.8039  0.8312
 1997SOL    HW3 7761   2.679   4.022   3.436  1.5820  1.5223 -0.2720
 1997SOL    MW4 7762   2.705   3.960   3.381 -0.0602  0.6676 -0.1403
 1998SOL     OW 7763   2.322   1.051   2.286  0.7264  0.0222 -0.0271
 1998SOL    HW2 7764   2.391   1.115   2.304  0.0944  0.9993 -0.9512
 1998SOL    HW3 7765   2.243   1.089   2.326  0.7028 -1.1335  1.1183
 1998SOL    MW4 7766   2.321   1.065   2.294  0.6399 -0.0013  0.0021
 1999SOL     OW 7767   6.115   3.960   5.531 -0.1337 -0.1597 -0.0890
 1999SOL    HW2 7768   6.044   4.017   5.503  0.1841  0.2510 -0.0653
 1999SOL    HW3 7769   6.143   3.915   5.451  0.7309  0.9646 -0.4475
 1999SOL    MW4 7770   6.110   3.961   5.517  0.0223  0.0428 -0.1332
 2000SOL     OW 7771   1.527   3.636   5.319  0.0211 -0.0518 -0.4216
 2000SOL    HW2 7772   1.469   3.712   5.314  0.3007  0.1035 -1.5240
 2000SOL    HW3 7773   1.521   3.596   5.233  0.8627 -0.5488 -0.2548
 2000SOL    MW4 7774   1.518   3.641   5.307  0.1690 -0.0969 -0.5450
 2001SOL     OW 7775   2.784   1.750   3.998  0.1015 -0.2455 -0.0648
 2001SOL    HW2 7776   2.757   1.767   3.908  0.4509  1.5438  0.1362
 2001SOL    HW3 7777   2.865   1.700   3.989 -0.5856 -1.2725 -0.7090
 2001SOL    MW4 7778   2.791   1.746   3.985  0.0570 -0.1449 -0.1233
 2002SOL     OW 7779   3.639   3.008   3.060  0.1400 -0.2429  0.1642
 2002SOL    HW2 7780   3.547   3.033   3.045  0.0841  0.6713  1.7633
 2002SOL    HW3 7781   3.651   2.928   3.010 -0.8362  0.8862 -2.0342
 2002SOL    MW4 7782   3.628   3.001   3.052  0.0038  0.0267  0.0851
 2003SOL     OW 7783   0.814   3.377   0.309 -0.3994  0.0900  0.1434
 2003SOL    HW2 7784   0.731   3.405   0.348 -0.9422 -0.0799 -0.8605
 2003SOL    HW3 7785   0.794   3.293   0.267 -0.1856  0.8996 -1.6661
 2003SOL    MW4 7786   0.801   3.369   0.309 -0.4428  0.1744 -0.2278
 2004SOL     OW 7787   2.764   4.213   0.997  0.3880  0.6103  0.1051
 2004SOL    HW2 7788   2.784   4.278   0.930 -0.3994  1.2384  0.4733
 2004SOL    HW3 7789   2.837   4.218   1.058  0.7298  0.5742 -0.2981
 2004SOL    MW4 7790   2.776   4.222   0.996  0.3292  0.6884  0.1005
 2005SOL     OW 7791   5.719   6.416   5.086 -0.3427  0.0268 -0.5668
 2005SOL    HW2 7792   5.720   6.350   5.156  1.5946 -1.0290 -1.5053
 2005SOL    HW3 7793   5.638   6.400   5.039 -1.2457  0.1777  0.8741
 2005SOL    MW4 7794   5.709   6.405   5.089 -0.2062 -0.0926 -0.5005
 2006SOL     OW 7795   2.033   1.080   3.007  0.3394  0.1141  0.0209
 2006SOL    HW2 7796   2.082   1.158   3.033 -0.8518  1.6691 -2.0543
 2006SOL    HW3 7797   1.945   1.112   2.989 -0.5228 -1.9635  0.2608
 2006SOL    MW4 7798   2.028   1.094   3.008  0.0685  0.0451 -0.2212
 2007SOL     OW 7799   6.237   5.415   2.443 -0.1997 -0.3479  0.0310
 2007SOL    HW2 7800   6.287   5.354   2.389  1.6579  0.3289  0.8929
 2007SOL    HW3 7801   6.234   5.496   2.392 -1.3998 -0.6886 -0.4796
 2007SOL    MW4 7802   6.243   5.417   2.429 -0.1130 -0.3036  0.0774
 2008SOL     OW 7803   4.225   0.134   0.269 -0.0619 -0.1539  0.0173
 2008SOL    HW2 7804   4.304   0.105   0.315  0.9592  1.0214 -0.9461
 2008SOL    HW3 7805   4.237   0.228   0.257 -1.6282  0.0558 -0.1460
 2008SOL    MW4 7806   4.237   0.142   0.274 -0.1338  0.0289 -0.1313
 2009SOL     OW 7807   6.083   3.106   3.415 -0.0300 -0.0389  0.3369
 2009SOL    HW2 7808   6.068   3.012   3.420 -0.0985 -0.0176  0.5648
 2009SOL    HW3 7809   6.166   3.119   3.462 -0.3077  0.0816  0.7965
 2009SOL    MW4 7810   6.092   3.095   3.422 -0.0757 -0.0202  0.4276
 2010SOL     OW 7811   2.208   2.090   2.274  0.6344  0.3251 -0.2493
 2010SOL    HW2 7812   2.162   2.087   2.190 -0.9131  1.9347  0.4737
 2010SOL    HW3 7813   2.139   2.104   2.339  1.9795  1.0324  1.0971
 2010SOL    MW4 7814   2.193   2.092   2.272  0.6077  0.6308  0.0238
 2011SOL     OW 7815   4.874   1.776   1.617 -0.3906 -0.0201 -0.5271
 2011SOL    HW2 7816   4.790   1.807   1.649 -0.5994  0.6070 -1.6703
 2011SOL    HW3 7817   4.895   1.832   1.542  0.5518 -0.8308 -0.8996
 2011SOL    MW4 7818   4.866   1.787   1.612 -0.2938 -0.0443 -0.7271
 2012SOL     OW 7819   5.147   1.549   5.644  0.2861  0.1196 -0.8241
 2012SOL    HW2 7820   5.153   1.644   5.650  3.3661 -0.0221  0.0018
 2012SOL    HW3 7821   5.084   1.525   5.713  1.7339  1.4313  1.0784
 2012SOL    MW4 7822   5.139   1.559   5.654  0.8835  0.2739 -0.4641
 2013SOL     OW 7823   1.680   0.261   2.730  0.1051 -0.0502 -0.1494
 2013SOL    HW2 7824   1.635   0.176   2.726 -1.0214  0.5268 -3.3026
 2013SOL    HW3 7825   1.772   0.239   2.739 -0.3774 -1.4293  2.4218
 2013SOL    MW4 7826   1.686   0.247   2.731 -0.1072 -0.1560 -0.2262
 2014SOL     OW 7827   1.647   5.949   3.079  0.2558 -0.0775  0.2989
 2014SOL    HW2 7828   1.586   5.925   3.009  0.4741  0.0862  0.0463
 2014SOL    HW3 7829   1.727   5.899   3.060  0.1982 -0.2965  0.6299
 2014SOL    MW4 7830   1.650   5.939   3.067  0.2770 -0.0848  0.3092
 2015SOL     OW 7831   5.760   5.751   4.278 -0.1227  0.1843 -0.4698
 2015SOL    HW2 7832   5.849   5.715   4.276  0.3895  1.3219  0.4568
 2015SOL    HW3 7833   5.754   5.806   4.200  0.5854  1.4013  0.3068
 2015SOL    MW4 7834   5.771   5.753   4.267  0.0383  0.4950 -0.2450
 2016SOL     OW 7835   2.153   3.265   5.510 -0.0093  0.5251 -0.6717
 2016SOL    HW2 7836   2.072   3.252   5.561  1.3530 -0.6920  1.3313
 2016SOL    HW3 7837   2.179   3.355   5.529  0.1198  0.2959  0.2762
 2016SOL    MW4 7838   2.146   3.275   5.519  0.1875  0.3343 -0.2824
 2017SOL     OW 7839   5.771   1.197   3.366  0.2766 -0.1759  0.3215
 2017SOL    HW2 7840   5.724   1.281   3.363  0.0186 -0.3448 -0.5568
 2017SOL    HW3 7841   5.804   1.184   3.277  0.8819 -0.6975  0.6076
 2017SOL    MW4 7842   5.769   1.207   3.354  0.3224 -0.2670  0.2434
 2018SOL     OW 7843   1.778   4.993   1.303 -0.0974 -0.3154  0.0861
 2018SOL    HW2 7844   1.848   4.984   1.368 -1.4223 -0.7305  1.5134
 2018SOL    HW3 7845   1.808   5.064   1.246  1.2433 -0.1256  0.9699
 2018SOL    MW4 7846   1.791   5.001   1.304 -0.0953 -0.3451  0.3911
 2019SOL     OW 7847   6.325   4.189   1.699  0.1722  0.4165  0.3585
 2019SOL    HW2 7848   6.268   4.168   1.773  0.8422  0.0571  0.7796
 2019SOL    HW3 7849   6.414   4.187   1.736  0.4529  1.0395 -0.2707
 2019SOL    MW4 7850   6.329   4.186   1.714  0.2976  0.4513  0.3310
 2020SOL     OW 7851   6.169   4.100   1.934  1.0442 -0.2262 -0.2696
 2020SOL    HW2 7852   6.161   4.029   1.997  1.1644  0.4980  0.5725
 2020SOL    HW3 7853   6.097   4.160   1.955  2.4657  1.2112  0.7554
 2020SOL    MW4 7854   6.158   4.099   1.945  1.2476  0.0590 -0.0233
 2021SOL     OW 7855   4.002   3.974   3.538 -0.2064 -0.2053 -0.1055
 2021SOL    HW2 7856   3.912   3.969   3.572 -0.2183  1.7756  0.2731
 2021SOL    HW3 7857   3.992   4.008   3.449  0.2124  1.6223  0.5009
 2021SOL    MW4 7858   3.989   3.978   3.530 -0.1527  0.2972  0.0245
 2022SOL     OW 7859   6.350   1.784   3.326 -0.3324  0.3257  0.4755
 2022SOL    HW2 7860   6.368   1.817   3.238  0.0850 -1.1626 -0.0311
 2022SOL    HW3 7861   6.273   1.833   3.355  0.9792  2.6147  0.3125
 2022SOL    MW4 7862   6.342   1.794   3.318 -0.1043  0.4313  0.3872
 2023SOL     OW 7863   0.108   4.961   1.517  0.4089  0.2850 -0.5756
 2023SOL    HW2 7864   0.158   4.880   1.533 -0.8460 -0.5988 -1.0003
 2023SOL    HW3 7865   0.168   5.031   1.544  1.6407 -0.7602 -0.4693
 2023SOL    MW4 7866   0.123   4.959   1.523  0.4059  0.0305 -0.6176
 2024SOL     OW 7867   6.230   3.373   5.369  0.7044 -0.1468  0.3688
 2024SOL    HW2 7868   6.251   3.414   5.284 -1.5472 -0.8142 -0.5697
 2024SOL    HW3 7869   6.171   3.435   5.411  0.9762 -0.3124  1.0033
 2024SOL    MW4 7870   6.225   3.387   5.363  0.4432 -0.2567  0.3287
 2025SOL     OW 7871   5.565   3.044   5.857  0.1369  0.3854  0.1443
 2025SOL    HW2 7872   5.523   3.001   5.783  0.0085 -0.8252  0.8942
 2025SOL    HW3 7873   5.516   3.013   5.934  1.1409  0.5097  0.8529
 2025SOL    MW4 7874   5.553   3.034   5.858  0.2525  0.2421  0.3367
 2026SOL     OW 7875   5.924   0.765   0.410 -0.0557  0.2918 -0.0841
 2026SOL    HW2 7876   5.927   0.694   0.346  2.6626 -0.4644  0.7444
 2026SOL    HW3 7877   5.835   0.800   0.404  0.2040  0.7276 -4.7431
 2026SOL    MW4 7878   5.913   0.760   0.401  0.3372  0.2495 -0.5895
 2027SOL     OW 7879   0.670   1.380   1.546 -0.5670 -0.0704  0.1248
 2027SOL    HW2 7880   0.699   1.340   1.628  0.7889  1.7744  0.6241
 2027SOL    HW3 7881   0.642   1.307   1.491  1.1840 -1.6330  1.1979
 2027SOL    MW4 7882   0.670   1.365   1.549 -0.1571 -0.0332  0.3323
 2028SOL     OW 7883   4.243   4.384   5.311  0.0463 -0.3689 -0.0986
 2028SOL    HW2 7884   4.223   4.335   5.231  0.2114 -2.4047  1.0427
 2028SOL    HW3 7885   4.214   4.473   5.292 -1.8579 -1.2432 -1.6868
 2028SOL    MW4 7886   4.237   4.389   5.298 -0.1832 -0.7528 -0.1575
 2029SOL     OW 7887   2.974   2.005   4.655 -0.1639  0.1173 -0.4805
 2029SOL    HW2 7888   2.984   1.911   4.639 -2.6878 -0.2287 -0.5524
 2029SOL    HW3 7889   2.904   2.010   4.721 -1.0264  1.9464 -1.4468
 2029SOL    MW4 7890   2.966   1.993   4.662 -0.6107  0.3130 -0.6175
 2030SOL     OW 7891   2.488   2.636   0.498  0.4154  0.0784  0.5058
 2030SOL    HW2 7892   2.416   2.658   0.558  0.8195  0.2196  0.9507
 2030SOL    HW3 7893   2.453   2.653   0.411  0.6391  2.3621  0.8098
 2030SOL    MW4 7894   2.474   2.641   0.495  0.4982  0.3983  0.6046
 2031SOL     OW 7895   0.947   4.883   2.183  0.4173 -0.2884  0.3077
 2031SOL    HW2 7896   0.963   4.887   2.089 -1.8256 -2.5169 -0.2809
 2031SOL    HW3 7897   0.852   4.874   2.191  0.5040  0.3257  2.8191
 2031SOL    MW4 7898   0.937   4.882   2.172  0.1328 -0.5014  0.5614
 2032SOL     OW 7899   3.693   6.124   5.163 -0.3069  0.6112 -0.1568
 2032SOL    HW2 7900   3.738   6.109   5.080  1.0391 -0.0729  0.6563
 2032SOL    HW3 7901   3.621   6.183   5.141 -0.4521 -0.1593 -1.9346
 2032SOL    MW4 7902   3.689   6.130   5.149 -0.1485  0.4193 -0.2841
 2033SOL     OW 7903   4.640   0.633   2.557  0.2825  0.0806  0.1866
 2033SOL    HW2 7904   4.562   0.582   2.537  1.0348 -1.0151 -0.0409
 2033SOL    HW3 7905   4.632   0.711   2.503  0.1237 -0.7825 -1.0897
 2033SOL    MW4 7906   4.629   0.636   2.547  0.3608 -0.1779 -0.0118
 2034SOL     OW 7907   1.891   5.259   2.804  0.7967 -0.1332  0.3876
 2034SOL    HW2 7908   1.848   5.329   2.853 -0.6810  1.0765 -2.3812
 2034SOL    HW3 7909   1.855   5.178   2.840 -0.2543  0.6874  1.2366
 2034SOL    MW4 7910   1.880   5.257   2.815  0.4631  0.1347  0.1343
 2035SOL     OW 7911   4.742   6.005   3.728 -0.5946 -0.3428 -0.1019
 2035SOL    HW2 7912   4.720   6.029   3.818  0.6629 -1.6383  0.5923
 2035SOL    HW3 7913   4.773   6.086   3.688 -2.2787  0.5077  0.2383
 2035SOL    MW4 7914   4.743   6.019   3.735 -0.6509 -0.4015  0.0346
 2036SOL     OW 7915   1.195   5.056   2.240  0.0101  0.0790  0.5217
 2036SOL    HW2 7916   1.220   5.088   2.153 -2.1248  2.2113  0.5693
 2036SOL    HW3 7917   1.120   4.999   2.224  1.9680 -2.7225  0.7214
 2036SOL    MW4 7918   1.188   5.053   2.226 -0.0132 -0.0093  0.5543
 2037SOL     OW 7919   4.380   2.680   2.248  0.2084 -0.3741  0.3532
 2037SOL    HW2 7920   4.319   2.752   2.232  1.9818  1.2214  0.3809
 2037SOL    HW3 7921   4.361   2.616   2.179  0.8909  1.7543 -1.9451
 2037SOL    MW4 7922   4.370   2.681   2.237  0.5324  0.1173  0.0536
 2038SOL     OW 7923   2.906   5.045   4.937  0.3456 -0.1537 -0.3256
 2038SOL    HW2 7924   2.870   4.957   4.945  0.8984 -0.3000  0.7894
 2038SOL    HW3 7925   2.980   5.035   4.877 -0.0967 -0.2772 -0.8596
 2038SOL    MW4 7926   2.911   5.032   4.930  0.3602 -0.1893 -0.2489
 2039SOL     OW 7927   1.009   1.931   5.098 -0.4286 -0.0548 -0.4108
 2039SOL    HW2 7928   0.953   1.992   5.146 -0.7243 -0.3989 -0.3067
 2039SOL    HW3 7929   0.948   1.877   5.048 -0.4732 -2.2230  1.7507
 2039SOL    MW4 7930   0.993   1.932   5.098 -0.4735 -0.3863 -0.1119
 2040SOL     OW 7931   6.138   2.464   2.390 -0.2155  0.5959 -0.6425
 2040SOL    HW2 7932   6.218   2.515   2.403  0.0659  0.0709 -0.2415
 2040SOL    HW3 7933   6.095   2.464   2.476  0.5870 -1.1407 -0.1793
 2040SOL    MW4 7934   6.143   2.470   2.403 -0.0725  0.2975 -0.5285
 2041SOL     OW 7935   4.616   5.346   5.371 -0.2672 -0.3500  0.3645
 2041SOL    HW2 7936   4.563   5.278   5.412  0.2752  0.1940  2.0893
 2041SOL    HW3 7937   4.646   5.400   5.445  1.1930  0.4050 -0.7230
 2041SOL    MW4 7938   4.613   5.345   5.386 -0.0030 -0.1786  0.4486
 2042SOL     OW 7939   4.499   0.365   5.882  0.5484  0.1347 -0.1013
 2042SOL    HW2 7940   4.512   0.322   5.967  0.5872  0.5254  0.0943
 2042SOL    HW3 7941   4.567   0.327   5.825  1.4012  0.8351  0.4117
 2042SOL    MW4 7942   4.510   0.354   5.886  0.6661  0.2787 -0.0078
 2043SOL     OW 7943   1.536   3.645   0.924  0.2104 -0.6252  0.0643
 2043SOL    HW2 7944   1.604   3.593   0.965  0.5541 -1.2931 -1.2854
 2043SOL    HW3 7945   1.526   3.607   0.836 -0.1099  1.0507 -0.6724
 2043SOL    MW4 7946   1.543   3.633   0.918  0.2135 -0.4922 -0.2110
 2044SOL     OW 7947   1.273   3.121   1.997  0.0943 -0.2713  0.0321
 2044SOL    HW2 7948   1.366   3.145   2.002  0.2595 -0.8663 -0.1286
 2044SOL    HW3 7949   1.235   3.156   2.078  0.3291  0.5108 -0.1895
 2044SOL    MW4 7950   1.280   3.129   2.009  0.1471 -0.2466 -0.0183
 2045SOL     OW 7951   2.388   4.209   3.671 -0.6176 -0.4710  0.1226
 2045SOL    HW2 7952   2.362   4.173   3.585  0.5214 -1.0948  0.0185
 2045SOL    HW3 7953   2.357   4.144   3.734 -0.9518 -0.2915  0.1468
 2045SOL    MW4 7954   2.380   4.196   3.668 -0.5114 -0.5297  0.1120
 2046SOL     OW 7955   2.586   3.990   4.171  0.4069 -0.2620 -0.1196
 2046SOL    HW2 7956   2.585   4.070   4.224 -1.4279 -0.2149 -0.1699
 2046SOL    HW3 7957   2.628   3.925   4.227  0.9212  0.4454  0.3438
 2046SOL    MW4 7958   2.592   3.992   4.186  0.2327 -0.1625 -0.0651
 2047SOL     OW 7959   1.549   4.596   1.139 -0.0150  0.0842  0.6401
 2047SOL    HW2 7960   1.556   4.572   1.232 -1.6023 -0.5530  0.6085
 2047SOL    HW3 7961   1.456   4.610   1.124 -0.0138 -1.5071 -1.2760
 2047SOL    MW4 7962   1.538   4.595   1.150 -0.2243 -0.2099  0.3832
 2048SOL     OW 7963   4.859   2.669   5.445 -0.0571 -0.0869 -0.2902
 2048SOL    HW2 7964   4.810   2.752   5.449  0.3924  0.3152 -2.0509
 2048SOL    HW3 7965   4.802   2.611   5.394  1.1378  0.3192 -2.1776
 2048SOL    MW4 7966   4.845   2.672   5.438  0.1599  0.0197 -0.7715
 2049SOL     OW 7967   2.170   0.552   0.501  0.1756 -0.6684 -0.6954
 2049SOL    HW2 7968   2.081   0.537   0.532  0.9706 -0.8642  1.6517
 2049SOL    HW3 7969   2.221   0.481   0.540  1.7961  0.8989  0.1404
 2049SOL    MW4 7970   2.165   0.540   0.510  0.4943 -0.4875 -0.2754
 2050SOL     OW 7971   0.173   5.218   5.729  0.1022 -0.2729  0.2938
 2050SOL    HW2 7972   0.156   5.127   5.706  2.2772 -0.3857 -1.2605
 2050SOL    HW3 7973   0.189   5.217   5.823  0.2496 -1.5359  0.2761
 2050SOL    MW4 7974   0.173   5.206   5.738  0.4086 -0.4544  0.0863
 2051SOL     OW 7975   3.111   6.173   3.950 -0.0989 -0.6791  0.8254
 2051SOL    HW2 7976   3.185   6.112   3.950  2.4715  2.1875  1.7714
 2051SOL    HW3 7977   3.057   6.144   3.877  2.8779 -1.9475 -1.0916
 2051SOL    MW4 7978   3.114   6.161   3.940  0.6330 -0.4683  0.6973
 2052SOL     OW 7979   5.676   4.105   0.313  0.2939 -1.0509 -0.1303
 2052SOL    HW2 7980   5.588   4.137   0.331 -0.2267 -2.4146 -0.1690
 2052SOL    HW3 7981   5.706   4.069   0.396  0.3151 -1.7302 -0.4279
 2052SOL    MW4 7982   5.668   4.105   0.326  0.2280 -1.3205 -0.1747
 2053SOL     OW 7983   0.584   2.476   1.811  0.0578  0.7684  0.0198
 2053SOL    HW2 7984   0.604   2.386   1.785 -1.3323  1.1488 -2.7442
 2053SOL    HW3 7985   0.503   2.469   1.861  0.0931  0.4503  0.0342
 2053SOL    MW4 7986   0.576   2.463   1.814 -0.1209  0.7766 -0.3430
 2054SOL     OW 7987   6.226   3.663   1.756 -0.2576 -0.5214 -0.5529
 2054SOL    HW2 7988   6.216   3.626   1.668 -2.0902 -1.3339 -0.0541
 2054SOL    HW3 7989   6.189   3.597   1.815  0.3718  0.2664  0.7759
 2054SOL    MW4 7990   6.220   3.650   1.752 -0.4163 -0.5246 -0.3117
 2055SOL     OW 7991   3.061   2.605   3.227 -0.7205  0.5696  0.8366
 2055SOL    HW2 7992   2.994   2.635   3.165  0.1133  1.8864  0.5323
 2055SOL    HW3 7993   3.136   2.664   3.212  0.4830 -0.8051  1.2152
 2055SOL    MW4 7994   3.062   2.617   3.217 -0.4517  0.5620  0.8464
 2056SOL     OW 7995   5.112   1.390   2.030 -0.2104  0.4827 -0.5565
 2056SOL    HW2 7996   5.094   1.405   1.937 -0.4346  1.1008 -0.4173
 2056SOL    HW3 7997   5.207   1.384   2.035 -0.2213 -0.0335 -0.8945
 2056SOL    MW4 7998   5.122   1.391   2.018 -0.2414  0.4961 -0.5827
 2057SOL     OW 7999   1.484   3.036   4.182 -0.2024 -0.3166  0.2506
 2057SOL    HW2 8000   1.565   3.087   4.188 -1.4176  1.7413  0.0902
 2057SOL    HW3 8001   1.514   2.945   4.175  2.0636  0.3201  0.7375
 2057SOL    MW4 8002   1.499   3.031   4.182 -0.0638  0.0389  0.2937
 2058SOL     OW 8003   1.585   0.848   4.284  0.2791  0.0272 -0.8076
 2058SOL    HW2 8004   1.496   0.815   4.275  0.4148 -0.4538 -0.4201
 2058SOL    HW3 8005   1.640   0.770   4.286  0.7308  0.3229 -1.2085
 2058SOL    MW4 8006   1.581   0.834   4.283  0.3566  0.0028 -0.8093
 2059SOL     OW 8007   5.263   2.724   0.495 -0.3188  0.0197  0.6988
 2059SOL    HW2 8008   5.221   2.638   0.499  0.3988 -0.4347 -0.6663
 2059SOL    HW3 8009   5.201   2.783   0.537 -1.3965 -0.9606  0.5461
 2059SOL    MW4 8010   5.249   2.720   0.501 -0.3663 -0.1696  0.4985
 2060SOL     OW 8011   0.143   3.692   4.413 -0.1925  0.1636  0.4427
 2060SOL    HW2 8012   0.181   3.611   4.380 -0.0423  0.0816  0.8105
 2060SOL    HW3 8013   0.208   3.759   4.394 -1.1022  0.5314 -1.5393
 2060SOL    MW4 8014   0.156   3.690   4.406 -0.2927  0.2013  0.2297
 2061SOL     OW 8015   5.019   6.162   5.349  0.0706  0.3253  0.1407
 2061SOL    HW2 8016   4.940   6.214   5.332 -0.4004 -0.1553  0.8015
 2061SOL    HW3 8017   4.986   6.073   5.360  0.9733 -0.3199 -2.0265
 2061SOL    MW4 8018   5.004   6.157   5.348  0.1276  0.1767 -0.0581
 2062SOL     OW 8019   5.765   2.365   4.770 -0.1915  0.0803  0.1454
 2062SOL    HW2 8020   5.756   2.293   4.833 -2.1411 -0.0546 -0.2127
 2062SOL    HW3 8021   5.713   2.336   4.694 -1.8743  2.2461  0.3708
 2062SOL    MW4 8022   5.757   2.352   4.768 -0.6708  0.3482  0.1279
 2063SOL     OW 8023   1.594   4.379   2.064 -0.1641 -0.1357 -0.0058
 2063SOL    HW2 8024   1.505   4.345   2.075 -0.8611  1.8857  1.1110
 2063SOL    HW3 8025   1.599   4.403   1.972 -0.5380 -0.9003 -0.2302
 2063SOL    MW4 8026   1.583   4.378   2.054 -0.3054  0.0301  0.1119
 2064SOL     OW 8027   0.731   4.343   5.524  0.1548 -0.8476 -0.8318
 2064SOL    HW2 8028   0.636   4.336   5.510  0.4037 -0.7616 -2.9552
 2064SOL    HW3 8029   0.762   4.252   5.522  0.1942 -0.8328 -0.9103
 2064SOL    MW4 8030   0.722   4.330   5.522  0.1928 -0.8343 -1.1223
 2065SOL     OW 8031   3.960   5.060   3.147  0.5049  0.3694  0.3678
 2065SOL    HW2 8032   4.044   5.047   3.191  1.3271  1.8178 -0.6691
 2065SOL    HW3 8033   3.972   5.019   3.061 -0.6539 -1.3532  0.9751
 2065SOL    MW4 8034   3.973   5.053   3.141  0.4605  0.3332  0.3111
 2066SOL     OW 8035   4.324   2.267   0.346  0.1296 -0.3046 -0.2950
 2066SOL    HW2 8036   4.349   2.297   0.259 -0.1060 -2.0829 -1.0150
 2066SOL    HW3 8037   4.339   2.172   0.344 -0.1042 -0.4203  1.5249
 2066SOL    MW4 8038   4.329   2.258   0.334  0.0676 -0.5545 -0.1499
 2067SOL     OW 8039   5.835   2.975   5.901 -0.0813  0.6473 -0.6082
 2067SOL    HW2 8040   5.872   3.011   5.820 -0.8593 -1.2678 -1.8862
 2067SOL    HW3 8041   5.742   3.001   5.897 -0.1507  0.4285 -0.3925
 2067SOL    MW4 8042   5.828   2.983   5.889 -0.1931  0.3658 -0.7484
 2068SOL     OW 8043   3.919   6.238   5.295  0.4816  0.0320 -0.1193
 2068SOL    HW2 8044   3.865   6.254   5.372  0.4881  1.1790 -0.3356
 2068SOL    HW3 8045   3.859   6.202   5.231 -0.1962  1.7958 -0.5415
 2068SOL    MW4 8046   3.904   6.236   5.297  0.3931  0.4160 -0.2036
 2069SOL     OW 8047   4.159   0.584   5.009  0.1126  0.8219  0.0089
 2069SOL    HW2 8048   4.161   0.570   5.103  0.1489  2.8152  0.3442
 2069SOL    HW3 8049   4.218   0.517   4.973 -0.6071 -0.5455  1.2744
 2069SOL    MW4 8050   4.167   0.573   5.016  0.0225  0.9045  0.2201
 2070SOL     OW 8051   0.265   1.828   3.866  0.0561  0.1071  0.1130
 2070SOL    HW2 8052   0.299   1.753   3.816 -0.2076 -0.1835  0.3664
 2070SOL    HW3 8053   0.230   1.789   3.946 -0.6582  0.4355 -0.0370
 2070SOL    MW4 8054   0.265   1.813   3.870 -0.0729  0.1121  0.1267
 2071SOL     OW 8055   1.379   2.363   4.189  0.1051 -0.1361 -0.9809
 2071SOL    HW2 8056   1.468   2.385   4.214  0.5426 -2.1129 -0.6364
 2071SOL    HW3 8057   1.326   2.389   4.264  0.9106 -2.4224  0.4583
 2071SOL    MW4 8058   1.384   2.370   4.202  0.2691 -0.6986 -0.7455
 2072SOL     OW 8059   5.580   0.204   0.493 -0.0855  0.1020 -0.1268
 2072SOL    HW2 8060   5.577   0.123   0.442  1.4079 -1.1355  1.6133
 2072SOL    HW3 8061   5.575   0.175   0.584 -0.4352  2.0687  0.5336
 2072SOL    MW4 8062   5.579   0.189   0.498  0.0654  0.1982  0.1899
 2073SOL     OW 8063   1.095   6.290   4.929 -0.2415  0.0205 -0.7384
 2073SOL    HW2 8064   1.084   6.380   4.897 -2.3216  1.0956  2.5907
 2073SOL    HW3 8065   1.125   6.300   5.019 -0.0617 -2.6986 -0.4123
 2073SOL    MW4 8066   1.098   6.304   4.937 -0.4922 -0.1964 -0.2561
 2074SOL     OW 8067   1.264   2.446   2.970 -0.2776  0.1613 -0.4820
 2074SOL    HW2 8068   1.201   2.515   2.990  1.1861  1.6483 -0.8257
 2074SOL    HW3 8069   1.226   2.367   3.010 -2.2032  1.0404 -0.4603
 2074SOL    MW4 8070   1.250   2.445   2.978 -0.3385  0.4734 -0.5245
 2075SOL     OW 8071   0.956   1.273   1.929 -0.5786 -0.2663  0.7146
 2075SOL    HW2 8072   0.874   1.270   1.878 -0.8777 -0.1816  1.1822
 2075SOL    HW3 8073   1.005   1.346   1.891  0.1650 -1.5290 -0.8743
 2075SOL    MW4 8074   0.951   1.282   1.917 -0.5199 -0.4217  0.5667
 2076SOL     OW 8075   5.676   0.887   0.382  0.0077  0.1984 -0.0088
 2076SOL    HW2 8076   5.626   0.863   0.460 -0.7395 -0.7769 -0.7484
 2076SOL    HW3 8077   5.625   0.850   0.309  0.3993  1.5502 -1.0001
 2076SOL    MW4 8078   5.663   0.879   0.382 -0.0392  0.2481 -0.2372
 2077SOL     OW 8079   3.391   4.657   2.949 -0.0440 -0.4487  0.9003
 2077SOL    HW2 8080   3.443   4.608   3.012 -0.9806 -1.7765  0.6947
 2077SOL    HW3 8081   3.451   4.677   2.878  0.5857 -0.4785  1.4161
 2077SOL    MW4 8082   3.406   4.653   2.948 -0.0845 -0.6278  0.9412
 2078SOL     OW 8083   2.268   4.844   6.202  0.0042 -0.0829  0.5083
 2078SOL    HW2 8084   2.233   4.861   6.115 -3.6376  2.4646  2.2308
 2078SOL    HW3 8085   2.293   4.930   6.236  1.3996 -1.0027  2.0004
 2078SOL    MW4 8086   2.267   4.857   6.195 -0.2922  0.1319  0.9324
 2079SOL     OW 8087   2.766   2.231   4.483 -0.1068  0.3064  0.0374
 2079SOL    HW2 8088   2.684   2.261   4.445 -0.7206 -1.2939  0.0047
 2079SOL    HW3 8089   2.784   2.148   4.438 -0.2982 -1.1112  2.4067
 2079SOL    MW4 8090   2.757   2.224   4.472 -0.2130 -0.0918  0.3457
 2080SOL     OW 8091   1.734   2.787   0.956 -0.4226 -0.2543 -0.4688
 2080SOL    HW2 8092   1.723   2.875   0.923 -0.2828  0.3721  1.0615
 2080SOL    HW3 8093   1.665   2.776   1.021 -0.1119 -1.0621 -0.2550
 2080SOL    MW4 8094   1.724   2.797   0.960 -0.3632 -0.2783 -0.2387
 2081SOL     OW 8095   5.655   1.729   4.825 -0.1705  0.1144 -0.3776
 2081SOL    HW2 8096   5.731   1.671   4.821 -0.7488 -0.6277 -1.0200
 2081SOL    HW3 8097   5.692   1.817   4.825  0.8944 -0.1637  3.4528
 2081SOL    MW4 8098   5.670   1.733   4.824 -0.1063 -0.0202  0.0430
 2082SOL     OW 8099   5.114   6.066   5.746  0.3463  0.5363 -0.0815
 2082SOL    HW2 8100   5.043   6.124   5.716 -0.2927  0.4851  1.2553
 2082SOL    HW3 8101   5.080   5.978   5.732 -0.5037  0.4943  1.8677
 2082SOL    MW4 8102   5.100   6.062   5.740  0.1498  0.5240  0.3520
 2083SOL     OW 8103   0.323   4.944   0.234 -0.0492 -0.7005 -0.3101
 2083SOL    HW2 8104   0.400   4.936   0.290  0.1901 -0.9023 -0.6675
 2083SOL    HW3 8105   0.276   4.862   0.246  0.0577 -0.7879 -0.4879
 2083SOL    MW4 8106   0.327   4.932   0.243 -0.0035 -0.7387 -0.3807
 2084SOL     OW 8107   5.118   4.756   3.937 -0.1408 -0.0826 -0.2134
 2084SOL    HW2 8108   5.212   4.767   3.950  0.1831  0.9634 -2.7449
 2084SOL    HW3 8109   5.080   4.774   4.023  1.9392 -0.6670  0.9172
 2084SOL    MW4 8110   5.126   4.760   3.950  0.1763 -0.0217 -0.3983
 2085SOL     OW 8111   1.703   0.436   5.294  0.0561 -0.7569 -0.3064
 2085SOL    HW2 8112   1.632   0.409   5.236 -0.9873  1.9824 -0.4840
 2085SOL    HW3 8113   1.737   0.516   5.254  0.4797  0.2458  1.8955
 2085SOL    MW4 8114   1.698   0.443   5.281 -0.0257 -0.2632 -0.0393
 2086SOL     OW 8115   2.458   3.333   5.671  0.3305  0.1119 -0.1564
 2086SOL    HW2 8116   2.543   3.374   5.688 -0.2887  1.1564  0.5102
 2086SOL    HW3 8117   2.467   3.245   5.709  1.5250 -0.2621 -1.2156
 2086SOL    MW4 8118   2.471   3.326   5.678  0.4064  0.2004 -0.2082
 2087SOL     OW 8119   5.505   6.357   2.547  0.2040  0.3266  0.2892
 2087SOL    HW2 8120   5.566   6.286   2.530  1.5198  0.7607  2.7526
 2087SOL    HW3 8121   5.552   6.436   2.522  0.5080  0.6260  1.7306
 2087SOL    MW4 8122   5.519   6.358   2.541  0.4177  0.4233  0.8044
 2088SOL     OW 8123   5.162   3.172   5.910 -0.0362  0.2677  0.2481
 2088SOL    HW2 8124   5.124   3.097   5.955 -1.0825  1.0329  0.6895
 2088SOL    HW3 8125   5.094   3.240   5.915  0.2709  0.7625 -1.4596
 2088SOL    MW4 8126   5.148   3.171   5.916 -0.1338  0.4340  0.0810
 2089SOL     OW 8127   2.653   2.463   0.923 -0.3089  0.1111  0.1040
 2089SOL    HW2 8128   2.647   2.518   0.845  0.1170  0.6450  0.4390
 2089SOL    HW3 8129   2.563   2.443   0.947 -0.4326 -0.3727 -0.7437
 2089SOL    MW4 8130   2.641   2.467   0.916 -0.2690  0.1177  0.0364
 2090SOL     OW 8131   5.449   4.417   2.274 -0.7525 -0.1403  0.5549
 2090SOL    HW2 8132   5.461   4.331   2.314 -0.6255 -0.1212  0.5583
 2090SOL    HW3 8133   5.359   4.442   2.298 -2.3652 -2.0315 -2.7783
 2090SOL    MW4 8134   5.438   4.409   2.282 -0.9485 -0.3873  0.1156
 2091SOL     OW 8135   2.851   1.886   0.633  0.2622  0.1332 -0.0181
 2091SOL    HW2 8136   2.793   1.850   0.566 -1.0497  0.4837  0.8950
 2091SOL    HW3 8137   2.925   1.825   0.636 -0.4558 -0.8006 -0.6326
 2091SOL    MW4 8138   2.853   1.873   0.625 -0.0056  0.0563  0.0213
 2092SOL     OW 8139   1.690   4.793   3.085  0.0028  0.5035 -0.2472
 2092SOL    HW2 8140   1.637   4.869   3.060 -1.1782 -0.9359 -2.4270
 2092SOL    HW3 8141   1.646   4.719   3.044  0.8054 -1.4946  2.2348
 2092SOL    MW4 8142   1.677   4.793   3.076 -0.0471  0.0499 -0.2073
 2093SOL     OW 8143   0.142   4.931   5.598 -0.1706 -0.1433 -0.3347
 2093SOL    HW2 8144   0.115   4.960   5.510 -0.8100 -0.1007 -0.1330
 2093SOL    HW3 8145   0.137   4.835   5.594  0.8126 -0.1850 -0.6530
 2093SOL    MW4 8146   0.137   4.922   5.585 -0.1253 -0.1432 -0.3501
 2094SOL     OW 8147   1.463   2.342   1.462 -0.0469 -0.2999 -0.1540
 2094SOL    HW2 8148   1.472   2.359   1.368 -1.2076  0.1794 -0.2041
 2094SOL    HW3 8149   1.535   2.390   1.502 -0.0591  0.2338 -0.7414
 2094SOL    MW4 8150   1.473   2.351   1.455 -0.2017 -0.1662 -0.2381
 2095SOL     OW 8151   4.502   5.607   2.765 -0.3077  0.1364  0.5651
 2095SOL    HW2 8152   4.576   5.558   2.799 -1.0370 -0.8506  0.7723
 2095SOL    HW3 8153   4.522   5.622   2.673  1.4639  2.4011  1.2314
 2095SOL    MW4 8154   4.514   5.603   2.757 -0.1702  0.3050  0.6804
 2096SOL     OW 8155   5.823   5.436   1.191 -0.3672 -0.0759 -0.4065
 2096SOL    HW2 8156   5.746   5.468   1.144  0.0125  0.9144 -0.3812
 2096SOL    HW3 8157   5.850   5.510   1.245  0.8365 -0.2747 -0.7112
 2096SOL    MW4 8158   5.816   5.450   1.192 -0.1583  0.0286 -0.4433
 2097SOL     OW 8159   4.580   4.921   2.636 -0.7097  0.2695 -0.1972
 2097SOL    HW2 8160   4.591   5.012   2.663 -2.6318  1.0843 -1.8720
 2097SOL    HW3 8161   4.592   4.871   2.716 -0.2609  2.0250  0.9057
 2097SOL    MW4 8162   4.583   4.927   2.650 -0.9041  0.6086 -0.2727
 2098SOL     OW 8163   1.282   4.538   4.528 -0.4530  0.2672 -0.3432
 2098SOL    HW2 8164   1.302   4.450   4.560  0.7574  1.1342  1.5259
 2098SOL    HW3 8165   1.191   4.553   4.554 -0.8478 -0.6239 -1.1802
 2098SOL    MW4 8166   1.273   4.528   4.536 -0.3454  0.2640 -0.2070
 2099SOL     OW 8167   5.905   3.613   2.385  0.1612 -0.5612 -0.0072
 2099SOL    HW2 8168   5.984   3.560   2.387 -0.4451 -1.4759  0.1384
 2099SOL    HW3 8169   5.892   3.642   2.475  0.6258  0.0585 -0.1300
 2099SOL    MW4 8170   5.914   3.610   2.397  0.1425 -0.6001 -0.0042
 2100SOL     OW 8171   4.568   4.494   3.637 -0.4135  0.0057  0.3063
 2100SOL    HW2 8172   4.534   4.495   3.727 -0.9311 -2.4618  0.2247
 2100SOL    HW3 8173   4.656   4.458   3.645 -0.8250 -1.1628 -0.2439
 2100SOL    MW4 8174   4.575   4.489   3.650 -0.5361 -0.4740  0.2229
 2101SOL     OW 8175   2.252   5.659   3.076 -0.0040  0.2038  0.4735
 2101SOL    HW2 8176   2.330   5.605   3.060 -0.7393 -0.5481 -0.7236
 2101SOL    HW3 8177   2.185   5.620   3.020 -1.1446  1.0668  1.2208
 2101SOL    MW4 8178   2.254   5.646   3.066 -0.2515  0.2184  0.4141
 2102SOL     OW 8179   3.020   3.961   6.105 -0.3379 -0.5333 -0.1482
 2102SOL    HW2 8180   2.945   3.914   6.141 -3.4029  1.8931 -2.7997
 2102SOL    HW3 8181   3.007   4.051   6.132  1.9250 -0.1005 -0.3300
 2102SOL    MW4 8182   3.008   3.966   6.113 -0.4438 -0.1561 -0.5220
 2103SOL     OW 8183   2.688   3.470   2.823  0.2046  0.7287  0.0492
 2103SOL    HW2 8184   2.607   3.468   2.875  0.1928  1.3825  0.0630
 2103SOL    HW3 8185   2.720   3.380   2.826 -0.0669  0.6439  0.7633
 2103SOL    MW4 8186   2.681   3.457   2.831  0.1673  0.8038  0.1452
 2104SOL     OW 8187   1.998   5.031   5.688  0.3504  0.0168  0.1025
 2104SOL    HW2 8188   1.980   5.059   5.598 -0.1496 -1.0934 -0.1559
 2104SOL    HW3 8189   1.945   5.090   5.742 -0.2462 -0.0426 -0.4009
 2104SOL    MW4 8190   1.988   5.042   5.683  0.2057 -0.1375  0.0020
 2105SOL     OW 8191   4.960   5.727   3.375  0.1806  0.3198 -0.0131
 2105SOL    HW2 8192   4.882   5.706   3.323 -0.1964 -0.9412  1.0018
 2105SOL    HW3 8193   5.031   5.730   3.311 -0.3017 -0.9893 -0.6509
 2105SOL    MW4 8194   4.959   5.725   3.359  0.0672 -0.0193  0.0367
 2106SOL     OW 8195   0.785   2.951   5.834  1.1389 -0.0265 -0.4054
 2106SOL    HW2 8196   0.747   2.887   5.894  0.5466 -0.5238 -1.2849
 2106SOL    HW3 8197   0.865   2.981   5.878  2.5061 -2.7900 -0.7694
 2106SOL    MW4 8198   0.791   2.947   5.847  1.2411 -0.4567 -0.5694
 2107SOL     OW 8199   5.671   3.614   5.420 -0.2091  0.0772 -0.2748
 2107SOL    HW2 8200   5.623   3.670   5.481 -1.4364 -2.0802  0.8864
 2107SOL    HW3 8201   5.700   3.540   5.474  2.5765  0.1981 -1.4284
 2107SOL    MW4 8202   5.669   3.612   5.435 -0.0035 -0.1915 -0.2738
 2108SOL     OW 8203   0.613   1.080   5.078 -0.4042 -1.1279  0.7445
 2108SOL    HW2 8204   0.664   0.998   5.071  0.8065 -0.4324  1.0426
 2108SOL    HW3 8205   0.655   1.127   5.150  0.6080  0.9130 -1.0815
 2108SOL    MW4 8206   0.626   1.075   5.087 -0.1109 -0.7668  0.5429
 2109SOL     OW 8207   4.573   5.266   5.700  0.8211  0.1564  0.1213
 2109SOL    HW2 8208   4.580   5.357   5.670  0.4826 -0.3399 -1.5218
 2109SOL    HW3 8209   4.516   5.223   5.636  1.3327 -1.3243  0.6154
 2109SOL    MW4 8210   4.567   5.272   5.688  0.8439 -0.1044 -0.0303
 2110SOL     OW 8211   2.386   1.215   5.181  0.7331  0.4492 -0.1557
 2110SOL    HW2 8212   2.375   1.248   5.270  0.2580  0.8763 -0.3646
 2110SOL    HW3 8213   2.428   1.287   5.134 -0.6857  0.9623 -0.7197
 2110SOL    MW4 8214   2.390   1.229   5.186  0.4832  0.5732 -0.2577
 2111SOL     OW 8215   5.183   3.358   2.154 -0.3993 -0.2171  0.8081
 2111SOL    HW2 8216   5.249   3.299   2.192 -0.0768 -0.7544 -0.5163
 2111SOL    HW3 8217   5.136   3.303   2.091 -1.4064  0.4475  0.9746
 2111SOL    MW4 8218   5.186   3.343   2.151 -0.4896 -0.2003  0.6553
 2112SOL     OW 8219   3.953   1.117   5.306 -0.2903 -0.0327 -0.3210
 2112SOL    HW2 8220   3.982   1.105   5.397 -2.7223  0.9031  0.6417
 2112SOL    HW3 8221   3.937   1.211   5.298 -1.1696 -0.2615 -1.3786
 2112SOL    MW4 8222   3.955   1.128   5.317 -0.7272  0.0606 -0.3335
 2113SOL     OW 8223   0.830   6.067   0.401  0.0842  0.2920 -0.0140
 2113SOL    HW2 8224   0.899   6.005   0.375 -0.0397 -0.4841  1.4251
 2113SOL    HW3 8225   0.804   6.110   0.319  0.6949 -1.0280 -0.9267
 2113SOL    MW4 8226   0.836   6.065   0.387  0.1484  0.0154  0.0555
 2114SOL     OW 8227   3.744   0.736   4.601 -0.3584  0.0158  0.2339
 2114SOL    HW2 8228   3.734   0.738   4.506 -2.9068 -0.0834  0.4422
 2114SOL    HW3 8229   3.828   0.781   4.617  1.1349 -1.6990 -2.1199
 2114SOL    MW4 8230   3.754   0.743   4.591 -0.4976 -0.2236 -0.0492
 2115SOL     OW 8231   4.605   3.990   3.050 -0.3536  0.0118  0.1116
 2115SOL    HW2 8232   4.671   4.059   3.041 -1.5197  1.1425 -0.0735
 2115SOL    HW3 8233   4.612   3.960   3.141  0.4655  0.0462  0.0638
 2115SOL    MW4 8234   4.615   3.995   3.061 -0.3994  0.1655  0.0809
 2116SOL     OW 8235   2.575   0.868   2.020 -0.1282 -0.0710  0.4591
 2116SOL    HW2 8236   2.545   0.804   1.956  1.0391 -0.7597  0.5855
 2116SOL    HW3 8237   2.629   0.819   2.081 -0.6135  0.7180  1.5609
 2116SOL    MW4 8238   2.578   0.853   2.020 -0.0382 -0.0578  0.6211
 2117SOL     OW 8239   1.538   0.075   0.033 -0.1207 -0.0550 -0.0793
 2117SOL    HW2 8240   1.572  -0.013   0.018 -1.2719 -0.9457  2.1723
 2117SOL    HW3 8241   1.607   0.119   0.083  0.6595  0.5634 -1.5993
 2117SOL    MW4 8242   1.552   0.069   0.037 -0.1696 -0.0909  0.0172
 2118SOL     OW 8243   5.769   3.366   5.517  0.4547 -0.1241 -0.4362
 2118SOL    HW2 8244   5.773   3.315   5.598 -0.1112 -1.3918 -1.1807
 2118SOL    HW3 8245   5.852   3.348   5.473 -0.1286 -1.1828 -1.1372
 2118SOL    MW4 8246   5.781   3.357   5.522  0.3031 -0.4310 -0.6269
 2119SOL     OW 8247   5.397   3.328   5.984 -0.0196 -0.3965 -0.3624
 2119SOL    HW2 8248   5.342   3.253   5.962  0.0354 -0.3176 -0.7905
 2119SOL    HW3 8249   5.335   3.397   6.008 -0.2641  0.2850 -2.6298
 2119SOL    MW4 8250   5.382   3.327   5.984 -0.0446 -0.2962 -0.7181
 2120SOL     OW 8251   1.185   0.931   1.136 -0.0392  0.2429  0.0385
 2120SOL    HW2 8252   1.222   0.868   1.198  0.4917 -0.8932 -1.3956
 2120SOL    HW3 8253   1.237   1.011   1.151  3.2183 -1.2907 -1.9044
 2120SOL    MW4 8254   1.197   0.933   1.146  0.4606 -0.1093 -0.4071
 2121SOL     OW 8255   2.211   6.254   4.703 -0.0900  0.0992  0.0154
 2121SOL    HW2 8256   2.304   6.245   4.722 -0.0689 -0.3452 -0.2749
 2121SOL    HW3 8257   2.202   6.222   4.613 -0.7249 -1.1171  0.4861
 2121SOL    MW4 8258   2.222   6.248   4.693 -0.1710 -0.1199  0.0392
 2122SOL     OW 8259   4.317   5.474   1.198  0.6977  0.3063  0.2710
 2122SOL    HW2 8260   4.251   5.444   1.260  0.3254  0.5364 -0.0095
 2122SOL    HW3 8261   4.279   5.553   1.159  1.7527  1.3216  1.1927
 2122SOL    MW4 8262   4.303   5.481   1.201  0.7878  0.4706  0.3556
 2123SOL     OW 8263   5.904   3.011   0.820  0.0176  0.0285  0.2774
 2123SOL    HW2 8264   5.821   3.059   0.812  0.0434 -0.0728 -0.5803
 2123SOL    HW3 8265   5.966   3.077   0.852 -0.1267  0.3769 -0.1577
 2123SOL    MW4 8266   5.901   3.026   0.823  0.0020  0.0611  0.1068
 2124SOL     OW 8267   0.412   4.557   0.393 -0.2878  0.6548  0.2946
 2124SOL    HW2 8268   0.448   4.646   0.399  0.6839  0.2161  1.2407
 2124SOL    HW3 8269   0.468   4.514   0.328 -1.2063  0.9233 -0.7016
 2124SOL    MW4 8270   0.424   4.563   0.385 -0.2808  0.6324  0.2880
 2125SOL     OW 8271   3.976   1.395   0.033  0.7062  0.2565 -0.4628
 2125SOL    HW2 8272   3.881   1.402   0.018  0.1532 -2.4694  1.1771
 2125SOL    HW3 8273   4.012   1.376  -0.054 -0.4072  0.0644 -0.9019
 2125SOL    MW4 8274   3.968   1.394   0.020  0.4863 -0.1285 -0.3044
 2126SOL     OW 8275   5.011   2.863   1.781  0.4771 -0.2286  0.4151
 2126SOL    HW2 8276   4.985   2.772   1.764  1.4371 -0.4707  0.1793
 2126SOL    HW3 8277   5.065   2.858   1.860  0.8594  0.0742  0.1781
 2126SOL    MW4 8278   5.015   2.850   1.789  0.6542 -0.2206  0.3528
 2127SOL     OW 8279   1.781   2.024   1.687  0.4377  0.7308  0.3041
 2127SOL    HW2 8280   1.829   1.942   1.683  2.0309  1.6441 -0.0044
 2127SOL    HW3 8281   1.705   2.005   1.742  1.2163 -0.7136  0.9147
 2127SOL    MW4 8282   1.777   2.011   1.694  0.7507  0.6607  0.3439
 2128SOL     OW 8283   1.405   6.046   2.189  0.2205  0.9883 -0.3372
 2128SOL    HW2 8284   1.441   5.964   2.224  0.6297  0.7559 -1.2752
 2128SOL    HW3 8285   1.424   6.111   2.256 -1.0977  0.1213  0.9417
 2128SOL    MW4 8286   1.412   6.044   2.203  0.1006  0.8433 -0.2922
 2129SOL     OW 8287   1.102   0.309   5.630  0.1920  0.4881  0.3804
 2129SOL    HW2 8288   1.056   0.311   5.546  1.7202  1.0164 -0.4821
 2129SOL    HW3 8289   1.118   0.216   5.647  0.6375  0.4220 -0.3603
 2129SOL    MW4 8290   1.098   0.297   5.622  0.4524  0.5491  0.1688
 2130SOL     OW 8291   0.608   2.383   1.044  0.2406 -0.1638 -0.3061
 2130SOL    HW2 8292   0.560   2.300   1.051  0.9898 -0.5079  1.0325
 2130SOL    HW3 8293   0.628   2.391   0.951 -0.8271 -0.9165 -0.6222
 2130SOL    MW4 8294   0.604   2.373   1.033  0.1985 -0.3085 -0.1712
 2131SOL     OW 8295   6.186   0.560   3.767 -0.3216  0.0510 -0.3115
 2131SOL    HW2 8296   6.178   0.472   3.729 -3.0006 -0.0675  0.3302
 2131SOL    HW3 8297   6.116   0.611   3.725 -1.0153  0.9047  1.7314
 2131SOL    MW4 8298   6.175   0.555   3.756 -0.7666  0.1480  0.0427
 2132SOL     OW 8299   1.748   3.647   1.470  0.0675  0.5349  0.3128
 2132SOL    HW2 8300   1.768   3.602   1.552  0.4731  0.5569  0.2310
 2132SOL    HW3 8301   1.761   3.740   1.489 -0.5681  0.6017  0.4258
 2132SOL    MW4 8302   1.753   3.653   1.483  0.0371  0.5466  0.3170
 2133SOL     OW 8303   4.298   0.148   5.233 -0.5718 -0.1443  0.5321
 2133SOL    HW2 8304   4.314   0.092   5.309 -2.2323 -1.1511  0.1728
 2133SOL    HW3 8305   4.221   0.111   5.191 -0.6546  1.3690 -0.7429
 2133SOL    MW4 8306   4.290   0.136   5.238 -0.8018 -0.0775  0.3165
 2134SOL     OW 8307   2.548   4.823   4.508 -0.1745  0.4896  0.2053
 2134SOL    HW2 8308   2.474   4.823   4.568 -1.4870  1.5787 -1.3416
 2134SOL    HW3 8309   2.588   4.910   4.519  1.4614 -0.3674  1.6321
 2134SOL    MW4 8310   2.544   4.834   4.517 -0.1319  0.5202  0.1895
 2135SOL     OW 8311   0.318   5.687   0.233  0.0956 -0.2030  0.4326
 2135SOL    HW2 8312   0.298   5.763   0.287  1.2842 -0.6819  1.6108
 2135SOL    HW3 8313   0.234   5.660   0.197 -0.6876  0.3293  1.7967
 2135SOL    MW4 8314   0.305   5.693   0.236  0.1491 -0.1959  0.7680
 2136SOL     OW 8315   6.055   3.329   2.182  0.2525  0.0035  0.3290
 2136SOL    HW2 8316   6.088   3.384   2.253  1.3299 -0.6900  0.3838
 2136SOL    HW3 8317   6.118   3.258   2.175  0.0103 -0.0998 -1.1444
 2136SOL    MW4 8318   6.068   3.327   2.190  0.3627 -0.1016  0.1418
 2137SOL     OW 8319   0.311   0.425   1.245  0.4522 -0.3918 -0.5423
 2137SOL    HW2 8320   0.365   0.451   1.171  0.5329  0.6462 -0.1363
 2137SOL    HW3 8321   0.267   0.506   1.272 -1.2661 -1.1957 -0.8311
 2137SOL    MW4 8322   0.312   0.439   1.239  0.2362 -0.3609 -0.5268
 2138SOL     OW 8323   1.509   3.151   2.350 -0.4752 -0.0292  0.0082
 2138SOL    HW2 8324   1.450   3.090   2.306  0.4602  0.2606 -1.7839
 2138SOL    HW3 8325   1.478   3.237   2.324 -1.2976  0.2812  1.8690
 2138SOL    MW4 8326   1.497   3.154   2.341 -0.4603  0.0500  0.0173
 2139SOL     OW 8327   2.950   0.559   4.265 -0.1555 -0.1582  0.4797
 2139SOL    HW2 8328   2.915   0.556   4.176  0.0986  2.9146  0.1649
 2139SOL    HW3 8329   3.045   0.558   4.255 -0.1252  0.1154  0.7040
 2139SOL    MW4 8330   2.958   0.558   4.252 -0.1180  0.2833  0.4677
 2140SOL     OW 8331   0.832   5.305   1.564  0.1444  0.5005  0.6301
 2140SOL    HW2 8332   0.921   5.339   1.552 -0.7195  2.3466 -1.1217
 2140SOL    HW3 8333   0.813   5.259   1.482 -0.9001  1.1010  0.5210
 2140SOL    MW4 8334   0.842   5.304   1.551 -0.1074  0.8233  0.3846
 2141SOL     OW 8335   6.127   3.933   2.556  0.1278  0.8877  0.3466
 2141SOL    HW2 8336   6.135   3.966   2.467 -1.3423  0.1164 -0.0966
 2141SOL    HW3 8337   6.182   3.855   2.558  0.3202  1.0194  0.1773
 2141SOL    MW4 8338   6.135   3.927   2.545 -0.0408  0.8033  0.2658
 2142SOL     OW 8339   5.041   2.706   4.369 -0.4399  0.4225 -0.1088
 2142SOL    HW2 8340   5.083   2.789   4.346  1.6430 -0.1122  1.4689
 2142SOL    HW3 8341   5.112   2.642   4.367 -1.8095 -1.1358 -0.2973
 2142SOL    MW4 8342   5.056   2.709   4.366 -0.3458  0.1464  0.0745
 2143SOL     OW 8343   5.152   5.387   3.857 -0.3996 -0.0603  0.1771
 2143SOL    HW2 8344   5.160   5.333   3.778  3.0902 -0.5222  0.6933
 2143SOL    HW3 8345   5.132   5.474   3.824 -1.6373 -0.7499 -1.0001
 2143SOL    MW4 8346   5.150   5.391   3.842 -0.1025 -0.2122  0.0899
 2144SOL     OW 8347   1.743   1.577   3.650  0.5889  0.0121  0.7290
 2144SOL    HW2 8348   1.838   1.566   3.655  0.5273 -1.4495 -0.5447
 2144SOL    HW3 8349   1.709   1.487   3.649 -0.6012  0.4052 -1.7817
 2144SOL    MW4 8350   1.751   1.564   3.651  0.4238 -0.1289  0.2297
 2145SOL     OW 8351   0.637   3.789   3.423  0.3848  0.1718 -0.2704
 2145SOL    HW2 8352   0.645   3.711   3.368  0.3507  0.0571 -0.1126
 2145SOL    HW3 8353   0.587   3.851   3.369  0.5341  0.1375 -0.4506
 2145SOL    MW4 8354   0.631   3.787   3.408  0.4000  0.1521 -0.2734
 2146SOL     OW 8355   0.779   1.239   6.252  0.2329 -0.5241  0.7347
 2146SOL    HW2 8356   0.819   1.156   6.278 -1.7740 -1.5219  0.8065
 2146SOL    HW3 8357   0.685   1.223   6.256 -0.3535  2.5392  3.3572
 2146SOL    MW4 8358   0.772   1.226   6.256 -0.1093 -0.2516  1.0902
 2147SOL     OW 8359   5.674   0.449   0.400  0.0116 -0.0517  0.5634
 2147SOL    HW2 8360   5.678   0.361   0.437  0.1768  0.1502  1.0234
 2147SOL    HW3 8361   5.646   0.505   0.473  0.3717  0.3523  0.3957
 2147SOL    MW4 8362   5.671   0.445   0.414  0.0809  0.0282  0.6020
 2148SOL     OW 8363   4.452   2.123   5.679  0.2540 -0.4378 -0.4257
 2148SOL    HW2 8364   4.433   2.030   5.669  0.1641 -0.4311 -0.3104
 2148SOL    HW3 8365   4.497   2.146   5.598 -2.7489  0.2022 -2.0584
 2148SOL    MW4 8366   4.456   2.114   5.667 -0.1541 -0.3525 -0.6259
 2149SOL     OW 8367   4.037   5.884   0.327 -0.3365  0.1781 -0.0781
 2149SOL    HW2 8368   4.106   5.942   0.296  0.3326 -1.3086 -1.4999
 2149SOL    HW3 8369   4.065   5.797   0.302 -0.9049 -0.9311  2.7445
 2149SOL    MW4 8370   4.050   5.881   0.320 -0.3233 -0.1644  0.1068
 2150SOL     OW 8371   0.212   0.907   2.469 -0.4649 -0.1867  0.6520
 2150SOL    HW2 8372   0.238   0.872   2.554  2.2933  1.3067  0.5554
 2150SOL    HW3 8373   0.245   0.997   2.469 -1.7207  0.3459 -1.4496
 2150SOL    MW4 8374   0.220   0.914   2.480 -0.2667  0.0806  0.3620
 2151SOL     OW 8375   0.872   2.634   3.515  0.2529 -0.0536 -0.3942
 2151SOL    HW2 8376   0.897   2.723   3.540  0.3296 -0.4955  1.1765
 2151SOL    HW3 8377   0.789   2.619   3.560 -0.0850 -0.5767 -1.1572
 2151SOL    MW4 8378   0.864   2.644   3.524  0.2185 -0.1809 -0.2876
 2152SOL     OW 8379   2.456   2.350   2.893 -0.2465  0.4644 -0.3337
 2152SOL    HW2 8380   2.535   2.323   2.846 -1.0038  0.2671 -1.5359
 2152SOL    HW3 8381   2.459   2.300   2.974  1.2762  1.0770  0.0314
 2152SOL    MW4 8382   2.467   2.340   2.897 -0.1455  0.5192 -0.4441
 2153SOL     OW 8383   3.911   1.633   4.375  0.1116 -0.1272 -0.1686
 2153SOL    HW2 8384   3.923   1.707   4.434 -2.4912  0.5919 -0.4192
 2153SOL    HW3 8385   3.945   1.665   4.291 -2.0267  1.3213 -0.5687
 2153SOL    MW4 8386   3.917   1.647   4.371 -0.5139  0.1588 -0.2545
 2154SOL     OW 8387   0.056   2.638   4.744  0.3693 -0.3394  0.4732
 2154SOL    HW2 8388   0.104   2.627   4.662 -1.2963 -1.6295 -0.3721
 2154SOL    HW3 8389  -0.034   2.657   4.718 -0.3883 -1.5843  1.9634
 2154SOL    MW4 8390   0.051   2.639   4.730  0.0496 -0.6738  0.5583
 2155SOL     OW 8391   0.071   5.313   3.360  0.1659 -0.1527  0.3298
 2155SOL    HW2 8392   0.141   5.257   3.327 -0.2546 -0.6816  0.3252
 2155SOL    HW3 8393  -0.003   5.254   3.375 -1.3373  0.7832 -2.6198
 2155SOL    MW4 8394   0.071   5.298   3.358 -0.0880 -0.0990 -0.0600
 2156SOL     OW 8395   2.117   5.034   1.704  0.6427  0.3574 -0.0757
 2156SOL    HW2 8396   2.038   5.017   1.755 -0.5750  1.1329 -1.5993
 2156SOL    HW3 8397   2.091   5.016   1.613  3.0227 -2.0342 -0.4099
 2156SOL    MW4 8398   2.103   5.030   1.699  0.7960  0.1442 -0.3208
 2157SOL     OW 8399   1.525   1.662   0.025 -0.3454 -0.5605 -0.3479
 2157SOL    HW2 8400   1.483   1.648   0.110 -0.5642  0.9156 -0.1919
 2157SOL    HW3 8401   1.525   1.576  -0.017 -2.4683 -0.8334  0.1290
 2157SOL    MW4 8402   1.519   1.649   0.031 -0.6543 -0.4018 -0.2644
 2158SOL     OW 8403   0.956   4.213   2.328 -0.0450 -0.5494  0.2735
 2158SOL    HW2 8404   0.889   4.244   2.267  1.6112  0.8217 -0.9938
 2158SOL    HW3 8405   0.991   4.134   2.286  0.1481 -0.3938  0.1360
 2158SOL    MW4 8406   0.952   4.207   2.314  0.1990 -0.3480  0.0882
 2159SOL     OW 8407   4.611   0.988   6.068 -0.1828  0.1815  0.4926
 2159SOL    HW2 8408   4.617   0.986   6.163 -1.2680 -0.2948  0.5589
 2159SOL    HW3 8409   4.532   0.938   6.047 -0.2590  0.7381 -0.6310
 2159SOL    MW4 8410   4.602   0.981   6.077 -0.3360  0.1921  0.3531
 2160SOL     OW 8411   1.696   3.015   5.672  0.4610 -0.2918  0.2120
 2160SOL    HW2 8412   1.660   3.038   5.757  0.7145  0.6298  0.0768
 2160SOL    HW3 8413   1.631   3.047   5.609  0.7765 -0.0049  0.0268
 2160SOL    MW4 8414   1.683   3.022   5.675  0.5361 -0.1324  0.1697
 2161SOL     OW 8415   2.673   3.350   4.096 -0.1581 -0.0386 -0.5000
 2161SOL    HW2 8416   2.681   3.256   4.109  0.1584 -0.1105 -1.1787
 2161SOL    HW3 8417   2.721   3.368   4.015  0.5407  0.8408  0.0868
 2161SOL    MW4 8418   2.680   3.340   4.087 -0.0242  0.0679 -0.5121
 2162SOL     OW 8419   4.014   1.887   1.757  0.0280 -0.3224  0.2204
 2162SOL    HW2 8420   4.087   1.923   1.705  0.4391 -0.0320  0.9752
 2162SOL    HW3 8421   3.936   1.906   1.705  0.3936  0.2731 -0.1286
 2162SOL    MW4 8422   4.014   1.895   1.743  0.1305 -0.2055  0.2740
 2163SOL     OW 8423   4.984   4.355   1.295  0.5176  0.5681 -0.0072
 2163SOL    HW2 8424   5.007   4.306   1.374  1.1436  1.2605  0.2578
 2163SOL    HW3 8425   5.066   4.399   1.271  0.7496 -0.8059 -1.9049
 2163SOL    MW4 8426   4.998   4.355   1.303  0.6308  0.4782 -0.2226
 2164SOL     OW 8427   2.464   0.029   1.292 -0.2050  0.2959 -0.4350
 2164SOL    HW2 8428   2.533   0.070   1.345  1.0430 -0.3439 -1.5002
 2164SOL    HW3 8429   2.469  -0.064   1.316  0.8675 -0.1325 -2.1216
 2164SOL    MW4 8430   2.474   0.022   1.302  0.1012  0.1549 -0.7981
 2165SOL     OW 8431   0.568   0.226   5.905  0.3599 -0.5124  0.4825
 2165SOL    HW2 8432   0.568   0.139   5.866 -1.0078 -1.1103  1.7661
 2165SOL    HW3 8433   0.516   0.218   5.984  0.2032  1.4772  0.6411
 2165SOL    MW4 8434   0.561   0.214   5.910  0.1587 -0.3288  0.6728
 2166SOL     OW 8435   2.023   0.889   5.932 -0.0964  0.2599 -0.6717
 2166SOL    HW2 8436   2.076   0.883   6.011 -1.5267 -0.1616  0.2835
 2166SOL    HW3 8437   2.087   0.891   5.861  1.4014  3.6014  0.5523
 2166SOL    MW4 8438   2.038   0.889   5.933 -0.0875  0.6452 -0.3842
 2167SOL     OW 8439   3.374   6.218   5.964 -0.4226  0.4191 -0.4037
 2167SOL    HW2 8440   3.370   6.266   6.046  0.0226  0.6296 -0.4992
 2167SOL    HW3 8441   3.468   6.207   5.948 -0.4115  2.1897 -1.9180
 2167SOL    MW4 8442   3.386   6.223   5.972 -0.3624  0.6805 -0.6161
 2168SOL     OW 8443   2.906   5.186   4.555 -0.3298  0.3151 -0.1340
 2168SOL    HW2 8444   2.946   5.139   4.483  0.9175 -0.3552  0.9553
 2168SOL    HW3 8445   2.835   5.129   4.584  1.1556 -0.9502  1.1582
 2168SOL    MW4 8446   2.902   5.173   4.550  0.0307  0.0597  0.1802
 2169SOL     OW 8447   0.947   0.152   6.404  0.1095 -0.6213  0.1550
 2169SOL    HW2 8448   0.906   0.116   6.483 -1.4298  0.5327 -0.0734
 2169SOL    HW3 8449   1.023   0.200   6.436 -0.4598 -0.2270  0.9544
 2169SOL    MW4 8450   0.952   0.154   6.418 -0.1687 -0.4170  0.2303
 2170SOL     OW 8451   1.958   3.923   5.161  0.2958 -0.5848  0.8906
 2170SOL    HW2 8452   1.986   3.874   5.084  1.2162  0.9168  0.2127
 2170SOL    HW3 8453   1.888   3.871   5.199 -2.2427 -0.0585 -2.5535
 2170SOL    MW4 8454   1.953   3.910   5.156  0.0823 -0.3172  0.3468
 2171SOL     OW 8455   0.761   1.262   5.243  0.3093 -0.1008  0.6077
 2171SOL    HW2 8456   0.701   1.244   5.316 -0.4930 -0.0724 -0.0263
 2171SOL    HW3 8457   0.727   1.342   5.203  0.2494 -0.5637 -0.2906
 2171SOL    MW4 8458   0.748   1.270   5.248  0.1955 -0.1581  0.4055
 2172SOL     OW 8459   4.306   5.923   4.883  0.3369  0.2378 -0.5608
 2172SOL    HW2 8460   4.265   5.838   4.898  1.8829 -0.8014 -1.8574
 2172SOL    HW3 8461   4.316   5.961   4.971  0.8909 -1.5735  0.2048
 2172SOL    MW4 8462   4.302   5.917   4.897  0.6139 -0.1383 -0.6309
 2173SOL     OW 8463   1.414   5.610   4.321  0.0248 -0.2288  0.5830
 2173SOL    HW2 8464   1.332   5.644   4.285 -0.0750  0.7186  1.6586
 2173SOL    HW3 8465   1.448   5.552   4.253 -1.3361 -0.3241 -0.0353
 2173SOL    MW4 8466   1.408   5.607   4.307 -0.1679 -0.1164  0.6433
 2174SOL     OW 8467   5.965   3.360   3.466  0.6567 -0.5574 -0.2543
 2174SOL    HW2 8468   5.986   3.397   3.380  0.2629  1.2441  0.3780
 2174SOL    HW3 8469   6.004   3.272   3.465  1.4668 -0.2154 -1.9104
 2174SOL    MW4 8470   5.973   3.353   3.454  0.7116 -0.2746 -0.3893
 2175SOL     OW 8471   2.693   5.714   5.536 -0.5321  0.1476 -0.1215
 2175SOL    HW2 8472   2.661   5.641   5.484  0.6777 -0.5373  0.0530
 2175SOL    HW3 8473   2.763   5.753   5.483 -1.8258  1.8506 -0.6708
 2175SOL    MW4 8474   2.698   5.710   5.522 -0.5432  0.2819 -0.1710
 2176SOL     OW 8475   1.776   4.875   5.868 -0.0018  0.5649 -0.0735
 2176SOL    HW2 8476   1.848   4.865   5.806  1.9143 -0.0826  2.1236
 2176SOL    HW3 8477   1.769   4.790   5.911  0.7560  1.7479  2.6085
 2176SOL    MW4 8478   1.785   4.863   5.865  0.3510  0.6355  0.5703
 2177SOL     OW 8479   6.067   0.416   6.268 -0.1023  0.3706 -0.1788
 2177SOL    HW2 8480   6.034   0.504   6.288 -1.2362  0.1904 -1.1202
 2177SOL    HW3 8481   6.105   0.424   6.181  0.4852  0.0924  0.0497
 2177SOL    MW4 8482   6.067   0.429   6.259 -0.1744  0.3102 -0.2729
 2178SOL     OW 8483   0.979   3.641   2.765  0.1710  1.0122  0.0861
 2178SOL    HW2 8484   0.978   3.669   2.674  0.2488 -1.3964 -0.7281
 2178SOL    HW3 8485   1.070   3.647   2.792  1.1063 -2.7380 -1.6225
 2178SOL    MW4 8486   0.991   3.645   2.757  0.3047  0.1996 -0.2468
 2179SOL     OW 8487   4.481   4.613   0.534  0.1046  0.3060  0.4125
 2179SOL    HW2 8488   4.443   4.698   0.509  0.1242  0.5953  1.3413
 2179SOL    HW3 8489   4.413   4.549   0.511  0.5674  0.4242 -1.4344
 2179SOL    MW4 8490   4.467   4.616   0.527  0.1683  0.3598  0.2914
 2180SOL     OW 8491   1.703   3.740   3.433  0.0810 -0.0537  0.3332
 2180SOL    HW2 8492   1.691   3.834   3.451 -0.8959  0.0817 -0.9075
 2180SOL    HW3 8493   1.638   3.697   3.488 -0.4276  0.1066 -0.1301
 2180SOL    MW4 8494   1.693   3.747   3.443 -0.1150 -0.0147  0.1084
 2181SOL     OW 8495   1.050   4.397   0.630  0.1006  0.2420 -0.1176
 2181SOL    HW2 8496   1.081   4.488   0.636  0.1037  0.3185 -1.1115
 2181SOL    HW3 8497   1.010   4.380   0.715 -0.6827  1.4728 -0.1992
 2181SOL    MW4 8498   1.049   4.407   0.642 -0.0024  0.4145 -0.2595
 2182SOL     OW 8499   4.877   2.126   4.693 -0.5655 -0.4125 -0.0599
 2182SOL    HW2 8500   4.960   2.090   4.725  0.6551  1.3766 -1.0436
 2182SOL    HW3 8501   4.892   2.142   4.600 -1.9922  0.0280 -0.2399
 2182SOL    MW4 8502   4.890   2.123   4.685 -0.5927 -0.1184 -0.2135
 2183SOL     OW 8503   5.499   3.668   0.215  0.5867 -0.0592  0.2100
 2183SOL    HW2 8504   5.426   3.675   0.154  0.9593 -1.0354 -0.3822
 2183SOL    HW3 8505   5.468   3.711   0.295 -0.2037  0.5352 -0.3993
 2183SOL    MW4 8506   5.485   3.674   0.217  0.5316 -0.1096  0.0515
 2184SOL     OW 8507   2.287   5.809   3.421  0.4387 -0.1101  0.5871
 2184SOL    HW2 8508   2.286   5.904   3.413 -0.8654 -0.2397 -1.5492
 2184SOL    HW3 8509   2.353   5.781   3.358 -1.7221 -0.7142 -1.5499
 2184SOL    MW4 8510   2.296   5.818   3.412 -0.0184 -0.2069  0.0233
 2185SOL     OW 8511   3.110   1.111   4.137  0.6314  0.1267  0.2921
 2185SOL    HW2 8512   3.060   1.099   4.218  0.3921 -0.1524  0.1043
 2185SOL    HW3 8513   3.165   1.033   4.130  0.9932  0.3655  0.4224
 2185SOL    MW4 8514   3.111   1.099   4.147  0.6476  0.1214  0.2845
 2186SOL     OW 8515   1.125   1.982   0.007 -1.2281 -0.4931 -0.0232
 2186SOL    HW2 8516   1.066   2.005   0.078 -0.3481 -1.5719  1.0958
 2186SOL    HW3 8517   1.179   2.060  -0.006 -3.1539  0.7094 -1.4266
 2186SOL    MW4 8518   1.125   1.995   0.014 -1.3661 -0.4768 -0.0607
 2187SOL     OW 8519   2.537   0.580   2.762  0.1024  0.5386 -0.0698
 2187SOL    HW2 8520   2.629   0.560   2.781  0.4646  1.0988 -1.1379
 2187SOL    HW3 8521   2.541   0.655   2.703 -1.0347  0.2374 -0.5494
 2187SOL    MW4 8522   2.550   0.587   2.757  0.0001  0.5728 -0.2740
 2188SOL     OW 8523   5.684   5.769   2.493  0.3221 -0.1534  0.0697
 2188SOL    HW2 8524   5.619   5.702   2.513 -1.5773  2.1157  2.1408
 2188SOL    HW3 8525   5.648   5.817   2.419 -0.2722  0.9219  1.0287
 2188SOL    MW4 8526   5.671   5.767   2.486 -0.0069  0.2878  0.4695
 2189SOL     OW 8527   3.125   6.071   3.451 -0.3573 -0.6591 -0.1616
 2189SOL    HW2 8528   3.073   6.046   3.527  0.0763  2.0210  1.1251
 2189SOL    HW3 8529   3.210   6.096   3.487 -0.3242  1.2285 -1.3775
 2189SOL    MW4 8530   3.129   6.071   3.465 -0.2957 -0.0564 -0.1523
 2190SOL     OW 8531   2.117   0.186   0.462  0.2031  0.3332  0.1447
 2190SOL    HW2 8532   2.110   0.092   0.475 -0.5798  0.3332 -0.1619
 2190SOL    HW3 8533   2.027   0.214   0.441  0.0552  1.4394  2.0357
 2190SOL    MW4 8534   2.104   0.178   0.461  0.0803  0.4792  0.3538
 2191SOL     OW 8535   0.160   3.035   1.753 -0.1257 -0.7171  0.4415
 2191SOL    HW2 8536   0.246   3.038   1.712 -0.7929  0.2238 -0.9500
 2191SOL    HW3 8537   0.099   3.058   1.683 -1.2482  1.8642  2.1263
 2191SOL    MW4 8538   0.163   3.039   1.739 -0.3618 -0.2524  0.4802
 2192SOL     OW 8539   2.033   0.327   1.765  0.0462 -0.7200  0.6682
 2192SOL    HW2 8540   2.022   0.236   1.736 -0.9592  0.5543 -3.5724
 2192SOL    HW3 8541   2.110   0.359   1.719  1.2333  0.3213  3.1685
 2192SOL    MW4 8542   2.042   0.319   1.755  0.0701 -0.4145  0.4386
 2193SOL     OW 8543   4.963   0.952   4.690  0.1986  0.1220 -0.1264
 2193SOL    HW2 8544   4.988   0.880   4.748 -0.9641  0.4602  0.8412
 2193SOL    HW3 8545   5.045   0.996   4.668  0.8702 -1.2508 -0.4077
 2193SOL    MW4 8546   4.977   0.949   4.695  0.1338 -0.0145 -0.0358
 2194SOL     OW 8547   3.782   0.145   4.123  0.2058 -0.2847  0.0968
 2194SOL    HW2 8548   3.789   0.050   4.133  1.0734 -0.1503  0.8480
 2194SOL    HW3 8549   3.747   0.156   4.034 -1.1523 -1.3266  0.4592
 2194SOL    MW4 8550   3.778   0.134   4.112  0.1411 -0.4044  0.2438
 2195SOL     OW 8551   2.191   1.119   0.881  0.1373  0.6159  0.0071
 2195SOL    HW2 8552   2.100   1.117   0.911 -0.2099 -0.6739 -1.0416
 2195SOL    HW3 8553   2.188   1.081   0.793  1.7101  0.3645  0.0341
 2195SOL    MW4 8554   2.179   1.113   0.873  0.2990  0.4126 -0.1277
 2196SOL     OW 8555   2.756   4.799   5.147  0.0874 -0.0687  0.1945
 2196SOL    HW2 8556   2.790   4.710   5.134  2.8525  1.0617 -1.3138
 2196SOL    HW3 8557   2.796   4.828   5.229 -0.8023 -0.2050  0.6794
 2196SOL    MW4 8558   2.766   4.791   5.156  0.3349  0.0625  0.0594
 2197SOL     OW 8559   0.184   2.214   4.718  0.0445 -0.0123 -0.1952
 2197SOL    HW2 8560   0.119   2.163   4.767 -0.4801 -0.3679 -1.2370
 2197SOL    HW3 8561   0.139   2.239   4.637  0.9481  0.4295 -0.5788
 2197SOL    MW4 8562   0.169   2.211   4.714  0.0945 -0.0009 -0.3833
 2198SOL     OW 8563   2.379   2.773   4.534 -0.2177 -0.1107  0.5286
 2198SOL    HW2 8564   2.325   2.698   4.510 -0.7027  0.3995 -0.0400
 2198SOL    HW3 8565   2.395   2.818   4.450 -0.1631  0.5587  0.8924
 2198SOL    MW4 8566   2.374   2.769   4.519 -0.2745  0.0449  0.5016
 2199SOL     OW 8567   1.603   0.906   4.822  0.9059  0.1975  0.1677
 2199SOL    HW2 8568   1.543   0.968   4.780  0.1890 -0.6785 -0.1141
 2199SOL    HW3 8569   1.675   0.897   4.760  0.5975  0.0959 -0.1791
 2199SOL    MW4 8570   1.605   0.913   4.808  0.7706  0.0685  0.0847
 2200SOL     OW 8571   0.122   4.965   2.903 -0.2936 -0.2214  0.0472
 2200SOL    HW2 8572   0.060   4.993   2.971  0.1374 -0.6133  0.6103
 2200SOL    HW3 8573   0.068   4.917   2.840 -1.3323  2.9155 -1.6768
 2200SOL    MW4 8574   0.107   4.962   2.904 -0.3738  0.1408 -0.1059
 2201SOL     OW 8575   6.014   1.027   0.299 -0.0081  0.2648  0.0646
 2201SOL    HW2 8576   5.984   0.939   0.324 -0.6709  0.0843 -1.3136
 2201SOL    HW3 8577   6.108   1.017   0.284 -0.6451 -1.2243 -3.9912
 2201SOL    MW4 8578   6.023   1.014   0.300 -0.1796  0.0445 -0.6523
 2202SOL     OW 8579   3.328   2.089   0.045  0.2688 -0.1383  0.1655
 2202SOL    HW2 8580   3.250   2.038   0.025 -0.0707 -0.1193  1.3244
 2202SOL    HW3 8581   3.383   2.081  -0.032 -0.8249 -0.2614 -0.6221
 2202SOL    MW4 8582   3.325   2.081   0.032  0.0797 -0.1520  0.2145
 2203SOL     OW 8583   4.524   5.724   4.693  0.7535 -0.2636  0.3220
 2203SOL    HW2 8584   4.529   5.724   4.598 -2.0785  2.0483  0.0211
 2203SOL    HW3 8585   4.565   5.806   4.720  0.5440 -0.3641  0.9784
 2203SOL    MW4 8586   4.530   5.735   4.684  0.3522  0.0282  0.3689
 2204SOL     OW 8587   4.555   4.048   4.452 -0.2642  0.2086 -0.2550
 2204SOL    HW2 8588   4.593   4.067   4.537 -0.5750 -0.8557  0.1300
 2204SOL    HW3 8589   4.630   4.030   4.395 -0.1267 -0.8177  0.2344
 2204SOL    MW4 8590   4.570   4.048   4.455 -0.2871 -0.0672 -0.1396
 2205SOL     OW 8591   2.516   5.220   5.483 -0.0344 -0.0555 -0.1906
 2205SOL    HW2 8592   2.600   5.176   5.496  0.3374  0.5627 -0.4714
 2205SOL    HW3 8593   2.454   5.148   5.466 -0.0060 -0.6892  2.0888
 2205SOL    MW4 8594   2.519   5.204   5.482  0.0184 -0.0575  0.0731
 2206SOL     OW 8595   6.017   1.404   6.216 -0.2456  0.3221 -0.2972
 2206SOL    HW2 8596   6.037   1.497   6.229  0.7672  0.0211  0.4357
 2206SOL    HW3 8597   6.026   1.365   6.303 -0.9116 -0.4218 -0.5521
 2206SOL    MW4 8598   6.021   1.411   6.229 -0.1999  0.1843 -0.2341
 2207SOL     OW 8599   1.117   4.005   2.211  0.1199  0.1451  0.5544
 2207SOL    HW2 8600   1.133   4.026   2.119 -0.4495 -2.4630 -0.2401
 2207SOL    HW3 8601   1.201   4.022   2.254  0.8583  0.0173 -0.7594
 2207SOL    MW4 8602   1.130   4.010   2.205  0.1422 -0.2159  0.2762
 2208SOL     OW 8603   0.319   4.502   4.076  0.0369 -0.7685  0.5691
 2208SOL    HW2 8604   0.399   4.450   4.086 -0.7347 -1.6679  2.3821
 2208SOL    HW3 8605   0.323   4.534   3.986  2.1161 -1.3209  0.4189
 2208SOL    MW4 8606   0.330   4.499   4.065  0.2094 -0.9600  0.7885
 2209SOL     OW 8607   3.961   0.526   2.070 -0.1840 -0.0827  0.1734
 2209SOL    HW2 8608   4.014   0.471   2.128  0.6433  0.5711  0.0567
 2209SOL    HW3 8609   3.915   0.465   2.013  0.4748 -0.6565  0.2552
 2209SOL    MW4 8610   3.962   0.511   2.070  0.0121 -0.0721  0.1688
 2210SOL     OW 8611   4.321   4.988   2.881  0.0513 -0.0364  0.4560
 2210SOL    HW2 8612   4.377   4.922   2.922 -1.5234 -2.4908 -1.0688
 2210SOL    HW3 8613   4.362   5.005   2.796 -1.8493 -2.6276 -1.1204
 2210SOL    MW4 8614   4.334   4.982   2.875 -0.4072 -0.7021  0.0469
 2211SOL     OW 8615   0.568   4.792   4.139  0.0669 -0.1387 -0.0440
 2211SOL    HW2 8616   0.550   4.750   4.223  0.7497 -0.5450 -0.0943
 2211SOL    HW3 8617   0.485   4.834   4.115 -0.3865 -0.7643  0.3992
 2211SOL    MW4 8618   0.555   4.792   4.147  0.0972 -0.2749  0.0078
 2212SOL     OW 8619   1.354   3.687   3.939 -0.2569  0.4911 -0.0700
 2212SOL    HW2 8620   1.406   3.643   3.872  0.2953  0.8535  0.1198
 2212SOL    HW3 8621   1.353   3.625   4.013  0.7086  0.8787  0.2820
 2212SOL    MW4 8622   1.360   3.673   3.940 -0.0566  0.5900  0.0015
 2213SOL     OW 8623   4.218   3.234   0.400  0.6494 -0.0194  0.5708
 2213SOL    HW2 8624   4.168   3.223   0.319  1.3551  2.0721 -0.2167
 2213SOL    HW3 8625   4.158   3.208   0.469 -0.7714  0.3188 -0.4912
 2213SOL    MW4 8626   4.204   3.229   0.398  0.5550  0.3012  0.3268
 2214SOL     OW 8627   0.152   5.643   0.991 -0.8101  0.0917  0.1222
 2214SOL    HW2 8628   0.069   5.668   1.032 -1.9177 -0.3665 -1.7133
 2214SOL    HW3 8629   0.151   5.687   0.906  0.6562 -0.2554 -0.0995
 2214SOL    MW4 8630   0.141   5.652   0.986 -0.7628 -0.0146 -0.1492
 2215SOL     OW 8631   5.393   3.454   5.499  0.1070 -0.2810 -0.6807
 2215SOL    HW2 8632   5.444   3.425   5.574  0.5229 -0.5264 -1.0551
 2215SOL    HW3 8633   5.425   3.401   5.426  0.3506  0.5888 -1.2185
 2215SOL    MW4 8634   5.404   3.443   5.499  0.1940 -0.1986 -0.8011
 2216SOL     OW 8635   5.893   2.182   6.197 -0.0530  0.6663  0.6694
 2216SOL    HW2 8636   5.965   2.244   6.202  2.1224 -1.6100 -0.3539
 2216SOL    HW3 8637   5.922   2.107   6.249 -0.7368 -1.1386 -1.4035
 2216SOL    MW4 8638   5.906   2.180   6.204  0.1438  0.1279  0.2609
 2217SOL     OW 8639   1.661   5.539   6.081  0.6173 -0.2372  0.2517
 2217SOL    HW2 8640   1.625   5.544   5.993  1.6795 -1.3662 -0.2757
 2217SOL    HW3 8641   1.585   5.534   6.138 -0.0729 -0.1331 -0.6381
 2217SOL    MW4 8642   1.646   5.539   6.077  0.6664 -0.3725  0.0647
 2218SOL     OW 8643   0.016   5.211   0.861 -0.6839 -0.3942  0.2358
 2218SOL    HW2 8644   0.106   5.191   0.885 -1.1108 -3.4345 -0.1988
 2218SOL    HW3 8645  -0.029   5.227   0.944  0.2125  1.0486  0.4580
 2218SOL    MW4 8646   0.022   5.210   0.875 -0.6219 -0.6050  0.2078
 2219SOL     OW 8647   0.139   0.640   4.605  0.0346 -0.0449 -0.2419
 2219SOL    HW2 8648   0.107   0.617   4.517  1.2987  1.0961 -1.0468
 2219SOL    HW3 8649   0.073   0.698   4.641  0.8622  1.8783 -1.6687
 2219SOL    MW4 8650   0.126   0.644   4.598  0.3106  0.3594 -0.5364
 2220SOL     OW 8651   6.324   2.953   0.762  0.1064  0.1672 -0.1500
 2220SOL    HW2 8652   6.414   2.969   0.733  0.3800 -3.7407 -2.1418
 2220SOL    HW3 8653   6.329   2.870   0.811 -2.2780  0.4188  0.6539
 2220SOL    MW4 8654   6.337   2.944   0.765 -0.1721 -0.3152 -0.3067
 2221SOL     OW 8655   3.444   2.020   0.295  0.0566  0.5285  0.3333
 2221SOL    HW2 8656   3.422   2.051   0.207 -3.0762  1.6380  1.3533
 2221SOL    HW3 8657   3.476   2.098   0.340  0.0053  0.3638  0.6562
 2221SOL    MW4 8658   3.446   2.034   0.289 -0.3635  0.6531  0.5105
 2222SOL     OW 8659   0.796   5.737   0.690 -0.0944  0.0234  0.0708
 2222SOL    HW2 8660   0.725   5.772   0.744 -0.2140  0.0838 -0.1273
 2222SOL    HW3 8661   0.762   5.739   0.601 -0.7513 -2.1535  0.2001
 2222SOL    MW4 8662   0.782   5.742   0.686 -0.1968 -0.2559  0.0617
 2223SOL     OW 8663   6.188   5.590   0.143 -0.5408  0.8531 -0.4111
 2223SOL    HW2 8664   6.113   5.639   0.107 -0.2824  0.5080 -1.4658
 2223SOL    HW3 8665   6.229   5.652   0.203 -2.0649  0.8058  0.7307
 2223SOL    MW4 8666   6.183   5.605   0.146 -0.7078  0.8013 -0.3996
 2224SOL     OW 8667   4.635   2.468   1.433 -0.8924 -0.6026 -0.2995
 2224SOL    HW2 8668   4.729   2.455   1.421 -0.7912  1.2745 -2.0719
 2224SOL    HW3 8669   4.628   2.517   1.515 -0.2650 -0.2903 -0.4236
 2224SOL    MW4 8670   4.646   2.473   1.442 -0.7962 -0.3138 -0.5497
 2225SOL     OW 8671   0.200   1.435   3.802  0.3247 -0.3486 -0.2266
 2225SOL    HW2 8672   0.130   1.442   3.737  0.4435  0.1505 -0.3061
 2225SOL    HW3 8673   0.223   1.342   3.803 -0.6282 -0.5914  0.1017
 2225SOL    MW4 8674   0.194   1.424   3.794  0.2147 -0.3148 -0.1938
 2226SOL     OW 8675   4.674   6.407   4.536  1.0684 -0.3368  0.0345
 2226SOL    HW2 8676   4.608   6.453   4.588 -1.1900 -0.1232 -2.7897
 2226SOL    HW3 8677   4.661   6.314   4.557  0.2369 -0.2492 -0.0642
 2226SOL    MW4 8678   4.663   6.401   4.546  0.6607 -0.2971 -0.3512
 2227SOL     OW 8679   0.352   0.262   3.402  0.4195  0.1701  0.0242
 2227SOL    HW2 8680   0.343   0.357   3.403 -0.1610  0.1319 -0.6744
 2227SOL    HW3 8681   0.420   0.244   3.467  0.0785  1.0072  0.6353
 2227SOL    MW4 8682   0.360   0.272   3.410  0.2979  0.2755  0.0127
 2228SOL     OW 8683   3.787   3.917   2.682  0.4181 -0.2672 -0.0791
 2228SOL    HW2 8684   3.871   3.938   2.640  0.5526 -0.3121  0.1639
 2228SOL    HW3 8685   3.812   3.879   2.767  0.1788 -1.4041 -0.5051
 2228SOL    MW4 8686   3.801   3.915   2.688  0.4043 -0.4231 -0.1033
 2229SOL     OW 8687   6.188   3.575   0.674 -0.0308  0.6794 -0.3289
 2229SOL    HW2 8688   6.120   3.508   0.676 -0.1455  0.7622 -1.2712
 2229SOL    HW3 8689   6.248   3.550   0.745 -0.0142 -0.4741 -0.7323
 2229SOL    MW4 8690   6.187   3.563   0.684 -0.0437  0.5382 -0.5065
 2230SOL     OW 8691   0.265   4.295   6.170  0.5216 -0.0752 -0.0399
 2230SOL    HW2 8692   0.352   4.294   6.211 -0.4403  0.8202  2.1810
 2230SOL    HW3 8693   0.258   4.383   6.133  0.9313 -0.4960 -1.1625
 2230SOL    MW4 8694   0.276   4.307   6.171  0.4488 -0.0126  0.1050
 2231SOL     OW 8695   0.248   2.633   1.917 -0.6348  0.2177 -0.3362
 2231SOL    HW2 8696   0.257   2.625   1.822 -3.2543 -0.0696 -0.6462
 2231SOL    HW3 8697   0.175   2.575   1.939 -0.3137  0.5476  1.8167
 2231SOL    MW4 8698   0.239   2.625   1.907 -0.9381  0.2233 -0.0930
 2232SOL     OW 8699   5.112   3.360   0.208  0.0555  0.4770 -0.0630
 2232SOL    HW2 8700   5.075   3.389   0.291 -2.4289 -1.0394 -0.5316
 2232SOL    HW3 8701   5.204   3.343   0.227  0.0305  2.1625  1.8149
 2232SOL    MW4 8702   5.119   3.361   0.221 -0.2756  0.4993  0.1229
 2233SOL     OW 8703   3.779   0.464   4.152 -0.1428 -0.3520 -0.1622
 2233SOL    HW2 8704   3.762   0.372   4.171 -0.8401  0.1976  2.1369
 2233SOL    HW3 8705   3.696   0.497   4.117 -1.6190  0.4351  3.5624
 2233SOL    MW4 8706   3.766   0.456   4.150 -0.4296 -0.1756  0.6326
 2234SOL     OW 8707   6.279   2.611   5.592 -0.3203  0.0237  0.1495
 2234SOL    HW2 8708   6.356   2.666   5.576 -0.6505  0.5774  0.4210
 2234SOL    HW3 8709   6.312   2.537   5.641  0.2761 -0.4250 -0.8866
 2234SOL    MW4 8710   6.293   2.609   5.596 -0.2852  0.0376  0.0486
 2235SOL     OW 8711   1.774   1.168   2.942  0.3982  0.0182 -0.5154
 2235SOL    HW2 8712   1.721   1.247   2.949 -0.5621 -0.6570 -0.0045
 2235SOL    HW3 8713   1.716   1.097   2.969  2.0871 -0.5313  2.1453
 2235SOL    MW4 8714   1.760   1.169   2.947  0.4943 -0.1434 -0.0969
 2236SOL     OW 8715   3.011   1.579   2.056 -0.2446  0.3486 -0.1867
 2236SOL    HW2 8716   3.008   1.579   2.151  2.2689  0.9132 -0.0370
 2236SOL    HW3 8717   2.932   1.626   2.029 -1.2514 -0.2650  1.5674
 2236SOL    MW4 8718   3.000   1.585   2.065 -0.0458  0.3421  0.0645
 2237SOL     OW 8719   0.445   3.914   3.269  0.4274  0.2014 -0.0530
 2237SOL    HW2 8720   0.467   3.900   3.177  0.7343  1.5980 -0.2107
 2237SOL    HW3 8721   0.473   4.004   3.287 -0.4194  0.2432  1.1671
 2237SOL    MW4 8722   0.451   3.924   3.259  0.3561  0.3912  0.0872
 2238SOL     OW 8723   0.995   2.250   3.676 -0.2261  0.0737  0.1090
 2238SOL    HW2 8724   1.009   2.196   3.754  1.5903  0.1827 -0.0940
 2238SOL    HW3 8725   1.027   2.336   3.701  1.1654 -0.0937 -0.9882
 2238SOL    MW4 8726   1.001   2.254   3.690  0.1972  0.0660 -0.0626
 2239SOL     OW 8727   2.575   2.412   6.276 -0.0746  0.2802  0.5748
 2239SOL    HW2 8728   2.582   2.410   6.372 -1.1488  0.2088  0.6646
 2239SOL    HW3 8729   2.509   2.479   6.259 -0.7958 -0.5745 -0.0559
 2239SOL    MW4 8730   2.567   2.421   6.286 -0.3115  0.1580  0.5034
 2240SOL     OW 8731   5.926   3.725   0.738  0.3377 -0.4755 -0.5473
 2240SOL    HW2 8732   5.925   3.729   0.643  1.2268  0.9561 -0.5222
 2240SOL    HW3 8733   6.014   3.754   0.763 -0.3987  0.7714  0.7439
 2240SOL    MW4 8734   5.937   3.729   0.729  0.3579 -0.1221 -0.3736
 2241SOL     OW 8735   2.780   3.474   4.487  0.8495  0.3560  0.0529
 2241SOL    HW2 8736   2.779   3.395   4.432  1.7565  0.5323 -0.2385
 2241SOL    HW3 8737   2.860   3.465   4.539 -0.0672  0.1185  1.4790
 2241SOL    MW4 8738   2.791   3.462   4.486  0.8482  0.3479  0.2026
 2242SOL     OW 8739   6.163   5.333   1.510  0.3999 -0.4722 -0.2676
 2242SOL    HW2 8740   6.135   5.413   1.555 -1.0651 -1.5510  0.8232
 2242SOL    HW3 8741   6.254   5.321   1.536  0.7626  1.0036 -0.7418
 2242SOL    MW4 8742   6.171   5.342   1.519  0.2545 -0.4198 -0.1863
 2243SOL     OW 8743   3.086   2.743   0.477 -0.0277  0.2641 -0.2295
 2243SOL    HW2 8744   3.046   2.701   0.401  0.6320  0.2962 -0.5986
 2243SOL    HW3 8745   3.174   2.766   0.449 -0.5876  2.5772 -0.2875
 2243SOL    MW4 8746   3.092   2.740   0.463 -0.0145  0.5735 -0.2858
 2244SOL     OW 8747   0.379   3.085   3.759  0.3928 -0.0868 -0.1397
 2244SOL    HW2 8748   0.375   3.109   3.851 -2.0060  1.5535 -0.5939
 2244SOL    HW3 8749   0.381   3.168   3.712 -0.7600 -0.8426 -1.6168
 2244SOL    MW4 8750   0.379   3.099   3.765 -0.0758  0.0299 -0.3945
 2245SOL     OW 8751   6.223   2.842   4.968  0.2506  0.2575 -0.0244
 2245SOL    HW2 8752   6.141   2.801   4.996 -0.3035  0.2250 -1.6297
 2245SOL    HW3 8753   6.228   2.923   5.020 -0.7240  0.1846  0.2043
 2245SOL    MW4 8754   6.212   2.847   4.979  0.0489  0.2436 -0.2060
 2246SOL     OW 8755   0.237   1.384   0.090  0.8852 -0.0336 -0.4162
 2246SOL    HW2 8756   0.149   1.395   0.053  0.5444  1.2402  0.6803
 2246SOL    HW3 8757   0.237   1.295   0.126 -0.5276  0.4654  0.9466
 2246SOL    MW4 8758   0.225   1.374   0.090  0.6538  0.2003 -0.0917
 2247SOL     OW 8759   0.434   1.711   5.740 -0.3176 -1.2693 -0.1910
 2247SOL    HW2 8760   0.403   1.798   5.765 -1.3353 -0.8936 -2.4978
 2247SOL    HW3 8761   0.526   1.724   5.716 -0.2199 -1.0100  0.3202
 2247SOL    MW4 8762   0.442   1.724   5.740 -0.4389 -1.1855 -0.4279
 2248SOL     OW 8763   5.594   0.242   4.310  0.1488 -0.4871  0.1355
 2248SOL    HW2 8764   5.630   0.231   4.222 -0.3557 -2.4157  0.1127
 2248SOL    HW3 8765   5.667   0.225   4.369 -0.0369 -1.5073  0.0822
 2248SOL    MW4 8766   5.608   0.238   4.306  0.0577 -0.8761  0.1255
 2249SOL     OW 8767   0.239   4.583   5.705 -0.1378  0.1533 -0.0653
 2249SOL    HW2 8768   0.245   4.596   5.610 -1.2483 -1.4436 -0.3894
 2249SOL    HW3 8769   0.320   4.537   5.728 -0.0377  0.2048 -0.3080
 2249SOL    MW4 8770   0.250   4.579   5.695 -0.2711 -0.0506 -0.1401
 2250SOL     OW 8771   2.768   1.704   2.002  0.0415 -0.4294  0.2714
 2250SOL    HW2 8772   2.679   1.729   2.027  0.2072 -0.2973  0.7277
 2250SOL    HW3 8773   2.759   1.673   1.911 -0.2201  0.9099 -0.1733
 2250SOL    MW4 8774   2.755   1.703   1.993  0.0288 -0.2353  0.2729
 2251SOL     OW 8775   2.226   2.104   5.751 -0.5116  0.2681 -0.2452
 2251SOL    HW2 8776   2.298   2.158   5.718 -0.6966  0.5402 -0.2108
 2251SOL    HW3 8777   2.203   2.047   5.678 -0.2015  0.1130 -0.2267
 2251SOL    MW4 8778   2.233   2.104   5.737 -0.4951  0.2835 -0.2382
 2252SOL     OW 8779   3.549   3.018   1.276  0.2294 -0.0534 -0.2629
 2252SOL    HW2 8780   3.624   2.972   1.239  0.4628 -1.0907  1.3917
 2252SOL    HW3 8781   3.583   3.101   1.307  0.5377 -0.1982 -0.2159
 2252SOL    MW4 8782   3.563   3.023   1.275  0.3008 -0.2094 -0.0384
 2253SOL     OW 8783   1.661   5.227   5.596 -0.1955  0.1430 -0.4769
 2253SOL    HW2 8784   1.683   5.281   5.520  1.3298 -0.9261 -0.8437
 2253SOL    HW3 8785   1.691   5.139   5.572  3.1554  0.2675  2.4279
 2253SOL    MW4 8786   1.668   5.222   5.583  0.4479  0.0184 -0.1420
 2254SOL     OW 8787   4.880   3.851   5.004 -0.4275  0.1312  0.0369
 2254SOL    HW2 8788   4.861   3.865   4.911 -0.8893  0.8695  0.2408
 2254SOL    HW3 8789   4.960   3.797   5.004  2.4835  4.0159 -0.8025
 2254SOL    MW4 8790   4.888   3.845   4.992 -0.1044  0.7412 -0.0470
 2255SOL     OW 8791   0.403   1.512   1.883 -0.5023  0.0888 -0.6054
 2255SOL    HW2 8792   0.416   1.508   1.789 -1.2024 -0.6173 -0.6865
 2255SOL    HW3 8793   0.318   1.470   1.897 -0.6171  0.5969  0.2927
 2255SOL    MW4 8794   0.394   1.506   1.873 -0.6098  0.0627 -0.4976
 2256SOL     OW 8795   2.550   1.193   2.428 -0.5822  0.2947  0.2127
 2256SOL    HW2 8796   2.604   1.154   2.359 -1.6067  1.8388 -1.5539
 2256SOL    HW3 8797   2.576   1.146   2.508  0.5924 -1.6386 -1.2038
 2256SOL    MW4 8798   2.560   1.181   2.430 -0.5624  0.2434 -0.2073
 2257SOL     OW 8799   4.719   1.738   2.417  0.2732 -0.0341  0.5902
 2257SOL    HW2 8800   4.813   1.751   2.403  0.1284 -0.1163 -0.5715
 2257SOL    HW3 8801   4.694   1.805   2.480  0.7073  1.4058 -0.7054
 2257SOL    MW4 8802   4.728   1.748   2.423  0.3113  0.1450  0.2660
 2258SOL     OW 8803   2.145   0.652   0.044 -0.0413 -0.1960  0.3890
 2258SOL    HW2 8804   2.197   0.588  -0.006 -1.4691 -2.1683  1.3087
 2258SOL    HW3 8805   2.169   0.737   0.006  2.4817 -1.1675 -0.3950
 2258SOL    MW4 8806   2.155   0.655   0.032  0.1032 -0.5844  0.4069
 2259SOL     OW 8807   2.644   3.868   5.045  0.0322  0.3939 -0.1478
 2259SOL    HW2 8808   2.549   3.857   5.039  0.2585 -2.0621 -0.3336
 2259SOL    HW3 8809   2.663   3.853   5.138  0.4967 -2.5971 -0.6280
 2259SOL    MW4 8810   2.634   3.865   5.056  0.1234 -0.3247 -0.2357
 2260SOL     OW 8811   0.617   4.286   1.389  0.6585  0.0625 -0.6459
 2260SOL    HW2 8812   0.618   4.203   1.341 -2.2345 -0.0271 -0.7469
 2260SOL    HW3 8813   0.686   4.277   1.455  2.0863 -1.3727 -2.2517
 2260SOL    MW4 8814   0.626   4.274   1.391  0.4652 -0.1387 -0.8711
 2261SOL     OW 8815   1.926   3.788   0.375 -0.1766 -0.5009 -0.2160
 2261SOL    HW2 8816   1.875   3.772   0.454 -0.9413 -2.0384 -0.9885
 2261SOL    HW3 8817   2.010   3.745   0.392  0.5912  1.2869  0.7090
 2261SOL    MW4 8818   1.931   3.780   0.387 -0.1762 -0.4678 -0.1959
 2262SOL     OW 8819   4.180   4.270   2.324 -0.3472  0.3943 -0.2631
 2262SOL    HW2 8820   4.202   4.185   2.360 -0.1328  0.6587  0.2488
 2262SOL    HW3 8821   4.265   4.309   2.300 -0.5210  0.0391 -1.4834
 2262SOL    MW4 8822   4.194   4.264   2.326 -0.3418  0.3824 -0.3566
 2263SOL     OW 8823   1.605   4.380   4.309  0.0911 -0.0601 -0.7431
 2263SOL    HW2 8824   1.566   4.360   4.224 -0.4227 -1.4398 -0.2022
 2263SOL    HW3 8825   1.591   4.301   4.362  0.8140  0.5947  0.4794
 2263SOL    MW4 8826   1.598   4.367   4.305  0.1187 -0.1557 -0.5105
 2264SOL     OW 8827   2.166   5.133   0.152  0.1438 -0.3834  0.2592
 2264SOL    HW2 8828   2.165   5.156   0.059  1.4892  0.0310  0.3266
 2264SOL    HW3 8829   2.170   5.037   0.153 -0.1882 -0.4032 -0.0993
 2264SOL    MW4 8830   2.167   5.124   0.140  0.2775 -0.3314  0.2208
 2265SOL     OW 8831   5.234   4.988   2.778 -0.7021  0.2611  0.7186
 2265SOL    HW2 8832   5.165   4.944   2.729 -2.2032  1.2574  1.8432
 2265SOL    HW3 8833   5.203   5.078   2.787  2.6294  1.9538 -2.2549
 2265SOL    MW4 8834   5.221   4.994   2.773 -0.4606  0.6159  0.4747
 2266SOL     OW 8835   4.582   1.237   5.963  0.0856  0.1448 -0.2191
 2266SOL    HW2 8836   4.497   1.248   5.919  0.5895 -2.1888 -1.9136
 2266SOL    HW3 8837   4.578   1.150   6.002  1.4483  0.2996  0.3266
 2266SOL    MW4 8838   4.570   1.227   5.963  0.3319 -0.1427 -0.3707
 2267SOL     OW 8839   1.492   5.980   2.836  0.0468  0.2051  0.5984
 2267SOL    HW2 8840   1.499   6.072   2.860  2.7710  0.2786 -0.1382
 2267SOL    HW3 8841   1.441   5.979   2.755 -0.0833  1.0467  0.6661
 2267SOL    MW4 8842   1.486   5.992   2.829  0.3891  0.3259  0.5102
 2268SOL     OW 8843   3.067   4.015   2.648 -0.0714  0.5057  0.3838
 2268SOL    HW2 8844   2.992   4.043   2.700 -0.7369  3.2040 -1.7662
 2268SOL    HW3 8845   3.041   4.032   2.557  1.3481 -3.1455 -0.8843
 2268SOL    MW4 8846   3.054   4.021   2.642  0.0281  0.3800 -0.0672
 2269SOL     OW 8847   1.303   4.270   5.167 -1.0729 -0.3219  0.1633
 2269SOL    HW2 8848   1.316   4.283   5.073  3.8861  0.2603  0.6638
 2269SOL    HW3 8849   1.286   4.176   5.175 -0.7567 -0.5392 -1.2855
 2269SOL    MW4 8850   1.303   4.259   5.155 -0.3769 -0.2737  0.0382
 2270SOL     OW 8851   4.040   3.312   4.868  0.8284 -0.4248  0.2218
 2270SOL    HW2 8852   3.993   3.332   4.949 -0.1069 -0.1567 -0.3640
 2270SOL    HW3 8853   4.085   3.393   4.845 -0.4775  0.1180 -0.5313
 2270SOL    MW4 8854   4.040   3.325   4.876  0.5327 -0.3178  0.0451
 2271SOL     OW 8855   0.691   0.760   1.720  0.3100 -0.0716  0.4746
 2271SOL    HW2 8856   0.688   0.788   1.629 -1.0049 -1.5602  0.0048
 2271SOL    HW3 8857   0.663   0.669   1.718  0.0901 -0.0951  2.3948
 2271SOL    MW4 8858   0.687   0.752   1.708  0.1075 -0.2711  0.6660
 2272SOL     OW 8859   4.328   3.097   2.656 -0.5245 -0.1253  0.8808
 2272SOL    HW2 8860   4.381   3.128   2.729  0.7787 -1.0372  0.3712
 2272SOL    HW3 8861   4.306   3.006   2.679 -0.8854 -0.1188  0.5637
 2272SOL    MW4 8862   4.332   3.089   2.668 -0.4002 -0.2448  0.7717
 2273SOL     OW 8863   3.859   2.295   2.122  0.1647  0.3140 -0.2315
 2273SOL    HW2 8864   3.893   2.385   2.127 -1.2190  0.9886 -1.8068
 2273SOL    HW3 8865   3.865   2.273   2.029 -0.0784 -1.0020  0.0581
 2273SOL    MW4 8866   3.864   2.304   2.110 -0.0500  0.2293 -0.4011
 2274SOL     OW 8867   3.969   2.794   3.691  0.0825 -0.0634 -0.4821
 2274SOL    HW2 8868   3.967   2.734   3.765  0.2992  1.0532  0.4609
 2274SOL    HW3 8869   3.909   2.865   3.715  0.0245  0.2389 -1.4478
 2274SOL    MW4 8870   3.961   2.796   3.704  0.1034  0.1238 -0.4851
 2275SOL     OW 8871   0.104   5.139   4.243  0.1769  0.0412 -0.1221
 2275SOL    HW2 8872   0.116   5.092   4.326  2.6986  1.5623  0.4757
 2275SOL    HW3 8873   0.140   5.080   4.177  2.3098  0.5812  0.4882
 2275SOL    MW4 8874   0.110   5.125   4.245  0.7910  0.3132  0.0373
 2276SOL     OW 8875   3.296   3.427   2.621 -0.1637  0.8134 -0.4667
 2276SOL    HW2 8876   3.256   3.513   2.609 -1.7849  0.0649 -0.7099
 2276SOL    HW3 8877   3.305   3.418   2.716  2.0045  2.0734 -0.4874
 2276SOL    MW4 8878   3.292   3.437   2.632 -0.0915  0.8809 -0.5015
 2277SOL     OW 8879   1.295   3.723   0.633  0.1429  0.0848 -0.2094
 2277SOL    HW2 8880   1.236   3.749   0.703 -0.0358 -0.3285 -0.2037
 2277SOL    HW3 8881   1.314   3.631   0.650 -1.9536 -0.8180 -2.0956
 2277SOL    MW4 8882   1.290   3.715   0.644 -0.1573 -0.0889 -0.4575
 2278SOL     OW 8883   2.835   3.089   1.244  0.2924 -0.1554  0.2990
 2278SOL    HW2 8884   2.883   3.012   1.277  1.4717  0.5532  0.2939
 2278SOL    HW3 8885   2.830   3.074   1.150  3.4938  1.2681 -0.2388
 2278SOL    MW4 8886   2.841   3.077   1.236  0.8704  0.1259  0.2274
 2279SOL     OW 8887   5.974   4.239   5.887 -0.1844 -0.2748 -0.5914
 2279SOL    HW2 8888   6.037   4.184   5.842 -1.0157 -0.8929 -1.0195
 2279SOL    HW3 8889   5.992   4.224   5.980 -0.4251 -1.3158 -0.6973
 2279SOL    MW4 8890   5.984   4.230   5.894 -0.3259 -0.4937 -0.6619
 2280SOL     OW 8891   0.569   3.154   0.733  0.5653  0.1817 -0.5029
 2280SOL    HW2 8892   0.635   3.175   0.800 -0.4409  0.8584  0.2994
 2280SOL    HW3 8893   0.620   3.145   0.652  1.7787 -0.4209  0.2896
 2280SOL    MW4 8894   0.585   3.156   0.731  0.5927  0.1915 -0.2925
 2281SOL     OW 8895   6.207   5.156   5.154  0.0693  0.3420  0.1704
 2281SOL    HW2 8896   6.161   5.196   5.227 -0.9075  1.5740 -1.0446
 2281SOL    HW3 8897   6.300   5.163   5.177 -0.1710  1.6076  0.8661
 2281SOL    MW4 8898   6.213   5.162   5.166 -0.0913  0.6715  0.1019
 2282SOL     OW 8899   4.099   5.282   3.792 -0.3154 -0.0501 -0.6362
 2282SOL    HW2 8900   4.143   5.349   3.739  0.0571  0.2730  0.0582
 2282SOL    HW3 8901   4.115   5.200   3.746  0.7778  0.1047 -0.5679
 2282SOL    MW4 8902   4.107   5.280   3.779 -0.1220  0.0130 -0.5356
 2283SOL     OW 8903   3.795   4.391   5.873 -0.1656  0.8412 -0.2660
 2283SOL    HW2 8904   3.875   4.353   5.911 -0.4626 -0.9137 -1.2671
 2283SOL    HW3 8905   3.767   4.456   5.938 -1.1510 -2.5876  3.1609
 2283SOL    MW4 8906   3.802   4.394   5.887 -0.3348  0.1572  0.0540
 2284SOL     OW 8907   5.823   0.179   4.488  0.0822 -0.2399  0.0763
 2284SOL    HW2 8908   5.755   0.156   4.552  0.0453  0.8116  0.4457
 2284SOL    HW3 8909   5.874   0.099   4.477 -2.1882 -1.5864 -1.4739
 2284SOL    MW4 8910   5.821   0.166   4.495 -0.2222 -0.2789 -0.0795
 2285SOL     OW 8911   0.052   6.344   5.886 -0.2668 -0.1645 -0.7249
 2285SOL    HW2 8912   0.020   6.289   5.957 -1.3542  1.5260  0.1571
 2285SOL    HW3 8913   0.003   6.426   5.895 -0.5466  0.0779 -3.4930
 2285SOL    MW4 8914   0.041   6.347   5.896 -0.4472  0.0905 -0.9737
 2286SOL     OW 8915   5.214   4.411   5.862  0.3458 -0.2621  0.0684
 2286SOL    HW2 8916   5.211   4.400   5.767  2.4471  1.3951 -0.2693
 2286SOL    HW3 8917   5.294   4.366   5.890  0.1393 -0.1141  0.9526
 2286SOL    MW4 8918   5.224   4.404   5.854  0.5958 -0.0239  0.1405
 2287SOL     OW 8919   1.749   4.464   0.145 -0.1061  0.1808 -0.1756
 2287SOL    HW2 8920   1.734   4.510   0.062 -3.6884 -0.7026 -0.1709
 2287SOL    HW3 8921   1.745   4.371   0.122 -1.6138 -0.0773  1.0126
 2287SOL    MW4 8922   1.747   4.458   0.131 -0.7777  0.0302 -0.0182
 2288SOL     OW 8923   4.325   0.191   2.893 -0.3567 -0.3752  0.0246
 2288SOL    HW2 8924   4.376   0.225   2.819 -0.2293  0.4008  0.4662
 2288SOL    HW3 8925   4.313   0.098   2.872  1.0241 -0.5201 -0.2168
 2288SOL    MW4 8926   4.330   0.183   2.880 -0.1577 -0.2919  0.0511
 2289SOL     OW 8927   6.062   0.418   2.968 -0.3091 -0.3790 -0.3002
 2289SOL    HW2 8928   6.153   0.445   2.983 -0.0610 -0.5849 -1.3526
 2289SOL    HW3 8929   6.017   0.441   3.049  0.4596  0.6856 -0.1473
 2289SOL    MW4 8930   6.068   0.424   2.980 -0.1749 -0.2657 -0.4189
 2290SOL     OW 8931   0.826   1.213   1.052 -0.3089 -0.4189 -0.0065
 2290SOL    HW2 8932   0.762   1.195   1.120 -0.8042 -0.5901 -0.5162
 2290SOL    HW3 8933   0.791   1.289   1.005  0.2490 -0.0208  0.2012
 2290SOL    MW4 8934   0.813   1.221   1.054 -0.3007 -0.3890 -0.0463
 2291SOL     OW 8935   5.452   0.683   0.918 -0.1403 -0.4024  0.0809
 2291SOL    HW2 8936   5.432   0.629   0.994 -0.2806 -2.9581 -1.6608
 2291SOL    HW3 8937   5.369   0.692   0.871  0.3769 -0.9119 -0.9822
 2291SOL    MW4 8938   5.438   0.677   0.922 -0.0906 -0.8068 -0.2892
 2292SOL     OW 8939   3.419   0.628   3.484 -0.4400 -0.0717 -0.9099
 2292SOL    HW2 8940   3.479   0.692   3.446  0.4847 -0.6040 -0.3643
 2292SOL    HW3 8941   3.371   0.677   3.551  1.5787 -0.3506  0.8225
 2292SOL    MW4 8942   3.421   0.643   3.488 -0.0516 -0.1788 -0.6093
 2293SOL     OW 8943   4.930   3.777   4.364  0.2696 -0.3742  0.4773
 2293SOL    HW2 8944   4.910   3.683   4.367  2.3311 -0.8503  1.5532
 2293SOL    HW3 8945   4.980   3.793   4.444  0.2734  1.5833  0.1259
 2293SOL    MW4 8946   4.934   3.767   4.375  0.5421 -0.1788  0.5729
 2294SOL     OW 8947   1.027   0.323   2.484  0.0107  0.0754 -0.2382
 2294SOL    HW2 8948   1.118   0.329   2.512 -0.2925 -1.0417  1.1384
 2294SOL    HW3 8949   0.993   0.412   2.493  0.5367  0.1807  0.8684
 2294SOL    MW4 8950   1.034   0.336   2.489  0.0401 -0.0581  0.0894
 2295SOL     OW 8951   0.340   1.152   4.408 -0.0846  0.0739  0.1134
 2295SOL    HW2 8952   0.306   1.091   4.343 -3.4600  1.5092  0.3538
 2295SOL    HW3 8953   0.293   1.234   4.392  1.0952  1.3541  2.5377
 2295SOL    MW4 8954   0.330   1.155   4.397 -0.3743  0.4322  0.4650
 2296SOL     OW 8955   3.758   2.644   0.486 -0.1272 -0.0742 -0.2355
 2296SOL    HW2 8956   3.789   2.554   0.500  1.7181  0.3255 -1.3909
 2296SOL    HW3 8957   3.696   2.637   0.413 -0.3613 -0.4690 -0.0017
 2296SOL    MW4 8958   3.754   2.631   0.478  0.0854 -0.0736 -0.3571
 2297SOL     OW 8959   5.277   1.388   3.507  0.4593  0.4585  0.3972
 2297SOL    HW2 8960   5.218   1.393   3.432  0.7302  0.3491  0.1763
 2297SOL    HW3 8961   5.317   1.301   3.501 -0.6125 -0.1441  1.4997
 2297SOL    MW4 8962   5.275   1.377   3.496  0.3536  0.3645  0.5135
 2298SOL     OW 8963   5.481   3.161   1.605  0.0849  0.0874  0.4767
 2298SOL    HW2 8964   5.545   3.198   1.544 -1.4752 -0.4583 -1.6045
 2298SOL    HW3 8965   5.496   3.067   1.601  2.3285  0.1642  3.7850
 2298SOL    MW4 8966   5.491   3.154   1.596  0.1751  0.0256  0.6386
 2299SOL     OW 8967   0.208   3.494   3.276 -0.2313 -0.3385  0.1079
 2299SOL    HW2 8968   0.295   3.498   3.316  0.2560  0.1589 -0.9468
 2299SOL    HW3 8969   0.203   3.573   3.222 -1.1234 -0.6394 -0.2670
 2299SOL    MW4 8970   0.219   3.505   3.274 -0.2847 -0.3126 -0.0807
 2300SOL     OW 8971   0.810   3.466   0.059  0.3130  0.2096  0.2743
 2300SOL    HW2 8972   0.817   3.560   0.072 -2.4334  0.5251  0.0970
 2300SOL    HW3 8973   0.814   3.430   0.148  1.4170  0.4621  0.3395
 2300SOL    MW4 8974   0.812   3.473   0.073  0.0963  0.2845  0.2595
 2301SOL     OW 8975   1.296   0.514   5.278 -0.1642  0.1714 -0.6040
 2301SOL    HW2 8976   1.372   0.571   5.295  0.9526 -1.1599 -0.9712
 2301SOL    HW3 8977   1.312   0.437   5.333 -1.2590 -0.1435 -0.7115
 2301SOL    MW4 8978   1.308   0.511   5.288 -0.1613 -0.0458 -0.6666
 2302SOL     OW 8979   1.714   6.028   2.519  0.0114  0.2923 -0.1848
 2302SOL    HW2 8980   1.721   5.961   2.588  2.6265  0.6734  0.0207
 2302SOL    HW3 8981   1.747   6.108   2.559 -3.4616  1.9649 -0.2946
 2302SOL    MW4 8982   1.719   6.029   2.533 -0.1018  0.5633 -0.1722
 2303SOL     OW 8983   5.409   4.008   0.033 -0.2115  0.4216  0.3052
 2303SOL    HW2 8984   5.438   4.095   0.059 -0.9329  0.5048  0.8719
 2303SOL    HW3 8985   5.342   3.984   0.097  0.2473 -0.7171  0.3917
 2303SOL    MW4 8986   5.404   4.016   0.045 -0.2462  0.2823  0.3914
 2304SOL     OW 8987   1.203   3.404   3.842  0.3554 -0.1136  0.6519
 2304SOL    HW2 8988   1.149   3.480   3.821 -0.3197 -0.5148  0.8950
 2304SOL    HW3 8989   1.245   3.427   3.925  1.2380  0.5438  0.0380
 2304SOL    MW4 8990   1.202   3.417   3.850  0.3827 -0.0798  0.6030
 2305SOL     OW 8991   5.810   0.452   5.340 -0.9492  0.0163  0.0996
 2305SOL    HW2 8992   5.763   0.375   5.307 -1.4480 -0.1305  1.1236
 2305SOL    HW3 8993   5.902   0.436   5.316 -1.4868  0.8787 -3.0365
 2305SOL    MW4 8994   5.816   0.439   5.332 -1.0860  0.1107 -0.1791
 2306SOL     OW 8995   5.705   2.568   5.924  0.4397 -0.1807  0.2517
 2306SOL    HW2 8996   5.730   2.476   5.918 -1.2364 -0.6474  0.1276
 2306SOL    HW3 8997   5.772   2.607   5.980  0.6513 -1.6619  1.0807
 2306SOL    MW4 8998   5.717   2.561   5.931  0.2465 -0.4377  0.3447
 2307SOL     OW 8999   1.390   6.373   5.630  0.2553 -0.3016  0.1154
 2307SOL    HW2 9000   1.388   6.340   5.541  0.0108  3.2112 -1.3557
 2307SOL    HW3 9001   1.299   6.372   5.660  0.3103 -1.2733  0.2671
 2307SOL    MW4 9002   1.378   6.369   5.622  0.2303  0.0337 -0.0587
 2308SOL     OW 9003   3.305   4.817   5.789  0.6728  0.4594  0.3637
 2308SOL    HW2 9004   3.323   4.813   5.883  2.7827  2.6371  0.1385
 2308SOL    HW3 9005   3.270   4.904   5.775 -1.8929 -0.6430 -0.6206
 2308SOL    MW4 9006   3.303   4.828   5.800  0.6126  0.6013  0.2041
 2309SOL     OW 9007   2.582   1.095   1.447 -0.0595  0.1428 -0.2017
 2309SOL    HW2 9008   2.672   1.113   1.420  0.0894 -1.1460 -0.6208
 2309SOL    HW3 9009   2.573   1.000   1.439 -1.3462  0.2165  0.1880
 2309SOL    MW4 9010   2.592   1.085   1.442 -0.2096 -0.0175 -0.2056
 2310SOL     OW 9011   5.243   0.545   3.053  0.6526  0.2123  0.3817
 2310SOL    HW2 9012   5.291   0.470   3.086  0.7523 -0.1215 -0.4982
 2310SOL    HW3 9013   5.270   0.553   2.962 -0.0015  0.7913  0.2250
 2310SOL    MW4 9014   5.253   0.537   3.045  0.5794  0.2446  0.2449
 2311SOL     OW 9015   2.763   4.445   4.395  0.4892  0.1717 -0.1128
 2311SOL    HW2 9016   2.707   4.431   4.471  1.8775 -0.1882  0.8805
 2311SOL    HW3 9017   2.847   4.474   4.432  1.7115 -1.5327 -1.3665
 2311SOL    MW4 9018   2.767   4.447   4.410  0.8336 -0.1006 -0.1472
 2312SOL     OW 9019   2.298   2.261   4.274  0.4118  0.1334 -0.1182
 2312SOL    HW2 9020   2.211   2.223   4.263 -0.0516  0.9719  0.5888
 2312SOL    HW3 9021   2.330   2.274   4.184  0.2297 -1.0974 -0.3749
 2312SOL    MW4 9022   2.291   2.258   4.261  0.3266  0.0816 -0.0588
 2313SOL     OW 9023   6.177   5.996   4.426  0.1825 -0.0889 -0.0764
 2313SOL    HW2 9024   6.179   5.901   4.412  0.9775 -0.1753  0.4943
 2313SOL    HW3 9025   6.267   6.017   4.454 -0.5315  0.4693  1.9633
 2313SOL    MW4 9026   6.189   5.986   4.428  0.1932 -0.0266  0.2681
 2314SOL     OW 9027   2.864   1.982   1.886  0.0278 -0.0484 -0.6879
 2314SOL    HW2 9028   2.915   1.918   1.937 -0.0924  0.6666  0.3688
 2314SOL    HW3 9029   2.773   1.958   1.902 -0.0059  0.0376 -0.7516
 2314SOL    MW4 9030   2.859   1.971   1.895  0.0075  0.0573 -0.5569
 2315SOL     OW 9031   5.167   4.623   3.552  0.0703  0.0194 -0.0082
 2315SOL    HW2 9032   5.177   4.564   3.478  0.2321  2.3575 -1.9729
 2315SOL    HW3 9033   5.072   4.630   3.564  0.0501 -0.6454  0.2771
 2315SOL    MW4 9034   5.156   4.616   3.544  0.0890  0.2402 -0.2298
 2316SOL     OW 9035   5.136   1.662   2.208 -0.3185  0.0925  0.2384
 2316SOL    HW2 9036   5.126   1.706   2.292 -0.3326  0.6372 -0.0434
 2316SOL    HW3 9037   5.083   1.583   2.215  0.8235 -0.6266  1.2638
 2316SOL    MW4 9038   5.128   1.657   2.220 -0.1697  0.0695  0.3365
 2317SOL     OW 9039   3.179   4.409   1.762  0.0588  0.2899  0.0545
 2317SOL    HW2 9040   3.126   4.403   1.841 -0.9903  0.8676 -0.5712
 2317SOL    HW3 9041   3.251   4.467   1.785 -0.7512  1.2043  0.3309
 2317SOL    MW4 9042   3.181   4.416   1.775 -0.1865  0.4868  0.0084
 2318SOL     OW 9043   5.962   0.955   3.966 -0.4212  0.0397 -0.4653
 2318SOL    HW2 9044   6.006   0.994   4.041 -0.4563 -0.7236 -0.0414
 2318SOL    HW3 9045   5.910   1.027   3.929 -0.5054  0.3880  0.3164
 2318SOL    MW4 9046   5.961   0.969   3.971 -0.4370 -0.0150 -0.3062
 2319SOL     OW 9047   0.465   0.916   5.942 -1.0137 -0.7937  0.2139
 2319SOL    HW2 9048   0.379   0.876   5.932 -2.8285  2.5943  0.7119
 2319SOL    HW3 9049   0.470   0.982   5.872  0.2279  0.5173  1.4446
 2319SOL    MW4 9050   0.454   0.920   5.931 -1.0893 -0.1738  0.4420
 2320SOL     OW 9051   2.414   1.766   0.421 -0.5093  0.0552 -0.0411
 2320SOL    HW2 9052   2.320   1.747   0.428 -0.3458 -1.6529 -1.7162
 2320SOL    HW3 9053   2.454   1.716   0.492 -0.7903  0.2512  0.2600
 2320SOL    MW4 9054   2.407   1.757   0.431 -0.5248 -0.1443 -0.2224
 2321SOL     OW 9055   2.178   0.982   4.777 -0.3323 -0.1080 -0.0675
 2321SOL    HW2 9056   2.117   0.910   4.760  1.1589 -1.3060 -0.5627
 2321SOL    HW3 9057   2.177   0.994   4.872 -1.6740  0.2251 -0.1072
 2321SOL    MW4 9058   2.170   0.974   4.787 -0.3125 -0.2221 -0.1381
 2322SOL     OW 9059   1.578   1.685   2.403 -0.2125 -0.1450  0.3966
 2322SOL    HW2 9060   1.537   1.601   2.425 -1.4344  0.1639 -0.6011
 2322SOL    HW3 9061   1.668   1.677   2.435  0.3918 -2.7019 -1.5711
 2322SOL    MW4 9062   1.585   1.673   2.410 -0.2940 -0.4416  0.0054
 2323SOL     OW 9063   1.904   5.283   2.475 -0.1028  0.3860 -0.1066
 2323SOL    HW2 9064   1.937   5.207   2.523  0.5027  1.2434  0.8873
 2323SOL    HW3 9065   1.961   5.291   2.399 -0.4089 -0.3671 -0.4252
 2323SOL    MW4 9066   1.916   5.274   2.471 -0.0633  0.3997 -0.0175
 2324SOL     OW 9067   1.408   5.156   3.449 -0.1873 -0.4538  0.2738
 2324SOL    HW2 9068   1.481   5.106   3.411 -0.9878 -0.3799 -1.4409
 2324SOL    HW3 9069   1.386   5.221   3.382 -2.2658 -0.9069  0.4558
 2324SOL    MW4 9070   1.415   5.158   3.435 -0.5671 -0.5038  0.0716
 2325SOL     OW 9071   0.572   4.499   1.214 -0.1962 -0.1535  0.6593
 2325SOL    HW2 9072   0.483   4.502   1.179  0.1413  0.6523 -0.2003
 2325SOL    HW3 9073   0.571   4.428   1.278 -1.0816 -1.1034 -0.3686
 2325SOL    MW4 9074   0.560   4.490   1.218 -0.2685 -0.1725  0.4102
 2326SOL     OW 9075   2.490   3.537   4.242 -0.0696  0.2012 -0.1115
 2326SOL    HW2 9076   2.553   3.593   4.287  0.2192 -0.0471 -0.2033
 2326SOL    HW3 9077   2.542   3.462   4.211 -0.4811 -0.1985  0.1490
 2326SOL    MW4 9078   2.505   3.534   4.244 -0.0858  0.1157 -0.0892
 2327SOL     OW 9079   0.464   1.986   6.223 -0.0347 -0.1918 -0.1014
 2327SOL    HW2 9080   0.551   2.010   6.191 -0.5980  1.4927 -0.4681
 2327SOL    HW3 9081   0.423   2.069   6.245 -1.1632 -1.0454  1.1296
 2327SOL    MW4 9082   0.470   2.000   6.222 -0.2579 -0.0822  0.0127
 2328SOL     OW 9083   3.880   6.086   4.947 -0.1621  0.1514  0.0751
 2328SOL    HW2 9084   3.948   6.121   4.890 -0.2118 -0.8420 -0.6191
 2328SOL    HW3 9085   3.925   6.021   5.001 -0.3369  0.3132  0.4223
 2328SOL    MW4 9086   3.895   6.082   4.947 -0.1917  0.0417  0.0294
 2329SOL     OW 9087   4.192   0.053   0.580  0.0870  0.7024  0.0222
 2329SOL    HW2 9088   4.108   0.010   0.561  0.1471  0.0442  1.1449
 2329SOL    HW3 9089   4.257  -0.016   0.568  0.3168  0.8207  0.5484
 2329SOL    MW4 9090   4.189   0.038   0.576  0.1253  0.6312  0.2397
 2330SOL     OW 9091   1.321   3.438   4.090  0.0058 -0.1622  0.6303
 2330SOL    HW2 9092   1.289   3.349   4.107  0.0478 -0.2059  0.4879
 2330SOL    HW3 9093   1.396   3.448   4.148  0.1829 -0.3303  0.4332
 2330SOL    MW4 9094   1.327   3.427   4.100  0.0347 -0.1901  0.5855
 2331SOL     OW 9095   4.721   4.260   3.027 -0.8043  0.3270  0.0641
 2331SOL    HW2 9096   4.629   4.252   3.052 -1.6015  0.6908 -2.4130
 2331SOL    HW3 9097   4.718   4.301   2.940  1.7538  1.0991  0.2740
 2331SOL    MW4 9098   4.708   4.264   3.019 -0.5720  0.4768 -0.2350
 2332SOL     OW 9099   2.851   5.240   3.455 -0.2370  0.2271 -0.2354
 2332SOL    HW2 9100   2.909   5.164   3.456 -2.5578 -1.6283 -0.6163
 2332SOL    HW3 9101   2.859   5.276   3.367 -0.8062 -0.9609 -0.7837
 2332SOL    MW4 9102   2.860   5.235   3.444 -0.6183 -0.1745 -0.3580
 2333SOL     OW 9103   3.323   1.137   0.727 -0.2476 -0.4214 -0.1238
 2333SOL    HW2 9104   3.395   1.078   0.704  0.7043  0.5048  0.3664
 2333SOL    HW3 9105   3.281   1.094   0.802  1.6457  0.3735  1.5091
 2333SOL    MW4 9106   3.327   1.123   0.734  0.1278 -0.1944  0.1563
 2334SOL     OW 9107   4.206   6.168   1.073  0.2077  0.0154 -0.3251
 2334SOL    HW2 9108   4.248   6.255   1.074  1.0470 -0.3882  0.1871
 2334SOL    HW3 9109   4.130   6.178   1.130  0.0420  0.5342 -0.6222
 2334SOL    MW4 9110   4.202   6.181   1.080  0.2965  0.0306 -0.2967
 2335SOL     OW 9111   0.702   3.709   0.412 -0.1646  0.7406 -0.0480
 2335SOL    HW2 9112   0.677   3.617   0.422  0.1566  0.4743 -1.5521
 2335SOL    HW3 9113   0.797   3.707   0.401 -0.1127  1.2883  0.2788
 2335SOL    MW4 9114   0.711   3.697   0.412 -0.1154  0.7777 -0.2033
 2336SOL     OW 9115   5.435   3.549   1.165  0.2942 -0.0627  0.0672
 2336SOL    HW2 9116   5.418   3.455   1.157  0.3113 -0.0261 -0.4267
 2336SOL    HW3 9117   5.348   3.589   1.168  0.2897 -0.0654 -0.0486
 2336SOL    MW4 9118   5.422   3.541   1.165  0.2959 -0.0582 -0.0132
 2337SOL     OW 9119   2.442   1.477   1.480  0.6453  0.1606  0.0941
 2337SOL    HW2 9120   2.407   1.399   1.437 -0.6287  1.1943 -0.8034
 2337SOL    HW3 9121   2.452   1.452   1.571 -1.1087 -0.6317  0.0986
 2337SOL    MW4 9122   2.439   1.463   1.486  0.2458  0.1925 -0.0237
 2338SOL     OW 9123   5.535   4.539   4.393 -0.2760 -0.1936  0.1141
 2338SOL    HW2 9124   5.470   4.609   4.384 -0.7489 -0.8088 -1.7490
 2338SOL    HW3 9125   5.485   4.464   4.425 -0.4002 -0.5125 -0.7979
 2338SOL    MW4 9126   5.520   4.539   4.396 -0.3548 -0.3169 -0.2521
 2339SOL     OW 9127   5.889   0.162   5.575 -0.8318  0.0355  0.3352
 2339SOL    HW2 9128   5.970   0.168   5.525  0.0914 -1.3817  1.5689
 2339SOL    HW3 9129   5.855   0.252   5.577  0.8347  0.7120  0.0132
 2339SOL    MW4 9130   5.895   0.175   5.569 -0.4901 -0.0622  0.4555
 2340SOL     OW 9131   3.479   0.565   4.729 -0.0805  0.0471 -0.0636
 2340SOL    HW2 9132   3.490   0.614   4.648 -1.2343 -1.3008 -1.1069
 2340SOL    HW3 9133   3.565   0.527   4.747  0.5392  1.4779  0.1581
 2340SOL    MW4 9134   3.491   0.566   4.721 -0.1509  0.0581 -0.1720
 2341SOL     OW 9135   0.680   4.999   1.056 -0.4624 -0.6837 -0.0447
 2341SOL    HW2 9136   0.729   4.945   1.118 -0.3408 -1.4841 -0.8158
 2341SOL    HW3 9137   0.744   5.022   0.988 -1.1256 -1.7713 -1.0810
 2341SOL    MW4 9138   0.695   4.995   1.055 -0.5339 -0.9328 -0.2832
 2342SOL     OW 9139   0.975   0.998   3.495 -0.1658  0.5415 -0.5806
 2342SOL    HW2 9140   1.039   0.959   3.554 -1.1331  0.0345  0.1670
 2342SOL    HW3 9141   0.907   0.932   3.486 -1.9747  2.0933  0.9118
 2342SOL    MW4 9142   0.975   0.985   3.501 -0.5321  0.6794 -0.2850
 2343SOL     OW 9143   1.837   5.582   0.424  0.0711  0.2779 -0.0474
 2343SOL    HW2 9144   1.893   5.629   0.486 -0.2475 -0.5978  0.9257
 2343SOL    HW3 9145   1.897   5.554   0.354  1.3106 -2.2006  1.8235
 2343SOL    MW4 9146   1.852   5.584   0.423  0.1926 -0.1647  0.3278
 2344SOL     OW 9147   1.217   0.264   0.062 -0.3277 -0.1919  0.1762
 2344SOL    HW2 9148   1.247   0.190   0.010  1.7343  0.5503  0.2324
 2344SOL    HW3 9149   1.258   0.340   0.022  1.4744  0.4168  2.9026
 2344SOL    MW4 9150   1.226   0.264   0.050  0.1821 -0.0137  0.5433
 2345SOL     OW 9151   1.807   3.654   3.102  0.0213  0.1193 -0.4558
 2345SOL    HW2 9152   1.743   3.724   3.116 -0.7300 -0.5093 -0.7337
 2345SOL    HW3 9153   1.827   3.622   3.190  0.0933  0.4319 -0.3567
 2345SOL    MW4 9154   1.801   3.659   3.116 -0.0683  0.0776 -0.4794
 2346SOL     OW 9155   3.812   3.184   3.428  0.2045 -0.0324 -0.7115
 2346SOL    HW2 9156   3.852   3.249   3.370 -0.5740  0.9087 -0.2332
 2346SOL    HW3 9157   3.884   3.149   3.480  0.7304 -0.0360 -1.4389
 2346SOL    MW4 9158   3.827   3.188   3.427  0.1712  0.0913 -0.7443
 2347SOL     OW 9159   5.547   4.925   4.830  0.0390  0.0443  0.3711
 2347SOL    HW2 9160   5.473   4.876   4.865 -0.0985 -0.1706 -0.2094
 2347SOL    HW3 9161   5.555   5.002   4.887 -0.2771 -0.2197  0.7691
 2347SOL    MW4 9162   5.539   4.929   4.842 -0.0208 -0.0189  0.3470
 2348SOL     OW 9163   2.589   2.262   2.195  0.3163 -0.2668 -0.1603
 2348SOL    HW2 9164   2.545   2.179   2.213 -2.5128  0.7834 -1.6324
 2348SOL    HW3 9165   2.543   2.326   2.249  0.6008  0.7636 -1.0958
 2348SOL    MW4 9166   2.577   2.260   2.205 -0.0194  0.0077 -0.4779
 2349SOL     OW 9167   0.486   1.091   0.323 -0.2884 -0.2972  0.7462
 2349SOL    HW2 9168   0.503   1.161   0.386 -0.1808 -1.2846  1.8475
 2349SOL    HW3 9169   0.490   1.011   0.375 -0.4946 -1.1192 -0.4739
 2349SOL    MW4 9170   0.488   1.090   0.338 -0.3014 -0.5359  0.7306
 2350SOL     OW 9171   5.297   5.763   2.487 -0.1884 -0.1467 -0.5829
 2350SOL    HW2 9172   5.220   5.708   2.503 -0.8012  0.8835  0.1570
 2350SOL    HW3 9173   5.290   5.789   2.396  0.0824 -1.2347 -0.9292
 2350SOL    MW4 9174   5.285   5.759   2.477 -0.2335 -0.1543 -0.5310
 2351SOL     OW 9175   3.351   5.939   5.025 -0.2682 -0.4914 -0.2828
 2351SOL    HW2 9176   3.362   6.012   4.965  0.6624 -1.0361 -0.7956
 2351SOL    HW3 9177   3.331   5.980   5.109 -2.5524  0.2566 -1.1233
 2351SOL    MW4 9178   3.350   5.954   5.029 -0.4468 -0.4646 -0.4613
 2352SOL     OW 9179   5.325   0.609   5.137 -0.2787 -0.3232  0.2792
 2352SOL    HW2 9180   5.354   0.617   5.228 -1.6748  3.7205  0.5987
 2352SOL    HW3 9181   5.283   0.524   5.131 -0.3232 -0.6202  3.4935
 2352SOL    MW4 9182   5.323   0.599   5.148 -0.4688  0.1711  0.7454
 2353SOL     OW 9183   2.811   4.845   3.994 -0.3413 -0.0349 -0.1475
 2353SOL    HW2 9184   2.744   4.782   4.018  0.8724 -0.9751  0.8867
 2353SOL    HW3 9185   2.868   4.851   4.070  0.8981  0.5432 -1.0786
 2353SOL    MW4 9186   2.810   4.837   4.007 -0.0177 -0.0826 -0.1339
 2354SOL     OW 9187   3.848   3.133   1.180  0.1620  0.1770  0.0585
 2354SOL    HW2 9188   3.817   3.050   1.144  0.9467  0.4738 -1.3851
 2354SOL    HW3 9189   3.857   3.117   1.274  0.5979 -1.4701 -0.2357
 2354SOL    MW4 9190   3.845   3.120   1.188  0.3231 -0.0012 -0.1708
 2355SOL     OW 9191   2.616   1.727   4.874 -0.0439 -0.1468  0.1763
 2355SOL    HW2 9192   2.662   1.781   4.810 -1.6410  1.3478  0.1924
 2355SOL    HW3 9193   2.678   1.659   4.898  0.8449 -0.3386 -2.4210
 2355SOL    MW4 9194   2.630   1.725   4.869 -0.1374  0.0251 -0.1642
 2356SOL     OW 9195   1.466   4.061   3.215 -0.6512 -0.3138  0.4595
 2356SOL    HW2 9196   1.535   4.127   3.222  1.2070 -2.2910  2.7897
 2356SOL    HW3 9197   1.391   4.099   3.260 -0.2042  0.8308  0.2740
 2356SOL    MW4 9198   1.465   4.075   3.222 -0.3471 -0.4237  0.7425
 2357SOL     OW 9199   1.122   3.792   0.829 -0.0569 -0.5374  0.1344
 2357SOL    HW2 9200   1.147   3.767   0.918 -0.8091 -1.2199  0.1681
 2357SOL    HW3 9201   1.135   3.887   0.826 -0.8170 -0.3841  1.2359
 2357SOL    MW4 9202   1.127   3.801   0.841 -0.2564 -0.6072  0.2842
 2358SOL     OW 9203   1.007   4.254   6.014 -0.4082 -0.1523 -0.0253
 2358SOL    HW2 9204   0.968   4.204   6.086  0.2145  0.5153  0.7957
 2358SOL    HW3 9205   1.068   4.314   6.057  0.8653 -0.5533 -1.1889
 2358SOL    MW4 9206   1.010   4.255   6.029 -0.1580 -0.1171 -0.0705
 2359SOL     OW 9207   3.858   0.339   0.661 -0.1815  0.8148  0.2196
 2359SOL    HW2 9208   3.797   0.410   0.638  0.2147  1.5972  1.4951
 2359SOL    HW3 9209   3.804   0.260   0.656 -1.0187  1.3637  0.2315
 2359SOL    MW4 9210   3.843   0.338   0.657 -0.2397  0.9904  0.3895
 2360SOL     OW 9211   0.575   5.743   5.575  0.0976  0.2346 -0.3334
 2360SOL    HW2 9212   0.587   5.673   5.639  0.1757  0.4135 -0.1492
 2360SOL    HW3 9213   0.483   5.768   5.582 -0.3857 -1.0835 -1.6877
 2360SOL    MW4 9214   0.565   5.737   5.584  0.0441  0.0843 -0.4877
 2361SOL     OW 9215   1.738   3.951   2.088  0.5555 -0.6563  0.0697
 2361SOL    HW2 9216   1.767   3.875   2.138  0.8856 -1.5300 -1.3962
 2361SOL    HW3 9217   1.770   3.936   1.999  3.1786  2.5568  0.2682
 2361SOL    MW4 9218   1.746   3.939   2.083  0.9451 -0.3477 -0.0975
 2362SOL     OW 9219   2.030   1.422   6.024 -0.0908  0.2269 -0.3283
 2362SOL    HW2 9220   1.946   1.463   6.046 -0.2603  1.1320 -2.4210
 2362SOL    HW3 9221   2.006   1.336   5.991 -0.2417  0.5576 -1.1084
 2362SOL    MW4 9222   2.015   1.416   6.022 -0.1330  0.3899 -0.7074
 2363SOL     OW 9223   4.784   5.968   4.246 -0.2945 -0.0246  0.0912
 2363SOL    HW2 9224   4.851   6.034   4.229 -2.1294  1.5889 -1.4005
 2363SOL    HW3 9225   4.710   6.017   4.282 -1.6023 -1.2912 -0.7384
 2363SOL    MW4 9226   4.783   5.983   4.248 -0.7092  0.0212 -0.2151
 2364SOL     OW 9227   1.521   6.258   1.715 -0.2102  0.4321 -0.6936
 2364SOL    HW2 9228   1.615   6.256   1.696  0.1468 -1.7898  1.0266
 2364SOL    HW3 9229   1.516   6.269   1.810 -1.7772  2.1189 -0.9201
 2364SOL    MW4 9230   1.533   6.259   1.725 -0.3699  0.3615 -0.4965
 2365SOL     OW 9231   0.126   5.814   3.795 -0.1188 -0.7141 -0.6538
 2365SOL    HW2 9232   0.133   5.727   3.833 -1.4890  0.0617  1.5532
 2365SOL    HW3 9233   0.036   5.842   3.813  0.0650  0.8982 -1.9336
 2365SOL    MW4 9234   0.115   5.806   3.802 -0.2754 -0.3990 -0.5315
 2366SOL     OW 9235   4.771   3.827   1.846 -0.0899 -0.1151 -0.0945
 2366SOL    HW2 9236   4.793   3.863   1.932  0.2509 -2.0958  0.7028
 2366SOL    HW3 9237   4.719   3.895   1.803  1.2291  1.6344  0.9658
 2366SOL    MW4 9238   4.767   3.841   1.851  0.1291 -0.1456  0.1506
 2367SOL     OW 9239   4.717   0.485   0.395 -0.1756  0.3789 -0.6694
 2367SOL    HW2 9240   4.677   0.400   0.376 -1.2234  0.7116 -0.0236
 2367SOL    HW3 9241   4.778   0.500   0.322 -1.6226  0.0888 -1.9788
 2367SOL    MW4 9242   4.720   0.476   0.383 -0.5047  0.3845 -0.7569
 2368SOL     OW 9243   2.474   1.330   2.950  0.2001  0.0482 -0.5742
 2368SOL    HW2 9244   2.556   1.351   2.995  0.0924  1.7046 -1.0912
 2368SOL    HW3 9245   2.406   1.366   3.008  0.0182  1.3980 -1.5753
 2368SOL    MW4 9246   2.476   1.338   2.964  0.1619  0.4449 -0.7745
 2369SOL     OW 9247   1.217   3.283   0.454  0.2200  0.0048  0.3665
 2369SOL    HW2 9248   1.311   3.289   0.471  0.6487  1.6830 -2.0726
 2369SOL    HW3 9249   1.211   3.229   0.375 -0.6888  1.1822 -0.4045
 2369SOL    MW4 9250   1.229   3.277   0.446  0.1567  0.3816 -0.0570
 2370SOL     OW 9251   4.968   4.727   1.386 -0.2191  0.1407 -0.3852
 2370SOL    HW2 9252   5.027   4.777   1.443 -0.9615 -1.6780  2.1741
 2370SOL    HW3 9253   4.889   4.715   1.439 -1.1341 -1.3025 -1.9779
 2370SOL    MW4 9254   4.965   4.732   1.400 -0.4378 -0.2897 -0.2576
 2371SOL     OW 9255   3.440   2.162   2.377 -0.3317 -0.4004  0.4594
 2371SOL    HW2 9256   3.464   2.154   2.285  0.6973  2.1454  0.4186
 2371SOL    HW3 9257   3.507   2.112   2.424  0.6064  0.3188 -0.0801
 2371SOL    MW4 9258   3.452   2.154   2.371 -0.0722  0.0304  0.3828
 2372SOL     OW 9259   4.124   2.477   0.873  0.1498 -0.1732  0.4167
 2372SOL    HW2 9260   4.163   2.523   0.799  0.9145 -0.7882  0.4349
 2372SOL    HW3 9261   4.162   2.520   0.950 -0.9135  0.7052  0.4850
 2372SOL    MW4 9262   4.134   2.489   0.873  0.1104 -0.1385  0.4281
 2373SOL     OW 9263   3.984   2.885   0.916 -0.2101 -0.1050 -0.3841
 2373SOL    HW2 9264   3.923   2.958   0.902 -0.3731  0.1425  1.3963
 2373SOL    HW3 9265   4.038   2.884   0.837 -0.2863  1.8577 -0.5174
 2373SOL    MW4 9266   3.983   2.894   0.904 -0.2416  0.1866 -0.1668
 2374SOL     OW 9267   2.863   4.163   1.577 -0.6730  0.0153  0.4788
 2374SOL    HW2 9268   2.808   4.109   1.520  1.1520  1.1827 -2.5899
 2374SOL    HW3 9269   2.932   4.104   1.607 -0.7161 -0.2240  0.1092
 2374SOL    MW4 9270   2.865   4.148   1.574 -0.4379  0.1377  0.0251
 2375SOL     OW 9271   2.734   5.572   1.356 -0.2882  0.5425  0.0330
 2375SOL    HW2 9272   2.800   5.593   1.290 -0.3791 -0.6930 -0.4720
 2375SOL    HW3 9273   2.746   5.479   1.374 -0.7571  0.6899  1.2231
 2375SOL    MW4 9274   2.744   5.563   1.349 -0.3621  0.3989  0.1234
 2376SOL     OW 9275   2.288   3.917   1.024 -0.6412  0.1999 -0.4154
 2376SOL    HW2 9276   2.343   3.945   0.950  2.8526  0.3255  1.9695
 2376SOL    HW3 9277   2.226   3.988   1.035  0.6867  1.6012 -1.4345
 2376SOL    MW4 9278   2.287   3.930   1.015 -0.0050  0.4014 -0.2352
 2377SOL     OW 9279   1.405   3.360   5.528 -0.2910  0.2037 -0.0967
 2377SOL    HW2 9280   1.455   3.280   5.511  0.3114  0.7663 -1.1069
 2377SOL    HW3 9281   1.379   3.390   5.441 -0.0137  1.4142  0.2317
 2377SOL    MW4 9282   1.408   3.353   5.514 -0.1749  0.4376 -0.1866
 2378SOL     OW 9283   5.753   0.828   0.819 -0.1418  0.2840  0.0926
 2378SOL    HW2 9284   5.809   0.904   0.831  0.0105  0.1323  0.3579
 2378SOL    HW3 9285   5.683   0.858   0.761  0.6182  0.2698 -0.8488
 2378SOL    MW4 9286   5.751   0.842   0.813 -0.0214  0.2621  0.0034
 2379SOL     OW 9287   1.524   1.437   5.717  0.0841 -0.2672 -0.1124
 2379SOL    HW2 9288   1.592   1.385   5.674  0.4150  0.1495 -0.1022
 2379SOL    HW3 9289   1.564   1.466   5.798  0.2112  0.7263 -0.5177
 2379SOL    MW4 9290   1.538   1.434   5.722  0.1445 -0.0811 -0.1645
 2380SOL     OW 9291   4.796   5.598   4.115  0.3916 -0.3974  0.0530
 2380SOL    HW2 9292   4.748   5.680   4.105 -0.7409 -1.2665 -2.5452
 2380SOL    HW3 9293   4.877   5.623   4.160 -0.4133  1.9264  0.3455
 2380SOL    MW4 9294   4.801   5.612   4.120  0.1360 -0.2055 -0.2512
 2381SOL     OW 9295   6.393   2.884   3.169 -0.5280  0.4753  0.3801
 2381SOL    HW2 9296   6.308   2.928   3.169 -1.1152 -0.4931  2.3838
 2381SOL    HW3 9297   6.451   2.945   3.214 -0.5358  0.5395  0.3028
 2381SOL    MW4 9298   6.389   2.898   3.175 -0.6065  0.3560  0.6343
 2382SOL     OW 9299   5.502   4.499   4.991 -0.0488 -0.0988  0.5122
 2382SOL    HW2 9300   5.462   4.413   4.995  0.0990 -0.1803  0.2343
 2382SOL    HW3 9301   5.538   4.513   5.079 -0.0127 -0.3481  0.5377
 2382SOL    MW4 9302   5.501   4.490   5.003 -0.0245 -0.1425  0.4789
 2383SOL     OW 9303   5.824   3.645   2.655  0.2309  0.1312 -0.0951
 2383SOL    HW2 9304   5.734   3.658   2.685  0.0251 -0.5286 -0.4013
 2383SOL    HW3 9305   5.878   3.690   2.720 -0.3453  1.1033 -0.2692
 2383SOL    MW4 9306   5.819   3.653   2.667  0.1278  0.1724 -0.1585
 2384SOL     OW 9307   5.097   4.852   2.070 -0.3470  0.6094  0.0690
 2384SOL    HW2 9308   5.024   4.856   2.008  1.3819  0.4154 -2.1082
 2384SOL    HW3 9309   5.123   4.759   2.071  0.8580  0.9219 -0.4503
 2384SOL    MW4 9310   5.091   4.840   2.062  0.0401  0.6250 -0.2868
 2385SOL     OW 9311   0.750   2.707   2.249 -0.1634  0.6790  0.1828
 2385SOL    HW2 9312   0.696   2.751   2.183 -0.0679  0.6078  0.0563
 2385SOL    HW3 9313   0.701   2.627   2.269  1.0533 -0.6633 -1.7588
 2385SOL    MW4 9314   0.736   2.702   2.243  0.0098  0.4925 -0.0900
 2386SOL     OW 9315   4.486   3.806   1.311  0.1740 -0.0403  0.2488
 2386SOL    HW2 9316   4.500   3.888   1.262 -0.3159 -0.2114 -0.1915
 2386SOL    HW3 9317   4.560   3.801   1.371  0.4184  0.5312  0.0053
 2386SOL    MW4 9318   4.498   3.816   1.312  0.1416  0.0126  0.1585
 2387SOL     OW 9319   4.426   1.216   6.353  0.9798 -0.2854  0.3360
 2387SOL    HW2 9320   4.470   1.291   6.312 -1.5250  1.0217 -0.1385
 2387SOL    HW3 9321   4.369   1.255   6.419 -1.7161 -1.5175 -1.1017
 2387SOL    MW4 9322   4.425   1.231   6.356  0.2937 -0.2755  0.0837
 2388SOL     OW 9323   1.776   4.461   6.213  1.0698 -0.0159  0.0456
 2388SOL    HW2 9324   1.860   4.415   6.206  1.6882  0.8578  1.3909
 2388SOL    HW3 9325   1.713   4.392   6.233  1.5953 -0.5728 -0.1608
 2388SOL    MW4 9326   1.779   4.446   6.215  1.2207  0.0259  0.1958
 2389SOL     OW 9327   1.139   0.569   4.038  0.9041 -0.6626  0.0840
 2389SOL    HW2 9328   1.209   0.610   3.987  0.9123  0.7219  1.1444
 2389SOL    HW3 9329   1.101   0.504   3.979  0.8625  0.8916 -1.7059
 2389SOL    MW4 9330   1.144   0.566   4.024  0.8997 -0.2748 -0.0122
 2390SOL     OW 9331   3.616   2.294   5.761 -0.3440  0.2506 -0.0719
 2390SOL    HW2 9332   3.671   2.280   5.684 -1.2976 -0.3711 -0.6531
 2390SOL    HW3 9333   3.641   2.381   5.792  0.8442  0.0492 -0.4151
 2390SOL    MW4 9334   3.626   2.304   5.755 -0.3131  0.1420 -0.1939
 2391SOL     OW 9335   0.176   6.400   4.805 -0.6417 -0.2212 -0.2353
 2391SOL    HW2 9336   0.222   6.483   4.799  0.5546 -0.7934  0.5752
 2391SOL    HW3 9337   0.220   6.342   4.743 -0.0049 -0.8702  0.7799
 2391SOL    MW4 9338   0.188   6.403   4.796 -0.3999 -0.3823  0.0055
 2392SOL     OW 9339   3.280   0.968   0.958 -0.1376 -0.5555  0.0787
 2392SOL    HW2 9340   3.289   1.037   1.024  0.2174  0.0087 -0.5463
 2392SOL    HW3 9341   3.187   0.966   0.938  0.0384  0.8471 -1.0359
 2392SOL    MW4 9342   3.269   0.977   0.964 -0.0675 -0.2960 -0.1508
 2393SOL     OW 9343   3.609   0.845   3.426  0.1343 -0.2754 -0.0889
 2393SOL    HW2 9344   3.642   0.853   3.337  1.2061 -3.7060 -0.1608
 2393SOL    HW3 9345   3.687   0.842   3.481 -0.5190  2.8055  1.2239
 2393SOL    MW4 9346   3.624   0.846   3.421  0.1896 -0.3215  0.0748
 2394SOL     OW 9347   3.813   2.678   1.281  0.4629  0.3238  0.0629
 2394SOL    HW2 9348   3.762   2.613   1.232  0.8779 -0.0837  0.1583
 2394SOL    HW3 9349   3.769   2.685   1.366 -0.5767  1.4328 -0.5399
 2394SOL    MW4 9350   3.801   2.670   1.286  0.3805  0.4163 -0.0041
 2395SOL     OW 9351   3.550   6.320   3.717  0.2804  0.1545  0.2025
 2395SOL    HW2 9352   3.588   6.234   3.738  0.7015  0.1440 -0.5885
 2395SOL    HW3 9353   3.610   6.358   3.654  0.8931  1.6689  1.6448
 2395SOL    MW4 9354   3.563   6.314   3.712  0.4168  0.3529  0.2884
 2396SOL     OW 9355   4.758   4.007   1.019 -0.0555 -0.1456  0.2920
 2396SOL    HW2 9356   4.739   3.984   1.110  0.7679  1.8783  1.0386
 2396SOL    HW3 9357   4.824   4.075   1.025  0.9860 -0.8598 -1.9015
 2396SOL    MW4 9358   4.764   4.013   1.032  0.1906  0.0272  0.1011
 2397SOL     OW 9359   3.950   4.439   4.713 -0.1536 -0.1164 -0.1590
 2397SOL    HW2 9360   4.011   4.465   4.644  0.3740 -0.5849  0.1192
 2397SOL    HW3 9361   3.873   4.493   4.698  0.2594  0.3614 -0.6287
 2397SOL    MW4 9362   3.948   4.449   4.702 -0.0295 -0.1152 -0.1843
 2398SOL     OW 9363   2.040   0.990   2.032 -0.3117  0.1151 -0.1495
 2398SOL    HW2 9364   2.101   0.919   2.051 -0.8859  0.0094  1.4560
 2398SOL    HW3 9365   2.020   1.028   2.117  0.5661  2.7425 -1.0185
 2398SOL    MW4 9366   2.046   0.986   2.046 -0.2716  0.4478 -0.0523
 2399SOL     OW 9367   1.734   0.612   4.213 -0.0039  0.5206 -0.9613
 2399SOL    HW2 9368   1.685   0.571   4.141 -0.9989  1.2075 -0.7098
 2399SOL    HW3 9369   1.797   0.669   4.169 -0.8159  1.1796 -1.3215
 2399SOL    MW4 9370   1.736   0.614   4.198 -0.2423  0.6982 -0.9757
 2400SOL     OW 9371   0.314   2.166   6.388 -0.2856  0.4017  0.3726
 2400SOL    HW2 9372   0.340   2.127   6.472  2.1105  0.5147 -0.2459
 2400SOL    HW3 9373   0.238   2.220   6.409  0.3564  0.5645  2.5035
 2400SOL    MW4 9374   0.307   2.168   6.402  0.1152  0.4380  0.5721
 2401SOL     OW 9375   2.313   1.452   3.170  0.4041  0.1937  0.3875
 2401SOL    HW2 9376   2.317   1.396   3.248 -0.9132  0.6452  0.8172
 2401SOL    HW3 9377   2.270   1.532   3.201  0.8857  0.8296 -0.5588
 2401SOL    MW4 9378   2.308   1.455   3.185  0.2938  0.3371  0.3193
 2402SOL     OW 9379   5.938   0.304   5.929 -0.4027  0.2745 -0.1758
 2402SOL    HW2 9380   5.928   0.396   5.954 -0.4213  0.6235 -1.3986
 2402SOL    HW3 9381   6.025   0.300   5.890 -1.2852  0.3121 -2.2673
 2402SOL    MW4 9382   5.948   0.316   5.927 -0.5216  0.3255 -0.6131
 2403SOL     OW 9383   1.797   6.320   0.346 -0.4229 -0.1225 -0.0628
 2403SOL    HW2 9384   1.711   6.291   0.376 -0.7094 -0.1047 -0.8448
 2403SOL    HW3 9385   1.780   6.364   0.263  0.1900  0.9939  0.3846
 2403SOL    MW4 9386   1.784   6.322   0.339 -0.3798  0.0271 -0.1070
 2404SOL     OW 9387   0.653   5.786   5.324  0.1586 -0.0887  0.4544
 2404SOL    HW2 9388   0.596   5.726   5.276 -0.7408  1.0030  0.1354
 2404SOL    HW3 9389   0.636   5.767   5.416 -0.7774  0.2714  0.3610
 2404SOL    MW4 9390   0.643   5.776   5.330 -0.0836  0.1028  0.4000
 2405SOL     OW 9391   5.243   0.146   4.012  0.0076  0.5381 -0.3000
 2405SOL    HW2 9392   5.204   0.211   3.954  1.6058 -0.4602 -2.5902
 2405SOL    HW3 9393   5.335   0.144   3.989  0.2135 -1.7839  0.4337
 2405SOL    MW4 9394   5.250   0.154   4.002  0.2456  0.1001 -0.5054
 2406SOL     OW 9395   1.911   3.620   5.918 -0.3804  0.0322 -0.3929
 2406SOL    HW2 9396   1.980   3.670   5.873 -0.8751  0.0898 -1.0950
 2406SOL    HW3 9397   1.953   3.590   5.998  0.5916 -0.2516 -0.9855
 2406SOL    MW4 9398   1.926   3.622   5.922 -0.3175  0.0024 -0.5637
 2407SOL     OW 9399   3.536   2.106   6.281  0.4227  0.0554 -0.5332
 2407SOL    HW2 9400   3.545   2.108   6.185  0.6001  0.4610 -0.5084
 2407SOL    HW3 9401   3.529   2.198   6.306  3.1245  0.1564  0.1068
 2407SOL    MW4 9402   3.536   2.118   6.271  0.8026  0.1223 -0.4454
 2408SOL     OW 9403   5.104   5.527   0.235  0.5397  0.7581 -0.1321
 2408SOL    HW2 9404   5.055   5.456   0.194 -0.3193  0.6483  1.0276
 2408SOL    HW3 9405   5.195   5.498   0.235  0.1171 -0.6606  0.9389
 2408SOL    MW4 9406   5.109   5.514   0.229  0.3706  0.5564  0.1622
 2409SOL     OW 9407   2.792   6.261   6.017  0.6465  0.2541 -1.2063
 2409SOL    HW2 9408   2.761   6.352   6.020  1.6376  0.6016 -1.0416
 2409SOL    HW3 9409   2.885   6.267   6.042  0.7634 -0.7835 -1.3649
 2409SOL    MW4 9410   2.800   6.274   6.021  0.7927  0.1631 -1.2055
 2410SOL     OW 9411   0.292   0.917   3.331 -0.4713  0.1813 -0.4608
 2410SOL    HW2 9412   0.355   0.845   3.333 -0.6906  0.0039  0.4605
 2410SOL    HW3 9413   0.278   0.934   3.238  0.0447 -0.5586 -0.6824
 2410SOL    MW4 9414   0.298   0.910   3.319 -0.4322  0.0602 -0.3685
 2411SOL     OW 9415   6.378   2.472   1.390 -0.7110  0.0916 -0.2319
 2411SOL    HW2 9416   6.313   2.422   1.340 -0.9961  1.2685 -1.0705
 2411SOL    HW3 9417   6.330   2.546   1.426  0.2646  1.3309 -1.3809
 2411SOL    MW4 9418   6.363   2.475   1.388 -0.6199  0.4104 -0.4941
 2412SOL     OW 9419   3.150   2.761   4.689 -0.3632  0.4859  0.0525
 2412SOL    HW2 9420   3.197   2.844   4.696 -1.0855  0.9510 -0.6073
 2412SOL    HW3 9421   3.058   2.784   4.699 -0.7115 -0.0082 -1.7058
 2412SOL    MW4 9422   3.144   2.775   4.692 -0.5044  0.4821 -0.2665
 2413SOL     OW 9423   1.137   4.000   3.245 -0.3410  0.4346  0.1053
 2413SOL    HW2 9424   1.177   4.020   3.330  1.3012 -0.3802 -0.4189
 2413SOL    HW3 9425   1.052   3.961   3.266 -0.4056  1.1964  1.3270
 2413SOL    MW4 9426   1.131   3.998   3.259 -0.1328  0.4276  0.1973
 2414SOL     OW 9427   4.601   4.567   5.727  0.0188  0.7424  0.0738
 2414SOL    HW2 9428   4.523   4.512   5.721  0.6161 -0.0329 -0.6848
 2414SOL    HW3 9429   4.644   4.557   5.642  0.6325  1.6499  0.2654
 2414SOL    MW4 9430   4.596   4.559   5.715  0.1786  0.7599 -0.0010
 2415SOL     OW 9431   4.489   1.038   0.603 -0.2710  0.3708  0.0828
 2415SOL    HW2 9432   4.444   0.961   0.570  1.2348 -0.7882  0.6017
 2415SOL    HW3 9433   4.474   1.105   0.536 -4.5310  0.8121  1.2230
 2415SOL    MW4 9434   4.481   1.037   0.589 -0.6344  0.2761  0.3017
 2416SOL     OW 9435   1.929   4.180   4.824  0.9716  0.0802  0.7206
 2416SOL    HW2 9436   2.009   4.180   4.876  0.2216  3.1643  2.1159
 2416SOL    HW3 9437   1.957   4.202   4.735  1.7815 -0.3448  0.8658
 2416SOL    MW4 9438   1.943   4.183   4.819  0.9795  0.4310  0.9239
 2417SOL     OW 9439   1.735   2.408   5.588  0.3643 -0.5607  0.0560
 2417SOL    HW2 9440   1.664   2.360   5.545  0.0643 -0.5310  0.5012
 2417SOL    HW3 9441   1.717   2.398   5.681  0.5572  0.0234  0.1642
 2417SOL    MW4 9442   1.723   2.401   5.595  0.3501 -0.4797  0.1290
 2418SOL     OW 9443   4.349   3.658   1.125 -0.5947 -0.9494  0.1731
 2418SOL    HW2 9444   4.258   3.666   1.154 -0.0178  3.7119  1.5451
 2418SOL    HW3 9445   4.400   3.699   1.194  2.2811 -0.8246 -1.8331
 2418SOL    MW4 9446   4.344   3.664   1.138 -0.1392 -0.3179  0.0894
 2419SOL     OW 9447   2.995   1.819   2.755 -0.0834 -0.2247 -0.0100
 2419SOL    HW2 9448   3.021   1.746   2.698 -0.2518  0.4934 -1.0421
 2419SOL    HW3 9449   3.062   1.885   2.741  1.3442 -0.9644  2.6397
 2419SOL    MW4 9450   3.007   1.818   2.745  0.0828 -0.2275  0.2034
 2420SOL     OW 9451   1.182   6.083   3.027  0.3407  0.2914  0.3385
 2420SOL    HW2 9452   1.243   6.145   2.987 -0.3290  0.9121  0.2506
 2420SOL    HW3 9453   1.152   6.128   3.107 -0.6980  0.4085 -0.0975
 2420SOL    MW4 9454   1.186   6.097   3.032  0.1153  0.3888  0.2694
 2421SOL     OW 9455   5.743   1.610   1.413 -0.2109  0.0167 -0.1394
 2421SOL    HW2 9456   5.677   1.632   1.480  0.7658  0.4086  0.7334
 2421SOL    HW3 9457   5.692   1.579   1.339 -1.4196  0.8404  0.2999
 2421SOL    MW4 9458   5.727   1.609   1.412 -0.2415  0.1771  0.0337
 2422SOL     OW 9459   1.059   5.576   3.533  0.5301  0.0398  0.6927
 2422SOL    HW2 9460   0.980   5.611   3.492 -0.6309 -1.6480  1.3907
 2422SOL    HW3 9461   1.031   5.550   3.621  1.1223 -3.0625  0.0646
 2422SOL    MW4 9462   1.045   5.577   3.539  0.4550 -0.5922  0.7019
 2423SOL     OW 9463   1.670   2.248   0.635 -0.0062  0.2818 -0.1372
 2423SOL    HW2 9464   1.578   2.252   0.664  0.2549  0.5640  0.6670
 2423SOL    HW3 9465   1.685   2.156   0.616 -0.1886  0.0861  0.6322
 2423SOL    MW4 9466   1.660   2.237   0.636  0.0042  0.2932  0.0705
 2424SOL     OW 9467   4.690   4.968   6.166  0.5277 -0.6762 -0.3855
 2424SOL    HW2 9468   4.680   4.935   6.256 -0.7125 -1.2139 -0.7017
 2424SOL    HW3 9469   4.715   4.891   6.115 -2.1315 -1.1518 -1.0819
 2424SOL    MW4 9470   4.692   4.954   6.171  0.0132 -0.8099 -0.5191
 2425SOL     OW 9471   4.293   0.026   4.529  0.0422 -0.2788  0.8038
 2425SOL    HW2 9472   4.333  -0.008   4.610 -0.0209 -1.9992  0.1553
 2425SOL    HW3 9473   4.210  -0.021   4.522  0.6079 -1.1058 -0.8823
 2425SOL    MW4 9474   4.287   0.015   4.539  0.1085 -0.6149  0.4958
 2426SOL     OW 9475   5.557   5.304   4.444  0.0558  0.1163 -0.0348
 2426SOL    HW2 9476   5.558   5.269   4.355  2.2475 -0.6833  0.2449
 2426SOL    HW3 9477   5.576   5.397   4.433  1.3413 -0.1629 -0.3903
 2426SOL    MW4 9478   5.560   5.312   4.430  0.5146 -0.0260 -0.0448
 2427SOL     OW 9479   0.877   2.600   6.151 -1.0325  0.0632 -0.0868
 2427SOL    HW2 9480   0.901   2.559   6.234 -1.2138  0.1062 -0.0136
 2427SOL    HW3 9481   0.944   2.570   6.089 -2.1966 -1.8739 -0.4962
 2427SOL    MW4 9482   0.889   2.591   6.154 -1.2100 -0.1867 -0.1312
 2428SOL     OW 9483   3.935   0.588   3.730  0.5156 -0.1571 -0.0301
 2428SOL    HW2 9484   3.934   0.626   3.642  0.9795  1.3106  0.5816
 2428SOL    HW3 9485   4.025   0.597   3.759  0.7413 -2.0842  0.0254
 2428SOL    MW4 9486   3.947   0.594   3.722  0.6066 -0.2177  0.0579
 2429SOL     OW 9487   2.680   4.036   2.047 -0.2646 -0.3055 -0.4778
 2429SOL    HW2 9488   2.694   3.969   2.114 -0.2272  1.4719  1.4060
 2429SOL    HW3 9489   2.716   3.998   1.967  1.6863 -1.7297  0.9672
 2429SOL    MW4 9490   2.687   4.022   2.045 -0.0023 -0.2589 -0.0386
 2430SOL     OW 9491   2.175   2.028   4.808  0.4472 -1.1489  0.3018
 2430SOL    HW2 9492   2.266   2.034   4.836  0.2526  0.9475  0.6116
 2430SOL    HW3 9493   2.178   2.033   4.713  0.6546 -1.0362  0.3145
 2430SOL    MW4 9494   2.187   2.029   4.799  0.4489 -0.8574  0.3443
 2431SOL     OW 9495   1.653   4.691   3.873 -0.2590 -0.2611 -0.2508
 2431SOL    HW2 9496   1.641   4.607   3.917 -0.3585 -0.3680 -0.4797
 2431SOL    HW3 9497   1.604   4.753   3.926  0.2516 -0.2515  0.2199
 2431SOL    MW4 9498   1.645   4.688   3.886 -0.2047 -0.2740 -0.2189
 2432SOL     OW 9499   1.997   1.265   5.229  0.0496  0.0988  0.3421
 2432SOL    HW2 9500   2.070   1.324   5.247 -0.2125  0.3012  0.7424
 2432SOL    HW3 9501   1.942   1.312   5.166  1.0008 -0.6359 -1.0995
 2432SOL    MW4 9502   1.999   1.279   5.223  0.1405  0.0286  0.2047
 2433SOL     OW 9503   5.967   4.273   1.211 -0.1447  0.4993 -0.3108
 2433SOL    HW2 9504   6.037   4.213   1.237 -0.7610  0.2785  0.9230
 2433SOL    HW3 9505   5.890   4.243   1.261 -0.9066  1.2443 -1.0052
 2433SOL    MW4 9506   5.966   4.261   1.221 -0.3265  0.5685 -0.2396
 2434SOL     OW 9507   0.684   6.167   3.464  0.4178  0.6180 -0.1573
 2434SOL    HW2 9508   0.732   6.170   3.546 -0.0647 -2.0025  0.3109
 2434SOL    HW3 9509   0.750   6.155   3.396  0.6231 -0.1275  0.1739
 2434SOL    MW4 9510   0.699   6.166   3.465  0.3812  0.1739 -0.0519
 2435SOL     OW 9511   5.089   4.851   1.120 -0.0928 -0.5356 -0.1428
 2435SOL    HW2 9512   5.077   4.911   1.194  1.0391  3.1431 -2.6806
 2435SOL    HW3 9513   5.001   4.841   1.083 -0.1779  0.3175 -0.1931
 2435SOL    MW4 9514   5.075   4.857   1.125  0.0453  0.0623 -0.4843
 2436SOL     OW 9515   0.055   5.380   3.657  0.0399 -0.1251  0.4917
 2436SOL    HW2 9516   0.070   5.382   3.562  1.0701  0.5143  0.6502
 2436SOL    HW3 9517   0.120   5.441   3.692 -0.6850  0.0463  1.5687
 2436SOL    MW4 9518   0.065   5.389   3.649  0.0802 -0.0181  0.6547
 2437SOL     OW 9519   4.880   5.847   6.248  0.4733 -0.0222 -0.2617
 2437SOL    HW2 9520   4.907   5.779   6.310  0.0296  0.9820  1.1044
 2437SOL    HW3 9521   4.933   5.922   6.271 -0.4399  0.6832 -0.3933
 2437SOL    MW4 9522   4.890   5.848   6.260  0.2943  0.2034 -0.0988
 2438SOL     OW 9523   1.868   0.330   3.572  0.0639 -0.1551 -0.1308
 2438SOL    HW2 9524   1.866   0.409   3.518 -0.0149 -0.9671 -1.3382
 2438SOL    HW3 9525   1.891   0.362   3.659 -1.6731  1.4256 -0.1886
 2438SOL    MW4 9526   1.871   0.345   3.576 -0.1757 -0.0537 -0.2977
 2439SOL     OW 9527   6.265   5.258   5.561 -0.5705 -0.2000  0.0106
 2439SOL    HW2 9528   6.210   5.264   5.482 -0.5626  0.4610  0.0523
 2439SOL    HW3 9529   6.254   5.168   5.591 -2.8407  0.3120  0.8874
 2439SOL    MW4 9530   6.256   5.247   5.554 -0.8690 -0.0452  0.1318
 2440SOL     OW 9531   6.026   0.960   6.309 -0.4277 -0.3194  0.5010
 2440SOL    HW2 9532   6.097   1.014   6.345  1.7796 -2.1869 -0.7463
 2440SOL    HW3 9533   6.039   0.965   6.214 -2.1002 -0.5967  0.2396
 2440SOL    MW4 9534   6.037   0.968   6.301 -0.3571 -0.6023  0.3019
 2441SOL     OW 9535   0.232   0.540   4.246 -0.3571 -0.0670  0.3176
 2441SOL    HW2 9536   0.162   0.523   4.309 -0.9989 -1.2411 -0.6539
 2441SOL    HW3 9537   0.200   0.502   4.164  0.8529  0.5718 -0.4873
 2441SOL    MW4 9538   0.219   0.533   4.243 -0.2822 -0.1376  0.0832
 2442SOL     OW 9539   1.543   2.357   1.031 -0.1381 -0.2030 -1.0462
 2442SOL    HW2 9540   1.498   2.405   0.962 -0.3839  0.0275 -0.7292
 2442SOL    HW3 9541   1.519   2.266   1.017 -1.4920  0.0215 -0.3021
 2442SOL    MW4 9542   1.534   2.352   1.020 -0.3491 -0.1430 -0.9062
 2443SOL     OW 9543   2.560   5.811   2.720 -0.1880  0.0004 -0.1176
 2443SOL    HW2 9544   2.479   5.761   2.709  0.3621 -0.5630 -1.9249
 2443SOL    HW3 9545   2.577   5.848   2.634  1.2012  0.5677  0.3746
 2443SOL    MW4 9546   2.552   5.809   2.707  0.0679  0.0009 -0.2912
 2444SOL     OW 9547   5.523   5.405   0.799  0.1721  0.6469  0.1387
 2444SOL    HW2 9548   5.570   5.390   0.717 -0.2649  1.1568 -0.2135
 2444SOL    HW3 9549   5.536   5.325   0.849  2.3978  1.2067  0.5602
 2444SOL    MW4 9550   5.531   5.392   0.795  0.4081  0.7880  0.1478
 2445SOL     OW 9551   5.768   3.995   3.287 -0.5233  0.4536 -0.0570
 2445SOL    HW2 9552   5.862   4.013   3.297 -0.8115  1.4016  1.1393
 2445SOL    HW3 9553   5.754   3.913   3.334 -0.4497  0.7784  0.5370
 2445SOL    MW4 9554   5.779   3.987   3.294 -0.5516  0.6215  0.1792
 2446SOL     OW 9555   1.502   4.995   3.022 -0.6098 -0.1630  0.0159
 2446SOL    HW2 9556   1.497   5.085   2.990  2.3794 -0.2466 -0.9670
 2446SOL    HW3 9557   1.436   4.948   2.970 -0.4730  0.9810 -1.2673
 2446SOL    MW4 9558   1.493   5.001   3.011 -0.1974 -0.0231 -0.2831
 2447SOL     OW 9559   4.769   4.711   0.837  0.0609 -0.6580 -0.4497
 2447SOL    HW2 9560   4.833   4.710   0.767 -0.1305  0.3429 -0.6666
 2447SOL    HW3 9561   4.774   4.624   0.877 -0.1557 -1.4127 -1.9952
 2447SOL    MW4 9562   4.778   4.700   0.833  0.0071 -0.6255 -0.6823
 2448SOL     OW 9563   3.140   1.329   0.046 -0.1596 -0.0265  0.2655
 2448SOL    HW2 9564   3.194   1.320  -0.032  0.0505  1.7882  0.1659
 2448SOL    HW3 9565   3.059   1.370   0.015  0.1696  1.2797  1.0663
 2448SOL    MW4 9566   3.136   1.333   0.032 -0.0884  0.3853  0.3580
 2449SOL     OW 9567   4.161   4.698   5.681 -0.5011  0.0532 -0.1567
 2449SOL    HW2 9568   4.069   4.712   5.657 -0.7441 -0.3617  0.5195
 2449SOL    HW3 9569   4.159   4.680   5.775  0.4554  1.8834  0.2594
 2449SOL    MW4 9570   4.148   4.698   5.690 -0.4070  0.2399 -0.0126
 2450SOL     OW 9571   6.055   6.150   3.818 -0.2064 -0.5857 -0.2814
 2450SOL    HW2 9572   6.048   6.228   3.873 -0.2681 -0.4394 -0.4975
 2450SOL    HW3 9573   6.138   6.110   3.844 -0.1551 -0.4272 -0.2003
 2450SOL    MW4 9574   6.065   6.155   3.829 -0.2077 -0.5455 -0.2992
 2451SOL     OW 9575   0.978   3.830   5.205 -0.5237  0.1519  0.3307
 2451SOL    HW2 9576   1.043   3.793   5.266 -1.0550  0.3377  1.0264
 2451SOL    HW3 9577   0.958   3.916   5.241 -2.0721 -0.3838  0.8536
 2451SOL    MW4 9578   0.984   3.836   5.218 -0.7981  0.1057  0.4915
 2452SOL     OW 9579   5.377   3.898   5.058  0.4159  0.5076 -0.1164
 2452SOL    HW2 9580   5.291   3.864   5.035 -0.1207  2.0887 -0.5089
 2452SOL    HW3 9581   5.401   3.850   5.137 -0.0427 -1.1900 -0.9481
 2452SOL    MW4 9582   5.369   3.887   5.065  0.2846  0.4923 -0.2779
 2453SOL     OW 9583   3.520   2.035   5.095 -0.3186 -0.4406  0.1162
 2453SOL    HW2 9584   3.591   2.068   5.039 -0.7054 -1.4383 -1.0063
 2453SOL    HW3 9585   3.563   2.012   5.177  0.9777 -2.3605 -1.0089
 2453SOL    MW4 9586   3.535   2.037   5.098 -0.1986 -0.8256 -0.1804
 2454SOL     OW 9587   1.761   5.294   0.190  0.7457 -0.2950  0.2504
 2454SOL    HW2 9588   1.799   5.220   0.238  0.7832  0.3582  1.2699
 2454SOL    HW3 9589   1.695   5.329   0.249  2.4339  2.0191  0.9308
 2454SOL    MW4 9590   1.757   5.289   0.204  0.9734  0.0965  0.4747
 2455SOL     OW 9591   0.959   3.771   3.054  0.1915 -0.7554 -0.0233
 2455SOL    HW2 9592   0.900   3.699   3.032 -0.6846 -0.6630  1.8492
 2455SOL    HW3 9593   1.010   3.738   3.128  0.3221  0.2570  0.3511
 2455SOL    MW4 9594   0.958   3.757   3.061  0.0932 -0.6097  0.2731
 2456SOL     OW 9595   5.401   1.522   0.339 -0.4835 -0.6664  0.2382
 2456SOL    HW2 9596   5.486   1.561   0.317  0.0534 -0.6191  2.1651
 2456SOL    HW3 9597   5.336   1.587   0.312  0.1369 -0.3283 -0.4764
 2456SOL    MW4 9598   5.404   1.536   0.333 -0.3308 -0.6156  0.3981
 2457SOL     OW 9599   1.950   3.138   5.662  0.0864  0.0707  0.4321
 2457SOL    HW2 9600   1.855   3.123   5.660 -0.4450  2.8719  0.3173
 2457SOL    HW3 9601   1.967   3.177   5.748  1.0759 -0.1183  0.3303
 2457SOL    MW4 9602   1.939   3.142   5.673  0.1468  0.4154  0.4035
 2458SOL     OW 9603   4.263   5.677   4.647  0.1696 -0.2998 -0.6276
 2458SOL    HW2 9604   4.352   5.695   4.674  1.5073 -2.2329 -3.2545
 2458SOL    HW3 9605   4.224   5.630   4.721  1.1685  0.8745  0.6852
 2458SOL    MW4 9606   4.269   5.673   4.660  0.4779 -0.3999 -0.8010
 2459SOL     OW 9607   0.146   3.755   2.456 -0.5059 -0.3711 -0.3572
 2459SOL    HW2 9608   0.151   3.851   2.450 -1.9915 -0.3304 -2.0058
 2459SOL    HW3 9609   0.183   3.734   2.541  2.2566  1.4535 -0.9813
 2459SOL    MW4 9610   0.151   3.765   2.466 -0.3375 -0.1250 -0.6571
 2460SOL     OW 9611   4.514   1.947   4.242  0.2895  0.4504  0.1077
 2460SOL    HW2 9612   4.544   2.022   4.293  0.8984 -0.4727  1.1519
 2460SOL    HW3 9613   4.592   1.919   4.194 -0.2893  1.3442 -1.4277
 2460SOL    MW4 9614   4.529   1.954   4.243  0.2935  0.4466  0.0429
 2461SOL     OW 9615   2.810   4.260   0.430 -0.5073  0.3200  0.3127
 2461SOL    HW2 9616   2.858   4.342   0.435 -0.1222  0.2502 -1.5503
 2461SOL    HW3 9617   2.718   4.286   0.427 -0.5020  0.5589  1.7128
 2461SOL    MW4 9618   2.804   4.274   0.430 -0.4558  0.3423  0.2517
 2462SOL     OW 9619   1.466   0.871   1.296 -0.3230  0.5193  0.2271
 2462SOL    HW2 9620   1.425   0.789   1.268  1.3039 -0.7643  1.4360
 2462SOL    HW3 9621   1.512   0.903   1.218 -0.2380 -0.1878 -0.0162
 2462SOL    MW4 9622   1.467   0.865   1.282 -0.0971  0.2566  0.3545
 2463SOL     OW 9623   1.362   4.458   3.498  0.1863  0.1207 -0.1115
 2463SOL    HW2 9624   1.277   4.439   3.458  0.1980  0.2802 -0.2143
 2463SOL    HW3 9625   1.346   4.457   3.592  0.4080 -1.4537 -0.0715
 2463SOL    MW4 9626   1.349   4.456   3.505  0.2171 -0.0660 -0.1198
 2464SOL     OW 9627   0.583   5.092   2.073 -0.4456  0.8565 -0.6975
 2464SOL    HW2 9628   0.506   5.112   2.128 -0.4165  0.7243 -0.6068
 2464SOL    HW3 9629   0.548   5.041   2.000 -0.0784 -1.8130  0.8512
 2464SOL    MW4 9630   0.568   5.087   2.071 -0.3933  0.4869 -0.4812
 2465SOL     OW 9631   2.523   1.420   5.056  0.0777 -0.0238 -0.4180
 2465SOL    HW2 9632   2.582   1.382   4.990 -1.0162 -0.3475 -1.2444
 2465SOL    HW3 9633   2.578   1.436   5.132  1.4888  0.7529 -1.5480
 2465SOL    MW4 9634   2.538   1.417   5.057  0.1195  0.0360 -0.6761
 2466SOL     OW 9635   3.418   4.508   4.461 -0.1652 -0.5472 -0.0169
 2466SOL    HW2 9636   3.402   4.540   4.373  0.6094 -0.2468 -0.0564
 2466SOL    HW3 9637   3.435   4.414   4.450  0.4281 -0.4176 -0.2568
 2466SOL    MW4 9638   3.418   4.500   4.448  0.0153 -0.4905 -0.0538
 2467SOL     OW 9639   3.816   5.813   4.379 -0.0955  0.3614  0.1529
 2467SOL    HW2 9640   3.908   5.835   4.365 -0.6570  2.2339 -1.0028
 2467SOL    HW3 9641   3.773   5.897   4.397 -1.9008 -0.1193 -1.4765
 2467SOL    MW4 9642   3.822   5.827   4.379 -0.4077  0.5450 -0.2146
 2468SOL     OW 9643   1.610   0.137   1.570 -0.0074 -0.5284  0.4049
 2468SOL    HW2 9644   1.705   0.131   1.560 -0.2386 -2.1239 -1.5358
 2468SOL    HW3 9645   1.595   0.125   1.664  1.7410  0.9982  0.9382
 2468SOL    MW4 9646   1.621   0.135   1.581  0.1928 -0.5375  0.2192
 2469SOL     OW 9647   2.573   1.977   3.025 -0.1233  0.0877  0.2777
 2469SOL    HW2 9648   2.651   1.956   3.078 -0.9056 -2.2932  0.5974
 2469SOL    HW3 9649   2.506   1.917   3.056 -1.1357 -0.2201 -2.2780
 2469SOL    MW4 9650   2.575   1.966   3.036 -0.3601 -0.2671 -0.0173
 2470SOL     OW 9651   4.470   4.857   0.937 -0.0821 -0.6766 -0.3107
 2470SOL    HW2 9652   4.409   4.918   0.896 -0.3876 -0.4343  0.4886
 2470SOL    HW3 9653   4.438   4.848   1.027  0.1794 -1.7333 -0.3194
 2470SOL    MW4 9654   4.458   4.864   0.944 -0.0879 -0.7840 -0.2064
 2471SOL     OW 9655   3.467   2.033   5.603  0.2391 -0.0239 -0.2319
 2471SOL    HW2 9656   3.393   2.081   5.566 -0.1588  0.3318  0.9599
 2471SOL    HW3 9657   3.456   1.943   5.572 -1.6354 -0.3488  1.1843
 2471SOL    MW4 9658   3.456   2.028   5.594 -0.0607 -0.0198  0.1122
 2472SOL     OW 9659   2.096   2.963   0.147 -0.4085  0.5330  0.1091
 2472SOL    HW2 9660   2.077   2.988   0.238  0.3494 -0.8466  0.6808
 2472SOL    HW3 9661   2.189   2.982   0.136 -0.0191 -1.0698  0.2840
 2472SOL    MW4 9662   2.106   2.968   0.158 -0.2571  0.1395  0.2076
 2473SOL     OW 9663   1.925   2.679   2.598 -0.2422  0.0129  0.0686
 2473SOL    HW2 9664   1.909   2.636   2.515 -0.5673 -0.5927  0.4365
 2473SOL    HW3 9665   1.881   2.624   2.663 -1.5094  1.3923  0.4496
 2473SOL    MW4 9666   1.917   2.666   2.596 -0.4523  0.1150  0.1674
 2474SOL     OW 9667   5.569   6.006   5.161  0.3618  0.3118  0.3393
 2474SOL    HW2 9668   5.621   5.972   5.234  0.7108 -2.5915 -1.1256
 2474SOL    HW3 9669   5.479   5.984   5.184  0.3199  0.6587  0.5132
 2474SOL    MW4 9670   5.564   5.998   5.174  0.4023 -0.0255  0.1689
 2475SOL     OW 9671   5.050   1.889   4.447 -0.5655 -0.3636 -1.0765
 2475SOL    HW2 9672   5.141   1.863   4.430 -0.5399 -0.1026 -1.3436
 2475SOL    HW3 9673   5.047   1.907   4.541 -0.3842 -0.5486 -1.0345
 2475SOL    MW4 9674   5.062   1.888   4.457 -0.5382 -0.3536 -1.1062
 2476SOL     OW 9675   1.551   1.440   4.502  0.4091  0.3149  0.9279
 2476SOL    HW2 9676   1.456   1.445   4.505  0.4103  1.8479 -0.2383
 2476SOL    HW3 9677   1.570   1.347   4.494 -1.0908  0.0995 -0.7429
 2476SOL    MW4 9678   1.541   1.428   4.501  0.2114  0.4888  0.5536
 2477SOL     OW 9679   4.346   4.533   2.411  0.1617  0.3261  0.1613
 2477SOL    HW2 9680   4.268   4.580   2.380  1.0256  1.3671 -0.5304
 2477SOL    HW3 9681   4.364   4.468   2.343  0.2688  0.5254 -0.0017
 2477SOL    MW4 9682   4.338   4.531   2.398  0.2899  0.4897  0.0485
 2478SOL     OW 9683   0.852   6.074   2.155  0.6374 -0.0653  0.3863
 2478SOL    HW2 9684   0.860   6.133   2.080  0.4122  0.1116  0.5011
 2478SOL    HW3 9685   0.874   6.127   2.231  0.9398 -0.2658  0.4397
 2478SOL    MW4 9686   0.856   6.088   2.155  0.6476 -0.0684  0.4085
 2479SOL     OW 9687   5.519   3.406   5.049  0.6965 -0.5752 -0.1297
 2479SOL    HW2 9688   5.523   3.380   5.141 -2.4722 -0.5503  0.1186
 2479SOL    HW3 9689   5.503   3.325   5.002  0.7802 -0.3814 -0.4982
 2479SOL    MW4 9690   5.517   3.392   5.055  0.2895 -0.5464 -0.1455
 2480SOL     OW 9691   3.000   1.144   4.429  0.3913  0.0584  0.2721
 2480SOL    HW2 9692   2.914   1.141   4.471  0.9735  1.0579  1.6311
 2480SOL    HW3 9693   3.050   1.207   4.482  1.7114  0.0934 -0.9509
 2480SOL    MW4 9694   2.995   1.152   4.441  0.6423  0.1949  0.2901
 2481SOL     OW 9695   2.305   4.471   3.131 -0.0086 -0.0791  0.1246
 2481SOL    HW2 9696   2.259   4.479   3.047  0.9225  0.7429 -0.3299
 2481SOL    HW3 9697   2.342   4.383   3.130 -0.4209 -0.2491 -0.1174
 2481SOL    MW4 9698   2.304   4.461   3.120  0.0598  0.0069  0.0327
 2482SOL     OW 9699   1.341   6.271   2.854 -0.6400 -0.4076  0.3481
 2482SOL    HW2 9700   1.277   6.303   2.791  0.0468  0.3190 -0.0018
 2482SOL    HW3 9701   1.373   6.350   2.897 -0.2429 -0.7959  0.7708
 2482SOL    MW4 9702   1.337   6.285   2.851 -0.4970 -0.3630  0.3577
 2483SOL     OW 9703   1.499   1.061   5.738  0.0787 -0.4777 -0.6192
 2483SOL    HW2 9704   1.410   1.074   5.769  0.5312  2.2960 -0.1884
 2483SOL    HW3 9705   1.496   1.087   5.646  0.6716  1.1385 -0.2233
 2483SOL    MW4 9706   1.487   1.066   5.730  0.2166  0.1015 -0.5102
 2484SOL     OW 9707   0.438   5.393   2.916 -0.2341 -0.2861  0.2469
 2484SOL    HW2 9708   0.513   5.344   2.950  0.5731 -0.2202 -1.3522
 2484SOL    HW3 9709   0.373   5.327   2.896 -0.3393 -0.4094  0.9670
 2484SOL    MW4 9710   0.439   5.378   2.918 -0.1414 -0.2937  0.1309
 2485SOL     OW 9711   6.149   0.332   1.568 -0.2662 -0.0018 -0.4990
 2485SOL    HW2 9712   6.180   0.361   1.654  0.7898 -1.2893 -0.4110
 2485SOL    HW3 9713   6.105   0.409   1.531  0.2388  0.9093  0.7257
 2485SOL    MW4 9714   6.147   0.346   1.574 -0.0603 -0.0514 -0.3258
 2486SOL     OW 9715   2.154   1.970   4.236  0.1596 -0.3907  0.1705
 2486SOL    HW2 9716   2.083   1.986   4.174  2.0562  3.9812 -1.2799
 2486SOL    HW3 9717   2.223   1.929   4.183 -0.5525 -3.1678  1.2157
 2486SOL    MW4 9718   2.154   1.966   4.220  0.3159 -0.1803  0.1170
 2487SOL     OW 9719   6.180   5.278   3.141  0.1863  0.3340  0.3599
 2487SOL    HW2 9720   6.237   5.208   3.110 -0.3772  0.4679 -1.0996
 2487SOL    HW3 9721   6.231   5.358   3.129  0.9551  0.1903  2.3390
 2487SOL    MW4 9722   6.194   5.279   3.135  0.2134  0.3327  0.4284
 2488SOL     OW 9723   3.804   5.084   0.355  0.4402 -0.1522 -0.6019
 2488SOL    HW2 9724   3.722   5.132   0.352  0.5684  0.1733  0.4347
 2488SOL    HW3 9725   3.856   5.118   0.282 -0.9600 -1.5774 -2.3494
 2488SOL    MW4 9726   3.800   5.095   0.345  0.2724 -0.2973 -0.6957
 2489SOL     OW 9727   5.074   4.104   4.579  0.4869  0.0534  0.0344
 2489SOL    HW2 9728   5.035   4.145   4.502  0.5173 -0.7915 -0.4380
 2489SOL    HW3 9729   5.167   4.127   4.574  0.4787  0.0471 -0.1560
 2489SOL    MW4 9730   5.081   4.112   4.568  0.4899 -0.0589 -0.0531
 2490SOL     OW 9731   2.893   3.086   3.876 -0.6697 -0.3089  0.0500
 2490SOL    HW2 9732   2.822   3.054   3.821 -0.7283 -0.1385  0.0275
 2490SOL    HW3 9733   2.969   3.033   3.850 -0.4479  0.4461 -0.9189
 2490SOL    MW4 9734   2.894   3.075   3.865 -0.6482 -0.1868 -0.0808
 2491SOL     OW 9735   5.459   0.295   6.365  0.2522  0.0739 -0.1075
 2491SOL    HW2 9736   5.483   0.373   6.415 -0.6467  0.9891 -1.0457
 2491SOL    HW3 9737   5.501   0.307   6.280  1.3664 -1.2352  0.2265
 2491SOL    MW4 9738   5.467   0.307   6.360  0.2806  0.0219 -0.1872
 2492SOL     OW 9739   0.288   2.730   5.170  0.0039  0.0811 -0.0161
 2492SOL    HW2 9740   0.203   2.770   5.189 -0.4889 -0.6455 -0.5758
 2492SOL    HW3 9741   0.288   2.719   5.074  0.7192  0.0559 -0.0169
 2492SOL    MW4 9742   0.277   2.734   5.160  0.0333 -0.0181 -0.0900
 2493SOL     OW 9743   2.319   0.485   6.337  0.1763 -0.2672 -0.0214
 2493SOL    HW2 9744   2.256   0.437   6.283 -2.0367  1.4541  0.8625
 2493SOL    HW3 9745   2.375   0.531   6.275 -0.2954 -0.7734 -0.8408
 2493SOL    MW4 9746   2.318   0.485   6.322 -0.1779 -0.1069 -0.0129
 2494SOL     OW 9747   2.349   2.090   3.627  0.0654  0.1902  0.5150
 2494SOL    HW2 9748   2.320   2.178   3.654 -1.8646 -0.5000  0.8386
 2494SOL    HW3 9749   2.289   2.065   3.558  0.7440 -0.7993  0.2692
 2494SOL    MW4 9750   2.337   2.098   3.622 -0.0997 -0.0314  0.5253
 2495SOL     OW 9751   1.648   0.878   0.338  0.1689  0.5080 -0.2673
 2495SOL    HW2 9752   1.604   0.793   0.342  1.2650 -0.1369 -1.2001
 2495SOL    HW3 9753   1.741   0.856   0.325  0.5572  1.8476  0.0816
 2495SOL    MW4 9754   1.655   0.864   0.337  0.3648  0.5996 -0.3443
 2496SOL     OW 9755   1.617   3.301   3.949  0.1066 -0.1993 -0.2311
 2496SOL    HW2 9756   1.637   3.266   4.036  0.9592 -1.8344 -1.0225
 2496SOL    HW3 9757   1.638   3.394   3.954  0.2592 -0.2995  1.2668
 2496SOL    MW4 9758   1.623   3.308   3.961  0.2393 -0.4282 -0.1379
 2497SOL     OW 9759   5.673   6.298   1.544 -0.0626  0.3066  0.0343
 2497SOL    HW2 9760   5.608   6.258   1.485 -0.3690 -0.8562  1.1340
 2497SOL    HW3 9761   5.729   6.226   1.571  1.8237  1.3004 -0.9655
 2497SOL    MW4 9762   5.672   6.284   1.540  0.1458  0.2843  0.0475
 2498SOL     OW 9763   2.937   1.429   2.777  0.0313  0.2864 -0.4427
 2498SOL    HW2 9764   3.028   1.458   2.786  0.5266 -1.6629  1.7295
 2498SOL    HW3 9765   2.888   1.509   2.757  1.8822  1.8738  0.9978
 2498SOL    MW4 9766   2.942   1.443   2.776  0.3408  0.2386  0.0339
 2499SOL     OW 9767   0.052   1.080   1.162  0.0825  0.1654  0.2503
 2499SOL    HW2 9768   0.132   1.046   1.202 -0.6407 -2.3818 -0.3172
 2499SOL    HW3 9769   0.080   1.113   1.076  0.3414 -2.2442 -0.6609
 2499SOL    MW4 9770   0.066   1.080   1.156  0.0212 -0.4886  0.0552
 2500SOL     OW 9771   2.632   4.041   2.589 -0.0441 -0.7521  0.3637
 2500SOL    HW2 9772   2.681   3.990   2.653  2.2574 -2.5862 -2.5660
 2500SOL    HW3 9773   2.578   3.976   2.543 -1.2120  0.4102  0.0268
 2500SOL    MW4 9774   2.631   4.026   2.591  0.1055 -0.8408 -0.0673
 2501SOL     OW 9775   4.194   5.994   0.788 -0.3182 -0.2906 -0.0288
 2501SOL    HW2 9776   4.177   5.944   0.708 -0.7472  0.4124 -0.3816
 2501SOL    HW3 9777   4.108   6.021   0.818 -0.2606 -1.4740  1.2916
 2501SOL    MW4 9778   4.181   5.991   0.781 -0.3672 -0.3540  0.0989
 2502SOL     OW 9779   6.162   3.193   2.500 -0.4268  0.8556  0.0164
 2502SOL    HW2 9780   6.107   3.122   2.464 -1.8300  1.0064  1.7072
 2502SOL    HW3 9781   6.252   3.164   2.485 -0.9724 -0.8022 -0.2570
 2502SOL    MW4 9782   6.166   3.180   2.493 -0.6839  0.6568  0.2034
 2503SOL     OW 9783   2.632   2.808   2.225 -0.4809 -0.2303 -0.5601
 2503SOL    HW2 9784   2.675   2.762   2.298  0.7713 -0.8690 -1.6544
 2503SOL    HW3 9785   2.649   2.900   2.241 -0.1683 -0.3677 -0.0779
 2503SOL    MW4 9786   2.640   2.814   2.237 -0.2744 -0.3327 -0.6409
 2504SOL     OW 9787   1.576   0.771   1.967 -0.2819 -0.2562  0.5541
 2504SOL    HW2 9788   1.625   0.762   1.885 -0.2687  3.0146  0.0666
 2504SOL    HW3 9789   1.498   0.718   1.954  0.5221 -1.1356 -0.8997
 2504SOL    MW4 9790   1.572   0.763   1.954 -0.1741  0.0593  0.2980
 2505SOL     OW 9791   4.973   5.588   4.324 -0.3351  0.1484 -0.4542
 2505SOL    HW2 9792   4.921   5.656   4.367  0.3343  1.9975 -2.3905
 2505SOL    HW3 9793   5.063   5.619   4.332  0.4577 -2.3604  1.7166
 2505SOL    MW4 9794   4.978   5.601   4.331 -0.1422  0.0613 -0.4232
 2506SOL     OW 9795   5.422   2.020   4.720  0.2061 -0.3381 -0.4412
 2506SOL    HW2 9796   5.455   1.967   4.647  0.5264  0.0742 -0.6042
 2506SOL    HW3 9797   5.386   1.957   4.781 -0.6465 -0.6482 -1.2448
 2506SOL    MW4 9798   5.422   2.005   4.718  0.1359 -0.3246 -0.5687
 2507SOL     OW 9799   6.227   4.351   4.764 -0.2097  0.0913  0.1635
 2507SOL    HW2 9800   6.260   4.440   4.777 -0.7753  0.7304 -2.2523
 2507SOL    HW3 9801   6.278   4.297   4.824  1.5418  1.7601  0.2590
 2507SOL    MW4 9802   6.238   4.356   4.773 -0.0532  0.3958 -0.1427
 2508SOL     OW 9803   2.394   5.356   4.776  0.1620  0.2390  0.4393
 2508SOL    HW2 9804   2.385   5.262   4.762 -1.1932  0.3645  0.2800
 2508SOL    HW3 9805   2.485   5.375   4.754  0.3841 -0.9819  0.1995
 2508SOL    MW4 9806   2.405   5.346   4.772  0.0125  0.0945  0.3866
 2509SOL     OW 9807   1.391   1.543   5.478  0.0423  0.8326 -0.3230
 2509SOL    HW2 9808   1.417   1.519   5.567  1.8182  1.3801 -0.6468
 2509SOL    HW3 9809   1.356   1.462   5.440  0.5851  0.2351  0.4233
 2509SOL    MW4 9810   1.390   1.529   5.484  0.3482  0.8260 -0.2672
 2510SOL     OW 9811   3.557   6.185   3.190  0.5513 -0.1874 -0.2838
 2510SOL    HW2 9812   3.532   6.105   3.236 -0.6207 -1.3958 -2.8145
 2510SOL    HW3 9813   3.488   6.247   3.210 -0.3830 -0.9640 -1.0469
 2510SOL    MW4 9814   3.545   6.183   3.199  0.2734 -0.4493 -0.7184
 2511SOL     OW 9815   5.202   4.542   1.250 -0.6722  0.4005 -0.9458
 2511SOL    HW2 9816   5.133   4.602   1.281 -1.4200 -1.0003  0.2368
 2511SOL    HW3 9817   5.217   4.568   1.160 -1.0655  2.2760 -0.5186
 2511SOL    MW4 9818   5.195   4.553   1.242 -0.8228  0.4631 -0.7334
 2512SOL     OW 9819   1.073   0.128   0.749 -0.0141  0.6134 -0.6900
 2512SOL    HW2 9820   1.134   0.192   0.784 -0.8163  1.3421 -0.5992
 2512SOL    HW3 9821   0.988   0.154   0.785 -0.2887 -0.7631 -0.2803
 2512SOL    MW4 9822   1.070   0.140   0.758 -0.1562  0.5279 -0.6240
 2513SOL     OW 9823   1.773   4.958   5.300 -0.4102 -0.4216  0.0806
 2513SOL    HW2 9824   1.778   4.865   5.323  2.2581 -0.0771  1.2966
 2513SOL    HW3 9825   1.689   4.987   5.336 -0.2643 -1.8838  1.7293
 2513SOL    MW4 9826   1.762   4.950   5.308 -0.0389 -0.5691  0.4585
 2514SOL     OW 9827   1.029   0.596   4.964  0.5747 -1.0248  0.1142
 2514SOL    HW2 9828   1.112   0.547   4.966  0.9642 -0.4438 -1.0088
 2514SOL    HW3 9829   1.043   0.664   4.898 -0.3932 -0.1781  0.7526
 2514SOL    MW4 9830   1.042   0.599   4.956  0.4984 -0.8364  0.0503
 2515SOL     OW 9831   3.490   4.208   1.884 -0.0990 -0.1441 -0.6689
 2515SOL    HW2 9832   3.540   4.141   1.838  0.3113 -0.1325 -0.2374
 2515SOL    HW3 9833   3.554   4.255   1.936 -0.5893 -0.2650  0.0562
 2515SOL    MW4 9834   3.505   4.205   1.885 -0.1095 -0.1585 -0.5163
 2516SOL     OW 9835   3.043   2.054   5.482  0.5385  0.2711  0.0876
 2516SOL    HW2 9836   2.999   1.991   5.425 -0.6731  0.8796  0.3185
 2516SOL    HW3 9837   2.982   2.127   5.489  0.0576 -0.3253  3.2081
 2516SOL    MW4 9838   3.029   2.055   5.475  0.3152  0.2727  0.5298
 2517SOL     OW 9839   6.239   6.311   4.149 -0.3824 -0.5120 -0.2998
 2517SOL    HW2 9840   6.256   6.366   4.225 -1.3319  0.5968 -0.8576
 2517SOL    HW3 9841   6.325   6.279   4.122  0.2674  1.1256 -0.2680
 2517SOL    MW4 9842   6.253   6.314   4.155 -0.4220 -0.1496 -0.3692
 2518SOL     OW 9843   5.211   1.020   5.928  0.3681 -0.0651 -0.1737
 2518SOL    HW2 9844   5.239   1.073   5.853 -0.5203 -1.2013 -1.3426
 2518SOL    HW3 9845   5.191   0.934   5.891  0.3278 -0.7904  1.4455
 2518SOL    MW4 9846   5.212   1.016   5.913  0.2455 -0.3107 -0.1143
 2519SOL     OW 9847   0.375   3.881   5.039 -0.3528 -0.4731  0.0294
 2519SOL    HW2 9848   0.299   3.862   5.094 -0.6557  1.9388  0.5592
 2519SOL    HW3 9849   0.449   3.842   5.085 -1.1142 -1.9545  0.0346
 2519SOL    MW4 9850   0.375   3.873   5.052 -0.4932 -0.3503  0.1000
 2520SOL     OW 9851   5.019   3.035   6.299  0.1792 -0.7023 -0.3056
 2520SOL    HW2 9852   5.020   3.004   6.209  0.9311 -0.3876 -0.4147
 2520SOL    HW3 9853   5.051   3.125   6.294 -0.6634 -0.3644  0.1707
 2520SOL    MW4 9854   5.024   3.042   6.287  0.1672 -0.6162 -0.2571
 2521SOL     OW 9855   1.854   0.423   4.369  0.4278  0.5813  0.1791
 2521SOL    HW2 9856   1.809   0.486   4.314 -0.0675 -0.3683 -0.5240
 2521SOL    HW3 9857   1.860   0.344   4.316 -0.7861 -0.6346  1.7454
 2521SOL    MW4 9858   1.849   0.421   4.355  0.2023  0.2956  0.2930
 2522SOL     OW 9859   1.545   5.942   3.623  0.5348  0.2385 -0.2181
 2522SOL    HW2 9860   1.536   6.032   3.654 -0.1990 -0.2891  1.1788
 2522SOL    HW3 9861   1.625   5.910   3.667  0.9703  0.2926 -0.9558
 2522SOL    MW4 9862   1.555   5.950   3.633  0.4954  0.1760 -0.1311
 2523SOL     OW 9863   5.247   2.220   0.612 -0.0037 -0.4223  0.0441
 2523SOL    HW2 9864   5.289   2.158   0.672 -0.4441  1.3540  2.3384
 2523SOL    HW3 9865   5.153   2.205   0.625 -0.1154  0.7710  0.7306
 2523SOL    MW4 9866   5.240   2.210   0.622 -0.0765 -0.0305  0.4374
 2524SOL     OW 9867   2.434   2.079   4.515 -0.0111  0.3957  0.9867
 2524SOL    HW2 9868   2.509   2.028   4.548  2.6878  1.3857 -2.8925
 2524SOL    HW3 9869   2.364   2.015   4.506  1.5163 -1.4337  1.3867
 2524SOL    MW4 9870   2.435   2.064   4.518  0.5465  0.2850  0.5276
 2525SOL     OW 9871   3.691   1.125   5.409  0.0233  0.4835 -0.2188
 2525SOL    HW2 9872   3.783   1.099   5.399 -0.0711 -0.6582  1.3926
 2525SOL    HW3 9873   3.650   1.101   5.326  1.1362  0.8140 -0.8798
 2525SOL    MW4 9874   3.698   1.118   5.397  0.1577  0.3765 -0.0934
 2526SOL     OW 9875   2.735   6.391   1.981 -0.5887  0.3712  0.0739
 2526SOL    HW2 9876   2.830   6.396   1.971 -0.6042  0.7563  0.1147
 2526SOL    HW3 9877   2.702   6.472   1.943 -0.7280  1.3859  2.1850
 2526SOL    MW4 9878   2.743   6.402   1.975 -0.6091  0.5559  0.3578
 2527SOL     OW 9879   0.544   5.259   2.337  0.3188  0.0246 -0.0805
 2527SOL    HW2 9880   0.487   5.336   2.334  0.6009  0.2139 -0.8252
 2527SOL    HW3 9881   0.484   5.185   2.346 -0.1858  0.0935 -2.3328
 2527SOL    MW4 9882   0.528   5.259   2.338  0.2894  0.0586 -0.4760
 2528SOL     OW 9883   0.560   1.310   6.053 -0.1008 -0.2380 -0.0218
 2528SOL    HW2 9884   0.629   1.377   6.054 -0.2608 -0.0762  0.4512
 2528SOL    HW3 9885   0.485   1.353   6.094 -0.5615 -0.3406 -0.7442
 2528SOL    MW4 9886   0.559   1.325   6.059 -0.1827 -0.2302 -0.0547
 2529SOL     OW 9887   5.607   3.455   0.033  0.2952 -0.1405 -0.0581
 2529SOL    HW2 9888   5.541   3.493   0.092 -0.8212 -3.1363  0.8060
 2529SOL    HW3 9889   5.634   3.528  -0.023 -1.7578  1.8376  1.3461
 2529SOL    MW4 9890   5.602   3.470   0.034 -0.1230 -0.2748  0.2412
 2530SOL     OW 9891   5.617   2.469   3.743 -0.2265  0.3158  0.2256
 2530SOL    HW2 9892   5.570   2.397   3.701 -0.9285  1.4658 -1.0568
 2530SOL    HW3 9893   5.624   2.536   3.675  1.0428  1.1852  1.1618
 2530SOL    MW4 9894   5.612   2.469   3.729 -0.1517  0.5823  0.1799
 2531SOL     OW 9895   2.571   3.794   0.930  0.2639  0.2131 -0.0625
 2531SOL    HW2 9896   2.623   3.758   1.002  0.9069 -1.0622 -1.1270
 2531SOL    HW3 9897   2.509   3.725   0.908 -1.8590  1.6593  1.0840
 2531SOL    MW4 9898   2.570   3.780   0.937  0.0687  0.2356 -0.0517
 2532SOL     OW 9899   0.191   2.240   0.347  0.0306 -0.1151 -0.2845
 2532SOL    HW2 9900   0.234   2.167   0.304  0.8362  0.3468 -0.2836
 2532SOL    HW3 9901   0.108   2.250   0.300 -0.2668 -1.2695 -0.0276
 2532SOL    MW4 9902   0.186   2.232   0.335  0.0976 -0.2065 -0.2505
 2533SOL     OW 9903   5.570   1.269   2.551  0.3271 -0.2039 -0.3829
 2533SOL    HW2 9904   5.561   1.183   2.510  1.3035 -0.9802  0.9461
 2533SOL    HW3 9905   5.602   1.250   2.639 -1.3643  1.4066  0.6500
 2533SOL    MW4 9906   5.573   1.255   2.557  0.2328 -0.0938 -0.0712
 2534SOL     OW 9907   5.692   3.874   0.813  0.0985 -0.3649  0.1694
 2534SOL    HW2 9908   5.772   3.823   0.802  0.5171  0.3213  0.0290
 2534SOL    HW3 9909   5.622   3.812   0.791  0.5477 -1.1125  0.7886
 2534SOL    MW4 9910   5.693   3.859   0.808  0.2130 -0.3730  0.2325
 2535SOL     OW 9911   2.153   0.084   5.899 -0.1534 -0.3784 -0.7362
 2535SOL    HW2 9912   2.069   0.043   5.921 -0.5137  0.8367  0.2651
 2535SOL    HW3 9913   2.159   0.078   5.804 -1.3549 -0.5305 -0.8115
 2535SOL    MW4 9914   2.143   0.078   5.890 -0.3595 -0.2382 -0.6140
 2536SOL     OW 9915   2.561   4.470   0.362 -0.4266 -0.4162 -0.0107
 2536SOL    HW2 9916   2.624   4.537   0.389 -2.7435  1.5355  0.9882
 2536SOL    HW3 9917   2.550   4.484   0.268  1.2022 -1.3661 -0.3782
 2536SOL    MW4 9918   2.568   4.481   0.353 -0.5174 -0.2840  0.0726
 2537SOL     OW 9919   5.103   5.968   3.738  0.0885  0.2266  0.4655
 2537SOL    HW2 9920   5.045   5.972   3.662  0.2906  1.0848  0.3414
 2537SOL    HW3 9921   5.045   5.987   3.812  0.1637  0.9272  0.3576
 2537SOL    MW4 9922   5.087   5.971   3.738  0.1251  0.4323  0.4349
 2538SOL     OW 9923   1.419   0.364   2.126  0.0826  0.3586 -0.9382
 2538SOL    HW2 9924   1.367   0.288   2.153  0.4099  0.5229  0.1740
 2538SOL    HW3 9925   1.416   0.423   2.201  2.2257  0.1904 -0.6633
 2538SOL    MW4 9926   1.412   0.361   2.139  0.4085  0.3581 -0.7552
 2539SOL     OW 9927   3.227   2.854   0.796 -0.2710 -0.8473  0.5524
 2539SOL    HW2 9928   3.176   2.885   0.721 -0.7549 -2.8375  0.0151
 2539SOL    HW3 9929   3.303   2.912   0.799 -1.7469  1.2067  0.4137
 2539SOL    MW4 9930   3.230   2.866   0.786 -0.5296 -0.8389  0.4632
 2540SOL     OW 9931   5.438   4.222   1.415  0.4164  0.1233 -0.1208
 2540SOL    HW2 9932   5.468   4.219   1.506 -3.6432 -1.1534  1.4142
 2540SOL    HW3 9933   5.469   4.140   1.377 -0.3699 -0.7757  1.1063
 2540SOL    MW4 9934   5.446   4.211   1.422 -0.2229 -0.1637  0.2436
 2541SOL     OW 9935   2.450   2.403   4.808 -0.2554  0.1520 -0.0013
 2541SOL    HW2 9936   2.508   2.428   4.880  0.3534 -1.2048  0.0105
 2541SOL    HW3 9937   2.468   2.468   4.739  2.0422 -0.7844 -0.3769
 2541SOL    MW4 9938   2.460   2.415   4.808  0.1281 -0.1505 -0.0493
 2542SOL     OW 9939   0.843   1.188   4.919  0.1914 -0.5100  0.3110
 2542SOL    HW2 9940   0.787   1.263   4.898 -0.2288 -0.4916  1.4787
 2542SOL    HW3 9941   0.800   1.145   4.992  1.3458 -0.8949  0.7852
 2542SOL    MW4 9942   0.830   1.192   4.926  0.2883 -0.5584  0.5276
 2543SOL     OW 9943   6.235   3.130   0.411  0.0953 -0.5227 -0.1410
 2543SOL    HW2 9944   6.181   3.201   0.377  0.2806  0.9032  2.2846
 2543SOL    HW3 9945   6.323   3.167   0.417  0.5184 -1.4734 -0.2814
 2543SOL    MW4 9946   6.240   3.144   0.407  0.1756 -0.4600  0.1605
 2544SOL     OW 9947   0.635   4.564   0.684 -0.0550 -0.1305 -0.2874
 2544SOL    HW2 9948   0.540   4.563   0.698  0.3718 -0.3460  3.6726
 2544SOL    HW3 9949   0.652   4.485   0.632 -1.9012 -1.0741  0.4373
 2544SOL    MW4 9950   0.625   4.553   0.679 -0.2423 -0.2834  0.3307
 2545SOL     OW 9951   5.515   0.099   3.946 -0.1314  0.6528  0.1217
 2545SOL    HW2 9952   5.544   0.050   4.022  0.8938  0.3584 -0.4355
 2545SOL    HW3 9953   5.557   0.185   3.954  0.8176  0.2829 -0.5998
 2545SOL    MW4 9954   5.524   0.104   3.957  0.1290  0.5652 -0.0470
 2546SOL     OW 9955   3.799   5.672   5.470  0.4384 -0.2664  0.2212
 2546SOL    HW2 9956   3.770   5.632   5.388 -1.4298  1.2098  0.1020
 2546SOL    HW3 9957   3.792   5.602   5.535 -1.5633 -0.5179 -0.2085
 2546SOL    MW4 9958   3.794   5.657   5.467 -0.0722 -0.1048  0.1488
 2547SOL     OW 9959   5.241   4.290   0.984  0.0077 -0.5875  0.2376
 2547SOL    HW2 9960   5.148   4.281   1.003 -0.3686  1.1540 -0.5467
 2547SOL    HW3 9961   5.243   4.324   0.894  1.4046 -0.6737  0.2219
 2547SOL    MW4 9962   5.229   4.293   0.974  0.1423 -0.3691  0.1320
 2548SOL     OW 9963   6.061   4.383   4.302 -0.2828  0.1458 -0.1429
 2548SOL    HW2 9964   5.975   4.344   4.320 -0.4160  0.0606 -0.9383
 2548SOL    HW3 9965   6.122   4.331   4.355 -0.5198 -0.8644 -0.8256
 2548SOL    MW4 9966   6.058   4.371   4.312 -0.3317  0.0013 -0.3380
 2549SOL     OW 9967   3.771   0.595   2.286 -0.2019  0.2510 -0.2462
 2549SOL    HW2 9968   3.708   0.651   2.243 -1.2436 -0.3005  0.4947
 2549SOL    HW3 9969   3.846   0.592   2.227 -0.4576  1.7278 -0.6738
 2549SOL    MW4 9970   3.772   0.602   2.273 -0.3731  0.3731 -0.2049
 2550SOL     OW 9971   4.809   2.450   4.022  0.2860  0.0682  0.4133
 2550SOL    HW2 9972   4.775   2.531   3.985  1.1641  0.9363  1.4171
 2550SOL    HW3 9973   4.867   2.415   3.955  0.3784  0.6058  0.2138
 2550SOL    MW4 9974   4.812   2.456   4.009  0.4141  0.2537  0.5194
 2551SOL     OW 9975   3.687   4.652   5.980  0.1987  0.4694  0.0223
 2551SOL    HW2 9976   3.739   4.685   6.053  0.0685  0.8827 -0.0641
 2551SOL    HW3 9977   3.597   4.653   6.013  0.1791  0.3309 -0.0285
 2551SOL    MW4 9978   3.682   4.657   5.994  0.1789  0.5056  0.0042
 2552SOL     OW 9979   1.140   1.536   6.199  0.0249  0.2984 -0.3831
 2552SOL    HW2 9980   1.061   1.519   6.147 -0.5291  0.6218  0.3457
 2552SOL    HW3 9981   1.120   1.616   6.248  0.3583 -0.2659  0.6909
 2552SOL    MW4 9982   1.127   1.544   6.198 -0.0042  0.2666 -0.1453
 2553SOL     OW 9983   4.962   2.480   5.148  0.4824 -0.3732  0.1642
 2553SOL    HW2 9984   4.999   2.454   5.232  0.3602 -0.5502  0.1631
 2553SOL    HW3 9985   4.937   2.572   5.160 -1.9039 -1.0688  1.1582
 2553SOL    MW4 9986   4.964   2.488   5.161  0.1514 -0.4883  0.2952
 2554SOL     OW 9987   1.853   1.596   5.115 -0.4427 -0.0967  0.5596
 2554SOL    HW2 9988   1.907   1.623   5.190  0.9163  1.0310 -0.7584
 2554SOL    HW3 9989   1.859   1.669   5.054 -0.5212 -1.4704 -1.1674
 2554SOL    MW4 9990   1.861   1.609   5.117 -0.2738 -0.1292  0.1578
 2555SOL     OW 9991   0.516   1.871   3.407 -1.0396  0.3858  0.7298
 2555SOL    HW2 9992   0.453   1.799   3.400 -1.9012  0.8711  2.6023
 2555SOL    HW3 9993   0.462   1.946   3.434  0.3382  0.7812  2.5496
 2555SOL    MW4 9994   0.500   1.872   3.410 -0.9715  0.5020  1.2169
 2556SOL     OW 9995   2.189   0.577   2.426 -0.3383  0.2727 -0.2366
 2556SOL    HW2 9996   2.238   0.525   2.362  0.2726  0.5062  0.0311
 2556SOL    HW3 9997   2.104   0.593   2.384  0.2823  0.9915 -1.2714
 2556SOL    MW4 9998   2.184   0.572   2.412 -0.1758  0.3983 -0.3378
 2557SOL     OW 9999   1.575   3.291   1.726  0.1715 -0.2490  0.1673
 2557SOL    HW210000   1.505   3.274   1.663 -0.0043  3.5504 -0.8985
 2557SOL    HW310001   1.642   3.337   1.676  1.2819  0.4344  2.1752
 2557SOL    MW410002   1.575   3.295   1.711  0.2948  0.3424  0.2916
 2558SOL     OW10003   0.315   2.041   3.457  0.2716  0.1604  0.1542
 2558SOL    HW210004   0.289   2.074   3.370  0.1633  0.3164  0.2459
 2558SOL    HW310005   0.255   1.968   3.473  1.9696 -1.5972 -1.0528
 2558SOL    MW410006   0.303   2.035   3.447  0.4813 -0.0509  0.0071
 2559SOL     OW10007   4.498   5.343   3.541  0.0305  0.7437  0.1002
 2559SOL    HW210008   4.489   5.281   3.468 -0.5873  0.1126  0.6975
 2559SOL    HW310009   4.592   5.346   3.558  0.0982  0.2140 -0.1533
 2559SOL    MW410010   4.509   5.335   3.534 -0.0421  0.5905  0.1456
 2560SOL     OW10011   4.055   1.153   5.032  0.3751  0.3827  0.0077
 2560SOL    HW210012   4.011   1.119   5.110  0.6893  1.2415  0.5655
 2560SOL    HW310013   4.143   1.117   5.036  0.3436  0.2988 -0.0408
 2560SOL    MW410014   4.061   1.144   5.043  0.4124  0.4849  0.0749
 2561SOL     OW10015   5.402   2.881   1.245 -0.4215  0.0361  0.1218
 2561SOL    HW210016   5.436   2.867   1.334  1.3779  1.3149 -0.3062
 2561SOL    HW310017   5.308   2.889   1.256 -0.0596  2.5060  2.2752
 2561SOL    MW410018   5.394   2.880   1.258 -0.1363  0.5307  0.3495
 2562SOL     OW10019   0.542   5.233   1.082 -0.3845 -0.5642 -0.2362
 2562SOL    HW210020   0.577   5.293   1.016 -1.0041 -0.6938 -0.6997
 2562SOL    HW310021   0.574   5.146   1.055 -1.9834 -0.8582 -1.3634
 2562SOL    MW410022   0.551   5.229   1.069 -0.6772 -0.6201 -0.4461
 2563SOL     OW10023   1.561   1.388   2.437  0.1824 -0.2779 -0.2936
 2563SOL    HW210024   1.506   1.379   2.359 -1.5958 -1.9000  1.0184
 2563SOL    HW310025   1.641   1.340   2.416  0.2612  0.3632 -1.5379
 2563SOL    MW410026   1.564   1.380   2.424 -0.0418 -0.4074 -0.2847
 2564SOL     OW10027   1.923   3.499   2.230  0.0016 -0.0112  0.3920
 2564SOL    HW210028   1.972   3.470   2.307  0.6365 -1.8878 -0.6733
 2564SOL    HW310029   1.839   3.454   2.237  1.1489 -2.7395 -1.4921
 2564SOL    MW410030   1.919   3.489   2.241  0.2368 -0.6188  0.0029
 2565SOL     OW10031   2.365   4.164   1.699  0.4630  0.0480  0.5526
 2565SOL    HW210032   2.355   4.143   1.792 -2.4769 -1.4508  0.0035
 2565SOL    HW310033   2.423   4.095   1.665  0.8268  0.0839  1.0803
 2565SOL    MW410034   2.372   4.152   1.707  0.1231 -0.1450  0.5497
 2566SOL     OW10035   4.772   5.485   2.722 -0.6194  0.1444 -0.4840
 2566SOL    HW210036   4.799   5.515   2.809 -0.3662  0.6270 -0.7183
 2566SOL    HW310037   4.792   5.560   2.665  1.4560 -1.0062 -1.3520
 2566SOL    MW410038   4.778   5.499   2.726 -0.3121  0.0563 -0.6294
 2567SOL     OW10039   2.142   1.096   1.440 -0.0798  0.2634  0.3485
 2567SOL    HW210040   2.175   1.072   1.527 -0.9819 -2.0042  0.1466
 2567SOL    HW310041   2.065   1.150   1.458 -0.5717 -0.6270  1.0019
 2567SOL    MW410042   2.136   1.100   1.454 -0.2637 -0.1532  0.4081
 2568SOL     OW10043   5.880   5.876   2.696 -0.1570 -0.9482  0.5394
 2568SOL    HW210044   5.826   5.818   2.643 -0.1385 -0.3550 -0.1393
 2568SOL    HW310045   5.905   5.947   2.637  1.1630 -1.0754  0.9076
 2568SOL    MW410046   5.876   5.878   2.681  0.0196 -0.8867  0.4985
 2569SOL     OW10047   0.873   0.625   3.778 -0.5365  0.4728 -0.1470
 2569SOL    HW210048   0.938   0.691   3.801  2.3618 -2.1670 -0.0058
 2569SOL    HW310049   0.856   0.579   3.861 -0.4764 -0.5180 -0.6646
 2569SOL    MW410050   0.880   0.628   3.792 -0.1462 -0.0062 -0.1966
 2570SOL     OW10051   1.677   5.365   5.339 -0.6573 -0.2350 -0.2041
 2570SOL    HW210052   1.727   5.376   5.258 -1.3034 -0.8298 -0.6928
 2570SOL    HW310053   1.621   5.443   5.344 -1.7510 -0.9222 -1.1606
 2570SOL    MW410054   1.676   5.377   5.329 -0.8869 -0.4041 -0.3948
 2571SOL     OW10055   2.463   2.218   3.138  0.4387 -0.2922 -0.7278
 2571SOL    HW210056   2.475   2.123   3.127  0.0827 -0.3230 -0.8535
 2571SOL    HW310057   2.370   2.228   3.155  0.8071 -0.1850  1.5796
 2571SOL    MW410058   2.453   2.207   3.139  0.4404 -0.2821 -0.4399
 2572SOL     OW10059   4.991   2.124   0.606  0.1419 -0.2805  0.0133
 2572SOL    HW210060   4.912   2.170   0.577 -0.9159 -1.9593  0.1426
 2572SOL    HW310061   4.974   2.104   0.698  0.2267 -1.6169 -0.2450
 2572SOL    MW410062   4.978   2.128   0.614  0.0135 -0.6783 -0.0037
 2573SOL     OW10063   3.575   4.578   0.412  0.3307  0.5156  0.2048
 2573SOL    HW210064   3.671   4.572   0.414  0.2633 -0.5923  1.6242
 2573SOL    HW310065   3.545   4.496   0.451 -1.2533  0.1860 -1.5676
 2573SOL    MW410066   3.584   4.566   0.418  0.1128  0.3260  0.1583
 2574SOL     OW10067   4.947   2.879   3.125  0.2241  0.0434  0.0347
 2574SOL    HW210068   4.925   2.899   3.034 -0.7202 -3.0642 -0.5207
 2574SOL    HW310069   5.030   2.924   3.139 -0.5212  2.1685 -1.7068
 2574SOL    MW410070   4.955   2.888   3.115  0.0012 -0.0862 -0.2683
 2575SOL     OW10071   2.192   0.817   1.177  0.5870 -0.1213  0.2582
 2575SOL    HW210072   2.131   0.869   1.229  0.5519 -1.8408  2.0405
 2575SOL    HW310073   2.239   0.882   1.125 -1.3444  1.4278  0.3053
 2575SOL    MW410074   2.190   0.833   1.177  0.3276 -0.1437  0.4995
 2576SOL     OW10075   2.403   3.872   5.364  1.0022 -0.0721 -0.3011
 2576SOL    HW210076   2.461   3.807   5.403  2.0749  0.1127 -1.5382
 2576SOL    HW310077   2.402   3.944   5.428  0.0521 -1.1266  0.9262
 2576SOL    MW410078   2.411   3.873   5.377  1.0184 -0.1868 -0.3024
 2577SOL     OW10079   5.552   4.391   2.026  0.4184 -0.3247 -1.0284
 2577SOL    HW210080   5.533   4.402   2.119  0.7962 -0.3249 -0.9493
 2577SOL    HW310081   5.645   4.414   2.017  0.1169  0.7059 -1.5822
 2577SOL    MW410082   5.562   4.395   2.037  0.4285 -0.1888 -1.0911
 2578SOL     OW10083   3.874   5.655   1.803 -0.0142  0.0912 -0.0247
 2578SOL    HW210084   3.876   5.703   1.720  0.3237  0.6219  0.2822
 2578SOL    HW310085   3.951   5.688   1.851  1.9967 -2.8364 -0.9635
 2578SOL    MW410086   3.885   5.666   1.798  0.2957 -0.2250 -0.1080
 2579SOL     OW10087   4.392   4.761   3.801 -0.1303  0.0766 -0.5285
 2579SOL    HW210088   4.454   4.750   3.873  0.0914 -1.0743 -0.8768
 2579SOL    HW310089   4.340   4.837   3.827  0.2491 -0.0264  0.6268
 2579SOL    MW410090   4.393   4.770   3.814 -0.0510 -0.0888 -0.4220
 2580SOL     OW10091   4.420   1.772   0.701  0.1275  0.2634 -0.1738
 2580SOL    HW210092   4.388   1.684   0.725  0.0024  1.0070  2.6922
 2580SOL    HW310093   4.486   1.755   0.633 -1.5700 -1.8277 -1.4543
 2580SOL    MW410094   4.424   1.758   0.695 -0.1130  0.0856  0.0354
 2581SOL     OW10095   2.345   3.234   2.672  0.2579  0.4386  0.2152
 2581SOL    HW210096   2.384   3.321   2.663 -0.2073  0.7723  1.2686
 2581SOL    HW310097   2.420   3.175   2.682  0.5545  1.1158  2.6125
 2581SOL    MW410098   2.360   3.238   2.672  0.2357  0.5720  0.6705
 2582SOL     OW10099   0.315   6.219   2.525  0.6519 -0.3206  0.1095
 2582SOL    HW210100   0.263   6.273   2.466  0.9097 -1.1924 -0.9263
 2582SOL    HW310101   0.340   6.143   2.474  1.3073 -0.8624  1.1897
 2582SOL    MW410102   0.311   6.216   2.511  0.7724 -0.5071  0.1153
 2583SOL     OW10103   5.222   1.251   6.334  0.5409 -0.4484 -0.4077
 2583SOL    HW210104   5.245   1.280   6.245 -0.6849 -0.4101 -0.7282
 2583SOL    HW310105   5.301   1.268   6.385  1.1802 -0.2187 -1.4336
 2583SOL    MW410106   5.235   1.257   6.329  0.4635 -0.4131 -0.5854
 2584SOL     OW10107   1.383   2.819   1.467  0.7978 -0.0622  0.0362
 2584SOL    HW210108   1.344   2.739   1.501 -2.8208  1.7235  0.4829
 2584SOL    HW310109   1.429   2.791   1.387 -0.0618 -2.5949  0.3446
 2584SOL    MW410110   1.384   2.805   1.461  0.2070 -0.1608  0.1358
 2585SOL     OW10111   1.706   1.591   3.028 -0.3525  0.1396 -0.1907
 2585SOL    HW210112   1.790   1.560   3.063  0.4740  1.3901 -0.9885
 2585SOL    HW310113   1.703   1.684   3.050 -1.8030 -0.0049  0.3109
 2585SOL    MW410114   1.717   1.599   3.035 -0.4348  0.2855 -0.2298
 2586SOL     OW10115   0.652   1.859   0.908 -0.2961  0.0473 -0.8046
 2586SOL    HW210116   0.640   1.823   0.996  0.7865  0.4918 -0.4557
 2586SOL    HW310117   0.644   1.783   0.850 -0.9665 -0.2605 -0.3290
 2586SOL    MW410118   0.650   1.844   0.912 -0.2417  0.0653 -0.6958
 2587SOL     OW10119   5.086   3.414   5.660 -0.0441  0.2923  0.4646
 2587SOL    HW210120   4.996   3.432   5.688  0.2752  0.5236  1.3950
 2587SOL    HW310121   5.099   3.321   5.677 -0.4388  0.0213 -0.6647
 2587SOL    MW410122   5.076   3.404   5.666 -0.0540  0.2871  0.4383
 2588SOL     OW10123   5.495   5.303   1.704  0.0817  0.5672  0.1027
 2588SOL    HW210124   5.429   5.351   1.754 -1.8251  1.0812 -2.6769
 2588SOL    HW310125   5.532   5.369   1.645  0.4965 -0.5042 -0.8634
 2588SOL    MW410126   5.491   5.318   1.703 -0.1152  0.4937 -0.3915
 2589SOL     OW10127   3.020   5.021   1.691  0.5518 -0.2903 -0.0474
 2589SOL    HW210128   3.038   4.939   1.646  0.5803 -0.8101  0.8821
 2589SOL    HW310129   2.956   5.066   1.636  1.9017 -0.0873 -1.5191
 2589SOL    MW410130   3.014   5.016   1.678  0.7337 -0.3321 -0.1190
 2590SOL     OW10131   3.529   1.561   5.668 -0.6403  0.1633  0.1688
 2590SOL    HW210132   3.528   1.469   5.640  2.3429  0.6044 -1.8918
 2590SOL    HW310133   3.572   1.560   5.753  1.2760 -0.2471 -0.7584
 2590SOL    MW410134   3.534   1.548   5.675  0.0061  0.1673 -0.2254
 2591SOL     OW10135   0.729   2.286   0.114  0.3536  0.2278  0.0888
 2591SOL    HW210136   0.650   2.318   0.072 -0.6979 -0.1670  1.6895
 2591SOL    HW310137   0.791   2.274   0.042 -0.9453  0.7647 -1.1668
 2591SOL    MW410138   0.727   2.289   0.099  0.0435  0.2466  0.1343
 2592SOL     OW10139   3.248   0.196   0.827  0.0924  0.2818  0.3341
 2592SOL    HW210140   3.161   0.236   0.834  0.8443  2.0851  0.0362
 2592SOL    HW310141   3.303   0.248   0.886  0.8344 -1.3124  1.0947
 2592SOL    MW410142   3.243   0.208   0.835  0.2895  0.3094  0.3952
 2593SOL     OW10143   5.044   5.910   0.576  0.1697 -0.4073  0.2974
 2593SOL    HW210144   5.107   5.967   0.532 -1.3367  1.2613  0.1838
 2593SOL    HW310145   5.030   5.837   0.516  0.8851 -0.0431 -0.3209
 2593SOL    MW410146   5.050   5.908   0.563  0.0653 -0.1391  0.2009
 2594SOL     OW10147   4.005   2.885   3.033  0.4445  0.4925  0.2441
 2594SOL    HW210148   4.006   2.908   2.940 -0.5606 -0.8485 -0.1217
 2594SOL    HW310149   3.913   2.889   3.058  0.3575 -1.8776  0.4499
 2594SOL    MW410150   3.993   2.889   3.024  0.3004  0.0029  0.2230
 2595SOL     OW10151   5.715   2.016   4.846  0.0727 -0.0706  0.3760
 2595SOL    HW210152   5.695   2.000   4.939  1.2934 -0.2200  0.6342
 2595SOL    HW310153   5.629   2.021   4.804 -0.4997 -1.4808  1.2647
 2595SOL    MW410154   5.701   2.014   4.853  0.1583 -0.2764  0.5273
 2596SOL     OW10155   2.686   2.452   0.432 -0.0940  0.1024  0.2094
 2596SOL    HW210156   2.660   2.360   0.434  1.3178 -0.3749 -1.0895
 2596SOL    HW310157   2.604   2.500   0.440 -0.8998 -1.2603  0.5864
 2596SOL    MW410158   2.672   2.446   0.433 -0.0140 -0.1404  0.0878
 2597SOL     OW10159   0.922   1.472   0.395  0.1402  0.3719  0.2505
 2597SOL    HW210160   1.015   1.450   0.389 -0.0794 -1.2188  1.6931
 2597SOL    HW310161   0.918   1.536   0.466  0.3676  2.5330 -1.5698
 2597SOL    MW410162   0.934   1.477   0.404  0.1412  0.4472  0.2007
 2598SOL     OW10163   4.211   0.602   3.817  0.1396 -0.2084  0.0969
 2598SOL    HW210164   4.207   0.580   3.910  0.3249 -0.6480  0.0085
 2598SOL    HW310165   4.237   0.694   3.814 -1.4615  0.2770  0.4939
 2598SOL    MW410166   4.214   0.611   3.829 -0.0472 -0.2024  0.1376
 2599SOL     OW10167   1.844   5.267   1.696 -0.5888 -0.6539 -0.8870
 2599SOL    HW210168   1.869   5.294   1.607 -1.1609  0.9734 -0.5887
 2599SOL    HW310169   1.752   5.242   1.689 -0.8338  0.1463 -0.6374
 2599SOL    MW410170   1.835   5.267   1.683 -0.6966 -0.3336 -0.8147
 2600SOL     OW10171   1.993   3.544   5.049  0.3704 -0.2955 -0.4303
 2600SOL    HW210172   1.971   3.481   4.981 -1.1953 -1.1765  0.8162
 2600SOL    HW310173   1.909   3.586   5.070  0.5255 -0.9942  1.8429
 2600SOL    MW410174   1.979   3.541   5.043  0.1843 -0.5039  0.0341
 2601SOL     OW10175   0.051   0.593   1.132  0.1874 -0.1700  0.1523
 2601SOL    HW210176   0.036   0.502   1.157  1.2820 -0.0784  1.1659
 2601SOL    HW310177  -0.037   0.628   1.117 -0.5356 -0.4347  3.1635
 2601SOL    MW410178   0.037   0.586   1.133  0.2364 -0.1928  0.6833
 2602SOL     OW10179   0.438   5.831   6.333  0.6133  0.3048  0.3097
 2602SOL    HW210180   0.378   5.826   6.258  0.3119  0.4226  0.5424
 2602SOL    HW310181   0.434   5.744   6.373  2.5852 -0.5656 -1.1866
 2602SOL    MW410182   0.430   5.819   6.328  0.8337  0.2055  0.1430
 2603SOL     OW10183   0.671   3.133   4.761  0.9232 -0.1024 -0.1015
 2603SOL    HW210184   0.622   3.060   4.724  0.6949 -0.4807  0.9100
 2603SOL    HW310185   0.725   3.093   4.830  2.2487  0.3895 -0.8247
 2603SOL    MW410186   0.671   3.118   4.766  1.0679 -0.0874 -0.0635
 2604SOL     OW10187   3.924   2.112   2.507  0.4089  0.3264 -0.2880
 2604SOL    HW210188   3.946   2.082   2.596  2.2156 -0.2497 -0.8844
 2604SOL    HW310189   3.828   2.111   2.504  0.3158 -2.3496  0.7632
 2604SOL    MW410190   3.914   2.108   2.519  0.6350 -0.1027 -0.2280
 2605SOL     OW10191   0.092   4.209   5.147  0.0752 -0.1554  0.6269
 2605SOL    HW210192   0.061   4.211   5.056 -1.9606  0.3955  1.2680
 2605SOL    HW310193   0.028   4.154   5.193  1.2015 -0.6103  1.6910
 2605SOL    MW410194   0.079   4.202   5.141 -0.0448 -0.1427  0.8518
 2606SOL     OW10195   0.933   0.432   0.411 -0.1041  0.1494 -0.2238
 2606SOL    HW210196   0.851   0.481   0.401 -0.0821  0.3616  0.6090
 2606SOL    HW310197   0.907   0.340   0.400 -0.7993  0.0496  1.8737
 2606SOL    MW410198   0.919   0.426   0.408 -0.1929  0.1642  0.1629
 2607SOL     OW10199   0.570   1.517   3.186 -0.2487 -0.1043 -0.0942
 2607SOL    HW210200   0.500   1.562   3.233  0.2907  0.4563  0.1962
 2607SOL    HW310201   0.578   1.566   3.104 -0.0145  0.0014 -0.0081
 2607SOL    MW410202   0.562   1.530   3.181 -0.1467 -0.0164 -0.0445
 2608SOL     OW10203   3.332   4.845   6.043 -0.4409 -0.5915 -0.4830
 2608SOL    HW210204   3.249   4.800   6.060 -0.0568 -0.5220  2.0215
 2608SOL    HW310205   3.398   4.793   6.090  0.5583  0.6049 -0.4908
 2608SOL    MW410206   3.330   4.833   6.052 -0.2584 -0.4245 -0.1536
 2609SOL     OW10207   4.433   3.683   4.600  0.1413  0.1402 -0.9453
 2609SOL    HW210208   4.416   3.774   4.622  1.5227  0.6392 -1.8373
 2609SOL    HW310209   4.528   3.672   4.611  0.0239 -1.1391 -1.0225
 2609SOL    MW410210   4.443   3.693   4.604  0.3081  0.0372 -1.0732
 2610SOL     OW10211   4.068   1.132   5.580 -0.3380 -0.2946  0.3311
 2610SOL    HW210212   4.163   1.138   5.566 -0.2129 -0.9859  0.8521
 2610SOL    HW310213   4.044   1.216   5.619  0.2696 -0.5672  1.3380
 2610SOL    MW410214   4.078   1.144   5.583 -0.2413 -0.4217  0.5327
 2611SOL     OW10215   1.884   5.116   4.234  0.1535 -0.2097 -0.2424
 2611SOL    HW210216   1.924   5.090   4.317 -1.4853  0.9863  0.9979
 2611SOL    HW310217   1.878   5.035   4.184  0.1784 -1.2009  1.2815
 2611SOL    MW410218   1.888   5.102   4.238 -0.0594 -0.1826  0.1223
 2612SOL     OW10219   1.189   4.014   1.212  0.2666 -0.0125 -0.1998
 2612SOL    HW210220   1.114   4.068   1.238  0.1243 -0.6137  0.6729
 2612SOL    HW310221   1.253   4.077   1.177 -0.4891  0.5464 -0.6238
 2612SOL    MW410222   1.187   4.030   1.211  0.1481 -0.0181 -0.1406
 2613SOL     OW10223   3.950   0.633   6.376  0.2649 -0.0306 -0.6298
 2613SOL    HW210224   3.927   0.689   6.450 -0.9851  1.7239 -2.2649
 2613SOL    HW310225   4.036   0.664   6.347 -0.3711  0.9976 -1.4557
 2613SOL    MW410226   3.959   0.644   6.382  0.0161  0.3366 -0.9545
 2614SOL     OW10227   4.445   1.115   1.037 -0.1030  0.1261  0.0935
 2614SOL    HW210228   4.396   1.196   1.021  0.1285  0.2018 -0.2410
 2614SOL    HW310229   4.522   1.122   0.981  0.4870  0.1784  0.9026
 2614SOL    MW410230   4.449   1.127   1.028  0.0054  0.1430  0.1561
 2615SOL     OW10231   2.551   6.166   1.958  0.2289  0.5073  0.2619
 2615SOL    HW210232   2.603   6.097   1.916  1.8981  1.2189  1.0662
 2615SOL    HW310233   2.606   6.244   1.951 -0.7474  1.2944  1.1665
 2615SOL    MW410234   2.565   6.167   1.951  0.3203  0.7051  0.4874
 2616SOL     OW10235   1.197   1.423   0.397  0.0070  0.5047 -0.2174
 2616SOL    HW210236   1.241   1.356   0.345  2.6652  1.7441  0.2653
 2616SOL    HW310237   1.199   1.390   0.487  0.7777  0.9542 -0.0660
 2616SOL    MW410238   1.203   1.410   0.402  0.4594  0.7275 -0.1338
 2617SOL     OW10239   1.778   5.991   4.689  0.4089 -0.3091 -0.5100
 2617SOL    HW210240   1.855   5.990   4.633  1.3121 -1.8175  0.6867
 2617SOL    HW310241   1.794   6.063   4.751  1.2672 -1.1351  0.2512
 2617SOL    MW410242   1.790   6.001   4.690  0.6413 -0.6171 -0.2517
 2618SOL     OW10243   5.900   6.071   6.323 -0.5930  0.0910  0.0845
 2618SOL    HW210244   5.936   6.103   6.241  0.4608 -0.8643  0.1487
 2618SOL    HW310245   5.882   6.150   6.374 -2.8116  0.8118 -1.6243
 2618SOL    MW410246   5.902   6.086   6.319 -0.7467  0.0600 -0.1325
 2619SOL     OW10247   1.287   5.693   0.486 -0.2159 -0.1360  0.7738
 2619SOL    HW210248   1.310   5.782   0.514 -0.7806  0.5431 -0.8448
 2619SOL    HW310249   1.370   5.646   0.485  0.2695  0.7140  0.4788
 2619SOL    MW410250   1.301   5.698   0.490 -0.2264  0.0658  0.5213
 2620SOL     OW10251   0.919   1.993   0.957 -1.0289  0.1726  0.4350
 2620SOL    HW210252   0.915   2.058   1.027 -2.0934  0.5661  0.0087
 2620SOL    HW310253   0.830   1.985   0.925 -0.3592  1.0119 -1.8338
 2620SOL    MW410254   0.907   2.000   0.962 -1.0810  0.3353  0.0794
 2621SOL     OW10255   4.668   0.952   1.726  0.2497 -0.3175 -0.4280
 2621SOL    HW210256   4.574   0.937   1.716  0.3418 -0.2511 -1.5792
 2621SOL    HW310257   4.696   0.889   1.792 -0.6796 -0.0292  0.2514
 2621SOL    MW410258   4.659   0.942   1.733  0.1393 -0.2707 -0.4903
 2622SOL     OW10259   5.987   1.910   4.421 -0.2350  0.4045 -0.5632
 2622SOL    HW210260   5.950   1.954   4.497  0.7940  1.4602 -0.6454
 2622SOL    HW310261   5.920   1.848   4.394 -0.5072 -0.2298  1.3969
 2622SOL    MW410262   5.973   1.907   4.428 -0.1351  0.4601 -0.3154
 2623SOL     OW10263   4.740   4.412   0.951 -0.1317  0.7630 -0.1287
 2623SOL    HW210264   4.668   4.403   0.888  0.5825  2.0807 -1.2031
 2623SOL    HW310265   4.698   4.415   1.036 -1.0532 -2.2144 -0.4028
 2623SOL    MW410266   4.725   4.412   0.954 -0.1591  0.5440 -0.3066
 2624SOL     OW10267   0.611   2.135   4.580  0.4281 -0.1797  0.1277
 2624SOL    HW210268   0.652   2.063   4.532 -1.9853 -1.6509  0.0880
 2624SOL    HW310269   0.629   2.115   4.672 -2.0992 -2.2731  0.3057
 2624SOL    MW410270   0.619   2.123   4.585 -0.2238 -0.6500  0.1460
 2625SOL     OW10271   1.599   1.492   5.124 -0.3187 -0.0004 -0.1119
 2625SOL    HW210272   1.688   1.527   5.128 -0.2952 -0.0016 -0.5556
 2625SOL    HW310273   1.542   1.566   5.144 -0.1583 -0.4466  2.2688
 2625SOL    MW410274   1.603   1.506   5.127 -0.2944 -0.0594  0.1437
 2626SOL     OW10275   5.594   5.864   2.274  0.7735  0.0567  1.5321
 2626SOL    HW210276   5.603   5.952   2.237  0.3500 -0.2305  0.7269
 2626SOL    HW310277   5.502   5.842   2.260  1.1691 -1.0393  0.4951
 2626SOL    MW410278   5.583   5.873   2.267  0.7698 -0.1258  1.2891
 2627SOL     OW10279   3.159   3.468   2.875  0.3742  0.3034 -0.2143
 2627SOL    HW210280   3.190   3.553   2.908 -0.9080  0.5834  0.3031
 2627SOL    HW310281   3.103   3.434   2.944 -2.0084  0.6990 -1.8446
 2627SOL    MW410282   3.156   3.475   2.888 -0.1094  0.3925 -0.3611
 2628SOL     OW10283   5.913   1.341   1.278  0.1044 -0.4362  0.4350
 2628SOL    HW210284   5.943   1.418   1.327 -0.9849  0.4921 -0.3127
 2628SOL    HW310285   5.828   1.367   1.243  0.0120 -1.7674 -0.3720
 2628SOL    MW410286   5.905   1.354   1.280 -0.0515 -0.4893  0.2299
 2629SOL     OW10287   5.786   4.405   5.489 -0.2172  0.4057  0.0973
 2629SOL    HW210288   5.786   4.343   5.416 -2.7934 -0.3835  0.6605
 2629SOL    HW310289   5.878   4.420   5.508  0.5152 -0.5116 -2.3406
 2629SOL    MW410290   5.798   4.399   5.482 -0.4605  0.1806 -0.1500
 2630SOL     OW10291   2.980   6.178   4.634  0.0605 -0.5855 -0.3016
 2630SOL    HW210292   2.917   6.249   4.617  0.1785 -0.3737  0.1402
 2630SOL    HW310293   3.036   6.212   4.703 -1.4507 -2.0663  1.7900
 2630SOL    MW410294   2.979   6.192   4.641 -0.1233 -0.7529  0.0326
 2631SOL     OW10295   3.304   6.066   5.290 -0.1725 -0.0971 -0.2420
 2631SOL    HW210296   3.306   6.149   5.241  0.9932 -0.0966 -0.2061
 2631SOL    HW310297   3.358   6.082   5.367 -1.7945 -0.1819  0.9702
 2631SOL    MW410298   3.311   6.079   5.293 -0.2327 -0.1083 -0.0774
 2632SOL     OW10299   3.094   6.269   2.321 -0.5717 -0.2068 -0.2999
 2632SOL    HW210300   3.130   6.181   2.329 -1.6054 -0.7054 -0.9809
 2632SOL    HW310301   3.019   6.260   2.263 -0.7989  1.0996 -0.2513
 2632SOL    MW410302   3.089   6.256   2.315 -0.7381 -0.1002 -0.3833
 2633SOL     OW10303   2.622   6.214   4.470  0.2014  0.0864  0.6033
 2633SOL    HW210304   2.587   6.268   4.541  1.0232 -0.4362  1.4250
 2633SOL    HW310305   2.689   6.160   4.511  0.5159 -0.4214 -0.5246
 2633SOL    MW410306   2.626   6.214   4.484  0.3513 -0.0495  0.5629
 2634SOL     OW10307   3.948   6.062   1.170 -0.3988  0.5356  0.4992
 2634SOL    HW210308   4.001   6.011   1.232 -0.3111  0.3019  0.2370
 2634SOL    HW310309   3.860   6.027   1.179 -0.2053 -0.1676 -0.1916
 2634SOL    MW410310   3.944   6.051   1.179 -0.3617  0.4119  0.3735
 2635SOL     OW10311   2.703   4.467   6.038  0.3159  0.4642 -0.0448
 2635SOL    HW210312   2.646   4.490   6.111  0.0906  0.5447 -0.2465
 2635SOL    HW310313   2.789   4.454   6.078  0.9993  3.7684 -0.1883
 2635SOL    MW410314   2.707   4.468   6.053  0.3763  0.9108 -0.0903
 2636SOL     OW10315   3.919   1.680   3.444 -0.0205  0.5508 -0.2781
 2636SOL    HW210316   3.914   1.587   3.467  0.5127  0.9419  1.6205
 2636SOL    HW310317   3.904   1.683   3.350 -0.9890 -1.3714 -0.2225
 2636SOL    MW410318   3.916   1.668   3.435 -0.0779  0.3488 -0.0203
 2637SOL     OW10319   3.837   1.413   6.068  0.1260  0.2259  0.1681
 2637SOL    HW210320   3.871   1.331   6.032 -0.6264  0.2258 -0.5536
 2637SOL    HW310321   3.768   1.386   6.128 -1.3621  0.3714 -1.4075
 2637SOL    MW410322   3.833   1.398   6.071 -0.1696  0.2451 -0.1350
 2638SOL     OW10323   6.184   1.075   2.444 -0.1400  0.0173  0.5154
 2638SOL    HW210324   6.194   1.052   2.536 -0.5833 -1.6110  0.1903
 2638SOL    HW310325   6.264   1.044   2.402 -1.1507 -1.9670 -0.0912
 2638SOL    MW410326   6.196   1.068   2.450 -0.3318 -0.4593  0.3925
 2639SOL     OW10327   5.749   5.134   4.567 -0.1109  0.0553 -0.2887
 2639SOL    HW210328   5.676   5.190   4.540  0.2219 -0.0480 -1.4672
 2639SOL    HW310329   5.773   5.166   4.654 -0.2967  1.3813 -0.6975
 2639SOL    MW410330   5.743   5.146   4.575 -0.0915  0.2166 -0.4981
 2640SOL     OW10331   5.799   5.013   0.620  0.6479 -0.6987 -0.0983
 2640SOL    HW210332   5.855   5.053   0.553 -0.5463 -1.2028 -1.4535
 2640SOL    HW310333   5.797   5.077   0.691  1.2151  0.2748 -0.9341
 2640SOL    MW410334   5.806   5.026   0.620  0.5651 -0.6368 -0.3874
 2641SOL     OW10335   5.437   5.733   0.294  0.0281  0.1605  0.2939
 2641SOL    HW210336   5.493   5.658   0.276  1.4230  1.6015 -1.7893
 2641SOL    HW310337   5.385   5.745   0.215 -0.1636  1.3598  0.5720
 2641SOL    MW410338   5.438   5.725   0.281  0.1868  0.5089  0.0558
 2642SOL     OW10339   4.137   5.725   1.875 -0.6128 -0.1879  0.3884
 2642SOL    HW210340   4.181   5.706   1.958 -1.4939  0.9656  1.1567
 2642SOL    HW310341   4.188   5.795   1.836  1.0770 -2.1443 -1.1588
 2642SOL    MW410342   4.149   5.731   1.881 -0.5061 -0.2938  0.2857
 2643SOL     OW10343   4.102   4.210   3.696 -0.4437 -0.3120 -0.2043
 2643SOL    HW210344   4.196   4.203   3.684 -0.5148 -0.9581 -0.4010
 2643SOL    HW310345   4.064   4.161   3.623 -0.9218 -0.6180  0.2401
 2643SOL    MW410346   4.109   4.203   3.685 -0.5161 -0.4376 -0.1716
 2644SOL     OW10347   1.394   3.594   2.131 -0.1502  0.3115  0.3633
 2644SOL    HW210348   1.371   3.523   2.192  0.0537  1.4699  1.8452
 2644SOL    HW310349   1.415   3.668   2.188  1.1639  1.1171 -1.1032
 2644SOL    MW410350   1.393   3.594   2.147  0.0501  0.5706  0.3653
 2645SOL     OW10351   2.629   6.375   3.777  0.2492  0.5225 -0.3938
 2645SOL    HW210352   2.623   6.449   3.716 -0.1323  0.8869  0.0861
 2645SOL    HW310353   2.723   6.362   3.790  0.3772 -0.0229 -1.6119
 2645SOL    MW410354   2.640   6.383   3.770  0.2158  0.4986 -0.4912
 2646SOL     OW10355   3.911   2.116   1.904  0.1254  0.5892  0.2897
 2646SOL    HW210356   3.943   2.172   1.833 -0.1719  0.8198  0.3342
 2646SOL    HW310357   3.884   2.035   1.860 -0.7313  1.0004  0.0338
 2646SOL    MW410358   3.911   2.113   1.889 -0.0268  0.6739  0.2618
 2647SOL     OW10359   6.251   1.838   1.700 -1.2887  0.7803 -0.2968
 2647SOL    HW210360   6.237   1.743   1.703 -0.9897  0.7177 -0.7149
 2647SOL    HW310361   6.325   1.853   1.759  0.1967  0.4374 -1.9944
 2647SOL    MW410362   6.259   1.827   1.708 -1.0533  0.7268 -0.5759
 2648SOL     OW10363   1.209   4.035   4.380  0.3759  0.2159  0.1249
 2648SOL    HW210364   1.270   3.966   4.405  0.2240  0.7729  2.1801
 2648SOL    HW310365   1.255   4.083   4.311  1.9588  0.1438  1.0848
 2648SOL    MW410366   1.223   4.032   4.374  0.5647  0.2799  0.5227
 2649SOL     OW10367   1.882   4.834   2.323  0.1083 -0.4791 -0.1536
 2649SOL    HW210368   1.893   4.742   2.300 -1.4660 -0.8213  0.3470
 2649SOL    HW310369   1.864   4.834   2.417 -1.4211  0.1867 -0.4123
 2649SOL    MW410370   1.881   4.822   2.333 -0.3012 -0.4364 -0.1217
 2650SOL     OW10371   4.631   4.726   1.192  0.0435  0.1584 -0.4757
 2650SOL    HW210372   4.654   4.798   1.133  2.3488 -0.3868 -0.3265
 2650SOL    HW310373   4.690   4.655   1.168 -1.6040 -1.4371 -0.0517
 2650SOL    MW410374   4.642   4.726   1.181  0.1303 -0.1241 -0.4001
 2651SOL     OW10375   2.470   5.212   1.226 -0.0409  0.0604 -0.0268
 2651SOL    HW210376   2.490   5.262   1.147  1.4995  0.4393  0.5694
 2651SOL    HW310377   2.469   5.121   1.197  2.8790 -0.0377 -0.1424
 2651SOL    MW410378   2.473   5.207   1.212  0.5476  0.0975  0.0366
 2652SOL     OW10379   1.917   5.795   2.129  0.0786 -0.4747  0.5139
 2652SOL    HW210380   1.867   5.716   2.149 -0.2724 -0.4586 -0.2617
 2652SOL    HW310381   1.884   5.861   2.190 -2.0797  0.0088 -1.0410
 2652SOL    MW410382   1.906   5.794   2.140 -0.2525 -0.4088  0.2064
 2653SOL     OW10383   5.832   2.518   1.258 -0.4999 -0.2711 -0.0447
 2653SOL    HW210384   5.764   2.584   1.266 -0.5943 -0.1752 -1.4118
 2653SOL    HW310385   5.872   2.514   1.345 -1.8231  0.1136  0.6042
 2653SOL    MW410386   5.829   2.526   1.271 -0.6870 -0.2077 -0.1395
 2654SOL     OW10387   1.749   4.869   5.015 -0.0491 -0.7566 -0.1461
 2654SOL    HW210388   1.842   4.874   4.993 -0.2143  1.5854 -0.6066
 2654SOL    HW310389   1.746   4.889   5.109 -0.0608 -1.3391 -0.0196
 2654SOL    MW410390   1.761   4.872   5.025 -0.0725 -0.5245 -0.1901
 2655SOL     OW10391   0.025   0.849   4.022  0.0591  0.2261 -0.1393
 2655SOL    HW210392   0.119   0.850   4.036 -0.0378 -0.4166  0.6891
 2655SOL    HW310393   0.008   0.769   3.973 -0.0978  0.0809  0.1433
 2655SOL    MW410394   0.035   0.839   4.017  0.0256  0.1221  0.0073
 2656SOL     OW10395   0.476   6.236   6.044  0.4552 -0.0450  0.4449
 2656SOL    HW210396   0.503   6.144   6.037 -2.0784 -0.8147 -0.1043
 2656SOL    HW310397   0.467   6.250   6.138 -0.6096 -0.8430  0.4778
 2656SOL    MW410398   0.479   6.225   6.056 -0.0196 -0.2518  0.3768
 2657SOL     OW10399   5.341   1.740   5.140  0.0406 -0.0621  0.3679
 2657SOL    HW210400   5.351   1.645   5.138  1.1022  0.0525 -0.5317
 2657SOL    HW310401   5.269   1.757   5.079  1.2690 -0.1587 -1.1782
 2657SOL    MW410402   5.333   1.730   5.132  0.3427 -0.0597  0.0452
 2658SOL     OW10403   0.408   5.451   5.859  0.3866  0.0222  0.6064
 2658SOL    HW210404   0.429   5.362   5.887  0.7752 -0.7761 -1.9333
 2658SOL    HW310405   0.491   5.498   5.865  1.2304 -0.9754 -1.8948
 2658SOL    MW410406   0.421   5.445   5.864  0.5492 -0.2148 -0.0587
 2659SOL     OW10407   3.453   0.712   5.258 -0.7337  0.3074  0.5027
 2659SOL    HW210408   3.478   0.771   5.330 -1.4014  0.1799  0.8501
 2659SOL    HW310409   3.384   0.657   5.296 -1.2649  0.3964 -0.3101
 2659SOL    MW410410   3.447   0.713   5.273 -0.8919  0.3023  0.4413
 2660SOL     OW10411   0.442   4.959   3.385 -0.6681  0.2368  0.2199
 2660SOL    HW210412   0.397   4.999   3.460 -1.9496 -1.3564  0.3647
 2660SOL    HW310413   0.373   4.914   3.337  0.2929  0.4431 -1.4051
 2660SOL    MW410414   0.427   4.958   3.389 -0.7104  0.0538  0.0246
 2661SOL     OW10415   1.163   1.042   0.707 -0.5893  0.4781  0.0655
 2661SOL    HW210416   1.154   0.975   0.776 -0.1184 -1.1878 -1.4162
 2661SOL    HW310417   1.082   1.036   0.656  0.0651 -0.0219 -0.9471
 2661SOL    MW410418   1.151   1.032   0.710 -0.4408  0.1924 -0.2636
 2662SOL     OW10419   1.053   0.915   6.366 -0.1255 -0.2800  0.1279
 2662SOL    HW210420   1.093   0.986   6.316 -0.9798  0.5013  0.5108
 2662SOL    HW310421   1.126   0.872   6.409  0.4209  0.3537 -0.1413
 2662SOL    MW410422   1.068   0.919   6.365 -0.1661 -0.0933  0.1429
 2663SOL     OW10423   0.687   1.332   2.282  0.1552  0.0340  0.3573
 2663SOL    HW210424   0.733   1.277   2.345  3.0671  0.7046 -0.9930
 2663SOL    HW310425   0.745   1.408   2.270 -0.8086  0.4538 -2.2584
 2663SOL    MW410426   0.701   1.335   2.289  0.4122  0.1779 -0.1659
 2664SOL     OW10427   4.883   1.473   2.199 -0.0024 -0.5606 -0.4239
 2664SOL    HW210428   4.854   1.557   2.161  1.8167 -0.0329 -0.7178
 2664SOL    HW310429   4.945   1.438   2.135  0.0406 -1.6458  0.1962
 2664SOL    MW410430   4.887   1.480   2.185  0.2433 -0.6342 -0.3808
 2665SOL     OW10431   5.092   3.321   6.325  0.0455 -0.0366 -0.3420
 2665SOL    HW210432   5.111   3.335   6.418  0.3945  1.3770 -0.6089
 2665SOL    HW310433   5.175   3.339   6.280  0.1351 -1.6202 -0.8782
 2665SOL    MW410434   5.105   3.325   6.332  0.1034 -0.0590 -0.4480
 2666SOL     OW10435   4.579   3.352   1.834 -0.2183 -0.1461 -0.0567
 2666SOL    HW210436   4.627   3.427   1.868  1.7864 -0.4371 -2.0093
 2666SOL    HW310437   4.490   3.363   1.868  0.5668  1.8163  1.5987
 2666SOL    MW410438   4.574   3.363   1.843  0.1498  0.0744 -0.0959
 2667SOL     OW10439   6.116   0.151   1.050 -1.2830  0.6924  0.1401
 2667SOL    HW210440   6.118   0.149   0.954  2.9398  0.4667  0.0442
 2667SOL    HW310441   6.099   0.243   1.071 -2.6665  0.6719 -0.7701
 2667SOL    MW410442   6.114   0.163   1.040 -0.9084  0.6599  0.0074
 2668SOL     OW10443   4.718   5.039   1.288 -0.3037  0.8194  0.1119
 2668SOL    HW210444   4.754   5.127   1.274  0.8995  0.5637  1.4632
 2668SOL    HW310445   4.736   4.992   1.207  1.1797  1.1215  0.2479
 2668SOL    MW410446   4.725   5.045   1.275  0.0508  0.8255  0.3081
 2669SOL     OW10447   0.120   4.120   3.613  0.3591 -0.3560  0.0227
 2669SOL    HW210448   0.205   4.076   3.611  0.2937 -0.4900 -1.6011
 2669SOL    HW310449   0.127   4.183   3.684  1.5350 -0.9101  0.4312
 2669SOL    MW410450   0.132   4.122   3.622  0.5056 -0.4468 -0.1377
 2670SOL     OW10451   5.110   5.204   5.730 -0.4920  0.3393 -0.1173
 2670SOL    HW210452   5.169   5.252   5.789 -1.6653 -0.5949  1.9430
 2670SOL    HW310453   5.037   5.264   5.716 -0.9336 -0.0005  0.6717
 2670SOL    MW410454   5.108   5.219   5.736 -0.7051  0.1712  0.2586
 2671SOL     OW10455   2.713   2.144   1.492 -0.0377 -0.0400 -0.3994
 2671SOL    HW210456   2.729   2.205   1.563  1.0367  0.9174 -1.4238
 2671SOL    HW310457   2.749   2.061   1.523  0.4882  0.3868  0.1551
 2671SOL    MW410458   2.720   2.141   1.505  0.1734  0.1426 -0.4614
 2672SOL     OW10459   6.050   2.576   5.251  0.2111  0.0959 -0.4417
 2672SOL    HW210460   6.029   2.577   5.344 -0.3399 -1.2640 -0.5302
 2672SOL    HW310461   6.144   2.557   5.247  0.0321 -0.9462 -0.1527
 2672SOL    MW410462   6.060   2.573   5.262  0.1148 -0.2210 -0.4152
 2673SOL     OW10463   2.838   2.344   4.969  0.2230 -0.0299 -1.0340
 2673SOL    HW210464   2.926   2.327   5.002  0.2515  1.8840  0.0093
 2673SOL    HW310465   2.851   2.372   4.879  0.5993 -0.3962 -1.0983
 2673SOL    MW410466   2.851   2.345   4.962  0.2764  0.1743 -0.9048
 2674SOL     OW10467   2.757   2.656   6.156 -0.0866 -0.2209  0.3023
 2674SOL    HW210468   2.702   2.690   6.227  0.1868 -0.4717  0.6353
 2674SOL    HW310469   2.794   2.575   6.191  3.0805  1.5286  1.3375
 2674SOL    MW410470   2.754   2.650   6.170  0.3673 -0.0232  0.4828
 2675SOL     OW10471   4.127   5.520   1.642  0.6881 -0.2243  0.8253
 2675SOL    HW210472   4.079   5.590   1.685  1.7673  0.8597  0.3026
 2675SOL    HW310473   4.174   5.476   1.713 -1.1417 -1.4182  1.3728
 2675SOL    MW410474   4.127   5.523   1.657  0.5891 -0.2388  0.8286
 2676SOL     OW10475   3.306   4.859   3.180 -0.4379  0.3219  0.0226
 2676SOL    HW210476   3.319   4.797   3.108  0.2769  0.5903 -0.0922
 2676SOL    HW310477   3.235   4.821   3.232  0.7599 -1.2337  0.6208
 2676SOL    MW410478   3.298   4.846   3.178 -0.1856  0.1521  0.0864
 2677SOL     OW10479   4.356   0.824   3.928  0.0965 -0.5651 -0.4770
 2677SOL    HW210480   4.446   0.836   3.897 -0.0794  0.3546 -0.6878
 2677SOL    HW310481   4.317   0.911   3.921 -0.6381 -0.8291  0.1803
 2677SOL    MW410482   4.363   0.837   3.923 -0.0236 -0.4786 -0.4181
 2678SOL     OW10483   0.589   0.790   3.000 -0.4189  0.2556 -0.0875
 2678SOL    HW210484   0.671   0.808   2.955 -1.5656  2.9058 -1.3132
 2678SOL    HW310485   0.606   0.710   3.049  2.6527  0.3298 -0.8335
 2678SOL    MW410486   0.602   0.782   3.000 -0.1649  0.6150 -0.3476
 2679SOL     OW10487   5.154   2.158   1.691 -0.0458  0.3904 -0.1233
 2679SOL    HW210488   5.135   2.233   1.747  0.9537 -0.0213  0.7908
 2679SOL    HW310489   5.250   2.150   1.693 -0.2101 -1.8464  1.0627
 2679SOL    MW410490   5.164   2.167   1.698  0.0644  0.0410  0.1538
 2680SOL     OW10491   0.438   1.562   1.313  0.1732  0.4015 -0.2806
 2680SOL    HW210492   0.471   1.472   1.303 -0.6938  0.0893 -0.4528
 2680SOL    HW310493   0.470   1.590   1.399  1.5979  0.4359 -0.7935
 2680SOL    MW410494   0.447   1.554   1.323  0.2468  0.3649 -0.3710
 2681SOL     OW10495   1.783   3.883   1.806  0.4371 -0.6383 -0.3150
 2681SOL    HW210496   1.789   3.878   1.710 -1.3262 -1.6044 -0.4065
 2681SOL    HW310497   1.845   3.816   1.836  0.1630 -1.1336 -0.8193
 2681SOL    MW410498   1.792   3.874   1.797  0.1683 -0.8311 -0.3936
 2682SOL     OW10499   2.840   1.690   0.180 -0.0417  0.4517  0.1294
 2682SOL    HW210500   2.796   1.737   0.110 -1.5834 -1.5077 -0.3166
 2682SOL    HW310501   2.930   1.724   0.180 -0.9003  2.9165 -0.4866
 2682SOL    MW410502   2.846   1.701   0.171 -0.3584  0.5184 -0.0107
 2683SOL     OW10503   2.273   1.462   1.186  0.0461 -0.0903 -0.4556
 2683SOL    HW210504   2.285   1.385   1.242 -2.8020 -0.3047  0.0413
 2683SOL    HW310505   2.309   1.535   1.237  1.5971 -0.8675 -0.3725
 2683SOL    MW410506   2.279   1.461   1.200 -0.1250 -0.2211 -0.3791
 2684SOL     OW10507   6.410   2.135   0.758  0.1838  0.6590  0.0678
 2684SOL    HW210508   6.337   2.073   0.755 -0.1374  1.0420 -0.0489
 2684SOL    HW310509   6.487   2.080   0.775 -0.3068  0.3913  1.5744
 2684SOL    MW410510   6.411   2.120   0.760  0.0767  0.6742  0.2512
 2685SOL     OW10511   1.151   2.937   1.832  0.3237  0.4998 -0.2307
 2685SOL    HW210512   1.200   2.987   1.898 -0.3043 -0.4964  1.0325
 2685SOL    HW310513   1.175   2.977   1.749  1.5210  1.4871  0.5582
 2685SOL    MW410514   1.161   2.949   1.830  0.3988  0.4986  0.0400
 2686SOL     OW10515   4.091   6.126   5.738 -0.4649  0.2081  0.1077
 2686SOL    HW210516   4.104   6.168   5.822 -1.7638 -0.1817  0.5187
 2686SOL    HW310517   4.006   6.082   5.745 -2.7748  3.5981 -2.7628
 2686SOL    MW410518   4.082   6.126   5.750 -0.9410  0.6039 -0.2168
 2687SOL     OW10519   0.718   5.709   0.429  0.0946 -0.5119  0.0683
 2687SOL    HW210520   0.772   5.736   0.355  0.6068  0.9181  0.9118
 2687SOL    HW310521   0.650   5.654   0.391  0.7525 -0.3896 -1.3524
 2687SOL    MW410522   0.716   5.706   0.414  0.2490 -0.3071 -0.0079
 2688SOL     OW10523   0.696   3.011   4.353  0.5762  0.1153  0.3505
 2688SOL    HW210524   0.604   3.033   4.361  0.2930 -1.0168  0.4859
 2688SOL    HW310525   0.711   2.945   4.421  1.3196 -0.1769 -0.0719
 2688SOL    MW410526   0.686   3.005   4.363  0.6369 -0.0726  0.3126
 2689SOL     OW10527   0.997   4.629   2.764  0.2256 -0.1746 -0.0197
 2689SOL    HW210528   1.084   4.592   2.783  0.7187  0.9650  0.0019
 2689SOL    HW310529   0.942   4.596   2.835  0.3325 -1.9024 -0.6951
 2689SOL    MW410530   1.001   4.619   2.776  0.3048 -0.2522 -0.1060
 2690SOL     OW10531   0.124   0.107   4.439 -0.0569  0.5320  0.0819
 2690SOL    HW210532   0.107   0.181   4.381  0.7707  1.7680  1.3352
 2690SOL    HW310533   0.044   0.055   4.435 -1.0478  1.9907 -0.1405
 2690SOL    MW410534   0.111   0.110   4.431 -0.0785  0.8875  0.2179
 2691SOL     OW10535   2.154   3.677   0.444 -0.3364 -0.3933 -0.3227
 2691SOL    HW210536   2.188   3.723   0.521 -1.4151 -0.3561  0.1536
 2691SOL    HW310537   2.138   3.588   0.475 -0.4759 -0.4612 -0.5887
 2691SOL    MW410538   2.157   3.671   0.458 -0.4971 -0.3973 -0.2950
 2692SOL     OW10539   3.955   2.737   5.144 -0.2474 -0.3512  0.5806
 2692SOL    HW210540   3.981   2.645   5.143  1.2661  0.0630  0.1723
 2692SOL    HW310541   3.866   2.736   5.109 -1.6942 -2.0225  3.8327
 2692SOL    MW410542   3.946   2.724   5.139 -0.2386 -0.5171  0.9558
 2693SOL     OW10543   6.179   1.073   1.088 -0.2944 -0.3420  0.0128
 2693SOL    HW210544   6.100   1.040   1.044  0.5090 -0.4104 -1.4716
 2693SOL    HW310545   6.199   1.155   1.042 -0.2050  0.3328  1.2272
 2693SOL    MW410546   6.171   1.079   1.076 -0.1766 -0.2620 -0.0228
 2694SOL     OW10547   3.342   3.027   3.692  0.0143  0.2295  0.1934
 2694SOL    HW210548   3.268   3.052   3.637  0.4041  0.7047 -0.1265
 2694SOL    HW310549   3.396   2.972   3.635 -0.1345 -0.1908  0.4536
 2694SOL    MW410550   3.339   3.023   3.677  0.0461  0.2367  0.1855
 2695SOL     OW10551   0.182   3.736   2.744  0.1775  0.0583  0.0861
 2695SOL    HW210552   0.093   3.769   2.757 -0.3258 -0.6852 -1.2618
 2695SOL    HW310553   0.227   3.756   2.826 -1.7806 -1.3490  1.6082
 2695SOL    MW410554   0.176   3.743   2.756 -0.1472 -0.2255  0.1091
 2696SOL     OW10555   4.397   6.184   0.805 -0.1376 -0.2263  0.0219
 2696SOL    HW210556   4.378   6.248   0.875  0.2374 -0.1800  0.0815
 2696SOL    HW310557   4.322   6.124   0.808 -0.6830  0.4163 -0.2751
 2696SOL    MW410558   4.384   6.185   0.815 -0.1601 -0.1354 -0.0094
 2697SOL     OW10559   5.514   1.227   3.952  0.4441  0.1032 -0.4441
 2697SOL    HW210560   5.573   1.249   4.024 -0.7140 -0.9706  0.8806
 2697SOL    HW310561   5.530   1.135   3.935 -0.3671 -0.0247 -0.5366
 2697SOL    MW410562   5.524   1.218   3.959  0.1842 -0.0553 -0.2815
 2698SOL     OW10563   4.568   2.610   3.611 -0.1282 -0.0389 -0.4877
 2698SOL    HW210564   4.623   2.536   3.582 -1.1752 -0.6496 -0.9586
 2698SOL    HW310565   4.501   2.618   3.544  0.3424  1.7862 -0.7705
 2698SOL    MW410566   4.567   2.601   3.599 -0.2042  0.1213 -0.5871
 2699SOL     OW10567   0.843   0.793   4.293  0.0279 -0.2287  0.1697
 2699SOL    HW210568   0.792   0.794   4.211  0.7046  0.4351 -0.2538
 2699SOL    HW310569   0.782   0.825   4.359  0.0035  0.9678 -0.4103
 2699SOL    MW410570   0.828   0.797   4.291  0.1140  0.0167  0.0373
 2700SOL     OW10571   2.165   1.495   5.258  0.5826  0.0200 -0.1622
 2700SOL    HW210572   2.134   1.581   5.285 -0.9979 -0.0152 -1.6855
 2700SOL    HW310573   2.222   1.513   5.183 -1.6721 -0.3299 -2.0618
 2700SOL    MW410574   2.169   1.509   5.252  0.0766 -0.0308 -0.6138
 2701SOL     OW10575   4.633   1.101   5.478  0.2749 -0.1972 -0.0040
 2701SOL    HW210576   4.631   1.048   5.397 -0.8607  1.4371 -1.1028
 2701SOL    HW310577   4.559   1.070   5.529  0.5258 -0.6902  0.0725
 2701SOL    MW410578   4.623   1.090   5.474  0.1582 -0.0467 -0.1389
 2702SOL     OW10579   2.234   5.450   1.330 -0.4753  0.2448 -0.6321
 2702SOL    HW210580   2.246   5.403   1.412 -0.6172 -0.4698 -1.0092
 2702SOL    HW310581   2.319   5.492   1.314 -0.0809 -0.5392 -0.6783
 2702SOL    MW410582   2.247   5.449   1.338 -0.4420  0.0470 -0.6880
 2703SOL     OW10583   0.003   4.195   2.342 -0.6272 -0.4535 -0.1000
 2703SOL    HW210584  -0.068   4.132   2.340  0.4020 -1.6448 -0.3280
 2703SOL    HW310585   0.031   4.202   2.250 -1.5021  1.2765 -0.2805
 2703SOL    MW410586  -0.002   4.188   2.329 -0.6068 -0.3824 -0.1539
 2704SOL     OW10587   3.475   6.056   1.029 -0.1398 -0.5873  0.0928
 2704SOL    HW210588   3.447   6.097   1.110 -0.1357 -0.8031  0.2055
 2704SOL    HW310589   3.404   6.072   0.967  0.0872  0.0329 -0.0173
 2704SOL    MW410590   3.462   6.063   1.031 -0.1093 -0.5340  0.0931
 2705SOL     OW10591   2.542   5.520   1.698  0.2392  0.2950  0.3796
 2705SOL    HW210592   2.635   5.497   1.704  0.1234 -1.0750 -1.8110
 2705SOL    HW310593   2.498   5.436   1.683 -1.4172  0.8841  1.6429
 2705SOL    MW410594   2.549   5.506   1.697  0.0054  0.1920  0.2573
 2706SOL     OW10595   0.215   0.677   1.362  0.2818 -0.2590  0.1541
 2706SOL    HW210596   0.256   0.746   1.311  0.4319  0.1844  0.8510
 2706SOL    HW310597   0.129   0.665   1.321  1.0865 -1.2089 -1.3215
 2706SOL    MW410598   0.209   0.685   1.350  0.4078 -0.3259  0.0513
 2707SOL     OW10599   0.908   1.352   0.790 -0.7835 -0.2320  0.6335
 2707SOL    HW210600   0.858   1.279   0.751 -2.3944  0.5695  1.1147
 2707SOL    HW310601   0.981   1.309   0.834  0.8289 -1.2466 -2.6967
 2707SOL    MW410602   0.911   1.337   0.790 -0.7833 -0.2601  0.2576
 2708SOL     OW10603   2.616   2.457   0.156 -0.2038  0.1672  0.5418
 2708SOL    HW210604   2.550   2.526   0.150  0.0314  0.3023 -0.6576
 2708SOL    HW310605   2.653   2.467   0.244 -0.2051  1.5470  0.4115
 2708SOL    MW410606   2.612   2.467   0.167 -0.1730  0.3670  0.3663
 2709SOL     OW10607   4.918   4.812   2.270 -0.0019  0.1697 -0.4558
 2709SOL    HW210608   4.847   4.772   2.221  0.2248 -1.1925  0.2911
 2709SOL    HW310609   4.982   4.837   2.203 -0.7413  0.5453 -1.0411
 2709SOL    MW410610   4.917   4.810   2.255 -0.0696  0.0395 -0.4345
 2710SOL     OW10611   0.947   3.392   0.799  0.1834  0.3762 -0.1718
 2710SOL    HW210612   0.918   3.322   0.858  0.4266  0.3847 -0.0407
 2710SOL    HW310613   0.954   3.350   0.714  1.4313 -0.0479  0.1148
 2710SOL    MW410614   0.944   3.377   0.796  0.3802  0.3214 -0.1167
 2711SOL     OW10615   2.295   2.886   0.550  0.3047  0.0080  0.0303
 2711SOL    HW210616   2.234   2.815   0.533  0.5936 -0.2335 -0.0134
 2711SOL    HW310617   2.304   2.887   0.645  0.7763 -0.4304  0.0007
 2711SOL    MW410618   2.288   2.877   0.560  0.4051 -0.0817  0.0206
 2712SOL     OW10619   3.891   2.599   0.041 -0.4056  0.1701  0.4496
 2712SOL    HW210620   3.946   2.561   0.109 -1.3895  0.2233  1.2931
 2712SOL    HW310621   3.917   2.691   0.039 -0.4014  0.1768  0.7702
 2712SOL    MW410622   3.902   2.606   0.050 -0.5349  0.1780  0.6032
 2713SOL     OW10623   1.618   0.267   2.460 -0.4769 -0.0432 -0.1350
 2713SOL    HW210624   1.649   0.282   2.549  0.4269 -0.3128 -0.3906
 2713SOL    HW310625   1.523   0.270   2.466 -0.4109  1.3709  0.5831
 2713SOL    MW410626   1.610   0.270   2.472 -0.3489  0.1078 -0.0740
 2714SOL     OW10627   1.362   5.185   0.162  0.1905  0.0688  0.0682
 2714SOL    HW210628   1.389   5.093   0.160 -0.4667 -0.2077  1.7621
 2714SOL    HW310629   1.327   5.201   0.074 -0.3115 -1.5130 -0.0630
 2714SOL    MW410630   1.361   5.175   0.150  0.0375 -0.1764  0.2744
 2715SOL     OW10631   1.147   2.525   5.999  0.5575  0.0947  0.1457
 2715SOL    HW210632   1.152   2.615   5.966  2.6581  0.7033  1.8860
 2715SOL    HW310633   1.213   2.478   5.948 -0.1903 -0.3504 -0.4184
 2715SOL    MW410634   1.157   2.531   5.988  0.7360  0.1163  0.3009
 2716SOL     OW10635   1.252   4.473   0.239  0.1109  0.6820  0.4578
 2716SOL    HW210636   1.192   4.522   0.296 -0.9553 -0.9666  0.8428
 2716SOL    HW310637   1.195   4.410   0.194  1.5826 -1.2582  1.1801
 2716SOL    MW410638   1.236   4.471   0.241  0.1644  0.2085  0.6039
 2717SOL     OW10639   4.226   4.249   4.184 -0.4691  0.0333  0.3476
 2717SOL    HW210640   4.203   4.315   4.119 -0.0565  0.2155  0.3788
 2717SOL    HW310641   4.251   4.172   4.133 -1.7197 -0.3710  0.3269
 2717SOL    MW410642   4.227   4.247   4.169 -0.5797  0.0040  0.3490
 2718SOL     OW10643   0.279   3.648   4.885  0.2170  0.0784  0.3252
 2718SOL    HW210644   0.293   3.735   4.921  2.9781 -0.6356  1.1504
 2718SOL    HW310645   0.257   3.593   4.961 -0.3548 -0.1813 -0.0202
 2718SOL    MW410646   0.278   3.652   4.900  0.5058 -0.0501  0.3885
 2719SOL     OW10647   6.171   0.910   1.929  0.1501 -0.2837 -0.2288
 2719SOL    HW210648   6.087   0.894   1.887  0.7762 -1.1524 -1.1936
 2719SOL    HW310649   6.207   0.823   1.945  2.2161  0.0389 -2.6263
 2719SOL    MW410650   6.164   0.897   1.926  0.5053 -0.3558 -0.6724
 2720SOL     OW10651   6.093   5.290   3.997  0.8414 -0.0681  0.0366
 2720SOL    HW210652   6.017   5.251   3.953  0.0953  0.6898  0.6164
 2720SOL    HW310653   6.129   5.219   4.050  0.1852 -0.2917  0.1973
 2720SOL    MW410654   6.088   5.275   3.998  0.6564  0.0024  0.1343
 2721SOL     OW10655   0.440   3.408   1.026 -0.0152  0.4804  0.2504
 2721SOL    HW210656   0.398   3.440   1.105 -0.9451  0.2053 -0.1151
 2721SOL    HW310657   0.457   3.315   1.043  0.2195  0.5314  0.3011
 2721SOL    MW410658   0.437   3.400   1.038 -0.1069  0.4509  0.2089
 2722SOL     OW10659   1.047   1.537   3.135  0.8770  0.6690  0.2214
 2722SOL    HW210660   1.122   1.478   3.139  0.0700 -0.3655  0.4697
 2722SOL    HW310661   1.014   1.539   3.225  0.1044  0.4436 -0.0550
 2722SOL    MW410662   1.053   1.530   3.148  0.6686  0.5027  0.2177
 2723SOL     OW10663   2.428   3.507   0.457 -0.4134 -0.3380 -0.1495
 2723SOL    HW210664   2.362   3.563   0.416 -1.2548 -3.0847 -2.9798
 2723SOL    HW310665   2.501   3.505   0.394 -0.3167 -2.1252 -0.0480
 2723SOL    MW410666   2.429   3.514   0.443 -0.5116 -0.9362 -0.5095
 2724SOL     OW10667   3.117   2.132   0.664 -0.2554  0.1100  0.4508
 2724SOL    HW210668   3.196   2.176   0.697 -0.3178 -1.0379  2.2331
 2724SOL    HW310669   3.151   2.068   0.601  0.3188 -0.6342  1.4759
 2724SOL    MW410670   3.132   2.130   0.660 -0.1879 -0.1397  0.8212
 2725SOL     OW10671   0.790   5.597   3.427 -0.6326  0.6721 -0.1361
 2725SOL    HW210672   0.744   5.514   3.441  0.7083 -0.0008  0.4290
 2725SOL    HW310673   0.741   5.660   3.480 -1.1763  0.0716  0.0914
 2725SOL    MW410674   0.778   5.594   3.436 -0.5274  0.5041 -0.0315
 2726SOL     OW10675   2.261   4.433   3.984  0.0484 -0.1705  0.6673
 2726SOL    HW210676   2.231   4.414   3.895  0.4936 -0.2260  0.5305
 2726SOL    HW310677   2.349   4.397   3.989  0.4036  0.7031  0.8167
 2726SOL    MW410678   2.269   4.426   3.973  0.1540 -0.0625  0.6690
 2727SOL     OW10679   5.948   4.511   3.504 -0.0927  0.4252 -0.4403
 2727SOL    HW210680   5.955   4.605   3.484 -0.5993  0.5702  0.0127
 2727SOL    HW310681   5.902   4.474   3.429 -2.1056  0.9901  0.4387
 2727SOL    MW410682   5.943   4.519   3.491 -0.4251  0.5189 -0.2646
 2728SOL     OW10683   4.041   5.110   4.468  0.3153 -0.3348  0.5392
 2728SOL    HW210684   4.127   5.146   4.450  0.5657 -1.0162  0.3392
 2728SOL    HW310685   4.058   5.024   4.507 -0.2577 -0.0853  1.3905
 2728SOL    MW410686   4.054   5.103   4.471  0.2727 -0.3918  0.6252
 2729SOL     OW10687   3.728   5.192   0.996  0.0942 -0.2225  0.5413
 2729SOL    HW210688   3.728   5.130   0.923 -1.8062 -0.3387  0.5930
 2729SOL    HW310689   3.695   5.274   0.959  0.1404  0.0194  1.0182
 2729SOL    MW410690   3.723   5.195   0.982 -0.1504 -0.2059  0.6111
 2730SOL     OW10691   0.524   4.975   0.664 -0.3940  0.5829  0.3323
 2730SOL    HW210692   0.547   5.068   0.667  0.9196  0.2622  1.3774
 2730SOL    HW310693   0.429   4.973   0.667 -0.4399  1.8883  0.3064
 2730SOL    MW410694   0.515   4.987   0.664 -0.2267  0.7128  0.4668
 2731SOL     OW10695   1.249   1.877   4.961  0.5417 -0.0451 -0.2015
 2731SOL    HW210696   1.297   1.958   4.978 -0.1108  0.5482 -1.0468
 2731SOL    HW310697   1.176   1.880   5.023  2.3664 -1.7218  2.1996
 2731SOL    MW410698   1.245   1.888   4.971  0.6964 -0.1880  0.0037
 2732SOL     OW10699   1.459   5.829   1.568 -0.4977 -0.0207  0.4966
 2732SOL    HW210700   1.514   5.840   1.490  0.3539 -1.1495  0.9121
 2732SOL    HW310701   1.424   5.917   1.584 -0.4930  0.2826 -1.0034
 2732SOL    MW410702   1.462   5.842   1.560 -0.3847 -0.1296  0.3535
 2733SOL     OW10703   3.659   0.932   4.158 -1.0060  0.2173 -0.2237
 2733SOL    HW210704   3.571   0.967   4.174 -1.2775  0.4278 -1.9345
 2733SOL    HW310705   3.717   1.008   4.166 -0.7745 -0.1534  2.1670
 2733SOL    MW410706   3.655   0.947   4.161 -1.0113  0.1962 -0.1340
 2734SOL     OW10707   6.098   0.477   5.328  0.2493  0.7491 -0.3691
 2734SOL    HW210708   6.184   0.435   5.331 -0.4366 -0.8288 -1.6604
 2734SOL    HW310709   6.118   0.570   5.316  1.7818  0.3868 -0.8719
 2734SOL    MW410710   6.112   0.484   5.327  0.3610  0.4931 -0.6058
 2735SOL     OW10711   6.165   3.313   4.376  0.0663  0.0882 -0.3485
 2735SOL    HW210712   6.161   3.382   4.310  1.5691 -1.0651 -1.7332
 2735SOL    HW310713   6.245   3.332   4.426  0.1308 -0.2595 -0.3127
 2735SOL    MW410714   6.175   3.324   4.374  0.2731 -0.1098 -0.5265
 2736SOL     OW10715   2.186   4.681   3.905 -0.1774 -0.2981 -0.4916
 2736SOL    HW210716   2.109   4.663   3.852  0.5433 -1.0319 -1.3298
 2736SOL    HW310717   2.213   4.596   3.938  1.1009 -0.2928 -1.4164
 2736SOL    MW410718   2.179   4.668   3.902  0.0864 -0.3943 -0.7242
 2737SOL     OW10719   1.318   1.305   6.194 -0.6576 -0.0544 -0.4576
 2737SOL    HW210720   1.330   1.298   6.100  1.2255  1.1822 -0.3596
 2737SOL    HW310721   1.267   1.384   6.207  0.9795  1.0325 -0.3829
 2737SOL    MW410722   1.313   1.314   6.184 -0.1931  0.2521 -0.4348
 2738SOL     OW10723   5.776   0.676   3.297 -0.2752  0.0107  0.3576
 2738SOL    HW210724   5.826   0.610   3.248 -1.0371  0.4088 -1.0168
 2738SOL    HW310725   5.779   0.647   3.388  0.3625 -1.2897 -0.0613
 2738SOL    MW410726   5.783   0.664   3.302 -0.2916 -0.1083  0.1210
 2739SOL     OW10727   5.395   1.554   2.263  0.1269  0.6198 -0.2426
 2739SOL    HW210728   5.462   1.621   2.246  1.5774 -0.1571  1.9531
 2739SOL    HW310729   5.312   1.597   2.239  1.3621  1.2924 -3.9692
 2739SOL    MW410730   5.393   1.569   2.258  0.4812  0.6060 -0.4446
 2740SOL     OW10731   1.334   4.750   1.979  0.2585 -0.0373  0.4312
 2740SOL    HW210732   1.320   4.800   1.898  0.0603  0.6281  0.8703
 2740SOL    HW310733   1.269   4.680   1.976 -0.1619  0.3561  0.3080
 2740SOL    MW410734   1.324   4.747   1.968  0.1768  0.1024  0.4729
 2741SOL     OW10735   0.832   5.750   0.188 -0.0576  0.0238  0.0724
 2741SOL    HW210736   0.915   5.793   0.210 -0.1071  0.1651 -0.0126
 2741SOL    HW310737   0.799   5.799   0.112 -0.3385  0.1286  0.2575
 2741SOL    MW410738   0.838   5.762   0.181 -0.1012  0.0563  0.0856
 2742SOL     OW10739   4.046   0.785   4.088  0.3561  0.1656 -0.0591
 2742SOL    HW210740   4.063   0.692   4.069 -0.8409 -0.0040 -0.3912
 2742SOL    HW310741   4.025   0.786   4.181 -1.7569 -0.2652 -0.4745
 2742SOL    MW410742   4.046   0.773   4.098 -0.0806  0.0864 -0.1577
 2743SOL     OW10743   4.271   3.544   5.373 -0.5576  0.2069  0.5589
 2743SOL    HW210744   4.345   3.604   5.380 -0.1742 -0.0945 -0.6743
 2743SOL    HW310745   4.226   3.570   5.293 -0.4054 -1.1234  0.0215
 2743SOL    MW410746   4.275   3.555   5.364 -0.4869 -0.0084  0.3253
 2744SOL     OW10747   5.586   1.600   3.936  0.3474  0.3619 -0.4715
 2744SOL    HW210748   5.650   1.529   3.927  0.1361  0.0863  0.1974
 2744SOL    HW310749   5.556   1.615   3.846  0.8447  0.0304 -0.7038
 2744SOL    MW410750   5.591   1.592   3.923  0.3852  0.2818 -0.4139
 2745SOL     OW10751   0.714   4.097   5.765 -0.3186  0.6889  0.1116
 2745SOL    HW210752   0.791   4.150   5.787  1.3067 -1.3617 -0.4227
 2745SOL    HW310753   0.743   4.040   5.694 -0.4535 -4.0406  3.3752
 2745SOL    MW410754   0.728   4.097   5.759 -0.1220 -0.2057  0.4717
 2746SOL     OW10755   4.083   3.313   1.785 -0.2722  0.3175  0.2263
 2746SOL    HW210756   4.173   3.324   1.816  0.3550 -3.1888 -0.0427
 2746SOL    HW310757   4.091   3.285   1.694 -1.5092 -1.3130  0.5668
 2746SOL    MW410758   4.096   3.311   1.777 -0.3527 -0.3602  0.2358
 2747SOL     OW10759   6.247   0.861   5.696 -0.4801 -0.5568 -0.5966
 2747SOL    HW210760   6.254   0.955   5.714 -1.1977 -0.8779  1.6830
 2747SOL    HW310761   6.176   0.854   5.632 -0.6494  0.4408 -0.5290
 2747SOL    MW410762   6.238   0.873   5.690 -0.5971 -0.4675 -0.2869
 2748SOL     OW10763   0.332   5.102   2.191 -0.3969  0.3883  0.6243
 2748SOL    HW210764   0.302   5.088   2.101 -0.9308  1.1099  0.6762
 2748SOL    HW310765   0.345   5.014   2.226 -0.2508  0.1016 -0.1370
 2748SOL    MW410766   0.329   5.089   2.184 -0.4481  0.4457  0.5307
 2749SOL     OW10767   1.551   3.928   4.859  0.3636  0.1819  0.0345
 2749SOL    HW210768   1.593   3.977   4.930  1.3491 -1.3826  0.5813
 2749SOL    HW310769   1.495   3.992   4.816 -2.1121  0.7194  3.6277
 2749SOL    MW410770   1.549   3.943   4.862  0.1670  0.0464  0.5807
 2750SOL     OW10771   0.745   6.148   6.309 -0.0217 -0.1271  0.4008
 2750SOL    HW210772   0.780   6.117   6.225  1.6478  1.1730  0.5613
 2750SOL    HW310773   0.733   6.069   6.361  0.1351 -0.8384 -0.6132
 2750SOL    MW410774   0.748   6.134   6.305  0.2192 -0.0494  0.2882
 2751SOL     OW10775   3.624   0.268   1.158  0.5240  0.4812  0.3088
 2751SOL    HW210776   3.630   0.360   1.181 -1.1395  0.8541 -0.6074
 2751SOL    HW310777   3.715   0.242   1.139  1.0358  1.8408  0.7640
 2751SOL    MW410778   3.637   0.276   1.159  0.3721  0.7098  0.2480
 2752SOL     OW10779   5.563   0.604   4.985 -0.0005  0.0860  0.5475
 2752SOL    HW210780   5.487   0.580   5.038  0.5052  0.0065  1.2579
 2752SOL    HW310781   5.623   0.644   5.048 -0.4043  2.3295 -0.4117
 2752SOL    MW410782   5.561   0.606   5.000  0.0130  0.3715  0.5147
 2753SOL     OW10783   0.791   3.192   5.061 -0.1243 -0.1465 -0.2081
 2753SOL    HW210784   0.822   3.278   5.090 -0.4333  0.3874 -1.4037
 2753SOL    HW310785   0.697   3.193   5.082 -0.6849  0.8368 -2.4508
 2753SOL    MW410786   0.783   3.204   5.068 -0.2390  0.0537 -0.6617
 2754SOL     OW10787   6.253   5.329   6.267 -0.3412  0.2905 -0.4270
 2754SOL    HW210788   6.237   5.288   6.351  1.0193  0.7519  0.0902
 2754SOL    HW310789   6.176   5.383   6.251 -0.9900 -0.4537  0.0992
 2754SOL    MW410790   6.241   5.330   6.276 -0.2473  0.2532 -0.2893
 2755SOL     OW10791   3.342   0.496   6.003  0.6031 -0.4745 -0.1948
 2755SOL    HW210792   3.427   0.451   6.008  0.6789 -0.7258 -2.4417
 2755SOL    HW310793   3.293   0.446   5.936 -0.5425  0.8618 -0.3968
 2755SOL    MW410794   3.347   0.483   5.995  0.4619 -0.3313 -0.5179
 2756SOL     OW10795   0.190   1.321   2.260 -0.3196  0.2178  0.0406
 2756SOL    HW210796   0.094   1.314   2.262 -0.3559  0.4703  2.2265
 2756SOL    HW310797   0.218   1.250   2.203 -1.8109  0.1646 -0.6744
 2756SOL    MW410798   0.181   1.311   2.253 -0.5212  0.2441  0.2347
 2757SOL     OW10799   1.644   3.410   2.222  0.0719  0.1431 -0.1758
 2757SOL    HW210800   1.561   3.450   2.198  2.2562  4.8131 -1.1407
 2757SOL    HW310801   1.654   3.429   2.315  1.7278  3.6997 -0.9057
 2757SOL    MW410802   1.634   3.417   2.231  0.5786  1.2285 -0.3994
 2758SOL     OW10803   1.799   1.252   2.357  0.1050  0.5400  0.1125
 2758SOL    HW210804   1.813   1.290   2.270  2.3263  1.1654  0.6791
 2758SOL    HW310805   1.758   1.168   2.340  0.9554  0.4256 -1.5794
 2758SOL    MW410806   1.795   1.246   2.343  0.5103  0.6074 -0.0360
 2759SOL     OW10807   0.687   1.460   4.823  0.7543  0.6818  0.0005
 2759SOL    HW210808   0.592   1.462   4.828  0.7675 -0.2869  1.3310
 2759SOL    HW310809   0.706   1.423   4.737 -0.0635  0.8536 -0.2650
 2759SOL    MW410810   0.677   1.455   4.813  0.6481  0.5767  0.1410
 2760SOL     OW10811   5.683   1.962   5.125 -0.7229 -0.0677  0.5324
 2760SOL    HW210812   5.723   2.046   5.147 -0.7544 -0.1093  0.7536
 2760SOL    HW310813   5.748   1.897   5.151 -0.5568 -0.0974  0.0372
 2760SOL    MW410814   5.697   1.965   5.132 -0.7051 -0.0771  0.4962
 2761SOL     OW10815   4.611   3.837   4.093 -0.4750  0.2290  0.4135
 2761SOL    HW210816   4.662   3.763   4.062  0.7172  0.9346  0.6298
 2761SOL    HW310817   4.520   3.812   4.077 -0.0325 -0.6731 -0.8297
 2761SOL    MW410818   4.606   3.824   4.087 -0.2593  0.2031  0.2780
 2762SOL     OW10819   3.985   1.822   0.946  1.0087 -0.1360  0.1534
 2762SOL    HW210820   4.081   1.822   0.947  1.0218  1.1716  1.0971
 2762SOL    HW310821   3.961   1.783   1.030  0.6947 -0.7169 -0.1981
 2762SOL    MW410822   3.995   1.817   0.957  0.9690 -0.0401  0.2315
 2763SOL     OW10823   3.399   2.299   0.705  0.0407 -0.4758  0.2680
 2763SOL    HW210824   3.404   2.333   0.616  0.3017  1.7798  1.0873
 2763SOL    HW310825   3.477   2.244   0.714  0.9074  0.6145 -0.3823
 2763SOL    MW410826   3.410   2.296   0.695  0.1895 -0.0344  0.2903
 2764SOL     OW10827   0.840   0.255   0.863  0.4537  0.2786  0.0081
 2764SOL    HW210828   0.745   0.249   0.855  0.3618 -0.2340  1.1636
 2764SOL    HW310829   0.855   0.256   0.958  1.5876  0.6372 -0.1630
 2764SOL    MW410830   0.829   0.254   0.875  0.5912  0.2583  0.1380
 2765SOL     OW10831   0.107   1.046   0.737  0.3785 -0.2713 -0.2980
 2765SOL    HW210832   0.155   1.008   0.663  1.9445 -0.1628  0.6222
 2765SOL    HW310833   0.081   0.970   0.790 -0.0032 -0.2905 -0.5048
 2765SOL    MW410834   0.110   1.031   0.734  0.5348 -0.2595 -0.2039
 2766SOL     OW10835   0.390   0.807   1.139 -0.1854  0.1705 -0.2186
 2766SOL    HW210836   0.460   0.746   1.162  1.0450  1.6989  0.2473
 2766SOL    HW310837   0.388   0.806   1.044  0.3150 -0.0592 -0.2332
 2766SOL    MW410838   0.399   0.799   1.130  0.0430  0.3419 -0.1591
 2767SOL     OW10839   5.811   4.707   3.865 -0.4089  0.3613 -0.2701
 2767SOL    HW210840   5.880   4.771   3.848 -0.5336  1.3118  2.4046
 2767SOL    HW310841   5.840   4.660   3.943 -1.9810 -0.4412 -0.1165
 2767SOL    MW410842   5.824   4.709   3.873 -0.6328  0.3808  0.1031
 2768SOL     OW10843   4.290   3.520   4.755  0.7615  0.1530 -0.1520
 2768SOL    HW210844   4.339   3.557   4.682 -0.0566  1.8490  0.1139
 2768SOL    HW310845   4.215   3.578   4.766 -0.5431 -1.5407  0.3846
 2768SOL    MW410846   4.287   3.533   4.747  0.4814  0.1533 -0.0461
 2769SOL     OW10847   4.935   2.253   2.095 -0.0971 -0.3039  0.1964
 2769SOL    HW210848   4.846   2.281   2.113 -0.1381 -0.8051  0.7929
 2769SOL    HW310849   4.928   2.159   2.079  0.5221 -0.6306  1.7243
 2769SOL    MW410850   4.923   2.244   2.095 -0.0208 -0.4132  0.4767
 2770SOL     OW10851   4.568   2.202   2.558 -0.0463  0.5545  0.0801
 2770SOL    HW210852   4.557   2.272   2.622  0.7725  2.9833 -2.2251
 2770SOL    HW310853   4.655   2.218   2.520 -0.6993 -0.3773 -1.9713
 2770SOL    MW410854   4.578   2.213   2.561 -0.0244  0.7520 -0.4947
 2771SOL     OW10855   3.069   4.301   2.553  0.1047  0.6915 -0.2851
 2771SOL    HW210856   2.982   4.267   2.531  0.6995 -2.1873  1.3151
 2771SOL    HW310857   3.114   4.309   2.469 -0.9265 -0.1623 -0.9436
 2771SOL    MW410858   3.064   4.297   2.539  0.0471  0.1990 -0.1608
 2772SOL     OW10859   4.584   4.892   5.427  0.5720  0.1844 -0.3997
 2772SOL    HW210860   4.609   4.830   5.359 -0.8405 -0.7359 -0.1258
 2772SOL    HW310861   4.524   4.843   5.483 -0.5122  1.7466 -0.1224
 2772SOL    MW410862   4.579   4.877   5.425  0.2426  0.2691 -0.3270
 2773SOL     OW10863   3.542   0.312   5.623  0.3860  0.0376 -0.4520
 2773SOL    HW210864   3.567   0.271   5.540  0.5445 -1.5271  0.3378
 2773SOL    HW310865   3.582   0.258   5.690 -2.0376 -0.4282  0.7460
 2773SOL    MW410866   3.550   0.299   5.621  0.0872 -0.2303 -0.1897
 2774SOL     OW10867   2.698   1.994   2.771  0.5002  0.3380 -0.1119
 2774SOL    HW210868   2.657   1.990   2.857  2.0603 -0.4491  0.6439
 2774SOL    HW310869   2.626   1.992   2.709 -0.6027 -0.2405  1.1601
 2774SOL    MW410870   2.683   1.993   2.774  0.5605  0.1578  0.1557
 2775SOL     OW10871   6.306   3.178   2.173  0.1372  0.5709  0.9767
 2775SOL    HW210872   6.380   3.222   2.131  0.2651 -0.7703 -0.2816
 2775SOL    HW310873   6.342   3.144   2.255  1.3312 -1.1414 -0.1717
 2775SOL    MW410874   6.321   3.179   2.179  0.3116  0.1681  0.6592
 2776SOL     OW10875   6.107   1.491   5.393 -0.5341 -0.1389 -0.0207
 2776SOL    HW210876   6.026   1.509   5.344 -1.2359 -0.4652  0.9960
 2776SOL    HW310877   6.124   1.571   5.442  0.0936  0.1351 -0.6626
 2776SOL    MW410878   6.099   1.504   5.393 -0.5439 -0.1458  0.0287
 2777SOL     OW10879   3.629   6.134   4.109 -0.0589  0.1803  0.1872
 2777SOL    HW210880   3.559   6.195   4.130  0.6395  1.0708 -0.0255
 2777SOL    HW310881   3.706   6.189   4.097  0.5536 -0.7309 -0.1516
 2777SOL    MW410882   3.630   6.149   4.110  0.1141  0.1776  0.1144
 2778SOL     OW10883   1.617   2.783   3.146  0.1472  0.2485 -0.4078
 2778SOL    HW210884   1.685   2.841   3.112  0.5075 -0.4733 -0.9414
 2778SOL    HW310885   1.604   2.812   3.236  3.2142 -1.3601  0.6953
 2778SOL    MW410886   1.624   2.794   3.154  0.5994 -0.0589 -0.3326
 2779SOL     OW10887   4.480   5.802   5.366  0.4173  0.1618  0.0353
 2779SOL    HW210888   4.420   5.733   5.398 -0.0038  0.2685 -0.5096
 2779SOL    HW310889   4.423   5.861   5.317  0.8458  0.7035  0.1912
 2779SOL    MW410890   4.464   5.800   5.364  0.4183  0.2474 -0.0160
 2780SOL     OW10891   2.295   1.850   3.008  0.0025  0.6170 -0.3612
 2780SOL    HW210892   2.304   1.821   2.917 -0.8831 -1.5926  0.1966
 2780SOL    HW310893   2.224   1.913   3.006  0.1397  0.7620 -1.2403
 2780SOL    MW410894   2.287   1.854   2.995 -0.0963  0.3446 -0.4036
 2781SOL     OW10895   2.520   4.563   5.364 -0.5754 -0.6870 -0.3488
 2781SOL    HW210896   2.605   4.573   5.406 -1.0661 -1.5929  0.9353
 2781SOL    HW310897   2.539   4.526   5.278  0.4298  0.8773 -0.8348
 2781SOL    MW410898   2.533   4.559   5.358 -0.5075 -0.6001 -0.2435
 2782SOL     OW10899   2.742   1.849   6.384  0.2336  0.2901  0.2216
 2782SOL    HW210900   2.716   1.792   6.311 -0.8895  0.6510  0.3174
 2782SOL    HW310901   2.762   1.932   6.342  4.0971 -0.6880 -0.2093
 2782SOL    MW410902   2.741   1.852   6.368  0.5951  0.2087  0.1774
 2783SOL     OW10903   2.200   1.995   5.493  0.5276 -0.1483 -0.3432
 2783SOL    HW210904   2.119   1.949   5.473  0.4245 -0.4626  0.7662
 2783SOL    HW310905   2.269   1.935   5.464  0.3869 -0.7568  0.5614
 2783SOL    MW410906   2.198   1.981   5.486  0.4955 -0.2700 -0.0775
 2784SOL     OW10907   6.101   0.791   2.889 -0.1963  0.3994  0.1572
 2784SOL    HW210908   6.155   0.758   2.961  0.0982  1.6805  0.5502
 2784SOL    HW310909   6.029   0.729   2.883  1.8162 -2.0113 -1.0962
 2784SOL    MW410910   6.099   0.778   2.897  0.1081  0.2504  0.0437
 2785SOL     OW10911   2.130   3.235   1.771  0.0044  0.8763 -0.8537
 2785SOL    HW210912   2.161   3.147   1.751  0.5891  0.7875  0.3222
 2785SOL    HW310913   2.040   3.222   1.803 -0.3536  0.8513 -1.8527
 2785SOL    MW410914   2.122   3.222   1.773  0.0343  0.8613 -0.8304
 2786SOL     OW10915   3.276   2.552   1.217 -0.2745 -0.1643  0.2332
 2786SOL    HW210916   3.193   2.599   1.221  0.7483  1.7629  0.0356
 2786SOL    HW310917   3.253   2.460   1.232 -2.5615  0.1558 -0.9361
 2786SOL    MW410918   3.262   2.546   1.219 -0.4413  0.1322  0.0528
 2787SOL     OW10919   0.078   1.026   4.411 -0.9353 -0.0296  0.1731
 2787SOL    HW210920   0.043   0.958   4.353  0.9657  0.0989 -1.2054
 2787SOL    HW310921   0.150   0.984   4.458 -0.1036  0.8472 -0.2808
 2787SOL    MW410922   0.083   1.012   4.409 -0.5747  0.1031 -0.0687
 2788SOL     OW10923   3.778   3.386   2.336  0.0721 -0.2050 -0.0413
 2788SOL    HW210924   3.697   3.409   2.381 -0.5695 -0.4109 -1.0641
 2788SOL    HW310925   3.833   3.464   2.344  0.8988 -0.9685  3.0305
 2788SOL    MW410926   3.775   3.399   2.343  0.0965 -0.3329  0.2290
 2789SOL     OW10927   2.028   5.386   0.728  0.0290  0.0244  0.2721
 2789SOL    HW210928   2.074   5.316   0.774  0.2052 -0.5973 -0.8024
 2789SOL    HW310929   1.954   5.342   0.687 -0.0470  0.5357 -0.1427
 2789SOL    MW410930   2.024   5.371   0.729  0.0422  0.0098  0.0756
 2790SOL     OW10931   4.583   3.105   2.012 -0.2070  0.1264  0.5701
 2790SOL    HW210932   4.590   3.196   1.983 -0.2823  0.0807  0.4020
 2790SOL    HW310933   4.489   3.086   2.006 -0.4538  0.5937  2.3472
 2790SOL    MW410934   4.571   3.114   2.007 -0.2495  0.1820  0.7824
 2791SOL     OW10935   5.042   2.416   1.562 -0.0366  0.1367 -0.4221
 2791SOL    HW210936   5.067   2.429   1.471  0.0240 -0.0491 -0.4320
 2791SOL    HW310937   5.121   2.439   1.612 -0.7913  2.6573 -0.2644
 2791SOL    MW410938   5.056   2.421   1.557 -0.1282  0.4448 -0.4026
 2792SOL     OW10939   0.392   3.458   0.244 -0.8231  0.1464  0.2128
 2792SOL    HW210940   0.296   3.455   0.235 -0.8442  1.8034 -0.4750
 2792SOL    HW310941   0.413   3.552   0.241  0.9230 -0.2402 -0.8531
 2792SOL    MW410942   0.382   3.470   0.242 -0.5955  0.3140 -0.0186
 2793SOL     OW10943   5.944   3.026   4.120  0.3129 -0.3631  0.7405
 2793SOL    HW210944   5.864   3.019   4.172  1.1633 -0.8892  2.0327
 2793SOL    HW310945   5.942   3.116   4.086 -0.2407  0.0262  1.7505
 2793SOL    MW410946   5.933   3.037   4.122  0.3520 -0.3811  1.0442
 2794SOL     OW10947   3.853   3.165   4.709 -0.0468 -0.1227 -0.0632
 2794SOL    HW210948   3.906   3.164   4.630  0.4249 -1.7723  0.2340
 2794SOL    HW310949   3.909   3.209   4.774  0.4361 -0.6993 -0.0846
 2794SOL    MW410950   3.868   3.171   4.707  0.0792 -0.4164 -0.0268
 2795SOL     OW10951   3.454   5.508   3.308  0.3284  0.6885 -0.2149
 2795SOL    HW210952   3.459   5.599   3.278 -1.1755  0.9584  0.2672
 2795SOL    HW310953   3.539   5.491   3.346  0.2500  2.3029  0.7859
 2795SOL    MW410954   3.466   5.518   3.309  0.1196  0.9371 -0.0192
 2796SOL     OW10955   0.357   1.014   4.164  0.6690 -0.3169 -0.1141
 2796SOL    HW210956   0.343   0.929   4.123  0.0847 -0.3791  0.2040
 2796SOL    HW310957   0.394   1.069   4.095 -0.9560 -0.2148 -0.9496
 2796SOL    MW410958   0.360   1.010   4.150  0.3775 -0.3116 -0.1824
 2797SOL     OW10959   4.080   3.776   0.586 -0.7252 -0.3860  0.4514
 2797SOL    HW210960   4.008   3.811   0.534  0.0893  2.2504  0.9775
 2797SOL    HW310961   4.113   3.850   0.635  1.2499 -1.8965  1.5653
 2797SOL    MW410962   4.075   3.790   0.585 -0.3571 -0.2374  0.6678
 2798SOL     OW10963   2.213   0.577   5.617 -0.1780 -0.0596 -0.1607
 2798SOL    HW210964   2.279   0.582   5.548  0.5496 -0.5983  0.4788
 2798SOL    HW310965   2.144   0.521   5.580  0.3417 -0.5905 -0.3506
 2798SOL    MW410966   2.212   0.570   5.603 -0.0134 -0.2007 -0.1014
 2799SOL     OW10967   1.807   3.481   1.927  0.4518 -0.1760 -0.0814
 2799SOL    HW210968   1.729   3.537   1.922 -0.2974 -1.2233 -0.5034
 2799SOL    HW310969   1.869   3.531   1.979 -0.7927  0.3490  0.9591
 2799SOL    MW410970   1.805   3.495   1.933  0.1888 -0.2449  0.0002
 2800SOL     OW10971   5.754   5.228   2.263 -0.1337 -0.2317  0.0606
 2800SOL    HW210972   5.723   5.267   2.181  1.1668 -1.0404 -0.8531
 2800SOL    HW310973   5.781   5.302   2.317 -1.0623  0.3121 -0.2022
 2800SOL    MW410974   5.754   5.243   2.259 -0.0846 -0.2667 -0.0946
 2801SOL     OW10975   1.512   5.583   3.373  0.8244 -0.0084  0.0440
 2801SOL    HW210976   1.449   5.627   3.430  0.9500  0.3497 -0.0853
 2801SOL    HW310977   1.584   5.559   3.432  1.5021  1.4258 -0.1385
 2801SOL    MW410978   1.513   5.586   3.389  0.9304  0.2281  0.0028
 2802SOL     OW10979   3.530   0.150   6.139 -0.2190 -0.1105 -0.3472
 2802SOL    HW210980   3.562   0.060   6.135 -2.1579 -0.8566 -0.1772
 2802SOL    HW310981   3.575   0.189   6.214  0.2132 -1.1167 -0.0763
 2802SOL    MW410982   3.540   0.144   6.148 -0.4178 -0.3417 -0.2890
 2803SOL     OW10983   2.386   4.508   2.245  0.5623  0.4119  0.3689
 2803SOL    HW210984   2.445   4.456   2.192 -0.6334 -0.5255 -0.0785
 2803SOL    HW310985   2.328   4.551   2.182  1.1779  1.8724  0.7617
 2803SOL    MW410986   2.386   4.507   2.230  0.4857  0.4809  0.3617
 2804SOL     OW10987   4.906   3.935   5.339 -0.5168  0.5413 -0.5997
 2804SOL    HW210988   4.874   3.856   5.295 -0.2743 -0.0474  0.2611
 2804SOL    HW310989   4.844   4.003   5.312  0.7944  0.7371 -3.5580
 2804SOL    MW410990   4.893   3.934   5.329 -0.3118  0.4895 -0.8765
 2805SOL     OW10991   4.449   1.761   3.963 -0.2022 -0.5187 -0.0535
 2805SOL    HW210992   4.517   1.797   3.907 -0.1116  1.3068  1.1620
 2805SOL    HW310993   4.496   1.706   4.026 -0.0661 -0.7913 -0.3910
 2805SOL    MW410994   4.464   1.758   3.964 -0.1723 -0.3138  0.0624
 2806SOL     OW10995   1.666   3.910   3.059  0.2690 -0.1465  0.6972
 2806SOL    HW210996   1.596   3.954   3.108  1.2263  1.2787  0.8570
 2806SOL    HW310997   1.671   3.958   2.977 -0.1354 -1.4019 -0.0810
 2806SOL    MW410998   1.658   3.922   3.055  0.3420 -0.1241  0.6156
 2807SOL     OW10999   4.282   2.214   4.221  0.0153  0.3891 -0.1518
 2807SOL    HW211000   4.365   2.218   4.268 -0.1587  3.3237  0.0798
 2807SOL    HW311001   4.231   2.287   4.255 -1.6969  0.2081 -2.0902
 2807SOL    MW411002   4.286   2.224   4.231 -0.2336  0.7524 -0.3770
 2808SOL     OW11003   0.039   3.632   3.744  0.6331  0.4863 -0.0141
 2808SOL    HW211004  -0.047   3.656   3.709  0.0065  1.1423  1.8655
 2808SOL    HW311005   0.082   3.716   3.762  0.9476  0.1788  0.7161
 2808SOL    MW411006   0.033   3.647   3.742  0.5919  0.5323  0.3302
 2809SOL     OW11007   0.799   4.042   0.401 -0.0286 -0.3277  0.1964
 2809SOL    HW211008   0.855   3.973   0.365 -0.4612 -0.7206  0.2716
 2809SOL    HW311009   0.846   4.124   0.382 -0.5069 -0.4642 -1.8088
 2809SOL    MW411010   0.813   4.044   0.393 -0.1488 -0.3976 -0.0582
 2810SOL     OW11011   2.474   2.008   2.597  0.0438  0.2357  0.1576
 2810SOL    HW211012   2.432   2.088   2.628 -0.0377  0.2828 -0.0753
 2810SOL    HW311013   2.554   2.038   2.554  0.7709  0.0838  1.3748
 2810SOL    MW411014   2.479   2.022   2.595  0.1289  0.2219  0.2875
 2811SOL     OW11015   6.373   0.035   5.441  0.1852 -0.3587  0.0230
 2811SOL    HW211016   6.375  -0.045   5.494 -1.1199 -0.6247 -0.3106
 2811SOL    HW311017   6.412   0.102   5.497  1.9728 -1.3550  0.0528
 2811SOL    MW411018   6.379   0.033   5.455  0.2489 -0.5252 -0.0171
 2812SOL     OW11019   0.361   6.054   5.015  0.0032  0.4209 -0.4568
 2812SOL    HW211020   0.350   6.149   5.019  2.4311  0.7434  0.4230
 2812SOL    HW311021   0.417   6.034   5.090 -0.6267 -1.7581 -0.5029
 2812SOL    MW411022   0.367   6.064   5.026  0.2404  0.1760 -0.3468
 2813SOL     OW11023   3.285   3.603   4.325 -0.4950  0.0305 -0.1350
 2813SOL    HW211024   3.268   3.578   4.235  0.6235 -1.6394  0.0629
 2813SOL    HW311025   3.379   3.620   4.328 -0.6756  0.9677  0.5190
 2813SOL    MW411026   3.295   3.602   4.314 -0.3713 -0.0661 -0.0226
 2814SOL     OW11027   5.848   3.370   0.140  0.4304 -0.3050 -0.3321
 2814SOL    HW211028   5.914   3.416   0.088  1.0738  0.4476  1.0748
 2814SOL    HW311029   5.765   3.390   0.097  1.0541 -0.8389 -1.8391
 2814SOL    MW411030   5.846   3.379   0.127  0.5975 -0.2761 -0.3453
 2815SOL     OW11031   0.816   1.219   3.920 -0.1214 -0.3905  0.0935
 2815SOL    HW211032   0.788   1.203   4.010  1.1836 -0.2057  0.5541
 2815SOL    HW311033   0.888   1.282   3.929  1.3924 -1.9175 -0.9117
 2815SOL    MW411034   0.822   1.225   3.933  0.2505 -0.5676  0.0217
 2816SOL     OW11035   3.266   4.652   1.891 -0.4062  0.4750  0.6037
 2816SOL    HW211036   3.192   4.665   1.950 -0.2318  1.4680  0.6253
 2816SOL    HW311037   3.240   4.699   1.811  0.9746  2.5668  1.2843
 2816SOL    MW411038   3.253   4.660   1.888 -0.2010  0.8820  0.6963
 2817SOL     OW11039   4.671   4.492   2.566 -0.2783 -0.2316 -0.2381
 2817SOL    HW211040   4.764   4.498   2.589 -0.0167 -0.7706 -1.1155
 2817SOL    HW311041   4.660   4.551   2.492 -1.0200  1.1421  0.9098
 2817SOL    MW411042   4.682   4.501   2.560 -0.3416 -0.1214 -0.2024
 2818SOL     OW11043   0.413   3.539   3.489  0.1841  0.1995  0.3747
 2818SOL    HW211044   0.487   3.546   3.429  1.0154 -1.3265  1.1647
 2818SOL    HW311045   0.369   3.624   3.483  2.3403  1.3829  0.3437
 2818SOL    MW411046   0.417   3.551   3.480  0.5783  0.1543  0.4748
 2819SOL     OW11047   5.666   2.713   4.189 -0.3303 -0.2788 -0.4569
 2819SOL    HW211048   5.597   2.770   4.156  0.3929  0.6798 -0.3351
 2819SOL    HW311049   5.718   2.768   4.248  0.4822 -0.9988 -0.4737
 2819SOL    MW411050   5.664   2.728   4.192 -0.1277 -0.2473 -0.4431
 2820SOL     OW11051   3.580   0.841   5.464 -0.4164  0.1547  0.1402
 2820SOL    HW211052   3.673   0.821   5.462 -0.6791 -1.4479  1.5750
 2820SOL    HW311053   3.576   0.937   5.457  1.2914  0.2274 -0.3219
 2820SOL    MW411054   3.592   0.851   5.463 -0.2258 -0.0471  0.2685
 2821SOL     OW11055   4.208   6.389   0.041 -0.0822 -0.3101  0.0683
 2821SOL    HW211056   4.160   6.306   0.053 -2.2950  0.8668 -0.0879
 2821SOL    HW311057   4.255   6.402   0.123  0.9252 -2.0574 -0.1753
 2821SOL    MW411058   4.208   6.380   0.053 -0.2412 -0.3854  0.0156
 2822SOL     OW11059   1.795   6.291   2.570 -0.4254  0.1759  0.4009
 2822SOL    HW211060   1.886   6.317   2.557 -0.6258  0.3327 -0.7252
 2822SOL    HW311061   1.745   6.345   2.509 -1.1940 -0.5047  0.4089
 2822SOL    MW411062   1.800   6.301   2.560 -0.5532  0.1068  0.2534
 2823SOL     OW11063   2.183   5.334   0.511 -0.2008 -0.5615 -0.4580
 2823SOL    HW211064   2.110   5.369   0.564  0.5252 -0.7261  0.6905
 2823SOL    HW311065   2.253   5.320   0.574  0.6039 -1.0592 -1.4409
 2823SOL    MW411066   2.182   5.337   0.527  0.0012 -0.6489 -0.4361
 2824SOL     OW11067   5.782   4.682   0.838 -0.0487 -0.2153  0.0902
 2824SOL    HW211068   5.711   4.729   0.881 -0.0812 -0.2970  0.1262
 2824SOL    HW311069   5.808   4.614   0.901  0.5862  0.3110  0.4098
 2824SOL    MW411070   5.776   4.679   0.852  0.0308 -0.1566  0.1371
 2825SOL     OW11071   4.407   0.184   3.804 -0.0263  0.2143  0.9898
 2825SOL    HW211072   4.337   0.146   3.857  0.3811  0.4355  1.7047
 2825SOL    HW311073   4.439   0.258   3.856  1.0633 -0.1819  0.9157
 2825SOL    MW411074   4.402   0.189   3.818  0.1712  0.1912  1.0743
 2826SOL     OW11075   6.009   5.153   1.020 -0.4889 -0.4530  0.6024
 2826SOL    HW211076   5.956   5.130   1.097  0.0765  1.0358  1.4875
 2826SOL    HW311077   6.064   5.225   1.050  1.0136 -0.9976 -0.7130
 2826SOL    MW411078   6.009   5.159   1.034 -0.2161 -0.3284  0.5456
 2827SOL     OW11079   5.419   0.847   5.680  0.0735 -0.1387 -0.9171
 2827SOL    HW211080   5.506   0.867   5.644  0.5532 -0.2952  0.1382
 2827SOL    HW311081   5.426   0.757   5.712  0.2140  0.5579  1.1509
 2827SOL    MW411082   5.431   0.838   5.679  0.1553 -0.0674 -0.5050
 2828SOL     OW11083   0.320   1.695   3.092 -0.0306 -0.2489  0.1657
 2828SOL    HW211084   0.386   1.651   3.039  0.7121  0.4754  0.4657
 2828SOL    HW311085   0.237   1.662   3.058  0.4367 -0.1835 -1.1205
 2828SOL    MW411086   0.318   1.685   3.080  0.1291 -0.1447  0.0356
 2829SOL     OW11087   5.457   5.706   4.635 -0.3980 -0.3112  0.2855
 2829SOL    HW211088   5.481   5.796   4.613 -1.7733  0.3732  1.4160
 2829SOL    HW311089   5.485   5.695   4.725 -0.9800 -0.7307  0.4227
 2829SOL    MW411090   5.464   5.716   4.644 -0.6563 -0.2762  0.4528
 2830SOL     OW11091   2.807   1.028   5.776  0.2885 -0.1308 -0.4317
 2830SOL    HW211092   2.751   1.084   5.722  0.4387  0.1517 -0.2937
 2830SOL    HW311093   2.832   0.956   5.718  0.0034 -0.1154 -0.5748
 2830SOL    MW411094   2.803   1.026   5.761  0.2707 -0.0915 -0.4324
 2831SOL     OW11095   5.219   2.019   0.216 -0.1954 -0.3163 -0.1901
 2831SOL    HW211096   5.193   2.097   0.166  1.0443  0.3025  0.1022
 2831SOL    HW311097   5.313   2.028   0.228 -0.0786 -1.7330  0.1050
 2831SOL    MW411098   5.228   2.031   0.211 -0.0165 -0.4216 -0.1126
 2832SOL     OW11099   5.158   1.175   5.109  0.2472 -0.0095 -0.2203
 2832SOL    HW211100   5.198   1.100   5.066 -0.6515 -0.5709 -0.1142
 2832SOL    HW311101   5.080   1.139   5.152 -0.0760  0.9443  0.0154
 2832SOL    MW411102   5.153   1.160   5.109  0.0860  0.0423 -0.1752
 2833SOL     OW11103   5.336   1.851   5.947  0.3566  0.6242  0.1936
 2833SOL    HW211104   5.271   1.782   5.960  0.3753  0.7336  0.9244
 2833SOL    HW311105   5.292   1.916   5.892  0.5273 -0.2170 -0.9550
 2833SOL    MW411106   5.321   1.851   5.942  0.3816  0.5277  0.1385
 2834SOL     OW11107   4.388   2.966   0.816 -0.4084 -0.3711  0.1827
 2834SOL    HW211108   4.376   3.037   0.879 -3.8359  0.1674 -0.8751
 2834SOL    HW311109   4.455   2.998   0.756 -0.0869  0.8488  1.1454
 2834SOL    MW411110   4.396   2.980   0.817 -0.8182 -0.1391  0.1702
 2835SOL     OW11111   1.788   3.223   1.193 -0.5474 -0.0572  0.0627
 2835SOL    HW211112   1.859   3.267   1.240 -0.4670  0.6356 -0.6773
 2835SOL    HW311113   1.751   3.162   1.256  1.0532 -0.8128  0.3031
 2835SOL    MW411114   1.792   3.221   1.207 -0.3256 -0.0655 -0.0032
 2836SOL     OW11115   2.380   0.787   2.333  0.1367 -0.2478 -0.9398
 2836SOL    HW211116   2.300   0.765   2.379  0.2387  0.4340 -0.4269
 2836SOL    HW311117   2.368   0.878   2.306  0.6536 -0.2086 -1.0464
 2836SOL    MW411118   2.368   0.796   2.335  0.2184 -0.1527 -0.8862
 2837SOL     OW11119   5.433   1.020   6.125  0.9608 -0.2022  0.2561
 2837SOL    HW211120   5.349   1.000   6.083  0.5602  0.4050  0.7342
 2837SOL    HW311121   5.494   1.031   6.052  0.0105  2.0820 -0.2968
 2837SOL    MW411122   5.430   1.019   6.110  0.7826  0.1793  0.2463
 2838SOL     OW11123   3.137   5.509   4.484 -0.5678  0.1003  0.3770
 2838SOL    HW211124   3.086   5.530   4.406 -0.1069 -0.6439 -0.1406
 2838SOL    HW311125   3.213   5.567   4.478 -1.9088  2.1155  1.8047
 2838SOL    MW411126   3.140   5.519   4.473 -0.6839  0.2680  0.4971
 2839SOL     OW11127   3.390   5.623   6.192 -1.2041 -0.4263 -0.5044
 2839SOL    HW211128   3.317   5.617   6.254 -2.0570  0.0312 -1.4333
 2839SOL    HW311129   3.376   5.706   6.147 -0.8916 -0.9920 -1.6770
 2839SOL    MW411130   3.379   5.633   6.194 -1.2754 -0.4406 -0.7817
 2840SOL     OW11131   5.731   4.298  -0.020  0.2346 -0.4124  0.1837
 2840SOL    HW211132   5.698   4.385   0.003 -0.1197  0.1068 -2.0699
 2840SOL    HW311133   5.812   4.289   0.031  0.3515  1.3059  0.3709
 2840SOL    MW411134   5.738   4.308  -0.010  0.2033 -0.1172 -0.0890
 2841SOL     OW11135   2.234   2.817   0.940  0.3106 -0.3323 -0.0565
 2841SOL    HW211136   2.255   2.902   0.900 -1.5034 -0.0963 -0.5807
 2841SOL    HW311137   2.255   2.828   1.032 -0.3012  0.8481 -0.0395
 2841SOL    MW411138   2.240   2.830   0.947 -0.0095 -0.1454 -0.1234
 2842SOL     OW11139   4.583   0.643   3.585  0.2628 -0.0648 -0.0535
 2842SOL    HW211140   4.616   0.694   3.511  1.5584 -1.6658 -0.6313
 2842SOL    HW311141   4.566   0.709   3.653 -0.5555  1.3919 -1.5864
 2842SOL    MW411142   4.585   0.659   3.584  0.3258 -0.0839 -0.3320
 2843SOL     OW11143   2.330   1.388   0.856  0.2655 -0.8016  0.0187
 2843SOL    HW211144   2.282   1.306   0.858 -1.4712  0.1525 -0.4826
 2843SOL    HW311145   2.284   1.445   0.917  1.3976 -0.1498  0.3044
 2843SOL    MW411146   2.318   1.385   0.864  0.1857 -0.5897 -0.0097
 2844SOL     OW11147   4.288   5.084   0.886  0.0516  0.1095  0.3711
 2844SOL    HW211148   4.324   5.134   0.959  0.1924  1.9113 -0.8607
 2844SOL    HW311149   4.194   5.082   0.902 -0.1256  1.9874 -0.2127
 2844SOL    MW411150   4.280   5.090   0.898  0.0468  0.5950  0.1316
 2845SOL     OW11151   5.618   3.335   4.652  0.0132 -0.2119  0.2201
 2845SOL    HW211152   5.591   3.427   4.652 -0.9180 -0.4834  0.1862
 2845SOL    HW311153   5.551   3.290   4.703  0.1809 -0.9630 -0.2121
 2845SOL    MW411154   5.606   3.341   4.659 -0.0875 -0.3468  0.1586
 2846SOL     OW11155   5.629   0.591   5.504 -1.2131  0.5473 -0.4437
 2846SOL    HW211156   5.689   0.536   5.452 -1.0403  1.7019 -1.5233
 2846SOL    HW311157   5.548   0.592   5.454 -1.5069  0.5570  0.0292
 2846SOL    MW411158   5.627   0.584   5.490 -1.2291  0.7009 -0.5237
 2847SOL     OW11159   5.533   5.190   4.187  0.5988  0.1709 -0.1777
 2847SOL    HW211160   5.510   5.274   4.147  0.9285 -0.2048 -1.2059
 2847SOL    HW311161   5.561   5.135   4.113  1.1647 -0.5857  0.5724
 2847SOL    MW411162   5.534   5.194   4.172  0.7169  0.0215 -0.2144
 2848SOL     OW11163   4.707   5.019   2.977  0.0018 -0.0686  0.3722
 2848SOL    HW211164   4.802   5.017   2.975 -0.0020 -0.7075  0.5840
 2848SOL    HW311165   4.682   4.938   3.022 -0.7078 -1.7079 -2.6712
 2848SOL    MW411166   4.716   5.008   2.983 -0.0924 -0.3692 -0.0014
 2849SOL     OW11167   0.437   2.159   1.003  0.5936  0.6642 -0.8701
 2849SOL    HW211168   0.405   2.145   0.914  1.3308 -1.1563 -0.8778
 2849SOL    HW311169   0.510   2.099   1.012  0.0749  0.2830  1.2089
 2849SOL    MW411170   0.442   2.149   0.992  0.6224  0.3737 -0.5968
 2850SOL     OW11171   5.800   2.639   0.917 -0.3391 -0.5645 -0.2635
 2850SOL    HW211172   5.737   2.574   0.886  0.6022 -1.7295  0.1889
 2850SOL    HW311173   5.836   2.678   0.838  3.2303 -4.6166 -0.9791
 2850SOL    MW411174   5.796   2.635   0.903  0.2560 -1.2528 -0.2982
 2851SOL     OW11175   5.639   2.427   1.848  0.0909 -0.2356  0.0505
 2851SOL    HW211176   5.663   2.393   1.762 -1.0304 -1.1605  0.0754
 2851SOL    HW311177   5.545   2.446   1.841 -0.1358 -0.8061  1.2084
 2851SOL    MW411178   5.630   2.425   1.836 -0.0870 -0.4329  0.2066
 2852SOL     OW11179   1.306   2.724   4.193 -0.2264  0.1125 -0.0097
 2852SOL    HW211180   1.402   2.715   4.193  0.1529  3.0556  0.1245
 2852SOL    HW311181   1.277   2.673   4.117  1.6095  0.3681 -0.9365
 2852SOL    MW411182   1.315   2.716   4.183  0.0659  0.5345 -0.1143
 2853SOL     OW11183   5.605   6.313   0.106 -0.4408  0.0083  0.4675
 2853SOL    HW211184   5.694   6.320   0.070  0.9739  0.3049  3.6512
 2853SOL    HW311185   5.573   6.404   0.107 -1.2128 -0.1894 -1.4566
 2853SOL    MW411186   5.613   6.326   0.101 -0.3560  0.0214  0.6336
 2854SOL     OW11187   5.746   0.711   1.896  0.0359  0.0858 -0.2323
 2854SOL    HW211188   5.723   0.727   1.988  0.1335  1.9559 -0.5105
 2854SOL    HW311189   5.664   0.721   1.848  0.1818  0.1298 -0.4746
 2854SOL    MW411190   5.732   0.714   1.902  0.0681  0.3384 -0.3010
 2855SOL     OW11191   5.031   5.475   3.520 -0.0370  0.3182  0.0219
 2855SOL    HW211192   5.022   5.506   3.610 -2.9633 -1.8817  0.6382
 2855SOL    HW311193   5.019   5.553   3.466 -3.0342  1.0259  1.5177
 2855SOL    MW411194   5.028   5.489   3.525 -0.8185  0.1213  0.3006
 2856SOL     OW11195   1.119   1.706   0.689  0.1751 -0.3261  0.0915
 2856SOL    HW211196   1.167   1.627   0.713  1.1994  0.1690 -0.2624
 2856SOL    HW311197   1.166   1.741   0.613  0.9633  1.6628  1.4082
 2856SOL    MW411198   1.131   1.700   0.682  0.4142  0.0016  0.2185
 2857SOL     OW11199   0.826   2.562   5.851 -0.1284 -0.2124  0.0716
 2857SOL    HW211200   0.752   2.562   5.790 -0.4236 -0.7580  0.4241
 2857SOL    HW311201   0.852   2.470   5.857  1.5937  0.1536 -1.2580
 2857SOL    MW411202   0.819   2.550   5.844  0.0599 -0.2361 -0.0573
 2858SOL     OW11203   5.641   2.246   2.506  0.6560  0.2240 -0.7461
 2858SOL    HW211204   5.703   2.246   2.432  2.5205 -1.0538  0.7292
 2858SOL    HW311205   5.600   2.159   2.502 -0.2204  0.6406 -1.0262
 2858SOL    MW411206   5.644   2.234   2.495  0.7864  0.1103 -0.5884
 2859SOL     OW11207   1.160   6.414   1.061  0.2456  0.2983 -0.4875
 2859SOL    HW211208   1.224   6.345   1.076 -0.4333 -0.1651  0.4446
 2859SOL    HW311209   1.207   6.495   1.080  0.9798  0.0821 -1.3479
 2859SOL    MW411210   1.174   6.415   1.066  0.2529  0.2087 -0.4780
 2860SOL     OW11211   0.775   2.349   0.618  0.3536  0.5770  0.1565
 2860SOL    HW211212   0.811   2.295   0.688  1.4918  0.9519 -0.1225
 2860SOL    HW311213   0.772   2.291   0.542 -0.2199  0.3733  0.3284
 2860SOL    MW411214   0.779   2.334   0.617  0.4281  0.5996  0.1424
 2861SOL     OW11215   0.451   3.760   1.246  0.0253  0.2684 -0.1238
 2861SOL    HW211216   0.424   3.709   1.170  1.0413 -0.2059 -0.1852
 2861SOL    HW311217   0.416   3.848   1.230 -1.6594 -0.3677 -0.0625
 2861SOL    MW411218   0.443   3.765   1.234 -0.0629  0.1219 -0.1238
 2862SOL     OW11219   5.366   1.827   1.554 -0.4108 -0.3106  0.2657
 2862SOL    HW211220   5.386   1.916   1.584 -2.3461  0.4915 -0.6179
 2862SOL    HW311221   5.296   1.798   1.613  0.0253 -1.1583  0.3742
 2862SOL    MW411222   5.359   1.835   1.566 -0.6086 -0.3167  0.1635
 2863SOL     OW11223   0.354   0.569   3.403  0.4441 -0.1342 -0.5921
 2863SOL    HW211224   0.273   0.588   3.356 -0.0460  0.7293  0.5632
 2863SOL    HW311225   0.415   0.636   3.374 -0.5743  1.9182  1.7099
 2863SOL    MW411226   0.351   0.580   3.393  0.2451  0.2505 -0.1360
 2864SOL     OW11227   5.744   3.138   0.511 -0.2838  0.3614  0.3021
 2864SOL    HW211228   5.802   3.062   0.515  0.2157  0.7295  0.1660
 2864SOL    HW311229   5.666   3.111   0.561 -0.7046 -0.7308 -0.8956
 2864SOL    MW411230   5.741   3.124   0.518 -0.2734  0.2659  0.1261
 2865SOL     OW11231   3.983   5.900   2.647  0.1248  0.1941  0.4082
 2865SOL    HW211232   3.931   5.866   2.720 -0.1621  1.0511  0.6028
 2865SOL    HW311233   4.073   5.879   2.671  0.0651  0.7756  1.1866
 2865SOL    MW411234   3.988   5.892   2.660  0.0790  0.3839  0.5366
 2866SOL     OW11235   0.610   1.428   3.886 -0.1599  0.0080 -0.1008
 2866SOL    HW211236   0.601   1.443   3.792  0.9013  0.7085 -0.1083
 2866SOL    HW311237   0.685   1.368   3.894  1.3152  1.8262  0.3865
 2866SOL    MW411238   0.619   1.422   3.874  0.1747  0.3403 -0.0375
 2867SOL     OW11239   0.091   1.531   6.090 -0.1455  0.1279 -0.5553
 2867SOL    HW211240   0.031   1.457   6.086  0.7014 -0.6909  0.8403
 2867SOL    HW311241   0.133   1.532   6.004 -0.6058 -0.6430 -0.8052
 2867SOL    MW411242   0.089   1.521   6.078 -0.0945 -0.0818 -0.4042
 2868SOL     OW11243   4.630   3.661   0.705 -0.2182 -0.6587 -0.2811
 2868SOL    HW211244   4.668   3.715   0.635  0.3851 -1.2835 -0.4499
 2868SOL    HW311245   4.578   3.595   0.658  0.0833 -0.9995 -0.1446
 2868SOL    MW411246   4.628   3.659   0.689 -0.0988 -0.7861 -0.2854
 2869SOL     OW11247   5.829   2.643   3.090  0.6222  0.0015  0.3158
 2869SOL    HW211248   5.897   2.710   3.103  0.2340  0.5149 -0.2120
 2869SOL    HW311249   5.872   2.560   3.110  1.6827  0.2229 -0.9358
 2869SOL    MW411250   5.843   2.641   3.095  0.7109  0.0984  0.0810
 2870SOL     OW11251   3.578   3.958   4.212 -0.3675  0.0989 -0.0232
 2870SOL    HW211252   3.587   3.972   4.118 -0.0938  0.7623  0.0943
 2870SOL    HW311253   3.615   3.872   4.227 -0.5555 -0.0790 -0.5439
 2870SOL    MW411254   3.584   3.949   4.202 -0.3562  0.1630 -0.0764
 2871SOL     OW11255   2.424   4.120   0.248 -0.3395 -0.1122  0.4943
 2871SOL    HW211256   2.349   4.075   0.209 -0.1058 -0.1289  0.0643
 2871SOL    HW311257   2.418   4.209   0.214  1.0255 -0.6337 -1.2488
 2871SOL    MW411258   2.413   4.126   0.238 -0.1286 -0.1832  0.2076
 2872SOL     OW11259   2.114   1.720   2.297 -0.1205 -0.0447 -0.0207
 2872SOL    HW211260   2.183   1.733   2.361  0.4614 -0.0950 -0.6356
 2872SOL    HW311261   2.129   1.632   2.262 -0.3475  0.0328 -0.3231
 2872SOL    MW411262   2.125   1.710   2.301 -0.0737 -0.0411 -0.1417
 2873SOL     OW11263   2.452   0.696   5.005  0.6916 -0.1021  0.2468
 2873SOL    HW211264   2.406   0.711   5.088  0.7386  0.9731  0.0982
 2873SOL    HW311265   2.545   0.704   5.027  0.7578 -0.9154  0.2900
 2873SOL    MW411266   2.458   0.699   5.019  0.7066 -0.0675  0.2329
 2874SOL     OW11267   6.408   1.713   3.752 -0.3406  0.4536  0.5176
 2874SOL    HW211268   6.337   1.735   3.692 -0.4360 -1.6295 -0.2189
 2874SOL    HW311269   6.448   1.797   3.774 -0.4942  1.3315 -2.2438
 2874SOL    MW411270   6.404   1.727   3.747 -0.3735  0.2946  0.0561
 2875SOL     OW11271   3.102   3.082   3.529 -0.1958 -0.1251 -0.6925
 2875SOL    HW211272   3.082   2.989   3.544  2.2047 -0.6016  0.0971
 2875SOL    HW311273   3.149   3.083   3.446 -0.9735  0.5327 -1.1359
 2875SOL    MW411274   3.105   3.070   3.520  0.0183 -0.1012 -0.6468
 2876SOL     OW11275   0.595   1.580   0.340 -0.2849 -0.2210  0.0949
 2876SOL    HW211276   0.557   1.590   0.253 -0.1267 -1.0796 -0.0845
 2876SOL    HW311277   0.678   1.627   0.335 -0.6514  0.4260  0.0396
 2876SOL    MW411278   0.601   1.587   0.328 -0.3124 -0.2489  0.0640
 2877SOL     OW11279   0.474   3.475   1.359 -0.4784  0.3034  0.4198
 2877SOL    HW211280   0.491   3.568   1.377  0.8867  0.7689 -2.6670
 2877SOL    HW311281   0.386   3.473   1.323  0.3486  0.8843 -1.8283
 2877SOL    MW411282   0.465   3.487   1.357 -0.1891  0.4415 -0.2841
 2878SOL     OW11283   5.979   6.215   2.227  0.1202 -0.0941  0.2765
 2878SOL    HW211284   6.009   6.280   2.290 -0.4467  0.6569 -0.2211
 2878SOL    HW311285   5.962   6.136   2.279 -3.2649  1.3488  1.6098
 2878SOL    MW411286   5.981   6.213   2.242 -0.4012  0.1954  0.3868
 2879SOL     OW11287   0.871   4.402   1.199 -0.0466  0.1865  0.4737
 2879SOL    HW211288   0.789   4.415   1.153  0.0154 -0.4864  0.1651
 2879SOL    HW311289   0.859   4.447   1.283 -0.1712  1.3853 -0.1580
 2879SOL    MW411290   0.859   4.410   1.204 -0.0549  0.2559  0.3496
 2880SOL     OW11291   0.961   3.270   0.550  0.1382  0.1545 -0.6930
 2880SOL    HW211292   1.043   3.281   0.502  0.2504 -0.1633 -0.5784
 2880SOL    HW311293   0.893   3.280   0.483  0.2782  0.1886 -0.8308
 2880SOL    MW411294   0.963   3.273   0.535  0.1715  0.1170 -0.6961
 2881SOL     OW11295   1.151   0.567   4.570  0.0821  0.2525 -0.1232
 2881SOL    HW211296   1.245   0.580   4.556 -0.1683  1.7373 -0.5763
 2881SOL    HW311297   1.111   0.594   4.487 -0.8748  1.6340  0.7427
 2881SOL    MW411298   1.158   0.572   4.557 -0.0772  0.6307 -0.0688
 2882SOL     OW11299   0.735   5.908   4.220  0.2227  0.5067  0.2118
 2882SOL    HW211300   0.762   5.998   4.238 -1.8563  1.0803  0.6734
 2882SOL    HW311301   0.747   5.863   4.303  1.6731  0.1976 -0.1264
 2882SOL    MW411302   0.740   5.914   4.233  0.1397  0.5416  0.2281
 2883SOL     OW11303   0.110   1.980   2.672 -0.0991 -0.2109 -0.2627
 2883SOL    HW211304   0.104   1.887   2.654 -0.3950 -0.1543 -0.4639
 2883SOL    HW311305   0.040   1.997   2.736 -0.8512  0.0910 -1.1386
 2883SOL    MW411306   0.100   1.970   2.678 -0.2374 -0.1636 -0.4048
 2884SOL     OW11307   2.245   0.815   0.455  0.5041 -0.1099  0.2656
 2884SOL    HW211308   2.257   0.829   0.361 -2.3541 -0.7844 -0.3155
 2884SOL    HW311309   2.210   0.726   0.461 -1.2975  0.6245  1.7072
 2884SOL    MW411310   2.242   0.805   0.443 -0.1107 -0.1020  0.3792
 2885SOL     OW11311   5.380   0.045   2.142  0.0426  0.3792  0.0933
 2885SOL    HW211312   5.419   0.121   2.184 -1.4549  0.9415  0.5171
 2885SOL    HW311313   5.349   0.077   2.057  0.7895 -0.1579 -0.4078
 2885SOL    MW411314   5.381   0.059   2.136 -0.0564  0.3826  0.0831
 2886SOL     OW11315   2.324   0.950   0.199  0.0306  0.0361 -0.1957
 2886SOL    HW211316   2.418   0.934   0.211  0.2240  0.7725 -0.6820
 2886SOL    HW311317   2.310   0.934   0.106 -0.2714  0.2307 -0.1811
 2886SOL    MW411318   2.335   0.946   0.188  0.0163  0.1589 -0.2579
 2887SOL     OW11319   4.587   3.155   3.883 -0.5979  0.2802 -0.1564
 2887SOL    HW211320   4.667   3.106   3.864 -0.2492  0.3193  1.1373
 2887SOL    HW311321   4.534   3.147   3.803  0.1311 -0.8582 -0.5431
 2887SOL    MW411322   4.590   3.147   3.870 -0.4557  0.1352 -0.0368
 2888SOL     OW11323   0.968   4.514   5.688 -0.2008  0.2298  0.1288
 2888SOL    HW211324   0.890   4.563   5.664 -1.5791 -0.4786  2.7919
 2888SOL    HW311325   0.948   4.423   5.665  1.0080  0.3638 -1.6967
 2888SOL    MW411326   0.955   4.508   5.682 -0.2232  0.1540  0.2393
 2889SOL     OW11327   5.290   0.886   3.906 -0.2980 -0.7536 -0.5513
 2889SOL    HW211328   5.385   0.893   3.920 -0.2353 -1.5944 -0.5383
 2889SOL    HW311329   5.275   0.931   3.824  0.1055 -0.5619 -0.5255
 2889SOL    MW411330   5.301   0.893   3.897 -0.2365 -0.8392 -0.5462
 2890SOL     OW11331   5.562   0.799   1.718 -0.1399 -0.3060 -0.1866
 2890SOL    HW211332   5.487   0.745   1.691  0.1418 -0.3272 -0.9590
 2890SOL    HW311333   5.525   0.886   1.731 -0.3292 -0.3559 -0.3860
 2890SOL    MW411334   5.547   0.803   1.716 -0.1277 -0.3154 -0.3148
 2891SOL     OW11335   3.801   3.114   4.250 -0.5794 -0.3507 -0.0902
 2891SOL    HW211336   3.769   3.032   4.212 -2.1856  0.4395 -0.5593
 2891SOL    HW311337   3.815   3.172   4.175 -1.5261  0.4705  0.3309
 2891SOL    MW411338   3.799   3.111   4.235 -0.9162 -0.1381 -0.0965
 2892SOL     OW11339   1.480   5.763   1.106  0.3298 -0.1752  0.0355
 2892SOL    HW211340   1.534   5.688   1.082 -0.2661 -0.3359 -0.8928
 2892SOL    HW311341   1.393   5.725   1.122  0.3274  0.1585  0.8526
 2892SOL    MW411342   1.475   5.748   1.105  0.2508 -0.1524  0.0209
 2893SOL     OW11343   0.514   4.838   0.430 -0.0140  0.4159 -0.1814
 2893SOL    HW211344   0.604   4.804   0.428 -0.2261 -0.2216  0.6709
 2893SOL    HW311345   0.512   4.896   0.506 -0.2638  0.6119 -0.3354
 2893SOL    MW411346   0.526   4.841   0.440 -0.0750  0.3576 -0.0893
 2894SOL     OW11347   1.484   3.557   0.376 -0.2583  0.2698  0.5681
 2894SOL    HW211348   1.410   3.500   0.354 -0.7042  0.7468  0.7955
 2894SOL    HW311349   1.470   3.580   0.468 -0.1494  0.8363  0.4498
 2894SOL    MW411350   1.472   3.553   0.386 -0.3028  0.4075  0.5825
 2895SOL     OW11351   4.855   6.377   3.855  0.2979  0.2417  0.1045
 2895SOL    HW211352   4.899   6.325   3.788 -0.2084  0.4944 -0.4356
 2895SOL    HW311353   4.775   6.407   3.813  0.2857  0.9441  0.6133
 2895SOL    MW411354   4.851   6.374   3.841  0.2295  0.3677  0.1004
 2896SOL     OW11355   4.614   0.188   1.155  0.1240 -0.4718 -0.1564
 2896SOL    HW211356   4.627   0.111   1.211  0.1892  0.8398  1.7221
 2896SOL    HW311357   4.523   0.213   1.169  0.6275  0.9454  0.8625
 2896SOL    MW411358   4.604   0.181   1.164  0.1990 -0.1117  0.2258
 2897SOL     OW11359   1.628   3.153   6.359 -0.1793 -0.1701  0.2263
 2897SOL    HW211360   1.636   3.248   6.347 -0.1602  0.1175  2.2175
 2897SOL    HW311361   1.691   3.116   6.297 -0.5640  1.0800 -0.9571
 2897SOL    MW411362   1.637   3.161   6.349 -0.2276  0.0328  0.3329
 2898SOL     OW11363   5.980   3.988   4.011 -0.0615 -0.3285 -0.6091
 2898SOL    HW211364   5.987   3.915   4.073  0.9387  1.5461  1.6593
 2898SOL    HW311365   5.905   4.039   4.043 -0.9640 -0.5030 -2.3628
 2898SOL    MW411366   5.971   3.985   4.024 -0.0486 -0.1042 -0.5412
 2899SOL     OW11367   3.326   2.390   3.929  0.1653 -0.6468  0.1799
 2899SOL    HW211368   3.400   2.334   3.907  0.4053  1.0971 -4.5760
 2899SOL    HW311369   3.366   2.472   3.960 -0.1053 -1.3989  2.8336
 2899SOL    MW411370   3.341   2.394   3.930  0.1613 -0.5159 -0.0975
 2900SOL     OW11371   0.361   4.015   0.905 -0.8172 -0.1427  0.2974
 2900SOL    HW211372   0.400   4.098   0.878  2.6313 -1.4708  0.5859
 2900SOL    HW311373   0.380   4.009   0.998  2.4195 -2.6800 -0.3269
 2900SOL    MW411374   0.369   4.025   0.913  0.0648 -0.6527  0.2531
 2901SOL     OW11375   3.486   2.889   4.730 -0.0784 -0.2305 -0.0164
 2901SOL    HW211376   3.479   2.943   4.808 -0.2028  3.2590 -2.2414
 2901SOL    HW311377   3.577   2.898   4.702 -0.8008  1.6088 -2.1107
 2901SOL    MW411378   3.497   2.897   4.736 -0.1901  0.4726 -0.5862
 2902SOL     OW11379   1.485   5.399   2.199 -0.9494  0.1829 -0.2053
 2902SOL    HW211380   1.422   5.389   2.270 -0.3506  0.4948  0.3744
 2902SOL    HW311381   1.507   5.310   2.173 -1.8959  0.0663 -0.6642
 2902SOL    MW411382   1.480   5.386   2.205 -0.9953  0.2087 -0.1893
 2903SOL     OW11383   0.886   5.613   1.146  0.1450  0.1902 -0.3521
 2903SOL    HW211384   0.922   5.689   1.101  0.0619  0.1179 -0.5417
 2903SOL    HW311385   0.802   5.642   1.180  1.4177  1.1396  2.2608
 2903SOL    MW411386   0.880   5.627   1.145  0.3020  0.3059 -0.0324
 2904SOL     OW11387   2.517   4.134   2.882  0.1065  0.0063 -0.5187
 2904SOL    HW211388   2.526   4.227   2.861 -3.5678  0.9137  1.1029
 2904SOL    HW311389   2.441   4.105   2.831 -1.0767 -1.0721  1.7158
 2904SOL    MW411390   2.508   4.142   2.872 -0.5344 -0.0163 -0.0099
 2905SOL     OW11391   1.532   3.606   1.900 -0.1632  0.2846 -0.0214
 2905SOL    HW211392   1.481   3.609   1.980 -1.0754 -2.2466 -0.4171
 2905SOL    HW311393   1.521   3.516   1.867  0.1296  1.2019 -2.9819
 2905SOL    MW411394   1.523   3.595   1.906 -0.2449  0.0717 -0.4642
 2906SOL     OW11395   0.454   0.115   4.519  0.2505  0.2715  0.0412
 2906SOL    HW211396   0.384   0.131   4.582 -0.1855  1.3781 -0.6963
 2906SOL    HW311397   0.409   0.086   4.439  0.5381  1.7252 -0.6831
 2906SOL    MW411398   0.439   0.113   4.517  0.2309  0.6093 -0.1516
 2907SOL     OW11399   1.493   3.754   6.095  0.3380  0.3139  0.1595
 2907SOL    HW211400   1.489   3.842   6.057 -0.4221  0.3137  0.2148
 2907SOL    HW311401   1.585   3.740   6.114  1.2228 -0.5707 -3.7633
 2907SOL    MW411402   1.505   3.764   6.092  0.3544  0.1972 -0.3508
 2908SOL     OW11403   5.682   2.269   4.518 -0.5290 -0.2990 -0.1789
 2908SOL    HW211404   5.744   2.246   4.449  0.4046 -0.6771  0.7592
 2908SOL    HW311405   5.601   2.223   4.494  0.0474 -1.1405 -0.5575
 2908SOL    MW411406   5.679   2.260   4.506 -0.3298 -0.4599 -0.1050
 2909SOL     OW11407   5.568   2.887   1.808 -0.2448  0.4089 -0.6211
 2909SOL    HW211408   5.486   2.837   1.804 -0.1276  0.2678 -1.5039
 2909SOL    HW311409   5.634   2.823   1.836 -0.2698  0.2929 -0.8219
 2909SOL    MW411410   5.566   2.872   1.811 -0.2326  0.3750 -0.7641
 2910SOL     OW11411   0.632   0.769   3.663  0.3792  0.2456 -0.1445
 2910SOL    HW211412   0.603   0.832   3.729 -0.0798  0.1226 -0.2236
 2910SOL    HW311413   0.699   0.717   3.708  0.6248  0.6695 -0.0227
 2910SOL    MW411414   0.637   0.770   3.678  0.3510  0.2853 -0.1389
 2911SOL     OW11415   4.381   5.103   6.076  0.4144  0.4181  0.0146
 2911SOL    HW211416   4.392   5.015   6.040 -1.0438  0.7395 -1.3233
 2911SOL    HW311417   4.408   5.094   6.168  0.9392 -1.2579 -0.2592
 2911SOL    MW411418   4.386   5.090   6.084  0.2912  0.2393 -0.1981
 2912SOL     OW11419   2.046   1.740   5.340  0.2701  0.7623  0.7306
 2912SOL    HW211420   2.015   1.819   5.296  1.5366  0.7363 -0.2418
 2912SOL    HW311421   1.980   1.724   5.408 -2.4428  0.1277 -1.8344
 2912SOL    MW411422   2.033   1.749   5.344  0.0793  0.6752  0.2639
 2913SOL     OW11423   0.485   2.663   1.428 -0.4744 -0.5305  0.2365
 2913SOL    HW211424   0.519   2.752   1.435  0.3648 -0.6996 -1.3633
 2913SOL    HW311425   0.561   2.607   1.440 -1.0405 -1.0766  1.5030
 2913SOL    MW411426   0.500   2.667   1.431 -0.4384 -0.6249  0.1925
 2914SOL     OW11427   3.233   5.595   5.258 -0.2275  0.3530  0.0754
 2914SOL    HW211428   3.240   5.500   5.262 -0.4728  0.3585  0.9245
 2914SOL    HW311429   3.297   5.627   5.321 -2.3240  0.6164  2.2334
 2914SOL    MW411430   3.242   5.587   5.267 -0.5365  0.3885  0.4722
 2915SOL     OW11431   4.830   2.284   2.482 -0.1922 -0.1018  0.3035
 2915SOL    HW211432   4.875   2.318   2.404  0.8465 -0.9124  0.5166
 2915SOL    HW311433   4.850   2.190   2.482  0.0641 -0.0742  1.6892
 2915SOL    MW411434   4.839   2.276   2.472 -0.0214 -0.2051  0.5144
 2916SOL     OW11435   1.956   4.447   2.206 -0.1687 -0.4616  0.1427
 2916SOL    HW211436   1.920   4.366   2.168 -0.4002 -1.5321  2.4487
 2916SOL    HW311437   2.006   4.486   2.135 -3.1351 -0.6036 -2.2643
 2916SOL    MW411438   1.958   4.441   2.191 -0.5906 -0.6216  0.1294
 2917SOL     OW11439   4.668   4.255   1.822 -0.0927  0.4601 -0.7271
 2917SOL    HW211440   4.628   4.172   1.797 -0.7390  0.4902  0.1502
 2917SOL    HW311441   4.705   4.290   1.741  0.5548 -0.8798 -1.0292
 2917SOL    MW411442   4.668   4.249   1.808 -0.0925  0.2873 -0.6512
 2918SOL     OW11443   3.997   4.186   6.300  0.7113  0.4361 -0.0038
 2918SOL    HW211444   3.918   4.222   6.260  0.5127 -0.1135 -0.1080
 2918SOL    HW311445   4.068   4.208   6.239  0.3938 -0.5128 -0.7281
 2918SOL    MW411446   3.996   4.194   6.287  0.6432  0.2384 -0.1131
 2919SOL     OW11447   5.380   6.003   3.620  0.3409  0.5601  0.8769
 2919SOL    HW211448   5.331   6.031   3.543  0.0231  0.2101  0.9474
 2919SOL    HW311449   5.469   5.990   3.588  0.1995  0.3617  0.5580
 2919SOL    MW411450   5.385   6.005   3.606  0.2803  0.4878  0.8441
 2920SOL     OW11451   4.725   3.317   2.907  0.0626  0.3568  0.0894
 2920SOL    HW211452   4.782   3.342   2.834  1.6648  0.4412  1.3104
 2920SOL    HW311453   4.723   3.394   2.964  0.4225 -0.3195  1.0596
 2920SOL    MW411454   4.733   3.330   2.905  0.3215  0.2787  0.3785
 2921SOL     OW11455   5.068   6.368   1.607  0.2891  0.3065  0.2323
 2921SOL    HW211456   5.156   6.381   1.571  0.6261 -0.3560  0.7708
 2921SOL    HW311457   5.084   6.332   1.695 -0.5221 -0.0230  0.2547
 2921SOL    MW411458   5.082   6.365   1.614  0.2265  0.1756  0.3063
 2922SOL     OW11459   2.484   3.407   3.037  0.3259 -0.4192  0.0745
 2922SOL    HW211460   2.389   3.421   3.036  0.5285  1.1347 -1.3980
 2922SOL    HW311461   2.495   3.318   3.003 -0.5857 -0.6026  0.2169
 2922SOL    MW411462   2.473   3.397   3.032  0.2324 -0.2384 -0.1010
 2923SOL     OW11463   4.959   0.238   0.230 -0.1497  0.2106  0.5757
 2923SOL    HW211464   5.009   0.274   0.303 -1.4205  0.3281  1.4308
 2923SOL    HW311465   4.894   0.306   0.209 -0.5122 -0.2779  0.0704
 2923SOL    MW411466   4.957   0.252   0.237 -0.3652  0.1617  0.6219
 2924SOL     OW11467   6.263   2.344   1.165 -0.0521 -0.3790  0.2689
 2924SOL    HW211468   6.276   2.374   1.076 -1.2124 -1.4541 -0.2967
 2924SOL    HW311469   6.168   2.333   1.173 -0.0269  0.3041  1.8435
 2924SOL    MW411470   6.252   2.346   1.155 -0.2019 -0.4307  0.4020
 2925SOL     OW11471   4.065   6.214   1.933 -0.2224 -0.1147 -0.0072
 2925SOL    HW211472   4.000   6.147   1.955  0.3897 -0.8352 -0.3753
 2925SOL    HW311473   4.100   6.188   1.848 -0.8102  1.3239 -0.7339
 2925SOL    MW411474   4.061   6.202   1.925 -0.2192 -0.0200 -0.1516
 2926SOL     OW11475   2.445   3.159   2.022  0.0258 -0.1624  0.0250
 2926SOL    HW211476   2.480   3.136   2.108  0.6710 -0.3803 -0.2852
 2926SOL    HW311477   2.481   3.246   2.004 -1.2641  0.5126  0.5811
 2926SOL    MW411478   2.454   3.167   2.031 -0.0593 -0.1021  0.0575
 2927SOL     OW11479   0.630   2.428   6.167 -0.4706  0.2224  0.0458
 2927SOL    HW211480   0.622   2.405   6.074  2.7420 -2.4945  0.2352
 2927SOL    HW311481   0.697   2.496   6.169  0.8150 -1.0139  0.4170
 2927SOL    MW411482   0.638   2.433   6.155  0.1229 -0.2992  0.1197
 2928SOL     OW11483   1.105   2.666   3.034  0.0849  0.0542 -0.5625
 2928SOL    HW211484   1.191   2.708   3.039 -0.0438  0.1245  2.0294
 2928SOL    HW311485   1.051   2.730   2.986  0.1844  2.5145  2.3018
 2928SOL    MW411486   1.109   2.680   3.028  0.0811  0.3881  0.1574
 2929SOL     OW11487   1.146   2.617   1.213  0.1328  0.5096 -0.5120
 2929SOL    HW211488   1.134   2.629   1.307  0.5068  1.4040 -0.5700
 2929SOL    HW311489   1.128   2.703   1.175  0.7978  0.3743 -1.1732
 2929SOL    MW411490   1.142   2.630   1.220  0.2699  0.6098 -0.6069
 2930SOL     OW11491   5.444   4.274   0.026 -0.7465  0.1257 -0.3222
 2930SOL    HW211492   5.435   4.333   0.102  1.2063 -0.7481  0.6670
 2930SOL    HW311493   5.538   4.271   0.011 -1.0186 -0.8005 -1.9550
 2930SOL    MW411494   5.455   4.282   0.034 -0.5247 -0.1118 -0.4071
 2931SOL     OW11495   3.033   1.348   1.632  0.4856  0.4183  0.2406
 2931SOL    HW211496   2.939   1.329   1.631  0.2255  1.6663 -1.2638
 2931SOL    HW311497   3.054   1.352   1.725 -1.0044  0.3996  0.6151
 2931SOL    MW411498   3.023   1.346   1.644  0.2547  0.5805  0.0915
 2932SOL     OW11499   3.900   1.361   1.762 -0.0122  0.3841  0.1165
 2932SOL    HW211500   3.813   1.395   1.782 -0.2144 -0.6515  1.0883
 2932SOL    HW311501   3.890   1.316   1.679  0.1006  2.0406 -0.8380
 2932SOL    MW411502   3.887   1.359   1.754 -0.0240  0.4660  0.1188
 2933SOL     OW11503   2.356   3.924   4.332 -0.0442  0.1058 -0.1858
 2933SOL    HW211504   2.323   3.840   4.363 -0.6294  0.2194 -0.4797
 2933SOL    HW311505   2.426   3.901   4.271 -0.0376 -0.1632 -0.0775
 2933SOL    MW411506   2.361   3.910   4.328 -0.1205  0.0853 -0.2103
 2934SOL     OW11507   0.816   0.482   2.951  0.0203  0.3106  0.4834
 2934SOL    HW211508   0.827   0.542   2.877  2.7420  0.9036  1.2689
 2934SOL    HW311509   0.770   0.407   2.914  1.4548  0.5004 -1.9015
 2934SOL    MW411510   0.811   0.480   2.936  0.5687  0.4139  0.2724
 2935SOL     OW11511   1.666   1.801   3.945 -0.3770  0.5229 -0.1526
 2935SOL    HW211512   1.723   1.859   3.996 -1.9531  3.0285 -1.0229
 2935SOL    HW311513   1.592   1.784   4.003  0.0114 -0.5638  0.0448
 2935SOL    MW411514   1.664   1.806   3.959 -0.5337  0.7101 -0.2414
 2936SOL     OW11515   1.156   4.364   1.239  0.0418 -0.1947 -0.0292
 2936SOL    HW211516   1.076   4.399   1.200  0.6679  2.1407  0.6174
 2936SOL    HW311517   1.130   4.337   1.328  0.1062  1.2903  0.4568
 2936SOL    MW411518   1.142   4.365   1.246  0.1329  0.3094  0.1203
 2937SOL     OW11519   4.913   0.115   5.914  0.1712 -0.1083 -0.2842
 2937SOL    HW211520   4.874   0.165   5.842  0.4457 -0.8391 -0.9655
 2937SOL    HW311521   4.919   0.176   5.987  0.5936  0.8713 -1.1227
 2937SOL    MW411522   4.909   0.129   5.914  0.2632 -0.0754 -0.4847
 2938SOL     OW11523   2.433   1.243   4.264  0.4491 -0.2288  0.2352
 2938SOL    HW211524   2.482   1.231   4.183 -1.0906 -2.5043 -0.4501
 2938SOL    HW311525   2.475   1.183   4.327  3.4913  3.5214  2.2129
 2938SOL    MW411526   2.445   1.233   4.262  0.6473 -0.0342  0.4057
 2939SOL     OW11527   1.105   0.084   3.065 -0.3484 -0.2742  0.0960
 2939SOL    HW211528   1.062   0.139   3.131  0.3544  0.4551 -0.0512
 2939SOL    HW311529   1.093  -0.006   3.098 -0.2598  0.0578  1.0699
 2939SOL    MW411530   1.097   0.079   3.078 -0.2440 -0.1341  0.2051
 2940SOL     OW11531   3.026   2.567   0.666 -0.1498  0.2489  0.4650
 2940SOL    HW211532   3.025   2.492   0.605  3.5855  0.0944  0.3792
 2940SOL    HW311533   3.037   2.643   0.609 -0.3624  0.5124  0.7747
 2940SOL    MW411534   3.027   2.567   0.650  0.3150  0.2633  0.4945
 2941SOL     OW11535   4.438   3.029   5.990 -0.1570  0.5698  0.1559
 2941SOL    HW211536   4.376   3.026   5.917 -0.9538  1.8850  0.7338
 2941SOL    HW311537   4.385   3.009   6.067  0.5795 -0.3363  0.4457
 2941SOL    MW411538   4.423   3.026   5.991 -0.1649  0.6238  0.2704
 2942SOL     OW11539   3.700   1.020   2.831 -0.1548 -0.1076  0.4566
 2942SOL    HW211540   3.740   1.093   2.784 -1.7275  1.0382  0.8234
 2942SOL    HW311541   3.717   0.943   2.776  3.4503  0.0635  1.1247
 2942SOL    MW411542   3.707   1.019   2.818  0.1134  0.0661  0.5932
 2943SOL     OW11543   5.965   2.226   1.114  0.4864  0.1116  0.2542
 2943SOL    HW211544   5.968   2.186   1.027 -1.3789  2.1502 -0.8387
 2943SOL    HW311545   5.886   2.280   1.113  1.7836  2.2179  2.3134
 2943SOL    MW411546   5.955   2.228   1.102  0.4115  0.6585  0.3817
 2944SOL     OW11547   6.411   4.453   4.432  0.3674  0.5162 -0.1208
 2944SOL    HW211548   6.381   4.528   4.380 -0.5064 -0.2109 -0.7058
 2944SOL    HW311549   6.493   4.427   4.391 -0.0138  0.3211 -0.7774
 2944SOL    MW411550   6.418   4.459   4.419  0.2018  0.3946 -0.2846
 2945SOL     OW11551   6.369   0.808   4.726 -0.1035  0.4164 -0.4383
 2945SOL    HW211552   6.309   0.867   4.680  0.6935  0.2142 -1.8095
 2945SOL    HW311553   6.313   0.736   4.756 -0.6999  0.6962 -0.8575
 2945SOL    MW411554   6.354   0.806   4.723 -0.0770  0.4267 -0.6745
 2946SOL     OW11555   0.005   0.721   5.531 -0.5849 -0.1973  0.2581
 2946SOL    HW211556   0.061   0.796   5.509 -0.3120  0.1564  2.0227
 2946SOL    HW311557  -0.043   0.749   5.609 -2.4799 -0.8865 -0.5995
 2946SOL    MW411558   0.006   0.735   5.538 -0.7989 -0.2415  0.3778
 2947SOL     OW11559   3.791   0.529   3.103  0.4169 -0.5236 -0.2545
 2947SOL    HW211560   3.804   0.452   3.049  3.6217 -0.5646  0.3675
 2947SOL    HW311561   3.785   0.495   3.193  1.2133 -0.1190 -0.0380
 2947SOL    MW411562   3.792   0.515   3.108  0.9448 -0.4757 -0.1439
 2948SOL     OW11563   5.973   5.983   2.400 -0.8189  0.0770  0.0465
 2948SOL    HW211564   6.053   5.968   2.450 -1.1254 -1.8414  0.0325
 2948SOL    HW311565   5.942   5.895   2.378 -2.0169  0.8292 -1.4127
 2948SOL    MW411566   5.979   5.969   2.404 -1.0174 -0.0768 -0.1478
 2949SOL     OW11567   2.386   2.724   5.426 -0.4018 -0.1384  0.3079
 2949SOL    HW211568   2.380   2.656   5.493 -0.5274  1.6667  2.2427
 2949SOL    HW311569   2.430   2.796   5.470 -1.0951  1.3748 -1.3648
 2949SOL    MW411570   2.391   2.724   5.441 -0.5099  0.2994  0.3425
 2950SOL     OW11571   2.470   2.009   2.240 -0.0553 -0.2863  0.2468
 2950SOL    HW211572   2.377   2.030   2.238  0.2702  1.3990 -1.6685
 2950SOL    HW311573   2.477   1.925   2.194 -0.5322  0.1970 -0.7326
 2950SOL    MW411574   2.459   2.001   2.233 -0.0753 -0.0002 -0.1351
 2951SOL     OW11575   0.753   5.484   5.177 -0.6918  0.2833 -0.3772
 2951SOL    HW211576   0.757   5.503   5.271 -1.8449  2.0630 -0.6532
 2951SOL    HW311577   0.770   5.389   5.172  3.0614  0.6687  1.2711
 2951SOL    MW411578   0.756   5.474   5.189 -0.3488  0.5689 -0.1962
 2952SOL     OW11579   3.034   4.048   0.446  0.3173 -0.3336 -0.0431
 2952SOL    HW211580   3.017   4.111   0.376  1.5805  0.2312  0.1260
 2952SOL    HW311581   3.000   4.089   0.525  0.4230 -0.2114 -0.0607
 2952SOL    MW411582   3.027   4.061   0.447  0.4979 -0.2430 -0.0231
 2953SOL     OW11583   2.988   0.018   5.634  0.4509 -0.3934  0.0918
 2953SOL    HW211584   2.999   0.104   5.592  1.4963 -1.0814 -1.1269
 2953SOL    HW311585   3.027   0.029   5.721  0.4206  0.4136  0.0152
 2953SOL    MW411586   2.995   0.031   5.640  0.5848 -0.3777 -0.0791
 2954SOL     OW11587   1.056   5.584   4.019 -0.1869 -0.0840  0.6010
 2954SOL    HW211588   1.068   5.518   3.951 -0.3293 -0.8279  1.2876
 2954SOL    HW311589   0.962   5.599   4.022 -0.1472  0.2267  0.3853
 2954SOL    MW411590   1.045   5.577   4.010 -0.2004 -0.1412  0.6632
 2955SOL     OW11591   0.825   5.247   3.662  0.1000  0.2358 -0.1848
 2955SOL    HW211592   0.805   5.155   3.678  0.6325 -0.0858 -1.2586
 2955SOL    HW311593   0.780   5.267   3.579 -0.2606  1.0349  0.1896
 2955SOL    MW411594   0.816   5.237   3.653  0.1227  0.2988 -0.2771
 2956SOL     OW11595   1.658   1.749   1.749 -0.1198 -0.2766  0.0936
 2956SOL    HW211596   1.687   1.773   1.837 -0.1175  0.4999 -0.1137
 2956SOL    HW311597   1.739   1.743   1.698 -0.2636  2.6928 -0.6876
 2956SOL    MW411598   1.673   1.751   1.753 -0.1385  0.2177 -0.0368
 2957SOL     OW11599   0.099   0.358   1.858 -0.1163  0.3807 -0.1689
 2957SOL    HW211600   0.106   0.264   1.876  1.6459  0.3536 -0.7856
 2957SOL    HW311601   0.112   0.365   1.764 -3.1772  1.0388 -0.6531
 2957SOL    MW411602   0.102   0.346   1.848 -0.2876  0.4640 -0.3142
 2958SOL     OW11603   6.198   5.634   3.730 -0.6183 -0.1487  0.5009
 2958SOL    HW211604   6.204   5.538   3.726  0.5403 -0.1097  0.7600
 2958SOL    HW311605   6.125   5.652   3.789 -0.7714 -0.8738  0.5410
 2958SOL    MW411606   6.189   5.624   3.737 -0.4856 -0.2392  0.5404
 2959SOL     OW11607   4.217   6.281   3.628 -0.2080 -0.3529 -0.3419
 2959SOL    HW211608   4.137   6.281   3.575 -1.2495 -2.0326  1.1225
 2959SOL    HW311609   4.227   6.191   3.657  1.0047  0.2578  1.3038
 2959SOL    MW411610   4.208   6.269   3.625 -0.1854 -0.4939  0.0685
 2960SOL     OW11611   2.418   4.040   1.971  0.2293 -0.0318  0.3749
 2960SOL    HW211612   2.420   3.957   1.923 -0.1693 -0.2691  0.7566
 2960SOL    HW311613   2.510   4.065   1.981  0.3839 -0.7775  0.8480
 2960SOL    MW411614   2.431   4.032   1.966  0.1971 -0.1615  0.4876
 2961SOL     OW11615   6.358   2.105   2.847  0.0060 -0.2623  0.3992
 2961SOL    HW211616   6.417   2.145   2.911  1.6003 -2.2275  0.2446
 2961SOL    HW311617   6.298   2.176   2.822  2.2409  1.8208  0.5962
 2961SOL    MW411618   6.358   2.120   2.852  0.5112 -0.2468  0.4048
 2962SOL     OW11619   1.611   0.930   2.980  0.0275 -0.0245 -0.0312
 2962SOL    HW211620   1.573   0.963   3.062  3.8320  2.0786  1.1786
 2962SOL    HW311621   1.652   0.847   3.005 -0.6793 -0.4972 -0.4142
 2962SOL    MW411622   1.612   0.923   2.994  0.4362  0.1906  0.0779
 2963SOL     OW11623   1.754   3.750   0.582  0.1405  0.1522  0.6454
 2963SOL    HW211624   1.661   3.770   0.596  0.1285 -0.0250  0.8204
 2963SOL    HW311625   1.798   3.785   0.660  0.6583  3.2221 -0.8810
 2963SOL    MW411626   1.747   3.758   0.594  0.2072  0.5338  0.4671
 2964SOL     OW11627   4.443   5.794   6.109 -0.3780 -0.6609 -0.1748
 2964SOL    HW211628   4.507   5.736   6.069 -0.4872 -0.6289 -0.3986
 2964SOL    HW311629   4.366   5.739   6.124 -0.3793 -0.6443 -0.1196
 2964SOL    MW411630   4.441   5.779   6.106 -0.3926 -0.6545 -0.1970
 2965SOL     OW11631   0.948   5.144   3.339  0.4227 -0.4043 -0.0627
 2965SOL    HW211632   0.972   5.155   3.431  1.7780 -0.2049 -0.4101
 2965SOL    HW311633   0.942   5.233   3.304  0.7189 -0.4940 -0.3523
 2965SOL    MW411634   0.951   5.157   3.346  0.6406 -0.3898 -0.1467
 2966SOL     OW11635   3.098   1.732   5.587  0.5498  0.0142  0.2499
 2966SOL    HW211636   3.144   1.693   5.511  0.0128  0.1094 -0.1279
 2966SOL    HW311637   3.151   1.706   5.662  0.3652 -1.2334 -0.0191
 2966SOL    MW411638   3.111   1.723   5.587  0.4546 -0.1379  0.1646
 2967SOL     OW11639   2.269   5.514   5.403 -0.0782 -0.4091  0.1084
 2967SOL    HW211640   2.358   5.507   5.367 -0.5644  0.5886 -1.3984
 2967SOL    HW311641   2.265   5.602   5.439 -1.0065  0.2984 -1.5795
 2967SOL    MW411642   2.280   5.524   5.403 -0.2648 -0.1841 -0.3131
 2968SOL     OW11643   0.623   0.079   3.127  0.3768  0.0070  0.2976
 2968SOL    HW211644   0.548   0.020   3.115 -1.0457  1.7310  0.3847
 2968SOL    HW311645   0.673   0.038   3.197 -0.9223 -0.7934  0.8070
 2968SOL    MW411646   0.619   0.066   3.135  0.0177  0.1289  0.3763
 2969SOL     OW11647   1.542   3.869   1.129 -0.5364  0.1448  0.4165
 2969SOL    HW211648   1.499   3.829   1.204  0.4693 -0.3867  0.7332
 2969SOL    HW311649   1.549   3.799   1.064 -1.0143  0.4852 -0.0097
 2969SOL    MW411650   1.537   3.855   1.130 -0.4668  0.1196  0.4020
 2970SOL     OW11651   6.126   6.070   0.337  0.1563 -0.5327  0.0898
 2970SOL    HW211652   6.069   6.128   0.386  0.4998 -0.2755  0.1872
 2970SOL    HW311653   6.079   5.986   0.335 -0.9281  0.0586 -1.1097
 2970SOL    MW411654   6.112   6.067   0.343  0.0585 -0.4207 -0.0556
 2971SOL     OW11655   4.857   6.355   2.381 -0.3383  0.0032  0.0955
 2971SOL    HW211656   4.828   6.399   2.461  1.8338  0.8421  0.4958
 2971SOL    HW311657   4.945   6.389   2.366 -0.6981 -0.0883 -2.7176
 2971SOL    MW411658   4.865   6.365   2.390 -0.0992  0.1018 -0.2228
 2972SOL     OW11659   2.134   5.987   2.029 -0.1480  0.2275  0.1573
 2972SOL    HW211660   2.194   6.038   2.084  0.5985 -0.2160 -0.2292
 2972SOL    HW311661   2.079   5.940   2.092  0.7653 -0.3549  0.5551
 2972SOL    MW411662   2.135   5.988   2.045  0.0710  0.0922  0.1588
 2973SOL     OW11663   2.886   1.039   4.821  0.1714  0.2611 -0.1437
 2973SOL    HW211664   2.870   1.027   4.914 -1.1496 -0.3459 -0.4285
 2973SOL    HW311665   2.873   0.952   4.783 -0.2328  0.6967 -1.0193
 2973SOL    MW411666   2.882   1.026   4.828 -0.0562  0.2385 -0.2968
 2974SOL     OW11667   4.209   0.418   0.272  0.0923  0.0189  0.3451
 2974SOL    HW211668   4.153   0.402   0.348 -1.0817 -0.3247 -0.5733
 2974SOL    HW311669   4.271   0.485   0.302 -1.0337  0.6818  1.2617
 2974SOL    MW411670   4.210   0.424   0.286 -0.2112  0.0610  0.3449
 2975SOL     OW11671   4.641   3.128   0.633  0.2804 -0.7458 -0.6139
 2975SOL    HW211672   4.624   3.178   0.554 -1.1702 -1.3798 -0.7359
 2975SOL    HW311673   4.641   3.036   0.605  1.6192 -0.9075 -0.1780
 2975SOL    MW411674   4.639   3.122   0.619  0.2657 -0.8508 -0.5725
 2976SOL     OW11675   6.373   3.905   4.798 -0.0306  0.2933 -0.3755
 2976SOL    HW211676   6.414   3.835   4.748 -1.4526 -0.4606 -0.5278
 2976SOL    HW311677   6.293   3.926   4.749 -0.3062  1.1026  0.3847
 2976SOL    MW411678   6.368   3.899   4.785 -0.2545  0.3006 -0.2953
 2977SOL     OW11679   5.780   3.864   1.098 -0.0652 -0.3372 -0.7283
 2977SOL    HW211680   5.736   3.902   1.174  1.7696 -1.6820  1.1139
 2977SOL    HW311681   5.717   3.873   1.027 -2.1439  0.3767  1.0946
 2977SOL    MW411682   5.766   3.870   1.099 -0.0974 -0.4204 -0.2447
 2978SOL     OW11683   4.854   0.557   0.884 -0.4151  0.3448  0.1001
 2978SOL    HW211684   4.792   0.586   0.817 -0.4604  0.0843  0.0250
 2978SOL    HW311685   4.813   0.479   0.921  0.9924 -1.3544 -1.6835
 2978SOL    MW411686   4.840   0.550   0.880 -0.2354  0.0863 -0.1451
 2979SOL     OW11687   2.385   4.911   0.171 -0.0455  0.5312 -0.1055
 2979SOL    HW211688   2.445   4.838   0.155  1.1661  1.4279  0.2323
 2979SOL    HW311689   2.306   4.869   0.205  0.6716 -0.6122  0.2297
 2979SOL    MW411690   2.383   4.896   0.173  0.2090  0.4987 -0.0167
 2980SOL     OW11691   1.434   2.374   3.590  0.4200 -0.1487 -0.6148
 2980SOL    HW211692   1.506   2.366   3.528  0.9907  0.6862 -0.0831
 2980SOL    HW311693   1.407   2.466   3.584  0.6874  0.0250  0.5825
 2980SOL    MW411694   1.440   2.385   3.581  0.5306 -0.0156 -0.3867
 2981SOL     OW11695   4.260   5.838   2.671  0.0419  0.2866  0.0935
 2981SOL    HW211696   4.252   5.774   2.600  0.9858  0.3054 -0.0332
 2981SOL    HW311697   4.291   5.918   2.628 -1.5656  0.9997  0.1747
 2981SOL    MW411698   4.263   5.840   2.656 -0.0457  0.3831  0.0875
 2982SOL     OW11699   6.350   2.713   0.905 -0.3179 -0.0599 -0.4414
 2982SOL    HW211700   6.445   2.715   0.897 -0.2050  0.6711  0.7477
 2982SOL    HW311701   6.322   2.642   0.848  0.9317 -0.2242 -0.8773
 2982SOL    MW411702   6.358   2.704   0.897 -0.1382  0.0149 -0.3420
 2983SOL     OW11703   5.309   0.249   0.835 -0.0945 -0.1434  0.9523
 2983SOL    HW211704   5.310   0.284   0.746  0.1591  0.6960  1.2678
 2983SOL    HW311705   5.231   0.194   0.839 -0.0544 -0.2626  0.1859
 2983SOL    MW411706   5.299   0.247   0.824 -0.0558 -0.0484  0.8928
 2984SOL     OW11707   5.723   6.307   0.361  0.1972  0.0448 -0.3496
 2984SOL    HW211708   5.779   6.384   0.372 -0.1994  0.5235 -1.4278
 2984SOL    HW311709   5.701   6.307   0.267 -0.3495 -1.0064 -0.2398
 2984SOL    MW411710   5.727   6.318   0.350  0.0728 -0.0307 -0.4773
 2985SOL     OW11711   0.965   5.671   5.590 -0.1051  0.5226  0.7250
 2985SOL    HW211712   0.964   5.730   5.515 -0.7987 -1.1127 -0.5999
 2985SOL    HW311713   0.945   5.728   5.665  1.3335  2.3245 -0.1705
 2985SOL    MW411714   0.962   5.687   5.590 -0.0068  0.5446  0.4321
 2986SOL     OW11715   3.172   5.114   1.327 -0.2556  0.1826 -0.5138
 2986SOL    HW211716   3.230   5.114   1.251 -1.2753  0.5714 -1.3069
 2986SOL    HW311717   3.122   5.033   1.319  1.1716 -0.9235  0.9849
 2986SOL    MW411718   3.173   5.103   1.316 -0.2018  0.0880 -0.4207
 2987SOL     OW11719   3.910   5.198   0.616  0.0813 -0.0659 -0.3655
 2987SOL    HW211720   3.834   5.255   0.599  0.8454  0.5633 -1.9048
 2987SOL    HW311721   3.980   5.258   0.642  0.3806 -0.5168 -0.1191
 2987SOL    MW411722   3.909   5.214   0.617  0.2216 -0.0424 -0.5361
 2988SOL     OW11723   0.303   0.173   5.726 -0.4389 -0.0449  0.6044
 2988SOL    HW211724   0.323   0.266   5.730 -0.0884 -0.1348  1.0295
 2988SOL    HW311725   0.308   0.143   5.817  2.7419 -1.1439  0.2143
 2988SOL    MW411726   0.307   0.181   5.739  0.0270 -0.2017  0.6090
 2989SOL     OW11727   5.339   4.754   4.996 -0.0849 -0.0564 -0.1997
 2989SOL    HW211728   5.336   4.780   5.087  1.7569  0.7495 -0.3382
 2989SOL    HW311729   5.386   4.670   4.996  0.9996  0.5330 -0.4952
 2989SOL    MW411730   5.345   4.746   5.008  0.3012  0.1277 -0.2569
 2990SOL     OW11731   1.277   1.043   5.078 -0.8462 -0.8330 -0.0195
 2990SOL    HW211732   1.305   1.027   5.169 -1.1074  0.3390  0.2766
 2990SOL    HW311733   1.318   0.972   5.029 -1.3770 -1.9856  1.1267
 2990SOL    MW411734   1.286   1.031   5.084 -0.9507 -0.8304  0.1708
 2991SOL     OW11735   2.679   4.368   0.018 -0.1652 -0.5870  0.0783
 2991SOL    HW211736   2.733   4.303   0.063 -0.8040 -0.1977  1.4610
 2991SOL    HW311737   2.742   4.424  -0.027  0.4585 -1.4070 -0.1037
 2991SOL    MW411738   2.695   4.367   0.018 -0.1672 -0.6438  0.2367
 2992SOL     OW11739   1.366   2.386   0.203  0.4933 -0.2090  0.7750
 2992SOL    HW211740   1.405   2.457   0.152  2.0208 -1.8737 -0.5104
 2992SOL    HW311741   1.441   2.342   0.244 -0.4875 -0.5842  2.2411
 2992SOL    MW411742   1.381   2.390   0.201  0.5654 -0.4781  0.7988
 2993SOL     OW11743   1.350   5.207   1.016 -0.1009 -0.5364  0.9473
 2993SOL    HW211744   1.416   5.237   0.954  0.0783  0.1157  1.4316
 2993SOL    HW311745   1.375   5.117   1.036  0.2711 -0.5046  0.6451
 2993SOL    MW411746   1.362   5.199   1.011 -0.0282 -0.4462  0.9714
 2994SOL     OW11747   0.674   5.598   5.817  0.1028  0.3221  0.5573
 2994SOL    HW211748   0.699   5.507   5.806 -1.0244  0.1419 -0.8094
 2994SOL    HW311749   0.736   5.647   5.764 -0.4749  0.1593 -0.2862
 2994SOL    MW411750   0.685   5.593   5.808 -0.1221  0.2769  0.2657
 2995SOL     OW11751   5.191   3.872   0.763  0.1518 -0.1526 -0.2917
 2995SOL    HW211752   5.163   3.916   0.843 -1.6307 -0.8156 -0.4862
 2995SOL    HW311753   5.115   3.881   0.704  0.2992 -2.1470 -0.8523
 2995SOL    MW411754   5.177   3.879   0.765 -0.0639 -0.5032 -0.3913
 2996SOL     OW11755   0.374   0.708   3.777  0.5068 -0.4369 -0.2517
 2996SOL    HW211756   0.461   0.704   3.737  0.9850 -1.3961  0.8225
 2996SOL    HW311757   0.316   0.670   3.712  1.1694 -1.4267 -0.2800
 2996SOL    MW411758   0.378   0.703   3.763  0.6573 -0.6940 -0.1137
 2997SOL     OW11759   0.854   3.410   2.850 -0.6768  0.2064 -0.0679
 2997SOL    HW211760   0.902   3.412   2.932 -1.4148 -1.2101  0.4319
 2997SOL    HW311761   0.891   3.482   2.798 -0.6978  1.5860  1.7627
 2997SOL    MW411762   0.865   3.420   2.854 -0.7770  0.2015  0.2396
 2998SOL     OW11763   3.616   2.706   4.438  0.6594  0.2812 -0.6895
 2998SOL    HW211764   3.616   2.802   4.443 -0.2941  0.2315  0.6972
 2998SOL    HW311765   3.682   2.678   4.501  0.1380  0.0086 -0.2581
 2998SOL    MW411766   3.624   2.715   4.447  0.4648  0.2387 -0.4496
 2999SOL     OW11767   0.330   5.682   6.033 -0.2193 -0.2750  0.5063
 2999SOL    HW211768   0.300   5.746   5.969 -0.3653 -1.6271 -0.8155
 2999SOL    HW311769   0.255   5.667   6.091 -0.9274 -0.9047 -0.5508
 2999SOL    MW411770   0.316   5.688   6.032 -0.3320 -0.5365  0.1925
 3000SOL     OW11771   2.501   6.169   1.372  0.3063  0.0321 -0.1679
 3000SOL    HW211772   2.475   6.106   1.305 -1.7036  1.4414 -0.8075
 3000SOL    HW311773   2.500   6.119   1.453 -1.1494 -0.8276 -0.6694
 3000SOL    MW411774   2.498   6.154   1.374 -0.1509  0.1046 -0.3184
 3001SOL     OW11775   2.345   0.747   3.183 -0.1000 -0.1631 -0.0171
 3001SOL    HW211776   2.300   0.807   3.242 -1.4185 -0.4575 -0.6727
 3001SOL    HW311777   2.289   0.744   3.105  1.0183 -0.6340 -0.8298
 3001SOL    MW411778   2.331   0.755   3.180 -0.1264 -0.2641 -0.2108
 3002SOL     OW11779   1.737   3.060   2.234 -0.0244 -0.8419  0.0681
 3002SOL    HW211780   1.653   3.091   2.269 -0.7867 -1.9138 -0.7582
 3002SOL    HW311781   1.767   3.131   2.178 -0.0401 -0.1760  0.8823
 3002SOL    MW411782   1.730   3.073   2.232 -0.1270 -0.8955  0.0665
 3003SOL     OW11783   0.004   3.973   0.515 -0.2146  0.0690 -0.4236
 3003SOL    HW211784   0.060   3.958   0.438  1.0504 -0.1752  0.5226
 3003SOL    HW311785   0.064   4.004   0.583 -1.2487 -0.0893  0.5848
 3003SOL    MW411786   0.019   3.975   0.513 -0.1841  0.0159 -0.1658
 3004SOL     OW11787   0.197   1.554   0.309  0.1452  0.5457 -0.3042
 3004SOL    HW211788   0.207   1.502   0.229  1.6323  0.7961 -0.2964
 3004SOL    HW311789   0.207   1.491   0.380  0.3295  0.5736 -0.3054
 3004SOL    MW411790   0.200   1.539   0.308  0.3657  0.5824 -0.3033
 3005SOL     OW11791   3.185   5.096   3.258  0.0414  0.2120  0.3988
 3005SOL    HW211792   3.230   5.017   3.230 -1.1379  0.0479 -1.1463
 3005SOL    HW311793   3.129   5.068   3.331  2.4410  0.4596  2.4769
 3005SOL    MW411794   3.183   5.082   3.264  0.2024  0.2230  0.4691
 3006SOL     OW11795   2.438   6.043   0.008  0.2791 -0.1930 -0.0822
 3006SOL    HW211796   2.480   6.125   0.033  0.2052  0.0096 -0.6138
 3006SOL    HW311797   2.414   6.003   0.091  2.1502 -0.6576  0.2851
 3006SOL    MW411798   2.441   6.049   0.022  0.5162 -0.2276 -0.1039
 3007SOL     OW11799   4.462   6.269   1.342 -0.1941  0.4393 -0.3058
 3007SOL    HW211800   4.550   6.304   1.354 -0.5720  0.9511  1.1225
 3007SOL    HW311801   4.408   6.345   1.323 -0.7073  0.4420  1.0542
 3007SOL    MW411802   4.467   6.283   1.341 -0.3117  0.5072  0.0621
 3008SOL     OW11803   4.509   1.941   4.718 -0.4328  0.2317 -0.5949
 3008SOL    HW211804   4.531   2.021   4.670  0.9008 -0.3854 -1.0719
 3008SOL    HW311805   4.461   1.971   4.795 -2.2977  1.2848 -2.0778
 3008SOL    MW411806   4.505   1.956   4.722 -0.5029  0.2892 -0.8535
 3009SOL     OW11807   4.635   6.152   4.605 -0.2401 -0.1216  0.3633
 3009SOL    HW211808   4.658   6.103   4.525  0.1549  1.0537 -0.2653
 3009SOL    HW311809   4.715   6.151   4.657 -0.4879 -0.8609  0.7477
 3009SOL    MW411810   4.648   6.146   4.601 -0.2207 -0.0641  0.3311
 3010SOL     OW11811   1.774   4.300   2.700 -0.0351 -0.2208  0.0330
 3010SOL    HW211812   1.716   4.271   2.770 -0.3085 -0.7473 -0.4047
 3010SOL    HW311813   1.806   4.220   2.660  0.0390  0.0725 -0.5110
 3010SOL    MW411814   1.770   4.286   2.704 -0.0614 -0.2515 -0.0965
 3011SOL     OW11815   2.102   6.215   6.171 -0.7468 -0.0634 -0.0111
 3011SOL    HW211816   2.109   6.196   6.264  0.8618 -1.0925 -0.3026
 3011SOL    HW311817   2.098   6.310   6.166 -1.6778 -0.0138  1.1309
 3011SOL    MW411818   2.102   6.225   6.183 -0.6574 -0.1926  0.1011
 3012SOL     OW11819   2.567   1.360   1.019  0.1476  0.3663  0.1337
 3012SOL    HW211820   2.572   1.383   1.112 -0.1709 -2.5199  0.9745
 3012SOL    HW311821   2.475   1.372   0.996  0.1933  0.9192  0.2396
 3012SOL    MW411822   2.555   1.364   1.028  0.1116  0.0584  0.2586
 3013SOL     OW11823   5.158   5.731   1.342 -0.2651 -0.4698  0.1817
 3013SOL    HW211824   5.112   5.673   1.403  0.9432 -3.2957 -1.3863
 3013SOL    HW311825   5.237   5.758   1.389  0.3324 -2.0852  0.1768
 3013SOL    MW411826   5.162   5.727   1.356 -0.0268 -1.0558 -0.0258
 3014SOL     OW11827   5.086   4.381   5.179  0.0063  0.7797  0.0181
 3014SOL    HW211828   5.062   4.296   5.142  1.1229  0.7840 -0.7549
 3014SOL    HW311829   5.106   4.362   5.270 -2.3699  0.6978  0.5966
 3014SOL    MW411830   5.086   4.367   5.186 -0.1599  0.7695 -0.0076
 3015SOL     OW11831   5.976   6.275   5.406 -0.2751  0.1856 -0.5410
 3015SOL    HW211832   5.891   6.280   5.362 -1.0673  1.1529  1.0457
 3015SOL    HW311833   6.013   6.363   5.396  0.2069 -0.0180 -0.5589
 3015SOL    MW411834   5.970   6.287   5.399 -0.3160  0.2863 -0.3340
 3016SOL     OW11835   5.385   4.456   5.592  0.5162  0.0804  0.1380
 3016SOL    HW211836   5.465   4.449   5.643  1.0875 -0.9866 -0.8489
 3016SOL    HW311837   5.389   4.382   5.530 -1.6856 -0.5903  0.6930
 3016SOL    MW411838   5.396   4.445   5.590  0.3011 -0.1489  0.0810
 3017SOL     OW11839   0.362   4.430   1.038 -0.1292  0.5320 -0.1633
 3017SOL    HW211840   0.297   4.378   1.085 -0.3684 -0.0545 -1.1237
 3017SOL    HW311841   0.317   4.513   1.020  0.3147  1.1786  1.5241
 3017SOL    MW411842   0.348   4.434   1.042 -0.1022  0.5400 -0.0674
 3018SOL     OW11843   4.288   3.072   1.689  0.3427 -0.0846 -0.7584
 3018SOL    HW211844   4.372   3.093   1.649  0.2206 -0.8331 -1.4323
 3018SOL    HW311845   4.276   2.978   1.673 -0.7748  0.0745 -0.9650
 3018SOL    MW411846   4.297   3.062   1.682  0.1792 -0.1623 -0.8745
 3019SOL     OW11847   2.690   4.987   5.591  0.1278 -0.2170  0.3103
 3019SOL    HW211848   2.717   5.009   5.681  0.2382  1.0014 -0.0063
 3019SOL    HW311849   2.596   4.976   5.597  0.1631 -0.3746  0.6260
 3019SOL    MW411850   2.681   4.989   5.604  0.1470 -0.0771  0.3102
 3020SOL     OW11851   3.520   4.618   1.204  0.7283 -0.6842 -0.5040
 3020SOL    HW211852   3.548   4.651   1.290 -0.7722 -0.6785  0.0087
 3020SOL    HW311853   3.427   4.598   1.215  0.5794 -0.9570 -2.0581
 3020SOL    MW411854   3.511   4.620   1.217  0.5107 -0.7195 -0.6414
 3021SOL     OW11855   0.568   3.425   6.061 -0.1016  0.1242  0.1054
 3021SOL    HW211856   0.537   3.515   6.069 -2.4466 -0.4655 -1.2320
 3021SOL    HW311857   0.663   3.433   6.051 -0.2896  2.4944 -0.4859
 3021SOL    MW411858   0.576   3.438   6.060 -0.4358  0.3591 -0.1491
 3022SOL     OW11859   2.110   6.403   2.728 -0.1182  0.5871 -0.2571
 3022SOL    HW211860   2.064   6.486   2.716  2.2436  1.8168 -1.6043
 3022SOL    HW311861   2.201   6.429   2.741  0.8351 -1.8364 -1.5539
 3022SOL    MW411862   2.116   6.417   2.728  0.3192  0.4296 -0.6059
 3023SOL     OW11863   6.103   5.037   3.377  0.4192  0.5376  0.6618
 3023SOL    HW211864   6.047   4.961   3.390  1.1286  0.0500  0.9147
 3023SOL    HW311865   6.059   5.088   3.308 -1.0584  0.8940  1.8179
 3023SOL    MW411866   6.090   5.034   3.369  0.3179  0.5203  0.8477
 3024SOL     OW11867   6.358   0.440   6.141 -0.3642 -0.8862 -0.7514
 3024SOL    HW211868   6.440   0.437   6.092 -0.5018 -1.4828 -0.9585
 3024SOL    HW311869   6.385   0.465   6.230 -0.0969  0.0086 -1.0758
 3024SOL    MW411870   6.372   0.443   6.147 -0.3471 -0.8469 -0.8216
 3025SOL     OW11871   5.395   5.651   1.798  0.3148 -0.2050 -0.4248
 3025SOL    HW211872   5.475   5.685   1.840 -0.0827  0.6858 -0.3786
 3025SOL    HW311873   5.351   5.603   1.868 -0.8959  2.1885  0.5742
 3025SOL    MW411874   5.400   5.649   1.813  0.1026  0.2283 -0.2869
 3026SOL     OW11875   1.371   5.371   2.758 -0.0823 -0.1630  0.3056
 3026SOL    HW211876   1.366   5.297   2.697 -0.9688  0.5124 -0.4691
 3026SOL    HW311877   1.302   5.354   2.822  0.0363 -0.2448  0.4133
 3026SOL    MW411878   1.361   5.359   2.759 -0.1836 -0.0847  0.2176
 3027SOL     OW11879   2.927   5.859   2.949 -0.1385 -0.2245 -0.4424
 3027SOL    HW211880   2.966   5.922   2.888  1.3808 -1.0692 -0.3984
 3027SOL    HW311881   2.947   5.774   2.911 -1.9521 -0.7116 -0.3759
 3027SOL    MW411882   2.935   5.856   2.936 -0.1773 -0.4002 -0.4278
 3028SOL     OW11883   5.390   5.272   3.571  0.2702  0.1882  0.1349
 3028SOL    HW211884   5.427   5.256   3.658  0.1863 -1.9410 -0.1492
 3028SOL    HW311885   5.391   5.186   3.529 -2.2611  0.5994 -0.9558
 3028SOL    MW411886   5.395   5.258   3.577 -0.0748 -0.0385 -0.0465
 3029SOL     OW11887   4.408   2.607   4.648 -0.4078 -0.3818 -0.1881
 3029SOL    HW211888   4.474   2.652   4.595  0.9334  0.5211  2.0499
 3029SOL    HW311889   4.455   2.533   4.687 -0.7383  0.1168  1.2325
 3029SOL    MW411890   4.423   2.603   4.646 -0.2745 -0.1969  0.2946
 3030SOL     OW11891   6.295   2.857   0.405 -0.2839 -0.2570  0.2269
 3030SOL    HW211892   6.299   2.949   0.432 -2.5818 -0.2206  0.6278
 3030SOL    HW311893   6.294   2.807   0.487 -2.0373 -0.4398  0.1220
 3030SOL    MW411894   6.296   2.862   0.419 -0.8184 -0.2763  0.2660
 3031SOL     OW11895   1.887   3.374   0.622  0.6886 -0.1424  0.6492
 3031SOL    HW211896   1.851   3.434   0.556  0.4065 -0.2571  0.6932
 3031SOL    HW311897   1.872   3.419   0.705 -1.2349 -1.0531  0.8608
 3031SOL    MW411898   1.880   3.388   0.624  0.3976 -0.2777  0.6829
 3032SOL     OW11899   1.914   5.091   0.783 -0.2790  0.2859 -0.0476
 3032SOL    HW211900   1.882   5.137   0.861 -2.2799 -1.4326  0.2294
 3032SOL    HW311901   1.836   5.076   0.730  0.9419  0.7442 -2.0690
 3032SOL    MW411902   1.900   5.095   0.786 -0.3819  0.1196 -0.2778
 3033SOL     OW11903   5.069   6.193   1.397  0.4989 -0.0125 -0.4810
 3033SOL    HW211904   5.060   6.246   1.477 -2.4766  1.6197 -1.7429
 3033SOL    HW311905   5.035   6.107   1.422  2.1994 -0.4043  0.6767
 3033SOL    MW411906   5.063   6.188   1.411  0.3307  0.1512 -0.4947
 3034SOL     OW11907   0.724   5.768   3.633  0.5761 -0.4683 -0.2258
 3034SOL    HW211908   0.692   5.713   3.704 -2.0681 -1.1805 -1.8258
 3034SOL    HW311909   0.670   5.847   3.637  0.1886 -0.6330 -1.5466
 3034SOL    MW411910   0.712   5.771   3.643  0.1761 -0.5840 -0.6112
 3035SOL     OW11911   1.080   3.552   4.670 -0.2743 -0.1594 -0.6026
 3035SOL    HW211912   1.148   3.499   4.628 -1.6553 -1.6941 -0.9785
 3035SOL    HW311913   1.053   3.500   4.746 -1.3043  0.2330 -0.6922
 3035SOL    MW411914   1.085   3.538   4.674 -0.5924 -0.3101 -0.6640
 3036SOL     OW11915   3.494   1.024   2.624  0.1212  0.0014 -0.5209
 3036SOL    HW211916   3.519   0.944   2.578 -0.1246 -0.1525 -0.3881
 3036SOL    HW311917   3.564   1.039   2.687  1.1632  0.9556 -1.8520
 3036SOL    MW411918   3.507   1.015   2.626  0.2262  0.1070 -0.6790
 3037SOL     OW11919   2.662   3.988   5.569  0.2613  0.5931  0.2760
 3037SOL    HW211920   2.650   3.942   5.652 -0.7525  1.1628  0.4515
 3037SOL    HW311921   2.594   4.054   5.568  1.0174  1.3842 -0.4758
 3037SOL    MW411922   2.652   3.991   5.580  0.2273  0.7726  0.2000
 3038SOL     OW11923   4.523   2.973   5.330 -0.1588 -0.1799 -0.0998
 3038SOL    HW211924   4.459   3.034   5.293  0.9407  2.7667  2.4530
 3038SOL    HW311925   4.472   2.896   5.355 -2.3917  1.2916  0.1271
 3038SOL    MW411926   4.508   2.971   5.328 -0.3083  0.4030  0.2669
 3039SOL     OW11927   4.950   6.037   4.980  0.0781  0.3044 -0.2779
 3039SOL    HW211928   5.016   6.074   5.038 -1.0701 -0.8103  1.8433
 3039SOL    HW311929   4.999   5.985   4.917  1.2932  0.7315  0.2937
 3039SOL    MW411930   4.965   6.035   4.979  0.0869  0.2137  0.0774
 3040SOL     OW11931   2.792   1.457   0.875  0.3876  0.2656  0.3429
 3040SOL    HW211932   2.766   1.467   0.783 -0.8147  1.6196  0.7763
 3040SOL    HW311933   2.713   1.425   0.919  0.3474  1.4242  1.1823
 3040SOL    MW411934   2.778   1.454   0.869  0.2237  0.5971  0.5109
 3041SOL     OW11935   0.986   5.550   5.061 -0.1601 -0.2443  0.4436
 3041SOL    HW211936   0.904   5.528   5.105 -1.0997 -0.4551 -1.2883
 3041SOL    HW311937   1.021   5.624   5.110 -1.6456  0.1628  0.9525
 3041SOL    MW411938   0.980   5.557   5.073 -0.4801 -0.2184  0.2822
 3042SOL     OW11939   6.210   2.379   1.825 -0.2376  0.4900 -0.9396
 3042SOL    HW211940   6.185   2.436   1.897 -1.3092  1.1655 -1.8033
 3042SOL    HW311941   6.303   2.362   1.838 -0.8652 -1.4754  2.0157
 3042SOL    MW411942   6.219   2.384   1.836 -0.4618  0.3198 -0.6636
 3043SOL     OW11943   3.984   1.788   5.195  0.2439 -0.6737  0.1151
 3043SOL    HW211944   3.956   1.877   5.175  0.1409 -0.8064 -0.3614
 3043SOL    HW311945   4.016   1.754   5.111  1.5131 -0.6424  0.5628
 3043SOL    MW411946   3.985   1.795   5.181  0.3978 -0.6871  0.1113
 3044SOL     OW11947   2.033   6.200   3.812 -0.2679 -0.7134  0.1375
 3044SOL    HW211948   2.009   6.282   3.768  0.0796 -0.2667  0.7608
 3044SOL    HW311949   1.987   6.132   3.763  0.2502 -0.2561 -1.0279
 3044SOL    MW411950   2.024   6.202   3.800 -0.1537 -0.5941  0.0659
 3045SOL     OW11951   6.226   3.696   0.158 -0.5533 -0.7102 -0.5245
 3045SOL    HW211952   6.278   3.667   0.083 -0.5917 -1.6300 -0.2095
 3045SOL    HW311953   6.274   3.665   0.234 -1.4689 -1.4409 -0.2254
 3045SOL    MW411954   6.239   3.688   0.158 -0.6792 -0.9280 -0.4435
 3046SOL     OW11955   3.354   2.458   4.989 -0.1328  0.0619 -0.2141
 3046SOL    HW211956   3.415   2.499   5.051 -1.4742  1.3979  0.3020
 3046SOL    HW311957   3.408   2.429   4.916  1.0095  2.1368 -0.2545
 3046SOL    MW411958   3.369   2.459   4.988 -0.1591  0.5119 -0.1514
 3047SOL     OW11959   2.902   5.820   5.123  0.2937 -0.2559 -0.5719
 3047SOL    HW211960   2.961   5.754   5.087 -0.2568 -0.4091 -1.2221
 3047SOL    HW311961   2.816   5.778   5.122  0.2225 -0.1781  0.7396
 3047SOL    MW411962   2.898   5.806   5.118  0.2116 -0.2659 -0.4847
 3048SOL     OW11963   3.095   4.421   3.181 -0.0816 -0.4106 -0.0478
 3048SOL    HW211964   3.096   4.473   3.100  3.1552  1.1064  0.8060
 3048SOL    HW311965   3.166   4.358   3.170 -0.6154 -1.2292  1.0179
 3048SOL    MW411966   3.104   4.420   3.168  0.2750 -0.3184  0.2055
 3049SOL     OW11967   2.620   5.229   3.744 -0.0050  0.3017 -0.3488
 3049SOL    HW211968   2.667   5.147   3.729 -1.5435 -0.3204 -2.2186
 3049SOL    HW311969   2.559   5.209   3.815 -0.6093 -0.3139 -1.0221
 3049SOL    MW411970   2.618   5.215   3.752 -0.2877  0.1384 -0.6844
 3050SOL     OW11971   2.318   0.974   1.644  0.2050 -0.0125  0.1586
 3050SOL    HW211972   2.405   0.965   1.607 -0.1762 -1.4304 -0.4603
 3050SOL    HW311973   2.321   1.056   1.693  1.4958  0.5952 -0.8851
 3050SOL    MW411974   2.330   0.983   1.646  0.3250 -0.1194 -0.0608
 3051SOL     OW11975   1.496   1.855   0.528 -0.0753  0.1329  0.3151
 3051SOL    HW211976   1.423   1.913   0.507 -1.3668 -1.3629  0.4330
 3051SOL    HW311977   1.481   1.830   0.619  0.6840 -0.0430  0.3950
 3051SOL    MW411978   1.484   1.859   0.537 -0.1455 -0.0877  0.3412
 3052SOL     OW11979   2.407   5.118   4.454 -0.4470 -0.2880  0.0333
 3052SOL    HW211980   2.359   5.131   4.373 -1.1883 -0.1846  0.4790
 3052SOL    HW311981   2.360   5.171   4.519 -1.0256 -1.8590  0.9586
 3052SOL    MW411982   2.395   5.127   4.452 -0.6211 -0.4816  0.2142
 3053SOL     OW11983   0.760   2.744   0.009  0.1781  0.2400 -0.3144
 3053SOL    HW211984   0.749   2.665   0.062 -0.1979 -0.1661 -0.9823
 3053SOL    HW311985   0.677   2.754  -0.036  0.5748  0.4253 -1.0252
 3053SOL    MW411986   0.748   2.735   0.010  0.1809  0.2108 -0.4963
 3054SOL     OW11987   1.653   4.507   3.512 -0.1646 -0.1015  0.2315
 3054SOL    HW211988   1.670   4.597   3.540 -1.5262  0.1292  0.3560
 3054SOL    HW311989   1.569   4.511   3.467  0.0391 -1.2173 -0.2781
 3054SOL    MW411990   1.644   4.519   3.510 -0.3174 -0.2183  0.1807
 3055SOL     OW11991   1.568   1.974   3.748  0.2302 -0.0085  0.9528
 3055SOL    HW211992   1.583   1.900   3.806  0.9629 -0.8616 -0.2705
 3055SOL    HW311993   1.502   1.942   3.686  0.4803  0.3952  0.4714
 3055SOL    MW411994   1.561   1.960   3.747  0.3598 -0.0678  0.7279
 3056SOL     OW11995   0.614   0.284   2.010 -1.1134 -0.0632 -0.1395
 3056SOL    HW211996   0.682   0.216   2.007 -1.1771 -0.1874  0.9490
 3056SOL    HW311997   0.612   0.312   2.101 -3.0202 -0.5550  0.0155
 3056SOL    MW411998   0.623   0.279   2.022 -1.3734 -0.1445  0.0245
 3057SOL     OW11999   3.915   6.065   0.864  0.0094  0.5099 -0.5011
 3057SOL    HW212000   3.927   6.060   0.959  0.8613  1.2882 -0.5498
 3057SOL    HW312001   3.833   6.112   0.852  0.8305  2.0975 -0.1346
 3057SOL    MW412002   3.906   6.071   0.875  0.2301  0.8221 -0.4591
 3058SOL     OW12003   1.250   2.924   1.172 -0.6265 -0.6428  0.0368
 3058SOL    HW212004   1.321   2.986   1.191 -0.3384 -1.0257  0.2298
 3058SOL    HW312005   1.210   2.957   1.092  0.4797 -1.0349 -0.6953
 3058SOL    MW412006   1.254   2.937   1.164 -0.4426 -0.7451 -0.0343
 3059SOL     OW12007   2.880   2.421   3.023  0.1266 -0.2867 -0.6628
 3059SOL    HW212008   2.876   2.359   3.095  0.4901  0.3539 -0.0754
 3059SOL    HW312009   2.973   2.431   3.004  0.4795  2.8677  1.7954
 3059SOL    MW412010   2.892   2.414   3.030  0.2211  0.2140 -0.2610
 3060SOL     OW12011   1.297   4.971   4.016  0.0466 -0.0153  0.2396
 3060SOL    HW212012   1.218   5.019   3.992 -0.1870  0.2548  1.4958
 3060SOL    HW312013   1.271   4.917   4.091  1.1053  0.2347  0.8056
 3060SOL    MW412014   1.283   4.970   4.022  0.1555  0.0533  0.4801
 3061SOL     OW12015   4.657   3.080   0.211 -0.1223  0.5006 -0.1462
 3061SOL    HW212016   4.620   3.102   0.125 -0.1553 -2.2398 -0.9323
 3061SOL    HW312017   4.747   3.112   0.207 -0.2171  0.6814 -1.0661
 3061SOL    MW412018   4.664   3.087   0.199 -0.1391  0.1629 -0.3713
 3062SOL     OW12019   4.270   0.025   1.847 -0.1237 -0.1571  0.1963
 3062SOL    HW212020   4.316   0.061   1.924 -0.0556  1.1728 -0.4409
 3062SOL    HW312021   4.179   0.015   1.877  0.2818 -1.5560  1.0552
 3062SOL    MW412022   4.264   0.028   1.861 -0.0612 -0.1662  0.2255
 3063SOL     OW12023   1.494   4.615   1.794  0.0553  1.0875 -0.4763
 3063SOL    HW212024   1.436   4.666   1.849  0.0821  0.6968 -0.0817
 3063SOL    HW312025   1.436   4.560   1.741  0.0412  1.2027 -0.5801
 3063SOL    MW412026   1.479   4.614   1.794  0.0570  1.0511 -0.4380
 3064SOL     OW12027   5.331   1.721   3.112  0.3824 -0.2883  0.5212
 3064SOL    HW212028   5.283   1.798   3.141 -0.0822 -0.4729  0.2557
 3064SOL    HW312029   5.336   1.665   3.190 -0.8455 -0.7742  0.2849
 3064SOL    MW412030   5.325   1.723   3.126  0.1591 -0.3768  0.4550
 3065SOL     OW12031   1.645   5.589   3.999 -0.2045  0.1630 -0.2940
 3065SOL    HW212032   1.715   5.529   3.975  0.3615  0.2874  0.9896
 3065SOL    HW312033   1.582   5.535   4.046 -0.6351  0.1951 -0.8233
 3065SOL    MW412034   1.646   5.574   4.002 -0.1866  0.1837 -0.1945
 3066SOL     OW12035   1.636   1.174   4.573  0.6309  0.0577 -0.0255
 3066SOL    HW212036   1.695   1.235   4.617 -0.6009  1.5575 -0.3711
 3066SOL    HW312037   1.688   1.139   4.500  1.3262  0.7736  0.1132
 3066SOL    MW412038   1.650   1.177   4.569  0.5601  0.3501 -0.0528
 3067SOL     OW12039   2.038   3.769   1.055 -0.4602 -0.4743 -0.3523
 3067SOL    HW212040   2.038   3.714   1.133  0.2358  2.3235  1.8090
 3067SOL    HW312041   2.129   3.794   1.043 -0.9056  1.2763 -0.3684
 3067SOL    MW412042   2.050   3.765   1.063 -0.4272  0.1258 -0.0693
 3068SOL     OW12043   5.497   1.223   1.344 -0.5543  0.8242 -0.3317
 3068SOL    HW212044   5.589   1.204   1.364 -1.4632 -1.7647  2.1354
 3068SOL    HW312045   5.453   1.214   1.428 -3.3301  0.2085 -1.7548
 3068SOL    MW412046   5.503   1.219   1.358 -1.0405  0.4014 -0.1940
 3069SOL     OW12047   4.049   6.401   5.675 -0.2501 -0.4782  0.6906
 3069SOL    HW212048   4.078   6.311   5.663 -1.1601 -0.7016  0.0837
 3069SOL    HW312049   4.080   6.424   5.763  2.4339 -0.3987 -0.1849
 3069SOL    MW412050   4.057   6.392   5.685 -0.0160 -0.4972  0.4950
 3070SOL     OW12051   4.838   0.877   0.575 -0.3104 -0.2489  0.1553
 3070SOL    HW212052   4.785   0.805   0.609  0.5439 -0.7307  0.5136
 3070SOL    HW312053   4.851   0.935   0.651 -0.3458 -0.1177  0.0620
 3070SOL    MW412054   4.833   0.875   0.590 -0.2024 -0.2952  0.1903
 3071SOL     OW12055   3.974   2.461   5.171  0.1607  0.2240 -0.3042
 3071SOL    HW212056   3.956   2.461   5.265 -0.5196  0.9648 -0.4229
 3071SOL    HW312057   3.889   2.452   5.129  0.6709 -2.8512 -0.8792
 3071SOL    MW412058   3.961   2.460   5.178  0.1383 -0.0840 -0.3957
 3072SOL     OW12059   4.655   1.708   5.242  0.7114  0.1998  0.4447
 3072SOL    HW212060   4.750   1.702   5.232  0.7200 -0.6031  0.8706
 3072SOL    HW312061   4.625   1.617   5.234 -0.3457  0.6913 -2.5942
 3072SOL    MW412062   4.664   1.695   5.239  0.5730  0.1587  0.1000
 3073SOL     OW12063   6.163   5.832   4.783 -0.6409 -0.2295  0.3078
 3073SOL    HW212064   6.215   5.912   4.776  0.3123 -0.8071  0.5595
 3073SOL    HW312065   6.226   5.761   4.770 -1.6515 -0.9345 -1.0159
 3073SOL    MW412066   6.178   5.833   4.781 -0.6485 -0.3987  0.1664
 3074SOL     OW12067   6.202   1.931   2.059 -0.1484 -0.3525 -0.1143
 3074SOL    HW212068   6.260   1.931   1.983  0.4350  0.8629  0.3053
 3074SOL    HW312069   6.146   2.008   2.048 -0.7072 -0.6931  0.2231
 3074SOL    MW412070   6.202   1.941   2.048 -0.1452 -0.2371 -0.0144
 3075SOL     OW12071   3.392   3.188   2.538  0.5503 -0.5964  0.2949
 3075SOL    HW212072   3.467   3.166   2.593  0.4164 -0.0914  0.6922
 3075SOL    HW312073   3.356   3.268   2.578 -0.6412 -1.2461  0.5572
 3075SOL    MW412074   3.397   3.196   2.551  0.3754 -0.6155  0.3820
 3076SOL     OW12075   0.575   4.733   4.913  0.3942  0.1772  0.5932
 3076SOL    HW212076   0.516   4.807   4.929  0.1825  0.3121 -0.6673
 3076SOL    HW312077   0.643   4.769   4.856 -0.3367 -0.8202 -1.0063
 3076SOL    MW412078   0.576   4.748   4.907  0.2698  0.0634  0.2159
 3077SOL     OW12079   2.364   1.004   1.072  0.3250 -0.1571 -0.6274
 3077SOL    HW212080   2.305   1.049   1.011 -1.1960 -0.2169  0.7331
 3077SOL    HW312081   2.407   1.074   1.121 -0.0760 -0.1323 -0.3048
 3077SOL    MW412082   2.362   1.019   1.070  0.0714 -0.1618 -0.4054
 3078SOL     OW12083   6.033   5.479   2.202  0.3551  0.6984  0.7869
 3078SOL    HW212084   6.113   5.531   2.193 -0.7836  2.3129 -0.9319
 3078SOL    HW312085   5.983   5.524   2.271  0.9508 -0.3789  1.9452
 3078SOL    MW412086   6.037   5.492   2.210  0.2834  0.7693  0.7129
 3079SOL     OW12087   0.373   1.459   6.214  0.0061 -0.0948  0.2982
 3079SOL    HW212088   0.282   1.447   6.188 -0.5588  1.3299  1.5182
 3079SOL    HW312089   0.387   1.553   6.212  2.0037 -0.3643 -1.5374
 3079SOL    MW412090   0.363   1.470   6.211  0.1951  0.0576  0.2170
 3080SOL     OW12091   3.990   2.531   4.793  0.0238  0.8186  0.2999
 3080SOL    HW212092   4.021   2.617   4.821  0.6759  0.9082 -0.6400
 3080SOL    HW312093   4.053   2.469   4.830  0.2893  0.8546 -0.0849
 3080SOL    MW412094   4.003   2.534   4.801  0.1449  0.8352  0.1251
 3081SOL     OW12095   2.315   3.582   2.317  0.0635  0.4381 -0.4555
 3081SOL    HW212096   2.261   3.590   2.396 -0.5156  0.4429 -0.8435
 3081SOL    HW312097   2.252   3.581   2.245  0.5964  0.7404 -0.9399
 3081SOL    MW412098   2.300   3.583   2.318  0.0574  0.4786 -0.5706
 3082SOL     OW12099   5.563   2.987   5.341 -0.6101 -0.0623 -0.4649
 3082SOL    HW212100   5.488   2.950   5.295 -0.1072 -2.2077  0.3166
 3082SOL    HW312101   5.538   2.985   5.433 -0.3530  1.1312 -0.3540
 3082SOL    MW412102   5.550   2.982   5.347 -0.5098 -0.1879 -0.3471
 3083SOL     OW12103   6.064   0.644   4.020  0.0279 -0.2415 -0.2823
 3083SOL    HW212104   6.081   0.606   3.934 -0.5532  1.2269 -1.0885
 3083SOL    HW312105   6.038   0.734   4.002  2.0964  0.8358  1.5643
 3083SOL    MW412106   6.063   0.651   4.007  0.2242  0.0944 -0.1450
 3084SOL     OW12107   4.571   0.022   5.678  0.7377  0.0652  0.7515
 3084SOL    HW212108   4.591  -0.070   5.695  1.1905 -0.1030 -0.5494
 3084SOL    HW312109   4.552   0.059   5.764  1.5792 -1.0032  1.4285
 3084SOL    MW412110   4.571   0.014   5.692  0.9085 -0.0979  0.6692
 3085SOL     OW12111   1.649   4.575   2.925  0.3522  0.0707  0.1621
 3085SOL    HW212112   1.733   4.530   2.920 -0.1737 -1.1748  1.5459
 3085SOL    HW312113   1.636   4.612   2.838  2.5868  0.8109  0.0788
 3085SOL    MW412114   1.658   4.574   2.913  0.5777  0.0040  0.3337
 3086SOL     OW12115   2.277   0.441   2.203  0.4945 -0.1795  0.0516
 3086SOL    HW212116   2.345   0.374   2.199  1.1733  0.3878  1.4949
 3086SOL    HW312117   2.241   0.443   2.114  1.9867 -0.8606 -0.6096
 3086SOL    MW412118   2.281   0.432   2.191  0.7809 -0.1945  0.1548
 3087SOL     OW12119   2.278   0.513   0.238  0.5583  0.1079 -0.4894
 3087SOL    HW212120   2.225   0.498   0.316  1.3915  0.4071  0.1473
 3087SOL    HW312121   2.226   0.574   0.185 -0.2916 -0.5887 -0.4747
 3087SOL    MW412122   2.264   0.519   0.241  0.5561  0.0554 -0.4035
 3088SOL     OW12123   3.594   1.214  -0.007  0.5998  0.1503  0.4878
 3088SOL    HW212124   3.531   1.170   0.049  2.5681 -0.1628  2.6326
 3088SOL    HW312125   3.588   1.169  -0.091  0.6045 -2.4201  1.7739
 3088SOL    MW412126   3.585   1.202  -0.011  0.8601 -0.2301  0.9405
 3089SOL     OW12127   3.374   6.118   1.755  0.4017 -0.5247  0.6598
 3089SOL    HW212128   3.332   6.154   1.833  1.6964  0.5763  0.8860
 3089SOL    HW312129   3.401   6.195   1.705 -2.6507 -1.0999 -2.2369
 3089SOL    MW412130   3.372   6.133   1.759  0.1698 -0.4553  0.3075
 3090SOL     OW12131   4.941   1.687   5.212 -0.4079 -0.0781  0.6334
 3090SOL    HW212132   4.970   1.741   5.285 -0.6527  0.8142  0.0882
 3090SOL    HW312133   4.975   1.600   5.231  1.2718  0.5788  0.8168
 3090SOL    MW412134   4.949   1.683   5.224 -0.2186  0.1263  0.5857
 3091SOL     OW12135   0.382   4.020   1.196 -0.3146 -0.4390 -0.3216
 3091SOL    HW212136   0.473   4.050   1.193 -0.4689 -0.0135 -1.1370
 3091SOL    HW312137   0.333   4.092   1.234 -0.4861 -0.1634 -1.0406
 3091SOL    MW412138   0.388   4.033   1.200 -0.3576 -0.3465 -0.5240
 3092SOL     OW12139   1.340   2.206   4.637 -0.2108  0.0928  0.3797
 3092SOL    HW212140   1.245   2.202   4.642 -0.2297 -2.1728 -0.3264
 3092SOL    HW312141   1.370   2.148   4.708  0.6175  0.3200  0.2235
 3092SOL    MW412142   1.332   2.198   4.647 -0.1040 -0.1761  0.2660
 3093SOL     OW12143   4.438   3.980   0.762  0.0736  0.0825 -0.4513
 3093SOL    HW212144   4.484   3.957   0.681  1.8828  0.5276  0.3987
 3093SOL    HW312145   4.417   3.896   0.802  1.0010 -0.1503 -0.4164
 3093SOL    MW412146   4.442   3.966   0.756  0.4347  0.1105 -0.3345
 3094SOL     OW12147   3.296   0.634   0.736  0.2195 -0.2722 -0.3931
 3094SOL    HW212148   3.260   0.703   0.680  0.1004 -1.2725 -1.6020
 3094SOL    HW312149   3.348   0.580   0.677  2.3999  0.1804  0.9898
 3094SOL    MW412150   3.298   0.636   0.721  0.4915 -0.3445 -0.3702
 3095SOL     OW12151   4.282   3.792   5.039 -0.1283 -0.1652  0.8599
 3095SOL    HW212152   4.358   3.835   5.080 -0.0561  0.0989  0.4510
 3095SOL    HW312153   4.298   3.699   5.051  0.0597 -0.1010  1.1336
 3095SOL    MW412154   4.294   3.786   5.046 -0.0940 -0.1219  0.8420
 3096SOL     OW12155   0.974   1.445   3.964  0.6737 -0.0051  0.2880
 3096SOL    HW212156   1.069   1.441   3.951  0.9699  0.9675  1.9694
 3096SOL    HW312157   0.940   1.480   3.882  1.6357 -1.2764 -0.7080
 3096SOL    MW412158   0.982   1.449   3.951  0.8397 -0.0445  0.3784
 3097SOL     OW12159   3.400   5.582   1.269  0.1693  0.0950 -0.6662
 3097SOL    HW212160   3.369   5.564   1.357  0.0741  1.3194 -0.4394
 3097SOL    HW312161   3.372   5.505   1.218 -2.0430  0.5083 -0.1812
 3097SOL    MW412162   3.392   5.569   1.274 -0.1351  0.3111 -0.5723
 3098SOL     OW12163   1.378   4.869   1.337  0.3301 -0.2751 -0.9054
 3098SOL    HW212164   1.347   4.945   1.387 -2.1378 -2.8983  1.9310
 3098SOL    HW312165   1.373   4.897   1.245 -2.4950  2.3449 -0.1181
 3098SOL    MW412166   1.373   4.883   1.331 -0.3682 -0.2755 -0.4273
 3099SOL     OW12167   4.617   4.010   1.700  0.7570  0.1267  0.7150
 3099SOL    HW212168   4.534   3.963   1.693  1.2705 -0.8215  0.8860
 3099SOL    HW312169   4.633   4.041   1.611  0.4767 -0.1321  0.5691
 3099SOL    MW412170   4.608   4.008   1.687  0.7877 -0.0326  0.7183
 3100SOL     OW12171   0.733   3.565   3.850 -0.2178  0.0392 -0.2064
 3100SOL    HW212172   0.698   3.647   3.814 -0.8317 -0.0651  0.1347
 3100SOL    HW312173   0.775   3.521   3.775  0.2245  0.7138 -0.3679
 3100SOL    MW412174   0.734   3.570   3.835 -0.2405  0.1144 -0.1827
 3101SOL     OW12175   4.262   1.123   3.203 -0.1491  0.0966 -0.0754
 3101SOL    HW212176   4.185   1.180   3.197 -0.6905 -0.2166  2.5127
 3101SOL    HW312177   4.336   1.179   3.181 -0.9141  1.0851 -0.2031
 3101SOL    MW412178   4.261   1.138   3.199 -0.3214  0.1857  0.2492
 3102SOL     OW12179   4.315   1.108   3.824  0.0192 -0.1904 -0.1647
 3102SOL    HW212180   4.390   1.102   3.883  0.4494 -1.8494 -0.8025
 3102SOL    HW312181   4.336   1.179   3.764  1.2009 -0.7736 -0.4658
 3102SOL    MW412182   4.328   1.116   3.824  0.2319 -0.4862 -0.2886
 3103SOL     OW12183   4.099   1.542   1.737 -0.4934  0.2963 -0.5004
 3103SOL    HW212184   4.100   1.595   1.816 -0.0619 -0.4615  0.0132
 3103SOL    HW312185   4.040   1.470   1.757  0.2608 -0.3503 -0.5513
 3103SOL    MW412186   4.091   1.539   1.750 -0.3370  0.1110 -0.4394
 3104SOL     OW12187   0.303   6.404   1.048  0.1908  0.4213  0.2574
 3104SOL    HW212188   0.309   6.311   1.069  1.8914  0.2808 -0.6910
 3104SOL    HW312189   0.312   6.448   1.132 -2.0170 -0.2499  0.9153
 3104SOL    MW412190   0.305   6.397   1.062  0.1239  0.3142  0.2190
 3105SOL     OW12191   4.236   5.195   1.589  0.0790  0.1132  0.0584
 3105SOL    HW212192   4.307   5.131   1.601 -1.1519 -1.3345 -0.1035
 3105SOL    HW312193   4.271   5.257   1.524  1.4786 -0.1017  0.5592
 3105SOL    MW412194   4.250   5.195   1.582  0.1013 -0.1061  0.1031
 3106SOL     OW12195   0.120   1.772   0.549  0.2615 -0.4469  1.3218
 3106SOL    HW212196   0.025   1.775   0.544  0.2683  0.4424  1.5850
 3106SOL    HW312197   0.142   1.833   0.620  1.1208  0.8942 -0.0319
 3106SOL    MW412198   0.111   1.781   0.558  0.3757 -0.1526  1.1779
 3107SOL     OW12199   3.355   5.782   0.034  0.3316  0.2973 -0.1502
 3107SOL    HW212200   3.303   5.852  -0.004 -0.3725 -0.7237 -1.1577
 3107SOL    HW312201   3.444   5.797   0.002  0.2432  0.8901 -0.1134
 3107SOL    MW412202   3.360   5.793   0.025  0.2270  0.2408 -0.2783
 3108SOL     OW12203   0.866   1.583   0.642  0.0560  0.3096  0.1182
 3108SOL    HW212204   0.937   1.645   0.660 -1.6532  1.8031  2.3935
 3108SOL    HW312205   0.895   1.502   0.683  1.9094 -0.2116 -2.0518
 3108SOL    MW412206   0.879   1.581   0.650  0.0750  0.4379  0.1321
 3109SOL     OW12207   5.258   1.020   2.730  0.3938 -0.0099  0.5134
 3109SOL    HW212208   5.308   0.939   2.715 -0.1584 -0.2576 -0.0796
 3109SOL    HW312209   5.224   1.043   2.643  0.6873  0.9663  0.6437
 3109SOL    MW412210   5.260   1.012   2.717  0.3597  0.0862  0.4524
 3110SOL     OW12211   5.341   1.022   0.527 -0.3007  0.5071  0.6404
 3110SOL    HW212212   5.304   0.982   0.448 -0.2455  0.3088  0.7144
 3110SOL    HW312213   5.326   1.116   0.516  1.6325  0.7205 -0.6463
 3110SOL    MW412214   5.334   1.029   0.515 -0.0384  0.5091  0.4804
 3111SOL     OW12215   5.660   1.443   3.514 -0.0726 -0.6795 -0.2050
 3111SOL    HW212216   5.608   1.517   3.545  1.9873  1.2840 -1.1394
 3111SOL    HW312217   5.643   1.373   3.578 -0.1399  1.4409  2.2493
 3111SOL    MW412218   5.651   1.443   3.527  0.1903 -0.1407 -0.0044
 3112SOL     OW12219   5.028   2.901   2.488  0.2856  0.4387 -0.3317
 3112SOL    HW212220   4.969   2.831   2.517  0.5018  0.2791 -0.2802
 3112SOL    HW312221   4.975   2.980   2.495  1.0707  0.8291  2.9749
 3112SOL    MW412222   5.013   2.902   2.493  0.4177  0.4691  0.1113
 3113SOL     OW12223   5.938   3.938   4.716 -0.6476  0.1687 -0.0203
 3113SOL    HW212224   6.024   3.933   4.674 -0.4149  0.5684  0.3953
 3113SOL    HW312225   5.884   3.875   4.668 -0.1172 -0.1028 -0.2713
 3113SOL    MW412226   5.942   3.929   4.704 -0.5469  0.1856  0.0014
 3114SOL     OW12227   1.468   6.202   4.750 -0.5175  0.0611 -0.3260
 3114SOL    HW212228   1.531   6.131   4.760  1.3449  1.8447  1.6674
 3114SOL    HW312229   1.388   6.159   4.720  0.8876 -2.6427 -0.5191
 3114SOL    MW412230   1.466   6.187   4.747 -0.0864 -0.0603 -0.0885
 3115SOL     OW12231   6.295   3.695   2.542 -0.6116 -0.4734 -0.4100
 3115SOL    HW212232   6.371   3.705   2.485  0.1055 -1.4744  0.3247
 3115SOL    HW312233   6.236   3.637   2.494  0.8712 -3.0209  0.5908
 3115SOL    MW412234   6.298   3.688   2.528 -0.3214 -0.9416 -0.1810
 3116SOL     OW12235   6.183   0.265   3.252  0.1725 -0.0461  0.3261
 3116SOL    HW212236   6.157   0.175   3.269  0.3728 -0.1745 -0.0381
 3116SOL    HW312237   6.212   0.298   3.337  1.3129 -0.7268  0.2226
 3116SOL    MW412238   6.183   0.258   3.265  0.3494 -0.1528  0.2644
 3117SOL     OW12239   2.029   4.104   1.876  0.2802 -0.7383 -0.1943
 3117SOL    HW212240   2.086   4.141   1.944 -0.1349 -0.4523  0.0018
 3117SOL    HW312241   1.942   4.141   1.895  0.2848 -0.1789 -1.2518
 3117SOL    MW412242   2.025   4.114   1.888  0.2260 -0.6268 -0.3080
 3118SOL     OW12243   5.774   4.921   2.218  0.1894  0.1679 -0.1918
 3118SOL    HW212244   5.777   5.016   2.209 -0.4147  0.1165 -0.9428
 3118SOL    HW312245   5.847   4.889   2.165 -0.1285  0.1687 -0.6342
 3118SOL    MW412246   5.784   4.930   2.210  0.0678  0.1613 -0.3492
 3119SOL     OW12247   6.122   2.665   6.252 -0.0385 -0.2382  0.0831
 3119SOL    HW212248   6.049   2.695   6.198 -0.2024  0.0592  0.4657
 3119SOL    HW312249   6.088   2.667   6.341  0.2372 -0.7046  0.1999
 3119SOL    MW412250   6.108   2.669   6.257 -0.0237 -0.2605  0.1490
 3120SOL     OW12251   1.390   2.573   3.379 -0.3744 -0.0387  0.2787
 3120SOL    HW212252   1.464   2.512   3.374 -0.1398  0.3207 -1.0527
 3120SOL    HW312253   1.313   2.520   3.360 -0.2904 -0.1283  0.1899
 3120SOL    MW412254   1.390   2.558   3.376 -0.3323 -0.0031  0.0913
 3121SOL     OW12255   0.034   2.809   2.223 -0.4488  0.3242  0.1487
 3121SOL    HW212256  -0.055   2.842   2.237 -0.9758 -1.1530  0.5579
 3121SOL    HW312257   0.064   2.853   2.144 -0.1934  3.4534  1.8412
 3121SOL    MW412258   0.026   2.819   2.214 -0.4846  0.5422  0.4260
 3122SOL     OW12259   4.455   5.337   5.964  0.3486 -0.7257 -0.2586
 3122SOL    HW212260   4.419   5.253   5.993  0.8556 -0.7846  0.2149
 3122SOL    HW312261   4.473   5.325   5.871 -0.9729 -0.6481 -0.5466
 3122SOL    MW412262   4.452   5.325   5.955  0.2412 -0.7232 -0.2341
 3123SOL     OW12263   2.568   3.851   0.479  0.3444 -0.2719 -0.0430
 3123SOL    HW212264   2.645   3.836   0.534 -0.5397 -0.0220  1.3017
 3123SOL    HW312265   2.604   3.871   0.392  1.7397 -2.0880  0.0547
 3123SOL    MW412266   2.583   3.852   0.474  0.4119 -0.4785  0.1473
 3124SOL     OW12267   1.025   6.286   0.772  0.6610 -0.1577 -0.2531
 3124SOL    HW212268   1.091   6.229   0.813  1.3508 -0.8955 -2.2533
 3124SOL    HW312269   1.053   6.374   0.794  1.3075 -0.5144  0.4178
 3124SOL    MW412270   1.037   6.290   0.781  0.8373 -0.3021 -0.4285
 3125SOL     OW12271   5.223   6.414   2.600  0.2409  0.0278  0.0856
 3125SOL    HW212272   5.216   6.359   2.678 -0.9233 -1.3384 -0.9178
 3125SOL    HW312273   5.311   6.399   2.566  0.2890 -0.3948  0.4026
 3125SOL    MW412274   5.233   6.405   2.606  0.0936 -0.2082 -0.0050
 3126SOL     OW12275   0.677   3.604   2.967  0.7243  0.2631 -0.2916
 3126SOL    HW212276   0.678   3.683   2.912  0.0755  0.7972  0.4321
 3126SOL    HW312277   0.719   3.537   2.914  1.1463  1.0597 -0.9884
 3126SOL    MW412278   0.682   3.606   2.953  0.6944  0.4387 -0.2880
 3127SOL     OW12279   0.190   2.044   1.077  0.2374 -0.0431 -0.0028
 3127SOL    HW212280   0.239   1.965   1.053 -0.0597  0.4886 -2.7798
 3127SOL    HW312281   0.254   2.115   1.067 -0.6095  0.4937 -2.1608
 3127SOL    MW412282   0.205   2.043   1.072  0.0864  0.0979 -0.6539
 3128SOL     OW12283   0.490   3.719   0.255 -0.0391 -0.3164  0.0290
 3128SOL    HW212284   0.522   3.677   0.175  0.5804 -0.7855  0.5098
 3128SOL    HW312285   0.567   3.722   0.312 -0.6769 -0.7657  0.9324
 3128SOL    MW412286   0.505   3.714   0.252 -0.0415 -0.4376  0.2116
 3129SOL     OW12287   2.713   0.254   1.018 -0.6304 -0.2636 -0.0890
 3129SOL    HW212288   2.648   0.185   1.030 -0.6138 -0.1987  0.4075
 3129SOL    HW312289   2.735   0.251   0.925 -0.9432 -0.6440 -0.1522
 3129SOL    MW412290   2.707   0.245   1.007 -0.6695 -0.3053 -0.0318
 3130SOL     OW12291   1.093   5.103   1.757  0.1214 -0.2999 -0.1536
 3130SOL    HW212292   1.183   5.073   1.767  0.7056  1.5788  0.8085
 3130SOL    HW312293   1.101   5.192   1.722 -1.3305  0.1135  0.4773
 3130SOL    MW412294   1.106   5.111   1.754  0.0069  0.0025  0.0566
 3131SOL     OW12295   3.032   6.320   0.655 -0.0196  0.1391  0.1102
 3131SOL    HW212296   3.024   6.230   0.687 -0.9267 -0.3496 -1.3848
 3131SOL    HW312297   2.960   6.367   0.697 -0.5842 -0.2549 -0.3945
 3131SOL    MW412298   3.022   6.315   0.665 -0.2138  0.0226 -0.1537
 3132SOL     OW12299   1.380   2.230   0.660 -0.2899 -0.5119 -0.7578
 3132SOL    HW212300   1.329   2.294   0.610  0.2746  0.8208  0.2988
 3132SOL    HW312301   1.335   2.147   0.645 -1.5404  0.2606 -1.5138
 3132SOL    MW412302   1.367   2.228   0.651 -0.3804 -0.2342 -0.7181
 3133SOL     OW12303   2.262   4.822   1.489 -0.9287  0.6897  0.6368
 3133SOL    HW212304   2.325   4.892   1.476  0.4672 -0.6888 -0.3517
 3133SOL    HW312305   2.179   4.857   1.457 -0.0075  1.4763 -0.9806
 3133SOL    MW412306   2.260   4.836   1.483 -0.6230  0.6116  0.2930
 3134SOL     OW12307   0.154   3.270   3.147  0.1753 -0.1624  0.1790
 3134SOL    HW212308   0.172   3.355   3.186 -0.4645  1.1198 -2.1557
 3134SOL    HW312309   0.155   3.209   3.221 -1.0600  2.0977  2.1983
 3134SOL    MW412310   0.157   3.273   3.162 -0.0721  0.3050  0.1374
 3135SOL     OW12311   5.584   2.573   5.451 -0.1272  0.0332 -0.1209
 3135SOL    HW212312   5.641   2.600   5.522 -0.1852 -0.0016 -0.0609
 3135SOL    HW312313   5.587   2.477   5.453 -0.3067  0.0288 -0.0206
 3135SOL    MW412314   5.592   2.564   5.461 -0.1585  0.0280 -0.0997
 3136SOL     OW12315   2.893   6.368   3.828  0.2095 -0.1885 -0.3391
 3136SOL    HW212316   2.890   6.275   3.852 -1.4792 -0.4908 -1.5438
 3136SOL    HW312317   2.907   6.413   3.911  1.0666 -1.5011  0.2747
 3136SOL    MW412318   2.895   6.362   3.842  0.0998 -0.4015 -0.4171
 3137SOL     OW12319   5.314   1.399   2.504  0.2423  0.0021  0.1750
 3137SOL    HW212320   5.349   1.447   2.429  0.3338 -0.5200 -0.1224
 3137SOL    HW312321   5.384   1.338   2.528 -1.1477 -2.5590 -1.7564
 3137SOL    MW412322   5.328   1.397   2.497  0.0710 -0.4047 -0.1191
 3138SOL     OW12323   0.830   5.908   4.789 -0.0421  0.1247 -0.5252
 3138SOL    HW212324   0.910   5.859   4.805  0.1079  0.7827  0.9657
 3138SOL    HW312325   0.860   5.998   4.772 -0.4573  0.4650  0.4617
 3138SOL    MW412326   0.844   5.914   4.789 -0.0771  0.2564 -0.1983
 3139SOL     OW12327   2.840   3.347   5.343  0.2880  0.5589 -0.0162
 3139SOL    HW212328   2.846   3.435   5.378 -0.9279  0.2727  0.9917
 3139SOL    HW312329   2.746   3.326   5.345  0.3892 -0.2275 -1.5874
 3139SOL    MW412330   2.828   3.356   5.348  0.1409  0.4174 -0.0905
 3140SOL     OW12331   4.722   1.397   5.545  0.0223 -0.2082 -0.2153
 3140SOL    HW212332   4.628   1.400   5.559  0.1886 -1.3838  1.4734
 3140SOL    HW312333   4.747   1.306   5.565  1.5980  0.2409  0.0326
 3140SOL    MW412334   4.713   1.385   5.549  0.2521 -0.3041  0.0402
 3141SOL     OW12335   6.104   1.071   4.169 -0.1335 -0.3175 -0.5105
 3141SOL    HW212336   6.111   1.132   4.243  1.2082 -0.5692 -0.4110
 3141SOL    HW312337   6.141   1.118   4.095 -1.3975 -0.1010 -1.0254
 3141SOL    MW412338   6.109   1.085   4.169 -0.1233 -0.3221 -0.5653
 3142SOL     OW12339   2.777   5.204   0.878  0.0307 -0.0799 -0.4687
 3142SOL    HW212340   2.853   5.248   0.838  0.2899 -1.9440 -2.1781
 3142SOL    HW312341   2.812   5.164   0.957  0.6574 -0.2212 -0.8078
 3142SOL    MW412342   2.792   5.205   0.883  0.1476 -0.3445 -0.7390
 3143SOL     OW12343   1.078   1.953   3.418  0.0941 -0.3203 -0.2786
 3143SOL    HW212344   1.048   1.889   3.482 -0.4264 -0.7767 -0.9713
 3143SOL    HW312345   1.133   2.013   3.469  1.8551 -2.1650  0.1122
 3143SOL    MW412346   1.082   1.953   3.433  0.2578 -0.6239 -0.3184
 3144SOL     OW12347   2.297   2.294   4.601  0.6639  0.4167 -0.1294
 3144SOL    HW212348   2.352   2.222   4.570 -1.0774 -0.9937 -0.0884
 3144SOL    HW312349   2.344   2.328   4.678  1.0065 -1.3845  0.4975
 3144SOL    MW412350   2.311   2.289   4.607  0.4793 -0.0070 -0.0413
 3145SOL     OW12351   4.055   3.616   1.511  0.2911 -0.2406  0.1429
 3145SOL    HW212352   4.099   3.698   1.533  1.8351  0.1996 -3.7643
 3145SOL    HW312353   4.108   3.548   1.553  1.8589  0.5634 -0.4740
 3145SOL    MW412354   4.068   3.618   1.520  0.7016 -0.0764 -0.4540
 3146SOL     OW12355   3.956   2.085   6.216 -0.0660  0.1329 -0.4526
 3146SOL    HW212356   3.936   2.041   6.299  0.1690  0.6929 -0.0955
 3146SOL    HW312357   4.015   2.157   6.240  0.4125 -0.0061 -1.1701
 3146SOL    MW412358   3.961   2.088   6.230  0.0281  0.1884 -0.5001
 3147SOL     OW12359   6.414   2.605   3.159  0.4211  0.2951  0.0209
 3147SOL    HW212360   6.337   2.577   3.209  0.3999  1.0172  0.4033
 3147SOL    HW312361   6.402   2.700   3.148  0.8300  0.2721 -0.6602
 3147SOL    MW412362   6.402   2.614   3.164  0.4722  0.3873 -0.0185
 3148SOL     OW12363   1.172   1.699   0.040 -0.0572 -0.8501  0.2609
 3148SOL    HW212364   1.084   1.668   0.060  0.5632 -0.8580  3.5540
 3148SOL    HW312365   1.160   1.790   0.014 -0.9253  0.1556  3.7114
 3148SOL    MW412366   1.159   1.707   0.039 -0.0899 -0.7184  1.1506
 3149SOL     OW12367   4.041   2.003   4.318  0.2171 -0.2131  0.1612
 3149SOL    HW212368   3.989   2.070   4.363 -0.6978 -0.2668 -0.7783
 3149SOL    HW312369   4.112   2.052   4.277  0.8292 -0.1138  1.2966
 3149SOL    MW412370   4.043   2.019   4.319  0.1772 -0.2071  0.1870
 3150SOL     OW12371   0.596   0.486   1.754 -0.3124 -0.1952  0.4010
 3150SOL    HW212372   0.579   0.504   1.847  2.0691 -1.8655  1.2921
 3150SOL    HW312373   0.667   0.421   1.756  1.3055  1.2716 -2.6279
 3150SOL    MW412374   0.603   0.479   1.767  0.2153 -0.2221  0.1189
 3151SOL     OW12375   1.426   1.003   3.769 -0.6401  0.5281 -0.1231
 3151SOL    HW212376   1.438   1.046   3.685 -0.5836  1.7961  0.5127
 3151SOL    HW312377   1.515   0.982   3.799 -0.5960  0.9456  0.0485
 3151SOL    MW412378   1.439   1.006   3.762 -0.6268  0.7505 -0.0165
 3152SOL     OW12379   4.324   0.289   4.465  0.3326  0.0226 -0.1396
 3152SOL    HW212380   4.284   0.204   4.480 -0.1855  0.5637  1.8689
 3152SOL    HW312381   4.412   0.281   4.502  0.3023  0.3228  0.0054
 3152SOL    MW412382   4.331   0.277   4.472  0.2603  0.1336  0.1445
 3153SOL     OW12383   4.350   2.754   5.397 -0.2885 -0.1377 -0.2725
 3153SOL    HW212384   4.308   2.741   5.313  1.2814 -0.4817 -1.0466
 3153SOL    HW312385   4.363   2.666   5.432 -1.3158  0.0224  0.5415
 3153SOL    MW412386   4.346   2.741   5.391 -0.2169 -0.1620 -0.2672
 3154SOL     OW12387   2.314   3.432   4.449  0.5568  0.5073  0.3694
 3154SOL    HW212388   2.370   3.466   4.379  1.6234 -0.4818  0.7038
 3154SOL    HW312389   2.302   3.340   4.427  0.8825  0.1887  1.4533
 3154SOL    MW412390   2.320   3.425   4.437  0.7405  0.3348  0.5565
 3155SOL     OW12391   3.547   2.659   0.303 -0.2404 -0.3823  0.1686
 3155SOL    HW212392   3.570   2.652   0.210 -2.6525 -0.6126 -0.4892
 3155SOL    HW312393   3.531   2.568   0.330  1.5918 -0.4437  1.1811
 3155SOL    MW412394   3.548   2.646   0.294 -0.3169 -0.4208  0.2154
 3156SOL     OW12395   4.095   5.887   4.317 -0.2614 -0.2528  0.0441
 3156SOL    HW212396   4.099   5.853   4.227 -0.4739  1.2308 -0.5595
 3156SOL    HW312397   4.167   5.845   4.362  0.6629 -0.0625 -1.1931
 3156SOL    MW412398   4.105   5.877   4.311 -0.1674 -0.0320 -0.1987
 3157SOL     OW12399   5.782   1.328   6.117 -0.2218 -0.5672  0.3627
 3157SOL    HW212400   5.753   1.253   6.169  0.2582 -1.4472 -0.6077
 3157SOL    HW312401   5.852   1.367   6.168  0.1170 -1.3094  0.4824
 3157SOL    MW412402   5.787   1.323   6.130 -0.1138 -0.7812  0.2505
 3158SOL     OW12403   6.051   4.224   6.176 -0.0088  0.0571 -0.1477
 3158SOL    HW212404   6.097   4.301   6.141 -1.4062  0.5581 -0.9494
 3158SOL    HW312405   6.111   4.151   6.161  2.0603  1.1532  2.0496
 3158SOL    MW412406   6.065   4.225   6.170  0.0798  0.2678  0.0365
 3159SOL     OW12407   5.806   0.827   1.557 -0.6220 -0.1051  0.7849
 3159SOL    HW212408   5.868   0.783   1.616 -1.6522  0.7709  2.5895
 3159SOL    HW312409   5.721   0.814   1.597 -1.4015  0.4144 -0.6190
 3159SOL    MW412410   5.803   0.819   1.570 -0.8607  0.0791  0.8378
 3160SOL     OW12411   5.880   1.522   5.240  0.2714  0.3464  0.7159
 3160SOL    HW212412   5.861   1.447   5.183  0.1836 -0.0353  1.2437
 3160SOL    HW312413   5.816   1.515   5.311  0.0003  1.1490  0.5672
 3160SOL    MW412414   5.869   1.511   5.242  0.2240  0.4019  0.7659
 3161SOL     OW12415   5.445   6.176   1.388  0.3521  0.1973 -0.1711
 3161SOL    HW212416   5.408   6.108   1.444  1.5376 -1.0651 -0.8445
 3161SOL    HW312417   5.466   6.131   1.306  1.1023  1.3844 -0.6645
 3161SOL    MW412418   5.443   6.161   1.384  0.6075  0.1874 -0.3251
 3162SOL     OW12419   2.123   1.791   1.058 -0.3287 -0.2056  0.5009
 3162SOL    HW212420   2.145   1.884   1.065 -1.5235  0.2189 -0.7853
 3162SOL    HW312421   2.028   1.788   1.069 -0.5903 -0.9876 -1.5300
 3162SOL    MW412422   2.113   1.803   1.060 -0.5208 -0.2527  0.0633
 3163SOL     OW12423   5.423   1.572   3.323 -0.1459  0.3689  0.5126
 3163SOL    HW212424   5.490   1.518   3.281  1.3179  1.3461  1.4966
 3163SOL    HW312425   5.394   1.521   3.398 -0.4832 -0.0293  0.1191
 3163SOL    MW412426   5.428   1.558   3.327  0.0027  0.4453  0.5905
 3164SOL     OW12427   5.401   5.068   1.560 -0.0557 -0.1274 -0.0884
 3164SOL    HW212428   5.419   5.152   1.600 -0.5780  0.0909 -0.3125
 3164SOL    HW312429   5.485   5.043   1.519  0.1939  0.1120  0.2734
 3164SOL    MW412430   5.415   5.075   1.560 -0.0917 -0.0670 -0.0703
 3165SOL     OW12431   2.515   0.419   1.640  0.3348  0.0008 -0.1603
 3165SOL    HW212432   2.514   0.372   1.723 -1.5121 -0.2422 -0.2676
 3165SOL    HW312433   2.584   0.377   1.589  2.7083  1.2787  1.8054
 3165SOL    MW412434   2.524   0.407   1.644  0.4043  0.1373  0.0849
 3166SOL     OW12435   0.362   4.550   0.658 -0.1450 -0.0940 -0.3106
 3166SOL    HW212436   0.292   4.615   0.664  1.1877  1.3176  0.9804
 3166SOL    HW312437   0.384   4.547   0.565 -0.5160  1.0081 -0.4552
 3166SOL    MW412438   0.355   4.558   0.647 -0.0181  0.2377 -0.1593
 3167SOL     OW12439   0.933   2.149   3.257  0.0799  0.2829  0.1776
 3167SOL    HW212440   0.838   2.147   3.249  0.0339 -0.0747  0.7342
 3167SOL    HW312441   0.952   2.093   3.333  0.7742 -0.1695 -0.3196
 3167SOL    MW412442   0.923   2.141   3.266  0.1655  0.1760  0.1855
 3168SOL     OW12443   5.240   0.490   4.589 -0.7718  0.5607  0.3893
 3168SOL    HW212444   5.251   0.429   4.663 -1.6763 -0.0635  0.0208
 3168SOL    HW312445   5.318   0.476   4.535 -1.6315 -1.3287 -0.4270
 3168SOL    MW412446   5.252   0.480   4.592 -1.0046  0.2291  0.2330
 3169SOL     OW12447   5.901   1.790   5.184  0.1810 -0.3194 -0.1035
 3169SOL    HW212448   5.934   1.810   5.271  1.2616 -0.3059 -0.4963
 3169SOL    HW312449   5.882   1.696   5.187  0.9881 -0.4925 -0.0794
 3169SOL    MW412450   5.903   1.780   5.196  0.4301 -0.3404 -0.1522
 3170SOL     OW12451   2.376   0.378   3.766 -0.0761 -0.2635 -0.3537
 3170SOL    HW212452   2.311   0.424   3.713  2.2158  2.7686 -0.8289
 3170SOL    HW312453   2.353   0.398   3.856  0.9125  2.0973 -0.5540
 3170SOL    MW412454   2.364   0.387   3.771  0.3567  0.4480 -0.4429
 3171SOL     OW12455   4.173   5.922   2.981 -0.0374  0.3599 -0.1255
 3171SOL    HW212456   4.188   5.880   2.896  1.3213 -0.3419  0.4301
 3171SOL    HW312457   4.104   5.986   2.964 -1.1151 -1.0520 -1.3387
 3171SOL    MW412458   4.166   5.925   2.968 -0.0003  0.0810 -0.2122
 3172SOL     OW12459   2.764   1.829   5.547 -0.0609  0.2895  0.1902
 3172SOL    HW212460   2.800   1.850   5.460 -0.2021 -0.2079  0.0081
 3172SOL    HW312461   2.827   1.769   5.585  0.2403  0.8789  0.6299
 3172SOL    MW412462   2.777   1.824   5.540 -0.0398  0.3016  0.2242
 3173SOL     OW12463   3.840   0.518   3.395  0.1535 -0.3039  0.0207
 3173SOL    HW212464   3.792   0.448   3.440  0.0497  0.1738  0.6650
 3173SOL    HW312465   3.932   0.490   3.400  0.2006 -0.0288  0.9709
 3173SOL    MW412466   3.846   0.505   3.402  0.1460 -0.2046  0.2310
 3174SOL     OW12467   4.254   4.642   2.818  0.0389 -0.0100 -0.0745
 3174SOL    HW212468   4.254   4.609   2.908 -0.9779 -0.1364 -0.1117
 3174SOL    HW312469   4.324   4.708   2.817  0.2623 -0.2181  0.7254
 3174SOL    MW412470   4.263   4.646   2.830 -0.0658 -0.0541  0.0261
 3175SOL     OW12471   0.600   3.839   2.805 -0.3682 -0.4062  0.0744
 3175SOL    HW212472   0.529   3.867   2.862 -1.0045 -0.1743 -0.8030
 3175SOL    HW312473   0.556   3.801   2.729  0.3837  1.1757 -1.2126
 3175SOL    MW412474   0.585   3.838   2.802 -0.3530 -0.1669 -0.2111
 3176SOL     OW12475   3.384   5.370   2.181 -0.3805  0.4995 -0.3584
 3176SOL    HW212476   3.461   5.426   2.193  0.1796 -0.3584  0.1777
 3176SOL    HW312477   3.325   5.422   2.127  0.9960  0.7782 -1.6463
 3176SOL    MW412478   3.386   5.384   2.176 -0.1250  0.4231 -0.4576
 3177SOL     OW12479   6.303   3.078   5.116 -0.3956 -0.2659  0.0686
 3177SOL    HW212480   6.284   3.137   5.043  0.2778 -1.5391 -1.1921
 3177SOL    HW312481   6.225   3.083   5.172 -0.1111  2.2544  0.3774
 3177SOL    MW412482   6.290   3.087   5.114 -0.2692 -0.1014 -0.0570
 3178SOL     OW12483   4.314   6.303   4.763 -0.5820 -0.2303  0.9156
 3178SOL    HW212484   4.374   6.281   4.835  1.9058  0.5818 -0.7705
 3178SOL    HW312485   4.309   6.223   4.711 -0.1287 -0.0238  0.5397
 3178SOL    MW412486   4.322   6.289   4.766 -0.1940 -0.0959  0.6436
 3179SOL     OW12487   0.232   2.578   3.305  0.3817 -0.3877  0.5498
 3179SOL    HW212488   0.225   2.488   3.338 -0.3087 -0.2257  0.8780
 3179SOL    HW312489   0.147   2.595   3.264 -0.1347  0.6744  1.9549
 3179SOL    MW412490   0.220   2.568   3.304  0.2225 -0.2262  0.7785
 3180SOL     OW12491   2.029   5.240   4.032 -0.1222  0.3469  0.0120
 3180SOL    HW212492   1.956   5.213   4.088 -0.3505 -1.3018 -1.0093
 3180SOL    HW312493   2.052   5.161   3.984  1.6753  1.1038 -0.4498
 3180SOL    MW412494   2.022   5.226   4.033  0.0849  0.2293 -0.1837
 3181SOL     OW12495   1.721   6.387   3.537  0.3010  0.4731  0.1793
 3181SOL    HW212496   1.665   6.329   3.589 -1.0000  0.2962 -1.3458
 3181SOL    HW312497   1.681   6.473   3.546  0.8773  0.7008  0.5786
 3181SOL    MW412498   1.708   6.390   3.545  0.2054  0.4798  0.0308
 3182SOL     OW12499   5.084   1.448   5.034 -0.4837  0.1005 -0.0256
 3182SOL    HW212500   5.095   1.353   5.029 -0.7097 -0.0722  1.9264
 3182SOL    HW312501   4.990   1.462   5.031 -0.7523 -0.1201  3.3278
 3182SOL    MW412502   5.073   1.437   5.033 -0.5490  0.0486  0.6744
 3183SOL     OW12503   5.431   3.140   3.766 -0.2140 -0.9304 -0.5341
 3183SOL    HW212504   5.425   3.234   3.755 -0.3143 -0.7324  0.9906
 3183SOL    HW312505   5.393   3.104   3.685  0.4643  0.3053 -1.4390
 3183SOL    MW412506   5.425   3.147   3.754 -0.1377 -0.7412 -0.4523
 3184SOL     OW12507   3.452   1.343   0.358 -0.3954 -0.2114  0.6157
 3184SOL    HW212508   3.450   1.413   0.425  0.6785  0.8298 -0.3849
 3184SOL    HW312509   3.544   1.317   0.354  0.1493  1.6813 -2.3179
 3184SOL    MW412510   3.464   1.349   0.367 -0.1818  0.1757  0.0966
 3185SOL     OW12511   0.873   3.902   1.584  0.3572  0.7127 -0.1945
 3185SOL    HW212512   0.831   3.888   1.499 -1.2342  1.3839  0.4350
 3185SOL    HW312513   0.871   3.817   1.627  1.2478  0.3510 -0.8428
 3185SOL    MW412514   0.867   3.889   1.578  0.2648  0.7535 -0.1970
 3186SOL     OW12515   0.506   2.018   1.822  0.2968 -0.1962  0.2605
 3186SOL    HW212516   0.465   1.999   1.738  1.2226  1.8697 -0.7509
 3186SOL    HW312517   0.578   2.078   1.800  3.0705 -2.5498  2.0534
 3186SOL    MW412518   0.510   2.023   1.808  0.7849 -0.2342  0.3636
 3187SOL     OW12519   4.320   0.846   0.484 -0.6683  0.2115 -0.0521
 3187SOL    HW212520   4.226   0.842   0.504 -1.1187 -0.0737 -1.9763
 3187SOL    HW312521   4.343   0.756   0.462 -0.0948  0.3844 -0.1629
 3187SOL    MW412522   4.310   0.834   0.484 -0.6521  0.1967 -0.3206
 3188SOL     OW12523   4.734   4.730   1.530 -0.2173 -0.6358  0.4472
 3188SOL    HW212524   4.674   4.673   1.481 -0.9915  0.9231 -0.4803
 3188SOL    HW312525   4.700   4.818   1.517  2.0384  0.2709  0.2509
 3188SOL    MW412526   4.722   4.734   1.522 -0.0218 -0.3105  0.2989
 3189SOL     OW12527   6.067   1.654   0.656  0.6478  0.3643 -0.0742
 3189SOL    HW212528   6.035   1.672   0.745  1.5952  1.7084  0.0277
 3189SOL    HW312529   5.987   1.637   0.605  0.0162  0.5347  0.8313
 3189SOL    MW412530   6.052   1.654   0.661  0.6895  0.5642  0.0587
 3190SOL     OW12531   1.676   2.474   1.596 -0.4279  0.8005 -0.5525
 3190SOL    HW212532   1.705   2.508   1.681 -0.8825 -2.1856  0.9022
 3190SOL    HW312533   1.732   2.398   1.580 -3.5198 -1.6616 -0.4734
 3190SOL    MW412534   1.687   2.468   1.605 -0.8958  0.0816 -0.3501
 3191SOL     OW12535   5.109   2.863   0.695 -0.0990 -0.0049 -0.4462
 3191SOL    HW212536   5.183   2.878   0.755  0.5188  0.6706 -1.3441
 3191SOL    HW312537   5.054   2.940   0.706 -0.7625 -0.5669  0.3144
 3191SOL    MW412538   5.112   2.875   0.705 -0.1050  0.0101 -0.4644
 3192SOL     OW12539   2.299   4.827   4.656  0.2251  0.0516  0.8631
 3192SOL    HW212540   2.238   4.780   4.599 -2.2389  3.7607  0.0265
 3192SOL    HW312541   2.326   4.763   4.721 -0.9969 -3.0014 -1.3965
 3192SOL    MW412542   2.294   4.813   4.657 -0.2612  0.1382  0.4546
 3193SOL     OW12543   3.408   6.170   2.237  0.2130 -0.7805  0.1165
 3193SOL    HW212544   3.391   6.256   2.276  0.2998  0.1119 -1.7066
 3193SOL    HW312545   3.354   6.110   2.288 -2.3508  0.8293 -0.5422
 3193SOL    MW412546   3.399   6.173   2.249 -0.1138 -0.4504 -0.2109
 3194SOL     OW12547   5.492   4.187   2.420 -0.2159 -0.7307  0.4398
 3194SOL    HW212548   5.490   4.113   2.359 -1.9089 -0.9241  0.6779
 3194SOL    HW312549   5.422   4.168   2.483  0.3867  0.2941  1.4507
 3194SOL    MW412550   5.482   4.175   2.420 -0.3597 -0.6211  0.6046
 3195SOL     OW12551   6.277   1.332   0.206 -0.5078 -0.3620 -0.4036
 3195SOL    HW212552   6.315   1.342   0.118 -1.7619 -1.0401 -1.0573
 3195SOL    HW312553   6.291   1.416   0.248 -0.1451  0.0762 -1.3741
 3195SOL    MW412554   6.284   1.344   0.200 -0.6254 -0.3936 -0.6179
 3196SOL     OW12555   2.327   3.565   1.149 -0.4628  0.1972 -0.0711
 3196SOL    HW212556   2.369   3.650   1.141 -1.3581  0.6503 -0.0838
 3196SOL    HW312557   2.296   3.561   1.240  2.1115 -1.3494  0.8486
 3196SOL    MW412558   2.328   3.575   1.160 -0.2413  0.0529  0.0486
 3197SOL     OW12559   0.991   5.356   2.848 -0.2512  0.1082  0.1057
 3197SOL    HW212560   0.984   5.370   2.754  0.1367  0.2954  0.1046
 3197SOL    HW312561   1.067   5.298   2.858 -0.4969 -0.1893  0.2784
 3197SOL    MW412562   1.000   5.350   2.837 -0.2325  0.0937  0.1283
 3198SOL     OW12563   2.322   2.272   1.675 -0.1983  0.0938  0.1302
 3198SOL    HW212564   2.306   2.229   1.759  0.9470  0.5391  0.5977
 3198SOL    HW312565   2.401   2.324   1.690  1.1690 -1.3016 -1.7467
 3198SOL    MW412566   2.330   2.273   1.688  0.1332 -0.0316 -0.0557
 3199SOL     OW12567   6.204   6.017   1.699 -0.5270  0.1711 -0.2096
 3199SOL    HW212568   6.168   6.095   1.657 -0.2043  0.1605 -0.5156
 3199SOL    HW312569   6.221   6.044   1.789  1.0696  0.9554 -0.7065
 3199SOL    MW412570   6.202   6.030   1.705 -0.2738  0.2732 -0.3155
 3200SOL     OW12571   0.558   6.405   3.769  0.6333  0.1423  0.8713
 3200SOL    HW212572   0.468   6.387   3.742  1.3101 -0.4478 -1.1686
 3200SOL    HW312573   0.555   6.407   3.864 -1.4681 -0.2530  0.8447
 3200SOL    MW412574   0.546   6.403   3.778  0.4453  0.0123  0.5986
 3201SOL     OW12575   3.483   1.902   3.642 -0.0342 -0.2663  0.3513
 3201SOL    HW212576   3.409   1.842   3.641 -1.7940  1.7059  1.5886
 3201SOL    HW312577   3.518   1.895   3.731  0.4895 -0.3135  0.1429
 3201SOL    MW412578   3.478   1.893   3.654 -0.1973 -0.0123  0.4871
 3202SOL     OW12579   5.428   2.734   5.271  0.0620 -0.2583 -0.1644
 3202SOL    HW212580   5.353   2.784   5.303 -0.2237 -0.4949 -0.4600
 3202SOL    HW312581   5.459   2.685   5.348 -0.3018 -0.4251 -0.1195
 3202SOL    MW412582   5.422   2.734   5.285 -0.0237 -0.3115 -0.1975
 3203SOL     OW12583   5.825   5.990   4.125  0.6576  0.1589 -0.6183
 3203SOL    HW212584   5.790   6.004   4.037  0.6244  1.8656 -0.3837
 3203SOL    HW312585   5.912   6.030   4.122  0.2661  1.1311  0.3746
 3203SOL    MW412586   5.832   5.997   4.113  0.6016  0.5124 -0.4563
 3204SOL     OW12587   2.444   2.947   4.023  0.2569  0.2511  0.2944
 3204SOL    HW212588   2.473   3.023   3.972  0.2290  0.6220  0.8227
 3204SOL    HW312589   2.495   2.874   3.989 -1.1965  0.0811 -1.6637
 3204SOL    MW412590   2.455   2.947   4.012  0.0614  0.2776  0.1057
 3205SOL     OW12591   3.682   4.582   4.173  0.1579 -0.2484  0.1387
 3205SOL    HW212592   3.615   4.515   4.158  0.4435 -0.8337  1.3294
 3205SOL    HW312593   3.657   4.654   4.116 -0.7519 -0.9626 -0.3992
 3205SOL    MW412594   3.670   4.582   4.164  0.0756 -0.4198  0.2248
 3206SOL     OW12595   5.275   3.307   4.505 -0.1416  0.5181 -0.0072
 3206SOL    HW212596   5.296   3.219   4.475  0.5143  0.5137  0.4397
 3206SOL    HW312597   5.333   3.322   4.580 -0.8833  0.9874  0.4973
 3206SOL    MW412598   5.286   3.298   4.511 -0.1529  0.5795  0.1183
 3207SOL     OW12599   2.709   4.319   1.776 -0.1582 -0.2909 -0.2749
 3207SOL    HW212600   2.663   4.381   1.718  1.2847  1.4779  0.3951
 3207SOL    HW312601   2.731   4.245   1.718 -2.4996 -0.5500 -0.9410
 3207SOL    MW412602   2.706   4.317   1.760 -0.2768 -0.0917 -0.2744
 3208SOL     OW12603   3.264   0.024   3.039  0.2656  0.3250  0.6023
 3208SOL    HW212604   3.260  -0.066   3.009 -0.8580 -0.8306  3.8064
 3208SOL    HW312605   3.288   0.017   3.132 -0.3531  3.2923  1.0846
 3208SOL    MW412606   3.267   0.011   3.047  0.0357  0.5640  1.0887
 3209SOL     OW12607   5.552   0.913   3.980 -0.6186  0.3059  0.1993
 3209SOL    HW212608   5.601   0.885   4.057 -2.1623 -2.6000  0.2580
 3209SOL    HW312609   5.609   0.890   3.906 -1.2029 -1.8089  0.3270
 3209SOL    MW412610   5.566   0.906   3.981 -0.8994 -0.3566  0.2239
 3210SOL     OW12611   2.096   2.257   0.943  0.4175  0.1992  0.2484
 3210SOL    HW212612   2.191   2.267   0.947  0.5654  2.3011 -3.5267
 3210SOL    HW312613   2.063   2.345   0.925 -1.9867 -0.8232 -0.8101
 3210SOL    MW412614   2.104   2.270   0.941  0.1198  0.3416 -0.3893
 3211SOL     OW12615   4.241   1.890   2.826  0.3072 -0.0256 -0.9341
 3211SOL    HW212616   4.330   1.908   2.856 -0.1955  1.3547 -0.2147
 3211SOL    HW312617   4.240   1.917   2.734  0.4996  0.4146 -0.8073
 3211SOL    MW412618   4.253   1.896   2.818  0.2663  0.2146 -0.8225
 3212SOL     OW12619   6.347   1.558   0.333  0.4874 -0.9535  0.7276
 3212SOL    HW212620   6.322   1.642   0.371  0.9398 -0.5073  0.0665
 3212SOL    HW312621   6.443   1.559   0.334  0.4958 -1.6814  1.1795
 3212SOL    MW412622   6.357   1.569   0.338  0.5482 -0.9907  0.7000
 3213SOL     OW12623   4.694   1.639   3.577 -0.0674 -0.4020 -0.1702
 3213SOL    HW212624   4.628   1.614   3.641  0.6261  0.8628  1.1148
 3213SOL    HW312625   4.664   1.724   3.544 -0.3916 -1.0150 -1.5317
 3213SOL    MW412626   4.681   1.647   3.581 -0.0187 -0.3160 -0.1803
 3214SOL     OW12627   2.793   0.426   5.305 -0.9052  0.3428  0.3001
 3214SOL    HW212628   2.714   0.375   5.318 -0.0620 -0.5501  2.4494
 3214SOL    HW312629   2.784   0.500   5.365 -0.4817  0.6936 -0.0618
 3214SOL    MW412630   2.782   0.429   5.314 -0.7381  0.2713  0.5359
 3215SOL     OW12631   2.387   2.730   1.159 -0.0666 -0.5469  0.0598
 3215SOL    HW212632   2.406   2.768   1.244  2.0566  0.4267 -0.7564
 3215SOL    HW312633   2.375   2.637   1.176 -0.4231 -0.2559  1.4997
 3215SOL    MW412634   2.388   2.723   1.172  0.1665 -0.3800  0.1421
 3216SOL     OW12635   2.495   2.919   2.517  0.0296 -0.3136  0.1455
 3216SOL    HW212636   2.511   2.991   2.457  0.1708  1.3220  2.0258
 3216SOL    HW312637   2.411   2.882   2.489 -0.1420  0.7051 -0.7501
 3216SOL    MW412638   2.486   2.923   2.506  0.0256  0.0366  0.2754
 3217SOL     OW12639   5.410   5.997   4.752 -0.4704  0.3752 -0.3984
 3217SOL    HW212640   5.502   6.003   4.777 -0.2126  1.4415 -1.5339
 3217SOL    HW312641   5.396   6.070   4.693 -2.5087  1.2804  1.0870
 3217SOL    MW412642   5.420   6.007   4.748 -0.7053  0.6353 -0.3522
 3218SOL     OW12643   1.359   1.611   0.232  0.6204 -0.0612  0.4983
 3218SOL    HW212644   1.296   1.646   0.169 -1.0954 -1.6248  1.2645
 3218SOL    HW312645   1.315   1.535   0.271  3.0340 -1.3193  0.9855
 3218SOL    MW412646   1.345   1.606   0.229  0.7125 -0.4335  0.6636
 3219SOL     OW12647   4.592   5.079   2.191  0.1245  0.4720  0.1006
 3219SOL    HW212648   4.524   5.092   2.257 -0.0035 -0.1169  0.0895
 3219SOL    HW312649   4.674   5.078   2.241  0.0550  0.3680  0.2138
 3219SOL    MW412650   4.594   5.080   2.206  0.0984  0.3806  0.1141
 3220SOL     OW12651   6.353   2.164   0.256  0.0768 -0.2794  0.1217
 3220SOL    HW212652   6.404   2.093   0.217  0.0734 -0.7515  0.9405
 3220SOL    HW312653   6.310   2.123   0.331 -0.3038  0.4830  0.3271
 3220SOL    MW412654   6.354   2.149   0.261  0.0261 -0.2411  0.2569
 3221SOL     OW12655   6.328   5.964   2.220  0.3677  0.1371  0.4176
 3221SOL    HW212656   6.346   6.056   2.238 -1.6332  0.6704 -0.0637
 3221SOL    HW312657   6.302   5.927   2.305  0.3173  0.2326  0.4434
 3221SOL    MW412658   6.327   5.971   2.234  0.0970  0.2200  0.3575
 3222SOL     OW12659   5.394   4.134   0.416  0.1560  0.0583  0.5001
 3222SOL    HW212660   5.303   4.155   0.395  0.0294  0.1825  1.1543
 3222SOL    HW312661   5.394   4.117   0.510  0.5212 -1.4831  0.2526
 3222SOL    MW412662   5.382   4.134   0.425  0.1875 -0.1286  0.5538
 3223SOL     OW12663   0.696   5.605   4.591  0.4768  0.7833  0.3968
 3223SOL    HW212664   0.659   5.637   4.673  0.1864 -0.3320  0.7152
 3223SOL    HW312665   0.784   5.575   4.615  1.0157  1.9467 -0.0398
 3223SOL    MW412666   0.703   5.605   4.605  0.5096  0.7897  0.3812
 3224SOL     OW12667   2.250   2.973   5.658  0.3312 -0.0411 -0.4281
 3224SOL    HW212668   2.330   2.982   5.607  0.7839 -1.9689 -0.1315
 3224SOL    HW312669   2.182   3.014   5.604  1.1606 -0.2021 -1.6120
 3224SOL    MW412670   2.252   2.980   5.644  0.5003 -0.3167 -0.5452
 3225SOL     OW12671   2.755   5.148   6.116 -0.8713 -0.1903 -0.3846
 3225SOL    HW212672   2.721   5.230   6.078 -1.3630 -0.9450 -1.6178
 3225SOL    HW312673   2.848   5.166   6.132 -0.5466  0.0509 -2.3220
 3225SOL    MW412674   2.763   5.162   6.113 -0.8933 -0.2581 -0.8029
 3226SOL     OW12675   2.416   1.419   1.747  0.0724 -1.0154 -0.1530
 3226SOL    HW212676   2.445   1.329   1.733 -2.1424 -1.9769  1.0103
 3226SOL    HW312677   2.366   1.416   1.828  2.0422  1.8136  1.3253
 3226SOL    MW412678   2.413   1.407   1.756  0.0401 -0.7690  0.1955
 3227SOL     OW12679   1.365   6.079   4.090 -0.5229 -0.0861 -0.4668
 3227SOL    HW212680   1.435   6.095   4.026 -0.0021 -0.6228 -0.0403
 3227SOL    HW312681   1.407   6.093   4.175 -1.1602  0.4320 -0.2287
 3227SOL    MW412682   1.380   6.083   4.093 -0.5383 -0.0885 -0.3791
 3228SOL     OW12683   4.319   0.163   6.300  0.7031  0.0765  0.1117
 3228SOL    HW212684   4.253   0.102   6.334 -0.4727  0.7884 -0.8111
 3228SOL    HW312685   4.305   0.243   6.351  1.4777 -0.0539  0.5372
 3228SOL    MW412686   4.308   0.165   6.311  0.6502  0.1532  0.0461
 3229SOL     OW12687   1.419   2.532   1.223  0.0037 -0.1316 -0.1603
 3229SOL    HW212688   1.323   2.530   1.226  0.0321 -1.6314  0.5488
 3229SOL    HW312689   1.441   2.470   1.154  0.4795 -1.2134  0.9247
 3229SOL    MW412690   1.409   2.524   1.214  0.0702 -0.4722  0.0764
 3230SOL     OW12691   6.162   5.619   3.448 -0.1689  0.0010 -0.1207
 3230SOL    HW212692   6.155   5.622   3.543  0.1810 -0.9199 -0.0536
 3230SOL    HW312693   6.143   5.528   3.425  1.7404 -0.2790 -0.7543
 3230SOL    MW412694   6.158   5.608   3.457  0.1292 -0.1574 -0.1954
 3231SOL     OW12695   4.758   4.930   1.021  0.2123  0.0564  0.0607
 3231SOL    HW212696   4.744   4.858   0.960  1.0968  0.6413 -0.8504
 3231SOL    HW312697   4.746   5.009   0.969 -2.8719  0.6888  1.4730
 3231SOL    MW412698   4.755   4.931   1.006 -0.0779  0.2170  0.1268
 3232SOL     OW12699   5.647   3.543   1.356  0.8070 -0.5039  1.1237
 3232SOL    HW212700   5.579   3.551   1.288  0.3433 -1.6857  1.4314
 3232SOL    HW312701   5.707   3.616   1.338 -0.0457  0.0168  0.2873
 3232SOL    MW412702   5.646   3.554   1.344  0.6333 -0.5911  1.0540
 3233SOL     OW12703   4.118   1.218   1.962  0.1300  0.4008  0.8176
 3233SOL    HW212704   4.064   1.271   1.904  2.1443 -0.4599 -2.1539
 3233SOL    HW312705   4.188   1.276   1.991  1.2684 -0.0425 -0.8817
 3233SOL    MW412706   4.120   1.232   1.958  0.5460  0.2288  0.2013
 3234SOL     OW12707   5.338   1.801   4.833 -0.3449  0.2465  0.2709
 3234SOL    HW212708   5.388   1.793   4.915  0.8006  0.6541 -0.3558
 3234SOL    HW312709   5.293   1.717   4.824  1.2940 -0.6805  0.2191
 3234SOL    MW412710   5.339   1.789   4.843  0.0225  0.1780  0.1813
 3235SOL     OW12711   1.068   5.750   4.454  0.4538 -0.5459  0.0374
 3235SOL    HW212712   1.103   5.745   4.365 -0.6721 -0.6733 -0.4121
 3235SOL    HW312713   1.141   5.781   4.507  1.2760 -0.9400 -0.8489
 3235SOL    MW412714   1.082   5.753   4.449  0.4137 -0.6147 -0.1389
 3236SOL     OW12715   3.736   2.867   1.120  0.3950 -0.1739 -0.7190
 3236SOL    HW212716   3.752   2.831   1.032  1.1653  1.1560 -1.1615
 3236SOL    HW312717   3.772   2.802   1.180 -0.2722 -1.1709 -1.3665
 3236SOL    MW412718   3.743   2.853   1.116  0.4086 -0.1300 -0.8628
 3237SOL     OW12719   4.890   3.759   2.132  0.1038  0.3825  0.2115
 3237SOL    HW212720   4.969   3.716   2.101 -0.1490 -0.2323  0.3983
 3237SOL    HW312721   4.919   3.845   2.163  0.6972  0.1477  0.3097
 3237SOL    MW412722   4.904   3.765   2.132  0.1488  0.2704  0.2491
 3238SOL     OW12723   4.925   0.872   5.655  0.0890  0.3437  0.5341
 3238SOL    HW212724   5.006   0.852   5.701  0.5772  0.9033 -0.0609
 3238SOL    HW312725   4.934   0.964   5.631  0.0092 -0.0363 -1.0013
 3238SOL    MW412726   4.937   0.882   5.658  0.1429  0.3674  0.2530
 3239SOL     OW12727   0.423   3.173   0.354 -0.0206  0.3236 -0.2922
 3239SOL    HW212728   0.440   3.231   0.280  1.3586  0.8203  0.3715
 3239SOL    HW312729   0.370   3.225   0.414 -0.5397  0.1667 -0.6110
 3239SOL    MW412730   0.418   3.187   0.352  0.0929  0.3684 -0.2467
 3240SOL     OW12731   5.420   1.580   6.319 -0.7442  0.1835 -0.9155
 3240SOL    HW212732   5.325   1.579   6.304 -1.0476  0.1799  0.8821
 3240SOL    HW312733   5.433   1.524   6.395  0.3749  2.1975  0.4743
 3240SOL    MW412734   5.409   1.573   6.327 -0.6366  0.4488 -0.4950
 3241SOL     OW12735   2.654   1.423   1.287  0.1754 -0.1963 -0.2581
 3241SOL    HW212736   2.739   1.383   1.303  1.4024  2.0010 -0.8402
 3241SOL    HW312737   2.608   1.415   1.371  0.8655 -1.5469  0.0190
 3241SOL    MW412738   2.659   1.417   1.300  0.4283 -0.0846 -0.2984
 3242SOL     OW12739   4.241   4.110   1.831  1.0680  0.3182  0.0483
 3242SOL    HW212740   4.145   4.106   1.840  1.0502 -0.5437 -0.4352
 3242SOL    HW312741   4.274   4.101   1.921  0.7241 -0.6295  0.0823
 3242SOL    MW412742   4.232   4.109   1.844  1.0203  0.0794 -0.0110
 3243SOL     OW12743   0.958   4.766   5.377 -0.0219  0.3312 -0.5393
 3243SOL    HW212744   0.988   4.855   5.390  0.9960  0.1285 -1.3242
 3243SOL    HW312745   1.037   4.712   5.386 -0.2472 -0.2910 -1.9782
 3243SOL    MW412746   0.973   4.770   5.380  0.0827  0.2224 -0.8327
 3244SOL     OW12747   3.110   5.329   5.956  0.2501 -0.5272  0.4704
 3244SOL    HW212748   3.169   5.319   6.030  2.0163  1.4832 -0.5762
 3244SOL    HW312749   3.120   5.247   5.907  2.0410 -0.3258  0.4354
 3244SOL    MW412750   3.119   5.317   5.959  0.7194 -0.2354  0.3277
 3245SOL     OW12751   0.238   0.554   0.923 -0.1102  0.2207 -0.2440
 3245SOL    HW212752   0.203   0.504   0.850 -0.0917 -0.4704  0.2147
 3245SOL    HW312753   0.170   0.548   0.991  0.4537 -0.2801  0.2870
 3245SOL    MW412754   0.224   0.547   0.922 -0.0334  0.0635 -0.1134
 3246SOL     OW12755   2.018   0.577   5.913  0.0910 -0.6503  0.2129
 3246SOL    HW212756   1.996   0.667   5.938  0.5535 -0.1525 -1.0738
 3246SOL    HW312757   2.103   0.560   5.955  0.4872 -0.1104 -0.3493
 3246SOL    MW412758   2.026   0.586   5.922  0.2043 -0.5134 -0.0310
 3247SOL     OW12759   4.216   3.519   0.674 -0.3045 -0.8666 -0.9717
 3247SOL    HW212760   4.164   3.458   0.726 -0.2523 -0.2247 -0.1310
 3247SOL    HW312761   4.167   3.602   0.679  1.2149  0.0086  0.6285
 3247SOL    MW412762   4.203   3.522   0.681 -0.0972 -0.6664 -0.6497
 3248SOL     OW12763   3.117   5.068   4.743  0.1071  0.1799 -0.0993
 3248SOL    HW212764   3.193   5.064   4.800  0.9447 -0.0761 -1.2066
 3248SOL    HW312765   3.107   5.161   4.723  0.6319  0.1254 -0.6138
 3248SOL    MW412766   3.126   5.080   4.748  0.2868  0.1389 -0.3133
 3249SOL     OW12767   2.307   1.723   6.036  0.1518  0.0828  0.1390
 3249SOL    HW212768   2.213   1.723   6.055  0.4257  0.7870  1.7029
 3249SOL    HW312769   2.343   1.654   6.092  0.3281 -1.7270 -2.0850
 3249SOL    MW412770   2.299   1.714   6.046  0.2112 -0.0631  0.0519
 3250SOL     OW12771   1.664   2.743   5.721  0.0675 -0.2061 -0.2627
 3250SOL    HW212772   1.662   2.834   5.692 -0.6694  0.0383  0.5039
 3250SOL    HW312773   1.717   2.697   5.656  0.3623  0.7534 -0.7049
 3250SOL    MW412774   1.671   2.749   5.709  0.0092 -0.0473 -0.2199
 3251SOL     OW12775   2.756   6.123   3.962  0.1524  0.4798 -0.0386
 3251SOL    HW212776   2.670   6.131   4.004  0.4566  1.1241  0.4550
 3251SOL    HW312777   2.735   6.093   3.873 -0.5294 -0.2413  0.3400
 3251SOL    MW412778   2.742   6.120   3.955  0.1026  0.4697  0.0765
 3252SOL     OW12779   3.852   5.673   5.014 -0.3934 -0.7554 -0.2675
 3252SOL    HW212780   3.800   5.748   5.041  0.1290 -0.0439 -1.1839
 3252SOL    HW312781   3.830   5.660   4.922  0.7105 -0.7147 -0.5496
 3252SOL    MW412782   3.843   5.681   5.006 -0.1788 -0.6562 -0.4256
 3253SOL     OW12783   1.022   3.323   6.272 -0.1983 -0.1354  0.3189
 3253SOL    HW212784   1.066   3.379   6.336  2.1657 -1.2135 -0.2505
 3253SOL    HW312785   0.985   3.252   6.325 -1.4295  0.8293  0.8147
 3253SOL    MW412786   1.023   3.321   6.288 -0.0488 -0.1504  0.3092
 3254SOL     OW12787   5.044   0.419   5.750 -0.2967  0.0775 -0.3068
 3254SOL    HW212788   5.035   0.480   5.823  2.1529 -0.5593  0.6310
 3254SOL    HW312789   5.050   0.475   5.672  1.1158  1.0270  0.4521
 3254SOL    MW412790   5.044   0.434   5.749  0.2128  0.1187 -0.0829
 3255SOL     OW12791   3.224   4.145   4.549  0.0065  0.2483 -0.0682
 3255SOL    HW212792   3.216   4.064   4.599  0.2269 -0.0035 -0.4328
 3255SOL    HW312793   3.256   4.209   4.612  1.8716 -0.4599 -0.2358
 3255SOL    MW412794   3.227   4.143   4.564  0.2817  0.1216 -0.1384
 3256SOL     OW12795   4.376   1.421   0.725  0.0048  0.4277 -0.0785
 3256SOL    HW212796   4.363   1.435   0.819  0.3527  1.3139 -0.1609
 3256SOL    HW312797   4.339   1.334   0.710  2.2311 -0.8773  1.3612
 3256SOL    MW412798   4.369   1.411   0.736  0.3445  0.3724  0.1006
 3257SOL     OW12799   6.172   2.794   4.488  0.4154  0.8418 -0.2396
 3257SOL    HW212800   6.147   2.885   4.473  0.7237  1.1896  1.2317
 3257SOL    HW312801   6.193   2.789   4.581  0.3743 -0.7496 -0.2797
 3257SOL    MW412802   6.172   2.805   4.498  0.4507  0.6777 -0.0508
 3258SOL     OW12803   0.556   2.710   2.811 -0.4257 -0.2010  0.0432
 3258SOL    HW212804   0.578   2.800   2.834  2.5915 -0.3985 -1.5164
 3258SOL    HW312805   0.509   2.717   2.729 -0.6287 -0.0314  0.1724
 3258SOL    MW412806   0.553   2.723   2.803 -0.0544 -0.2047 -0.1455
 3259SOL     OW12807   3.490   3.308   2.225 -0.5090 -0.4861 -0.7480
 3259SOL    HW212808   3.547   3.370   2.181  0.3377 -0.3630  0.4742
 3259SOL    HW312809   3.530   3.294   2.311 -1.3634 -1.7524 -0.5140
 3259SOL    MW412810   3.503   3.314   2.231 -0.5100 -0.6370 -0.5559
 3260SOL     OW12811   0.909   3.679   5.527 -0.1367  0.0625  0.3387
 3260SOL    HW212812   0.886   3.667   5.619 -0.1663  1.1440  0.4799
 3260SOL    HW312813   0.834   3.724   5.488  0.4517  0.8739  0.1154
 3260SOL    MW412814   0.896   3.683   5.534 -0.0630  0.3122  0.3279
 3261SOL     OW12815   4.935   1.981   3.002  0.2361 -0.0437 -0.4236
 3261SOL    HW212816   4.908   1.915   3.066 -1.8814  0.8133 -0.3437
 3261SOL    HW312817   4.887   2.059   3.027  1.7381  1.1955 -1.2648
 3261SOL    MW412818   4.925   1.982   3.014  0.1549  0.2329 -0.5240
 3262SOL     OW12819   5.128   0.990   3.663 -0.0309 -0.1325 -0.0360
 3262SOL    HW212820   5.186   0.962   3.591  0.3226 -0.2808  0.3026
 3262SOL    HW312821   5.044   0.950   3.643 -0.0491  0.1773 -0.5975
 3262SOL    MW412822   5.125   0.981   3.651  0.0133 -0.1112 -0.0654
 3263SOL     OW12823   5.246   5.341   6.346 -0.0299 -0.8460  1.0770
 3263SOL    HW212824   5.175   5.347   6.282  1.5037  0.3429 -0.6214
 3263SOL    HW312825   5.291   5.259   6.323  0.0885 -0.7852  1.0899
 3263SOL    MW412826   5.242   5.331   6.335  0.1881 -0.6811  0.8546
 3264SOL     OW12827   3.954   4.514   4.295 -0.8055  0.1265  0.3003
 3264SOL    HW212828   4.024   4.552   4.241 -0.7104 -1.1672 -0.5462
 3264SOL    HW312829   3.873   4.543   4.254 -0.7447  0.4009  0.3771
 3264SOL    MW412830   3.952   4.523   4.282 -0.7849 -0.0080  0.1987
 3265SOL     OW12831   2.907   1.720   2.995  0.2006 -0.2025 -0.2139
 3265SOL    HW212832   2.964   1.645   3.010  2.0547  1.1372 -0.1532
 3265SOL    HW312833   2.920   1.741   2.903 -1.6902 -0.9929 -0.7009
 3265SOL    MW412834   2.916   1.713   2.985  0.1957 -0.1300 -0.2701
 3266SOL     OW12835   1.542   6.138   5.888  0.3519  0.3033  0.0510
 3266SOL    HW212836   1.549   6.133   5.792 -1.2546  0.6628 -0.1170
 3266SOL    HW312837   1.562   6.049   5.918 -0.0310 -0.0525 -0.7077
 3266SOL    MW412838   1.545   6.126   5.879  0.0894  0.3038 -0.0713
 3267SOL     OW12839   6.188   4.556   0.390 -0.2865  0.1554 -0.2840
 3267SOL    HW212840   6.132   4.553   0.313 -0.9525  0.2254  0.1926
 3267SOL    HW312841   6.129   4.542   0.464  0.3398  0.1125  0.2186
 3267SOL    MW412842   6.173   4.554   0.390 -0.2917  0.1589 -0.1548
 3268SOL     OW12843   1.604   1.956   5.770  0.1467  0.6462  0.3665
 3268SOL    HW212844   1.531   2.015   5.787  0.4678  1.6756 -1.5663
 3268SOL    HW312845   1.563   1.870   5.759 -0.5327  0.8445  1.1995
 3268SOL    MW412846   1.589   1.952   5.771  0.0994  0.8082  0.2214
 3269SOL     OW12847   4.262   3.112   3.283 -0.1856 -0.2307 -0.4698
 3269SOL    HW212848   4.249   3.017   3.283 -1.6374 -0.0690 -0.2988
 3269SOL    HW312849   4.222   3.141   3.201  1.4640  0.1266 -1.1856
 3269SOL    MW412850   4.255   3.103   3.272 -0.1595 -0.1622 -0.5417
 3270SOL     OW12851   5.531   1.588   5.850  0.9057 -0.9631  0.4609
 3270SOL    HW212852   5.483   1.557   5.773 -1.6285  0.6345  1.2341
 3270SOL    HW312853   5.494   1.538   5.923  1.9562 -1.1677  0.8711
 3270SOL    MW412854   5.519   1.578   5.850  0.7100 -0.7793  0.6171
 3271SOL     OW12855   4.708   1.512   2.602  0.0082  0.5159 -0.1770
 3271SOL    HW212856   4.783   1.536   2.655  0.8534 -1.7216 -0.2265
 3271SOL    HW312857   4.725   1.549   2.516  2.6317 -2.2791 -1.0477
 3271SOL    MW412858   4.720   1.520   2.598  0.4658 -0.1481 -0.2984
 3272SOL     OW12859   5.973   4.820   2.036  0.2183  0.0179  0.2886
 3272SOL    HW212860   6.021   4.902   2.031  2.0669 -1.0455 -0.2160
 3272SOL    HW312861   5.948   4.801   1.946 -0.9948  0.4335  0.5128
 3272SOL    MW412862   5.976   4.828   2.024  0.3021 -0.0675  0.2516
 3273SOL     OW12863   5.629   2.023   6.363 -0.1429  0.0981 -0.5366
 3273SOL    HW212864   5.579   1.965   6.420  0.3574  0.9132  0.7618
 3273SOL    HW312865   5.581   2.106   6.364  1.2707  0.9375  0.8551
 3273SOL    MW412866   5.616   2.026   6.370  0.1096  0.3164 -0.1817
 3274SOL     OW12867   3.542   6.300   4.380 -0.2843  0.3823 -0.0759
 3274SOL    HW212868   3.637   6.298   4.376 -0.3467 -1.4652 -1.6744
 3274SOL    HW312869   3.515   6.345   4.301 -0.7546  0.5239  0.1607
 3274SOL    MW412870   3.551   6.306   4.369 -0.3546  0.1572 -0.2556
 3275SOL     OW12871   0.432   1.759   0.503 -0.4099  0.2629 -0.2759
 3275SOL    HW212872   0.337   1.755   0.490 -0.5095  1.7834 -0.2216
 3275SOL    HW312873   0.469   1.716   0.426 -1.1400 -0.6426 -0.1322
 3275SOL    MW412874   0.425   1.753   0.491 -0.5194  0.3440 -0.2498
 3276SOL     OW12875   5.921   1.779   0.261  0.1151  0.2068  0.2594
 3276SOL    HW212876   5.914   1.720   0.187 -1.2407  3.6529 -2.6618
 3276SOL    HW312877   6.013   1.808   0.260  0.2185 -0.1247  0.2398
 3276SOL    MW412878   5.933   1.775   0.251 -0.0502  0.6178 -0.1286
 3277SOL     OW12879   2.966   2.083   3.336  0.0565  0.3735 -0.5811
 3277SOL    HW212880   2.922   2.167   3.324  0.3347  0.4876 -0.8240
 3277SOL    HW312881   2.907   2.032   3.392 -0.0003  0.8149 -0.2421
 3277SOL    MW412882   2.952   2.087   3.342  0.0857  0.4468 -0.5684
 3278SOL     OW12883   4.857   6.137  -0.000  0.4864  0.0694  0.2606
 3278SOL    HW212884   4.927   6.134  -0.065  0.7683 -0.3896  0.5712
 3278SOL    HW312885   4.872   6.218   0.048  0.1729  0.4954 -0.3559
 3278SOL    MW412886   4.868   6.147  -0.002  0.4822  0.0650  0.2202
 3279SOL     OW12887   6.168   2.050   1.531  0.3370  0.1168 -0.0344
 3279SOL    HW212888   6.192   1.967   1.571  0.1877  0.0891 -0.0019
 3279SOL    HW312889   6.107   2.027   1.461  0.3139  0.1965 -0.0413
 3279SOL    MW412890   6.163   2.036   1.527  0.3143  0.1236 -0.0310
 3280SOL     OW12891   1.559   5.612   0.394 -0.2138  0.0030  0.0842
 3280SOL    HW212892   1.555   5.681   0.327 -0.8399 -0.9721 -0.9167
 3280SOL    HW312893   1.651   5.610   0.421 -0.1006  0.9106 -0.2112
 3280SOL    MW412894   1.570   5.621   0.389 -0.2815 -0.0059 -0.0868
 3281SOL     OW12895   6.168   0.230   5.732  0.3759  0.8945 -0.1316
 3281SOL    HW212896   6.125   0.146   5.715 -0.5051  1.6538 -1.9163
 3281SOL    HW312897   6.258   0.218   5.702  0.8438  0.0118  1.4902
 3281SOL    MW412898   6.174   0.218   5.726  0.3214  0.8782 -0.1531
 3282SOL     OW12899   2.558   4.786   2.283  0.0771 -0.0643 -0.3274
 3282SOL    HW212900   2.597   4.733   2.353 -0.6052  1.0988  0.9897
 3282SOL    HW312901   2.555   4.727   2.207  0.8191 -1.3761  0.6146
 3282SOL    MW412902   2.563   4.771   2.282  0.0850 -0.0839 -0.0293
 3283SOL     OW12903   4.731   5.689   5.365  0.5983  0.3116 -0.1923
 3283SOL    HW212904   4.745   5.622   5.298 -0.5522 -1.2770  1.0535
 3283SOL    HW312905   4.642   5.721   5.348  0.5170  0.3084  0.2058
 3283SOL    MW412906   4.721   5.684   5.354  0.4358  0.1015  0.0246
 3284SOL     OW12907   2.747   2.949   3.683  0.3471 -0.2594  0.4677
 3284SOL    HW212908   2.825   2.903   3.652 -0.0649 -0.3822 -0.4349
 3284SOL    HW312909   2.720   2.900   3.761  1.3802  0.0275  1.0294
 3284SOL    MW412910   2.754   2.936   3.689  0.4291 -0.2378  0.4227
 3285SOL     OW12911   0.407   1.621   3.760  0.1700  0.2377  0.0494
 3285SOL    HW212912   0.337   1.559   3.781  0.8003 -0.0378  1.3715
 3285SOL    HW312913   0.470   1.570   3.710  0.3293  0.0009  0.4895
 3285SOL    MW412914   0.406   1.606   3.756  0.2742  0.1701  0.2819
 3286SOL     OW12915   0.006   4.182   4.872 -0.2511  0.0598 -0.2940
 3286SOL    HW212916   0.010   4.087   4.857  0.2202  0.1303 -0.6452
 3286SOL    HW312917   0.074   4.218   4.815 -1.2045  0.7209 -1.0332
 3286SOL    MW412918   0.016   4.174   4.863 -0.3147  0.1563 -0.4378
 3287SOL     OW12919   6.042   2.559   4.439 -0.4293  0.0118 -0.0843
 3287SOL    HW212920   6.083   2.644   4.456  0.7888 -0.2333 -1.5081
 3287SOL    HW312921   5.981   2.576   4.367 -0.6677 -0.1911  0.0703
 3287SOL    MW412922   6.040   2.572   4.432 -0.3000 -0.0473 -0.2518
 3288SOL     OW12923   2.006   4.054   0.394 -0.2170  0.1183 -0.0922
 3288SOL    HW212924   1.971   3.966   0.382 -0.3939  0.1052  0.5229
 3288SOL    HW312925   1.929   4.111   0.397 -0.0887  0.3581 -0.9355
 3288SOL    MW412926   1.991   4.050   0.393 -0.2234  0.1482 -0.1223
 3289SOL     OW12927   2.120   1.272   3.737  0.1110  0.3831 -0.3319
 3289SOL    HW212928   2.051   1.278   3.802  0.6267  0.5389  0.2102
 3289SOL    HW312929   2.135   1.178   3.727 -0.0489  0.3556 -0.3154
 3289SOL    MW412930   2.113   1.260   3.744  0.1580  0.4000 -0.2582
 3290SOL     OW12931   1.150   2.805   5.204  0.2370  0.3976 -0.9045
 3290SOL    HW212932   1.084   2.870   5.226  2.0138  1.7448  0.7687
 3290SOL    HW312933   1.171   2.822   5.112 -0.8920  0.7116 -1.1091
 3290SOL    MW412934   1.144   2.816   5.195  0.3225  0.6168 -0.7107
 3291SOL     OW12935   0.719   4.565   0.952 -0.0007  0.1118 -0.0892
 3291SOL    HW212936   0.692   4.573   0.860  1.9197  1.0218 -0.6083
 3291SOL    HW312937   0.636   4.564   1.000 -1.0269  0.6917 -1.7368
 3291SOL    MW412938   0.704   4.566   0.946  0.1173  0.3084 -0.3751
 3292SOL     OW12939   0.965   3.370   4.840  0.4434  0.2512  0.2488
 3292SOL    HW212940   0.877   3.370   4.803  0.7063  2.2313 -0.4917
 3292SOL    HW312941   0.952   3.386   4.934 -0.0152 -0.5015  0.3223
 3292SOL    MW412942   0.952   3.372   4.848  0.4176  0.4132  0.1608
 3293SOL     OW12943   3.489   2.691   3.971 -0.1719  0.1950 -0.2413
 3293SOL    HW212944   3.536   2.772   3.951  1.6618 -0.5427  0.7343
 3293SOL    HW312945   3.503   2.679   4.065 -1.0289 -0.8875 -0.2374
 3293SOL    MW412946   3.497   2.700   3.981 -0.0430 -0.0452 -0.1121
 3294SOL     OW12947   1.848   4.212   2.062 -0.4586  0.5454 -0.5686
 3294SOL    HW212948   1.763   4.252   2.044 -0.6640  0.9001  1.0368
 3294SOL    HW312949   1.828   4.119   2.075 -0.5329  0.5584 -0.5869
 3294SOL    MW412950   1.834   4.205   2.061 -0.4955  0.5939 -0.3592
 3295SOL     OW12951   0.553   0.616   1.994  0.1367 -0.3520  0.5021
 3295SOL    HW212952   0.499   0.573   2.060  0.2537 -0.5699  0.4570
 3295SOL    HW312953   0.511   0.700   1.980  0.2415 -0.2132  1.0149
 3295SOL    MW412954   0.540   0.621   2.001  0.1660 -0.3624  0.5638
 3296SOL     OW12955   0.861   2.927   3.535  0.1275  0.6833  0.5881
 3296SOL    HW212956   0.947   2.967   3.544 -0.7857  2.6257  1.0735
 3296SOL    HW312957   0.842   2.892   3.622  0.8537 -0.7688  0.2043
 3296SOL    MW412958   0.870   2.927   3.547  0.1028  0.7480  0.6015
 3297SOL     OW12959   1.092   3.297   3.525 -0.1315  0.4697  0.3642
 3297SOL    HW212960   1.081   3.206   3.553  0.2317  0.1270 -0.5481
 3297SOL    HW312961   1.038   3.348   3.585 -0.0529 -0.3129  1.1130
 3297SOL    MW412962   1.084   3.292   3.536 -0.0732  0.3212  0.3426
 3298SOL     OW12963   0.349   3.321   0.779 -0.2207  0.3083 -0.1369
 3298SOL    HW212964   0.356   3.343   0.872  0.2961  0.0266 -0.1033
 3298SOL    HW312965   0.421   3.260   0.764 -0.9790 -0.5224 -0.4677
 3298SOL    MW412966   0.360   3.316   0.790 -0.2526  0.1615 -0.1761
 3299SOL     OW12967   1.402   5.314   0.749  0.2798  0.0693 -0.3403
 3299SOL    HW212968   1.421   5.266   0.668 -2.0232 -0.1533 -0.8227
 3299SOL    HW312969   1.479   5.370   0.762  0.4099  0.7129 -3.1430
 3299SOL    MW412970   1.415   5.315   0.740 -0.0069  0.1248 -0.7738
 3300SOL     OW12971   5.100   3.379   4.105 -0.2655 -0.2303 -0.5864
 3300SOL    HW212972   5.154   3.414   4.175 -0.8467 -0.0212 -0.2362
 3300SOL    HW312973   5.157   3.317   4.059 -0.6964 -2.5303  1.7821
 3300SOL    MW412974   5.114   3.375   4.108 -0.3990 -0.5062 -0.2277
 3301SOL     OW12975   3.244   0.677   0.994  0.0361 -0.6144  0.0764
 3301SOL    HW212976   3.274   0.692   0.905 -0.3818 -0.8470 -0.1052
 3301SOL    HW312977   3.152   0.654   0.985 -0.6770  1.7543  0.7512
 3301SOL    MW412978   3.236   0.676   0.981 -0.1131 -0.3326  0.1414
 3302SOL     OW12979   5.431   5.696   0.673  0.5406  0.3068  0.5129
 3302SOL    HW212980   5.516   5.653   0.665 -0.3978 -1.5757  0.0338
 3302SOL    HW312981   5.395   5.663   0.756  0.1678  0.9012  0.5945
 3302SOL    MW412982   5.437   5.686   0.683  0.3676  0.1369  0.4604
 3303SOL     OW12983   1.234   5.364   0.348 -0.0833  0.3748  0.3095
 3303SOL    HW212984   1.178   5.414   0.289  0.2448  0.6170  0.2019
 3303SOL    HW312985   1.275   5.298   0.293 -1.3973 -0.7653  0.6640
 3303SOL    MW412986   1.232   5.362   0.333 -0.2134  0.2563  0.3420
 3304SOL     OW12987   5.600   5.714   2.004 -0.4442 -0.1761 -0.2617
 3304SOL    HW212988   5.625   5.791   2.056 -1.6614 -0.4132  0.7130
 3304SOL    HW312989   5.680   5.662   1.999 -0.4312 -0.4928  2.0152
 3304SOL    MW412990   5.614   5.717   2.010 -0.6031 -0.2491  0.1673
 3305SOL     OW12991   6.248   2.079   5.986  0.4764 -0.4073 -0.0387
 3305SOL    HW212992   6.227   2.085   6.079  1.0061  1.4618  0.0061
 3305SOL    HW312993   6.164   2.067   5.943  0.3335 -2.5909  0.7236
 3305SOL    MW412994   6.234   2.079   5.993  0.5274 -0.4488  0.0678
 3306SOL     OW12995   4.651   5.596   1.033 -0.3924 -0.0771  0.1381
 3306SOL    HW212996   4.583   5.645   0.987 -0.2004 -0.5974 -0.7227
 3306SOL    HW312997   4.717   5.662   1.055 -0.4711  0.1762 -0.3704
 3306SOL    MW412998   4.651   5.611   1.030 -0.3774 -0.1123 -0.0426
 3307SOL     OW12999   2.065   4.316   5.728  0.3448  0.3896 -0.1596
 3307SOL    HW213000   2.154   4.281   5.735  0.9582  1.6485 -1.2047
 3307SOL    HW313001   2.026   4.301   5.814  2.2182  1.5075  0.9522
 3307SOL    MW413002   2.072   4.309   5.740  0.6729  0.7032 -0.1508
 3308SOL     OW13003   0.763   5.983   2.430 -0.7605  0.2584  0.2227
 3308SOL    HW213004   0.844   5.932   2.430 -1.3897 -0.7553  0.2885
 3308SOL    HW313005   0.708   5.942   2.497 -3.0550 -1.8704 -2.6996
 3308SOL    MW413006   0.766   5.971   2.439 -1.1463 -0.1562 -0.1542
 3309SOL     OW13007   2.654   0.371   6.137  0.0638  0.9131  0.3964
 3309SOL    HW213008   2.565   0.345   6.111  0.9201 -1.1334 -0.6371
 3309SOL    HW313009   2.667   0.455   6.092 -0.1906 -0.3338 -2.1781
 3309SOL    MW413010   2.644   0.379   6.127  0.1432  0.4785 -0.0796
 3310SOL     OW13011   2.823   2.341   3.294  0.0342  0.4397  1.0613
 3310SOL    HW213012   2.730   2.366   3.293 -0.2653 -0.3605 -2.5050
 3310SOL    HW313013   2.866   2.413   3.342 -2.0490  2.4915  0.0679
 3310SOL    MW413014   2.816   2.354   3.300 -0.2801  0.6048  0.4597
 3311SOL     OW13015   1.883   1.512   1.883 -0.1443 -0.1631  0.1765
 3311SOL    HW213016   1.866   1.495   1.790 -1.1783  1.1027  0.1104
 3311SOL    HW313017   1.843   1.438   1.928 -0.5630 -0.2599 -0.3360
 3311SOL    MW413018   1.876   1.500   1.876 -0.3360 -0.0089  0.1002
 3312SOL     OW13019   6.033   1.208   4.941  0.4379 -0.9791 -0.0146
 3312SOL    HW213020   6.120   1.241   4.962  1.1808 -0.8337 -2.9424
 3312SOL    HW313021   6.048   1.128   4.891 -1.1494 -1.6311  0.4820
 3312SOL    MW413022   6.046   1.202   4.937  0.3265 -1.0459 -0.3354
 3313SOL     OW13023   6.379   2.432   3.660  0.1607 -0.2162 -0.3460
 3313SOL    HW213024   6.465   2.401   3.686  0.0772 -0.7596 -0.6986
 3313SOL    HW313025   6.394   2.518   3.623  0.6340 -0.5496 -0.9430
 3313SOL    MW413026   6.392   2.439   3.659  0.2121 -0.3319 -0.4713
 3314SOL     OW13027   5.701   4.891   3.580 -0.3774  0.1468 -0.3946
 3314SOL    HW213028   5.719   4.985   3.578 -3.6265  0.9009 -0.4928
 3314SOL    HW313029   5.666   4.875   3.668  2.3583 -1.5688  0.4978
 3314SOL    MW413030   5.699   4.901   3.592 -0.4451  0.0199 -0.2898
 3315SOL     OW13031   5.274   6.258   1.050  0.0114  0.0895 -0.1951
 3315SOL    HW213032   5.181   6.245   1.069 -0.1318  0.9669 -0.2626
 3315SOL    HW313033   5.319   6.191   1.102 -0.7318 -1.2066 -1.1580
 3315SOL    MW413034   5.268   6.248   1.059 -0.1055  0.0343 -0.3311
 3316SOL     OW13035   3.364   3.130   3.001  0.5683 -0.0192 -0.1063
 3316SOL    HW213036   3.346   3.062   2.936  0.6438  0.6279 -0.8023
 3316SOL    HW313037   3.366   3.212   2.952 -0.4287  0.6193  0.8578
 3316SOL    MW413038   3.362   3.132   2.986  0.4467  0.1504 -0.0709
 3317SOL     OW13039   1.951   0.900   2.334  0.1935  0.3246  0.1900
 3317SOL    HW213040   1.986   0.925   2.420  0.1350  0.8992  0.0508
 3317SOL    HW313041   1.957   0.805   2.333 -0.5909  0.2456  1.1744
 3317SOL    MW413042   1.956   0.891   2.345  0.0823  0.3900  0.3015
 3318SOL     OW13043   0.998   6.101   4.566  0.3899  0.6266  0.4613
 3318SOL    HW213044   1.032   6.182   4.529 -1.8314  1.4556  0.0932
 3318SOL    HW313045   0.904   6.116   4.575  0.3289 -0.7070  3.4590
 3318SOL    MW413046   0.991   6.113   4.562  0.0888  0.5600  0.8082
 3319SOL     OW13047   4.943   4.864   5.251  0.6234 -0.0114 -0.4857
 3319SOL    HW213048   4.972   4.916   5.326  2.0439  0.7139 -1.4932
 3319SOL    HW313049   4.974   4.912   5.175 -0.7269 -0.7694 -1.5584
 3319SOL    MW413050   4.951   4.877   5.251  0.6327 -0.0157 -0.7601
 3320SOL     OW13051   1.281   3.551   2.619 -0.1394  0.7890 -0.0742
 3320SOL    HW213052   1.283   3.565   2.713  1.4671 -2.3443  0.4804
 3320SOL    HW313053   1.194   3.514   2.602 -0.2293  0.8518  0.2390
 3320SOL    MW413054   1.270   3.548   2.629  0.0607  0.3839  0.0403
 3321SOL     OW13055   4.091   5.450   2.188  0.0763  0.3499  0.2949
 3321SOL    HW213056   4.007   5.495   2.175 -0.7100 -1.2801 -0.5377
 3321SOL    HW313057   4.117   5.474   2.276 -1.6542  0.2904  0.8641
 3321SOL    MW413058   4.083   5.459   2.198 -0.2557  0.1270  0.2602
 3322SOL     OW13059   4.618   1.122   2.357  0.2793  0.6420 -0.0027
 3322SOL    HW213060   4.527   1.121   2.325  0.3454 -2.9625 -0.5075
 3322SOL    HW313061   4.615   1.179   2.434 -2.0093  1.8863 -0.8795
 3322SOL    MW413062   4.605   1.130   2.363 -0.0139  0.3306 -0.1850
 3323SOL     OW13063   0.638   1.812   1.702 -0.2778  0.0604  0.2412
 3323SOL    HW213064   0.611   1.900   1.730 -0.7230  0.0029 -0.0070
 3323SOL    HW313065   0.710   1.790   1.762  0.3026  0.8649 -0.1233
 3323SOL    MW413066   0.644   1.821   1.714 -0.2600  0.1590  0.1604
 3324SOL     OW13067   0.205   4.239   0.040  0.3716  0.1082  0.2958
 3324SOL    HW213068   0.207   4.297  -0.036  3.8485 -0.7845 -0.4899
 3324SOL    HW313069   0.120   4.195   0.035  0.0446  0.8772 -2.4544
 3324SOL    MW413070   0.194   4.241   0.030  0.7872  0.0919 -0.1707
 3325SOL     OW13071   4.390   4.805   6.086 -0.1761 -0.2612 -0.0710
 3325SOL    HW213072   4.395   4.785   6.180 -1.4395 -2.6110 -0.4471
 3325SOL    HW313073   4.478   4.784   6.053 -0.0792 -0.5860  0.3821
 3325SOL    MW413074   4.402   4.800   6.094 -0.3300 -0.6140 -0.0608
 3326SOL     OW13075   5.117   5.493   2.471 -0.2337 -0.0460  0.2730
 3326SOL    HW213076   5.043   5.548   2.442 -0.9659 -1.8954 -1.6621
 3326SOL    HW313077   5.105   5.485   2.566 -0.3824  2.6395  0.5524
 3326SOL    MW413078   5.105   5.499   2.480 -0.3500  0.0644  0.0546
 3327SOL     OW13079   3.023   6.259   3.209 -0.4137 -0.0220 -0.5600
 3327SOL    HW213080   2.965   6.308   3.268 -1.5553 -1.4208 -0.4727
 3327SOL    HW313081   3.086   6.217   3.267 -0.8102 -0.4486 -0.4374
 3327SOL    MW413082   3.024   6.260   3.224 -0.6167 -0.2628 -0.5323
 3328SOL     OW13083   1.651   2.641   2.082  0.2585 -0.4395  0.0682
 3328SOL    HW213084   1.557   2.623   2.084 -0.3028  2.1452  0.1423
 3328SOL    HW313085   1.664   2.689   2.001  1.0050  1.5535  1.3118
 3328SOL    MW413086   1.640   2.645   2.071  0.2829  0.1645  0.2420
 3329SOL     OW13087   0.311   4.121   3.862  0.1985  0.5623  0.0236
 3329SOL    HW213088   0.384   4.143   3.920 -1.3964 -0.0028  2.4058
 3329SOL    HW313089   0.352   4.089   3.782  2.5336  1.2401  0.8866
 3329SOL    MW413090   0.326   4.120   3.859  0.2962  0.5772  0.4517
 3330SOL     OW13091   3.100   2.337   6.358  0.3696  0.0605  0.3006
 3330SOL    HW213092   3.071   2.289   6.436  2.3673  0.3358  1.2778
 3330SOL    HW313093   3.145   2.272   6.305 -1.0846 -0.1507 -0.7295
 3330SOL    MW413094   3.102   2.322   6.361  0.4413  0.0689  0.2936
 3331SOL     OW13095   3.918   2.770   5.437  0.5701 -0.2877  0.2621
 3331SOL    HW213096   3.921   2.779   5.342  1.9562 -0.9327  0.2201
 3331SOL    HW313097   3.825   2.775   5.459  0.0422 -2.0456 -1.3362
 3331SOL    MW413098   3.906   2.772   5.428  0.6833 -0.6047  0.0457
 3332SOL     OW13099   4.555   0.213   5.199  0.0705 -0.5307  0.3973
 3332SOL    HW213100   4.465   0.183   5.197  0.0980 -0.6244  0.5354
 3332SOL    HW313101   4.556   0.289   5.141  0.3144 -1.6123 -1.0737
 3332SOL    MW413102   4.543   0.219   5.191  0.1063 -0.6857  0.2215
 3333SOL     OW13103   3.262   2.234   5.765 -0.2438  0.1492 -0.5485
 3333SOL    HW213104   3.207   2.157   5.764 -0.7500  0.5014 -0.2714
 3333SOL    HW313105   3.225   2.292   5.699 -1.2000  1.0515  0.7267
 3333SOL    MW413106   3.250   2.232   5.756 -0.4368  0.3147 -0.3437
 3334SOL     OW13107   3.969   6.116   2.328 -0.0479 -0.0696  0.1505
 3334SOL    HW213108   3.969   6.029   2.289  1.7827 -0.2912  0.5635
 3334SOL    HW313109   4.027   6.168   2.272 -2.0036  1.2558 -0.7686
 3334SOL    MW413110   3.976   6.111   2.316 -0.0644  0.0760  0.0837
 3335SOL     OW13111   2.514   1.075   3.294  0.0950 -0.0204  0.0338
 3335SOL    HW213112   2.574   1.058   3.367 -1.4630 -0.0227  1.3659
 3335SOL    HW313113   2.553   1.029   3.220  2.4203  1.0651  0.4970
 3335SOL    MW413114   2.527   1.067   3.294  0.1962  0.1225  0.2707
 3336SOL     OW13115   3.695   0.558   0.636  0.0729  0.7745  0.2566
 3336SOL    HW213116   3.649   0.560   0.720 -1.5817  3.4634 -0.5731
 3336SOL    HW313117   3.756   0.632   0.641 -0.8823  1.6995 -1.2963
 3336SOL    MW413118   3.697   0.568   0.648 -0.2714  1.2513 -0.0577
 3337SOL     OW13119   6.063   1.076   2.909  0.0251  0.4795 -0.3033
 3337SOL    HW213120   6.080   0.982   2.900 -2.0520 -0.0149  0.3365
 3337SOL    HW313121   6.138   1.109   2.960 -0.1683 -1.2338  1.2074
 3337SOL    MW413122   6.075   1.068   2.915 -0.2745  0.1882 -0.0196
 3338SOL     OW13123   0.932   2.585   0.559  0.1772 -0.0663  0.1809
 3338SOL    HW213124   0.969   2.559   0.474  0.6681 -2.0489  0.9484
 3338SOL    HW313125   0.874   2.513   0.582  0.5505  0.1387  1.8355
 3338SOL    MW413126   0.929   2.572   0.551  0.2912 -0.3008  0.5005
 3339SOL     OW13127   1.359   5.887   3.360 -0.2270 -0.4848  0.0331
 3339SOL    HW213128   1.381   5.863   3.451 -1.0261 -2.0296 -0.1441
 3339SOL    HW313129   1.322   5.975   3.367  0.4431 -0.2625  1.0967
 3339SOL    MW413130   1.357   5.896   3.373 -0.2441 -0.6593  0.1501
 3340SOL     OW13131   2.500   5.634   3.538  0.0090  0.2561  0.6556
 3340SOL    HW213132   2.444   5.712   3.546  0.2844  0.4321  0.8943
 3340SOL    HW313133   2.546   5.646   3.455 -1.2492 -0.5149 -0.1914
 3340SOL    MW413134   2.499   5.646   3.528 -0.1207  0.1776  0.5754
 3341SOL     OW13135   2.846   1.136   3.166  0.3273  0.5161  0.3963
 3341SOL    HW213136   2.910   1.139   3.095  0.0064 -0.4095  0.0523
 3341SOL    HW313137   2.890   1.090   3.237  0.9001  2.0580  1.0923
 3341SOL    MW413138   2.860   1.131   3.166  0.3605  0.5974  0.4428
 3342SOL     OW13139   6.217   2.835   2.475 -0.9598  0.1042 -0.2898
 3342SOL    HW213140   6.271   2.757   2.489 -0.3161  0.5575 -0.1621
 3342SOL    HW313141   6.131   2.801   2.451 -0.7173 -0.6435 -0.1402
 3342SOL    MW413142   6.213   2.820   2.474 -0.8428  0.0654 -0.2532
 3343SOL     OW13143   4.160   2.668   4.572  0.4134 -0.4295  0.3614
 3343SOL    HW213144   4.112   2.596   4.613 -0.5239 -0.1248 -0.1668
 3343SOL    HW313145   4.252   2.647   4.586  0.1345 -1.2423  1.0375
 3343SOL    MW413146   4.166   2.656   4.579  0.2529 -0.4965  0.3809
 3344SOL     OW13147   0.342   2.388   0.687  0.4414 -0.3115 -0.7774
 3344SOL    HW213148   0.292   2.407   0.607 -1.3474 -1.4327  0.0237
 3344SOL    HW313149   0.288   2.424   0.758  2.1065  0.8699 -0.0489
 3344SOL    MW413150   0.328   2.396   0.686  0.4251 -0.3035 -0.5756
 3345SOL     OW13151   4.953   3.899   5.975 -0.0252 -0.1270 -0.8612
 3345SOL    HW213152   5.006   3.885   5.896  0.9081 -1.0771 -0.0905
 3345SOL    HW313153   4.863   3.882   5.947  0.2967 -0.5003 -1.7067
 3345SOL    MW413154   4.948   3.895   5.961  0.1404 -0.3016 -0.8711
 3346SOL     OW13155   5.082   1.891   4.772 -0.1154  0.5212  0.0413
 3346SOL    HW213156   5.168   1.852   4.760  0.0545  0.4516  1.3015
 3346SOL    HW313157   5.049   1.852   4.853 -1.3445  0.5377 -0.4252
 3346SOL    MW413158   5.089   1.881   4.781 -0.2551  0.5142  0.1460
 3347SOL     OW13159   1.913   1.958   0.349 -0.5141 -0.4845 -0.1935
 3347SOL    HW213160   1.965   1.977   0.271 -1.0925  2.2356 -0.0330
 3347SOL    HW313161   1.938   1.869   0.374  2.5162 -0.0772 -1.3137
 3347SOL    MW413162   1.923   1.949   0.342 -0.1906 -0.0719 -0.3201
 3348SOL     OW13163   5.593   4.815   1.379  0.0209  0.1499 -0.0125
 3348SOL    HW213164   5.514   4.858   1.348 -0.5050 -1.0824 -0.4684
 3348SOL    HW313165   5.662   4.843   1.319 -0.7658 -1.3495 -1.7043
 3348SOL    MW413166   5.592   4.824   1.367 -0.1523 -0.2105 -0.2959
 3349SOL     OW13167   4.726   6.133   1.598 -0.3175 -0.0807 -0.3590
 3349SOL    HW213168   4.758   6.119   1.509 -1.3938 -0.9225 -0.6419
 3349SOL    HW313169   4.642   6.087   1.601 -0.8395  0.8833  0.7584
 3349SOL    MW413170   4.719   6.125   1.587 -0.5284 -0.0646 -0.2489
 3350SOL     OW13171   6.324   3.515   3.398 -0.4074 -0.2278  0.1499
 3350SOL    HW213172   6.416   3.519   3.372  0.0021 -1.0579  1.3791
 3350SOL    HW313173   6.318   3.572   3.475  0.1111 -3.4084  2.7463
 3350SOL    MW413174   6.336   3.523   3.405 -0.2850 -0.7569  0.6546
 3351SOL     OW13175   0.536   1.318   2.048 -0.7029 -0.2250  0.1408
 3351SOL    HW213176   0.582   1.338   2.130  0.2240 -2.0673  0.1129
 3351SOL    HW313177   0.512   1.404   2.013  1.3174  0.7387  0.9534
 3351SOL    MW413178   0.539   1.332   2.054 -0.3141 -0.3409  0.2443
 3352SOL     OW13179   3.341   1.057   5.900  0.3541  0.4890 -0.5717
 3352SOL    HW213180   3.259   1.105   5.885  0.4950  0.5938 -1.0025
 3352SOL    HW313181   3.342   0.989   5.833  1.1964  1.2382 -1.3537
 3352SOL    MW413182   3.330   1.054   5.889  0.4838  0.6017 -0.7317
 3353SOL     OW13183   4.013   4.489   3.710  1.3981 -0.0011  0.5121
 3353SOL    HW213184   3.954   4.515   3.782 -0.0501  0.9577 -0.9586
 3353SOL    HW313185   4.023   4.394   3.721 -2.4119 -0.6942 -0.5100
 3353SOL    MW413186   4.006   4.480   3.721  0.7043  0.0339  0.1832
 3354SOL     OW13187   5.843   6.137   0.579  0.4302 -0.1484  0.3491
 3354SOL    HW213188   5.790   6.166   0.505  1.6122 -1.5012 -1.0978
 3354SOL    HW313189   5.814   6.192   0.652 -1.2780  0.7436 -0.9240
 3354SOL    MW413190   5.832   6.148   0.579  0.3608 -0.2092 -0.0098
 3355SOL     OW13191   3.303   1.384   4.159  0.4351  0.4515 -0.1004
 3355SOL    HW213192   3.290   1.304   4.108  2.0398  0.6839 -0.9425
 3355SOL    HW313193   3.356   1.440   4.103 -0.4396  2.0159  0.5924
 3355SOL    MW413194   3.308   1.381   4.145  0.5314  0.6886 -0.1201
 3356SOL     OW13195   0.902   2.688   4.261 -0.2432  0.4448 -0.0416
 3356SOL    HW213196   0.838   2.751   4.228  1.1152  0.7617 -2.2776
 3356SOL    HW313197   0.948   2.734   4.331 -0.0343  1.5406 -0.8824
 3356SOL    MW413198   0.900   2.702   4.266 -0.0364  0.6312 -0.4476
 3357SOL     OW13199   0.020   0.997   2.848  0.0651 -0.0398  0.4287
 3357SOL    HW213200   0.037   1.088   2.824  1.3809 -0.4084 -0.0845
 3357SOL    HW313201  -0.061   0.975   2.801  0.2398  0.5855 -0.1782
 3357SOL    MW413202   0.011   1.006   2.839  0.2617 -0.0060  0.2809
 3358SOL     OW13203   4.330   0.569   3.486 -0.4482  0.0797  0.1770
 3358SOL    HW213204   4.413   0.547   3.529 -0.2217  0.4878 -0.0458
 3358SOL    HW313205   4.307   0.655   3.521 -0.2266  0.4500 -0.5548
 3358SOL    MW413206   4.338   0.578   3.496 -0.3891  0.1824  0.0510
 3359SOL     OW13207   6.384   4.589   5.486 -0.0702 -0.1852  0.4516
 3359SOL    HW213208   6.373   4.613   5.578 -1.0994  0.0383  0.2867
 3359SOL    HW313209   6.454   4.524   5.487  1.2253  1.1339  1.1675
 3359SOL    MW413210   6.392   4.584   5.498 -0.0351  0.0183  0.5243
 3360SOL     OW13211   1.617   6.254  -0.014  0.1131  0.0975 -0.3201
 3360SOL    HW213212   1.707   6.236  -0.044  0.2432 -1.5918  0.9149
 3360SOL    HW313213   1.561   6.213  -0.080  0.3580 -1.5813  0.4447
 3360SOL    MW413214   1.622   6.246  -0.026  0.1626 -0.3469 -0.0563
 3361SOL     OW13215   2.088   2.717   5.628 -0.7562 -0.1519  0.4313
 3361SOL    HW213216   2.133   2.799   5.609  0.5118 -0.7990  0.5478
 3361SOL    HW313217   2.020   2.711   5.560 -0.4576  0.6796  0.0441
 3361SOL    MW413218   2.085   2.727   5.616 -0.5495 -0.1276  0.3956
 3362SOL     OW13219   1.385   4.825   6.382  0.3322  0.3735 -0.2333
 3362SOL    HW213220   1.399   4.742   6.336 -0.0569  0.0582  0.2088
 3362SOL    HW313221   1.414   4.892   6.320 -0.9774  0.0119 -1.2806
 3362SOL    MW413222   1.391   4.823   6.368  0.1081  0.2842 -0.3131
 3363SOL     OW13223   1.933   3.302   2.421 -0.5745 -0.2594  0.1298
 3363SOL    HW213224   1.975   3.253   2.491 -1.1685  0.1708  0.7973
 3363SOL    HW313225   1.899   3.235   2.362  1.0783 -0.6214 -0.4756
 3363SOL    MW413226   1.934   3.287   2.422 -0.4348 -0.2504  0.1380
 3364SOL     OW13227   2.469   2.572   2.076 -0.0379  0.8128  0.4870
 3364SOL    HW213228   2.412   2.514   2.025 -0.1295  1.0962  0.2603
 3364SOL    HW313229   2.416   2.650   2.090  1.5803  2.8286 -3.2405
 3364SOL    MW413230   2.454   2.574   2.071  0.1635  1.1161 -0.0347
 3365SOL     OW13231   1.251   2.496   5.578 -0.1260 -0.5548  0.0224
 3365SOL    HW213232   1.159   2.511   5.555 -0.3001 -1.0851  0.3543
 3365SOL    HW313233   1.283   2.582   5.605 -0.6531 -0.4546  0.3425
 3365SOL    MW413234   1.243   2.509   5.578 -0.2185 -0.6115  0.1084
 3366SOL     OW13235   3.178   5.200   0.925  0.0747  0.2315  0.3916
 3366SOL    HW213236   3.241   5.226   0.858  0.2981  0.5716  0.7296
 3366SOL    HW313237   3.098   5.247   0.902 -0.6740 -1.6771 -1.1566
 3366SOL    MW413238   3.176   5.210   0.913  0.0054  0.0245  0.2319
 3367SOL     OW13239   2.134   5.727   1.312  0.8551  0.2700 -0.3499
 3367SOL    HW213240   2.058   5.718   1.254 -0.5578  0.8989  1.3072
 3367SOL    HW313241   2.172   5.640   1.316  0.1387 -0.0954 -1.1047
 3367SOL    MW413242   2.129   5.715   1.305  0.5742  0.3047 -0.2309
 3368SOL     OW13243   5.630   0.501   2.631 -0.1139  0.4638  0.4579
 3368SOL    HW213244   5.652   0.584   2.672  0.1157  0.3405  0.5853
 3368SOL    HW313245   5.699   0.441   2.658  0.1311  0.4222 -0.2397
 3368SOL    MW413246   5.642   0.504   2.640 -0.0512  0.4421  0.3826
 3369SOL     OW13247   4.130   4.128   5.669 -0.0773  0.1633  0.1220
 3369SOL    HW213248   4.150   4.048   5.622 -1.4898 -0.9721  1.3447
 3369SOL    HW313249   4.211   4.149   5.716 -0.1296 -1.4531  1.0127
 3369SOL    MW413250   4.144   4.120   5.669 -0.2706 -0.1998  0.4009
 3370SOL     OW13251   4.649   2.662   3.909 -0.2374  0.0308 -0.0463
 3370SOL    HW213252   4.594   2.738   3.925 -0.1997  0.1534 -0.4711
 3370SOL    HW313253   4.620   2.629   3.824 -0.3739 -0.5358  0.2206
 3370SOL    MW413254   4.638   2.668   3.900 -0.2504 -0.0278 -0.0671
 3371SOL     OW13255   4.080   0.950   5.843 -0.1910 -0.1872  0.1557
 3371SOL    HW213256   4.120   0.871   5.879 -0.4194 -0.5361 -0.3617
 3371SOL    HW313257   4.110   0.954   5.753 -1.1209 -0.3189 -0.1684
 3371SOL    MW413258   4.089   0.940   5.836 -0.3438 -0.2506  0.0447
 3372SOL     OW13259   0.609   6.013   3.143 -0.0121 -0.2494 -0.3789
 3372SOL    HW213260   0.699   6.015   3.175  0.3774  0.3149 -1.4406
 3372SOL    HW313261   0.573   5.931   3.176  1.5030 -1.4085 -1.4876
 3372SOL    MW413262   0.616   6.003   3.152  0.2392 -0.3279 -0.6653
 3373SOL     OW13263   0.031   3.894   3.404  0.3748 -0.4406  0.2274
 3373SOL    HW213264  -0.001   3.910   3.315  1.0017 -1.2577 -0.1638
 3373SOL    HW313265   0.026   3.979   3.447 -0.3897 -0.1341 -0.4394
 3373SOL    MW413266   0.026   3.907   3.398  0.3566 -0.5079  0.0878
 3374SOL     OW13267   4.221   4.942   3.257 -0.7063 -0.0354 -0.3883
 3374SOL    HW213268   4.301   4.891   3.244 -0.9627 -0.9943  1.4365
 3374SOL    HW313269   4.151   4.884   3.227 -0.8527  0.0032 -0.1226
 3374SOL    MW413270   4.222   4.927   3.251 -0.7595 -0.1568 -0.1125
 3375SOL     OW13271   2.627   3.888   2.865 -0.7295 -0.2743 -0.9169
 3375SOL    HW213272   2.562   3.959   2.867  0.7140  1.2233 -3.0710
 3375SOL    HW313273   2.709   3.932   2.845  0.2020 -2.5768 -2.5285
 3375SOL    MW413274   2.629   3.903   2.863 -0.4161 -0.3805 -1.4137
 3376SOL     OW13275   0.215   1.133   0.204 -0.1396  0.2914 -0.1531
 3376SOL    HW213276   0.140   1.133   0.264  1.6073 -0.3573  2.1999
 3376SOL    HW313277   0.290   1.109   0.259  1.6005 -0.4892 -2.6670
 3376SOL    MW413278   0.215   1.130   0.219  0.3205  0.1028 -0.1743
 3377SOL     OW13279   3.873   0.913   5.539  0.0569  0.4383 -0.0255
 3377SOL    HW213280   3.931   0.985   5.566  1.2011 -0.0978 -0.9663
 3377SOL    HW313281   3.883   0.848   5.608  0.2183  0.5507  0.0595
 3377SOL    MW413282   3.882   0.914   5.552  0.2292  0.3824 -0.1384
 3378SOL     OW13283   5.637   4.343   3.925 -0.1542  0.5845  0.1395
 3378SOL    HW213284   5.675   4.387   3.849  0.1434 -0.5882 -0.4154
 3378SOL    HW313285   5.565   4.291   3.889 -1.4141  1.6802  0.9869
 3378SOL    MW413286   5.632   4.342   3.910 -0.2811  0.5743  0.1781
 3379SOL     OW13287   1.596   2.895   3.416  0.2870 -1.2669 -0.2306
 3379SOL    HW213288   1.509   2.934   3.419  0.4151 -0.5239 -3.0582
 3379SOL    HW313289   1.652   2.956   3.464 -0.6183 -1.4647  1.1217
 3379SOL    MW413290   1.592   2.908   3.423  0.1845 -1.1950 -0.4252
 3380SOL     OW13291   3.073   5.121   2.993  0.3437  0.3891 -0.3335
 3380SOL    HW213292   3.102   5.107   3.083  0.1927  2.4536  0.0813
 3380SOL    HW313293   3.150   5.154   2.947  0.2672 -0.1134 -0.8429
 3380SOL    MW413294   3.087   5.124   2.999  0.3136  0.5952 -0.3460
 3381SOL     OW13295   3.047   2.471   5.308  0.0287 -0.0434 -0.2587
 3381SOL    HW213296   3.072   2.432   5.224  0.4257  1.6256 -0.9625
 3381SOL    HW313297   2.954   2.492   5.298 -0.2470 -0.9764  0.2092
 3381SOL    MW413298   3.038   2.469   5.296  0.0447  0.0537 -0.2898
 3382SOL     OW13299   5.102   0.275   3.789 -0.0109 -0.8630 -0.2610
 3382SOL    HW213300   5.011   0.301   3.776  0.2167  1.5323  2.0711
 3382SOL    HW313301   5.152   0.355   3.775  1.5126 -1.5910  0.7051
 3382SOL    MW413302   5.096   0.289   3.785  0.2202 -0.6430  0.1742
 3383SOL     OW13303   2.978   2.618   2.739  0.1934  0.1188 -0.3848
 3383SOL    HW213304   3.026   2.561   2.799 -2.3315 -0.3237  1.3633
 3383SOL    HW313305   2.935   2.559   2.678  0.6419  0.4352 -1.0279
 3383SOL    MW413306   2.979   2.603   2.739 -0.0806  0.1021 -0.2390
 3384SOL     OW13307   3.765   1.234   3.374 -0.4002  0.0273 -0.7092
 3384SOL    HW213308   3.728   1.192   3.452 -0.0543  0.3949 -0.3437
 3384SOL    HW313309   3.747   1.327   3.387  0.4626  0.1832 -0.6367
 3384SOL    MW413310   3.757   1.241   3.386 -0.2407  0.0963 -0.6514
 3385SOL     OW13311   1.385   3.800   1.362  0.5175  0.0396  0.1045
 3385SOL    HW213312   1.340   3.723   1.397  0.0802 -0.5148 -1.5732
 3385SOL    HW313313   1.321   3.840   1.304  1.6151  0.1864 -1.0364
 3385SOL    MW413314   1.371   3.795   1.359  0.6046 -0.0142 -0.2674
 3386SOL     OW13315   4.624   0.602   5.468 -0.0191  0.2360 -0.2017
 3386SOL    HW213316   4.552   0.561   5.419  0.3956 -0.2814 -0.3863
 3386SOL    HW313317   4.698   0.602   5.407  0.5521 -0.5712  0.4720
 3386SOL    MW413318   4.624   0.597   5.454  0.1109  0.0612 -0.1372
 3387SOL     OW13319   3.668   4.029   1.764  0.2052  0.2121  0.2100
 3387SOL    HW213320   3.752   4.029   1.810  0.6392 -1.4368 -0.5207
 3387SOL    HW313321   3.688   3.999   1.676 -1.3942 -2.5469  0.6399
 3387SOL    MW413322   3.682   4.025   1.759  0.0514 -0.3695  0.1703
 3388SOL     OW13323   3.148   0.057   4.647  0.3707  0.5355  0.4324
 3388SOL    HW213324   3.224  -0.001   4.638  0.4173  0.5320  0.7966
 3388SOL    HW313325   3.179   0.142   4.615  0.7491  0.7023  1.2168
 3388SOL    MW413326   3.162   0.061   4.642  0.4268  0.5570  0.5840
 3389SOL     OW13327   3.538   0.870   0.880 -0.1537 -0.4135 -0.3886
 3389SOL    HW213328   3.454   0.890   0.922 -0.5715 -1.7565 -0.5444
 3389SOL    HW313329   3.532   0.912   0.794 -0.8066 -0.7875 -0.5289
 3389SOL    MW413330   3.526   0.879   0.874 -0.2949 -0.6400 -0.4277
 3390SOL     OW13331   3.502   1.484   3.780 -0.1840  0.4369 -0.2115
 3390SOL    HW213332   3.502   1.523   3.867 -0.0427 -0.3317  0.1445
 3390SOL    HW313333   3.425   1.426   3.780 -0.6307  1.0195 -0.8719
 3390SOL    MW413334   3.492   1.481   3.792 -0.2243  0.4124 -0.2517
 3391SOL     OW13335   3.337   2.914   1.588 -0.7613  0.3016 -0.1327
 3391SOL    HW213336   3.259   2.875   1.627 -0.0350 -0.9894  0.0769
 3391SOL    HW313337   3.390   2.840   1.561  1.0683  1.1215  1.0488
 3391SOL    MW413338   3.334   2.899   1.589 -0.4241  0.2394  0.0509
 3392SOL     OW13339   3.694   1.327   1.327  0.1355  0.2733  0.3350
 3392SOL    HW213340   3.679   1.399   1.388  0.0874  1.4821 -1.0173
 3392SOL    HW313341   3.609   1.311   1.287  0.3194  0.0778  0.0124
 3392SOL    MW413342   3.681   1.335   1.330  0.1534  0.4070  0.1140
 3393SOL     OW13343   5.846   5.794   4.904  0.3159  0.0863  0.1104
 3393SOL    HW213344   5.757   5.763   4.888  0.4260 -0.4752  0.5484
 3393SOL    HW313345   5.878   5.740   4.977  1.3979 -0.4907 -0.7491
 3393SOL    MW413346   5.839   5.783   4.912  0.4732 -0.0639  0.0548
 3394SOL     OW13347   2.333   0.478   3.311  0.5296  0.5177 -0.0237
 3394SOL    HW213348   2.242   0.455   3.330  0.7560 -0.2002  0.2088
 3394SOL    HW313349   2.327   0.555   3.254 -0.2456 -0.6382 -1.5566
 3394SOL    MW413350   2.320   0.485   3.306  0.4572  0.2705 -0.1952
 3395SOL     OW13351   4.921   4.647   4.132 -0.1525 -0.3128 -0.5730
 3395SOL    HW213352   4.842   4.664   4.183 -0.1972 -1.8251 -0.0728
 3395SOL    HW313353   4.991   4.640   4.197  0.9788  3.4683 -1.1345
 3395SOL    MW413354   4.920   4.648   4.147 -0.0091 -0.0134 -0.5811
 3396SOL     OW13355   0.100   0.567   5.161  0.8726  0.6434  0.2621
 3396SOL    HW213356   0.129   0.483   5.125  1.2222  0.1440  1.6534
 3396SOL    HW313357   0.098   0.626   5.085 -1.2264 -1.0672 -1.1362
 3396SOL    MW413358   0.103   0.564   5.146  0.6418  0.3518  0.2612
 3397SOL     OW13359   2.718   1.475   0.594 -0.6717 -0.1122 -0.0026
 3397SOL    HW213360   2.651   1.543   0.589 -1.4168 -0.9324 -2.1105
 3397SOL    HW313361   2.691   1.409   0.531  2.0667 -0.5192 -0.9214
 3397SOL    MW413362   2.706   1.475   0.585 -0.4087 -0.2741 -0.4019
 3398SOL     OW13363   2.051   4.560   1.785  0.1131 -0.1100  0.0600
 3398SOL    HW213364   1.968   4.532   1.822 -0.0647  1.0223  0.5423
 3398SOL    HW313365   2.064   4.503   1.709 -0.4929 -1.1169  0.6940
 3398SOL    MW413366   2.042   4.549   1.780  0.0097 -0.0934  0.2073
 3399SOL     OW13367   4.992   4.228   4.268  0.0953  0.1877  0.7863
 3399SOL    HW213368   4.931   4.158   4.292  0.0485 -0.2609 -0.5134
 3399SOL    HW313369   4.938   4.307   4.264 -1.2973 -0.6793 -3.4330
 3399SOL    MW413370   4.977   4.229   4.271 -0.0946  0.0141  0.0581
 3400SOL     OW13371   1.264   1.624   1.082 -0.4480  0.2154  0.3181
 3400SOL    HW213372   1.186   1.673   1.057 -0.7007 -0.3196  0.0661
 3400SOL    HW313373   1.253   1.538   1.041  0.3135  0.1686  0.1962
 3400SOL    MW413374   1.253   1.619   1.073 -0.3809  0.1387  0.2688
 3401SOL     OW13375   1.904   1.619   6.372 -0.5837 -0.7914 -0.0102
 3401SOL    HW213376   1.873   1.650   6.457 -1.3526  0.8498 -0.8516
 3401SOL    HW313377   1.931   1.698   6.325  2.1253 -1.8553 -0.4692
 3401SOL    MW413378   1.904   1.633   6.377 -0.3277 -0.7152 -0.1817
 3402SOL     OW13379   3.444   5.838   5.992  0.2383  0.5226  0.5970
 3402SOL    HW213380   3.503   5.860   6.064 -0.0676  0.2622  0.9325
 3402SOL    HW313381   3.490   5.771   5.942 -0.3277 -0.7062  1.6511
 3402SOL    MW413382   3.458   5.832   5.995  0.1233  0.3261  0.7804
 3403SOL     OW13383   3.530   1.045   5.181  0.6521  0.1782 -0.3272
 3403SOL    HW213384   3.476   1.124   5.190 -0.1449 -0.2141 -1.5125
 3403SOL    HW313385   3.595   1.067   5.114  0.5964 -0.0876 -0.4699
 3403SOL    MW413386   3.532   1.058   5.174  0.5396  0.0913 -0.5024
 3404SOL     OW13387   4.637   0.767   1.470 -0.0262 -0.2382 -0.2036
 3404SOL    HW213388   4.711   0.766   1.409  0.0841  1.0535 -0.1304
 3404SOL    HW313389   4.664   0.829   1.539 -1.4163  0.7638 -0.5143
 3404SOL    MW413390   4.650   0.775   1.471 -0.1951  0.0644 -0.2349
 3405SOL     OW13391   3.339   5.364   1.111  0.3608 -0.5329 -0.0143
 3405SOL    HW213392   3.353   5.411   1.029 -1.3186  1.0688  0.5576
 3405SOL    HW313393   3.245   5.343   1.111  0.4929 -1.2064  1.1521
 3405SOL    MW413394   3.328   5.367   1.100  0.1566 -0.4104  0.2150
 3406SOL     OW13395   1.004   4.549   4.627  0.0232  0.1665 -0.3637
 3406SOL    HW213396   0.979   4.553   4.719 -0.1265  0.5674 -0.4216
 3406SOL    HW313397   0.958   4.622   4.586 -0.8172 -0.6777 -0.9726
 3406SOL    MW413398   0.995   4.559   4.634 -0.1074  0.1080 -0.4517
 3407SOL     OW13399   5.460   3.399   2.799 -0.1055 -0.5046  0.1045
 3407SOL    HW213400   5.537   3.350   2.769  0.4960  0.5018 -0.0471
 3407SOL    HW313401   5.495   3.464   2.860 -0.8884 -0.2629  0.3116
 3407SOL    MW413402   5.475   3.401   2.803 -0.1295 -0.3399  0.1118
 3408SOL     OW13403   5.434   6.176   3.348 -0.3321 -0.1725 -0.3293
 3408SOL    HW213404   5.343   6.198   3.364 -0.1494 -0.4169  1.1661
 3408SOL    HW313405   5.481   6.207   3.425  1.2971  2.3227 -2.1489
 3408SOL    MW413406   5.428   6.183   3.360 -0.0930  0.1245 -0.3721
 3409SOL     OW13407   0.464   6.288   3.988 -0.0345 -0.3513  0.5825
 3409SOL    HW213408   0.488   6.197   3.968 -0.3267 -0.1910 -0.5199
 3409SOL    HW313409   0.393   6.308   3.927  1.5539  1.3781 -0.8083
 3409SOL    MW413410   0.458   6.278   3.978  0.1365 -0.1020  0.2536
 3410SOL     OW13411   4.148   5.142   3.470 -0.4339  0.0197 -0.5052
 3410SOL    HW213412   4.120   5.087   3.543  2.0625 -1.8366 -0.8112
 3410SOL    HW313413   4.175   5.080   3.402  0.5703  1.6682 -1.6848
 3410SOL    MW413414   4.148   5.127   3.470  0.0280 -0.0077 -0.7012
 3411SOL     OW13415   3.318   0.097   5.412 -0.3783 -0.3202 -0.0240
 3411SOL    HW213416   3.342   0.081   5.504  1.9092  3.3671  0.2164
 3411SOL    HW313417   3.233   0.141   5.417 -0.1904  0.0114  0.3904
 3411SOL    MW413418   3.310   0.101   5.425 -0.0517  0.2101  0.0624
 3412SOL     OW13419   5.952   5.629   1.330  0.6937  0.3543 -0.3114
 3412SOL    HW213420   5.979   5.629   1.422 -0.6060  0.5762  0.0944
 3412SOL    HW313421   5.910   5.714   1.317 -1.3241 -0.5826 -0.3935
 3412SOL    MW413422   5.950   5.640   1.341  0.2560  0.2600 -0.2687
 3413SOL     OW13423   3.422   3.425   1.514 -0.3608 -0.1786  0.7835
 3413SOL    HW213424   3.426   3.373   1.594  1.1969 -0.7633  0.3664
 3413SOL    HW313425   3.370   3.373   1.454 -0.0948 -0.5417  0.8653
 3413SOL    MW413426   3.416   3.412   1.517 -0.1202 -0.3036  0.7393
 3414SOL     OW13427   6.138   5.522   4.597  0.2144 -0.3430  0.6539
 3414SOL    HW213428   6.216   5.569   4.626  1.2683 -1.1027 -0.8533
 3414SOL    HW313429   6.171   5.447   4.548 -1.4286  0.0654 -1.2310
 3414SOL    MW413430   6.153   5.518   4.594  0.1367 -0.3894  0.2063
 3415SOL     OW13431   3.143   3.682   4.726  0.0247  0.4021  0.0283
 3415SOL    HW213432   3.081   3.685   4.799  0.7130 -1.0274  0.7105
 3415SOL    HW313433   3.153   3.774   4.700 -0.6739  0.8831  1.3613
 3415SOL    MW413434   3.136   3.695   4.732  0.0234  0.2770  0.2942
 3416SOL     OW13435   4.140   2.650   2.884  0.5061  0.7155 -0.1762
 3416SOL    HW213436   4.054   2.614   2.905  0.3853  0.8830 -0.3836
 3416SOL    HW313437   4.201   2.577   2.899  0.1251  0.0126 -1.8109
 3416SOL    MW413438   4.137   2.635   2.888  0.4399  0.6449 -0.4192
 3417SOL     OW13439   5.683   1.289   4.147 -0.0724  0.0422  0.0869
 3417SOL    HW213440   5.765   1.325   4.113 -0.0318  0.0963  0.2400
 3417SOL    HW313441   5.710   1.209   4.193 -0.2058 -0.3930 -0.5698
 3417SOL    MW413442   5.697   1.283   4.149 -0.0847 -0.0081  0.0204
 3418SOL     OW13443   2.460   5.046   3.383  0.1800 -0.3872 -0.0189
 3418SOL    HW213444   2.496   5.133   3.402 -0.2841 -0.4152  1.0267
 3418SOL    HW313445   2.534   4.998   3.346  0.2868  0.6303 -1.2029
 3418SOL    MW413446   2.475   5.051   3.380  0.1329 -0.2566 -0.0371
 3419SOL     OW13447   2.252   3.708   4.486 -0.2210  0.0730 -0.2876
 3419SOL    HW213448   2.192   3.701   4.412  1.2526  1.0624 -1.6285
 3419SOL    HW313449   2.261   3.618   4.518 -1.9333 -0.1769 -0.4078
 3419SOL    MW413450   2.245   3.695   4.481 -0.2525  0.1706 -0.4803
 3420SOL     OW13451   2.071   5.915   0.816  0.2058  0.1463  0.1176
 3420SOL    HW213452   2.132   5.851   0.853  0.1866 -0.9733 -1.6231
 3420SOL    HW313453   1.984   5.885   0.845  0.3019  0.2416  0.5057
 3420SOL    MW413454   2.067   5.902   0.824  0.2160  0.0112 -0.0608
 3421SOL     OW13455   3.048   4.689   3.574 -0.1691 -0.0741 -0.1069
 3421SOL    HW213456   2.954   4.678   3.561  0.0359 -1.2698 -0.7493
 3421SOL    HW313457   3.058   4.706   3.668 -0.9806 -0.4837  0.0616
 3421SOL    MW413458   3.037   4.690   3.585 -0.2491 -0.2859 -0.1694
 3422SOL     OW13459   0.133   5.791   6.246  0.2160 -0.1932 -0.0515
 3422SOL    HW213460   0.139   5.829   6.333  1.4571 -0.5411  0.0286
 3422SOL    HW313461   0.071   5.718   6.257 -3.0176  2.2467 -0.4288
 3422SOL    MW413462   0.125   5.786   6.259 -0.0469  0.0828 -0.0907
 3423SOL     OW13463   1.910   4.539   4.870 -0.1190 -0.1246  0.4737
 3423SOL    HW213464   1.824   4.553   4.832 -0.0657 -0.0345  0.3844
 3423SOL    HW313465   1.952   4.625   4.868 -0.1939 -0.0751  0.9383
 3423SOL    MW413466   1.904   4.552   4.864 -0.1219 -0.1062  0.5232
 3424SOL     OW13467   3.953   5.782   1.567  0.7194  0.3910  0.0366
 3424SOL    HW213468   3.899   5.861   1.562 -0.1695  0.0041  2.4402
 3424SOL    HW313469   3.917   5.724   1.500  0.7972  1.6311 -1.1311
 3424SOL    MW413470   3.941   5.785   1.557  0.6124  0.5035  0.1997
 3425SOL     OW13471   3.251   2.510   5.851  0.5407  0.1867 -0.4549
 3425SOL    HW213472   3.275   2.553   5.769 -1.2947  1.7851 -0.2329
 3425SOL    HW313473   3.267   2.417   5.835  3.1191  0.7177 -1.5275
 3425SOL    MW413474   3.256   2.503   5.838  0.6387  0.4676 -0.5671
 3426SOL     OW13475   4.084   0.640   3.122  0.3509 -0.0130  0.2891
 3426SOL    HW213476   3.991   0.622   3.109  0.3888  1.1401 -2.1048
 3426SOL    HW313477   4.129   0.565   3.083  0.4546 -0.2100  0.7734
 3426SOL    MW413478   4.078   0.628   3.115  0.3696  0.1131  0.0372
 3427SOL     OW13479   1.647   3.046   1.375 -0.2688 -0.5053  0.5525
 3427SOL    HW213480   1.643   2.975   1.440  0.6586  0.1271  1.3136
 3427SOL    HW313481   1.568   3.033   1.322 -0.6904 -1.4469  1.3660
 3427SOL    MW413482   1.636   3.035   1.376 -0.2021 -0.5461  0.7602
 3428SOL     OW13483   4.053   1.109   3.891  0.1001 -0.2458  0.0315
 3428SOL    HW213484   4.041   1.037   3.829  0.7126  1.9059 -2.7747
 3428SOL    HW313485   4.148   1.122   3.893  0.0994 -0.3104  1.5549
 3428SOL    MW413486   4.064   1.101   3.883  0.1809  0.0295 -0.1377
 3429SOL     OW13487   4.021   1.120   0.186 -0.2795  0.3671 -0.5623
 3429SOL    HW213488   3.975   1.202   0.167  0.6626  0.5820 -2.1322
 3429SOL    HW313489   4.043   1.085   0.099  0.5298 -0.8556  0.1117
 3429SOL    MW413490   4.017   1.127   0.172 -0.0484  0.2341 -0.6805
 3430SOL     OW13491   5.329   1.859   4.398 -0.3474 -0.1374 -0.7508
 3430SOL    HW213492   5.372   1.944   4.401 -0.5724 -0.0044  2.6814
 3430SOL    HW313493   5.390   1.800   4.443 -1.1625 -1.2858 -1.1149
 3430SOL    MW413494   5.343   1.862   4.404 -0.4846 -0.2714 -0.3460
 3431SOL     OW13495   0.501   4.124   5.963  0.5506  0.4334  0.7538
 3431SOL    HW213496   0.561   4.100   5.892  0.9119  1.3042  0.7454
 3431SOL    HW313497   0.418   4.083   5.939  0.8764  0.0611  0.2379
 3431SOL    MW413498   0.498   4.116   5.950  0.6413  0.4991  0.6846
 3432SOL     OW13499   6.286   3.286   3.565  0.4303  0.0481 -0.2533
 3432SOL    HW213500   6.377   3.256   3.571  0.5887  0.5290 -0.1486
 3432SOL    HW313501   6.289   3.356   3.499  0.3516  0.8405  0.5584
 3432SOL    MW413502   6.298   3.291   3.557  0.4408  0.2161 -0.1324
 3433SOL     OW13503   2.981   4.332   5.125  0.0833  0.5773 -0.5133
 3433SOL    HW213504   2.950   4.287   5.204 -0.4860 -3.2170 -2.6785
 3433SOL    HW313505   3.062   4.288   5.102  0.9839  2.5643 -1.3539
 3433SOL    MW413506   2.987   4.320   5.133  0.1270  0.3388 -0.9099
 3434SOL     OW13507   4.933   0.706   3.702  0.5446  0.1568  0.3523
 3434SOL    HW213508   4.912   0.768   3.773  0.4397  0.0435  0.4203
 3434SOL    HW313509   4.915   0.620   3.740  2.2151 -0.0308  0.8081
 3434SOL    MW413510   4.928   0.703   3.717  0.7511  0.1171  0.4214
 3435SOL     OW13511   0.333   5.882   2.788  0.4054 -0.4500 -0.1814
 3435SOL    HW213512   0.338   5.914   2.878 -0.0716 -1.6328  0.2833
 3435SOL    HW313513   0.305   5.791   2.796  1.1321 -0.8175 -1.4955
 3435SOL    MW413514   0.330   5.874   2.801  0.4384 -0.6545 -0.2935
 3436SOL     OW13515   4.891   5.768   2.984  0.2753  0.0931 -0.6908
 3436SOL    HW213516   4.856   5.836   3.042 -0.9170 -0.6159 -0.5500
 3436SOL    HW313517   4.867   5.797   2.896 -1.2746 -0.6947 -0.5566
 3436SOL    MW413518   4.883   5.781   2.980 -0.0865 -0.1044 -0.6545
 3437SOL     OW13519   0.832   6.401   2.172  0.4513  0.6531  0.1447
 3437SOL    HW213520   0.888   6.340   2.126 -1.2116 -1.6222  0.9505
 3437SOL    HW313521   0.885   6.434   2.244  1.8562  1.3611 -1.1765
 3437SOL    MW413522   0.846   6.397   2.176  0.4173  0.4463  0.0767
 3438SOL     OW13523   1.141   6.214   1.811  0.2156 -0.1140 -0.3634
 3438SOL    HW213524   1.206   6.151   1.780 -0.8536 -0.7674 -1.3459
 3438SOL    HW313525   1.148   6.288   1.750 -0.2808 -0.3947 -0.7691
 3438SOL    MW413526   1.151   6.216   1.799  0.0090 -0.2372 -0.5466
 3439SOL     OW13527   0.036   4.329   1.488  0.7465 -0.0378  0.4059
 3439SOL    HW213528  -0.004   4.280   1.560  1.6280  0.8433  1.5340
 3439SOL    HW313529   0.130   4.326   1.507  0.9734  0.3956 -0.5921
 3439SOL    MW413530   0.043   4.322   1.500  0.8927  0.1357  0.4231
 3440SOL     OW13531   2.758   1.787   2.478 -0.2204 -0.2234  0.4854
 3440SOL    HW213532   2.743   1.742   2.561 -0.0692 -1.5558 -0.1829
 3440SOL    HW313533   2.853   1.795   2.472 -0.2250 -0.2370  0.3910
 3440SOL    MW413534   2.769   1.782   2.488 -0.2011 -0.4010  0.3848
 3441SOL     OW13535   1.529   0.631   0.297 -0.5432  0.2829 -0.2329
 3441SOL    HW213536   1.547   0.545   0.334 -1.7520 -0.0149 -0.3091
 3441SOL    HW313537   1.571   0.630   0.211  0.4776  0.2182  0.2575
 3441SOL    MW413538   1.537   0.620   0.291 -0.5680  0.2351 -0.1783
 3442SOL     OW13539   6.067   2.154   5.631  0.6322  0.3593  0.4516
 3442SOL    HW213540   6.018   2.235   5.613  1.8870  0.7359 -1.6633
 3442SOL    HW313541   6.106   2.132   5.547  3.0972 -0.5826  1.7617
 3442SOL    MW413542   6.066   2.162   5.617  1.1230  0.2847  0.3454
 3443SOL     OW13543   5.369   3.042   4.432 -0.2396 -0.1117 -0.0574
 3443SOL    HW213544   5.426   2.970   4.460 -0.2154  0.6583  2.0811
 3443SOL    HW313545   5.293   2.998   4.394  1.0659 -1.1728 -1.5852
 3443SOL    MW413546   5.367   3.027   4.431 -0.0641 -0.1501  0.0231
 3444SOL     OW13547   4.025   0.346   2.518 -0.3149  0.2232 -0.1081
 3444SOL    HW213548   4.006   0.270   2.573 -0.5225  0.9707  0.8963
 3444SOL    HW313549   3.981   0.419   2.563  1.3148  1.2420 -0.0822
 3444SOL    MW413550   4.016   0.345   2.531 -0.1273  0.4562  0.0278
 3445SOL     OW13551   4.738   1.471   1.682 -0.5648 -0.5221 -0.0604
 3445SOL    HW213552   4.763   1.561   1.657  0.2741 -1.1804 -1.7704
 3445SOL    HW313553   4.778   1.416   1.615 -0.6159 -2.2442  1.2490
 3445SOL    MW413554   4.747   1.476   1.670 -0.4609 -0.8362 -0.1133
 3446SOL     OW13555   2.248   4.958   2.870 -0.2548  0.0862 -0.0767
 3446SOL    HW213556   2.224   4.944   2.961  1.0506  0.0660  0.2969
 3446SOL    HW313557   2.338   4.924   2.864 -0.7097 -0.9440 -1.6466
 3446SOL    MW413558   2.257   4.951   2.881 -0.1426 -0.0524 -0.2345
 3447SOL     OW13559   5.605   3.814   3.548  0.0367  0.2132  0.9283
 3447SOL    HW213560   5.577   3.790   3.460 -0.4553  1.9527  0.5943
 3447SOL    HW313561   5.626   3.730   3.590  0.3086 -0.6383 -0.8366
 3447SOL    MW413562   5.604   3.799   3.542  0.0077  0.3303  0.6514
 3448SOL     OW13563   0.657   3.537   5.329 -0.3957  0.0084  0.1107
 3448SOL    HW213564   0.648   3.625   5.293 -0.4501 -0.7193 -1.7439
 3448SOL    HW313565   0.751   3.526   5.344 -0.3152  0.1619 -0.2680
 3448SOL    MW413566   0.668   3.547   5.326 -0.3923 -0.0673 -0.1840
 3449SOL     OW13567   0.617   5.578   4.269 -0.4103 -0.2936  0.2389
 3449SOL    HW213568   0.659   5.546   4.348  0.8327  0.1685 -0.2062
 3449SOL    HW313569   0.570   5.503   4.234 -1.0589 -0.4708  1.4590
 3449SOL    MW413570   0.617   5.564   4.275 -0.3319 -0.2560  0.3412
 3450SOL     OW13571   0.239   5.269   5.996 -0.3485 -0.5068  0.2907
 3450SOL    HW213572   0.192   5.352   5.988  0.1185 -0.2550  0.1223
 3450SOL    HW313573   0.255   5.261   6.090 -1.1440 -0.8317  0.4034
 3450SOL    MW413574   0.235   5.279   6.008 -0.3918 -0.5164  0.2833
 3451SOL     OW13575   2.831   4.545   2.136 -0.2699  0.1571 -0.5973
 3451SOL    HW213576   2.777   4.619   2.105  0.8749  0.3540 -2.2276
 3451SOL    HW313577   2.770   4.492   2.188 -1.3754  1.7026 -0.2098
 3451SOL    MW413578   2.816   4.548   2.139 -0.2647  0.3870 -0.7613
 3452SOL     OW13579   3.430   3.329   0.822 -0.1078  0.0818 -0.0754
 3452SOL    HW213580   3.423   3.419   0.790  2.6472 -0.4320 -2.6221
 3452SOL    HW313581   3.346   3.289   0.798 -0.5227  1.4066 -0.9820
 3452SOL    MW413582   3.418   3.336   0.815  0.2010  0.1888 -0.5310
 3453SOL     OW13583   2.864   4.970   2.897  0.6118  0.2240 -0.0795
 3453SOL    HW213584   2.853   4.908   2.968 -2.5460 -0.0077 -0.6284
 3453SOL    HW313585   2.926   5.035   2.930 -2.9210  1.8997  4.2551
 3453SOL    MW413586   2.871   4.971   2.910 -0.2709  0.4146  0.4200
 3454SOL     OW13587   5.432   1.056   1.823 -0.2658  0.4553 -0.1132
 3454SOL    HW213588   5.459   1.142   1.790  1.5201 -0.1233 -0.2671
 3454SOL    HW313589   5.452   1.058   1.916  1.3806 -0.3163 -0.4023
 3454SOL    MW413590   5.438   1.067   1.831  0.1870  0.2771 -0.1716
 3455SOL     OW13591   4.839   5.716   1.183 -0.4056  0.3647  0.5607
 3455SOL    HW213592   4.752   5.701   1.219 -0.9983 -0.8373 -1.2556
 3455SOL    HW313593   4.887   5.635   1.202 -0.2636  0.3070 -0.0261
 3455SOL    MW413594   4.834   5.703   1.190 -0.4651  0.1985  0.2436
 3456SOL     OW13595   5.483   2.027   0.309 -0.0606  0.2504 -0.3070
 3456SOL    HW213596   5.565   2.042   0.262 -1.7988  1.7290 -3.2145
 3456SOL    HW313597   5.460   2.112   0.346 -0.9351  0.2527 -0.8069
 3456SOL    MW413598   5.491   2.040   0.307 -0.4053  0.4458 -0.7566
 3457SOL     OW13599   5.717   3.380   0.893 -0.4673 -0.3504  0.1313
 3457SOL    HW213600   5.765   3.369   0.811 -0.2992  1.4084 -0.0521
 3457SOL    HW313601   5.675   3.296   0.908 -0.4574 -0.7240 -1.7310
 3457SOL    MW413602   5.718   3.367   0.884 -0.4438 -0.1676 -0.1386
 3458SOL     OW13603   1.644   3.123   5.946 -0.0198  0.6999  0.0161
 3458SOL    HW213604   1.698   3.085   6.015 -0.4193 -1.0615 -0.5862
 3458SOL    HW313605   1.558   3.137   5.987 -0.5809 -1.3608 -0.3419
 3458SOL    MW413606   1.639   3.120   5.960 -0.1465  0.1956 -0.1106
 3459SOL     OW13607   5.264   4.293   4.193  0.0738 -0.2467  0.0217
 3459SOL    HW213608   5.179   4.295   4.236  0.6027  0.7290  1.0911
 3459SOL    HW313609   5.259   4.220   4.132 -1.7210  0.1463 -0.3497
 3459SOL    MW413610   5.252   4.284   4.191 -0.0932 -0.0661  0.1138
 3460SOL     OW13611   5.277   3.827   3.684  0.0233  0.1386  0.5872
 3460SOL    HW213612   5.279   3.771   3.762 -0.6837  0.1335  0.6085
 3460SOL    HW313613   5.184   3.833   3.661  0.2485 -0.1069 -0.4426
 3460SOL    MW413614   5.265   3.821   3.691 -0.0403  0.1055  0.4541
 3461SOL     OW13615   3.457   0.895   2.271 -0.3375  0.2257  0.4667
 3461SOL    HW213616   3.474   0.989   2.262 -1.5607  0.7512  2.8511
 3461SOL    HW313617   3.513   0.867   2.343 -0.1823 -0.8329 -0.0527
 3461SOL    MW413618   3.467   0.904   2.279 -0.4784  0.1554  0.7127
 3462SOL     OW13619   4.044   5.849   4.699  0.3203  0.8129 -0.3229
 3462SOL    HW213620   4.129   5.811   4.674 -0.4979 -0.3683 -1.4857
 3462SOL    HW313621   3.983   5.775   4.694 -0.5001  1.2436  2.2207
 3462SOL    MW413622   4.047   5.834   4.695  0.1041  0.7139 -0.1407
 3463SOL     OW13623   2.787   6.145   5.422 -0.5140  0.0021  0.2908
 3463SOL    HW213624   2.850   6.192   5.366 -1.5477 -0.5536 -1.4291
 3463SOL    HW313625   2.809   6.053   5.411  0.7355 -0.0673  2.7114
 3463SOL    MW413626   2.798   6.139   5.413 -0.4856 -0.0804  0.3832
 3464SOL     OW13627   0.835   4.988   2.999 -0.0427  0.5314 -0.4779
 3464SOL    HW213628   0.918   4.989   3.047 -0.9054  2.2817  1.0979
 3464SOL    HW313629   0.805   5.079   3.002 -1.7291  0.0428 -1.5426
 3464SOL    MW413630   0.842   5.000   3.006 -0.3790  0.6979 -0.4105
 3465SOL     OW13631   3.998   4.191   4.892  0.0104  0.4556 -0.1052
 3465SOL    HW213632   3.931   4.244   4.848  0.0754 -0.8597 -1.9128
 3465SOL    HW313633   3.969   4.101   4.879  0.5774 -0.0259  1.7552
 3465SOL    MW413634   3.986   4.186   4.884  0.0938  0.2185 -0.0982
 3466SOL     OW13635   3.379   5.688   4.521 -0.0791 -0.3810 -0.3859
 3466SOL    HW213636   3.321   5.750   4.564  1.3138  0.7794 -0.1127
 3466SOL    HW313637   3.399   5.623   4.587  0.2041  0.1118  0.0193
 3466SOL    MW413638   3.374   5.688   4.535  0.1421 -0.1629 -0.2964
 3467SOL     OW13639   5.803   3.203   2.261 -0.2613 -0.1002 -0.1465
 3467SOL    HW213640   5.730   3.185   2.201 -0.4354  0.5928 -0.1534
 3467SOL    HW313641   5.864   3.256   2.209  1.3194 -2.4530 -0.8537
 3467SOL    MW413642   5.801   3.208   2.246 -0.0757 -0.3192 -0.2407
 3468SOL     OW13643   1.277   5.732   6.271  0.2977  0.2450  0.2135
 3468SOL    HW213644   1.187   5.705   6.291  0.0981 -0.3276 -1.3155
 3468SOL    HW313645   1.292   5.808   6.327 -0.8499 -0.1413  1.0859
 3468SOL    MW413646   1.267   5.739   6.281  0.1200  0.1185  0.1268
 3469SOL     OW13647   1.384   2.715   5.661  0.6033  0.1949  0.4589
 3469SOL    HW213648   1.472   2.704   5.695  0.9028 -2.3184 -0.8458
 3469SOL    HW313649   1.396   2.745   5.571  0.1234  0.2543  0.4110
 3469SOL    MW413650   1.397   2.717   5.653  0.5795 -0.1288  0.2804
 3470SOL     OW13651   1.766   1.128   5.373  0.2159  0.2300 -0.3171
 3470SOL    HW213652   1.842   1.186   5.387 -0.3529  0.9969 -0.3444
 3470SOL    HW313653   1.795   1.068   5.304  2.2593 -2.1691  2.4294
 3470SOL    MW413654   1.780   1.128   5.365  0.4104  0.0147  0.0417
 3471SOL     OW13655   1.314   6.386   1.510 -0.5054 -0.5399  0.0445
 3471SOL    HW213656   1.400   6.353   1.536  0.0047 -1.5737 -2.6419
 3471SOL    HW313657   1.333   6.464   1.458 -1.1491 -0.9840 -0.8732
 3471SOL    MW413658   1.328   6.392   1.507 -0.5230 -0.7349 -0.4310
 3472SOL     OW13659   5.685   0.184   4.723  0.4443 -0.1632 -0.3385
 3472SOL    HW213660   5.749   0.124   4.760  0.8427  0.6429  0.3006
 3472SOL    HW313661   5.690   0.262   4.777  0.3483  0.6803 -1.5046
 3472SOL    MW413662   5.694   0.186   4.735  0.4842  0.0544 -0.4080
 3473SOL     OW13663   4.773   6.091   2.470  0.1262  0.3880 -0.1427
 3473SOL    HW213664   4.807   6.176   2.441  0.2248  0.3723 -0.0731
 3473SOL    HW313665   4.690   6.081   2.423 -0.2100  0.8214  0.3457
 3473SOL    MW413666   4.767   6.101   2.460  0.0949  0.4431 -0.0691
 3474SOL     OW13667   4.436   2.513   3.973 -0.3745 -0.2674 -0.0013
 3474SOL    HW213668   4.528   2.538   3.980 -0.4841  0.1321  0.0528
 3474SOL    HW313669   4.394   2.558   4.047 -0.3750 -1.5872  0.8387
 3474SOL    MW413670   4.442   2.522   3.984 -0.3891 -0.3888  0.1167
 3475SOL     OW13671   3.393   3.451   1.889 -0.2744  0.6192  0.1591
 3475SOL    HW213672   3.299   3.440   1.899 -0.1021 -0.4500  0.7376
 3475SOL    HW313673   3.407   3.546   1.891 -1.4696  0.8637 -1.3288
 3475SOL    MW413674   3.383   3.462   1.890 -0.4094  0.5104  0.0391
 3476SOL     OW13675   4.655   0.759   5.697 -0.1883  0.1962 -0.5300
 3476SOL    HW213676   4.734   0.810   5.677  0.5381 -0.4486  0.5788
 3476SOL    HW313677   4.637   0.711   5.617  0.8029  0.0297 -0.6639
 3476SOL    MW413678   4.663   0.760   5.684  0.0383  0.0891 -0.4014
 3477SOL     OW13679   2.465   6.085   0.483 -0.4468 -0.2885 -0.1437
 3477SOL    HW213680   2.393   6.108   0.542  0.6357  1.2328  0.6521
 3477SOL    HW313681   2.545   6.102   0.534  0.5049 -0.9151 -1.3603
 3477SOL    MW413682   2.466   6.090   0.498 -0.1784 -0.1704 -0.1992
 3478SOL     OW13683   2.910   0.996   5.380 -0.6921  0.3446  0.4467
 3478SOL    HW213684   2.825   0.956   5.362 -0.2671 -0.6365  0.5596
 3478SOL    HW313685   2.893   1.058   5.451 -1.5540  1.1268 -0.4031
 3478SOL    MW413686   2.897   0.999   5.387 -0.7498  0.3184  0.3495
 3479SOL     OW13687   1.249   3.589   2.898  0.1924  0.6028  0.3706
 3479SOL    HW213688   1.262   3.648   2.972  0.1448 -0.0526  0.9032
 3479SOL    HW313689   1.195   3.518   2.932 -2.3760  1.7241 -1.0137
 3479SOL    MW413690   1.243   3.588   2.912 -0.1528  0.6643  0.2582
 3480SOL     OW13691   3.619   6.072   5.928  0.1091  0.4310 -0.3985
 3480SOL    HW213692   3.573   5.989   5.939  0.4189  0.2135 -0.7395
 3480SOL    HW313693   3.688   6.069   5.995  0.2315  0.3350 -0.5284
 3480SOL    MW413694   3.622   6.061   5.939  0.1661  0.3897 -0.4606
 3481SOL     OW13695   4.464   3.240   4.438  0.3738 -0.9581 -0.2669
 3481SOL    HW213696   4.381   3.253   4.483 -1.0656 -2.2519 -2.3473
 3481SOL    HW313697   4.455   3.154   4.395  2.8840 -1.2480 -0.3729
 3481SOL    MW413698   4.452   3.230   4.438  0.5151 -1.1671 -0.5554
 3482SOL     OW13699   1.235   0.609   0.317  0.3070  0.0943  0.2946
 3482SOL    HW213700   1.211   0.566   0.235 -0.3942  1.9049 -0.5100
 3482SOL    HW313701   1.331   0.607   0.318  0.3496  0.5785 -0.9034
 3482SOL    MW413702   1.245   0.603   0.306  0.2201  0.3970  0.0304
 3483SOL     OW13703   2.162   4.820   0.984  0.1704  0.1170  0.0859
 3483SOL    HW213704   2.069   4.836   0.973  0.1861  0.4498  0.3917
 3483SOL    HW313705   2.170   4.725   0.987 -0.1707  0.0895  0.1617
 3483SOL    MW413706   2.151   4.810   0.983  0.1275  0.1573  0.1363
 3484SOL     OW13707   4.655   3.331   0.428 -0.9880 -0.1552 -0.2904
 3484SOL    HW213708   4.584   3.389   0.454 -1.3624  0.1677 -1.9165
 3484SOL    HW313709   4.735   3.376   0.458 -1.3961 -0.1623  0.8750
 3484SOL    MW413710   4.656   3.345   0.436 -1.0913 -0.1135 -0.3512
 3485SOL     OW13711   0.672   0.689  -0.000 -0.9231  0.4663 -0.0333
 3485SOL    HW213712   0.715   0.760  -0.048 -0.2499  0.5214  0.6143
 3485SOL    HW313713   0.580   0.714   0.005 -1.2021  0.0103 -2.0662
 3485SOL    MW413714   0.666   0.701  -0.006 -0.8711  0.4134 -0.2161
 3486SOL     OW13715   1.369   0.117   5.157 -0.0094  0.1164 -0.0229
 3486SOL    HW213716   1.276   0.133   5.176 -0.1038 -0.8030  0.3233
 3486SOL    HW313717   1.368   0.046   5.093  0.4442  0.5002 -0.4601
 3486SOL    MW413718   1.356   0.110   5.151  0.0380  0.0458 -0.0349
 3487SOL     OW13719   1.111   4.338   4.923 -0.4588 -0.0299  0.2413
 3487SOL    HW213720   1.108   4.434   4.926 -0.2737 -0.0008 -0.4769
 3487SOL    HW313721   1.059   4.315   4.846 -1.0046 -0.5371  0.7527
 3487SOL    MW413722   1.104   4.348   4.913 -0.5064 -0.0930  0.2140
 3488SOL     OW13723   0.788   1.954   4.360 -0.4535  0.2234  0.2860
 3488SOL    HW213724   0.779   1.913   4.274 -0.7007  3.0322 -1.1522
 3488SOL    HW313725   0.874   1.926   4.392 -0.6133 -1.3260 -0.5886
 3488SOL    MW413726   0.798   1.945   4.353 -0.5072  0.3896 -0.0192
 3489SOL     OW13727   3.315   4.194   2.119  0.2153  0.7875 -0.6260
 3489SOL    HW213728   3.260   4.126   2.080 -0.3119  0.7240  0.2101
 3489SOL    HW313729   3.376   4.218   2.049  1.4350 -1.6247 -0.5022
 3489SOL    MW413730   3.316   4.188   2.104  0.3067  0.4608 -0.4994
 3490SOL     OW13731   5.258   4.594   0.376  0.0104 -0.3739  0.0107
 3490SOL    HW213732   5.176   4.619   0.334 -0.7009  2.6461  2.7726
 3490SOL    HW313733   5.234   4.524   0.436 -0.3042 -0.3245 -0.0580
 3490SOL    MW413734   5.244   4.588   0.378 -0.1249  0.0311  0.3661
 3491SOL     OW13735   1.768   5.837   3.839 -0.6925  0.0248 -0.1319
 3491SOL    HW213736   1.798   5.748   3.823  2.1798  0.7883  0.5666
 3491SOL    HW313737   1.785   5.852   3.932  0.0788  1.7064 -0.5152
 3491SOL    MW413738   1.774   5.827   3.849 -0.2118  0.3474 -0.0903
 3492SOL     OW13739   1.351   4.109   4.777  0.7482 -0.2871 -0.4452
 3492SOL    HW213740   1.329   4.166   4.704  1.4591 -0.1007 -0.5200
 3492SOL    HW313741   1.361   4.168   4.852  2.8420 -0.0985 -0.8014
 3492SOL    MW413742   1.349   4.124   4.777  1.1183 -0.2376 -0.5021
 3493SOL     OW13743   6.398   0.838   6.146  0.8604  0.1194 -0.5972
 3493SOL    HW213744   6.340   0.793   6.084 -0.8061  3.5961 -1.8228
 3493SOL    HW313745   6.485   0.833   6.106  0.8172 -2.0200 -0.5625
 3493SOL    MW413746   6.402   0.831   6.133  0.6348  0.2958 -0.7543
 3494SOL     OW13747   0.213   0.810   5.998  0.0502  0.1415 -0.2153
 3494SOL    HW213748   0.245   0.764   6.076 -1.0184  1.7121  1.1999
 3494SOL    HW313749   0.194   0.739   5.935  2.3642 -1.0663  0.3340
 3494SOL    MW413750   0.215   0.794   6.000  0.2145  0.1893  0.0439
 3495SOL     OW13751   0.998   4.617   3.203  0.0078 -0.4486 -0.4284
 3495SOL    HW213752   1.048   4.575   3.272 -1.0442 -0.1549  0.5415
 3495SOL    HW313753   0.916   4.645   3.245  0.3551  1.9365 -1.1725
 3495SOL    MW413754   0.993   4.616   3.217 -0.0852 -0.0952 -0.3986
 3496SOL     OW13755   6.255   1.637   3.971  0.1991  0.0981 -0.5363
 3496SOL    HW213756   6.316   1.672   3.905 -0.2785 -0.3208 -1.2191
 3496SOL    HW313757   6.312   1.609   4.043  0.6251  1.7310 -0.2106
 3496SOL    MW413758   6.271   1.638   3.972  0.1923  0.2583 -0.5834
 3497SOL     OW13759   5.181   2.199   6.010  0.2565  0.3898 -0.0596
 3497SOL    HW213760   5.110   2.144   6.043 -1.6790  1.8795 -1.4414
 3497SOL    HW313761   5.211   2.154   5.931  0.6731 -0.1002  0.3715
 3497SOL    MW413762   5.176   2.186   6.004  0.0561  0.5217 -0.1850
 3498SOL     OW13763   1.810   5.870   2.750 -0.1978 -0.2384  0.1411
 3498SOL    HW213764   1.785   5.844   2.839 -2.3405 -0.6241 -0.5041
 3498SOL    HW313765   1.896   5.910   2.760 -0.4356 -0.1405  2.4045
 3498SOL    MW413766   1.818   5.872   2.763 -0.5118 -0.2764  0.3546
 3499SOL     OW13767   4.378   4.670   4.367 -0.1424  0.1633  0.2163
 3499SOL    HW213768   4.306   4.666   4.303  0.6752  1.3785 -0.8245
 3499SOL    HW313769   4.428   4.590   4.352 -1.6999 -1.1362  1.5363
 3499SOL    MW413770   4.375   4.659   4.356 -0.2400  0.1521  0.2532
 3500SOL     OW13771   5.156   3.868   6.262 -0.1111  0.2189 -0.5816
 3500SOL    HW213772   5.077   3.835   6.217  0.9441  0.6952 -2.9469
 3500SOL    HW313773   5.152   3.963   6.250  1.0578  0.2095 -1.2293
 3500SOL    MW413774   5.145   3.876   6.254  0.1823  0.2805 -0.9792
 3501SOL     OW13775   5.369   5.320   2.558 -0.3910  0.2028 -0.3389
 3501SOL    HW213776   5.277   5.333   2.533 -1.0970 -2.9739  0.1341
 3501SOL    HW313777   5.412   5.402   2.536 -2.3516  0.2660 -5.2016
 3501SOL    MW413778   5.363   5.332   2.552 -0.7428 -0.2080 -0.9181
 3502SOL     OW13779   3.002   1.587   6.175 -0.1266  0.0576  0.3634
 3502SOL    HW213780   2.970   1.570   6.263 -0.6357 -1.8837 -0.1445
 3502SOL    HW313781   2.946   1.657   6.142 -0.2712  0.4304  1.3930
 3502SOL    MW413782   2.990   1.594   6.182 -0.2128 -0.1494  0.4323
 3503SOL     OW13783   4.221   0.644   6.299  0.0226 -0.1388  0.2090
 3503SOL    HW213784   4.264   0.724   6.330 -1.3523  0.8195 -0.2794
 3503SOL    HW313785   4.268   0.621   6.219  0.3650  0.2373  0.3001
 3503SOL    MW413786   4.233   0.651   6.292 -0.1136  0.0372  0.1566
 3504SOL     OW13787   4.828   5.343   4.952 -0.1271  0.2285  0.8471
 3504SOL    HW213788   4.775   5.263   4.954 -0.1958  0.2555  0.3638
 3504SOL    HW313789   4.904   5.324   5.006  0.2767 -0.4741  0.0614
 3504SOL    MW413790   4.831   5.330   4.959 -0.0829  0.1394  0.6797
 3505SOL     OW13791   5.693   1.531   2.797 -0.3307  0.3402 -0.8132
 3505SOL    HW213792   5.709   1.541   2.703  0.7560  1.0477 -0.5744
 3505SOL    HW313793   5.609   1.574   2.812  0.0714  1.3333 -1.2786
 3505SOL    MW413794   5.684   1.538   2.786 -0.1343  0.5645 -0.8431
 3506SOL     OW13795   4.225   2.610   0.371  0.4323  0.2428 -0.2380
 3506SOL    HW213796   4.296   2.671   0.349  1.3571 -0.5155  0.5174
 3506SOL    HW313797   4.210   2.561   0.291  1.1747  0.0351 -0.2636
 3506SOL    MW413798   4.233   2.611   0.358  0.6523  0.1153 -0.1417
 3507SOL     OW13799   0.574   3.468   0.479  0.0802 -0.4367  0.3473
 3507SOL    HW213800   0.523   3.492   0.556  0.5037 -0.9469  0.7965
 3507SOL    HW313801   0.508   3.454   0.411 -0.1953  1.5648  0.1607
 3507SOL    MW413802   0.558   3.469   0.480  0.0997 -0.2399  0.3820
 3508SOL     OW13803   2.707   1.655   6.187  0.2058 -0.0620 -0.0232
 3508SOL    HW213804   2.682   1.572   6.229  1.2348 -0.3510  0.0582
 3508SOL    HW313805   2.697   1.638   6.093 -1.7600  0.4707  0.0609
 3508SOL    MW413806   2.702   1.642   6.180  0.0822 -0.0298 -0.0013
 3509SOL     OW13807   4.170   4.979   4.146  0.1004 -0.0625 -0.4847
 3509SOL    HW213808   4.098   5.023   4.190 -1.4991 -2.6531 -0.2853
 3509SOL    HW313809   4.237   4.967   4.214 -0.7572 -0.6557  0.2776
 3509SOL    MW413810   4.169   4.983   4.161 -0.2238 -0.4826 -0.3578
 3510SOL     OW13811   0.983   2.248   1.766 -0.4210 -0.0684  0.1465
 3510SOL    HW213812   1.010   2.211   1.682  0.7185  2.6581 -0.7954
 3510SOL    HW313813   1.038   2.205   1.831  0.3833 -0.5015 -0.8068
 3510SOL    MW413814   0.994   2.238   1.764 -0.1645  0.2342 -0.1036
 3511SOL     OW13815   3.603   0.096   3.896  0.2033  0.2944  0.3700
 3511SOL    HW213816   3.642   0.176   3.862  0.8158 -0.8294 -1.7059
 3511SOL    HW313817   3.609   0.033   3.824 -1.2109 -1.3228  1.5708
 3511SOL    MW413818   3.609   0.099   3.882  0.0975 -0.0672  0.2545
 3512SOL     OW13819   2.922   5.264   5.118  0.2524  0.1211  0.4771
 3512SOL    HW213820   2.916   5.175   5.083 -1.1055  0.0819  0.7840
 3512SOL    HW313821   2.906   5.320   5.042  0.0874  0.0926  0.4919
 3512SOL    MW413822   2.919   5.259   5.103  0.0514  0.1122  0.5196
 3513SOL     OW13823   4.397   0.487   1.943  0.1719 -0.7238 -0.0637
 3513SOL    HW213824   4.381   0.435   1.864  1.0521 -1.0374 -0.0463
 3513SOL    HW313825   4.492   0.488   1.952  0.2250  1.3149 -0.3537
 3513SOL    MW413826   4.408   0.480   1.934  0.2950 -0.4962 -0.0997
 3514SOL     OW13827   0.311   3.931   4.431 -0.1910  0.9101 -0.0131
 3514SOL    HW213828   0.384   3.897   4.482  0.2975  0.9868 -0.6501
 3514SOL    HW313829   0.265   3.989   4.491 -0.4203 -0.0357  0.7599
 3514SOL    MW413830   0.315   3.934   4.446 -0.1568  0.7954  0.0049
 3515SOL     OW13831   2.119   6.343   0.494 -0.7906  0.3812 -0.2520
 3515SOL    HW213832   2.201   6.306   0.528 -0.2084  1.9886  0.1683
 3515SOL    HW313833   2.093   6.282   0.425  1.0925  0.1351 -0.8180
 3515SOL    MW413834   2.127   6.330   0.489 -0.4653  0.5608 -0.2713
 3516SOL     OW13835   3.955   2.634   5.855  0.2325  0.2688  0.1083
 3516SOL    HW213836   3.945   2.599   5.944 -2.2194  2.0809  0.6531
 3516SOL    HW313837   4.046   2.666   5.853  0.5732 -0.4747  1.7009
 3516SOL    MW413838   3.966   2.634   5.867 -0.0461  0.4098  0.3903
 3517SOL     OW13839   0.444   4.960   4.395 -0.1851 -0.2304  0.1535
 3517SOL    HW213840   0.476   4.973   4.484  1.1419  1.9081 -0.5703
 3517SOL    HW313841   0.350   4.978   4.401 -0.2112 -0.6170  1.1843
 3517SOL    MW413842   0.436   4.964   4.408 -0.0135  0.0008  0.1940
 3518SOL     OW13843   5.635   5.801   2.966 -0.1290 -0.1387 -0.0510
 3518SOL    HW213844   5.541   5.810   2.950 -0.6494 -1.8606  1.5817
 3518SOL    HW313845   5.676   5.865   2.908 -2.4339  2.7240  1.1915
 3518SOL    MW413846   5.628   5.811   2.956 -0.5018  0.0118  0.3283
 3519SOL     OW13847   4.952   2.572   3.218 -0.1380 -0.0707 -0.1206
 3519SOL    HW213848   5.040   2.537   3.207  0.5868  1.2954  1.1277
 3519SOL    HW313849   4.958   2.663   3.189 -0.1467  1.1779  3.3498
 3519SOL    MW413850   4.964   2.579   3.213 -0.0435  0.2743  0.5020
 3520SOL     OW13851   1.944   3.329   3.674 -0.7352 -0.9223  0.2912
 3520SOL    HW213852   2.019   3.362   3.723 -1.6526  0.2118  0.9582
 3520SOL    HW313853   1.903   3.265   3.733  0.0607 -2.0371 -0.3315
 3520SOL    MW413854   1.948   3.325   3.689 -0.7513 -0.9198  0.2970
 3521SOL     OW13855   0.919   5.017   0.879 -0.1083 -0.2514 -0.3085
 3521SOL    HW213856   0.938   4.924   0.897 -0.9789 -0.8896 -2.3654
 3521SOL    HW313857   1.005   5.057   0.866  0.2436 -0.9034 -0.0498
 3521SOL    MW413858   0.933   5.010   0.880 -0.1767 -0.4216 -0.5457
 3522SOL     OW13859   1.950   4.235   5.955 -0.4679  0.1656 -0.2263
 3522SOL    HW213860   1.867   4.200   5.924 -0.8454 -1.3589  2.2159
 3522SOL    HW313861   1.991   4.161   6.001  1.5666  1.2995 -0.1126
 3522SOL    MW413862   1.945   4.221   5.957 -0.2493  0.1141  0.1110
 3523SOL     OW13863   1.666   0.715   0.734 -0.2863  0.5030 -0.0150
 3523SOL    HW213864   1.705   0.676   0.812  0.6684  0.8011 -0.3335
 3523SOL    HW313865   1.581   0.671   0.725  0.9367 -1.9091 -0.6475
 3523SOL    MW413866   1.660   0.704   0.743  0.0010  0.2241 -0.1405
 3524SOL     OW13867   2.194   0.750   2.940  0.3090 -0.0878 -0.5497
 3524SOL    HW213868   2.228   0.825   2.890  0.0507 -1.6552 -3.2927
 3524SOL    HW313869   2.197   0.677   2.878 -2.4398 -1.6499  0.9848
 3524SOL    MW413870   2.199   0.750   2.925 -0.0878 -0.5007 -0.7092
 3525SOL     OW13871   0.277   2.393   4.910 -0.1921  0.3548 -0.3326
 3525SOL    HW213872   0.299   2.476   4.866 -1.7722  0.1620 -1.5868
 3525SOL    HW313873   0.253   2.334   4.838 -1.0456 -0.5668  0.6761
 3525SOL    MW413874   0.277   2.396   4.894 -0.5132  0.2078 -0.3650
 3526SOL     OW13875   5.811   2.771   4.437 -0.0105 -0.1062 -0.0297
 3526SOL    HW213876   5.777   2.710   4.502 -0.9085  0.4774  0.0755
 3526SOL    HW313877   5.840   2.847   4.489 -1.1216  0.5379 -0.3137
 3526SOL    MW413878   5.810   2.773   4.453 -0.2756  0.0558 -0.0533
 3527SOL     OW13879   1.527   3.257   0.928  0.2969 -0.1903 -0.0772
 3527SOL    HW213880   1.585   3.194   0.884  1.4748 -0.0581  1.2031
 3527SOL    HW313881   1.586   3.326   0.957 -0.5151 -0.0184  1.2152
 3527SOL    MW413882   1.543   3.258   0.926  0.3452 -0.1501  0.2622
 3528SOL     OW13883   1.774   0.989   5.640 -0.2791 -0.2437 -0.1386
 3528SOL    HW213884   1.857   0.989   5.592  0.5120  3.4097  0.9076
 3528SOL    HW313885   1.742   1.079   5.633 -3.1919 -1.0668  1.1272
 3528SOL    MW413886   1.781   1.001   5.633 -0.5591  0.1297  0.1664
 3529SOL     OW13887   2.705   2.077   2.444  0.4019  0.6092 -0.5433
 3529SOL    HW213888   2.720   1.983   2.436  0.7289  0.5751  0.3649
 3529SOL    HW313889   2.666   2.102   2.360 -2.1532 -0.7889  0.1242
 3529SOL    MW413890   2.702   2.068   2.431  0.1079  0.4202 -0.3354
 3530SOL     OW13891   3.071   3.938   1.567 -0.1771 -0.4483  0.1703
 3530SOL    HW213892   3.132   3.997   1.611 -0.5532 -0.8889  1.3144
 3530SOL    HW313893   3.100   3.938   1.476  1.0317 -0.0224  0.5306
 3530SOL    MW413894   3.083   3.946   1.561 -0.0673 -0.4502  0.3688
 3531SOL     OW13895   1.106   5.817   3.303 -0.3381 -0.0543 -0.0606
 3531SOL    HW213896   1.104   5.746   3.239 -2.4321 -0.9987  0.9630
 3531SOL    HW313897   1.199   5.825   3.327  0.3728 -0.2411 -2.5136
 3531SOL    MW413898   1.118   5.809   3.298 -0.5206 -0.2035 -0.2492
 3532SOL     OW13899   6.268   6.154   0.966 -0.6858 -0.1015 -0.3343
 3532SOL    HW213900   6.239   6.176   0.877 -3.1202 -0.0908  0.3990
 3532SOL    HW313901   6.213   6.207   1.023  0.5600 -0.4043  1.2250
 3532SOL    MW413902   6.257   6.164   0.961 -0.8426 -0.1401 -0.0319
 3533SOL     OW13903   6.329   6.046   4.799 -0.2412 -0.4377  0.2792
 3533SOL    HW213904   6.366   6.016   4.882  1.4038  1.1643  0.1818
 3533SOL    HW313905   6.290   6.131   4.819  1.0095  0.4121 -0.7336
 3533SOL    MW413906   6.329   6.053   4.813  0.1408 -0.1142  0.1327
 3534SOL     OW13907   3.988   2.772   0.355  0.1929  0.0432 -0.0944
 3534SOL    HW213908   3.918   2.753   0.417  0.2294  0.3700  0.0484
 3534SOL    HW313909   4.047   2.697   0.362 -0.4966 -0.5663 -0.7243
 3534SOL    MW413910   3.986   2.759   0.364  0.1068  0.0059 -0.1586
 3535SOL     OW13911   5.788   0.949   2.604  0.5928  0.3753  0.2685
 3535SOL    HW213912   5.713   0.961   2.546  1.2212  1.2642 -0.4049
 3535SOL    HW313913   5.818   1.039   2.622  1.6791  0.0237  0.2663
 3535SOL    MW413914   5.782   0.963   2.599  0.8191  0.4462  0.1793
 3536SOL     OW13915   4.792   5.080   3.466  0.2878  0.4305  0.0517
 3536SOL    HW213916   4.754   5.019   3.403  1.0362 -1.1015  1.0146
 3536SOL    HW313917   4.878   5.044   3.486  0.6066  1.6117  0.9421
 3536SOL    MW413918   4.798   5.067   3.460  0.4286  0.3842  0.2962
 3537SOL     OW13919   3.598   1.085   3.577 -0.0634 -0.4582  0.3357
 3537SOL    HW213920   3.617   1.042   3.660 -0.3480 -0.8476  0.2020
 3537SOL    HW313921   3.585   1.014   3.515  1.0729 -0.1588 -0.2639
 3537SOL    MW413922   3.599   1.070   3.580  0.0489 -0.4701  0.2389
 3538SOL     OW13923   1.598   3.475   5.077 -0.4380  0.5473 -0.1565
 3538SOL    HW213924   1.526   3.413   5.063 -1.0405  1.4043 -1.0529
 3538SOL    HW313925   1.662   3.426   5.128 -0.5020 -1.1062 -1.5618
 3538SOL    MW413926   1.597   3.460   5.082 -0.5260  0.4422 -0.4602
 3539SOL     OW13927   5.655   1.811   1.118 -0.7566 -0.0911 -0.7278
 3539SOL    HW213928   5.728   1.782   1.172  0.9924  0.9119 -2.4166
 3539SOL    HW313929   5.633   1.736   1.064  0.7074  0.2875 -1.9089
 3539SOL    MW413930   5.661   1.797   1.118 -0.3327  0.0912 -1.1065
 3540SOL     OW13931   5.822   2.891   5.298 -0.3542  0.0237 -0.3844
 3540SOL    HW213932   5.797   2.803   5.270 -0.5579 -0.2913  0.7386
 3540SOL    HW313933   5.739   2.937   5.308 -0.5660 -0.8428  2.7669
 3540SOL    MW413934   5.808   2.886   5.296 -0.4090 -0.1322  0.1795
 3541SOL     OW13935   4.020   5.595   2.824 -0.1918 -0.2902  0.4193
 3541SOL    HW213936   3.958   5.536   2.781 -1.5796  1.8716 -0.7144
 3541SOL    HW313937   4.107   5.564   2.796 -0.8719 -1.6673 -0.2467
 3541SOL    MW413938   4.024   5.583   2.815 -0.4647 -0.1867  0.1818
 3542SOL     OW13939   2.233   0.147   3.326  0.7036 -0.0334 -0.0659
 3542SOL    HW213940   2.320   0.162   3.289  0.4908  0.3847 -0.4199
 3542SOL    HW313941   2.177   0.133   3.249  0.7050 -1.7700  0.2000
 3542SOL    MW413942   2.237   0.147   3.311  0.6757 -0.2074 -0.0775
 3543SOL     OW13943   3.682   4.761   4.396  0.5306 -0.6014  0.2689
 3543SOL    HW213944   3.682   4.706   4.474 -2.8205 -0.0928  0.7841
 3543SOL    HW313945   3.681   4.699   4.323  1.1429 -1.1250  0.6925
 3543SOL    MW413946   3.682   4.746   4.396  0.1692 -0.6034  0.3927
 3544SOL     OW13947   3.017   3.033   3.137  0.2130  0.8467 -0.0138
 3544SOL    HW213948   3.095   3.025   3.192  0.4021  0.0194 -0.3913
 3544SOL    HW313949   3.034   2.977   3.061 -1.5711 -1.0653  0.8733
 3544SOL    MW413950   3.029   3.024   3.134  0.0025  0.4853  0.0535
 3545SOL     OW13951   4.386   5.517   4.166 -0.1099  0.6211 -0.4394
 3545SOL    HW213952   4.468   5.519   4.216  0.1024 -3.3825 -0.3210
 3545SOL    HW313953   4.322   5.558   4.225  0.8010 -0.9455  1.8073
 3545SOL    MW413954   4.389   5.523   4.181  0.0383 -0.1138 -0.1274
 3546SOL     OW13955   3.132   1.235   5.304  0.1511  0.0289  0.4106
 3546SOL    HW213956   3.213   1.272   5.271  0.1763 -1.3697 -1.2443
 3546SOL    HW313957   3.149   1.141   5.310 -0.8931 -0.1227  1.4430
 3546SOL    MW413958   3.145   1.227   5.300  0.0167 -0.1756  0.3285
 3547SOL     OW13959   5.988   4.052   2.978 -0.3510  0.1964  0.1046
 3547SOL    HW213960   6.025   4.029   3.063  1.2650 -0.1849 -0.6509
 3547SOL    HW313961   5.970   4.146   2.984  1.8869  0.6893  0.1766
 3547SOL    MW413962   5.991   4.061   2.990  0.1574  0.2111  0.0144
 3548SOL     OW13963   5.536   2.546   1.526  0.3102 -0.1808  0.1607
 3548SOL    HW213964   5.442   2.544   1.544  0.4150  0.4024  0.8080
 3548SOL    HW313965   5.542   2.557   1.431 -0.2649 -0.8921  0.0308
 3548SOL    MW413966   5.525   2.547   1.516  0.2481 -0.1977  0.2290
 3549SOL     OW13967   5.979   4.221   3.449 -0.1612  0.0962  0.4116
 3549SOL    HW213968   5.885   4.221   3.467 -0.4013  0.5048 -0.7848
 3549SOL    HW313969   6.018   4.183   3.528 -1.3289 -0.1418  0.8959
 3549SOL    MW413970   5.972   4.216   3.462 -0.3469  0.1187  0.3177
 3550SOL     OW13971   4.647   0.797   0.115  0.1693 -0.1999 -0.3904
 3550SOL    HW213972   4.578   0.732   0.101 -0.0134 -0.1857  0.4026
 3550SOL    HW313973   4.631   0.864   0.048 -2.5559  1.4277  1.6461
 3550SOL    MW413974   4.635   0.797   0.104 -0.2143  0.0167 -0.0171
 3551SOL     OW13975   6.288   0.979   0.293 -0.2397 -0.4905  0.0958
 3551SOL    HW213976   6.316   1.054   0.345 -2.9846 -0.1812  1.3245
 3551SOL    HW313977   6.325   0.903   0.338  2.2426  0.0141 -0.9417
 3551SOL    MW413978   6.296   0.979   0.306 -0.2743 -0.3831  0.1211
 3552SOL     OW13979   1.614   5.643   5.824  0.1214  0.1473  0.4988
 3552SOL    HW213980   1.709   5.644   5.809  0.0682  1.1507  0.1658
 3552SOL    HW313981   1.577   5.682   5.746 -0.5585  0.0423  0.7627
 3552SOL    MW413982   1.622   5.648   5.812  0.0247  0.2659  0.4897
 3553SOL     OW13983   5.207   2.909   4.065 -0.7789 -0.3361 -0.3246
 3553SOL    HW213984   5.299   2.917   4.090 -0.6717  0.6435 -0.9848
 3553SOL    HW313985   5.206   2.840   3.998 -0.5805 -0.5787 -0.0808
 3553SOL    MW413986   5.219   2.901   4.059 -0.7386 -0.2389 -0.3795
 3554SOL     OW13987   3.159   0.863   0.601 -0.1410 -0.2037 -0.7547
 3554SOL    HW213988   3.117   0.948   0.590  0.2750 -0.1052 -1.7169
 3554SOL    HW313989   3.167   0.829   0.512  2.1346 -0.0385 -0.6664
 3554SOL    MW413990   3.155   0.870   0.587  0.2141 -0.1689 -0.8700
 3555SOL     OW13991   6.387   4.963   4.891  0.6637  0.3295  0.5405
 3555SOL    HW213992   6.447   4.890   4.871  2.2503  1.5258  0.7444
 3555SOL    HW313993   6.361   4.996   4.805  1.5160  0.7419  0.4279
 3555SOL    MW413994   6.391   4.957   4.877  0.9855  0.5417  0.5525
 3556SOL     OW13995   4.098   4.013   0.323 -0.0515  0.0748  0.2869
 3556SOL    HW213996   4.138   4.020   0.236 -0.2899 -1.0883  0.0636
 3556SOL    HW313997   4.083   4.104   0.350  0.5562  0.4652 -0.6390
 3556SOL    MW413998   4.101   4.026   0.315 -0.0028 -0.0272  0.1353
 3557SOL     OW13999   5.138   0.352   5.103 -0.4349  0.3386 -0.0518
 3557SOL    HW214000   5.077   0.426   5.091 -0.4187  0.3704  0.0671
 3557SOL    HW314001   5.172   0.336   5.015 -1.1185 -0.1130 -0.2398
 3557SOL    MW414002   5.134   0.360   5.090 -0.5230  0.2832 -0.0609
 3558SOL     OW14003   5.615   5.100   5.557  0.0395 -0.0003 -0.4029
 3558SOL    HW214004   5.529   5.063   5.576  1.2414 -1.6362  2.5655
 3558SOL    HW314005   5.651   5.043   5.489 -0.3419 -0.7675  0.0267
 3558SOL    MW414006   5.608   5.088   5.550  0.1478 -0.3173  0.0454
 3559SOL     OW14007   2.106   4.364   3.282 -0.3182  0.1367 -0.3503
 3559SOL    HW214008   2.049   4.322   3.217  0.4988  0.4057 -1.2590
 3559SOL    HW314009   2.175   4.405   3.230  0.3107  0.4262  0.6953
 3559SOL    MW414010   2.107   4.364   3.266 -0.1274  0.2104 -0.3322
 3560SOL     OW14011   4.471   4.465   6.028 -0.1506  0.3124  0.2957
 3560SOL    HW214012   4.391   4.427   5.992 -0.9216  1.4921  0.6811
 3560SOL    HW314013   4.446   4.493   6.117  1.0738 -0.4982  0.9282
 3560SOL    MW414014   4.457   4.464   6.035 -0.0908  0.3611  0.4300
 3561SOL     OW14015   1.402   1.392   3.925  0.1574  0.0984 -0.3924
 3561SOL    HW214016   1.483   1.343   3.941  0.3733  0.4528 -0.3868
 3561SOL    HW314017   1.422   1.447   3.850 -0.3306 -0.3750 -0.8769
 3561SOL    MW414018   1.415   1.392   3.917  0.1215  0.0827 -0.4556
 3562SOL     OW14019   4.946   0.144   4.570  0.3165 -0.3653 -0.0557
 3562SOL    HW214020   4.884   0.078   4.601 -1.3280  1.1067 -0.0583
 3562SOL    HW314021   4.898   0.191   4.502  0.9327  1.6710  0.8552
 3562SOL    MW414022   4.931   0.141   4.565  0.1808  0.0976  0.0641
 3563SOL     OW14023   4.455   1.916   6.107  0.5194 -0.1935 -0.0862
 3563SOL    HW214024   4.534   1.933   6.158  0.7609 -1.7286  0.0971
 3563SOL    HW314025   4.435   2.000   6.065  0.8838  0.8546  1.7096
 3563SOL    MW414026   4.463   1.929   6.108  0.5993 -0.2578  0.1749
 3564SOL     OW14027   5.715   2.155   4.060 -0.0039  0.6454  0.5402
 3564SOL    HW214028   5.630   2.175   4.022  0.1597  0.2089 -0.0752
 3564SOL    HW314029   5.763   2.112   3.989  0.0349 -0.9159  1.4670
 3564SOL    MW414030   5.710   2.152   4.045  0.0228  0.3818  0.5813
 3565SOL     OW14031   5.051   0.110   0.516  0.0494 -0.1216  0.1249
 3565SOL    HW214032   5.040   0.204   0.530 -1.0445 -0.6370  4.1300
 3565SOL    HW314033   4.962   0.074   0.516  0.5004 -1.3663  1.5131
 3565SOL    MW414034   5.038   0.117   0.518 -0.0354 -0.3538  0.8365
 3566SOL     OW14035   0.542   2.428   5.895 -0.4162  0.1858 -0.0423
 3566SOL    HW214036   0.528   2.519   5.919 -0.9425 -0.1427  1.0007
 3566SOL    HW314037   0.461   2.403   5.849 -0.8706 -0.1199  0.8929
 3566SOL    MW414038   0.529   2.436   5.892 -0.5456  0.1021  0.2187
 3567SOL     OW14039   0.732   2.009   2.283  0.3127 -0.0438  0.0938
 3567SOL    HW214040   0.729   1.984   2.376  1.9317 -0.3380  0.0975
 3567SOL    HW314041   0.818   2.048   2.272 -0.0628  0.4605 -1.1866
 3567SOL    MW414042   0.743   2.011   2.294  0.4768 -0.0161 -0.0746
 3568SOL     OW14043   0.998   6.263   3.148  0.7070  0.6526  0.0891
 3568SOL    HW214044   0.957   6.265   3.061  0.3676 -3.2800 -0.0134
 3568SOL    HW314045   0.928   6.288   3.208  0.8866  3.2110 -0.6405
 3568SOL    MW414046   0.983   6.266   3.144  0.6859  0.4713 -0.0207
 3569SOL     OW14047   5.903   0.937   1.857  0.4318 -0.1665 -0.0873
 3569SOL    HW214048   5.837   0.867   1.865 -1.8677  1.9448  0.6589
 3569SOL    HW314049   5.858   1.015   1.889  2.2623  2.0871 -2.6676
 3569SOL    MW414050   5.888   0.938   1.862  0.3699  0.4094 -0.3293
 3570SOL     OW14051   5.098   4.856   5.666 -0.1007 -0.2129  0.3862
 3570SOL    HW214052   5.133   4.767   5.669  1.4931  0.3647 -0.3148
 3570SOL    HW314053   5.006   4.845   5.641  0.0109 -1.6603  0.5358
 3570SOL    MW414054   5.090   4.843   5.663  0.1243 -0.3277  0.3134
 3571SOL     OW14055   5.079   6.062   6.273 -0.2830 -0.2759 -0.4140
 3571SOL    HW214056   5.104   6.090   6.185 -0.1191 -0.0861 -0.3082
 3571SOL    HW314057   5.159   6.075   6.325 -0.3605 -0.4508 -0.2530
 3571SOL    MW414058   5.093   6.067   6.268 -0.2716 -0.2739 -0.3788
 3572SOL     OW14059   1.335   0.309   5.473  0.4012  0.0344 -0.3060
 3572SOL    HW214060   1.406   0.359   5.513  0.3403 -1.4372  1.8214
 3572SOL    HW314061   1.263   0.313   5.536  0.1413 -2.0153 -0.3795
 3572SOL    MW414062   1.335   0.316   5.486  0.3589 -0.4302 -0.0350
 3573SOL     OW14063   0.612   4.430   6.162  0.2425  0.0688  0.5783
 3573SOL    HW214064   0.614   4.514   6.208 -0.8887  0.9155 -0.8658
 3573SOL    HW314065   0.649   4.448   6.076  1.4469 -1.2899  0.7658
 3573SOL    MW414066   0.618   4.444   6.157  0.2522  0.0013  0.4125
 3574SOL     OW14067   5.946   5.523   4.805  0.3797 -0.6984  0.3374
 3574SOL    HW214068   5.920   5.615   4.814 -1.1335 -1.1560  0.9772
 3574SOL    HW314069   5.997   5.521   4.724  0.1936  0.6582  0.1594
 3574SOL    MW414070   5.949   5.535   4.795  0.1555 -0.5798  0.3983
 3575SOL     OW14071   0.746   3.979   0.133  0.0046 -0.2263 -0.3131
 3575SOL    HW214072   0.656   3.981   0.101  0.7122  1.5167 -2.5244
 3575SOL    HW314073   0.740   3.998   0.226 -1.9182 -0.5858 -0.3339
 3575SOL    MW414074   0.734   3.982   0.141 -0.1557 -0.0437 -0.6076
 3576SOL     OW14075   4.046   5.722   5.269  0.2269 -0.1471  0.1850
 3576SOL    HW214076   3.988   5.646   5.269 -1.1815  0.8570  1.4303
 3576SOL    HW314077   4.123   5.695   5.318 -0.1712 -0.8203  0.4458
 3576SOL    MW414078   4.048   5.709   5.275 -0.0114 -0.1035  0.3837
 3577SOL     OW14079   5.969   3.442   4.166  0.8431 -0.4216  0.2439
 3577SOL    HW214080   5.901   3.418   4.229 -0.3609 -0.0565 -0.8697
 3577SOL    HW314081   5.942   3.398   4.085 -0.0209  2.4504 -1.1784
 3577SOL    MW414082   5.956   3.433   4.163  0.5702  0.0055 -0.0907
 3578SOL     OW14083   4.240   0.866   2.215 -0.8720 -0.1975 -0.3641
 3578SOL    HW214084   4.287   0.949   2.213  0.3079 -0.8436 -0.2097
 3578SOL    HW314085   4.303   0.803   2.251 -1.4164 -1.3572 -1.3517
 3578SOL    MW414086   4.255   0.869   2.220 -0.7882 -0.4357 -0.4740
 3579SOL     OW14087   0.354   4.137   5.155 -0.7678  0.1261  0.0480
 3579SOL    HW214088   0.264   4.168   5.145 -0.5513  0.2483 -1.8133
 3579SOL    HW314089   0.349   4.043   5.137 -0.2318  0.4972 -2.3655
 3579SOL    MW414090   0.341   4.129   5.152 -0.6685  0.1912 -0.5160
 3580SOL     OW14091   5.822   4.928   5.377  0.6472 -0.1688 -0.0007
 3580SOL    HW214092   5.757   4.865   5.408  1.7073 -1.4244 -0.2466
 3580SOL    HW314093   5.859   4.888   5.298  2.9331 -0.3279  1.0861
 3580SOL    MW414094   5.819   4.915   5.371  1.0887 -0.3554  0.1102
 3581SOL     OW14095   3.502   3.684   0.174 -0.4714  0.0645  0.1960
 3581SOL    HW214096   3.561   3.715   0.242  0.0462 -0.1696 -0.1358
 3581SOL    HW314097   3.536   3.598   0.150  0.4751  0.8993 -1.6483
 3581SOL    MW414098   3.514   3.676   0.180 -0.2782  0.1437 -0.0911
 3582SOL     OW14099   2.631   2.155   3.922 -0.3773 -0.1418 -0.4217
 3582SOL    HW214100   2.670   2.221   3.864  0.2617  1.3012  1.5520
 3582SOL    HW314101   2.703   2.098   3.946 -0.0808  0.7154  0.8208
 3582SOL    MW414102   2.645   2.156   3.917 -0.2539  0.1617  0.0027
 3583SOL     OW14103   3.646   1.015   3.849  0.1465 -0.5051 -0.1072
 3583SOL    HW214104   3.710   0.975   3.907 -0.0023 -0.7620 -0.1211
 3583SOL    HW314105   3.657   1.109   3.863 -0.9970 -0.5592  1.5750
 3583SOL    MW414106   3.656   1.022   3.859 -0.0240 -0.5461  0.1129
 3584SOL     OW14107   3.169   5.299   0.130 -0.5501 -0.1628 -0.4746
 3584SOL    HW214108   3.244   5.254   0.091  1.9588  3.6490 -0.6041
 3584SOL    HW314109   3.181   5.290   0.224  1.5156  2.2113 -0.4085
 3584SOL    MW414110   3.180   5.292   0.137  0.0535  0.6533 -0.4829
 3585SOL     OW14111   0.600   2.184   2.669  0.1473  0.8434 -0.9229
 3585SOL    HW214112   0.508   2.159   2.661  0.9157 -2.0231 -2.1217
 3585SOL    HW314113   0.605   2.230   2.752 -1.9857 -0.9734  0.3287
 3585SOL    MW414114   0.588   2.187   2.679 -0.0328  0.2255 -0.9159
 3586SOL     OW14115   2.424   3.619   3.336 -0.6157  0.1502 -0.2593
 3586SOL    HW214116   2.359   3.624   3.265 -0.3976  0.8714 -0.4202
 3586SOL    HW314117   2.394   3.546   3.390 -0.3086 -0.9849 -1.5569
 3586SOL    MW414118   2.411   3.610   3.334 -0.5464  0.0956 -0.4518
 3587SOL     OW14119   5.835   4.061   2.248  0.0420  0.3100  0.0779
 3587SOL    HW214120   5.747   4.077   2.214  0.4080  0.5196 -0.7925
 3587SOL    HW314121   5.854   3.971   2.224  0.5281  0.6396 -0.8075
 3587SOL    MW414122   5.826   4.051   2.240  0.1544  0.3812 -0.1538
 3588SOL     OW14123   5.492   4.246   1.075  0.2846  0.0499 -0.1453
 3588SOL    HW214124   5.397   4.253   1.064 -0.3497 -2.6891  2.3681
 3588SOL    HW314125   5.524   4.215   0.990 -0.8460  1.9361 -1.3352
 3588SOL    MW414126   5.484   4.243   1.062  0.0517 -0.0626  0.0293
 3589SOL     OW14127   0.653   1.577   4.246  0.0830  0.1760  1.1120
 3589SOL    HW214128   0.747   1.558   4.249  0.3677  1.3254  0.1051
 3589SOL    HW314129   0.617   1.530   4.322  1.6708  0.9053  2.3807
 3589SOL    MW414130   0.660   1.568   4.257  0.3301  0.4239  1.1466
 3590SOL     OW14131   5.496   0.869   1.299  0.0778 -0.5780  0.2416
 3590SOL    HW214132   5.424   0.900   1.354 -0.6302 -3.0518  0.8378
 3590SOL    HW314133   5.465   0.882   1.209 -0.6277 -0.5606  0.4831
 3590SOL    MW414134   5.482   0.875   1.294 -0.1087 -0.9021  0.3521
 3591SOL     OW14135   1.636   1.419   0.926  0.0987  0.4170 -0.0514
 3591SOL    HW214136   1.662   1.376   0.844 -1.2754 -0.4430 -0.0569
 3591SOL    HW314137   1.588   1.497   0.898 -0.6957 -0.0728 -0.0936
 3591SOL    MW414138   1.633   1.424   0.911 -0.1874  0.2389 -0.0577
 3592SOL     OW14139   1.761   1.095   0.463  0.4347  0.3808  0.6708
 3592SOL    HW214140   1.784   1.033   0.533  0.4881  0.2371  0.5266
 3592SOL    HW314141   1.699   1.047   0.409  0.7176  0.3417  0.3790
 3592SOL    MW414142   1.756   1.080   0.465  0.4791  0.3566  0.6133
 3593SOL     OW14143   0.538   4.671   2.057 -0.1113  0.3003 -0.4866
 3593SOL    HW214144   0.464   4.674   1.996 -1.0999  0.6506  0.6883
 3593SOL    HW314145   0.561   4.578   2.062 -1.6558 -0.0667  0.4807
 3593SOL    MW414146   0.531   4.659   2.050 -0.4455  0.2981 -0.2039
 3594SOL     OW14147   2.899   1.470   4.607  0.3677  0.1288  0.5771
 3594SOL    HW214148   2.834   1.464   4.536  0.3967 -0.4719  0.5952
 3594SOL    HW314149   2.972   1.417   4.576  0.7591  0.6144  0.6616
 3594SOL    MW414150   2.900   1.462   4.593  0.4231  0.1136  0.5906
 3595SOL     OW14151   2.856   4.051   2.830  0.2103 -0.0271  0.2118
 3595SOL    HW214152   2.905   4.014   2.903 -0.6387 -1.1571  0.2342
 3595SOL    HW314153   2.860   4.145   2.844  2.0984 -0.0928  0.3796
 3595SOL    MW414154   2.863   4.058   2.841  0.3474 -0.1849  0.2369
 3596SOL     OW14155   5.923   4.337   0.459  0.0387 -0.4644 -0.0304
 3596SOL    HW214156   5.868   4.366   0.387 -3.1608  0.3536  2.5200
 3596SOL    HW314157   5.937   4.416   0.512 -2.6482 -1.9135  3.1735
 3596SOL    MW414158   5.918   4.351   0.456 -0.7380 -0.5476  0.7288
 3597SOL     OW14159   0.122   4.643   2.372  0.1085  0.0860  0.3860
 3597SOL    HW214160   0.197   4.586   2.387  0.0364 -0.4472 -1.1894
 3597SOL    HW314161   0.046   4.586   2.381 -0.0067  0.1427 -0.2093
 3597SOL    MW414162   0.122   4.628   2.376  0.0838  0.0232  0.0996
 3598SOL     OW14163   5.231   3.898   2.624  0.5953  0.5950  0.1411
 3598SOL    HW214164   5.217   3.815   2.580 -0.4052  0.6165  0.3924
 3598SOL    HW314165   5.291   3.877   2.696  2.1807  0.5547 -1.1559
 3598SOL    MW414166   5.237   3.885   2.628  0.6724  0.5925  0.0031
 3599SOL     OW14167   2.962   5.550   5.334  0.4486 -0.5284  0.4601
 3599SOL    HW214168   2.959   5.578   5.425  2.8132  0.8910  0.1791
 3599SOL    HW314169   3.052   5.567   5.306 -0.0018 -1.6164 -1.9386
 3599SOL    MW414170   2.974   5.556   5.342  0.7012 -0.4847  0.1065
 3600SOL     OW14171   1.210   3.115   0.231  0.2943 -1.2209  0.5766
 3600SOL    HW214172   1.269   3.125   0.156  1.4347 -0.9156  1.4913
 3600SOL    HW314173   1.219   3.023   0.256  1.3665 -0.8743  1.4994
 3600SOL    MW414174   1.219   3.104   0.224  0.5862 -1.1349  0.8190
 3601SOL     OW14175   2.465   2.170   6.397 -0.0419 -0.2215 -0.2795
 3601SOL    HW214176   2.437   2.096   6.343 -1.2963  1.4608 -2.0986
 3601SOL    HW314177   2.420   2.157   6.481 -0.2984 -1.4369 -0.5832
 3601SOL    MW414178   2.455   2.158   6.401 -0.2413 -0.1599 -0.5596
 3602SOL     OW14179   1.341   4.223   2.854 -0.0093  0.1453 -0.1299
 3602SOL    HW214180   1.299   4.137   2.852 -1.9211  0.9749  1.3598
 3602SOL    HW314181   1.331   4.257   2.765  1.4624 -1.4339 -0.9449
 3602SOL    MW414182   1.334   4.217   2.842 -0.0673  0.0464 -0.0409
 3603SOL     OW14183   2.031   4.268   0.794 -0.6709 -0.0295  0.0588
 3603SOL    HW214184   1.959   4.266   0.858 -0.1636  0.4858  0.6518
 3603SOL    HW314185   2.110   4.257   0.846 -0.1748  1.3316 -0.3588
 3603SOL    MW414186   2.032   4.266   0.809 -0.5385  0.2181  0.0819
 3604SOL     OW14187   5.064   4.567   1.673 -0.3118  0.0356 -0.2249
 3604SOL    HW214188   5.144   4.516   1.657 -0.5430 -0.9326  1.4752
 3604SOL    HW314189   5.091   4.658   1.660  0.0699 -0.4315 -3.4785
 3604SOL    MW414190   5.078   4.572   1.669 -0.2919 -0.1537 -0.4298
 3605SOL     OW14191   4.554   5.153   4.000  0.5616  0.5649  0.1255
 3605SOL    HW214192   4.628   5.093   3.982  0.6489  0.5763  0.4388
 3605SOL    HW314193   4.532   5.190   3.914  0.2388 -0.2276 -0.1462
 3605SOL    MW414194   4.561   5.150   3.986  0.5305  0.4619  0.1310
 3606SOL     OW14195   6.367   3.368   1.742 -0.6569  0.1126 -0.5220
 3606SOL    HW214196   6.333   3.281   1.762 -1.0156  0.5184  0.7646
 3606SOL    HW314197   6.307   3.404   1.677 -0.3351 -0.6958 -1.2866
 3606SOL    MW414198   6.354   3.362   1.736 -0.6618  0.0594 -0.4531
 3607SOL     OW14199   5.004   0.997   0.279  0.1654 -0.3233  0.2036
 3607SOL    HW214200   5.046   1.083   0.282 -0.4554  0.3652 -4.1420
 3607SOL    HW314201   4.933   1.003   0.342 -2.4726  4.1011 -2.6350
 3607SOL    MW414202   5.000   1.009   0.287 -0.2645  0.3513 -0.7443
 3608SOL     OW14203   2.640   4.538   0.858  0.3509  0.4447  0.1047
 3608SOL    HW214204   2.733   4.527   0.838  0.4066 -0.6099  0.8564
 3608SOL    HW314205   2.596   4.518   0.775  0.6624 -2.2317  0.4740
 3608SOL    MW414206   2.647   4.534   0.845  0.3994 -0.0476  0.2526
 3609SOL     OW14207   1.464   4.582   5.813  0.2113 -0.0106 -0.3687
 3609SOL    HW214208   1.479   4.529   5.891 -0.1994 -0.6819 -0.7347
 3609SOL    HW314209   1.385   4.544   5.773  0.5032  0.2216 -1.1881
 3609SOL    MW414210   1.455   4.570   5.818  0.1956 -0.0686 -0.5251
 3610SOL     OW14211   5.131   3.533   3.035 -0.0231 -0.0710 -0.0757
 3610SOL    HW214212   5.103   3.581   2.957  2.4573  1.1991 -0.2648
 3610SOL    HW314213   5.126   3.440   3.009 -1.9632  0.1682 -0.7232
 3610SOL    MW414214   5.126   3.527   3.021  0.0482  0.1281 -0.1861
 3611SOL     OW14215   1.784   5.452   4.925 -0.0885 -0.1241 -0.3541
 3611SOL    HW214216   1.790   5.419   4.835 -1.0381  0.0297 -0.4863
 3611SOL    HW314217   1.824   5.383   4.978  2.4043  0.7034 -1.0594
 3611SOL    MW414218   1.790   5.438   4.920  0.1151  0.0054 -0.4646
 3612SOL     OW14219   3.361   1.990   4.859 -0.3697  0.4501 -0.0691
 3612SOL    HW214220   3.360   2.064   4.799 -0.7488  1.0694  0.6770
 3612SOL    HW314221   3.408   2.022   4.936  1.3585 -0.7661 -0.5383
 3612SOL    MW414222   3.367   2.004   4.861 -0.1917  0.3713 -0.0326
 3613SOL     OW14223   4.211   1.016   4.220 -0.8170 -0.0347  0.0304
 3613SOL    HW214224   4.146   1.007   4.290 -1.8344  1.7000 -0.6131
 3613SOL    HW314225   4.176   0.962   4.148  1.4390 -3.8559  1.4798
 3613SOL    MW414226   4.198   1.008   4.220 -0.6536 -0.3100  0.1367
 3614SOL     OW14227   2.984   1.284   0.303 -0.1992  0.4892  0.7712
 3614SOL    HW214228   3.013   1.359   0.356 -1.7899  2.3348 -0.8170
 3614SOL    HW314229   3.039   1.287   0.225 -0.8120  0.5029  0.3368
 3614SOL    MW414230   2.995   1.294   0.300 -0.4899  0.7346  0.5043
 3615SOL     OW14231   5.076   5.082   0.888 -0.2582  0.3027 -0.3682
 3615SOL    HW214232   5.127   5.016   0.934  0.2751  0.3380 -0.9132
 3615SOL    HW314233   5.021   5.122   0.957  0.5869  0.4069  0.2560
 3615SOL    MW414234   5.075   5.079   0.903 -0.0763  0.3211 -0.3577
 3616SOL     OW14235   2.929   1.483  -0.003 -0.1564 -0.1293  0.3380
 3616SOL    HW214236   2.904   1.518   0.083  1.6504 -2.6895  2.0553
 3616SOL    HW314237   2.858   1.424  -0.027 -0.3097  0.0092  0.4538
 3616SOL    MW414238   2.916   1.480   0.005  0.0618 -0.4488  0.5798
 3617SOL     OW14239   4.587   2.119   5.456  0.4117 -0.0985 -0.7495
 3617SOL    HW214240   4.552   2.035   5.428  0.4081 -0.5218  0.4584
 3617SOL    HW314241   4.678   2.101   5.480  0.3436  0.1771 -0.2584
 3617SOL    MW414242   4.595   2.106   5.455  0.4022 -0.1180 -0.5253
 3618SOL     OW14243   1.944   5.304   3.478  0.1481 -0.1970  0.2863
 3618SOL    HW214244   1.982   5.344   3.400 -0.3762 -0.5919 -0.1731
 3618SOL    HW314245   1.987   5.219   3.485 -0.6955 -0.6795 -0.2819
 3618SOL    MW414246   1.955   5.298   3.469 -0.0324 -0.3128  0.1507
 3619SOL     OW14247   1.873   3.516   6.318  0.5837 -0.1351  0.0981
 3619SOL    HW214248   1.897   3.559   6.400 -0.4177 -0.6721  0.7009
 3619SOL    HW314249   1.954   3.512   6.268  1.6240 -1.3111  1.7696
 3619SOL    MW414250   1.887   3.521   6.322  0.5888 -0.3611  0.3982
 3620SOL     OW14251   0.301   4.317   3.454 -0.4244 -0.5927 -0.1704
 3620SOL    HW214252   0.257   4.399   3.430  0.1978 -0.2864 -0.2868
 3620SOL    HW314253   0.229   4.255   3.470 -0.9211  0.1396  0.5207
 3620SOL    MW414254   0.285   4.320   3.453 -0.4078 -0.4556 -0.0946
 3621SOL     OW14255   4.209   0.426   5.269  0.1420  0.1969  0.1645
 3621SOL    HW214256   4.236   0.340   5.236  0.8202  0.0812  1.0019
 3621SOL    HW314257   4.222   0.421   5.363  0.9958  1.5016  0.1308
 3621SOL    MW414258   4.214   0.414   5.277  0.3441  0.3538  0.2706
 3622SOL     OW14259   3.103   0.458   1.319  0.4170  0.4907  0.3368
 3622SOL    HW214260   3.091   0.487   1.410  0.5411  0.5460  0.3351
 3622SOL    HW314261   3.037   0.389   1.307 -1.6645  2.4796 -0.4395
 3622SOL    MW414262   3.093   0.452   1.330  0.1587  0.7604  0.2341
 3623SOL     OW14263   5.187   6.238   3.738  0.7181 -0.2089 -0.3010
 3623SOL    HW214264   5.153   6.268   3.822  0.0926  1.2362 -1.0222
 3623SOL    HW314265   5.169   6.144   3.735  1.4033 -0.4258  1.4568
 3623SOL    MW414266   5.180   6.230   3.748  0.7260 -0.0469 -0.1642
 3624SOL     OW14267   5.712   1.930   5.628 -0.1686 -0.1445  0.8913
 3624SOL    HW214268   5.714   1.837   5.651  0.7557 -0.2288  0.5070
 3624SOL    HW314269   5.633   1.940   5.575 -0.1363 -0.7687  0.7189
 3624SOL    MW414270   5.702   1.919   5.624 -0.0424 -0.2379  0.8179
 3625SOL     OW14271   4.699   4.868   0.017  0.4316 -0.1954  1.0208
 3625SOL    HW214272   4.646   4.789   0.031 -0.1288 -0.0246 -0.0807
 3625SOL    HW314273   4.666   4.930   0.082 -0.7691 -0.0693  0.3113
 3625SOL    MW414274   4.688   4.865   0.028  0.1992 -0.1562  0.7818
 3626SOL     OW14275   0.826   4.689   0.520  0.2047 -0.0204 -0.2583
 3626SOL    HW214276   0.776   4.640   0.585 -0.3865  0.2014 -0.5362
 3626SOL    HW314277   0.840   4.775   0.560  0.1181  0.0107 -0.2949
 3626SOL    MW414278   0.821   4.694   0.534  0.1153  0.0130 -0.2998
 3627SOL     OW14279   4.811   3.408   2.049 -0.1808  0.6576 -0.2424
 3627SOL    HW214280   4.865   3.449   2.118  0.9779  0.1778 -0.8345
 3627SOL    HW314281   4.759   3.481   2.015  0.4172  1.2464  0.0510
 3627SOL    MW414282   4.811   3.423   2.054  0.0510  0.6720 -0.2818
 3628SOL     OW14283   4.663   0.308   0.165  0.1510 -0.1455 -0.6501
 3628SOL    HW214284   4.634   0.394   0.135 -2.7323 -0.5943  0.5258
 3628SOL    HW314285   4.616   0.246   0.110 -1.0894 -0.9216  1.1773
 3628SOL    MW414286   4.653   0.311   0.154 -0.3931 -0.3071 -0.2539
 3629SOL     OW14287   2.283   4.931   1.924 -0.3292 -0.4013 -0.1842
 3629SOL    HW214288   2.213   4.927   1.989  0.4864  2.1628  0.9753
 3629SOL    HW314289   2.238   4.952   1.842 -0.9448  2.0171  0.6924
 3629SOL    MW414290   2.268   4.934   1.921 -0.3028  0.2561  0.0845
 3630SOL     OW14291   6.296   2.731   1.799 -0.2303 -0.1106 -0.2644
 3630SOL    HW214292   6.285   2.819   1.835  1.7599 -0.3237  0.9914
 3630SOL    HW314293   6.338   2.745   1.714  1.7101  0.1472  0.6771
 3630SOL    MW414294   6.300   2.745   1.792  0.2883 -0.1047  0.0255
 3631SOL     OW14295   0.049   3.984   1.206 -0.0874  0.2344 -0.0714
 3631SOL    HW214296   0.107   4.032   1.266  0.4085  0.8112 -0.9802
 3631SOL    HW314297  -0.012   4.050   1.174  0.4071  0.2144 -1.0982
 3631SOL    MW414298   0.049   3.999   1.210  0.0432  0.3079 -0.3268
 3632SOL     OW14299   3.981   5.572   4.664 -0.2964 -0.0845 -0.1047
 3632SOL    HW214300   3.964   5.515   4.589  0.3042 -1.2800  0.6375
 3632SOL    HW314301   4.014   5.513   4.732 -2.0889  0.7313  1.5797
 3632SOL    MW414302   3.983   5.556   4.663 -0.4536 -0.1346  0.2154
 3633SOL     OW14303   1.357   0.618   1.930  0.1584 -0.4184  0.1357
 3633SOL    HW214304   1.281   0.671   1.953  0.6529  0.0027  0.8223
 3633SOL    HW314305   1.321   0.545   1.879 -0.3191  1.6988 -2.8156
 3633SOL    MW414306   1.342   0.615   1.927  0.1606 -0.0835 -0.1631
 3634SOL     OW14307   1.943   1.918   2.785 -0.0499 -0.1542  0.2505
 3634SOL    HW214308   1.999   1.842   2.766 -1.3055 -0.9815 -0.2835
 3634SOL    HW314309   1.980   1.955   2.865  2.1766  0.2539 -0.8828
 3634SOL    MW414310   1.955   1.913   2.793  0.0782 -0.2095  0.0305
 3635SOL     OW14311   3.744   2.085   2.272  0.4287 -0.5835 -0.2406
 3635SOL    HW214312   3.817   2.132   2.232  1.6551 -3.4287 -1.6796
 3635SOL    HW314313   3.666   2.127   2.237  1.4565 -0.1139 -2.1231
 3635SOL    MW414314   3.744   2.096   2.262  0.7261 -0.8969 -0.6788
 3636SOL     OW14315   5.706   6.120   5.625 -0.1005 -0.0032  0.2640
 3636SOL    HW214316   5.701   6.211   5.596  1.2050  0.3191  0.9506
 3636SOL    HW314317   5.638   6.111   5.691 -0.2672  0.4667  0.1590
 3636SOL    MW414318   5.697   6.131   5.630  0.0498  0.1013  0.3408
 3637SOL     OW14319   0.057   1.366   3.557  0.3061  0.2235  0.0476
 3637SOL    HW214320   0.064   1.415   3.475  2.1387  0.8424  0.5044
 3637SOL    HW314321  -0.021   1.312   3.547  1.3789 -0.9802 -2.7903
 3637SOL    MW414322   0.048   1.365   3.545  0.6894  0.1463 -0.2665
 3638SOL     OW14323   5.202   3.039   4.883  0.4184  0.1207  0.7266
 3638SOL    HW214324   5.107   3.040   4.888  0.4046  0.2316  0.4418
 3638SOL    HW314325   5.226   2.947   4.894  0.2480  0.0126  0.2122
 3638SOL    MW414326   5.193   3.027   4.885  0.3941  0.1211  0.6212
 3639SOL     OW14327   1.245   3.464   5.288  0.7543  0.3147 -0.1833
 3639SOL    HW214328   1.268   3.480   5.197  1.0386 -0.6123 -0.2741
 3639SOL    HW314329   1.222   3.372   5.292 -0.6649  0.6618  0.3903
 3639SOL    MW414330   1.245   3.454   5.277  0.6045  0.2381 -0.1196
 3640SOL     OW14331   1.125   0.120   3.665 -0.4671  0.6323  0.3776
 3640SOL    HW214332   1.133   0.181   3.739 -0.4588  1.4083 -0.2576
 3640SOL    HW314333   1.202   0.136   3.612 -1.9312  2.2552 -1.3974
 3640SOL    MW414334   1.136   0.130   3.668 -0.6592  0.9488  0.0596
 3641SOL     OW14335   2.219   0.151   5.592 -0.1692  0.8372 -0.5062
 3641SOL    HW214336   2.233   0.098   5.514 -1.4362  0.2921 -0.3800
 3641SOL    HW314337   2.124   0.160   5.598 -0.0365  1.8350  0.3418
 3641SOL    MW414338   2.208   0.145   5.582 -0.3189  0.8970 -0.3777
 3642SOL     OW14339   1.824   4.629   6.006 -0.0184 -0.0336 -0.2192
 3642SOL    HW214340   1.811   4.571   6.081 -0.1677  0.0960 -0.1423
 3642SOL    HW314341   1.918   4.627   5.989 -0.1419 -1.1376 -0.8958
 3642SOL    MW414342   1.835   4.621   6.013 -0.0544 -0.1621 -0.2983
 3643SOL     OW14343   3.051   0.310   5.223  0.3151  0.0405  0.5057
 3643SOL    HW214344   3.048   0.328   5.129  0.0410  2.4180  0.9041
 3643SOL    HW314345   2.990   0.238   5.236  0.4262 -0.3859 -1.1458
 3643SOL    MW414346   3.043   0.303   5.212  0.2936  0.2979  0.3404
 3644SOL     OW14347   0.403   0.155   2.858 -0.3382  0.0211 -0.5277
 3644SOL    HW214348   0.406   0.084   2.793 -0.2758 -0.2078 -0.2790
 3644SOL    HW314349   0.339   0.125   2.923  1.1290 -0.7261  0.6244
 3644SOL    MW414350   0.395   0.141   2.858 -0.1364 -0.1077 -0.3429
 3645SOL     OW14351   0.809   0.685   2.114  0.1714 -0.2290  0.5720
 3645SOL    HW214352   0.831   0.767   2.070  0.0178 -0.0791  0.7727
 3645SOL    HW314353   0.732   0.652   2.068  2.0918 -1.9157 -1.6274
 3645SOL    MW414354   0.802   0.691   2.102  0.4045 -0.4317  0.3083
 3646SOL     OW14355   4.022   3.926   2.565 -0.6146  0.3494 -0.1106
 3646SOL    HW214356   4.070   4.005   2.589 -1.9452  1.1313  0.0903
 3646SOL    HW314357   3.988   3.944   2.477  0.6337 -0.7751 -0.8602
 3646SOL    MW414358   4.024   3.939   2.557 -0.6254  0.3042 -0.1830
 3647SOL     OW14359   4.570   6.081   6.007  0.1583 -0.2610  0.0637
 3647SOL    HW214360   4.499   6.018   6.022  0.1236 -0.4553 -0.9019
 3647SOL    HW314361   4.561   6.144   6.079 -0.0756 -1.1043  0.7859
 3647SOL    MW414362   4.559   6.081   6.019  0.1228 -0.3979  0.0316
 3648SOL     OW14363   0.703   1.899   3.209  0.2592  0.0090  0.4793
 3648SOL    HW214364   0.651   1.910   3.130  0.7537 -1.0913 -0.0143
 3648SOL    HW314365   0.639   1.898   3.280 -0.3731 -0.9529 -0.0883
 3648SOL    MW414366   0.688   1.901   3.208  0.2410 -0.2631  0.3393
 3649SOL     OW14367   0.238   3.105   2.191  0.3544 -0.4186  0.5151
 3649SOL    HW214368   0.219   3.048   2.117 -1.7306  1.3263 -0.4216
 3649SOL    HW314369   0.327   3.135   2.176  0.5301 -1.3435 -0.4081
 3649SOL    MW414370   0.247   3.102   2.179  0.1025 -0.3104  0.2697
 3650SOL     OW14371   1.645   4.972   2.717 -0.2297  0.5425 -1.2575
 3650SOL    HW214372   1.655   5.042   2.653  3.9335 -0.0217 -1.5116
 3650SOL    HW314373   1.659   5.014   2.802 -2.2816  0.6925 -0.9463
 3650SOL    MW414374   1.648   4.986   2.720  0.0488  0.4878 -1.2500
 3651SOL     OW14375   4.515   4.362   2.757  0.2603  0.3387 -0.4899
 3651SOL    HW214376   4.429   4.385   2.721 -0.6907  1.1892  2.0864
 3651SOL    HW314377   4.577   4.412   2.704 -1.0668  1.7415 -0.8104
 3651SOL    MW414378   4.512   4.372   2.745 -0.0403  0.6360 -0.1923
 3652SOL     OW14379   2.186   2.678   0.108 -0.8508  0.0775  0.3221
 3652SOL    HW214380   2.146   2.765   0.106 -1.1139 -0.0468  0.0476
 3652SOL    HW314381   2.142   2.630   0.037 -1.6496 -0.6920  1.3119
 3652SOL    MW414382   2.175   2.683   0.098 -0.9909 -0.0404  0.4165
 3653SOL     OW14383   1.673   1.153   0.002 -0.3402 -0.0502 -0.2010
 3653SOL    HW214384   1.721   1.197   0.072 -1.4401 -1.8574  1.8011
 3653SOL    HW314385   1.741   1.110  -0.051  0.4102 -1.7200  1.9707
 3653SOL    MW414386   1.688   1.153   0.004 -0.3863 -0.5089  0.3497
 3654SOL     OW14387   0.086   1.535   4.760 -0.0814  0.0784  0.0631
 3654SOL    HW214388   0.097   1.614   4.814 -1.8790  1.2888 -1.2130
 3654SOL    HW314389   0.121   1.559   4.675  1.3938 -1.3268  0.2209
 3654SOL    MW414390   0.092   1.549   4.756 -0.1239  0.0527 -0.0844
 3655SOL     OW14391   0.040   2.780   2.673  0.6363  0.3947  0.8244
 3655SOL    HW214392   0.102   2.816   2.609  1.4667 -0.2843  1.2350
 3655SOL    HW314393   0.092   2.764   2.751 -0.2793  0.7826  1.5285
 3655SOL    MW414394   0.055   2.782   2.675  0.6251  0.3563  0.9714
 3656SOL     OW14395   3.618   5.401   0.875  0.3534 -0.7707  0.0920
 3656SOL    HW214396   3.527   5.379   0.853  0.0393  1.2421 -0.8679
 3656SOL    HW314397   3.613   5.484   0.922  1.7661  0.4968 -1.8098
 3656SOL    MW414398   3.606   5.409   0.878  0.4983 -0.3379 -0.2856
 3657SOL     OW14399   3.182   6.305   1.458  0.2023 -0.1237  0.5419
 3657SOL    HW214400   3.135   6.355   1.524 -0.6469  1.2521 -1.0060
 3657SOL    HW314401   3.271   6.298   1.492 -0.1519  0.7597  1.7144
 3657SOL    MW414402   3.188   6.311   1.471  0.0435  0.1744  0.4924
 3658SOL     OW14403   4.813   4.385   3.666 -0.6599 -0.2271  0.0394
 3658SOL    HW214404   4.889   4.411   3.718 -1.0560 -2.6907  2.0597
 3658SOL    HW314405   4.803   4.291   3.684 -2.7006 -0.5152 -2.1362
 3658SOL    MW414406   4.822   4.376   3.675 -0.9814 -0.5902  0.0189
 3659SOL     OW14407   4.471   5.781   3.176  0.5852 -0.7736  0.3729
 3659SOL    HW214408   4.451   5.837   3.251  2.6104 -0.7335  0.9562
 3659SOL    HW314409   4.566   5.769   3.181  0.9668  0.1682 -2.8633
 3659SOL    MW414410   4.481   5.787   3.187  0.9027 -0.6441  0.0229
 3660SOL     OW14411   4.804   5.903   5.998  0.5248  0.0685  0.0049
 3660SOL    HW214412   4.716   5.924   6.027  0.6175  1.4302 -0.6038
 3660SOL    HW314413   4.854   5.892   6.079  0.0474  0.4559  0.3623
 3660SOL    MW414414   4.799   5.905   6.013  0.4740  0.2993 -0.0283
 3661SOL     OW14415   0.591   5.387   1.960  0.5597 -0.0543  0.3592
 3661SOL    HW214416   0.572   5.294   1.973  0.0625 -0.2013 -1.1769
 3661SOL    HW314417   0.639   5.390   1.877  0.4914  1.0663  0.3469
 3661SOL    MW414418   0.595   5.375   1.950  0.4851  0.0742  0.1549
 3662SOL     OW14419   4.940   0.304   4.166 -0.3371  0.0831 -0.4629
 3662SOL    HW214420   5.026   0.291   4.205  0.0799 -1.2171 -1.7502
 3662SOL    HW314421   4.879   0.293   4.239  0.5110 -0.4489  0.1862
 3662SOL    MW414422   4.943   0.301   4.181 -0.1702 -0.1587 -0.5471
 3663SOL     OW14423   5.032   6.111   3.082  0.0398 -0.2545  0.0572
 3663SOL    HW214424   5.035   6.045   3.013  1.5712  0.7016 -0.8585
 3663SOL    HW314425   4.939   6.119   3.104 -0.4971 -0.6360 -1.8775
 3663SOL    MW414426   5.020   6.104   3.076  0.1710 -0.1787 -0.3189
 3664SOL     OW14427   4.439   6.321   4.314  0.6205  0.6055  0.0571
 3664SOL    HW214428   4.410   6.377   4.386  2.7109  2.2422 -0.2677
 3664SOL    HW314429   4.515   6.366   4.277  1.2529 -1.5216 -1.4853
 3664SOL    MW414430   4.445   6.334   4.318  0.9798  0.5408 -0.1893
 3665SOL     OW14431   0.699   5.086   4.043 -0.2574  0.2068  0.1210
 3665SOL    HW214432   0.713   5.051   4.131 -0.3535  1.4170  0.6449
 3665SOL    HW314433   0.678   5.010   3.990 -0.6128 -0.5013  1.2369
 3665SOL    MW414434   0.698   5.071   4.048 -0.3170  0.2730  0.3373
 3666SOL     OW14435   3.612   4.532   3.127  0.3936  0.3417  0.2448
 3666SOL    HW214436   3.690   4.577   3.096  0.9460 -0.0987  0.9630
 3666SOL    HW314437   3.630   4.439   3.112  0.6061  0.1265  1.6662
 3666SOL    MW414438   3.625   4.526   3.121  0.4945  0.2552  0.5271
 3667SOL     OW14439   1.762   5.281   6.103  0.1785  0.5662 -0.1473
 3667SOL    HW214440   1.729   5.245   6.186 -0.1976 -0.2566 -0.6431
 3667SOL    HW314441   1.736   5.373   6.106 -0.1383  0.4672  0.4997
 3667SOL    MW414442   1.754   5.288   6.115  0.0871  0.4446 -0.1274
 3668SOL     OW14443   4.239   1.648   4.623  0.1969 -0.5807 -0.0207
 3668SOL    HW214444   4.240   1.614   4.534  2.3538 -0.1759 -0.1987
 3668SOL    HW314445   4.327   1.632   4.657  0.3974  1.9940  0.9496
 3668SOL    MW414446   4.250   1.641   4.616  0.5079 -0.1876  0.0838
 3669SOL     OW14447   0.321   5.438   5.501 -0.0203  0.0481 -0.1646
 3669SOL    HW214448   0.279   5.468   5.582  1.9197 -0.0843  0.9592
 3669SOL    HW314449   0.323   5.515   5.445 -0.3549  0.4554  0.3714
 3669SOL    MW414450   0.316   5.452   5.504  0.1915  0.0844  0.0544
 3670SOL     OW14451   5.553   5.594   4.398 -0.2509 -0.6647  0.2179
 3670SOL    HW214452   5.536   5.627   4.487  0.7294 -1.3339  0.6700
 3670SOL    HW314453   5.608   5.661   4.358  0.4940 -1.0276  0.6176
 3670SOL    MW414454   5.558   5.607   4.405 -0.0233 -0.8009  0.3303
 3671SOL     OW14455   2.504   1.187   0.045 -0.1575  0.5949 -0.9377
 3671SOL    HW214456   2.506   1.118  -0.021 -0.7691  0.1392 -0.4902
 3671SOL    HW314457   2.580   1.241   0.025  1.2994 -1.1176 -0.3235
 3671SOL    MW414458   2.514   1.185   0.033 -0.0460  0.3089 -0.7976
 3672SOL     OW14459   0.032   2.301   1.977  0.0999 -0.5887 -0.2607
 3672SOL    HW214460  -0.012   2.376   2.018  2.2799  0.4280  0.3499
 3672SOL    HW314461   0.046   2.239   2.049  1.3106 -0.0722 -0.0217
 3672SOL    MW414462   0.028   2.303   1.992  0.5473 -0.3864 -0.1486
 3673SOL     OW14463   3.309   2.937   0.440  0.1784 -0.0560 -0.4784
 3673SOL    HW214464   3.261   3.019   0.445 -0.3033 -0.4166  1.4037
 3673SOL    HW314465   3.398   2.962   0.414 -0.4660  0.8144 -1.9616
 3673SOL    MW414466   3.314   2.951   0.437  0.0298  0.0112 -0.4258
 3674SOL     OW14467   0.400   2.121   0.722 -0.1543  0.3385  0.1760
 3674SOL    HW214468   0.382   2.212   0.699  0.0155  0.1455 -0.7700
 3674SOL    HW314469   0.493   2.111   0.706 -0.2849 -0.1585 -0.2713
 3674SOL    MW414470   0.410   2.132   0.717 -0.1491  0.2474 -0.0078
 3675SOL     OW14471   1.616   4.356   3.906  0.3068  0.2144 -0.1982
 3675SOL    HW214472   1.696   4.347   3.957  0.2180 -0.0354 -0.1043
 3675SOL    HW314473   1.547   4.369   3.971  0.2928  0.6045 -0.2859
 3675SOL    MW414474   1.617   4.357   3.921  0.2933  0.2329 -0.1974
 3676SOL     OW14475   5.909   4.786   0.101 -0.0706  0.5610  0.4969
 3676SOL    HW214476   5.819   4.778   0.133  0.6341 -0.9055  2.3095
 3676SOL    HW314477   5.946   4.698   0.113  1.0148  0.5406 -2.2226
 3676SOL    MW414478   5.902   4.773   0.107  0.1656  0.3648  0.3773
 3677SOL     OW14479   5.290   0.850   0.308 -0.0222  0.1334  0.1466
 3677SOL    HW214480   5.202   0.822   0.285 -1.1525  1.7725  2.1619
 3677SOL    HW314481   5.319   0.786   0.374 -1.2252  1.5559  2.1700
 3677SOL    MW414482   5.282   0.838   0.314 -0.3300  0.5374  0.6795
 3678SOL     OW14483   4.624   3.236   5.923  0.4233 -0.3028 -0.0659
 3678SOL    HW214484   4.572   3.254   5.845 -1.2261  0.0771  1.0697
 3678SOL    HW314485   4.573   3.171   5.972  0.5234  0.7651  1.5416
 3678SOL    MW414486   4.610   3.230   5.919  0.2189 -0.1117  0.2960
 3679SOL     OW14487   0.340   1.685   5.232 -0.5920  0.8168 -0.2644
 3679SOL    HW214488   0.334   1.711   5.324  0.5645  0.9292 -0.2069
 3679SOL    HW314489   0.349   1.768   5.185 -0.6401  0.7282 -0.4286
 3679SOL    MW414490   0.340   1.700   5.238 -0.4457  0.8199 -0.2785
 3680SOL     OW14491   4.854   1.210   4.352  0.1525  0.2535  0.1898
 3680SOL    HW214492   4.860   1.132   4.295 -1.3954  0.6283 -0.5238
 3680SOL    HW314493   4.826   1.175   4.437 -2.2316  0.1435 -0.5678
 3680SOL    MW414494   4.851   1.195   4.356 -0.3663  0.2885 -0.0043
 3681SOL     OW14495   0.531   3.132   2.189  0.0892 -0.0616 -0.2487
 3681SOL    HW214496   0.533   3.125   2.285  2.3475  1.7683 -0.0515
 3681SOL    HW314497   0.624   3.133   2.164 -0.4599 -0.2917 -2.4372
 3681SOL    MW414498   0.544   3.131   2.199  0.3147  0.1495 -0.5114
 3682SOL     OW14499   5.066   4.144   1.785  0.4714  0.6827 -0.4488
 3682SOL    HW214500   5.057   4.051   1.767 -0.5680 -0.0093  2.9379
 3682SOL    HW314501   5.113   4.179   1.709  2.3123 -2.8554 -1.1455
 3682SOL    MW414502   5.071   4.136   1.772  0.5772  0.1246 -0.0939
 3683SOL     OW14503   1.588   0.167   1.848 -0.0193  0.4977  0.2643
 3683SOL    HW214504   1.588   0.254   1.888  0.0956  0.3282  0.6301
 3683SOL    HW314505   1.549   0.110   1.914 -1.0921  0.4543 -0.3878
 3683SOL    MW414506   1.583   0.171   1.862 -0.1457  0.4696  0.2265
 3684SOL     OW14507   5.119   5.647   0.688 -0.3595  0.2224  0.1819
 3684SOL    HW214508   5.094   5.739   0.683  2.5542  1.1137  0.3845
 3684SOL    HW314509   5.144   5.624   0.599 -1.5514 -0.5759  0.0272
 3684SOL    MW414510   5.119   5.656   0.676 -0.1323  0.2347  0.1882
 3685SOL     OW14511   4.998   0.597   2.664 -0.2786 -0.1334  0.3990
 3685SOL    HW214512   4.981   0.689   2.645  0.8690 -0.0489 -0.3090
 3685SOL    HW314513   4.965   0.550   2.588 -0.6724 -0.3002  0.6669
 3685SOL    MW414514   4.992   0.603   2.652 -0.1791 -0.1442  0.3409
 3686SOL     OW14515   1.282   3.549   5.000  0.0533 -0.3375  0.7245
 3686SOL    HW214516   1.264   3.456   4.989 -1.9107  0.0859 -0.0626
 3686SOL    HW314517   1.200   3.592   4.976  1.0364  1.6212  0.6862
 3686SOL    MW414518   1.269   3.542   4.995 -0.0761 -0.0232  0.6156
 3687SOL     OW14519   3.571   1.095   6.144 -0.0153  0.0533 -0.0788
 3687SOL    HW214520   3.544   1.139   6.064 -0.4299 -0.4103 -0.1952
 3687SOL    HW314521   3.539   1.005   6.135 -1.3089  0.3557  1.2279
 3687SOL    MW414522   3.563   1.089   6.132 -0.2407  0.0321  0.0782
 3688SOL     OW14523   5.340   5.033   5.639  0.1273 -0.2952  0.1420
 3688SOL    HW214524   5.265   4.975   5.626 -0.8929  1.2311 -1.2268
 3688SOL    HW314525   5.325   5.071   5.726 -1.3659  0.8429 -0.5595
 3688SOL    MW414526   5.328   5.030   5.649 -0.2043  0.0564 -0.1312
 3689SOL     OW14527   1.700   5.104   3.883 -0.7229 -0.5495  0.5704
 3689SOL    HW214528   1.622   5.097   3.829 -0.2251  1.5577 -0.5264
 3689SOL    HW314529   1.773   5.083   3.825 -0.1656  1.9024  0.2564
 3689SOL    MW414530   1.700   5.100   3.868 -0.5837  0.0520  0.3843
 3690SOL     OW14531   5.088   5.119   0.161 -0.2865  0.6871 -0.0647
 3690SOL    HW214532   5.036   5.040   0.143  0.3148 -0.0886  1.4083
 3690SOL    HW314533   5.025   5.191   0.152 -1.4586 -0.1599  0.9371
 3690SOL    MW414534   5.073   5.118   0.157 -0.3618  0.4730  0.2618
 3691SOL     OW14535   0.847   1.872   1.525 -0.5089 -0.1341 -0.4874
 3691SOL    HW214536   0.780   1.852   1.590  1.0728 -0.2664  1.1674
 3691SOL    HW314537   0.798   1.890   1.445 -2.5187  0.0022  0.7140
 3691SOL    MW414538   0.832   1.872   1.523 -0.5654 -0.1336 -0.1106
 3692SOL     OW14539   5.240   5.836   1.092  0.4306  0.0059  0.2542
 3692SOL    HW214540   5.224   5.786   1.172 -0.4441 -0.5639 -0.2587
 3692SOL    HW314541   5.281   5.774   1.032  1.6787  0.6090  0.4700
 3692SOL    MW414542   5.243   5.821   1.095  0.4799  0.0103  0.2150
 3693SOL     OW14543   2.357   1.617   4.779 -0.0966 -0.5387  0.0897
 3693SOL    HW214544   2.377   1.528   4.752  0.9892  0.0579 -1.2061
 3693SOL    HW314545   2.443   1.657   4.795 -0.5015  0.5678 -0.4046
 3693SOL    MW414546   2.371   1.611   4.778 -0.0067 -0.3140 -0.1465
 3694SOL     OW14547   1.954   1.869   3.275 -0.1488 -0.1894 -0.0372
 3694SOL    HW214548   2.025   1.805   3.264 -0.1735 -0.6350  1.9313
 3694SOL    HW314549   1.895   1.829   3.338 -2.6827 -0.1961 -2.2436
 3694SOL    MW414550   1.956   1.856   3.282 -0.4864 -0.2491 -0.0686
 3695SOL     OW14551   6.246   1.204   3.568  0.0313 -0.0980  0.2858
 3695SOL    HW214552   6.266   1.113   3.588  1.7716 -0.3161 -1.9322
 3695SOL    HW314553   6.151   1.210   3.574 -0.0304 -1.7277  1.6399
 3695SOL    MW414554   6.236   1.193   3.571  0.2527 -0.3418  0.1718
 3696SOL     OW14555   5.881   4.412   2.658  0.5093 -0.0906 -0.3252
 3696SOL    HW214556   5.812   4.356   2.623  1.0157 -0.6504 -0.4576
 3696SOL    HW314557   5.962   4.368   2.632  0.9523  1.2783 -1.3901
 3696SOL    MW414558   5.883   4.398   2.650  0.6346  0.0161 -0.4831
 3697SOL     OW14559   0.394   4.889   2.815  0.6709 -0.0794 -0.2855
 3697SOL    HW214560   0.397   4.807   2.766  0.6176  0.5394 -1.3403
 3697SOL    HW314561   0.302   4.898   2.840  0.7122 -0.4311  0.0082
 3697SOL    MW414562   0.382   4.880   2.812  0.6693 -0.0441 -0.3859
 3698SOL     OW14563   0.081   5.801   1.604 -0.6383 -0.0770 -0.3395
 3698SOL    HW214564   0.000   5.803   1.553 -0.1345 -1.8246 -1.2945
 3698SOL    HW314565   0.071   5.726   1.663 -0.6927  1.1735  1.3250
 3698SOL    MW414566   0.069   5.791   1.605 -0.5790 -0.1426 -0.2459
 3699SOL     OW14567   3.279   4.410   1.420  0.4601  0.4909  0.3973
 3699SOL    HW214568   3.322   4.398   1.505  1.5998 -1.9230 -0.4158
 3699SOL    HW314569   3.186   4.404   1.440  0.7183 -0.5307  1.4583
 3699SOL    MW414570   3.273   4.407   1.434  0.6445  0.0376  0.4300
 3700SOL     OW14571   5.771   3.825   4.297  0.1259 -0.1358 -0.2290
 3700SOL    HW214572   5.809   3.779   4.223 -0.7823 -0.4750 -0.4998
 3700SOL    HW314573   5.840   3.885   4.326  0.7006 -0.4235 -0.9654
 3700SOL    MW414574   5.785   3.827   4.291  0.0819 -0.2185 -0.3619
 3701SOL     OW14575   0.624   4.663   4.390 -0.4150 -0.4669  0.1024
 3701SOL    HW214576   0.659   4.577   4.366 -1.6085 -0.4067 -2.1423
 3701SOL    HW314577   0.610   4.658   4.485  2.0854 -1.7475  0.4747
 3701SOL    MW414578   0.627   4.651   4.399 -0.2426 -0.6279 -0.1446
 3702SOL     OW14579   2.364   5.255   2.261 -0.0514  0.8283 -0.1608
 3702SOL    HW214580   2.319   5.282   2.341 -0.4353 -0.4251  0.0742
 3702SOL    HW314581   2.415   5.179   2.287 -1.1167 -0.3375 -1.3432
 3702SOL    MW414582   2.365   5.249   2.275 -0.2426  0.5091 -0.2858
 3703SOL     OW14583   2.658   4.157   3.566  0.1986  0.3066 -0.3714
 3703SOL    HW214584   2.585   4.190   3.619 -0.3172  0.3924 -1.1237
 3703SOL    HW314585   2.710   4.235   3.547  0.3784  0.2783 -0.0160
 3703SOL    MW414586   2.655   4.172   3.571  0.1543  0.3142 -0.4237
 3704SOL     OW14587   4.777   1.697   0.906  0.0514  0.1778 -0.3695
 3704SOL    HW214588   4.808   1.779   0.868  0.8458  0.7354  1.3839
 3704SOL    HW314589   4.750   1.721   0.995 -0.5011 -1.3084 -0.1131
 3704SOL    MW414590   4.777   1.711   0.913  0.0833  0.0553 -0.1044
 3705SOL     OW14591   1.153   5.005  -0.022  0.7844  0.7038  0.3180
 3705SOL    HW214592   1.107   4.994  -0.104  0.3962 -0.7442  0.7050
 3705SOL    HW314593   1.230   4.948  -0.029  1.4665  1.5810  0.4539
 3705SOL    MW414594   1.157   4.996  -0.033  0.8232  0.6285  0.3870
 3706SOL     OW14595   0.734   2.852   1.321  0.2028  0.1643 -0.6783
 3706SOL    HW214596   0.760   2.846   1.229  1.4830  1.6070 -0.4473
 3706SOL    HW314597   0.786   2.784   1.364 -0.8027 -0.8858 -1.0676
 3706SOL    MW414598   0.745   2.842   1.315  0.2391  0.2161 -0.6992
 3707SOL     OW14599   2.653   5.528   0.628 -0.2411  0.4421 -0.3519
 3707SOL    HW214600   2.648   5.439   0.593 -1.0398  0.5552 -0.5269
 3707SOL    HW314601   2.646   5.584   0.551  0.2025  0.6669 -0.2351
 3707SOL    MW414602   2.652   5.523   0.613 -0.2880  0.4867 -0.3596
 3708SOL     OW14603   0.474   4.226   0.262 -0.0556  0.1555  0.7155
 3708SOL    HW214604   0.428   4.278   0.196  0.3510 -0.4374 -0.0470
 3708SOL    HW314605   0.566   4.248   0.251 -0.0843  0.9622  1.9103
 3708SOL    MW414606   0.480   4.236   0.252 -0.0058  0.1837  0.7725
 3709SOL     OW14607   3.042   5.773   3.793 -0.1280 -0.0163 -0.2819
 3709SOL    HW214608   3.104   5.714   3.835  0.9569  0.4295 -1.2124
 3709SOL    HW314609   2.975   5.790   3.860  0.6472 -0.6583  0.6680
 3709SOL    MW414610   3.041   5.768   3.807  0.1174 -0.0422 -0.2794
 3710SOL     OW14611   2.828   4.376   3.547  0.3097  0.3910  0.2440
 3710SOL    HW214612   2.923   4.369   3.539  0.3839  2.0889 -1.0753
 3710SOL    HW314613   2.800   4.416   3.465 -1.5540 -0.0642  0.6153
 3710SOL    MW414614   2.837   4.381   3.535  0.0736  0.5550  0.1189
 3711SOL     OW14615   1.519   4.236   0.833  0.3827 -0.1563 -0.4092
 3711SOL    HW214616   1.594   4.190   0.798  0.8076  1.6067 -1.9868
 3711SOL    HW314617   1.545   4.328   0.833 -1.2738  0.3554  0.3420
 3711SOL    MW414618   1.532   4.242   0.829  0.2202  0.1438 -0.5183
 3712SOL     OW14619   5.068   3.403   0.737 -0.2563  0.1718 -0.1066
 3712SOL    HW214620   5.059   3.475   0.800 -0.4587 -1.1471  1.4268
 3712SOL    HW314621   5.014   3.333   0.773  0.1756 -0.8699 -1.4181
 3712SOL    MW414622   5.060   3.404   0.750 -0.2260 -0.1396 -0.0773
 3713SOL     OW14623   3.312   0.621   6.390  0.1252  0.0231 -0.2480
 3713SOL    HW214624   3.226   0.646   6.421  0.2938  2.8319 -1.7788
 3713SOL    HW314625   3.368   0.696   6.409  1.8644 -1.0816 -0.7425
 3713SOL    MW414626   3.308   0.634   6.396  0.3769  0.2479 -0.5152
 3714SOL     OW14627   5.375   4.859   4.322  0.5058  0.1077  0.4966
 3714SOL    HW214628   5.438   4.882   4.390  1.3426  2.7880 -1.0411
 3714SOL    HW314629   5.308   4.928   4.327 -1.5639 -1.8230  1.0710
 3714SOL    MW414630   5.375   4.871   4.332  0.3431  0.2066  0.3695
 3715SOL     OW14631   6.118   0.124   5.387 -0.3996 -0.4822  0.0617
 3715SOL    HW214632   6.198   0.075   5.405 -0.0616  0.1218  0.2141
 3715SOL    HW314633   6.116   0.134   5.292 -0.1203 -0.2047  0.0848
 3715SOL    MW414634   6.128   0.119   5.377 -0.3182 -0.3659  0.0848
 3716SOL     OW14635   4.862   1.938   0.777  0.0081 -0.3266 -0.1328
 3716SOL    HW214636   4.868   1.896   0.691  2.7126  1.7987 -1.1357
 3716SOL    HW314637   4.782   1.990   0.772  0.8905  0.9994 -2.0874
 3716SOL    MW414638   4.852   1.939   0.765  0.4813  0.1288 -0.5230
 3717SOL     OW14639   3.477   0.456   3.127  1.0590  0.4588  0.1253
 3717SOL    HW214640   3.413   0.526   3.141  0.3368  0.2366 -1.7787
 3717SOL    HW314641   3.560   0.502   3.112  0.8802  0.8450  0.3033
 3717SOL    MW414642   3.479   0.471   3.127  0.9402  0.4804 -0.1024
 3718SOL     OW14643   0.372   4.590   5.460  0.2558 -0.2266  0.1629
 3718SOL    HW214644   0.436   4.659   5.442 -1.0521  0.7695 -0.8344
 3718SOL    HW314645   0.356   4.548   5.376 -0.1076 -0.7342  0.4729
 3718SOL    MW414646   0.378   4.593   5.447  0.0353 -0.1622  0.0722
 3719SOL     OW14647   5.296   4.328   6.238 -0.2654 -0.3773 -0.2125
 3719SOL    HW214648   5.356   4.307   6.309  0.5600 -1.0490 -1.0784
 3719SOL    HW314649   5.341   4.299   6.159 -1.5560 -0.5275 -0.9331
 3719SOL    MW414650   5.310   4.321   6.237 -0.3268 -0.4857 -0.4218
 3720SOL     OW14651   2.779   5.637   4.136  0.3423 -0.0452 -0.4881
 3720SOL    HW214652   2.780   5.705   4.068  0.8854  0.1042 -0.3357
 3720SOL    HW314653   2.744   5.560   4.093  1.5800 -0.2287 -1.2182
 3720SOL    MW414654   2.775   5.636   4.122  0.5772 -0.0497 -0.5643
 3721SOL     OW14655   5.527   6.268   1.960 -0.0039 -0.0590  0.1752
 3721SOL    HW214656   5.489   6.342   2.007 -2.2424  0.5002 -2.2937
 3721SOL    HW314657   5.532   6.198   2.026 -1.4972  1.1312  1.6491
 3721SOL    MW414658   5.523   6.268   1.975 -0.4962  0.1718  0.0439
 3722SOL     OW14659   2.690   6.118   3.697 -0.1920  0.3921  0.1529
 3722SOL    HW214660   2.614   6.062   3.681  0.7357 -0.9796  0.3565
 3722SOL    HW314661   2.652   6.204   3.718 -1.8840 -0.9266  3.2944
 3722SOL    MW414662   2.675   6.122   3.698 -0.2928  0.0372  0.5943
 3723SOL     OW14663   4.854   1.115   0.081 -0.2834 -0.4328 -0.7105
 3723SOL    HW214664   4.877   1.061   0.156  0.1773  1.4602  0.5685
 3723SOL    HW314665   4.915   1.088   0.012 -0.6777 -2.1525 -0.4302
 3723SOL    MW414666   4.865   1.104   0.082 -0.2747 -0.4100 -0.5048
 3724SOL     OW14667   5.914   1.448   4.174 -0.3783 -0.0094 -0.1282
 3724SOL    HW214668   5.893   1.540   4.161 -0.7407  0.0463  0.7705
 3724SOL    HW314669   5.961   1.445   4.257 -1.5040 -0.7629  0.5277
 3724SOL    MW414670   5.917   1.459   4.183 -0.5747 -0.1014  0.0769
 3725SOL     OW14671   0.812   5.258   2.197  0.0416 -0.8893  0.0937
 3725SOL    HW214672   0.720   5.268   2.221  0.2671 -1.1506  1.1210
 3725SOL    HW314673   0.810   5.227   2.107 -0.8913 -1.2384  0.2263
 3725SOL    MW414674   0.800   5.255   2.188 -0.0518 -0.9698  0.2467
 3726SOL     OW14675   5.914   1.585   4.787  0.0957 -0.0562 -0.3533
 3726SOL    HW214676   5.928   1.490   4.781  1.3104  0.1814 -2.7579
 3726SOL    HW314677   5.971   1.614   4.858 -1.7904 -1.2873  1.8083
 3726SOL    MW414678   5.923   1.576   4.795  0.0071 -0.1873 -0.3853
 3727SOL     OW14679   0.138   3.532   1.545  0.3798  0.2542 -0.0450
 3727SOL    HW214680   0.107   3.441   1.543 -1.5037  0.8087  1.3273
 3727SOL    HW314681   0.154   3.549   1.638 -1.3513  1.9307  0.0114
 3727SOL    MW414682   0.136   3.522   1.557 -0.0971  0.5485  0.1435
 3728SOL     OW14683   0.474   5.834   0.557  0.0313  0.0027  0.1550
 3728SOL    HW214684   0.548   5.859   0.501  0.1704  0.5880  0.5882
 3728SOL    HW314685   0.397   5.843   0.500  0.0391  1.7751  0.3553
 3728SOL    MW414686   0.473   5.839   0.542  0.0507  0.3138  0.2386
 3729SOL     OW14687   1.944   2.788   3.684 -0.2748  0.0331 -0.0568
 3729SOL    HW214688   2.034   2.755   3.672 -0.0034 -0.2307  2.2811
 3729SOL    HW314689   1.906   2.729   3.748 -1.5531  1.2076  0.2932
 3729SOL    MW414690   1.951   2.776   3.691 -0.4077  0.1533  0.2978
 3730SOL     OW14691   6.401   5.970   0.473 -0.5751  0.7125 -0.7911
 3730SOL    HW214692   6.395   5.879   0.444  3.1474 -0.0544  0.3196
 3730SOL    HW314693   6.323   6.011   0.437 -4.2739 -3.5324  1.3573
 3730SOL    MW414694   6.390   5.963   0.464 -0.5719  0.0513 -0.3611
 3731SOL     OW14695   1.223   5.016   0.487  0.0322  1.2031 -0.0316
 3731SOL    HW214696   1.138   5.014   0.442 -1.9475 -2.1373  3.3157
 3731SOL    HW314697   1.254   4.926   0.483  1.0687  1.3574  2.8045
 3731SOL    MW414698   1.216   5.004   0.480 -0.0922  0.7827  0.7842
 3732SOL     OW14699   5.202   0.746   6.376 -0.1042  0.5474  0.3790
 3732SOL    HW214700   5.294   0.771   6.385 -0.2297  0.4835  2.1235
 3732SOL    HW314701   5.166   0.812   6.317  1.0122  0.6605 -0.2101
 3732SOL    MW414702   5.209   0.758   6.369  0.0266  0.5539  0.5314
 3733SOL     OW14703   2.666   1.495   3.720  0.3998 -0.1577 -0.2912
 3733SOL    HW214704   2.631   1.465   3.636  0.1311 -0.3544 -0.1104
 3733SOL    HW314705   2.589   1.516   3.772  0.5573 -0.3933  0.0370
 3733SOL    MW414706   2.651   1.494   3.715  0.3851 -0.2148 -0.2240
 3734SOL     OW14707   5.305   3.409   2.574  0.0033 -0.0873  0.0741
 3734SOL    HW214708   5.373   3.369   2.520 -0.8204 -1.2340 -0.1472
 3734SOL    HW314709   5.348   3.428   2.657  0.8402  0.0943 -0.3925
 3734SOL    MW414710   5.319   3.406   2.578  0.0051 -0.2146 -0.0167
 3735SOL     OW14711   4.301   6.024   3.700  0.1543 -0.4763  0.0612
 3735SOL    HW214712   4.303   6.013   3.605  1.7699 -0.2111  0.0291
 3735SOL    HW314713   4.335   5.941   3.735 -0.3500 -0.5429  0.4150
 3735SOL    MW414714   4.306   6.011   3.692  0.3009 -0.4501  0.1037
 3736SOL     OW14715   5.226   2.996   2.674  0.3410 -0.2877 -0.7633
 3736SOL    HW214716   5.216   3.090   2.684 -0.7885 -0.3450 -1.1900
 3736SOL    HW314717   5.149   2.969   2.623  0.7683 -1.4000 -0.8456
 3736SOL    MW414718   5.214   3.004   2.668  0.2483 -0.4420 -0.8304
 3737SOL     OW14719   5.457   0.060   1.112  0.6930  0.1150 -0.4595
 3737SOL    HW214720   5.411   0.106   1.183  0.7027 -1.4261  0.6018
 3737SOL    HW314721   5.401  -0.015   1.093  1.8141 -0.7259 -0.4994
 3737SOL    MW414722   5.444   0.056   1.119  0.8422 -0.1993 -0.3247
 3738SOL     OW14723   6.027   2.310   5.103 -0.1406  0.5636 -0.1639
 3738SOL    HW214724   6.083   2.302   5.026 -2.1156  1.1974 -1.7308
 3738SOL    HW314725   6.039   2.401   5.132 -0.9419  0.9518 -1.0034
 3738SOL    MW414726   6.036   2.321   5.097 -0.5069  0.6984 -0.4814
 3739SOL     OW14727   0.704   4.370   0.224  0.1906 -0.4012 -0.2623
 3739SOL    HW214728   0.688   4.462   0.247 -1.0687 -0.8300  0.7276
 3739SOL    HW314729   0.733   4.373   0.133  0.4573  1.0019 -0.1647
 3739SOL    MW414730   0.705   4.383   0.215  0.0597 -0.2726 -0.1188
 3740SOL     OW14731   4.840   1.732   6.068 -0.0139 -0.7486  0.0670
 3740SOL    HW214732   4.755   1.704   6.034 -0.2868  0.4235 -0.2625
 3740SOL    HW314733   4.838   1.709   6.161 -1.0308  0.0260  0.2521
 3740SOL    MW414734   4.828   1.725   6.075 -0.1840 -0.4917  0.0480
 3741SOL     OW14735   3.126   5.475   3.266 -0.4096  0.1494  0.4863
 3741SOL    HW214736   3.193   5.543   3.274 -0.0236 -0.2259  0.4637
 3741SOL    HW314737   3.044   5.519   3.290 -0.1963  0.6770  0.2594
 3741SOL    MW414738   3.124   5.490   3.270 -0.3305  0.1695  0.4534
 3742SOL     OW14739   5.723   2.603   0.127 -0.0457  0.3434  0.3231
 3742SOL    HW214740   5.695   2.688   0.162 -1.0678  0.1025  0.1303
 3742SOL    HW314741   5.731   2.617   0.033  1.8331  0.7539  0.5005
 3742SOL    MW414742   5.721   2.616   0.119  0.0673  0.3658  0.3211
 3743SOL     OW14743   4.833   2.798   4.089  0.1776 -0.0681 -0.1392
 3743SOL    HW214744   4.845   2.783   3.995  0.4507 -3.1384  0.2682
 3743SOL    HW314745   4.918   2.778   4.128 -0.1527  0.3745  0.8420
 3743SOL    MW414746   4.846   2.793   4.081  0.1701 -0.4148  0.0440
 3744SOL     OW14747   1.321   5.019   4.884  0.5261  0.0526  0.1023
 3744SOL    HW214748   1.284   4.992   4.968  2.0439  1.9957  1.4973
 3744SOL    HW314749   1.415   5.028   4.901  0.8766  0.4521 -1.8211
 3744SOL    MW414750   1.329   5.017   4.897  0.7726  0.3617  0.0326
 3745SOL     OW14751   5.902   1.178   2.688  0.2846 -0.2137 -0.1878
 3745SOL    HW214752   5.935   1.261   2.653 -1.2456  0.5196  0.0346
 3745SOL    HW314753   5.973   1.146   2.743  1.7437 -0.1371 -1.9217
 3745SOL    MW414754   5.916   1.185   2.690  0.2752 -0.1068 -0.3872
 3746SOL     OW14755   3.706   1.418   0.136 -0.8119  0.2580  0.7003
 3746SOL    HW214756   3.675   1.342   0.086  0.1308  0.4014 -0.1263
 3746SOL    HW314757   3.660   1.493   0.097  0.1710  0.4112 -0.2044
 3746SOL    MW414758   3.696   1.418   0.124 -0.5579  0.2971  0.4719
 3747SOL     OW14759   4.116   6.308   3.025 -0.2021  0.1329 -0.1630
 3747SOL    HW214760   4.069   6.248   2.967 -0.0506  0.2937 -0.4478
 3747SOL    HW314761   4.186   6.255   3.063 -0.2332  0.0575 -0.2114
 3747SOL    MW414762   4.119   6.293   3.023 -0.1862  0.1442 -0.2069
 3748SOL     OW14763   3.835   3.035   3.758 -0.0652 -0.8639  0.0019
 3748SOL    HW214764   3.804   3.114   3.715  0.5146 -1.1639 -0.9983
 3748SOL    HW314765   3.899   3.065   3.821  0.0646 -0.5235 -0.2918
 3748SOL    MW414766   3.839   3.049   3.761  0.0284 -0.8586 -0.1688
 3749SOL     OW14767   3.110   2.174   4.128 -0.1368  0.2362 -0.0209
 3749SOL    HW214768   3.086   2.227   4.051 -0.6789 -0.7241 -0.5370
 3749SOL    HW314769   3.061   2.214   4.200  0.3796  1.1513 -0.1625
 3749SOL    MW414770   3.100   2.186   4.127 -0.1402  0.2302 -0.1077
 3750SOL     OW14771   2.925   2.107   0.077 -0.3767  0.1395  0.5113
 3750SOL    HW214772   2.866   2.134   0.006 -0.0173  1.1763  0.5898
 3750SOL    HW314773   2.866   2.081   0.148 -0.7556 -1.6773 -0.4045
 3750SOL    MW414774   2.910   2.107   0.077 -0.3793  0.0366  0.4009
 3751SOL     OW14775   1.567   2.746   6.023  0.3847  0.1329  1.0860
 3751SOL    HW214776   1.571   2.705   5.937 -2.7832 -0.6481  1.2047
 3751SOL    HW314777   1.636   2.702   6.073 -0.1612 -2.1395 -0.0079
 3751SOL    MW414778   1.577   2.735   6.018 -0.1053 -0.2699  0.9573
 3752SOL     OW14779   3.940   4.296   5.196 -0.0874 -0.1315  0.3264
 3752SOL    HW214780   3.928   4.204   5.171 -0.3005 -0.1764  0.5793
 3752SOL    HW314781   3.958   4.292   5.290 -0.1682  0.0914  0.3510
 3752SOL    MW414782   3.941   4.283   5.205 -0.1262 -0.1080  0.3630
 3753SOL     OW14783   0.427   4.070   4.180 -0.3306  0.1106 -0.0275
 3753SOL    HW214784   0.364   4.013   4.224  0.8521  0.2025  1.8694
 3753SOL    HW314785   0.458   4.017   4.106 -1.8126 -0.3260 -0.3857
 3753SOL    MW414786   0.422   4.056   4.176 -0.3701  0.0651  0.1756
 3754SOL     OW14787   3.672   6.228   2.528 -0.2601  0.1955 -0.3175
 3754SOL    HW214788   3.713   6.266   2.450  1.5801 -0.3993  0.3027
 3754SOL    HW314789   3.697   6.135   2.526 -2.2316 -0.3849 -0.2689
 3754SOL    MW414790   3.681   6.221   2.517 -0.2774  0.0404 -0.2292
 3755SOL     OW14791   0.513   4.137   3.405 -0.5556  0.4306  0.9610
 3755SOL    HW214792   0.600   4.175   3.396 -0.2256 -0.5950 -0.5026
 3755SOL    HW314793   0.454   4.212   3.397  0.1493  0.9328  0.2335
 3755SOL    MW414794   0.517   4.152   3.403 -0.4191  0.3615  0.6719
 3756SOL     OW14795   1.976   5.101   6.136  0.1383 -0.2515 -0.7444
 3756SOL    HW214796   2.046   5.150   6.180  0.7289 -0.8730 -0.9762
 3756SOL    HW314797   1.918   5.169   6.102  0.1691  0.2546  0.1858
 3756SOL    MW414798   1.978   5.116   6.137  0.2203 -0.2667 -0.6523
 3757SOL     OW14799   0.153   2.076   2.118 -0.1635  0.1732  0.1645
 3757SOL    HW214800   0.241   2.112   2.105  1.6515 -3.2222  1.7432
 3757SOL    HW314801   0.133   2.095   2.209 -0.0077 -1.0171  0.4631
 3757SOL    MW414802   0.162   2.083   2.128  0.0966 -0.4318  0.4122
 3758SOL     OW14803   6.248   2.654   2.755  0.0252 -0.4898  0.1059
 3758SOL    HW214804   6.330   2.690   2.721  0.1488  0.0406  0.9314
 3758SOL    HW314805   6.274   2.597   2.827 -0.3312 -0.2317  0.4472
 3758SOL    MW414806   6.262   2.651   2.760 -0.0055 -0.3858  0.2598
 3759SOL     OW14807   4.624   1.451   3.385 -0.0293  0.3820 -0.1786
 3759SOL    HW214808   4.623   1.357   3.398 -1.3584  0.3153 -0.5838
 3759SOL    HW314809   4.667   1.486   3.463  0.6336 -0.5517 -0.1090
 3759SOL    MW414810   4.630   1.444   3.397 -0.1172  0.2500 -0.2229
 3760SOL     OW14811   1.519   2.094   0.964  0.2275  0.1461 -0.3503
 3760SOL    HW214812   1.477   2.070   0.881  0.8029 -0.0941 -0.5743
 3760SOL    HW314813   1.612   2.084   0.947  0.6568  3.4822 -0.7832
 3760SOL    MW414814   1.526   2.090   0.950  0.3600  0.5546 -0.4369
 3761SOL     OW14815   3.689   4.452   1.079  0.2991 -0.1263  0.3320
 3761SOL    HW214816   3.636   4.382   1.042  1.5008 -0.3922 -0.9272
 3761SOL    HW314817   3.625   4.508   1.125 -1.1385 -0.2249 -1.4436
 3761SOL    MW414818   3.673   4.450   1.080  0.2680 -0.1744 -0.0684
 3762SOL     OW14819   0.080   1.534   5.211 -0.3192 -0.2209 -0.5753
 3762SOL    HW214820   0.157   1.587   5.191 -0.8424 -0.5116 -3.8352
 3762SOL    HW314821   0.108   1.444   5.198 -0.6217 -0.4999  0.5903
 3762SOL    MW414822   0.094   1.529   5.207 -0.4281 -0.2961 -0.8516
 3763SOL     OW14823   2.968   2.631   5.679  0.2657  0.2001  0.4925
 3763SOL    HW214824   3.029   2.692   5.720 -1.3301  1.7137  0.7516
 3763SOL    HW314825   2.910   2.603   5.751 -1.1363  1.1032 -0.2390
 3763SOL    MW414826   2.968   2.635   5.694 -0.1298  0.5190  0.4302
 3764SOL     OW14827   2.167   1.436   1.896  0.3573 -0.1679  0.3539
 3764SOL    HW214828   2.158   1.342   1.883  0.5789 -0.3126  1.1927
 3764SOL    HW314829   2.079   1.465   1.922  0.0615  0.0255 -0.7646
 3764SOL    MW414830   2.154   1.428   1.897  0.3475 -0.1615  0.3170
 3765SOL     OW14831   5.549   1.742   1.768 -1.0102  0.0160  0.2258
 3765SOL    HW214832   5.548   1.767   1.676 -1.3095 -2.1450 -0.4220
 3765SOL    HW314833   5.505   1.657   1.770 -0.0047 -0.5228  2.1902
 3765SOL    MW414834   5.543   1.734   1.756 -0.9170 -0.3402  0.3995
 3766SOL     OW14835   3.384   0.021   5.671  0.2309  0.5050  0.0604
 3766SOL    HW214836   3.308   0.032   5.729 -1.1647 -0.2562 -1.5511
 3766SOL    HW314837   3.456   0.001   5.731 -1.1518 -0.3299  1.5549
 3766SOL    MW414838   3.384   0.020   5.687 -0.1357  0.2944  0.0450
 3767SOL     OW14839   5.297   4.846   2.398 -0.2477  0.8412 -0.4320
 3767SOL    HW214840   5.371   4.874   2.452 -0.0842  1.6557 -1.0615
 3767SOL    HW314841   5.296   4.908   2.325 -1.3693  0.6590 -0.5853
 3767SOL    MW414842   5.307   4.858   2.395 -0.3741  0.9246 -0.5353
 3768SOL     OW14843   2.288   1.873   1.966  0.2147  0.3668 -0.2246
 3768SOL    HW214844   2.250   1.823   1.894  0.8557  3.2941 -2.8211
 3768SOL    HW314845   2.217   1.881   2.030 -0.9878 -0.8192 -1.3481
 3768SOL    MW414846   2.274   1.867   1.965  0.1406  0.5966 -0.7154
 3769SOL     OW14847   1.810   6.220   2.036  0.6382  0.2892  0.5657
 3769SOL    HW214848   1.841   6.280   2.104  1.7541  1.5122 -0.9603
 3769SOL    HW314849   1.872   6.230   1.964 -0.5748 -0.8596 -0.7113
 3769SOL    MW414850   1.822   6.229   2.036  0.6254  0.2990  0.1959
 3770SOL     OW14851   5.354   0.293   5.510 -0.3904  0.0871  0.0057
 3770SOL    HW214852   5.416   0.228   5.544 -0.8136 -0.7220 -0.7293
 3770SOL    HW314853   5.269   0.251   5.516 -0.9853  1.4207  1.5584
 3770SOL    MW414854   5.351   0.279   5.515 -0.5247  0.1563  0.1136
 3771SOL     OW14855   2.097   3.317   3.280 -0.5356  0.6507  0.6540
 3771SOL    HW214856   2.032   3.251   3.256  0.1244  0.2134  0.0354
 3771SOL    HW314857   2.135   3.284   3.362  0.9240 -0.6179 -0.4634
 3771SOL    MW414858   2.094   3.304   3.288 -0.2559  0.4256  0.4250
 3772SOL     OW14859   1.645   0.904   5.094 -0.4151  0.5483 -0.1879
 3772SOL    HW214860   1.650   0.880   5.002  0.7031  1.2068 -0.3271
 3772SOL    HW314861   1.646   1.000   5.094  0.7475  0.5598  0.5304
 3772SOL    MW414862   1.646   0.914   5.082 -0.1141  0.6367 -0.1115
 3773SOL     OW14863   6.106   5.501   5.026  0.0035  0.4724  0.1434
 3773SOL    HW214864   6.051   5.483   4.949  0.5380  0.9186 -0.3507
 3773SOL    HW314865   6.049   5.483   5.101  0.1361 -2.2392 -0.2953
 3773SOL    MW414866   6.091   5.496   5.026  0.0915  0.1735  0.0203
 3774SOL     OW14867   6.194   0.468   5.928 -0.2633  0.4914  0.1808
 3774SOL    HW214868   6.190   0.563   5.914  1.3921  0.6499  0.6066
 3774SOL    HW314869   6.245   0.458   6.008 -0.7054 -0.7684  0.3222
 3774SOL    MW414870   6.200   0.480   5.936 -0.1032  0.3461  0.2557
 3775SOL     OW14871   4.971   1.505   4.646  0.6330 -0.5198  0.1653
 3775SOL    HW214872   4.934   1.420   4.670  1.9771 -1.5246 -1.1738
 3775SOL    HW314873   5.000   1.495   4.556  2.7143  0.6825  0.6198
 3775SOL    MW414874   4.970   1.493   4.638  1.0849 -0.4937  0.0486
 3776SOL     OW14875   5.101   4.210   2.890 -0.3757 -0.2316 -0.0364
 3776SOL    HW214876   5.163   4.145   2.857  0.7782  1.4277 -1.3237
 3776SOL    HW314877   5.108   4.203   2.985  1.9389 -0.0198 -0.1267
 3776SOL    MW414878   5.110   4.200   2.898  0.0819  0.0153 -0.2182
 3777SOL     OW14879   2.537   3.231   0.863  0.1878 -0.6625  0.0409
 3777SOL    HW214880   2.613   3.173   0.873  1.3810  0.7590 -0.5408
 3777SOL    HW314881   2.530   3.246   0.769  0.3378  0.6930  0.2324
 3777SOL    MW414882   2.546   3.225   0.852  0.3650 -0.2961 -0.0106
 3778SOL     OW14883   6.345   6.408   3.482 -0.2424  0.0192 -0.3856
 3778SOL    HW214884   6.264   6.410   3.431  0.0607  0.0783 -0.8678
 3778SOL    HW314885   6.395   6.483   3.451 -0.5944  0.8356  0.9137
 3778SOL    MW414886   6.341   6.418   3.472 -0.2488  0.1347 -0.2778
 3779SOL     OW14887   0.690   3.839   5.916 -0.0908 -0.1836 -0.1887
 3779SOL    HW214888   0.683   3.909   5.852 -0.2722  1.0905  1.1561
 3779SOL    HW314889   0.754   3.778   5.879 -1.7421 -0.6176 -2.5256
 3779SOL    MW414890   0.698   3.840   5.903 -0.3326 -0.0728 -0.3196
 3780SOL     OW14891   0.476   2.136   5.522 -0.4139 -0.7333 -0.3196
 3780SOL    HW214892   0.514   2.088   5.595  0.0341 -1.1847 -0.8328
 3780SOL    HW314893   0.407   2.079   5.489 -0.0365 -0.9422 -0.7823
 3780SOL    MW414894   0.472   2.122   5.527 -0.3050 -0.8204 -0.4484
 3781SOL     OW14895   5.350   2.958   6.043 -0.5582  0.2215 -0.1589
 3781SOL    HW214896   5.256   2.955   6.061 -0.2232  0.7122  1.9197
 3781SOL    HW314897   5.375   2.867   6.026 -1.1380 -0.1290  0.8332
 3781SOL    MW414898   5.341   2.946   6.043 -0.5905  0.2400  0.2462
 3782SOL     OW14899   5.711   0.758   2.787 -0.7427 -0.6467 -0.1857
 3782SOL    HW214900   5.741   0.832   2.735 -0.4606  0.1688  1.0896
 3782SOL    HW314901   5.746   0.774   2.874 -0.1208 -2.6366 -0.0122
 3782SOL    MW414902   5.719   0.770   2.792 -0.6235 -0.8017  0.0055
 3783SOL     OW14903   2.481   3.845   4.612 -0.3537  0.3502 -0.3667
 3783SOL    HW214904   2.406   3.797   4.577  0.4673 -1.0121 -0.3551
 3783SOL    HW314905   2.503   3.798   4.693  1.5291 -0.3677 -1.2209
 3783SOL    MW414906   2.474   3.832   4.618  0.0030  0.0758 -0.4779
 3784SOL     OW14907   0.274   5.815   1.298  0.2220  0.1429 -0.0282
 3784SOL    HW214908   0.231   5.828   1.213  0.6366  0.0259 -0.2581
 3784SOL    HW314909   0.272   5.901   1.340 -2.2944 -0.3049  0.9592
 3784SOL    MW414910   0.268   5.828   1.292 -0.0553  0.0683  0.0717
 3785SOL     OW14911   0.588   6.414   5.721  0.0747 -0.3414 -0.1224
 3785SOL    HW214912   0.547   6.336   5.756 -1.7328  1.0262  0.9837
 3785SOL    HW314913   0.531   6.442   5.650 -0.3681  0.9477  0.6908
 3785SOL    MW414914   0.575   6.408   5.716 -0.2222  0.0091  0.1308
 3786SOL     OW14915   1.108   3.550  -0.009 -0.3709 -0.4693 -0.9899
 3786SOL    HW214916   1.147   3.509   0.069  0.8672  2.7122  0.2426
 3786SOL    HW314917   1.028   3.591   0.023 -0.2370  0.2523 -1.5564
 3786SOL    MW414918   1.102   3.550   0.006 -0.1899  0.0457 -0.9020
 3787SOL     OW14919   4.730   3.783   1.480  0.5961 -0.6258  0.2998
 3787SOL    HW214920   4.782   3.704   1.465 -0.6226 -1.3502 -0.2819
 3787SOL    HW314921   4.679   3.765   1.558  0.2190 -0.4639  0.0952
 3787SOL    MW414922   4.731   3.770   1.488  0.3855 -0.7000  0.1961
 3788SOL     OW14923   3.244   3.282   1.326  0.3922 -0.2213  0.1936
 3788SOL    HW214924   3.262   3.294   1.233 -1.2960 -0.0117 -0.1410
 3788SOL    HW314925   3.227   3.188   1.335 -0.1810 -0.1258  0.1393
 3788SOL    MW414926   3.244   3.271   1.315  0.0938 -0.1810  0.1423
 3789SOL     OW14927   0.075   1.989   0.115  0.0957 -0.4607 -0.5082
 3789SOL    HW214928   0.128   1.922   0.157  0.4723  0.3855  0.3946
 3789SOL    HW314929   0.102   1.987   0.023  2.2715  0.4492  0.0547
 3789SOL    MW414930   0.085   1.980   0.108  0.4325 -0.2290 -0.3148
 3790SOL     OW14931   3.681   1.723   5.015 -0.6466 -0.2033  0.1890
 3790SOL    HW214932   3.710   1.641   4.973 -1.7789 -0.4296 -0.1793
 3790SOL    HW314933   3.601   1.700   5.061 -1.3829  0.8580 -0.5206
 3790SOL    MW414934   3.674   1.709   5.015 -0.8932 -0.0931  0.0468
 3791SOL     OW14935   0.278   4.575   6.104 -0.2477 -0.3693 -0.1963
 3791SOL    HW214936   0.337   4.646   6.079  1.3281 -1.2730  0.8429
 3791SOL    HW314937   0.195   4.619   6.122  0.6747  1.2269  0.4276
 3791SOL    MW414938   0.275   4.590   6.103  0.0819 -0.2779  0.0231
 3792SOL     OW14939   3.827   2.103   3.500 -0.0478  0.6751 -0.3297
 3792SOL    HW214940   3.865   2.125   3.415 -2.2469  1.5363 -1.1521
 3792SOL    HW314941   3.763   2.035   3.481  0.0292  0.2715  0.7863
 3792SOL    MW414942   3.824   2.097   3.487 -0.3278  0.7355 -0.2909
 3793SOL     OW14943   5.007   4.960   5.001 -0.2166 -0.1633  0.2052
 3793SOL    HW214944   5.003   4.870   4.968 -1.7571  0.5311 -1.7492
 3793SOL    HW314945   4.918   4.994   4.989  0.7073  2.1400 -0.8328
 3793SOL    MW414946   4.995   4.952   4.995 -0.2980  0.2322 -0.1896
 3794SOL     OW14947   1.331   0.249   1.044 -0.2522  0.5203  0.4422
 3794SOL    HW214948   1.396   0.319   1.054 -0.5420  0.5299  2.8533
 3794SOL    HW314949   1.251   0.295   1.018  0.0879  0.7997 -0.1315
 3794SOL    MW414950   1.329   0.265   1.042 -0.2456  0.5584  0.6846
 3795SOL     OW14951   2.986   0.750   2.329 -0.8455  0.5232  0.4989
 3795SOL    HW214952   3.053   0.754   2.261  0.0682 -1.0663  1.2591
 3795SOL    HW314953   2.975   0.657   2.347 -2.5387  0.8045  1.1176
 3795SOL    MW414954   2.993   0.739   2.322 -0.9483  0.3506  0.6808
 3796SOL     OW14955   4.579   1.282   1.843 -0.5274 -0.2689  0.6100
 3796SOL    HW214956   4.542   1.211   1.789  0.3590  0.4480 -1.0254
 3796SOL    HW314957   4.644   1.323   1.786  0.5225  0.5001  2.2908
 3796SOL    MW414958   4.583   1.278   1.828 -0.2719 -0.0729  0.6160
 3797SOL     OW14959   2.099   4.782   2.727 -0.1245 -0.5213 -0.5607
 3797SOL    HW214960   2.159   4.726   2.679 -1.1962 -0.7216 -1.7201
 3797SOL    HW314961   2.155   4.845   2.772  1.0293 -1.8363 -0.1270
 3797SOL    MW414962   2.114   4.783   2.726 -0.1137 -0.7212 -0.6564
 3798SOL     OW14963   2.913   5.508   2.571  0.0908 -0.5165  0.1057
 3798SOL    HW214964   2.818   5.510   2.563 -0.2035 -1.3223  2.5182
 3798SOL    HW314965   2.933   5.418   2.596  0.9691  0.5146  3.7553
 3798SOL    MW414966   2.903   5.496   2.573  0.1678 -0.4868  0.9055
 3799SOL     OW14967   4.456   3.956   4.760  0.2891  0.0759  0.3819
 3799SOL    HW214968   4.415   4.042   4.771  0.0856  0.0546 -0.1804
 3799SOL    HW314969   4.517   3.949   4.834  0.5255  0.8299  0.2720
 3799SOL    MW414970   4.459   3.967   4.771  0.2934  0.1726  0.2932
 3800SOL     OW14971   4.863   2.737   1.252 -0.2817 -0.2045 -0.7019
 3800SOL    HW214972   4.841   2.719   1.343  0.0641  3.0096  0.1578
 3800SOL    HW314973   4.952   2.770   1.255 -0.6018  0.8682 -2.0369
 3800SOL    MW414974   4.872   2.739   1.264 -0.2783  0.3611 -0.7646
 3801SOL     OW14975   6.299   0.677   5.289  0.3877 -0.2049  0.0093
 3801SOL    HW214976   6.371   0.648   5.234  0.9950 -0.5205  0.9435
 3801SOL    HW314977   6.335   0.675   5.378 -0.5744  0.2571  0.4205
 3801SOL    MW414978   6.313   0.673   5.294  0.3409 -0.1856  0.1868
 3802SOL     OW14979   3.053   1.841   2.347 -0.2401  0.4170  0.0660
 3802SOL    HW214980   3.073   1.794   2.428 -1.7972  2.6796  1.8890
 3802SOL    HW314981   3.087   1.930   2.363 -1.6103  1.2127 -1.2849
 3802SOL    MW414982   3.060   1.847   2.360 -0.6263  0.8205  0.1283
 3803SOL     OW14983   2.903   3.473   2.074 -0.2914 -0.4551  0.5083
 3803SOL    HW214984   2.920   3.414   2.147  1.2192  0.1391  0.6803
 3803SOL    HW314985   2.971   3.452   2.010 -0.4867  0.2659  0.0569
 3803SOL    MW414986   2.914   3.463   2.076 -0.1178 -0.2816  0.4714
 3804SOL     OW14987   3.125   5.334   4.127  0.5004  0.2520  0.5584
 3804SOL    HW214988   3.164   5.289   4.051  0.6104  1.4619 -0.1333
 3804SOL    HW314989   3.086   5.265   4.178  2.5406 -0.9066  0.6656
 3804SOL    MW414990   3.125   5.319   4.123  0.7841  0.2588  0.4813
 3805SOL     OW14991   2.210   1.494   0.367 -0.1996  0.3526 -0.1634
 3805SOL    HW214992   2.256   1.475   0.449 -1.1158 -2.9786 -0.2767
 3805SOL    HW314993   2.257   1.443   0.301 -1.1421  0.7546 -1.1650
 3805SOL    MW414994   2.223   1.485   0.369 -0.4448 -0.0338 -0.3105
 3806SOL     OW14995   3.174   0.055   5.851  0.0897  0.1037 -0.0204
 3806SOL    HW214996   3.159  -0.008   5.922  1.7134 -1.4763 -1.0096
 3806SOL    HW314997   3.175   0.140   5.895 -0.2320 -0.7164  1.6627
 3806SOL    MW414998   3.172   0.058   5.866  0.2615 -0.2130  0.0712
 3807SOL     OW14999   4.436   1.638   2.019 -0.0129  0.3473  0.1279
 3807SOL    HW215000   4.387   1.648   2.101  0.9616  0.1370  0.7592
 3807SOL    HW315001   4.526   1.622   2.047  0.2401 -0.2912 -0.9872
 3807SOL    MW415002   4.442   1.637   2.034  0.1491  0.2353  0.0641
 3808SOL     OW15003   2.662   0.956   0.139  0.3639  0.0418  0.8220
 3808SOL    HW215004   2.663   1.040   0.093  1.1392  0.2280  1.1472
 3808SOL    HW315005   2.720   0.970   0.215  1.2092 -1.0425  0.4096
 3808SOL    MW415006   2.670   0.969   0.143  0.5777 -0.0767  0.8105
 3809SOL     OW15007   0.595   5.318   3.197  1.1265 -0.1079 -0.0898
 3809SOL    HW215008   0.593   5.411   3.173  1.4123 -0.3139 -0.9483
 3809SOL    HW315009   0.666   5.282   3.145  1.5166 -0.6648  0.8120
 3809SOL    MW415010   0.604   5.326   3.187  1.2157 -0.2086 -0.0841
 3810SOL     OW15011   2.334   5.006   5.426  0.0816  0.4585 -0.3385
 3810SOL    HW215012   2.394   4.950   5.377  0.5805  1.3017 -0.7046
 3810SOL    HW315013   2.250   4.994   5.384  0.2820  0.3389 -0.7072
 3810SOL    MW415014   2.331   4.997   5.414  0.1738  0.5540 -0.4354
 3811SOL     OW15015   1.173   1.952   1.497 -0.4744 -0.3834 -0.2729
 3811SOL    HW215016   1.161   1.912   1.584  0.0293 -2.3018 -1.0310
 3811SOL    HW315017   1.206   1.881   1.443 -0.1185  0.9634 -1.8884
 3811SOL    MW415018   1.175   1.937   1.502 -0.3610 -0.4588 -0.5861
 3812SOL     OW15019   0.062   4.701   4.562  0.2822 -0.4977 -0.1109
 3812SOL    HW215020  -0.008   4.692   4.627  0.5891  0.9770  0.4716
 3812SOL    HW315021   0.058   4.620   4.511 -2.4977 -0.0538 -0.7533
 3812SOL    MW415022   0.052   4.689   4.564 -0.0440 -0.2445 -0.1188
 3813SOL     OW15023   5.887   3.703   1.298 -0.0280  0.0147 -0.4976
 3813SOL    HW215024   5.965   3.652   1.274 -0.2237 -0.4182 -0.2370
 3813SOL    HW315025   5.859   3.744   1.216 -0.0466 -0.5490 -0.7789
 3813SOL    MW415026   5.894   3.702   1.284 -0.0563 -0.1168 -0.5003
 3814SOL     OW15027   1.372   2.073   4.398 -0.6767  0.4351 -0.0834
 3814SOL    HW215028   1.356   2.129   4.474 -1.2946  0.3106 -0.1110
 3814SOL    HW315029   1.354   1.984   4.429 -2.7343  0.5398 -0.8165
 3814SOL    MW415030   1.367   2.069   4.412 -1.0297  0.4325 -0.1837
 3815SOL     OW15031   3.666   4.740   2.135  0.0838  0.0967 -0.1260
 3815SOL    HW215032   3.629   4.813   2.184 -1.2108 -0.3428 -0.4278
 3815SOL    HW315033   3.601   4.719   2.069  0.9930 -0.5304 -0.8507
 3815SOL    MW415034   3.653   4.746   2.133  0.0329 -0.0440 -0.2614
 3816SOL     OW15035   1.756   4.999   1.676  0.8327  0.5443  0.0565
 3816SOL    HW215036   1.798   4.931   1.729 -0.1941  0.4647  0.7864
 3816SOL    HW315037   1.825   5.065   1.665  0.9112  0.8849  2.0792
 3816SOL    MW415038   1.771   4.999   1.682  0.7076  0.5787  0.4197
 3817SOL     OW15039   1.035   5.088   5.890 -0.4053 -0.2115  0.1128
 3817SOL    HW215040   0.940   5.092   5.878 -0.5771 -2.2252  0.3564
 3817SOL    HW315041   1.071   5.129   5.812 -1.4631  0.7686  0.1152
 3817SOL    MW415042   1.027   5.094   5.878 -0.5675 -0.3479  0.1453
 3818SOL     OW15043   3.177   3.221   0.736 -0.0806 -0.9111 -0.7240
 3818SOL    HW215044   3.125   3.152   0.695  1.2212 -2.3179 -0.0781
 3818SOL    HW315045   3.113   3.289   0.758 -1.3280 -1.7140 -1.7622
 3818SOL    MW415046   3.161   3.221   0.734 -0.0734 -1.2027 -0.7758
 3819SOL     OW15047   0.801   4.738   3.813 -0.4052 -0.3598  0.0265
 3819SOL    HW215048   0.727   4.693   3.855 -0.6343 -0.5192 -0.5295
 3819SOL    HW315049   0.842   4.670   3.759 -0.5526  0.0097 -0.5594
 3819SOL    MW415050   0.796   4.723   3.811 -0.4549 -0.3320 -0.1241
 3820SOL     OW15051   5.049   4.910   3.503 -0.5841 -0.0594 -0.2540
 3820SOL    HW215052   5.130   4.905   3.553 -0.8544  0.6774  0.2728
 3820SOL    HW315053   5.000   4.832   3.530 -0.2030 -0.3246 -0.3192
 3820SOL    MW415054   5.053   4.899   3.513 -0.5695  0.0028 -0.1931
 3821SOL     OW15055   3.760   1.510   0.575  0.2452 -0.5256 -0.6891
 3821SOL    HW215056   3.805   1.590   0.602 -2.0857  0.2776  1.1210
 3821SOL    HW315057   3.815   1.475   0.505  2.6958  1.2750  0.1754
 3821SOL    MW415058   3.773   1.516   0.569  0.2610 -0.1820 -0.3362
 3822SOL     OW15059   3.400   5.163   2.382 -0.2338 -0.8446 -0.0351
 3822SOL    HW215060   3.436   5.193   2.465 -0.7280 -0.9531  0.2276
 3822SOL    HW315061   3.416   5.234   2.321 -1.9628  0.2651  0.7284
 3822SOL    MW415062   3.407   5.176   2.385 -0.5271 -0.7125  0.1003
 3823SOL     OW15063   5.749   5.498   3.968  0.5864 -0.1840 -0.2596
 3823SOL    HW215064   5.680   5.559   3.944  0.5475  0.3334  1.0524
 3823SOL    HW315065   5.773   5.455   3.887 -1.2410 -0.3412 -0.7500
 3823SOL    MW415066   5.743   5.501   3.954  0.3402 -0.1365 -0.1512
 3824SOL     OW15067   0.178   3.718   1.143 -0.3751 -0.7121  0.3019
 3824SOL    HW215068   0.202   3.705   1.051 -1.1304 -2.1973  0.2757
 3824SOL    HW315069   0.155   3.810   1.149  0.0720 -0.5003 -0.9092
 3824SOL    MW415070   0.178   3.728   1.132 -0.4158 -0.8801  0.1386
 3825SOL     OW15071   1.224   2.003   2.984 -0.4915  0.2097 -0.1269
 3825SOL    HW215072   1.299   2.016   2.927 -1.9471 -0.6155 -2.3508
 3825SOL    HW315073   1.254   1.942   3.051  0.8370  0.0223 -0.8653
 3825SOL    MW415074   1.238   1.997   2.986 -0.5083  0.0761 -0.5177
 3826SOL     OW15075   5.279   2.551   6.108 -0.1910 -0.1967 -0.1350
 3826SOL    HW215076   5.183   2.550   6.103 -0.2132 -0.2156  0.2609
 3826SOL    HW315077   5.304   2.459   6.098 -0.2336 -0.2349  0.1071
 3826SOL    MW415078   5.269   2.539   6.106 -0.1996 -0.2042 -0.0508
 3827SOL     OW15079   5.412   2.859   0.316 -0.6786 -0.1351  0.0411
 3827SOL    HW215080   5.360   2.805   0.376 -2.9851 -0.7039 -2.2502
 3827SOL    HW315081   5.377   2.838   0.229  1.3981  1.7946 -1.3809
 3827SOL    MW415082   5.400   2.849   0.312 -0.7089  0.0444 -0.4488
 3828SOL     OW15083   3.702   6.341   5.432 -0.2886  0.2847 -0.8445
 3828SOL    HW215084   3.662   6.428   5.431 -1.1012  0.0633  2.2003
 3828SOL    HW315085   3.629   6.282   5.452  1.1772 -0.2268  4.0385
 3828SOL    MW415086   3.687   6.345   5.434 -0.2024  0.1880  0.2015
 3829SOL     OW15087   2.238   0.430   4.935  0.1342 -0.3203  0.1729
 3829SOL    HW215088   2.158   0.389   4.902  0.6403  0.0049 -1.5234
 3829SOL    HW315089   2.210   0.515   4.967 -0.0822  0.1515 -1.2243
 3829SOL    MW415090   2.224   0.436   4.935  0.1724 -0.2151 -0.2352
 3830SOL     OW15091   3.438   2.267   1.058 -0.3410 -0.7289  0.3677
 3830SOL    HW215092   3.370   2.329   1.032 -0.9772 -0.7201  1.9063
 3830SOL    HW315093   3.519   2.317   1.051 -0.7293 -0.0587  0.5171
 3830SOL    MW415094   3.440   2.282   1.054 -0.4762 -0.6393  0.5904
 3831SOL     OW15095   3.628   3.461   3.946  0.7444  0.8391  0.3621
 3831SOL    HW215096   3.643   3.494   3.857 -1.4742 -2.8444 -1.6099
 3831SOL    HW315097   3.702   3.402   3.961  1.6687  2.2357  1.4723
 3831SOL    MW415098   3.640   3.458   3.936  0.5736  0.5374  0.2484
 3832SOL     OW15099   0.475   5.582   0.034  0.3343 -0.0832  0.3106
 3832SOL    HW215100   0.427   5.598   0.115  1.1027  2.5181  0.3296
 3832SOL    HW315101   0.561   5.551   0.063  0.3106 -0.0059  0.4667
 3832SOL    MW415102   0.480   5.580   0.049  0.4326  0.2702  0.3337
 3833SOL     OW15103   3.225   1.974   0.467  0.1936  0.0673 -0.1832
 3833SOL    HW215104   3.276   2.008   0.393 -0.3932 -0.2273 -0.7368
 3833SOL    HW315105   3.285   1.914   0.512  0.6410  0.4478 -0.2679
 3833SOL    MW415106   3.240   1.971   0.463  0.1752  0.0787 -0.2674
 3834SOL     OW15107   2.226   3.680   3.645  0.3547  0.4659 -0.7212
 3834SOL    HW215108   2.196   3.711   3.730 -0.6289 -0.4213 -0.7329
 3834SOL    HW315109   2.149   3.687   3.588  0.9654  0.9438 -1.5193
 3834SOL    MW415110   2.212   3.685   3.649  0.3055  0.4119 -0.8280
 3835SOL     OW15111   1.294   1.192   0.275 -0.0492 -0.0863 -0.2811
 3835SOL    HW215112   1.250   1.108   0.288 -0.3399  0.0154 -0.6018
 3835SOL    HW315113   1.299   1.203   0.180  0.5866 -0.0530 -0.2434
 3835SOL    MW415114   1.289   1.183   0.264 -0.0037 -0.0685 -0.3184
 3836SOL     OW15115   1.501   6.265   2.004 -0.1364  0.0316 -0.0373
 3836SOL    HW215116   1.595   6.251   2.017 -0.3031  0.7542  2.4224
 3836SOL    HW315117   1.459   6.195   2.055 -0.8874  1.7837  1.9033
 3836SOL    MW415118   1.508   6.254   2.012 -0.2575  0.3581  0.5433
 3837SOL     OW15119   3.539   5.203   0.398 -0.1317  0.0889 -0.2343
 3837SOL    HW215120   3.535   5.180   0.491 -0.1946  0.1023 -0.2331
 3837SOL    HW315121   3.467   5.265   0.386 -0.6987 -0.5899 -0.4764
 3837SOL    MW415122   3.529   5.208   0.408 -0.2148  0.0011 -0.2661
 3838SOL     OW15123   3.787   3.989   3.746 -0.3564  0.1181  0.3217
 3838SOL    HW215124   3.720   4.003   3.813 -1.3243  3.5763 -1.0945
 3838SOL    HW315125   3.870   3.992   3.794 -1.0232  2.2751  1.5054
 3838SOL    MW415126   3.789   3.991   3.761 -0.5721  0.8590  0.2911
 3839SOL     OW15127   0.760   2.424   4.221 -0.3636  0.3072 -0.4796
 3839SOL    HW215128   0.802   2.369   4.287 -2.2553  1.0198  1.4624
 3839SOL    HW315129   0.800   2.510   4.232  0.2296  0.1305 -1.1915
 3839SOL    MW415130   0.771   2.428   4.231 -0.5349  0.3779 -0.3173
 3840SOL     OW15131   1.427   1.809   4.132 -0.0542  1.0686  0.0119
 3840SOL    HW215132   1.396   1.894   4.099 -0.4119  1.4644  1.3284
 3840SOL    HW315133   1.366   1.745   4.095 -0.2258  1.4550 -0.3813
 3840SOL    MW415134   1.415   1.812   4.123 -0.1240  1.1718  0.1337
 3841SOL     OW15135   5.193   1.374   1.615 -0.2968  0.1002 -0.4527
 3841SOL    HW215136   5.118   1.395   1.670 -2.6836 -2.9067 -2.2297
 3841SOL    HW315137   5.207   1.453   1.562 -0.5494  1.5578  1.5607
 3841SOL    MW415138   5.185   1.387   1.615 -0.6450 -0.1042 -0.4215
 3842SOL     OW15139   4.943   5.310   3.218  0.3109 -0.0146 -0.0637
 3842SOL    HW215140   4.980   5.387   3.176  1.6289 -0.5974 -0.0160
 3842SOL    HW315141   5.018   5.267   3.260 -0.6435 -0.4986  1.2207
 3842SOL    MW415142   4.958   5.314   3.218  0.3589 -0.1553  0.1120
 3843SOL     OW15143   2.817   3.362   3.867  0.3766  0.0788  0.1540
 3843SOL    HW215144   2.863   3.278   3.866  1.5917  0.7149  1.2882
 3843SOL    HW315145   2.883   3.426   3.840 -0.2238  0.8322  0.4553
 3843SOL    MW415146   2.831   3.359   3.863  0.4577  0.2621  0.3434
 3844SOL     OW15147   6.010   0.439   5.634 -0.6401  0.0089 -0.0988
 3844SOL    HW215148   6.046   0.442   5.545 -0.4588  0.3043 -0.0143
 3844SOL    HW315149   6.070   0.383   5.683 -0.1808  0.6643  0.0940
 3844SOL    MW415150   6.023   0.432   5.628 -0.5556  0.1344 -0.0622
 3845SOL     OW15151   4.964   2.000   5.273  0.1492  0.1762  0.3861
 3845SOL    HW215152   4.928   1.993   5.361 -0.7353  0.2357  0.0408
 3845SOL    HW315153   4.887   1.999   5.216  0.7696 -1.4037 -0.4842
 3845SOL    MW415154   4.949   1.999   5.277  0.1144 -0.0244  0.2257
 3846SOL     OW15155   2.997   4.873   1.295  0.3192 -0.6158 -0.6402
 3846SOL    HW215156   3.071   4.816   1.278  0.4218 -0.6498 -0.0943
 3846SOL    HW315157   2.952   4.833   1.370  0.2219 -0.1521 -0.4466
 3846SOL    MW415158   3.001   4.861   1.303  0.3199 -0.5591 -0.5427
 3847SOL     OW15159   5.549   6.014   0.183  0.2640 -0.4527 -0.3353
 3847SOL    HW215160   5.569   6.108   0.178  3.0486 -0.9258  0.5420
 3847SOL    HW315161   5.488   6.007   0.257  1.0049  0.5420  0.4029
 3847SOL    MW415162   5.544   6.026   0.192  0.7291 -0.3838 -0.1222
 3848SOL     OW15163   6.371   4.965   0.281  0.4677 -0.0482  0.1985
 3848SOL    HW215164   6.283   5.003   0.279 -0.2155 -1.5826 -0.8694
 3848SOL    HW315165   6.375   4.918   0.365 -0.1857 -0.9476 -0.2594
 3848SOL    MW415166   6.360   4.964   0.292  0.2913 -0.3693 -0.0028
 3849SOL     OW15167   0.878   5.853   5.769 -0.1066  0.1594  0.0091
 3849SOL    HW215168   0.795   5.901   5.765  0.1232  0.5054 -0.9506
 3849SOL    HW315169   0.945   5.918   5.749  0.3304 -0.2671  0.0610
 3849SOL    MW415170   0.876   5.868   5.766 -0.0186  0.1488 -0.1107
 3850SOL     OW15171   5.952   0.293   2.076  0.5856 -0.4294 -0.0575
 3850SOL    HW215172   6.039   0.265   2.045  0.6191  0.4923 -0.8378
 3850SOL    HW315173   5.959   0.288   2.171  1.7508  0.3380 -0.0748
 3850SOL    MW415174   5.965   0.288   2.084  0.7438 -0.2066 -0.1627
 3851SOL     OW15175   3.013   0.471   4.650  0.3096 -0.2179 -0.0928
 3851SOL    HW215176   2.943   0.424   4.604 -1.0394 -0.9231  2.5111
 3851SOL    HW315177   3.090   0.416   4.639  0.0275 -0.3881 -1.4142
 3851SOL    MW415178   3.014   0.458   4.642  0.0944 -0.3334  0.0764
 3852SOL     OW15179   1.296   3.997   5.197  0.2256  0.3419 -0.2286
 3852SOL    HW215180   1.314   3.918   5.147 -0.8437 -0.0199 -0.0664
 3852SOL    HW315181   1.312   3.972   5.288 -0.6439  0.1271 -0.1205
 3852SOL    MW415182   1.300   3.983   5.203 -0.0302  0.2658 -0.1929
 3853SOL     OW15183   3.688   5.699   3.414 -0.3894 -0.2378 -0.1562
 3853SOL    HW215184   3.783   5.710   3.413 -0.6264  2.3192  0.4636
 3853SOL    HW315185   3.668   5.665   3.501 -0.0336 -1.2746 -0.4624
 3853SOL    MW415186   3.698   5.696   3.425 -0.3737 -0.0372 -0.1149
 3854SOL     OW15187   2.225   2.162   1.899  0.2780  0.7944 -0.2655
 3854SOL    HW215188   2.251   2.240   1.947  1.6747  0.6801 -0.7967
 3854SOL    HW315189   2.295   2.099   1.915  0.0723  0.2741 -1.2979
 3854SOL    MW415190   2.238   2.164   1.907  0.4351  0.7107 -0.4718
 3855SOL     OW15191   1.464   1.743   5.706 -0.1374  0.1001 -0.1114
 3855SOL    HW215192   1.533   1.704   5.652 -1.3249 -1.3043 -0.6974
 3855SOL    HW315193   1.420   1.667   5.745 -1.4494  0.9512  0.1029
 3855SOL    MW415194   1.467   1.728   5.704 -0.4672  0.0271 -0.1604
 3856SOL     OW15195   2.392   2.044   0.443 -0.1794 -0.1553 -0.3967
 3856SOL    HW215196   2.338   2.053   0.521 -0.7033  0.2559 -0.7938
 3856SOL    HW315197   2.412   1.951   0.438 -2.8417 -0.7721 -1.5057
 3856SOL    MW415198   2.388   2.033   0.452 -0.5998 -0.1824 -0.5954
 3857SOL     OW15199   3.553   4.665   5.567 -0.5871 -0.1355 -0.1313
 3857SOL    HW215200   3.585   4.576   5.585  0.2197 -0.1664 -1.5901
 3857SOL    HW315201   3.476   4.674   5.623 -0.5468 -1.6730  0.2219
 3857SOL    MW415202   3.547   4.654   5.577 -0.4754 -0.3424 -0.2772
 3858SOL     OW15203   1.106   0.445   2.963 -0.8762 -0.2064  0.1770
 3858SOL    HW215204   1.012   0.444   2.946 -0.6001  0.9189 -1.6950
 3858SOL    HW315205   1.132   0.536   2.949  0.7096 -0.7584 -0.7795
 3858SOL    MW415206   1.097   0.457   2.959 -0.6305 -0.1308 -0.1962
 3859SOL     OW15207   0.574   1.090   2.869  0.4687  0.2326 -0.4105
 3859SOL    HW215208   0.490   1.120   2.902  0.0100 -1.0697 -0.3669
 3859SOL    HW315209   0.608   1.165   2.819 -0.5051  0.9129 -0.0785
 3859SOL    MW415210   0.568   1.104   2.867  0.2797  0.1505 -0.3609
 3860SOL     OW15211   3.323   6.341   0.652  0.0515 -0.5635  0.5343
 3860SOL    HW215212   3.286   6.269   0.702 -1.0361 -0.7924 -0.5724
 3860SOL    HW315213   3.257   6.410   0.655  1.0370  0.3938  1.5032
 3860SOL    MW415214   3.310   6.341   0.659  0.0380 -0.4674  0.5161
 3861SOL     OW15215   4.821   0.375   3.296 -0.5315  0.2944  0.5610
 3861SOL    HW215216   4.758   0.357   3.226  0.4635  0.6215 -0.4575
 3861SOL    HW315217   4.786   0.329   3.372 -0.0391 -2.8798 -0.9566
 3861SOL    MW415218   4.808   0.366   3.297 -0.3352 -0.0813  0.2264
 3862SOL     OW15219   5.576   4.554   0.009  0.6622 -0.1745  0.1426
 3862SOL    HW215220   5.638   4.602  -0.046  1.2382 -0.4543  0.5409
 3862SOL    HW315221   5.492   4.564  -0.036  0.7355  1.3114  0.2918
 3862SOL    MW415222   5.573   4.562  -0.005  0.7479 -0.0154  0.2149
 3863SOL     OW15223   4.745   1.020   4.551 -0.4872 -0.5780 -0.5129
 3863SOL    HW215224   4.713   0.945   4.501 -1.2232  0.2869 -1.3748
 3863SOL    HW315225   4.830   0.991   4.585 -0.8914 -1.9066 -0.5499
 3863SOL    MW415226   4.752   1.006   4.549 -0.6376 -0.6392 -0.6315
 3864SOL     OW15227   5.662   2.835   4.784  0.4613  0.2421  0.2326
 3864SOL    HW215228   5.621   2.827   4.870 -1.4082  1.9906 -0.4174
 3864SOL    HW315229   5.732   2.898   4.796  0.7402 -0.1360  0.6248
 3864SOL    MW415230   5.666   2.842   4.797  0.2514  0.4229  0.1986
 3865SOL     OW15231   1.156   2.761   5.861 -0.1345  0.3661  0.1195
 3865SOL    HW215232   1.240   2.754   5.815  0.2358 -0.4502  0.8881
 3865SOL    HW315233   1.091   2.768   5.791  0.4110 -0.8438 -0.5414
 3865SOL    MW415234   1.159   2.761   5.846 -0.0137  0.0988  0.1337
 3866SOL     OW15235   5.313   3.465   4.291  0.7624 -0.0556  0.0447
 3866SOL    HW215236   5.298   3.554   4.321  0.2132 -0.4387  0.9594
 3866SOL    HW315237   5.302   3.411   4.370  2.2950 -0.8301 -0.2270
 3866SOL    MW415238   5.309   3.469   4.306  0.8922 -0.2083  0.1295
 3867SOL     OW15239   2.363   1.537   6.254 -0.1665 -0.0477 -0.6564
 3867SOL    HW215240   2.288   1.480   6.269 -0.9508  1.4235  1.6123
 3867SOL    HW315241   2.380   1.577   6.340  3.9813 -1.1611 -0.7543
 3867SOL    MW415242   2.355   1.535   6.268  0.2773 -0.0005 -0.3700
 3868SOL     OW15243   4.327   4.860   0.501  0.0012  0.4337 -0.6911
 3868SOL    HW215244   4.263   4.816   0.557  0.0168  0.2852 -0.7877
 3868SOL    HW315245   4.358   4.934   0.553  0.2451  0.1202 -0.3838
 3868SOL    MW415246   4.323   4.864   0.515  0.0354  0.3727 -0.6633
 3869SOL     OW15247   5.745   5.323   2.670 -0.5706 -0.6330 -0.2653
 3869SOL    HW215248   5.838   5.346   2.677 -1.0186  1.5451 -0.6173
 3869SOL    HW315249   5.743   5.229   2.683  1.4890 -0.5099  1.7350
 3869SOL    MW415250   5.757   5.314   2.673 -0.3580 -0.3294 -0.0478
 3870SOL     OW15251   1.661   0.918   6.136 -0.2112  0.1634  0.2375
 3870SOL    HW215252   1.566   0.915   6.144 -0.1905 -0.2966  0.3405
 3870SOL    HW315253   1.677   0.920   6.042 -0.3146 -0.0930  0.2144
 3870SOL    MW415254   1.650   0.918   6.125 -0.2221  0.0689  0.2480
 3871SOL     OW15255   3.916   1.001   3.261 -0.4193  0.1311 -0.2741
 3871SOL    HW215256   3.966   1.018   3.181 -0.0615 -0.0293 -0.0858
 3871SOL    HW315257   3.899   1.088   3.297  0.8209  0.1431  0.3253
 3871SOL    MW415258   3.920   1.015   3.255 -0.2085  0.1116 -0.1702
 3872SOL     OW15259   4.477   4.767   2.946 -0.3291  0.0150  0.2691
 3872SOL    HW215260   4.563   4.731   2.968  1.0755  3.1094  0.3929
 3872SOL    HW315261   4.416   4.714   2.997  1.3636 -2.6395 -0.2161
 3872SOL    MW415262   4.481   4.755   2.956  0.0796  0.0731  0.2214
 3873SOL     OW15263   6.185   4.435   3.665 -0.4576  0.0309 -0.4406
 3873SOL    HW215264   6.097   4.436   3.627 -0.4985  1.1261 -0.3503
 3873SOL    HW315265   6.207   4.342   3.673 -1.7886 -0.2666 -0.0331
 3873SOL    MW415266   6.176   4.423   3.661 -0.6386  0.1361 -0.3749
 3874SOL     OW15267   3.264   5.742   4.815  0.4228  0.0257  0.5098
 3874SOL    HW215268   3.296   5.812   4.872  2.9640 -0.4511 -0.1895
 3874SOL    HW315269   3.328   5.671   4.828  0.7516 -0.3197 -2.4482
 3874SOL    MW415270   3.277   5.742   4.824  0.8014 -0.0828  0.0273
 3875SOL     OW15271   4.656   5.344   3.227  0.1507  0.2571  0.0137
 3875SOL    HW215272   4.645   5.315   3.136 -0.9859 -0.0095  0.2202
 3875SOL    HW315273   4.748   5.323   3.247 -0.4142 -2.7721 -0.0334
 3875SOL    MW415274   4.667   5.337   3.217 -0.0738 -0.1777  0.0347
 3876SOL     OW15275   2.010   0.106   1.203 -0.4500  0.1384  0.0235
 3876SOL    HW215276   1.990   0.199   1.193 -0.2734  0.1770  0.0117
 3876SOL    HW315277   2.073   0.103   1.275 -1.0058 -0.0488  0.5045
 3876SOL    MW415278   2.016   0.118   1.211 -0.5000  0.1188  0.0854
 3877SOL     OW15279   0.575   6.077   2.027 -0.0762  0.1627  0.1167
 3877SOL    HW215280   0.653   6.117   1.990 -0.8353 -0.6982 -2.6281
 3877SOL    HW315281   0.503   6.130   1.993 -0.8151 -0.5027  0.6165
 3877SOL    MW415282   0.576   6.090   2.018 -0.2739 -0.0386 -0.1795
 3878SOL     OW15283   1.380   1.562   2.676 -0.4129 -0.0596 -0.4963
 3878SOL    HW215284   1.353   1.641   2.630 -1.0743 -0.6889 -1.2214
 3878SOL    HW315285   1.473   1.575   2.693 -0.5094  0.8671 -0.6139
 3878SOL    MW415286   1.388   1.574   2.672 -0.5129 -0.0203 -0.6075
 3879SOL     OW15287   6.333   3.238   2.986  0.2802 -0.0134  0.0770
 3879SOL    HW215288   6.359   3.173   2.920 -0.0113 -2.3874  2.1317
 3879SOL    HW315289   6.411   3.250   3.040 -0.1093  0.1658  0.6081
 3879SOL    MW415290   6.346   3.231   2.984  0.1903 -0.3030  0.4182
 3880SOL     OW15291   1.919   4.556   3.792 -0.1444 -0.4179 -0.3885
 3880SOL    HW215292   1.932   4.561   3.697 -1.8646 -0.3136 -0.6490
 3880SOL    HW315293   1.835   4.599   3.807 -0.2650 -1.1129  1.0985
 3880SOL    MW415294   1.910   4.562   3.781 -0.3873 -0.4958 -0.2267
 3881SOL     OW15295   2.937   4.569   1.152 -0.2788 -0.0499 -0.0255
 3881SOL    HW215296   2.904   4.497   1.206  0.6561 -0.4697 -0.0051
 3881SOL    HW315297   2.877   4.642   1.171  0.3067 -0.0257  1.9571
 3881SOL    MW415298   2.925   4.569   1.162 -0.0782 -0.1021  0.2388
 3882SOL     OW15299   4.320   2.786   4.874 -0.4031 -0.5703  0.2896
 3882SOL    HW215300   4.325   2.711   4.814 -1.0092 -0.3157 -0.0828
 3882SOL    HW315301   4.275   2.854   4.824  1.0915  0.4314  0.2327
 3882SOL    MW415302   4.315   2.785   4.859 -0.2859 -0.4045  0.2329
 3883SOL     OW15303   4.911   4.623   2.673  0.0203  0.2645 -0.4616
 3883SOL    HW215304   4.969   4.699   2.668  0.4597  0.0472  0.9498
 3883SOL    HW315305   4.955   4.562   2.733 -1.5369  0.0064  0.4914
 3883SOL    MW415306   4.925   4.625   2.681 -0.1272  0.2018 -0.1497
 3884SOL     OW15307   6.393   1.277   6.158  0.0160 -0.4380 -0.2105
 3884SOL    HW215308   6.434   1.211   6.102 -0.3567  0.4506 -1.5590
 3884SOL    HW315309   6.312   1.301   6.112  0.8478  2.0298 -0.5275
 3884SOL    MW415310   6.388   1.271   6.145  0.0766  0.0048 -0.4303
 3885SOL     OW15311   0.051   4.378   0.676 -0.5635  0.3233 -0.6477
 3885SOL    HW215312  -0.002   4.371   0.596 -1.0949  0.6808 -0.3355
 3885SOL    HW315313   0.129   4.426   0.649 -0.9393  0.8208 -0.8626
 3885SOL    MW415314   0.054   4.383   0.661 -0.6832  0.4361 -0.6349
 3886SOL     OW15315   3.972   5.155   2.373 -0.3004 -0.3967 -0.8434
 3886SOL    HW215316   3.917   5.206   2.313 -1.5130 -1.8683 -1.0425
 3886SOL    HW315317   3.916   5.083   2.401 -0.2874  0.8758  3.1141
 3886SOL    MW415318   3.957   5.152   2.368 -0.4587 -0.4229 -0.3476
 3887SOL     OW15319   0.051   5.189   5.182  0.4946 -0.6835  0.0119
 3887SOL    HW215320   0.041   5.266   5.238 -1.8402 -1.5306  0.9002
 3887SOL    HW315321   0.129   5.207   5.130  1.5180  1.0986  2.0046
 3887SOL    MW415322   0.060   5.202   5.182  0.3216 -0.5601  0.3920
 3888SOL     OW15323   3.535   0.025   0.800  0.2323 -0.2597 -0.5047
 3888SOL    HW215324   3.583   0.073   0.733 -1.4243 -0.7474 -2.1237
 3888SOL    HW315325   3.471  -0.027   0.751  0.5153 -2.4678  1.3107
 3888SOL    MW415326   3.533   0.024   0.785  0.0511 -0.6154 -0.4788
 3889SOL     OW15327   1.381   2.756   0.961  0.2229 -0.2339 -0.4520
 3889SOL    HW215328   1.322   2.808   0.906 -1.2562 -0.4974  0.8040
 3889SOL    HW315329   1.394   2.809   1.039 -0.3986 -1.2517  0.3625
 3889SOL    MW415330   1.375   2.770   0.964 -0.0542 -0.4029 -0.1788
 3890SOL     OW15331   5.895   5.984   5.815 -0.3616 -0.1780  0.3797
 3890SOL    HW215332   5.850   6.033   5.747  0.6649  0.9171  0.4558
 3890SOL    HW315333   5.976   5.955   5.773  0.6044  1.0931  1.2976
 3890SOL    MW415334   5.900   5.986   5.801 -0.0987  0.1342  0.5108
 3891SOL     OW15335   4.062   1.308   2.750 -0.1796 -0.2395  0.1260
 3891SOL    HW215336   3.984   1.294   2.696 -0.8184 -1.1521  1.2223
 3891SOL    HW315337   4.028   1.341   2.833  0.7402  0.6948  0.1429
 3891SOL    MW415338   4.047   1.310   2.753 -0.1425 -0.2366  0.2729
 3892SOL     OW15339   2.996   1.469   0.530  0.1404 -0.0299  0.4088
 3892SOL    HW215340   3.020   1.556   0.562 -0.1435 -0.9221  3.3313
 3892SOL    HW315341   2.904   1.459   0.553  0.5301 -1.6018  1.3603
 3892SOL    MW415342   2.987   1.479   0.537  0.1544 -0.3550  0.9200
 3893SOL     OW15343   3.096   4.813   2.055  0.0347 -0.3112 -0.3288
 3893SOL    HW215344   3.164   4.854   2.108 -0.5050 -0.0219  0.1564
 3893SOL    HW315345   3.037   4.772   2.119 -0.3140 -0.4489 -0.7298
 3893SOL    MW415346   3.097   4.813   2.070 -0.0825 -0.2912 -0.3177
 3894SOL     OW15347   4.403   1.822   1.801 -0.3229  0.0426 -0.1869
 3894SOL    HW215348   4.411   1.768   1.723 -2.6689 -1.2527  0.3779
 3894SOL    HW315349   4.443   1.770   1.871 -0.9792 -0.1868  0.0254
 3894SOL    MW415350   4.410   1.808   1.800 -0.7190 -0.1586 -0.0843
 3895SOL     OW15351   2.148   6.246   1.617  0.2777  0.4362  0.0380
 3895SOL    HW215352   2.110   6.208   1.538 -2.0671 -4.2340  2.9578
 3895SOL    HW315353   2.243   6.235   1.606  0.0764  0.3847 -2.1790
 3895SOL    MW415354   2.156   6.240   1.605 -0.0582 -0.1868  0.1307
 3896SOL     OW15355   4.269   2.407   6.031 -0.5215  0.1940  0.0815
 3896SOL    HW215356   4.214   2.406   5.952  0.7225 -0.8815 -0.8281
 3896SOL    HW315357   4.266   2.497   6.061 -0.3451  0.8482 -1.7180
 3896SOL    MW415358   4.262   2.419   6.024 -0.3341  0.1384 -0.2759
 3897SOL     OW15359   2.633   3.332   0.605 -1.0263  0.2236 -0.0885
 3897SOL    HW215360   2.614   3.368   0.519 -0.2678  0.1387 -0.2985
 3897SOL    HW315361   2.632   3.409   0.663  2.9208  1.1263 -0.8934
 3897SOL    MW415362   2.631   3.347   0.602 -0.4055  0.3315 -0.2224
 3898SOL     OW15363   4.964   2.090   4.109 -0.3903  0.5111 -0.0577
 3898SOL    HW215364   4.986   2.067   4.018  1.8249 -1.1530  0.7986
 3898SOL    HW315365   5.008   2.174   4.123  3.2948 -1.3322  0.6913
 3898SOL    MW415366   4.973   2.098   4.099  0.3882  0.0483  0.1541
 3899SOL     OW15367   0.954   1.948   5.996 -0.4758 -0.1317  0.1687
 3899SOL    HW215368   1.029   1.922   5.942 -0.2395  1.2008 -0.1633
 3899SOL    HW315369   0.973   1.912   6.083 -0.5807 -1.7978 -0.4626
 3899SOL    MW415370   0.967   1.940   6.000 -0.4584 -0.1757  0.0416
 3900SOL     OW15371   4.690   3.658   4.726  0.4615 -0.0806 -0.3012
 3900SOL    HW215372   4.633   3.647   4.802  0.2390  2.3042 -0.0763
 3900SOL    HW315373   4.742   3.578   4.724 -2.4589 -2.1653 -0.1930
 3900SOL    MW415374   4.689   3.646   4.736  0.0469 -0.0410 -0.2572
 3901SOL     OW15375   4.873   0.752   1.353 -0.2860  0.3745  0.8925
 3901SOL    HW215376   4.924   0.717   1.426  0.0289  0.3978  0.6839
 3901SOL    HW315377   4.907   0.707   1.276  0.0960  1.1009  0.6278
 3901SOL    MW415378   4.884   0.741   1.353 -0.1940  0.4734  0.8300
 3902SOL     OW15379   6.124   4.542   3.064  0.0366 -0.3384 -0.0901
 3902SOL    HW215380   6.143   4.564   3.154  0.9891 -0.7556 -0.1797
 3902SOL    HW315381   6.051   4.480   3.069  0.0776 -0.3457  0.3846
 3902SOL    MW415382   6.117   4.537   3.076  0.1677 -0.3944 -0.0393
 3903SOL     OW15383   1.446   1.579   1.732 -0.1045  0.2565  0.1894
 3903SOL    HW215384   1.468   1.518   1.802 -0.7282  0.4525  0.5699
 3903SOL    HW315385   1.515   1.645   1.734  1.0102 -0.8442 -0.7414
 3903SOL    MW415386   1.458   1.579   1.741 -0.0397  0.1371  0.1168
 3904SOL     OW15387   4.707   0.030   2.608 -0.0089 -0.0405  0.8632
 3904SOL    HW215388   4.638   0.066   2.553  2.8393 -0.2717 -3.3736
 3904SOL    HW315389   4.766   0.103   2.624  0.7637 -0.6677  0.9439
 3904SOL    MW415390   4.706   0.044   2.603  0.4688 -0.1538  0.3148
 3905SOL     OW15391   1.491   4.684   3.284  0.2085  0.3808 -0.1835
 3905SOL    HW215392   1.573   4.727   3.261 -0.4333  1.1412 -1.1877
 3905SOL    HW315393   1.454   4.737   3.354 -0.2814  1.1418 -0.9925
 3905SOL    MW415394   1.497   4.696   3.290  0.0592  0.5815 -0.4227
 3906SOL     OW15395   4.501   1.134   4.012  0.8804  0.5078  1.1477
 3906SOL    HW215396   4.461   1.221   4.009 -0.7026 -0.2096  0.6096
 3906SOL    HW315397   4.508   1.115   4.106  1.1206  1.1519  1.2673
 3906SOL    MW415398   4.497   1.143   4.024  0.7032  0.4982  1.0925
 3907SOL     OW15399   1.405   5.555   1.988 -0.7080  0.2123 -0.1879
 3907SOL    HW215400   1.328   5.611   1.978 -0.4239  0.7748  0.6684
 3907SOL    HW315401   1.387   5.504   2.067 -1.0725 -1.1109 -1.0901
 3907SOL    MW415402   1.392   5.555   1.997 -0.7186  0.1119 -0.1940
 3908SOL     OW15403   4.424   5.840   4.436 -0.2807 -0.1468 -0.3747
 3908SOL    HW215404   4.455   5.911   4.380  0.8723  1.5640  2.2414
 3908SOL    HW315405   4.468   5.762   4.402  0.3976  0.8141 -1.8109
 3908SOL    MW415406   4.434   5.839   4.424 -0.0391  0.2057 -0.2190
 3909SOL     OW15407   6.289   2.906   5.745 -0.6471  0.1916 -0.3027
 3909SOL    HW215408   6.223   2.847   5.782  0.4209  0.0102  1.4106
 3909SOL    HW315409   6.276   2.899   5.650 -1.0517 -2.2246 -0.1458
 3909SOL    MW415410   6.278   2.897   5.737 -0.5596 -0.1511 -0.0560
 3910SOL     OW15411   5.097   4.686   3.274  0.1448 -0.4631 -0.3331
 3910SOL    HW215412   5.129   4.719   3.358  1.5911 -0.9761 -0.6545
 3910SOL    HW315413   5.139   4.742   3.208  0.9736 -1.5867 -0.7934
 3910SOL    MW415414   5.107   4.698   3.276  0.4450 -0.6790 -0.4362
 3911SOL     OW15415   6.104   5.885   5.676 -0.2108 -0.1767 -0.2105
 3911SOL    HW215416   6.109   5.965   5.625 -1.4308 -0.3231 -0.5895
 3911SOL    HW315417   6.179   5.889   5.735  0.6728  0.4563 -1.3445
 3911SOL    MW415418   6.115   5.896   5.677 -0.2551 -0.1125 -0.4102
 3912SOL     OW15419   6.184   0.101   0.160  0.3345  0.1357  0.1427
 3912SOL    HW215420   6.237   0.140   0.090  0.7295 -0.5855  0.0260
 3912SOL    HW315421   6.239   0.032   0.196 -0.1413  0.0382  0.7027
 3912SOL    MW415422   6.198   0.097   0.155  0.3238  0.0277  0.2012
 3913SOL     OW15423   4.788   0.291   4.404 -0.0949 -0.3919 -0.1136
 3913SOL    HW215424   4.703   0.300   4.446 -0.3724  1.2489 -0.9583
 3913SOL    HW315425   4.840   0.363   4.439  0.6700 -0.8527 -0.2714
 3913SOL    MW415426   4.784   0.302   4.414 -0.0306 -0.2362 -0.2459
 3914SOL     OW15427   4.338   0.032   5.508  0.3188 -0.2519 -0.1507
 3914SOL    HW215428   4.415   0.008   5.560  1.6217  0.1857 -1.7787
 3914SOL    HW315429   4.294   0.100   5.560  0.8497 -0.7346  0.9577
 3914SOL    MW415430   4.342   0.038   5.522  0.5607 -0.2579 -0.2193
 3915SOL     OW15431   4.861   4.936   2.500  0.0455  0.1849 -0.0592
 3915SOL    HW215432   4.777   4.940   2.546  0.1083  1.7639 -0.0325
 3915SOL    HW315433   4.848   4.868   2.433 -1.1699  0.2483  0.0813
 3915SOL    MW415434   4.848   4.927   2.497 -0.1065  0.4016 -0.0372
 3916SOL     OW15435   3.401   5.446   4.229  0.0759  0.3304  0.4512
 3916SOL    HW215436   3.403   5.508   4.156 -0.9203  1.7628  1.5839
 3916SOL    HW315437   3.313   5.410   4.228 -0.2328  1.0192  1.4579
 3916SOL    MW415438   3.390   5.450   4.219 -0.0963  0.6102  0.7335
 3917SOL     OW15439   1.030   3.742   2.207 -0.5441 -0.1121 -0.1156
 3917SOL    HW215440   0.977   3.742   2.127 -1.0508 -1.3516  0.1921
 3917SOL    HW315441   1.062   3.832   2.215 -2.1139  0.5225 -0.6336
 3917SOL    MW415442   1.027   3.754   2.197 -0.8181 -0.1920 -0.1434
 3918SOL     OW15443   6.292   0.882   0.890  0.5224  0.3423 -0.2430
 3918SOL    HW215444   6.280   0.962   0.942 -1.2836 -0.4323  0.6087
 3918SOL    HW315445   6.253   0.813   0.942  2.4950 -1.2431 -0.7468
 3918SOL    MW415446   6.285   0.884   0.904  0.5444  0.0309 -0.1971
 3919SOL     OW15447   0.182   5.541   3.852  0.3021  0.3615 -0.8988
 3919SOL    HW215448   0.116   5.484   3.892 -1.0367  1.3401 -1.6269
 3919SOL    HW315449   0.254   5.543   3.915  0.2811 -1.8821 -0.7252
 3919SOL    MW415450   0.183   5.534   3.866  0.1227  0.1946 -0.9719
 3920SOL     OW15451   3.960   2.811   4.449 -0.2182 -0.1739  0.1274
 3920SOL    HW215452   3.950   2.785   4.358 -2.4039  0.6213  0.0826
 3920SOL    HW315453   4.030   2.755   4.483  1.7158  0.5251 -2.3884
 3920SOL    MW415454   3.968   2.801   4.442 -0.2514  0.0232 -0.2104
 3921SOL     OW15455   6.239   2.475   0.387 -0.0013 -0.1498 -0.1721
 3921SOL    HW215456   6.299   2.440   0.453  1.6778  1.8979 -0.5035
 3921SOL    HW315457   6.292   2.537   0.337 -2.0358  0.6575 -1.4538
 3921SOL    MW415458   6.254   2.479   0.389 -0.0482  0.2269 -0.3849
 3922SOL     OW15459   1.098   2.608   0.780  0.0309 -0.3537  0.1688
 3922SOL    HW215460   1.026   2.623   0.719 -0.0816 -1.4566  0.0182
 3922SOL    HW315461   1.154   2.685   0.769  1.0858 -1.3971 -2.8450
 3922SOL    MW415462   1.096   2.620   0.771  0.1553 -0.6369 -0.2487
 3923SOL     OW15463   4.415   0.767   4.205 -0.7279  0.4023 -0.6498
 3923SOL    HW215464   4.366   0.793   4.128 -0.5408 -0.9710 -1.2588
 3923SOL    HW315465   4.379   0.682   4.230  0.6231 -0.1609 -0.5059
 3923SOL    MW415466   4.404   0.759   4.198 -0.5250  0.1468 -0.7111
 3924SOL     OW15467   3.720   4.829   0.239  0.2398  0.7091  0.2286
 3924SOL    HW215468   3.640   4.776   0.237  1.5444 -1.3718  0.0892
 3924SOL    HW315469   3.692   4.914   0.272 -1.9353 -0.1270  0.6825
 3924SOL    MW415470   3.706   4.833   0.243  0.1250  0.3243  0.2701
 3925SOL     OW15471   2.213   3.313   0.255 -0.1541 -0.5242 -0.0074
 3925SOL    HW215472   2.193   3.339   0.345 -0.6435  2.4601 -0.8928
 3925SOL    HW315473   2.127   3.307   0.213  0.1307 -0.8791 -0.5457
 3925SOL    MW415474   2.199   3.315   0.261 -0.1811 -0.1773 -0.1953
 3926SOL     OW15475   5.567   5.087   0.512 -0.2379 -0.0406  0.0148
 3926SOL    HW215476   5.498   5.083   0.578 -0.7616  1.7516 -0.3551
 3926SOL    HW315477   5.642   5.045   0.552 -1.9419 -3.6426 -0.1730
 3926SOL    MW415478   5.568   5.081   0.526 -0.5318 -0.2794 -0.0588
 3927SOL     OW15479   2.248   4.945   3.541  0.2149  0.4468  0.2772
 3927SOL    HW215480   2.281   4.858   3.564 -0.4773  0.1486  0.1898
 3927SOL    HW315481   2.302   4.973   3.468 -0.0848 -0.2789 -0.2424
 3927SOL    MW415482   2.259   4.937   3.535  0.0840  0.3117  0.1971
 3928SOL     OW15483   0.324   4.337   1.433 -0.0486 -0.4418  0.5905
 3928SOL    HW215484   0.414   4.309   1.416  0.1019  0.3686 -0.0058
 3928SOL    HW315485   0.328   4.433   1.433 -0.7478 -0.3930  1.4698
 3928SOL    MW415486   0.336   4.346   1.431 -0.1210 -0.3284  0.6278
 3929SOL     OW15487   2.163   6.101   2.463 -0.8421  0.5727  0.6319
 3929SOL    HW215488   2.243   6.103   2.516 -0.7052  1.6940  0.4183
 3929SOL    HW315489   2.193   6.118   2.374 -1.4383  2.4454  0.7482
 3929SOL    MW415490   2.178   6.104   2.458 -0.9027  0.9677  0.6190
 3930SOL     OW15491   4.263   5.675   0.023  0.6144 -0.4310  0.6989
 3930SOL    HW215492   4.227   5.664   0.111  2.3678  1.2035  1.6873
 3930SOL    HW315493   4.307   5.593   0.005 -0.5049 -1.1123  0.9432
 3930SOL    MW415494   4.264   5.663   0.032  0.6981 -0.3052  0.8616
 3931SOL     OW15495   5.371   4.255   3.811 -0.3612 -0.4965 -0.8304
 3931SOL    HW215496   5.405   4.189   3.750 -2.2133 -1.9148 -0.4436
 3931SOL    HW315497   5.309   4.206   3.866 -0.4017  1.2074  0.7223
 3931SOL    MW415498   5.367   4.239   3.811 -0.6109 -0.4588 -0.5745
 3932SOL     OW15499   1.373   2.101   1.220 -0.3935  0.3451 -0.3643
 3932SOL    HW215500   1.412   2.095   1.133 -0.5015 -0.7872 -0.3498
 3932SOL    HW315501   1.414   2.030   1.269  0.3016  1.4994  0.7782
 3932SOL    MW415502   1.383   2.090   1.215 -0.3160  0.3480 -0.2117
 3933SOL     OW15503   0.834   3.044   1.542 -0.0133  0.3171 -0.3677
 3933SOL    HW215504   0.862   3.005   1.460 -0.0198 -0.2596 -0.0998
 3933SOL    HW315505   0.913   3.087   1.576  0.5407 -1.1437  0.2943
 3933SOL    MW415506   0.848   3.045   1.536  0.0589  0.0483 -0.2450
 3934SOL     OW15507   5.700   2.274   1.108  0.4831  0.3584 -0.0536
 3934SOL    HW215508   5.662   2.198   1.151 -1.4184 -0.0152 -2.1860
 3934SOL    HW315509   5.676   2.348   1.162  0.5440 -0.3317  0.9370
 3934SOL    MW415510   5.692   2.274   1.121  0.2402  0.2180 -0.2042
 3935SOL     OW15511   1.243   1.703   1.353 -0.3150 -0.2324 -0.3634
 3935SOL    HW215512   1.317   1.650   1.382 -0.1080 -0.0525 -0.5622
 3935SOL    HW315513   1.225   1.673   1.264 -1.2357 -1.0954  0.0996
 3935SOL    MW415514   1.251   1.692   1.345 -0.4092 -0.3225 -0.3286
 3936SOL     OW15515   4.843   6.374   6.169  0.1107 -0.0149  0.1212
 3936SOL    HW215516   4.927   6.405   6.203  1.0284 -1.7624 -0.4255
 3936SOL    HW315517   4.846   6.393   6.075 -0.1921  0.0821  0.1288
 3936SOL    MW415518   4.855   6.381   6.161  0.1919 -0.2327  0.0501
 3937SOL     OW15519   0.120   4.344   3.782 -0.1495 -0.2998 -0.4350
 3937SOL    HW215520   0.045   4.358   3.840 -2.3550 -1.8897 -2.6940
 3937SOL    HW315521   0.173   4.279   3.828 -0.1180  0.8187  1.1876
 3937SOL    MW415522   0.117   4.337   3.796 -0.4363 -0.3620 -0.5189
 3938SOL     OW15523   5.788   1.276   1.526 -0.0086  0.4107  0.0532
 3938SOL    HW215524   5.835   1.321   1.455 -0.4459  0.2652 -0.3325
 3938SOL    HW315525   5.854   1.218   1.565  0.4961  1.2086  0.4055
 3938SOL    MW415526   5.803   1.274   1.522  0.0003  0.4968  0.0488
 3939SOL     OW15527   1.645   1.234   3.923  0.0311 -0.7391  0.6105
 3939SOL    HW215528   1.739   1.245   3.931  0.0953 -1.1298  0.4283
 3939SOL    HW315529   1.619   1.193   4.006 -0.3049  1.2783  1.5696
 3939SOL    MW415530   1.654   1.230   3.935 -0.0047 -0.5245  0.7130
 3940SOL     OW15531   3.290   1.248   1.565  0.2170 -0.3360  0.3997
 3940SOL    HW215532   3.199   1.278   1.566  0.5360  0.6857  1.6969
 3940SOL    HW315533   3.291   1.174   1.627  0.3554 -0.0497  0.7416
 3940SOL    MW415534   3.278   1.242   1.574  0.2773 -0.1634  0.6160
 3941SOL     OW15535   6.385   5.035   3.359 -0.3964 -0.2483 -0.0487
 3941SOL    HW215536   6.292   5.015   3.356 -0.7938  1.5076 -0.8380
 3941SOL    HW315537   6.410   5.024   3.450 -1.3756 -0.7595  0.1624
 3941SOL    MW415538   6.376   5.031   3.370 -0.5780 -0.0840 -0.1250
 3942SOL     OW15539   1.679   1.820   2.778  0.4911  0.5487  0.6628
 3942SOL    HW215540   1.688   1.738   2.731 -1.2194  1.3660 -1.2162
 3942SOL    HW315541   1.769   1.851   2.790  1.0350 -0.3741 -0.8640
 3942SOL    MW415542   1.692   1.813   2.774  0.3372  0.5348  0.2134
 3943SOL     OW15543   3.583   4.728   2.698  0.5653  0.2582 -0.2163
 3943SOL    HW215544   3.504   4.731   2.645  1.5306 -0.4294 -1.7581
 3943SOL    HW315545   3.628   4.811   2.679  1.2409 -0.2821 -1.0265
 3943SOL    MW415546   3.579   4.740   2.689  0.7818  0.0962 -0.5266
 3944SOL     OW15547   4.375   1.734   2.431  0.5538 -0.2006 -0.5243
 3944SOL    HW215548   4.390   1.643   2.403  2.1532  0.9108 -3.8610
 3944SOL    HW315549   4.461   1.764   2.459 -0.3147 -0.1324  2.2912
 3944SOL    MW415550   4.388   1.726   2.431  0.6503 -0.0450 -0.5930
 3945SOL     OW15551   5.134   2.338   4.127 -0.6560 -0.2789 -0.7604
 3945SOL    HW215552   5.180   2.416   4.158 -1.8721  0.4629 -0.7401
 3945SOL    HW315553   5.189   2.265   4.154 -0.3480  0.4872  0.7885
 3945SOL    MW415554   5.147   2.339   4.135 -0.7758 -0.0800 -0.5533
 3946SOL     OW15555   6.422   5.111   6.176 -0.1264  0.2059 -0.0682
 3946SOL    HW215556   6.352   5.175   6.189 -0.2047 -0.1003  1.1009
 3946SOL    HW315557   6.503   5.163   6.176 -0.3197  0.5668 -1.4747
 3946SOL    MW415558   6.423   5.127   6.178 -0.1622  0.2131 -0.0995
 3947SOL     OW15559   0.899   5.518   4.773  0.0511 -0.0981 -0.2284
 3947SOL    HW215560   0.979   5.503   4.723  0.3228  1.4917 -0.3189
 3947SOL    HW315561   0.929   5.554   4.856 -0.3958 -2.6736  1.1654
 3947SOL    MW415562   0.913   5.520   4.778  0.0280 -0.2281 -0.0564
 3948SOL     OW15563   0.843   3.444   6.095  0.3187 -0.1607 -0.7277
 3948SOL    HW215564   0.888   3.410   6.017  1.1879  1.5005 -1.0005
 3948SOL    HW315565   0.894   3.409   6.168  0.6966 -0.1366 -0.9725
 3948SOL    MW415566   0.856   3.435   6.094  0.4832  0.0616 -0.7960
 3949SOL     OW15567   3.535   3.487   2.463  0.5853 -0.1638 -0.0358
 3949SOL    HW215568   3.459   3.446   2.504 -0.0597 -1.6354 -2.4788
 3949SOL    HW315569   3.584   3.525   2.535 -2.2066  0.4195  1.6787
 3949SOL    MW415570   3.531   3.486   2.478  0.1318 -0.2810 -0.1319
 3950SOL     OW15571   4.334   0.566   6.066 -0.4545 -0.7406  0.4031
 3950SOL    HW215572   4.316   0.653   6.029  1.3904 -0.0765  0.9338
 3950SOL    HW315573   4.405   0.531   6.011  1.5368 -0.2230  2.4604
 3950SOL    MW415574   4.341   0.573   6.054  0.0517 -0.5847  0.7445
 3951SOL     OW15575   0.259   2.421   4.376  0.0457  0.2088 -0.5706
 3951SOL    HW215576   0.262   2.383   4.288  0.6151 -1.9112  0.2905
 3951SOL    HW315577   0.348   2.413   4.410 -0.2007  0.8140  0.2712
 3951SOL    MW415578   0.271   2.415   4.369  0.0883  0.0090 -0.3459
 3952SOL     OW15579   4.259   1.706   1.337  0.5236 -0.0311  0.3506
 3952SOL    HW215580   4.227   1.618   1.357 -1.5234  0.6879  0.4173
 3952SOL    HW315581   4.182   1.762   1.345  1.5455  1.6172 -0.8052
 3952SOL    MW415582   4.245   1.702   1.341  0.3884  0.2813  0.2069
 3953SOL     OW15583   5.142   0.257   2.593  0.6245  0.2524  0.3376
 3953SOL    HW215584   5.171   0.168   2.609  1.5643  0.7069  1.3284
 3953SOL    HW315585   5.222   0.310   2.600  0.0160  1.2150  0.2432
 3953SOL    MW415586   5.156   0.253   2.596  0.6682  0.4394  0.4559
 3954SOL     OW15587   4.457   0.260   4.197 -0.1651  1.0702  0.3540
 3954SOL    HW215588   4.397   0.223   4.261 -0.8738  1.7701  0.1130
 3954SOL    HW315589   4.535   0.205   4.202 -0.9804 -0.1142  0.3820
 3954SOL    MW415590   4.459   0.248   4.206 -0.3662  1.0063  0.3259
 3955SOL     OW15591   1.904   1.664   0.235  0.1233  0.1859  0.1017
 3955SOL    HW215592   1.846   1.632   0.304  0.6166  0.1508  0.5117
 3955SOL    HW315593   1.984   1.690   0.281  0.9340 -0.9862 -0.5782
 3955SOL    MW415594   1.907   1.663   0.250  0.2954  0.0266  0.0661
 3956SOL     OW15595   0.208   3.452   1.815 -0.7601  0.2009  0.7333
 3956SOL    HW215596   0.190   3.530   1.867 -0.6535  2.2179 -2.0167
 3956SOL    HW315597   0.121   3.416   1.796 -0.9507  0.8036  0.4230
 3956SOL    MW415598   0.194   3.458   1.819 -0.7712  0.5465  0.3295
 3957SOL     OW15599   5.757   5.727   0.412 -0.3914 -0.2480 -0.2447
 3957SOL    HW215600   5.697   5.798   0.389 -0.0190  0.3432  0.5196
 3957SOL    HW315601   5.739   5.710   0.505  0.2085 -0.4639 -0.1609
 3957SOL    MW415602   5.747   5.735   0.422 -0.2632 -0.1985 -0.1328
 3958SOL     OW15603   1.492   2.299   5.460  0.4163 -0.8681  0.2931
 3958SOL    HW215604   1.456   2.345   5.384  0.8814 -0.6294  0.2138
 3958SOL    HW315605   1.421   2.302   5.525  0.5311  0.2271  0.3966
 3958SOL    MW415606   1.478   2.306   5.459  0.4928 -0.6921  0.2963
 3959SOL     OW15607   1.873   0.923   0.637  0.2930 -0.4161 -0.5329
 3959SOL    HW215608   1.868   0.897   0.729  0.7897 -2.5516 -1.0447
 3959SOL    HW315609   1.960   0.963   0.628  1.0246 -1.9187 -0.4339
 3959SOL    MW415610   1.884   0.925   0.648  0.4551 -0.8961 -0.5873
 3960SOL     OW15611   2.851   1.244   2.055  0.2420  0.6101  0.1939
 3960SOL    HW215612   2.919   1.283   2.000 -1.8050  2.2988 -1.3262
 3960SOL    HW315613   2.810   1.318   2.099  0.1504 -0.4828  2.0536
 3960SOL    MW415614   2.854   1.259   2.054 -0.0402  0.6887  0.2387
 3961SOL     OW15615   4.167   0.838   3.313 -0.1468  0.2864 -0.3676
 3961SOL    HW215616   4.189   0.765   3.256 -1.1342 -2.5585  2.5733
 3961SOL    HW315617   4.084   0.872   3.280 -0.5941 -1.1553 -0.7645
 3961SOL    MW415618   4.159   0.833   3.301 -0.3361 -0.2791 -0.0320
 3962SOL     OW15619   0.155   0.158   0.904 -0.6673 -0.4554  0.6602
 3962SOL    HW215620   0.207   0.107   0.966 -0.6352  0.0594  1.0586
 3962SOL    HW315621   0.184   0.128   0.818 -1.3324 -1.8192  0.8842
 3962SOL    MW415622   0.165   0.147   0.901 -0.7508 -0.5674  0.7423
 3963SOL     OW15623   3.874   6.060   6.394  0.1668 -0.1152  0.7565
 3963SOL    HW215624   3.872   5.978   6.443  1.0126  0.3347  1.5671
 3963SOL    HW315625   3.825   6.121   6.449  0.2499  0.1354  0.5515
 3963SOL    MW415626   3.867   6.057   6.408  0.2894 -0.0228  0.8364
 3964SOL     OW15627   3.952   0.345  -0.015  0.0348 -0.2603 -0.4818
 3964SOL    HW215628   3.963   0.439  -0.028 -0.7752 -0.2179 -0.9600
 3964SOL    HW315629   3.866   0.326  -0.054  1.1251 -1.5662 -2.4141
 3964SOL    MW415630   3.942   0.355  -0.022  0.0718 -0.4270 -0.7998
 3965SOL     OW15631   1.946   1.426   4.473  0.0994 -0.0127 -0.2634
 3965SOL    HW215632   1.977   1.513   4.495  0.2893  0.0003 -0.5740
 3965SOL    HW315633   1.868   1.413   4.527 -0.1157  0.4765 -0.4505
 3965SOL    MW415634   1.940   1.436   4.483  0.0961  0.0536 -0.3290
 3966SOL     OW15635   0.084   0.321   4.923  0.6206  0.3652 -0.1670
 3966SOL    HW215636   0.119   0.287   4.841 -0.7579 -1.1787 -0.1486
 3966SOL    HW315637   0.152   0.300   4.988  1.1568  0.4658 -0.6815
 3966SOL    MW415638   0.098   0.314   4.921  0.5095  0.1748 -0.2325
 3967SOL     OW15639   0.315   4.453   2.437 -0.6214  0.6364 -0.5871
 3967SOL    HW215640   0.298   4.404   2.518 -0.3868  1.0121 -0.3066
 3967SOL    HW315641   0.379   4.520   2.463 -1.7243  1.7679 -0.7088
 3967SOL    MW415642   0.321   4.455   2.451 -0.7359  0.8352 -0.5661
 3968SOL     OW15643   3.065   6.185   5.581  0.5096  0.0713  0.4564
 3968SOL    HW215644   2.984   6.163   5.626  0.3137 -0.7035 -0.2384
 3968SOL    HW315645   3.060   6.279   5.565 -0.5077 -0.0619 -0.0595
 3968SOL    MW415646   3.054   6.195   5.585  0.3495 -0.0485  0.2966
 3969SOL     OW15647   5.545   1.946   5.377  0.4152 -0.0331 -0.3385
 3969SOL    HW215648   5.456   1.976   5.357  0.0205 -1.4270 -0.8326
 3969SOL    HW315649   5.591   1.951   5.293  0.7954  0.6524 -0.0902
 3969SOL    MW415650   5.539   1.950   5.363  0.4133 -0.1265 -0.3710
 3970SOL     OW15651   2.055   0.060   3.988  0.0033  0.6323 -0.0344
 3970SOL    HW215652   2.008  -0.023   3.984 -1.0642  1.1769  0.5475
 3970SOL    HW315653   2.114   0.051   4.063 -0.2566  0.4685  0.1513
 3970SOL    MW415654   2.057   0.048   3.998 -0.1718  0.6825  0.0669
 3971SOL     OW15655   1.839   2.456   0.597  0.2568 -0.1124 -0.1480
 3971SOL    HW215656   1.806   2.367   0.604 -2.3043  0.9018  2.8546
 3971SOL    HW315657   1.831   2.478   0.504  0.6245 -2.8140 -0.8866
 3971SOL    MW415658   1.834   2.447   0.586 -0.0326 -0.3350  0.1507
 3972SOL     OW15659   1.730   3.824   5.247  0.0098 -0.1074 -0.2009
 3972SOL    HW215660   1.685   3.897   5.290  0.2141  0.5127 -1.0100
 3972SOL    HW315661   1.673   3.748   5.261 -1.0101  0.5436 -0.7218
 3972SOL    MW415662   1.717   3.824   5.255 -0.0978  0.0603 -0.3764
 3973SOL     OW15663   6.212   4.001   6.107  0.1076  0.0796 -0.0725
 3973SOL    HW215664   6.280   3.943   6.073  0.5360  1.4194 -1.6143
 3973SOL    HW315665   6.132   3.947   6.107  0.9333 -1.2003  0.8127
 3973SOL    MW415666   6.210   3.986   6.103  0.2730  0.0875 -0.1591
 3974SOL     OW15667   1.833   0.163   4.251 -0.0243  0.3096 -0.5646
 3974SOL    HW215668   1.808   0.117   4.171  0.9278 -1.0372 -0.1213
 3974SOL    HW315669   1.848   0.093   4.315 -0.3117  1.3409  0.6558
 3974SOL    MW415670   1.832   0.148   4.249  0.0634  0.2680 -0.3451
 3975SOL     OW15671   6.066   6.373   5.740 -0.3113 -0.5976 -0.5603
 3975SOL    HW215672   5.971   6.388   5.738 -0.8348 -3.2501  0.5390
 3975SOL    HW315673   6.086   6.359   5.833  1.2904  0.4860 -0.7094
 3975SOL    MW415674   6.056   6.373   5.752 -0.1691 -0.8046 -0.4349
 3976SOL     OW15675   3.519   1.576   4.039 -0.2232  0.3781 -0.5236
 3976SOL    HW215676   3.477   1.650   4.084  1.0902  1.4710 -1.0524
 3976SOL    HW315677   3.605   1.570   4.079  0.3044  0.2204 -1.6528
 3976SOL    MW415678   3.525   1.585   4.050  0.0197  0.5015 -0.7424
 3977SOL     OW15679   3.209   2.173   6.147 -0.4448 -0.2369  0.0045
 3977SOL    HW215680   3.148   2.201   6.080 -1.4943 -1.3114  0.4660
 3977SOL    HW315681   3.180   2.084   6.170  0.3066 -0.1568  1.3731
 3977SOL    MW415682   3.197   2.165   6.141 -0.4841 -0.3681  0.2459
 3978SOL     OW15683   6.216   2.054   2.528 -0.5514  0.5624  0.4870
 3978SOL    HW215684   6.260   1.971   2.549  1.2166  1.4803  0.6271
 3978SOL    HW315685   6.167   2.036   2.448 -0.7031 -0.7809  0.8556
 3978SOL    MW415686   6.215   2.041   2.520 -0.3381  0.5063  0.5541
 3979SOL     OW15687   1.820   5.665   1.797 -0.0981 -0.3669  0.2727
 3979SOL    HW215688   1.835   5.674   1.703  0.9587 -0.0880  0.4546
 3979SOL    HW315689   1.728   5.642   1.805 -0.2756 -0.0668 -0.8144
 3979SOL    MW415690   1.810   5.664   1.786  0.0179 -0.2905  0.1532
 3980SOL     OW15691   6.106   4.007   5.795 -0.1323 -0.1750  0.0406
 3980SOL    HW215692   6.086   4.002   5.702  1.5581  0.3375 -0.3770
 3980SOL    HW315693   6.038   3.955   5.837  0.4040 -2.3735 -1.6586
 3980SOL    MW415694   6.094   3.999   5.788  0.1615 -0.3975 -0.2387
 3981SOL     OW15695   2.716   1.082   1.865 -0.7867  0.4061 -0.2714
 3981SOL    HW215696   2.745   1.155   1.921 -0.2015  1.6007 -2.0616
 3981SOL    HW315697   2.681   1.018   1.927  1.2590  0.9687  1.6335
 3981SOL    MW415698   2.715   1.083   1.881 -0.4396  0.6379 -0.2563
 3982SOL     OW15699   3.639   6.156   1.431 -0.2624 -0.9047  0.1033
 3982SOL    HW215700   3.679   6.234   1.392 -1.5975 -0.1750  0.1329
 3982SOL    HW315701   3.556   6.145   1.383 -1.4710 -0.5919  2.0304
 3982SOL    MW415702   3.633   6.164   1.419 -0.5980 -0.7671  0.3615
 3983SOL     OW15703   3.776   5.903   0.190  0.2455  0.0115 -0.3040
 3983SOL    HW215704   3.712   5.863   0.249  0.4532 -2.9117 -1.8629
 3983SOL    HW315705   3.860   5.888   0.234  0.2325 -0.4444 -0.4233
 3983SOL    MW415706   3.779   5.896   0.204  0.2712 -0.4344 -0.5254
 3984SOL     OW15707   0.798   2.846   4.569  0.1997  0.5109  0.2547
 3984SOL    HW215708   0.713   2.879   4.596 -0.4562  0.4389 -1.5900
 3984SOL    HW315709   0.796   2.753   4.591 -0.1222  0.5503  0.3953
 3984SOL    MW415710   0.787   2.838   4.575  0.0707  0.5066  0.0298
 3985SOL     OW15711   5.587   5.075   3.954 -0.2238 -0.0710  0.1573
 3985SOL    HW215712   5.682   5.086   3.947 -0.3832  1.3492 -0.1261
 3985SOL    HW315713   5.566   5.006   3.891  0.6925 -0.9073  0.7473
 3985SOL    MW415714   5.597   5.067   3.945 -0.1239  0.0060  0.1977
 3986SOL     OW15715   3.727   6.408   2.739  0.5967  0.6176 -0.2596
 3986SOL    HW215716   3.711   6.351   2.814 -1.3123  0.4733 -0.7125
 3986SOL    HW315717   3.706   6.355   2.663  0.6098  1.3481 -0.7888
 3986SOL    MW415718   3.722   6.394   2.739  0.3466  0.6949 -0.3891
 3987SOL     OW15719   1.600   5.505   0.816 -0.0814  0.1125 -0.2915
 3987SOL    HW215720   1.676   5.492   0.759  0.0266 -0.9195  0.0664
 3987SOL    HW315721   1.564   5.589   0.789  0.8501  0.3473 -0.8578
 3987SOL    MW415722   1.605   5.514   0.805  0.0557  0.0074 -0.3190
 3988SOL     OW15723   0.605   3.535   2.088 -0.2837  0.3342  0.3667
 3988SOL    HW215724   0.553   3.523   2.009 -0.0910  0.1803  0.2607
 3988SOL    HW315725   0.675   3.594   2.062 -2.3692  3.4924  1.4019
 3988SOL    MW415726   0.607   3.541   2.074 -0.5334  0.7306  0.4893
 3989SOL     OW15727   0.042   0.808   3.446  0.0633 -0.0207  1.0651
 3989SOL    HW215728  -0.009   0.861   3.507  0.0234  1.5830 -0.2770
 3989SOL    HW315729   0.110   0.867   3.414  1.7048 -1.5925  1.4833
 3989SOL    MW415730   0.044   0.823   3.450  0.2746 -0.0165  0.9432
 3990SOL     OW15731   1.881   0.384   0.362 -0.4029 -0.0782 -0.0304
 3990SOL    HW215732   1.900   0.449   0.294  0.7524  0.2175  0.5392
 3990SOL    HW315733   1.804   0.418   0.408  1.5553  2.2580  1.8196
 3990SOL    MW415734   1.874   0.397   0.359  0.0079  0.2690  0.2889
 3991SOL     OW15735   3.425   3.168   1.717 -0.1498 -0.2283  0.4797
 3991SOL    HW215736   3.345   3.186   1.766 -1.3092 -0.9689 -1.0331
 3991SOL    HW315737   3.404   3.089   1.666  1.4932 -0.3424 -0.0759
 3991SOL    MW415738   3.412   3.160   1.717 -0.0860 -0.3411  0.2068
 3992SOL     OW15739   5.681   5.804   0.064 -0.1205 -0.4257 -0.2444
 3992SOL    HW215740   5.649   5.880   0.112 -1.0087 -0.8533 -0.1250
 3992SOL    HW315741   5.674   5.828  -0.028 -1.8628 -0.8977 -0.2606
 3992SOL    MW415742   5.676   5.817   0.058 -0.4676 -0.5444 -0.2308
 3993SOL     OW15743   3.976   3.948   3.950 -0.3342 -0.3540  0.4453
 3993SOL    HW215744   3.990   3.866   3.902  2.0850 -0.2870  0.8847
 3993SOL    HW315745   3.932   3.922   4.031  1.4647 -1.4502  1.1340
 3993SOL    MW415746   3.972   3.934   3.954  0.2223 -0.4898  0.5941
 3994SOL     OW15747   6.409   2.146   3.504 -0.0541 -0.3282  0.0716
 3994SOL    HW215748   6.441   2.063   3.539 -2.6821 -1.5166 -0.0937
 3994SOL    HW315749   6.334   2.169   3.559 -0.9138  0.6236 -1.4166
 3994SOL    MW415750   6.404   2.138   3.516 -0.5142 -0.3594 -0.1465
 3995SOL     OW15751   1.024   1.627   4.740 -0.6282 -0.1500  0.5878
 3995SOL    HW215752   0.960   1.625   4.669 -0.2568 -0.9334  0.2631
 3995SOL    HW315753   0.975   1.659   4.816 -1.1934  0.0460  0.1440
 3995SOL    MW415754   1.009   1.631   4.741 -0.6538 -0.2275  0.4864
 3996SOL     OW15755   6.236   3.738   5.676 -0.0216 -0.2732 -0.0230
 3996SOL    HW215756   6.208   3.829   5.662  1.5049  0.1476 -0.5648
 3996SOL    HW315757   6.182   3.686   5.616 -0.2534  0.3901 -0.4007
 3996SOL    MW415758   6.225   3.743   5.666  0.1492 -0.1302 -0.1443
 3997SOL     OW15759   6.379   6.150   2.572  0.2492 -0.0687 -0.0799
 3997SOL    HW215760   6.363   6.168   2.480  2.4609  1.1145 -0.3148
 3997SOL    HW315761   6.461   6.101   2.573  0.7111  0.6642  1.2723
 3997SOL    MW415762   6.388   6.146   2.560  0.6019  0.1841  0.0675
 3998SOL     OW15763   6.244   6.118   3.326  1.2097 -0.1732  0.0548
 3998SOL    HW215764   6.195   6.195   3.301 -0.1960 -1.2014 -0.4975
 3998SOL    HW315765   6.327   6.124   3.278 -0.0897 -0.4781 -2.3548
 3998SOL    MW415766   6.249   6.129   3.317  0.8528 -0.3491 -0.3360
 3999SOL     OW15767   1.385   5.173   2.570  0.0666  0.4707 -0.0766
 3999SOL    HW215768   1.341   5.090   2.587 -0.4748  0.8668  0.4833
 3999SOL    HW315769   1.476   5.148   2.553 -0.0728 -0.2285  0.1605
 3999SOL    MW415770   1.392   5.158   2.570 -0.0232  0.4307  0.0286
 4000SOL     OW15771   1.940   4.216   5.261 -0.1994  0.5611 -0.3479
 4000SOL    HW215772   1.921   4.197   5.353 -0.1530  3.7194  0.4334
 4000SOL    HW315773   1.977   4.135   5.227 -0.3132 -0.7510  2.3728
 4000SOL    MW415774   1.942   4.203   5.269 -0.2083  0.8047  0.1142
 4001SOL     OW15775   3.288   2.539   2.132 -0.5918  0.3867 -0.7576
 4001SOL    HW215776   3.241   2.519   2.213 -1.7059 -0.7874 -1.6338
 4001SOL    HW315777   3.236   2.609   2.091 -0.5895  0.3082 -0.8972
 4001SOL    MW415778   3.275   2.545   2.137 -0.7385  0.2214 -0.8916
 4002SOL     OW15779   6.071   4.525   0.120  0.6300 -0.3614 -0.4567
 4002SOL    HW215780   6.055   4.435   0.090  1.7579 -0.6191 -0.3318
 4002SOL    HW315781   6.110   4.569   0.045  1.0403 -0.2673 -0.1865
 4002SOL    MW415782   6.074   4.519   0.106  0.8330 -0.3830 -0.4046
 4003SOL     OW15783   5.060   0.103   0.866 -0.3539  0.9684  0.0481
 4003SOL    HW215784   5.079   0.125   0.957 -1.3868  1.6203  0.1302
 4003SOL    HW315785   4.967   0.124   0.855 -0.8360 -1.2654 -0.5275
 4003SOL    MW415786   5.050   0.109   0.876 -0.5538  0.7597 -0.0170
 4004SOL     OW15787   2.352   4.140   3.121 -0.1436  0.0923  0.3592
 4004SOL    HW215788   2.400   4.121   3.040 -0.0661  0.2304  0.3719
 4004SOL    HW315789   2.271   4.091   3.113  0.4257 -0.9357  0.7714
 4004SOL    MW415790   2.348   4.131   3.109 -0.0583 -0.0251  0.4152
 4005SOL     OW15791   5.948   2.969   2.041 -0.1371 -0.1333 -0.2766
 4005SOL    HW215792   5.891   2.905   2.084  0.3404  0.0103  0.5780
 4005SOL    HW315793   5.917   2.970   1.950 -0.3357 -1.3717 -0.2511
 4005SOL    MW415794   5.936   2.960   2.034 -0.1003 -0.2778 -0.1605
 4006SOL     OW15795   3.406   5.356   4.676  0.0799 -0.0563  0.3691
 4006SOL    HW215796   3.440   5.409   4.748  0.3099 -0.7659  0.7947
 4006SOL    HW315797   3.483   5.333   4.624  0.1055 -0.7401  0.7065
 4006SOL    MW415798   3.421   5.360   4.679  0.1136 -0.2401  0.4698
 4007SOL     OW15799   3.878   4.391   0.694 -0.3330 -0.2904  0.3960
 4007SOL    HW215800   3.824   4.449   0.749  0.0530 -0.1554  0.6394
 4007SOL    HW315801   3.966   4.400   0.730 -0.1400 -0.4790 -0.0237
 4007SOL    MW415802   3.883   4.400   0.706 -0.2566 -0.2975  0.3728
 4008SOL     OW15803   4.227   2.097   0.659 -0.2443 -0.5184 -0.4688
 4008SOL    HW215804   4.187   2.166   0.606  0.5226 -0.4860 -1.0193
 4008SOL    HW315805   4.205   2.016   0.611  0.4264 -0.4912 -0.8383
 4008SOL    MW415806   4.219   2.095   0.645 -0.0546 -0.5105 -0.5902
 4009SOL     OW15807   0.030   5.377   5.385 -0.2856  0.0259  0.2048
 4009SOL    HW215808  -0.032   5.350   5.452  0.0090 -1.7864 -0.1857
 4009SOL    HW315809   0.116   5.352   5.420 -0.0624 -0.2365 -0.5077
 4009SOL    MW415810   0.033   5.370   5.398 -0.2173 -0.2478  0.0593
 4010SOL     OW15811   3.694   0.530   5.398 -0.1416 -0.4834  0.4529
 4010SOL    HW215812   3.626   0.574   5.449 -0.9370 -0.6346 -0.4255
 4010SOL    HW315813   3.651   0.512   5.314  1.6513  1.3702 -0.9434
 4010SOL    MW415814   3.679   0.533   5.393 -0.0100 -0.2588  0.1528
 4011SOL     OW15815   2.767   2.828  -0.000  0.0494 -0.3496 -0.5068
 4011SOL    HW215816   2.858   2.854  -0.011 -0.2080  0.4896 -0.7768
 4011SOL    HW315817   2.755   2.822   0.095  0.4884 -0.8473 -0.4849
 4011SOL    MW415818   2.777   2.831   0.011  0.0733 -0.3045 -0.5395
 4012SOL     OW15819   4.728   1.998   2.195 -0.2869 -0.0687 -0.3676
 4012SOL    HW215820   4.670   2.074   2.194  0.0414  0.1910 -1.2417
 4012SOL    HW315821   4.707   1.952   2.276 -2.5372 -0.6061 -1.1776
 4012SOL    MW415822   4.717   2.002   2.205 -0.5405 -0.1054 -0.5898
 4013SOL     OW15823   6.384   2.544   2.075 -0.0570  0.2514 -0.6171
 4013SOL    HW215824   6.343   2.629   2.059  0.2061  0.8725  1.6550
 4013SOL    HW315825   6.450   2.561   2.141 -0.4269 -1.8210  0.3913
 4013SOL    MW415826   6.387   2.557   2.082 -0.0711  0.0599 -0.1843
 4014SOL     OW15827   2.050   6.350   2.469 -0.5181 -0.2897 -0.3694
 4014SOL    HW215828   2.065   6.378   2.559 -1.1452  0.2650 -0.4321
 4014SOL    HW315829   2.090   6.263   2.464 -0.9596 -0.5674  0.6100
 4014SOL    MW415830   2.057   6.342   2.480 -0.6591 -0.2531 -0.2485
 4015SOL     OW15831   1.660   3.168   5.205  0.3143 -0.5429  0.2334
 4015SOL    HW215832   1.707   3.086   5.190  0.6177 -0.9986  3.0210
 4015SOL    HW315833   1.729   3.232   5.226 -0.0061  0.0948 -0.6113
 4015SOL    MW415834   1.675   3.166   5.206  0.3121 -0.5189  0.4897
 4016SOL     OW15835   6.179   1.789   3.610  0.2774  0.3633 -0.4587
 4016SOL    HW215836   6.136   1.705   3.628  1.4593 -0.1210  0.2508
 4016SOL    HW315837   6.130   1.825   3.536 -1.5008 -0.0138  0.4736
 4016SOL    MW415838   6.167   1.782   3.603  0.1988  0.2496 -0.2421
 4017SOL     OW15839   5.125   2.574   2.838  0.0867 -0.2960  0.2597
 4017SOL    HW215840   5.072   2.647   2.805 -0.9291 -0.8876  0.5253
 4017SOL    HW315841   5.092   2.497   2.790 -0.0540 -0.8457  1.2046
 4017SOL    MW415842   5.113   2.573   2.827 -0.0659 -0.4466  0.4194
 4018SOL     OW15843   5.514   2.836   5.019  0.5145  0.3270 -0.0590
 4018SOL    HW215844   5.443   2.801   4.964 -0.0211  1.9753 -0.4805
 4018SOL    HW315845   5.504   2.790   5.103  0.7051 -1.4779 -0.9627
 4018SOL    MW415846   5.503   2.825   5.023  0.4690  0.3064 -0.2338
 4019SOL     OW15847   6.250   2.200   3.251  0.1205 -0.2596 -0.4395
 4019SOL    HW215848   6.312   2.153   3.306 -0.2659 -2.0308 -1.4393
 4019SOL    HW315849   6.304   2.231   3.177  0.4548  1.3030  0.4157
 4019SOL    MW415850   6.266   2.198   3.248  0.1136 -0.2871 -0.4586
 4020SOL     OW15851   1.772   4.478   5.773  0.1181  0.1161  0.0893
 4020SOL    HW215852   1.684   4.509   5.752 -0.2107 -0.8075  0.0710
 4020SOL    HW315853   1.797   4.527   5.852 -0.5776  0.0802  0.3333
 4020SOL    MW415854   1.764   4.489   5.781 -0.0171 -0.0105  0.1191
 4021SOL     OW15855   4.922   0.035   4.117 -0.3138 -0.0917  0.0216
 4021SOL    HW215856   4.885   0.003   4.035  0.7008  1.1199 -0.9411
 4021SOL    HW315857   4.953   0.123   4.097 -0.6760  0.5121  1.9002
 4021SOL    MW415858   4.921   0.042   4.104 -0.2278  0.1478  0.1425
 4022SOL     OW15859   4.827   4.487   5.061 -0.8867  0.7333  0.4030
 4022SOL    HW215860   4.904   4.431   5.072 -0.7124  1.0812  1.0109
 4022SOL    HW315861   4.766   4.434   5.010 -0.4204  0.2821  0.3064
 4022SOL    MW415862   4.829   4.472   5.056 -0.8022  0.7197  0.4704
 4023SOL     OW15863   6.218   1.565   1.703 -0.3287  0.4976  0.4627
 4023SOL    HW215864   6.257   1.524   1.626  0.2317  0.5312  0.7198
 4023SOL    HW315865   6.139   1.514   1.720  0.1358 -0.2224  0.5300
 4023SOL    MW415866   6.213   1.553   1.695 -0.1934  0.4070  0.5055
 4024SOL     OW15867   1.387   4.941   1.056 -0.1227 -0.1656 -0.3081
 4024SOL    HW215868   1.344   4.911   0.976 -1.7187 -0.7801  0.7241
 4024SOL    HW315869   1.480   4.948   1.033 -0.2957 -1.9143 -1.7380
 4024SOL    MW415870   1.394   4.938   1.042 -0.3561 -0.4774 -0.3606
 4025SOL     OW15871   2.923   5.672   1.173 -0.4466 -0.5507 -0.8741
 4025SOL    HW215872   2.999   5.713   1.214 -0.3061  0.5952 -2.1804
 4025SOL    HW315873   2.871   5.746   1.142 -2.1080 -1.3096 -0.0339
 4025SOL    MW415874   2.926   5.687   1.174 -0.6473 -0.4997 -0.9356
 4026SOL     OW15875   3.404   5.276   0.756  0.7509  0.4325 -0.6120
 4026SOL    HW215876   3.463   5.201   0.745  1.1742  1.0243 -2.6679
 4026SOL    HW315877   3.397   5.314   0.669 -1.2808  1.4520 -0.0529
 4026SOL    MW415878   3.411   5.271   0.743  0.5387  0.6451 -0.8095
 4027SOL     OW15879   0.289   5.327   0.105  0.3219  0.4595 -0.4366
 4027SOL    HW215880   0.230   5.271   0.156  2.4504 -1.4920  0.0512
 4027SOL    HW315881   0.269   5.307   0.014  0.0093  0.0684 -0.2840
 4027SOL    MW415882   0.279   5.317   0.100  0.5615  0.1504 -0.3521
 4028SOL     OW15883   4.344   5.452   0.274  0.2592 -0.4295  0.3422
 4028SOL    HW215884   4.313   5.426   0.361  0.2064  0.3351  0.5556
 4028SOL    HW315885   4.327   5.375   0.219 -1.8783 -0.1180  0.4843
 4028SOL    MW415886   4.338   5.438   0.278 -0.0298 -0.2876  0.3891
 4029SOL     OW15887   5.761   1.309   2.256  0.0338 -0.1465 -0.3339
 4029SOL    HW215888   5.735   1.288   2.346  1.5325 -1.9137 -0.2468
 4029SOL    HW315889   5.831   1.372   2.265 -0.6714  0.6579 -0.3466
 4029SOL    MW415890   5.766   1.314   2.269  0.1385 -0.2735 -0.3241
 4030SOL     OW15891   3.764   5.323   3.152  0.0335  0.3587  0.1488
 4030SOL    HW215892   3.755   5.328   3.247  0.9553 -1.2156  0.3597
 4030SOL    HW315893   3.751   5.230   3.132  3.5756 -0.0573 -0.8136
 4030SOL    MW415894   3.761   5.311   3.162  0.6225  0.0961  0.0496
 4031SOL     OW15895   2.648   4.856   3.261  0.1917 -0.3364 -0.1070
 4031SOL    HW215896   2.712   4.802   3.215  1.5339  0.6806  0.5020
 4031SOL    HW315897   2.565   4.808   3.251  0.8971 -1.3475 -1.4776
 4031SOL    MW415898   2.646   4.842   3.254  0.4619 -0.3356 -0.2075
 4032SOL     OW15899   5.683   4.244   2.609 -0.2595 -0.0763  0.5660
 4032SOL    HW215900   5.613   4.248   2.544 -1.0147  0.6276  1.4121
 4032SOL    HW315901   5.738   4.170   2.580 -0.1851  0.6437 -1.2522
 4032SOL    MW415902   5.681   4.234   2.597 -0.3494  0.1115  0.4377
 4033SOL     OW15903   6.108   2.234   2.769  0.4966 -0.0067  0.2418
 4033SOL    HW215904   6.137   2.221   2.679 -0.1194  0.3610 -0.0142
 4033SOL    HW315905   6.037   2.172   2.781  1.0534 -0.5654  0.7137
 4033SOL    MW415906   6.102   2.224   2.759  0.4888 -0.0319  0.2703
 4034SOL     OW15907   0.081   5.972   5.013 -0.0061  0.1384  0.2826
 4034SOL    HW215908   0.172   6.003   5.014 -0.1759  0.6386  0.8564
 4034SOL    HW315909   0.040   6.016   5.087 -0.9145  0.5018 -0.4182
 4034SOL    MW415910   0.088   5.982   5.023 -0.1483  0.2523  0.2658
 4035SOL     OW15911   1.320   4.733   0.450 -0.0703 -0.3844  0.3260
 4035SOL    HW215912   1.407   4.699   0.471  0.0568  0.8644  2.0717
 4035SOL    HW315913   1.263   4.696   0.518 -0.7248 -0.4377 -0.2397
 4035SOL    MW415914   1.324   4.723   0.462 -0.1399 -0.2267  0.4817
 4036SOL     OW15915   2.911   4.218   3.263  0.1009  0.0579 -0.3929
 4036SOL    HW215916   2.972   4.291   3.254  1.0259 -0.4218  1.5224
 4036SOL    HW315917   2.826   4.259   3.278  0.5834  0.7586  0.5195
 4036SOL    MW415918   2.908   4.233   3.264  0.2866  0.0871 -0.0198
 4037SOL     OW15919   3.734   5.662   4.750 -0.2620 -0.6925 -0.6103
 4037SOL    HW215920   3.810   5.649   4.694 -0.8018 -0.6852 -1.3591
 4037SOL    HW315921   3.710   5.754   4.738  1.0730  0.0097  1.5249
 4037SOL    MW415922   3.741   5.672   4.741 -0.1571 -0.5989 -0.4274
 4038SOL     OW15923   3.986   2.283   1.682  0.1223 -0.1298  0.2794
 4038SOL    HW215924   3.931   2.260   1.608  1.3898 -0.7993 -0.4799
 4038SOL    HW315925   4.065   2.230   1.672 -0.1935 -1.2393  2.8270
 4038SOL    MW415926   3.990   2.273   1.671  0.2479 -0.3645  0.5154
 4039SOL     OW15927   1.677   4.548   4.707  0.0477 -0.3467 -0.0189
 4039SOL    HW215928   1.666   4.565   4.613 -1.3722  0.2545  0.2395
 4039SOL    HW315929   1.656   4.455   4.716 -0.0345 -0.3538 -0.2645
 4039SOL    MW415930   1.673   4.538   4.696 -0.1505 -0.2683 -0.0172
 4040SOL     OW15931   2.482   3.126   3.086 -0.4828  0.3008  0.4936
 4040SOL    HW215932   2.575   3.132   3.105 -0.2956 -0.8364 -0.0316
 4040SOL    HW315933   2.441   3.109   3.171 -0.0564 -0.6570  0.5183
 4040SOL    MW415934   2.489   3.125   3.100 -0.4018  0.0244  0.4276
 4041SOL     OW15935   2.372   3.557   4.827  0.0021 -0.3768 -0.3342
 4041SOL    HW215936   2.445   3.521   4.777  0.3004 -0.2539  0.0096
 4041SOL    HW315937   2.413   3.612   4.894 -0.2738 -2.2197  1.4139
 4041SOL    MW415938   2.387   3.560   4.829  0.0050 -0.6037 -0.0582
 4042SOL     OW15939   3.247   0.923   3.017 -0.1478  0.1052  0.1788
 4042SOL    HW215940   3.176   0.859   3.021 -0.0292 -0.0497 -0.1201
 4042SOL    HW315941   3.277   0.919   2.926  1.0671 -0.7492  0.5867
 4042SOL    MW415942   3.242   0.914   3.005  0.0281 -0.0279  0.1931
 4043SOL     OW15943   2.965   3.227   4.848 -0.0607 -0.4719 -0.3687
 4043SOL    HW215944   2.981   3.270   4.931 -1.4241  0.2267 -0.4456
 4043SOL    HW315945   2.974   3.296   4.782 -3.8814  0.2520 -0.3708
 4043SOL    MW415946   2.968   3.242   4.850 -0.7447 -0.2842 -0.3791
 4044SOL     OW15947   2.080   0.443   2.003  0.2064 -0.4501 -0.0250
 4044SOL    HW215948   2.058   0.395   1.924 -2.9698 -0.1069  0.5267
 4044SOL    HW315949   2.089   0.534   1.975  1.0962 -0.5967 -0.2567
 4044SOL    MW415950   2.078   0.449   1.989 -0.0953 -0.4241  0.0172
 4045SOL     OW15951   1.631   2.387   2.432 -0.5689 -0.1827  0.2414
 4045SOL    HW215952   1.543   2.419   2.453 -1.3234 -0.4148 -2.2153
 4045SOL    HW315953   1.617   2.321   2.364  1.5864  1.1492 -1.6494
 4045SOL    MW415954   1.618   2.383   2.425 -0.3841 -0.0376 -0.3322
 4046SOL     OW15955   4.487   2.541   1.182  0.2421  0.8019  0.3400
 4046SOL    HW215956   4.408   2.586   1.153 -0.7487 -0.7704  0.5166
 4046SOL    HW315957   4.486   2.551   1.277 -0.4264 -0.2673  0.4576
 4046SOL    MW415958   4.477   2.548   1.191  0.0232  0.4534  0.3789
 4047SOL     OW15959   2.465   2.615   2.782  0.4593 -0.4799 -0.0391
 4047SOL    HW215960   2.530   2.607   2.712 -0.0938 -1.7872 -0.4452
 4047SOL    HW315961   2.483   2.540   2.840  1.1441  0.7829  1.4587
 4047SOL    MW415962   2.476   2.604   2.780  0.4767 -0.4857  0.1049
 4048SOL     OW15963   3.192   5.318   5.525  0.4119  0.4624 -0.4020
 4048SOL    HW215964   3.106   5.321   5.567  0.3341 -0.1913 -0.5054
 4048SOL    HW315965   3.174   5.324   5.432  0.3713 -1.0105 -0.5083
 4048SOL    MW415966   3.178   5.320   5.518  0.3963  0.1818 -0.4297
 4049SOL     OW15967   2.933   4.458   0.584 -0.5556  0.2371 -0.4887
 4049SOL    HW215968   3.028   4.462   0.573 -0.4546 -3.0231 -1.5894
 4049SOL    HW315969   2.919   4.483   0.676  1.6856 -1.7593  0.5002
 4049SOL    MW415970   2.944   4.462   0.595 -0.2465 -0.4564 -0.5035
 4050SOL     OW15971   0.735   0.545   4.015 -0.0035  0.1973  0.1807
 4050SOL    HW215972   0.684   0.618   4.049  0.9521  0.2970  1.4982
 4050SOL    HW315973   0.672   0.491   3.966 -1.2633  0.5278  1.3874
 4050SOL    MW415974   0.720   0.547   4.013 -0.0436  0.2541  0.5137
 4051SOL     OW15975   3.423   4.772   0.807  0.3152 -0.3726 -0.0069
 4051SOL    HW215976   3.389   4.837   0.868 -0.7754 -0.3109 -0.6581
 4051SOL    HW315977   3.385   4.689   0.837 -0.4600 -0.3026 -0.7366
 4051SOL    MW415978   3.413   4.770   0.819  0.0690 -0.3552 -0.1891
 4052SOL     OW15979   1.469   0.144   0.372 -0.6274 -0.3585  0.1487
 4052SOL    HW215980   1.474   0.106   0.284  2.0921  1.2580 -0.5082
 4052SOL    HW315981   1.520   0.085   0.427 -1.0684 -0.5677  0.3415
 4052SOL    MW415982   1.476   0.131   0.367 -0.3268 -0.1728  0.0875
 4053SOL     OW15983   1.381   2.914   3.760  0.0583  0.3263 -0.0011
 4053SOL    HW215984   1.413   3.002   3.782 -2.3189  0.9905  1.2026
 4053SOL    HW315985   1.323   2.891   3.833  0.5901 -2.2672 -0.3185
 4053SOL    MW415986   1.377   2.923   3.773 -0.1852  0.0717  0.1159
 4054SOL     OW15987   4.053   0.973   3.643 -0.0022 -0.0895 -0.1413
 4054SOL    HW215988   3.980   0.922   3.605  0.4870 -2.1789  1.5161
 4054SOL    HW315989   4.131   0.924   3.618  0.4953 -0.2054  1.5081
 4054SOL    MW415990   4.054   0.960   3.635  0.1279 -0.3805  0.2950
 4055SOL     OW15991   2.250   5.364   0.259 -0.3968 -0.2372  0.0279
 4055SOL    HW215992   2.224   5.364   0.351  1.0435 -0.8593  0.4574
 4055SOL    HW315993   2.210   5.285   0.223  1.5512 -1.7393  0.9274
 4055SOL    MW415994   2.241   5.354   0.266  0.0503 -0.5175  0.2032
 4056SOL     OW15995   2.654   5.505   2.542 -0.4336  0.5887  0.2942
 4056SOL    HW215996   2.664   5.423   2.493 -1.0717  0.7930 -0.2013
 4056SOL    HW315997   2.664   5.574   2.477  1.0204  0.9491  0.8730
 4056SOL    MW415998   2.656   5.503   2.527 -0.3259  0.6632  0.3052
 4057SOL     OW15999   5.206   0.340   0.067  0.2622 -0.3341 -0.0076
 4057SOL    HW216000   5.186   0.258   0.111  1.1853 -0.6535 -0.1657
 4057SOL    HW316001   5.278   0.319   0.008  2.4870  1.1668  1.9864
 4057SOL    MW416002   5.212   0.326   0.065  0.6776 -0.1782  0.2346
 4058SOL     OW16003   5.681   0.819   2.147  0.2464  0.1785  0.2270
 4058SOL    HW216004   5.712   0.908   2.165 -0.8713  0.8392 -0.9629
 4058SOL    HW316005   5.726   0.765   2.212  1.0639  1.5819  0.8862
 4058SOL    MW416006   5.691   0.823   2.158  0.2068  0.4508  0.1570
 4059SOL     OW16007   1.817   4.681   6.385 -0.4156 -0.8121 -0.2904
 4059SOL    HW216008   1.822   4.607   6.325  0.2572 -0.4519 -0.6846
 4059SOL    HW316009   1.878   4.746   6.349  0.4099 -0.7990  1.0781
 4059SOL    MW416010   1.825   4.680   6.372 -0.2179 -0.7628 -0.1619
 4060SOL     OW16011   1.088   0.698   2.618  0.1158  0.4049 -0.2762
 4060SOL    HW216012   1.119   0.789   2.623  1.0811  0.1061 -0.5165
 4060SOL    HW316013   1.017   0.693   2.681 -0.8547  1.6764 -1.2162
 4060SOL    MW416014   1.083   0.710   2.627  0.1151  0.5332 -0.4319
 4061SOL     OW16015   0.913   1.004   0.586 -0.4462  0.0352 -0.0672
 4061SOL    HW216016   0.832   1.053   0.594 -1.3349 -1.3532 -0.1960
 4061SOL    HW316017   0.899   0.925   0.639  0.3321 -0.8027 -1.0623
 4061SOL    MW416018   0.901   1.000   0.594 -0.4608 -0.2585 -0.2155
 4062SOL     OW16019   1.697   1.628   0.743  0.3604 -0.3726  0.3046
 4062SOL    HW216020   1.628   1.616   0.678  0.0228  0.4577  0.4931
 4062SOL    HW316021   1.653   1.673   0.816  0.9907 -0.2746  0.6320
 4062SOL    MW416022   1.682   1.632   0.744  0.3990 -0.2501  0.3727
 4063SOL     OW16023   0.339   3.159   4.091 -0.1424 -0.8029 -0.4399
 4063SOL    HW216024   0.286   3.235   4.066  0.6045 -0.3467 -0.6846
 4063SOL    HW316025   0.277   3.086   4.094 -1.0396 -0.0357  0.6328
 4063SOL    MW416026   0.324   3.160   4.088 -0.1622 -0.6415 -0.3307
 4064SOL     OW16027   2.246   6.075   3.431 -0.2007 -0.6769 -0.5058
 4064SOL    HW216028   2.278   6.119   3.510  1.5377  0.5212 -1.7999
 4064SOL    HW316029   2.164   6.120   3.411  0.0152 -0.0746 -0.1051
 4064SOL    MW416030   2.239   6.087   3.439  0.0571 -0.4393 -0.6236
 4065SOL     OW16031   6.037   0.145   3.793  0.4946 -0.5672 -0.0041
 4065SOL    HW216032   6.046   0.143   3.698  1.1827 -0.9985  0.0619
 4065SOL    HW316033   5.954   0.191   3.808  0.9332  0.5275 -0.7714
 4065SOL    MW416034   6.027   0.151   3.782  0.6433 -0.4797 -0.0966
 4066SOL     OW16035   1.129   4.044   0.321 -0.0982  0.0835 -0.1941
 4066SOL    HW216036   1.136   4.095   0.402 -0.7392 -0.4775  0.2221
 4066SOL    HW316037   1.148   4.107   0.252  0.5650  0.5483  0.3927
 4066SOL    MW416038   1.132   4.059   0.322 -0.0953  0.0708 -0.0618
 4067SOL     OW16039   1.555   4.267   5.254  0.4647  0.7418 -0.0553
 4067SOL    HW216040   1.601   4.313   5.184  3.1559 -1.6692 -0.0695
 4067SOL    HW316041   1.464   4.262   5.223  1.2415  1.0964 -2.6613
 4067SOL    MW416042   1.549   4.272   5.240  0.9223  0.4704 -0.4010
 4068SOL     OW16043   2.017   5.689   4.761 -0.4488 -0.2909  0.5762
 4068SOL    HW216044   1.933   5.699   4.715 -0.3432  1.3950  0.6766
 4068SOL    HW316045   1.994   5.691   4.854 -0.2220  1.5931  0.6347
 4068SOL    MW416046   2.003   5.691   4.767 -0.4049  0.1801  0.5972
 4069SOL     OW16047   2.436   0.943   5.343 -0.0111  0.2477  0.3807
 4069SOL    HW216048   2.365   0.995   5.381  0.1004  1.3291 -0.8224
 4069SOL    HW316049   2.395   0.860   5.321 -0.8572  0.7674 -0.0517
 4069SOL    MW416050   2.421   0.939   5.345 -0.1080  0.4589  0.1649
 4070SOL     OW16051   1.576   6.090   3.900 -0.4988  0.6876 -0.3844
 4070SOL    HW216052   1.662   6.128   3.919 -0.1049  0.3112 -1.3726
 4070SOL    HW316053   1.590   5.996   3.904 -0.8204  0.6245 -0.7442
 4070SOL    MW416054   1.589   6.083   3.903 -0.4893  0.6296 -0.5622
 4071SOL     OW16055   2.595   2.437   5.452 -0.2012 -0.3800 -0.9381
 4071SOL    HW216056   2.582   2.502   5.521  0.8357 -1.2371  0.1209
 4071SOL    HW316057   2.509   2.428   5.411 -1.1303 -0.5421  0.8936
 4071SOL    MW416058   2.582   2.444   5.456 -0.1870 -0.5145 -0.5567
 4072SOL     OW16059   4.148   2.893   5.528  0.3442  0.4499  0.2408
 4072SOL    HW216060   4.222   2.846   5.490 -0.0558  1.0772 -1.3897
 4072SOL    HW316061   4.072   2.841   5.505  0.0875  0.8678  0.1318
 4072SOL    MW416062   4.148   2.880   5.520  0.2575  0.5878  0.0113
 4073SOL     OW16063   4.178   2.966   4.661 -0.0936 -0.4419  0.2660
 4073SOL    HW216064   4.165   2.893   4.601 -0.2642  0.5264 -0.9325
 4073SOL    HW316065   4.110   2.956   4.727 -0.7995 -0.7855 -0.4907
 4073SOL    MW416066   4.168   2.955   4.661 -0.2092 -0.3595  0.0080
 4074SOL     OW16067   4.996   4.255   4.815 -0.1767 -0.2201  0.2909
 4074SOL    HW216068   5.007   4.200   4.737  0.4005 -1.2083  1.0425
 4074SOL    HW316069   5.080   4.251   4.859 -0.5984  0.0404  1.1396
 4074SOL    MW416070   5.008   4.247   4.811 -0.1562 -0.3161  0.5020
 4075SOL     OW16071   6.125   6.332   2.031 -0.0553 -0.1457  0.1416
 4075SOL    HW216072   6.067   6.290   2.094  2.2573  0.4324  2.8823
 4075SOL    HW316073   6.180   6.260   1.998  1.0056 -0.0042  1.5026
 4075SOL    MW416074   6.125   6.317   2.035  0.3898 -0.0507  0.6828
 4076SOL     OW16075   3.861   3.979   0.467  0.2852 -0.2107 -0.3186
 4076SOL    HW216076   3.937   3.993   0.411  0.0097  1.9049 -0.2218
 4076SOL    HW316077   3.804   4.053   0.450 -1.2072 -1.1091  0.5325
 4076SOL    MW416078   3.864   3.990   0.458  0.0519 -0.0501 -0.1935
 4077SOL     OW16079   2.700   1.803   0.397  0.3553 -0.4133  0.4813
 4077SOL    HW216080   2.752   1.745   0.341 -1.7988 -1.9416 -0.0386
 4077SOL    HW316081   2.611   1.798   0.362 -0.3053  1.6472  1.6945
 4077SOL    MW416082   2.695   1.795   0.385 -0.0160 -0.3431  0.5727
 4078SOL     OW16083   5.457   0.396   1.492  0.3382 -0.3701  0.0310
 4078SOL    HW216084   5.545   0.361   1.503  0.1711 -1.2683 -1.2808
 4078SOL    HW316085   5.468   0.472   1.434  0.5983  1.4412  2.2757
 4078SOL    MW416086   5.470   0.402   1.486  0.3504 -0.2496  0.1541
 4079SOL     OW16087   2.045   4.058   6.169  0.0930  0.1078 -0.1666
 4079SOL    HW216088   2.015   3.983   6.220  0.4048  0.2421  0.2298
 4079SOL    HW316089   2.006   4.134   6.213  0.0498  0.1990 -0.3624
 4079SOL    MW416090   2.036   4.058   6.182  0.1285  0.1375 -0.1401
 4080SOL     OW16091   6.421   5.464   0.743  0.0342 -0.1480 -0.2215
 4080SOL    HW216092   6.512   5.492   0.732  0.0898 -1.0910 -2.7260
 4080SOL    HW316093   6.427   5.372   0.770 -0.1923  0.2362  1.1953
 4080SOL    MW416094   6.433   5.455   0.745  0.0116 -0.2218 -0.3650
 4081SOL     OW16095   0.294   5.245   5.030  0.1537  0.1483 -0.1424
 4081SOL    HW216096   0.376   5.222   5.075  1.2642 -0.2198 -2.2348
 4081SOL    HW316097   0.289   5.184   4.957 -2.0838  0.1046 -0.0316
 4081SOL    MW416098   0.304   5.234   5.027  0.0050  0.0940 -0.4039
 4082SOL     OW16099   2.994   2.820   3.583  0.2736  0.6550  0.2888
 4082SOL    HW216100   2.952   2.737   3.561  1.7856  0.6456 -3.2487
 4082SOL    HW316101   3.076   2.796   3.625  0.9998  0.2098 -1.2782
 4082SOL    MW416102   2.999   2.806   3.585  0.5689  0.5950 -0.3847
 4083SOL     OW16103   1.010   6.109   5.719  0.2035 -0.3276  0.3560
 4083SOL    HW216104   1.100   6.127   5.743  0.2375  0.4223 -0.2880
 4083SOL    HW316105   0.976   6.194   5.690 -1.2243 -0.1958  2.1926
 4083SOL    MW416106   1.017   6.123   5.718  0.0196 -0.2113  0.5134
 4084SOL     OW16107   2.737   0.765   2.230 -0.0194  0.0878 -0.1015
 4084SOL    HW216108   2.674   0.709   2.276 -0.8002  1.6200  0.7929
 4084SOL    HW316109   2.817   0.758   2.282  0.4041 -1.3888 -0.8944
 4084SOL    MW416110   2.739   0.757   2.243 -0.0665  0.0952 -0.0881
 4085SOL     OW16111   2.570   1.949   1.901  0.2579  0.5631 -0.0137
 4085SOL    HW216112   2.537   1.897   1.975 -1.2826  0.1336 -0.9632
 4085SOL    HW316113   2.521   2.031   1.905 -0.3911  0.2399 -0.9674
 4085SOL    MW416114   2.559   1.953   1.911 -0.0310  0.4638 -0.2648
 4086SOL     OW16115   3.778   6.376   3.275  0.0649  0.1960  0.1491
 4086SOL    HW216116   3.709   6.311   3.263  0.4214 -0.5199  1.6878
 4086SOL    HW316117   3.755   6.421   3.357  0.9021  0.6186  0.1695
 4086SOL    MW416118   3.766   6.374   3.285  0.2224  0.1573  0.3548
 4087SOL     OW16119   2.547   2.340   3.352 -0.8810  0.0695  0.1707
 4087SOL    HW216120   2.517   2.430   3.339 -0.4602  0.1138 -0.5713
 4087SOL    HW316121   2.531   2.297   3.268 -2.1247 -0.8759  0.8548
 4087SOL    MW416122   2.541   2.347   3.339 -0.9896 -0.0494  0.1630
 4088SOL     OW16123   3.714   0.803   3.167  0.0433  0.3039  0.3285
 4088SOL    HW216124   3.795   0.838   3.203  0.9323 -0.9467 -0.3898
 4088SOL    HW316125   3.735   0.713   3.144 -1.5303 -0.0166  0.0389
 4088SOL    MW416126   3.727   0.796   3.169 -0.0470  0.0966  0.1955
 4089SOL     OW16127   4.041   0.183   5.483  0.0581 -0.0443  0.5814
 4089SOL    HW216128   3.999   0.252   5.533 -1.1298  0.1446 -0.6273
 4089SOL    HW316129   4.048   0.109   5.544 -1.8829 -0.0229  0.8717
 4089SOL    MW416130   4.037   0.182   5.497 -0.3547 -0.0166  0.4602
 4090SOL     OW16131   1.257   1.379   3.156 -0.1386  0.2359 -0.3615
 4090SOL    HW216132   1.341   1.419   3.180 -0.7317  0.6440  1.1364
 4090SOL    HW316133   1.279   1.320   3.084  1.2222  1.2456 -0.8257
 4090SOL    MW416134   1.271   1.377   3.150 -0.0373  0.4230 -0.2252
 4091SOL     OW16135   2.677   5.961   2.211  0.1938  0.4639 -0.1913
 4091SOL    HW216136   2.728   6.038   2.185  0.1643  0.9962  1.2645
 4091SOL    HW316137   2.644   5.925   2.128  1.8425  0.8530 -1.0639
 4091SOL    MW416138   2.680   5.966   2.196  0.4075  0.5854 -0.1144
 4092SOL     OW16139   6.317   4.311   3.927  0.5139  0.8366 -0.3869
 4092SOL    HW216140   6.369   4.357   3.993  2.0501  0.3242 -1.1902
 4092SOL    HW316141   6.310   4.221   3.960  2.0531  0.3495 -1.2980
 4092SOL    MW416142   6.323   4.305   3.940  0.9196  0.7047 -0.6131
 4093SOL     OW16143   5.384   1.367   2.055 -0.2979 -0.1191 -0.3732
 4093SOL    HW216144   5.437   1.401   1.983  1.2859 -1.3477  0.1453
 4093SOL    HW316145   5.396   1.429   2.126  0.7954 -0.5551 -0.1463
 4093SOL    MW416146   5.393   1.379   2.054  0.0553 -0.3387 -0.2748
 4094SOL     OW16147   4.909   3.471   4.423 -0.1023 -0.4554  0.1129
 4094SOL    HW216148   4.957   3.389   4.427 -2.1415 -1.7170 -0.0350
 4094SOL    HW316149   4.835   3.454   4.365  0.5984  2.1638 -1.7435
 4094SOL    MW416150   4.906   3.458   4.416 -0.2789 -0.2763 -0.1515
 4095SOL     OW16151   3.718   2.156   4.934  0.1816 -0.2866 -0.0049
 4095SOL    HW216152   3.738   2.126   4.845 -0.8206  1.0308 -0.7164
 4095SOL    HW316153   3.777   2.106   4.990 -1.1695 -3.3578 -1.0806
 4095SOL    MW416154   3.728   2.146   4.929 -0.1289 -0.5180 -0.2407
 4096SOL     OW16155   3.032   2.951  -0.018  0.1466 -0.0162 -0.2891
 4096SOL    HW216156   3.102   2.948   0.048  1.6321  2.4375 -1.6560
 4096SOL    HW316157   3.069   2.908  -0.095 -0.4729 -0.1442 -0.5251
 4096SOL    MW416158   3.046   2.945  -0.019  0.2608  0.2907 -0.5006
 4097SOL     OW16159   4.879   4.818   3.139 -0.2685  0.0128  0.1417
 4097SOL    HW216160   4.799   4.839   3.188  0.4786  0.3504  1.2549
 4097SOL    HW316161   4.928   4.761   3.198  1.6803  2.2181  0.8167
 4097SOL    MW416162   4.875   4.813   3.153  0.0872  0.3483  0.3777
 4098SOL     OW16163   4.676   1.046   3.033  0.0423 -0.0100  0.2784
 4098SOL    HW216164   4.604   1.032   2.972  0.7646  0.4573 -0.7167
 4098SOL    HW316165   4.753   1.008   2.990  1.0222  2.3001 -0.1914
 4098SOL    MW416166   4.677   1.039   3.019  0.2669  0.3564  0.0851
 4099SOL     OW16167   4.381   1.582   5.357 -0.2607  0.0093  0.3795
 4099SOL    HW216168   4.337   1.513   5.309  0.7150  0.6268 -1.5086
 4099SOL    HW316169   4.314   1.648   5.373 -0.6850 -0.3895  0.2398
 4099SOL    MW416170   4.367   1.582   5.353 -0.1880  0.0382  0.1119
 4100SOL     OW16171   3.259   1.124   0.376  0.0635  0.2454  0.1849
 4100SOL    HW216172   3.192   1.152   0.439  0.1627 -0.4739  0.6151
 4100SOL    HW316173   3.324   1.195   0.378  0.4352 -0.0999  1.4437
 4100SOL    MW416174   3.259   1.137   0.385  0.1256  0.1050  0.4077
 4101SOL     OW16175   1.587   2.346   3.367  0.3275 -0.5007  0.2147
 4101SOL    HW216176   1.599   2.367   3.275 -2.5409  2.9785  0.3833
 4101SOL    HW316177   1.675   2.349   3.405  1.4093 -0.6414 -2.1389
 4101SOL    MW416178   1.600   2.349   3.360  0.0918 -0.0602 -0.0736
 4102SOL     OW16179   4.933   3.528   5.387  0.0129  0.0592  0.0511
 4102SOL    HW216180   5.024   3.554   5.372  0.1154 -0.8531 -1.0582
 4102SOL    HW316181   4.935   3.432   5.379 -0.9690 -0.0067  0.4974
 4102SOL    MW416182   4.946   3.518   5.384 -0.1031 -0.0698 -0.0364
 4103SOL     OW16183   3.679   5.485   3.964 -0.5518  0.1969 -0.3664
 4103SOL    HW216184   3.720   5.570   3.975  0.5334 -0.2975 -0.4716
 4103SOL    HW316185   3.683   5.445   4.051  0.3859 -0.3565 -0.6407
 4103SOL    MW416186   3.685   5.491   3.977 -0.2849  0.0587 -0.4164
 4104SOL     OW16187   3.654   4.692   1.475 -0.1029 -0.5837  0.3467
 4104SOL    HW216188   3.741   4.659   1.498  0.2596  0.0697 -0.0778
 4104SOL    HW316189   3.617   4.722   1.559  0.4298 -0.0458  0.3951
 4104SOL    MW416190   3.661   4.691   1.489  0.0152 -0.4265  0.2971
 4105SOL     OW16191   0.037   0.228   5.620  0.2242 -0.4455 -0.4542
 4105SOL    HW216192   0.120   0.208   5.662  0.3084 -1.9157 -1.2676
 4105SOL    HW316193   0.054   0.308   5.569  1.9169 -2.0941 -2.6450
 4105SOL    MW416194   0.050   0.236   5.619  0.4586 -0.8570 -0.8506
 4106SOL     OW16195   2.612   5.614   5.959 -0.5110 -0.5530  0.0081
 4106SOL    HW216196   2.690   5.659   5.927 -0.8979  0.7201  0.7709
 4106SOL    HW316197   2.552   5.615   5.885 -0.7056  0.7046  0.1536
 4106SOL    MW416198   2.614   5.620   5.945 -0.5877 -0.2191  0.1279
 4107SOL     OW16199   1.262   6.140   5.833  0.4503 -0.1375  0.1265
 4107SOL    HW216200   1.351   6.154   5.864  0.2454  2.0417 -0.1459
 4107SOL    HW316201   1.209   6.141   5.913  0.4979  0.1542  0.1551
 4107SOL    MW416202   1.267   6.142   5.848  0.4295  0.1885  0.0943
 4108SOL     OW16203   6.258   1.784   0.489 -0.0191 -0.7472  0.2858
 4108SOL    HW216204   6.231   1.876   0.495  2.1329  0.0058 -0.5071
 4108SOL    HW316205   6.192   1.737   0.541 -1.2440  1.2039  0.6498
 4108SOL    MW416206   6.245   1.790   0.497  0.1032 -0.3905  0.2292
 4109SOL     OW16207   1.110   2.846   3.872  0.0084  0.0649 -0.0810
 4109SOL    HW216208   1.140   2.758   3.893 -1.2365 -0.1706  0.7859
 4109SOL    HW316209   1.015   2.838   3.861 -0.3560  1.5301  1.4927
 4109SOL    MW416210   1.101   2.833   3.873 -0.2040  0.2271  0.2410
 4110SOL     OW16211   2.203   5.136   3.199 -0.3663 -0.0562 -0.1520
 4110SOL    HW216212   2.225   5.181   3.117 -1.1450 -1.5481 -1.2255
 4110SOL    HW316213   2.286   5.133   3.247 -0.0181  1.3298 -0.6167
 4110SOL    MW416214   2.217   5.142   3.195 -0.4231 -0.0702 -0.3550
 4111SOL     OW16215   2.330   2.623   0.779 -0.1693 -0.2060 -0.1009
 4111SOL    HW216216   2.290   2.675   0.848 -0.5681  1.9523 -1.8327
 4111SOL    HW316217   2.256   2.592   0.726  0.2434  0.7004 -1.2395
 4111SOL    MW416218   2.315   2.625   0.781 -0.1675  0.1984 -0.4796
 4112SOL     OW16219   2.048   5.305   2.241  0.1836  0.2873  0.0370
 4112SOL    HW216220   2.087   5.383   2.201  2.0267 -1.5626 -2.0104
 4112SOL    HW316221   1.971   5.287   2.187  1.2459 -0.7564 -1.1890
 4112SOL    MW416222   2.043   5.313   2.228  0.5669 -0.0944 -0.3949
 4113SOL     OW16223   3.728   1.729   1.866  0.5648  0.2018 -0.3179
 4113SOL    HW216224   3.704   1.780   1.943 -0.9575  0.1989 -0.7589
 4113SOL    HW316225   3.702   1.639   1.887 -0.1776  0.2542 -0.9287
 4113SOL    MW416226   3.721   1.724   1.879  0.2660  0.2083 -0.4567
 4114SOL     OW16227   1.647   2.869   5.034  0.3211 -0.3058  0.2107
 4114SOL    HW216228   1.742   2.880   5.032  0.0721  2.4365  0.0443
 4114SOL    HW316229   1.630   2.827   5.119  1.6355 -0.5290  0.3894
 4114SOL    MW416230   1.657   2.865   5.045  0.4616  0.0266  0.2123
 4115SOL     OW16231   2.260   3.045   1.629  0.2583 -0.5299  0.2212
 4115SOL    HW216232   2.344   3.012   1.661  1.0419 -0.5617 -1.7495
 4115SOL    HW316233   2.219   2.970   1.587  0.2412  0.0095 -0.7495
 4115SOL    MW416234   2.266   3.031   1.628  0.3594 -0.4629 -0.1669
 4116SOL     OW16235   3.340   3.109   5.260  0.0514 -0.7523 -0.2117
 4116SOL    HW216236   3.368   3.029   5.217  1.7398 -1.0560  1.2887
 4116SOL    HW316237   3.412   3.130   5.320 -1.3213  0.6663  1.0409
 4116SOL    MW416238   3.353   3.101   5.263  0.0931 -0.6052  0.1516
 4117SOL     OW16239   2.201   2.363   1.278 -0.2090  0.0913 -0.1953
 4117SOL    HW216240   2.162   2.445   1.247 -1.1400 -0.2047  0.1599
 4117SOL    HW316241   2.180   2.361   1.371 -0.4896 -0.7114 -0.2737
 4117SOL    MW416242   2.193   2.374   1.286 -0.3688 -0.0536 -0.1588
 4118SOL     OW16243   3.347   1.936   5.896 -0.1000  0.2610 -0.0917
 4118SOL    HW216244   3.305   1.936   5.982 -0.5350  1.6474 -0.2658
 4118SOL    HW316245   3.278   1.906   5.836  0.5175 -1.7373  0.1403
 4118SOL    MW416246   3.332   1.932   5.899 -0.0760  0.1803 -0.0841
 4119SOL     OW16247   5.814   5.822   3.690 -0.0062 -0.0932 -0.4724
 4119SOL    HW216248   5.801   5.911   3.724  0.7130 -0.7527  1.6946
 4119SOL    HW316249   5.867   5.779   3.757 -1.0686 -2.4191 -1.0471
 4119SOL    MW416250   5.819   5.828   3.704 -0.0515 -0.4871 -0.2624
 4120SOL     OW16251   0.240   0.873   0.548  0.3457  0.0005 -0.0084
 4120SOL    HW216252   0.332   0.846   0.550  0.9220  1.8441  0.0136
 4120SOL    HW316253   0.196   0.815   0.610  1.3326 -1.4138 -0.5901
 4120SOL    MW416254   0.246   0.862   0.556  0.5519  0.0571 -0.0823
 4121SOL     OW16255   2.387   0.490   1.922 -0.0165  0.2842  0.3286
 4121SOL    HW216256   2.396   0.573   1.874 -0.8485  1.3700  1.9523
 4121SOL    HW316257   2.304   0.454   1.893  0.1356  0.2338 -0.0513
 4121SOL    MW416258   2.377   0.496   1.912 -0.1062  0.4208  0.4927
 4122SOL     OW16259   3.280   1.977   1.445  0.5313 -0.2734  0.2944
 4122SOL    HW216260   3.337   2.027   1.387  0.8514 -1.9588 -0.9049
 4122SOL    HW316261   3.192   2.004   1.421  0.6401 -1.1630 -1.2453
 4122SOL    MW416262   3.276   1.988   1.435  0.5879 -0.6131 -0.0670
 4123SOL     OW16263   0.287   6.345   3.768 -0.2115 -0.3298  0.0262
 4123SOL    HW216264   0.278   6.285   3.695  0.6965  0.9834 -1.2137
 4123SOL    HW316265   0.204   6.392   3.770  0.0230  0.1272 -0.6368
 4123SOL    MW416266   0.275   6.343   3.759 -0.0608 -0.0962 -0.2249
 4124SOL     OW16267   5.867   5.124   3.945  0.3708 -0.5423  0.4171
 4124SOL    HW216268   5.902   5.042   3.979  0.6121 -0.6764 -0.1441
 4124SOL    HW316269   5.861   5.181   4.022  1.6177 -0.5868  0.5827
 4124SOL    MW416270   5.871   5.121   3.959  0.5672 -0.5658  0.3649
 4125SOL     OW16271   0.323   2.470   5.252 -0.0900  0.3872 -0.0954
 4125SOL    HW216272   0.286   2.555   5.232  1.3734  1.3413  0.9942
 4125SOL    HW316273   0.386   2.454   5.182 -0.3277  0.2184 -0.2717
 4125SOL    MW416274   0.327   2.479   5.240  0.0718  0.4908  0.0251
 4126SOL     OW16275   2.849   0.312   1.648  0.0925  0.5392  0.1563
 4126SOL    HW216276   2.804   0.375   1.592 -0.6299 -0.6269 -0.6004
 4126SOL    HW316277   2.923   0.281   1.596 -0.7659 -0.7895 -0.3271
 4126SOL    MW416278   2.853   0.316   1.634 -0.1160  0.2100 -0.0074
 4127SOL     OW16279   0.189   2.454   2.654 -0.4702  0.9242  0.2990
 4127SOL    HW216280   0.140   2.426   2.576  0.2558 -0.3318  0.2594
 4127SOL    HW316281   0.131   2.434   2.727 -0.1306 -0.4022  0.2403
 4127SOL    MW416282   0.175   2.448   2.653 -0.3296  0.5835  0.2861
 4128SOL     OW16283   4.528   3.514   4.935  0.1969  0.0595  0.1106
 4128SOL    HW216284   4.574   3.435   4.965 -0.1800 -0.5584 -0.8805
 4128SOL    HW316285   4.473   3.483   4.863 -2.2728  0.6365  1.6483
 4128SOL    MW416286   4.527   3.499   4.929 -0.1787  0.0541  0.1827
 4129SOL     OW16287   1.001   5.519   1.409 -0.6202 -0.2941  0.0690
 4129SOL    HW216288   0.932   5.568   1.453 -0.6074  1.0553 -1.3191
 4129SOL    HW316289   0.976   5.521   1.316 -0.2503 -2.3529 -0.1230
 4129SOL    MW416290   0.988   5.526   1.403 -0.5697 -0.3877 -0.1395
 4130SOL     OW16291   0.776   1.205   2.502 -0.1928 -0.6125 -0.6400
 4130SOL    HW216292   0.755   1.245   2.587  2.5075 -2.6141  1.1490
 4130SOL    HW316293   0.723   1.125   2.501 -0.7684 -0.2322 -1.2223
 4130SOL    MW416294   0.766   1.199   2.513  0.0876 -0.8264 -0.4808
 4131SOL     OW16295   1.766   6.185   2.900  0.0115 -0.4518  0.5527
 4131SOL    HW216296   1.846   6.166   2.852 -0.6356 -0.6137 -0.4912
 4131SOL    HW316297   1.764   6.121   2.972  0.4720 -0.8854  0.1792
 4131SOL    MW416298   1.776   6.174   2.903 -0.0131 -0.5304  0.3657
 4132SOL     OW16299   5.280   1.243   5.747  0.7215  0.1807  0.2786
 4132SOL    HW216300   5.233   1.205   5.673 -0.5554  1.6202  0.3120
 4132SOL    HW316301   5.371   1.248   5.717  0.4144 -0.2804 -0.7813
 4132SOL    MW416302   5.286   1.239   5.733  0.5125  0.3098  0.1432
 4133SOL     OW16303   4.131   2.348   2.300  0.1220  0.2156 -0.7759
 4133SOL    HW216304   4.100   2.270   2.254  0.5480 -0.7122  0.4550
 4133SOL    HW316305   4.182   2.314   2.373 -1.7344  1.5765  1.2771
 4133SOL    MW416306   4.134   2.333   2.303 -0.0668  0.2728 -0.3426
 4134SOL     OW16307   6.147   5.140   2.886  0.2286  0.1043 -0.2068
 4134SOL    HW216308   6.193   5.132   2.803  0.9248 -1.8003  0.2988
 4134SOL    HW316309   6.071   5.082   2.877  0.0336  0.2773  0.2960
 4134SOL    MW416310   6.143   5.131   2.874  0.2947 -0.1241 -0.0738
 4135SOL     OW16311   1.333   0.265   3.981  0.4365 -0.0495 -0.1598
 4135SOL    HW216312   1.328   0.176   4.017  1.4286  0.1163  0.4494
 4135SOL    HW316313   1.334   0.321   4.058  2.3112  0.3323 -0.4143
 4135SOL    MW416314   1.333   0.260   3.996  0.8147  0.0227 -0.1130
 4136SOL     OW16315   1.148   4.922   5.105  0.4557 -0.1622 -0.0055
 4136SOL    HW216316   1.178   4.831   5.106  1.8165  0.2614  0.2751
 4136SOL    HW316317   1.084   4.927   5.176 -0.0504 -1.0222 -0.3845
 4136SOL    MW416318   1.144   4.911   5.114  0.5685 -0.2198 -0.0185
 4137SOL     OW16319   1.806   3.948   1.162  0.2043  0.3885  0.9142
 4137SOL    HW216320   1.867   3.875   1.149 -0.3286 -0.1334  1.2927
 4137SOL    HW316321   1.719   3.908   1.155 -0.1083  1.2311 -0.1952
 4137SOL    MW416322   1.803   3.933   1.160  0.0927  0.4308  0.8178
 4138SOL     OW16323   4.196   0.716   5.595  0.1164  0.2040 -0.3930
 4138SOL    HW216324   4.109   0.698   5.628 -0.1868  1.9551 -0.1480
 4138SOL    HW316325   4.238   0.630   5.589 -0.9862 -0.4863  1.2362
 4138SOL    MW416326   4.190   0.702   5.598 -0.0691  0.3439 -0.1457
 4139SOL     OW16327   3.113   5.828   4.283  0.0158 -0.9036 -0.1206
 4139SOL    HW216328   3.148   5.832   4.372 -1.2758  0.9648  0.3348
 4139SOL    HW316329   3.104   5.734   4.265 -0.3029 -1.2991  1.9480
 4139SOL    MW416330   3.117   5.816   4.292 -0.1967 -0.7092  0.2124
 4140SOL     OW16331   5.424   2.569   4.667  0.0240 -0.2453  0.3633
 4140SOL    HW216332   5.376   2.574   4.584  1.2918  0.8136 -0.3422
 4140SOL    HW316333   5.391   2.490   4.709 -0.5151 -0.9107 -1.2338
 4140SOL    MW416334   5.413   2.559   4.662  0.1201 -0.1934  0.0595
 4141SOL     OW16335   3.285   0.853   2.731  0.1996  0.3414  0.2317
 4141SOL    HW216336   3.336   0.773   2.745 -0.3299  0.1327  1.0248
 4141SOL    HW316337   3.349   0.917   2.698  0.2943 -0.8937 -2.2133
 4141SOL    MW416338   3.300   0.851   2.728  0.1422  0.1509  0.0138
 4142SOL     OW16339   0.410   1.808   4.941 -0.5864 -0.2012  0.1126
 4142SOL    HW216340   0.432   1.715   4.930 -0.9968 -0.5060  1.6653
 4142SOL    HW316341   0.415   1.844   4.852  0.8769 -1.4068 -0.3305
 4142SOL    MW416342   0.413   1.800   4.928 -0.4475 -0.4005  0.2590
 4143SOL     OW16343   1.759   4.226   3.522 -0.1483  0.7368  0.0050
 4143SOL    HW216344   1.854   4.237   3.521 -0.0039  0.0908  2.2565
 4143SOL    HW316345   1.725   4.315   3.533  0.3077  0.7773  1.2416
 4143SOL    MW416346   1.767   4.239   3.523 -0.0691  0.6569  0.4652
 4144SOL     OW16347   2.940   6.119   1.019  0.0868  0.5132 -0.2750
 4144SOL    HW216348   2.853   6.081   1.029  0.2280  0.1074 -0.5665
 4144SOL    HW316349   2.953   6.126   0.925 -0.1011  1.6836 -0.2326
 4144SOL    MW416350   2.930   6.115   1.008  0.0806  0.6141 -0.3078
 4145SOL     OW16351   6.168   1.950   2.975  0.5370  0.2590  0.7318
 4145SOL    HW216352   6.115   1.993   3.043 -0.2371  0.7125 -0.1280
 4145SOL    HW316353   6.215   2.022   2.933  0.1961  0.1199  0.1002
 4145SOL    MW416354   6.167   1.965   2.979  0.3898  0.3004  0.5350
 4146SOL     OW16355   0.611   6.169   0.570 -0.1709 -0.0683 -0.1049
 4146SOL    HW216356   0.608   6.156   0.665  1.8517  1.3023  0.2012
 4146SOL    HW316357   0.691   6.126   0.542 -1.0494 -0.9881 -1.3375
 4146SOL    MW416358   0.621   6.162   0.579 -0.0199 -0.0088 -0.2271
 4147SOL     OW16359   4.154   3.278   3.077 -0.2625  0.3748 -0.1794
 4147SOL    HW216360   4.094   3.325   3.135  0.4102  0.1967  0.6730
 4147SOL    HW316361   4.214   3.346   3.045 -0.3837  0.4041 -0.3421
 4147SOL    MW416362   4.154   3.293   3.080 -0.1897  0.3552 -0.0884
 4148SOL     OW16363   2.994   2.359   0.236 -0.3301 -0.6373  0.0429
 4148SOL    HW216364   2.904   2.355   0.205 -0.1655 -1.8364 -0.3063
 4148SOL    HW316365   2.990   2.331   0.327 -0.2811 -0.8489 -0.0211
 4148SOL    MW416366   2.982   2.355   0.244 -0.3019 -0.8234 -0.0116
 4149SOL     OW16367   2.729   0.640   5.444  0.0510 -0.7724 -0.5396
 4149SOL    HW216368   2.784   0.675   5.514  1.4677 -1.2937 -1.3263
 4149SOL    HW316369   2.723   0.712   5.381 -2.5279  0.2450  0.7530
 4149SOL    MW416370   2.736   0.654   5.445 -0.1023 -0.7069 -0.4728
 4150SOL     OW16371   5.723   2.331   2.228  0.2628 -0.0299 -0.5729
 4150SOL    HW216372   5.812   2.358   2.205  0.3571  1.2427  1.1243
 4150SOL    HW316373   5.668   2.406   2.205 -0.1194 -0.1137  0.0477
 4150SOL    MW416374   5.728   2.345   2.222  0.2248  0.1270 -0.2671
 4151SOL     OW16375   3.978   5.873   2.171  0.1446  0.6486 -0.5453
 4151SOL    HW216376   3.946   5.784   2.162 -0.4612  0.7713  0.3040
 4151SOL    HW316377   3.943   5.919   2.095 -1.4624  0.6988  0.1811
 4151SOL    MW416378   3.969   5.868   2.160 -0.1473  0.6714 -0.3374
 4152SOL     OW16379   2.662   0.289  -0.012  0.5518 -0.0615 -0.1298
 4152SOL    HW216380   2.662   0.298  -0.107 -0.5325 -0.6021 -0.2037
 4152SOL    HW316381   2.569   0.278   0.010  0.6526  1.3381  1.1227
 4152SOL    MW416382   2.650   0.289  -0.022  0.4220  0.0518  0.0257
 4153SOL     OW16383   1.121   0.910   4.324  0.3396 -0.4098 -0.1316
 4153SOL    HW216384   1.125   0.969   4.400 -2.1851 -0.4241  0.1161
 4153SOL    HW316385   1.027   0.893   4.313  0.7097 -1.1485 -2.7070
 4153SOL    MW416386   1.109   0.916   4.333  0.0553 -0.5091 -0.4387
 4154SOL     OW16387   1.331   0.315   4.258  0.1127 -0.1852  0.1846
 4154SOL    HW216388   1.252   0.280   4.299  0.9140 -0.5564  1.4666
 4154SOL    HW316389   1.403   0.267   4.298  1.0226  0.3257 -0.7663
 4154SOL    MW416390   1.330   0.304   4.268  0.3385 -0.1668  0.2283
 4155SOL     OW16391   6.366   1.630   1.045 -0.0680  0.4611 -0.0012
 4155SOL    HW216392   6.343   1.615   0.953 -2.4192 -0.1641  0.6115
 4155SOL    HW316393   6.389   1.544   1.079  2.3762  0.9180 -0.3195
 4155SOL    MW416394   6.366   1.617   1.037 -0.0557  0.4389  0.0376
 4156SOL     OW16395   0.553   4.814   5.533 -0.0657 -0.8789  0.6376
 4156SOL    HW216396   0.619   4.789   5.597  0.9806 -0.2060 -0.1556
 4156SOL    HW316397   0.599   4.816   5.450 -1.6261 -2.7478 -0.3458
 4156SOL    MW416398   0.568   4.811   5.531 -0.1335 -1.0367  0.4032
 4157SOL     OW16399   4.579   6.231   2.003 -0.2271  0.3714 -0.5993
 4157SOL    HW216400   4.549   6.288   2.073 -0.4247 -1.0213  0.5073
 4157SOL    HW316401   4.506   6.171   1.988  0.2314 -0.0498 -1.2191
 4157SOL    MW416402   4.565   6.230   2.010 -0.1927  0.1321 -0.5351
 4158SOL     OW16403   2.378   1.341   4.747  0.6559 -0.1498 -0.5943
 4158SOL    HW216404   2.348   1.277   4.682 -0.0871 -0.3558 -0.0611
 4158SOL    HW316405   2.470   1.320   4.761  0.7410 -0.3119 -1.3343
 4158SOL    MW416406   2.386   1.330   4.740  0.5691 -0.1984 -0.6216
 4159SOL     OW16407   2.460   2.420   1.210  0.3016  0.2488  0.2663
 4159SOL    HW216408   2.521   2.350   1.235  0.0731  0.6503  2.1450
 4159SOL    HW316409   2.376   2.390   1.243 -0.2540  0.3799 -0.9868
 4159SOL    MW416410   2.457   2.407   1.218  0.1981  0.3190  0.3489
 4160SOL     OW16411   5.581   3.104   5.006  0.2048  0.3144 -0.7762
 4160SOL    HW216412   5.568   3.009   5.011  1.1886  0.2479  1.1018
 4160SOL    HW316413   5.672   3.117   5.029 -0.2751  1.8214  0.4380
 4160SOL    MW416414   5.591   3.093   5.009  0.2712  0.5045 -0.3682
 4161SOL     OW16415   6.125   3.981   0.207  0.2350 -0.4558  0.5382
 4161SOL    HW216416   6.137   4.019   0.294 -0.7955  0.6286  0.2252
 4161SOL    HW316417   6.161   3.892   0.215  3.1296  0.6553  1.1611
 4161SOL    MW416418   6.131   3.974   0.220  0.4809 -0.1661  0.5791
 4162SOL     OW16419   0.206   3.712   3.113 -0.0942  0.1510  0.1427
 4162SOL    HW216420   0.220   3.807   3.104  0.6236 -0.0318 -0.7496
 4162SOL    HW316421   0.282   3.672   3.071 -1.1160 -0.8439 -0.8482
 4162SOL    MW416422   0.218   3.720   3.106 -0.1343 -0.0044 -0.1058
 4163SOL     OW16423   1.031   1.471   5.511  0.3140  0.0781 -0.9229
 4163SOL    HW216424   1.018   1.410   5.438  2.7322  0.5324 -1.8204
 4163SOL    HW316425   1.015   1.558   5.474 -1.5871  0.1750 -0.0336
 4163SOL    MW416426   1.027   1.474   5.497  0.3822  0.1508 -0.9240
 4164SOL     OW16427   5.107   5.789   2.020  0.2813 -0.8115 -0.3284
 4164SOL    HW216428   5.031   5.814   2.074 -0.5482 -0.7651 -1.4816
 4164SOL    HW316429   5.098   5.694   2.008 -0.7128 -0.5435 -2.0605
 4164SOL    MW416430   5.096   5.780   2.026  0.0407 -0.7701 -0.7091
 4165SOL     OW16431   3.502   4.037   1.384  0.2463  0.0672 -0.0008
 4165SOL    HW216432   3.586   4.041   1.430 -0.4188 -0.9768  1.3835
 4165SOL    HW316433   3.514   3.968   1.318  0.1959 -0.7431  0.8247
 4165SOL    MW416434   3.515   4.029   1.381  0.1519 -0.1775  0.2908
 4166SOL     OW16435   4.606   5.814   1.330 -0.2086  0.2554 -0.3962
 4166SOL    HW216436   4.636   5.899   1.362 -1.8686 -0.3417  3.2704
 4166SOL    HW316437   4.521   5.832   1.291 -0.7836  0.2783  0.8200
 4166SOL    MW416438   4.599   5.828   1.329 -0.5035  0.1796  0.2480
 4167SOL     OW16439   6.360   0.691   1.858  0.0921 -0.0981 -0.4893
 4167SOL    HW216440   6.353   0.699   1.763  2.5593 -1.9400 -0.9415
 4167SOL    HW316441   6.310   0.612   1.879 -0.9104  0.6067 -0.1220
 4167SOL    MW416442   6.352   0.681   1.849  0.2853 -0.2481 -0.5005
 4168SOL     OW16443   3.802   0.281   3.843  0.3280  0.4026 -0.3550
 4168SOL    HW216444   3.834   0.369   3.822  1.4756  1.0698  3.4169
 4168SOL    HW316445   3.873   0.222   3.815 -0.3864  0.5707 -2.7642
 4168SOL    MW416446   3.816   0.285   3.837  0.3851  0.5128 -0.1752
 4169SOL     OW16447   3.692   4.598   0.850  0.3553  0.0373  0.5942
 4169SOL    HW216448   3.697   4.554   0.935  0.8703  1.9964  1.6543
 4169SOL    HW316449   3.617   4.656   0.858  0.3496  0.1618 -0.3422
 4169SOL    MW416450   3.683   4.600   0.863  0.4225  0.3122  0.6105
 4170SOL     OW16451   0.642   0.861   1.473  0.2388 -0.6828  0.2763
 4170SOL    HW216452   0.558   0.905   1.475  0.5743 -0.0248  0.2358
 4170SOL    HW316453   0.626   0.780   1.425  0.4737  1.3434 -3.5985
 4170SOL    MW416454   0.629   0.856   1.467  0.3140 -0.3287 -0.2403
 4171SOL     OW16455   3.011   1.222   1.056  0.0925  0.5014 -0.5624
 4171SOL    HW216456   2.996   1.169   0.977 -0.3447  0.1116 -0.2213
 4171SOL    HW316457   3.104   1.211   1.075  0.3778  1.1826 -1.4380
 4171SOL    MW416458   3.021   1.214   1.048  0.0724  0.5399 -0.6329
 4172SOL     OW16459   3.124   3.403   1.950  0.1776  0.0035 -0.6676
 4172SOL    HW216460   3.160   3.423   2.037 -0.4638 -0.4300 -0.2927
 4172SOL    HW316461   3.136   3.309   1.940  0.9944  0.1686 -1.4093
 4172SOL    MW416462   3.130   3.393   1.960  0.2007 -0.0319 -0.7160
 4173SOL     OW16463   5.104   4.629   6.001  0.5199 -0.3728 -0.0624
 4173SOL    HW216464   5.186   4.679   6.007  0.9332 -0.6710 -2.3551
 4173SOL    HW316465   5.128   4.550   5.954 -1.4119  0.4269 -2.5935
 4173SOL    MW416466   5.118   4.625   5.996  0.3196 -0.3067 -0.6989
 4174SOL     OW16467   3.688   2.650   0.914 -0.2538 -0.7494  0.1064
 4174SOL    HW216468   3.607   2.603   0.894  0.2589 -1.3939 -0.5318
 4174SOL    HW316469   3.695   2.716   0.845 -0.5588 -0.2654  0.5340
 4174SOL    MW416470   3.679   2.652   0.902 -0.2264 -0.7706  0.0786
 4175SOL     OW16471   0.921   1.896   3.034  0.1549  0.2396  0.0272
 4175SOL    HW216472   0.866   1.908   3.112 -0.9379 -1.1541 -0.4993
 4175SOL    HW316473   1.011   1.900   3.067 -0.2623 -2.3864  1.7517
 4175SOL    MW416474   0.926   1.898   3.049 -0.0443 -0.2908  0.1853
 4176SOL     OW16475   4.628   2.041   1.462 -0.2980 -0.2180 -0.1780
 4176SOL    HW216476   4.557   1.979   1.445 -0.5033 -0.0130 -0.0754
 4176SOL    HW316477   4.707   1.996   1.431 -0.6541  0.1262 -1.6745
 4176SOL    MW416478   4.629   2.027   1.456 -0.3721 -0.1455 -0.3619
 4177SOL     OW16479   0.956   2.469   3.302 -0.6168  0.1077  0.0198
 4177SOL    HW216480   0.926   2.499   3.388  2.1059  3.4567  0.0492
 4177SOL    HW316481   1.030   2.412   3.322 -1.6890 -1.3810 -0.1377
 4177SOL    MW416482   0.962   2.466   3.316 -0.3991  0.3532  0.0029
 4178SOL     OW16483   0.720   0.738   2.372  0.0178  0.3574  0.3399
 4178SOL    HW216484   0.748   0.698   2.290  0.1331  3.2663 -1.1519
 4178SOL    HW316485   0.628   0.712   2.381  0.3801 -1.1353  0.0949
 4178SOL    MW416486   0.711   0.729   2.362  0.0808  0.5442  0.1108
 4179SOL     OW16487   4.961   3.942   3.090  0.1427 -0.2551 -0.0199
 4179SOL    HW216488   4.899   3.919   3.159  1.2130 -1.2505  0.6523
 4179SOL    HW316489   5.007   4.020   3.124  0.4502 -0.5566  0.2676
 4179SOL    MW416490   4.959   3.949   3.104  0.3245 -0.4262  0.1067
 4180SOL     OW16491   2.105   4.945   5.252  0.2476  0.6199  0.2381
 4180SOL    HW216492   2.064   4.862   5.229  0.4403  1.0940 -2.0987
 4180SOL    HW316493   2.034   4.999   5.284 -0.1355  0.0275  0.4145
 4180SOL    MW416494   2.091   4.941   5.253  0.2225  0.6043 -0.0469
 4181SOL     OW16495   0.922   4.238   2.979 -0.2571 -0.0458  0.0083
 4181SOL    HW216496   0.921   4.160   2.923  0.8098  0.4671 -0.7440
 4181SOL    HW316497   1.013   4.247   3.007 -0.5643  0.3673  0.9004
 4181SOL    MW416498   0.934   4.229   2.975 -0.1568  0.0764  0.0267
 4182SOL     OW16499   3.173   1.624   5.096 -0.3246 -0.0013  0.1449
 4182SOL    HW216500   3.162   1.690   5.027  2.1222 -0.4800 -0.8289
 4182SOL    HW316501   3.194   1.544   5.049  2.3653 -0.1341  1.3524
 4182SOL    MW416502   3.175   1.622   5.081  0.3531 -0.0820  0.1757
 4183SOL     OW16503   6.250   5.817   1.519 -0.0887  0.1001  0.2684
 4183SOL    HW216504   6.229   5.883   1.585  1.5300 -0.0620  0.9985
 4183SOL    HW316505   6.250   5.865   1.436  0.3156  0.8597  0.6939
 4183SOL    MW416506   6.247   5.832   1.517  0.1782  0.1789  0.4208
 4184SOL     OW16507   4.255   1.154   1.748 -0.3459 -0.2533 -0.1509
 4184SOL    HW216508   4.265   1.234   1.696  0.0257  0.1576  0.5288
 4184SOL    HW316509   4.204   1.181   1.824  1.0915 -0.2735  0.8728
 4184SOL    MW416510   4.250   1.168   1.751 -0.1073 -0.2018  0.0739
 4185SOL     OW16511   3.091   6.245   4.881  0.4043 -0.4592 -0.3882
 4185SOL    HW216512   3.025   6.202   4.935 -3.3207  1.2491 -3.1553
 4185SOL    HW316513   3.101   6.332   4.919 -0.3034 -0.1195 -0.9654
 4185SOL    MW416514   3.084   6.251   4.893 -0.1805 -0.1890 -0.8295
 4186SOL     OW16515   1.932   4.512   0.957  0.6854  0.2387 -0.2614
 4186SOL    HW216516   2.024   4.496   0.937  0.7708  0.3552  0.0324
 4186SOL    HW316517   1.914   4.599   0.921  1.1145  0.8884  1.0472
 4186SOL    MW416518   1.942   4.521   0.950  0.7533  0.3398 -0.0500
 4187SOL     OW16519   6.165   6.401   3.267  0.2497  0.3866  0.1419
 4187SOL    HW216520   6.174   6.387   3.172  1.2163  1.9735 -0.0358
 4187SOL    HW316521   6.076   6.374   3.287 -0.0622  0.2831 -1.2794
 4187SOL    MW416522   6.154   6.395   3.257  0.3361  0.5823 -0.0691
 4188SOL     OW16523   0.246   5.260   6.268 -0.2908  0.5383  0.0758
 4188SOL    HW216524   0.301   5.186   6.295 -0.0250  0.8280  0.3386
 4188SOL    HW316525   0.307   5.332   6.253 -0.3264  0.1417 -2.2763
 4188SOL    MW416526   0.261   5.260   6.270 -0.2605  0.5242 -0.1999
 4189SOL     OW16527   0.471   3.628   4.373  0.2652 -0.3409  0.3396
 4189SOL    HW216528   0.553   3.582   4.353 -0.2179 -1.0189 -0.1658
 4189SOL    HW316529   0.433   3.646   4.287 -0.8973 -1.5056  0.5752
 4189SOL    MW416530   0.477   3.624   4.359  0.0481 -0.5840  0.3040
 4190SOL     OW16531   4.797   0.444   5.201  0.1812 -0.2325 -0.4256
 4190SOL    HW216532   4.852   0.461   5.125  0.9480  2.4750  0.6116
 4190SOL    HW316533   4.708   0.456   5.169  0.5434  2.2040 -0.7072
 4190SOL    MW416534   4.792   0.448   5.187  0.3301  0.4462 -0.3259
 4191SOL     OW16535   1.414   1.171   2.023  0.6654 -0.1694 -0.0754
 4191SOL    HW216536   1.323   1.175   2.050  0.7525  1.4576  0.0505
 4191SOL    HW316537   1.411   1.145   1.931  0.0629  0.2063 -0.1656
 4191SOL    MW416538   1.402   1.168   2.015  0.5974  0.0948 -0.0707
 4192SOL     OW16539   3.617   4.123   4.994 -0.4332 -0.2775 -0.4287
 4192SOL    HW216540   3.703   4.083   5.008  0.0308  1.2301  1.3699
 4192SOL    HW316541   3.567   4.100   5.072 -0.7247  1.1201 -0.1770
 4192SOL    MW416542   3.622   4.115   5.006 -0.4104  0.1058 -0.1582
 4193SOL     OW16543   1.145   2.528   5.166 -0.6996  0.0859  0.4694
 4193SOL    HW216544   1.152   2.619   5.194  2.0102 -0.1412  0.7840
 4193SOL    HW316545   1.111   2.533   5.076 -1.1655  1.3589  0.7012
 4193SOL    MW416546   1.142   2.541   5.158 -0.4035  0.2239  0.5415
 4194SOL     OW16547   1.797   4.157   1.339 -0.1244  0.2767  0.2980
 4194SOL    HW216548   1.850   4.219   1.289  0.1005 -0.4281 -0.3632
 4194SOL    HW316549   1.790   4.080   1.282  0.8789 -0.9207  1.6982
 4194SOL    MW416550   1.803   4.155   1.325  0.0376  0.0257  0.3955
 4195SOL     OW16551   4.141   5.843   3.258 -0.1992 -0.2199 -0.2664
 4195SOL    HW216552   4.227   5.865   3.293 -0.7093  1.7003 -0.0917
 4195SOL    HW316553   4.159   5.798   3.176  0.9711 -1.5984  0.7103
 4195SOL    MW416554   4.155   5.840   3.252 -0.1121 -0.1485 -0.1145
 4196SOL     OW16555   4.003   2.539   2.127 -0.0742  0.1137 -0.1958
 4196SOL    HW216556   4.017   2.511   2.037 -0.0107  1.3738 -0.6037
 4196SOL    HW316557   3.935   2.607   2.121 -0.0775  0.2051  0.7032
 4196SOL    MW416558   3.996   2.544   2.114 -0.0663  0.2920 -0.1310
 4197SOL     OW16559   2.190   5.456   1.793  0.1439  0.8297 -0.3907
 4197SOL    HW216560   2.245   5.387   1.830  0.5455  0.8080 -1.0098
 4197SOL    HW316561   2.107   5.449   1.840  0.8887  1.2906  1.0172
 4197SOL    MW416562   2.186   5.446   1.804  0.2952  0.8877 -0.2866
 4198SOL     OW16563   4.815   1.020   3.577 -0.5235  0.4376 -0.4420
 4198SOL    HW216564   4.853   1.075   3.508  2.5894  0.7730  1.3447
 4198SOL    HW316565   4.799   0.936   3.534 -0.8065  1.2907 -2.0836
 4198SOL    MW416566   4.818   1.016   3.562 -0.1501  0.5944 -0.4228
 4199SOL     OW16567   2.119   4.376   0.304  0.6633  0.7562  0.5194
 4199SOL    HW216568   2.120   4.427   0.223 -0.9105 -1.5697 -1.0921
 4199SOL    HW316569   2.054   4.418   0.359  0.5457  1.4051 -0.1106
 4199SOL    MW416570   2.111   4.388   0.300  0.4401  0.5349  0.2237
 4200SOL     OW16571   5.932   3.763   3.400 -0.1113 -0.0092  0.0806
 4200SOL    HW216572   6.001   3.814   3.444 -0.1273  1.0043 -1.0257
 4200SOL    HW316573   5.978   3.714   3.332 -0.1537 -1.2501  0.8935
 4200SOL    MW416574   5.947   3.763   3.397 -0.1190 -0.0392  0.0419
 4201SOL     OW16575   4.412   0.888   2.559 -0.3516 -0.6065  0.0055
 4201SOL    HW216576   4.405   0.803   2.604  0.0462 -0.9591 -0.5918
 4201SOL    HW316577   4.325   0.928   2.569 -0.3482 -0.7952  0.8559
 4201SOL    MW416578   4.399   0.882   2.567 -0.2987 -0.6779  0.0389
 4202SOL     OW16579   2.629   0.329   4.054  0.3776 -0.3367 -0.0937
 4202SOL    HW216580   2.680   0.286   4.122  0.2842  0.1461  0.2876
 4202SOL    HW316581   2.691   0.339   3.981  0.7394 -0.0603  0.2431
 4202SOL    MW416582   2.644   0.325   4.053  0.4130 -0.2365  0.0010
 4203SOL     OW16583   3.467   2.900   3.472 -0.7382 -0.7479  0.8405
 4203SOL    HW216584   3.561   2.910   3.457 -0.6652 -0.7609  1.2793
 4203SOL    HW316585   3.449   2.809   3.448 -0.2753 -1.3206  2.5490
 4203SOL    MW416586   3.477   2.889   3.467 -0.6675 -0.8252  1.1238
 4204SOL     OW16587   3.979   4.204   4.333 -0.4816 -0.2105  0.2172
 4204SOL    HW216588   3.986   4.299   4.338  0.4353 -0.3275  4.1337
 4204SOL    HW316589   4.059   4.176   4.290 -1.5039  0.7386 -2.5197
 4204SOL    MW416590   3.990   4.213   4.328 -0.4955 -0.1007  0.3728
 4205SOL     OW16591   4.844   5.108   2.280  0.0699  0.2871  0.2644
 4205SOL    HW216592   4.911   5.104   2.211 -0.7017  2.1218 -0.6573
 4205SOL    HW316593   4.856   5.027   2.330  1.4338 -0.5321 -1.2974
 4205SOL    MW416594   4.855   5.097   2.278  0.1480  0.4211 -0.0633
 4206SOL     OW16595   6.008   2.850   0.267 -0.1818  0.1161  0.1100
 4206SOL    HW216596   5.982   2.927   0.216 -0.7338 -0.9588 -1.2872
 4206SOL    HW316597   6.097   2.869   0.295  0.6262  0.2561 -2.3141
 4206SOL    MW416598   6.016   2.863   0.264 -0.1480 -0.0073 -0.3941
 4207SOL     OW16599   3.745   0.226   5.805  0.6467  0.0203 -0.3178
 4207SOL    HW216600   3.716   0.292   5.868  1.8985  1.0528 -0.7560
 4207SOL    HW316601   3.699   0.146   5.830  0.5805  0.5690  1.4635
 4207SOL    MW416602   3.735   0.225   5.817  0.8032  0.2289 -0.1406
 4208SOL     OW16603   3.036   1.097   2.950  0.7739  0.0250 -0.4693
 4208SOL    HW216604   3.086   1.179   2.948 -0.1570  0.6248  0.0144
 4208SOL    HW316605   3.102   1.029   2.963  1.5934  0.6666 -1.1675
 4208SOL    MW416606   3.052   1.099   2.951  0.7592  0.1888 -0.4976
 4209SOL     OW16607   6.324   5.857   4.080 -0.1067  0.3273 -0.4404
 4209SOL    HW216608   6.298   5.822   3.995  1.6766  0.2254 -0.9968
 4209SOL    HW316609   6.286   5.944   4.083 -2.2287 -0.5469 -0.2598
 4209SOL    MW416610   6.316   5.864   4.069 -0.1514  0.1985 -0.4900
 4210SOL     OW16611   2.609   5.504   3.785  0.4831  0.0004 -0.2860
 4210SOL    HW216612   2.610   5.411   3.764  0.6204 -0.2406  0.7155
 4210SOL    HW316613   2.592   5.548   3.702  1.1317 -0.8765 -0.8948
 4210SOL    MW416614   2.607   5.498   3.772  0.5868 -0.1471 -0.2342
 4211SOL     OW16615   3.526   5.516   5.156  0.4583 -0.1573  0.4032
 4211SOL    HW216616   3.507   5.443   5.215 -0.4989  0.1233  0.4576
 4211SOL    HW316617   3.503   5.594   5.206 -1.5746  0.0427 -0.7215
 4211SOL    MW416618   3.520   5.517   5.171  0.0638 -0.0939  0.2620
 4212SOL     OW16619   0.423   0.362   0.637 -0.3570 -0.1567  1.0339
 4212SOL    HW216620   0.333   0.373   0.666 -0.7160 -0.9598  0.2909
 4212SOL    HW316621   0.415   0.322   0.550  0.7150 -0.2668  0.9706
 4212SOL    MW416622   0.410   0.358   0.629 -0.2629 -0.2772  0.9275
 4213SOL     OW16623   5.937   5.623   6.008  0.1083 -0.0308  0.1268
 4213SOL    HW216624   5.864   5.682   5.986 -0.3669 -0.3234  0.8663
 4213SOL    HW316625   5.919   5.543   5.959 -0.1646 -0.1642  0.4414
 4213SOL    MW416626   5.925   5.620   5.999  0.0096 -0.0870  0.2659
 4214SOL     OW16627   2.422   6.225   5.416 -0.7865 -0.1808  0.3912
 4214SOL    HW216628   2.472   6.231   5.334  1.0651 -1.4334  1.3625
 4214SOL    HW316629   2.362   6.299   5.413 -0.9872 -0.3646 -2.2289
 4214SOL    MW416630   2.420   6.235   5.405 -0.5687 -0.3703  0.1737
 4215SOL     OW16631   2.109   0.323   4.225  0.2122 -0.1655 -0.1981
 4215SOL    HW216632   2.140   0.280   4.304 -1.4743 -0.6067  0.2502
 4215SOL    HW316633   2.056   0.257   4.181 -2.3382  1.3391  0.4505
 4215SOL    MW416634   2.106   0.309   4.230 -0.3468 -0.0252 -0.0533
 4216SOL     OW16635   6.289   4.981   5.645 -0.4141 -0.0660 -0.3669
 4216SOL    HW216636   6.382   4.972   5.668 -0.3417  1.0690 -0.1669
 4216SOL    HW316637   6.243   4.928   5.710  0.0650 -0.2619 -0.1798
 4216SOL    MW416638   6.296   4.973   5.656 -0.3413  0.0579 -0.3158
 4217SOL     OW16639   0.239   2.371   3.770 -0.4934  0.6311  0.0208
 4217SOL    HW216640   0.262   2.279   3.786  0.0765  0.6106 -0.8572
 4217SOL    HW316641   0.214   2.404   3.856 -5.2534 -1.5373 -0.2035
 4217SOL    MW416642   0.239   2.363   3.784 -1.0462  0.3423 -0.1246
 4218SOL     OW16643   1.405   2.404   5.188 -0.0493  0.1594  0.0435
 4218SOL    HW216644   1.402   2.310   5.167 -0.1222  0.5429 -1.7889
 4218SOL    HW316645   1.320   2.438   5.159  1.1334  1.3363 -2.2718
 4218SOL    MW416646   1.393   2.396   5.182  0.0971  0.3653 -0.5037
 4219SOL     OW16647   6.025   0.884   2.270  0.5495 -0.1736  0.1693
 4219SOL    HW216648   6.100   0.943   2.276 -0.3543  0.9551  0.7258
 4219SOL    HW316649   6.025   0.836   2.353  0.5434 -0.0413  0.2454
 4219SOL    MW416650   6.035   0.886   2.282  0.4294 -0.0072  0.2528
 4220SOL     OW16651   6.105   0.695   6.274 -0.3085 -0.2466 -0.4851
 4220SOL    HW216652   6.200   0.683   6.281 -0.2999 -0.8389 -1.4188
 4220SOL    HW316653   6.093   0.790   6.282  0.1514 -0.3172  1.5858
 4220SOL    MW416654   6.116   0.706   6.276 -0.2467 -0.3341 -0.3351
 4221SOL     OW16655   5.843   6.233   2.607 -0.0783 -0.6937 -0.5974
 4221SOL    HW216656   5.780   6.171   2.569  0.7369 -1.2244 -1.1220
 4221SOL    HW316657   5.923   6.181   2.619 -0.5039 -0.7941  2.6575
 4221SOL    MW416658   5.846   6.218   2.604 -0.0269 -0.7770 -0.2371
 4222SOL     OW16659   2.769   0.914   0.535 -0.4422 -0.2991  0.0232
 4222SOL    HW216660   2.704   0.861   0.488 -1.2119  0.1302  0.5755
 4222SOL    HW316661   2.818   0.959   0.466  0.4943 -1.9930 -0.4893
 4222SOL    MW416662   2.767   0.913   0.520 -0.4202 -0.4659  0.0285
 4223SOL     OW16663   0.603   4.836   2.993  0.0030 -0.1046  0.0180
 4223SOL    HW216664   0.681   4.886   2.966 -0.8720 -0.2095 -3.1026
 4223SOL    HW316665   0.530   4.883   2.952 -1.5182 -0.6126  2.0130
 4223SOL    MW416666   0.604   4.849   2.984 -0.3131 -0.1855 -0.1305
 4224SOL     OW16667   1.262   5.881   6.030 -0.6058  0.4896 -0.6290
 4224SOL    HW216668   1.255   5.969   6.066  0.3215  0.4989 -0.4615
 4224SOL    HW316669   1.241   5.824   6.104  0.9790  0.5177 -0.1317
 4224SOL    MW416670   1.258   5.885   6.045 -0.2743  0.4946 -0.5412
 4225SOL     OW16671   0.281   2.607   1.626  0.0037 -0.1058  0.2358
 4225SOL    HW216672   0.352   2.636   1.569  0.0684  0.3598  0.5451
 4225SOL    HW316673   0.258   2.520   1.593  0.2493  0.0237 -0.2999
 4225SOL    MW416674   0.288   2.599   1.614  0.0446 -0.0273  0.2059
 4226SOL     OW16675   6.015   0.435   2.340 -0.4079  0.5197 -0.1054
 4226SOL    HW216676   5.935   0.482   2.364  0.0108  0.4458  1.5303
 4226SOL    HW316677   6.051   0.485   2.266 -1.3683  1.1967 -0.1335
 4226SOL    MW416678   6.009   0.448   2.333 -0.4794  0.5992  0.1067
 4227SOL     OW16679   1.764   1.381   4.707  0.1886 -0.2730 -0.1417
 4227SOL    HW216680   1.672   1.399   4.723 -0.2021 -0.2617 -2.0886
 4227SOL    HW316681   1.801   1.364   4.793 -1.5084  0.2630  0.7337
 4227SOL    MW416682   1.757   1.381   4.720 -0.0869 -0.2008 -0.2830
 4228SOL     OW16683   2.042   4.273   3.531 -0.7104  0.5326 -0.0153
 4228SOL    HW216684   2.082   4.296   3.447 -1.4785  0.5005 -0.4041
 4228SOL    HW316685   2.075   4.338   3.593  0.6390 -0.0180 -0.1070
 4228SOL    MW416686   2.052   4.284   3.528 -0.6337  0.4557 -0.0787
 4229SOL     OW16687   0.143   0.054   1.485  0.0849  0.0965 -0.0711
 4229SOL    HW216688   0.225   0.061   1.436  0.8000 -0.8406  0.9088
 4229SOL    HW316689   0.074   0.061   1.420  0.9692  0.2576 -1.0087
 4229SOL    MW416690   0.145   0.056   1.470  0.2959 -0.0059 -0.0655
 4230SOL     OW16691   4.764   0.036   3.465 -0.2045  0.6329  0.5553
 4230SOL    HW216692   4.799   0.063   3.381 -0.3851 -0.9879 -0.0750
 4230SOL    HW316693   4.720   0.114   3.499 -0.7607  1.1263 -1.1915
 4230SOL    MW416694   4.763   0.050   3.459 -0.3017  0.4841  0.2417
 4231SOL     OW16695   1.527   5.854   5.977 -0.5366 -0.5692 -0.5246
 4231SOL    HW216696   1.570   5.787   5.923 -0.5513  0.3299 -1.6853
 4231SOL    HW316697   1.436   5.825   5.982 -0.0044 -2.0861  1.3199
 4231SOL    MW416698   1.521   5.841   5.970 -0.4683 -0.6507 -0.4344
 4232SOL     OW16699   2.466   0.088   4.031 -0.2216  0.1359 -0.1772
 4232SOL    HW216700   2.533   0.153   4.011 -0.2606 -0.2688 -1.7953
 4232SOL    HW316701   2.480   0.019   3.967  0.0412 -1.6520  1.7144
 4232SOL    MW416702   2.477   0.088   4.020 -0.1921 -0.1534 -0.1411
 4233SOL     OW16703   2.057   3.576   4.018  0.3976  0.3603  0.3246
 4233SOL    HW216704   2.128   3.520   3.986 -1.0350 -0.7464 -1.1076
 4233SOL    HW316705   2.009   3.601   3.939 -0.7386  1.1628  1.2401
 4233SOL    MW416706   2.060   3.572   4.004  0.0587  0.3202  0.2565
 4234SOL     OW16707   3.582   1.271   0.921  0.1534  0.3811  0.2868
 4234SOL    HW216708   3.568   1.365   0.935 -2.3386  0.3971 -1.6344
 4234SOL    HW316709   3.645   1.267   0.850  0.8154  0.5513  0.8496
 4234SOL    MW416710   3.589   1.283   0.914 -0.0880  0.4057  0.1075
 4235SOL     OW16711   6.005   0.525   2.709 -0.8957  0.3667  0.4382
 4235SOL    HW216712   5.936   0.468   2.674 -0.7743  0.5901 -0.1944
 4235SOL    HW316713   6.031   0.485   2.792 -1.6420  0.1681  0.5779
 4235SOL    MW416714   5.999   0.512   2.715 -0.9782  0.3700  0.3731
 4236SOL     OW16715   0.827   2.862   0.545 -0.1201 -0.1356  0.4470
 4236SOL    HW216716   0.850   2.774   0.572  3.4077  0.4658 -0.0683
 4236SOL    HW316717   0.828   2.914   0.625  1.7804  0.0966  0.3083
 4236SOL    MW416718   0.830   2.858   0.559  0.5961 -0.0256  0.3607
 4237SOL     OW16719   1.399   1.887   3.549 -0.3143 -0.4357 -0.2308
 4237SOL    HW216720   1.425   1.810   3.499 -1.9610 -1.3067  0.1700
 4237SOL    HW316721   1.384   1.954   3.483  0.4754 -0.6561 -0.6421
 4237SOL    MW416722   1.400   1.886   3.534 -0.4274 -0.5797 -0.2322
 4238SOL     OW16723   6.207   1.878   4.060 -0.1130 -0.4920  0.2540
 4238SOL    HW216724   6.121   1.882   4.102 -1.0707 -0.7543 -1.6089
 4238SOL    HW316725   6.213   1.789   4.027 -0.2710  0.2452 -1.8857
 4238SOL    MW416726   6.196   1.867   4.061 -0.2602 -0.4293 -0.2741
 4239SOL     OW16727   5.429   2.501   3.938 -0.1650  0.0779  0.1114
 4239SOL    HW216728   5.500   2.500   3.874  0.0289 -0.7673  0.3274
 4239SOL    HW316729   5.472   2.499   4.023 -0.4367 -0.9090  0.2389
 4239SOL    MW416730   5.444   2.501   3.941 -0.1752 -0.1639  0.1567
 4240SOL     OW16731   4.381   3.720   0.835  0.1987 -0.4555  0.2617
 4240SOL    HW216732   4.365   3.672   0.917  0.6029 -0.9962  0.0302
 4240SOL    HW316733   4.467   3.689   0.806 -0.3152 -0.9015 -0.8119
 4240SOL    MW416734   4.391   3.709   0.842  0.1842 -0.5857  0.0895
 4241SOL     OW16735   2.843   6.150   5.767  0.5326  0.4531 -0.6391
 4241SOL    HW216736   2.834   6.225   5.825  1.0216  1.3275 -1.6672
 4241SOL    HW316737   2.793   6.081   5.810 -1.4432  1.8561 -0.5495
 4241SOL    MW416738   2.835   6.151   5.780  0.3365  0.7535 -0.7629
 4242SOL     OW16739   0.008   5.480   2.011 -0.2376  0.0371 -0.3794
 4242SOL    HW216740  -0.036   5.561   2.037 -0.4736 -0.8138  2.2159
 4242SOL    HW316741  -0.063   5.423   1.982 -0.5593 -0.3888  1.1564
 4242SOL    MW416742  -0.008   5.483   2.011 -0.3112 -0.1313  0.1657
 4243SOL     OW16743   0.658   4.544   2.705  0.4464  0.0413 -0.0689
 4243SOL    HW216744   0.599   4.522   2.776  0.6103  0.9309  0.3585
 4243SOL    HW316745   0.716   4.469   2.697  0.0890 -0.2808  0.3814
 4243SOL    MW416746   0.658   4.531   2.713  0.4209  0.1162  0.0469
 4244SOL     OW16747   0.361   5.079   2.526  0.6018  0.9606 -0.0186
 4244SOL    HW216748   0.418   5.002   2.525 -0.9169 -0.2340  0.5314
 4244SOL    HW316749   0.357   5.105   2.618 -0.1310  0.7220  0.0211
 4244SOL    MW416750   0.368   5.072   2.538  0.3047  0.7715  0.0592
 4245SOL     OW16751   5.588   1.752   2.086  0.1738 -0.5743  0.0576
 4245SOL    HW216752   5.643   1.762   2.164  0.8063  0.4961 -0.5003
 4245SOL    HW316753   5.636   1.689   2.031  1.1445  0.7117 -0.6394
 4245SOL    MW416754   5.602   1.745   2.089  0.3853 -0.2634 -0.1080
 4246SOL     OW16755   0.795   2.760   1.053  0.3327 -0.3260 -1.0689
 4246SOL    HW216756   0.702   2.752   1.032  0.5658  2.2788 -3.7862
 4246SOL    HW316757   0.830   2.672   1.046 -1.8879 -1.3800  0.1058
 4246SOL    MW416758   0.787   2.748   1.049  0.0705 -0.1214 -1.2724
 4247SOL     OW16759   6.226   2.879   5.429 -0.2051 -0.1296 -0.7312
 4247SOL    HW216760   6.175   2.950   5.389  0.3889 -0.6706 -2.5382
 4247SOL    HW316761   6.178   2.799   5.406 -0.8443 -0.3531  1.2482
 4247SOL    MW416762   6.213   2.878   5.421 -0.2110 -0.2304 -0.7084
 4248SOL     OW16763   4.835   3.288   4.095  0.5968 -0.2407 -0.6158
 4248SOL    HW216764   4.771   3.344   4.139  0.8565 -0.5165  0.1315
 4248SOL    HW316765   4.919   3.316   4.130  0.6247 -2.1535  1.0228
 4248SOL    MW416766   4.837   3.299   4.105  0.6347 -0.5294 -0.3010
 4249SOL     OW16767   2.391   5.091   3.895  0.1878  0.1965  0.1508
 4249SOL    HW216768   2.316   5.117   3.841  0.3074 -0.0773 -0.1497
 4249SOL    HW316769   2.368   5.004   3.929 -0.2889  0.7485  1.3013
 4249SOL    MW416770   2.378   5.083   3.892  0.1407  0.2332  0.2630
 4250SOL     OW16771   4.696   6.344   0.292  0.0090 -0.2649  0.1229
 4250SOL    HW216772   4.738   6.260   0.305 -1.6631 -1.1168  0.2992
 4250SOL    HW316773   4.721   6.369   0.203  1.1769 -0.5279  0.3576
 4250SOL    MW416774   4.705   6.336   0.282 -0.0575 -0.4120  0.1771
 4251SOL     OW16775   1.119   6.292   5.217  0.1027 -0.0216  0.4145
 4251SOL    HW216776   1.071   6.256   5.291 -1.2431  0.6048 -0.1145
 4251SOL    HW316777   1.123   6.386   5.235  0.2805  0.0549 -0.0137
 4251SOL    MW416778   1.113   6.300   5.229 -0.0514  0.0712  0.2882
 4252SOL     OW16779   0.809   5.530   2.199 -0.2785 -0.6822 -0.2290
 4252SOL    HW216780   0.790   5.444   2.160  1.0141 -0.5533 -1.2167
 4252SOL    HW316781   0.876   5.568   2.142  1.1386 -0.1346  1.6832
 4252SOL    MW416782   0.815   5.523   2.186  0.0790 -0.5929 -0.1070
 4253SOL     OW16783   1.647   0.611   0.043  0.0611 -0.0851 -0.5270
 4253SOL    HW216784   1.702   0.678   0.003 -0.6807  0.6646 -0.3153
 4253SOL    HW316785   1.611   0.562  -0.031  0.5722 -0.2340 -0.6825
 4253SOL    MW416786   1.649   0.613   0.028  0.0307 -0.0058 -0.5196
 4254SOL     OW16787   3.604   0.851   1.283 -0.4023 -0.2416  0.2568
 4254SOL    HW216788   3.640   0.932   1.246 -1.4212  0.5816  1.0111
 4254SOL    HW316789   3.517   0.843   1.244 -0.2225 -1.1307  0.0015
 4254SOL    MW416790   3.598   0.861   1.273 -0.5130 -0.2503  0.3227
 4255SOL     OW16791   2.512   5.729   3.278  0.4636 -0.1763  0.4631
 4255SOL    HW216792   2.569   5.795   3.239 -2.0043  2.3948  0.8397
 4255SOL    HW316793   2.489   5.671   3.206  1.0479  0.6157 -0.3808
 4255SOL    MW416794   2.517   5.730   3.264  0.2151  0.2675  0.4014
 4256SOL     OW16795   0.802   5.832   4.464 -0.1590  0.0213  0.2526
 4256SOL    HW216796   0.756   5.760   4.506 -0.8026  0.3968  0.2066
 4256SOL    HW316797   0.895   5.807   4.468 -0.4141 -1.0360 -0.2226
 4256SOL    MW416798   0.808   5.819   4.470 -0.2776 -0.0686  0.1838
 4257SOL     OW16799   5.183   3.508   1.538  0.4969 -0.0324 -0.5508
 4257SOL    HW216800   5.279   3.513   1.544  0.5486 -0.2625 -1.1928
 4257SOL    HW316801   5.153   3.528   1.627  1.1935 -1.2310 -0.0131
 4257SOL    MW416802   5.192   3.511   1.551  0.5957 -0.2209 -0.5646
 4258SOL     OW16803   5.683   5.753   1.001  0.2914 -0.4677 -0.6104
 4258SOL    HW216804   5.680   5.711   0.915  0.2766  0.6143 -1.1514
 4258SOL    HW316805   5.657   5.844   0.985 -1.4617 -0.6639  0.8265
 4258SOL    MW416806   5.679   5.760   0.988  0.0582 -0.3509 -0.4922
 4259SOL     OW16807   1.179   1.584   4.336 -0.2155  0.0553 -0.3712
 4259SOL    HW216808   1.240   1.652   4.366 -0.5103  1.1946 -2.1922
 4259SOL    HW316809   1.207   1.505   4.383  2.5334  0.5735 -0.9330
 4259SOL    MW416810   1.191   1.583   4.346  0.1083  0.2740 -0.6856
 4260SOL     OW16811   3.832   2.470   4.381 -0.2404  0.2032  0.2366
 4260SOL    HW216812   3.821   2.555   4.339 -1.9378  0.7311  1.6392
 4260SOL    HW316813   3.809   2.485   4.472  1.9154 -1.2283  1.0829
 4260SOL    MW416814   3.827   2.483   4.387 -0.1799  0.0840  0.5333
 4261SOL     OW16815   6.401   1.112   4.797  0.4952  0.5859  0.4914
 4261SOL    HW216816   6.331   1.047   4.792  1.0116 -0.1678  2.1256
 4261SOL    HW316817   6.475   1.071   4.752  0.3099  0.8103 -0.0315
 4261SOL    MW416818   6.402   1.098   4.790  0.5389  0.5161  0.6380
 4262SOL     OW16819   1.992   1.434   1.131 -0.0709 -0.5281 -0.5087
 4262SOL    HW216820   1.992   1.345   1.097  0.8823 -0.2960 -1.1295
 4262SOL    HW316821   2.083   1.454   1.149 -0.1103  0.7587 -1.5597
 4262SOL    MW416822   2.004   1.425   1.129  0.0497 -0.3277 -0.7293
 4263SOL     OW16823   1.813   3.117   3.846  0.2961  0.9847  0.1444
 4263SOL    HW216824   1.733   3.141   3.892  0.1978 -1.2608  1.2933
 4263SOL    HW316825   1.867   3.074   3.913  1.2633 -0.0931 -1.2554
 4263SOL    MW416826   1.810   3.114   3.861  0.4108  0.5462  0.1113
 4264SOL     OW16827   1.590   2.790   4.165 -0.3639 -0.5878 -0.4731
 4264SOL    HW216828   1.624   2.732   4.097  0.3375 -2.7058  1.5449
 4264SOL    HW316829   1.668   2.822   4.210 -0.7238  2.1768 -1.6125
 4264SOL    MW416830   1.605   2.786   4.162 -0.3189 -0.5025 -0.3572
 4265SOL     OW16831   3.322   3.790   5.049 -0.2572 -0.2737  0.3465
 4265SOL    HW216832   3.320   3.827   4.961  0.6699  0.1932  0.5134
 4265SOL    HW316833   3.306   3.696   5.036 -0.0869 -0.2169 -0.3192
 4265SOL    MW416834   3.319   3.782   5.036 -0.1124 -0.2046  0.2807
 4266SOL     OW16835   3.544   2.721   2.607  0.1204  0.0553 -0.1248
 4266SOL    HW216836   3.463   2.731   2.556  0.3078 -2.5953 -1.1096
 4266SOL    HW316837   3.599   2.794   2.578 -1.3370  1.0312 -0.5625
 4266SOL    MW416838   3.541   2.732   2.596 -0.0472 -0.1657 -0.3125
 4267SOL     OW16839   3.409   2.523   0.890 -0.4333  0.2884 -0.3819
 4267SOL    HW216840   3.329   2.549   0.936 -0.2024  3.1170 -1.4023
 4267SOL    HW316841   3.385   2.442   0.844 -1.8279 -0.4351  1.4617
 4267SOL    MW416842   3.395   2.515   0.890 -0.5868  0.5662 -0.2733
 4268SOL     OW16843   5.146   3.291   5.158 -0.4137 -0.0309  0.0621
 4268SOL    HW216844   5.090   3.256   5.228 -1.9579 -0.4244 -1.2882
 4268SOL    HW316845   5.207   3.220   5.138  1.4759  0.8445  2.3935
 4268SOL    MW416846   5.146   3.277   5.164 -0.3682  0.0327  0.1915
 4269SOL     OW16847   5.721   4.304   4.683  0.5365 -0.6014  0.0718
 4269SOL    HW216848   5.670   4.384   4.697  2.4455  0.8478 -0.6811
 4269SOL    HW316849   5.801   4.317   4.735  0.6579 -2.2707  0.3529
 4269SOL    MW416850   5.725   4.317   4.692  0.8044 -0.6305  0.0096
 4270SOL     OW16851   6.257   1.196   3.984  0.3945 -0.2328  0.7745
 4270SOL    HW216852   6.212   1.274   3.949  0.3205 -0.7487 -0.3278
 4270SOL    HW316853   6.344   1.227   4.006  0.1869  0.2922  0.8777
 4270SOL    MW416854   6.262   1.211   3.982  0.3573 -0.2316  0.6427
 4271SOL     OW16855   0.844   4.541   2.016 -0.3190  0.6691 -0.1084
 4271SOL    HW216856   0.886   4.570   2.098  0.7339 -0.5682 -0.1894
 4271SOL    HW316857   0.773   4.605   2.002  0.8303  2.1615  0.6236
 4271SOL    MW416858   0.840   4.553   2.025 -0.0284  0.7027 -0.0225
 4272SOL     OW16859   2.075   5.400   5.858  0.3926  0.1832  0.8176
 4272SOL    HW216860   2.117   5.366   5.779  0.3203 -0.1999  0.9458
 4272SOL    HW316861   1.998   5.346   5.870 -1.8022  2.6179 -1.0489
 4272SOL    MW416862   2.071   5.389   5.849  0.0935  0.4538  0.5882
 4273SOL     OW16863   2.372   6.162   2.650 -0.4400  0.0664 -0.5870
 4273SOL    HW216864   2.375   6.217   2.729 -1.1126  1.0270 -1.2144
 4273SOL    HW316865   2.448   6.104   2.659 -1.0935 -0.5618  1.2711
 4273SOL    MW416866   2.383   6.162   2.662 -0.6149  0.1102 -0.4246
 4274SOL     OW16867   5.710   1.506   2.515 -0.7438 -0.4466  0.0048
 4274SOL    HW216868   5.803   1.489   2.529 -0.6453 -0.6121 -0.7929
 4274SOL    HW316869   5.668   1.420   2.526 -0.6660 -0.5773 -0.6614
 4274SOL    MW416870   5.716   1.492   2.518 -0.7205 -0.4857 -0.1884
 4275SOL     OW16871   3.184   3.304   3.914  0.0862 -0.2854 -0.1246
 4275SOL    HW216872   3.119   3.342   3.855  0.0531 -1.3448 -0.7939
 4275SOL    HW316873   3.262   3.295   3.860  0.2471 -0.6907  0.1734
 4275SOL    MW416874   3.186   3.308   3.899  0.1031 -0.4786 -0.1736
 4276SOL     OW16875   0.995   3.038   5.205 -0.5469  0.1351  0.0614
 4276SOL    HW216876   0.918   3.091   5.182 -1.6250  0.0868  3.0204
 4276SOL    HW316877   1.064   3.102   5.220 -1.5905  0.7942  2.7054
 4276SOL    MW416878   0.994   3.053   5.204 -0.8268  0.2157  0.8007
 4277SOL     OW16879   2.920   0.989   3.739 -0.6385  0.0535  0.0028
 4277SOL    HW216880   2.972   1.063   3.771  1.5887 -1.2097 -0.5013
 4277SOL    HW316881   2.915   0.929   3.814 -1.1016  0.0213 -0.0526
 4277SOL    MW416882   2.926   0.991   3.753 -0.4058 -0.1174 -0.0710
 4278SOL     OW16883   5.639   4.567   0.589 -0.6591  0.0012  0.4687
 4278SOL    HW216884   5.595   4.634   0.537 -1.9132 -0.9066  0.2856
 4278SOL    HW316885   5.692   4.615   0.652 -0.8420  1.1431 -0.2254
 4278SOL    MW416886   5.640   4.582   0.590 -0.8487  0.0321  0.3529
 4279SOL     OW16887   3.226   5.794   2.581  0.2368 -0.5262 -0.2043
 4279SOL    HW216888   3.202   5.718   2.528  0.5805  0.2903 -1.5978
 4279SOL    HW316889   3.248   5.758   2.667 -1.9765 -1.7272 -0.0685
 4279SOL    MW416890   3.226   5.780   2.585 -0.0098 -0.5769 -0.3702
 4280SOL     OW16891   5.822   1.955   0.945 -0.7628  0.3881 -0.3008
 4280SOL    HW216892   5.771   1.911   1.014  0.6522 -1.7688 -0.5293
 4280SOL    HW316893   5.770   2.032   0.923 -2.9087 -0.6163  0.8624
 4280SOL    MW416894   5.808   1.959   0.951 -0.8592 -0.0290 -0.1775
 4281SOL     OW16895   2.948   1.420   3.805 -0.4264  0.2716  0.7497
 4281SOL    HW216896   2.957   1.332   3.843 -0.0186 -1.5782 -3.1157
 4281SOL    HW316897   2.854   1.437   3.806 -0.6607 -0.8731  0.3265
 4281SOL    MW416898   2.937   1.410   3.810 -0.4035 -0.1235  0.1839
 4282SOL     OW16899   3.100   0.199   2.600 -0.0703  0.1151  0.3453
 4282SOL    HW216900   3.117   0.289   2.629  0.4378 -0.1845  0.9821
 4282SOL    HW316901   3.062   0.156   2.676  0.6760 -0.5017  0.3745
 4282SOL    MW416902   3.097   0.205   2.614  0.0952 -0.0058  0.4332
 4283SOL     OW16903   1.304   4.875   2.880  0.4420 -0.3176 -0.4406
 4283SOL    HW216904   1.230   4.900   2.825  0.0232 -0.2027  0.1697
 4283SOL    HW316905   1.268   4.817   2.946  0.6862  0.5668  0.4945
 4283SOL    MW416906   1.290   4.871   2.882  0.4189 -0.1857 -0.2367
 4284SOL     OW16907   5.053   2.094   3.795 -0.1947  0.1516  0.4637
 4284SOL    HW216908   5.147   2.104   3.782 -0.1221  0.1681  0.9547
 4284SOL    HW316909   5.016   2.090   3.707  0.0910  1.6939  0.2551
 4284SOL    MW416910   5.061   2.095   3.782 -0.1474  0.3572  0.5010
 4285SOL     OW16911   0.279   4.323   2.705  0.4605  0.3572 -0.1293
 4285SOL    HW216912   0.314   4.235   2.696  0.2526  0.0655  1.5432
 4285SOL    HW316913   0.192   4.311   2.745  1.0781  1.3519  1.6659
 4285SOL    MW416914   0.272   4.310   2.709  0.5146  0.4499  0.3282
 4286SOL     OW16915   1.359   5.951   0.553  0.1604  0.3631  0.2771
 4286SOL    HW216916   1.287   6.014   0.546  1.2551  1.5164 -1.7162
 4286SOL    HW316917   1.400   5.971   0.636 -1.5276 -0.0463  1.2584
 4286SOL    MW416918   1.355   5.962   0.563  0.0821  0.4612  0.1436
 4287SOL     OW16919   3.351   4.668   3.568 -0.1678  0.5826  0.2056
 4287SOL    HW216920   3.256   4.666   3.563 -0.1287  0.4355 -0.4850
 4287SOL    HW316921   3.373   4.761   3.566 -0.2546  0.5922 -0.4966
 4287SOL    MW416922   3.341   4.680   3.567 -0.1741  0.5645  0.0218
 4288SOL     OW16923   1.746   4.508   1.385  0.2194 -0.7094  0.3546
 4288SOL    HW216924   1.652   4.518   1.402 -0.0137  1.1817 -1.5929
 4288SOL    HW316925   1.783   4.593   1.407  1.5179 -1.4572  1.1505
 4288SOL    MW416926   1.738   4.521   1.390  0.3599 -0.5586  0.2026
 4289SOL     OW16927   5.752   2.682   1.618  0.1882 -0.1432  0.6267
 4289SOL    HW216928   5.751   2.675   1.714 -1.4765  0.4866  0.6801
 4289SOL    HW316929   5.686   2.619   1.589  1.6877 -1.4046 -0.2319
 4289SOL    MW416930   5.743   2.673   1.627  0.1664 -0.2266  0.5205
 4290SOL     OW16931   0.650   5.785   2.242 -0.3145 -0.4813  0.0786
 4290SOL    HW216932   0.626   5.724   2.171  1.4633  0.6383 -1.5759
 4290SOL    HW316933   0.722   5.741   2.288  0.6977  0.1326 -0.8660
 4290SOL    MW416934   0.656   5.771   2.238  0.0536 -0.2526 -0.2643
 4291SOL     OW16935   5.925   0.680   5.730 -0.0383  0.3038  0.0156
 4291SOL    HW216936   5.958   0.594   5.703 -2.3838 -0.4299 -0.8489
 4291SOL    HW316937   5.953   0.740   5.661 -0.1107 -0.1943 -0.4526
 4291SOL    MW416938   5.933   0.677   5.717 -0.3573  0.1413 -0.1602
 4292SOL     OW16939   0.387   5.696   3.138  0.4561  0.6863  0.4365
 4292SOL    HW216940   0.336   5.669   3.062 -1.2415 -1.1758  2.1182
 4292SOL    HW316941   0.474   5.658   3.123 -0.0682 -0.2715 -0.2409
 4292SOL    MW416942   0.392   5.687   3.126  0.1629  0.3143  0.5690
 4293SOL     OW16943   2.549   2.341   4.352  0.5785 -0.9767 -0.0666
 4293SOL    HW216944   2.459   2.313   4.334 -0.5133  1.1220  1.6545
 4293SOL    HW316945   2.584   2.364   4.266 -0.2161 -2.5722 -0.8677
 4293SOL    MW416946   2.541   2.340   4.338  0.3296 -0.9103  0.0548
 4294SOL     OW16947   1.157   0.686   5.735 -0.2941  0.5648  0.3828
 4294SOL    HW216948   1.098   0.630   5.684  2.3853 -2.1361 -0.0704
 4294SOL    HW316949   1.191   0.749   5.672 -0.3879  0.1515 -0.0883
 4294SOL    MW416950   1.154   0.687   5.720  0.0470  0.1540  0.2609
 4295SOL     OW16951   3.421   6.175   1.267 -0.0386  0.0704  0.0924
 4295SOL    HW216952   3.326   6.162   1.258  0.1968 -0.6252 -2.1277
 4295SOL    HW316953   3.436   6.264   1.234 -0.1316  1.2048  2.8299
 4295SOL    MW416954   3.410   6.185   1.261 -0.0198  0.1283  0.1606
 4296SOL     OW16955   1.255   5.553   0.725  0.0993  0.0632 -0.9198
 4296SOL    HW216956   1.257   5.457   0.726  3.8451  0.0203 -0.7970
 4296SOL    HW316957   1.244   5.575   0.632 -3.0789 -0.3099 -0.7597
 4296SOL    MW416958   1.254   5.543   0.713  0.1742  0.0083 -0.8825
 4297SOL     OW16959   2.942   4.069   2.387 -0.2218 -0.1196 -0.1057
 4297SOL    HW216960   2.902   3.983   2.373  0.8073 -0.3766 -1.6951
 4297SOL    HW316961   2.952   4.105   2.299  0.5191  1.0940  0.4532
 4297SOL    MW416962   2.938   4.062   2.374  0.0117  0.0066 -0.2417
 4298SOL     OW16963   0.979   3.151   2.683  0.5571 -0.0173  0.0134
 4298SOL    HW216964   0.893   3.114   2.663  0.1731  0.9412 -0.1685
 4298SOL    HW316965   0.970   3.185   2.772 -0.3595  3.0641 -1.1198
 4298SOL    MW416966   0.966   3.151   2.692  0.3855  0.5157 -0.1601
 4299SOL     OW16967   5.790   6.348   2.855 -0.6354  0.0731  0.8016
 4299SOL    HW216968   5.866   6.402   2.876  0.8578 -2.0351  1.1658
 4299SOL    HW316969   5.803   6.323   2.763  0.0204 -1.5743  1.3019
 4299SOL    MW416970   5.802   6.351   2.846 -0.3519 -0.4224  0.9156
 4300SOL     OW16971   3.945   6.225   3.575 -0.6433  0.5998  0.2956
 4300SOL    HW216972   3.943   6.199   3.667  1.7219 -0.5328  0.1144
 4300SOL    HW316973   3.887   6.162   3.531 -1.2497  0.7225  0.9007
 4300SOL    MW416974   3.937   6.213   3.581 -0.4112  0.4665  0.3515
 4301SOL     OW16975   3.082   4.027   4.977 -0.6796  0.0768  0.6475
 4301SOL    HW216976   3.132   4.109   4.980  1.0383 -0.8896 -0.1691
 4301SOL    HW316977   2.990   4.055   4.977 -0.1721  2.1336 -1.6133
 4301SOL    MW416978   3.077   4.041   4.977 -0.3860  0.2207  0.2415
 4302SOL     OW16979   3.611   3.838   2.084 -0.3833  0.6209  0.2344
 4302SOL    HW216980   3.629   3.927   2.113 -0.8834  0.6502  0.4644
 4302SOL    HW316981   3.572   3.795   2.160 -3.0799  1.1176 -0.7435
 4302SOL    MW416982   3.608   3.844   2.098 -0.8051  0.6903  0.1358
 4303SOL     OW16983   0.048   0.570   6.372 -0.2304  0.4758 -0.2377
 4303SOL    HW216984   0.122   0.616   6.332 -1.3361  1.5171 -1.1576
 4303SOL    HW316985   0.040   0.609   6.459  0.7571 -0.1909  0.1765
 4303SOL    MW416986   0.057   0.581   6.378 -0.2460  0.5252 -0.3044
 4304SOL     OW16987   0.868   2.171   1.158  0.0028 -0.5227 -0.1876
 4304SOL    HW216988   0.853   2.251   1.107 -1.2726  0.2105  1.2739
 4304SOL    HW316989   0.960   2.177   1.185  0.1633 -0.0051 -0.8131
 4304SOL    MW416990   0.878   2.183   1.155 -0.1443 -0.3577 -0.0773
 4305SOL     OW16991   2.510   0.414   4.327 -0.0872 -1.2248  0.5482
 4305SOL    HW216992   2.440   0.420   4.262  0.5993  0.1040 -0.1193
 4305SOL    HW316993   2.572   0.351   4.290  1.3537  1.0742 -1.2183
 4305SOL    MW416994   2.509   0.406   4.314  0.1935 -0.7462  0.2271
 4306SOL     OW16995   2.348   5.969   1.800 -0.2102 -0.3862  0.1401
 4306SOL    HW216996   2.363   5.928   1.715 -0.9385 -2.7641  1.0469
 4306SOL    HW316997   2.426   5.946   1.852 -0.1490  0.3098  0.3643
 4306SOL    MW416998   2.360   5.960   1.796 -0.2982 -0.6081  0.2893
 4307SOL     OW16999   4.379   4.682   1.480 -0.0091  0.6202 -0.3358
 4307SOL    HW217000   4.367   4.753   1.543 -0.7708  1.1881 -1.1027
 4307SOL    HW317001   4.353   4.719   1.396  1.1666 -0.0680 -1.0366
 4307SOL    MW417002   4.374   4.696   1.477  0.0455  0.6043 -0.5294
 4308SOL     OW17003   0.610   0.373   5.432 -0.2158  0.2190  0.3118
 4308SOL    HW217004   0.623   0.383   5.526 -1.1906 -0.1865  0.4998
 4308SOL    HW317005   0.515   0.373   5.421 -0.2636 -3.0887 -0.2778
 4308SOL    MW417006   0.599   0.375   5.443 -0.3507 -0.2709  0.2588
 4309SOL     OW17007   3.003   0.624   5.333  0.4947  0.5241  0.2454
 4309SOL    HW217008   2.940   0.555   5.311  1.9211 -0.4723 -0.9587
 4309SOL    HW317009   3.007   0.678   5.254  1.1604  0.5523  0.2903
 4309SOL    MW417010   2.995   0.622   5.319  0.7707  0.3964  0.0925
 4310SOL     OW17011   5.996   3.285   4.585  0.1894 -0.2413  0.5568
 4310SOL    HW217012   6.046   3.301   4.505  0.0682 -0.5922  0.4094
 4310SOL    HW317013   5.949   3.203   4.568  1.0303 -0.9250  1.4153
 4310SOL    MW417014   5.997   3.276   4.572  0.2844 -0.3778  0.6506
 4311SOL     OW17015   0.948   6.010   1.738 -0.1827  0.4390 -0.0679
 4311SOL    HW217016   1.025   6.063   1.759  0.1416  0.0070 -0.1644
 4311SOL    HW317017   0.962   5.983   1.647  0.0637 -0.5073  0.2428
 4311SOL    MW417018   0.960   6.014   1.729 -0.1074  0.2571 -0.0396
 4312SOL     OW17019   3.307   1.673   3.659  0.1509 -0.5482  0.1380
 4312SOL    HW217020   3.376   1.608   3.648  0.6690 -0.0628  0.4811
 4312SOL    HW317021   3.290   1.675   3.753  0.4974  0.1723  0.1916
 4312SOL    MW417022   3.314   1.664   3.670  0.2649 -0.3891  0.1904
 4313SOL     OW17023   5.430   5.990   0.432  0.6787 -0.1176 -0.0388
 4313SOL    HW217024   5.342   6.028   0.434  0.8154  0.2304 -0.3127
 4313SOL    HW317025   5.416   5.898   0.412  0.3711 -0.0766 -0.0240
 4313SOL    MW417026   5.416   5.983   0.430  0.6562 -0.0663 -0.0730
 4314SOL     OW17027   1.819   6.354   4.401 -0.2873 -0.4980  0.1053
 4314SOL    HW217028   1.726   6.341   4.421 -0.8669  1.2701 -1.2338
 4314SOL    HW317029   1.839   6.285   4.338 -0.7157 -0.8209  0.3111
 4314SOL    MW417030   1.809   6.343   4.395 -0.4203 -0.3073 -0.0442
 4315SOL     OW17031   6.058   1.144   2.123 -0.0363  0.7813 -0.2799
 4315SOL    HW217032   6.149   1.154   2.151 -0.0159 -1.9497  0.8785
 4315SOL    HW317033   6.057   1.062   2.074 -1.8026  1.0273 -0.7071
 4315SOL    MW417034   6.070   1.135   2.120 -0.2667  0.4534 -0.1834
 4316SOL     OW17035   3.023   3.439   4.619  0.3544 -0.2287  0.4631
 4316SOL    HW217036   3.056   3.528   4.631 -2.8337  1.6029 -2.6816
 4316SOL    HW317037   3.064   3.409   4.538 -0.8382 -0.4043 -0.0902
 4316SOL    MW417038   3.033   3.447   4.610 -0.2236 -0.0102 -0.0248
 4317SOL     OW17039   2.471   0.003   5.942  0.0853  0.4048  0.3148
 4317SOL    HW217040   2.376   0.015   5.939 -0.0959 -0.9668 -0.2617
 4317SOL    HW317041   2.485  -0.056   6.016  0.2085 -1.3954 -1.0750
 4317SOL    MW417042   2.461  -0.003   5.952  0.0777 -0.0137  0.0554
 4318SOL     OW17043   4.370   4.066   1.194 -0.0550 -0.2713  0.4689
 4318SOL    HW217044   4.286   4.077   1.149  0.1828 -0.9693 -0.1637
 4318SOL    HW317045   4.433   4.116   1.141  0.4511 -2.0344 -0.7068
 4318SOL    MW417046   4.367   4.074   1.181  0.0432 -0.5960  0.2303
 4319SOL     OW17047   0.021   4.885   5.991  0.2749 -0.2797 -0.5933
 4319SOL    HW217048   0.109   4.896   5.956  1.5035 -0.5951  2.1557
 4319SOL    HW317049   0.009   4.961   6.048 -0.7972 -0.7748 -0.1335
 4319SOL    MW417050   0.031   4.897   5.994  0.2955 -0.3866 -0.1699
 4320SOL     OW17051   3.393   2.876   4.269 -0.5297 -0.4506 -0.2755
 4320SOL    HW217052   3.327   2.912   4.209  0.6612  0.6570 -0.9669
 4320SOL    HW317053   3.345   2.812   4.321 -1.6507 -1.2989 -2.2481
 4320SOL    MW417054   3.378   2.873   4.268 -0.5205 -0.4164 -0.6270
 4321SOL     OW17055   0.717   0.817   5.001 -0.6176  0.0480  0.3196
 4321SOL    HW217056   0.658   0.768   4.944 -1.0748  0.4880  0.4069
 4321SOL    HW317057   0.740   0.756   5.071 -0.6163 -0.2662  0.0476
 4321SOL    MW417058   0.712   0.802   5.003 -0.6777  0.0646  0.2952
 4322SOL     OW17059   1.378   2.846   5.379  0.1002 -0.1964  0.5606
 4322SOL    HW217060   1.465   2.814   5.358  0.5782  0.8782  0.8139
 4322SOL    HW317061   1.326   2.828   5.301  0.5581 -0.7944  0.3870
 4322SOL    MW417062   1.382   2.840   5.366  0.2237 -0.1335  0.5711
 4323SOL     OW17063   2.464   5.665   4.736 -0.2399  0.0262  0.1287
 4323SOL    HW217064   2.418   5.663   4.820 -0.4880 -0.6951 -0.0106
 4323SOL    HW317065   2.543   5.612   4.750 -0.5804 -0.6033 -0.2412
 4323SOL    MW417066   2.468   5.658   4.749 -0.3175 -0.1520  0.0615
 4324SOL     OW17067   2.275   3.091   2.907 -0.2623  0.1915  0.5868
 4324SOL    HW217068   2.352   3.077   2.963  0.9624  1.7253 -0.6291
 4324SOL    HW317069   2.311   3.112   2.821 -2.0895 -0.7560 -0.4636
 4324SOL    MW417070   2.290   3.092   2.903 -0.3418  0.2689  0.2878
 4325SOL     OW17071   5.800   3.372   4.381 -0.3575 -0.4776 -0.0555
 4325SOL    HW217072   5.734   3.302   4.388  0.9078 -1.7444 -0.3228
 4325SOL    HW317073   5.835   3.382   4.469  0.4266 -1.1774 -0.2749
 4325SOL    MW417074   5.796   3.364   4.393 -0.0871 -0.7370 -0.1197
 4326SOL     OW17075   0.300   4.837   5.919 -0.3203 -0.1505 -0.2897
 4326SOL    HW217076   0.349   4.901   5.867  0.8224 -0.2214  0.6595
 4326SOL    HW317077   0.288   4.763   5.860 -0.5516  0.4362 -0.9979
 4326SOL    MW417078   0.305   4.836   5.905 -0.2000 -0.0824 -0.2579
 4327SOL     OW17079   0.606   1.012   4.385 -0.0060  0.0646  0.2283
 4327SOL    HW217080   0.514   1.036   4.375  0.4264  1.1443 -1.5428
 4327SOL    HW317081   0.648   1.041   4.304  1.8126 -0.8625  0.7754
 4327SOL    MW417082   0.599   1.019   4.373  0.2910  0.0847  0.0668
 4328SOL     OW17083   3.004   0.631   1.535 -0.0486  0.3510  0.1944
 4328SOL    HW217084   2.982   0.651   1.626 -2.1997 -0.2029 -0.1473
 4328SOL    HW317085   3.033   0.715   1.499 -0.8019  0.9638  0.9612
 4328SOL    MW417086   3.005   0.645   1.543 -0.4318  0.3588  0.2504
 4329SOL     OW17087   1.838   3.766   4.382  0.1653 -0.2531  0.0500
 4329SOL    HW217088   1.868   3.855   4.401  1.3347 -0.8497  1.1430
 4329SOL    HW317089   1.918   3.714   4.377 -0.5155 -1.2988 -0.3744
 4329SOL    MW417090   1.853   3.771   4.384  0.2298 -0.4698  0.1382
 4330SOL     OW17091   4.326   2.085   1.962  0.2391 -0.0628 -0.0603
 4330SOL    HW217092   4.334   1.995   1.930  0.6348 -0.3671  0.8775
 4330SOL    HW317093   4.324   2.139   1.882 -2.1616 -1.0313 -0.7574
 4330SOL    MW417094   4.327   2.080   1.947 -0.0254 -0.2307 -0.0286
 4331SOL     OW17095   6.427   1.549   1.972 -0.0827 -1.1488 -0.1544
 4331SOL    HW217096   6.457   1.605   1.900 -0.3617 -1.0588 -0.2018
 4331SOL    HW317097   6.341   1.585   1.996  0.3487 -0.6811  0.7552
 4331SOL    MW417098   6.420   1.561   1.965 -0.0626 -1.0752 -0.0407
 4332SOL     OW17099   0.999   4.772   1.887  0.0393 -0.1529  0.1071
 4332SOL    HW217100   1.027   4.794   1.799  0.8839  0.3112  0.4791
 4332SOL    HW317101   0.904   4.785   1.886  0.3306  2.5395 -0.0101
 4332SOL    MW417102   0.990   4.777   1.876  0.1891  0.2635  0.1408
 4333SOL     OW17103   2.186   2.665   3.956 -0.4373  0.1990 -0.0875
 4333SOL    HW217104   2.110   2.654   3.900 -0.5998 -0.4692  0.2525
 4333SOL    HW317105   2.161   2.624   4.039 -0.4145  1.6481  0.6876
 4333SOL    MW417106   2.173   2.659   3.960 -0.4558  0.3020  0.0596
 4334SOL     OW17107   2.265   5.166   4.217  0.6412  0.3355  0.2040
 4334SOL    HW217108   2.286   5.080   4.180  0.5944  0.0717  0.7786
 4334SOL    HW317109   2.215   5.210   4.148 -0.0903 -0.4286  0.2352
 4334SOL    MW417110   2.261   5.160   4.203  0.5385  0.1999  0.2839
 4335SOL     OW17111   1.025   1.715   0.975  0.1141  0.1345  0.6309
 4335SOL    HW217112   0.985   1.801   0.982 -4.9458 -1.7798 -0.2897
 4335SOL    HW317113   1.070   1.716   0.891 -0.5681  1.6507  0.2547
 4335SOL    MW417114   1.026   1.726   0.965 -0.6435  0.0820  0.4598
 4336SOL     OW17115   1.253   2.828   0.706  0.3939  0.2097  0.1325
 4336SOL    HW217116   1.185   2.871   0.655  0.7789  0.2933 -0.3204
 4336SOL    HW317117   1.297   2.770   0.644  0.5826 -0.0232  0.4759
 4336SOL    MW417118   1.250   2.826   0.692  0.4696  0.1900  0.1180
 4337SOL     OW17119   0.558   6.379   0.348  0.1784 -0.5262  0.5039
 4337SOL    HW217120   0.503   6.457   0.357  0.5242 -0.2553  0.2721
 4337SOL    HW317121   0.616   6.382   0.425  0.6572 -0.1812  0.1341
 4337SOL    MW417122   0.558   6.390   0.360  0.2872 -0.4450  0.4245
 4338SOL     OW17123   1.673   2.531   4.961 -0.1286 -0.3989  0.2221
 4338SOL    HW217124   1.592   2.484   4.939 -0.2563 -0.1165  0.0909
 4338SOL    HW317125   1.685   2.593   4.890  0.5448 -0.8676 -0.0746
 4338SOL    MW417126   1.664   2.533   4.949 -0.0566 -0.4235  0.1656
 4339SOL     OW17127   3.009   0.237   2.302  0.2682 -0.0096 -0.6529
 4339SOL    HW217128   3.039   0.315   2.255 -0.3441  0.1658 -0.7583
 4339SOL    HW317129   3.073   0.226   2.373  0.5400  0.3988 -0.8284
 4339SOL    MW417130   3.022   0.246   2.305  0.2233  0.0674 -0.6900
 4340SOL     OW17131   1.991   3.195   6.349 -0.5483 -0.1645 -0.5369
 4340SOL    HW217132   1.933   3.145   6.292 -0.1344  0.4323 -1.5008
 4340SOL    HW317133   1.955   3.183   6.437 -1.2809 -0.9726 -0.9369
 4340SOL    MW417134   1.979   3.187   6.353 -0.5904 -0.1924 -0.7168
 4341SOL     OW17135   3.279   4.844   4.314 -0.4712 -0.5782 -1.1385
 4341SOL    HW217136   3.276   4.924   4.261 -2.8106 -0.4795 -0.9560
 4341SOL    HW317137   3.236   4.868   4.396  1.4375 -1.2481  0.1261
 4341SOL    MW417138   3.273   4.858   4.318 -0.5280 -0.6535 -0.9475
 4342SOL     OW17139   2.490   0.803   5.743 -0.1462 -0.1923  0.0096
 4342SOL    HW217140   2.508   0.709   5.739  1.3729  0.0363  0.8876
 4342SOL    HW317141   2.395   0.809   5.732  0.0628 -1.4734 -4.9142
 4342SOL    MW417142   2.480   0.791   5.741  0.0818 -0.3312 -0.5242
 4343SOL     OW17143   4.308   2.494   1.852  0.0725  0.1574  0.1123
 4343SOL    HW217144   4.340   2.422   1.798 -1.7824 -1.6754  1.3054
 4343SOL    HW317145   4.309   2.461   1.941  0.5909  2.1867  0.9255
 4343SOL    MW417146   4.312   2.480   1.857 -0.1039  0.1833  0.3770
 4344SOL     OW17147   5.734   5.574   5.561 -0.5195  0.2610 -0.1264
 4344SOL    HW217148   5.748   5.508   5.492  2.2451 -0.4836  0.9863
 4344SOL    HW317149   5.682   5.529   5.627 -2.3034  0.6490 -1.2078
 4344SOL    MW417150   5.729   5.559   5.560 -0.3901  0.2140 -0.1222
 4345SOL     OW17151   3.154   4.947   2.672 -0.5196 -0.4103  0.7359
 4345SOL    HW217152   3.102   4.879   2.716  0.1530 -0.9387  0.7232
 4345SOL    HW317153   3.218   4.898   2.621  0.5745  0.2551  1.4545
 4345SOL    MW417154   3.155   4.931   2.671 -0.2865 -0.3923  0.8291
 4346SOL     OW17155   3.654   4.912   5.466  0.1007  0.7128  0.0179
 4346SOL    HW217156   3.615   4.855   5.533 -3.0753  0.7526 -1.5971
 4346SOL    HW317157   3.634   5.000   5.496 -1.1032  0.7359 -0.7748
 4346SOL    MW417158   3.646   4.916   5.479 -0.4772  0.7211 -0.2998
 4347SOL     OW17159   4.000   4.886   2.931 -0.5124 -0.4468  0.0811
 4347SOL    HW217160   4.095   4.893   2.923 -0.4133 -1.6745 -0.0703
 4347SOL    HW317161   3.967   4.913   2.845 -0.2946 -0.1907  0.0751
 4347SOL    MW417162   4.008   4.890   2.918 -0.4706 -0.5750  0.0604
 4348SOL     OW17163   0.118   5.816   0.757  0.1831  0.6265 -0.2787
 4348SOL    HW217164   0.030   5.847   0.738  0.3051  1.7166  0.8032
 4348SOL    HW317165   0.176   5.887   0.729  0.9055 -0.7866 -2.6583
 4348SOL    MW417166   0.114   5.829   0.751  0.2945  0.5839 -0.4499
 4349SOL     OW17167   2.985   4.277   5.624  0.1884 -0.2402 -0.0756
 4349SOL    HW217168   2.976   4.372   5.632 -0.5630 -0.1492 -1.6152
 4349SOL    HW317169   2.935   4.242   5.697  0.0291  0.5435  0.2073
 4349SOL    MW417170   2.977   4.285   5.635  0.0682 -0.1248 -0.2414
 4350SOL     OW17171   0.252   4.620   3.069 -0.2271  0.4389 -0.3069
 4350SOL    HW217172   0.288   4.613   2.980  0.1918  0.6110 -0.1512
 4350SOL    HW317173   0.326   4.602   3.126 -0.8650 -1.4564 -0.0046
 4350SOL    MW417174   0.266   4.616   3.065 -0.2560  0.2115 -0.2465
 4351SOL     OW17175   0.612   3.121   5.675  0.2011  0.2484 -0.4354
 4351SOL    HW217176   0.520   3.124   5.701  0.5206 -0.1057  0.8364
 4351SOL    HW317177   0.653   3.066   5.742  1.0658 -0.8899 -1.8590
 4351SOL    MW417178   0.605   3.114   5.687  0.3573  0.0515 -0.4554
 4352SOL     OW17179   1.721   0.656   3.697  0.2612 -0.2713  0.4363
 4352SOL    HW217180   1.678   0.736   3.729 -1.1890 -0.6029 -0.6128
 4352SOL    HW317181   1.660   0.620   3.633  1.2389 -1.8350  0.3464
 4352SOL    MW417182   1.707   0.662   3.693  0.1989 -0.5214  0.2860
 4353SOL     OW17183   3.099   2.646   1.473  0.1563  0.7048 -0.2384
 4353SOL    HW217184   3.025   2.682   1.424 -0.4924  0.0970  0.2723
 4353SOL    HW317185   3.074   2.657   1.565 -0.3265 -1.5376 -0.0546
 4353SOL    MW417186   3.086   2.652   1.479  0.0070  0.3288 -0.1468
 4354SOL     OW17187   5.158   0.777   5.830 -0.4094  0.0246  0.1742
 4354SOL    HW217188   5.236   0.722   5.819 -0.7629 -0.2409 -1.1997
 4354SOL    HW317189   5.099   0.724   5.883 -0.0944 -0.2163  0.2928
 4354SOL    MW417190   5.161   0.763   5.836 -0.4145 -0.0422  0.0086
 4355SOL     OW17191   3.748   2.317   2.787 -0.5118 -0.5645  0.7935
 4355SOL    HW217192   3.702   2.234   2.803  0.2414 -1.4100 -1.1201
 4355SOL    HW317193   3.679   2.379   2.763 -0.7484 -2.1060 -3.1942
 4355SOL    MW417194   3.733   2.314   2.786 -0.4436 -0.8794  0.0149
 4356SOL     OW17195   3.994   5.754   6.349  0.2851 -0.5330 -0.2690
 4356SOL    HW217196   3.935   5.726   6.419  0.3161  0.3889  0.1487
 4356SOL    HW317197   4.077   5.712   6.370  0.7823  1.0595  1.2650
 4356SOL    MW417198   3.997   5.745   6.361  0.3548 -0.2013 -0.0115
 4357SOL     OW17199   1.944   2.810   0.501 -1.1447 -0.2441  0.3161
 4357SOL    HW217200   1.949   2.814   0.596  0.0094  2.5508  0.2439
 4357SOL    HW317201   2.004   2.879   0.471  1.0720 -3.0962 -2.5470
 4357SOL    MW417202   1.953   2.820   0.510 -0.7000 -0.2517 -0.0711
 4358SOL     OW17203   5.819   4.100   4.952 -0.1755  0.1363  0.0303
 4358SOL    HW217204   5.846   4.037   4.885 -0.9796 -0.9539  0.6913
 4358SOL    HW317205   5.865   4.180   4.930 -0.3238 -0.2352 -1.7521
 4358SOL    MW417206   5.829   4.102   4.940 -0.3011 -0.0565 -0.1177
 4359SOL     OW17207   0.031   2.782   6.274 -0.0855  0.6495  0.3622
 4359SOL    HW217208   0.094   2.837   6.227  1.6786 -0.4984  1.2815
 4359SOL    HW317209  -0.018   2.843   6.329 -0.0341  1.6045 -0.6211
 4359SOL    MW417210   0.033   2.797   6.275  0.1540  0.6240  0.3537
 4360SOL     OW17211   5.652   2.239   3.169  0.8422 -0.8296 -0.2858
 4360SOL    HW217212   5.613   2.163   3.125 -0.2255  0.2915 -1.3698
 4360SOL    HW317213   5.647   2.309   3.104  1.5809  0.2344  0.7676
 4360SOL    MW417214   5.646   2.238   3.154  0.7988 -0.5413 -0.2899
 4361SOL     OW17215   0.558   1.187   5.445 -0.0012 -0.1695  0.2293
 4361SOL    HW217216   0.567   1.276   5.480 -1.9265 -0.4716  1.6432
 4361SOL    HW317217   0.614   1.134   5.502 -0.6188 -0.1758  0.8473
 4361SOL    MW417218   0.567   1.192   5.457 -0.3367 -0.2102  0.4974
 4362SOL     OW17219   3.249   0.389   3.459  0.1765  0.0672  0.2221
 4362SOL    HW217220   3.267   0.341   3.540  1.0909 -0.0459 -0.0298
 4362SOL    HW317221   3.303   0.467   3.465  0.3809 -0.0226 -0.3471
 4362SOL    MW417222   3.259   0.393   3.471  0.3241  0.0404  0.1137
 4363SOL     OW17223   2.818   1.973   3.128  0.5506 -0.2974 -0.2912
 4363SOL    HW217224   2.873   2.003   3.200  0.0957 -1.9165  0.7671
 4363SOL    HW317225   2.849   1.885   3.108  0.3480 -0.0638 -1.7707
 4363SOL    MW417226   2.829   1.966   3.135  0.4639 -0.4802 -0.3468
 4364SOL     OW17227   4.595   3.796   5.044  0.1112 -0.5312 -0.2435
 4364SOL    HW217228   4.565   3.706   5.028 -0.5499 -1.0680  3.1274
 4364SOL    HW317229   4.690   3.793   5.031 -0.1341 -1.1056 -2.2417
 4364SOL    MW417230   4.603   3.784   5.040 -0.0084 -0.6778 -0.0624
 4365SOL     OW17231   2.353   4.144   2.582  0.4548 -0.5318  0.2075
 4365SOL    HW217232   2.319   4.175   2.498 -2.0031 -1.3438  0.8384
 4365SOL    HW317233   2.448   4.135   2.568  0.7958  3.2139 -1.2356
 4365SOL    MW417234   2.361   4.147   2.569  0.1755 -0.1447  0.1003
 4366SOL     OW17235   1.969   3.763   5.534 -0.4585 -0.1326  0.0273
 4366SOL    HW217236   1.977   3.746   5.627  0.2510 -1.7864 -0.3150
 4366SOL    HW317237   1.875   3.777   5.521 -1.0631 -3.1528  0.5081
 4366SOL    MW417238   1.957   3.763   5.544 -0.4447 -0.7492  0.0455
 4367SOL     OW17239   5.952   3.569   4.604  0.1806  0.0253  0.0326
 4367SOL    HW217240   6.042   3.593   4.582  0.1249 -0.0907 -0.3375
 4367SOL    HW317241   5.957   3.476   4.628  0.3819  0.3618  1.3733
 4367SOL    MW417242   5.965   3.560   4.604  0.1998  0.0544  0.1606
 4368SOL     OW17243   3.600   0.218   5.369  0.4413  0.2362 -0.1631
 4368SOL    HW217244   3.517   0.175   5.347  0.0324 -0.1201  1.8655
 4368SOL    HW317245   3.608   0.288   5.304 -1.9115  0.8559  0.0884
 4368SOL    MW417246   3.590   0.222   5.357  0.0769  0.2709  0.1377
 4369SOL     OW17247   4.313   3.378   2.189  0.1991  0.0960 -0.7418
 4369SOL    HW217248   4.270   3.300   2.225  2.7824 -0.9220  0.4082
 4369SOL    HW317249   4.399   3.379   2.231  0.6344  3.0486 -1.4847
 4369SOL    MW417250   4.319   3.368   2.200  0.5974  0.3512 -0.6881
 4370SOL     OW17251   3.639   2.093   2.910 -0.2115 -0.2910 -0.9543
 4370SOL    HW217252   3.637   2.100   3.005  0.2219  0.7261 -1.0121
 4370SOL    HW317253   3.565   2.146   2.880  1.6239  2.2467 -1.2919
 4370SOL    MW417254   3.629   2.101   2.919  0.0879  0.1780 -1.0065
 4371SOL     OW17255   4.371   3.737   5.614  0.2513  0.0451  0.4366
 4371SOL    HW217256   4.454   3.688   5.610  1.0537  1.3440  0.4796
 4371SOL    HW317257   4.369   3.773   5.703 -0.8964 -0.8289  0.7908
 4371SOL    MW417258   4.382   3.736   5.625  0.2057  0.1012  0.4890
 4372SOL     OW17259   2.809   1.180   6.385  0.0729 -0.0296 -0.3264
 4372SOL    HW217260   2.794   1.192   6.291  0.0692 -0.3176 -0.3632
 4372SOL    HW317261   2.883   1.119   6.389  1.2108  1.3136 -0.1509
 4372SOL    MW417262   2.817   1.174   6.373  0.2225  0.1096 -0.3081
 4373SOL     OW17263   0.672   5.331   4.826  0.4423  0.3001  0.1116
 4373SOL    HW217264   0.603   5.345   4.760  0.6018  0.5803 -0.0004
 4373SOL    HW317265   0.739   5.396   4.803  0.4096  0.5324  0.6744
 4373SOL    MW417266   0.672   5.341   4.814  0.4590  0.3677  0.1711
 4374SOL     OW17267   5.035   3.407   1.267 -0.4816 -0.5389 -0.1276
 4374SOL    HW217268   5.088   3.486   1.280 -0.7097 -0.7056  2.2465
 4374SOL    HW317269   4.977   3.429   1.195  2.2408 -0.0939 -2.3896
 4374SOL    MW417270   5.035   3.420   1.259 -0.1525 -0.5022 -0.1128
 4375SOL     OW17271   3.820   5.858   3.107  0.2960 -0.7056 -0.5281
 4375SOL    HW217272   3.871   5.933   3.138  0.6136 -0.5591 -1.3661
 4375SOL    HW317273   3.729   5.880   3.128  0.3871 -0.0852 -0.7533
 4375SOL    MW417274   3.815   5.871   3.114  0.3500 -0.6044 -0.6684
 4376SOL     OW17275   0.361   4.971   5.218 -0.5544  0.1900  0.1843
 4376SOL    HW217276   0.422   5.027   5.267 -1.2963  2.0100 -0.8767
 4376SOL    HW317277   0.286   4.961   5.276  0.1312 -0.9139  0.9337
 4376SOL    MW417278   0.359   4.977   5.232 -0.5618  0.2845  0.1432
 4377SOL     OW17279   5.189   0.902   1.142 -0.1587 -0.3590  0.4450
 4377SOL    HW217280   5.223   0.813   1.147  2.6168  0.6297  0.5588
 4377SOL    HW317281   5.133   0.902   1.065 -0.2084 -2.1767  0.4371
 4377SOL    MW417282   5.186   0.890   1.133  0.2009 -0.4684  0.4589
 4378SOL     OW17283   1.899   0.584   0.164  0.5442  0.4558  0.0569
 4378SOL    HW217284   1.819   0.576   0.111  1.3048  0.0592 -1.0817
 4378SOL    HW317285   1.966   0.608   0.101  1.7721 -1.3992  0.5992
 4378SOL    MW417286   1.897   0.586   0.149  0.8066  0.1588 -0.0217
 4379SOL     OW17287   2.815   4.045   4.929  0.2928 -0.3836  0.1714
 4379SOL    HW217288   2.749   3.982   4.958 -1.9326  1.2646 -1.0052
 4379SOL    HW317289   2.797   4.058   4.836  0.0298  2.5809  0.5286
 4379SOL    MW417290   2.804   4.039   4.921 -0.0355  0.2250  0.0633
 4380SOL     OW17291   4.540   0.096   0.045  0.2104  0.2414 -0.0402
 4380SOL    HW217292   4.544   0.004   0.020  0.0345 -0.0741  1.0456
 4380SOL    HW317293   4.454   0.126   0.015  1.1569  0.7156 -2.4976
 4380SOL    MW417294   4.529   0.088   0.038  0.3121  0.2623 -0.2212
 4381SOL     OW17295   2.934   5.346   5.627 -0.1494  0.0730  0.3925
 4381SOL    HW217296   2.885   5.308   5.554 -0.3871 -1.0033  1.0863
 4381SOL    HW317297   2.939   5.439   5.606 -3.7812  0.5643  0.9888
 4381SOL    MW417298   2.928   5.353   5.614 -0.6599 -0.0042  0.5627
 4382SOL     OW17299   0.168   5.414   3.020 -0.1683  0.2654 -0.3451
 4382SOL    HW217300   0.218   5.355   3.076 -0.4074  0.0767 -0.3329
 4382SOL    HW317301   0.168   5.372   2.934 -0.4543  0.1802 -0.3044
 4382SOL    MW417302   0.175   5.401   3.016 -0.2376  0.2292 -0.3381
 4383SOL     OW17303   1.643   4.096   3.821  0.3147 -0.4408  0.3595
 4383SOL    HW217304   1.629   4.039   3.897  1.7674 -0.7752  0.4052
 4383SOL    HW317305   1.606   4.181   3.848  0.0628 -0.7775  1.1157
 4383SOL    MW417306   1.636   4.100   3.835  0.4731 -0.5294  0.4653
 4384SOL     OW17307   3.679   3.548   3.669  0.3475  0.2227 -0.5198
 4384SOL    HW217308   3.690   3.454   3.678 -1.0594  0.1964  1.6290
 4384SOL    HW317309   3.763   3.579   3.636  2.7439 -1.2193  3.4934
 4384SOL    MW417310   3.692   3.540   3.666  0.4781  0.0290  0.2932
 4385SOL     OW17311   0.163   2.820   2.946  0.2759  0.2827 -0.4473
 4385SOL    HW217312   0.249   2.859   2.962  0.1369  0.7470 -0.8182
 4385SOL    HW317313   0.105   2.862   3.010 -0.0576  1.3502 -1.4347
 4385SOL    MW417314   0.167   2.831   2.957  0.2135  0.4848 -0.6265
 4386SOL     OW17315   1.865   1.340   4.961 -0.0382 -0.3735  0.2625
 4386SOL    HW217316   1.956   1.314   4.943  0.1902 -0.2780  1.2053
 4386SOL    HW317317   1.872   1.432   4.988 -0.2305 -0.7443  1.6586
 4386SOL    MW417318   1.878   1.349   4.962 -0.0335 -0.4099  0.5711
 4387SOL     OW17319   4.754   1.957   0.203 -0.3131 -0.3492  0.0953
 4387SOL    HW217320   4.749   2.051   0.186  0.9362 -0.4533 -0.9217
 4387SOL    HW317321   4.827   1.926   0.150 -1.2935 -2.0696 -0.3219
 4387SOL    MW417322   4.763   1.965   0.194 -0.2776 -0.5899 -0.0939
 4388SOL     OW17323   4.158   2.893   0.703 -0.2176 -0.3080  0.3495
 4388SOL    HW217324   4.181   2.803   0.679 -0.2056  0.1993 -1.6460
 4388SOL    HW317325   4.236   2.927   0.747 -0.9742 -1.9200  3.2601
 4388SOL    MW417326   4.171   2.885   0.706 -0.3158 -0.4538  0.4703
 4389SOL     OW17327   5.111   1.249   0.306  0.0800  0.2315 -0.2280
 4389SOL    HW217328   5.096   1.313   0.236  0.7265  0.6265 -0.0141
 4389SOL    HW317329   5.195   1.275   0.344  0.1392 -0.4918  0.1422
 4389SOL    MW417330   5.120   1.261   0.302  0.1731  0.1882 -0.1510
 4390SOL     OW17331   3.338   3.008   5.627  0.1840 -0.5254  0.0217
 4390SOL    HW217332   3.252   3.045   5.646 -0.7527 -3.1200  1.3986
 4390SOL    HW317333   3.387   3.018   5.709  0.7435 -0.1881 -0.3529
 4390SOL    MW417334   3.333   3.014   5.641  0.1342 -0.8232  0.1540
 4391SOL     OW17335   1.695   0.232   3.070  0.0788  0.0211 -0.2117
 4391SOL    HW217336   1.707   0.137   3.077  1.1384  0.0559 -1.2914
 4391SOL    HW317337   1.666   0.246   2.980 -1.0693  0.6531  0.2299
 4391SOL    MW417338   1.693   0.221   3.059  0.0671  0.1091 -0.2959
 4392SOL     OW17339   5.909   5.121   5.692  0.0402  0.1810 -0.1415
 4392SOL    HW217340   5.885   5.054   5.755  0.1463 -0.4013 -0.7144
 4392SOL    HW317341   5.837   5.122   5.629 -0.4485  1.3065  0.4042
 4392SOL    MW417342   5.897   5.113   5.692 -0.0103  0.2526 -0.1451
 4393SOL     OW17343   3.244   1.988   5.169  0.3733 -0.5527  0.0999
 4393SOL    HW217344   3.314   1.994   5.104  0.4853 -1.9499  0.0601
 4393SOL    HW317345   3.190   1.915   5.139  0.3965 -1.1915  1.5506
 4393SOL    MW417346   3.246   1.979   5.156  0.3911 -0.8213  0.2860
 4394SOL     OW17347   1.124   5.894   2.689  0.3072  0.2909  0.2938
 4394SOL    HW217348   1.058   5.922   2.752  0.4775  0.4591  0.3950
 4394SOL    HW317349   1.138   5.801   2.709 -1.6409 -0.4150 -1.2491
 4394SOL    MW417350   1.117   5.885   2.700  0.0727  0.2200  0.1036
 4395SOL     OW17351   1.942   0.192   2.782  0.1131  0.3875  0.5236
 4395SOL    HW217352   2.019   0.248   2.785  0.4235  0.0361 -0.7002
 4395SOL    HW317353   1.955   0.130   2.854 -0.3085  1.9254  2.0029
 4395SOL    MW417354   1.954   0.191   2.792  0.0984  0.5441  0.5573
 4396SOL     OW17355   5.699   6.290   6.007  0.3410  0.0809  0.5584
 4396SOL    HW217356   5.775   6.238   6.035  0.4866  0.5715  1.0928
 4396SOL    HW317357   5.665   6.243   5.930  0.6339 -0.6474  0.8642
 4396SOL    MW417358   5.705   6.277   6.000  0.3989  0.0496  0.6692
 4397SOL     OW17359   5.409   2.142   4.404  0.1727 -0.0579 -0.0635
 4397SOL    HW217360   5.371   2.128   4.317 -1.2093  1.5118  0.2398
 4397SOL    HW317361   5.340   2.185   4.454  1.3740  0.2165  1.4394
 4397SOL    MW417362   5.395   2.146   4.399  0.1488  0.1854  0.1748
 4398SOL     OW17363   2.584   4.242   4.902 -0.1015  0.1380 -0.2309
 4398SOL    HW217364   2.624   4.273   4.821  0.6434 -0.9207 -0.2809
 4398SOL    HW317365   2.658   4.222   4.959 -0.6250  1.3597  0.9125
 4398SOL    MW417366   2.599   4.244   4.899 -0.0723  0.1595 -0.0866
 4399SOL     OW17367   4.132   4.839   4.526  0.1697 -0.4901 -0.0373
 4399SOL    HW217368   4.124   4.744   4.523  1.2971 -0.6246  0.5933
 4399SOL    HW317369   4.202   4.859   4.463 -0.4260 -0.0165 -0.5647
 4399SOL    MW417370   4.140   4.829   4.517  0.2399 -0.4454 -0.0237
 4400SOL     OW17371   1.358   2.592   2.136 -0.8878  0.0461 -0.9228
 4400SOL    HW217372   1.330   2.512   2.092 -0.1654 -0.1606 -1.0269
 4400SOL    HW317373   1.307   2.661   2.095 -1.9226 -0.4182 -0.4442
 4400SOL    MW417374   1.348   2.591   2.125 -0.9290 -0.0424 -0.8734
 4401SOL     OW17375   3.759   2.877   2.538  0.2268  0.0164 -0.1371
 4401SOL    HW217376   3.840   2.891   2.587  0.6716 -0.7209 -0.6461
 4401SOL    HW317377   3.784   2.893   2.447 -0.5714  1.2850 -0.1588
 4401SOL    MW417378   3.773   2.881   2.532  0.1802  0.0865 -0.2071
 4402SOL     OW17379   4.188   5.597   4.375  0.0071  0.1346  0.3297
 4402SOL    HW217380   4.093   5.582   4.382  0.0469  0.2431  1.1718
 4402SOL    HW317381   4.213   5.633   4.460  0.7018  0.7165 -0.1128
 4402SOL    MW417382   4.179   5.600   4.387  0.1040  0.2257  0.3824
 4403SOL     OW17383   6.073   3.426   4.873 -0.1473 -0.7776 -0.6112
 4403SOL    HW217384   5.978   3.416   4.879 -0.0398 -1.2528  0.4291
 4403SOL    HW317385   6.086   3.490   4.803 -1.2957  0.4089  0.2210
 4403SOL    MW417386   6.062   3.433   4.864 -0.2847 -0.6838 -0.3641
 4404SOL     OW17387   1.939   5.686   1.109 -0.4157 -0.6761  0.1019
 4404SOL    HW217388   1.868   5.626   1.086 -0.5977 -0.3705 -0.1323
 4404SOL    HW317389   1.897   5.771   1.119 -0.0138 -0.3966 -0.5132
 4404SOL    MW417390   1.924   5.689   1.107 -0.3867 -0.5989 -0.0101
 4405SOL     OW17391   6.389   2.578   2.475  0.2459  0.2455  0.0663
 4405SOL    HW217392   6.452   2.570   2.404 -0.9233 -0.9920 -0.8866
 4405SOL    HW317393   6.442   2.591   2.553  1.6434 -0.1523 -0.7798
 4405SOL    MW417394   6.404   2.579   2.476  0.2760  0.0297 -0.1711
 4406SOL     OW17395   5.677   1.231   5.444 -0.5647  0.0335  0.2198
 4406SOL    HW217396   5.623   1.199   5.372 -0.9144  1.1880 -0.0471
 4406SOL    HW317397   5.673   1.326   5.437  2.4804  0.2153 -0.5628
 4406SOL    MW417398   5.670   1.239   5.433 -0.2091  0.2098  0.0813
 4407SOL     OW17399   5.142   3.561   3.743 -0.0759  0.3329 -0.2023
 4407SOL    HW217400   5.225   3.521   3.766  0.2450  2.0206  1.9119
 4407SOL    HW317401   5.160   3.609   3.662  1.7684  2.5495  1.3743
 4407SOL    MW417402   5.155   3.562   3.735  0.2098  0.8480  0.2847
 4408SOL     OW17403   2.986   4.950   1.027 -0.0107 -0.4915  0.5158
 4408SOL    HW217404   2.968   4.933   1.120 -0.1181 -1.3283  0.3479
 4408SOL    HW317405   2.910   4.915   0.981 -0.0317  0.0726  0.1188
 4408SOL    MW417406   2.974   4.943   1.033 -0.0276 -0.5275  0.4413
 4409SOL     OW17407   0.519   5.964   3.577  0.1934  0.0260 -0.4788
 4409SOL    HW217408   0.542   6.042   3.528 -0.3236  0.0951 -0.6146
 4409SOL    HW317409   0.434   5.937   3.542  0.0759 -0.2378 -0.0069
 4409SOL    MW417410   0.511   5.971   3.566  0.1097  0.0003 -0.4345
 4410SOL     OW17411   6.384   3.050   2.761  0.4401  0.6237  0.3603
 4410SOL    HW217412   6.413   2.965   2.729 -0.0029  0.6391 -0.1053
 4410SOL    HW317413   6.451   3.111   2.731 -1.8559  1.3313 -4.3240
 4410SOL    MW417414   6.396   3.047   2.752  0.0787  0.7191 -0.3192
 4411SOL     OW17415   6.079   3.514   1.942 -0.3600  0.3025 -0.2457
 4411SOL    HW217416   6.061   3.469   2.024 -1.4814  1.1708  0.0111
 4411SOL    HW317417   6.002   3.568   1.926 -0.2570  0.0191 -1.9728
 4411SOL    MW417418   6.067   3.515   1.950 -0.4943  0.3796 -0.4397
 4412SOL     OW17419   5.008   0.850   2.544 -0.1303  0.0720  0.3316
 4412SOL    HW217420   4.922   0.873   2.509  0.2771 -0.1190 -0.8459
 4412SOL    HW317421   5.045   0.790   2.479  0.5705 -0.4914  1.2198
 4412SOL    MW417422   5.001   0.845   2.530  0.0159 -0.0275  0.2934
 4413SOL     OW17423   2.479   6.205   4.035  0.9054 -0.5765  0.0252
 4413SOL    HW217424   2.478   6.133   4.098  0.0195 -0.3516  0.2833
 4413SOL    HW317425   2.422   6.176   3.964  0.1283  0.0718  0.3734
 4413SOL    MW417426   2.471   6.192   4.034  0.6860 -0.4613  0.1052
 4414SOL     OW17427   4.757   0.008   5.083  0.4129  0.0821  0.1633
 4414SOL    HW217428   4.701   0.073   5.125 -0.7359 -0.2727 -0.7719
 4414SOL    HW317429   4.758   0.033   4.991 -2.3976 -2.7517 -0.8094
 4414SOL    MW417430   4.750   0.020   5.077 -0.1095 -0.3386 -0.0884
 4415SOL     OW17431   0.585   2.565   4.735 -0.0329 -0.4410  0.0595
 4415SOL    HW217432   0.649   2.505   4.774 -0.5695 -0.9753  0.1487
 4415SOL    HW317433   0.556   2.520   4.656 -0.6623 -0.4510  0.2855
 4415SOL    MW417434   0.589   2.551   4.730 -0.1867 -0.5128  0.1011
 4416SOL     OW17435   3.498   3.222   0.251 -0.1449  0.1026  0.1151
 4416SOL    HW217436   3.594   3.216   0.257  0.1646  1.7820 -2.1703
 4416SOL    HW317437   3.469   3.221   0.343  2.1678  0.9962  0.9337
 4416SOL    MW417438   3.507   3.221   0.264  0.2010  0.4421 -0.0785
 4417SOL     OW17439   5.264   1.656   0.933  0.0447  0.3948  0.0136
 4417SOL    HW217440   5.168   1.650   0.940 -0.0644 -0.2980 -1.7046
 4417SOL    HW317441   5.296   1.582   0.983 -0.3929 -0.2865 -0.6947
 4417SOL    MW417442   5.255   1.646   0.941 -0.0274  0.2135 -0.3066
 4418SOL     OW17443   2.178   4.497   2.891 -0.2846  0.4003 -0.4432
 4418SOL    HW217444   2.085   4.510   2.870 -0.3304  1.0853  0.1458
 4418SOL    HW317445   2.221   4.573   2.851 -0.0931  0.5551  0.0567
 4418SOL    MW417446   2.171   4.509   2.883 -0.2653  0.5111 -0.2995
 4419SOL     OW17447   0.402   4.465   0.087 -0.0548  0.2224 -0.5731
 4419SOL    HW217448   0.457   4.516   0.027 -0.5072  2.2793  0.6525
 4419SOL    HW317449   0.323   4.518   0.097  0.1770  0.2069  2.1331
 4419SOL    MW417450   0.399   4.479   0.080 -0.0839  0.4917 -0.0543
 4420SOL     OW17451   1.247   4.944   3.364  0.2664  0.0385 -0.0265
 4420SOL    HW217452   1.295   5.026   3.373  1.0319 -0.2109 -1.4239
 4420SOL    HW317453   1.280   4.889   3.434 -0.0237  0.8089  0.7313
 4420SOL    MW417454   1.258   4.948   3.374  0.3291  0.1072 -0.1109
 4421SOL     OW17455   5.511   0.986   4.394  0.2552  0.3609 -0.4047
 4421SOL    HW217456   5.434   0.930   4.399  0.6419 -0.0787  1.3154
 4421SOL    HW317457   5.478   1.068   4.358 -0.8934 -0.0255 -0.2877
 4421SOL    MW417458   5.497   0.990   4.390  0.1547  0.2519 -0.1623
 4422SOL     OW17459   3.865   1.363   5.196  0.3014  0.0277 -0.0931
 4422SOL    HW217460   3.894   1.414   5.121  1.8437 -1.0351 -0.2694
 4422SOL    HW317461   3.773   1.389   5.209  0.1069  0.5102 -2.0900
 4422SOL    MW417462   3.856   1.373   5.188  0.4792 -0.0488 -0.3798
 4423SOL     OW17463   1.046   1.618   1.553 -0.6656 -0.3377 -0.1617
 4423SOL    HW217464   1.102   1.630   1.476  0.5286 -1.3597  0.5215
 4423SOL    HW317465   1.009   1.705   1.569  0.7520  0.3813 -0.6211
 4423SOL    MW417466   1.048   1.631   1.545 -0.3210 -0.3776 -0.1322
 4424SOL     OW17467   1.519   4.536   0.289  0.2929  0.2710  0.4620
 4424SOL    HW217468   1.573   4.538   0.210  0.6882 -0.8021  0.6914
 4424SOL    HW317469   1.430   4.524   0.256  0.3390  0.7790  0.1414
 4424SOL    MW417470   1.514   4.535   0.274  0.3511  0.1965  0.4500
 4425SOL     OW17471   2.998   3.843   3.659  0.0317 -0.0932  0.1803
 4425SOL    HW217472   2.961   3.760   3.630  0.6159 -0.5292  0.6481
 4425SOL    HW317473   3.085   3.820   3.691 -0.4155  0.4144  1.8792
 4425SOL    MW417474   3.005   3.829   3.659  0.0498 -0.0838  0.4662
 4426SOL     OW17475   0.338   1.634   3.402 -0.2251 -0.6206 -0.2090
 4426SOL    HW217476   0.279   1.689   3.454  2.4610  1.2891  1.0528
 4426SOL    HW317477   0.343   1.552   3.451 -0.7672 -0.2840  0.4336
 4426SOL    MW417478   0.331   1.631   3.415  0.0578 -0.3243  0.0423
 4427SOL     OW17479   4.415   0.150   2.069  0.5467 -0.4632 -0.1973
 4427SOL    HW217480   4.502   0.163   2.032  1.1295 -0.3690  1.1366
 4427SOL    HW317481   4.389   0.237   2.100  0.5106 -0.7084  0.4927
 4427SOL    MW417482   4.423   0.163   2.068  0.6189 -0.4831  0.0697
 4428SOL     OW17483   5.871   2.418   3.862 -0.3967 -0.6642  0.0030
 4428SOL    HW217484   5.859   2.324   3.850 -3.7291 -0.6463  1.9706
 4428SOL    HW317485   5.782   2.454   3.866  0.6852  2.2042  1.7671
 4428SOL    MW417486   5.858   2.410   3.861 -0.6936 -0.2834  0.4953
 4429SOL     OW17487   3.051   3.027   5.316 -0.3482  0.0457  0.0090
 4429SOL    HW217488   3.134   3.073   5.301 -0.4852  0.1401 -0.4667
 4429SOL    HW317489   3.076   2.935   5.325 -0.1280  0.1494  0.4688
 4429SOL    MW417490   3.065   3.021   5.315 -0.3373  0.0719  0.0069
 4430SOL     OW17491   2.663   5.699   2.362 -0.3486 -0.5168 -0.5825
 4430SOL    HW217492   2.649   5.789   2.332  1.9024 -0.3975 -1.4567
 4430SOL    HW317493   2.613   5.645   2.301  0.6283  0.0062 -1.8923
 4430SOL    MW417494   2.654   5.704   2.350  0.0773 -0.4321 -0.8707
 4431SOL     OW17495   3.606   1.446   6.243  0.2862 -0.6945 -0.1386
 4431SOL    HW217496   3.541   1.467   6.177 -0.0536  3.6813  1.2255
 4431SOL    HW317497   3.556   1.407   6.315 -0.8695  1.7313  0.5046
 4431SOL    MW417498   3.591   1.444   6.244  0.0889  0.2029  0.1262
 4432SOL     OW17499   4.407   1.199   0.383  0.2336  0.1482 -0.5391
 4432SOL    HW217500   4.388   1.132   0.318 -2.4233 -0.2565  0.5267
 4432SOL    HW317501   4.407   1.281   0.333  0.3655 -0.3408 -1.3662
 4432SOL    MW417502   4.405   1.201   0.368 -0.0996  0.0303 -0.5076
 4433SOL     OW17503   4.474   2.358   3.415  0.0307  0.3350  0.1229
 4433SOL    HW217504   4.566   2.344   3.435  0.0416 -2.6517 -1.3264
 4433SOL    HW317505   4.427   2.317   3.488 -0.1267  0.4559  0.0903
 4433SOL    MW417506   4.480   2.350   3.427  0.0114 -0.0431 -0.0726
 4434SOL     OW17507   5.470   2.721   6.035 -0.6790  0.3003  0.6991
 4434SOL    HW217508   5.527   2.671   5.976 -3.0691 -0.8096 -0.8408
 4434SOL    HW317509   5.397   2.661   6.054 -1.5104  1.7418  2.3494
 4434SOL    MW417510   5.467   2.706   6.030 -1.1040  0.3441  0.7137
 4435SOL     OW17511   0.335   4.574   2.808  0.3638 -0.0665 -0.3220
 4435SOL    HW217512   0.318   4.482   2.786 -0.8502 -0.0568  0.4646
 4435SOL    HW317513   0.267   4.622   2.760  0.8668  0.4178 -0.5641
 4435SOL    MW417514   0.323   4.568   2.799  0.2700 -0.0013 -0.2502
 4436SOL     OW17515   6.415   6.132   4.506 -0.4938 -0.3857  0.3572
 4436SOL    HW217516   6.429   6.081   4.585  0.1854  0.6005  0.8940
 4436SOL    HW317517   6.495   6.121   4.455 -0.4973 -0.1723  0.3028
 4436SOL    MW417518   6.427   6.124   4.510 -0.4046 -0.2274  0.4209
 4437SOL     OW17519   1.609   4.104   2.350 -0.0314 -0.1629 -0.1607
 4437SOL    HW217520   1.619   4.196   2.372  0.1211 -0.5152  1.3368
 4437SOL    HW317521   1.687   4.083   2.298 -0.3973  0.6894 -1.0869
 4437SOL    MW417522   1.621   4.113   2.346 -0.0595 -0.0970 -0.0853
 4438SOL     OW17523   0.448   5.621   0.890 -0.0056  0.7505 -0.0450
 4438SOL    HW217524   0.391   5.577   0.953  1.2516  1.8081  1.9552
 4438SOL    HW317525   0.532   5.576   0.899  0.2262  1.0168 -0.8453
 4438SOL    MW417526   0.452   5.609   0.900  0.1909  0.9252  0.1133
 4439SOL     OW17527   0.793   0.386   6.101  0.2092  0.1172 -0.1125
 4439SOL    HW217528   0.728   0.439   6.056  2.0481  1.5890 -1.1620
 4439SOL    HW317529   0.811   0.434   6.182  0.3465 -0.0410 -0.0479
 4439SOL    MW417530   0.787   0.399   6.106  0.4699  0.2906 -0.2425
 4440SOL     OW17531   2.686   3.051   5.624  0.1027  0.4359  0.4321
 4440SOL    HW217532   2.759   3.112   5.613  0.7771 -0.3232  0.6371
 4440SOL    HW317533   2.716   2.970   5.583 -0.8631  0.2943 -0.0169
 4440SOL    MW417534   2.700   3.048   5.617  0.0642  0.3171  0.3999
 4441SOL     OW17535   3.100   3.598   1.164 -0.9514  0.9419  0.2866
 4441SOL    HW217536   3.060   3.680   1.134  0.4654  1.4849 -0.2146
 4441SOL    HW317537   3.194   3.616   1.163 -0.4971 -1.1423 -1.2641
 4441SOL    MW417538   3.107   3.611   1.160 -0.7045  0.7386  0.0159
 4442SOL     OW17539   3.386   2.098   4.115  0.3006  0.0062 -0.2185
 4442SOL    HW217540   3.304   2.146   4.119 -0.2102 -0.8095 -0.6064
 4442SOL    HW317541   3.453   2.163   4.136 -0.2314  1.2208 -2.0478
 4442SOL    MW417542   3.384   2.113   4.118  0.1630  0.0588 -0.5110
 4443SOL     OW17543   1.001   2.540   0.265 -0.1819  0.1092 -0.0939
 4443SOL    HW217544   1.035   2.455   0.291  0.3576  0.9083  2.0422
 4443SOL    HW317545   0.906   2.528   0.262 -0.0410 -0.8844 -1.1632
 4443SOL    MW417546   0.993   2.527   0.268 -0.0921  0.0836  0.0468
 4444SOL     OW17547   4.455   1.315   3.140 -0.8339 -0.0643  0.3812
 4444SOL    HW217548   4.462   1.377   3.212  0.4609  0.6401 -0.2950
 4444SOL    HW317549   4.449   1.370   3.062  0.0447 -0.7668 -0.2110
 4444SOL    MW417550   4.455   1.330   3.139 -0.5471 -0.0641  0.2138
 4445SOL     OW17551   1.014   1.708   5.276  0.5473 -0.0290 -0.2371
 4445SOL    HW217552   1.057   1.645   5.219  0.8359  0.4741 -0.5874
 4445SOL    HW317553   0.970   1.769   5.217 -2.4575 -1.6736  0.0946
 4445SOL    MW417554   1.014   1.708   5.261  0.1889 -0.1796 -0.2395
 4446SOL     OW17555   1.130   5.312   6.070  0.0104  0.2044  0.2857
 4446SOL    HW217556   1.115   5.242   6.006 -2.2905  1.3345 -0.5338
 4446SOL    HW317557   1.169   5.268   6.145  0.8496 -1.5257 -1.0973
 4446SOL    MW417558   1.133   5.297   6.071 -0.1824  0.1253 -0.0049
 4447SOL     OW17559   3.810   5.343   3.451 -0.1280  0.2617 -0.5930
 4447SOL    HW217560   3.814   5.250   3.471 -2.2519  0.1876 -0.2902
 4447SOL    HW317561   3.857   5.385   3.522 -0.3415 -0.5098  0.0211
 4447SOL    MW417562   3.816   5.336   3.463 -0.4364  0.1501 -0.4721
 4448SOL     OW17563   1.965   3.378   1.336 -0.3516  0.1697  0.3085
 4448SOL    HW217564   1.979   3.473   1.338 -1.8014  0.4132  0.1484
 4448SOL    HW317565   2.043   3.342   1.378 -0.3542  1.5071  1.5748
 4448SOL    MW417566   1.977   3.386   1.342 -0.5432  0.3783  0.4544
 4449SOL     OW17567   5.044   5.908   4.421 -0.5482 -0.3059 -0.1393
 4449SOL    HW217568   5.056   5.985   4.477 -0.4035  0.7920 -1.6245
 4449SOL    HW317569   5.089   5.838   4.468  0.9328  0.9374  0.3829
 4449SOL    MW417570   5.052   5.909   4.435 -0.3337  0.0030 -0.2663
 4450SOL     OW17571   5.723   2.971   2.636  0.6909 -0.1066 -0.3915
 4450SOL    HW217572   5.633   2.955   2.608  0.1900  1.5148  0.1822
 4450SOL    HW317573   5.743   2.897   2.694  0.5378 -1.6430 -2.1742
 4450SOL    MW417574   5.714   2.959   2.640  0.6046 -0.0954 -0.5510
 4451SOL     OW17575   2.746   1.386   3.008 -0.6062 -0.2160 -0.3486
 4451SOL    HW217576   2.723   1.479   3.003 -0.5166 -0.2051 -0.5805
 4451SOL    HW317577   2.779   1.365   2.920 -0.0322 -0.3122 -0.1121
 4451SOL    MW417578   2.747   1.395   2.996 -0.5187 -0.2273 -0.3480
 4452SOL     OW17579   3.060   2.933   2.182  0.3134  0.2608 -0.1361
 4452SOL    HW217580   3.146   2.934   2.224  0.7811  1.0983 -1.1025
 4452SOL    HW317581   3.024   3.020   2.197  0.4210  0.5218 -1.3345
 4452SOL    MW417582   3.066   2.944   2.190  0.3893  0.4057 -0.4217
 4453SOL     OW17583   3.182   1.900   6.148  0.2018 -0.2152  0.1377
 4453SOL    HW217584   3.180   1.886   6.243 -2.2231 -1.8076 -0.0303
 4453SOL    HW317585   3.114   1.841   6.115 -0.9707  2.3025 -2.3224
 4453SOL    MW417586   3.173   1.890   6.156 -0.2728 -0.0931 -0.2091
 4454SOL     OW17587   2.130   2.072   1.152  0.3153  0.0480 -0.1562
 4454SOL    HW217588   2.150   2.123   1.230 -0.3906 -0.5284  0.4141
 4454SOL    HW317589   2.107   2.137   1.086  0.4658  0.5217  0.2534
 4454SOL    MW417590   2.129   2.087   1.153  0.2420  0.0345 -0.0269
 4455SOL     OW17591   2.590   3.664   6.045 -0.3159 -0.1514 -0.3995
 4455SOL    HW217592   2.621   3.578   6.019 -0.1386  0.4404 -2.3081
 4455SOL    HW317593   2.568   3.708   5.963 -1.3210  1.2908  0.5748
 4455SOL    MW417594   2.591   3.659   6.031 -0.4251  0.1170 -0.5227
 4456SOL     OW17595   1.297   1.157   1.219  0.0414 -0.3367  0.0776
 4456SOL    HW217596   1.352   1.166   1.297  0.2850 -1.3698  0.0393
 4456SOL    HW317597   1.218   1.207   1.238  0.6317  0.4613  0.4766
 4456SOL    MW417598   1.294   1.165   1.232  0.1514 -0.3677  0.1252
 4457SOL     OW17599   3.100   0.266   5.496 -0.3330 -0.1866 -0.7327
 4457SOL    HW217600   3.094   0.334   5.429 -0.0347  2.0022  1.3276
 4457SOL    HW317601   3.167   0.298   5.557 -2.4763 -0.6641  2.0761
 4457SOL    MW417602   3.108   0.279   5.495 -0.5765  0.0391 -0.0903
 4458SOL     OW17603   3.213   5.986   2.331 -0.3296 -0.8643  0.0897
 4458SOL    HW217604   3.121   5.967   2.315 -0.1986 -0.9669 -0.5394
 4458SOL    HW317605   3.229   5.954   2.420 -0.6530 -1.7433 -0.1655
 4458SOL    MW417606   3.203   5.979   2.341 -0.3550 -0.9938 -0.0270
 4459SOL     OW17607   3.889   3.143   0.903 -0.0859  0.1354  0.1148
 4459SOL    HW217608   3.808   3.182   0.868 -2.0380 -2.3303  1.5398
 4459SOL    HW317609   3.876   3.144   0.998  0.6837 -2.0035  0.2939
 4459SOL    MW417610   3.876   3.148   0.911 -0.2419 -0.4721  0.3265
 4460SOL     OW17611   3.251   2.912   6.000 -0.9227  0.0485 -0.0431
 4460SOL    HW217612   3.185   2.877   5.940  0.3317 -1.4162 -0.6180
 4460SOL    HW317613   3.238   2.863   6.081 -0.0817 -0.7881 -0.3978
 4460SOL    MW417614   3.240   2.901   6.002 -0.6462 -0.2551 -0.1658
 4461SOL     OW17615   5.057   4.588   6.387  0.0056 -0.1626 -0.4296
 4461SOL    HW217616   5.150   4.602   6.367  0.1491 -0.1871  0.1871
 4461SOL    HW317617   5.025   4.532   6.316  0.2205  0.6519 -1.1724
 4461SOL    MW417618   5.065   4.582   6.375  0.0529 -0.0584 -0.4463
 4462SOL     OW17619   2.211   0.420   1.331 -0.3295  0.2689 -0.1616
 4462SOL    HW217620   2.146   0.491   1.334 -0.2951  0.3331 -0.8299
 4462SOL    HW317621   2.291   0.462   1.300 -1.2632 -0.6991 -4.4076
 4462SOL    MW417622   2.213   0.435   1.328 -0.4482  0.1497 -0.8100
 4463SOL     OW17623   0.944   3.980   2.876  0.0894 -0.0517 -0.3697
 4463SOL    HW217624   0.952   3.967   2.781  0.7098  0.0056 -0.3301
 4463SOL    HW317625   0.929   3.892   2.910 -0.5484 -0.0193 -0.5583
 4463SOL    MW417626   0.943   3.966   2.868  0.0871 -0.0398 -0.3893
 4464SOL     OW17627   1.580   4.000   6.360  0.5274  0.1385  0.3093
 4464SOL    HW217628   1.553   3.922   6.311  0.7055 -0.9442  1.8707
 4464SOL    HW317629   1.498   4.043   6.384  0.2183 -1.4306  2.3201
 4464SOL    MW417630   1.566   3.995   6.357  0.5101 -0.2113  0.7806
 4465SOL     OW17631   0.150   4.564   3.399  0.6707  0.1049  0.6537
 4465SOL    HW217632   0.070   4.602   3.435  1.0083  0.7800  0.7084
 4465SOL    HW317633   0.130   4.550   3.306  0.7708  1.0916  0.4720
 4465SOL    MW417634   0.137   4.567   3.391  0.7284  0.3241  0.6369
 4466SOL     OW17635   0.755   3.297   2.113  0.6713  0.6485  0.2724
 4466SOL    HW217636   0.703   3.377   2.118 -2.9342 -1.5308  1.4944
 4466SOL    HW317637   0.765   3.280   2.020  2.3394  2.8979 -0.0395
 4466SOL    MW417638   0.749   3.306   2.102  0.4157  0.6577  0.3925
 4467SOL     OW17639   1.981   4.855   0.439  0.0348 -0.0315 -0.2379
 4467SOL    HW217640   1.950   4.808   0.516  1.2289 -0.1955  0.1636
 4467SOL    HW317641   2.050   4.912   0.472  0.3601  0.1138 -1.1457
 4467SOL    MW417642   1.986   4.856   0.454  0.2352 -0.0340 -0.3047
 4468SOL     OW17643   2.242   5.727   1.978  0.3463  0.3079 -0.6000
 4468SOL    HW217644   2.187   5.676   1.918  1.0217 -0.3137 -0.7036
 4468SOL    HW317645   2.217   5.818   1.962  0.0429  0.1026 -1.3502
 4468SOL    MW417646   2.232   5.732   1.968  0.3954  0.1988 -0.7127
 4469SOL     OW17647   5.033   4.573   0.898  0.9003  0.1684  0.1652
 4469SOL    HW217648   4.973   4.591   0.970  1.1586  1.7810  0.0111
 4469SOL    HW317649   5.096   4.645   0.900 -0.4231  1.6337 -3.0712
 4469SOL    MW417650   5.033   4.585   0.908  0.7598  0.5745 -0.2821
 4470SOL     OW17651   3.142   4.562   5.151 -0.4593 -0.0028 -0.5370
 4470SOL    HW217652   3.230   4.527   5.136  0.3120  0.5634  2.2489
 4470SOL    HW317653   3.084   4.488   5.131  0.8335 -1.3030  0.2651
 4470SOL    MW417654   3.146   4.547   5.146 -0.1870 -0.0996 -0.0636
 4471SOL     OW17655   4.974   1.669   4.272  0.1921 -0.7464  0.3599
 4471SOL    HW217656   4.894   1.717   4.249  1.0930  0.6901  0.0660
 4471SOL    HW317657   5.023   1.730   4.326  1.8806 -0.9074 -0.9132
 4471SOL    MW417658   4.970   1.683   4.276  0.5337 -0.5781  0.1532
 4472SOL     OW17659   5.349   0.643   4.247  0.2885  0.7039  0.0773
 4472SOL    HW217660   5.360   0.579   4.318 -0.6282 -0.2872 -0.6384
 4472SOL    HW317661   5.304   0.717   4.288 -1.2519 -0.3296  0.3124
 4472SOL    MW417662   5.345   0.644   4.262 -0.0357  0.4368  0.0139
 4473SOL     OW17663   4.183   4.009   4.661  0.3829  0.1750 -0.7666
 4473SOL    HW217664   4.100   4.022   4.615  0.7919  1.3966 -1.2063
 4473SOL    HW317665   4.206   4.096   4.695  1.7842  0.0062 -1.2043
 4473SOL    MW417666   4.175   4.023   4.659  0.6218  0.3139 -0.8824
 4474SOL     OW17667   5.191   2.288   4.513 -0.1056 -0.0189  0.1540
 4474SOL    HW217668   5.117   2.246   4.469 -0.6124 -0.0475  1.0064
 4474SOL    HW317669   5.152   2.331   4.590  0.5657  1.0509 -0.0746
 4474SOL    MW417670   5.176   2.288   4.517 -0.0839  0.1185  0.2363
 4475SOL     OW17671   6.051   4.922   4.040 -0.2437 -0.0713 -0.0654
 4475SOL    HW217672   6.124   4.966   4.083 -0.5595 -1.8943  2.5720
 4475SOL    HW317673   6.006   4.876   4.110 -1.0555 -2.9891 -2.2867
 4475SOL    MW417674   6.055   4.922   4.055 -0.3925 -0.6968 -0.0105
 4476SOL     OW17675   1.077   6.142   2.349  0.0204  0.0748  0.5511
 4476SOL    HW217676   1.140   6.167   2.281 -1.6448  0.3087 -0.9671
 4476SOL    HW317677   1.080   6.046   2.348  2.2810  0.0240  2.4363
 4476SOL    MW417678   1.086   6.132   2.340  0.0990  0.0990  0.5995
 4477SOL     OW17679   2.770   5.865   0.492  0.1929  0.7882 -0.0792
 4477SOL    HW217680   2.675   5.856   0.503  0.2405 -2.3119 -1.3647
 4477SOL    HW317681   2.802   5.885   0.580 -1.3522 -1.8107  1.2071
 4477SOL    MW417682   2.761   5.867   0.505 -0.0047  0.0363 -0.0791
 4478SOL     OW17683   0.965   0.675   6.002 -0.2491 -0.4070 -0.1000
 4478SOL    HW217684   0.897   0.715   6.056  0.2894  0.8918 -0.3386
 4478SOL    HW317685   0.996   0.600   6.052 -0.6715 -0.0022  0.7813
 4478SOL    MW417686   0.960   0.670   6.015 -0.2338 -0.1823 -0.0152
 4479SOL     OW17687   0.749   4.732   3.219  0.0932 -0.1816 -0.3939
 4479SOL    HW217688   0.739   4.771   3.132  0.2689 -0.9490 -0.7658
 4479SOL    HW317689   0.754   4.807   3.279  0.4033  0.3613 -1.0910
 4479SOL    MW417690   0.749   4.747   3.216  0.1573 -0.2112 -0.5349
 4480SOL     OW17691   4.284   5.349   1.800  0.1713 -0.4676  0.2786
 4480SOL    HW217692   4.271   5.306   1.716  0.7145 -0.9965  0.4603
 4480SOL    HW317693   4.222   5.305   1.859 -3.1238  2.4477 -0.6291
 4480SOL    MW417694   4.274   5.338   1.797 -0.1918 -0.1527  0.1828
 4481SOL     OW17695   2.489   3.774   1.840  0.5790 -0.1937 -0.0007
 4481SOL    HW217696   2.553   3.723   1.889  0.3181 -0.6573 -0.1343
 4481SOL    HW317697   2.532   3.793   1.757  0.3400 -0.9821 -0.3089
 4481SOL    MW417698   2.503   3.770   1.836  0.5130 -0.3588 -0.0590
 4482SOL     OW17699   5.486   2.911   4.094  0.9603  0.0844 -0.3754
 4482SOL    HW217700   5.543   2.900   4.018  0.6948  0.4144 -0.6271
 4482SOL    HW317701   5.535   2.967   4.154  0.4181  1.3783 -1.1149
 4482SOL    MW417702   5.500   2.917   4.092  0.8537  0.2987 -0.5061
 4483SOL     OW17703   3.271   3.806   5.323 -0.3749  0.5098  0.0021
 4483SOL    HW217704   3.288   3.714   5.340  1.6968  1.0527  1.2466
 4483SOL    HW317705   3.263   3.813   5.228 -0.8332 -0.9546 -0.0891
 4483SOL    MW417706   3.272   3.795   5.313 -0.1620  0.3882  0.1543
 4484SOL     OW17707   2.268   5.711   2.664 -0.4408 -0.0965 -0.8899
 4484SOL    HW217708   2.189   5.710   2.611 -0.4749  1.8356 -0.9332
 4484SOL    HW317709   2.248   5.770   2.737  0.7838  0.0124 -0.6125
 4484SOL    MW417710   2.255   5.719   2.667 -0.2838  0.1728 -0.8590
 4485SOL     OW17711   1.066   5.410   2.549  0.9526 -0.4678  0.9569
 4485SOL    HW217712   1.033   5.343   2.489  0.1514 -0.2271  1.1099
 4485SOL    HW317713   1.159   5.417   2.529  1.0106 -1.5246  0.8470
 4485SOL    MW417714   1.074   5.402   2.538  0.8545 -0.5754  0.9626
 4486SOL     OW17715   3.531   1.315   5.545  0.6012  0.3432  0.5932
 4486SOL    HW217716   3.460   1.251   5.543  0.5597  0.3563  1.4116
 4486SOL    HW317717   3.575   1.304   5.460  0.2302 -0.3506  0.4817
 4486SOL    MW417718   3.528   1.305   5.533  0.5468  0.2534  0.6865
 4487SOL     OW17719   3.675   0.170   3.144  0.0905 -0.0702  0.1838
 4487SOL    HW217720   3.694   0.078   3.164 -1.6952  0.0450  2.9229
 4487SOL    HW317721   3.599   0.166   3.086  1.4903 -0.2963 -1.7219
 4487SOL    MW417722   3.667   0.157   3.139  0.0396 -0.0848  0.2938
 4488SOL     OW17723   3.268   0.018   1.990  0.9705 -0.3129 -0.1017
 4488SOL    HW217724   3.294   0.035   2.080  1.9874 -2.5012  0.0800
 4488SOL    HW317725   3.290  -0.074   1.975 -0.8863 -0.5321 -2.0099
 4488SOL    MW417726   3.274   0.008   2.000  0.8597 -0.6305 -0.3295
 4489SOL     OW17727   0.644   3.991   6.186  0.3167  0.2784  0.0266
 4489SOL    HW217728   0.593   4.070   6.203  0.9103  0.5917  0.3847
 4489SOL    HW317729   0.630   3.972   6.093 -0.6374  0.2186  0.1771
 4489SOL    MW417730   0.636   3.999   6.176  0.2691  0.3119  0.0937
 4490SOL     OW17731   0.739   0.939   0.942 -0.6286  0.0559 -0.1741
 4490SOL    HW217732   0.816   0.915   0.890 -1.0490 -2.7162  0.3112
 4490SOL    HW317733   0.774   0.988   1.016  0.2912  1.4827 -1.4923
 4490SOL    MW417734   0.754   0.942   0.945 -0.5627 -0.1216 -0.2840
 4491SOL     OW17735   4.119   3.176   1.263  0.4335  0.2821 -0.5712
 4491SOL    HW217736   4.190   3.240   1.255 -0.1235  0.8995 -0.7149
 4491SOL    HW317737   4.048   3.213   1.210  0.0339 -0.3665 -0.4975
 4491SOL    MW417738   4.119   3.189   1.255  0.3073  0.2779 -0.5804
 4492SOL     OW17739   2.446   3.802   1.230  0.3608  0.3399  0.5720
 4492SOL    HW217740   2.533   3.797   1.192 -0.0645  0.6472 -0.4911
 4492SOL    HW317741   2.393   3.844   1.163 -1.0280 -1.4917  0.4257
 4492SOL    MW417742   2.450   3.807   1.216  0.1214  0.1388  0.4124
 4493SOL     OW17743   2.826   3.278   0.280  0.0701  0.2499  0.4350
 4493SOL    HW217744   2.874   3.303   0.359  2.1513  0.7965 -0.9221
 4493SOL    HW317745   2.777   3.199   0.305  1.0550  0.1406  2.1345
 4493SOL    MW417746   2.826   3.271   0.294  0.4746  0.3076  0.4802
 4494SOL     OW17747   0.734   6.402   1.080 -0.7229 -0.2597 -0.3608
 4494SOL    HW217748   0.670   6.414   1.010  0.5492  1.5667 -1.2974
 4494SOL    HW317749   0.772   6.316   1.063 -0.7870 -0.0631 -1.6382
 4494SOL    MW417750   0.730   6.392   1.068 -0.5635  0.0072 -0.6529
 4495SOL     OW17751   1.576   1.847   5.365  0.4060 -0.5375  0.4475
 4495SOL    HW217752   1.482   1.838   5.383  0.5862 -2.3343  0.6728
 4495SOL    HW317753   1.596   1.938   5.388 -1.2053 -0.1995  0.6770
 4495SOL    MW417754   1.566   1.858   5.370  0.2172 -0.7300  0.5075
 4496SOL     OW17755   4.646   4.159   0.508 -0.4544  0.2155  0.1769
 4496SOL    HW217756   4.554   4.133   0.507 -0.4316 -0.0014  1.5810
 4496SOL    HW317757   4.650   4.231   0.572  0.5023 -0.4371  0.8766
 4496SOL    MW417758   4.635   4.165   0.516 -0.3252  0.1008  0.4545
 4497SOL     OW17759   6.196   3.515   5.129  0.4213  0.3893  0.0996
 4497SOL    HW217760   6.246   3.592   5.101  1.4260 -0.7033 -1.2948
 4497SOL    HW317761   6.160   3.480   5.047  2.0244 -1.9829  0.3134
 4497SOL    MW417762   6.198   3.521   5.114  0.7654 -0.0679 -0.0561
 4498SOL     OW17763   4.225   5.405   5.543  0.2004  0.5248  0.3272
 4498SOL    HW217764   4.260   5.341   5.482  0.6595 -0.2901  1.4211
 4498SOL    HW317765   4.130   5.397   5.536  0.2506 -0.5359  0.6989
 4498SOL    MW417766   4.217   5.396   5.534  0.2676  0.2773  0.5205
 4499SOL     OW17767   4.472   4.578   4.785 -0.4766 -0.0132 -0.2605
 4499SOL    HW217768   4.550   4.628   4.760 -0.0486 -0.0098  1.0166
 4499SOL    HW317769   4.407   4.645   4.805 -0.7153 -0.0123 -1.0198
 4499SOL    MW417770   4.474   4.593   4.784 -0.4516 -0.0126 -0.1922
 4500SOL     OW17771   4.462   0.822   2.927  0.7605 -0.8125  0.1408
 4500SOL    HW217772   4.443   0.799   3.018  0.7567  0.2230  0.4089
 4500SOL    HW317773   4.380   0.807   2.881  0.5037 -0.4743  0.4827
 4500SOL    MW417774   4.449   0.817   2.933  0.7261 -0.6312  0.2213
 4501SOL     OW17775   1.961   0.979   5.186  0.1848  0.0896  0.0452
 4501SOL    HW217776   1.975   1.073   5.195 -0.3245  0.1202  0.5928
 4501SOL    HW317777   1.987   0.942   5.270  0.6147 -0.2922 -0.2506
 4501SOL    MW417778   1.966   0.987   5.198  0.1743  0.0433  0.0784
 4502SOL     OW17779   5.465   5.556   3.575 -0.1322  0.2899  0.2638
 4502SOL    HW217780   5.555   5.576   3.551 -0.0715 -0.6385 -0.2911
 4502SOL    HW317781   5.472   5.484   3.637 -0.5367 -0.4721 -0.5597
 4502SOL    MW417782   5.478   5.549   3.580 -0.1776  0.0668  0.0819
 4503SOL     OW17783   5.707   4.183   5.797 -0.6563 -0.2597  0.0003
 4503SOL    HW217784   5.680   4.092   5.802 -1.0308 -0.0914  1.3362
 4503SOL    HW317785   5.784   4.190   5.853 -0.4299  0.1795 -0.3527
 4503SOL    MW417786   5.714   4.172   5.805 -0.6759 -0.1795  0.1300
 4504SOL     OW17787   4.658   4.329   4.905 -0.2725  0.2394 -0.4197
 4504SOL    HW217788   4.610   4.255   4.942  0.7091 -0.9646 -1.4414
 4504SOL    HW317789   4.593   4.399   4.899 -1.9846 -1.3337 -1.8311
 4504SOL    MW417790   4.643   4.328   4.909 -0.3688 -0.1270 -0.7407
 4505SOL     OW17791   5.343   3.882   2.066 -0.3916 -0.1533  0.2528
 4505SOL    HW217792   5.346   3.906   2.159 -0.8021  0.9932 -0.0127
 4505SOL    HW317793   5.316   3.962   2.021  0.3450 -0.5260 -0.9213
 4505SOL    MW417794   5.340   3.896   2.072 -0.3486 -0.0512  0.0629
 4506SOL     OW17795   1.363   1.059   4.711 -0.5894 -0.4758  0.3608
 4506SOL    HW217796   1.370   1.128   4.777 -2.8365  1.9056 -1.6818
 4506SOL    HW317797   1.438   1.072   4.653  0.5183 -1.5855  1.4885
 4506SOL    MW417798   1.374   1.069   4.712 -0.7397 -0.3080  0.2401
 4507SOL     OW17799   5.587   5.665   4.874  0.0962  0.1247 -0.4042
 4507SOL    HW217800   5.527   5.665   4.948 -3.9260 -0.4822 -3.3392
 4507SOL    HW317801   5.608   5.573   4.859 -0.2561  0.1108 -0.8330
 4507SOL    MW417802   5.582   5.653   4.882 -0.4810  0.0428 -0.8480
 4508SOL     OW17803   2.583   4.265   5.883  0.2786 -0.1883  0.8852
 4508SOL    HW217804   2.618   4.328   5.946 -1.0101 -0.4821  1.9576
 4508SOL    HW317805   2.559   4.189   5.937 -1.0169 -0.3919  0.0673
 4508SOL    MW417806   2.584   4.263   5.899 -0.0624 -0.2539  0.9187
 4509SOL     OW17807   3.972   4.510   1.009  0.0371 -0.4342 -0.0604
 4509SOL    HW217808   3.905   4.447   1.036  0.1574 -0.4037  0.3120
 4509SOL    HW317809   3.944   4.593   1.046 -0.2359 -0.2162 -0.7349
 4509SOL    MW417810   3.959   4.513   1.017  0.0169 -0.4014 -0.1003
 4510SOL     OW17811   5.381   3.506   3.182  0.4848  0.0059 -0.7905
 4510SOL    HW217812   5.290   3.530   3.161 -0.1609 -1.9046 -0.4151
 4510SOL    HW317813   5.431   3.536   3.106 -0.5695  0.5062 -1.3157
 4510SOL    MW417814   5.375   3.513   3.169  0.2605 -0.1802 -0.8103
 4511SOL     OW17815   1.281   2.946   4.582 -0.0308 -0.5800 -0.3271
 4511SOL    HW217816   1.240   3.021   4.539  0.3299  0.4303  1.0117
 4511SOL    HW317817   1.219   2.921   4.651  0.8894  0.0162  0.7520
 4511SOL    MW417818   1.267   2.952   4.586  0.1382 -0.3680 -0.0081
 4512SOL     OW17819   3.959   4.413   2.285  0.0798  0.0638  0.0771
 4512SOL    HW217820   3.920   4.381   2.204  1.2118  2.6576 -1.6378
 4512SOL    HW317821   4.047   4.376   2.285  0.2101  0.3706 -0.0895
 4512SOL    MW417822   3.965   4.404   2.274  0.2464  0.4465 -0.1711
 4513SOL     OW17823   3.308   6.399   6.187  0.2574 -0.1548 -0.3412
 4513SOL    HW217824   3.303   6.395   6.283 -1.2914  1.6407 -0.3120
 4513SOL    HW317825   3.373   6.467   6.170 -0.3188  0.3433 -0.5534
 4513SOL    MW417826   3.316   6.407   6.198 -0.0230  0.1478 -0.3653
 4514SOL     OW17827   3.445   4.184   5.206  0.4128  0.0782  0.3291
 4514SOL    HW217828   3.491   4.260   5.239  0.6131 -0.0036  0.2399
 4514SOL    HW317829   3.395   4.151   5.281 -0.5884  0.9665  0.0797
 4514SOL    MW417830   3.444   4.189   5.220  0.3071  0.1846  0.2844
 4515SOL     OW17831   5.976   4.317   1.650  0.5133  1.2714 -0.4792
 4515SOL    HW217832   6.000   4.240   1.599  1.0872  2.1625 -1.6001
 4515SOL    HW317833   5.891   4.344   1.614  0.6524  1.5708 -0.5888
 4515SOL    MW417834   5.968   4.310   1.638  0.6074  1.4285 -0.6415
 4516SOL     OW17835   2.237   1.058   5.495 -0.4303 -0.4145 -0.2929
 4516SOL    HW217836   2.229   1.127   5.560 -0.7518  0.0941 -0.8610
 4516SOL    HW317837   2.149   1.047   5.460 -0.2231 -0.5425 -0.7855
 4516SOL    MW417838   2.225   1.066   5.499 -0.4453 -0.3643 -0.4328
 4517SOL     OW17839   6.198   2.281   4.875  0.1687 -0.6618 -0.3613
 4517SOL    HW217840   6.169   2.320   4.793 -1.6633 -0.0584  0.5062
 4517SOL    HW317841   6.275   2.332   4.900 -1.5594  1.8512  0.2157
 4517SOL    MW417842   6.204   2.293   4.868 -0.3010 -0.2506 -0.1707
 4518SOL     OW17843   4.950   4.006   2.198  0.1375  0.0156 -0.0717
 4518SOL    HW217844   4.932   4.070   2.130  0.1344  0.5203  0.3911
 4518SOL    HW317845   4.901   4.038   2.274  0.0659 -0.5851  0.1416
 4518SOL    MW417846   4.941   4.018   2.199  0.1277  0.0029  0.0175
 4519SOL     OW17847   0.466   4.872   1.377  0.4907  0.3061  0.1199
 4519SOL    HW217848   0.479   4.902   1.467  0.3232  0.5327  0.0713
 4519SOL    HW317849   0.412   4.941   1.337  1.2668  0.6328 -0.3939
 4519SOL    MW417850   0.461   4.885   1.383  0.5710  0.3791  0.0457
 4520SOL     OW17851   6.305   5.063   4.635  0.1814  0.6789  0.5581
 4520SOL    HW217852   6.265   4.984   4.598  0.1944  0.5201  0.8772
 4520SOL    HW317853   6.273   5.135   4.580  0.6274  0.3889 -0.0910
 4520SOL    MW417854   6.296   5.062   4.623  0.2419  0.6197  0.5146
 4521SOL     OW17855   5.015   2.432   2.279 -0.3552 -0.1333  0.5333
 4521SOL    HW217856   5.005   2.369   2.208  0.7527  0.0481  0.1935
 4521SOL    HW317857   5.098   2.408   2.321  1.1251  2.1984 -0.7944
 4521SOL    MW417858   5.025   2.421   2.275 -0.0138  0.1983  0.3133
 4522SOL     OW17859   2.355   4.313   1.084  0.2862 -0.0292 -0.0386
 4522SOL    HW217860   2.377   4.297   0.992  0.4313 -0.3151  0.0434
 4522SOL    HW317861   2.424   4.372   1.115 -0.4584  1.0820 -0.4420
 4522SOL    MW417862   2.367   4.318   1.076  0.2071  0.0797 -0.0810
 4523SOL     OW17863   3.678   2.866   4.180  0.1613  0.2434 -0.1489
 4523SOL    HW217864   3.597   2.885   4.227 -0.5242  1.0554 -1.5904
 4523SOL    HW317865   3.663   2.899   4.091  1.8056 -0.2485 -0.6526
 4523SOL    MW417866   3.666   2.873   4.174  0.2878  0.2856 -0.4055
 4524SOL     OW17867   0.736   1.480   6.391  0.4925 -0.0309  0.2316
 4524SOL    HW217868   0.760   1.402   6.340 -0.5900 -0.5361  0.4660
 4524SOL    HW317869   0.815   1.504   6.438  1.2512 -0.1157 -0.9708
 4524SOL    MW417870   0.749   1.473   6.390  0.4498 -0.1088  0.1038
 4525SOL     OW17871   2.662   3.122   6.111  0.4088  0.2697 -0.5128
 4525SOL    HW217872   2.689   3.035   6.081  0.4421 -0.2338  0.9171
 4525SOL    HW317873   2.742   3.175   6.104  1.1282 -0.5283  1.1522
 4525SOL    MW417874   2.676   3.117   6.106  0.5081  0.0980 -0.1045
 4526SOL     OW17875   3.746   0.035   3.567  0.3248 -0.4220  0.1767
 4526SOL    HW217876   3.765   0.128   3.556  0.2823 -0.5615 -1.2128
 4526SOL    HW317877   3.830  -0.003   3.592  0.6378 -0.2014 -0.5179
 4526SOL    MW417878   3.759   0.042   3.569  0.3605 -0.4113 -0.0983
 4527SOL     OW17879   5.272   4.821   0.535 -0.0969  1.3694  0.3489
 4527SOL    HW217880   5.264   4.897   0.478  1.2001  0.2387 -1.4647
 4527SOL    HW317881   5.267   4.746   0.475  4.8029  0.1199  1.0041
 4527SOL    MW417882   5.271   4.821   0.519  0.7207  1.0554  0.1960
 4528SOL     OW17883   0.792   3.797   4.473  0.2522 -0.7278  0.2383
 4528SOL    HW217884   0.789   3.715   4.423  0.7140 -0.2519 -0.5890
 4528SOL    HW317885   0.834   3.860   4.414  2.5086 -0.5952  1.8400
 4528SOL    MW417886   0.797   3.794   4.458  0.6108 -0.6475  0.3405
 4529SOL     OW17887   2.011   4.827   4.924  0.2307 -0.1253  0.1123
 4529SOL    HW217888   2.092   4.823   4.976  1.1949 -1.9315 -1.3979
 4529SOL    HW317889   2.040   4.846   4.835 -0.9178 -1.3163 -0.5584
 4529SOL    MW417890   2.026   4.829   4.919  0.2064 -0.5208 -0.1754
 4530SOL     OW17891   1.694   4.459   0.541 -0.3998  0.1164  0.0811
 4530SOL    HW217892   1.749   4.381   0.529 -0.9571 -0.2310 -0.2481
 4530SOL    HW317893   1.681   4.493   0.453 -0.0146  0.6870  0.2411
 4530SOL    MW417894   1.699   4.453   0.528 -0.4225  0.1458  0.0588
 4531SOL     OW17895   1.317   0.833   4.910  0.3716  0.0811 -0.0115
 4531SOL    HW217896   1.376   0.867   4.842  0.9286 -0.2333  0.3123
 4531SOL    HW317897   1.232   0.829   4.867  0.5467  0.6850 -0.4419
 4531SOL    MW417898   1.314   0.837   4.895  0.4682  0.1193 -0.0256
 4532SOL     OW17899   5.764   1.785   0.646  0.0052  0.1959 -0.1746
 4532SOL    HW217900   5.785   1.873   0.616 -1.8652  0.6367 -0.3130
 4532SOL    HW317901   5.768   1.790   0.741 -0.5961  0.5766 -0.1662
 4532SOL    MW417902   5.768   1.797   0.655 -0.3209  0.3042 -0.1918
 4533SOL     OW17903   0.158   3.089   5.128 -0.1810  0.1076 -0.4369
 4533SOL    HW217904   0.167   3.179   5.097  2.3534 -0.4109 -1.5470
 4533SOL    HW317905   0.068   3.083   5.161 -0.7778  2.7023 -1.3420
 4533SOL    MW417906   0.147   3.100   5.128  0.0747  0.3815 -0.7028
 4534SOL     OW17907   0.420   4.818   6.188  0.0285 -0.3808  0.4136
 4534SOL    HW217908   0.393   4.842   6.099  1.4576 -0.3064 -0.0271
 4534SOL    HW317909   0.380   4.885   6.244  1.1123  1.0420 -0.4442
 4534SOL    MW417910   0.411   4.830   6.184  0.3600 -0.1833  0.2423
 4535SOL     OW17911   5.374   0.756   2.108  0.3682 -0.0352 -0.0306
 4535SOL    HW217912   5.330   0.838   2.085  0.7723  0.3690  0.5959
 4535SOL    HW317913   5.467   0.775   2.097  0.6611  0.4338  2.5318
 4535SOL    MW417914   5.380   0.769   2.103  0.4602  0.0800  0.3902
 4536SOL     OW17915   5.415   5.897   6.234  0.1443  0.3974  0.2488
 4536SOL    HW217916   5.508   5.882   6.251  0.0546 -0.1056  0.3324
 4536SOL    HW317917   5.413   5.960   6.163  0.5512  0.4111  0.2465
 4536SOL    MW417918   5.427   5.903   6.227  0.1862  0.3328  0.2595
 4537SOL     OW17919   4.099   5.249   1.998 -0.1764  0.5186  0.2334
 4537SOL    HW217920   4.010   5.272   1.972 -0.2591  0.0910  0.1244
 4537SOL    HW317921   4.112   5.293   2.082 -0.4241  0.7397  0.1550
 4537SOL    MW417922   4.089   5.258   2.006 -0.2200  0.4914  0.2087
 4538SOL     OW17923   0.843   2.275   0.876  0.6353 -0.8335  0.4766
 4538SOL    HW217924   0.852   2.181   0.895 -0.4039 -0.5425  2.6666
 4538SOL    HW317925   0.924   2.314   0.910  1.0067 -0.8814 -0.3137
 4538SOL    MW417926   0.855   2.268   0.883  0.5472 -0.8015  0.6613
 4539SOL     OW17927   4.672   4.316   2.333  0.1239  0.1899  0.5146
 4539SOL    HW217928   4.712   4.384   2.280 -0.9098  1.2066  0.9879
 4539SOL    HW317929   4.638   4.362   2.410 -3.5891 -0.1916 -0.6795
 4539SOL    MW417930   4.673   4.331   2.337 -0.5024  0.2737  0.4195
 4540SOL     OW17931   1.493   4.194   1.340  0.3681 -0.3734 -0.2371
 4540SOL    HW217932   1.478   4.190   1.245  2.0823  1.1968 -0.6328
 4540SOL    HW317933   1.582   4.162   1.352 -0.1925 -1.5729  1.0156
 4540SOL    MW417934   1.503   4.189   1.329  0.5203 -0.3245 -0.1240
 4541SOL     OW17935   0.493   6.054   3.854  0.0471 -0.7542 -0.1530
 4541SOL    HW217936   0.403   6.035   3.882  0.2937 -2.4611 -0.4059
 4541SOL    HW317937   0.495   6.028   3.762  0.7870 -0.7136 -0.1520
 4541SOL    MW417938   0.481   6.048   3.846  0.1773 -0.9741 -0.1863
 4542SOL     OW17939   6.087   3.262   3.777  0.2966 -0.0839  0.2299
 4542SOL    HW217940   6.016   3.233   3.721  1.6158 -0.3207 -1.4157
 4542SOL    HW317941   6.157   3.287   3.716  1.4730  0.5250  1.7555
 4542SOL    MW417942   6.087   3.261   3.761  0.6258 -0.0348  0.2141
 4543SOL     OW17943   5.439   4.276   5.387 -0.3889 -0.0815 -0.0263
 4543SOL    HW217944   5.515   4.219   5.398  0.2795  0.4190 -1.7846
 4543SOL    HW317945   5.392   4.239   5.312 -0.0804  1.4677 -1.0275
 4543SOL    MW417946   5.443   4.264   5.379 -0.2600  0.1889 -0.3904
 4544SOL     OW17947   6.347   5.838   3.410 -0.5084  0.5204 -0.7448
 4544SOL    HW217948   6.299   5.919   3.424 -1.3639  0.0539 -0.9027
 4544SOL    HW317949   6.280   5.770   3.413  0.4071 -0.3540  0.9796
 4544SOL    MW417950   6.332   5.840   3.412 -0.5005  0.3435 -0.5381
 4545SOL     OW17951   3.664   2.433   6.160 -0.2626 -0.0392  0.4036
 4545SOL    HW217952   3.728   2.394   6.099  1.2580 -0.0472  1.9142
 4545SOL    HW317953   3.716   2.452   6.238 -2.1449  0.0152  1.6779
 4545SOL    MW417954   3.680   2.430   6.162 -0.3103 -0.0331  0.7710
 4546SOL     OW17955   0.661   3.564   1.049 -0.1351 -0.7974  0.2047
 4546SOL    HW217956   0.588   3.504   1.041 -2.0169  1.3927 -0.1980
 4546SOL    HW317957   0.698   3.569   0.961 -1.6810  0.5534 -0.4308
 4546SOL    MW417958   0.656   3.557   1.036 -0.5873 -0.3303  0.0678
 4547SOL     OW17959   2.376   4.637   5.962  0.3503  0.3840  0.0470
 4547SOL    HW217960   2.390   4.679   5.877 -0.2305  2.2005  0.7989
 4547SOL    HW317961   2.298   4.582   5.948  2.2063 -2.0739 -1.4596
 4547SOL    MW417962   2.367   4.635   5.949  0.5185  0.2994 -0.0526
 4548SOL     OW17963   0.210   0.478   3.953  0.3540  0.3176  0.0200
 4548SOL    HW217964   0.175   0.389   3.955  0.5906  0.2285  0.2049
 4548SOL    HW317965   0.139   0.530   3.915 -0.6788  0.4617  2.0438
 4548SOL    MW417966   0.196   0.473   3.948  0.2489  0.3248  0.3114
 4549SOL     OW17967   3.337   1.790   2.317  0.5070 -0.0951  0.8021
 4549SOL    HW217968   3.340   1.696   2.295  0.3188 -0.1625  1.0642
 4549SOL    HW317969   3.255   1.800   2.365  0.5779  0.1870  0.8607
 4549SOL    MW417970   3.326   1.779   2.320  0.4915 -0.0668  0.8444
 4550SOL     OW17971   5.895  -0.000   4.857 -0.2431  0.0956  0.6690
 4550SOL    HW217972   5.832   0.005   4.929  1.2166 -0.1358  2.0031
 4550SOL    HW317973   5.892  -0.092   4.830 -1.4995  0.3749 -0.2786
 4550SOL    MW417974   5.886  -0.011   4.863 -0.2163  0.1019  0.7200
 4551SOL     OW17975   5.050   0.685   1.547  0.1870  0.5076 -0.0302
 4551SOL    HW217976   5.071   0.591   1.548 -0.1548  0.4330  0.4692
 4551SOL    HW317977   5.129   0.726   1.511  0.3192  0.0226 -0.3053
 4551SOL    MW417978   5.063   0.678   1.542  0.1594  0.4338 -0.0006
 4552SOL     OW17979   2.548   5.951   4.735 -0.4977  0.6683 -0.0164
 4552SOL    HW217980   2.506   5.868   4.714 -1.8068  1.7178 -1.8560
 4552SOL    HW317981   2.636   5.944   4.698 -0.8278  0.3388 -0.7478
 4552SOL    MW417982   2.554   5.939   4.727 -0.7140  0.7633 -0.3556
 4553SOL     OW17983   0.978   2.572   2.151 -0.0162  0.5647  0.3550
 4553SOL    HW217984   0.972   2.484   2.187  1.9994  0.7834  1.3863
 4553SOL    HW317985   0.893   2.612   2.168 -0.7446 -0.9682  0.4196
 4553SOL    MW417986   0.966   2.566   2.158  0.1536  0.3913  0.4996
 4554SOL     OW17987   2.327   0.889   6.356  0.2079 -0.0027  0.3128
 4554SOL    HW217988   2.283   0.911   6.274 -0.6958  2.0386  1.2914
 4554SOL    HW317989   2.408   0.846   6.328  0.3184  1.3345 -1.6839
 4554SOL    MW417990   2.332   0.886   6.341  0.1033  0.4431  0.1785
 4555SOL     OW17991   2.365   4.891   4.134 -0.1365 -0.5488 -0.5493
 4555SOL    HW217992   2.427   4.898   4.207  0.6716  0.6110 -1.3136
 4555SOL    HW317993   2.280   4.882   4.176  0.1723  1.2758  0.5769
 4555SOL    MW417994   2.362   4.891   4.150  0.0109 -0.1550 -0.5016
 4556SOL     OW17995   0.978   1.223   4.375 -0.9811 -0.0586 -0.3467
 4556SOL    HW217996   1.019   1.178   4.449 -1.2818 -0.4075 -0.3873
 4556SOL    HW317997   1.048   1.275   4.336 -0.8340  0.1580  0.2097
 4556SOL    MW417998   0.993   1.224   4.379 -1.0014 -0.0760 -0.2787
 4557SOL     OW17999   2.010   2.829   1.999 -0.2666 -0.0130  0.2380
 4557SOL    HW218000   2.083   2.891   2.003  0.5873 -1.0308  0.7937
 4557SOL    HW318001   1.955   2.861   1.927  0.7955  0.6892 -0.2759
 4557SOL    MW418002   2.012   2.841   1.990 -0.0138 -0.0547  0.2436
 4558SOL     OW18003   5.739   0.839   6.062 -0.5229  0.2025  0.3072
 4558SOL    HW218004   5.680   0.825   6.136  0.1120  0.7115  0.9323
 4558SOL    HW318005   5.685   0.883   5.996 -0.4945  2.1735  1.4880
 4558SOL    MW418006   5.724   0.843   6.063 -0.4354  0.5297  0.5455
 4559SOL     OW18007   4.614   4.761   3.979 -0.0241 -0.1422 -0.7688
 4559SOL    HW218008   4.680   4.726   3.919  1.7997 -2.1867  2.1591
 4559SOL    HW318009   4.643   4.850   3.998  0.8983 -0.4047 -0.9028
 4559SOL    MW418010   4.627   4.768   3.973  0.3382 -0.4465 -0.4001
 4560SOL     OW18011   4.891   4.536   1.874  0.4923 -0.2861 -0.4437
 4560SOL    HW218012   4.944   4.538   1.795 -0.7852 -2.7269 -1.4657
 4560SOL    HW318013   4.815   4.590   1.854  1.5578  1.5966  0.3102
 4560SOL    MW418014   4.888   4.544   1.861  0.4643 -0.3598 -0.4791
 4561SOL     OW18015   1.804   1.547   3.982 -0.6066 -0.3948  0.1206
 4561SOL    HW218016   1.741   1.524   4.050 -1.5846  0.9128 -0.2978
 4561SOL    HW318017   1.772   1.630   3.947  0.1584 -0.7749 -1.5772
 4561SOL    MW418018   1.792   1.555   3.986 -0.6347 -0.2724 -0.1586
 4562SOL     OW18019   5.378   5.749   3.752  0.6322  0.3748  0.0973
 4562SOL    HW218020   5.373   5.834   3.707 -0.6543  1.2756  1.8351
 4562SOL    HW318021   5.415   5.690   3.686  1.2844  2.1963 -1.2697
 4562SOL    MW418022   5.382   5.753   3.737  0.5485  0.7339  0.1462
 4563SOL     OW18023   0.942   5.913   3.506  0.2493  0.5534  0.3060
 4563SOL    HW218024   0.986   5.854   3.444  0.2402  1.8726 -1.0215
 4563SOL    HW318025   0.863   5.865   3.533  1.2248 -0.8314  0.8247
 4563SOL    MW418026   0.937   5.899   3.501  0.3768  0.5447  0.1993
 4564SOL     OW18027   4.812   1.500   4.942 -0.1343  0.2316 -0.4256
 4564SOL    HW218028   4.845   1.437   4.878  0.1291  0.3530 -0.4123
 4564SOL    HW318029   4.810   1.583   4.895  0.5298  0.4180 -0.1395
 4564SOL    MW418030   4.816   1.503   4.927 -0.0119  0.2722 -0.3861
 4565SOL     OW18031   1.199   1.299   3.421 -0.0852  0.6278  0.4666
 4565SOL    HW218032   1.216   1.305   3.327  0.2908 -0.2504  0.4704
 4565SOL    HW318033   1.103   1.294   3.428 -0.1866  1.9291  0.2168
 4565SOL    MW418034   1.188   1.299   3.410 -0.0490  0.6836  0.4341
 4566SOL     OW18035   1.136   2.232   3.098  0.6717 -0.2967 -0.5839
 4566SOL    HW218036   1.163   2.147   3.063  2.0360 -0.3651  0.5127
 4566SOL    HW318037   1.057   2.213   3.149 -0.2732 -0.5010 -2.0787
 4566SOL    MW418038   1.129   2.218   3.100  0.7271 -0.3327 -0.6365
 4567SOL     OW18039   1.988   0.050   1.681 -0.1266 -0.6939 -0.0769
 4567SOL    HW218040   2.044  -0.023   1.653  1.8695  0.7159  0.0372
 4567SOL    HW318041   1.945   0.079   1.600 -0.0337 -1.2607 -0.3339
 4567SOL    MW418042   1.989   0.044   1.667  0.1490 -0.5826 -0.0958
 4568SOL     OW18043   4.275   4.612   3.405  0.3531  0.3388 -0.0775
 4568SOL    HW218044   4.365   4.626   3.433  0.6006 -1.5914  0.2392
 4568SOL    HW318045   4.222   4.636   3.481  0.8354 -1.6433  0.9621
 4568SOL    MW418046   4.280   4.617   3.418  0.4494 -0.1774  0.1014
 4569SOL     OW18047   1.999   4.331   6.241 -0.2325  0.1831  0.3792
 4569SOL    HW218048   2.020   4.312   6.333 -1.3766 -1.4549  0.3439
 4569SOL    HW318049   2.082   4.320   6.195 -0.1067 -1.2975  0.9088
 4569SOL    MW418050   2.013   4.327   6.247 -0.3668 -0.2284  0.4444
 4570SOL     OW18051   3.653   4.154   2.636 -0.1733 -0.0652  0.4464
 4570SOL    HW218052   3.703   4.072   2.639  0.8548  0.5596  3.0739
 4570SOL    HW318053   3.691   4.202   2.562  0.5915 -1.1417  0.1186
 4570SOL    MW418054   3.665   4.150   2.627  0.0632 -0.1248  0.7498
 4571SOL     OW18055   0.692   0.678   0.933  0.2837 -0.0845 -0.0004
 4571SOL    HW218056   0.773   0.634   0.957  0.2812  1.3060  3.1344
 4571SOL    HW318057   0.716   0.771   0.928 -0.9375  0.2627  0.2257
 4571SOL    MW418058   0.706   0.685   0.936  0.1222  0.1448  0.4430
 4572SOL     OW18059   5.170   6.294   2.839  0.0586  0.6433  0.6531
 4572SOL    HW218060   5.083   6.332   2.853  0.3511  0.8965  1.8767
 4572SOL    HW318061   5.156   6.200   2.839 -0.6307  0.6541 -2.0915
 4572SOL    MW418062   5.156   6.287   2.841  0.0062  0.6781  0.4524
 4573SOL     OW18063   5.999   1.076   1.310  0.1346  0.2132  0.1384
 4573SOL    HW218064   5.960   1.163   1.317  1.2013  0.8851 -1.5289
 4573SOL    HW318065   6.072   1.088   1.249  0.3016 -1.8588 -0.1308
 4573SOL    MW418066   6.003   1.089   1.303  0.2973  0.0285 -0.1171
 4574SOL     OW18067   6.146   1.276   4.362 -0.4919 -0.1512  0.0216
 4574SOL    HW218068   6.209   1.244   4.426 -0.3934  1.7226  0.9383
 4574SOL    HW318069   6.061   1.265   4.405 -0.6491 -0.9542 -0.4649
 4574SOL    MW418070   6.143   1.270   4.376 -0.4996 -0.0099  0.0783
 4575SOL     OW18071   0.864   4.583   1.414  0.2226 -0.2794  0.2633
 4575SOL    HW218072   0.807   4.550   1.483  1.5398  1.6909  2.4417
 4575SOL    HW318073   0.811   4.646   1.366  0.5528  1.8822  2.5549
 4575SOL    MW418074   0.850   4.587   1.416  0.4400  0.2657  0.8531
 4576SOL     OW18075   4.598   2.007   0.777  0.4619 -0.5442  0.3727
 4576SOL    HW218076   4.540   1.938   0.747  0.3651 -1.0892  1.7671
 4576SOL    HW318077   4.605   1.995   0.872 -0.7290  2.2388  0.9372
 4576SOL    MW418078   4.592   1.997   0.786  0.2920 -0.2489  0.6312
 4577SOL     OW18079   4.048   5.253   4.066  0.4683 -0.4005 -0.2865
 4577SOL    HW218080   4.141   5.268   4.081  0.5024  0.5651 -1.3091
 4577SOL    HW318081   4.040   5.244   3.971 -0.0413 -3.9549 -0.0426
 4577SOL    MW418082   4.059   5.254   4.055  0.4056 -0.7420 -0.3892
 4578SOL     OW18083   0.598   4.347   5.209  0.0438  0.2423 -0.8062
 4578SOL    HW218084   0.546   4.346   5.290  0.6373  0.8724 -0.3984
 4578SOL    HW318085   0.537   4.322   5.140 -0.6414  0.3539 -0.2492
 4578SOL    MW418086   0.583   4.344   5.211  0.0317  0.3401 -0.6789
 4579SOL     OW18087   0.182   5.885   1.893  0.1610  0.3726  0.1863
 4579SOL    HW218088   0.255   5.870   1.833 -1.1498  1.4499 -1.7828
 4579SOL    HW318089   0.134   5.958   1.854 -2.9043 -1.3420  0.4898
 4579SOL    MW418090   0.186   5.892   1.880 -0.4164  0.2885 -0.0334
 4580SOL     OW18091   1.765   1.323   4.281  0.0310  0.0479 -0.1970
 4580SOL    HW218092   1.728   1.412   4.280 -0.3636 -0.0744  1.4431
 4580SOL    HW318093   1.838   1.327   4.342  0.8691 -0.4654 -1.1202
 4580SOL    MW418094   1.770   1.335   4.289  0.0895 -0.0360 -0.1024
 4581SOL     OW18095   2.709   5.416   3.260 -0.2006 -0.3228  0.1186
 4581SOL    HW218096   2.619   5.438   3.235  0.3230  0.4912 -1.1669
 4581SOL    HW318097   2.751   5.388   3.178  0.6132 -1.1158  0.7730
 4581SOL    MW418098   2.703   5.415   3.246 -0.0241 -0.3200  0.0353
 4582SOL     OW18099   4.367   2.289   5.225 -1.0223 -0.0979  0.1715
 4582SOL    HW218100   4.451   2.245   5.242 -1.8593 -1.4651  0.9282
 4582SOL    HW318101   4.358   2.350   5.299 -0.7601 -0.0566  0.1709
 4582SOL    MW418102   4.377   2.291   5.237 -1.0981 -0.2729  0.2713
 4583SOL     OW18103   2.770   1.033   4.250 -0.3490  0.0637  0.3165
 4583SOL    HW218104   2.694   1.061   4.302 -1.9464 -1.6688 -0.9329
 4583SOL    HW318105   2.780   0.940   4.271  1.7824  0.3514  0.7970
 4583SOL    MW418106   2.761   1.024   4.260 -0.2785 -0.1270  0.2151
 4584SOL     OW18107   5.127   4.219   0.323 -0.0214 -0.0984 -0.1973
 4584SOL    HW218108   5.065   4.271   0.273 -0.1567 -1.0616 -1.0748
 4584SOL    HW318109   5.130   4.135   0.277  0.9577 -0.5103  0.5802
 4584SOL    MW418110   5.119   4.215   0.310  0.0899 -0.2798 -0.2105
 4585SOL     OW18111   0.288   0.440   0.284  0.3483  0.4283  0.7184
 4585SOL    HW218112   0.366   0.445   0.228  0.0732  0.2716  0.3197
 4585SOL    HW318113   0.284   0.525   0.327  1.2436  0.1364  1.4224
 4585SOL    MW418114   0.298   0.452   0.283  0.4301  0.3691  0.7587
 4586SOL     OW18115   6.183   4.334   2.657 -0.4237 -0.4123  0.2002
 4586SOL    HW218116   6.181   4.244   2.689  0.6210  0.3553  2.7028
 4586SOL    HW318117   6.228   4.382   2.726 -2.2076  2.3073 -0.3995
 4586SOL    MW418118   6.189   4.328   2.670 -0.5212  0.0478  0.4512
 4587SOL     OW18119   4.707   0.589   4.617 -0.1688 -0.1861  0.0668
 4587SOL    HW218120   4.702   0.613   4.709 -1.6262 -2.9327  0.8065
 4587SOL    HW318121   4.658   0.657   4.571 -2.6038 -0.6546  1.7858
 4587SOL    MW418122   4.700   0.601   4.623 -0.6823 -0.6103  0.3912
 4588SOL     OW18123   1.917   0.353   1.177  0.2593 -0.3302  0.0143
 4588SOL    HW218124   1.972   0.417   1.132  0.7765 -1.5211 -1.1080
 4588SOL    HW318125   1.876   0.402   1.247  0.8637  1.1663 -0.6371
 4588SOL    MW418126   1.919   0.368   1.180  0.4073 -0.2899 -0.2197
 4589SOL     OW18127   3.654   1.457   1.890  0.0238  0.3708  0.1021
 4589SOL    HW218128   3.592   1.446   1.818 -0.3326 -1.8477  0.6789
 4589SOL    HW318129   3.600   1.478   1.966  0.0476 -0.6341  0.4075
 4589SOL    MW418130   3.639   1.458   1.891 -0.0200 -0.0545  0.2185
 4590SOL     OW18131   0.565   1.808   5.408  0.0683  0.2623  0.0873
 4590SOL    HW218132   0.610   1.890   5.388 -0.1066  0.0116 -1.4852
 4590SOL    HW318133   0.473   1.832   5.419 -0.1028  0.2112 -1.0839
 4590SOL    MW418134   0.559   1.822   5.407  0.0227  0.2225 -0.2747
 4591SOL     OW18135   3.217   6.395   4.055  0.1594  0.4870 -0.8486
 4591SOL    HW218136   3.138   6.447   4.071  0.1651 -0.0071  0.9626
 4591SOL    HW318137   3.185   6.313   4.018  0.0270  1.0737 -2.1166
 4591SOL    MW418138   3.203   6.391   4.052  0.1427  0.4992 -0.7769
 4592SOL     OW18139   0.186   1.948   0.758 -0.0483  0.1487  0.0869
 4592SOL    HW218140   0.196   1.921   0.850 -0.0094  0.2777  0.1208
 4592SOL    HW318141   0.259   2.009   0.744 -2.0962  3.0140  1.0269
 4592SOL    MW418142   0.197   1.952   0.769 -0.3134  0.5437  0.2154
 4593SOL     OW18143   1.811   0.679   2.085 -0.1288  0.3866 -0.1703
 4593SOL    HW218144   1.860   0.719   2.013 -1.4154 -1.5376 -2.2493
 4593SOL    HW318145   1.720   0.704   2.068 -0.1959  2.7495  2.8368
 4593SOL    MW418146   1.805   0.687   2.073 -0.3074  0.4445 -0.0478
 4594SOL     OW18147   3.090   1.053   5.736 -0.5177  0.0079  0.4626
 4594SOL    HW218148   3.061   1.128   5.685  0.9761  2.6965  3.2250
 4594SOL    HW318149   3.028   1.049   5.810  2.1790  1.9489  3.0817
 4594SOL    MW418150   3.078   1.063   5.739  0.0352  0.6187  1.1726
 4595SOL     OW18151   2.227   4.395   4.284 -0.7544  0.5189  0.5407
 4595SOL    HW218152   2.246   4.413   4.192 -0.0278  0.3427  0.6509
 4595SOL    HW318153   2.238   4.300   4.293 -1.9829  0.3700  0.5502
 4595SOL    MW418154   2.231   4.385   4.273 -0.8206  0.4760  0.5565
 4596SOL     OW18155   1.580   2.497   3.123  0.2538  0.5447 -0.1516
 4596SOL    HW218156   1.498   2.488   3.075 -0.5811  1.1577  1.1142
 4596SOL    HW318157   1.587   2.591   3.141  0.1257  0.2463  1.5995
 4596SOL    MW418158   1.570   2.508   3.119  0.1267  0.5862  0.2464
 4597SOL     OW18159   1.386   3.867   5.703 -0.2452 -0.0719 -0.2264
 4597SOL    HW218160   1.302   3.867   5.748  0.2240 -1.6622  0.7311
 4597SOL    HW318161   1.411   3.775   5.701  2.0237  0.4798  0.5511
 4597SOL    MW418162   1.378   3.855   5.708  0.1161 -0.2089  0.0025
 4598SOL     OW18163   5.983   6.282   3.582 -0.2262 -0.5875  0.4827
 4598SOL    HW218164   5.892   6.266   3.558 -0.0552  0.1506 -0.7680
 4598SOL    HW318165   6.003   6.216   3.648 -1.9287 -0.1944  1.4442
 4598SOL    MW418166   5.974   6.271   3.588 -0.4283 -0.4382  0.4446
 4599SOL     OW18167   4.086   0.012   5.099  0.0272  0.0848  0.3798
 4599SOL    HW218168   4.078  -0.069   5.149 -0.3709 -0.3430 -0.3439
 4599SOL    HW318169   4.004   0.058   5.116  0.2539  0.3389  0.7914
 4599SOL    MW418170   4.074   0.007   5.107  0.0046  0.0619  0.3386
 4600SOL     OW18171   5.533   0.420   1.821  0.0743  0.2684 -0.1197
 4600SOL    HW218172   5.494   0.437   1.908  2.0302 -1.3296  1.1559
 4600SOL    HW318173   5.627   0.433   1.834  0.4474 -0.4048 -1.9127
 4600SOL    MW418174   5.540   0.424   1.834  0.3816 -0.0313 -0.1880
 4601SOL     OW18175   2.418   3.912   2.222  0.5274 -0.6244 -0.0591
 4601SOL    HW218176   2.438   3.968   2.147  1.9686  3.9170  3.2818
 4601SOL    HW318177   2.492   3.852   2.228  0.0700 -1.5555 -2.4524
 4601SOL    MW418178   2.430   3.912   2.213  0.6572 -0.1480  0.0660
 4602SOL     OW18179   2.966   4.185   1.202 -0.7031  0.4457  0.3615
 4602SOL    HW218180   3.040   4.245   1.190 -0.3549  0.3880  1.9715
 4602SOL    HW318181   2.912   4.227   1.269 -0.7382 -0.7735  1.1210
 4602SOL    MW418182   2.969   4.198   1.209 -0.6618  0.2772  0.6741
 4603SOL     OW18183   4.805   4.530   3.346 -0.0818 -0.6149 -0.3259
 4603SOL    HW218184   4.868   4.494   3.285  0.6789  0.6156 -0.2982
 4603SOL    HW318185   4.720   4.512   3.306  0.1687 -3.2095  0.1302
 4603SOL    MW418186   4.802   4.523   3.333  0.0516 -0.7949 -0.2621
 4604SOL     OW18187   1.050   4.842   3.660  0.6240 -0.4263  0.1621
 4604SOL    HW218188   1.024   4.804   3.576  3.5824  0.5863 -1.3491
 4604SOL    HW318189   1.077   4.931   3.639 -0.4738  0.5886  2.6089
 4604SOL    MW418190   1.050   4.849   3.646  0.8695 -0.1588  0.2855
 4605SOL     OW18191   6.018   2.787   0.694  0.1696 -0.7971  0.0690
 4605SOL    HW218192   5.975   2.859   0.741  1.3352  0.7315 -1.1226
 4605SOL    HW318193   6.111   2.797   0.715  0.1838 -3.4387  1.7821
 4605SOL    MW418194   6.024   2.798   0.703  0.3252 -0.9440  0.1378
 4606SOL     OW18195   5.448   2.220   3.940 -0.3571 -0.4735 -0.2677
 4606SOL    HW218196   5.396   2.175   3.873  0.1338 -0.1599 -0.8627
 4606SOL    HW318197   5.405   2.305   3.949 -1.0531 -0.8890  0.5833
 4606SOL    MW418198   5.435   2.225   3.932 -0.3842 -0.4869 -0.2339
 4607SOL     OW18199   1.261   3.873   2.599 -0.0248  0.3196 -0.2050
 4607SOL    HW218200   1.266   3.898   2.691 -2.0967  0.3235 -0.0474
 4607SOL    HW318201   1.259   3.777   2.601 -0.0315  0.3189 -0.2481
 4607SOL    MW418202   1.262   3.864   2.612 -0.2990  0.3200 -0.1899
 4608SOL     OW18203   6.024   0.804   3.719  0.2926  0.2361  0.3273
 4608SOL    HW218204   6.025   0.864   3.793  1.5409  2.1993 -1.1567
 4608SOL    HW318205   5.986   0.855   3.647  0.0892 -1.2408 -0.6716
 4608SOL    MW418206   6.019   0.819   3.719  0.4305  0.3003 -0.0003
 4609SOL     OW18207   0.305   5.164   1.666 -0.1625 -0.3569 -0.2766
 4609SOL    HW218208   0.264   5.200   1.745 -0.4819  0.3347 -0.7450
 4609SOL    HW318209   0.331   5.241   1.616 -0.2227 -0.7921 -0.9828
 4609SOL    MW418210   0.303   5.179   1.670 -0.2126 -0.3231 -0.4315
 4610SOL     OW18211   0.974   6.274   6.368 -0.1865 -0.0721  0.1527
 4610SOL    HW218212   0.888   6.233   6.354 -1.0433  1.7969 -0.3733
 4610SOL    HW318213   0.954   6.360   6.404  1.5304  0.0805  0.8290
 4610SOL    MW418214   0.960   6.280   6.371 -0.0730  0.1946  0.1725
 4611SOL     OW18215   0.812   3.627   5.790  0.2723 -0.6065 -0.6292
 4611SOL    HW218216   0.762   3.546   5.780 -0.7489 -0.0176 -0.4852
 4611SOL    HW318217   0.901   3.599   5.811  0.0475 -1.6902 -1.0634
 4611SOL    MW418218   0.817   3.613   5.791  0.1079 -0.6718 -0.6675
 4612SOL     OW18219   3.040   0.713   3.074 -0.2859  0.2838 -0.3011
 4612SOL    HW218220   2.950   0.703   3.042 -0.5226 -2.1886  0.9166
 4612SOL    HW318221   3.089   0.645   3.028  0.0486 -1.1351  2.0245
 4612SOL    MW418222   3.035   0.703   3.063 -0.2730 -0.2296  0.1664
 4613SOL     OW18223   2.380   5.078   4.768 -0.6383 -0.7085 -0.3042
 4613SOL    HW218224   2.361   5.000   4.715 -1.1238 -1.3361  0.7455
 4613SOL    HW318225   2.359   5.051   4.857 -0.7607  0.6242  0.0886
 4613SOL    MW418226   2.375   5.064   4.773 -0.7185 -0.6155 -0.1139
 4614SOL     OW18227   3.451   0.841   0.063 -0.5946 -0.6698  0.0616
 4614SOL    HW218228   3.533   0.833   0.014 -0.7042 -1.8942  0.0536
 4614SOL    HW318229   3.454   0.770   0.127 -1.3733 -0.3409  0.4745
 4614SOL    MW418230   3.462   0.831   0.065 -0.7118 -0.7880  0.1150
 4615SOL     OW18231   1.891   4.829   0.890 -0.2722  0.6288  0.0461
 4615SOL    HW218232   1.899   4.903   0.830 -0.6632 -0.7211 -1.7448
 4615SOL    HW318233   1.832   4.861   0.959  0.1947  2.2202 -0.2493
 4615SOL    MW418234   1.884   4.843   0.891 -0.2622  0.6607 -0.2292
 4616SOL     OW18235   4.175   2.108   1.589  0.0790  0.0617  0.0822
 4616SOL    HW218236   4.190   2.137   1.499  0.8036  0.1355  0.2247
 4616SOL    HW318237   4.257   2.125   1.634  0.2090 -1.3245  0.4106
 4616SOL    MW418238   4.188   2.114   1.583  0.1917 -0.1114  0.1443
 4617SOL     OW18239   3.681   6.212   2.134  0.2661  0.3103 -0.0020
 4617SOL    HW218240   3.706   6.265   2.210 -0.9285  0.9836 -0.0595
 4617SOL    HW318241   3.590   6.187   2.151  0.6806 -1.4727 -0.1368
 4617SOL    MW418242   3.673   6.215   2.146  0.1632  0.1639 -0.0273
 4618SOL     OW18243   4.719   3.570   3.003 -0.4679  0.0643  0.0812
 4618SOL    HW218244   4.736   3.645   2.945 -1.6128  0.4885  0.2551
 4618SOL    HW318245   4.772   3.587   3.080  0.2305  0.0607 -0.3927
 4618SOL    MW418246   4.728   3.582   3.006 -0.5268  0.1198  0.0416
 4619SOL     OW18247   1.421   3.473   0.693  0.0052  0.3951  0.0873
 4619SOL    HW218248   1.470   3.423   0.627 -1.0466  0.3999 -0.7126
 4619SOL    HW318249   1.378   3.406   0.746  2.4156  0.2815  2.1085
 4619SOL    MW418250   1.422   3.458   0.691  0.1844  0.3808  0.2485
 4620SOL     OW18251   1.893   6.400   2.247  0.5940  0.4041 -0.2100
 4620SOL    HW218252   1.964   6.375   2.307  0.3178  0.8609  0.3046
 4620SOL    HW318253   1.927   6.477   2.201  1.5436 -0.9512 -1.9707
 4620SOL    MW418254   1.907   6.407   2.249  0.6829  0.2855 -0.3744
 4621SOL     OW18255   5.925   3.717   4.072 -0.2033 -0.2471  0.1702
 4621SOL    HW218256   5.873   3.711   3.992  0.6109 -0.4681 -0.3535
 4621SOL    HW318257   5.934   3.626   4.101 -0.4400 -0.1726  0.4816
 4621SOL    MW418258   5.919   3.704   4.065 -0.1271 -0.2664  0.1422
 4622SOL     OW18259   5.988   2.505   0.548 -0.2964 -0.2703  0.4017
 4622SOL    HW218260   5.917   2.568   0.537 -1.4638 -1.7530 -1.1455
 4622SOL    HW318261   6.052   2.529   0.480 -0.0738  0.0654  0.7238
 4622SOL    MW418262   5.987   2.516   0.537 -0.4210 -0.4216  0.2401
 4623SOL     OW18263   6.108   6.137   5.605  0.4027 -0.0297 -0.1624
 4623SOL    HW218264   6.074   6.159   5.518  1.5966 -1.3376 -1.0124
 4623SOL    HW318265   6.078   6.208   5.661 -1.7977  0.0207 -1.2788
 4623SOL    MW418266   6.100   6.149   5.601  0.2699 -0.1956 -0.4218
 4624SOL     OW18267   2.455   5.708   1.051 -0.5726  0.0937  0.2003
 4624SOL    HW218268   2.371   5.706   1.005  0.2500 -0.1690 -1.3207
 4624SOL    HW318269   2.521   5.714   0.982  0.8221 -2.4239  1.2015
 4624SOL    MW418270   2.453   5.709   1.036 -0.2801 -0.2731  0.1317
 4625SOL     OW18271   3.436   5.098   4.438 -0.0352  0.3922 -0.2063
 4625SOL    HW218272   3.437   5.077   4.345 -0.0209 -0.5999  0.0058
 4625SOL    HW318273   3.492   5.176   4.446 -0.1726  0.5857 -1.0380
 4625SOL    MW418274   3.444   5.106   4.427 -0.0514  0.2869 -0.2880
 4626SOL     OW18275   0.484   4.019   0.060  0.2948  0.7672  0.3851
 4626SOL    HW218276   0.461   4.060   0.144 -2.0798  1.0510 -0.3269
 4626SOL    HW318277   0.488   4.092  -0.002  0.4270  0.3949 -0.0495
 4626SOL    MW418278   0.481   4.034   0.063 -0.0010  0.7555  0.2338
 4627SOL     OW18279   2.580   0.547   2.336  0.1243 -0.3970  0.0821
 4627SOL    HW218280   2.556   0.466   2.381  1.6566  0.4379  2.6104
 4627SOL    HW318281   2.505   0.605   2.350 -0.1426 -0.7275  0.0259
 4627SOL    MW418282   2.567   0.544   2.344  0.2913 -0.3305  0.4083
 4628SOL     OW18283   5.866   0.567   5.992 -0.7927 -0.4977  0.1861
 4628SOL    HW218284   5.790   0.617   6.021  1.2412  1.7196  2.1666
 4628SOL    HW318285   5.917   0.629   5.940  0.3369 -1.4879  0.0561
 4628SOL    MW418286   5.863   0.582   5.989 -0.3753 -0.3358  0.4303
 4629SOL     OW18287   1.603   0.593   5.962 -0.4271  0.2745 -0.0473
 4629SOL    HW218288   1.676   0.571   5.904  1.1423  0.7001  1.7007
 4629SOL    HW318289   1.610   0.688   5.975  1.0967 -0.1419  3.0984
 4629SOL    MW418290   1.613   0.603   5.956 -0.0190  0.2757  0.5984
 4630SOL     OW18291   2.503   4.680   5.688 -0.7181 -0.0813 -0.2965
 4630SOL    HW218292   2.496   4.761   5.638 -0.3920  0.6403  0.8025
 4630SOL    HW318293   2.435   4.623   5.651 -0.4664  0.4168 -1.5641
 4630SOL    MW418294   2.493   4.683   5.677 -0.6419  0.0796 -0.3188
 4631SOL     OW18295   4.568   1.650   5.722  0.4722 -0.3886 -0.0475
 4631SOL    HW218296   4.658   1.634   5.694  1.0864  0.4284  1.3821
 4631SOL    HW318297   4.544   1.733   5.681  1.6419  1.2062  2.3436
 4631SOL    MW418298   4.577   1.659   5.713  0.7076 -0.0704  0.4566
 4632SOL     OW18299   4.980   3.914   2.782  0.4382 -0.5187  0.8016
 4632SOL    HW218300   4.964   3.940   2.873  1.6788  0.4509  0.7692
 4632SOL    HW318301   5.075   3.915   2.773  0.3384 -0.6765 -0.4905
 4632SOL    MW418302   4.990   3.918   2.793  0.5887 -0.4116  0.6269
 4633SOL     OW18303   0.117   0.359   5.917 -0.2062  0.6067  0.0990
 4633SOL    HW218304   0.047   0.294   5.910 -0.6157  1.0848 -0.3225
 4633SOL    HW318305   0.090   0.430   5.859  0.4012  1.0077  0.2941
 4633SOL    MW418306   0.104   0.360   5.908 -0.1801  0.7227  0.0692
 4634SOL     OW18307   4.007   1.724   2.771 -0.1900  0.2997 -0.1267
 4634SOL    HW218308   4.073   1.695   2.834 -0.0712  1.4747  0.3094
 4634SOL    HW318309   4.040   1.692   2.687 -0.1388 -0.9266  0.3344
 4634SOL    MW418310   4.020   1.716   2.768 -0.1676  0.2929 -0.0083
 4635SOL     OW18311   5.975   4.135   0.621  0.2167 -0.4568  0.0698
 4635SOL    HW218312   5.903   4.077   0.597 -0.5681  0.5031  0.0369
 4635SOL    HW318313   5.961   4.213   0.567  0.5390  0.2639  1.0156
 4635SOL    MW418314   5.963   4.138   0.611  0.1557 -0.2351  0.1903
 4636SOL     OW18315   1.092   0.147   5.235 -0.0309  0.1647 -0.3560
 4636SOL    HW218316   1.041   0.162   5.156 -1.3285  0.5282  0.5232
 4636SOL    HW318317   1.061   0.213   5.297  0.9983 -0.0814  0.4524
 4636SOL    MW418318   1.081   0.158   5.233 -0.0663  0.1802 -0.1334
 4637SOL     OW18319   0.538   3.650   1.583  0.2058  0.2822  0.6851
 4637SOL    HW218320   0.497   3.609   1.658 -0.7307 -0.2601 -0.0925
 4637SOL    HW318321   0.621   3.684   1.616  0.2863 -0.8515  1.7057
 4637SOL    MW418322   0.543   3.649   1.597  0.0929  0.0610  0.7172
 4638SOL     OW18323   1.835   1.653   5.759  0.0396 -0.4766  0.1076
 4638SOL    HW218324   1.906   1.709   5.790  0.2351 -0.4287 -0.4182
 4638SOL    HW318325   1.829   1.672   5.666  0.0273 -1.2478 -0.0505
 4638SOL    MW418326   1.843   1.663   5.751  0.0638 -0.5721  0.0174
 4639SOL     OW18327   1.886   2.178   2.145 -0.5949 -0.9304  0.6936
 4639SOL    HW218328   1.935   2.097   2.153  1.1229 -0.0851 -0.5419
 4639SOL    HW318329   1.889   2.199   2.052 -2.5312 -0.3450  0.7266
 4639SOL    MW418330   1.893   2.170   2.134 -0.6238 -0.7416  0.5350
 4640SOL     OW18331   4.723   0.380   1.349 -0.6206  0.3282  0.2822
 4640SOL    HW218332   4.814   0.361   1.326 -1.2657 -2.3542 -0.4500
 4640SOL    HW318333   4.674   0.366   1.268 -1.9990 -1.2729  1.3115
 4640SOL    MW418334   4.728   0.376   1.335 -0.8876 -0.2370  0.3214
 4641SOL     OW18335   5.068   5.496   1.967  0.2401  0.2800 -0.0982
 4641SOL    HW218336   5.074   5.483   2.062  2.3734  1.9601  0.0773
 4641SOL    HW318337   5.116   5.423   1.930 -0.9676 -0.6209  0.0625
 4641SOL    MW418338   5.075   5.485   1.975  0.3622  0.3828 -0.0538
 4642SOL     OW18339   5.406   4.065   3.636  0.5153  0.3168 -0.0873
 4642SOL    HW218340   5.484   4.074   3.582  0.5426 -1.0526 -0.3115
 4642SOL    HW318341   5.401   3.971   3.655 -0.4991  0.5316  0.7871
 4642SOL    MW418342   5.416   4.054   3.632  0.3850  0.1645 -0.0015
 4643SOL     OW18343   0.345   2.120   4.446  0.1700 -0.0728 -0.2161
 4643SOL    HW218344   0.252   2.135   4.466  0.1358 -0.1328 -0.3308
 4643SOL    HW318345   0.392   2.164   4.518  0.0574  0.1216 -0.2602
 4643SOL    MW418346   0.339   2.128   4.458  0.1507 -0.0551 -0.2371
 4644SOL     OW18347   2.163   2.915   3.302  0.9731  0.6222  0.1852
 4644SOL    HW218348   2.096   2.974   3.267  0.4731  0.5704  1.0136
 4644SOL    HW318349   2.236   2.973   3.324  0.1129  1.1343  1.9266
 4644SOL    MW418350   2.164   2.931   3.301  0.7936  0.6830  0.5243
 4645SOL     OW18351   1.964   6.046   5.717  0.3136  0.0886  0.0077
 4645SOL    HW218352   1.950   5.965   5.669  0.3227 -0.7934  1.4329
 4645SOL    HW318353   1.970   6.019   5.809  2.3634  1.4507  0.3422
 4645SOL    MW418354   1.963   6.032   5.723  0.5852  0.1519  0.2399
 4646SOL     OW18355   1.484   5.414   4.150  0.3801  0.1156  0.4961
 4646SOL    HW218356   1.539   5.350   4.196  1.1011 -0.9869 -1.7422
 4646SOL    HW318357   1.400   5.370   4.140  0.1440  0.4550  0.9628
 4646SOL    MW418358   1.480   5.400   4.155  0.4441  0.0149  0.2623
 4647SOL     OW18359   4.941   2.641   0.716 -0.1983 -0.4275 -0.0393
 4647SOL    HW218360   4.983   2.724   0.692  0.4139 -0.4993  0.7423
 4647SOL    HW318361   4.986   2.575   0.664 -0.0714 -0.3806  0.0128
 4647SOL    MW418362   4.952   2.644   0.706 -0.1008 -0.4308  0.0707
 4648SOL     OW18363   1.447   3.771   5.066  0.3681  0.5091  0.1261
 4648SOL    HW218364   1.416   3.686   5.034 -0.5338  0.7255  0.3849
 4648SOL    HW318365   1.480   3.815   4.988  0.8978 -0.0949 -0.0013
 4648SOL    MW418366   1.447   3.765   5.051  0.3190  0.4579  0.1434
 4649SOL     OW18367   1.267   1.366   4.531 -0.1103  0.0175  0.0119
 4649SOL    HW218368   1.208   1.352   4.606  0.1859  0.6768  0.3709
 4649SOL    HW318369   1.280   1.278   4.496 -1.6865 -0.0978 -0.3730
 4649SOL    MW418370   1.261   1.352   4.537 -0.2791  0.0893  0.0085
 4650SOL     OW18371   4.120   1.715   1.938  0.2461  0.0154  0.1807
 4650SOL    HW218372   4.209   1.749   1.928  0.4997 -0.3522  1.0827
 4650SOL    HW318373   4.071   1.755   1.867  1.3141 -0.4042 -0.8311
 4650SOL    MW418374   4.125   1.724   1.927  0.4205 -0.0885  0.1662
 4651SOL     OW18375   1.928   1.484   3.167 -0.4125 -0.3066 -0.2727
 4651SOL    HW218376   1.899   1.400   3.204  2.6428 -1.0322  0.8213
 4651SOL    HW318377   1.922   1.545   3.240  0.1879 -0.3509 -0.1742
 4651SOL    MW418378   1.924   1.481   3.182  0.0698 -0.4081 -0.1153
 4652SOL     OW18379   5.856   2.240   4.290  0.1772  0.1172  0.4768
 4652SOL    HW218380   5.850   2.327   4.251  0.8729 -0.1221 -0.1952
 4652SOL    HW318381   5.826   2.181   4.221  1.1566 -0.2951  0.3921
 4652SOL    MW418382   5.851   2.244   4.276  0.3982  0.0312  0.3770
 4653SOL     OW18383   3.575   2.550   1.186 -0.0930 -0.1308  0.3782
 4653SOL    HW218384   3.607   2.572   1.098  1.2091  0.5638  0.9961
 4653SOL    HW318385   3.485   2.582   1.187 -0.8794 -2.0581 -1.3871
 4653SOL    MW418386   3.567   2.557   1.174 -0.0250 -0.2935  0.2268
 4654SOL     OW18387   3.994   2.008   3.746 -0.1166  0.2830  0.6422
 4654SOL    HW218388   3.968   2.092   3.783 -0.8716 -0.1463  1.1189
 4654SOL    HW318389   3.971   2.015   3.653  3.3124  1.9842 -0.2317
 4654SOL    MW418390   3.987   2.020   3.738  0.2362  0.4508  0.5898
 4655SOL     OW18391   3.821   1.870   6.110 -0.5613 -0.2874  0.0509
 4655SOL    HW218392   3.835   1.813   6.186  3.0354  0.6997  0.3126
 4655SOL    HW318393   3.862   1.953   6.135 -0.5643  0.5283 -2.4428
 4655SOL    MW418394   3.828   1.873   6.124 -0.0872 -0.0496 -0.2436
 4656SOL     OW18395   4.602   3.313   0.877  0.0193 -0.2042 -0.1456
 4656SOL    HW218396   4.605   3.268   0.792 -0.6627  1.5201 -1.1257
 4656SOL    HW318397   4.530   3.271   0.923 -0.4418 -0.2922 -0.9292
 4656SOL    MW418398   4.593   3.301   0.872 -0.1315  0.0117 -0.3783
 4657SOL     OW18399   1.701   2.035   0.208 -0.1275  0.4539 -0.0696
 4657SOL    HW218400   1.736   2.111   0.161  0.3845 -0.7202 -1.6521
 4657SOL    HW318401   1.773   2.005   0.263 -0.0066  0.5060 -0.2014
 4657SOL    MW418402   1.715   2.041   0.209 -0.0440  0.3059 -0.2958
 4658SOL     OW18403   5.312   0.365   3.462 -0.0866 -0.5001 -0.3001
 4658SOL    HW218404   5.323   0.299   3.530 -1.3457  0.7574  1.2083
 4658SOL    HW318405   5.238   0.334   3.410  0.0189 -0.8253 -0.2530
 4658SOL    MW418406   5.304   0.352   3.464 -0.2388 -0.3771 -0.0949
 4659SOL     OW18407   3.759   6.400   2.326 -0.1143 -0.0198 -0.1665
 4659SOL    HW218408   3.852   6.414   2.344 -0.1276 -0.0032 -0.1092
 4659SOL    HW318409   3.721   6.488   2.324 -0.5454 -0.0936  2.0662
 4659SOL    MW418410   3.766   6.413   2.328 -0.1729 -0.0274  0.1357
 4660SOL     OW18411   2.717   5.837   3.127  0.1190  0.1379  0.5738
 4660SOL    HW218412   2.792   5.794   3.169  0.7350 -1.6385 -2.0722
 4660SOL    HW318413   2.746   5.854   3.038 -2.2204  0.5596 -0.1800
 4660SOL    MW418414   2.731   5.833   3.121 -0.1084 -0.0408  0.1252
 4661SOL     OW18415   3.201   4.891   2.326 -0.2597 -0.2270  0.5072
 4661SOL    HW218416   3.182   4.984   2.312 -0.6579  0.2893  3.7664
 4661SOL    HW318417   3.116   4.852   2.346 -0.0796 -1.3436 -0.7337
 4661SOL    MW418418   3.187   4.898   2.326 -0.2884 -0.3062  0.7735
 4662SOL     OW18419   1.578   1.459   2.002  0.1940  0.3649  0.3759
 4662SOL    HW218420   1.503   1.437   2.058  0.7434  0.8928  1.3435
 4662SOL    HW318421   1.586   1.554   2.008 -0.3179  0.5457 -1.3871
 4662SOL    MW418422   1.569   1.468   2.010  0.1989  0.4584  0.2710
 4663SOL     OW18423   0.715   5.484   0.125 -0.5234 -0.3507 -0.2559
 4663SOL    HW218424   0.714   5.480   0.029  0.7394  0.5734 -0.3408
 4663SOL    HW318425   0.764   5.564   0.145 -1.8198  0.1355  1.1667
 4663SOL    MW418426   0.722   5.494   0.115 -0.5278 -0.1646 -0.0794
 4664SOL     OW18427   5.624   2.707   6.267 -0.1598 -0.4174 -0.3537
 4664SOL    HW218428   5.665   2.788   6.296  0.6645 -0.4680 -1.2957
 4664SOL    HW318429   5.574   2.733   6.189 -1.9369 -0.3651  0.7509
 4664SOL    MW418430   5.623   2.721   6.260 -0.2855 -0.4171 -0.3322
 4665SOL     OW18431   1.612   1.958   2.430 -0.3183 -0.1533  0.6945
 4665SOL    HW218432   1.641   1.959   2.522 -0.8179 -0.3307  0.8563
 4665SOL    HW318433   1.608   1.866   2.407 -0.8490 -0.1362  0.7068
 4665SOL    MW418434   1.616   1.946   2.439 -0.4542 -0.1745  0.7175
 4666SOL     OW18435   1.561   2.183   2.263 -0.4739 -0.4966 -0.5642
 4666SOL    HW218436   1.631   2.185   2.198  0.2157 -2.5814  0.0238
 4666SOL    HW318437   1.590   2.118   2.328 -2.1179 -0.0641  0.6803
 4666SOL    MW418438   1.574   2.174   2.263 -0.5999 -0.7146 -0.3224
 4667SOL     OW18439   6.182   4.844   4.529  0.0846  0.3344  0.0353
 4667SOL    HW218440   6.118   4.901   4.486  1.0390  3.3598  2.2488
 4667SOL    HW318441   6.132   4.803   4.601  0.0406  0.7094  0.2224
 4667SOL    MW418442   6.167   4.846   4.533  0.2047  0.7830  0.3520
 4668SOL     OW18443   3.788   3.970   0.741  0.6904 -0.1163 -0.2583
 4668SOL    HW218444   3.768   3.880   0.767 -0.8323  0.6295  1.3593
 4668SOL    HW318445   3.834   3.961   0.657 -0.0423 -2.3576 -0.4899
 4668SOL    MW418446   3.791   3.957   0.733  0.3928 -0.3136 -0.0754
 4669SOL     OW18447   4.855   1.663   2.808  0.4011 -0.1930 -0.1358
 4669SOL    HW218448   4.772   1.647   2.854  0.3698  0.4131  0.0280
 4669SOL    HW318449   4.922   1.650   2.875  0.4482 -0.7175 -0.2767
 4669SOL    MW418450   4.853   1.659   2.823  0.4032 -0.1822 -0.1328
 4670SOL     OW18451   1.429   3.577   6.307 -0.0421  0.1979  0.2014
 4670SOL    HW218452   1.380   3.609   6.231  0.5010 -0.0233 -0.2524
 4670SOL    HW318453   1.365   3.530   6.360  0.0040 -1.6451 -1.2695
 4670SOL    MW418454   1.414   3.575   6.304  0.0357 -0.0744 -0.0525
 4671SOL     OW18455   4.260   1.696   0.295 -0.4126  0.1053 -0.1603
 4671SOL    HW218456   4.182   1.652   0.261  0.1362 -0.8877 -0.1929
 4671SOL    HW318457   4.317   1.624   0.323 -0.1513  0.8605  1.3116
 4671SOL    MW418458   4.257   1.681   0.294 -0.3057  0.0739  0.0296
 4672SOL     OW18459   3.820   0.381   1.892 -0.2776  0.2323 -0.3444
 4672SOL    HW218460   3.792   0.433   1.817  0.4794 -1.9942 -2.2781
 4672SOL    HW318461   3.762   0.305   1.893 -0.0801  0.0578  1.1663
 4672SOL    MW418462   3.809   0.378   1.882 -0.1516 -0.0845 -0.4002
 4673SOL     OW18463   2.798   5.239   5.374  0.0707 -0.3934  0.4546
 4673SOL    HW218464   2.825   5.147   5.379  1.7071  0.1013  1.5315
 4673SOL    HW318465   2.845   5.274   5.298  0.3316 -0.1885  0.7073
 4673SOL    MW418466   2.808   5.232   5.365  0.3211 -0.3011  0.6301
 4674SOL     OW18467   6.177   1.332   2.353 -0.1698  0.0999 -0.1391
 4674SOL    HW218468   6.163   1.249   2.397 -1.4627 -0.3336 -1.2882
 4674SOL    HW318469   6.203   1.309   2.264  2.1240  0.9550  0.2406
 4674SOL    MW418470   6.178   1.318   2.347 -0.0378  0.1555 -0.2406
 4675SOL     OW18471   4.639   2.704   2.951  0.1622  0.1308  0.2959
 4675SOL    HW218472   4.590   2.688   2.870  0.4554  0.8993 -0.0390
 4675SOL    HW318473   4.611   2.791   2.979 -0.1242 -0.2276  1.1667
 4675SOL    MW418474   4.629   2.713   2.944  0.1631  0.1849  0.3666
 4676SOL     OW18475   2.735   5.232   2.448 -0.2474 -0.3499 -0.5709
 4676SOL    HW218476   2.818   5.226   2.495  0.0761  0.4527 -1.0215
 4676SOL    HW318477   2.676   5.174   2.496  0.5566 -0.8835 -0.2137
 4676SOL    MW418478   2.738   5.224   2.461 -0.0986 -0.3144 -0.5832
 4677SOL     OW18479   3.944   5.318   5.448 -0.6929  0.0673  0.6321
 4677SOL    HW218480   3.876   5.359   5.502 -1.2948  3.0181 -2.0954
 4677SOL    HW318481   3.903   5.238   5.414 -1.5747  0.0767  1.6056
 4677SOL    MW418482   3.930   5.313   5.451 -0.8886  0.4579  0.4007
 4678SOL     OW18483   0.209   6.357   4.207 -0.0664 -0.6045  0.3297
 4678SOL    HW218484   0.180   6.436   4.254  0.5059 -0.5135  0.5323
 4678SOL    HW318485   0.304   6.357   4.216 -0.0205 -1.0393 -0.1206
 4678SOL    MW418486   0.217   6.367   4.214  0.0151 -0.6499  0.2970
 4679SOL     OW18487   5.292   5.291   0.211 -0.4051  0.9588  0.2619
 4679SOL    HW218488   5.230   5.228   0.175  0.8037  0.0510 -0.3193
 4679SOL    HW318489   5.329   5.335   0.134  0.3935  0.7691  0.5276
 4679SOL    MW418490   5.289   5.288   0.196 -0.1403  0.8140  0.2203
 4680SOL     OW18491   0.123   0.189   2.498 -0.1087  0.1811 -0.2115
 4680SOL    HW218492   0.058   0.224   2.438 -0.8028 -0.6320  0.0642
 4680SOL    HW318493   0.075   0.129   2.555  1.0952 -1.4748 -0.8512
 4680SOL    MW418494   0.108   0.186   2.498 -0.0415 -0.1446 -0.2596
 4681SOL     OW18495   5.817   1.740   3.828  0.1389 -0.4457  0.4465
 4681SOL    HW218496   5.765   1.673   3.871 -1.5249 -0.3356 -1.2568
 4681SOL    HW318497   5.893   1.693   3.792  0.1021 -1.0024  1.0845
 4681SOL    MW418498   5.820   1.725   3.829 -0.0855 -0.5046  0.3060
 4682SOL     OW18499   1.775   2.503   1.119 -0.5578  0.4040  0.0742
 4682SOL    HW218500   1.694   2.461   1.090 -0.7104 -0.5400  1.7659
 4682SOL    HW318501   1.821   2.524   1.038 -0.9862 -2.0298 -0.8740
 4682SOL    MW418502   1.770   2.500   1.104 -0.6345 -0.0417  0.1723
 4683SOL     OW18503   6.074   2.114   5.312  0.0616  0.3737 -0.3201
 4683SOL    HW218504   6.135   2.049   5.277  0.9182  1.3286 -0.6531
 4683SOL    HW318505   6.072   2.183   5.245 -2.0384 -0.0129 -0.6969
 4683SOL    MW418506   6.082   2.115   5.298 -0.1025  0.4487 -0.4138
 4684SOL     OW18507   4.023   3.639   3.850  0.1477 -0.3573  0.1281
 4684SOL    HW218508   4.051   3.639   3.942 -0.1088  0.2938  0.2164
 4684SOL    HW318509   4.103   3.623   3.801  0.2756 -0.7856  0.4651
 4684SOL    MW418510   4.037   3.637   3.856  0.1307 -0.3279  0.1842
 4685SOL     OW18511   2.925   3.325   1.323 -0.6175 -0.0593  0.2667
 4685SOL    HW218512   3.014   3.326   1.287 -0.5163  0.9465  0.5117
 4685SOL    HW318513   2.894   3.236   1.309  0.4164 -0.4089  0.1335
 4685SOL    MW418514   2.933   3.313   1.317 -0.4677  0.0273  0.2814
 4686SOL     OW18515   5.803   2.206   3.388  0.7058  0.2393  0.4516
 4686SOL    HW218516   5.884   2.257   3.393  0.8872 -0.0760  0.7105
 4686SOL    HW318517   5.767   2.227   3.302  1.1841  0.1968  0.2410
 4686SOL    MW418518   5.809   2.216   3.377  0.7928  0.1921  0.4579
 4687SOL     OW18519   2.600   5.940   5.649  0.2150 -0.2616 -0.3999
 4687SOL    HW218520   2.623   5.930   5.742 -1.5630 -1.9375 -0.0730
 4687SOL    HW318521   2.630   5.859   5.608  0.2096  0.0986 -1.1221
 4687SOL    MW418522   2.607   5.928   5.656 -0.0203 -0.4352 -0.4521
 4688SOL     OW18523   6.274   3.148   6.026 -0.2577  0.7620  0.1968
 4688SOL    HW218524   6.223   3.152   5.945 -0.2166 -1.2334  0.0347
 4688SOL    HW318525   6.244   3.069   6.070  0.4429  1.2699  1.6645
 4688SOL    MW418526   6.264   3.138   6.021 -0.1598  0.5657  0.3691
 4689SOL     OW18527   2.193   6.231   5.696 -0.3582  0.1223  0.2163
 4689SOL    HW218528   2.127   6.164   5.716 -1.9760  1.3352 -0.7622
 4689SOL    HW318529   2.277   6.186   5.707 -1.3396 -2.7620 -2.5271
 4689SOL    MW418530   2.195   6.216   5.700 -0.7012 -0.0982 -0.2747
 4690SOL     OW18531   1.350   1.296   5.901 -0.7405 -0.3989 -0.3674
 4690SOL    HW218532   1.411   1.267   5.832 -0.4471  0.1347 -0.3381
 4690SOL    HW318533   1.354   1.391   5.897 -1.2480 -0.3654 -0.0670
 4690SOL    MW418534   1.359   1.304   5.891 -0.7687 -0.3241 -0.3239
 4691SOL     OW18535   6.283   0.287   6.398 -0.5988 -0.1949 -0.2457
 4691SOL    HW218536   6.208   0.338   6.368  0.5608  1.3100 -0.7217
 4691SOL    HW318537   6.310   0.329   6.479  0.0576 -0.3569 -0.3693
 4691SOL    MW418538   6.277   0.299   6.404 -0.3592 -0.0177 -0.3248
 4692SOL     OW18539   4.022   1.341   0.967 -0.1443 -0.1270  0.5463
 4692SOL    HW218540   3.995   1.249   0.968 -0.4436 -0.0470  0.2043
 4692SOL    HW318541   3.956   1.386   1.020 -1.1129  0.1692 -0.8190
 4692SOL    MW418542   4.009   1.335   0.974 -0.3116 -0.0773  0.3210
 4693SOL     OW18543   1.307   0.042   2.004 -0.4198  0.2973  0.1131
 4693SOL    HW218544   1.321   0.075   2.092  0.8271  1.6707 -0.5498
 4693SOL    HW318545   1.360  -0.037   1.999 -2.8699 -1.5626  1.4953
 4693SOL    MW418546   1.316   0.036   2.015 -0.5786  0.2331  0.2080
 4694SOL     OW18547   5.310   6.069   3.056  0.1036  0.0197 -0.7703
 4694SOL    HW218548   5.368   6.105   3.123  0.8411  2.0384 -2.4069
 4694SOL    HW318549   5.222   6.092   3.086  0.4632  1.5616 -0.8186
 4694SOL    MW418550   5.306   6.077   3.069  0.2484  0.4895 -0.9926
 4695SOL     OW18551   3.849   0.012   0.016 -0.3066 -0.5498  0.6095
 4695SOL    HW218552   3.779  -0.024   0.070 -1.4354  1.6671  0.7486
 4695SOL    HW318553   3.903   0.063   0.076 -0.3730  0.2536  0.0123
 4695SOL    MW418554   3.847   0.014   0.031 -0.4643 -0.1513  0.5490
 4696SOL     OW18555   2.049   3.053   0.431  0.1919  0.4330 -0.5371
 4696SOL    HW218556   2.005   3.085   0.510  0.1431 -0.2387 -0.2844
 4696SOL    HW318557   2.135   3.096   0.432  0.0200  0.7781 -0.3650
 4696SOL    MW418558   2.055   3.063   0.441  0.1628  0.3899 -0.4811
 4697SOL     OW18559   2.237   3.321   4.798 -0.2249  0.0208  0.0888
 4697SOL    HW218560   2.270   3.406   4.769 -0.2040 -0.9777 -3.2687
 4697SOL    HW318561   2.277   3.308   4.884 -1.1394  3.8285  1.2842
 4697SOL    MW418562   2.247   3.330   4.806 -0.3428  0.3914 -0.1965
 4698SOL     OW18563   0.971   4.163   1.341  0.7154 -0.2663 -0.1890
 4698SOL    HW218564   0.938   4.197   1.425  2.1722 -0.0599  0.3345
 4698SOL    HW318565   0.939   4.225   1.276  0.8735  0.4646  0.4109
 4698SOL    MW418566   0.963   4.175   1.344  0.9285 -0.1426 -0.0408
 4699SOL     OW18567   2.573   5.055   0.717  0.1123 -0.2044 -0.5514
 4699SOL    HW218568   2.495   5.024   0.762  0.4509 -1.5987 -0.8665
 4699SOL    HW318569   2.629   5.090   0.786 -1.1708  1.7959 -0.4261
 4699SOL    MW418570   2.570   5.056   0.732 -0.0123 -0.1244 -0.5764
 4700SOL     OW18571   1.987   3.158   4.278 -0.1983 -0.0915 -0.0078
 4700SOL    HW218572   1.975   3.236   4.333  1.3437  1.8970 -2.2584
 4700SOL    HW318573   2.072   3.122   4.305 -1.2983 -1.5827  1.6184
 4700SOL    MW418574   1.997   3.164   4.289 -0.1399 -0.0259 -0.0902
 4701SOL     OW18575   3.339   0.240   1.241  0.1843 -0.3535  1.4130
 4701SOL    HW218576   3.435   0.250   1.237  0.1808 -0.7884 -0.2061
 4701SOL    HW318577   3.307   0.286   1.163 -0.8137 -1.4886  1.1359
 4701SOL    MW418578   3.348   0.248   1.230  0.0522 -0.5607  1.1628
 4702SOL     OW18579   4.300   3.492   2.928 -0.0271  0.1366  0.1497
 4702SOL    HW218580   4.215   3.517   2.892  0.0442 -0.8473 -0.7547
 4702SOL    HW318581   4.329   3.569   2.978 -0.8799  0.9416 -0.5641
 4702SOL    MW418582   4.293   3.505   2.930 -0.1302  0.1130 -0.0638
 4703SOL     OW18583   5.174   4.050   3.476  0.2441  0.1629  0.2702
 4703SOL    HW218584   5.259   4.030   3.517  0.0562  0.2304  0.6941
 4703SOL    HW318585   5.195   4.062   3.383  0.5096 -1.0811  0.1540
 4703SOL    MW418586   5.188   4.049   3.469  0.2544  0.0077  0.3108
 4704SOL     OW18587   0.805   4.480   3.686  0.0983 -0.0188  0.6861
 4704SOL    HW218588   0.842   4.408   3.636  2.2305 -0.0797  2.2217
 4704SOL    HW318589   0.847   4.473   3.772 -2.8152  0.5244  2.2814
 4704SOL    MW418590   0.815   4.469   3.691 -0.0048  0.0448  1.0992
 4705SOL     OW18591   4.591   1.925   3.753  0.2168 -0.2093  0.3844
 4705SOL    HW218592   4.565   1.908   3.662 -1.8027 -1.4884  1.1418
 4705SOL    HW318593   4.548   2.008   3.775 -1.5480 -1.2112  0.9343
 4705SOL    MW418594   4.582   1.934   3.744 -0.2825 -0.5103  0.5569
 4706SOL     OW18595   4.540   2.123   2.957 -0.2789  0.4737  0.1603
 4706SOL    HW218596   4.628   2.127   2.995 -1.2597 -3.6526  3.7241
 4706SOL    HW318597   4.483   2.157   3.026 -1.7267 -1.0935 -0.1865
 4706SOL    MW418598   4.544   2.128   2.971 -0.5993 -0.2775  0.5847
 4707SOL     OW18599   2.751   2.781   0.293 -0.7266 -0.6530 -0.1453
 4707SOL    HW218600   2.837   2.744   0.276 -0.4636  0.2434 -0.8669
 4707SOL    HW318601   2.701   2.710   0.334  0.1916 -1.3310 -0.1783
 4707SOL    MW418602   2.755   2.767   0.296 -0.5708 -0.6242 -0.2449
 4708SOL     OW18603   0.388   3.303   5.880 -0.8970  0.8571 -0.4518
 4708SOL    HW218604   0.348   3.382   5.844 -1.7440  1.7720  2.2724
 4708SOL    HW318605   0.458   3.334   5.937 -1.2642 -0.3347  0.7020
 4708SOL    MW418606   0.392   3.318   5.883 -1.0572  0.8206  0.0598
 4709SOL     OW18607   6.031   1.475   2.889  1.0021  0.4269 -0.2771
 4709SOL    HW218608   6.038   1.563   2.928 -1.9922 -0.8451  3.8602
 4709SOL    HW318609   6.107   1.428   2.922  1.7639  0.9750 -1.1978
 4709SOL    MW418610   6.042   1.481   2.898  0.7075  0.3314  0.1473
 4710SOL     OW18611   0.776   5.465   5.458 -0.3856  0.2889  0.4406
 4710SOL    HW218612   0.836   5.530   5.493  1.5202  0.7667 -3.2432
 4710SOL    HW318613   0.812   5.381   5.486 -0.7406  0.6632  2.1213
 4710SOL    MW418614   0.788   5.462   5.466 -0.1810  0.4013  0.1763
 4711SOL     OW18615   1.872   1.450   1.598 -0.2694  0.0272  0.2612
 4711SOL    HW218616   1.949   1.469   1.544 -0.2395  0.4904  0.4705
 4711SOL    HW318617   1.800   1.496   1.555 -0.6540 -1.2459 -0.5370
 4711SOL    MW418618   1.873   1.458   1.585 -0.3162 -0.0797  0.1835
 4712SOL     OW18619   2.808   0.317   2.619 -0.0711  0.9693  0.3374
 4712SOL    HW218620   2.813   0.290   2.710  1.7375  0.7166  0.1952
 4712SOL    HW318621   2.874   0.264   2.574 -0.9074  1.1005 -1.1233
 4712SOL    MW418622   2.817   0.306   2.625  0.0572  0.9533  0.1259
 4713SOL     OW18623   0.768   6.073   1.304  0.9092 -0.0313 -0.2557
 4713SOL    HW218624   0.772   5.997   1.362 -0.8260 -0.0840 -0.1627
 4713SOL    HW318625   0.695   6.055   1.245  0.6719  1.4164 -0.4379
 4713SOL    MW418626   0.759   6.061   1.304  0.6490  0.1528 -0.2674
 4714SOL     OW18627   6.206   5.775   6.242  0.1805 -0.3635 -0.6025
 4714SOL    HW218628   6.183   5.745   6.154  0.3258 -1.4345 -0.2954
 4714SOL    HW318629   6.123   5.771   6.290  0.3350 -0.9509 -0.3799
 4714SOL    MW418630   6.192   5.770   6.237  0.2200 -0.5823 -0.5326
 4715SOL     OW18631   4.733   2.601   1.061  0.1226  0.4249  0.0166
 4715SOL    HW218632   4.645   2.582   1.092 -0.2696  1.3258 -0.5153
 4715SOL    HW318633   4.770   2.660   1.126  0.3371  0.0692  0.2254
 4715SOL    MW418634   4.727   2.606   1.073  0.0992  0.4969 -0.0261
 4716SOL     OW18635   1.985   5.957   4.509  0.2307 -0.4082 -0.1543
 4716SOL    HW218636   1.986   6.019   4.436  1.5695 -3.0903 -2.6266
 4716SOL    HW318637   2.055   5.986   4.567 -1.1101  2.0036  0.4073
 4716SOL    MW418638   1.994   5.969   4.507  0.2304 -0.4439 -0.4064
 4717SOL     OW18639   1.917   0.621   2.368 -0.4598 -0.1649  0.3339
 4717SOL    HW218640   1.885   0.626   2.278 -0.6255  0.0645  0.4063
 4717SOL    HW318641   1.840   0.639   2.422 -0.4807 -0.8352  0.5363
 4717SOL    MW418642   1.903   0.624   2.363 -0.4845 -0.2231  0.3701
 4718SOL     OW18643   3.438   1.650   5.188 -0.1616  0.1168  0.2355
 4718SOL    HW218644   3.453   1.722   5.249  0.6893  1.1116 -1.0969
 4718SOL    HW318645   3.343   1.642   5.183 -0.2864  1.4556  0.0867
 4718SOL    MW418646   3.427   1.658   5.195 -0.0658  0.4247  0.0400
 4719SOL     OW18647   1.178   4.254   3.120  0.3596  0.0224 -0.8734
 4719SOL    HW218648   1.244   4.250   3.051  1.2140 -1.8384 -0.0269
 4719SOL    HW318649   1.165   4.162   3.146 -2.3181  0.3354 -0.7557
 4719SOL    MW418650   1.185   4.241   3.114  0.1190 -0.1818 -0.7462
 4720SOL     OW18651   0.318   1.896   1.634  0.2722 -0.2202 -0.2864
 4720SOL    HW218652   0.271   1.817   1.659 -0.4202  0.4876  0.7133
 4720SOL    HW318653   0.250   1.959   1.612  0.8297 -0.0635 -1.6472
 4720SOL    MW418654   0.303   1.894   1.634  0.2544 -0.1061 -0.3340
 4721SOL     OW18655   4.604   0.919   2.106 -0.0472  0.1300 -0.2332
 4721SOL    HW218656   4.624   1.012   2.100 -1.6704  0.4485 -1.3588
 4721SOL    HW318657   4.670   0.877   2.051  0.5256  0.6257  0.0588
 4721SOL    MW418658   4.615   0.926   2.098 -0.1858  0.2374 -0.3432
 4722SOL     OW18659   5.337   0.208   1.332  0.5750  0.2803 -0.2157
 4722SOL    HW218660   5.328   0.141   1.400  0.7790 -0.2622 -0.7126
 4722SOL    HW318661   5.392   0.275   1.371  2.1673 -0.8525 -0.4229
 4722SOL    MW418662   5.343   0.208   1.346  0.8120  0.0593 -0.3086
 4723SOL     OW18663   3.808   4.259   1.371  0.1102  0.3854 -0.0773
 4723SOL    HW218664   3.759   4.340   1.355 -0.6457  0.3035  1.5508
 4723SOL    HW318665   3.888   4.269   1.320 -0.9676  1.1550 -1.7099
 4723SOL    MW418666   3.812   4.271   1.362 -0.1318  0.4761 -0.0779
 4724SOL     OW18667   4.766   4.076   2.701  0.0147 -0.0417 -0.0247
 4724SOL    HW218668   4.847   4.033   2.729  0.1481 -0.2970 -0.7742
 4724SOL    HW318669   4.793   4.165   2.678 -0.3172  0.6009  1.8413
 4724SOL    MW418670   4.780   4.082   2.702 -0.0115  0.0094  0.1226
 4725SOL     OW18671   4.888   1.019   4.131  0.0802 -0.1136  0.4648
 4725SOL    HW218672   4.981   1.013   4.110  0.0142 -1.4935  0.4643
 4725SOL    HW318673   4.852   1.078   4.064  1.0216  0.8359  0.7696
 4725SOL    MW418674   4.895   1.026   4.119  0.1957 -0.1704  0.5050
 4726SOL     OW18675   0.233   6.322   3.323 -0.2343 -0.6097 -1.3690
 4726SOL    HW218676   0.306   6.309   3.262 -0.3195 -1.1134 -1.3718
 4726SOL    HW318677   0.195   6.405   3.298  1.9974  1.0634  0.3568
 4726SOL    MW418678   0.238   6.331   3.312  0.0489 -0.4554 -1.1417
 4727SOL     OW18679   1.539   0.329   5.061 -0.4551 -0.3818  0.1846
 4727SOL    HW218680   1.448   0.310   5.084 -0.9730  2.6688  1.1395
 4727SOL    HW318681   1.536   0.417   5.023  2.0269 -0.5352 -0.5419
 4727SOL    MW418682   1.526   0.338   5.059 -0.1960  0.0005  0.2147
 4728SOL     OW18683   1.559   4.641   4.461  0.3191 -0.4462 -0.1935
 4728SOL    HW218684   1.471   4.612   4.483  0.2422  1.2908  2.2503
 4728SOL    HW318685   1.585   4.586   4.388 -3.0925 -0.4405 -1.5908
 4728SOL    MW418686   1.551   4.630   4.455 -0.1412 -0.2162 -0.0555
 4729SOL     OW18687   2.256   3.129   4.390  0.1077  0.1955  0.3547
 4729SOL    HW218688   2.226   3.082   4.468 -0.0989 -0.3023 -0.0239
 4729SOL    HW318689   2.348   3.104   4.382 -0.1327 -0.5493 -0.1358
 4729SOL    MW418690   2.265   3.119   4.399  0.0488  0.0315  0.2400
 4730SOL     OW18691   1.441   5.514   6.245  0.3188 -0.2319  0.3043
 4730SOL    HW218692   1.403   5.598   6.268 -1.5525 -0.9235 -0.1044
 4730SOL    HW318693   1.409   5.496   6.157  1.3474 -1.0283  0.0624
 4730SOL    MW418694   1.432   5.522   6.236  0.2076 -0.4282  0.2185
 4731SOL     OW18695   2.728   2.112   0.736  0.0751 -0.1340 -0.0626
 4731SOL    HW218696   2.776   2.032   0.713  0.2787 -0.1311  0.3471
 4731SOL    HW318697   2.794   2.170   0.773 -0.2048 -0.0558  0.3214
 4731SOL    MW418698   2.743   2.109   0.738  0.0650 -0.1233  0.0421
 4732SOL     OW18699   0.497   2.703   3.259  0.1972 -0.7133 -0.7441
 4732SOL    HW218700   0.412   2.659   3.269  0.9527 -1.7394  2.8394
 4732SOL    HW318701   0.562   2.634   3.276  1.5850  0.7514  0.2153
 4732SOL    MW418702   0.494   2.688   3.263  0.4800 -0.6554 -0.1447
 4733SOL     OW18703   5.822   0.374   1.825  0.4021 -0.7203 -0.3005
 4733SOL    HW218704   5.858   0.463   1.828  0.3639 -0.6918 -0.6358
 4733SOL    HW318705   5.871   0.326   1.892 -0.3724 -0.1642  0.7044
 4733SOL    MW418706   5.833   0.379   1.834  0.2949 -0.6431 -0.2122
 4734SOL     OW18707   2.630   0.634   1.248 -0.2606 -0.1173  0.2816
 4734SOL    HW218708   2.683   0.701   1.206  1.2158 -0.9666  0.7267
 4734SOL    HW318709   2.607   0.574   1.177 -1.0885  0.5306 -0.0086
 4734SOL    MW418710   2.634   0.635   1.233 -0.1750 -0.1439  0.3020
 4735SOL     OW18711   5.141   0.524   2.180  0.1239  0.4614 -0.2486
 4735SOL    HW218712   5.149   0.571   2.263  1.1218  0.3983 -0.2997
 4735SOL    HW318713   5.109   0.437   2.204  0.9782  0.2476  0.1351
 4735SOL    MW418714   5.138   0.519   2.194  0.3683  0.4249 -0.2047
 4736SOL     OW18715   1.906   1.901   4.075  0.3233 -0.5444  0.2288
 4736SOL    HW218716   1.892   1.994   4.058  1.0975 -0.4671  0.0076
 4736SOL    HW318717   1.894   1.892   4.170  1.0309 -0.0828  0.3649
 4736SOL    MW418718   1.902   1.912   4.085  0.5188 -0.4733  0.2176
 4737SOL     OW18719   5.170   2.135   0.952 -0.0490  0.0594  0.5055
 4737SOL    HW218720   5.219   2.116   1.032 -1.3230  0.3417  1.3826
 4737SOL    HW318721   5.217   2.087   0.884  0.2002 -1.4409  1.6643
 4737SOL    MW418722   5.183   2.126   0.954 -0.1842 -0.1013  0.7741
 4738SOL     OW18723   5.961   4.065   3.719  0.4745 -0.0525 -0.3139
 4738SOL    HW218724   5.959   4.006   3.794  2.2964 -0.5874 -0.6238
 4738SOL    HW318725   5.965   4.153   3.757 -0.4801 -0.2005  0.1652
 4738SOL    MW418726   5.961   4.069   3.734  0.5890 -0.1426 -0.2916
 4739SOL     OW18727   2.201   3.324   3.033  0.8040 -0.0499 -0.1766
 4739SOL    HW218728   2.228   3.235   3.010 -1.8114 -0.9446 -0.1280
 4739SOL    HW318729   2.186   3.321   3.128  0.1520  0.2545 -0.2598
 4739SOL    MW418730   2.203   3.312   3.043  0.3729 -0.1278 -0.1812
 4740SOL     OW18731   0.997   5.049   5.342  0.4890 -0.4759  0.1896
 4740SOL    HW218732   0.925   5.049   5.405  0.9359  0.0547  0.7172
 4740SOL    HW318733   0.958   5.080   5.260 -0.1485 -1.4028  0.1327
 4740SOL    MW418734   0.982   5.053   5.339  0.4638 -0.5282  0.2517
 4741SOL     OW18735   1.151   2.288   0.349 -0.2615  0.2377  0.2775
 4741SOL    HW218736   1.156   2.347   0.424  1.3934 -1.3623  1.5277
 4741SOL    HW318737   1.224   2.315   0.292 -2.1097  2.0973 -1.3675
 4741SOL    MW418738   1.161   2.299   0.351 -0.2870  0.2720  0.2254
 4742SOL     OW18739   5.667   5.199   1.435  0.6605  0.0387  0.0181
 4742SOL    HW218740   5.745   5.208   1.382  0.3933  1.5951 -0.1582
 4742SOL    HW318741   5.659   5.282   1.481  0.6240 -1.0689  2.1788
 4742SOL    MW418742   5.676   5.211   1.434  0.6204  0.0979  0.2799
 4743SOL     OW18743   6.047   0.403   1.070 -0.5507  0.2495 -0.0620
 4743SOL    HW218744   5.974   0.465   1.073  1.1880  2.4372  0.8828
 4743SOL    HW318745   6.071   0.398   0.978 -1.3835  0.1788 -0.2738
 4743SOL    MW418746   6.041   0.411   1.059 -0.4312  0.5288  0.0347
 4744SOL     OW18747   4.283   0.454   2.998  0.0229 -0.5244 -0.3738
 4744SOL    HW218748   4.306   0.371   2.957 -0.1949 -0.6847 -0.1721
 4744SOL    HW318749   4.338   0.459   3.076  0.2501 -0.3399 -0.5439
 4744SOL    MW418750   4.293   0.444   3.003  0.0241 -0.5212 -0.3696
 4745SOL     OW18751   1.259  -0.001   4.066  0.0328 -0.2110 -0.2928
 4745SOL    HW218752   1.178  -0.003   4.116 -0.2818 -1.7882 -0.8187
 4745SOL    HW318753   1.239  -0.049   3.985  1.2476  0.0925 -0.8062
 4745SOL    MW418754   1.246  -0.007   4.062  0.1516 -0.3790 -0.4299
 4746SOL     OW18755   3.483   1.820   4.680 -0.1966  0.0341 -0.2763
 4746SOL    HW218756   3.576   1.821   4.701 -0.0691 -3.4021 -0.1653
 4746SOL    HW318757   3.442   1.872   4.749  1.3881 -0.6996  1.2673
 4746SOL    MW418758   3.490   1.827   4.691  0.0293 -0.5161 -0.0580
 4747SOL     OW18759   1.077   3.312   1.549  0.0813  0.1291  0.4186
 4747SOL    HW218760   1.123   3.289   1.630  1.3052  2.2230  0.3813
 4747SOL    HW318761   1.146   3.347   1.492 -0.9157 -0.4933 -1.2208
 4747SOL    MW418762   1.093   3.314   1.552  0.1112  0.3233  0.1974
 4748SOL     OW18763   6.185   1.711   1.266 -0.3046 -0.3390  0.2973
 4748SOL    HW218764   6.246   1.782   1.287 -0.5032  0.1945 -0.7970
 4748SOL    HW318765   6.224   1.668   1.189 -2.0985  1.1256 -1.5514
 4748SOL    MW418766   6.198   1.715   1.258 -0.5675 -0.0754 -0.0910
 4749SOL     OW18767   6.398   1.549   4.203  0.2016 -0.3807  0.1448
 4749SOL    HW218768   6.478   1.602   4.205  0.3133 -0.5262 -0.4728
 4749SOL    HW318769   6.341   1.590   4.268  1.3513 -1.1910  1.7309
 4749SOL    MW418770   6.401   1.561   4.212  0.3680 -0.5068  0.2726
 4750SOL     OW18771   0.523   4.281   4.650  0.3690  0.0629 -0.2592
 4750SOL    HW218772   0.606   4.238   4.629 -0.1508 -0.9994 -0.2339
 4750SOL    HW318773   0.480   4.220   4.710 -0.3824  0.6551 -0.1852
 4750SOL    MW418774   0.528   4.267   4.655  0.2013  0.0009 -0.2461
 4751SOL     OW18775   0.715   5.825   6.331 -0.4294 -0.7083  0.0828
 4751SOL    HW218776   0.620   5.836   6.334 -0.4020 -0.6610  1.2209
 4751SOL    HW318777   0.733   5.799   6.241 -1.4285  0.0756 -0.3637
 4751SOL    MW418778   0.705   5.823   6.320 -0.5576 -0.5987  0.1741
 4752SOL     OW18779   5.159   2.789   2.277 -0.1936  0.4720 -0.0437
 4752SOL    HW218780   5.091   2.835   2.326 -2.4467 -3.0965  0.5421
 4752SOL    HW318781   5.171   2.706   2.324  1.9093 -0.5976 -2.2163
 4752SOL    MW418782   5.152   2.784   2.290 -0.2134 -0.1400 -0.2530
 4753SOL     OW18783   3.937   2.862   0.090 -0.1158  0.1942 -0.1974
 4753SOL    HW218784   3.854   2.909   0.078 -0.2445  0.1073  0.2949
 4753SOL    HW318785   3.937   2.837   0.183 -0.0360 -0.7536 -0.4379
 4753SOL    MW418786   3.926   2.865   0.101 -0.1222  0.0577 -0.1642
 4754SOL     OW18787   2.945   4.549   2.571 -0.4099  0.1551 -0.1038
 4754SOL    HW218788   2.982   4.462   2.561  0.2508  0.5815 -1.7157
 4754SOL    HW318789   2.948   4.587   2.483 -2.4792  1.1014  0.1737
 4754SOL    MW418790   2.951   4.543   2.558 -0.5957  0.3362 -0.2799
 4755SOL     OW18791   6.158   4.991   6.321 -0.1541 -0.1153  0.3504
 4755SOL    HW218792   6.174   4.898   6.337  0.2020 -0.4728 -1.7235
 4755SOL    HW318793   6.137   5.027   6.407 -1.0292 -2.2442  1.1061
 4755SOL    MW418794   6.157   4.984   6.334 -0.2226 -0.4434  0.1765
 4756SOL     OW18795   3.985   2.518   6.121 -0.1660  0.0235 -0.2508
 4756SOL    HW218796   4.010   2.515   6.214  1.9826 -0.9885 -0.8165
 4756SOL    HW318797   3.967   2.428   6.098 -1.5590  0.3796 -0.6411
 4756SOL    MW418798   3.986   2.506   6.130 -0.0663 -0.0631 -0.3770
 4757SOL     OW18799   3.912   0.755   0.219  0.2208  0.3229  0.7407
 4757SOL    HW218800   3.845   0.822   0.223 -0.8344 -0.6907  0.5263
 4757SOL    HW318801   3.871   0.677   0.255  2.0022  0.2194  2.7596
 4757SOL    MW418802   3.898   0.754   0.224  0.3166  0.1755  0.9788
 4758SOL     OW18803   2.887   3.509   3.014 -0.0568 -0.3395  0.1303
 4758SOL    HW218804   2.906   3.415   3.015 -2.7550 -0.9984  2.2975
 4758SOL    HW318805   2.809   3.517   2.960 -0.3935  0.5137  0.7330
 4758SOL    MW418806   2.880   3.497   3.007 -0.4572 -0.3138  0.4958
 4759SOL     OW18807   2.591   4.379   2.799  0.1248  0.2865 -0.2951
 4759SOL    HW218808   2.565   4.456   2.850 -0.4229  0.1501 -0.3601
 4759SOL    HW318809   2.557   4.396   2.711 -0.6344 -0.3432 -0.1371
 4759SOL    MW418810   2.583   4.392   2.794 -0.0476  0.1854 -0.2828
 4760SOL     OW18811   3.254   3.924   3.378  0.2199  0.4299  0.7893
 4760SOL    HW218812   3.195   3.975   3.434  0.7221 -0.2852  1.9887
 4760SOL    HW318813   3.337   3.921   3.425  0.3831 -0.9747  0.4623
 4760SOL    MW418814   3.257   3.930   3.391  0.3077  0.1502  0.9044
 4761SOL     OW18815   2.546   3.039   2.752  0.0087  0.1641 -0.2165
 4761SOL    HW218816   2.547   2.965   2.812 -2.9027 -0.7545 -1.1525
 4761SOL    HW318817   2.546   2.999   2.665  0.4631  1.3505 -0.7783
 4761SOL    MW418818   2.546   3.024   2.748 -0.3155  0.1994 -0.4141
 4762SOL     OW18819   0.610   2.886   0.192 -0.0720  0.3981 -0.0874
 4762SOL    HW218820   0.674   2.846   0.133  0.2730  0.0210  0.5373
 4762SOL    HW318821   0.628   2.847   0.277 -0.4836  1.0320  0.2970
 4762SOL    MW418822   0.621   2.876   0.195 -0.0808  0.4320  0.0457
 4763SOL     OW18823   6.184   2.249   3.626  0.4819  0.7389 -0.4770
 4763SOL    HW218824   6.253   2.315   3.631 -0.7600  2.1129 -0.7282
 4763SOL    HW318825   6.193   2.198   3.707  1.4568  1.2161 -0.2723
 4763SOL    MW418826   6.194   2.251   3.637  0.4467  0.9832 -0.4832
 4764SOL     OW18827   1.493   6.357   4.201  0.5166 -0.0094  0.6428
 4764SOL    HW218828   1.494   6.431   4.262  0.3843 -0.2901  0.9878
 4764SOL    HW318829   1.404   6.355   4.167  0.5052 -0.0437  0.6747
 4764SOL    MW418830   1.481   6.366   4.204  0.4976 -0.0509  0.6925
 4765SOL     OW18831   1.395   1.176   3.564  0.2510  0.3216  0.3774
 4765SOL    HW218832   1.324   1.211   3.510 -0.1002 -0.6110  0.2234
 4765SOL    HW318833   1.450   1.252   3.583 -1.1104  1.1934  1.0174
 4765SOL    MW418834   1.393   1.191   3.559  0.0250  0.3136  0.4415
 4766SOL     OW18835   2.658   4.534   1.489 -0.5020  0.1250  0.4771
 4766SOL    HW218836   2.583   4.485   1.522 -0.0088 -1.2686 -0.3925
 4766SOL    HW318837   2.620   4.605   1.438 -1.2365 -0.0794  0.7370
 4766SOL    MW418838   2.643   4.537   1.487 -0.5338 -0.0858  0.3967
 4767SOL     OW18839   4.043   1.568   2.195 -0.1531  0.2199  0.1627
 4767SOL    HW218840   4.064   1.627   2.122 -0.9188 -0.1013 -0.3320
 4767SOL    HW318841   3.964   1.605   2.234  0.3272  0.4626  0.9261
 4767SOL    MW418842   4.036   1.580   2.190 -0.1907  0.2096  0.1982
 4768SOL     OW18843   1.301   4.586   4.835  0.0262 -0.3274 -0.1463
 4768SOL    HW218844   1.275   4.639   4.759 -1.3297 -1.6870 -0.7034
 4768SOL    HW318845   1.388   4.618   4.858 -0.9937  2.6483  0.0565
 4768SOL    MW418846   1.309   4.597   4.828 -0.2873 -0.1142 -0.1931
 4769SOL     OW18847   5.645   5.342   5.380  1.0024 -0.3295  0.4627
 4769SOL    HW218848   5.681   5.277   5.441  0.9182  0.8079  1.7756
 4769SOL    HW318849   5.553   5.319   5.372  0.9353 -0.2847  1.0527
 4769SOL    MW418850   5.638   5.330   5.387  0.9825 -0.1735  0.7138
 4770SOL     OW18851   0.879   0.511   6.372  0.1592 -0.6756  0.1828
 4770SOL    HW218852   0.811   0.573   6.399  0.4512  0.3911 -1.4195
 4770SOL    HW318853   0.929   0.495   6.453 -0.2531  0.7691  0.7657
 4770SOL    MW418854   0.877   0.517   6.387  0.1434 -0.3442  0.0483
 4771SOL     OW18855   5.399   4.496   0.748  0.0438  0.1011 -0.0195
 4771SOL    HW218856   5.481   4.500   0.700 -0.2784 -1.2705 -0.7652
 4771SOL    HW318857   5.334   4.469   0.683 -0.8229  0.2712  0.7391
 4771SOL    MW418858   5.401   4.493   0.733 -0.1130 -0.0574 -0.0178
 4772SOL     OW18859   4.408   5.256   3.794  0.2952  0.1085  0.2149
 4772SOL    HW218860   4.439   5.284   3.708 -0.8914  0.9498  0.0412
 4772SOL    HW318861   4.398   5.337   3.844  0.6062 -0.3418  1.0228
 4772SOL    MW418862   4.411   5.270   3.790  0.1797  0.1601  0.2986
 4773SOL     OW18863   0.215   5.400   4.240 -0.1669 -0.3233  0.0678
 4773SOL    HW218864   0.195   5.423   4.331  0.3124 -0.3054  0.1709
 4773SOL    HW318865   0.159   5.325   4.221 -0.4691 -0.1537  0.2901
 4773SOL    MW418866   0.205   5.393   4.250 -0.1435 -0.2986  0.1107
 4774SOL     OW18867   3.406   4.267   3.008 -0.0691 -0.3781  0.2366
 4774SOL    HW218868   3.382   4.221   3.088  0.5686 -2.1469 -0.5244
 4774SOL    HW318869   3.324   4.276   2.959 -0.3387  0.0637  0.7617
 4774SOL    MW418870   3.392   4.262   3.012 -0.0206 -0.5532  0.2054
 4775SOL     OW18871   3.597   0.448   5.166 -0.2601 -0.0636  0.1815
 4775SOL    HW218872   3.647   0.485   5.093 -1.3339 -1.3258 -1.2656
 4775SOL    HW318873   3.506   0.472   5.148 -0.6220 -0.9643  0.7207
 4775SOL    MW418874   3.592   0.456   5.154 -0.4495 -0.3490  0.0617
 4776SOL     OW18875   0.295   5.208   0.919 -0.6830  0.5758  0.4474
 4776SOL    HW218876   0.293   5.124   0.874 -2.6342 -0.2425  1.9419
 4776SOL    HW318877   0.384   5.214   0.954 -1.2076 -2.2117  2.6176
 4776SOL    MW418878   0.306   5.198   0.918 -1.0097  0.1001  0.9309
 4777SOL     OW18879   1.476   1.481   3.299  0.2100  0.0875  0.5449
 4777SOL    HW218880   1.508   1.563   3.261 -0.4593  0.5439  0.9364
 4777SOL    HW318881   1.404   1.508   3.357 -0.8530 -0.8694 -0.2706
 4777SOL    MW418882   1.471   1.495   3.301 -0.0185  0.0215  0.4889
 4778SOL     OW18883   4.459   5.711   0.871 -0.2271 -0.1299 -0.1804
 4778SOL    HW218884   4.473   5.724   0.777  0.9774  0.3034  0.0457
 4778SOL    HW318885   4.440   5.798   0.905  0.6458 -0.0630  0.1720
 4778SOL    MW418886   4.458   5.724   0.863  0.0470 -0.0639 -0.1041
 4779SOL     OW18887   4.905   0.305   6.117  0.2858 -0.3780 -0.0401
 4779SOL    HW218888   4.949   0.385   6.091 -1.1631  0.2875 -0.5998
 4779SOL    HW318889   4.874   0.322   6.206 -0.8417  0.0790 -0.5006
 4779SOL    MW418890   4.906   0.318   6.125 -0.0541 -0.2299 -0.1747
 4780SOL     OW18891   2.394   6.067   4.483  0.1560 -0.3485  0.0042
 4780SOL    HW218892   2.417   6.004   4.552 -0.9859 -3.4097 -2.2081
 4780SOL    HW318893   2.479   6.091   4.445  0.6640 -0.0504  1.2801
 4780SOL    MW418894   2.409   6.062   4.487  0.0724 -0.7130 -0.1194
 4781SOL     OW18895   3.360   4.296   0.129 -0.1015 -0.1108 -0.0290
 4781SOL    HW218896   3.435   4.241   0.152 -1.4018 -1.3007  1.5855
 4781SOL    HW318897   3.316   4.249   0.058 -0.4058 -0.4157  0.3610
 4781SOL    MW418898   3.364   4.283   0.122 -0.3132 -0.3081  0.2355
 4782SOL     OW18899   2.594   3.476   4.694 -0.3139 -0.5749  0.1196
 4782SOL    HW218900   2.640   3.492   4.612  1.3983 -2.6161  0.6103
 4782SOL    HW318901   2.640   3.529   4.758  0.6557 -1.6942  0.3828
 4782SOL    MW418902   2.606   3.485   4.692  0.0400 -0.9919  0.2190
 4783SOL     OW18903   1.848   5.533   0.058 -0.4866  0.5024  0.3885
 4783SOL    HW218904   1.816   5.447   0.086  2.2310 -1.5075 -1.9314
 4783SOL    HW318905   1.923   5.550   0.115 -0.6267  1.0179  0.4212
 4783SOL    MW418906   1.854   5.524   0.069 -0.1465  0.3052  0.0867
 4784SOL     OW18907   6.261   1.919   5.268 -0.2177  0.1517  0.5331
 4784SOL    HW218908   6.299   1.897   5.353 -1.0391 -1.4386  0.5236
 4784SOL    HW318909   6.284   1.845   5.212 -0.2400  0.8795 -0.4607
 4784SOL    MW418910   6.269   1.906   5.272 -0.3290  0.0379  0.4007
 4785SOL     OW18911   4.711   3.076   3.480 -0.8326 -0.7288  0.0497
 4785SOL    HW218912   4.754   3.038   3.557 -0.5798 -1.3168 -0.3728
 4785SOL    HW318913   4.737   3.168   3.481  0.3283 -1.0428 -0.1132
 4785SOL    MW418914   4.720   3.083   3.490 -0.6461 -0.8478 -0.0276
 4786SOL     OW18915   2.582   0.591   4.137 -0.0211 -0.2199 -0.1482
 4786SOL    HW218916   2.546   0.563   4.220 -1.4676 -0.7232 -0.9118
 4786SOL    HW318917   2.589   0.511   4.084 -0.2995  0.2578 -0.9330
 4786SOL    MW418918   2.578   0.577   4.141 -0.2487 -0.2233 -0.3525
 4787SOL     OW18919   3.619   6.075   3.836  0.0234  0.0146 -0.2267
 4787SOL    HW218920   3.564   6.005   3.801 -2.6230  1.2171  1.1542
 4787SOL    HW318921   3.582   6.092   3.923  2.1497  1.4688  0.4595
 4787SOL    MW418922   3.607   6.068   3.843 -0.0452  0.3651  0.0460
 4788SOL     OW18923   2.518   5.946   4.216 -0.2150 -0.5874 -0.3716
 4788SOL    HW218924   2.606   5.915   4.236  0.2130 -0.0028 -1.2845
 4788SOL    HW318925   2.460   5.879   4.253  0.6478 -1.8695 -1.2259
 4788SOL    MW418926   2.522   5.933   4.223 -0.0447 -0.6794 -0.6047
 4789SOL     OW18927   2.199   0.739   2.012 -0.8864  0.1349 -0.3949
 4789SOL    HW218928   2.248   0.759   1.932  0.0447 -0.3767  0.0469
 4789SOL    HW318929   2.265   0.730   2.080 -1.7104  1.0499  0.5508
 4789SOL    MW418930   2.214   0.741   2.010 -0.8723  0.1881 -0.2118
 4790SOL     OW18931   1.697   6.197   1.391  0.3466 -0.1688 -0.0875
 4790SOL    HW218932   1.734   6.109   1.379  0.9798 -0.1796  1.6467
 4790SOL    HW318933   1.726   6.224   1.478  0.5110  1.9430 -0.7286
 4790SOL    MW418934   1.706   6.189   1.401  0.4518  0.1084  0.0567
 4791SOL     OW18935   3.916   1.626   5.644  0.0101 -0.4878  0.1866
 4791SOL    HW218936   3.954   1.539   5.654  0.1443 -0.2794  1.9193
 4791SOL    HW318937   3.904   1.657   5.734 -1.5710  0.6208 -0.3568
 4791SOL    MW418938   3.919   1.618   5.658 -0.1808 -0.3140  0.3435
 4792SOL     OW18939   3.455   5.640   5.424 -0.1206 -0.1110 -0.4399
 4792SOL    HW218940   3.443   5.577   5.494 -1.1311 -0.4383 -0.8922
 4792SOL    HW318941   3.468   5.724   5.469  0.7040 -0.5390  0.1498
 4792SOL    MW418942   3.455   5.643   5.439 -0.1451 -0.2106 -0.4217
 4793SOL     OW18943   1.852   2.063   0.910  0.4517 -0.0679  0.1850
 4793SOL    HW218944   1.848   2.035   0.818 -0.3622 -2.2602  0.8170
 4793SOL    HW318945   1.902   2.145   0.908  0.7916 -0.2562 -2.1557
 4793SOL    MW418946   1.858   2.070   0.897  0.3892 -0.3820 -0.0405
 4794SOL     OW18947   1.383   1.916   0.162 -0.1135  0.1145 -0.0700
 4794SOL    HW218948   1.479   1.925   0.161 -0.1747  0.8067 -0.2267
 4794SOL    HW318949   1.361   1.884   0.074 -0.1059  0.9183 -0.3736
 4794SOL    MW418950   1.393   1.913   0.150 -0.1206  0.3119 -0.1308
 4795SOL     OW18951   5.231   6.100   4.323 -0.4033  0.0601  0.1628
 4795SOL    HW218952   5.177   6.022   4.334  1.2903 -0.9790  1.7996
 4795SOL    HW318953   5.175   6.162   4.276 -2.2822 -1.6306  0.0407
 4795SOL    MW418954   5.217   6.098   4.319 -0.4278 -0.3001  0.3627
 4796SOL     OW18955   2.107   5.479   4.167 -0.0744  0.4547  0.2443
 4796SOL    HW218956   2.071   5.460   4.254 -0.8534 -0.6425 -0.2982
 4796SOL    HW318957   2.073   5.410   4.111  0.9666  0.7564 -0.8096
 4796SOL    MW418958   2.098   5.467   4.171 -0.0398  0.3497  0.0337
 4797SOL     OW18959   6.011   5.804   0.324 -0.7238  0.6128  0.2394
 4797SOL    HW218960   5.997   5.804   0.229 -0.7712  1.4685  0.2452
 4797SOL    HW318961   5.928   5.771   0.359 -0.3368 -0.7328 -0.0568
 4797SOL    MW418962   5.998   5.799   0.316 -0.6790  0.5481  0.2011
 4798SOL     OW18963   4.097   5.204   2.864 -0.1132 -0.4124  0.7510
 4798SOL    HW218964   4.152   5.277   2.835  0.6191 -1.3342 -0.2463
 4798SOL    HW318965   4.059   5.234   2.946  1.2334  0.5849  1.0393
 4798SOL    MW418966   4.099   5.217   2.871  0.1611 -0.4025  0.6575
 4799SOL     OW18967   1.859   3.241   2.043  0.4069  0.7158 -0.2631
 4799SOL    HW218968   1.827   3.326   2.012 -0.9324  0.3622  0.1068
 4799SOL    HW318969   1.941   3.262   2.087 -0.6220  2.0505  1.1374
 4799SOL    MW418970   1.866   3.255   2.045  0.0945  0.8452 -0.0295
 4800SOL     OW18971   1.499   6.032   1.055 -0.3844 -0.3301  0.3732
 4800SOL    HW218972   1.468   5.946   1.082  0.7448 -0.2606  1.9970
 4800SOL    HW318973   1.439   6.094   1.097  1.1083 -0.2373  2.4914
 4800SOL    MW418974   1.487   6.029   1.064 -0.0385 -0.3087  0.8669
 4801SOL     OW18975   6.349   2.920   3.685 -0.6866  0.3595  0.5725
 4801SOL    HW218976   6.370   2.925   3.778  0.0690  1.2936  0.3730
 4801SOL    HW318977   6.268   2.972   3.676 -1.0769 -0.2018  0.7826
 4801SOL    MW418978   6.341   2.928   3.696 -0.6384  0.4087  0.5739
 4802SOL     OW18979   6.233   3.573   4.601 -0.2083 -0.2153  0.4433
 4802SOL    HW218980   6.282   3.628   4.662 -0.2440  0.4182 -0.0977
 4802SOL    HW318981   6.248   3.612   4.515  1.2604 -2.1020 -0.2166
 4802SOL    MW418982   6.241   3.585   4.598 -0.0192 -0.3806  0.2849
 4803SOL     OW18983   4.436   2.859   3.567 -0.0704 -0.6923  0.2289
 4803SOL    HW218984   4.449   2.790   3.632 -0.1512 -1.3855 -0.4880
 4803SOL    HW318985   4.489   2.832   3.492  0.2270  0.2366  0.0868
 4803SOL    MW418986   4.445   2.846   3.566 -0.0418 -0.6612  0.1156
 4804SOL     OW18987   2.116   3.830   2.200 -0.3494  1.0014 -0.2431
 4804SOL    HW218988   2.117   3.790   2.287  0.0177 -0.4586 -0.8949
 4804SOL    HW318989   2.203   3.869   2.190 -0.6258  1.7839  0.2980
 4804SOL    MW418990   2.128   3.830   2.210 -0.3374  0.9120 -0.2577
 4805SOL     OW18991   3.121   5.176   2.351 -0.3032  0.4755 -0.5920
 4805SOL    HW218992   3.111   5.227   2.270 -1.9923  1.0910 -0.0240
 4805SOL    HW318993   3.215   5.178   2.368  0.0078  0.9259 -2.1673
 4805SOL    MW418994   3.132   5.183   2.342 -0.4850  0.6162 -0.7249
 4806SOL     OW18995   0.658   2.007   0.100  0.2508  0.3741 -0.2086
 4806SOL    HW218996   0.565   1.998   0.118 -0.5790 -1.5165 -4.3336
 4806SOL    HW318997   0.670   2.100   0.077 -0.2535  0.9168  1.5861
 4806SOL    MW418998   0.648   2.018   0.099  0.0748  0.1963 -0.5160
 4807SOL     OW18999   1.733   4.148   1.710  0.2405 -0.1052 -0.3712
 4807SOL    HW219000   1.757   4.066   1.752  1.4366  0.3514 -0.1371
 4807SOL    HW319001   1.646   4.168   1.745  0.4223 -0.6812  0.4460
 4807SOL    MW419002   1.725   4.140   1.720  0.4223 -0.1210 -0.2325
 4808SOL     OW19003   0.324   1.052   6.157 -0.1758  0.4046 -0.4736
 4808SOL    HW219004   0.364   1.010   6.081  1.5137  0.4898  0.3170
 4808SOL    HW319005   0.330   0.987   6.226 -2.5594 -0.0244 -0.5835
 4808SOL    MW419006   0.330   1.038   6.156 -0.2674  0.3593 -0.3838
 4809SOL     OW19007   0.303   2.688   6.134 -0.9643 -0.2930 -0.2073
 4809SOL    HW219008   0.277   2.597   6.149  0.1501 -0.6271 -0.1577
 4809SOL    HW319009   0.330   2.690   6.042  1.2676 -0.6327  0.3819
 4809SOL    MW419010   0.303   2.676   6.124 -0.5228 -0.3819 -0.1230
 4810SOL     OW19011   2.622   3.778   1.612  0.1739 -0.0257  0.2174
 4810SOL    HW219012   2.562   3.789   1.539  0.1810  0.3364  0.2621
 4810SOL    HW319013   2.687   3.715   1.580 -0.7292 -1.1116  0.4964
 4810SOL    MW419014   2.623   3.772   1.598  0.0557 -0.1212  0.2601
 4811SOL     OW19015   4.976   3.277   4.935  0.6072 -0.1716 -0.2514
 4811SOL    HW219016   5.036   3.280   5.009  1.6567  1.9525 -1.1063
 4811SOL    HW319017   5.012   3.340   4.872 -2.5794  1.3585 -0.7574
 4811SOL    MW419018   4.988   3.286   4.936  0.3252  0.3105 -0.4309
 4812SOL     OW19019   1.011   0.477   3.553  0.4236  0.3690  0.3097
 4812SOL    HW219020   0.965   0.539   3.610  1.6743  1.5160  0.1242
 4812SOL    HW319021   0.991   0.508   3.464 -2.6159 -2.1720 -0.0935
 4812SOL    MW419022   1.002   0.490   3.548  0.1876  0.1851  0.2321
 4813SOL     OW19023   0.170   1.877   6.016 -0.4547  0.1456 -0.2586
 4813SOL    HW219024   0.087   1.832   6.002  0.3330 -1.1683 -0.9190
 4813SOL    HW319025   0.227   1.811   6.055  0.4950  0.7909 -0.5159
 4813SOL    MW419026   0.167   1.863   6.019 -0.2255  0.0574 -0.3797
 4814SOL     OW19027   4.373   2.628   1.444 -0.0395 -0.0646  0.3266
 4814SOL    HW219028   4.349   2.711   1.486 -0.0151  0.9430 -1.5400
 4814SOL    HW319029   4.316   2.563   1.484 -0.1180  0.8532  1.7742
 4814SOL    MW419030   4.362   2.631   1.455 -0.0466  0.1894  0.2713
 4815SOL     OW19031   6.076   4.577   0.948  0.4351  0.5482  0.7024
 4815SOL    HW219032   6.072   4.659   0.997 -2.3675  0.2108  1.2129
 4815SOL    HW319033   5.993   4.533   0.968  0.8524 -1.3666 -1.3526
 4815SOL    MW419034   6.064   4.582   0.957  0.1204  0.2510  0.4987
 4816SOL     OW19035   4.621   4.410   0.651  0.0481  0.4221  0.0060
 4816SOL    HW219036   4.593   4.489   0.606  1.2789 -0.5119 -2.5678
 4816SOL    HW319037   4.712   4.428   0.676 -0.3492  0.5987  1.4259
 4816SOL    MW419038   4.629   4.422   0.649  0.1580  0.3222 -0.1462
 4817SOL     OW19039   5.273   3.917   5.536 -0.1309 -0.5162 -0.9332
 4817SOL    HW219040   5.230   3.975   5.474 -0.5959  0.4897  0.3053
 4817SOL    HW319041   5.215   3.915   5.612  1.7475  0.5448  0.6214
 4817SOL    MW419042   5.260   3.924   5.538  0.0556 -0.2435 -0.5647
 4818SOL     OW19043   3.459   3.871   4.595 -0.0596 -0.1253 -0.3974
 4818SOL    HW219044   3.429   3.918   4.672  0.5075  0.3843 -0.4851
 4818SOL    HW319045   3.380   3.861   4.541 -0.2399  0.4919 -0.2560
 4818SOL    MW419046   3.444   3.876   4.598 -0.0086  0.0234 -0.3903
 4819SOL     OW19047   0.358   0.798   0.851 -0.9136 -0.0196  0.2209
 4819SOL    HW219048   0.291   0.730   0.861 -0.6230 -0.2191  0.8503
 4819SOL    HW319049   0.434   0.752   0.813 -1.0936  0.1875 -0.4081
 4819SOL    MW419050   0.360   0.783   0.847 -0.8990 -0.0186  0.2209
 4820SOL     OW19051   1.407   1.707   5.117 -0.4493 -0.0917  0.3338
 4820SOL    HW219052   1.373   1.738   5.201 -0.8847  0.1076  0.0863
 4820SOL    HW319053   1.365   1.763   5.052  1.5871  1.2651  0.1051
 4820SOL    MW419054   1.397   1.718   5.120 -0.2381  0.1136  0.2710
 4821SOL     OW19055   1.895   0.625   5.511 -0.2417  0.3315 -0.4000
 4821SOL    HW219056   1.859   0.581   5.587 -0.6689 -1.1295 -1.4076
 4821SOL    HW319057   1.932   0.555   5.457  2.1721  1.5412 -0.4745
 4821SOL    MW419058   1.895   0.610   5.514  0.0204  0.2984 -0.5428
 4822SOL     OW19059   3.693   5.186   2.190  0.1300  0.4214 -0.1101
 4822SOL    HW219060   3.716   5.217   2.103  1.3333 -0.2661 -0.0571
 4822SOL    HW319061   3.684   5.266   2.242 -2.0439  0.9372 -1.1566
 4822SOL    MW419062   3.695   5.201   2.185  0.0020  0.3987 -0.2412
 4823SOL     OW19063   0.999   3.282   5.925  0.0552  0.4111 -0.3408
 4823SOL    HW219064   1.006   3.204   5.979 -1.7139  0.2083 -0.3534
 4823SOL    HW319065   0.978   3.250   5.838 -2.4174  0.8876 -0.0016
 4823SOL    MW419066   0.997   3.268   5.921 -0.5045  0.4472 -0.2977
 4824SOL     OW19067   0.091   5.598   0.134 -0.4880  0.2600  0.1581
 4824SOL    HW219068   0.086   5.512   0.175  1.7493  0.6468  1.3964
 4824SOL    HW319069   0.043   5.588   0.052  1.1111 -2.6930 -0.5542
 4824SOL    MW419070   0.084   5.585   0.128  0.0182 -0.0786  0.2275
 4825SOL     OW19071   6.249   5.639   2.291 -0.2533  0.1635 -0.2261
 4825SOL    HW219072   6.343   5.640   2.273 -0.3559  1.8441 -0.7695
 4825SOL    HW319073   6.239   5.689   2.372 -0.4111 -2.6237  1.6354
 4825SOL    MW419074   6.260   5.645   2.300 -0.2876  0.0175 -0.0522
 4826SOL     OW19075   5.631   2.121   0.770  0.6383 -0.2351 -0.3360
 4826SOL    HW219076   5.674   2.096   0.688  0.7045  0.9684 -0.6827
 4826SOL    HW319077   5.623   2.216   0.765  1.5115 -0.0190  1.4592
 4826SOL    MW419078   5.636   2.130   0.759  0.7622 -0.0478 -0.1449
 4827SOL     OW19079   3.194   3.688   2.249  0.0450 -0.7393 -0.1698
 4827SOL    HW219080   3.162   3.756   2.190 -0.1992  0.0097  0.8035
 4827SOL    HW319081   3.287   3.708   2.261  0.0351 -0.7459 -0.0857
 4827SOL    MW419082   3.202   3.699   2.243  0.0115 -0.6414 -0.0303
 4828SOL     OW19083   4.226   1.846   3.762  0.1434 -0.1405 -0.2654
 4828SOL    HW219084   4.294   1.858   3.829  0.5797  0.7548 -0.8624
 4828SOL    HW319085   4.162   1.915   3.780  0.9060  0.9394 -1.5411
 4828SOL    MW419086   4.227   1.856   3.773  0.3016  0.1201 -0.5125
 4829SOL     OW19087   6.127   1.614   5.850  0.1492  0.3362 -0.2167
 4829SOL    HW219088   6.128   1.637   5.757 -0.9551 -0.6444 -0.4857
 4829SOL    HW319089   6.057   1.669   5.887  1.1645  1.3683  0.2308
 4829SOL    MW419090   6.118   1.625   5.842  0.1375  0.3430 -0.1931
 4830SOL     OW19091   4.064   4.287   1.260  0.1782  0.0666  0.1197
 4830SOL    HW219092   4.041   4.376   1.288 -1.6586 -0.1172 -0.6578
 4830SOL    HW319093   4.123   4.300   1.185  1.5454  0.5790  1.2422
 4830SOL    MW419094   4.069   4.301   1.254  0.1162  0.1099  0.1652
 4831SOL     OW19095   0.171   0.242   4.204  0.1255  0.4331 -0.0252
 4831SOL    HW219096   0.105   0.266   4.140  0.8953  1.1460 -0.5700
 4831SOL    HW319097   0.245   0.212   4.152 -0.4606 -2.4161  0.5882
 4831SOL    MW419098   0.172   0.241   4.189  0.1497  0.1513 -0.0162
 4832SOL     OW19099   5.787   3.990   5.200 -0.0405  0.2751  0.4739
 4832SOL    HW219100   5.814   3.898   5.196 -2.4028 -0.4472 -0.7086
 4832SOL    HW319101   5.794   4.021   5.109 -0.9642  0.6966  0.5348
 4832SOL    MW419102   5.791   3.982   5.187 -0.4740  0.2354  0.3259
 4833SOL     OW19103   1.507   6.236   0.262 -0.4185 -0.2695  0.5936
 4833SOL    HW219104   1.530   6.238   0.169 -2.2734 -1.4678  0.0546
 4833SOL    HW319105   1.412   6.251   0.263 -0.3937 -0.0948  2.3196
 4833SOL    MW419106   1.497   6.239   0.250 -0.6600 -0.4046  0.7502
 4834SOL     OW19107   5.049   0.769   4.896  0.0805  0.3590 -0.5870
 4834SOL    HW219108   5.125   0.792   4.949  1.9942 -2.8716 -1.6402
 4834SOL    HW319109   5.086   0.734   4.814 -2.5358 -0.8334 -1.3785
 4834SOL    MW419110   5.064   0.768   4.892 -0.0122 -0.2246 -0.8303
 4835SOL     OW19111   5.447   1.696   1.322  0.3908  0.3199  0.1897
 4835SOL    HW219112   5.465   1.751   1.246  1.8056  0.8671  0.8888
 4835SOL    HW319113   5.422   1.757   1.391 -0.6311 -0.1551  0.2640
 4835SOL    MW419114   5.446   1.711   1.321  0.4426  0.3294  0.2918
 4836SOL     OW19115   3.211   1.374   5.754 -0.0466  0.4142 -0.1466
 4836SOL    HW219116   3.237   1.465   5.771 -0.6765  0.6462 -0.3695
 4836SOL    HW319117   3.174   1.344   5.837 -1.2630  0.8817 -0.4985
 4836SOL    MW419118   3.209   1.382   5.767 -0.2902  0.5065 -0.2224
 4837SOL     OW19119   2.704   3.710   1.137 -0.0101  0.1095 -0.0359
 4837SOL    HW219120   2.773   3.765   1.173 -0.5197  0.8785 -0.2021
 4837SOL    HW319121   2.750   3.637   1.096  0.8986  1.8219 -2.3060
 4837SOL    MW419122   2.719   3.708   1.136  0.0426  0.4369 -0.3573
 4838SOL     OW19123   0.328   1.153   2.438  0.7746  0.0108  0.2668
 4838SOL    HW219124   0.406   1.133   2.386  0.9634  2.0263 -0.3263
 4838SOL    HW319125   0.278   1.214   2.383 -1.4601 -1.5154  0.4653
 4838SOL    MW419126   0.331   1.159   2.424  0.5047  0.0754  0.2147
 4839SOL     OW19127   0.542   4.993   4.674 -0.3830 -0.7103  0.4399
 4839SOL    HW219128   0.481   5.001   4.748  0.1579 -0.2990  0.8519
 4839SOL    HW319129   0.607   4.930   4.704  0.8367  0.7590  1.0426
 4839SOL    MW419130   0.543   4.986   4.688 -0.1507 -0.4621  0.5738
 4840SOL     OW19131   3.096   2.702   2.011 -0.3397 -0.0373  0.5090
 4840SOL    HW219132   3.005   2.675   2.024 -0.0480 -1.3225 -0.0009
 4840SOL    HW319133   3.107   2.777   2.070 -2.0165  0.8016 -0.1659
 4840SOL    MW419134   3.085   2.709   2.021 -0.5225 -0.0962  0.3527
 4841SOL     OW19135   5.274   2.382   0.907  0.2458 -0.4810  0.4380
 4841SOL    HW219136   5.215   2.458   0.907  1.9302  0.9442  2.5551
 4841SOL    HW319137   5.216   2.307   0.918 -1.2941  0.7075  0.8114
 4841SOL    MW419138   5.258   2.382   0.908  0.2649 -0.1362  0.7666
 4842SOL     OW19139   1.085   6.291   2.065 -0.2226  0.9595 -0.1746
 4842SOL    HW219140   1.064   6.262   1.977 -1.5767  0.7247  0.2004
 4842SOL    HW319141   1.156   6.354   2.053  1.8773 -1.4337 -1.1147
 4842SOL    MW419142   1.092   6.296   2.052 -0.1242  0.6127 -0.2492
 4843SOL     OW19143   4.389   3.727   1.979 -0.8723 -0.2402  0.3214
 4843SOL    HW219144   4.351   3.726   2.067  0.9416  0.2433  1.1748
 4843SOL    HW319145   4.357   3.807   1.939  0.4287  0.9998  1.6232
 4843SOL    MW419146   4.380   3.737   1.985 -0.4613 -0.0128  0.6057
 4844SOL     OW19147   5.806   3.121   3.103  0.2039 -0.7116  1.0409
 4844SOL    HW219148   5.825   3.031   3.075 -0.6919 -0.3663 -0.8532
 4844SOL    HW319149   5.853   3.176   3.041 -2.1249  0.0932 -0.1413
 4844SOL    MW419150   5.815   3.116   3.091 -0.2215 -0.5598  0.6350
 4845SOL     OW19151   3.312   4.562   0.308 -0.3985  0.2546 -0.2387
 4845SOL    HW219152   3.392   4.613   0.314  0.2624 -0.8830  2.1039
 4845SOL    HW319153   3.332   4.492   0.245  0.2983  0.2718 -0.0448
 4845SOL    MW419154   3.325   4.559   0.301 -0.2194  0.1068  0.0959
 4846SOL     OW19155   4.841   2.259   1.328  0.4327  0.1476  0.0548
 4846SOL    HW219156   4.875   2.287   1.243  0.1136  1.5310  0.3546
 4846SOL    HW319157   4.746   2.253   1.315  0.2437  1.5899  0.6141
 4846SOL    MW419158   4.833   2.262   1.315  0.3656  0.5204  0.1682
 4847SOL     OW19159   5.969   0.851   5.277 -0.0733  0.0049  0.1673
 4847SOL    HW219160   6.048   0.833   5.226  0.7214 -0.1497  1.3999
 4847SOL    HW319161   5.972   0.946   5.294 -1.4464  0.4488 -1.8097
 4847SOL    MW419162   5.980   0.862   5.273 -0.1496  0.0431  0.0691
 4848SOL     OW19163   3.118   2.844   2.948 -0.6201  0.8663 -0.0587
 4848SOL    HW219164   3.031   2.823   2.914 -0.9683  0.7906  0.8737
 4848SOL    HW319165   3.178   2.795   2.891 -1.3205 -1.1635  0.8615
 4848SOL    MW419166   3.115   2.835   2.936 -0.7584  0.5885  0.1857
 4849SOL     OW19167   2.062   6.234   5.453 -0.2231  0.4410  0.3616
 4849SOL    HW219168   2.095   6.157   5.408 -1.6270 -0.1345  0.2817
 4849SOL    HW319169   2.105   6.232   5.539 -0.2123 -0.4053  0.3422
 4849SOL    MW419170   2.072   6.224   5.459 -0.4069  0.2534  0.3485
 4850SOL     OW19171   4.716   4.699   5.232  0.5752  0.1077  0.1250
 4850SOL    HW219172   4.788   4.762   5.227  0.6720  0.1164  1.2551
 4850SOL    HW319173   4.738   4.632   5.167 -0.1726  1.8172 -2.0094
 4850SOL    MW419174   4.729   4.698   5.223  0.4893  0.3344 -0.0075
 4851SOL     OW19175   5.974   5.059   3.108  0.2904 -0.0805  0.5773
 4851SOL    HW219176   6.045   5.118   3.082 -0.7415  0.5432 -0.9879
 4851SOL    HW319177   5.998   4.975   3.068 -0.1292  0.2800 -0.4550
 4851SOL    MW419178   5.987   5.055   3.099  0.0989  0.0494  0.2346
 4852SOL     OW19179   2.174   5.225   2.793 -0.2413 -0.3697 -0.4908
 4852SOL    HW219180   2.082   5.250   2.798  0.0977  0.7782  0.9255
 4852SOL    HW319181   2.178   5.137   2.831 -0.4876  0.4852  1.6711
 4852SOL    MW419182   2.162   5.217   2.798 -0.2291 -0.1055 -0.0187
 4853SOL     OW19183   4.539   2.345   2.788 -0.1313  0.1287 -0.2407
 4853SOL    HW219184   4.599   2.403   2.834 -0.2506  0.3557 -0.3685
 4853SOL    HW319185   4.534   2.267   2.842  0.6953 -0.1091 -0.4899
 4853SOL    MW419186   4.547   2.343   2.801 -0.0380  0.1273 -0.2904
 4854SOL     OW19187   3.247   1.298   2.931 -0.0081  0.1424 -0.3114
 4854SOL    HW219188   3.251   1.387   2.896 -1.1104  0.8574  1.2264
 4854SOL    HW319189   3.330   1.259   2.907  1.6172  2.4640  1.0981
 4854SOL    MW419190   3.258   1.305   2.923  0.0609  0.5431  0.0774
 4855SOL     OW19191   2.312   2.169   0.208  0.4752  0.0671 -0.3492
 4855SOL    HW219192   2.258   2.107   0.160 -0.7584  0.3387  0.6421
 4855SOL    HW319193   2.339   2.122   0.287  0.6765  0.3438 -0.2512
 4855SOL    MW419194   2.309   2.155   0.212  0.3390  0.1394 -0.2055
 4856SOL     OW19195   4.862   3.438   4.703 -0.2933 -0.2687  0.1345
 4856SOL    HW219196   4.800   3.366   4.719 -1.3930  0.5641 -0.2176
 4856SOL    HW319197   4.875   3.438   4.608  1.4870 -1.4026  0.3422
 4856SOL    MW419198   4.855   3.428   4.692 -0.2035 -0.3084  0.1154
 4857SOL     OW19199   5.089   2.608   0.946  0.3543  0.3134 -0.0071
 4857SOL    HW219200   5.045   2.607   0.862  0.2537 -0.6852  0.0486
 4857SOL    HW319201   5.142   2.689   0.945  2.1760 -0.8065 -1.9853
 4857SOL    MW419202   5.090   2.619   0.935  0.5814  0.0339 -0.2608
 4858SOL     OW19203   1.866   2.343   2.601  0.4956  0.4754  0.0874
 4858SOL    HW219204   1.846   2.404   2.672  3.7055  5.2669 -2.5826
 4858SOL    HW319205   1.796   2.356   2.537 -0.2592 -0.8470  0.5991
 4858SOL    MW419206   1.854   2.353   2.602  0.8195  0.9331 -0.1973
 4859SOL     OW19207   6.013   4.521   5.075 -0.3562  0.0276 -0.1645
 4859SOL    HW219208   6.095   4.504   5.120 -0.5505 -1.9250 -0.4697
 4859SOL    HW319209   5.980   4.602   5.114  0.5190 -0.4736  1.6973
 4859SOL    MW419210   6.019   4.529   5.086 -0.2664 -0.2961  0.0409
 4860SOL     OW19211   2.725   2.978   4.609  0.4757  0.1211  0.1939
 4860SOL    HW219212   2.713   3.057   4.662 -0.7369 -0.1118  0.2989
 4860SOL    HW319213   2.809   2.991   4.566  0.3573  1.4283  0.2928
 4860SOL    MW419214   2.734   2.991   4.610  0.3001  0.2628  0.2208
 4861SOL     OW19215   6.332   4.009   1.490 -0.4590  0.0988 -0.3381
 4861SOL    HW219216   6.315   4.066   1.566 -0.5118 -0.1729 -0.1456
 4861SOL    HW319217   6.267   4.036   1.425  1.3846  2.3387 -1.3973
 4861SOL    MW419218   6.321   4.020   1.492 -0.2227  0.3585 -0.4525
 4862SOL     OW19219   5.291   5.763   0.047 -0.5970  0.3220 -0.1165
 4862SOL    HW219220   5.196   5.753   0.048 -0.4808 -1.3906 -1.2971
 4862SOL    HW319221   5.309   5.810  -0.035 -0.4623  1.5288  0.5838
 4862SOL    MW419222   5.281   5.768   0.036 -0.5639  0.2553 -0.1799
 4863SOL     OW19223   2.684   2.234   1.231  0.3095  0.2396  0.3810
 4863SOL    HW219224   2.696   2.218   1.325  1.5600  0.2854  0.2475
 4863SOL    HW319225   2.757   2.291   1.207  1.6716 -2.0606 -1.1984
 4863SOL    MW419226   2.695   2.240   1.241  0.6542 -0.0578  0.1550
 4864SOL     OW19227   2.755   4.652   0.425 -0.2717 -0.1478  0.3431
 4864SOL    HW219228   2.725   4.707   0.497 -0.6506  0.2037 -0.0742
 4864SOL    HW319229   2.817   4.591   0.465  0.3061  0.7147  0.7739
 4864SOL    MW419230   2.759   4.651   0.440 -0.2455  0.0124  0.3449
 4865SOL     OW19231   1.354   0.673   1.608  0.2062 -0.0167 -0.5329
 4865SOL    HW219232   1.330   0.596   1.661  1.3085 -1.3223 -1.8673
 4865SOL    HW319233   1.431   0.709   1.652 -0.7751  0.8666  0.5560
 4865SOL    MW419234   1.361   0.667   1.621  0.2222 -0.0724 -0.5653
 4866SOL     OW19235   0.794   0.903   6.323 -0.3644 -0.0766  0.5518
 4866SOL    HW219236   0.887   0.895   6.347 -0.2255  0.1143  0.0947
 4866SOL    HW319237   0.758   0.964   6.386  0.1531  0.9481 -0.1081
 4866SOL    MW419238   0.802   0.910   6.334 -0.2778  0.0838  0.4044
 4867SOL     OW19239   2.192   0.967   5.044  0.5027 -0.0367 -0.1795
 4867SOL    HW219240   2.111   0.949   5.091 -0.9920  0.0098 -2.6081
 4867SOL    HW319241   2.235   1.036   5.095 -1.3443  0.4739  0.7441
 4867SOL    MW419242   2.187   0.973   5.057  0.0618  0.0368 -0.3781
 4868SOL     OW19243   5.555   2.905   1.510  0.2369  0.4542  0.4007
 4868SOL    HW219244   5.649   2.892   1.501  0.5408  1.7582  1.3904
 4868SOL    HW319245   5.533   2.863   1.593  0.3663  1.9505  1.2315
 4868SOL    MW419246   5.564   2.898   1.520  0.2941  0.8236  0.6409
 4869SOL     OW19247   0.135   1.829   3.496 -1.0830  0.0444  0.0288
 4869SOL    HW219248   0.127   1.828   3.591 -0.5406  0.6915  0.0850
 4869SOL    HW319249   0.045   1.824   3.465 -1.2387 -0.6326  0.5691
 4869SOL    MW419250   0.122   1.828   3.505 -1.0320  0.0404  0.1075
 4870SOL     OW19251   0.141   3.317   4.960 -0.3851 -0.6085  0.2664
 4870SOL    HW219252   0.155   3.391   5.020 -0.3418 -1.4674  1.3389
 4870SOL    HW319253   0.214   3.323   4.898  0.3489 -0.4813  1.1175
 4870SOL    MW419254   0.153   3.328   4.960 -0.2826 -0.7050  0.5202
 4871SOL     OW19255   2.775   5.790   3.510 -0.0657 -0.1151  0.7422
 4871SOL    HW219256   2.680   5.782   3.513 -0.0343 -0.4406  0.9302
 4871SOL    HW319257   2.806   5.734   3.582  0.3696 -1.9094 -0.7605
 4871SOL    MW419258   2.767   5.782   3.520 -0.0041 -0.3948  0.5687
 4872SOL     OW19259   3.819   5.508   2.603  0.0313  0.0426  0.2305
 4872SOL    HW219260   3.745   5.512   2.663 -1.9962 -1.5939 -1.9913
 4872SOL    HW319261   3.831   5.599   2.574  0.7441  0.7733  2.6133
 4872SOL    MW419262   3.811   5.521   2.607 -0.1422 -0.0769  0.2518
 4873SOL     OW19263   1.713   1.858   3.102 -0.5595  0.1435  0.1389
 4873SOL    HW219264   1.677   1.947   3.100 -1.2928 -0.1615 -0.6081
 4873SOL    HW319265   1.785   1.863   3.165 -0.3080  1.3717 -0.2219
 4873SOL    MW419266   1.717   1.871   3.110 -0.6231  0.2653 -0.0073
 4874SOL     OW19267   0.980   2.007   0.269  0.2492  0.3025  0.6225
 4874SOL    HW219268   0.890   1.973   0.269  0.4283 -0.2158 -0.1201
 4874SOL    HW319269   1.028   1.945   0.323  0.4918 -0.4367 -0.3948
 4874SOL    MW419270   0.974   1.994   0.276  0.3049  0.1366  0.3903
 4875SOL     OW19271   4.020   6.400   1.419  0.9961  0.1381 -0.2416
 4875SOL    HW219272   3.981   6.411   1.332 -1.5233 -0.3843  0.7409
 4875SOL    HW319273   3.956   6.439   1.479  1.6190 -1.4389  1.5425
 4875SOL    MW419274   4.006   6.406   1.415  0.7459 -0.1389  0.1234
 4876SOL     OW19275   4.729   5.035   5.100 -0.2113 -0.5851 -0.3062
 4876SOL    HW219276   4.695   4.951   5.131 -1.7009  0.5084  1.2328
 4876SOL    HW319277   4.651   5.082   5.069  0.5090  0.4227 -0.6383
 4876SOL    MW419278   4.714   5.030   5.100 -0.3128 -0.3079 -0.1469
 4877SOL     OW19279   3.238   3.529   4.059 -0.1276  0.2143  0.5475
 4877SOL    HW219280   3.233   3.444   4.015 -0.1655  0.6273 -0.2687
 4877SOL    HW319281   3.247   3.592   3.987  2.4574  0.7110  1.2193
 4877SOL    MW419282   3.239   3.526   4.044  0.2084  0.3343  0.5285
 4878SOL     OW19283   4.310   0.783   1.178  0.1468  0.0076 -0.0389
 4878SOL    HW219284   4.318   0.821   1.266 -0.8261 -0.5798  0.3158
 4878SOL    HW319285   4.390   0.732   1.167  1.2705  1.7164 -0.3374
 4878SOL    MW419286   4.321   0.782   1.188  0.1667  0.1555 -0.0315
 4879SOL     OW19287   1.315   3.369   3.223 -0.0321  0.2336 -0.5684
 4879SOL    HW219288   1.331   3.280   3.251  0.0685  0.4796  0.1647
 4879SOL    HW319289   1.383   3.387   3.158  0.7655  0.2127  0.2393
 4879SOL    MW419290   1.326   3.360   3.218  0.0864  0.2633 -0.3651
 4880SOL     OW19291   5.646   2.898   0.198  0.3777  0.0306  0.4263
 4880SOL    HW219292   5.694   2.879   0.279  0.2916  1.7341  0.9044
 4880SOL    HW319293   5.556   2.871   0.217  0.3173  0.5982  0.9804
 4880SOL    MW419294   5.640   2.892   0.212  0.3584  0.3303  0.5625
 4881SOL     OW19295   5.728   3.379   2.446  0.6622 -0.7999 -0.5874
 4881SOL    HW219296   5.789   3.450   2.428  0.1431 -0.5409 -1.4138
 4881SOL    HW319297   5.752   3.310   2.384  0.1340 -0.6949 -0.9236
 4881SOL    MW419298   5.739   3.379   2.435  0.5240 -0.7519 -0.7408
 4882SOL     OW19299   0.349   0.431   5.360  0.3256  1.1857  0.5951
 4882SOL    HW219300   0.266   0.413   5.404 -0.8417  1.4820 -1.3601
 4882SOL    HW319301   0.356   0.526   5.360  1.1977  1.1317  1.6488
 4882SOL    MW419302   0.339   0.441   5.366  0.2866  1.2177  0.4761
 4883SOL     OW19303   0.955   1.543   3.390  0.3945 -0.1783 -0.0870
 4883SOL    HW219304   0.878   1.599   3.390  0.1973 -0.4467  0.4734
 4883SOL    HW319305   0.925   1.460   3.426  0.6419 -0.7219 -1.1005
 4883SOL    MW419306   0.941   1.539   3.395  0.4011 -0.2854 -0.1468
 4884SOL     OW19307   1.566   3.610   4.786 -0.0448 -0.0653  0.3302
 4884SOL    HW219308   1.579   3.517   4.807  2.6009  0.2423  0.3684
 4884SOL    HW319309   1.627   3.656   4.843 -1.0555  1.7073  0.0449
 4884SOL    MW419310   1.576   3.604   4.796  0.1709  0.2092  0.2976
 4885SOL     OW19311   5.166   5.792   6.149  0.4756  0.1318 -0.2222
 4885SOL    HW219312   5.122   5.872   6.180 -0.5690 -0.2531 -0.6844
 4885SOL    HW319313   5.257   5.803   6.178 -0.0057  0.7245  1.1737
 4885SOL    MW419314   5.172   5.804   6.157  0.2743  0.1592 -0.0990
 4886SOL     OW19315   1.140   0.956   2.699  0.3569  0.1261 -0.3068
 4886SOL    HW219316   1.214   0.934   2.756 -0.0050 -0.4872 -0.0654
 4886SOL    HW319317   1.179   1.009   2.630  0.7157  1.3829  0.8101
 4886SOL    MW419318   1.155   0.960   2.698  0.3565  0.2110 -0.1276
 4887SOL     OW19319   4.830   1.202   5.857 -0.4539 -0.4713 -0.1930
 4887SOL    HW219320   4.863   1.288   5.832  0.7640 -1.0738 -0.7360
 4887SOL    HW319321   4.738   1.217   5.879 -0.0494  1.1052  0.5351
 4887SOL    MW419322   4.822   1.215   5.857 -0.2398 -0.3428 -0.1686
 4888SOL     OW19323   4.850   0.256   2.616 -0.5241 -0.0313 -0.2553
 4888SOL    HW219324   4.826   0.265   2.524  0.0756  0.4192 -0.3717
 4888SOL    HW319325   4.945   0.260   2.617 -0.4663 -1.1046  0.2743
 4888SOL    MW419326   4.859   0.258   2.604 -0.4373 -0.1135 -0.2008
 4889SOL     OW19327   4.767   4.682   2.908 -0.4768  0.3197  0.0333
 4889SOL    HW219328   4.800   4.665   2.820 -0.3231  1.1305 -0.0705
 4889SOL    HW319329   4.845   4.677   2.964 -0.3551  1.0954 -0.0577
 4889SOL    MW419330   4.782   4.679   2.904 -0.4404  0.5291  0.0076
 4890SOL     OW19331   1.333   3.548   1.476  0.4680 -0.5838  0.6558
 4890SOL    HW219332   1.412   3.530   1.425 -0.4351 -0.6035 -0.7923
 4890SOL    HW319333   1.262   3.510   1.425 -0.6567  0.7203  1.1659
 4890SOL    MW419334   1.334   3.541   1.462  0.2005 -0.4143  0.5321
 4891SOL     OW19335   0.673   4.872   2.229  0.4206 -0.3334 -0.4306
 4891SOL    HW219336   0.673   4.933   2.155  0.0639  0.2226  0.0137
 4891SOL    HW319337   0.606   4.808   2.207 -1.1703  0.9877  0.3054
 4891SOL    MW419338   0.664   4.872   2.217  0.1637 -0.0857 -0.2749
 4892SOL     OW19339   4.096   4.875   1.635 -0.0061  0.5543 -0.4200
 4892SOL    HW219340   4.152   4.951   1.649 -0.8148  0.7329  2.3045
 4892SOL    HW319341   4.088   4.834   1.721 -0.0831 -2.3320 -1.6714
 4892SOL    MW419342   4.102   4.880   1.648 -0.1229  0.1971 -0.2256
 4893SOL     OW19343   3.666   1.575   1.494 -0.2943  0.1192  0.3371
 4893SOL    HW219344   3.606   1.606   1.563 -0.1505 -1.4136  1.1997
 4893SOL    HW319345   3.746   1.625   1.508 -1.8036  3.5163 -1.9403
 4893SOL    MW419346   3.668   1.586   1.505 -0.4745  0.3652  0.1504
 4894SOL     OW19347   5.811   2.480   6.247 -0.2264 -0.0899  0.2649
 4894SOL    HW219348   5.750   2.407   6.237 -1.0077  0.7609 -1.9961
 4894SOL    HW319349   5.759   2.557   6.228  0.5651  1.1213  2.6576
 4894SOL    MW419350   5.796   2.480   6.243 -0.2251  0.1822  0.2823
 4895SOL     OW19351   3.458   4.234   3.876  0.7040  0.1598  0.4407
 4895SOL    HW219352   3.475   4.262   3.966  0.4337 -0.3149  0.6449
 4895SOL    HW319353   3.365   4.249   3.863  0.5699 -0.5568  0.5310
 4895SOL    MW419354   3.448   4.239   3.886  0.6506  0.0026  0.4795
 4896SOL     OW19355   6.328   2.282   4.044  0.1984  0.5961 -0.2186
 4896SOL    HW219356   6.259   2.233   4.089 -0.8087  0.6993 -1.5657
 4896SOL    HW319357   6.305   2.374   4.056 -1.1751  0.6239 -2.4193
 4896SOL    MW419358   6.316   2.287   4.051 -0.1157  0.6134 -0.6867
 4897SOL     OW19359   0.822   2.930   0.826 -0.3184  0.3776  0.0090
 4897SOL    HW219360   0.917   2.939   0.812 -0.0995 -1.1676  0.3572
 4897SOL    HW319361   0.814   2.870   0.899 -1.5822 -1.6156 -1.6652
 4897SOL    MW419362   0.834   2.923   0.833 -0.4563 -0.0892 -0.1659
 4898SOL     OW19363   3.470   5.095   6.032 -0.3324  0.2249  0.1657
 4898SOL    HW219364   3.433   5.158   6.094 -0.3084  0.4809 -0.0776
 4898SOL    HW319365   3.405   5.025   6.026  0.0655 -0.2558  1.1770
 4898SOL    MW419366   3.457   5.094   6.039 -0.2768  0.1952  0.2671
 4899SOL     OW19367   2.709   1.086   2.226 -0.0014 -0.0895  0.3846
 4899SOL    HW219368   2.711   0.995   2.196 -0.6809  0.0287 -0.0363
 4899SOL    HW319369   2.754   1.135   2.158  0.0446 -0.0591  0.4365
 4899SOL    MW419370   2.715   1.080   2.213 -0.0850 -0.0699  0.3359
 4900SOL     OW19371   0.769   3.809   1.358 -0.1694 -0.1810  0.1953
 4900SOL    HW219372   0.674   3.800   1.345  0.0252 -0.6219 -1.0497
 4900SOL    HW319373   0.806   3.806   1.270  0.8314  2.5832  0.4402
 4900SOL    MW419374   0.761   3.807   1.344 -0.0117  0.1255  0.0634
 4901SOL     OW19375   4.574   2.844   5.012 -0.6968  0.4439  0.5160
 4901SOL    HW219376   4.498   2.813   4.963 -0.4583  0.6278  0.0122
 4901SOL    HW319377   4.567   2.939   5.010  0.0349  0.5017 -0.3676
 4901SOL    MW419378   4.563   2.852   5.005 -0.5688  0.4758  0.3329
 4902SOL     OW19379   0.627   2.684   0.466 -0.0110  0.2959  0.0805
 4902SOL    HW219380   0.548   2.660   0.516  1.7192 -0.4852  2.6454
 4902SOL    HW319381   0.677   2.739   0.526  2.7765 -1.7114 -0.2097
 4902SOL    MW419382   0.623   2.688   0.481  0.5850 -0.0720  0.3806
 4903SOL     OW19383   0.115   2.066   1.546 -0.3172  0.3175  0.1885
 4903SOL    HW219384   0.068   2.054   1.463 -0.5418  0.2759  0.3217
 4903SOL    HW319385   0.118   2.161   1.558  0.1185  0.3429 -0.0967
 4903SOL    MW419386   0.110   2.077   1.537 -0.2893  0.3154  0.1685
 4904SOL     OW19387   1.465   5.087   3.715 -0.1374  0.2929  0.4031
 4904SOL    HW219388   1.397   5.128   3.769 -1.7878  0.1258 -1.4444
 4904SOL    HW319389   1.449   5.120   3.626  0.7483 -1.5701 -0.5014
 4904SOL    MW419390   1.454   5.097   3.710 -0.2383  0.0251  0.0400
 4905SOL     OW19391   4.137   0.129   3.438  0.0111 -0.0385 -0.3026
 4905SOL    HW219392   4.088   0.126   3.521  0.3259  1.0313 -0.0525
 4905SOL    HW319393   4.102   0.057   3.386  0.8097 -1.6820  1.3096
 4905SOL    MW419394   4.126   0.119   3.442  0.1580 -0.1142 -0.0569
 4906SOL     OW19395   4.416   1.856   5.622 -0.3602 -0.2834  0.4133
 4906SOL    HW219396   4.428   1.850   5.528  0.5031 -1.0248  0.5588
 4906SOL    HW319397   4.344   1.795   5.641 -0.7916  0.1536  0.1946
 4906SOL    MW419398   4.408   1.847   5.612 -0.3032 -0.3236  0.4037
 4907SOL     OW19399   6.330   1.416   2.902  0.2028  0.4117 -0.4500
 4907SOL    HW219400   6.392   1.484   2.927  0.5941 -1.0286  3.0280
 4907SOL    HW319401   6.384   1.346   2.866  0.4094  0.0046  0.6134
 4907SOL    MW419402   6.345   1.416   2.900  0.2817  0.1680  0.1492
 4908SOL     OW19403   4.275   0.440   5.544  0.1659 -0.2978  0.1775
 4908SOL    HW219404   4.363   0.411   5.517 -0.3682 -1.7241 -0.1067
 4908SOL    HW319405   4.251   0.379   5.614 -0.7671 -0.1732 -0.0352
 4908SOL    MW419406   4.284   0.428   5.549 -0.0277 -0.4695  0.1119
 4909SOL     OW19407   5.911   1.217   5.898 -0.1580 -0.3925  0.2645
 4909SOL    HW219408   5.997   1.255   5.917  0.1257 -1.8667  2.2383
 4909SOL    HW319409   5.855   1.246   5.970 -0.7020 -1.3205  0.2361
 4909SOL    MW419410   5.915   1.226   5.910 -0.1924 -0.7094  0.5212
 4910SOL     OW19411   1.908   6.015   3.621 -0.3308  1.0200  0.1351
 4910SOL    HW219412   1.871   5.951   3.681 -0.2707 -1.7184 -2.5489
 4910SOL    HW319413   1.887   5.982   3.534  2.1819  3.1752 -1.4378
 4910SOL    MW419414   1.901   6.002   3.617  0.0087  0.9431 -0.4265
 4911SOL     OW19415   3.961   6.405   1.143 -0.2183  0.8399  0.3908
 4911SOL    HW219416   3.948   6.371   1.054  2.4053  0.0289  0.2126
 4911SOL    HW319417   3.951   6.499   1.135  2.2004  1.0528 -1.3607
 4911SOL    MW419418   3.958   6.413   1.130  0.4469  0.7610  0.1362
 4912SOL     OW19419   4.327   1.196   5.841  0.2786 -0.2453  0.4516
 4912SOL    HW219420   4.304   1.142   5.917  0.8236 -0.2774  0.5980
 4912SOL    HW319421   4.279   1.277   5.855 -0.1229 -0.4886  0.5065
 4912SOL    MW419422   4.318   1.199   5.853  0.2975 -0.2816  0.4782
 4913SOL     OW19423   0.427   3.016   4.946  0.3041 -0.1855  0.6404
 4913SOL    HW219424   0.452   2.923   4.950 -0.2938 -0.6586 -2.9710
 4913SOL    HW319425   0.334   3.014   4.923  0.5243  1.2672 -0.4729
 4913SOL    MW419426   0.418   3.003   4.944  0.2542 -0.0563  0.0170
 4914SOL     OW19427   2.227   6.180   2.195  0.5523  0.3917  0.1162
 4914SOL    HW219428   2.320   6.199   2.204  0.8763  0.2585 -2.3530
 4914SOL    HW319429   2.193   6.249   2.138 -0.4090 -0.7057 -0.6907
 4914SOL    MW419430   2.235   6.192   2.189  0.4682  0.2294 -0.3161
 4915SOL     OW19431   4.646   4.676   1.841 -0.2406 -0.0577  0.8202
 4915SOL    HW219432   4.629   4.659   1.748  1.0223 -0.8263  0.7032
 4915SOL    HW319433   4.589   4.614   1.887 -0.3127 -0.2007  0.5425
 4915SOL    MW419434   4.636   4.666   1.835 -0.0835 -0.1779  0.7681
 4916SOL     OW19435   5.792   0.804   4.130 -0.0223 -0.3098 -0.0603
 4916SOL    HW219436   5.855   0.861   4.088  0.1367 -0.1288  0.4208
 4916SOL    HW319437   5.754   0.856   4.201 -1.8369  0.1266 -1.2743
 4916SOL    MW419438   5.795   0.818   4.134 -0.2407 -0.2283 -0.1570
 4917SOL     OW19439   2.256   1.709   3.712  0.2714 -0.4911 -0.1423
 4917SOL    HW219440   2.282   1.692   3.622  1.9801  1.7816 -0.1697
 4917SOL    HW319441   2.319   1.662   3.766  1.3866  0.8683 -0.1997
 4917SOL    MW419442   2.268   1.701   3.707  0.6440 -0.0119 -0.1535
 4918SOL     OW19443   0.493   2.379   6.398 -0.1323 -0.1439  0.6959
 4918SOL    HW219444   0.431   2.306   6.391  0.0727 -0.2403 -0.2979
 4918SOL    HW319445   0.525   2.392   6.309  2.4243 -1.0665  1.4010
 4918SOL    MW419446   0.489   2.371   6.385  0.2320 -0.2783  0.6578
 4919SOL     OW19447   3.602   3.636   3.404 -0.4500  0.4912 -0.0288
 4919SOL    HW219448   3.584   3.596   3.490 -0.4809  2.3724  0.8925
 4919SOL    HW319449   3.556   3.580   3.342  0.4869 -1.5669  1.0262
 4919SOL    MW419450   3.593   3.623   3.408 -0.3304  0.4678  0.2319
 4920SOL     OW19451   5.095   0.072   4.873 -0.4764  0.0920 -0.4330
 4920SOL    HW219452   5.112  -0.010   4.827 -0.9339  0.5611 -1.4754
 4920SOL    HW319453   5.083   0.046   4.964 -1.2938 -1.1031 -0.8504
 4920SOL    MW419454   5.095   0.058   4.879 -0.6446 -0.0038 -0.6256
 4921SOL     OW19455   5.336   3.516   1.875 -0.4260  0.2542  0.6297
 4921SOL    HW219456   5.416   3.508   1.927  0.0679 -0.5191 -0.2034
 4921SOL    HW319457   5.325   3.429   1.836  1.3778  1.6605 -3.5937
 4921SOL    MW419458   5.345   3.503   1.876 -0.1228  0.3377 -0.0374
 4922SOL     OW19459   5.413   0.294   5.221  0.1196  0.2676  0.0325
 4922SOL    HW219460   5.409   0.296   5.316  0.4962  2.0340  0.0464
 4922SOL    HW319461   5.322   0.294   5.193 -0.0011 -0.7337  0.3612
 4922SOL    MW419462   5.400   0.294   5.230  0.1533  0.3685  0.0777
 4923SOL     OW19463   1.121   0.337   3.842  0.3342 -0.2287  0.0709
 4923SOL    HW219464   1.191   0.320   3.906 -0.8232  2.7040  2.3789
 4923SOL    HW319465   1.166   0.377   3.768  1.3663 -0.4587  0.5562
 4923SOL    MW419466   1.136   0.340   3.841  0.3176  0.1279  0.4394
 4924SOL     OW19467   0.061   3.290   1.419 -0.1726  0.5068  0.1084
 4924SOL    HW219468  -0.012   3.301   1.358  1.0072  3.3714 -0.9966
 4924SOL    HW319469   0.123   3.234   1.373  0.4108  2.1090 -1.1672
 4924SOL    MW419470   0.060   3.284   1.405  0.0600  1.0961 -0.2057
 4925SOL     OW19471   0.432   3.727   5.804  0.3096  0.0158  0.0556
 4925SOL    HW219472   0.483   3.742   5.883  0.3684  0.4879 -0.0674
 4925SOL    HW319473   0.495   3.694   5.740  0.2193 -0.5824  0.2672
 4925SOL    MW419474   0.447   3.725   5.806  0.3055 -0.0008  0.0673
 4926SOL     OW19475   3.208   1.688   4.391 -0.5509 -0.4834 -0.2678
 4926SOL    HW219476   3.164   1.607   4.367 -0.5613 -0.0521 -1.8414
 4926SOL    HW319477   3.291   1.661   4.430 -1.2330 -1.2583  0.6810
 4926SOL    MW419478   3.213   1.674   4.393 -0.6422 -0.5287 -0.3502
 4927SOL     OW19479   1.338   5.418   4.568  0.5808  0.2280 -0.2864
 4927SOL    HW219480   1.253   5.450   4.538  0.4462  0.2152  0.0828
 4927SOL    HW319481   1.401   5.465   4.513  0.3219 -0.1854 -0.9572
 4927SOL    MW419482   1.335   5.429   4.557  0.5289  0.1717 -0.3262
 4928SOL     OW19483   2.339   0.715   0.773 -0.4173 -0.2026 -0.2913
 4928SOL    HW219484   2.389   0.796   0.757  0.4369 -0.1637  2.1935
 4928SOL    HW319485   2.392   0.647   0.731  1.8667 -0.1623  2.2694
 4928SOL    MW419486   2.353   0.717   0.765 -0.0032 -0.1922  0.3744
 4929SOL     OW19487   2.612   3.037   1.430 -0.3518 -0.5106  0.2182
 4929SOL    HW219488   2.637   3.062   1.519 -0.0210 -0.7691  0.2017
 4929SOL    HW319489   2.696   3.025   1.384 -0.5235  0.3574 -0.3426
 4929SOL    MW419490   2.627   3.038   1.436 -0.3308 -0.4302  0.1420
 4930SOL     OW19491   1.278   1.768   5.357 -0.1842 -0.3696 -0.7025
 4930SOL    HW219492   1.186   1.758   5.331  0.0937 -0.2750 -1.7561
 4930SOL    HW319493   1.299   1.685   5.402 -0.3946 -0.9661 -1.6769
 4930SOL    MW419494   1.268   1.755   5.360 -0.1753 -0.4358 -0.9701
 4931SOL     OW19495   2.034   2.969   2.440  0.2454 -0.2253 -0.2145
 4931SOL    HW219496   1.983   2.930   2.369 -0.7199 -0.4338  0.5623
 4931SOL    HW319497   1.973   2.972   2.514  0.9214  0.9039  0.3210
 4931SOL    MW419498   2.019   2.964   2.440  0.2072 -0.1038 -0.0414
 4932SOL     OW19499   1.282   5.192   2.013 -0.5310  0.4151  0.3031
 4932SOL    HW219500   1.377   5.181   2.012 -0.3264  1.7034  1.6230
 4932SOL    HW319501   1.261   5.233   1.929 -0.2330 -1.7517 -0.8968
 4932SOL    MW419502   1.292   5.196   2.002 -0.4647  0.2992  0.3189
 4933SOL     OW19503   2.701   6.391   2.711 -0.9223 -0.3339  0.0330
 4933SOL    HW219504   2.612   6.368   2.738 -0.7605  0.4213  1.3146
 4933SOL    HW319505   2.724   6.467   2.766  0.4868 -0.4704 -0.3179
 4933SOL    MW419506   2.692   6.398   2.722 -0.7150 -0.2523  0.1558
 4934SOL     OW19507   2.020   4.474   0.562  0.1649  0.1383  0.0654
 4934SOL    HW219508   2.026   4.410   0.633  0.9206  0.3498  0.2037
 4934SOL    HW319509   1.960   4.541   0.596  0.8593  0.4658  0.7083
 4934SOL    MW419510   2.013   4.475   0.576  0.3562  0.2094  0.1684
 4935SOL     OW19511   5.915   1.930   5.445 -0.4515 -0.5957 -0.8183
 4935SOL    HW219512   5.836   1.952   5.496  0.8777  0.3438  0.9595
 4935SOL    HW319513   5.939   2.012   5.402  0.6042 -0.3165  0.2330
 4935SOL    MW419514   5.908   1.944   5.446 -0.1369 -0.4349 -0.4450
 4936SOL     OW19515   1.664   1.277   3.655 -0.2912 -0.2235  0.4232
 4936SOL    HW219516   1.746   1.238   3.626 -2.2203 -2.3672 -2.8787
 4936SOL    HW319517   1.644   1.232   3.738  0.5746 -1.7531 -0.1489
 4936SOL    MW419518   1.672   1.266   3.662 -0.4315 -0.7081 -0.0879
 4937SOL     OW19519   2.777   1.104   4.590  0.2277 -0.1828  0.0145
 4937SOL    HW219520   2.813   1.101   4.678 -0.4609  0.1869  0.3089
 4937SOL    HW319521   2.728   1.186   4.586 -0.0120 -0.3458 -0.6101
 4937SOL    MW419522   2.775   1.115   4.601  0.1052 -0.1555 -0.0291
 4938SOL     OW19523   2.992   4.506   3.988 -0.1852 -0.0741 -0.2362
 4938SOL    HW219524   3.047   4.502   4.066  0.7151  1.1612 -0.7646
 4938SOL    HW319525   2.908   4.542   4.019 -0.4340 -1.1928  0.4291
 4938SOL    MW419526   2.988   4.510   4.002 -0.0992 -0.0587 -0.2181
 4939SOL     OW19527   6.020   0.655   4.519 -0.2124  0.0332  0.6359
 4939SOL    HW219528   6.059   0.667   4.433  0.5166  2.5699  1.2154
 4939SOL    HW319529   5.993   0.563   4.521  1.6307 -0.6522 -1.4799
 4939SOL    MW419530   6.022   0.645   4.508  0.1269  0.2774  0.4332
 4940SOL     OW19531   1.145   3.286   2.205 -0.0273  0.5866  0.1682
 4940SOL    HW219532   1.075   3.242   2.253  0.4442 -0.0481  0.2809
 4940SOL    HW319533   1.103   3.363   2.167 -0.5088  0.8873  1.2712
 4940SOL    MW419534   1.130   3.291   2.207 -0.0286  0.5426  0.3286
 4941SOL     OW19535   3.184   5.293   5.235  0.0605  0.6298 -0.1233
 4941SOL    HW219536   3.191   5.198   5.223 -1.2863  0.3132  1.2639
 4941SOL    HW319537   3.093   5.313   5.212 -0.1895  1.2650  1.3055
 4941SOL    MW419538   3.173   5.283   5.231 -0.1502  0.6718  0.2482
 4942SOL     OW19539   2.004   4.619   3.511  0.2582  0.3375  0.4070
 4942SOL    HW219540   2.099   4.633   3.504  0.0910  2.4143  1.3507
 4942SOL    HW319541   1.966   4.691   3.461 -0.9701 -2.7047 -3.5213
 4942SOL    MW419542   2.012   4.631   3.504  0.0740  0.2101  0.0133
 4943SOL     OW19543   2.828   0.036   1.410  0.1401  0.6579  0.2658
 4943SOL    HW219544   2.888  -0.009   1.470 -0.1855 -1.0036 -0.6014
 4943SOL    HW319545   2.883   0.102   1.367  1.2310 -0.4540 -0.1041
 4943SOL    MW419546   2.843   0.039   1.412  0.2411  0.2920  0.1026
 4944SOL     OW19547   4.630   6.025   3.422  0.6734  0.6264  0.1613
 4944SOL    HW219548   4.602   6.107   3.462 -0.1123  0.6954 -0.4985
 4944SOL    HW319549   4.675   5.978   3.492  0.7603  1.4397  0.6602
 4944SOL    MW419550   4.632   6.030   3.436  0.5812  0.7428  0.1401
 4945SOL     OW19551   6.178   0.641   4.280 -0.5132  0.1812 -0.5510
 4945SOL    HW219552   6.153   0.624   4.189  2.7014 -0.8614 -1.3927
 4945SOL    HW319553   6.225   0.724   4.276 -1.3345  0.7041  0.4041
 4945SOL    MW419554   6.181   0.649   4.267 -0.1974  0.1126 -0.5360
 4946SOL     OW19555   1.291   1.574   3.469  0.4210  0.0373  0.2590
 4946SOL    HW219556   1.231   1.500   3.458  1.4419 -0.9725  1.2401
 4946SOL    HW319557   1.334   1.558   3.553  2.7751  0.1947 -0.8286
 4946SOL    MW419558   1.289   1.562   3.478  0.8663 -0.0752  0.2450
 4947SOL     OW19559   1.664   5.618   2.676  0.0477 -0.5604 -0.3986
 4947SOL    HW219560   1.578   5.650   2.649  0.1695 -0.2251 -0.3957
 4947SOL    HW319561   1.714   5.697   2.694  0.2494 -0.7647 -0.0664
 4947SOL    MW419562   1.659   5.633   2.675  0.0904 -0.5431 -0.3544
 4948SOL     OW19563   3.334   0.401   0.153 -0.0116  0.5822 -0.2737
 4948SOL    HW219564   3.278   0.335   0.112 -1.6650  0.7431  1.5805
 4948SOL    HW319565   3.324   0.478   0.097 -0.8328  0.3006 -0.5280
 4948SOL    MW419566   3.325   0.402   0.140 -0.3381  0.5662 -0.0626
 4949SOL     OW19567   3.377   2.668   0.611  0.4479  0.3858 -0.6081
 4949SOL    HW219568   3.327   2.746   0.636 -1.5692 -1.1069  0.3049
 4949SOL    HW319569   3.371   2.611   0.687  0.9536 -1.1159 -1.6595
 4949SOL    MW419570   3.370   2.671   0.624  0.2484 -0.0093 -0.6263
 4950SOL     OW19571   1.024   1.072   2.362 -0.8182  0.3276  0.1174
 4950SOL    HW219572   0.952   1.108   2.414 -0.8446  1.0089 -0.3748
 4950SOL    HW319573   1.102   1.084   2.417 -0.5740  2.6076 -0.6486
 4950SOL    MW419574   1.025   1.078   2.376 -0.7895  0.7183 -0.0486
 4951SOL     OW19575   1.167   3.724   5.395 -0.2711  0.4950 -0.1162
 4951SOL    HW219576   1.107   3.724   5.469  2.1206  0.5042  1.9929
 4951SOL    HW319577   1.188   3.632   5.381  0.9426  0.6069  0.7606
 4951SOL    MW419578   1.162   3.712   5.403  0.2046  0.5110  0.2778
 4952SOL     OW19579   5.280   3.641   5.749  0.0503 -0.3749 -0.3657
 4952SOL    HW219580   5.232   3.567   5.711 -1.1246  0.4568 -0.5402
 4952SOL    HW319581   5.227   3.717   5.729  1.1978  0.5290 -0.0981
 4952SOL    MW419582   5.267   3.641   5.741  0.0467 -0.1459 -0.3534
 4953SOL     OW19583   4.229   5.314   4.397  0.1823 -0.0002  0.1510
 4953SOL    HW219584   4.279   5.287   4.320 -0.9606  1.0985 -1.0134
 4953SOL    HW319585   4.239   5.409   4.400  0.2560 -0.0367  1.4025
 4953SOL    MW419586   4.237   5.323   4.387  0.0413  0.1400  0.1625
 4954SOL     OW19587   2.718   4.735   1.135 -0.6002  0.2461  0.7037
 4954SOL    HW219588   2.705   4.777   1.220 -1.2427  1.4021  0.0678
 4954SOL    HW319589   2.658   4.661   1.135 -1.5608  0.9962  0.7948
 4954SOL    MW419590   2.708   4.731   1.146 -0.8117  0.4976  0.6318
 4955SOL     OW19591   5.572   1.906   2.808 -0.2055 -0.0672  0.1179
 4955SOL    HW219592   5.510   1.833   2.803  1.1593 -1.3784  1.4018
 4955SOL    HW319593   5.653   1.866   2.839  0.9728  1.7924 -0.4488
 4955SOL    MW419594   5.574   1.891   2.812  0.1300  0.0052  0.2126
 4956SOL     OW19595   1.995   3.815   6.299  0.1371 -0.4272 -0.6608
 4956SOL    HW219596   1.927   3.787   6.238  0.0483 -0.7051 -0.4349
 4956SOL    HW319597   1.949   3.835   6.380  0.4699 -1.9649 -0.0620
 4956SOL    MW419598   1.980   3.814   6.302  0.1693 -0.6668 -0.5520
 4957SOL     OW19599   3.570   2.372   1.432  0.1115 -1.0531  0.0669
 4957SOL    HW219600   3.537   2.445   1.485  0.2244 -1.3471  0.5460
 4957SOL    HW319601   3.603   2.414   1.352  1.6061 -0.3914  0.9874
 4957SOL    MW419602   3.570   2.387   1.428  0.3236 -1.0046  0.2515
 4958SOL     OW19603   3.508   2.538   4.247  0.2502 -0.2209 -0.3274
 4958SOL    HW219604   3.552   2.593   4.312  0.9446 -0.6602 -0.4138
 4958SOL    HW319605   3.426   2.513   4.289  0.2698  0.2545  0.0119
 4958SOL    MW419606   3.503   2.542   4.261  0.3444 -0.2161 -0.2941
 4959SOL     OW19607   3.064   0.727   4.535 -0.4623  0.0978  0.2820
 4959SOL    HW219608   3.065   0.633   4.551  0.7745  0.0728  0.1570
 4959SOL    HW319609   3.062   0.736   4.440 -3.5638  0.2416  0.2661
 4959SOL    MW419610   3.064   0.716   4.525 -0.7083  0.1134  0.2634
 4960SOL     OW19611   0.919   6.192   2.738  0.0165 -0.3457  0.6317
 4960SOL    HW219612   0.896   6.271   2.788  0.3898 -0.4597  0.9912
 4960SOL    HW319613   0.987   6.221   2.677 -1.7915  0.2466 -1.1981
 4960SOL    MW419614   0.925   6.207   2.737 -0.1728 -0.2826  0.4377
 4961SOL     OW19615   3.152   0.201   0.475 -0.4796  0.3574  0.4272
 4961SOL    HW219616   3.073   0.230   0.521 -0.6061  0.0763  0.3921
 4961SOL    HW319617   3.122   0.128   0.420 -0.0846 -0.1402  0.8628
 4961SOL    MW419618   3.137   0.195   0.474 -0.4442  0.2547  0.4801
 4962SOL     OW19619   3.577   4.525   3.453 -0.1767 -0.4828 -0.5813
 4962SOL    HW219620   3.551   4.572   3.533 -0.7537 -0.8203 -0.5586
 4962SOL    HW319621   3.529   4.568   3.383  0.8638  0.2570 -0.8551
 4962SOL    MW419622   3.567   4.537   3.455 -0.1155 -0.4297 -0.6145
 4963SOL     OW19623   4.975   3.380   2.326 -0.1233 -0.3090 -0.1833
 4963SOL    HW219624   5.057   3.386   2.278 -0.7119  0.7798 -1.1166
 4963SOL    HW319625   4.971   3.461   2.377  0.5560 -1.5083  1.8601
 4963SOL    MW419626   4.985   3.392   2.326 -0.1113 -0.3235 -0.0368
 4964SOL     OW19627   2.049   2.376   2.261  0.1416 -0.0805  0.1020
 4964SOL    HW219628   1.996   2.301   2.232 -0.3198  0.1896  0.2408
 4964SOL    HW319629   1.985   2.444   2.281  0.6032  0.8087 -1.2766
 4964SOL    MW419630   2.034   2.375   2.260  0.1416  0.0725 -0.0616
 4965SOL     OW19631   6.013   2.617   5.526 -0.2896  0.6109  0.7370
 4965SOL    HW219632   5.967   2.537   5.550  1.5205 -0.6538  0.2145
 4965SOL    HW319633   6.098   2.611   5.569  0.6144  1.3119 -0.8322
 4965SOL    MW419634   6.019   2.606   5.535  0.0685  0.5366  0.4610
 4966SOL     OW19635   2.146   3.084   4.653  0.3841 -0.0017 -0.3740
 4966SOL    HW219636   2.183   3.171   4.671 -0.5313  0.0098  1.8614
 4966SOL    HW319637   2.199   3.025   4.706 -2.0545 -0.0894  2.1863
 4966SOL    MW419638   2.158   3.088   4.663 -0.0584 -0.0118  0.2587
 4967SOL     OW19639   2.973   4.559   5.645 -0.8256 -0.5210 -0.6124
 4967SOL    HW219640   3.067   4.574   5.645 -0.7915 -0.7264 -0.5793
 4967SOL    HW319641   2.948   4.563   5.737 -0.6646 -1.5639 -0.5100
 4967SOL    MW419642   2.982   4.561   5.657 -0.7998 -0.6857 -0.5945
 4968SOL     OW19643   3.736   5.411   5.600  0.0209 -0.4000  0.1905
 4968SOL    HW219644   3.649   5.449   5.585 -0.3097 -1.1197  0.2765
 4968SOL    HW319645   3.738   5.392   5.694 -0.2204 -1.5872 -0.0384
 4968SOL    MW419646   3.724   5.414   5.610 -0.0546 -0.6516  0.1716
 4969SOL     OW19647   1.906   2.914   5.876  0.4476  0.0614  0.2814
 4969SOL    HW219648   1.947   2.970   5.810 -0.2968  0.5125  0.1794
 4969SOL    HW319649   1.851   2.855   5.826 -0.4586  0.6892  0.4999
 4969SOL    MW419650   1.904   2.914   5.861  0.2298  0.2038  0.2968
 4970SOL     OW19651   4.699   3.786   2.815  0.6431 -0.5861 -0.0894
 4970SOL    HW219652   4.767   3.849   2.790 -0.0518  0.5723  0.8527
 4970SOL    HW319653   4.619   3.838   2.820 -0.2317 -1.8330 -0.6598
 4970SOL    MW419654   4.697   3.801   2.812  0.4360 -0.5978 -0.0404
 4971SOL     OW19655   5.885   4.751   4.242 -0.5375 -0.4682  0.6401
 4971SOL    HW219656   5.889   4.706   4.326 -0.4059 -0.2881  0.7321
 4971SOL    HW319657   5.849   4.686   4.181  0.7851 -1.0973  0.5038
 4971SOL    MW419658   5.881   4.737   4.245 -0.3457 -0.5275  0.6343
 4972SOL     OW19659   0.046   2.805   5.334 -0.2090  0.1725  0.5210
 4972SOL    HW219660   0.002   2.732   5.290  0.1538 -0.3556  1.0125
 4972SOL    HW319661  -0.025   2.864   5.359 -0.4787  0.1410 -0.1541
 4972SOL    MW419662   0.031   2.803   5.332 -0.1967  0.0987  0.4968
 4973SOL     OW19663   3.459   0.041   1.065 -0.0375  0.1177  0.0845
 4973SOL    HW219664   3.448   0.130   1.099 -1.4585  0.2067 -0.5363
 4973SOL    HW319665   3.503   0.053   0.981  1.3710  0.0758  0.7914
 4973SOL    MW419666   3.463   0.054   1.059 -0.0391  0.1239  0.0958
 4974SOL     OW19667   5.072   5.656   5.432 -0.3784  0.4617  0.8009
 4974SOL    HW219668   5.009   5.727   5.419 -0.8986  0.1150  1.4107
 4974SOL    HW319669   5.021   5.584   5.469  0.6262  0.6856  2.7461
 4974SOL    MW419670   5.057   5.656   5.435 -0.3145  0.4455  1.1380
 4975SOL     OW19671   5.764   4.761   4.874  0.0915 -0.0951  0.0257
 4975SOL    HW219672   5.730   4.688   4.823 -1.5077  1.0715 -0.6403
 4975SOL    HW319673   5.688   4.816   4.891  1.1888  1.2219  0.8538
 4975SOL    MW419674   5.750   4.758   4.870  0.0253  0.2326  0.0471
 4976SOL     OW19675   0.719   2.850   5.479 -0.1503 -0.2760  0.0438
 4976SOL    HW219676   0.778   2.920   5.506 -1.6613  0.7596  0.7840
 4976SOL    HW319677   0.765   2.805   5.408  0.8067  1.5394 -0.5224
 4976SOL    MW419678   0.733   2.853   5.473 -0.2234  0.1002  0.0668
 4977SOL     OW19679   5.749   0.222   4.083 -0.2112 -0.2465 -0.1262
 4977SOL    HW219680   5.787   0.141   4.116 -1.5072 -0.6291  0.5074
 4977SOL    HW319681   5.820   0.285   4.087  1.3089 -1.6834 -2.1143
 4977SOL    MW419682   5.763   0.219   4.087 -0.1816 -0.4866 -0.3049
 4978SOL     OW19683   4.338   3.784   5.870  0.7290 -0.0327  0.2224
 4978SOL    HW219684   4.327   3.704   5.922 -2.1924  1.7412  2.6424
 4978SOL    HW319685   4.330   3.855   5.934 -0.2274  2.2623 -2.2933
 4978SOL    MW419686   4.336   3.783   5.886  0.2174  0.5041  0.2098
 4979SOL     OW19687   0.525   0.772   3.293 -0.3007 -0.0827  0.2283
 4979SOL    HW219688   0.553   0.700   3.236  0.0651  1.1788 -1.2416
 4979SOL    HW319689   0.599   0.785   3.353 -0.4554 -1.0472  0.6444
 4979SOL    MW419690   0.539   0.764   3.293 -0.2728 -0.0435  0.0893
 4980SOL     OW19691   2.361   0.032   0.770  0.5280 -0.4682  0.1006
 4980SOL    HW219692   2.315   0.053   0.851 -1.0710 -1.9934 -0.3423
 4980SOL    HW319693   2.341   0.104   0.711  1.3930  0.4661  0.9258
 4980SOL    MW419694   2.352   0.044   0.773  0.4311 -0.5462  0.1510
 4981SOL     OW19695   2.736   0.216   2.291 -0.1280 -0.1808  0.1863
 4981SOL    HW219696   2.740   0.201   2.197 -0.9457  0.3295  0.0518
 4981SOL    HW319697   2.823   0.248   2.315 -0.8664  3.1838 -1.0601
 4981SOL    MW419698   2.748   0.219   2.282 -0.3333  0.3304  0.0041
 4982SOL     OW19699   3.187   0.896   2.178 -0.6786 -0.0016 -0.3021
 4982SOL    HW219700   3.270   0.889   2.225  0.5862  1.5542 -2.1763
 4982SOL    HW319701   3.149   0.979   2.209 -0.5238  0.3208 -0.9630
 4982SOL    MW419702   3.193   0.906   2.189 -0.4913  0.2462 -0.6366
 4983SOL     OW19703   5.296   5.722   5.571  0.3281 -0.2048 -0.3085
 4983SOL    HW219704   5.366   5.717   5.505  0.1689  1.2697 -0.6268
 4983SOL    HW319705   5.221   5.681   5.529  1.3803 -3.4307  0.6784
 4983SOL    MW419706   5.295   5.716   5.556  0.4459 -0.4359 -0.2203
 4984SOL     OW19707   2.469   0.836   4.049  0.4071  0.3139 -0.3774
 4984SOL    HW219708   2.515   0.763   4.092 -0.0527  0.1735 -0.1181
 4984SOL    HW319709   2.539   0.888   4.009  0.9361  0.8824  1.1993
 4984SOL    MW419710   2.484   0.833   4.050  0.4162  0.3704 -0.1352
 4985SOL     OW19711   3.723   3.265   2.794  0.0924  0.5081  0.2690
 4985SOL    HW219712   3.681   3.187   2.758  0.2446  0.5814 -0.0664
 4985SOL    HW319713   3.817   3.244   2.795  0.3535  1.3490 -1.5274
 4985SOL    MW419714   3.730   3.252   2.789  0.1469  0.6287 -0.0123
 4986SOL     OW19715   3.832   4.922   2.360 -0.1729 -0.3624  0.5583
 4986SOL    HW219716   3.741   4.951   2.347  0.2696  0.6683 -0.4428
 4986SOL    HW319717   3.824   4.837   2.403 -1.6847 -1.1671 -1.1411
 4986SOL    MW419718   3.819   4.915   2.364 -0.3140 -0.3326  0.2020
 4987SOL     OW19719   6.148   3.874   2.099 -0.1345  0.2215  0.0660
 4987SOL    HW219720   6.198   3.798   2.068 -0.7705  0.2872 -1.1688
 4987SOL    HW319721   6.064   3.838   2.125 -1.1424  0.7195 -2.3264
 4987SOL    MW419722   6.144   3.859   2.099 -0.3514  0.2959 -0.4126
 4988SOL     OW19723   4.632   5.288   1.869  0.2771 -0.0343  0.4246
 4988SOL    HW219724   4.676   5.365   1.904 -0.6658  0.9347 -0.4807
 4988SOL    HW319725   4.539   5.311   1.867 -0.1079 -1.4303  0.7228
 4988SOL    MW419726   4.626   5.301   1.874  0.1019 -0.0906  0.3445
 4989SOL     OW19727   4.790   5.857   0.899 -0.3338 -0.0727  0.0107
 4989SOL    HW219728   4.821   5.920   0.834 -0.8496  0.9805  0.7767
 4989SOL    HW319729   4.860   5.854   0.964  0.0641 -0.9379 -0.4249
 4989SOL    MW419730   4.803   5.865   0.899 -0.3494 -0.0479  0.0543
 4990SOL     OW19731   3.340   5.530   1.548  0.0341  0.2578 -0.3784
 4990SOL    HW219732   3.287   5.606   1.569  0.1972  0.4980 -0.8119
 4990SOL    HW319733   3.277   5.463   1.522 -0.4037 -0.8759  3.0668
 4990SOL    MW419734   3.325   5.531   1.547 -0.0022  0.1399  0.0190
 4991SOL     OW19735   0.122   1.779   4.878 -0.4314  0.3132 -0.2345
 4991SOL    HW219736   0.213   1.789   4.905 -0.4778 -0.1015  0.0771
 4991SOL    HW319737   0.091   1.869   4.864  0.8132  0.4046 -3.0150
 4991SOL    MW419738   0.130   1.793   4.880 -0.2733  0.2705 -0.5602
 4992SOL     OW19739   5.607   6.260   3.844  0.1936 -0.1708  0.5268
 4992SOL    HW219740   5.587   6.351   3.867  0.9861  0.3082 -0.6171
 4992SOL    HW319741   5.522   6.215   3.850 -0.1687  0.5784  1.3203
 4992SOL    MW419742   5.593   6.266   3.848  0.2503 -0.0088  0.4805
 4993SOL     OW19743   5.654   1.772   2.378  0.1865  0.3976 -0.2274
 4993SOL    HW219744   5.651   1.685   2.418 -0.5782  0.7630  0.5255
 4993SOL    HW319745   5.748   1.787   2.362  0.3194 -0.6067 -0.4986
 4993SOL    MW419746   5.666   1.763   2.381  0.1031  0.3133 -0.1638
 4994SOL     OW19747   5.484   3.507   3.476  0.2411  0.0341  0.0379
 4994SOL    HW219748   5.453   3.459   3.400 -0.6226 -1.7464  1.4407
 4994SOL    HW319749   5.579   3.506   3.468  0.2047 -1.2464 -0.3785
 4994SOL    MW419750   5.493   3.500   3.465  0.1224 -0.3697  0.1680
 4995SOL     OW19751   1.679   0.920   3.777 -0.6518 -0.0274 -0.0503
 4995SOL    HW219752   1.752   0.928   3.839  1.1473 -0.0024 -2.0746
 4995SOL    HW319753   1.713   0.956   3.695 -3.4483  1.3537 -0.7228
 4995SOL    MW419754   1.693   0.926   3.775 -0.7834  0.1581 -0.4061
 4996SOL     OW19755   1.569   0.466   6.209 -0.1249 -0.2795 -0.3288
 4996SOL    HW219756   1.607   0.508   6.132  1.1811 -0.2002  0.3304
 4996SOL    HW319757   1.527   0.387   6.175 -0.2613  0.1662 -1.2233
 4996SOL    MW419758   1.569   0.461   6.194  0.0294 -0.2103 -0.3598
 4997SOL     OW19759   5.130   0.202   1.139  0.1964  0.1085 -0.3624
 4997SOL    HW219760   5.058   0.259   1.166  0.8312  0.9433 -0.3911
 4997SOL    HW319761   5.194   0.210   1.210 -0.1424 -1.4340  0.1833
 4997SOL    MW419762   5.129   0.210   1.152  0.2355  0.0151 -0.2942
 4998SOL     OW19763   1.534   4.988   5.972 -0.9448 -0.4580 -0.5439
 4998SOL    HW219764   1.617   4.944   5.956  0.0735  1.5407 -1.0110
 4998SOL    HW319765   1.475   4.953   5.904  0.1505 -0.3213 -1.5986
 4998SOL    MW419766   1.537   4.978   5.961 -0.6660 -0.1763 -0.7447
 4999SOL     OW19767   4.381   1.473   2.914 -0.2864 -0.2997  0.3500
 4999SOL    HW219768   4.292   1.508   2.926 -0.9417 -1.4199 -0.9362
 4999SOL    HW319769   4.396   1.479   2.820  1.4799  0.9083  0.6721
 4999SOL    MW419770   4.371   1.479   2.903 -0.1398 -0.2881  0.2228
 5000SOL     OW19771   4.838   0.586   0.165 -0.1324  0.2133  0.4315
 5000SOL    HW219772   4.764   0.646   0.166 -1.3237 -1.1589 -0.2872
 5000SOL    HW319773   4.915   0.641   0.152 -1.2582  1.5074 -1.1172
 5000SOL    MW419774   4.839   0.601   0.163 -0.4381  0.2030  0.1323
 5001SOL     OW19775   6.227   1.136   1.552 -0.4076  0.3399 -0.3898
 5001SOL    HW219776   6.134   1.111   1.556 -0.0452 -1.4311 -1.6545
 5001SOL    HW319777   6.226   1.226   1.520 -1.6984  0.4794 -0.0089
 5001SOL    MW419778   6.214   1.144   1.548 -0.5301  0.1247 -0.5064
 5002SOL     OW19779   1.104   3.898   4.043  0.0571  0.2607 -0.7925
 5002SOL    HW219780   1.031   3.838   4.054 -2.2630  3.1605  1.1248
 5002SOL    HW319781   1.165   3.875   4.113 -0.4650 -0.2616 -0.5073
 5002SOL    MW419782   1.103   3.887   4.053 -0.3179  0.5744 -0.5019
 5003SOL     OW19783   0.655   3.052   3.403 -0.0390  0.5412 -0.0633
 5003SOL    HW219784   0.571   3.011   3.382  1.0126 -1.1297 -1.2228
 5003SOL    HW319785   0.700   2.987   3.457 -0.1713  2.2041  2.2120
 5003SOL    MW419786   0.650   3.038   3.408  0.0823  0.5402  0.0839
 5004SOL     OW19787   5.478   2.894   5.628 -0.1826 -0.0976  0.1902
 5004SOL    HW219788   5.411   2.825   5.623  0.9692 -1.1683 -2.1430
 5004SOL    HW319789   5.560   2.846   5.644  0.6131  0.7190 -1.2609
 5004SOL    MW419790   5.480   2.878   5.630  0.0743 -0.1311 -0.3091
 5005SOL     OW19791   4.032   4.721   1.862 -0.2857 -0.0261 -0.0512
 5005SOL    HW219792   4.005   4.784   1.929 -2.0035  0.4738 -1.1492
 5005SOL    HW319793   4.015   4.636   1.902 -2.4970  0.2653 -0.2229
 5005SOL    MW419794   4.026   4.718   1.876 -0.8041  0.0783 -0.2187
 5006SOL     OW19795   4.780   3.721  -0.001 -0.1510  0.9632 -1.2439
 5006SOL    HW219796   4.738   3.764   0.074 -0.9972 -0.9842 -0.5560
 5006SOL    HW319797   4.829   3.792  -0.044 -1.8660  2.7242 -0.4701
 5006SOL    MW419798   4.781   3.736   0.003 -0.4889  0.9386 -1.0510
 5007SOL     OW19799   3.102   1.899  -0.020  0.1806  0.2776  0.0611
 5007SOL    HW219800   3.036   1.963   0.008 -1.4513 -0.5920 -1.6173
 5007SOL    HW319801   3.115   1.844   0.057 -1.6948 -0.0244  0.2203
 5007SOL    MW419802   3.095   1.900  -0.006 -0.2821  0.1231 -0.1393
 5008SOL     OW19803   6.379   0.828   2.461 -0.2399 -0.3629  0.9686
 5008SOL    HW219804   6.464   0.870   2.469  0.0368 -0.9810  1.4392
 5008SOL    HW319805   6.398   0.734   2.470 -0.9706 -0.5061  1.0954
 5008SOL    MW419806   6.393   0.821   2.463 -0.2998 -0.4634  1.0474
 5009SOL     OW19807   0.278   5.873   5.849 -0.2231  0.0473 -0.0813
 5009SOL    HW219808   0.257   5.871   5.755  1.8702  0.1569 -0.5953
 5009SOL    HW319809   0.230   5.949   5.882  1.6253  2.0983 -1.8071
 5009SOL    MW419810   0.269   5.883   5.841  0.2969  0.3324 -0.3768
 5010SOL     OW19811   1.564   5.121   1.377  0.1929 -0.7584  0.3599
 5010SOL    HW219812   1.633   5.057   1.359 -0.4259 -1.0604 -1.0224
 5010SOL    HW319813   1.581   5.192   1.315  0.2310 -0.0631  1.1506
 5010SOL    MW419814   1.576   5.122   1.367  0.1163 -0.7065  0.2819
 5011SOL     OW19815   2.466   2.743   3.545  0.0465 -0.5843 -0.4766
 5011SOL    HW219816   2.543   2.707   3.588  0.8362  1.2419 -0.2915
 5011SOL    HW319817   2.476   2.838   3.551 -1.5243 -0.2887 -1.6841
 5011SOL    MW419818   2.477   2.751   3.551 -0.0566 -0.3044 -0.6115
 5012SOL     OW19819   6.395   0.982   5.157 -0.6653  0.2052 -0.6299
 5012SOL    HW219820   6.404   0.970   5.251 -0.1028 -1.0135 -0.8198
 5012SOL    HW319821   6.438   1.066   5.140  0.8800 -0.4213 -0.0249
 5012SOL    MW419822   6.402   0.991   5.167 -0.3872 -0.0382 -0.5751
 5013SOL     OW19823   3.324   3.492   0.430 -0.4168  0.2729 -0.4180
 5013SOL    HW219824   3.419   3.487   0.430 -0.3603 -0.1673  1.9588
 5013SOL    HW319825   3.301   3.522   0.343  1.9735  1.8540 -0.5948
 5013SOL    MW419826   3.333   3.495   0.419 -0.0940  0.4234 -0.1277
 5014SOL     OW19827   1.904   5.963   0.089 -0.1213  0.6834 -0.7781
 5014SOL    HW219828   1.973   5.907   0.054 -0.8555 -0.7364 -0.0515
 5014SOL    HW319829   1.900   6.037   0.029  0.4017 -0.4018 -2.2072
 5014SOL    MW419830   1.912   5.965   0.076 -0.1492  0.3529 -0.8708
 5015SOL     OW19831   2.561   4.386   2.045 -0.2344  0.0384 -0.0073
 5015SOL    HW219832   2.620   4.342   2.107 -2.4204 -2.6893  0.3281
 5015SOL    HW319833   2.598   4.365   1.959 -0.1995 -0.8957  0.2206
 5015SOL    MW419834   2.574   4.377   2.042 -0.5182 -0.4447  0.0670
 5016SOL     OW19835   2.740   4.789   6.385 -0.2008  0.3916 -0.6772
 5016SOL    HW219836   2.762   4.711   6.336  1.4117  1.5919 -1.9604
 5016SOL    HW319837   2.789   4.781   6.467 -0.2635 -0.0567 -0.6829
 5016SOL    MW419838   2.749   4.778   6.390  0.0037  0.4908 -0.8473
 5017SOL     OW19839   0.701   0.288   4.393 -0.1988  0.7942  1.0992
 5017SOL    HW219840   0.739   0.284   4.305 -0.0954  0.8422  1.1414
 5017SOL    HW319841   0.608   0.302   4.378 -0.4090 -0.5445  0.9593
 5017SOL    MW419842   0.694   0.289   4.379 -0.2129  0.6239  1.0863
 5018SOL     OW19843   5.545   2.567   1.252  0.1187  0.0499 -0.2292
 5018SOL    HW219844   5.481   2.498   1.234  2.0771 -1.6130 -1.2417
 5018SOL    HW319845   5.535   2.629   1.179 -0.5097 -0.0565 -0.2349
 5018SOL    MW419846   5.535   2.566   1.240  0.2942 -0.1836 -0.3635
 5019SOL     OW19847   2.882   5.178   1.134  0.1509 -0.7697  0.0949
 5019SOL    HW219848   2.949   5.246   1.142  0.6950 -1.2578 -0.2638
 5019SOL    HW319849   2.923   5.109   1.082 -1.1890 -0.3274 -1.6482
 5019SOL    MW419850   2.896   5.178   1.128  0.0459 -0.7757 -0.1824
 5020SOL     OW19851   5.670   1.478   2.016  0.1005 -0.5148  0.0245
 5020SOL    HW219852   5.729   1.421   1.966  0.1696 -1.3702  1.0550
 5020SOL    HW319853   5.688   1.457   2.107 -3.4086 -2.5948  0.4191
 5020SOL    MW419854   5.680   1.467   2.021 -0.3534 -0.9021  0.2125
 5021SOL     OW19855   2.914   4.613   5.912 -0.4640 -0.3086 -0.1567
 5021SOL    HW219856   2.823   4.639   5.928  0.2518  1.7835  1.0593
 5021SOL    HW319857   2.937   4.557   5.986 -0.3117  0.5642  0.4821
 5021SOL    MW419858   2.905   4.609   5.924 -0.3495  0.0826  0.0880
 5022SOL     OW19859   5.453   3.074   0.639  0.4720 -0.1956  0.3305
 5022SOL    HW219860   5.401   3.137   0.689 -0.6927 -2.3851  2.0490
 5022SOL    HW319861   5.403   3.059   0.559  0.5184  0.6786  0.1326
 5022SOL    MW419862   5.439   3.080   0.635  0.3245 -0.3692  0.5311
 5023SOL     OW19863   2.207   0.006   5.338  0.6364 -0.1658 -0.5640
 5023SOL    HW219864   2.188   0.012   5.245  1.0549  0.7679 -0.6027
 5023SOL    HW319865   2.139  -0.052   5.373  0.1169 -0.0441 -1.3445
 5023SOL    MW419866   2.195  -0.001   5.330  0.6231 -0.0266 -0.6721
 5024SOL     OW19867   5.066   6.288   0.698 -0.0766 -0.7631  0.2707
 5024SOL    HW219868   5.134   6.234   0.738 -0.5800 -0.6872  1.2619
 5024SOL    HW319869   5.061   6.366   0.753 -2.1891 -1.5602  1.3397
 5024SOL    MW419870   5.074   6.291   0.710 -0.4217 -0.8582  0.5425
 5025SOL     OW19871   1.467   4.473   1.419  0.1613  0.1991  0.0896
 5025SOL    HW219872   1.473   4.384   1.385  1.6964 -0.5289  2.0176
 5025SOL    HW319873   1.377   4.481   1.450  0.1370 -0.8678  0.3335
 5025SOL    MW419874   1.456   4.462   1.419  0.3606 -0.0377  0.3761
 5026SOL     OW19875   2.358   1.106   5.931 -0.4901 -0.3856 -0.2712
 5026SOL    HW219876   2.441   1.059   5.939 -0.5519 -0.3925  0.3804
 5026SOL    HW319877   2.360   1.143   5.842  0.2266 -0.3393 -0.2432
 5026SOL    MW419878   2.369   1.104   5.920 -0.4037 -0.3804 -0.1815
 5027SOL     OW19879   4.908   4.382   0.189 -0.0670 -0.8126  0.3929
 5027SOL    HW219880   4.823   4.347   0.217 -0.7881 -0.1082 -0.8511
 5027SOL    HW319881   4.900   4.395   0.095  1.3813 -0.5842  0.2676
 5027SOL    MW419882   4.896   4.379   0.181  0.0290 -0.6895  0.2122
 5028SOL     OW19883   4.458   5.147   5.462 -0.3129 -0.0293  0.0362
 5028SOL    HW219884   4.400   5.166   5.388 -1.0931  0.5541  0.7747
 5028SOL    HW319885   4.479   5.054   5.453 -1.0917 -0.1688 -0.4409
 5028SOL    MW419886   4.453   5.137   5.451 -0.5186  0.0293  0.0707
 5029SOL     OW19887   2.322   2.216   2.679 -0.2618 -0.1678  0.7442
 5029SOL    HW219888   2.335   2.260   2.594 -0.0947 -1.4235  0.0897
 5029SOL    HW319889   2.385   2.258   2.737 -0.8608  1.2021  0.4505
 5029SOL    MW419890   2.332   2.228   2.675 -0.3188 -0.1527  0.6191
 5030SOL     OW19891   0.063   6.235   4.016 -0.2258 -0.0738 -0.1394
 5030SOL    HW219892   0.120   6.162   3.992  0.2110 -0.5162  2.0442
 5030SOL    HW319893   0.119   6.294   4.066 -1.7273 -0.8833  2.7432
 5030SOL    MW419894   0.078   6.233   4.019 -0.3663 -0.2390  0.5290
 5031SOL     OW19895   0.065   1.328   4.054  0.7081  0.0063  0.2894
 5031SOL    HW219896   0.099   1.384   3.984 -0.2202  1.8104  1.2302
 5031SOL    HW319897   0.022   1.388   4.114 -0.5915 -1.7657  1.2057
 5031SOL    MW419898   0.064   1.343   4.053  0.4141  0.0106  0.5344
 5032SOL     OW19899   5.247   1.293   4.051 -0.5929  0.1890  0.2264
 5032SOL    HW219900   5.333   1.276   4.013 -1.0139 -0.3150 -0.5309
 5032SOL    HW319901   5.194   1.326   3.978 -1.4729 -0.9792  0.3044
 5032SOL    MW419902   5.251   1.295   4.036 -0.7646 -0.0316  0.1368
 5033SOL     OW19903   1.714   0.195   1.014 -0.2354  0.2365 -0.1336
 5033SOL    HW219904   1.805   0.222   1.028 -0.3090  0.7160 -0.5792
 5033SOL    HW319905   1.713   0.158   0.926 -0.5568  0.5980 -0.2827
 5033SOL    MW419906   1.726   0.194   1.005 -0.2875  0.3475 -0.2121
 5034SOL     OW19907   5.645   4.789   5.547 -0.2503 -0.1535 -1.0752
 5034SOL    HW219908   5.577   4.728   5.519 -1.3620  1.3286 -1.7600
 5034SOL    HW319909   5.616   4.821   5.632  0.3079 -0.5353 -0.7349
 5034SOL    MW419910   5.632   4.786   5.554 -0.3233 -0.0083 -1.1206
 5035SOL     OW19911   2.634   2.941   5.154  0.5755 -0.1118 -0.2757
 5035SOL    HW219912   2.581   3.009   5.112 -1.0796 -1.4900 -0.5395
 5035SOL    HW319913   2.725   2.967   5.136 -0.0306  0.6351 -2.6310
 5035SOL    MW419914   2.639   2.954   5.146  0.2772 -0.1951 -0.6213
 5036SOL     OW19915   3.966   1.343   3.730  0.3015  0.4884  0.1147
 5036SOL    HW219916   3.961   1.251   3.753 -0.6202  0.9184  1.8083
 5036SOL    HW319917   3.880   1.362   3.691  0.4582  0.6471 -0.1542
 5036SOL    MW419918   3.954   1.334   3.728  0.2006  0.5661  0.3027
 5037SOL     OW19919   1.645   5.254   4.319  0.4170  0.2248  0.0638
 5037SOL    HW219920   1.667   5.328   4.375 -0.2019 -0.0125  0.6398
 5037SOL    HW319921   1.729   5.223   4.285  0.7875  0.4985  0.7107
 5037SOL    MW419922   1.659   5.260   4.322  0.3843  0.2296  0.2251
 5038SOL     OW19923   2.746   3.172   3.148 -0.2255 -0.0216 -0.3904
 5038SOL    HW219924   2.833   3.138   3.165 -0.0322  0.4424 -0.4420
 5038SOL    HW319925   2.730   3.235   3.219 -1.6850 -2.1802  1.3283
 5038SOL    MW419926   2.755   3.176   3.159 -0.3925 -0.2452 -0.1704
 5039SOL     OW19927   3.819   4.692   2.538 -0.0853 -0.2529  0.0101
 5039SOL    HW219928   3.727   4.678   2.559 -0.6771 -2.0190 -3.0888
 5039SOL    HW319929   3.866   4.627   2.591 -0.7225 -0.0879  0.7893
 5039SOL    MW419930   3.813   4.681   2.548 -0.2475 -0.4641 -0.2960
 5040SOL     OW19931   2.288   4.148   4.170  0.0795 -0.1478 -0.6777
 5040SOL    HW219932   2.316   4.082   4.233 -2.3360  0.7459  1.5230
 5040SOL    HW319933   2.193   4.139   4.167  0.0303  0.5042 -3.5573
 5040SOL    MW419934   2.279   4.138   4.178 -0.2457  0.0562 -0.7673
 5041SOL     OW19935   0.876   4.651   2.522 -0.3447  0.0711  0.4963
 5041SOL    HW219936   0.790   4.626   2.555 -0.4531 -1.5568 -0.8810
 5041SOL    HW319937   0.937   4.628   2.591 -0.6359 -2.5643 -0.0189
 5041SOL    MW419938   0.872   4.645   2.535 -0.3974 -0.4914  0.2466
 5042SOL     OW19939   4.123   0.962   2.639 -0.0069 -0.1833 -0.1518
 5042SOL    HW219940   4.177   1.014   2.699  0.5967  0.6553 -1.3890
 5042SOL    HW319941   4.059   0.920   2.696 -0.3399  1.6745  0.9480
 5042SOL    MW419942   4.121   0.963   2.654  0.0288  0.1724 -0.1699
 5043SOL     OW19943   4.006   0.861   1.262  0.5205  0.2535  0.0267
 5043SOL    HW219944   3.993   0.889   1.172  0.8913  0.4044  0.0153
 5043SOL    HW319945   4.026   0.942   1.310 -3.0733  0.7377  0.9568
 5043SOL    MW419946   4.007   0.875   1.257  0.0953  0.3373  0.1479
 5044SOL     OW19947   4.176   1.669   2.991  0.4367  0.1235  0.0186
 5044SOL    HW219948   4.213   1.749   2.954  0.3000  0.3863  0.4480
 5044SOL    HW319949   4.119   1.699   3.061 -0.2922 -0.3031 -0.3739
 5044SOL    MW419950   4.173   1.683   2.995  0.3225  0.1019  0.0235
 5045SOL     OW19951   2.338   3.272   5.076 -0.0014 -0.0455 -0.3895
 5045SOL    HW219952   2.396   3.204   5.042 -0.6343 -0.2440 -1.1044
 5045SOL    HW319953   2.320   3.244   5.166 -1.2712 -1.5558 -1.0572
 5045SOL    MW419954   2.343   3.259   5.083 -0.2525 -0.2710 -0.5719
 5046SOL     OW19955   3.902   4.194   0.886 -0.1230  0.2996  0.7144
 5046SOL    HW219956   3.891   4.265   0.822  2.8498  1.0752  0.8881
 5046SOL    HW319957   3.869   4.116   0.842 -0.9907  1.3432 -0.5438
 5046SOL    MW419958   3.896   4.193   0.872  0.1547  0.5397  0.5713
 5047SOL     OW19959   0.972   3.272   3.280 -0.1902 -0.0983  0.6323
 5047SOL    HW219960   1.008   3.348   3.236 -0.0968 -0.2661  0.4179
 5047SOL    HW319961   1.016   3.270   3.365 -0.5009  0.3276  0.8087
 5047SOL    MW419962   0.982   3.282   3.285 -0.2189 -0.0643  0.6273
 5048SOL     OW19963   1.051   5.865   1.510 -0.6640  0.3803 -0.3474
 5048SOL    HW219964   1.081   5.795   1.567 -0.4649  0.6752 -0.0919
 5048SOL    HW319965   1.130   5.912   1.485 -0.6609 -0.1681 -1.4391
 5048SOL    MW419966   1.065   5.862   1.514 -0.6373  0.3468 -0.4577
 5049SOL     OW19967   3.555   0.678   5.000 -0.8010  0.0143  0.3377
 5049SOL    HW219968   3.485   0.696   4.937  0.3739 -1.7489 -1.6234
 5049SOL    HW319969   3.511   0.676   5.085 -2.6740  1.2980 -0.5247
 5049SOL    MW419970   3.540   0.680   5.003 -0.8931 -0.0490 -0.0348
 5050SOL     OW19971   0.054   5.658   4.366  0.3100  0.0085 -0.0227
 5050SOL    HW219972   0.111   5.709   4.308 -0.0758  2.7889  1.8381
 5050SOL    HW319973   0.114   5.608   4.420  0.9138  0.9733  0.2362
 5050SOL    MW419974   0.070   5.658   4.365  0.3387  0.5027  0.2570
 5051SOL     OW19975   4.339   5.407   0.895  0.2087  0.3127 -0.4858
 5051SOL    HW219976   4.377   5.355   0.966 -0.4859  1.8861  1.1089
 5051SOL    HW319977   4.363   5.497   0.916 -0.0672  0.8224 -2.2458
 5051SOL    MW419978   4.347   5.412   0.907  0.0806  0.5875 -0.5076
 5052SOL     OW19979   0.649   0.908   4.658 -0.2987 -0.4045  0.3489
 5052SOL    HW219980   0.646   0.815   4.639  0.7118 -0.2371 -0.7656
 5052SOL    HW319981   0.628   0.950   4.575  1.1477  0.3566  0.3321
 5052SOL    MW419982   0.646   0.901   4.645  0.0255 -0.2820  0.1996
 5053SOL     OW19983   2.878   2.915   2.547 -0.0029  0.3367 -0.1339
 5053SOL    HW219984   2.833   2.994   2.518 -1.1788 -0.5817 -0.8868
 5053SOL    HW319985   2.837   2.895   2.631 -0.7222 -0.2675 -0.6230
 5053SOL    MW419986   2.867   2.923   2.555 -0.2529  0.1358 -0.2978
 5054SOL     OW19987   3.280   1.178   6.252 -0.3669  0.1054 -0.2058
 5054SOL    HW219988   3.369   1.169   6.219 -0.5212 -1.4551 -0.2523
 5054SOL    HW319989   3.280   1.133   6.337 -0.5864  1.9765  0.8589
 5054SOL    MW419990   3.292   1.171   6.259 -0.4162  0.1464 -0.0714
 5055SOL     OW19991   1.651   4.461   5.070 -0.0852  0.9157 -0.2336
 5055SOL    HW219992   1.743   4.462   5.098  0.3032  1.3118 -1.4553
 5055SOL    HW319993   1.614   4.542   5.104  0.1972  1.0631 -0.2738
 5055SOL    MW419994   1.659   4.472   5.078  0.0033  0.9874 -0.4001
 5056SOL     OW19995   1.659   5.132   2.480  0.1517  0.7413  0.0452
 5056SOL    HW219996   1.729   5.196   2.469 -0.4333  1.4147  0.2089
 5056SOL    HW319997   1.648   5.093   2.393 -2.3284  3.8435 -1.2146
 5056SOL    MW419998   1.667   5.135   2.467 -0.2527  1.2394 -0.0994
 5057SOL     OW19999   2.562   5.661   6.231  0.5565  0.2646  0.0707
 5057SOL    HW220000   2.576   5.574   6.269 -1.0480 -0.0190  0.0722
 5057SOL    HW320001   2.578   5.649   6.137 -2.2795 -0.7518 -0.3834
 5057SOL    MW420002   2.566   5.648   6.223 -0.0294  0.0931  0.0110
 5058SOL     OW20003   5.604   4.046   5.409 -0.0951 -0.5558 -0.2377
 5058SOL    HW220004   5.656   4.024   5.331  1.0395  0.5559  0.1653
 5058SOL    HW320005   5.570   3.962   5.439 -0.1332 -1.0740 -1.6341
 5058SOL    MW420006   5.607   4.032   5.403  0.0496 -0.4775 -0.3688
 5059SOL     OW20007   4.743   3.093   6.261 -0.4283 -0.0769 -0.3441
 5059SOL    HW220008   4.824   3.048   6.286 -0.3749 -0.9025 -1.8607
 5059SOL    HW320009   4.771   3.178   6.227 -0.3050  0.1094  0.2215
 5059SOL    MW420010   4.757   3.098   6.260 -0.4050 -0.1613 -0.4695
 5060SOL     OW20011   0.393   2.206   2.016  0.1517 -0.8572 -0.2393
 5060SOL    HW220012   0.338   2.262   1.962 -1.6178 -1.6796  0.6169
 5060SOL    HW320013   0.426   2.140   1.956  0.8187  0.0692 -0.9108
 5060SOL    MW420014   0.390   2.205   2.001  0.0062 -0.8435 -0.2149
 5061SOL     OW20015   0.801   1.594   1.137  0.0914  0.4416  0.2108
 5061SOL    HW220016   0.834   1.562   1.221  0.5860 -1.3245 -0.6122
 5061SOL    HW320017   0.878   1.632   1.093 -0.1549  1.3118  0.5020
 5061SOL    MW420018   0.816   1.595   1.142  0.1242  0.3234  0.1406
 5062SOL     OW20019   2.253   0.037   4.196  0.4891 -0.0815 -0.5715
 5062SOL    HW220020   2.264   0.063   4.288 -0.9339 -1.8862  0.1772
 5062SOL    HW320021   2.330   0.073   4.152  0.8946  1.3810  1.1958
 5062SOL    MW420022   2.265   0.045   4.202  0.3548 -0.1267 -0.2395
 5063SOL     OW20023   4.702   0.852   1.096  0.2380  0.3604  0.0031
 5063SOL    HW220024   4.666   0.882   1.012  0.3134 -1.7238 -0.8532
 5063SOL    HW320025   4.655   0.770   1.113 -0.4738  1.2053  2.5338
 5063SOL    MW420026   4.691   0.845   1.087  0.1540  0.1969  0.2240
 5064SOL     OW20027   0.547   5.962   6.014 -0.2990 -0.2484  0.1565
 5064SOL    HW220028   0.474   5.905   5.991  0.3285 -0.6350 -0.9170
 5064SOL    HW320029   0.609   5.904   6.059 -0.7831  0.1528  1.3884
 5064SOL    MW420030   0.546   5.947   6.017 -0.2800 -0.2465  0.1774
 5065SOL     OW20031   3.678   6.228   0.905 -0.5728 -0.2095  0.2579
 5065SOL    HW220032   3.625   6.291   0.856 -0.3304  0.7987  1.2335
 5065SOL    HW320033   3.614   6.173   0.951 -0.8571 -2.2826 -2.4103
 5065SOL    MW420034   3.663   6.229   0.905 -0.5783 -0.3500  0.0346
 5066SOL     OW20035   0.886   5.176   1.952  0.2481 -0.5394 -0.0526
 5066SOL    HW220036   0.812   5.180   1.891 -1.0254  0.3243  1.4442
 5066SOL    HW320037   0.958   5.140   1.901 -1.1860 -1.3614 -1.6101
 5066SOL    MW420038   0.886   5.171   1.937 -0.1092 -0.5339 -0.0606
 5067SOL     OW20039   2.774   0.203   2.893 -0.0356 -0.0038 -0.4603
 5067SOL    HW220040   2.846   0.167   2.944  0.5833 -0.2833 -1.5072
 5067SOL    HW320041   2.735   0.270   2.949  0.3771 -0.5728  0.5173
 5067SOL    MW420042   2.778   0.207   2.907  0.1005 -0.1157 -0.4695
 5068SOL     OW20043   4.045   0.219   4.182 -0.4526  0.0430  0.0391
 5068SOL    HW220044   3.957   0.207   4.146 -1.5741 -0.3358  2.6552
 5068SOL    HW320045   4.098   0.152   4.138 -1.3101  0.6061 -1.9487
 5068SOL    MW420046   4.041   0.208   4.172 -0.7137  0.0673  0.1220
 5069SOL     OW20047   4.851   4.300   5.350  0.4868 -0.6846  0.0576
 5069SOL    HW220048   4.905   4.331   5.277 -1.4278  2.9828 -0.0271
 5069SOL    HW320049   4.912   4.292   5.423  1.4977  1.5082 -0.4777
 5069SOL    MW420050   4.866   4.303   5.350  0.3675  0.0886 -0.0242
 5070SOL     OW20051   0.832   2.710   4.990 -0.1289 -0.2247  0.0907
 5070SOL    HW220052   0.872   2.722   5.076  0.1954 -0.3766 -0.0382
 5070SOL    HW320053   0.738   2.707   5.007 -0.0024 -2.0232  0.6503
 5070SOL    MW420054   0.825   2.711   5.003 -0.0694 -0.4821  0.1475
 5071SOL     OW20055   0.627   3.779   5.139 -0.9393 -1.1400 -0.1910
 5071SOL    HW220056   0.657   3.729   5.064  0.6149 -0.9002  0.2322
 5071SOL    HW320057   0.684   3.856   5.142 -1.1826 -0.9766  1.0315
 5071SOL    MW420058   0.638   3.783   5.130 -0.7663 -1.0868  0.0261
 5072SOL     OW20059   1.627   3.226   2.711  0.2481  0.1807  0.2205
 5072SOL    HW220060   1.668   3.152   2.667  1.4647  0.0518  1.4840
 5072SOL    HW320061   1.639   3.299   2.650 -0.3414 -0.4879 -0.7265
 5072SOL    MW420062   1.634   3.226   2.697  0.3308  0.0755  0.2622
 5073SOL     OW20063   1.422   4.173   0.104 -0.4617 -0.2413 -0.0941
 5073SOL    HW220064   1.392   4.141   0.189 -0.3299  0.4979  0.2319
 5073SOL    HW320065   1.349   4.225   0.070  0.0104  0.6247  0.1975
 5073SOL    MW420066   1.409   4.175   0.111 -0.3820 -0.0295 -0.0126
 5074SOL     OW20067   2.547   5.047   2.564  0.1360  0.5443  0.6246
 5074SOL    HW220068   2.576   5.085   2.647  0.3408  1.0392  0.3282
 5074SOL    HW320069   2.456   5.076   2.555 -0.3947 -0.7599  1.4065
 5074SOL    MW420070   2.539   5.056   2.574  0.0930  0.4375  0.6887
 5075SOL     OW20071   2.547   5.486   2.220  0.1643 -0.3225 -0.2110
 5075SOL    HW220072   2.493   5.513   2.145 -1.0188  0.4272  0.8619
 5075SOL    HW320073   2.500   5.411   2.258  0.4272 -0.3214  0.1203
 5075SOL    MW420074   2.533   5.480   2.215  0.0429 -0.2234 -0.0258
 5076SOL     OW20075   6.137   5.040   1.952 -0.3603  0.5061  0.3448
 5076SOL    HW220076   6.118   5.101   2.023  0.3212  1.3781 -0.2074
 5076SOL    HW320077   6.075   5.063   1.883  1.8797  2.7284 -1.0908
 5076SOL    MW420078   6.126   5.051   1.952  0.0251  0.9143  0.0825
 5077SOL     OW20079   4.035   3.843   2.081 -0.0144 -0.4648  0.6161
 5077SOL    HW220080   4.092   3.770   2.106 -1.8859 -2.5608 -0.8138
 5077SOL    HW320081   3.994   3.815   1.999 -0.6108  2.3761 -0.1718
 5077SOL    MW420082   4.037   3.830   2.074 -0.3400 -0.3666  0.3235
 5078SOL     OW20083   0.272   5.635   2.886 -0.4201  0.0721  0.2198
 5078SOL    HW220084   0.318   5.556   2.914  0.6778  0.8499  0.7219
 5078SOL    HW320085   0.179   5.612   2.890 -0.1082 -1.5703 -0.8585
 5078SOL    MW420086   0.266   5.622   2.891 -0.2341 -0.0420  0.1438
 5079SOL     OW20087   4.826   2.221   1.637 -0.2849  0.5531 -0.1881
 5079SOL    HW220088   4.794   2.194   1.551 -0.0996 -1.5432  0.3511
 5079SOL    HW320089   4.890   2.290   1.618 -1.0876  0.9347 -1.6368
 5079SOL    MW420090   4.830   2.227   1.623 -0.3664  0.3268 -0.3081
 5080SOL     OW20091   3.917   0.176   1.621  0.6329 -0.1279 -0.1942
 5080SOL    HW220092   4.012   0.173   1.633  0.6708 -0.2133 -0.5084
 5080SOL    HW320093   3.904   0.236   1.547  0.5164 -1.0166 -0.9054
 5080SOL    MW420094   3.928   0.184   1.612  0.6226 -0.2564 -0.3295
 5081SOL     OW20095   2.709   5.401   2.026 -0.0556 -0.0443 -0.3491
 5081SOL    HW220096   2.641   5.419   2.090  0.3972  1.0106 -0.1498
 5081SOL    HW320097   2.665   5.351   1.957 -0.8314 -0.0691  0.1610
 5081SOL    MW420098   2.695   5.397   2.025 -0.0982  0.0916 -0.2555
 5082SOL     OW20099   1.180   0.754   2.952  0.4855 -0.5457 -0.0013
 5082SOL    HW220100   1.264   0.714   2.976  0.9803 -0.2612 -1.1371
 5082SOL    HW320101   1.198   0.848   2.953 -0.3620 -0.3744  1.5777
 5082SOL    MW420102   1.194   0.761   2.955  0.4389 -0.4855  0.0572
 5083SOL     OW20103   1.945   0.913   1.296 -0.6377  0.5533  0.2642
 5083SOL    HW220104   1.985   0.958   1.370 -1.6573  0.1932  1.0607
 5083SOL    HW320105   1.857   0.889   1.327 -0.9685  0.1090 -0.9481
 5083SOL    MW420106   1.939   0.916   1.310 -0.8159  0.4472  0.2093
 5084SOL     OW20107   0.960   2.944   4.926 -0.2237  0.4427  0.1317
 5084SOL    HW220108   0.960   2.978   5.015 -0.1088  0.5933  0.0740
 5084SOL    HW320109   0.914   2.860   4.933  3.0057 -1.4276  1.0751
 5084SOL    MW420110   0.954   2.937   4.939  0.2175  0.2158  0.2485
 5085SOL     OW20111   4.636   5.581   6.397 -0.4397  0.3845 -0.2942
 5085SOL    HW220112   4.620   5.586   6.491 -0.4409  2.5596 -0.3628
 5085SOL    HW320113   4.637   5.672   6.368  3.6593  0.1296 -1.7063
 5085SOL    MW420114   4.634   5.593   6.405  0.1009  0.6379 -0.4895
 5086SOL     OW20115   6.194   4.806   2.691 -0.1306  0.3717  0.2698
 5086SOL    HW220116   6.255   4.833   2.623 -0.8783  0.4061 -0.3994
 5086SOL    HW320117   6.121   4.766   2.644  0.8636 -2.7999  1.1993
 5086SOL    MW420118   6.192   4.804   2.676 -0.0981 -0.0422  0.3042
 5087SOL     OW20119   3.001   0.982   1.205  0.0732  0.1953  0.5582
 5087SOL    HW220120   2.931   0.924   1.174  1.1902 -1.1584  0.4372
 5087SOL    HW320121   2.991   1.062   1.154 -0.6380 -0.4390 -0.3249
 5087SOL    MW420122   2.991   0.985   1.194  0.1268 -0.0670  0.4257
 5088SOL     OW20123   3.555   2.778   2.276  0.1755  0.1029  0.3206
 5088SOL    HW220124   3.599   2.712   2.329  0.2827  1.7835  2.4432
 5088SOL    HW320125   3.523   2.729   2.200  0.0482 -2.4306  1.8761
 5088SOL    MW420126   3.557   2.763   2.273  0.1728 -0.0096  0.8059
 5089SOL     OW20127   2.160   6.196   4.157  0.8652  0.0586  0.2262
 5089SOL    HW220128   2.201   6.148   4.085 -0.3945 -0.0969 -0.4108
 5089SOL    HW320129   2.196   6.285   4.149  0.9460 -0.0229 -0.4421
 5089SOL    MW420130   2.170   6.201   4.146  0.7097  0.0273  0.0540
 5090SOL     OW20131   1.232   6.223   0.049  0.1167 -0.2615  0.3224
 5090SOL    HW220132   1.223   6.274   0.130 -1.3113  0.9602 -0.5522
 5090SOL    HW320133   1.144   6.222   0.012  0.4644 -1.9759 -0.5520
 5090SOL    MW420134   1.219   6.229   0.055 -0.0258 -0.3265  0.0916
 5091SOL     OW20135   5.546   5.686   3.954  0.0869 -0.3299  0.0691
 5091SOL    HW220136   5.491   5.715   3.881  1.1112  1.3312 -0.0830
 5091SOL    HW320137   5.548   5.760   4.015  2.1488 -0.2847  0.0404
 5091SOL    MW420138   5.539   5.699   3.952  0.4941 -0.1048  0.0452
 5092SOL     OW20139   0.388   2.039   0.221 -0.2073  0.1224 -0.2864
 5092SOL    HW220140   0.440   2.039   0.301 -0.8073 -0.9991  0.1360
 5092SOL    HW320141   0.338   1.957   0.226 -3.2647  1.8833  0.1608
 5092SOL    MW420142   0.388   2.028   0.232 -0.6899  0.2067 -0.1716
 5093SOL     OW20143   0.312   4.553   4.515  0.1079  0.4348 -0.4672
 5093SOL    HW220144   0.379   4.608   4.555 -0.4094  1.6567 -1.2059
 5093SOL    HW320145   0.359   4.498   4.453  0.6827 -0.2298  0.5336
 5093SOL    MW420146   0.327   4.553   4.512  0.1155  0.5083 -0.4326
 5094SOL     OW20147   4.459   2.169   3.805 -0.3057 -0.6059  0.0987
 5094SOL    HW220148   4.414   2.116   3.870 -0.1294  0.6014  1.2442
 5094SOL    HW320149   4.404   2.163   3.727 -0.4957 -2.1103  0.3189
 5094SOL    MW420150   4.446   2.161   3.803 -0.3075 -0.6451  0.2789
 5095SOL     OW20151   2.115   1.332   3.036 -0.7838 -1.1736  0.1074
 5095SOL    HW220152   2.045   1.389   3.066 -0.6002  0.3850 -2.1635
 5095SOL    HW320153   2.195   1.369   3.075 -0.9303 -1.3016  0.5258
 5095SOL    MW420154   2.117   1.344   3.045 -0.7789 -0.9848 -0.1370
 5096SOL     OW20155   4.285   5.666   2.117  0.0199  0.1788  0.2021
 5096SOL    HW220156   4.217   5.601   2.135 -0.5675  0.7441  0.0638
 5096SOL    HW320157   4.359   5.614   2.085 -0.9064 -0.3273 -1.2291
 5096SOL    MW420158   4.286   5.650   2.115 -0.1798  0.1866 -0.0050
 5097SOL     OW20159   3.877   4.028   5.135  0.4074  0.5110  0.3182
 5097SOL    HW220160   3.913   3.986   5.057 -3.9473 -0.2096 -1.5319
 5097SOL    HW320161   3.915   3.978   5.208  1.7158 -1.2622 -1.4613
 5097SOL    MW420162   3.887   4.016   5.134  0.0055  0.1820 -0.1607
 5098SOL     OW20163   2.388   4.117   5.550  0.1881 -0.1665 -0.1880
 5098SOL    HW220164   2.372   4.169   5.629 -1.6593 -0.6926 -0.1685
 5098SOL    HW320165   2.372   4.178   5.478  0.4207 -0.0743 -0.1625
 5098SOL    MW420166   2.384   4.132   5.551 -0.0249 -0.2237 -0.1821
 5099SOL     OW20167   3.911   0.661   1.637  0.0219 -0.5630  0.7591
 5099SOL    HW220168   3.938   0.738   1.687  0.2146 -0.5923  0.6990
 5099SOL    HW320169   3.825   0.639   1.674 -1.7242  1.7615 -1.5539
 5099SOL    MW420170   3.903   0.668   1.649 -0.1831 -0.2602  0.4460
 5100SOL     OW20171   1.222   3.963   2.855 -0.5297 -0.0479  0.1007
 5100SOL    HW220172   1.239   3.907   2.931 -0.2699 -0.0957  0.0100
 5100SOL    HW320173   1.127   3.977   2.856 -0.3197  1.5154  1.5209
 5100SOL    MW420174   1.212   3.957   2.865 -0.4677  0.1520  0.2761
 5101SOL     OW20175   6.324   3.765   5.081 -0.2571  0.0021 -0.3032
 5101SOL    HW220176   6.325   3.815   4.999  1.7421  0.1671 -0.2347
 5101SOL    HW320177   6.408   3.786   5.123 -0.8927 -0.6945  1.4194
 5101SOL    MW420178   6.336   3.774   5.076 -0.0772 -0.0680 -0.0669
 5102SOL     OW20179   6.198   3.783   4.117 -0.3234 -0.7669  0.0509
 5102SOL    HW220180   6.105   3.759   4.116 -0.5621  0.1523 -0.7509
 5102SOL    HW320181   6.237   3.730   4.047  0.1026 -2.3448  1.4007
 5102SOL    MW420182   6.191   3.773   4.108 -0.2987 -0.8538  0.1232
 5103SOL     OW20183   0.586   3.535   3.261 -0.0219  0.0248 -0.2160
 5103SOL    HW220184   0.612   3.444   3.252  2.2142  0.7165 -1.4761
 5103SOL    HW320185   0.582   3.568   3.172 -1.5216  1.0159  0.1750
 5103SOL    MW420186   0.589   3.528   3.248  0.0753  0.2468 -0.3307
 5104SOL     OW20187   0.363   5.682   2.514  0.2538  0.1683 -0.3525
 5104SOL    HW220188   0.353   5.611   2.451  0.8152  1.4209 -1.8996
 5104SOL    HW320189   0.422   5.646   2.581  1.9202 -0.2777 -1.9840
 5104SOL    MW420190   0.369   5.668   2.515  0.5477  0.2747 -0.7719
 5105SOL     OW20191   4.565   6.100   2.971 -0.0924 -0.1958 -0.2095
 5105SOL    HW220192   4.574   6.004   2.967 -1.0719 -0.3746  1.3375
 5105SOL    HW320193   4.568   6.127   2.879 -0.6053 -1.7941 -0.7398
 5105SOL    MW420194   4.566   6.091   2.958 -0.2893 -0.4303 -0.0753
 5106SOL     OW20195   0.082   0.324   0.437 -0.8288 -0.0208  0.2864
 5106SOL    HW220196   0.122   0.379   0.369 -0.4379  0.0609  0.5818
 5106SOL    HW320197   0.140   0.333   0.512 -0.1588 -1.6868  0.0078
 5106SOL    MW420198   0.095   0.333   0.438 -0.6889 -0.2298  0.2886
 5107SOL     OW20199   5.341   4.880   1.929 -0.3762 -0.3677  0.4187
 5107SOL    HW220200   5.260   4.877   1.981  0.3613 -2.6653  1.6212
 5107SOL    HW320201   5.405   4.834   1.984  0.2642 -3.8042 -2.8080
 5107SOL    MW420202   5.338   4.873   1.943 -0.1944 -1.1242  0.1517
 5108SOL     OW20203   6.367   2.935   3.958 -0.4158  0.2445 -0.0923
 5108SOL    HW220204   6.306   2.887   4.014 -1.2972  2.5694  1.0875
 5108SOL    HW320205   6.447   2.942   4.010 -0.0127 -0.5917 -0.5859
 5108SOL    MW420206   6.369   2.930   3.973 -0.4789  0.4409 -0.0018
 5109SOL     OW20207   4.179   4.286   1.598  0.0201  0.1928 -0.1779
 5109SOL    HW220208   4.188   4.212   1.657  0.1550 -0.3986 -0.9165
 5109SOL    HW320209   4.223   4.358   1.642  1.4920 -0.6301 -0.2306
 5109SOL    MW420210   4.186   4.286   1.611  0.2321  0.0062 -0.2823
 5110SOL     OW20211   5.981   5.475   6.245  0.4454  0.0051 -0.4794
 5110SOL    HW220212   5.961   5.543   6.182  0.7889  0.3665 -0.2037
 5110SOL    HW320213   5.961   5.393   6.200  1.2660  0.2280 -1.2754
 5110SOL    MW420214   5.976   5.473   6.231  0.5990  0.0822 -0.5481
 5111SOL     OW20215   4.556   2.567   3.154  0.0660 -0.5174 -0.0101
 5111SOL    HW220216   4.463   2.549   3.151  0.1826 -1.0526 -0.8650
 5111SOL    HW320217   4.577   2.603   3.067  1.1804 -3.2430 -0.9797
 5111SOL    MW420218   4.547   2.570   3.142  0.2284 -0.9477 -0.2508
 5112SOL     OW20219   4.561   2.767   3.342 -0.6044  1.0985 -0.1443
 5112SOL    HW220220   4.588   2.697   3.282  0.5296 -0.9781  2.5867
 5112SOL    HW320221   4.609   2.844   3.311 -0.2858  0.1897 -2.0497
 5112SOL    MW420222   4.571   2.768   3.330 -0.4127  0.7046 -0.0354
 5113SOL     OW20223   2.632   3.719   3.525 -0.4135  0.4632 -0.0988
 5113SOL    HW220224   2.664   3.793   3.474 -1.0114  0.1574 -0.9327
 5113SOL    HW320225   2.566   3.678   3.469 -0.9102 -0.0184  0.8233
 5113SOL    MW420226   2.627   3.723   3.511 -0.5579  0.3593 -0.0872
 5114SOL     OW20227   0.767   4.304   2.635  0.3844  0.0248  0.1435
 5114SOL    HW220228   0.858   4.297   2.665  0.4775 -1.8632 -0.4903
 5114SOL    HW320229   0.734   4.215   2.637 -1.4367  0.6570  0.2013
 5114SOL    MW420230   0.775   4.292   2.640  0.1564 -0.1409  0.0675
 5115SOL     OW20231   3.755   6.393   1.930 -0.0551  0.0181  0.2615
 5115SOL    HW220232   3.751   6.316   1.986  2.4606 -0.7521 -0.5093
 5115SOL    HW320233   3.733   6.361   1.843  0.1544  0.3693  0.0791
 5115SOL    MW420234   3.751   6.379   1.926  0.3045 -0.0372  0.1357
 5116SOL     OW20235   4.045   5.407   5.166 -0.0630  0.1571 -0.6834
 5116SOL    HW220236   4.032   5.413   5.072 -2.3347 -1.3910 -0.5461
 5116SOL    HW320237   3.957   5.411   5.203  0.7237  0.1550  1.3454
 5116SOL    MW420238   4.032   5.409   5.159 -0.2589 -0.0474 -0.3976
 5117SOL     OW20239   4.856   1.276   4.765 -0.6976 -0.0062 -0.1792
 5117SOL    HW220240   4.768   1.261   4.731  0.0838 -0.1913 -2.2785
 5117SOL    HW320241   4.897   1.190   4.765 -1.0721 -0.2704  2.6712
 5117SOL    MW420242   4.850   1.263   4.761 -0.6439 -0.0655 -0.0801
 5118SOL     OW20243   0.191   6.031   6.114  0.1781 -0.1921  0.0791
 5118SOL    HW220244   0.184   5.945   6.154  2.7625  0.3924  2.0260
 5118SOL    HW320245   0.216   6.089   6.185 -1.0031  2.1139 -1.2800
 5118SOL    MW420246   0.194   6.027   6.128  0.3632  0.1893  0.1566
 5119SOL     OW20247   5.365   0.759   3.209  0.1243  0.0771 -0.0147
 5119SOL    HW220248   5.311   0.700   3.156  0.7438 -0.3413 -0.1844
 5119SOL    HW320249   5.302   0.805   3.265 -0.1885 -2.7069  2.1057
 5119SOL    MW420250   5.349   0.758   3.209  0.1648 -0.3454  0.2427
 5120SOL     OW20251   4.391   4.069   2.076 -0.1517  0.1529  0.1535
 5120SOL    HW220252   4.378   4.032   2.164 -0.3136  1.4781  0.7087
 5120SOL    HW320253   4.480   4.043   2.053  0.0530  0.1600  0.8987
 5120SOL    MW420254   4.401   4.060   2.085 -0.1461  0.3287  0.3251
 5121SOL     OW20255   0.128   3.953   4.223 -0.4927  0.2757  0.0214
 5121SOL    HW220256   0.122   4.048   4.216  0.9619  0.7454  3.3073
 5121SOL    HW320257   0.190   3.938   4.294 -0.4554 -3.1710 -0.5535
 5121SOL    MW420258   0.136   3.964   4.231 -0.2959 -0.1171  0.3791
 5122SOL     OW20259   6.151   3.668   3.247  0.5721  0.5609  0.3473
 5122SOL    HW220260   6.213   3.607   3.289 -0.5321  0.4251  1.8578
 5122SOL    HW320261   6.169   3.659   3.154  0.4199 -2.1738  0.4880
 5122SOL    MW420262   6.162   3.659   3.241  0.4064  0.1822  0.5652
 5123SOL     OW20263   3.110   4.827   5.088  0.1594  0.2645 -0.0199
 5123SOL    HW220264   3.130   4.735   5.106 -0.0581 -0.2200 -2.0302
 5123SOL    HW320265   3.041   4.824   5.021  0.9992  1.8780 -1.0054
 5123SOL    MW420266   3.103   4.814   5.081  0.2415  0.4135 -0.4152
 5124SOL     OW20267   0.624   0.268   4.720  0.1776  0.3737 -0.0514
 5124SOL    HW220268   0.685   0.334   4.753  0.8361 -0.2091 -0.0662
 5124SOL    HW320269   0.552   0.268   4.783  0.7794  0.2188  0.6495
 5124SOL    MW420270   0.623   0.276   4.732  0.3439  0.2764  0.0391
 5125SOL     OW20271   4.920   5.916   2.220  0.0614 -0.0351 -0.5269
 5125SOL    HW220272   4.878   6.002   2.224 -1.0423 -0.4605 -2.1568
 5125SOL    HW320273   4.914   5.882   2.310 -2.2919  0.3086 -0.5045
 5125SOL    MW420274   4.914   5.923   2.232 -0.3947 -0.0459 -0.7390
 5126SOL     OW20275   2.735   6.310   4.972  0.1027  0.2129  0.1877
 5126SOL    HW220276   2.804   6.255   5.010  0.4410  0.0912 -0.6005
 5126SOL    HW320277   2.782   6.381   4.929 -0.2246 -0.2637 -0.9842
 5126SOL    MW420278   2.750   6.312   4.972  0.1041  0.1340 -0.0709
 5127SOL     OW20279   3.165   4.370   1.155 -0.2586  0.0347 -0.3464
 5127SOL    HW220280   3.196   4.306   1.091  0.3374  0.8529 -0.8990
 5127SOL    HW320281   3.232   4.369   1.224 -0.9613 -0.9346  0.3601
 5127SOL    MW420282   3.178   4.361   1.156 -0.2727  0.0148 -0.3261
 5128SOL     OW20283   4.454   3.510   0.550 -0.2106  0.6495  0.2419
 5128SOL    HW220284   4.379   3.491   0.607 -0.0853 -0.1850  0.1459
 5128SOL    HW320285   4.420   3.495   0.462 -0.1842  1.1790  0.1380
 5128SOL    MW420286   4.440   3.506   0.546 -0.1906  0.6093  0.2155
 5129SOL     OW20287   1.233   1.671   3.968 -0.2812 -0.4024  0.2607
 5129SOL    HW220288   1.235   1.704   3.878 -1.9519 -0.0819  0.3089
 5129SOL    HW320289   1.153   1.708   4.005  0.0790 -1.0096  1.7081
 5129SOL    MW420290   1.223   1.681   3.961 -0.4541 -0.4402  0.4581
 5130SOL     OW20291   0.450   6.032   0.113 -0.1706  0.2419  0.4020
 5130SOL    HW220292   0.430   6.114   0.069  2.4294  0.3099 -0.8658
 5130SOL    HW320293   0.444   5.965   0.045  1.8999  0.0545  0.3398
 5130SOL    MW420294   0.447   6.034   0.098  0.4456  0.2262  0.2266
 5131SOL     OW20295   1.754   2.521   4.624 -0.1376 -0.2185 -0.0877
 5131SOL    HW220296   1.841   2.559   4.616 -0.5265  0.4755 -1.4142
 5131SOL    HW320297   1.766   2.443   4.677  1.8172 -1.6942 -2.4935
 5131SOL    MW420298   1.767   2.516   4.630  0.0690 -0.3216 -0.5801
 5132SOL     OW20299   3.708   0.866  -0.017  0.1915  0.3367 -0.3161
 5132SOL    HW220300   3.753   0.942  -0.056 -2.3577  1.9101 -0.4139
 5132SOL    HW320301   3.698   0.890   0.075  0.0366 -0.2273 -0.1873
 5132SOL    MW420302   3.713   0.879  -0.010 -0.1653  0.4698 -0.3120
 5133SOL     OW20303   0.322   5.222   3.199  0.0725  0.1556 -0.4334
 5133SOL    HW220304   0.321   5.128   3.181  0.5600  0.5531 -2.9681
 5133SOL    HW320305   0.414   5.246   3.195 -0.0569  0.7578  0.0778
 5133SOL    MW420306   0.334   5.213   3.196  0.1197  0.2875 -0.7003
 5134SOL     OW20307   5.639   4.491   5.992  0.2163  0.1139 -0.1314
 5134SOL    HW220308   5.718   4.481   6.045  0.9606  1.1953 -0.9848
 5134SOL    HW320309   5.669   4.532   5.911 -1.1690  0.1955 -0.6428
 5134SOL    MW420310   5.653   4.495   5.988  0.1318  0.2673 -0.3115
 5135SOL     OW20311   1.035   0.812   3.894 -0.2990 -0.1752 -0.1601
 5135SOL    HW220312   1.083   0.751   3.951  2.1088  1.4626 -0.2531
 5135SOL    HW320313   1.042   0.897   3.939 -0.5315  0.6714 -1.6464
 5135SOL    MW420314   1.043   0.816   3.908 -0.0120  0.1526 -0.3685
 5136SOL     OW20315   6.180   5.483   1.270  0.0732  1.0418 -0.3106
 5136SOL    HW220316   6.179   5.434   1.353  1.1659  0.3807 -0.6640
 5136SOL    HW320317   6.101   5.536   1.272 -1.2193 -0.8298  0.0340
 5136SOL    MW420318   6.170   5.484   1.282  0.0469  0.7076 -0.3117
 5137SOL     OW20319   5.883   6.099   1.619 -0.6238 -0.3902  0.8598
 5137SOL    HW220320   5.915   6.128   1.705 -2.0818 -0.8441  1.5954
 5137SOL    HW320321   5.860   6.007   1.632  0.0583 -0.7452 -0.3097
 5137SOL    MW420322   5.884   6.091   1.632 -0.7261 -0.4969  0.8025
 5138SOL     OW20323   0.755   3.117   3.873 -0.0507  0.0539 -0.2978
 5138SOL    HW220324   0.696   3.108   3.948 -0.1603  1.0216 -0.2535
 5138SOL    HW320325   0.828   3.169   3.905 -0.1470  0.5625 -0.8841
 5138SOL    MW420326   0.757   3.122   3.887 -0.0779  0.2487 -0.3693
 5139SOL     OW20327   2.764   5.918   1.126  0.4431 -0.3322 -0.3404
 5139SOL    HW220328   2.674   5.940   1.153  0.8804 -1.6514  2.4727
 5139SOL    HW320329   2.818   5.946   1.199  2.1614 -1.1079 -1.2743
 5139SOL    MW420330   2.759   5.925   1.139  0.7275 -0.6086 -0.0925
 5140SOL     OW20331   1.703   0.998   2.319  0.0537  0.0310  0.0364
 5140SOL    HW220332   1.686   0.995   2.225  1.6833 -0.3755 -0.2730
 5140SOL    HW320333   1.782   0.947   2.331  0.8262  1.4552  1.4088
 5140SOL    MW420334   1.711   0.991   2.308  0.3707  0.1653  0.1767
 5141SOL     OW20335   5.801   0.274   2.647 -0.2760  0.3267  0.4563
 5141SOL    HW220336   5.866   0.218   2.691  0.1921 -1.0958 -1.8913
 5141SOL    HW320337   5.751   0.214   2.592 -0.6014  2.0571 -1.2054
 5141SOL    MW420338   5.803   0.259   2.646 -0.2572  0.3673 -0.0727
 5142SOL     OW20339   3.876   5.607   6.134  0.4653  0.2650  0.5453
 5142SOL    HW220340   3.838   5.655   6.061  1.8627 -0.0117 -0.3997
 5142SOL    HW320341   3.901   5.676   6.196  3.0729  0.9374 -1.0915
 5142SOL    MW420342   3.874   5.623   6.133  0.9937  0.3172  0.2047
 5143SOL     OW20343   5.268   1.982   3.446  0.4472 -0.7282  0.4251
 5143SOL    HW220344   5.358   1.950   3.455  0.9515  0.1392 -1.1945
 5143SOL    HW320345   5.218   1.904   3.422  1.0209 -0.9621 -0.0286
 5143SOL    MW420346   5.273   1.967   3.444  0.5894 -0.6446  0.1516
 5144SOL     OW20347   3.861   5.240   4.643 -0.2766  0.4720  0.1995
 5144SOL    HW220348   3.937   5.227   4.586 -1.2861  0.6379 -1.2585
 5144SOL    HW320349   3.898   5.269   4.726  1.2196  2.1732 -0.9574
 5144SOL    MW420350   3.876   5.242   4.646 -0.2124  0.7183 -0.1455
 5145SOL     OW20351   4.581   2.601   0.486  0.1209  0.4120  0.2923
 5145SOL    HW220352   4.570   2.511   0.517 -0.1808  0.5401  0.5520
 5145SOL    HW320353   4.624   2.591   0.401 -0.2594  0.0060  0.1456
 5145SOL    MW420354   4.585   2.588   0.479  0.0309  0.3753  0.3072
 5146SOL     OW20355   2.238   4.548   1.519  0.1626  0.1369  0.5099
 5146SOL    HW220356   2.219   4.535   1.426 -0.9949 -0.5590  0.8315
 5146SOL    HW320357   2.273   4.637   1.524  1.6502 -0.3264 -0.7900
 5146SOL    MW420358   2.240   4.558   1.507  0.2061 -0.0160  0.3808
 5147SOL     OW20359   1.540   4.685   4.919  0.1732 -0.3709 -0.3515
 5147SOL    HW220360   1.604   4.745   4.957  0.3128 -0.7687  0.0552
 5147SOL    HW320361   1.582   4.653   4.838  0.1080  0.0504 -0.5549
 5147SOL    MW420362   1.554   4.689   4.913  0.1830 -0.3678 -0.3247
 5148SOL     OW20363   3.046   4.812   6.038  0.3854 -1.0966  0.4391
 5148SOL    HW220364   3.004   4.742   5.988 -1.6137 -1.1543  2.0489
 5148SOL    HW320365   3.056   4.884   5.976 -0.0151 -1.8890 -0.5648
 5148SOL    MW420366   3.042   4.813   6.023  0.0688 -1.2087  0.5191
 5149SOL     OW20367   2.882   3.736   0.796 -0.3668 -0.0596  0.1984
 5149SOL    HW220368   2.927   3.652   0.809 -1.4289 -0.2244  3.8663
 5149SOL    HW320369   2.794   3.711   0.767  0.4312  0.1001 -2.7268
 5149SOL    MW420370   2.877   3.722   0.794 -0.4017 -0.0602  0.2964
 5150SOL     OW20371   5.749   2.662   1.907  0.1319 -0.3658 -0.7971
 5150SOL    HW220372   5.727   2.569   1.904  1.7196 -0.7378 -2.4612
 5150SOL    HW320373   5.760   2.681   2.001 -1.4936 -1.4926 -0.3312
 5150SOL    MW420374   5.747   2.652   1.919  0.1269 -0.5636 -0.9552
 5151SOL     OW20375   6.176   4.949   0.910  0.0679  0.4442  0.0716
 5151SOL    HW220376   6.126   4.884   0.861  0.6667  0.1163 -0.1138
 5151SOL    HW320377   6.110   5.005   0.951 -0.4527 -0.2790  0.2320
 5151SOL    MW420378   6.161   4.948   0.909  0.0782  0.3055  0.0683
 5152SOL     OW20379   5.839   5.146   1.232 -0.6264  0.3589  0.2845
 5152SOL    HW220380   5.852   5.241   1.230  1.9348  0.1399 -2.9699
 5152SOL    HW320381   5.893   5.116   1.305  1.0144  1.2353 -0.5072
 5152SOL    MW420382   5.848   5.155   1.241 -0.0720  0.4456 -0.2493
 5153SOL     OW20383   6.200   3.464   1.549 -0.5666 -0.5203 -0.1887
 5153SOL    HW220384   6.235   3.487   1.463  0.6088  0.6078  0.5486
 5153SOL    HW320385   6.109   3.441   1.533 -0.1453 -1.1850 -1.8443
 5153SOL    MW420386   6.193   3.464   1.535 -0.3559 -0.4592 -0.3099
 5154SOL     OW20387   5.313   0.664   0.522 -0.3893  0.2700  0.0504
 5154SOL    HW220388   5.217   0.675   0.524 -0.6896 -1.4380 -1.8637
 5154SOL    HW320389   5.327   0.592   0.461  2.2330  1.3885 -0.7564
 5154SOL    MW420390   5.302   0.656   0.515 -0.0829  0.1922 -0.3086
 5155SOL     OW20391   4.402   4.238   1.442  0.7176  0.4050 -0.2340
 5155SOL    HW220392   4.380   4.189   1.362  1.0109 -0.3276  0.1234
 5155SOL    HW320393   4.318   4.253   1.484  0.7366 -1.3156  0.5116
 5155SOL    MW420394   4.388   4.233   1.437  0.7588  0.0813 -0.0885
 5156SOL     OW20395   2.495   5.936   3.643  0.5867  0.4445  0.0185
 5156SOL    HW220396   2.499   5.884   3.722 -1.1283 -0.6054 -0.5235
 5156SOL    HW320397   2.414   5.986   3.652  0.1868  0.0532 -1.1971
 5156SOL    MW420398   2.485   5.936   3.654  0.3077  0.2543 -0.2134
 5157SOL     OW20399   4.143   1.200   3.471 -0.8398  0.2275  0.1111
 5157SOL    HW220400   4.120   1.132   3.534 -0.8089  0.1343  0.0233
 5157SOL    HW320401   4.205   1.158   3.411 -0.8038  0.3393  0.0682
 5157SOL    MW420402   4.148   1.186   3.471 -0.8310  0.2300  0.0938
 5158SOL     OW20403   1.855   1.780   1.960  0.5501  0.2731 -0.3774
 5158SOL    HW220404   1.790   1.775   2.030  1.0203 -1.3175 -0.0122
 5158SOL    HW320405   1.870   1.689   1.935  2.7089  0.5836 -0.3728
 5158SOL    MW420406   1.848   1.767   1.966  0.8970  0.1042 -0.3286
 5159SOL     OW20407   3.984   3.063   1.870 -0.1255 -0.6620  0.0029
 5159SOL    HW220408   4.022   3.143   1.833  0.8685 -1.8713 -1.7630
 5159SOL    HW320409   3.890   3.076   1.863  0.0136  0.3801 -0.1579
 5159SOL    MW420410   3.977   3.075   1.864  0.0240 -0.6840 -0.2513
 5160SOL     OW20411   2.358   1.896   4.057  0.2204 -0.1058 -0.0397
 5160SOL    HW220412   2.405   1.893   3.973  0.9901  0.4674  0.3554
 5160SOL    HW320413   2.427   1.903   4.123 -0.3235 -1.8486  0.7511
 5160SOL    MW420414   2.373   1.897   4.054  0.2502 -0.2601  0.1167
 5161SOL     OW20415   4.044   5.999   5.169 -0.4379 -0.5360  0.8537
 5161SOL    HW220416   4.024   5.908   5.192 -1.5587 -0.5928 -0.2330
 5161SOL    HW320417   4.007   6.050   5.240  0.3509 -0.9346  1.5606
 5161SOL    MW420418   4.036   5.993   5.181 -0.4817 -0.5961  0.8036
 5162SOL     OW20419   0.766   6.381   2.580  0.8280  0.2104 -0.6990
 5162SOL    HW220420   0.823   6.311   2.611  0.0777  0.3394  1.1285
 5162SOL    HW320421   0.803   6.461   2.618 -1.7031  0.0599  2.5039
 5162SOL    MW420422   0.778   6.382   2.589  0.3951  0.2076 -0.0353
 5163SOL     OW20423   5.245   5.241   1.432  0.6206  0.3866  0.6173
 5163SOL    HW220424   5.302   5.171   1.466  1.3966  0.6287 -0.1439
 5163SOL    HW320425   5.291   5.273   1.354 -0.5462  0.6229  0.0065
 5163SOL    MW420426   5.259   5.236   1.426  0.5690  0.4497  0.4362
 5164SOL     OW20427   1.927   1.271   3.924 -0.0478 -0.1153  0.0693
 5164SOL    HW220428   1.964   1.225   3.999  3.7709  0.0666 -1.4806
 5164SOL    HW320429   1.887   1.350   3.962  3.1224  0.8044  1.9364
 5164SOL    MW420430   1.926   1.276   3.939  0.8743  0.0300  0.1112
 5165SOL     OW20431   1.577   6.414   2.702  1.0309  0.3863  0.1757
 5165SOL    HW220432   1.559   6.363   2.780 -2.0083 -2.2611 -2.0066
 5165SOL    HW320433   1.661   6.379   2.670  0.4917 -1.1786  0.3659
 5165SOL    MW420434   1.586   6.403   2.708  0.5588 -0.1695 -0.0871
 5166SOL     OW20435   5.801   6.062   3.319  0.3526  0.3423  0.4873
 5166SOL    HW220436   5.738   6.085   3.388 -0.0550  2.6279 -0.5414
 5166SOL    HW320437   5.748   6.058   3.240  0.7317 -2.7239  0.2998
 5166SOL    MW420438   5.785   6.065   3.318  0.3488  0.2393  0.3269
 5167SOL     OW20439   0.903   3.874   3.394  0.2917 -0.4269  0.0226
 5167SOL    HW220440   0.813   3.848   3.412  0.1027  0.2402  0.0446
 5167SOL    HW320441   0.943   3.882   3.481 -0.0806  0.8576  0.0992
 5167SOL    MW420442   0.896   3.871   3.408  0.2177 -0.1694  0.0356
 5168SOL     OW20443   5.014   5.505   3.050  0.2816  0.3635  0.1230
 5168SOL    HW220444   4.983   5.588   3.015 -1.0644  0.8143  2.2466
 5168SOL    HW320445   5.109   5.514   3.055  0.4128  0.7454 -2.0775
 5168SOL    MW420446   5.023   5.517   3.046  0.1213  0.4734  0.1129
 5169SOL     OW20447   4.415   3.834   2.796 -0.4865 -0.1956  0.5446
 5169SOL    HW220448   4.387   3.878   2.876 -0.0593  0.3283  0.4095
 5169SOL    HW320449   4.405   3.899   2.727  0.3798 -0.2165  0.3808
 5169SOL    MW420450   4.410   3.848   2.797 -0.3159 -0.1293  0.5051
 5170SOL     OW20451   5.790   0.824   1.270 -0.9669  0.0009 -0.0474
 5170SOL    HW220452   5.695   0.834   1.262 -1.1913 -2.1891 -0.7968
 5170SOL    HW320453   5.808   0.846   1.361 -2.0800  1.0899 -0.0597
 5170SOL    MW420454   5.780   0.828   1.281 -1.1434 -0.1443 -0.1479
 5171SOL     OW20455   1.210   0.159   0.483  0.0655  0.7733  0.8841
 5171SOL    HW220456   1.301   0.152   0.453 -0.4941  0.4631 -0.8869
 5171SOL    HW320457   1.210   0.122   0.571  1.1673 -1.8187 -0.1137
 5171SOL    MW420458   1.222   0.154   0.491  0.1370  0.3904  0.5188
 5172SOL     OW20459   4.025   5.188   0.090  0.0399 -0.2060 -0.0756
 5172SOL    HW220460   4.015   5.138   0.009 -1.6999 -1.6915  0.9720
 5172SOL    HW320461   4.113   5.166   0.121  0.3338 -0.4150 -1.0357
 5172SOL    MW420462   4.035   5.178   0.084 -0.1509 -0.4295 -0.0641
 5173SOL     OW20463   1.758   5.947   1.932  0.0407  0.3727 -0.3484
 5173SOL    HW220464   1.764   6.020   1.994  1.7751 -1.1086  1.3472
 5173SOL    HW320465   1.819   5.881   1.967 -1.2713 -1.7943 -1.9436
 5173SOL    MW420466   1.767   5.948   1.945  0.0964 -0.1086 -0.3351
 5174SOL     OW20467   3.273   6.149   2.986 -0.1525  0.0570  0.0569
 5174SOL    HW220468   3.254   6.095   3.062  1.1381 -0.3660  0.1003
 5174SOL    HW320469   3.202   6.131   2.924 -0.2402 -0.9627  0.4523
 5174SOL    MW420470   3.261   6.140   2.988  0.0062 -0.1334  0.1148
 5175SOL     OW20471   4.244   3.430   3.433  0.2556  0.6096  0.0638
 5175SOL    HW220472   4.329   3.386   3.427  0.3836  1.0350 -1.7041
 5175SOL    HW320473   4.236   3.452   3.526  1.3477 -0.8340  0.5469
 5175SOL    MW420474   4.254   3.428   3.444  0.4166  0.4753 -0.1057
 5176SOL     OW20475   3.780   2.200   4.062 -0.0550  0.0978 -0.2706
 5176SOL    HW220476   3.759   2.116   4.103 -0.3766  0.0298 -0.5694
 5176SOL    HW320477   3.795   2.259   4.136 -1.9663  0.3237 -0.0044
 5176SOL    MW420478   3.779   2.197   4.078 -0.3496  0.1186 -0.2749
 5177SOL     OW20479   0.456   5.538   0.440 -0.3073  0.4499 -0.6694
 5177SOL    HW220480   0.399   5.565   0.368 -1.2006  0.3979  0.0068
 5177SOL    HW320481   0.423   5.586   0.516  0.0636 -0.1692 -0.1062
 5177SOL    MW420482   0.444   5.548   0.440 -0.3762  0.3613 -0.5059
 5178SOL     OW20483   3.064   2.330   3.899 -0.2258  0.1802 -0.1936
 5178SOL    HW220484   3.083   2.291   3.814 -1.2547  1.8718 -1.2519
 5178SOL    HW320485   3.145   2.374   3.924  0.6283 -1.6914  0.5595
 5178SOL    MW420486   3.077   2.331   3.891 -0.2489  0.1564 -0.2339
 5179SOL     OW20487   5.692   0.357   4.942 -0.3814  0.2431 -0.0242
 5179SOL    HW220488   5.642   0.438   4.945  0.6241  0.8746  0.5660
 5179SOL    HW320489   5.668   0.311   5.023  0.7568  1.0477  0.8036
 5179SOL    MW420490   5.683   0.362   4.953 -0.0986  0.4326  0.1629
 5180SOL     OW20491   5.144   3.966   0.184  0.3688  0.5978 -0.6632
 5180SOL    HW220492   5.175   3.888   0.139  1.2367  0.5500 -0.0103
 5180SOL    HW320493   5.083   4.007   0.123  0.3938 -0.2469 -1.2647
 5180SOL    MW420494   5.140   3.961   0.170  0.4866  0.4801 -0.6564
 5181SOL     OW20495   0.531   2.443   5.049 -0.6206  0.1710 -0.0090
 5181SOL    HW220496   0.564   2.354   5.051 -0.9386  0.0302 -0.6259
 5181SOL    HW320497   0.455   2.439   4.991 -0.7147  0.8147  0.0624
 5181SOL    MW420498   0.526   2.431   5.041 -0.6750  0.2374 -0.0809
 5182SOL     OW20499   0.954   1.465   2.890  0.7761  0.1867  0.3505
 5182SOL    HW220500   0.981   1.494   2.977  1.0061 -0.8057  0.6164
 5182SOL    HW320501   1.035   1.468   2.838  0.7935  0.0434  0.3701
 5182SOL    MW420502   0.969   1.469   2.894  0.8088  0.0368  0.3882
 5183SOL     OW20503   4.451   3.249   2.857  0.1314  0.3046 -0.0276
 5183SOL    HW220504   4.543   3.257   2.882  0.4429 -0.4451 -0.8813
 5183SOL    HW320505   4.409   3.327   2.895  0.3592 -1.1319  3.5814
 5183SOL    MW420506   4.458   3.261   2.865  0.2025  0.0161  0.3359
 5184SOL     OW20507   3.090   0.736   0.096 -0.0266 -0.4354 -0.1637
 5184SOL    HW220508   3.129   0.730   0.183 -1.3104 -1.0680  0.4038
 5184SOL    HW320509   2.995   0.735   0.112 -0.2975 -1.3704 -1.5942
 5184SOL    MW420510   3.082   0.735   0.109 -0.2318 -0.6422 -0.2775
 5185SOL     OW20511   2.128   1.247   4.343  0.1188  0.7812  0.5450
 5185SOL    HW220512   2.071   1.300   4.398 -0.0562  1.2105 -0.0320
 5185SOL    HW320513   2.188   1.310   4.303  1.4310  0.2707  1.6214
 5185SOL    MW420514   2.128   1.263   4.345  0.2689  0.7705  0.6109
 5186SOL     OW20515   1.700   1.174   5.895 -0.9714 -0.0166 -0.0559
 5186SOL    HW220516   1.628   1.119   5.865 -1.0210  0.3574 -0.6524
 5186SOL    HW320517   1.660   1.259   5.914 -0.5840  0.4190 -1.1115
 5186SOL    MW420518   1.685   1.178   5.893 -0.9268  0.0902 -0.2739
 5187SOL     OW20519   4.567   1.067   2.721  0.1563 -0.2594  0.2047
 5187SOL    HW220520   4.522   1.008   2.661 -0.1302  1.1462 -1.0040
 5187SOL    HW320521   4.548   1.155   2.688  2.0781  0.4567  0.8690
 5187SOL    MW420522   4.559   1.071   2.709  0.3721  0.0205  0.1329
 5188SOL     OW20523   2.370   0.133   5.075  0.0431 -0.3243 -0.0947
 5188SOL    HW220524   2.340   0.183   5.152 -1.6150 -0.8456 -0.3622
 5188SOL    HW320525   2.411   0.198   5.019 -1.2168  0.6084  0.0089
 5188SOL    MW420526   2.371   0.148   5.078 -0.3419 -0.2700 -0.1163
 5189SOL     OW20527   5.283   1.976   2.139 -0.3646 -0.2086 -0.4294
 5189SOL    HW220528   5.213   1.984   2.074 -1.1579 -1.6866  0.1934
 5189SOL    HW320529   5.364   1.987   2.089 -1.0026  0.1038 -1.4124
 5189SOL    MW420530   5.285   1.978   2.124 -0.5534 -0.3624 -0.4769
 5190SOL     OW20531   4.455   4.586   5.392 -0.1560  0.0208  0.5414
 5190SOL    HW220532   4.436   4.504   5.346 -0.4615  0.2400  0.2693
 5190SOL    HW320533   4.547   4.579   5.416 -0.1925 -0.4246  0.5609
 5190SOL    MW420534   4.464   4.574   5.389 -0.2011 -0.0090  0.5081
 5191SOL     OW20535   5.056   5.305   6.164 -0.1290  0.2993 -0.2384
 5191SOL    HW220536   5.040   5.211   6.169 -2.6902  0.7203  0.5590
 5191SOL    HW320537   5.128   5.313   6.101  0.7776 -2.2176  0.3477
 5191SOL    MW420538   5.064   5.294   6.156 -0.3473  0.0228 -0.0559
 5192SOL     OW20539   2.646   4.782   0.636 -0.4985 -0.0370  0.2713
 5192SOL    HW220540   2.578   4.714   0.634 -1.7736  1.2129 -0.2448
 5192SOL    HW320541   2.598   4.864   0.640  0.9952  0.9224 -0.6217
 5192SOL    MW420542   2.631   4.784   0.636 -0.4696  0.2545  0.0854
 5193SOL     OW20543   0.953   5.216   5.122 -0.1850  0.0665 -0.1290
 5193SOL    HW220544   0.998   5.272   5.060  0.8461 -0.3544  0.2163
 5193SOL    HW320545   0.895   5.162   5.068  1.4197 -0.9945 -0.8811
 5193SOL    MW420546   0.951   5.216   5.107  0.1628 -0.1290 -0.1827
 5194SOL     OW20547   4.494   5.836   2.906 -0.1276 -0.1481  0.2021
 5194SOL    HW220548   4.474   5.761   2.850 -1.8400  0.5574 -0.1693
 5194SOL    HW320549   4.463   5.811   2.993 -1.0171  0.2470  0.0058
 5194SOL    MW420550   4.487   5.823   2.910 -0.4709 -0.0029  0.1272
 5195SOL     OW20551   6.135   0.145   4.841 -0.2441 -0.3404  0.1818
 5195SOL    HW220552   6.072   0.073   4.843  1.3905 -1.8074  1.3647
 5195SOL    HW320553   6.209   0.111   4.790 -0.0307  1.0474 -0.4846
 5195SOL    MW420554   6.136   0.131   4.835 -0.0003 -0.3509  0.2500
 5196SOL     OW20555   6.325   0.124   1.345  0.0924 -0.3670 -0.5153
 5196SOL    HW220556   6.240   0.095   1.378  1.3966 -2.6069  1.1807
 5196SOL    HW320557   6.334   0.080   1.260 -0.0876 -0.8249 -0.2984
 5196SOL    MW420558   6.315   0.114   1.338  0.2407 -0.7230 -0.2629
 5197SOL     OW20559   2.331   0.900   3.817  0.7707 -0.5353  0.3439
 5197SOL    HW220560   2.345   0.829   3.754  0.5931 -0.6152  0.3945
 5197SOL    HW320561   2.354   0.861   3.902 -1.0840 -1.1113  0.6289
 5197SOL    MW420562   2.336   0.885   3.820  0.5026 -0.6218  0.3882
 5198SOL     OW20563   4.614   3.389   5.445  0.0768  0.4452  0.7799
 5198SOL    HW220564   4.602   3.472   5.398  0.5878 -0.1609 -0.4774
 5198SOL    HW320565   4.528   3.348   5.445  0.0507  0.4975  0.4368
 5198SOL    MW420566   4.601   3.394   5.439  0.1408  0.3721  0.5688
 5199SOL     OW20567   3.271   6.175   1.997  0.3872 -0.6257  0.2952
 5199SOL    HW220568   3.230   6.090   2.016  3.0854 -1.6418  2.2149
 5199SOL    HW320569   3.326   6.192   2.074  0.4871  2.5528 -0.3699
 5199SOL    MW420570   3.273   6.166   2.010  0.7564 -0.3404  0.4607
 5200SOL     OW20571   5.449   5.438   4.071  0.3449 -0.5783  0.1550
 5200SOL    HW220572   5.366   5.447   4.117  1.1985 -0.6979  1.7832
 5200SOL    HW320573   5.480   5.528   4.060 -0.2343 -0.4933 -0.9658
 5200SOL    MW420574   5.442   5.451   4.075  0.3811 -0.5828  0.2219
 5201SOL     OW20575   2.213   1.007   2.799 -0.0183  0.1010  0.4563
 5201SOL    HW220576   2.158   1.040   2.870 -0.4294 -1.1277  0.7340
 5201SOL    HW320577   2.152   0.993   2.727 -0.0361 -0.9936  0.6717
 5201SOL    MW420578   2.198   1.010   2.799 -0.0749 -0.2056  0.5213
 5202SOL     OW20579   5.159   5.074   3.271 -0.3100 -0.0269 -0.0075
 5202SOL    HW220580   5.124   5.025   3.346 -3.7714 -0.1802 -1.5334
 5202SOL    HW320581   5.190   5.007   3.211 -2.1002 -0.2933 -0.7175
 5202SOL    MW420582   5.158   5.058   3.273 -1.0029 -0.0823 -0.3025
 5203SOL     OW20583   1.985   4.995   3.505  0.0416 -0.3998  0.1320
 5203SOL    HW220584   1.929   4.929   3.464 -0.5282  0.6404 -0.8073
 5203SOL    HW320585   2.074   4.968   3.483 -0.2242 -0.3166 -1.0969
 5203SOL    MW420586   1.989   4.983   3.497 -0.0686 -0.2516 -0.1541
 5204SOL     OW20587   5.004   2.415   6.066 -0.1081 -0.5346  0.6672
 5204SOL    HW220588   5.058   2.339   6.047  0.2188  0.1520 -1.3732
 5204SOL    HW320589   4.930   2.408   6.005 -0.4889  0.3784  0.9979
 5204SOL    MW420590   5.001   2.404   6.056 -0.1152 -0.3235  0.4416
 5205SOL     OW20591   1.213   2.177   3.532  0.4349 -0.2325 -0.3137
 5205SOL    HW220592   1.141   2.225   3.574  0.2549 -0.3441 -0.4943
 5205SOL    HW320593   1.292   2.222   3.562  0.2226  0.7887 -1.2378
 5205SOL    MW420594   1.214   2.189   3.542  0.3831 -0.1125 -0.4595
 5206SOL     OW20595   3.724   6.401   1.654 -0.2733 -0.2699  0.1432
 5206SOL    HW220596   3.649   6.460   1.654  0.3210  0.6574 -2.6601
 5206SOL    HW320597   3.800   6.460   1.657  0.3249 -1.0200 -0.1283
 5206SOL    MW420598   3.725   6.417   1.654 -0.1160 -0.2465 -0.2625
 5207SOL     OW20599   4.526   4.743   3.491 -0.2644 -0.3302 -0.0393
 5207SOL    HW220600   4.485   4.800   3.556 -1.3832 -0.0228 -0.9752
 5207SOL    HW320601   4.542   4.661   3.537 -1.8937 -0.4391  0.4010
 5207SOL    MW420602   4.523   4.740   3.505 -0.6270 -0.3040 -0.1047
 5208SOL     OW20603   2.018   4.448   4.461 -1.0070  1.0196 -0.0307
 5208SOL    HW220604   2.039   4.533   4.500 -0.0362  0.4027  0.8341
 5208SOL    HW320605   2.096   4.426   4.409 -0.0236 -0.5932  1.9905
 5208SOL    MW420606   2.031   4.457   4.459 -0.7492  0.7254  0.3501
 5209SOL     OW20607   6.078   5.084   2.433  0.0873 -0.1742  0.0603
 5209SOL    HW220608   5.995   5.039   2.449 -0.0506 -0.3197 -0.9710
 5209SOL    HW320609   6.070   5.118   2.344  1.2845 -0.5378 -0.2112
 5209SOL    MW420610   6.066   5.082   2.423  0.2271 -0.2414 -0.1115
 5210SOL     OW20611   5.125   3.623   2.117 -0.3590  0.0056  0.3955
 5210SOL    HW220612   5.198   3.683   2.104 -0.2348 -0.2705 -0.2381
 5210SOL    HW320613   5.165   3.536   2.119 -0.7739 -0.2800 -1.4202
 5210SOL    MW420614   5.140   3.619   2.115 -0.3974 -0.0685  0.0723
 5211SOL     OW20615   1.060   2.462   4.165 -0.5845 -0.2812  0.0618
 5211SOL    HW220616   0.992   2.447   4.099 -1.9817 -3.1512  1.9227
 5211SOL    HW320617   1.025   2.532   4.220 -1.2781 -0.5630 -0.0015
 5211SOL    MW420618   1.046   2.469   4.163 -0.8604 -0.6970  0.2990
 5212SOL     OW20619   1.509   5.786   0.168 -0.9031  0.4131 -0.4258
 5212SOL    HW220620   1.532   5.859   0.225  0.0181  0.7170 -1.1627
 5212SOL    HW320621   1.581   5.780   0.105 -1.0984 -0.9493 -0.5647
 5212SOL    MW420622   1.521   5.795   0.167 -0.8073  0.2734 -0.5413
 5213SOL     OW20623   4.091   3.754   4.359  0.2768  0.5224  0.1050
 5213SOL    HW220624   4.077   3.695   4.433 -2.0764  0.7344 -0.0902
 5213SOL    HW320625   4.165   3.808   4.385  1.9930 -1.8982  0.6407
 5213SOL    MW420626   4.098   3.753   4.372  0.1928  0.2310  0.1499
 5214SOL     OW20627   1.717   1.398   1.186  0.0210 -0.7601 -0.2158
 5214SOL    HW220628   1.812   1.404   1.173 -0.0164 -0.6227 -0.4355
 5214SOL    HW320629   1.680   1.409   1.099 -0.2332  0.1065 -0.0108
 5214SOL    MW420630   1.725   1.401   1.173 -0.0175 -0.6277 -0.2178
 5215SOL     OW20631   5.104   5.022   1.341 -0.6502  0.1194  0.0440
 5215SOL    HW220632   5.050   4.991   1.414 -0.4010  1.5955  0.8912
 5215SOL    HW320633   5.125   5.113   1.363  2.5746 -0.5095 -0.0033
 5215SOL    MW420634   5.100   5.030   1.354 -0.1918  0.2312  0.1495
 5216SOL     OW20635   6.198   4.870   5.063 -0.0724 -0.3259  0.4428
 5216SOL    HW220636   6.257   4.880   4.988 -0.5865  0.2755  0.1068
 5216SOL    HW320637   6.192   4.958   5.101 -0.9129 -0.3316  0.3411
 5216SOL    MW420638   6.205   4.883   5.058 -0.2511 -0.2473  0.3850
 5217SOL     OW20639   5.583   1.029   2.438 -0.0115  0.1053  0.3554
 5217SOL    HW220640   5.632   1.040   2.356  1.8224 -0.8049  1.2793
 5217SOL    HW320641   5.525   0.955   2.422 -2.3344  2.0734 -1.2410
 5217SOL    MW420642   5.581   1.021   2.425 -0.0760  0.2449  0.2667
 5218SOL     OW20643   2.047   0.099   3.129  0.1853  0.5798 -0.1984
 5218SOL    HW220644   1.955   0.072   3.131  0.3640 -0.1167 -0.7750
 5218SOL    HW320645   2.094   0.020   3.100  0.9798  0.8859  0.2330
 5218SOL    MW420646   2.041   0.085   3.125  0.3137  0.5283 -0.2176
 5219SOL     OW20647   1.330   4.880   0.772 -0.2496  0.3760  0.9881
 5219SOL    HW220648   1.274   4.827   0.714  1.2299  0.0475 -0.2182
 5219SOL    HW320649   1.298   4.969   0.761  0.1771  0.3604 -0.5883
 5219SOL    MW420650   1.318   4.885   0.763  0.0019  0.3306  0.6210
 5220SOL     OW20651   6.269   4.311   3.386  0.1556  0.1829  0.3133
 5220SOL    HW220652   6.284   4.387   3.328  1.8474  1.1652  1.8917
 5220SOL    HW320653   6.190   4.333   3.435 -0.8937 -0.3427 -1.0957
 5220SOL    MW420654   6.261   4.324   3.385  0.2404  0.2432  0.3357
 5221SOL     OW20655   3.496   2.367   5.444  0.2666 -0.4359 -0.1827
 5221SOL    HW220656   3.435   2.294   5.450 -0.2653  0.0936  1.8181
 5221SOL    HW320657   3.582   2.328   5.461 -0.0882 -0.5697  1.5518
 5221SOL    MW420658   3.499   2.352   5.447  0.1496 -0.3837  0.3101
 5222SOL     OW20659   2.402   1.932   5.887  0.1244  0.1032 -0.7061
 5222SOL    HW220660   2.351   1.852   5.900  0.2063 -0.0445 -1.2520
 5222SOL    HW320661   2.338   1.997   5.859  0.1183  0.1174 -0.6583
 5222SOL    MW420662   2.387   1.930   5.885  0.1344  0.0856 -0.7718
 5223SOL     OW20663   3.469   1.522   5.999  0.3046  0.2896 -0.1699
 5223SOL    HW220664   3.528   1.587   5.961  2.4202 -1.6921 -0.5290
 5223SOL    HW320665   3.501   1.438   5.966 -1.3949 -1.0845  1.4132
 5223SOL    MW420666   3.481   1.520   5.990  0.3595 -0.1532 -0.0084
 5224SOL     OW20667   1.639   3.285   4.831  0.0983 -0.1822 -0.1205
 5224SOL    HW220668   1.684   3.225   4.890 -1.2335 -1.4852 -0.3693
 5224SOL    HW320669   1.555   3.302   4.872  0.1576  0.9166 -0.4307
 5224SOL    MW420670   1.634   3.279   4.844 -0.0696 -0.2091 -0.1943
 5225SOL     OW20671   3.567   4.753   3.978 -0.4172 -0.1593  0.4624
 5225SOL    HW220672   3.566   4.710   3.893  1.3289  1.1440 -0.2880
 5225SOL    HW320673   3.573   4.846   3.957 -1.2768  0.2746  2.0270
 5225SOL    MW420674   3.568   4.760   3.964 -0.3002  0.0699  0.5698
 5226SOL     OW20675   2.888   0.103   4.863  0.1492 -0.1081 -0.2544
 5226SOL    HW220676   2.903   0.192   4.894 -0.3960  0.5673 -1.8521
 5226SOL    HW320677   2.966   0.083   4.810 -0.1313 -0.2291 -0.6279
 5226SOL    MW420678   2.900   0.112   4.860  0.0403 -0.0349 -0.5144
 5227SOL     OW20679   3.638   3.421   4.381  0.1469 -0.7686  0.1521
 5227SOL    HW220680   3.634   3.402   4.475 -1.0116  1.2157  0.5704
 5227SOL    HW320681   3.560   3.378   4.345 -0.1551 -0.3891  0.3468
 5227SOL    MW420682   3.627   3.413   4.388 -0.0458 -0.4567  0.2329
 5228SOL     OW20683   1.100   2.660   4.599 -0.7484 -0.3350  0.2018
 5228SOL    HW220684   1.166   2.642   4.532 -0.0352  1.0150  0.5098
 5228SOL    HW320685   1.150   2.671   4.680 -1.1236  2.1758  0.1883
 5228SOL    MW420686   1.115   2.659   4.601 -0.7038  0.1744  0.2407
 5229SOL     OW20687   0.767   2.295   2.471  0.0272  0.0798  0.0802
 5229SOL    HW220688   0.725   2.231   2.529 -0.9452 -0.0915 -0.7924
 5229SOL    HW320689   0.812   2.355   2.531 -0.4528 -0.4419  0.9872
 5229SOL    MW420690   0.768   2.295   2.487 -0.1644 -0.0116  0.0847
 5230SOL     OW20691   5.142   1.118   5.522  0.0638  0.0230  0.4110
 5230SOL    HW220692   5.055   1.139   5.557 -1.4935 -1.2473 -2.3392
 5230SOL    HW320693   5.148   1.171   5.442  1.0213 -1.2288 -0.3823
 5230SOL    MW420694   5.131   1.128   5.516 -0.0153 -0.3098 -0.0565
 5231SOL     OW20695   0.031   1.464   5.751 -0.2123  0.3146 -0.2933
 5231SOL    HW220696   0.044   1.382   5.704  2.4269 -1.7746  3.5140
 5231SOL    HW320697   0.108   1.472   5.808 -2.8130  2.5871  3.3835
 5231SOL    MW420698   0.043   1.454   5.752 -0.2072  0.3388  0.6941
 5232SOL     OW20699   5.231   1.394   1.073  0.1545  0.0791  0.2673
 5232SOL    HW220700   5.282   1.314   1.063  0.0776  0.0430  0.1574
 5232SOL    HW320701   5.141   1.367   1.057  0.0189  0.0177  1.0933
 5232SOL    MW420702   5.226   1.380   1.069  0.1264  0.0663  0.3618
 5233SOL     OW20703   4.913   3.560   3.209 -0.4570 -0.8128 -0.4397
 5233SOL    HW220704   4.989   3.542   3.154 -0.2352  0.0656 -0.4373
 5233SOL    HW320705   4.893   3.477   3.251  1.8640 -0.5940  1.2534
 5233SOL    MW420706   4.920   3.547   3.207 -0.1215 -0.6681 -0.2160
 5234SOL     OW20707   3.418   4.299   3.487  0.2164 -0.0332 -0.0200
 5234SOL    HW220708   3.458   4.385   3.472 -0.6512  0.1106 -1.7013
 5234SOL    HW320709   3.493   4.239   3.491  0.8119  0.7300  0.8814
 5234SOL    MW420710   3.433   4.302   3.485  0.1805  0.0864 -0.1229
 5235SOL     OW20711   4.636   6.225   0.671 -0.0795  0.0566 -0.0954
 5235SOL    HW220712   4.708   6.173   0.706  1.5134  1.3573 -1.2842
 5235SOL    HW320713   4.568   6.222   0.739  1.3887 -0.6013  1.3887
 5235SOL    MW420714   4.636   6.218   0.685  0.3244  0.1414 -0.0565
 5236SOL     OW20715   2.529   0.810   1.496 -0.4735 -0.2026 -0.5242
 5236SOL    HW220716   2.461   0.776   1.439 -0.1504 -1.1102 -0.3862
 5236SOL    HW320717   2.606   0.756   1.477 -0.0064  0.3132 -0.1430
 5236SOL    MW420718   2.531   0.799   1.486 -0.3693 -0.2543 -0.4557
 5237SOL     OW20719   6.276   1.784   0.076 -0.3886 -0.4346  0.2687
 5237SOL    HW220720   6.284   1.871   0.114 -0.4964 -1.7219  3.5777
 5237SOL    HW320721   6.366   1.761   0.049 -0.5520  1.0606 -1.8265
 5237SOL    MW420722   6.289   1.792   0.077 -0.4244 -0.4072  0.4288
 5238SOL     OW20723   0.124   2.025   6.234  0.2944 -0.2193 -0.0781
 5238SOL    HW220724   0.139   1.981   6.150 -0.0762 -1.4082  0.4541
 5238SOL    HW320725   0.203   2.076   6.249 -0.0276  0.7873 -1.6067
 5238SOL    MW420726   0.136   2.026   6.225  0.2030 -0.2434 -0.2095
 5239SOL     OW20727   3.054   6.369   0.392 -0.1302 -0.0664  0.5208
 5239SOL    HW220728   3.062   6.350   0.486  2.1098  1.1885  0.6408
 5239SOL    HW320729   3.102   6.298   0.349  0.8367  0.5911  0.4847
 5239SOL    MW420730   3.061   6.357   0.399  0.2929  0.1859  0.5318
 5240SOL     OW20731   3.476   2.603   6.056  0.0784 -0.1352 -0.0137
 5240SOL    HW220732   3.541   2.559   6.111 -1.6877 -1.0397  1.4464
 5240SOL    HW320733   3.437   2.533   6.004 -0.6275  0.1648  0.1010
 5240SOL    MW420734   3.480   2.588   6.057 -0.2478 -0.2150  0.1941
 5241SOL     OW20735   3.142   0.045   5.024  0.7908  0.0680 -0.1871
 5241SOL    HW220736   3.183  -0.013   5.089 -0.9875 -1.9150 -0.7394
 5241SOL    HW320737   3.061   0.073   5.066  1.8314  2.6886  0.2658
 5241SOL    MW420738   3.137   0.041   5.038  0.6934  0.1521 -0.2003
 5242SOL     OW20739   6.279   1.778   6.053 -0.1534  0.3714 -0.2714
 5242SOL    HW220740   6.250   1.714   5.988 -1.1171  1.7752 -1.2920
 5242SOL    HW320741   6.256   1.863   6.016 -0.5211  1.2584  1.7974
 5242SOL    MW420742   6.272   1.780   6.040 -0.3291  0.6736 -0.1331
 5243SOL     OW20743   3.725   1.272   2.340 -0.1696  0.2989  0.1044
 5243SOL    HW220744   3.784   1.245   2.270 -0.3511 -2.8385  1.0056
 5243SOL    HW320745   3.764   1.352   2.375  2.3792 -0.5151 -0.6786
 5243SOL    MW420746   3.738   1.279   2.335  0.1427 -0.2224  0.1200
 5244SOL     OW20747   0.881   2.625   1.404  0.2017  0.4244  0.1635
 5244SOL    HW220748   0.834   2.566   1.345 -0.1349  0.9084 -0.0566
 5244SOL    HW320749   0.830   2.622   1.485  1.4133 -1.2986  0.9249
 5244SOL    MW420750   0.868   2.617   1.407  0.3172  0.2609  0.2349
 5245SOL     OW20751   0.674   6.376   4.698  0.3149  0.0756 -0.3720
 5245SOL    HW220752   0.732   6.325   4.756 -0.1939 -0.0952 -0.0076
 5245SOL    HW320753   0.614   6.420   4.758  1.1681  1.6726 -0.6289
 5245SOL    MW420754   0.674   6.375   4.714  0.3603  0.2638 -0.3579
 5246SOL     OW20755   0.537   5.636   5.111  0.4433  0.5847  0.3278
 5246SOL    HW220756   0.459   5.584   5.089 -0.0170  0.7102  1.5636
 5246SOL    HW320757   0.600   5.572   5.142 -0.2567  0.7461  2.2140
 5246SOL    MW420758   0.535   5.620   5.112  0.2902  0.6226  0.7397
 5247SOL     OW20759   4.231   5.505   3.689 -0.2070  0.3632 -0.0167
 5247SOL    HW220760   4.276   5.503   3.604 -1.0120  0.3288 -0.4515
 5247SOL    HW320761   4.299   5.528   3.751  0.0671  2.1864 -0.9074
 5247SOL    MW420762   4.246   5.508   3.686 -0.2771  0.5992 -0.1916
 5248SOL     OW20763   1.347   6.252   1.224  0.0614 -0.3236  0.1863
 5248SOL    HW220764   1.392   6.328   1.259  0.4115 -0.9612  1.1783
 5248SOL    HW320765   1.273   6.237   1.283 -0.4187 -0.3508 -0.3987
 5248SOL    MW420766   1.343   6.260   1.236  0.0442 -0.4113  0.2400
 5249SOL     OW20767   5.973   1.287   3.569  0.3058  0.1658 -0.1031
 5249SOL    HW220768   5.933   1.255   3.488  1.4074 -2.7423  0.3656
 5249SOL    HW320769   5.931   1.235   3.638 -0.4066  2.3887  1.2353
 5249SOL    MW420770   5.962   1.276   3.567  0.3572  0.0754  0.1353
 5250SOL     OW20771   3.009   3.952   0.898 -0.0829 -0.4775  0.5886
 5250SOL    HW220772   2.960   3.894   0.839  1.9000 -1.0444 -0.5779
 5250SOL    HW320773   2.987   4.040   0.867 -1.0632 -0.6736  0.6825
 5250SOL    MW420774   2.999   3.956   0.886  0.0494 -0.5782  0.4471
 5251SOL     OW20775   4.627   4.907   3.283  0.1365  0.2440  0.5519
 5251SOL    HW220776   4.571   4.981   3.305 -0.7110 -0.1707 -0.1567
 5251SOL    HW320777   4.606   4.841   3.348  0.5941  0.4682  0.9344
 5251SOL    MW420778   4.617   4.908   3.294  0.0851  0.2188  0.5089
 5252SOL     OW20779   3.458   1.607   4.487 -0.3049 -0.0941 -0.0555
 5252SOL    HW220780   3.439   1.667   4.559  1.4372  1.8726 -1.1128
 5252SOL    HW320781   3.517   1.657   4.429 -0.5953 -2.0430 -2.1773
 5252SOL    MW420782   3.464   1.622   4.488 -0.1134 -0.0917 -0.4749
 5253SOL     OW20783   3.105   4.236   4.179  0.3252  0.5009  0.1204
 5253SOL    HW220784   3.153   4.168   4.227  0.8841  1.2275  0.6046
 5253SOL    HW320785   3.016   4.202   4.173  0.4918 -0.0773  0.7456
 5253SOL    MW420786   3.100   4.222   4.185  0.4209  0.5205  0.2668
 5254SOL     OW20787   4.047   1.489   4.735  0.0508  0.5068 -0.3263
 5254SOL    HW220788   4.110   1.543   4.687  0.8523 -0.5207 -0.4867
 5254SOL    HW320789   4.100   1.442   4.800 -0.5034 -0.5308 -0.5978
 5254SOL    MW420790   4.063   1.490   4.737  0.0834  0.2344 -0.3833
 5255SOL     OW20791   0.790   4.360   6.354  0.3186 -0.0199 -0.1420
 5255SOL    HW220792   0.835   4.283   6.320 -1.5351 -0.7224 -1.1325
 5255SOL    HW320793   0.737   4.391   6.281 -0.3303  1.1443  0.7926
 5255SOL    MW420794   0.789   4.354   6.340 -0.0116  0.0410 -0.1494
 5256SOL     OW20795   1.950   5.940   2.370 -0.2412 -0.8819 -0.0563
 5256SOL    HW220796   2.021   5.988   2.411 -0.8206  0.3778 -0.4637
 5256SOL    HW320797   1.871   5.971   2.415 -0.8337  0.1160 -1.6800
 5256SOL    MW420798   1.949   5.951   2.381 -0.3958 -0.5840 -0.3243
 5257SOL     OW20799   1.984   0.681   3.080  0.3096 -0.2352 -0.3799
 5257SOL    HW220800   2.041   0.708   3.008 -0.1568  0.0919 -0.6344
 5257SOL    HW320801   2.013   0.592   3.101  0.9636 -0.0459 -0.4451
 5257SOL    MW420802   1.995   0.673   3.073  0.3344 -0.1671 -0.4221
 5258SOL     OW20803   1.215   1.109   5.680  0.0214 -0.3167  0.5570
 5258SOL    HW220804   1.220   1.200   5.651  0.0839 -0.9327 -1.5270
 5258SOL    HW320805   1.157   1.112   5.756 -2.2466  1.1721 -1.0711
 5258SOL    MW420806   1.208   1.121   5.686 -0.2696 -0.2016  0.0672
 5259SOL     OW20807   5.575   0.740   0.160  0.6895 -0.8396  0.3915
 5259SOL    HW220808   5.549   0.791   0.084  2.1079 -1.1221 -0.3136
 5259SOL    HW320809   5.547   0.650   0.139  0.1027 -0.7289  0.6912
 5259SOL    MW420810   5.568   0.735   0.147  0.7992 -0.8622  0.3380
 5260SOL     OW20811   1.826   2.300   3.757  0.1512  0.7729  0.1784
 5260SOL    HW220812   1.865   2.234   3.699 -1.7890  0.7627 -1.2018
 5260SOL    HW320813   1.739   2.266   3.778  0.1810  1.5920  1.7578
 5260SOL    MW420814   1.820   2.287   3.752 -0.1008  0.8796  0.2047
 5261SOL     OW20815   6.233   0.933   2.682  0.1359  0.2701  0.2179
 5261SOL    HW220816   6.201   0.867   2.745 -1.1473  0.2359 -0.4261
 5261SOL    HW320817   6.277   0.882   2.614  0.9113  0.2509  0.7254
 5261SOL    MW420818   6.234   0.918   2.682  0.0689  0.2630  0.1999
 5262SOL     OW20819   1.754   0.021   1.280 -0.2848  0.3956 -0.6691
 5262SOL    HW220820   1.742  -0.069   1.310 -0.7160  1.2032  1.8556
 5262SOL    HW320821   1.844   0.023   1.247  0.2381 -0.6346  0.5927
 5262SOL    MW420822   1.765   0.009   1.280 -0.2727  0.3662 -0.1695
 5263SOL     OW20823   1.387   1.906   0.781 -0.2136 -0.1401  0.1498
 5263SOL    HW220824   1.433   1.886   0.863 -0.4309 -0.4204  0.2055
 5263SOL    HW320825   1.319   1.969   0.807  0.1472  0.2842  0.0647
 5263SOL    MW420826   1.384   1.912   0.795 -0.1946 -0.1211  0.1459
 5264SOL     OW20827   5.565   0.387   3.868 -0.1369 -0.0353  0.1554
 5264SOL    HW220828   5.474   0.387   3.837 -0.6055 -2.1695  1.3452
 5264SOL    HW320829   5.560   0.429   3.954  0.4313  1.8433 -0.6664
 5264SOL    MW420830   5.552   0.393   3.875 -0.1238 -0.0690  0.2039
 5265SOL     OW20831   4.017   0.821   2.859  0.0647 -0.3782  0.5340
 5265SOL    HW220832   4.045   0.875   2.933 -0.0225 -2.0786  1.8900
 5265SOL    HW320833   3.921   0.826   2.861  0.0835  0.2171  0.0222
 5265SOL    MW420834   4.008   0.828   2.869  0.0557 -0.5240  0.6454
 5266SOL     OW20835   2.626   6.417   1.065  0.5749  0.5988 -0.8339
 5266SOL    HW220836   2.571   6.428   1.143 -1.0406 -3.5589 -1.0993
 5266SOL    HW320837   2.715   6.415   1.098 -0.0432 -0.5002  0.9082
 5266SOL    MW420838   2.630   6.418   1.080  0.2802 -0.0947 -0.6391
 5267SOL     OW20839   6.270   0.362   0.245  0.3818  0.0759 -0.0776
 5267SOL    HW220840   6.225   0.279   0.226 -0.1600  0.6701 -1.5116
 5267SOL    HW320841   6.361   0.337   0.262  0.1356 -0.8451 -0.0717
 5267SOL    MW420842   6.276   0.348   0.245  0.2778  0.0328 -0.2660
 5268SOL     OW20843   4.749   3.610   4.030  0.0434  0.0924  0.2613
 5268SOL    HW220844   4.839   3.587   4.009  0.3373  0.2722  1.2795
 5268SOL    HW320845   4.699   3.530   4.013  0.6511 -0.5091  1.2179
 5268SOL    MW420846   4.754   3.596   4.025  0.1623  0.0368  0.5218
 5269SOL     OW20847   5.034   1.422   4.394 -0.5942 -0.2628  0.0575
 5269SOL    HW220848   5.017   1.491   4.331 -0.3787 -1.5116 -1.4210
 5269SOL    HW320849   4.955   1.369   4.395 -0.5836 -0.2775  0.8192
 5269SOL    MW420850   5.022   1.424   4.386 -0.5644 -0.4295 -0.0371
 5270SOL     OW20851   3.553   5.524   2.736  0.3766 -0.4107 -0.2405
 5270SOL    HW220852   3.520   5.613   2.750 -1.5947 -1.1794  0.2710
 5270SOL    HW320853   3.560   5.487   2.823  0.6572 -0.9477 -0.4859
 5270SOL    MW420854   3.550   5.531   2.749  0.1536 -0.5830 -0.2054
 5271SOL     OW20855   2.734   3.862   5.321  0.4336  0.2228 -0.4155
 5271SOL    HW220856   2.717   3.888   5.411 -0.4649 -0.4615 -0.3810
 5271SOL    HW320857   2.824   3.892   5.304  0.9641 -0.4565  1.0111
 5271SOL    MW420858   2.744   3.869   5.331  0.3851  0.0429 -0.2227
 5272SOL     OW20859   0.091   3.130   3.594 -0.1410 -0.0660 -0.2259
 5272SOL    HW220860   0.059   3.043   3.615 -1.0481  0.5296  1.0311
 5272SOL    HW320861   0.094   3.175   3.678  1.5085  0.7509 -0.6681
 5272SOL    MW420862   0.087   3.125   3.608 -0.0430  0.1203 -0.1184
 5273SOL     OW20863   0.494   4.252   4.970 -0.5951  1.0769  0.1486
 5273SOL    HW220864   0.574   4.208   4.941 -0.7809  1.4035 -0.8931
 5273SOL    HW320865   0.442   4.183   5.012  0.4861  0.9899  1.4074
 5273SOL    MW420866   0.498   4.237   4.972 -0.4770  1.1085  0.1772
 5274SOL     OW20867   3.076   1.861   2.072  0.7513  0.0378  0.4470
 5274SOL    HW220868   3.052   1.851   2.164  0.0022  0.6886  0.3293
 5274SOL    HW320869   3.074   1.772   2.036 -2.1902  0.0789  0.2785
 5274SOL    MW420870   3.073   1.848   2.079  0.2644  0.1291  0.4093
 5275SOL     OW20871   4.128   2.384   3.589  0.3608 -0.1363 -0.2407
 5275SOL    HW220872   4.061   2.356   3.651  1.3816 -0.3024  0.8296
 5275SOL    HW320873   4.084   2.446   3.531 -0.8510 -0.6881  0.0610
 5275SOL    MW420874   4.114   2.388   3.589  0.3356 -0.2310 -0.0597
 5276SOL     OW20875   3.914   1.409   0.370  0.1182 -0.4099 -0.3012
 5276SOL    HW220876   3.994   1.428   0.419 -1.0309 -0.6063  1.7592
 5276SOL    HW320877   3.908   1.480   0.306  1.2930  0.2958  0.3377
 5276SOL    MW420878   3.924   1.421   0.368  0.1216 -0.3427  0.0549
 5277SOL     OW20879   3.052   0.974   6.072 -0.7990 -0.7041 -0.5652
 5277SOL    HW220880   3.034   0.990   6.165  0.1812 -1.2369 -0.2714
 5277SOL    HW320881   3.131   0.921   6.072 -0.9857 -0.9994 -1.7051
 5277SOL    MW420882   3.060   0.969   6.084 -0.6943 -0.8133 -0.6768
 5278SOL     OW20883   4.240   0.481   1.259 -0.2098  0.3548  0.0188
 5278SOL    HW220884   4.316   0.494   1.315 -0.3429 -0.3162  0.3646
 5278SOL    HW320885   4.167   0.521   1.307 -0.4291 -0.7225  0.6004
 5278SOL    MW420886   4.240   0.488   1.273 -0.2563  0.1241  0.1412
 5279SOL     OW20887   6.116   3.833   5.285 -0.4299 -0.1183 -0.0527
 5279SOL    HW220888   6.042   3.795   5.239 -1.4550  0.8627  0.7260
 5279SOL    HW320889   6.190   3.820   5.226 -1.6962  1.1921 -2.0820
 5279SOL    MW420890   6.116   3.826   5.271 -0.7322  0.1840 -0.2177
 5280SOL     OW20891   3.535   1.784   2.804 -0.3642 -1.0248  0.5922
 5280SOL    HW220892   3.592   1.854   2.837  0.4836 -2.2228  1.7998
 5280SOL    HW320893   3.467   1.776   2.871  0.4818 -2.4240  1.3408
 5280SOL    MW420894   3.534   1.792   2.817 -0.1407 -1.3675  0.8503
 5281SOL     OW20895   4.050   2.659   3.464  0.6146 -0.1467  0.2020
 5281SOL    HW220896   4.142   2.686   3.457  0.0558  2.6425  1.9783
 5281SOL    HW320897   4.016   2.710   3.537 -2.2490 -1.5168 -0.0556
 5281SOL    MW420898   4.058   2.669   3.472  0.1631  0.0405  0.4023
 5282SOL     OW20899   2.363   4.967   0.857  0.8654  0.0895  0.2231
 5282SOL    HW220900   2.292   4.903   0.865  1.2386 -0.5899 -1.5301
 5282SOL    HW320901   2.414   4.955   0.937 -0.1057 -0.5194  0.7732
 5282SOL    MW420902   2.361   4.957   0.869  0.7865 -0.0804  0.0643
 5283SOL     OW20903   1.212   3.031   1.573  0.6618  0.3249 -0.4038
 5283SOL    HW220904   1.277   3.101   1.565  0.1274  0.8718 -0.0915
 5283SOL    HW320905   1.258   2.952   1.547  1.2864  0.7935 -0.7476
 5283SOL    MW420906   1.227   3.030   1.569  0.6737  0.4589 -0.4080
 5284SOL     OW20907   5.983   2.429   2.137  0.2662 -0.1318  0.1882
 5284SOL    HW220908   6.027   2.430   2.222  0.5474  0.5215  0.0410
 5284SOL    HW320909   6.033   2.490   2.083  2.1498 -2.9835 -1.5167
 5284SOL    MW420910   5.995   2.437   2.141  0.5518 -0.4218 -0.0561
 5285SOL     OW20911   4.339   2.423   2.132 -0.4964  0.2191  0.2179
 5285SOL    HW220912   4.376   2.338   2.154 -1.1904 -0.2096 -0.2367
 5285SOL    HW320913   4.260   2.429   2.186 -0.0456  0.9186  0.8249
 5285SOL    MW420914   4.333   2.413   2.142 -0.5285  0.2548  0.2380
 5286SOL     OW20915   4.950   1.337   1.074 -0.3828  0.1544  0.2630
 5286SOL    HW220916   4.958   1.300   0.986 -2.3081 -0.5567  0.3576
 5286SOL    HW320917   4.907   1.269   1.125 -0.4857  1.0691  1.4348
 5286SOL    MW420918   4.946   1.323   1.069 -0.6504  0.1813  0.4301
 5287SOL     OW20919   4.667   5.643   6.022 -0.2842 -0.1354 -0.7540
 5287SOL    HW220920   4.716   5.561   6.019  0.6247  0.1824  2.1376
 5287SOL    HW320921   4.734   5.711   6.013 -0.1812  0.2779  2.0311
 5287SOL    MW420922   4.682   5.641   6.021 -0.1507 -0.0389 -0.0050
 5288SOL     OW20923   1.501   5.831   3.963  0.5122  0.3030 -0.2701
 5288SOL    HW220924   1.448   5.848   4.041 -0.4061  0.6502 -0.9554
 5288SOL    HW320925   1.566   5.767   3.992 -0.8572 -0.8678  0.3642
 5288SOL    MW420926   1.503   5.825   3.977  0.2104  0.1943 -0.2768
 5289SOL     OW20927   3.467   0.626   2.772  0.1859 -0.9759  0.7504
 5289SOL    HW220928   3.534   0.560   2.785  1.1115 -0.1804  0.1555
 5289SOL    HW320929   3.476   0.686   2.846  2.2471  0.8534 -0.8455
 5289SOL    MW420930   3.477   0.625   2.783  0.5800 -0.6296  0.4614
 5290SOL     OW20931   4.382   5.229   1.103 -0.4545  0.3338  0.2611
 5290SOL    HW220932   4.392   5.161   1.170 -0.4446 -1.0180 -1.0451
 5290SOL    HW320933   4.355   5.307   1.152 -0.5618 -0.6245  1.8175
 5290SOL    MW420934   4.379   5.230   1.118 -0.4673  0.0290  0.2941
 5291SOL     OW20935   5.714   0.663   3.849  0.4631 -0.6146  0.2784
 5291SOL    HW220936   5.733   0.669   3.943 -0.3474 -0.4704  0.4409
 5291SOL    HW320937   5.649   0.594   3.842  0.2016 -0.3281 -0.1315
 5291SOL    MW420938   5.708   0.655   3.861  0.3217 -0.5578  0.2457
 5292SOL     OW20939   1.753   6.230   5.635  0.2690 -0.2132  0.7539
 5292SOL    HW220940   1.674   6.178   5.622  0.5049 -0.1718 -1.0774
 5292SOL    HW320941   1.825   6.168   5.623  0.5302  0.1532  0.3968
 5292SOL    MW420942   1.752   6.215   5.632  0.3346 -0.1594  0.4652
 5293SOL     OW20943   0.543   3.587   0.026 -0.1967  0.8849 -0.1345
 5293SOL    HW220944   0.600   3.511   0.038 -0.1593  0.6257 -1.7503
 5293SOL    HW320945   0.586   3.640  -0.041 -0.8960  1.6456 -0.0005
 5293SOL    MW420946   0.556   3.584   0.019 -0.2840  0.9511 -0.3300
 5294SOL     OW20947   6.144   0.988   4.780  0.2293  0.1283 -0.4757
 5294SOL    HW220948   6.154   0.940   4.862  1.4228 -0.6232 -1.0351
 5294SOL    HW320949   6.061   0.956   4.743 -0.2488  0.3783  0.3528
 5294SOL    MW420950   6.134   0.978   4.786  0.3237  0.0622 -0.4402
 5295SOL     OW20951   5.628   0.624   5.794  0.6938  0.2989 -0.1716
 5295SOL    HW220952   5.670   0.614   5.709 -2.1284  1.6693 -1.8654
 5295SOL    HW320953   5.671   0.700   5.833 -0.0867  1.7039 -1.8838
 5295SOL    MW420954   5.639   0.633   5.788  0.2185  0.6651 -0.6210
 5296SOL     OW20955   6.343   4.034   5.286 -0.8779 -0.4245  0.0034
 5296SOL    HW220956   6.266   4.079   5.320  0.7026  1.4878  1.2734
 5296SOL    HW320957   6.383   3.993   5.363  0.5949  0.5878 -0.1781
 5296SOL    MW420958   6.338   4.034   5.301 -0.4750 -0.0386  0.1470
 5297SOL     OW20959   1.457   0.556   5.712 -0.4875  0.2949  0.0273
 5297SOL    HW220960   1.426   0.643   5.686  1.1874  0.4314 -1.7203
 5297SOL    HW320961   1.500   0.571   5.796 -0.1593  1.1787 -0.2797
 5297SOL    MW420962   1.458   0.570   5.720 -0.2232  0.4295 -0.2438
 5298SOL     OW20963   2.667   4.582   3.965  0.2991  0.0136 -0.3560
 5298SOL    HW220964   2.586   4.632   3.954  1.3284  1.3327 -2.7655
 5298SOL    HW320965   2.646   4.517   4.031 -2.1628  1.4695  0.4370
 5298SOL    MW420966   2.653   4.580   3.972  0.1101  0.3797 -0.5693
 5299SOL     OW20967   4.340   6.264   3.350  0.5031 -0.3238  0.1748
 5299SOL    HW220968   4.250   6.296   3.352  0.9137  0.9739 -0.5529
 5299SOL    HW320969   4.351   6.228   3.262  0.8712  0.1451  0.0186
 5299SOL    MW420970   4.330   6.264   3.339  0.6058 -0.0907  0.0582
 5300SOL     OW20971   5.944   5.098   1.764 -0.3644  0.4846 -0.0674
 5300SOL    HW220972   5.849   5.089   1.770 -0.7674  2.4284 -2.2824
 5300SOL    HW320973   5.963   5.092   1.671  1.5295  1.4111  0.2203
 5300SOL    MW420974   5.934   5.096   1.753 -0.1677  0.8633 -0.3217
 5301SOL     OW20975   1.356   2.068   5.147  0.2460  0.2443 -0.7916
 5301SOL    HW220976   1.341   2.038   5.236  0.1142 -1.7649 -1.4383
 5301SOL    HW320977   1.451   2.079   5.141  0.2374  0.5866 -0.3574
 5301SOL    MW420978   1.366   2.065   5.158  0.2275  0.0244 -0.8196
 5302SOL     OW20979   4.268   3.414   4.188  0.1316 -0.0126  0.1547
 5302SOL    HW220980   4.349   3.446   4.227  1.7988 -2.4885 -0.9934
 5302SOL    HW320981   4.250   3.332   4.234 -0.7308 -0.3581 -0.7601
 5302SOL    MW420982   4.276   3.407   4.199  0.2378 -0.3848 -0.1175
 5303SOL     OW20983   3.388   4.642   4.184 -0.1012 -0.0598  0.3155
 5303SOL    HW220984   3.352   4.726   4.214 -2.5717 -0.8351 -0.2723
 5303SOL    HW320985   3.426   4.661   4.098 -1.2618  0.3428 -0.1201
 5303SOL    MW420986   3.388   4.656   4.177 -0.5803 -0.1089  0.1805
 5304SOL     OW20987   4.894   0.050   3.204  0.3182  0.1442 -0.5312
 5304SOL    HW220988   4.837   0.002   3.143  0.4023 -0.6449 -0.0067
 5304SOL    HW320989   4.910   0.134   3.161 -1.4022  0.4757 -0.6067
 5304SOL    MW420990   4.888   0.055   3.190  0.1023  0.0838 -0.4719
 5305SOL     OW20991   5.959   3.520   0.954  0.2542  0.2392 -0.0880
 5305SOL    HW220992   5.957   3.579   0.878 -0.5556  0.0113 -0.2598
 5305SOL    HW320993   5.872   3.481   0.955  0.1607  0.4605  1.1460
 5305SOL    MW420994   5.947   3.523   0.944  0.1350  0.2383  0.0522
 5306SOL     OW20995   4.624   3.934   2.168 -0.2180 -0.0977  0.2521
 5306SOL    HW220996   4.685   3.862   2.153 -0.1912 -0.0231  0.0017
 5306SOL    HW320997   4.660   3.981   2.243  0.9159  0.8922 -0.8692
 5306SOL    MW420998   4.637   3.930   2.176 -0.0649  0.0428  0.0711
 5307SOL     OW20999   6.166   4.898   1.369  0.4865  0.1601 -0.1949
 5307SOL    HW221000   6.149   4.867   1.459 -1.6639  1.2416 -0.1688
 5307SOL    HW321001   6.117   4.837   1.314 -1.4092  1.7226 -0.3267
 5307SOL    MW421002   6.157   4.886   1.374 -0.0473  0.5090 -0.2088
 5308SOL     OW21003   6.293   2.222   2.284  0.4780 -0.1773  0.0003
 5308SOL    HW221004   6.232   2.191   2.216 -0.3605  1.4037 -0.0179
 5308SOL    HW321005   6.260   2.309   2.308  0.4112 -0.8999  2.8632
 5308SOL    MW421006   6.280   2.230   2.278  0.3585 -0.0640  0.3756
 5309SOL     OW21007   2.236   5.456   2.475 -0.2571  0.2245  0.2185
 5309SOL    HW221008   2.300   5.527   2.472 -0.3107  0.3292  1.3622
 5309SOL    HW321009   2.179   5.472   2.399  1.9954 -0.7895 -1.8361
 5309SOL    MW421010   2.237   5.468   2.464  0.0330  0.1045  0.0983
 5310SOL     OW21011   6.302   0.971   2.185  0.4298  0.5665 -0.1782
 5310SOL    HW221012   6.248   0.922   2.122 -0.9427  1.7065  0.0557
 5310SOL    HW321013   6.388   0.929   2.180 -0.7913 -2.2495  0.4436
 5310SOL    MW421014   6.306   0.959   2.176  0.0876  0.3454 -0.0653
 5311SOL     OW21015   1.058   4.286   0.180 -0.6763  0.0395 -0.8355
 5311SOL    HW221016   1.025   4.223   0.116 -1.0270 -0.0431 -0.5787
 5311SOL    HW321017   1.012   4.264   0.261 -0.5813  0.4417 -0.6693
 5311SOL    MW421018   1.048   4.275   0.183 -0.7100  0.0817 -0.7797
 5312SOL     OW21019   1.428   1.699   2.913 -0.6849  0.0731 -0.1210
 5312SOL    HW221020   1.373   1.640   2.862  1.0017 -0.7980 -1.0136
 5312SOL    HW321021   1.492   1.733   2.850  1.8007 -1.4298  1.4002
 5312SOL    MW421022   1.429   1.696   2.898 -0.1345 -0.2401 -0.0381
 5313SOL     OW21023   4.439   3.673   3.107 -0.3933  0.1606  0.5387
 5313SOL    HW221024   4.492   3.727   3.166  1.3311 -0.9353  0.0560
 5313SOL    HW321025   4.499   3.606   3.075 -1.5146  0.1257 -1.7108
 5313SOL    MW421026   4.454   3.671   3.111 -0.3137  0.0114  0.1782
 5314SOL     OW21027   0.326   0.761   4.060 -0.7079 -0.4110  0.0276
 5314SOL    HW221028   0.331   0.733   3.969 -0.9373 -1.0687  0.2098
 5314SOL    HW321029   0.310   0.681   4.109 -1.6933  0.0890  0.5424
 5314SOL    MW421030   0.325   0.747   4.055 -0.8682 -0.4318  0.1196
 5315SOL     OW21031   4.997   3.650   2.801 -0.7273  0.0378  0.2835
 5315SOL    HW221032   4.936   3.597   2.748 -0.6592  0.0463  0.1955
 5315SOL    HW321033   4.975   3.741   2.778 -2.2697  0.1570  1.9876
 5315SOL    MW421034   4.986   3.655   2.791 -0.9218  0.0546  0.4967
 5316SOL     OW21035   4.587   3.924   6.169  0.0333 -0.0946  0.2095
 5316SOL    HW221036   4.668   3.967   6.198 -0.4929  1.7444 -0.8715
 5316SOL    HW321037   4.526   3.935   6.242  0.2495 -0.0158  0.3790
 5316SOL    MW421038   4.590   3.931   6.182 -0.0076  0.1585  0.0892
 5317SOL     OW21039   5.191   2.247   3.402  0.1949  0.0629  0.2881
 5317SOL    HW221040   5.221   2.162   3.433 -0.1529 -1.2746 -2.6781
 5317SOL    HW321041   5.269   2.287   3.364 -0.2160 -0.2436 -0.9169
 5317SOL    MW421042   5.205   2.241   3.401  0.0948 -0.1540 -0.2622
 5318SOL     OW21043   2.734   5.882   1.740  0.7884 -0.1266 -0.2853
 5318SOL    HW221044   2.771   5.806   1.696  0.9016 -0.5529  0.5135
 5318SOL    HW321045   2.807   5.942   1.751  1.1492 -0.7398  0.8130
 5318SOL    MW421046   2.748   5.879   1.736  0.8509 -0.2638 -0.0350
 5319SOL     OW21047   1.172   2.985   3.005 -0.0753 -1.1513 -0.2820
 5319SOL    HW221048   1.236   2.925   3.043  0.5498 -0.2544  0.1472
 5319SOL    HW321049   1.224   3.062   2.981 -0.8633 -0.7440 -0.7134
 5319SOL    MW421050   1.188   2.987   3.007 -0.0968 -0.9792 -0.2823
 5320SOL     OW21051   3.032   3.525   3.795 -0.2858 -0.2295  0.4584
 5320SOL    HW221052   3.104   3.586   3.810 -2.0146  1.5299  2.1704
 5320SOL    HW321053   3.014   3.531   3.701  2.1595 -1.2688 -0.1756
 5320SOL    MW421054   3.039   3.534   3.784 -0.1913 -0.1344  0.6006
 5321SOL     OW21055   4.985   4.159   5.078  1.0929  0.0764 -0.0694
 5321SOL    HW221056   4.947   4.072   5.089  0.1792  0.5677  0.8181
 5321SOL    HW321057   4.949   4.190   4.995  1.8405 -0.5809 -0.6590
 5321SOL    MW421058   4.975   4.151   5.069  1.0710  0.0545 -0.0301
 5322SOL     OW21059   6.065   1.431   3.930  0.1656  0.0388  0.2392
 5322SOL    HW221060   6.133   1.499   3.932  0.7358 -0.5249  0.5713
 5322SOL    HW321061   6.025   1.435   4.016  1.5481 -1.3509  0.9993
 5322SOL    MW421062   6.069   1.441   3.942  0.4232 -0.2189  0.3833
 5323SOL     OW21063   1.262   5.684   0.220  0.1422  0.6013 -0.1964
 5323SOL    HW221064   1.264   5.674   0.316 -1.5306 -1.6480 -0.2995
 5323SOL    HW321065   1.352   5.707   0.197  0.4772  1.7504  1.9307
 5323SOL    MW421066   1.274   5.685   0.230 -0.0343  0.4561  0.0706
 5324SOL     OW21067   2.387   2.999   0.809 -0.3357 -0.1931 -0.2946
 5324SOL    HW221068   2.463   2.954   0.771 -1.1557  0.2163 -2.5839
 5324SOL    HW321069   2.421   3.083   0.840  0.2834 -0.3139 -0.6332
 5324SOL    MW421070   2.401   3.004   0.808 -0.3622 -0.1550 -0.6413
 5325SOL     OW21071   5.098   6.035   2.803 -0.6449  0.3498  0.0514
 5325SOL    HW221072   5.019   6.077   2.768 -0.3471  1.4815  0.6711
 5325SOL    HW321073   5.155   6.024   2.728 -0.0894  2.5660  0.0736
 5325SOL    MW421074   5.095   6.039   2.789 -0.5323  0.7915  0.1361
 5326SOL     OW21075   2.504   2.085   0.903 -0.3412  0.6295 -0.2301
 5326SOL    HW221076   2.573   2.089   0.836 -0.2699  2.3806 -0.0880
 5326SOL    HW321077   2.512   2.167   0.951  0.5419 -1.1316  2.9210
 5326SOL    MW421078   2.514   2.096   0.901 -0.2153  0.6282  0.2044
 5327SOL     OW21079   2.872   1.684   5.138 -0.6198  0.1573 -0.5488
 5327SOL    HW221080   2.950   1.631   5.152 -0.1761  0.8367 -0.4260
 5327SOL    HW321081   2.808   1.649   5.200 -0.1586  0.1197 -0.0899
 5327SOL    MW421082   2.874   1.673   5.148 -0.5004  0.2420 -0.4721
 5328SOL     OW21083   3.019   2.757   6.207  0.5876 -0.1430 -0.0467
 5328SOL    HW221084   2.930   2.723   6.195  0.1884 -0.1256  2.3051
 5328SOL    HW321085   3.076   2.682   6.187  0.1098 -0.0408 -1.9765
 5328SOL    MW421086   3.015   2.742   6.203  0.4719 -0.1272  0.0090
 5329SOL     OW21087   1.589   4.494   0.888 -0.3329  0.3406 -0.3398
 5329SOL    HW221088   1.585   4.502   0.984 -0.7372 -0.9836 -0.2375
 5329SOL    HW321089   1.681   4.482   0.869 -0.2642  0.4922 -0.1167
 5329SOL    MW421090   1.600   4.494   0.898 -0.3772  0.1859 -0.2969
 5330SOL     OW21091   5.878   4.193   1.875  0.1794 -0.3455 -0.1885
 5330SOL    HW221092   5.899   4.237   1.793 -0.7012  0.8474  0.2088
 5330SOL    HW321093   5.825   4.118   1.849 -1.6401  1.0269 -0.6320
 5330SOL    MW421094   5.874   4.189   1.861 -0.1769 -0.0071 -0.1946
 5331SOL     OW21095   0.922   1.390   6.020 -0.2964  0.0420 -0.2780
 5331SOL    HW221096   0.904   1.333   6.095 -1.5067  0.1920 -0.4354
 5331SOL    HW321097   0.941   1.329   5.949  1.8624 -0.0868  0.3577
 5331SOL    MW421098   0.922   1.374   6.020 -0.1713  0.0448 -0.2149
 5332SOL     OW21099   4.017   4.937   6.000  0.1989  0.2795 -0.0667
 5332SOL    HW221100   3.951   4.935   5.930  0.5261  1.4678 -0.4441
 5332SOL    HW321101   4.081   5.003   5.970  2.0504 -1.4549 -0.1379
 5332SOL    MW421102   4.017   4.946   5.986  0.4864  0.2075 -0.1259
 5333SOL     OW21103   5.347   2.303   2.724  0.6031 -0.1297  0.1063
 5333SOL    HW221104   5.277   2.245   2.755  1.8008 -0.6809  1.8944
 5333SOL    HW321105   5.428   2.255   2.741  1.4859  0.8890 -1.0438
 5333SOL    MW421106   5.348   2.289   2.730  0.8776 -0.0680  0.1905
 5334SOL     OW21107   4.620   1.142   3.716 -0.3816  0.4473  0.3278
 5334SOL    HW221108   4.655   1.231   3.716 -2.8297  1.5631 -1.4358
 5334SOL    HW321109   4.688   1.089   3.674  1.0861  1.4768  1.3318
 5334SOL    MW421110   4.633   1.147   3.710 -0.5110  0.7304  0.2276
 5335SOL     OW21111   5.153   4.578   2.022 -0.0502 -0.8487  0.5269
 5335SOL    HW221112   5.069   4.548   1.988 -0.1733  0.0604  0.0026
 5335SOL    HW321113   5.218   4.550   1.957 -0.2939  0.9547 -0.5458
 5335SOL    MW421114   5.151   4.570   2.009 -0.0986 -0.4908  0.3162
 5336SOL     OW21115   3.665   2.191   0.460 -0.5696  0.5346  0.2572
 5336SOL    HW221116   3.722   2.262   0.490 -1.8896  2.0586 -0.7120
 5336SOL    HW321117   3.701   2.113   0.503  1.8919  1.4897  0.1224
 5336SOL    MW421118   3.677   2.190   0.470 -0.4190  0.8617  0.1115
 5337SOL     OW21119   5.942   0.414   4.146 -0.0335 -0.1489 -0.0642
 5337SOL    HW221120   5.967   0.490   4.094  0.1096  0.1824  0.4767
 5337SOL    HW321121   6.024   0.367   4.161 -0.1458 -0.4996 -0.5327
 5337SOL    MW421122   5.956   0.418   4.141 -0.0294 -0.1515 -0.0546
 5338SOL     OW21123   4.617   0.615   5.964  0.1400  0.5932 -0.2258
 5338SOL    HW221124   4.597   0.528   5.929 -0.9790  0.9998 -0.6516
 5338SOL    HW321125   4.626   0.670   5.886  1.8787  0.6838 -0.0047
 5338SOL    MW421126   4.615   0.611   5.949  0.2217  0.6588 -0.2528
 5339SOL     OW21127   5.258   0.255   3.098  0.2622 -0.2688 -0.0047
 5339SOL    HW221128   5.318   0.182   3.112  0.3080 -0.1162  0.6506
 5339SOL    HW321129   5.204   0.258   3.177  0.7306  0.8336  0.3018
 5339SOL    MW421130   5.259   0.246   3.110  0.3300 -0.1032  0.1222
 5340SOL     OW21131   4.233   5.206   4.901  0.1299  0.4617  0.6509
 5340SOL    HW221132   4.307   5.167   4.948  1.4911  0.6238 -1.2089
 5340SOL    HW321133   4.167   5.136   4.898  0.4622  0.0831  1.7828
 5340SOL    MW421134   4.234   5.191   4.907  0.3533  0.4331  0.5549
 5341SOL     OW21135   3.529   4.804   0.562  0.2801  0.1835  0.1684
 5341SOL    HW221136   3.540   4.718   0.521  2.0628  0.1946  0.5021
 5341SOL    HW321137   3.484   4.785   0.644  0.3869 -0.4072  0.0993
 5341SOL    MW421138   3.525   4.790   0.568  0.5294  0.1070  0.2033
 5342SOL     OW21139   4.386   5.942   1.032  0.1076 -0.6032 -0.3427
 5342SOL    HW221140   4.362   5.888   1.107  0.5406 -0.3277  0.0043
 5342SOL    HW321141   4.321   6.012   1.031  1.7726  1.1448  1.6494
 5342SOL    MW421142   4.374   5.944   1.042  0.3844 -0.3362 -0.0341
 5343SOL     OW21143   4.770   2.376   4.301  0.5917  0.1644 -0.0813
 5343SOL    HW221144   4.780   2.419   4.216  3.5827  0.0690  0.1324
 5343SOL    HW321145   4.747   2.446   4.361 -2.8143  0.0634 -1.0344
 5343SOL    MW421146   4.768   2.391   4.297  0.5369  0.1385 -0.1788
 5344SOL     OW21147   3.478   2.987   0.736 -0.7166 -0.2299 -0.1196
 5344SOL    HW221148   3.548   2.922   0.728  1.5415  2.0165  0.0604
 5344SOL    HW321149   3.500   3.036   0.816 -1.5621  1.5915 -0.9587
 5344SOL    MW421150   3.490   2.985   0.746 -0.5302  0.3068 -0.2066
 5345SOL     OW21151   2.844   1.336   4.275  0.1750  0.7745  0.1417
 5345SOL    HW221152   2.921   1.393   4.266  1.2971 -0.6857  0.1588
 5345SOL    HW321153   2.880   1.247   4.280 -1.4979  0.0797  0.5635
 5345SOL    MW421154   2.859   1.332   4.275  0.1023  0.4902  0.1996
 5346SOL     OW21155   3.844   1.891   3.028  0.2262 -0.0040  0.4538
 5346SOL    HW221156   3.881   1.942   2.956  1.3698 -1.1020  0.2132
 5346SOL    HW321157   3.777   1.947   3.066 -0.3643  0.6401 -1.4247
 5346SOL    MW421158   3.840   1.905   3.023  0.2992 -0.0639  0.1742
 5347SOL     OW21159   4.627   4.169   0.042 -0.4596 -0.1965  0.0461
 5347SOL    HW221160   4.560   4.101   0.041  1.0842 -1.8366  1.4374
 5347SOL    HW321161   4.629   4.202  -0.048 -1.8901 -1.3218 -0.4340
 5347SOL    MW421162   4.619   4.165   0.030 -0.4447 -0.5613  0.1663
 5348SOL     OW21163   4.371   1.505   2.297  0.0101 -0.2228  0.1392
 5348SOL    HW221164   4.311   1.433   2.314 -0.9378 -0.0812 -2.2774
 5348SOL    HW321165   4.458   1.464   2.296 -0.1035 -0.6546  2.2926
 5348SOL    MW421166   4.374   1.490   2.299 -0.1299 -0.2611  0.1045
 5349SOL     OW21167   5.922   1.687   2.016  0.2105 -0.5260  0.3044
 5349SOL    HW221168   5.929   1.595   2.043  0.1883 -1.1061 -1.5327
 5349SOL    HW321169   5.867   1.684   1.937 -1.1483  1.2722  1.1220
 5349SOL    MW421170   5.916   1.674   2.009  0.0283 -0.3653  0.1699
 5350SOL     OW21171   6.070   4.011   3.245  0.4275  0.0377 -0.2459
 5350SOL    HW221172   6.083   3.955   3.321 -0.4199  0.4952  0.2450
 5350SOL    HW321173   6.054   4.098   3.281  0.7311  0.4038 -0.9690
 5350SOL    MW421174   6.070   4.015   3.260  0.3557  0.1464 -0.2765
 5351SOL     OW21175   2.464   0.042   3.057 -0.7914  0.1038  0.0533
 5351SOL    HW221176   2.430  -0.006   3.133  2.3121  0.4305  1.8238
 5351SOL    HW321177   2.483   0.129   3.090 -1.2231  0.8977 -1.6912
 5351SOL    MW421178   2.462   0.047   3.071 -0.4389  0.2517  0.0567
 5352SOL     OW21179   2.231   4.538   0.933 -0.1374 -0.2239 -0.2423
 5352SOL    HW221180   2.250   4.563   0.842  0.2211  0.4744  0.0151
 5352SOL    HW321181   2.264   4.449   0.941  1.8506  0.4634 -0.2028
 5352SOL    MW421182   2.238   4.530   0.922  0.1722 -0.0411 -0.2031
 5353SOL     OW21183   4.221   1.555   4.379  0.4907  0.2861 -0.6620
 5353SOL    HW221184   4.249   1.464   4.370  0.7691  0.2822  0.1636
 5353SOL    HW321185   4.128   1.554   4.355  0.5917 -0.1418 -1.0390
 5353SOL    MW421186   4.212   1.543   4.374  0.5408  0.2291 -0.6028
 5354SOL     OW21187   2.152   6.276   3.012 -0.4716 -0.0658 -0.4995
 5354SOL    HW221188   2.241   6.246   2.994 -0.3409 -0.8194  1.1699
 5354SOL    HW321189   2.101   6.248   2.936  0.7057  0.4356 -1.5139
 5354SOL    MW421190   2.157   6.268   3.000 -0.2990 -0.0991 -0.4131
 5355SOL     OW21191   6.227   1.140   6.370 -0.2831  0.1926  0.0241
 5355SOL    HW221192   6.268   1.192   6.300  0.2507  1.4738  1.2331
 5355SOL    HW321193   6.187   1.205   6.427 -0.5393 -0.8168  1.0270
 5355SOL    MW421194   6.227   1.156   6.368 -0.2465  0.2285  0.3159
 5356SOL     OW21195   1.313   3.730   3.378 -0.0363 -0.3789 -0.5492
 5356SOL    HW221196   1.400   3.726   3.338  0.2699 -0.2147  0.0813
 5356SOL    HW321197   1.305   3.648   3.427 -0.1469 -0.2935 -0.4227
 5356SOL    MW421198   1.323   3.719   3.379 -0.0105 -0.3460 -0.4493
 5357SOL     OW21199   2.049   6.172   3.239  0.2796 -0.5591  0.2815
 5357SOL    HW221200   2.083   6.210   3.158 -0.0045 -1.3223 -0.2170
 5357SOL    HW321201   1.973   6.226   3.261  0.1311 -0.5767 -0.1776
 5357SOL    MW421202   2.043   6.184   3.231  0.2225 -0.6621  0.1552
 5358SOL     OW21203   6.123   2.150   4.279 -0.1954 -0.3750 -0.5798
 5358SOL    HW221204   6.121   2.060   4.310 -1.6993  0.2929  1.5771
 5358SOL    HW321205   6.032   2.180   4.288  0.1895  1.2396 -1.6081
 5358SOL    MW421206   6.111   2.142   4.284 -0.3431 -0.0738 -0.4309
 5359SOL     OW21207   5.680   1.384   0.015 -0.5629 -0.2274 -0.3817
 5359SOL    HW221208   5.722   1.303  -0.014  1.5038  0.9044 -0.6833
 5359SOL    HW321209   5.752   1.444   0.033 -2.0202  1.3214  0.5704
 5359SOL    MW421210   5.695   1.381   0.013 -0.4825  0.1262 -0.2959
 5360SOL     OW21211   5.383   5.066   0.758 -0.4768 -0.0844 -0.1019
 5360SOL    HW221212   5.311   5.128   0.748 -0.6945 -0.2490  0.4330
 5360SOL    HW321213   5.341   4.983   0.779 -0.0959 -0.0002  1.0098
 5360SOL    MW421214   5.368   5.063   0.759 -0.4553 -0.0950  0.1154
 5361SOL     OW21215   1.456   5.106   6.235  0.3905 -0.1945 -0.6238
 5361SOL    HW221216   1.498   5.086   6.151  1.1132  1.5632 -0.7404
 5361SOL    HW321217   1.528   5.113   6.297  0.3299  2.3613 -0.7207
 5361SOL    MW421218   1.471   5.105   6.232  0.4778  0.3746 -0.6520
 5362SOL     OW21219   4.449   5.492   5.183  0.9045  0.1254 -0.4470
 5362SOL    HW221220   4.480   5.441   5.258  0.0851  0.5130  0.1724
 5362SOL    HW321221   4.524   5.548   5.160  0.5622  1.4257  1.3531
 5362SOL    MW421222   4.463   5.493   5.190  0.7513  0.3481 -0.1278
 5363SOL     OW21223   4.862   0.536   2.418 -0.0507 -0.3227 -0.5437
 5363SOL    HW221224   4.791   0.548   2.481  0.3355 -1.4285  0.1246
 5363SOL    HW321225   4.835   0.461   2.365  0.4688 -0.5548 -0.4869
 5363SOL    MW421226   4.849   0.528   2.419  0.0688 -0.4992 -0.4480
 5364SOL     OW21227   1.968   0.509   6.270 -0.1968 -0.1996  0.0183
 5364SOL    HW221228   1.907   0.442   6.303  0.0725 -1.3130 -1.6255
 5364SOL    HW321229   1.921   0.591   6.282 -0.5609 -0.6447  2.0530
 5364SOL    MW421230   1.954   0.511   6.276 -0.2093 -0.4052  0.0699
 5365SOL     OW21231   2.188   1.706   3.245  0.3498 -0.0307  0.2120
 5365SOL    HW221232   2.228   1.746   3.168  1.0157  1.2272  1.1669
 5365SOL    HW321233   2.257   1.708   3.312 -0.7147  0.4407  1.3360
 5365SOL    MW421234   2.202   1.711   3.244  0.2972  0.1975  0.4863
 5366SOL     OW21235   2.109   5.830   1.706 -0.0218 -0.4351  0.0718
 5366SOL    HW221236   2.185   5.786   1.667  1.0546 -0.3524  1.9740
 5366SOL    HW321237   2.146   5.900   1.759 -1.5415  0.6148 -0.1928
 5366SOL    MW421238   2.124   5.833   1.708 -0.0803 -0.2857  0.2879
 5367SOL     OW21239   2.125   2.540   4.209  0.1407 -0.3214  0.0379
 5367SOL    HW221240   2.032   2.553   4.228 -0.2535 -1.2988 -1.1185
 5367SOL    HW321241   2.130   2.452   4.172  1.3752  0.1036 -0.8574
 5367SOL    MW421242   2.113   2.530   4.207  0.2516 -0.3943 -0.2328
 5368SOL     OW21243   0.813   5.784   1.834 -0.2862  0.2779 -0.1038
 5368SOL    HW221244   0.825   5.697   1.796  1.4275 -0.3791  1.7471
 5368SOL    HW321245   0.892   5.832   1.811 -0.6138  0.9022  0.0350
 5368SOL    MW421246   0.825   5.779   1.826 -0.1033  0.2736  0.1587
 5369SOL     OW21247   3.579   5.888   3.230 -0.4185 -0.3959 -0.0516
 5369SOL    HW221248   3.630   5.825   3.280 -0.2108 -0.7530 -0.7027
 5369SOL    HW321249   3.528   5.835   3.169 -1.7392 -0.0659  0.7163
 5369SOL    MW421250   3.579   5.873   3.229 -0.5653 -0.3995 -0.0362
 5370SOL     OW21251   1.882   3.103   0.662 -0.6171 -0.1329 -0.0538
 5370SOL    HW221252   1.950   3.095   0.729  1.2114  1.0275 -1.7020
 5370SOL    HW321253   1.879   3.196   0.642 -0.3869 -0.5727 -2.3094
 5370SOL    MW421254   1.890   3.114   0.668 -0.3454 -0.0378 -0.5688
 5371SOL     OW21255   2.018   0.015   4.615 -0.1133  0.0502  0.1096
 5371SOL    HW221256   1.973  -0.017   4.537  1.0962 -0.6501 -0.3335
 5371SOL    HW321257   2.076  -0.057   4.640  1.6929  1.3622 -0.1103
 5371SOL    MW421258   2.020   0.001   4.608  0.2846  0.1309  0.0221
 5372SOL     OW21259   6.426   5.770   3.146  0.3275 -0.3644 -0.4074
 5372SOL    HW221260   6.376   5.811   3.216 -1.6520  1.5229 -2.7423
 5372SOL    HW321261   6.429   5.677   3.170  1.8095  0.4903  3.2582
 5372SOL    MW421262   6.420   5.763   3.158  0.2618 -0.0026 -0.2318
 5373SOL     OW21263   4.041   3.528   4.513  0.1934 -0.2120  0.3837
 5373SOL    HW221264   4.099   3.456   4.536  0.1914  0.0002  1.0910
 5373SOL    HW321265   3.990   3.496   4.438  2.6929  0.3678 -1.6848
 5373SOL    MW421266   4.042   3.514   4.506  0.5230 -0.1075  0.2041
 5374SOL     OW21267   3.410   1.850   2.057 -0.3818  0.0415  0.3548
 5374SOL    HW221268   3.358   1.814   1.985 -0.5951  0.5144  0.2704
 5374SOL    HW321269   3.353   1.846   2.133 -0.4414  0.2862  0.3248
 5374SOL    MW421270   3.396   1.845   2.057 -0.4178  0.1361  0.3397
 5375SOL     OW21271   2.712   3.591   3.225  0.0783  0.3572 -0.2778
 5375SOL    HW221272   2.754   3.558   3.146 -0.1257 -0.3346 -0.1075
 5375SOL    HW321273   2.683   3.512   3.271  0.6645  0.7246  0.7459
 5375SOL    MW421274   2.714   3.576   3.221  0.1287  0.3144 -0.1203
 5376SOL     OW21275   4.120   6.134   0.106  0.4588 -0.4201  0.4047
 5376SOL    HW221276   4.041   6.127   0.053 -0.4356 -1.9450  1.8313
 5376SOL    HW321277   4.191   6.104   0.050 -0.3145 -1.0829 -0.2376
 5376SOL    MW421278   4.119   6.129   0.092  0.2388 -0.7088  0.5082
 5377SOL     OW21279   3.395   3.598   0.729  1.0675  0.0771 -0.4867
 5377SOL    HW221280   3.331   3.658   0.768  0.4506 -1.4799  1.0495
 5377SOL    HW321281   3.355   3.571   0.646 -0.1372 -0.5884  0.2787
 5377SOL    MW421282   3.381   3.602   0.723  0.8271 -0.2161 -0.1830
 5378SOL     OW21283   4.338   1.599   3.341 -0.4581  0.6203  0.4721
 5378SOL    HW221284   4.412   1.583   3.398  0.3019  0.8087 -0.4339
 5378SOL    HW321285   4.282   1.661   3.390  1.2296  2.4792  0.1764
 5378SOL    MW421286   4.340   1.605   3.355 -0.1352  0.8904  0.3136
 5379SOL     OW21287   1.946   0.217   5.608  0.2436  0.1832 -0.3376
 5379SOL    HW221288   1.900   0.142   5.570  0.6719  0.0643 -0.6279
 5379SOL    HW321289   1.916   0.220   5.699  0.2484 -0.3575 -0.3170
 5379SOL    MW421290   1.936   0.208   5.615  0.3007  0.0962 -0.3732
 5380SOL     OW21291   1.780   3.511   0.405 -0.4157 -0.0682 -0.1949
 5380SOL    HW221292   1.708   3.459   0.370  0.3925 -1.1171 -0.3563
 5380SOL    HW321293   1.738   3.576   0.461 -1.4847 -0.5993 -0.3519
 5380SOL    MW421294   1.765   3.513   0.408 -0.4501 -0.2767 -0.2369
 5381SOL     OW21295   0.103   4.052   4.582 -0.3863  0.2424 -0.3135
 5381SOL    HW221296   0.015   4.082   4.607 -0.1272 -0.2856  1.3699
 5381SOL    HW321297   0.162   4.102   4.638  0.3223 -0.1387 -0.7056
 5381SOL    MW421298   0.099   4.062   4.593 -0.2587  0.1224 -0.1431
 5382SOL     OW21299   1.396   0.913   6.184 -0.1544 -0.1856  0.1808
 5382SOL    HW221300   1.352   0.851   6.127 -1.3334 -0.2766  1.1486
 5382SOL    HW321301   1.372   0.886   6.273 -1.2326  2.0113  0.6291
 5382SOL    MW421302   1.387   0.901   6.188 -0.4522  0.0922  0.3677
 5383SOL     OW21303   3.324   1.965   3.102 -0.0787  0.5152 -0.3358
 5383SOL    HW221304   3.288   1.968   3.190  0.8727 -0.0435  0.0842
 5383SOL    HW321305   3.418   1.982   3.113  0.0203  0.6270 -1.2546
 5383SOL    MW421306   3.332   1.968   3.115  0.0599  0.4562 -0.4016
 5384SOL     OW21307   2.999   5.236   2.600 -0.0890  0.3792 -0.2115
 5384SOL    HW221308   3.048   5.194   2.670 -1.3198  1.0417  1.1067
 5384SOL    HW321309   3.045   5.211   2.519  0.1800 -2.0909  0.6329
 5384SOL    MW421310   3.011   5.227   2.598 -0.2159  0.1407  0.0739
 5385SOL     OW21311   2.519   2.183   5.173 -0.4506  0.1497 -0.5684
 5385SOL    HW221312   2.546   2.169   5.264 -0.9544  0.1185 -0.4185
 5385SOL    HW321313   2.504   2.277   5.167  0.1600  0.2313 -0.7829
 5385SOL    MW421314   2.520   2.193   5.185 -0.4365  0.1564 -0.5769
 5386SOL     OW21315   4.528   5.971   2.634  0.6496  0.0765  0.1429
 5386SOL    HW221316   4.502   5.948   2.723  0.5447  0.7276  0.2878
 5386SOL    HW321317   4.544   6.065   2.637  3.5976 -0.3256  0.2240
 5386SOL    MW421318   4.527   5.980   2.646  1.0247  0.1094  0.1727
 5387SOL     OW21319   4.759   2.929   5.485 -0.0493 -0.3341 -0.1426
 5387SOL    HW221320   4.677   2.939   5.435  0.3787 -2.2972 -1.3324
 5387SOL    HW321321   4.730   2.906   5.573 -0.7954 -0.9347 -0.5303
 5387SOL    MW421322   4.744   2.927   5.490 -0.0913 -0.6723 -0.3507
 5388SOL     OW21323   4.816   2.702   1.540  0.5877 -0.2074  0.1984
 5388SOL    HW221324   4.767   2.781   1.519  0.0870 -1.0655 -2.1086
 5388SOL    HW321325   4.758   2.650   1.596 -0.4565 -0.4283 -1.0642
 5388SOL    MW421326   4.802   2.705   1.545  0.3838 -0.3497 -0.2726
 5389SOL     OW21327   2.872   4.751   1.529  0.4319 -0.0739 -0.0662
 5389SOL    HW221328   2.839   4.790   1.610 -1.9273 -1.1677 -0.3947
 5389SOL    HW321329   2.843   4.660   1.533  0.0279 -0.1053 -2.2187
 5389SOL    MW421330   2.864   4.744   1.540  0.0673 -0.2224 -0.3935
 5390SOL     OW21331   5.126   5.979   1.806 -0.2361 -0.1032  0.2518
 5390SOL    HW221332   5.123   5.913   1.875 -0.8207  1.1860  1.4859
 5390SOL    HW321333   5.035   6.008   1.796 -0.5255 -1.4968 -2.3497
 5390SOL    MW421334   5.113   5.974   1.814 -0.3514 -0.1170  0.0714
 5391SOL     OW21335   4.065   5.550   3.992 -0.2021  0.3645  0.3761
 5391SOL    HW221336   3.974   5.569   4.016 -1.0582 -2.2527 -0.4733
 5391SOL    HW321337   4.075   5.457   4.009  1.7619  0.2022 -1.3169
 5391SOL    MW421338   4.054   5.541   3.998 -0.0559 -0.0022  0.0406
 5392SOL     OW21339   4.800   3.085   1.454 -0.1903  0.4205 -0.4794
 5392SOL    HW221340   4.810   3.161   1.512  0.8494 -0.6605  0.8398
 5392SOL    HW321341   4.877   3.088   1.398  0.1622  0.0416 -0.0283
 5392SOL    MW421342   4.812   3.096   1.455 -0.0066  0.2279 -0.2458
 5393SOL     OW21343   3.464   0.275   2.364  0.0372 -0.0073 -0.3136
 5393SOL    HW221344   3.447   0.370   2.368  1.6351  0.3061 -0.1897
 5393SOL    HW321345   3.441   0.243   2.451 -0.8468  0.1870 -0.4623
 5393SOL    MW421346   3.459   0.284   2.376  0.1314  0.0596 -0.3169
 5394SOL     OW21347   5.027   6.386   1.899 -0.0952  0.5316  0.1338
 5394SOL    HW221348   5.029   6.307   1.953 -0.8698 -0.3500 -1.0747
 5394SOL    HW321349   4.934   6.398   1.877  0.0128  1.7730  0.2698
 5394SOL    MW421350   5.015   6.377   1.903 -0.1832  0.5791 -0.0077
 5395SOL     OW21351   5.907   0.548   0.233  0.1985 -0.3163  0.1585
 5395SOL    HW221352   5.843   0.483   0.262  0.7184 -0.6392  0.5887
 5395SOL    HW321353   5.987   0.525   0.279  0.1490  1.2221  1.0945
 5395SOL    MW421354   5.909   0.537   0.243  0.2606 -0.1559  0.3387
 5396SOL     OW21355   2.860   2.425   1.102 -0.4463 -0.1411 -0.1443
 5396SOL    HW221356   2.787   2.433   1.041 -1.1665 -0.9377  0.5841
 5396SOL    HW321357   2.932   2.390   1.050 -1.3484 -1.7684 -0.3409
 5396SOL    MW421358   2.860   2.422   1.087 -0.6604 -0.4609 -0.0742
 5397SOL     OW21359   5.730   4.892   1.170  0.1352  0.0679  0.1140
 5397SOL    HW221360   5.659   4.881   1.107  0.6177 -1.6451 -0.1575
 5397SOL    HW321361   5.744   4.987   1.173 -0.0707  0.2301 -2.1694
 5397SOL    MW421362   5.723   4.903   1.162  0.1717 -0.1367 -0.2231
 5398SOL     OW21363   4.561   4.445   1.181  0.0501 -0.2608  0.5248
 5398SOL    HW221364   4.573   4.443   1.276  1.0567  0.8809  0.4411
 5398SOL    HW321365   4.466   4.450   1.169 -0.0356  3.5883  1.6206
 5398SOL    MW421366   4.550   4.445   1.192  0.1716  0.3977  0.6583
 5399SOL     OW21367   2.697   0.906   6.249  0.2581  0.2573  0.5029
 5399SOL    HW221368   2.656   0.919   6.164 -0.3987  0.6777  0.8735
 5399SOL    HW321369   2.654   0.829   6.286  1.5446 -0.7891 -0.1330
 5399SOL    MW421370   2.686   0.898   6.243  0.3412  0.1747  0.4679
 5400SOL     OW21371   1.873   2.998   1.824 -0.6973  0.0599 -0.3398
 5400SOL    HW221372   1.805   3.048   1.869 -0.7573  0.3537 -0.7552
 5400SOL    HW321373   1.882   3.040   1.739  0.1709  0.1788 -0.2027
 5400SOL    MW421374   1.865   3.010   1.819 -0.5907  0.1143 -0.3765
 5401SOL     OW21375   0.388   1.954   2.453 -0.4121  0.3118  0.4015
 5401SOL    HW221376   0.415   1.903   2.376 -1.9791  0.4541 -0.2881
 5401SOL    HW321377   0.402   2.045   2.428  0.5619  0.3035  0.8964
 5401SOL    MW421378   0.393   1.959   2.439 -0.4903  0.3295  0.3758
 5402SOL     OW21379   1.239   4.827   5.550 -0.0472  0.3296 -0.2669
 5402SOL    HW221380   1.309   4.857   5.608  0.2402 -0.9943  0.1053
 5402SOL    HW321381   1.276   4.832   5.462  0.3625  0.0477 -0.1120
 5402SOL    MW421382   1.253   4.832   5.546  0.0448  0.1178 -0.1974
 5403SOL     OW21383   0.287   1.625   5.501 -0.0034  0.4635 -0.5549
 5403SOL    HW221384   0.192   1.635   5.495 -0.0179 -0.0030 -1.0934
 5403SOL    HW321385   0.309   1.662   5.587 -0.8686 -0.8548  0.2705
 5403SOL    MW421386   0.277   1.631   5.512 -0.1194  0.2280 -0.5170
 5404SOL     OW21387   6.134   4.886   5.403  0.0560  0.2743 -0.0262
 5404SOL    HW221388   6.047   4.921   5.420  0.2659 -0.1483  2.1775
 5404SOL    HW321389   6.189   4.921   5.473  1.3275 -0.6958 -0.4863
 5404SOL    MW421390   6.130   4.895   5.414  0.2515  0.0905  0.2038
 5405SOL     OW21391   1.878   4.389   4.029 -0.3942  0.1867  0.3161
 5405SOL    HW221392   1.938   4.434   3.969 -2.8492  1.7393 -1.0958
 5405SOL    HW321393   1.883   4.439   4.111  0.7192 -0.1326  0.4608
 5405SOL    MW421394   1.887   4.401   4.032 -0.5712  0.3494  0.1489
 5406SOL     OW21395   4.769   6.042   3.182 -0.1739 -0.2523 -0.4787
 5406SOL    HW221396   4.716   6.101   3.128 -2.1913 -1.9705 -0.5227
 5406SOL    HW321397   4.734   6.052   3.270  0.3989 -0.4123 -0.2276
 5406SOL    MW421398   4.757   6.051   3.186 -0.3645 -0.5001 -0.4514
 5407SOL     OW21399   5.077   1.439   5.372  0.2266  0.1647 -0.0841
 5407SOL    HW221400   5.091   1.490   5.452  2.0699  1.8053 -1.3632
 5407SOL    HW321401   5.158   1.389   5.361 -0.1870 -0.3910 -0.7135
 5407SOL    MW421402   5.089   1.439   5.381  0.4152  0.3078 -0.3359
 5408SOL     OW21403   5.554   1.289   1.718 -0.3011  0.1696  0.2465
 5408SOL    HW221404   5.623   1.320   1.660  0.3626 -0.6801  0.5692
 5408SOL    HW321405   5.498   1.366   1.730  1.6605  1.4989  1.5717
 5408SOL    MW421406   5.556   1.303   1.712  0.0453  0.2329  0.4639
 5409SOL     OW21407   5.831   4.440   1.973 -0.0304 -0.0990  0.4671
 5409SOL    HW221408   5.846   4.352   1.939 -2.0475  0.4597 -2.3024
 5409SOL    HW321409   5.851   4.434   2.066 -1.5340 -3.9034  0.7320
 5409SOL    MW421410   5.835   4.428   1.980 -0.4949 -0.5273  0.1366
 5410SOL     OW21411   1.625   0.419   1.961 -0.1329 -0.1334 -0.1732
 5410SOL    HW221412   1.554   0.414   2.025 -1.2685  2.0029 -1.1602
 5410SOL    HW321413   1.705   0.420   2.013 -0.9759  0.6247  1.1526
 5410SOL    MW421414   1.626   0.418   1.976 -0.3940  0.2485 -0.1285
 5411SOL     OW21415   3.507   1.562   4.836  0.5308 -0.5012 -0.1405
 5411SOL    HW221416   3.523   1.657   4.836 -1.8480 -0.0334  0.0793
 5411SOL    HW321417   3.412   1.554   4.829  0.3778 -2.8228  2.6881
 5411SOL    MW421418   3.497   1.574   4.835  0.1967 -0.7458  0.2617
 5412SOL     OW21419   0.910   1.493   2.217  0.8629  0.3104  0.4439
 5412SOL    HW221420   0.994   1.490   2.172  0.0645  0.8310 -1.1318
 5412SOL    HW321421   0.881   1.584   2.209 -0.2641 -0.0535  0.1702
 5412SOL    MW421422   0.917   1.505   2.210  0.6089  0.3310  0.1999
 5413SOL     OW21423   6.346   3.607   2.089 -0.3334 -0.3772 -0.6184
 5413SOL    HW221424   6.361   3.574   2.177 -1.2958  1.2022  0.1946
 5413SOL    HW321425   6.267   3.561   2.059 -1.1471  0.4782  0.1479
 5413SOL    MW421426   6.337   3.597   2.096 -0.5677 -0.0560 -0.4100
 5414SOL     OW21427   1.490   5.674   4.590 -0.0941 -0.5281 -0.0292
 5414SOL    HW221428   1.491   5.656   4.496  2.0750 -0.9030  0.0165
 5414SOL    HW321429   1.581   5.664   4.617 -0.5859  0.1332  2.0216
 5414SOL    MW421430   1.502   5.670   4.581  0.1272 -0.4903  0.2474
 5415SOL     OW21431   4.380   0.444   4.902 -0.2310  0.0872  0.3821
 5415SOL    HW221432   4.349   0.460   4.813  2.1554  0.3698 -0.4723
 5415SOL    HW321433   4.400   0.350   4.904 -1.2080 -0.1200  0.9596
 5415SOL    MW421434   4.379   0.434   4.890 -0.0451  0.0971  0.3456
 5416SOL     OW21435   4.075   0.283   2.192  0.7529  0.8792  0.0539
 5416SOL    HW221436   4.037   0.211   2.142 -0.6337  1.3098  0.4420
 5416SOL    HW321437   4.034   0.277   2.278  2.6067  0.5508  0.9744
 5416SOL    MW421438   4.065   0.273   2.197  0.8145  0.8926  0.2265
 5417SOL     OW21439   4.074   2.989   2.375 -0.0106 -0.2964 -0.1249
 5417SOL    HW221440   3.980   2.978   2.362  0.2825 -1.2410 -1.7263
 5417SOL    HW321441   4.108   2.900   2.377  1.1258  0.0474 -2.0496
 5417SOL    MW421442   4.066   2.976   2.373  0.1780 -0.3757 -0.5901
 5418SOL     OW21443   3.866   5.784   5.896  0.0892 -0.1962 -0.3636
 5418SOL    HW221444   3.855   5.868   5.851 -0.8520 -0.1153 -0.0099
 5418SOL    HW321445   3.800   5.727   5.857  0.3249 -0.6005 -0.1849
 5418SOL    MW421446   3.856   5.788   5.885 -0.0039 -0.2389 -0.2934
 5419SOL     OW21447   4.371   6.007   4.084  0.0577  0.0345 -0.4022
 5419SOL    HW221448   4.312   5.933   4.066 -0.1511 -0.1274  0.8853
 5419SOL    HW321449   4.387   6.045   3.998 -0.9181 -0.6938 -0.9335
 5419SOL    MW421450   4.365   6.002   4.070 -0.0986 -0.0830 -0.3024
 5420SOL     OW21451   6.352   2.302   2.594 -0.2170  0.1104  0.0504
 5420SOL    HW221452   6.318   2.365   2.531  1.3637 -0.3179 -1.3120
 5420SOL    HW321453   6.320   2.217   2.563  0.1476 -0.0481  0.0984
 5420SOL    MW421454   6.344   2.299   2.582  0.0397  0.0330 -0.1230
 5421SOL     OW21455   1.900   5.609   3.750 -0.4797 -0.1204 -0.1219
 5421SOL    HW221456   1.995   5.611   3.746 -0.2697 -0.8004  2.4796
 5421SOL    HW321457   1.879   5.519   3.775 -1.8300 -0.0187 -0.8158
 5421SOL    MW421458   1.910   5.598   3.753 -0.6302 -0.1967  0.1298
 5422SOL     OW21459   2.328   3.697   3.018  0.0663  0.5982 -0.0911
 5422SOL    HW221460   2.251   3.709   3.074 -0.6877  1.4687 -1.2701
 5422SOL    HW321461   2.392   3.760   3.052 -0.7403  1.8324 -0.7790
 5422SOL    MW421462   2.326   3.707   3.030 -0.1396  0.8759 -0.3374
 5423SOL     OW21463   2.153   1.358   4.901 -0.6664 -0.7873  0.0952
 5423SOL    HW221464   2.169   1.346   4.995  0.7530  0.2967  0.0196
 5423SOL    HW321465   2.240   1.352   4.861 -1.0561  0.3604 -0.9694
 5423SOL    MW421466   2.167   1.355   4.908 -0.5305 -0.4929 -0.0552
 5424SOL     OW21467   2.423   4.967   5.670 -0.8641 -0.8125  0.5067
 5424SOL    HW221468   2.381   5.003   5.748  0.3199  3.5121 -0.5941
 5424SOL    HW321469   2.369   4.996   5.597  0.8238 -0.2044 -0.5588
 5424SOL    MW421470   2.410   4.976   5.671 -0.4852 -0.1617  0.2209
 5425SOL     OW21471   1.750   0.439   4.616 -0.0320 -0.2397  0.0395
 5425SOL    HW221472   1.813   0.433   4.544  0.4016  0.9543  0.2960
 5425SOL    HW321473   1.703   0.355   4.615  1.2007 -0.9367 -0.4853
 5425SOL    MW421474   1.752   0.427   4.606  0.1879 -0.1741  0.0041
 5426SOL     OW21475   0.589   0.985   1.877  0.4103 -0.9044  0.0807
 5426SOL    HW221476   0.620   0.924   1.810 -2.1380 -0.7153 -1.4078
 5426SOL    HW321477   0.524   0.935   1.927  1.2227 -0.5932  1.4798
 5426SOL    MW421478   0.584   0.971   1.875  0.1813 -0.8384  0.0689
 5427SOL     OW21479   4.020   4.263   0.451  0.1688  0.1317 -0.1044
 5427SOL    HW221480   3.968   4.307   0.383 -1.2561 -2.9414 -1.1945
 5427SOL    HW321481   3.976   4.285   0.533 -0.0711  1.2446 -0.5087
 5427SOL    MW421482   4.007   4.272   0.453 -0.0508 -0.1269 -0.3016
 5428SOL     OW21483   3.771   2.556   4.635  0.1702 -0.1787 -0.6179
 5428SOL    HW221484   3.714   2.502   4.689  0.3899 -0.0599 -0.2676
 5428SOL    HW321485   3.853   2.562   4.684 -0.2794  1.5407 -0.0118
 5428SOL    MW421486   3.774   2.550   4.648  0.1399  0.0638 -0.4917
 5429SOL     OW21487   2.558   1.025   4.449  0.1776  0.2617  0.3371
 5429SOL    HW221488   2.637   1.031   4.503  0.7911 -0.6261 -0.4226
 5429SOL    HW321489   2.487   1.054   4.506  1.2104  2.3719  0.6238
 5429SOL    MW421490   2.559   1.030   4.463  0.3948  0.4230  0.2747
 5430SOL     OW21491   4.337   0.846   5.999  0.1026 -0.3517 -0.0413
 5430SOL    HW221492   4.311   0.929   6.040 -1.0311 -0.3676 -0.6948
 5430SOL    HW321493   4.373   0.872   5.914 -0.2457 -0.5264 -0.2429
 5430SOL    MW421494   4.339   0.861   5.993 -0.0929 -0.3768 -0.1541
 5431SOL     OW21495   2.022   6.126   2.817 -0.0451  0.2626  0.1007
 5431SOL    HW221496   2.054   6.192   2.756 -1.7992 -0.3384 -1.5943
 5431SOL    HW321497   2.089   6.058   2.817  0.7277  1.0167  0.1009
 5431SOL    MW421498   2.035   6.126   2.809 -0.1746  0.2828 -0.1229
 5432SOL     OW21499   0.891   1.458   3.687 -0.3336 -0.1133  0.7965
 5432SOL    HW221500   0.915   1.381   3.636 -0.8133  1.2272 -1.6814
 5432SOL    HW321501   0.795   1.463   3.679 -0.1821  1.6636 -0.7028
 5432SOL    MW421502   0.881   1.449   3.679 -0.3769  0.2980  0.2717
 5433SOL     OW21503   5.609   0.983   4.681 -0.1713  0.1850 -0.2367
 5433SOL    HW221504   5.599   0.892   4.707  1.6621 -0.8760 -2.8007
 5433SOL    HW321505   5.558   0.992   4.600  2.0868  0.4405 -1.7582
 5433SOL    MW421506   5.601   0.972   4.673  0.3685  0.0787 -0.7757
 5434SOL     OW21507   5.216   5.481   1.578  0.2220  0.1308  0.9586
 5434SOL    HW221508   5.277   5.546   1.542 -0.4527  0.3811  0.2512
 5434SOL    HW321509   5.215   5.411   1.513  0.4428 -0.2980  1.4102
 5434SOL    MW421510   5.224   5.481   1.565  0.1621  0.1073  0.9248
 5435SOL     OW21511   1.242   4.019   6.206  0.7282  1.2033  0.2242
 5435SOL    HW221512   1.258   3.965   6.283  0.8314  0.6738 -0.1659
 5435SOL    HW321513   1.319   4.007   6.151  0.3478  1.0305 -0.2788
 5435SOL    MW421514   1.254   4.010   6.209  0.6916  1.1106  0.1064
 5436SOL     OW21515   3.942   6.181   2.651  0.3721 -0.2153  0.4223
 5436SOL    HW221516   3.848   6.190   2.632  0.6847  0.7844 -0.7630
 5436SOL    HW321517   3.965   6.094   2.618  0.0002 -0.2127  0.1556
 5436SOL    MW421518   3.932   6.171   2.644  0.3643 -0.0831  0.2308
 5437SOL     OW21519   1.103   5.806   4.841 -0.0134  0.4679 -0.1026
 5437SOL    HW221520   1.157   5.727   4.842  0.9824  1.0312 -2.5171
 5437SOL    HW321521   1.150   5.867   4.898 -0.7172 -0.5675  1.6716
 5437SOL    MW421522   1.117   5.804   4.849  0.0251  0.4056 -0.1871
 5438SOL     OW21523   0.686   3.961   3.096 -0.6508 -0.8082  0.2812
 5438SOL    HW221524   0.703   4.044   3.052 -2.2722 -0.5161  0.1244
 5438SOL    HW321525   0.770   3.916   3.096  0.1524  0.6198 -0.0750
 5438SOL    MW421526   0.699   3.966   3.090 -0.7588 -0.5812  0.2135
 5439SOL     OW21527   1.871   6.204   6.344  0.5319 -0.2637 -0.3753
 5439SOL    HW221528   1.880   6.237   6.255 -2.5320  0.8384 -0.4080
 5439SOL    HW321529   1.907   6.273   6.400  0.5215 -0.0021 -0.6905
 5439SOL    MW421530   1.877   6.217   6.339  0.1263 -0.0838 -0.4212
 5440SOL     OW21531   2.879   2.709   2.345 -0.1109 -0.3976 -0.0803
 5440SOL    HW221532   2.864   2.773   2.414 -3.2532 -1.1731  0.0976
 5440SOL    HW321533   2.919   2.759   2.274 -0.0173  1.1491  1.0172
 5440SOL    MW421534   2.882   2.724   2.345 -0.5132 -0.2958  0.0880
 5441SOL     OW21535   3.563   2.310   3.175 -0.2139  0.4278 -0.4364
 5441SOL    HW221536   3.477   2.296   3.214  0.8028 -0.2118  1.7336
 5441SOL    HW321537   3.609   2.365   3.238  1.0267  0.6337 -1.4857
 5441SOL    MW421538   3.558   2.315   3.188  0.0839  0.3706 -0.2885
 5442SOL     OW21539   5.569   3.324   5.314  0.1402 -0.1289 -0.0158
 5442SOL    HW221540   5.643   3.353   5.367  1.3524 -0.5484 -1.3989
 5442SOL    HW321541   5.550   3.235   5.345 -0.2381  0.2226  0.7888
 5442SOL    MW421542   5.577   3.316   5.325  0.2502 -0.1379 -0.0921
 5443SOL     OW21543   0.593   4.530   3.002 -0.0299  0.0044  0.3830
 5443SOL    HW221544   0.568   4.622   3.014  0.6238  0.1388  0.7331
 5443SOL    HW321545   0.687   4.532   2.985  0.6444 -0.7471  3.3126
 5443SOL    MW421546   0.602   4.543   3.002  0.1453 -0.0770  0.8157
 5444SOL     OW21547   2.023   5.444   5.315  0.4472  0.0008  0.3786
 5444SOL    HW221548   2.109   5.484   5.332 -0.1122  1.5881 -0.2981
 5444SOL    HW321549   1.967   5.518   5.293 -0.3779 -1.2806 -2.1605
 5444SOL    MW421550   2.027   5.459   5.315  0.2645  0.0412 -0.0457
 5445SOL     OW21551   0.005   6.420   3.790  0.2571 -0.1058 -0.2326
 5445SOL    HW221552  -0.017   6.392   3.701  3.0719  0.7570 -1.3263
 5445SOL    HW321553   0.022   6.339   3.838  0.9094 -0.5337 -1.1609
 5445SOL    MW421554   0.004   6.406   3.785  0.7145 -0.0485 -0.4993
 5446SOL     OW21555   3.399   1.576   2.590 -0.0656 -0.1005  0.9259
 5446SOL    HW221556   3.463   1.511   2.622 -1.0072 -0.9894  1.0404
 5446SOL    HW321557   3.453   1.648   2.558  1.0911 -1.7730 -1.0947
 5446SOL    MW421558   3.415   1.577   2.590 -0.0373 -0.4384  0.6744
 5447SOL     OW21559   3.661   5.108   5.847  0.1731 -0.0854 -0.2755
 5447SOL    HW221560   3.625   5.121   5.760  0.1259 -0.9486 -0.3927
 5447SOL    HW321561   3.585   5.106   5.905  0.2864  2.6537  0.1283
 5447SOL    MW421562   3.646   5.110   5.843  0.1818  0.1621 -0.2376
 5448SOL     OW21563   2.932   2.136   2.925  0.3478  0.3401 -0.5134
 5448SOL    HW221564   2.873   2.212   2.918  2.5126  2.2299  0.3226
 5448SOL    HW321565   2.885   2.073   2.979 -1.1252  1.5213 -0.3614
 5448SOL    MW421566   2.918   2.138   2.931  0.4391  0.7453 -0.3831
 5449SOL     OW21567   4.487   5.154   3.314 -0.0211  0.0673  0.6570
 5449SOL    HW221568   4.407   5.172   3.265  0.4336  0.2036 -0.0559
 5449SOL    HW321569   4.550   5.219   3.281  0.2771  0.2010  1.4732
 5449SOL    MW421570   4.485   5.165   3.303  0.0783  0.1029  0.6706
 5450SOL     OW21571   1.929   3.664   3.768  0.2006  0.1711  0.1938
 5450SOL    HW221572   1.920   3.756   3.741  2.1978  0.6566  0.9889
 5450SOL    HW321573   1.907   3.614   3.689 -0.0951  1.3521 -0.4990
 5450SOL    MW421574   1.925   3.670   3.754  0.4251  0.3910  0.2073
 5451SOL     OW21575   4.489   5.772   0.587  0.3289  0.8557  0.0293
 5451SOL    HW221576   4.397   5.787   0.569 -0.1156 -1.1496  0.3970
 5451SOL    HW321577   4.529   5.859   0.584 -1.4286  1.6731 -0.8238
 5451SOL    MW421578   4.482   5.786   0.585  0.0384  0.6989 -0.0347
 5452SOL     OW21579   3.744   3.845   2.949 -0.3078  0.1631  0.3866
 5452SOL    HW221580   3.756   3.755   2.979 -1.6803 -0.0258  0.3914
 5452SOL    HW321581   3.650   3.860   2.954 -0.2522  1.1261 -0.9945
 5452SOL    MW421582   3.733   3.835   2.954 -0.4815  0.2652  0.2050
 5453SOL     OW21583   1.337   0.099   6.246 -0.2635 -0.5354 -0.3838
 5453SOL    HW221584   1.368   0.162   6.181 -0.3191 -0.2699 -0.1549
 5453SOL    HW321585   1.411   0.086   6.305 -0.3520 -0.4527 -0.2545
 5453SOL    MW421586   1.351   0.105   6.245 -0.2825 -0.4894 -0.3366
 5454SOL     OW21587   4.343   2.123   5.961 -0.8252 -0.7258 -0.3233
 5454SOL    HW221588   4.396   2.120   5.881  1.6238 -1.3657  1.2077
 5454SOL    HW321589   4.317   2.215   5.969 -0.8335 -0.5924 -1.6663
 5454SOL    MW421590   4.347   2.135   5.952 -0.5032 -0.7926 -0.2985
 5455SOL     OW21591   4.087   4.636   0.760  0.4288  0.0684 -0.0929
 5455SOL    HW221592   4.181   4.623   0.776  0.3376 -3.0560 -1.4838
 5455SOL    HW321593   4.046   4.614   0.843  0.8105 -0.8901 -0.1493
 5455SOL    MW421594   4.094   4.632   0.773  0.4671 -0.4703 -0.2839
 5456SOL     OW21595   4.827   0.782   3.967 -0.4077  0.3678  0.3351
 5456SOL    HW221596   4.862   0.849   4.026 -0.1429  0.9547 -0.4669
 5456SOL    HW321597   4.878   0.704   3.988  0.1564  0.7482  0.4107
 5456SOL    MW421598   4.838   0.781   3.978 -0.2984  0.4954  0.2393
 5457SOL     OW21599   1.936   2.077   3.609  0.7505  0.7277  0.2610
 5457SOL    HW221600   1.865   2.032   3.564  0.1241 -0.3230  2.1834
 5457SOL    HW321601   1.956   2.021   3.684  0.5946  3.1643  2.2482
 5457SOL    MW421602   1.930   2.064   3.613  0.6473  0.9106  0.7768
 5458SOL     OW21603   1.666   4.773   3.613  0.1676  0.1712  0.4175
 5458SOL    HW221604   1.679   4.766   3.708 -1.2357  0.5278  0.6639
 5458SOL    HW321605   1.588   4.827   3.604 -1.5651 -2.3151 -0.8290
 5458SOL    MW421606   1.657   4.779   3.625 -0.2462 -0.1098  0.2855
 5459SOL     OW21607   0.457   4.314   5.459  0.1884  0.0853 -0.0548
 5459SOL    HW221608   0.413   4.397   5.481  0.2034 -0.5047  2.5842
 5459SOL    HW321609   0.400   4.247   5.495  0.9913 -0.9758 -0.7124
 5459SOL    MW421610   0.444   4.316   5.467  0.2963 -0.1325  0.2066
 5460SOL     OW21611   1.493   6.088   5.615 -0.1050  0.5119  0.2350
 5460SOL    HW221612   1.498   6.094   5.520 -0.8961 -0.4270  0.1171
 5460SOL    HW321613   1.400   6.078   5.633  0.1099 -0.0992  1.0543
 5460SOL    MW421614   1.482   6.087   5.605 -0.1810  0.3074  0.3275
 5461SOL     OW21615   3.539   5.050   0.686 -0.2861 -0.7716  0.3592
 5461SOL    HW221616   3.517   4.977   0.628 -1.1985 -0.0691 -0.2157
 5461SOL    HW321617   3.591   5.011   0.756 -0.0052 -1.8127 -0.4079
 5461SOL    MW421618   3.543   5.036   0.687 -0.3694 -0.8163  0.1821
 5462SOL     OW21619   5.172   2.881   1.993 -0.1604  0.0901  0.3087
 5462SOL    HW221620   5.248   2.844   2.038 -0.8747 -1.0318  0.6561
 5462SOL    HW321621   5.103   2.880   2.060 -0.6870  0.3614 -0.2233
 5462SOL    MW421622   5.173   2.876   2.008 -0.3241 -0.0221  0.2843
 5463SOL     OW21623   0.731   4.129   4.877  0.2616  0.1955 -0.3358
 5463SOL    HW221624   0.797   4.195   4.854  0.4093  0.4280  0.6975
 5463SOL    HW321625   0.774   4.045   4.860  0.4251  0.3511 -0.7058
 5463SOL    MW421626   0.745   4.127   4.872  0.3027  0.2467 -0.2483
 5464SOL     OW21627   4.055   3.129   0.583 -0.1350  0.1406  0.4271
 5464SOL    HW221628   4.089   3.042   0.604  0.4766  0.1932 -0.3007
 5464SOL    HW321629   3.965   3.114   0.555  0.1995 -0.3430 -0.3968
 5464SOL    MW421630   4.048   3.115   0.582 -0.0102  0.0837  0.2224
 5465SOL     OW21631   5.759   2.935   6.347  0.3576 -0.5662  0.2305
 5465SOL    HW221632   5.704   3.011   6.363  0.4462  0.5847 -3.7693
 5465SOL    HW321633   5.830   2.968   6.291  1.9074 -3.1177  0.5276
 5465SOL    MW421634   5.761   2.949   6.341  0.5738 -0.7510 -0.2581
 5466SOL     OW21635   4.071   1.596   2.513 -0.0702 -0.1836 -0.7052
 5466SOL    HW221636   4.081   1.652   2.436 -0.5460  1.6074  0.4778
 5466SOL    HW321637   3.983   1.559   2.505 -0.0303 -0.1896 -1.1293
 5466SOL    MW421638   4.061   1.598   2.502 -0.1277  0.0519 -0.6050
 5467SOL     OW21639   1.163   3.771   1.121  0.0135 -0.1772  0.0157
 5467SOL    HW221640   1.092   3.752   1.183 -1.8226  1.7624 -1.3613
 5467SOL    HW321641   1.197   3.856   1.148  1.0727 -0.5714 -0.0248
 5467SOL    MW421642   1.158   3.779   1.133 -0.0890  0.0267 -0.1713
 5468SOL     OW21643   5.625   4.448   5.709  0.1867 -0.0382 -0.5966
 5468SOL    HW221644   5.656   4.369   5.753  0.0407  0.8469  1.1898
 5468SOL    HW321645   5.680   4.455   5.631  0.3101 -1.7840 -0.7204
 5468SOL    MW421646   5.636   4.438   5.705  0.1837 -0.1518 -0.3773
 5469SOL     OW21647   3.796   1.188   2.622  0.0244 -0.1670  0.5445
 5469SOL    HW221648   3.744   1.256   2.580 -0.2231 -0.6057  0.1325
 5469SOL    HW321649   3.846   1.148   2.551  1.5887  0.8064  1.0424
 5469SOL    MW421650   3.796   1.191   2.607  0.1982 -0.0964  0.5559
 5470SOL     OW21651   3.995   4.861   0.307 -0.1105  0.2905 -0.0171
 5470SOL    HW221652   3.900   4.844   0.307 -0.1073  0.2577  0.3123
 5470SOL    HW321653   4.015   4.886   0.217 -0.3097 -0.3641 -0.2458
 5470SOL    MW421654   3.985   4.862   0.295 -0.1364  0.1998 -0.0038
 5471SOL     OW21655   0.575   0.299   0.859  0.1647  0.1701 -0.1454
 5471SOL    HW221656   0.538   0.369   0.914  0.2643 -0.6082  0.9446
 5471SOL    HW321657   0.536   0.314   0.773 -0.0183  1.4130  0.1266
 5471SOL    MW421658   0.565   0.310   0.855  0.1537  0.2314  0.0343
 5472SOL     OW21659   2.301   0.703   5.244 -0.0138 -0.4856  0.0915
 5472SOL    HW221660   2.334   0.616   5.269  0.1119 -0.5294 -0.2251
 5472SOL    HW321661   2.242   0.686   5.170 -1.2495 -0.4836  1.0406
 5472SOL    MW421662   2.297   0.689   5.237 -0.1602 -0.4911  0.1750
 5473SOL     OW21663   2.201   4.208   2.091  0.2737 -0.4281  0.0077
 5473SOL    HW221664   2.229   4.292   2.052  1.6261 -1.4647 -1.3776
 5473SOL    HW321665   2.263   4.144   2.056 -0.3953 -1.9427  1.4767
 5473SOL    MW421666   2.213   4.211   2.081  0.3639 -0.7647  0.0187
 5474SOL     OW21667   2.597   4.047   1.469  0.1200  0.4427  0.2013
 5474SOL    HW221668   2.598   4.075   1.377  0.4110 -0.1143  0.0318
 5474SOL    HW321669   2.646   3.965   1.469 -1.2684 -0.4181  0.5832
 5474SOL    MW421670   2.604   4.040   1.457 -0.0248  0.2556  0.2293
 5475SOL     OW21671   4.372   4.184   3.780 -0.4981  0.0741 -0.3827
 5475SOL    HW221672   4.464   4.165   3.801 -0.4649  1.4376  0.8688
 5475SOL    HW321673   4.323   4.136   3.847 -0.7746 -1.3016 -1.5238
 5475SOL    MW421674   4.378   4.175   3.792 -0.5302  0.0725 -0.3681
 5476SOL     OW21675   2.033   3.217   2.655 -0.0571  0.3175 -0.6110
 5476SOL    HW221676   2.123   3.206   2.687  0.5012  1.0205 -1.8750
 5476SOL    HW321677   1.998   3.128   2.651 -0.1201  0.1735  1.7329
 5476SOL    MW421678   2.040   3.204   2.659  0.0083  0.3912 -0.4686
 5477SOL     OW21679   4.232   4.050   3.985 -0.2650  0.1224  0.1612
 5477SOL    HW221680   4.285   3.970   3.984  0.1894  0.3540 -2.3222
 5477SOL    HW321681   4.142   4.018   3.986 -0.1074 -0.3461  1.2736
 5477SOL    MW421682   4.227   4.035   3.985 -0.1842  0.0911 -0.0197
 5478SOL     OW21683   2.111   1.834   0.774  0.0019 -0.4223 -0.1984
 5478SOL    HW221684   2.186   1.775   0.767  0.8923  0.5305  0.9549
 5478SOL    HW321685   2.089   1.834   0.867 -0.7880  0.0841 -0.3783
 5478SOL    MW421686   2.118   1.826   0.785  0.0151 -0.2298 -0.0700
 5479SOL     OW21687   1.238   2.512   6.290 -0.2362 -0.5244 -0.0335
 5479SOL    HW221688   1.211   2.529   6.200  0.9938  0.9527 -0.1793
 5479SOL    HW321689   1.165   2.543   6.343 -1.2830 -2.0740 -0.4928
 5479SOL    MW421690   1.225   2.518   6.285 -0.2121 -0.5340 -0.1134
 5480SOL     OW21691   4.698   0.637   0.631 -0.9140 -0.4020 -0.0914
 5480SOL    HW221692   4.700   0.576   0.557  0.0358  0.2653 -0.6448
 5480SOL    HW321693   4.608   0.635   0.662 -1.2050 -1.0732 -0.9590
 5480SOL    MW421694   4.686   0.629   0.625 -0.8271 -0.4025 -0.2789
 5481SOL     OW21695   1.381   0.154   3.490 -0.9463  0.0982 -0.0398
 5481SOL    HW221696   1.465   0.194   3.514 -0.3101 -1.7741  1.0917
 5481SOL    HW321697   1.403   0.091   3.421 -1.1656 -1.2758  1.0982
 5481SOL    MW421698   1.395   0.151   3.484 -0.8913 -0.3301  0.2597
 5482SOL     OW21699   6.383   3.191   4.724 -0.0319  0.0691 -0.3560
 5482SOL    HW221700   6.418   3.102   4.721  0.1697  0.1688 -1.6619
 5482SOL    HW321701   6.437   3.236   4.790  0.2350 -0.6273 -0.0973
 5482SOL    MW421702   6.395   3.186   4.732  0.0299 -0.0096 -0.4942
 5483SOL     OW21703   6.042   0.117   3.520 -0.8102 -0.2531 -0.2376
 5483SOL    HW221704   5.962   0.141   3.474 -0.9511  0.8949  0.5681
 5483SOL    HW321705   6.034   0.023   3.535 -1.6649 -0.2824 -0.8056
 5483SOL    MW421706   6.031   0.107   3.516 -0.9415 -0.1055 -0.2062
 5484SOL     OW21707   1.230   3.340   0.857  0.0698 -0.2256 -0.1561
 5484SOL    HW221708   1.137   3.362   0.845  0.2917  0.1764 -1.2425
 5484SOL    HW321709   1.263   3.409   0.914 -1.1435 -2.5056  3.7392
 5484SOL    MW421710   1.222   3.352   0.863 -0.0610 -0.4733  0.2145
 5485SOL     OW21711   6.225   5.705   5.962  0.0190  0.2042  0.1629
 5485SOL    HW221712   6.147   5.650   5.969 -0.8547  1.4285  0.5100
 5485SOL    HW321713   6.299   5.644   5.968 -0.9062 -0.9391  0.2643
 5485SOL    MW421714   6.225   5.690   5.964 -0.2184  0.2149  0.2220
 5486SOL     OW21715   0.337   4.009   5.438  0.2945 -0.1017 -0.1942
 5486SOL    HW221716   0.321   4.044   5.350 -0.4534  0.4303  0.1474
 5486SOL    HW321717   0.250   3.989   5.472  0.6022 -0.6565  0.2938
 5486SOL    MW421718   0.324   4.011   5.431  0.2364 -0.1047 -0.0848
 5487SOL     OW21719   5.471   5.976   0.690 -0.5234 -0.4635  0.1067
 5487SOL    HW221720   5.466   5.881   0.689  0.3072 -0.5101 -0.8031
 5487SOL    HW321721   5.462   6.001   0.598  0.1269  0.2828  0.2391
 5487SOL    MW421722   5.469   5.967   0.678 -0.3280 -0.3712  0.0041
 5488SOL     OW21723   4.648   1.205   0.820 -0.2432 -0.2605 -0.4235
 5488SOL    HW221724   4.566   1.187   0.774 -1.1705  1.8443  0.3061
 5488SOL    HW321725   4.687   1.279   0.774  0.2279  0.0732  0.4747
 5488SOL    MW421726   4.643   1.212   0.808 -0.3034  0.0613 -0.2087
 5489SOL     OW21727   2.215   5.180   3.704  0.2723  0.1637 -0.7281
 5489SOL    HW221728   2.219   5.103   3.648  1.2843 -0.4192  0.1003
 5489SOL    HW321729   2.229   5.254   3.645 -0.5722 -0.2875 -1.5152
 5489SOL    MW421730   2.218   5.180   3.689  0.2944  0.0272 -0.7226
 5490SOL     OW21731   0.230   2.692   0.858  0.4169  0.2154 -0.3605
 5490SOL    HW221732   0.241   2.599   0.880  0.4489  0.1651 -0.5907
 5490SOL    HW321733   0.226   2.736   0.943  0.0722 -0.0330 -0.2459
 5490SOL    MW421734   0.231   2.685   0.872  0.3757  0.1760 -0.3757
 5491SOL     OW21735   6.327   5.195   0.579 -0.5422  0.3977  1.2422
 5491SOL    HW221736   6.373   5.177   0.661 -1.0617 -1.7095  1.1378
 5491SOL    HW321737   6.306   5.108   0.544  1.2796  1.1205 -2.0669
 5491SOL    MW421738   6.330   5.181   0.585 -0.3704  0.2151  0.7918
 5492SOL     OW21739   5.492   5.130   1.201 -0.0628  0.1173 -0.0839
 5492SOL    HW221740   5.549   5.136   1.277 -2.6917  1.9363  1.9580
 5492SOL    HW321741   5.439   5.052   1.217  1.0146 -0.8978 -1.3540
 5492SOL    MW421742   5.492   5.121   1.213 -0.2675  0.2234  0.0179
 5493SOL     OW21743   1.495   0.973   0.127  0.2889  0.2866  0.0689
 5493SOL    HW221744   1.562   1.022   0.079  1.1735 -0.2874  0.7016
 5493SOL    HW321745   1.540   0.939   0.204  0.2229 -2.9275 -1.1266
 5493SOL    MW421746   1.510   0.975   0.131  0.3969 -0.2132 -0.0054
 5494SOL     OW21747   3.683   1.939   0.632 -0.4130  0.3167 -0.1219
 5494SOL    HW221748   3.750   1.881   0.669 -0.3246  0.1594 -0.5288
 5494SOL    HW321749   3.634   1.969   0.708 -0.5269 -0.3713  0.0874
 5494SOL    MW421750   3.686   1.935   0.647 -0.4163  0.2052 -0.1480
 5495SOL     OW21751   1.422   2.290   2.681  0.0356 -0.0842 -0.3533
 5495SOL    HW221752   1.328   2.301   2.694  0.2149 -0.5424  1.8460
 5495SOL    HW321753   1.459   2.376   2.701  0.0809  0.2134 -1.6393
 5495SOL    MW421754   1.415   2.303   2.686  0.0652 -0.1054 -0.2328
 5496SOL     OW21755   2.620   2.349   5.869  0.5780 -0.3226  0.0436
 5496SOL    HW221756   2.560   2.411   5.911 -0.9522 -0.9911 -1.0672
 5496SOL    HW321757   2.615   2.270   5.924 -2.4950 -1.7040 -1.9209
 5496SOL    MW421758   2.611   2.347   5.882 -0.0293 -0.5931 -0.3622
 5497SOL     OW21759   3.416   0.989   4.914  0.5114 -0.4453  0.3777
 5497SOL    HW221760   3.494   0.984   4.859  0.5671  1.0710  0.2696
 5497SOL    HW321761   3.449   1.002   5.002  0.3940 -0.1704  0.3833
 5497SOL    MW421762   3.430   0.990   4.918  0.5033 -0.2090  0.3642
 5498SOL     OW21763   4.237   1.311   5.322  0.8066  0.1748 -0.2111
 5498SOL    HW221764   4.147   1.334   5.297  0.7291 -0.3788 -0.4424
 5498SOL    HW321765   4.227   1.239   5.384  1.0451  0.8607  0.6509
 5498SOL    MW421766   4.224   1.305   5.327  0.8278  0.1923 -0.1279
 5499SOL     OW21767   5.682   4.882   1.650 -0.0162  0.0851  0.2923
 5499SOL    HW221768   5.687   4.868   1.556  1.6399  1.1164  0.1849
 5499SOL    HW321769   5.714   4.801   1.688 -4.0563 -1.7947  0.1684
 5499SOL    MW421770   5.687   4.870   1.643 -0.3308 -0.0268  0.2618
 5500SOL     OW21771   3.878   5.159   1.396  0.0836 -0.7174  1.0522
 5500SOL    HW221772   3.901   5.154   1.488 -0.4747  2.9039  1.5219
 5500SOL    HW321773   3.788   5.191   1.394  0.1587 -0.4696 -0.7529
 5500SOL    MW421774   3.870   5.163   1.408  0.0198 -0.2069  0.8760
 5501SOL     OW21775   5.790   0.821   3.036  0.1166 -0.0840  0.1199
 5501SOL    HW221776   5.816   0.906   3.071 -0.6852 -0.3272  1.3592
 5501SOL    HW321777   5.766   0.770   3.113 -1.4203 -0.7488 -0.7563
 5501SOL    MW421778   5.790   0.826   3.050 -0.1920 -0.2038  0.1678
 5502SOL     OW21779   1.333   2.053   6.080  0.0336  0.4917  0.3227
 5502SOL    HW221780   1.394   2.087   6.146  2.7365 -1.5234 -0.9731
 5502SOL    HW321781   1.340   1.958   6.088  0.1883  0.1883 -2.6031
 5502SOL    MW421782   1.342   2.045   6.090  0.4106  0.1858 -0.2343
 5503SOL     OW21783   1.573   2.315   1.958  0.0037  0.3096  0.0198
 5503SOL    HW221784   1.645   2.366   1.921  1.6847  0.0381  2.6114
 5503SOL    HW321785   1.498   2.374   1.958  0.6770  1.1839 -1.2308
 5503SOL    MW421786   1.572   2.329   1.953  0.3143  0.3891  0.1967
 5504SOL     OW21787   3.541   5.816   2.430  0.1942 -0.2141  0.5986
 5504SOL    HW221788   3.520   5.852   2.516  0.6814 -0.8003  0.9674
 5504SOL    HW321789   3.472   5.850   2.372  0.4886  1.0955  0.9802
 5504SOL    MW421790   3.529   5.825   2.433  0.2973 -0.1187  0.6976
 5505SOL     OW21791   5.080   4.335   3.556  0.2297 -0.4829 -0.2361
 5505SOL    HW221792   5.082   4.245   3.523 -1.3465  0.2945 -2.7706
 5505SOL    HW321793   4.995   4.368   3.528  0.1720  1.3877  1.9190
 5505SOL    MW421794   5.069   4.327   3.548  0.0141 -0.1336 -0.2862
 5506SOL     OW21795   3.908   4.416   2.915  0.6071  0.1108 -0.0300
 5506SOL    HW221796   3.814   4.397   2.915  0.1635  1.9201 -1.7125
 5506SOL    HW321797   3.916   4.494   2.971  1.0874  0.0597 -0.0210
 5506SOL    MW421798   3.897   4.424   2.923  0.6119  0.3427 -0.2508
 5507SOL     OW21799   6.015   4.235   2.192 -0.2274 -0.2091 -0.1212
 5507SOL    HW221800   5.964   4.316   2.201 -1.5046 -0.7713 -1.7280
 5507SOL    HW321801   5.950   4.165   2.203  0.6568 -0.9995  0.1603
 5507SOL    MW421802   5.999   4.236   2.195 -0.2792 -0.3875 -0.2961
 5508SOL     OW21803   2.492   3.174   0.287 -0.8745 -0.0026  0.1295
 5508SOL    HW221804   2.545   3.213   0.217 -1.0350  0.9841  0.5434
 5508SOL    HW321805   2.413   3.228   0.291 -3.0612 -2.7120 -1.9813
 5508SOL    MW421806   2.488   3.186   0.278 -1.1841 -0.2298 -0.0944
 5509SOL     OW21807   2.003   0.912   6.376  0.0063  0.1209 -0.0733
 5509SOL    HW221808   2.028   0.958   6.456  1.7252  0.5205 -0.7892
 5509SOL    HW321809   1.989   0.981   6.311  0.6944 -0.2688 -0.6518
 5509SOL    MW421810   2.004   0.927   6.378  0.3239  0.1222 -0.2441
 5510SOL     OW21811   2.312   5.937   6.195  0.0857  0.3933 -0.1982
 5510SOL    HW221812   2.317   5.961   6.288 -0.8492  0.9588 -0.2831
 5510SOL    HW321813   2.269   5.851   6.195  1.0309 -0.0980 -0.0596
 5510SOL    MW421814   2.307   5.929   6.207  0.0871  0.4031 -0.1912
 5511SOL     OW21815   6.042   4.814   1.648 -0.5007 -0.4449  0.0449
 5511SOL    HW221816   6.120   4.865   1.671  0.3001 -0.6787 -1.9801
 5511SOL    HW321817   6.069   4.723   1.662 -0.1901 -0.5578 -1.1850
 5511SOL    MW421818   6.056   4.808   1.653 -0.3541 -0.4906 -0.3845
 5512SOL     OW21819   0.210   0.737   1.900 -0.1151 -0.0353 -0.3726
 5512SOL    HW221820   0.249   0.722   1.813 -0.7769  0.1961 -0.7145
 5512SOL    HW321821   0.117   0.721   1.887 -0.4311  1.3822 -0.0453
 5512SOL    MW421822   0.203   0.733   1.887 -0.2441  0.1822 -0.3746
 5513SOL     OW21823   2.661   4.768   5.925 -0.6165  0.5506  0.3046
 5513SOL    HW221824   2.613   4.733   5.850 -0.9790  2.2012 -0.2680
 5513SOL    HW321825   2.593   4.799   5.985 -0.3410  2.7086 -0.4180
 5513SOL    MW421826   2.646   4.767   5.923 -0.6280  1.0531  0.1337
 5514SOL     OW21827   3.408   1.057   4.181  0.0053 -0.2528  0.1571
 5514SOL    HW221828   3.408   1.057   4.277 -1.0631 -0.6926  0.1655
 5514SOL    HW321829   3.344   0.991   4.157 -0.1136  0.2206 -0.8639
 5514SOL    MW421830   3.399   1.048   4.191 -0.1514 -0.2484  0.0235
 5515SOL     OW21831   1.968   0.684   1.050  0.2283  0.2046  0.1900
 5515SOL    HW221832   2.002   0.664   0.962  1.2612 -0.1807  0.6576
 5515SOL    HW321833   2.033   0.743   1.087  0.4937 -0.6934  1.1852
 5515SOL    MW421834   1.981   0.689   1.043  0.3996  0.0353  0.3830
 5516SOL     OW21835   6.366   6.258   5.631 -0.5505  0.4980  0.5101
 5516SOL    HW221836   6.281   6.218   5.615  0.0641 -0.7640  0.3328
 5516SOL    HW321837   6.366   6.278   5.725 -0.0075 -2.0535  1.1128
 5516SOL    MW421838   6.354   6.256   5.641 -0.3978 -0.0051  0.5662
 5517SOL     OW21839   0.698   2.446   2.819  0.4729  0.0377  0.1172
 5517SOL    HW221840   0.648   2.526   2.800 -1.1997 -1.0040 -0.1147
 5517SOL    HW321841   0.740   2.464   2.903  0.6008  1.3533 -0.1961
 5517SOL    MW421842   0.697   2.459   2.828  0.2691  0.0738  0.0453
 5518SOL     OW21843   6.416   5.341   1.577  0.0363  0.1150  0.2679
 5518SOL    HW221844   6.434   5.281   1.650 -0.2482  2.2642  2.2450
 5518SOL    HW321845   6.491   5.331   1.518  1.7590  0.2863  2.3044
 5518SOL    MW421846   6.428   5.332   1.579  0.2261  0.4211  0.7975
 5519SOL     OW21847   4.263   6.185   1.728 -0.4147 -0.1427 -0.7681
 5519SOL    HW221848   4.329   6.157   1.665  0.8013  0.5791  0.1466
 5519SOL    HW321849   4.291   6.272   1.755 -0.4504 -0.7371  1.3378
 5519SOL    MW421850   4.275   6.193   1.723 -0.2590 -0.1259 -0.3696
 5520SOL     OW21851   4.925   1.437   6.192 -0.0929  0.0312 -0.7537
 5520SOL    HW221852   4.940   1.343   6.190  0.1547  0.0718 -0.8125
 5520SOL    HW321853   4.830   1.446   6.200 -0.0338 -0.2245  0.4501
 5520SOL    MW421854   4.914   1.426   6.193 -0.0524  0.0028 -0.6026
 5521SOL     OW21855   0.957   4.467   1.699 -0.5143 -0.3244  0.1726
 5521SOL    HW221856   1.015   4.498   1.768 -2.0824  1.5901  0.6842
 5521SOL    HW321857   1.017   4.436   1.630  1.1440  1.8420  0.5426
 5521SOL    MW421858   0.973   4.467   1.699 -0.5024  0.2140  0.2889
 5522SOL     OW21859   1.857   3.921   4.790  0.7256  0.0829 -0.0502
 5522SOL    HW221860   1.769   3.916   4.751  0.0301 -0.1411  1.4909
 5522SOL    HW321861   1.878   4.014   4.789  1.8143 -0.0609 -3.1747
 5522SOL    MW421862   1.848   3.933   4.784  0.7775  0.0344 -0.2591
 5523SOL     OW21863   0.706   1.746   4.773  0.3113  0.9191 -0.0900
 5523SOL    HW221864   0.717   1.651   4.765  0.5512  0.9827 -0.5575
 5523SOL    HW321865   0.640   1.768   4.707  0.7074  1.1566 -0.4114
 5523SOL    MW421866   0.699   1.736   4.763  0.3952  0.9588 -0.1941
 5524SOL     OW21867   0.433   0.735   5.262  0.5319 -0.4507 -0.3137
 5524SOL    HW221868   0.416   0.772   5.176 -1.6063  0.6877  0.5227
 5524SOL    HW321869   0.513   0.683   5.251  1.2170  0.9595 -2.5666
 5524SOL    MW421870   0.442   0.733   5.249  0.3402 -0.1145 -0.5006
 5525SOL     OW21871   0.690   1.246   1.816  0.9090 -0.0035  0.0536
 5525SOL    HW221872   0.660   1.285   1.898  1.0356  0.4670 -0.1168
 5525SOL    HW321873   0.661   1.155   1.820  2.3703 -0.4500  1.3538
 5525SOL    MW421874   0.682   1.240   1.827  1.1185 -0.0004  0.2027
 5526SOL     OW21875   5.848   3.239   3.980 -0.1912  0.1545  0.3730
 5526SOL    HW221876   5.762   3.234   4.022 -1.6771 -0.5116 -2.4916
 5526SOL    HW321877   5.837   3.195   3.896  3.1044 -0.3176  0.0350
 5526SOL    MW421878   5.835   3.233   3.975  0.0476  0.0043 -0.0495
 5527SOL     OW21879   2.776   3.890   1.826  0.4538  0.2917  0.2893
 5527SOL    HW221880   2.789   3.795   1.833  2.8155  0.5125 -0.1969
 5527SOL    HW321881   2.723   3.901   1.746 -0.8859 -0.6386  1.0133
 5527SOL    MW421882   2.770   3.879   1.816  0.5886  0.1981  0.3206
 5528SOL     OW21883   3.518   4.992   3.314 -0.5105 -0.1224  0.0114
 5528SOL    HW221884   3.461   4.924   3.278  0.6784 -2.0425  1.5127
 5528SOL    HW321885   3.484   5.009   3.401  1.4692 -1.8041  1.2088
 5528SOL    MW421886   3.506   4.985   3.321 -0.0925 -0.5976  0.3675
 5529SOL     OW21887   4.216   4.973   1.992 -0.0852  0.8851 -0.3691
 5529SOL    HW221888   4.173   4.952   2.075 -0.5471  2.2207 -0.2433
 5529SOL    HW321889   4.175   5.055   1.964  0.3927  0.6926 -1.6857
 5529SOL    MW421890   4.205   4.981   1.999 -0.0831  1.0359 -0.5262
 5530SOL     OW21891   4.593   5.195   4.885 -0.5118  0.4965  0.1877
 5530SOL    HW221892   4.664   5.142   4.849  0.1751  0.2607  1.8268
 5530SOL    HW321893   4.589   5.272   4.828  2.1713  1.3107  0.9472
 5530SOL    MW421894   4.602   5.198   4.873 -0.0672  0.5728  0.5042
 5531SOL     OW21895   3.680   6.199   4.682  0.0185 -0.2554  0.4097
 5531SOL    HW221896   3.712   6.225   4.768 -0.1195  1.9113 -0.1568
 5531SOL    HW321897   3.747   6.229   4.621 -0.6635 -0.3012 -0.3781
 5531SOL    MW421898   3.693   6.206   4.686 -0.0897  0.0244  0.2310
 5532SOL     OW21899   6.085   0.098   1.476 -1.0505  0.1655  0.3263
 5532SOL    HW221900   6.100   0.178   1.526 -1.9782 -0.6067  1.9324
 5532SOL    HW321901   5.994   0.104   1.447 -0.5449  0.5665 -1.2531
 5532SOL    MW421902   6.075   0.109   1.479 -1.1062  0.1165  0.3298
 5533SOL     OW21903   2.044   3.520   5.688  0.2629  0.0813  0.4183
 5533SOL    HW221904   1.971   3.497   5.746  0.6354  0.4255  1.0386
 5533SOL    HW321905   2.002   3.560   5.612 -0.2324 -0.3069  0.4771
 5533SOL    MW421906   2.029   3.522   5.686  0.2467  0.0755  0.5079
 5534SOL     OW21907   3.345   6.000   3.983  0.1986 -0.3214 -0.3701
 5534SOL    HW221908   3.390   5.916   3.976  0.0424 -0.4809  0.4467
 5534SOL    HW321909   3.323   6.008   4.076  1.3468  1.2234 -0.2042
 5534SOL    MW421910   3.348   5.990   3.995  0.3295 -0.1386 -0.2404
 5535SOL     OW21911   0.355   0.151   0.059  0.0422 -0.3212 -0.8116
 5535SOL    HW221912   0.399   0.171  -0.024  0.0907  1.5897 -0.3674
 5535SOL    HW321913   0.282   0.212   0.063 -0.3688 -0.8509  0.2657
 5535SOL    MW421914   0.351   0.161   0.049 -0.0056 -0.1390 -0.6108
 5536SOL     OW21915   1.450   4.737   2.270  0.5501 -0.6633  0.4726
 5536SOL    HW221916   1.399   4.739   2.189 -2.1824 -0.5312  2.0635
 5536SOL    HW321917   1.526   4.682   2.249 -0.0502 -0.6276 -2.1463
 5536SOL    MW421918   1.453   4.730   2.256  0.1104 -0.6412  0.3370
 5537SOL     OW21919   2.502   1.545   4.165 -0.2618 -0.0190 -0.6400
 5537SOL    HW221920   2.502   1.456   4.200 -0.5661  0.0975 -0.3409
 5537SOL    HW321921   2.513   1.601   4.242 -0.0445  0.2026 -0.8297
 5537SOL    MW421922   2.503   1.540   4.180 -0.2733  0.0256 -0.6255
 5538SOL     OW21923   2.340   4.992   5.037 -0.2140 -0.2069 -0.0565
 5538SOL    HW221924   2.326   4.908   5.080 -2.8479  0.4539  0.5147
 5538SOL    HW321925   2.375   5.050   5.105  0.1530 -0.4079 -0.0693
 5538SOL    MW421926   2.343   4.989   5.051 -0.5131 -0.1462  0.0172
 5539SOL     OW21927   0.194   3.684   2.015  0.8290  0.8620  0.6634
 5539SOL    HW221928   0.213   3.765   1.967 -0.9987  1.2854  0.5760
 5539SOL    HW321929   0.099   3.684   2.025  0.7203 -1.5969  0.1313
 5539SOL    MW421930   0.184   3.695   2.010  0.5736  0.5935  0.5817
 5540SOL     OW21931   4.269   6.060   4.617  0.0866  0.8837 -0.8254
 5540SOL    HW221932   4.328   6.002   4.569  1.2247  1.7852 -0.5836
 5540SOL    HW321933   4.241   6.008   4.693  1.9261  0.9479 -0.0401
 5540SOL    MW421934   4.273   6.045   4.621  0.4795  1.0111 -0.6899
 5541SOL     OW21935   3.788   4.171   4.124 -0.1834 -0.6623 -0.2472
 5541SOL    HW221936   3.851   4.201   4.190 -0.4580 -1.0154  0.1829
 5541SOL    HW321937   3.755   4.089   4.159  0.4779 -1.4281 -1.3484
 5541SOL    MW421938   3.792   4.164   4.137 -0.1324 -0.8100 -0.3358
 5542SOL     OW21939   4.464   0.308   0.521 -0.6679 -0.0839  0.3369
 5542SOL    HW221940   4.453   0.225   0.476 -0.4551 -0.2225  0.5419
 5542SOL    HW321941   4.549   0.302   0.563 -0.8065  0.0990  0.6471
 5542SOL    MW421942   4.474   0.297   0.521 -0.6581 -0.0780  0.4049
 5543SOL     OW21943   6.369   2.556   6.082 -0.0604 -0.1912 -0.0208
 5543SOL    HW221944   6.419   2.619   6.135 -0.4106 -0.8169  1.0989
 5543SOL    HW321945   6.296   2.530   6.138 -1.2897  0.2031 -1.3874
 5543SOL    MW421946   6.366   2.561   6.097 -0.2688 -0.2218 -0.0534
 5544SOL     OW21947   6.046   5.354   3.378 -0.4107  0.6725 -0.6283
 5544SOL    HW221948   6.102   5.321   3.307  1.9534  3.7308 -0.4212
 5544SOL    HW321949   5.965   5.379   3.335 -1.0562 -2.1856 -1.2757
 5544SOL    MW421950   6.043   5.353   3.363 -0.1839  0.6989 -0.6864
 5545SOL     OW21951   3.206   4.321   2.818 -0.2964  0.0214  0.3542
 5545SOL    HW221952   3.159   4.390   2.865 -1.4636 -2.0652  2.4852
 5545SOL    HW321953   3.153   4.306   2.739 -0.5352  0.9212  0.3299
 5545SOL    MW421954   3.193   4.328   2.814 -0.4819 -0.1352  0.6322
 5546SOL     OW21955   3.392   0.508   1.368  0.0736  0.3359  0.4658
 5546SOL    HW221956   3.328   0.438   1.355  0.6507  0.0318 -0.9315
 5546SOL    HW321957   3.364   0.577   1.308  1.4144 -0.0752 -0.6760
 5546SOL    MW421958   3.380   0.508   1.358  0.3267  0.2415  0.1308
 5547SOL     OW21959   3.699   5.383   5.899  0.2556 -0.3619 -0.1250
 5547SOL    HW221960   3.680   5.290   5.890  0.7278 -0.4112 -0.6738
 5547SOL    HW321961   3.659   5.408   5.983 -3.4244 -0.0945 -1.8010
 5547SOL    MW421962   3.692   5.374   5.909 -0.1676 -0.3331 -0.4185
 5548SOL     OW21963   4.285   2.128   1.056  0.6474 -0.1717 -0.1398
 5548SOL    HW221964   4.204   2.165   1.023  0.1575 -1.0216  0.0739
 5548SOL    HW321965   4.289   2.040   1.019  0.3334 -0.9752  1.6152
 5548SOL    MW421966   4.275   2.121   1.047  0.5413 -0.3899  0.1200
 5549SOL     OW21967   1.416   1.231   0.932  0.2263  0.0964 -0.1562
 5549SOL    HW221968   1.480   1.302   0.938 -0.5832  0.7791  0.9902
 5549SOL    HW321969   1.415   1.193   1.020  0.2210 -0.9592 -0.6047
 5549SOL    MW421970   1.424   1.236   0.945  0.1188  0.0472 -0.0641
 5550SOL     OW21971   4.707   1.392   4.164 -0.2154  0.3591 -0.0181
 5550SOL    HW221972   4.751   1.347   4.236  1.3889 -1.1896 -1.8490
 5550SOL    HW321973   4.766   1.463   4.140  0.5864 -0.7358 -1.4382
 5550SOL    MW421974   4.721   1.395   4.171  0.1020  0.0103 -0.4470
 5551SOL     OW21975   0.599   2.990   6.247 -0.3045 -0.6127 -0.3370
 5551SOL    HW221976   0.519   2.977   6.299 -2.2420  1.1823 -2.6148
 5551SOL    HW321977   0.621   3.082   6.261 -1.6475  0.3206 -3.4502
 5551SOL    MW421978   0.591   3.000   6.256 -0.7374 -0.2527 -1.0483
 5552SOL     OW21979   2.044   2.412   3.017 -0.5748  0.2010 -0.4450
 5552SOL    HW221980   2.073   2.397   2.927 -2.9651  0.2712 -1.2830
 5552SOL    HW321981   2.041   2.507   3.025 -1.0165  0.1943 -0.5218
 5552SOL    MW421982   2.048   2.423   3.006 -0.9484  0.2093 -0.5657
 5553SOL     OW21983   1.796   5.376   0.606  0.2611 -0.4686  0.1463
 5553SOL    HW221984   1.818   5.414   0.521  1.8269  0.1767  0.8061
 5553SOL    HW321985   1.762   5.288   0.585 -0.1455 -0.0235 -1.1695
 5553SOL    MW421986   1.794   5.369   0.592  0.4141 -0.3248  0.0598
 5554SOL     OW21987   2.816   4.991   5.839  0.2589 -0.1667 -0.0684
 5554SOL    HW221988   2.762   4.914   5.858  1.8598 -1.2849  0.1817
 5554SOL    HW321989   2.809   5.045   5.918 -0.0086 -0.5906  0.2042
 5554SOL    MW421990   2.808   4.988   5.852  0.4348 -0.3702  0.0005
 5555SOL     OW21991   6.281   4.640   4.784  0.5593  0.5174 -0.0506
 5555SOL    HW221992   6.280   4.629   4.879  1.3215 -1.8564 -0.2530
 5555SOL    HW321993   6.188   4.648   4.760  0.3700  1.3400  0.8803
 5555SOL    MW421994   6.268   4.640   4.794  0.6349  0.3127  0.0455
 5556SOL     OW21995   2.275   0.982   4.203 -0.6058 -0.4918 -0.5222
 5556SOL    HW221996   2.358   0.950   4.168 -1.3884 -0.1784 -2.8193
 5556SOL    HW321997   2.293   1.072   4.229 -0.0710 -0.6368 -0.3701
 5556SOL    MW421998   2.289   0.990   4.202 -0.6385 -0.4696 -0.8052
 5557SOL     OW21999   5.919   1.106   4.550  0.3971 -0.4465 -0.4732
 5557SOL    HW222000   5.861   1.158   4.606 -1.2463 -0.9440 -1.6257
 5557SOL    HW322001   5.925   1.022   4.595 -1.0573 -0.9051 -1.0773
 5557SOL    MW422002   5.912   1.102   4.564 -0.0116 -0.5726 -0.7050
 5558SOL     OW22003   3.219   2.346   1.939 -0.1982  0.0762 -0.0326
 5558SOL    HW222004   3.250   2.406   2.007 -1.3012  0.1170  0.4672
 5558SOL    HW322005   3.226   2.259   1.979  1.2225 -0.1308 -0.6877
 5558SOL    MW422006   3.224   2.343   1.954 -0.1563  0.0543 -0.0531
 5559SOL     OW22007   3.162   2.263   1.238  0.8089  0.0001 -0.1771
 5559SOL    HW222008   3.105   2.186   1.235  0.3180  0.2832  1.2663
 5559SOL    HW322009   3.238   2.234   1.287  0.6879  0.3903  0.2445
 5559SOL    MW422010   3.164   2.249   1.244  0.7282  0.0889  0.0690
 5560SOL     OW22011   0.157   4.042   0.725 -0.1037 -0.0956 -0.3476
 5560SOL    HW222012   0.187   4.130   0.747 -0.0937 -0.1267 -0.2362
 5560SOL    HW322013   0.192   3.986   0.794  1.9624 -0.5729 -1.7015
 5560SOL    MW422014   0.165   4.046   0.737  0.1702 -0.1627 -0.5116
 5561SOL     OW22015   2.672   0.637   3.677  0.2539  0.1831 -0.0691
 5561SOL    HW222016   2.709   0.605   3.595  2.0058 -3.1636  1.8029
 5561SOL    HW322017   2.578   0.643   3.660  0.5317 -0.7090 -2.2269
 5561SOL    MW422018   2.664   0.634   3.664  0.5217 -0.3761 -0.1068
 5562SOL     OW22019   2.193   0.850   5.697 -0.1136 -0.2913 -0.2644
 5562SOL    HW222020   2.164   0.769   5.656 -0.5227 -0.5279  0.4656
 5562SOL    HW322021   2.209   0.910   5.624 -4.0816  0.4586 -0.7726
 5562SOL    MW422022   2.191   0.847   5.682 -0.6911 -0.2236 -0.2352
 5563SOL     OW22023   4.020   1.912   2.340  0.2276  0.2206 -0.3542
 5563SOL    HW222024   4.063   1.949   2.263 -0.5450 -1.1877 -1.5018
 5563SOL    HW322025   3.978   1.987   2.383  3.8747  1.7703  0.9809
 5563SOL    MW422026   4.020   1.927   2.335  0.6069  0.2392 -0.3295
 5564SOL     OW22027   3.318   0.358   1.633 -0.0323  0.5037  0.1740
 5564SOL    HW222028   3.281   0.392   1.714 -1.8241 -1.7368  0.3746
 5564SOL    HW322029   3.346   0.437   1.585 -3.2763  2.2622  0.8878
 5564SOL    MW422030   3.317   0.373   1.637 -0.6967  0.4401  0.2947
 5565SOL     OW22031   0.197   4.022   2.484  0.3374  0.1689  0.5926
 5565SOL    HW222032   0.162   4.100   2.443  0.9941 -0.0863 -0.4840
 5565SOL    HW322033   0.263   3.990   2.423  0.4743 -0.9111  1.2766
 5565SOL    MW422034   0.201   4.028   2.471  0.4421 -0.0072  0.5408
 5566SOL     OW22035   0.102   3.861   0.039 -0.4549  0.5040  0.0697
 5566SOL    HW222036   0.037   3.929   0.018 -0.1714  0.4966 -0.8733
 5566SOL    HW322037   0.119   3.873   0.133 -1.0689  1.1596  0.1106
 5566SOL    MW422038   0.096   3.872   0.049 -0.4985  0.5895 -0.0493
 5567SOL     OW22039   3.783   4.322   2.465 -0.5137  0.0042  0.1886
 5567SOL    HW222040   3.841   4.327   2.390 -0.1873  2.3581  0.4994
 5567SOL    HW322041   3.827   4.374   2.533 -2.3643  0.8585  0.8239
 5567SOL    MW422042   3.796   4.330   2.464 -0.7148  0.4275  0.3134
 5568SOL     OW22043   2.010   6.344   0.759 -0.2873 -0.0287  0.1547
 5568SOL    HW222044   1.934   6.288   0.742  0.0806 -0.5920  0.3242
 5568SOL    HW322045   2.054   6.352   0.675 -0.3725  0.0556  0.1181
 5568SOL    MW422046   2.005   6.337   0.746 -0.2500 -0.0919  0.1723
 5569SOL     OW22047   1.780   3.763   2.320 -0.5453 -0.6099 -0.0476
 5569SOL    HW222048   1.818   3.680   2.291  0.1891 -0.2425 -0.1455
 5569SOL    HW322049   1.686   3.746   2.323 -0.6838 -0.7096 -2.5850
 5569SOL    MW422050   1.772   3.750   2.316 -0.4667 -0.5746 -0.3953
 5570SOL     OW22051   5.144   6.283   0.233 -0.0687 -0.3348  0.5115
 5570SOL    HW222052   5.077   6.334   0.188  0.2261 -0.7571 -0.4324
 5570SOL    HW322053   5.198   6.348   0.277 -0.4553  0.0812  0.3780
 5570SOL    MW422054   5.142   6.298   0.233 -0.0808 -0.3357  0.3694
 5571SOL     OW22055   0.716   2.458   5.250 -0.0817  0.1097 -0.2561
 5571SOL    HW222056   0.643   2.455   5.188  0.6462 -0.2697 -1.1085
 5571SOL    HW322057   0.674   2.454   5.336 -1.2235  2.1364 -0.6444
 5571SOL    MW422058   0.701   2.457   5.253 -0.1363  0.3270 -0.4198
 5572SOL     OW22059   1.092   0.772   4.766  0.2555 -0.2551 -0.0570
 5572SOL    HW222060   1.032   0.834   4.725 -2.1713 -2.3072  0.1430
 5572SOL    HW322061   1.109   0.706   4.699  0.4409 -0.9016  0.6057
 5572SOL    MW422062   1.086   0.772   4.752 -0.0402 -0.6111  0.0568
 5573SOL     OW22063   0.949   1.814   6.239  0.1411  0.4346  0.0161
 5573SOL    HW222064   0.984   1.870   6.308 -2.0272  1.0934  0.6541
 5573SOL    HW322065   0.860   1.793   6.267  0.2341 -1.8399 -1.1107
 5573SOL    MW422066   0.942   1.818   6.252 -0.1327  0.2214 -0.0484
 5574SOL     OW22067   5.152   4.083   5.343 -0.4491  0.0791 -0.3689
 5574SOL    HW222068   5.068   4.055   5.307  0.0462 -0.5412 -1.0571
 5574SOL    HW322069   5.213   4.077   5.270  0.5920 -1.2415  0.5491
 5574SOL    MW422070   5.149   4.079   5.329 -0.2464 -0.1770 -0.3386
 5575SOL     OW22071   4.456   2.171   2.223  0.1715 -0.4654  0.4680
 5575SOL    HW222072   4.425   2.116   2.151  2.6029 -2.2509  0.6281
 5575SOL    HW322073   4.399   2.149   2.297  0.1205 -1.6419  0.0984
 5575SOL    MW422074   4.445   2.161   2.224  0.4856 -0.8562  0.4404
 5576SOL     OW22075   1.074   0.639   5.415  0.4799  0.3131 -0.0769
 5576SOL    HW222076   1.110   0.722   5.448  0.8777  1.0268 -2.1482
 5576SOL    HW322077   1.151   0.589   5.387  0.1675 -0.3003  0.1437
 5576SOL    MW422078   1.089   0.644   5.416  0.4912  0.3263 -0.3211
 5577SOL     OW22079   0.739   2.639   3.952  1.0975 -0.6545  0.5281
 5577SOL    HW222080   0.653   2.597   3.965  0.7021 -0.6123 -1.6422
 5577SOL    HW322081   0.733   2.719   4.004 -0.6058 -0.1375 -0.3653
 5577SOL    MW422082   0.727   2.644   3.961  0.8206 -0.5807  0.1239
 5578SOL     OW22083   5.489   1.523   0.637 -0.1595 -0.0006  0.4041
 5578SOL    HW222084   5.453   1.577   0.567 -1.4217 -2.1105 -0.6809
 5578SOL    HW322085   5.527   1.448   0.592 -1.8329 -1.8894  1.9848
 5578SOL    MW422086   5.489   1.520   0.622 -0.5468 -0.5282  0.4695
 5579SOL     OW22087   0.493   0.679   4.349  0.0765 -0.0072  0.5721
 5579SOL    HW222088   0.533   0.655   4.432  0.7002 -3.3014 -0.5021
 5579SOL    HW322089   0.491   0.597   4.299 -0.0466  1.8341 -2.7680
 5579SOL    MW422090   0.498   0.665   4.353  0.1425 -0.1989 -0.0103
 5580SOL     OW22091   0.367   3.941   2.283 -0.5645 -0.0300 -0.1111
 5580SOL    HW222092   0.453   3.962   2.246 -0.8271  0.5224 -0.4181
 5580SOL    HW322093   0.358   3.846   2.270 -0.7830  0.1924 -1.7724
 5580SOL    MW422094   0.378   3.931   2.276 -0.6280  0.0723 -0.3708
 5581SOL     OW22095   2.111   2.438   3.444  0.4562 -0.0845 -0.3696
 5581SOL    HW222096   2.024   2.398   3.440  0.5938 -0.3942 -0.2843
 5581SOL    HW322097   2.102   2.518   3.392 -1.6322  3.2832  4.4235
 5581SOL    MW422098   2.098   2.443   3.436  0.1988  0.3189  0.2741
 5582SOL     OW22099   3.199   5.543   6.399  0.1482 -0.0729  0.1982
 5582SOL    HW222100   3.192   5.466   6.456  1.0189  0.0064  0.4189
 5582SOL    HW322101   3.227   5.613   6.458  1.3329 -0.0519 -0.3676
 5582SOL    MW422102   3.202   5.542   6.414  0.4193 -0.0596  0.1527
 5583SOL     OW22103   5.741   3.513   1.726  0.7063 -0.1633 -0.0303
 5583SOL    HW222104   5.778   3.441   1.676 -0.2918  0.6199 -2.0145
 5583SOL    HW322105   5.751   3.589   1.669 -0.3532  0.8138  1.0342
 5583SOL    MW422106   5.747   3.514   1.712  0.4348  0.0689 -0.1517
 5584SOL     OW22107   4.688   1.408   3.775 -0.1031 -0.2107 -0.4154
 5584SOL    HW222108   4.596   1.428   3.787 -0.6502 -2.3894 -0.4964
 5584SOL    HW322109   4.732   1.453   3.847 -1.2405  0.7051 -0.2657
 5584SOL    MW422110   4.682   1.416   3.787 -0.3253 -0.3773 -0.4063
 5585SOL     OW22111   0.147   3.832   5.193 -0.4718  0.0079  0.5372
 5585SOL    HW222112   0.158   3.789   5.277 -0.8963  0.0420  0.6132
 5585SOL    HW322113   0.098   3.912   5.213  0.8234  0.8487  0.4875
 5585SOL    MW422114   0.142   3.837   5.206 -0.3569  0.1233  0.5406
 5586SOL     OW22115   6.246   2.372   4.384 -0.5792 -0.7554 -0.0318
 5586SOL    HW222116   6.176   2.434   4.406  0.2710 -0.0250  0.6627
 5586SOL    HW322117   6.200   2.293   4.357 -1.7140  0.2804 -1.3128
 5586SOL    MW422118   6.231   2.370   4.383 -0.6167 -0.5224 -0.1092
 5587SOL     OW22119   5.239   2.931   5.367  0.1913 -0.1944  0.3568
 5587SOL    HW222120   5.244   3.013   5.318  2.1883 -1.0615 -0.9920
 5587SOL    HW322121   5.207   2.957   5.454  0.2157  1.9060 -0.2143
 5587SOL    MW422122   5.235   2.946   5.372  0.4580 -0.0317  0.1035
 5588SOL     OW22123   3.226   1.721   1.287  0.4468 -0.3726 -0.4563
 5588SOL    HW222124   3.322   1.721   1.283  0.4914 -1.3695  0.3496
 5588SOL    HW322125   3.205   1.790   1.350  0.7419 -1.4636  0.8920
 5588SOL    MW422126   3.236   1.730   1.295  0.4916 -0.6481 -0.1721
 5589SOL     OW22127   0.933   3.990   4.323  0.3697 -0.7332 -0.0985
 5589SOL    HW222128   1.022   4.024   4.335  1.5465 -3.2824 -0.7852
 5589SOL    HW322129   0.904   4.027   4.240 -0.5555  2.5593  1.5274
 5589SOL    MW422130   0.941   3.999   4.314  0.4029 -0.6351  0.0254
 5590SOL     OW22131   2.104   0.355   3.416 -0.1151 -0.8450  0.5632
 5590SOL    HW222132   2.017   0.330   3.448 -0.8462  0.6025 -0.2265
 5590SOL    HW322133   2.146   0.271   3.396 -2.2786 -1.5577 -1.5090
 5590SOL    MW422134   2.098   0.340   3.417 -0.4970 -0.7481  0.1856
 5591SOL     OW22135   0.316   1.066   1.258 -0.1745  0.1720 -0.0045
 5591SOL    HW222136   0.323   1.023   1.343 -2.1497 -3.0410 -1.2865
 5591SOL    HW322137   0.358   1.006   1.197  0.1156  1.7993 -1.4890
 5591SOL    MW422138   0.322   1.052   1.261 -0.3969 -0.0372 -0.3695
 5592SOL     OW22139   1.026   4.860   5.741 -0.3793  0.1611  0.0531
 5592SOL    HW222140   1.084   4.867   5.665 -0.0913 -0.5888  0.1926
 5592SOL    HW322141   1.047   4.936   5.794  1.0866 -0.5225  0.5078
 5592SOL    MW422142   1.037   4.871   5.738 -0.1479 -0.0280  0.1315
 5593SOL     OW22143   2.163   6.186   4.427 -0.0371 -0.0956 -0.4543
 5593SOL    HW222144   2.244   6.141   4.450  0.4955  0.6106 -0.9166
 5593SOL    HW322145   2.172   6.206   4.334 -0.8944 -0.3086 -0.5979
 5593SOL    MW422146   2.175   6.182   4.418 -0.0800 -0.0305 -0.5343
 5594SOL     OW22147   1.342   4.029   2.363 -0.5669 -0.1227 -0.0680
 5594SOL    HW222148   1.312   3.989   2.445 -1.2425  0.2709 -0.1140
 5594SOL    HW322149   1.419   4.080   2.388 -1.2607  0.6803  0.4978
 5594SOL    MW422150   1.348   4.030   2.377 -0.7476  0.0352  0.0006
 5595SOL     OW22151   3.813   3.690   1.979 -0.4549  0.5251 -0.6910
 5595SOL    HW222152   3.798   3.597   1.997 -0.7674  0.6345 -0.3950
 5595SOL    HW322153   3.736   3.734   2.014  0.2224  1.0211  0.2018
 5595SOL    MW422154   3.800   3.684   1.986 -0.4068  0.6050 -0.5342
 5596SOL     OW22155   3.302   4.027   4.207  0.0740  0.2050 -0.1174
 5596SOL    HW222156   3.282   4.000   4.117 -1.7034  2.0485 -0.3662
 5596SOL    HW322157   3.397   4.026   4.212  0.3323  1.7110 -2.6266
 5596SOL    MW422158   3.312   4.023   4.196 -0.1264  0.6469 -0.4813
 5597SOL     OW22159   1.560   2.061   1.849  0.5204  0.5456 -0.0894
 5597SOL    HW222160   1.503   2.075   1.773 -2.4856  0.7435  1.9941
 5597SOL    HW322161   1.554   2.143   1.899 -2.4337 -1.3240  3.1330
 5597SOL    MW422162   1.552   2.073   1.846 -0.2659  0.3250  0.6107
 5598SOL     OW22163   4.103   4.899   0.020  0.4811  0.4375 -0.8180
 5598SOL    HW222164   4.119   4.810  -0.013 -0.0109 -0.4817  1.2897
 5598SOL    HW322165   4.186   4.925   0.059  0.3916  0.5838 -0.7261
 5598SOL    MW422166   4.116   4.891   0.021  0.4044  0.3355 -0.5278
 5599SOL     OW22167   4.343   1.150   5.562 -0.2399  0.5529 -0.5921
 5599SOL    HW222168   4.356   1.143   5.656  1.5706 -0.0321 -0.8334
 5599SOL    HW322169   4.364   1.241   5.542  1.2291  0.2428 -0.6235
 5599SOL    MW422170   4.348   1.161   5.571  0.1928  0.4348 -0.6280
 5600SOL     OW22171   6.146   3.469   2.394 -0.2870 -0.4096  0.2208
 5600SOL    HW222172   6.235   3.467   2.361 -1.2914  0.7579 -2.9701
 5600SOL    HW322173   6.130   3.381   2.428  1.5737 -1.1215 -0.6412
 5600SOL    MW422174   6.155   3.457   2.394 -0.1740 -0.3495 -0.3139
 5601SOL     OW22175   4.928   1.388   1.457  0.7195 -0.0769 -0.9035
 5601SOL    HW222176   4.881   1.459   1.414  0.9412  0.8365  0.3256
 5601SOL    HW322177   5.019   1.417   1.458  0.4599  0.8503  1.9039
 5601SOL    MW422178   4.934   1.401   1.451  0.7145  0.1660 -0.3710
 5602SOL     OW22179   2.801   5.197   2.181  0.5054 -0.4685 -0.3652
 5602SOL    HW222180   2.790   5.230   2.270 -1.1817 -0.7164 -0.4511
 5602SOL    HW322181   2.759   5.263   2.126  0.2077 -1.0487 -0.8404
 5602SOL    MW422182   2.794   5.210   2.186  0.2436 -0.5777 -0.4392
 5603SOL     OW22183   0.213   1.828   0.284 -0.4022  0.3390  0.1405
 5603SOL    HW222184   0.186   1.854   0.373  0.4516  0.6639  0.3205
 5603SOL    HW322185   0.215   1.733   0.287  1.7425  0.3368  1.1867
 5603SOL    MW422186   0.210   1.819   0.296 -0.0066  0.3816  0.3023
 5604SOL     OW22187   3.539   2.059   0.847 -0.1102  0.3747 -0.0650
 5604SOL    HW222188   3.629   2.073   0.875 -0.4193  0.6045  0.8674
 5604SOL    HW322189   3.487   2.116   0.904 -0.9685 -0.9008  0.4897
 5604SOL    MW422190   3.544   2.068   0.858 -0.2642  0.2367  0.1312
 5605SOL     OW22191   5.858   1.923   2.129  0.3744  0.0675  0.3321
 5605SOL    HW222192   5.870   1.836   2.091  1.4865  0.0146  0.7569
 5605SOL    HW322193   5.834   1.979   2.055 -0.6194 -0.6391  0.1025
 5605SOL    MW422194   5.857   1.919   2.114  0.3900 -0.0327  0.3579
 5606SOL     OW22195   0.547   2.406   4.485 -0.2334 -0.6422  0.6559
 5606SOL    HW222196   0.601   2.447   4.417 -0.9879 -1.5790 -0.5454
 5606SOL    HW322197   0.590   2.323   4.503 -1.0142 -1.2080 -0.0094
 5606SOL    MW422198   0.560   2.401   4.478 -0.4360 -0.8404  0.4096
 5607SOL     OW22199   0.929   2.133   5.273 -0.4637 -0.1168  0.6727
 5607SOL    HW222200   0.838   2.127   5.304 -0.9608 -0.5435 -0.7718
 5607SOL    HW322201   0.925   2.195   5.200  0.4726  0.1404  0.8389
 5607SOL    MW422202   0.916   2.140   5.267 -0.4057 -0.1392  0.5040
 5608SOL     OW22203   1.156   0.393   1.325  0.0921 -0.0047  0.2650
 5608SOL    HW222204   1.201   0.333   1.384 -1.3491 -1.2491  0.1792
 5608SOL    HW322205   1.099   0.445   1.382 -0.2020 -0.1774  0.1338
 5608SOL    MW422206   1.154   0.392   1.340 -0.1368 -0.1917  0.2364
 5609SOL     OW22207   3.809   2.946   2.262 -0.6375  0.3353 -0.0303
 5609SOL    HW222208   3.729   2.901   2.236 -0.0835 -0.0559 -1.1443
 5609SOL    HW322209   3.806   3.029   2.214  0.3558 -0.3551 -1.3735
 5609SOL    MW422210   3.798   2.951   2.252 -0.4334  0.1926 -0.3545
 5610SOL     OW22211   3.371   1.426   1.781  0.2225  0.0740  0.3560
 5610SOL    HW222212   3.357   1.375   1.701  0.9222 -0.7076  0.7193
 5610SOL    HW322213   3.362   1.517   1.752 -0.6592 -0.2278 -0.3787
 5610SOL    MW422214   3.368   1.431   1.766  0.1985 -0.0690  0.3070
 5611SOL     OW22215   4.134   3.686   3.330  0.6708  0.3826 -0.0806
 5611SOL    HW222216   4.040   3.672   3.337  0.4730  1.0496 -1.1996
 5611SOL    HW322217   4.173   3.614   3.379 -0.4174  0.0846  0.3642
 5611SOL    MW422218   4.127   3.675   3.338  0.5012  0.4313 -0.1695
 5612SOL     OW22219   6.403   6.077   5.265 -0.2349  0.2824 -0.3174
 5612SOL    HW222220   6.365   6.003   5.312  1.6984  0.2480  1.3570
 5612SOL    HW322221   6.495   6.077   5.291  0.1632  2.3733 -1.4827
 5612SOL    MW422222   6.410   6.067   5.274  0.0727  0.5538 -0.2502
 5613SOL     OW22223   3.268   0.351   4.661  0.5591  0.2833 -0.6236
 5613SOL    HW222224   3.301   0.317   4.578  0.8452 -2.5911  0.5783
 5613SOL    HW322225   3.319   0.431   4.675 -0.1330  1.3755 -3.5720
 5613SOL    MW422226   3.279   0.357   4.652  0.5055  0.0482 -0.8540
 5614SOL     OW22227   4.230   2.817   1.626  0.6030  0.1708 -0.2570
 5614SOL    HW222228   4.153   2.778   1.669  1.8795 -0.4009  1.6164
 5614SOL    HW322229   4.201   2.833   1.536 -1.2759 -1.3264  0.0125
 5614SOL    MW422230   4.216   2.814   1.620  0.5235 -0.1022  0.0257
 5615SOL     OW22231   2.563   5.035   3.054 -0.0524 -0.5574  0.2785
 5615SOL    HW222232   2.647   5.059   3.015  0.3637  1.5921  2.2842
 5615SOL    HW322233   2.586   4.990   3.135 -0.8657 -1.2759  0.1280
 5615SOL    MW422234   2.577   5.032   3.059 -0.1048 -0.3686  0.5232
 5616SOL     OW22235   1.077   6.351   4.430  0.3646 -0.3688  0.7207
 5616SOL    HW222236   1.049   6.359   4.339  0.6371 -2.2809  0.4219
 5616SOL    HW322237   1.169   6.375   4.430  0.1970  0.2963  0.6340
 5616SOL    MW422238   1.085   6.355   4.418  0.3785 -0.5334  0.6699
 5617SOL     OW22239   5.839   4.257   4.422 -0.4935 -0.7964  0.6287
 5617SOL    HW222240   5.748   4.253   4.392 -0.4120  0.7278  0.0951
 5617SOL    HW322241   5.834   4.293   4.510 -0.4064 -0.7713  0.6231
 5617SOL    MW422242   5.826   4.261   4.429 -0.4712 -0.5920  0.5575
 5618SOL     OW22243   0.518   4.619   5.884  0.1953 -0.0782  0.2048
 5618SOL    HW222244   0.582   4.686   5.907  0.2742 -0.7328  2.0071
 5618SOL    HW322245   0.569   4.547   5.847  0.3993 -0.2222  0.7664
 5618SOL    MW422246   0.533   4.618   5.882  0.2326 -0.1836  0.5167
 5619SOL     OW22247   3.022   2.936   0.977  0.1165 -0.0107 -0.1421
 5619SOL    HW222248   3.098   2.906   1.026  0.0508 -0.5919 -0.3969
 5619SOL    HW322249   3.053   2.943   0.887 -0.2164 -0.5472 -0.2980
 5619SOL    MW422250   3.036   2.933   0.972  0.0639 -0.1582 -0.1963
 5620SOL     OW22251   4.017   0.250   5.878  1.0231 -0.5885  0.2480
 5620SOL    HW222252   3.928   0.214   5.874  1.2977 -1.3026  0.4272
 5620SOL    HW322253   4.029   0.276   5.969  0.8966 -0.2198  0.1610
 5620SOL    MW422254   4.007   0.249   5.889  1.0426 -0.6341  0.2602
 5621SOL     OW22255   0.119   4.210   4.320  0.0851  0.0812 -0.4659
 5621SOL    HW222256   0.200   4.241   4.359 -0.5053  3.0090 -1.3274
 5621SOL    HW322257   0.075   4.162   4.391  1.8957 -0.3707  0.4103
 5621SOL    MW422258   0.124   4.208   4.335  0.2461  0.4079 -0.4639
 5622SOL     OW22259   1.562   3.175   3.545 -0.0139 -0.4576 -0.6853
 5622SOL    HW222260   1.598   3.260   3.519 -0.9742 -0.2844 -1.5137
 5622SOL    HW322261   1.498   3.196   3.613  1.4600 -0.7757  0.8675
 5622SOL    MW422262   1.558   3.189   3.551  0.0538 -0.4767 -0.5897
 5623SOL     OW22263   1.789   1.112   2.642  0.2662 -0.3654  0.1911
 5623SOL    HW222264   1.774   1.145   2.730 -1.3157  1.2606 -0.6376
 5623SOL    HW322265   1.749   1.177   2.584 -1.9253 -3.0746 -1.6010
 5623SOL    MW422266   1.782   1.125   2.646 -0.2317 -0.5083 -0.1547
 5624SOL     OW22267   5.817   5.156   0.157 -0.2130 -0.3287  0.2695
 5624SOL    HW222268   5.828   5.249   0.136 -1.9038 -0.4697 -1.4372
 5624SOL    HW322269   5.722   5.143   0.160 -0.0329 -2.2813 -0.9390
 5624SOL    MW422270   5.806   5.167   0.155 -0.4123 -0.6049 -0.1151
 5625SOL     OW22271   0.757   0.120   5.425  0.5032  0.1932  0.6275
 5625SOL    HW222272   0.740   0.080   5.340 -1.5678 -2.2681  2.0535
 5625SOL    HW322273   0.703   0.199   5.426  1.4386  0.8917 -0.7007
 5625SOL    MW422274   0.748   0.125   5.414  0.3534 -0.0394  0.6404
 5626SOL     OW22275   1.190   0.118   2.805  0.0982  0.0613 -0.0797
 5626SOL    HW222276   1.162   0.118   2.896  0.4586  0.6989  0.0375
 5626SOL    HW322277   1.113   0.146   2.756 -0.0233 -0.0359  0.0544
 5626SOL    MW422278   1.176   0.122   2.810  0.1297  0.1326 -0.0466
 5627SOL     OW22279   3.525   2.522   5.205  0.3664 -0.1785  0.2179
 5627SOL    HW222280   3.517   2.476   5.289 -0.7210  0.0284  0.2450
 5627SOL    HW322281   3.589   2.471   5.156  0.6916 -0.5535  1.0111
 5627SOL    MW422282   3.532   2.509   5.210  0.2658 -0.2006  0.3261
 5628SOL     OW22283   1.044   1.859   4.392  0.0553  0.4812 -0.0012
 5628SOL    HW222284   1.104   1.869   4.466 -1.2692  1.9371  0.9431
 5628SOL    HW322285   1.018   1.766   4.396  0.8856  0.2617  0.6395
 5628SOL    MW422286   1.048   1.848   4.402 -0.0099  0.6443  0.2079
 5629SOL     OW22287   3.028   1.250   5.548 -0.5798 -0.1714  0.3075
 5629SOL    HW222288   3.076   1.318   5.596 -1.3961  2.1350 -1.8631
 5629SOL    HW322289   3.073   1.243   5.465 -2.1683 -0.1612 -0.6059
 5629SOL    MW422290   3.040   1.258   5.544 -0.8971  0.1343 -0.0994
 5630SOL     OW22291   1.314   2.298   2.133 -0.8332  0.1000 -0.6764
 5630SOL    HW222292   1.395   2.267   2.174 -0.0383  1.4913 -1.1127
 5630SOL    HW322293   1.249   2.296   2.204 -0.9044 -2.6146 -0.7250
 5630SOL    MW422294   1.316   2.294   2.148 -0.7377 -0.0746 -0.7404
 5631SOL     OW22295   0.774   5.508   6.261  0.3243 -0.0152 -0.1322
 5631SOL    HW222296   0.781   5.433   6.203 -1.1263  0.0187 -0.3954
 5631SOL    HW322297   0.717   5.569   6.214  1.0275  1.0162  0.3182
 5631SOL    MW422298   0.767   5.506   6.247  0.2257  0.1254 -0.1075
 5632SOL     OW22299   0.398   5.791   4.688  0.2339 -0.0803  0.3511
 5632SOL    HW222300   0.472   5.750   4.733  1.7470  1.0541 -0.9894
 5632SOL    HW322301   0.415   5.774   4.595 -2.1895 -1.3774  0.0445
 5632SOL    MW422302   0.410   5.783   4.682  0.1138 -0.1018  0.1338
 5633SOL     OW22303   0.726   6.072   4.575  0.3029  0.0642 -0.2349
 5633SOL    HW222304   0.742   5.978   4.566  0.1168  0.0589 -0.5624
 5633SOL    HW322305   0.663   6.079   4.647  1.1361  0.0245  0.5094
 5633SOL    MW422306   0.720   6.061   4.583  0.3883  0.0583 -0.1799
 5634SOL     OW22307   5.675   0.420   1.078 -0.1965  0.0174 -0.0085
 5634SOL    HW222308   5.696   0.456   1.164  0.3208 -1.7094  0.6278
 5634SOL    HW322309   5.580   0.403   1.082 -0.3196  0.6882 -0.0748
 5634SOL    MW422310   5.665   0.422   1.090 -0.1445 -0.1219  0.0667
 5635SOL     OW22311   4.148   2.148   4.650  0.4889  0.0285 -0.5508
 5635SOL    HW222312   4.204   2.114   4.581  1.7309  1.6274 -0.4038
 5635SOL    HW322313   4.139   2.076   4.712  0.9730 -0.7989 -1.4218
 5635SOL    MW422314   4.154   2.134   4.649  0.7166  0.1303 -0.6463
 5636SOL     OW22315   2.544   2.544   4.569 -0.1394 -0.2338  1.2383
 5636SOL    HW222316   2.485   2.619   4.563  0.0268  0.1678  3.7412
 5636SOL    HW322317   2.517   2.487   4.496 -1.8605  1.1212  0.7489
 5636SOL    MW422318   2.533   2.546   4.558 -0.3445 -0.0020  1.5040
 5637SOL     OW22319   0.691   0.381   5.705  0.5787 -0.8140 -0.4296
 5637SOL    HW222320   0.641   0.337   5.773  0.1490 -0.5906 -0.5995
 5637SOL    HW322321   0.769   0.415   5.750 -0.4327  0.6699  0.2851
 5637SOL    MW422322   0.695   0.380   5.720  0.3885 -0.5887 -0.3577
 5638SOL     OW22323   1.852   1.751   6.089  0.9243  0.0304 -0.0040
 5638SOL    HW222324   1.924   1.752   6.026  1.2412  2.3965  0.3113
 5638SOL    HW322325   1.868   1.826   6.145 -0.8866 -0.3890  1.1680
 5638SOL    MW422326   1.863   1.761   6.088  0.7272  0.2872  0.1922
 5639SOL     OW22327   0.352   5.638   4.061 -0.3730 -0.0195  0.4620
 5639SOL    HW222328   0.300   5.686   4.126  0.0250  1.1398 -0.0339
 5639SOL    HW322329   0.427   5.696   4.044  1.4850 -1.9452  1.6760
 5639SOL    MW422330   0.355   5.652   4.068 -0.0754 -0.1206  0.5567
 5640SOL     OW22331   2.150   5.071   0.579  0.1973 -0.7531 -0.0997
 5640SOL    HW222332   2.084   5.075   0.648  1.7980 -0.3412  1.4731
 5640SOL    HW322333   2.156   5.161   0.546  1.3678 -0.3279  1.1786
 5640SOL    MW422334   2.142   5.083   0.583  0.5629 -0.6427  0.2765
 5641SOL     OW22335   3.812   5.783   2.844  0.2537  0.1220  0.1502
 5641SOL    HW222336   3.817   5.809   2.936 -1.1627 -0.3240  0.3845
 5641SOL    HW322337   3.856   5.698   2.841 -1.5002 -0.8894  0.8935
 5641SOL    MW422338   3.818   5.775   2.856 -0.1646 -0.0703  0.2792
 5642SOL     OW22339   3.066   0.081   4.356 -0.4137  0.3791  0.3891
 5642SOL    HW222340   3.144   0.134   4.373 -0.6696  0.8821  0.0325
 5642SOL    HW322341   3.095  -0.009   4.368  0.7715  0.4094 -1.7158
 5642SOL    MW422342   3.081   0.076   4.360 -0.2911  0.4495  0.0643
 5643SOL     OW22343   1.804   5.284   4.692 -0.3495  0.3614 -0.0996
 5643SOL    HW222344   1.882   5.241   4.728 -0.2844  0.5960  0.0468
 5643SOL    HW322345   1.744   5.212   4.672 -0.0986  0.1801 -0.2044
 5643SOL    MW422346   1.807   5.269   4.694 -0.3078  0.3684 -0.0941
 5644SOL     OW22347   1.787   5.569   3.220  0.6606  0.3706  0.3048
 5644SOL    HW222348   1.796   5.656   3.180  0.9541  0.1103 -0.2025
 5644SOL    HW322349   1.772   5.587   3.313  2.7757  0.9406  0.5819
 5644SOL    MW422350   1.786   5.583   3.227  0.9784  0.4115  0.2744
 5645SOL     OW22351   2.849   2.380   2.161 -0.4698 -0.0032  0.2504
 5645SOL    HW222352   2.768   2.333   2.179 -0.5202  0.1961  0.5505
 5645SOL    HW322353   2.882   2.341   2.080 -0.3497 -0.7600  0.6597
 5645SOL    MW422354   2.842   2.369   2.152 -0.4606 -0.0768  0.3440
 5646SOL     OW22355   2.448   4.418   1.637  0.1633 -0.0393  0.0375
 5646SOL    HW222356   2.428   4.327   1.656 -0.8524  0.2975  0.6189
 5646SOL    HW322357   2.374   4.449   1.585 -0.3723  0.9263  1.3189
 5646SOL    MW422358   2.436   4.410   1.632 -0.0413  0.1325  0.2832
 5647SOL     OW22359   4.147   5.644   0.279  0.6509  0.1199 -0.8732
 5647SOL    HW222360   4.210   5.572   0.277  0.0504 -0.4278 -0.8277
 5647SOL    HW322361   4.063   5.601   0.262  0.2191  0.7458 -0.3539
 5647SOL    MW422362   4.144   5.629   0.276  0.5147  0.1302 -0.7987
 5648SOL     OW22363   1.474   1.598   3.735  0.0910 -0.3096 -0.4293
 5648SOL    HW222364   1.565   1.608   3.706  0.8010  0.1487  1.7287
 5648SOL    HW322365   1.458   1.674   3.791 -1.5104 -0.5795 -0.4700
 5648SOL    MW422366   1.484   1.609   3.739 -0.0266 -0.2848 -0.1500
 5649SOL     OW22367   0.720   4.079   5.184  0.0060 -0.0282  0.3519
 5649SOL    HW222368   0.772   4.126   5.119  0.4098  0.5435  1.0695
 5649SOL    HW322369   0.648   4.139   5.203 -0.6437 -0.5955 -0.2520
 5649SOL    MW422370   0.717   4.094   5.178 -0.0265 -0.0276  0.3669
 5650SOL     OW22371   6.082   2.609   1.951  0.3155 -0.4384  1.1699
 5650SOL    HW222372   6.150   2.652   1.899  0.3096 -1.7891 -0.0024
 5650SOL    HW322373   6.004   2.661   1.935 -0.0427 -1.6403 -1.4310
 5650SOL    MW422374   6.081   2.622   1.942  0.2675 -0.7752  0.6721
 5651SOL     OW22375   5.974   2.034   1.327  0.5448  0.3005  0.2058
 5651SOL    HW222376   5.927   1.957   1.297  0.4434  0.7728 -0.8842
 5651SOL    HW322377   5.984   2.089   1.249  1.9187  0.7225  0.6477
 5651SOL    MW422378   5.969   2.031   1.313  0.7127  0.4185  0.1203
 5652SOL     OW22379   3.009   1.608   1.357  0.4639 -0.6843 -0.1468
 5652SOL    HW222380   2.946   1.678   1.339  0.0697 -1.3625 -1.5565
 5652SOL    HW322381   3.092   1.642   1.323  0.3307 -0.7840 -0.5746
 5652SOL    MW422382   3.012   1.622   1.350  0.3943 -0.7869 -0.3892
 5653SOL     OW22383   6.157   3.133   0.890 -0.2927  0.1264 -0.1893
 5653SOL    HW222384   6.216   3.198   0.928  0.5080 -1.2952  1.0775
 5653SOL    HW322385   6.214   3.067   0.853 -1.0761 -0.7778  0.1731
 5653SOL    MW422386   6.172   3.133   0.890 -0.2904 -0.1805  0.0256
 5654SOL     OW22387   4.856   0.727   6.116  0.3115  0.3359 -0.4590
 5654SOL    HW222388   4.873   0.820   6.108 -2.2249  1.0343  1.0337
 5654SOL    HW322389   4.793   0.708   6.046  0.5147 -0.1648 -0.5126
 5654SOL    MW422390   4.850   0.737   6.106  0.0037  0.3620 -0.2691
 5655SOL     OW22391   5.846   2.512   4.219 -0.1486 -0.5914 -0.5878
 5655SOL    HW222392   5.911   2.548   4.158  1.4504 -1.3575  0.5907
 5655SOL    HW322393   5.773   2.573   4.214  0.6564  0.3223 -1.9553
 5655SOL    MW422394   5.845   2.525   4.210  0.1686 -0.5719 -0.6127
 5656SOL     OW22395   1.856   0.172   1.474  0.4433  0.7586 -0.4253
 5656SOL    HW222396   1.826   0.126   1.396 -1.4527  0.9337  0.1584
 5656SOL    HW322397   1.845   0.265   1.453  1.9915  0.9091 -0.7120
 5656SOL    MW422398   1.851   0.178   1.461  0.3975  0.8016 -0.3861
 5657SOL     OW22399   4.091   1.075   6.332  0.4126 -0.1044  0.0792
 5657SOL    HW222400   4.077   1.166   6.307 -1.1473  0.0304  1.3051
 5657SOL    HW322401   4.025   1.027   6.283 -0.1756 -0.2927  1.0296
 5657SOL    MW422402   4.080   1.081   6.322  0.1292 -0.1115  0.3664
 5658SOL     OW22403   4.105   6.264   5.962 -0.6514  0.6484  0.4029
 5658SOL    HW222404   4.036   6.276   6.027 -0.3518  0.2259  0.8124
 5658SOL    HW322405   4.185   6.292   6.006  0.0034 -2.1666  1.2479
 5658SOL    MW422406   4.107   6.269   5.976 -0.5255  0.2213  0.5684
 5659SOL     OW22407   2.871   5.434   6.021 -0.1898  0.5489 -0.3901
 5659SOL    HW222408   2.836   5.457   5.935 -2.0450 -0.5094  0.0344
 5659SOL    HW322409   2.958   5.399   6.002  0.1139  1.8713 -1.6399
 5659SOL    MW422410   2.878   5.432   6.007 -0.3945  0.5837 -0.4990
 5660SOL     OW22411   5.740   3.743   4.569  0.2198  0.1814  0.2291
 5660SOL    HW222412   5.814   3.683   4.577  1.1439  1.4696  2.1411
 5660SOL    HW322413   5.744   3.773   4.478  0.2273 -1.9476 -0.5441
 5660SOL    MW422414   5.750   3.739   4.558  0.3428  0.0704  0.3794
 5661SOL     OW22415   2.954   0.975   1.713 -0.4823 -0.2936  0.2260
 5661SOL    HW222416   2.892   1.019   1.772 -0.5166 -2.0822  1.6164
 5661SOL    HW322417   2.927   1.002   1.625 -1.5337  1.0765  0.9305
 5661SOL    MW422418   2.942   0.985   1.709 -0.6255 -0.3488  0.5024
 5662SOL     OW22419   3.810   3.177   5.272 -0.0918 -0.1773 -0.5211
 5662SOL    HW222420   3.758   3.225   5.208  0.4981  1.8348  0.4256
 5662SOL    HW322421   3.752   3.164   5.347 -0.0753 -0.4207 -0.5492
 5662SOL    MW422422   3.796   3.182   5.274 -0.0118  0.0561 -0.3999
 5663SOL     OW22423   4.341   4.014   2.357  0.6861  0.0818  0.2695
 5663SOL    HW222424   4.399   4.029   2.432  0.9775  2.5033 -0.3682
 5663SOL    HW322425   4.309   3.924   2.369  2.4547 -0.3685  2.0749
 5663SOL    MW422426   4.344   4.004   2.369  0.9579  0.3419  0.4236
 5664SOL     OW22427   0.264   0.264   5.138 -0.1171  0.0318  0.3117
 5664SOL    HW222428   0.302   0.332   5.194  0.9232  0.6015 -1.0244
 5664SOL    HW322429   0.243   0.192   5.198 -0.2216  1.0934  1.5997
 5664SOL    MW422430   0.266   0.264   5.154  0.0064  0.2470  0.3053
 5665SOL     OW22431   6.187   4.048   2.323 -0.6539  0.0127  0.6082
 5665SOL    HW222432   6.129   4.113   2.284 -0.6749  0.7675  1.8416
 5665SOL    HW322433   6.200   3.983   2.254  2.4579  3.1562 -2.1180
 5665SOL    MW422434   6.181   4.048   2.309 -0.2461  0.5271  0.4113
 5666SOL     OW22435   2.651   4.623   4.817 -0.2556 -0.1419 -0.1661
 5666SOL    HW222436   2.678   4.714   4.811  0.0768 -0.2093  0.2475
 5666SOL    HW322437   2.705   4.587   4.887 -0.1282 -0.7506 -0.5733
 5666SOL    MW422438   2.661   4.630   4.825 -0.1950 -0.2311 -0.1653
 5667SOL     OW22439   0.533   6.027   5.311  0.1101 -0.8134  0.9564
 5667SOL    HW222440   0.577   5.942   5.308 -1.0852 -1.4477 -1.1151
 5667SOL    HW322441   0.593   6.084   5.358  1.4906 -2.5107  1.3366
 5667SOL    MW422442   0.546   6.023   5.316  0.1345 -1.1210  0.7333
 5668SOL     OW22443   1.408   2.096   1.596  0.1336 -0.0703  0.0555
 5668SOL    HW222444   1.421   2.183   1.560  0.2908 -1.2104 -2.9274
 5668SOL    HW322445   1.322   2.069   1.563 -1.2036 -0.0980  3.1976
 5668SOL    MW422446   1.398   2.104   1.587 -0.0221 -0.2244  0.0765
 5669SOL     OW22447   1.081   6.082   6.134 -0.1170 -0.4787  1.0250
 5669SOL    HW222448   1.092   6.174   6.156  1.3268  0.4147 -2.6829
 5669SOL    HW322449   0.997   6.078   6.088  0.6415 -0.6006 -0.3993
 5669SOL    MW422450   1.071   6.094   6.131  0.1736 -0.3769  0.3479
 5670SOL     OW22451   3.307   0.671   3.213 -0.4707  0.1270  0.3731
 5670SOL    HW222452   3.299   0.681   3.308  1.5497  2.2516  0.4112
 5670SOL    HW322453   3.248   0.737   3.177 -0.0495  0.4302  0.2231
 5670SOL    MW422454   3.298   0.681   3.221 -0.1485  0.4473  0.3583
 5671SOL     OW22455   5.779   5.836   1.250  0.0638 -0.2280 -0.0547
 5671SOL    HW222456   5.741   5.815   1.164  0.9153 -0.4641 -0.3879
 5671SOL    HW322457   5.837   5.910   1.233 -1.1583  0.9291  0.6845
 5671SOL    MW422458   5.781   5.843   1.236  0.0149 -0.1065 -0.0011
 5672SOL     OW22459   5.137   3.339   3.398 -0.3191 -0.0960 -0.3597
 5672SOL    HW222460   5.149   3.433   3.394 -1.1453 -0.0196 -1.6032
 5672SOL    HW322461   5.180   3.306   3.319  1.3461 -0.9497  0.8476
 5672SOL    MW422462   5.144   3.347   3.387 -0.2084 -0.1986 -0.3645
 5673SOL     OW22463   5.372   3.311   0.275  0.1150  0.1005  0.5897
 5673SOL    HW222464   5.371   3.365   0.354  0.4814  0.1374  0.5702
 5673SOL    HW322465   5.454   3.262   0.281  1.3593  1.8564 -0.9554
 5673SOL    MW422466   5.383   3.311   0.286  0.3275  0.3370  0.3833
 5674SOL     OW22467   2.025   1.911   3.820  0.1994  0.0761  0.3351
 5674SOL    HW222468   2.092   1.845   3.805 -0.3553 -0.1718 -1.2494
 5674SOL    HW322469   1.985   1.886   3.904 -1.2325 -2.7429 -1.0531
 5674SOL    MW422470   2.029   1.899   3.829 -0.0627 -0.3285 -0.0571
 5675SOL     OW22471   5.914   4.840   5.121  0.0850  0.5370 -0.3517
 5675SOL    HW222472   6.000   4.854   5.083 -0.6308  0.6146 -2.0510
 5675SOL    HW322473   5.860   4.811   5.048 -1.2590  0.1650  0.7381
 5675SOL    MW422474   5.918   4.838   5.107 -0.1868  0.4982 -0.4321
 5676SOL     OW22475   2.458   1.568   3.888  0.4127  0.0734  0.0501
 5676SOL    HW222476   2.499   1.580   3.974  2.4192 -2.7248 -0.3710
 5676SOL    HW322477   2.372   1.533   3.907  0.2795  0.8244  0.9073
 5676SOL    MW422478   2.452   1.565   3.902  0.6598 -0.1967  0.1076
 5677SOL     OW22479   2.126   1.039   0.624 -0.1670 -0.5740  0.2667
 5677SOL    HW222480   2.163   0.967   0.573 -1.4340 -1.2710  0.3033
 5677SOL    HW322481   2.128   1.114   0.563 -0.0529 -0.9591 -0.2110
 5677SOL    MW422482   2.131   1.039   0.609 -0.3191 -0.7168  0.2085
 5678SOL     OW22483   0.284   1.496   5.864 -0.1673 -0.0143 -0.6593
 5678SOL    HW222484   0.359   1.443   5.890 -1.0759 -1.4318 -0.8588
 5678SOL    HW322485   0.323   1.572   5.820  1.1322 -0.9160 -1.1295
 5678SOL    MW422486   0.299   1.499   5.862 -0.1157 -0.3203 -0.7477
 5679SOL     OW22487   4.065   0.508   4.068 -0.7350  0.6766  0.1556
 5679SOL    HW222488   3.971   0.492   4.065 -0.6436  0.2597 -0.7158
 5679SOL    HW322489   4.098   0.441   4.129 -1.3542  2.7944  3.0204
 5679SOL    MW422490   4.057   0.497   4.076 -0.8046  0.9010  0.4186
 5680SOL     OW22491   3.009   3.348   3.482 -0.3628  0.5765 -0.4517
 5680SOL    HW222492   3.025   3.254   3.490 -1.7497  0.3916  0.4691
 5680SOL    HW322493   3.068   3.376   3.412  3.1597 -0.1460  1.9390
 5680SOL    MW422494   3.019   3.339   3.474 -0.0810  0.4568 -0.0148
 5681SOL     OW22495   6.101   2.382   6.206 -0.2398 -0.3762  0.1467
 5681SOL    HW222496   6.039   2.453   6.225 -1.4922 -1.4964  0.3373
 5681SOL    HW322497   6.153   2.375   6.286 -1.8369 -1.3750  1.1479
 5681SOL    MW422498   6.100   2.391   6.219 -0.6157 -0.6558  0.3039
 5682SOL     OW22499   0.884   3.626   1.733 -0.2540  0.4416 -0.8087
 5682SOL    HW222500   0.849   3.546   1.695 -0.5786  0.2628 -0.1488
 5682SOL    HW322501   0.979   3.616   1.725 -0.3234  0.8674 -2.4741
 5682SOL    MW422502   0.892   3.614   1.727 -0.3060  0.4742 -0.9414
 5683SOL     OW22503   2.105   2.383   1.531 -0.4432 -0.5116  0.1182
 5683SOL    HW222504   2.180   2.338   1.571  0.8289  0.0435 -1.5054
 5683SOL    HW322505   2.035   2.318   1.532  0.3096 -1.3483  0.9546
 5683SOL    MW422506   2.106   2.368   1.536 -0.1760 -0.5488  0.0144
 5684SOL     OW22507   1.133   6.350   6.168  0.3558  0.2042 -0.1852
 5684SOL    HW222508   1.067   6.340   6.237  0.6768  2.1121  0.4571
 5684SOL    HW322509   1.203   6.400   6.209  2.4622 -2.1183 -0.7366
 5684SOL    MW422510   1.134   6.356   6.183  0.6760  0.1495 -0.1732
 5685SOL     OW22511   1.842   4.383   1.618 -0.2780 -0.2134  0.2331
 5685SOL    HW222512   1.801   4.408   1.535  1.0342 -2.3603 -1.1523
 5685SOL    HW322513   1.817   4.291   1.630 -0.0129 -0.0932  1.9799
 5685SOL    MW422514   1.833   4.374   1.609 -0.0699 -0.4808  0.2808
 5686SOL     OW22515   0.248   5.934   2.160 -0.0844  0.1690  0.0697
 5686SOL    HW222516   0.192   5.863   2.192 -1.8537 -0.1292 -3.2753
 5686SOL    HW322517   0.237   5.933   2.065  1.6009  3.4901 -0.3181
 5686SOL    MW422518   0.239   5.925   2.152 -0.0955  0.5679 -0.4228
 5687SOL     OW22519   2.634   6.033   2.893 -0.0447  0.1927  0.0583
 5687SOL    HW222520   2.725   6.005   2.879  0.2363  0.6149  0.9756
 5687SOL    HW322521   2.582   5.963   2.854  0.6409 -1.5762  2.1123
 5687SOL    MW422522   2.639   6.020   2.886  0.0828  0.0150  0.4503
 5688SOL     OW22523   2.429   1.236   6.180 -0.8597 -0.6613  0.0030
 5688SOL    HW222524   2.411   1.175   6.109  0.6913 -3.8426  2.1247
 5688SOL    HW322525   2.345   1.249   6.223 -1.2060 -1.4103 -0.4403
 5688SOL    MW422526   2.416   1.230   6.176 -0.7007 -1.1798  0.2245
 5689SOL     OW22527   4.769   5.760   2.637 -0.4775  0.3558 -0.2331
 5689SOL    HW222528   4.766   5.855   2.624 -0.3683  0.0981 -2.5643
 5689SOL    HW322529   4.688   5.727   2.599 -0.4505 -0.5032  0.4228
 5689SOL    MW422530   4.758   5.768   2.631 -0.4595  0.2084 -0.4542
 5690SOL     OW22531   0.987   5.123   4.415  0.4757 -0.1343 -0.6333
 5690SOL    HW222532   0.921   5.149   4.479  0.8704  0.3888 -0.4273
 5690SOL    HW322533   0.938   5.081   4.345  0.1297 -1.6682  0.4785
 5690SOL    MW422534   0.972   5.121   4.414  0.4821 -0.2677 -0.4594
 5691SOL     OW22535   5.014   3.452   0.464  0.6528 -0.2185  0.0514
 5691SOL    HW222536   5.039   3.544   0.455  0.6948 -0.0884  1.3372
 5691SOL    HW322537   5.023   3.434   0.557 -0.1176 -1.3142 -0.0737
 5691SOL    MW422538   5.019   3.462   0.475  0.5567 -0.3459  0.2045
 5692SOL     OW22539   3.792   5.526   5.236 -0.1676 -0.5376  0.0828
 5692SOL    HW222540   3.702   5.493   5.226 -0.2513 -0.2827 -0.0121
 5692SOL    HW322541   3.807   5.578   5.157 -0.6794  1.1406  1.0606
 5692SOL    MW422542   3.782   5.528   5.224 -0.2461 -0.2825  0.1993
 5693SOL     OW22543   1.234   2.974   2.627  0.5579 -0.5678  0.0501
 5693SOL    HW222544   1.174   3.049   2.621 -0.4962 -1.0881  2.6539
 5693SOL    HW322545   1.211   2.919   2.552  0.6160  1.1546 -1.2935
 5693SOL    MW422546   1.223   2.977   2.616  0.4265 -0.4092  0.2164
 5694SOL     OW22547   5.210   4.010   1.017  0.2525 -0.0244 -0.6849
 5694SOL    HW222548   5.219   4.105   1.011 -2.7361  0.3051 -1.8545
 5694SOL    HW322549   5.169   3.995   1.102  1.8350 -0.4439  0.0421
 5694SOL    MW422550   5.206   4.021   1.028  0.0670 -0.0363 -0.7433
 5695SOL     OW22551   0.438   4.969   1.871  0.1934 -1.1007  0.4346
 5695SOL    HW222552   0.392   5.019   1.804  1.7179  1.1206  0.9403
 5695SOL    HW322553   0.381   4.895   1.889 -1.7450 -0.0555 -1.0440
 5695SOL    MW422554   0.424   4.966   1.865  0.1388 -0.6698  0.3062
 5696SOL     OW22555   0.692   1.435   0.942 -0.5031  0.3546 -0.2030
 5696SOL    HW222556   0.715   1.498   1.009 -1.6357 -0.2969  0.8428
 5696SOL    HW322557   0.769   1.431   0.884 -0.4659  2.7441 -0.3900
 5696SOL    MW422558   0.706   1.443   0.943 -0.6477  0.5839 -0.0897
 5697SOL     OW22559   1.053   3.939   6.007 -0.3585 -0.0238 -0.0584
 5697SOL    HW222560   1.005   3.864   6.044  0.1410 -0.6270 -0.6327
 5697SOL    HW322561   1.097   3.978   6.083 -0.0517 -0.7318  0.1396
 5697SOL    MW422562   1.052   3.934   6.022 -0.2521 -0.1968 -0.1081
 5698SOL     OW22563   1.675   0.747   3.362 -0.0926 -0.4365 -0.4791
 5698SOL    HW222564   1.738   0.678   3.386 -0.5532 -0.7928 -0.2862
 5698SOL    HW322565   1.705   0.824   3.411  1.2689 -0.0798 -1.7980
 5698SOL    MW422566   1.688   0.748   3.372  0.0263 -0.4365 -0.6276
 5699SOL     OW22567   2.574   4.954   6.206  0.0246  0.3711 -0.0277
 5699SOL    HW222568   2.631   5.026   6.177  0.1726  0.8094  1.2636
 5699SOL    HW322569   2.626   4.907   6.271  0.2093 -1.4006 -1.3801
 5699SOL    MW422570   2.588   4.957   6.211  0.0685  0.1951 -0.0358
 5700SOL     OW22571   3.702   1.023   1.058  0.6747  0.4501 -0.1291
 5700SOL    HW222572   3.660   1.105   1.030 -2.9365 -0.1573  2.6010
 5700SOL    HW322573   3.662   0.956   1.003 -1.2010 -0.0029  1.6608
 5700SOL    MW422574   3.691   1.025   1.047 -0.0492  0.3102  0.4673
 5701SOL     OW22575   1.760   0.220   4.957  0.6490  0.6064  0.1555
 5701SOL    HW222576   1.669   0.248   4.967  0.4928  0.8226 -1.5605
 5701SOL    HW322577   1.780   0.173   5.039 -1.7591 -1.5155 -0.3341
 5701SOL    MW422578   1.750   0.217   4.969  0.3106  0.3550 -0.1355
 5702SOL     OW22579   2.912   5.018   1.949  0.2370  0.3325 -0.2965
 5702SOL    HW222580   2.941   5.012   1.858 -1.0650 -0.1119 -0.7067
 5702SOL    HW322581   2.970   4.958   1.996 -2.0630 -3.3718 -1.6803
 5702SOL    MW422582   2.923   5.009   1.943 -0.2382 -0.2149 -0.5332
 5703SOL     OW22583   6.426   0.585   2.199 -0.3006 -0.4442  0.5413
 5703SOL    HW222584   6.469   0.666   2.170  0.5631 -1.1676 -0.2939
 5703SOL    HW322585   6.487   0.515   2.172 -3.3653 -1.8582 -3.7422
 5703SOL    MW422586   6.440   0.586   2.191 -0.5910 -0.7262 -0.1341
 5704SOL     OW22587   1.338   5.965  -0.002 -0.2802  0.5467 -0.3840
 5704SOL    HW222588   1.376   5.921   0.073 -1.1581 -0.4050 -0.4767
 5704SOL    HW322589   1.324   6.055   0.027  0.5250  0.4948  0.1732
 5704SOL    MW422590   1.341   5.971   0.012 -0.2898  0.4143 -0.3227
 5705SOL     OW22591   1.315   4.111   4.131  0.0456  0.4334  0.0393
 5705SOL    HW222592   1.362   4.043   4.083  0.8908  1.3960 -0.5228
 5705SOL    HW322593   1.256   4.150   4.067  1.1340  1.6817 -0.2259
 5705SOL    MW422594   1.313   4.107   4.116  0.3007  0.7251 -0.0698
 5706SOL     OW22595   5.256   0.871   4.336  0.3425  0.4197 -0.2094
 5706SOL    HW222596   5.199   0.909   4.404 -1.6099 -2.1920 -0.2399
 5706SOL    HW322597   5.227   0.914   4.256  0.4175  1.1657  0.1466
 5706SOL    MW422598   5.244   0.882   4.335  0.0948  0.1736 -0.1665
 5707SOL     OW22599   1.008   4.748   1.569  0.0982 -0.5768  0.4257
 5707SOL    HW222600   1.096   4.721   1.545 -0.4559 -1.5578 -0.6044
 5707SOL    HW322601   0.951   4.684   1.526 -1.2904  1.9288 -1.7966
 5707SOL    MW422602   1.012   4.736   1.560 -0.1581 -0.3757 -0.0034
 5708SOL     OW22603   1.694   4.228   5.842  0.1079 -0.2926 -0.2063
 5708SOL    HW222604   1.736   4.310   5.819 -0.8633  0.6116  1.0878
 5708SOL    HW322605   1.683   4.182   5.759  3.8082 -0.7421 -0.5909
 5708SOL    MW422606   1.698   4.233   5.828  0.4680 -0.2326 -0.0863
 5709SOL     OW22607   2.817   3.745   0.194  0.3142  0.1656 -0.4120
 5709SOL    HW222608   2.762   3.823   0.199  1.5000  1.0097 -0.1836
 5709SOL    HW322609   2.894   3.767   0.246  0.6708 -1.1661 -0.3435
 5709SOL    MW422610   2.820   3.758   0.202  0.5177  0.1013 -0.3728
 5710SOL     OW22611   6.343   3.798   2.785  0.0659 -0.3720 -0.2078
 5710SOL    HW222612   6.308   3.765   2.868  1.3148 -0.6779  0.2146
 5710SOL    HW322613   6.328   3.726   2.723 -0.0581 -0.5000 -0.0306
 5710SOL    MW422614   6.336   3.784   2.788  0.2143 -0.4292 -0.1287
 5711SOL     OW22615   5.475   0.924   2.979  0.1646  0.0910  0.4141
 5711SOL    HW222616   5.557   0.878   2.999  0.0843  0.2697  1.1993
 5711SOL    HW322617   5.406   0.860   2.998  0.1049  0.0579  0.0961
 5711SOL    MW422618   5.477   0.909   2.984  0.1462  0.1102  0.4757
 5712SOL     OW22619   4.127   4.088   1.006  0.3678  0.2353  0.3483
 5712SOL    HW222620   4.060   4.136   0.959  1.7038 -0.2857 -2.2664
 5712SOL    HW322621   4.079   4.022   1.056 -1.1169  0.9096 -0.1285
 5712SOL    MW422622   4.112   4.086   1.007  0.3482  0.2555 -0.0596
 5713SOL     OW22623   6.359   0.042   1.087 -0.2389 -0.4679  0.4589
 5713SOL    HW222624   6.274   0.074   1.056  0.1497  1.1904  0.9913
 5713SOL    HW322625   6.421   0.108   1.058  1.2644 -2.6852 -1.8034
 5713SOL    MW422626   6.356   0.055   1.079  0.0107 -0.5417  0.2306
 5714SOL     OW22627   3.712   1.183   0.354 -0.1304 -0.1506  0.2178
 5714SOL    HW222628   3.774   1.248   0.321  0.7780 -1.2905 -0.3729
 5714SOL    HW322629   3.737   1.171   0.446  0.5392 -0.6221 -0.0250
 5714SOL    MW422630   3.723   1.190   0.362  0.0778 -0.3632  0.1078
 5715SOL     OW22631   0.066   5.148   3.880 -0.0081  0.0975 -0.2116
 5715SOL    HW222632   0.079   5.077   3.942 -1.2715 -0.1861 -0.2342
 5715SOL    HW322633   0.062   5.106   3.795 -3.4339 -0.2494 -0.0204
 5715SOL    MW422634   0.067   5.133   3.877 -0.6268  0.0143 -0.1893
 5716SOL     OW22635   0.432   5.460   6.225 -0.4046 -0.0245 -0.2700
 5716SOL    HW222636   0.489   5.509   6.166  0.6900 -1.2060 -0.2160
 5716SOL    HW322637   0.443   5.504   6.310  0.9746 -0.6323 -0.1028
 5716SOL    MW422638   0.441   5.472   6.229 -0.0782 -0.2606 -0.2408
 5717SOL     OW22639   4.261   2.830   3.161  0.1597  0.2689  0.0525
 5717SOL    HW222640   4.320   2.863   3.094  0.1913 -1.5925 -0.8906
 5717SOL    HW322641   4.174   2.836   3.122  0.0328  0.3290  0.3365
 5717SOL    MW422642   4.257   2.835   3.147  0.1471  0.0313 -0.0345
 5718SOL     OW22643   3.184   2.167   1.704  0.1857  0.0543 -0.2037
 5718SOL    HW222644   3.253   2.106   1.679  0.1215  0.3860 -1.2437
 5718SOL    HW322645   3.227   2.232   1.759  0.1280 -1.2622  1.4765
 5718SOL    MW422646   3.199   2.167   1.708  0.1696 -0.0756 -0.1193
 5719SOL     OW22647   1.259   1.797   2.603 -0.1939 -0.0405 -0.0752
 5719SOL    HW222648   1.184   1.739   2.590 -0.4449  0.1305  0.5438
 5719SOL    HW322649   1.251   1.825   2.694  0.2921  0.4475 -0.1805
 5719SOL    MW422650   1.248   1.793   2.613 -0.1629  0.0465 -0.0074
 5720SOL     OW22651   3.495   5.851   3.664 -0.0231  0.3030  0.2327
 5720SOL    HW222652   3.407   5.817   3.646 -0.5720  1.1994  1.1335
 5720SOL    HW322653   3.550   5.773   3.671 -1.2036 -0.4252  2.0104
 5720SOL    MW422654   3.491   5.836   3.663 -0.2512  0.3252  0.5861
 5721SOL     OW22655   3.902   0.367   1.391  0.2779 -0.2305 -0.3314
 5721SOL    HW222656   3.955   0.443   1.365 -1.0975  0.5029 -1.1444
 5721SOL    HW322657   3.812   0.397   1.380 -0.3865 -0.7457  2.9399
 5721SOL    MW422658   3.897   0.381   1.386  0.0088 -0.2017 -0.0070
 5722SOL     OW22659   6.421   5.595   2.797  0.3065  0.2258  0.1144
 5722SOL    HW222660   6.354   5.538   2.835  0.6057  0.0863  0.4370
 5722SOL    HW322661   6.392   5.683   2.816 -1.3442  0.3169 -2.3217
 5722SOL    MW422662   6.409   5.599   2.804  0.1282  0.2194 -0.1644
 5723SOL     OW22663   2.102   3.595   2.514 -0.6029  0.3676  0.3212
 5723SOL    HW222664   2.115   3.544   2.594  0.1827 -0.6354 -0.4337
 5723SOL    HW322665   2.015   3.634   2.524 -1.0571 -0.8158  1.0715
 5723SOL    MW422666   2.092   3.594   2.526 -0.5592  0.0791  0.3206
 5724SOL     OW22667   1.359   0.264   5.841  0.9589  0.0082 -0.3466
 5724SOL    HW222668   1.344   0.181   5.795 -0.0335 -0.4494  0.7250
 5724SOL    HW322669   1.399   0.321   5.776 -0.2616 -0.6445 -1.7401
 5724SOL    MW422670   1.362   0.261   5.826  0.6669 -0.1383 -0.3891
 5725SOL     OW22671   4.663   6.040   1.069  0.6628 -0.1500 -0.1908
 5725SOL    HW222672   4.709   5.976   1.014 -0.3116 -0.3144 -0.8363
 5725SOL    HW322673   4.579   5.999   1.088  1.3548 -0.5624  2.3342
 5725SOL    MW422674   4.658   6.026   1.064  0.6255 -0.2261  0.0572
 5726SOL     OW22675   0.176   6.088   1.376  0.0984 -0.2056  0.2558
 5726SOL    HW222676   0.220   6.122   1.299  0.4307 -1.4898 -0.1431
 5726SOL    HW322677   0.097   6.142   1.384  1.9938  2.6550  1.4325
 5726SOL    MW422678   0.171   6.100   1.367  0.3923  0.0024  0.3585
 5727SOL     OW22679   1.835   2.656   5.498 -0.0930  0.3306 -0.3537
 5727SOL    HW222680   1.806   2.566   5.509 -0.8143  0.5610 -0.3196
 5727SOL    HW322681   1.895   2.653   5.423  2.0720 -0.6424  1.2808
 5727SOL    MW422682   1.839   2.644   5.490  0.0975  0.2326 -0.1335
 5728SOL     OW22683   1.530   6.227   3.670 -0.2546 -0.9634 -0.5833
 5728SOL    HW222684   1.435   6.226   3.664 -0.3080 -3.3958 -0.0476
 5728SOL    HW322685   1.549   6.214   3.763  0.6311  0.4277 -0.5410
 5728SOL    MW422686   1.520   6.225   3.681 -0.1448 -1.1008 -0.5071
 5729SOL     OW22687   1.440   1.216   4.923  0.1831  0.0333  0.4588
 5729SOL    HW222688   1.524   1.202   4.966  0.8391 -2.0648 -1.3240
 5729SOL    HW322689   1.375   1.187   4.986  0.8861  0.1802  1.2683
 5729SOL    MW422690   1.442   1.210   4.937  0.3624 -0.2241  0.3304
 5730SOL     OW22691   3.009   3.300   1.580  0.6583 -0.1867  0.0208
 5730SOL    HW222692   2.919   3.305   1.614  0.3889 -2.4072 -0.2191
 5730SOL    HW322693   2.999   3.310   1.485  0.7528  0.1083  0.0389
 5730SOL    MW422694   2.996   3.302   1.572  0.6352 -0.4408 -0.0085
 5731SOL     OW22695   0.370   3.685   4.102  0.4841 -0.0277 -0.1126
 5731SOL    HW222696   0.393   3.604   4.057  1.0525 -0.4103  0.8268
 5731SOL    HW322697   0.439   3.746   4.078  0.1345  0.1423 -0.7051
 5731SOL    MW422698   0.382   3.682   4.093  0.5130 -0.0558 -0.0668
 5732SOL     OW22699   2.090   1.222   0.404  0.5889 -0.4420 -0.1559
 5732SOL    HW222700   2.118   1.312   0.386  1.4120 -0.4936  0.7773
 5732SOL    HW322701   2.024   1.204   0.338  1.3478  0.3962 -1.1848
 5732SOL    MW422702   2.085   1.231   0.393  0.7976 -0.3382 -0.1686
 5733SOL     OW22703   0.184   2.944   4.124 -0.2204 -0.1601  0.5333
 5733SOL    HW222704   0.142   2.899   4.198  0.5098  0.3653  1.2926
 5733SOL    HW322705   0.246   2.879   4.090 -1.5769 -0.9300 -0.5780
 5733SOL    MW422706   0.187   2.929   4.130 -0.3030 -0.1924  0.4868
 5734SOL     OW22707   6.290   0.752   0.487 -0.0828 -0.2781 -0.0035
 5734SOL    HW222708   6.222   0.688   0.464  0.0379 -0.5823  0.4687
 5734SOL    HW322709   6.251   0.807   0.554 -1.1131  1.8317 -2.1789
 5734SOL    MW422710   6.276   0.750   0.493 -0.2028 -0.0399 -0.2283
 5735SOL     OW22711   2.850   3.603   5.452  0.0879 -0.5466  0.2124
 5735SOL    HW222712   2.838   3.682   5.398  1.7605 -0.8557 -0.6691
 5735SOL    HW322713   2.939   3.610   5.486 -1.2420  0.2373  4.0564
 5735SOL    MW422714   2.860   3.615   5.449  0.1332 -0.4840  0.6033
 5736SOL     OW22715   5.054   6.363   4.357 -0.1357 -0.7181  0.1462
 5736SOL    HW222716   5.013   6.372   4.271  0.2249  0.4519  0.0821
 5736SOL    HW322717   5.012   6.430   4.411  2.3571  1.2539 -0.1957
 5736SOL    MW422718   5.043   6.373   4.353  0.2408 -0.3035  0.0926
 5737SOL     OW22719   3.420   1.575   3.232  0.1954  0.0642  0.0207
 5737SOL    HW222720   3.366   1.636   3.283  0.2492 -0.9265  1.2897
 5737SOL    HW322721   3.481   1.538   3.295  1.0986 -0.2703 -1.0245
 5737SOL    MW422722   3.421   1.578   3.247  0.3217 -0.1107  0.0502
 5738SOL     OW22723   2.488   3.011   5.411  0.8775  0.1391  0.1411
 5738SOL    HW222724   2.546   3.036   5.483 -0.3031  1.9451  0.5308
 5738SOL    HW322725   2.547   2.979   5.343  2.7375  4.2367 -0.4873
 5738SOL    MW422726   2.503   3.010   5.412  0.9671  0.9180  0.1096
 5739SOL     OW22727   1.445   5.674   5.008  0.2975 -0.9700 -0.6317
 5739SOL    HW222728   1.416   5.632   4.927  1.0413 -2.5658 -0.1211
 5739SOL    HW322729   1.401   5.759   5.009 -0.1484 -1.1469 -2.4287
 5739SOL    MW422730   1.436   5.680   4.998  0.3368 -1.2038 -0.8014
 5740SOL     OW22731   1.293   5.868   4.602  0.0162 -0.1856  0.5163
 5740SOL    HW222732   1.369   5.813   4.619  0.7035  0.4958 -0.2783
 5740SOL    HW322733   1.242   5.864   4.683  0.8599 -0.7102  1.0345
 5740SOL    MW422734   1.296   5.860   4.615  0.2182 -0.1649  0.4798
 5741SOL     OW22735   1.741   1.648   3.362 -0.1360 -0.6144  0.2631
 5741SOL    HW222736   1.734   1.612   3.450 -0.8764  0.4242  0.6404
 5741SOL    HW322737   1.654   1.682   3.342  0.5047  0.8647 -0.1143
 5741SOL    MW422738   1.729   1.648   3.371 -0.1492 -0.2822  0.2631
 5742SOL     OW22739   5.653   3.549   5.802  0.4085 -0.0886 -0.4059
 5742SOL    HW222740   5.661   3.568   5.896  0.4915  1.2567 -0.6640
 5742SOL    HW322741   5.635   3.455   5.798  0.3352 -0.1535  0.9587
 5742SOL    MW422742   5.652   3.539   5.814  0.4098  0.0803 -0.2599
 5743SOL     OW22743   4.883   4.097   5.725 -0.5597 -0.4183  0.3031
 5743SOL    HW222744   4.902   4.162   5.657 -0.6681 -0.2045  0.4756
 5743SOL    HW322745   4.949   4.111   5.792  0.3229 -1.4615 -0.3197
 5743SOL    MW422746   4.894   4.107   5.725 -0.4576 -0.5278  0.2437
 5744SOL     OW22747   2.746   4.546   3.339 -0.4002 -0.6575 -0.2441
 5744SOL    HW222748   2.651   4.541   3.346 -0.5921  2.6897  0.9843
 5744SOL    HW322749   2.763   4.549   3.244 -1.5806 -0.5027 -0.4624
 5744SOL    MW422750   2.736   4.546   3.327 -0.5813 -0.1954 -0.1109
 5745SOL     OW22751   2.591   2.724   3.960  0.2678  0.0276 -0.4458
 5745SOL    HW222752   2.673   2.688   3.994 -0.7000  0.4928  2.6978
 5745SOL    HW322753   2.544   2.648   3.925  0.1081 -1.1434  2.0750
 5745SOL    MW422754   2.595   2.709   3.960  0.1190 -0.0655  0.3015
 5746SOL     OW22755   1.327   5.949   5.242 -0.3325 -0.0275  0.4932
 5746SOL    HW222756   1.418   5.965   5.265  0.3928  0.0823 -2.1699
 5746SOL    HW322757   1.277   5.988   5.314  1.6035  4.0505 -0.0944
 5746SOL    MW422758   1.332   5.956   5.255  0.0187  0.5250  0.0643
 5747SOL     OW22759   5.988   5.590   4.362 -0.2386 -0.5298 -0.2874
 5747SOL    HW222760   6.076   5.627   4.360 -0.1388 -0.7115  0.2851
 5747SOL    HW322761   5.989   5.532   4.439  0.0742 -2.8584 -1.9522
 5747SOL    MW422762   6.000   5.587   4.372 -0.1842 -0.8610 -0.4315
 5748SOL     OW22763   1.855   3.858   0.111 -0.6071  0.4284  0.2863
 5748SOL    HW222764   1.762   3.835   0.117 -0.1810 -1.7958 -0.8982
 5748SOL    HW322765   1.895   3.819   0.189 -0.6668  1.5697  0.9092
 5748SOL    MW422766   1.848   3.850   0.122 -0.5588  0.2855  0.2122
 5749SOL     OW22767   0.809   5.551   1.656 -0.3207 -0.1190 -0.3629
 5749SOL    HW222768   0.809   5.466   1.612  0.0547 -0.2264 -0.1649
 5749SOL    HW322769   0.720   5.584   1.646 -1.5054 -2.0481  2.4627
 5749SOL    MW422770   0.798   5.545   1.649 -0.4275 -0.3877  0.0360
 5750SOL     OW22771   0.793   1.367   4.544 -0.1031  0.1790 -0.1837
 5750SOL    HW222772   0.708   1.355   4.502 -0.4491 -0.8950  0.7849
 5750SOL    HW322773   0.854   1.317   4.490 -0.3870 -0.4318  0.0507
 5750SOL    MW422774   0.790   1.359   4.531 -0.1862 -0.0433 -0.0250
 5751SOL     OW22775   1.709   1.137   1.343  0.2820  0.1915 -0.0136
 5751SOL    HW222776   1.626   1.166   1.381 -1.2104 -0.2426 -2.7220
 5751SOL    HW322777   1.728   1.200   1.274  1.0324 -0.9672 -0.8990
 5751SOL    MW422778   1.701   1.149   1.339  0.1841 -0.0187 -0.4878
 5752SOL     OW22779   0.332   1.988   5.805 -0.4893  0.4674  0.0147
 5752SOL    HW222780   0.407   2.016   5.858 -1.8794  2.3924  1.1119
 5752SOL    HW322781   0.262   1.973   5.869 -1.7795  1.3156 -1.1238
 5752SOL    MW422782   0.333   1.990   5.821 -0.8430  0.8333  0.0092
 5753SOL     OW22783   1.944   1.876   4.627 -0.7374 -0.2057  0.2425
 5753SOL    HW222784   1.982   1.959   4.599 -1.9422  0.3667  0.2363
 5753SOL    HW322785   1.952   1.877   4.722 -2.8557  1.0455  0.4778
 5753SOL    MW422786   1.950   1.887   4.636 -1.1759  0.0349  0.2727
 5754SOL     OW22787   3.715   3.880   4.496 -0.1455 -0.2004 -0.3276
 5754SOL    HW222788   3.630   3.891   4.540 -1.0964 -0.6164 -1.9804
 5754SOL    HW322789   3.751   3.799   4.534 -0.0634  0.4418  1.0115
 5754SOL    MW422790   3.708   3.870   4.507 -0.2601 -0.1706 -0.3690
 5755SOL     OW22791   2.032   2.670   3.267  0.3596  0.3865  0.4961
 5755SOL    HW222792   1.964   2.687   3.332  0.2252  0.0391  0.4462
 5755SOL    HW322793   2.091   2.745   3.275  0.3795  0.3200  1.0639
 5755SOL    MW422794   2.031   2.682   3.277  0.3445  0.3319  0.5645
 5756SOL     OW22795   2.446   4.473   6.169 -0.1598  0.2710 -0.3137
 5756SOL    HW222796   2.428   4.530   6.094 -0.3594 -0.7075 -1.0343
 5756SOL    HW322797   2.419   4.524   6.245  1.9946  2.1336 -0.6849
 5756SOL    MW422798   2.440   4.487   6.169  0.0981  0.3876 -0.4578
 5757SOL     OW22799   1.025   2.517   1.853  0.0858 -0.0332  0.1598
 5757SOL    HW222800   0.993   2.503   1.942 -1.7565 -0.3359 -0.4975
 5757SOL    HW322801   1.012   2.432   1.810  0.8672  0.1329 -0.4216
 5757SOL    MW422802   1.019   2.504   1.859 -0.0542 -0.0512 -0.0036
 5758SOL     OW22803   0.766   5.352   4.173  0.2929 -0.0967 -0.0308
 5758SOL    HW222804   0.681   5.308   4.176  0.0954  0.2143 -0.8256
 5758SOL    HW322805   0.792   5.348   4.081  0.4792  1.0361 -0.0473
 5758SOL    MW422806   0.758   5.346   4.161  0.2914  0.0938 -0.1379
 5759SOL     OW22807   0.660   4.386   5.775 -1.1017 -0.5005  0.2928
 5759SOL    HW222808   0.612   4.305   5.797  0.9656 -1.5208  1.3039
 5759SOL    HW322809   0.693   4.371   5.687 -1.3784 -0.4063  0.1700
 5759SOL    MW422810   0.658   4.373   5.766 -0.8655 -0.6226  0.4100
 5760SOL     OW22811   6.124   0.829   1.342 -0.0065 -0.0464 -0.2121
 5760SOL    HW222812   6.071   0.906   1.319  0.7318  0.7235  0.5612
 5760SOL    HW322813   6.209   0.866   1.366  0.3250 -1.1063  0.2773
 5760SOL    MW422814   6.128   0.844   1.342  0.1347 -0.0847 -0.0455
 5761SOL     OW22815   5.302   3.753   4.246 -0.2245 -0.8290 -0.0453
 5761SOL    HW222816   5.370   3.814   4.276 -0.3860  0.4177 -2.0574
 5761SOL    HW322817   5.225   3.808   4.232 -0.8733 -1.7914 -0.3273
 5761SOL    MW422818   5.301   3.768   4.248 -0.3314 -0.7915 -0.3480
 5762SOL     OW22819   4.942   0.522   4.981 -0.3170 -0.4263  0.5223
 5762SOL    HW222820   4.951   0.615   4.958  2.8090 -0.7927 -0.2903
 5762SOL    HW322821   4.921   0.479   4.899 -0.2685 -0.5860  0.5942
 5762SOL    MW422822   4.941   0.529   4.967  0.1018 -0.4957  0.4246
 5763SOL     OW22823   5.311   5.025   0.350  0.3830  0.5088 -0.0425
 5763SOL    HW222824   5.261   5.019   0.269 -2.5081  2.0719  1.4478
 5763SOL    HW322825   5.280   5.106   0.391  2.2517  0.1656  2.2904
 5763SOL    MW422826   5.300   5.035   0.345  0.2481  0.6698  0.4619
 5764SOL     OW22827   4.420   1.974   0.018 -0.2835  0.2237  0.1203
 5764SOL    HW222828   4.469   2.022   0.085  0.2434 -1.1989  0.7900
 5764SOL    HW322829   4.476   1.977  -0.059  0.1422 -0.0295  0.4131
 5764SOL    MW422830   4.434   1.981   0.017 -0.1578  0.0026  0.2473
 5765SOL     OW22831   4.397   5.460   6.323 -0.1056  0.6220 -0.2532
 5765SOL    HW222832   4.366   5.497   6.240  0.2320 -1.9413 -1.6235
 5765SOL    HW322833   4.476   5.509   6.343  0.2262  0.8024 -1.8824
 5765SOL    MW422834   4.403   5.471   6.314 -0.0173  0.3076 -0.6490
 5766SOL     OW22835   2.955   0.729   1.809  0.1570 -0.2059  0.1308
 5766SOL    HW222836   2.962   0.818   1.776  0.5504 -0.7486 -1.3488
 5766SOL    HW322837   3.045   0.696   1.808  0.1032 -0.4278  1.2606
 5766SOL    MW422838   2.968   0.736   1.805  0.2018 -0.3068  0.0846
 5767SOL     OW22839   1.620   3.267   0.241  0.1841  0.3174  0.2362
 5767SOL    HW222840   1.612   3.307   0.155 -0.2521  0.7444  0.4651
 5767SOL    HW322841   1.599   3.175   0.227 -1.1879  0.6229  0.0916
 5767SOL    MW422842   1.616   3.260   0.228 -0.0545  0.4140  0.2473
 5768SOL     OW22843   1.465   6.160   6.220 -0.6125 -0.3328 -0.5746
 5768SOL    HW222844   1.538   6.099   6.209  0.6505  0.5476  2.0806
 5768SOL    HW322845   1.392   6.106   6.250 -0.5383 -0.9638 -1.4948
 5768SOL    MW422846   1.465   6.145   6.222 -0.4361 -0.2999 -0.3457
 5769SOL     OW22847   0.870   2.462   3.035 -0.2317  0.3020 -0.2041
 5769SOL    HW222848   0.932   2.517   2.986 -0.1690  0.4411  0.0320
 5769SOL    HW322849   0.883   2.486   3.126  0.3960 -0.7078 -0.0105
 5769SOL    MW422850   0.880   2.472   3.040 -0.1406  0.1871 -0.1474
 5770SOL     OW22851   2.484   1.705   2.387 -0.4691 -0.5156  0.2705
 5770SOL    HW222852   2.552   1.772   2.388 -0.0393 -0.9311 -0.3220
 5770SOL    HW322853   2.528   1.626   2.418 -1.2154 -0.3214  1.9251
 5770SOL    MW422854   2.498   1.703   2.391 -0.5109 -0.5448  0.4106
 5771SOL     OW22855   2.710   1.781   3.726 -0.6054  0.1151  0.7617
 5771SOL    HW222856   2.679   1.691   3.716 -0.8601  0.1923  0.8454
 5771SOL    HW322857   2.635   1.828   3.762 -0.8380  0.5889 -0.2931
 5771SOL    MW422858   2.696   1.775   3.729 -0.6697  0.1878  0.6336
 5772SOL     OW22859   1.479   4.171   1.798 -0.3845 -0.2610  0.6496
 5772SOL    HW222860   1.484   4.110   1.872 -0.3821 -1.1319 -0.0469
 5772SOL    HW322861   1.456   4.116   1.724 -1.3559  0.7421  0.1762
 5772SOL    MW422862   1.476   4.156   1.798 -0.5123 -0.2435  0.4953
 5773SOL     OW22863   4.870   1.045   0.780  0.5696  0.0820 -0.7088
 5773SOL    HW222864   4.931   1.118   0.792  0.1887  0.0152  2.1572
 5773SOL    HW322865   4.785   1.080   0.805  0.5811 -1.5941  2.0597
 5773SOL    MW422866   4.867   1.059   0.785  0.5209 -0.1479  0.0346
 5774SOL     OW22867   2.570   4.222   4.359  0.4381  0.4633  0.2326
 5774SOL    HW222868   2.519   4.197   4.436  0.0141  0.1684 -0.1418
 5774SOL    HW322869   2.645   4.270   4.395  0.5431 -0.1643  0.8605
 5774SOL    MW422870   2.573   4.225   4.374  0.3960  0.3416  0.2661
 5775SOL     OW22871   3.614   2.029   3.184 -0.2195  0.0131  0.0419
 5775SOL    HW222872   3.620   1.983   3.268 -1.4168 -0.2870 -0.0104
 5775SOL    HW322873   3.619   2.122   3.208 -2.3048  0.0263  0.7056
 5775SOL    MW422874   3.615   2.036   3.198 -0.6526 -0.0247  0.1226
 5776SOL     OW22875   5.742   0.020   1.779 -0.3685 -0.0205  0.0741
 5776SOL    HW222876   5.723  -0.027   1.698 -0.8615  0.2611  0.0228
 5776SOL    HW322877   5.784   0.101   1.751 -0.6572  0.1356  0.0931
 5776SOL    MW422878   5.745   0.024   1.765 -0.4717  0.0372  0.0699
 5777SOL     OW22879   3.325   1.096   0.096  0.5077 -0.3358  0.2419
 5777SOL    HW222880   3.291   1.110   0.184 -1.4613 -0.3232 -0.4778
 5777SOL    HW322881   3.360   1.007   0.097  1.3313 -0.0155  1.2687
 5777SOL    MW422882   3.325   1.086   0.108  0.3566 -0.2918  0.2824
 5778SOL     OW22883   1.619   0.533   3.945 -0.5700  0.3262  0.5359
 5778SOL    HW222884   1.618   0.438   3.955 -2.8106  0.3427  0.9955
 5778SOL    HW322885   1.677   0.549   3.871 -1.3057 -1.5282 -0.5148
 5778SOL    MW422886   1.627   0.523   3.937 -0.9627  0.0837  0.4579
 5779SOL     OW22887   2.876   4.952   5.385  0.0150  0.1442  0.5944
 5779SOL    HW222888   2.951   4.903   5.418 -0.3870 -1.6319 -0.9487
 5779SOL    HW322889   2.816   4.958   5.459  0.7247 -0.3851  1.2221
 5779SOL    MW422890   2.878   4.947   5.399  0.0556 -0.1599  0.4736
 5780SOL     OW22891   4.185   1.770   3.507 -0.1617 -0.4402 -0.2873
 5780SOL    HW222892   4.197   1.776   3.602  0.8891  1.1940 -0.4912
 5780SOL    HW322893   4.098   1.730   3.497 -0.5521 -0.0954  1.3613
 5780SOL    MW422894   4.175   1.766   3.518 -0.0746 -0.1791 -0.0967
 5781SOL     OW22895   0.315   1.957   5.385 -0.6489 -0.1306  0.3541
 5781SOL    HW222896   0.303   1.991   5.296 -1.8179  0.0402  0.5705
 5781SOL    HW322897   0.235   1.981   5.431  0.6345  1.2809  1.9468
 5781SOL    MW422898   0.303   1.965   5.379 -0.6338  0.0781  0.5928
 5782SOL     OW22899   6.229   3.266   4.003  0.2285 -0.0970  0.7505
 5782SOL    HW222900   6.272   3.181   4.012  1.4840  0.4172 -0.0914
 5782SOL    HW322901   6.163   3.253   3.936  1.0231 -0.2228 -0.0342
 5782SOL    MW422902   6.226   3.253   3.996  0.4990 -0.0458  0.5359
 5783SOL     OW22903   1.800   3.258   2.948  0.2530 -0.3426 -0.4313
 5783SOL    HW222904   1.735   3.265   2.878  1.7084 -1.0694 -1.9145
 5783SOL    HW322905   1.849   3.340   2.943 -0.9937  0.5707  1.2272
 5783SOL    MW422906   1.797   3.270   2.938  0.2806 -0.3180 -0.4081
 5784SOL     OW22907   5.845   3.355   0.654  0.0223  0.1408  0.0724
 5784SOL    HW222908   5.939   3.337   0.660  0.0954  0.7732  1.5112
 5784SOL    HW322909   5.807   3.279   0.611  1.4580  0.8735 -2.7168
 5784SOL    MW422910   5.852   3.343   0.649  0.2214  0.3209 -0.1058
 5785SOL     OW22911   0.756   6.422   0.595  0.7168  0.7065  0.5490
 5785SOL    HW222912   0.831   6.421   0.655  1.4388  0.2535 -0.3320
 5785SOL    HW322913   0.714   6.337   0.608  0.6550  0.7589  0.6863
 5785SOL    MW422914   0.760   6.411   0.605  0.8039  0.6537  0.4509
 5786SOL     OW22915   5.215   5.346   4.226 -0.4643 -0.5956  0.0470
 5786SOL    HW222916   5.120   5.347   4.217 -0.5859 -0.7931  1.1515
 5786SOL    HW322917   5.230   5.324   4.318  0.6765 -3.0790 -0.6386
 5786SOL    MW422918   5.205   5.343   4.237 -0.3298 -0.9493  0.1023
 5787SOL     OW22919   0.598   1.635   2.910 -0.3033  0.4015 -0.0641
 5787SOL    HW222920   0.573   1.726   2.927  0.9767  0.5022  1.4508
 5787SOL    HW322921   0.680   1.641   2.861  0.4260  0.0727  1.0966
 5787SOL    MW422922   0.606   1.648   2.906 -0.0382  0.3714  0.2889
 5788SOL     OW22923   5.866   1.559   3.371  0.1619 -0.6679  0.0997
 5788SOL    HW222924   5.879   1.495   3.300 -1.3809  0.8545 -1.6830
 5788SOL    HW322925   5.794   1.522   3.423 -0.9680 -0.2942 -1.1299
 5788SOL    MW422926   5.858   1.545   3.368 -0.1908 -0.4177 -0.2977
 5789SOL     OW22927   3.910   0.396   5.065  0.2762  0.2502 -0.4453
 5789SOL    HW222928   3.932   0.477   5.112  1.9758  0.2012 -1.1079
 5789SOL    HW322929   3.910   0.329   5.133  0.1273  0.5853 -0.1051
 5789SOL    MW422930   3.913   0.398   5.080  0.4808  0.2880 -0.4878
 5790SOL     OW22931   3.849   2.981   1.456 -0.0471  0.0886 -0.6944
 5790SOL    HW222932   3.799   2.957   1.534  1.0114  0.7837  0.2347
 5790SOL    HW322933   3.913   3.044   1.488  1.2163 -0.5415 -1.9154
 5790SOL    MW422934   3.851   2.986   1.471  0.2593  0.0972 -0.7329
 5791SOL     OW22935   1.369   3.417   2.344  0.3338 -0.0554  0.0786
 5791SOL    HW222936   1.355   3.426   2.438  2.1734 -2.4220  0.6754
 5791SOL    HW322937   1.291   3.372   2.312  0.3510 -0.5522  0.7295
 5791SOL    MW422938   1.357   3.413   2.352  0.5788 -0.4332  0.2432
 5792SOL     OW22939   3.982   1.302   3.024 -0.1980 -0.7461  0.4264
 5792SOL    HW222940   3.889   1.320   3.012 -0.1031 -0.1391  0.5620
 5792SOL    HW322941   4.002   1.337   3.111  0.3954  0.1091 -0.0459
 5792SOL    MW422942   3.972   1.309   3.034 -0.1072 -0.5532  0.3819
 5793SOL     OW22943   2.625   2.182   0.485 -0.0054  0.2125 -0.9606
 5793SOL    HW222944   2.660   2.174   0.574  0.1988 -2.0694 -1.1832
 5793SOL    HW322945   2.537   2.145   0.491 -0.0649  0.2383 -1.6539
 5793SOL    MW422946   2.618   2.176   0.498  0.0137 -0.0852 -1.0814
 5794SOL     OW22947   0.636   5.347   0.417 -0.2492  0.2704 -0.5365
 5794SOL    HW222948   0.615   5.298   0.337 -2.3708 -0.9207  0.6627
 5794SOL    HW322949   0.568   5.415   0.422  0.2753  0.7728 -0.0900
 5794SOL    MW422950   0.624   5.350   0.407 -0.4599  0.1795 -0.3193
 5795SOL     OW22951   4.425   3.955   5.258 -0.0798 -0.1446  0.1955
 5795SOL    HW222952   4.470   3.873   5.237 -0.7721 -0.3794 -0.3828
 5795SOL    HW322953   4.495   4.013   5.288  0.1468 -1.7969  3.3777
 5795SOL    MW422954   4.440   3.952   5.259 -0.1413 -0.3936  0.5390
 5796SOL     OW22955   2.615   0.246   1.868 -0.1305 -0.3671 -0.2705
 5796SOL    HW222956   2.561   0.241   1.947  0.5618 -0.3954  0.2090
 5796SOL    HW322957   2.701   0.273   1.899  0.5265 -1.6895 -0.8326
 5796SOL    MW422958   2.619   0.249   1.883  0.0475 -0.5453 -0.2814
 5797SOL     OW22959   4.077   5.414   1.383 -0.3253 -0.2366  0.1296
 5797SOL    HW222960   4.077   5.442   1.475  0.6692  0.8519 -0.1871
 5797SOL    HW322961   4.004   5.351   1.378  0.8484 -1.8821  2.1047
 5797SOL    MW422962   4.067   5.409   1.394 -0.0392 -0.3101  0.3484
 5798SOL     OW22963   5.518   3.821   6.057  0.3931  0.0395 -0.4486
 5798SOL    HW222964   5.556   3.873   6.127 -0.6967 -1.4355  1.3317
 5798SOL    HW322965   5.547   3.731   6.075 -2.5966 -0.9150  0.1454
 5798SOL    MW422966   5.527   3.816   6.068 -0.1451 -0.2811 -0.1353
 5799SOL     OW22967   1.016   0.062   4.155 -0.1361 -0.2516  0.3182
 5799SOL    HW222968   0.966   0.131   4.199  0.1244 -0.1495  0.4552
 5799SOL    HW322969   0.951  -0.006   4.135 -0.1548 -0.5446  1.3576
 5799SOL    MW422970   1.001   0.063   4.158 -0.1042 -0.2768  0.4734
 5800SOL     OW22971   0.430   3.413   2.288  0.3016 -0.2091  0.6903
 5800SOL    HW222972   0.392   3.501   2.290 -0.1897 -0.4295  2.2131
 5800SOL    HW322973   0.478   3.410   2.205  0.4988  1.5645  0.6903
 5800SOL    MW422974   0.431   3.425   2.278  0.2628 -0.0042  0.8912
 5801SOL     OW22975   2.466   0.251   2.711  0.0564  0.3903  0.0109
 5801SOL    HW222976   2.521   0.314   2.757  0.5175 -1.3717  2.0131
 5801SOL    HW322977   2.494   0.257   2.620  1.6343  1.4903  0.5239
 5801SOL    MW422978   2.477   0.260   2.705  0.3254  0.3030  0.3428
 5802SOL     OW22979   0.940   5.973   2.922  0.9104 -0.4481 -0.2401
 5802SOL    HW222980   0.924   6.048   2.864  1.9597 -0.8769 -1.1233
 5802SOL    HW322981   1.014   6.001   2.977  2.3435 -1.3363 -1.6143
 5802SOL    MW422982   0.948   5.987   2.922  1.2379 -0.6219 -0.5379
 5803SOL     OW22983   3.051   3.506   0.817  0.1803  0.2080  0.0730
 5803SOL    HW222984   2.993   3.437   0.852  0.0676 -0.0582 -0.6229
 5803SOL    HW322985   3.093   3.543   0.894 -0.5731  0.0861  0.5527
 5803SOL    MW422986   3.049   3.502   0.832  0.0660  0.1568  0.0445
 5804SOL     OW22987   3.720   3.299   3.102 -0.3772 -0.1781  0.2986
 5804SOL    HW222988   3.796   3.255   3.138 -0.6672 -0.0642  1.0640
 5804SOL    HW322989   3.667   3.229   3.065 -0.7423 -0.4693  1.3388
 5804SOL    MW422990   3.723   3.284   3.102 -0.4636 -0.2015  0.5368
 5805SOL     OW22991   2.173   5.644   3.729  0.3951  0.4525  0.2693
 5805SOL    HW222992   2.240   5.632   3.796  0.5565  0.1296  0.0512
 5805SOL    HW322993   2.194   5.580   3.661  0.9544  1.6060 -0.6772
 5805SOL    MW422994   2.184   5.634   3.729  0.4902  0.5621  0.1157
 5806SOL     OW22995   3.220   4.315   6.032 -0.1358 -0.4507  0.6431
 5806SOL    HW222996   3.136   4.356   6.013 -0.1260 -0.5774  0.3214
 5806SOL    HW322997   3.283   4.363   5.978 -0.3428 -1.8766 -0.9455
 5806SOL    MW422998   3.217   4.326   6.022 -0.1618 -0.6556  0.3911
 5807SOL     OW22999   6.122   4.566   1.726  0.3954 -0.2607 -0.2987
 5807SOL    HW223000   6.099   4.480   1.689  0.4400 -0.2548 -0.3385
 5807SOL    HW323001   6.137   4.548   1.819 -0.1349 -0.2039 -0.1980
 5807SOL    MW423002   6.121   4.552   1.733  0.3313 -0.2524 -0.2907
 5808SOL     OW23003   3.184   1.288   2.249 -0.0198  0.8795 -0.2156
 5808SOL    HW223004   3.139   1.211   2.284 -2.7903  2.0498 -0.9571
 5808SOL    HW323005   3.222   1.258   2.167 -2.7162  0.6324 -1.4926
 5808SOL    MW423006   3.183   1.274   2.243 -0.7411  1.0013 -0.4819
 5809SOL     OW23007   3.488   5.830   5.646 -0.0760  0.5185 -0.0357
 5809SOL    HW223008   3.562   5.867   5.597  1.4554 -1.0153  1.0127
 5809SOL    HW323009   3.438   5.907   5.674  0.4657  1.5486 -1.7333
 5809SOL    MW423010   3.491   5.845   5.643  0.1975  0.4521 -0.1214
 5810SOL     OW23011   5.457   1.685   5.423 -0.0440 -0.2279 -0.0993
 5810SOL    HW223012   5.453   1.666   5.329  3.0104 -1.0599 -0.1635
 5810SOL    HW323013   5.484   1.777   5.427  2.0845 -0.7987 -0.1578
 5810SOL    MW423014   5.460   1.694   5.411  0.6398 -0.4130 -0.1155
 5811SOL     OW23015   6.111   3.046   1.555  0.5168  0.5484 -0.6935
 5811SOL    HW223016   6.108   3.110   1.483 -0.7165  1.5014  0.1519
 5811SOL    HW323017   6.132   2.963   1.513  0.1572  1.1495 -2.1231
 5811SOL    MW423018   6.113   3.044   1.540  0.3066  0.7534 -0.7706
 5812SOL     OW23019   1.873   0.399   0.696 -0.3601 -0.0669 -0.0934
 5812SOL    HW223020   1.947   0.379   0.753 -0.6701 -1.1433 -0.0373
 5812SOL    HW323021   1.801   0.417   0.756 -0.7559 -1.4649 -0.1019
 5812SOL    MW423022   1.873   0.399   0.711 -0.4532 -0.3934 -0.0871
 5813SOL     OW23023   0.898   0.997   5.376 -0.0226 -0.1718  0.0669
 5813SOL    HW223024   0.806   0.973   5.381  0.1925 -0.7934  2.6027
 5813SOL    HW323025   0.924   0.975   5.286 -1.9867 -1.2744 -0.2859
 5813SOL    MW423026   0.889   0.991   5.365 -0.2533 -0.3993  0.3550
 5814SOL     OW23027   2.842   5.649   1.925 -0.0141  0.3093 -0.0813
 5814SOL    HW223028   2.811   5.559   1.912  2.6410 -0.6142 -0.7515
 5814SOL    HW323029   2.880   5.648   2.013 -0.6532  1.0148  0.2099
 5814SOL    MW423030   2.843   5.637   1.935  0.2519  0.2805 -0.1313
 5815SOL     OW23031   6.191   0.112   5.114 -0.0174 -0.0206  0.3907
 5815SOL    HW223032   6.158   0.135   5.027  1.0963  0.1255 -0.0203
 5815SOL    HW323033   6.239   0.030   5.100  0.1018 -0.0332  0.8796
 5815SOL    MW423034   6.193   0.104   5.101  0.1453 -0.0030  0.4010
 5816SOL     OW23035   4.342   1.870   2.191 -0.0392 -0.3170 -0.1924
 5816SOL    HW223036   4.337   1.832   2.279 -1.8043 -3.7459 -1.6094
 5816SOL    HW323037   4.260   1.918   2.181  0.3170  0.3722  0.1072
 5816SOL    MW423038   4.330   1.871   2.202 -0.2251 -0.6785 -0.3399
 5817SOL     OW23039   4.900   5.927   0.174 -0.0048  0.3477 -0.5787
 5817SOL    HW223040   4.900   5.995   0.106 -0.2928 -0.2200 -1.1564
 5817SOL    HW323041   4.807   5.917   0.197 -0.2559 -1.4428 -2.1421
 5817SOL    MW423042   4.888   5.935   0.168 -0.0759  0.0366 -0.8612
 5818SOL     OW23043   4.176   4.304   0.709 -0.0789 -0.0622 -0.4182
 5818SOL    HW223044   4.214   4.305   0.798 -3.8695 -0.2189  1.3843
 5818SOL    HW323045   4.166   4.211   0.689 -0.6981 -0.0285 -0.2843
 5818SOL    MW423046   4.180   4.292   0.718 -0.6607 -0.0785 -0.1627
 5819SOL     OW23047   2.715   3.042   0.381  0.3016  0.1713  0.0586
 5819SOL    HW223048   2.713   2.954   0.343  0.0690  0.5126 -0.7202
 5819SOL    HW323049   2.631   3.081   0.356  0.2538  0.5014  0.6986
 5819SOL    MW423050   2.704   3.035   0.373  0.2646  0.2599  0.0403
 5820SOL     OW23051   2.745   3.880   6.189  0.1572  0.0907 -0.1530
 5820SOL    HW223052   2.699   3.964   6.194  0.8986  0.5431 -0.8834
 5820SOL    HW323053   2.680   3.820   6.152 -0.8067 -0.0015  1.5526
 5820SOL    MW423054   2.730   3.883   6.185  0.1279  0.1383 -0.0243
 5821SOL     OW23055   0.277   2.867   3.596  0.3169  0.3730 -0.6553
 5821SOL    HW223056   0.257   2.784   3.637 -1.4259  0.5908 -0.9852
 5821SOL    HW323057   0.282   2.929   3.668  0.5871  0.1693 -0.4981
 5821SOL    MW423058   0.275   2.865   3.611  0.1226  0.3749 -0.6781
 5822SOL     OW23059   1.210   5.235   5.420  0.0037  0.0489 -0.3422
 5822SOL    HW223060   1.286   5.223   5.362 -0.1015 -0.3785 -0.3965
 5822SOL    HW323061   1.145   5.173   5.387 -1.0922  1.7146 -1.4694
 5822SOL    MW423062   1.212   5.225   5.408 -0.1548  0.2123 -0.4981
 5823SOL     OW23063   2.868   5.460   6.317  0.2113  0.0518 -0.3940
 5823SOL    HW223064   2.942   5.511   6.349  0.8096 -0.3306 -1.1197
 5823SOL    HW323065   2.869   5.475   6.222  0.3022 -1.1563 -0.5997
 5823SOL    MW423066   2.878   5.469   6.309  0.3022 -0.1581 -0.5169
 5824SOL     OW23067   0.692   4.765   5.294 -0.4863  0.6244 -0.4110
 5824SOL    HW223068   0.656   4.696   5.238 -1.2768 -0.4203  1.2901
 5824SOL    HW323069   0.779   4.733   5.318 -0.6138  0.4884 -0.1162
 5824SOL    MW423070   0.698   4.751   5.290 -0.6074  0.4686 -0.1477
 5825SOL     OW23071   4.933  -0.004   0.081  0.3208  0.1213 -0.2055
 5825SOL    HW223072   4.977   0.038   0.007  0.9143 -1.3160 -0.6906
 5825SOL    HW323073   4.939   0.061   0.151  2.2471  0.4356 -0.5915
 5825SOL    MW423074   4.940   0.010   0.081  0.6533 -0.0268 -0.3204
 5826SOL     OW23075   1.813   3.895   1.550 -0.3659 -0.1616 -0.3464
 5826SOL    HW223076   1.812   3.987   1.525  1.3893 -0.8969 -3.5747
 5826SOL    HW323077   1.901   3.880   1.585 -1.2210 -0.2998  1.9355
 5826SOL    MW423078   1.825   3.905   1.552 -0.2472 -0.2768 -0.4713
 5827SOL     OW23079   1.466   6.184   2.434 -0.2247 -0.5214  0.3951
 5827SOL    HW223080   1.540   6.123   2.436 -0.8104 -1.3108 -0.8487
 5827SOL    HW323081   1.506   6.271   2.427  0.6126 -0.9999 -1.2855
 5827SOL    MW423082   1.481   6.188   2.433 -0.1915 -0.6887  0.0093
 5828SOL     OW23083   3.421   2.576   1.538  1.0071 -0.1273  0.0245
 5828SOL    HW223084   3.478   2.651   1.520 -1.3149  2.6141  2.8890
 5828SOL    HW323085   3.347   2.587   1.477 -0.4840  1.4728  1.9842
 5828SOL    MW423086   3.419   2.587   1.527  0.5040  0.4455  0.6610
 5829SOL     OW23087   4.301   0.860   3.567  0.2307 -0.0763  0.7041
 5829SOL    HW223088   4.266   0.859   3.478  0.7518 -1.8195  0.4687
 5829SOL    HW323089   4.361   0.935   3.569 -0.4614  0.5161 -0.1217
 5829SOL    MW423090   4.304   0.869   3.556  0.2081 -0.2281  0.5641
 5830SOL     OW23091   5.357   3.272   1.209 -0.4547 -0.0518 -0.0521
 5830SOL    HW223092   5.315   3.244   1.128 -1.0485  0.9447 -0.1093
 5830SOL    HW323093   5.298   3.241   1.278 -0.6926  0.3344 -0.0775
 5830SOL    MW423094   5.343   3.264   1.207 -0.5644  0.1306 -0.0630
 5831SOL     OW23095   2.136   4.906   4.297 -0.3095  0.2350  0.0402
 5831SOL    HW223096   2.058   4.901   4.241 -0.0619  0.7363 -0.3623
 5831SOL    HW323097   2.138   4.997   4.326  0.0511  0.1872  0.1650
 5831SOL    MW423098   2.126   4.917   4.293 -0.2293  0.2949  0.0036
 5832SOL     OW23099   1.274   0.323   2.622 -0.2006  0.0629 -0.2896
 5832SOL    HW223100   1.225   0.318   2.704 -0.2016 -0.4622 -0.3154
 5832SOL    HW323101   1.324   0.404   2.628 -2.5899  1.7069 -1.1286
 5832SOL    MW423102   1.274   0.333   2.634 -0.5159  0.2106 -0.4037
 5833SOL     OW23103   5.632   0.198   2.865  0.0578 -0.2487  0.8488
 5833SOL    HW223104   5.578   0.120   2.855  0.9137 -0.7469 -0.0001
 5833SOL    HW323105   5.679   0.206   2.782  0.9130  0.4508  1.3806
 5833SOL    MW423106   5.631   0.189   2.853  0.2835 -0.2221  0.8070
 5834SOL     OW23107   4.556   3.645   5.346  0.0773  0.3084  0.0186
 5834SOL    HW223108   4.602   3.653   5.263 -0.5275  1.6364 -0.2202
 5834SOL    HW323109   4.592   3.715   5.400  0.9557 -0.9643  1.1377
 5834SOL    MW423110   4.567   3.656   5.342  0.1134  0.3157  0.1348
 5835SOL     OW23111   1.018   2.059   4.791 -0.0356 -0.4353  0.5617
 5835SOL    HW223112   1.078   2.069   4.866  0.5545  0.0912  0.0306
 5835SOL    HW323113   1.047   1.979   4.748 -0.4258 -0.7822  0.9303
 5835SOL    MW423114   1.030   2.050   4.795 -0.0092 -0.4116  0.5403
 5836SOL     OW23115   4.929   5.883   5.380 -0.1818 -0.7556 -0.0209
 5836SOL    HW223116   4.874   5.813   5.345  0.4219 -1.1045 -0.2903
 5836SOL    HW323117   4.879   5.918   5.455 -2.0561  0.7881 -1.8602
 5836SOL    MW423118   4.915   5.879   5.385 -0.3494 -0.5980 -0.2991
 5837SOL     OW23119   2.621   0.521   5.769  0.2315  0.5548  0.0317
 5837SOL    HW223120   2.577   0.437   5.778  0.0723  0.6892  0.5563
 5837SOL    HW323121   2.713   0.499   5.757  0.1862  0.3047  0.1350
 5837SOL    MW423122   2.627   0.507   5.768  0.2045  0.5395  0.1146
 5838SOL     OW23123   0.458   3.385   4.513 -0.2046  0.6080 -0.0252
 5838SOL    HW223124   0.547   3.408   4.486 -0.0376  0.4744  0.4134
 5838SOL    HW323125   0.402   3.432   4.450  0.1822 -1.1523 -1.7775
 5838SOL    MW423126   0.462   3.394   4.501 -0.1315  0.3581 -0.1985
 5839SOL     OW23127   5.324   3.251   1.818  0.2256  0.4356  0.3553
 5839SOL    HW223128   5.233   3.236   1.795 -0.0035  1.2351  0.7016
 5839SOL    HW323129   5.373   3.233   1.738 -0.0875 -1.2735  0.5118
 5839SOL    MW423130   5.318   3.246   1.804  0.1541  0.3156  0.4217
 5840SOL     OW23131   5.333   3.511   6.337 -0.1477  0.1695 -0.2449
 5840SOL    HW223132   5.281   3.587   6.365 -0.7407 -0.5984  0.8257
 5840SOL    HW323133   5.336   3.518   6.242 -1.8281  0.4997 -0.3017
 5840SOL    MW423134   5.327   3.522   6.329 -0.4476  0.1117 -0.1112
 5841SOL     OW23135   4.485   1.591   4.747  0.1713 -0.5221  0.1608
 5841SOL    HW223136   4.508   1.658   4.683  1.1733 -0.6841  0.3283
 5841SOL    HW323137   4.546   1.519   4.729  0.0483 -0.8188  0.8911
 5841SOL    MW423138   4.496   1.590   4.736  0.2873 -0.5826  0.2793
 5842SOL     OW23139   3.593   5.565   2.134 -0.1174  0.0208 -0.2954
 5842SOL    HW223140   3.574   5.546   2.042 -0.2840  1.0399 -0.4846
 5842SOL    HW323141   3.527   5.629   2.159 -1.6242 -2.0249  1.2608
 5842SOL    MW423142   3.582   5.571   2.125 -0.3382 -0.1147 -0.1151
 5843SOL     OW23143   1.920   2.302   1.255  0.2382  0.1177 -0.1203
 5843SOL    HW223144   1.865   2.372   1.220  0.5899 -1.0929 -3.4028
 5843SOL    HW323145   2.009   2.330   1.236  0.4247 -0.7655 -0.5861
 5843SOL    MW423146   1.924   2.315   1.248  0.3092 -0.1585 -0.6148
 5844SOL     OW23147   1.168   2.322   0.929  0.1000 -0.1385  0.5348
 5844SOL    HW223148   1.173   2.334   1.024  0.1257 -1.2513  0.6907
 5844SOL    HW323149   1.246   2.366   0.896  1.7084 -2.2289  1.3296
 5844SOL    MW423150   1.179   2.329   0.937  0.3156 -0.5611  0.6602
 5845SOL     OW23151   4.912   2.830   0.347  0.5456 -0.7393  0.0719
 5845SOL    HW223152   4.944   2.902   0.402 -0.4368  0.3949 -0.7886
 5845SOL    HW323153   4.956   2.842   0.263 -1.8700  0.7604 -1.0802
 5845SOL    MW423154   4.922   2.841   0.343  0.0973 -0.3918 -0.1936
 5846SOL     OW23155   1.918   4.062   2.557  0.4714 -0.1781  0.5762
 5846SOL    HW223156   1.934   4.062   2.462  0.0425  0.0181  0.4981
 5846SOL    HW323157   1.827   4.034   2.565  0.8020 -1.1794  0.9965
 5846SOL    MW423158   1.908   4.058   2.545  0.4584 -0.2843  0.6213
 5847SOL     OW23159   5.734   2.641   0.577 -0.0149  0.2371  0.3815
 5847SOL    HW223160   5.665   2.687   0.624 -1.1859  0.2322 -1.2581
 5847SOL    HW323161   5.693   2.561   0.545  1.6298 -1.3396  2.0061
 5847SOL    MW423162   5.720   2.637   0.579  0.0476  0.0284  0.3795
 5848SOL     OW23163   1.219   3.647   6.112 -0.1813  0.1923  0.2022
 5848SOL    HW223164   1.173   3.599   6.043  1.5141 -2.1657  0.5939
 5848SOL    HW323165   1.292   3.690   6.067 -0.0709  0.0857  0.2809
 5848SOL    MW423166   1.223   3.647   6.097  0.0569 -0.1328  0.2642
 5849SOL     OW23167   1.877   5.703   4.401 -0.4140  0.1580 -0.2341
 5849SOL    HW223168   1.957   5.651   4.412 -0.5037 -0.2766 -1.4341
 5849SOL    HW323169   1.901   5.791   4.430  0.0077 -0.3331  0.9645
 5849SOL    MW423170   1.891   5.708   4.406 -0.3702  0.0358 -0.2343
 5850SOL     OW23171   1.246   5.279   4.149 -0.1928  0.1323 -0.1669
 5850SOL    HW223172   1.165   5.317   4.184 -1.1242  0.3006 -2.3486
 5850SOL    HW323173   1.278   5.222   4.219 -2.1239  0.1648  0.8076
 5850SOL    MW423174   1.240   5.277   4.163 -0.5704  0.1588 -0.3262
 5851SOL     OW23175   5.932   5.874   0.696  0.3438 -0.0745  0.2550
 5851SOL    HW223176   6.024   5.873   0.672  0.5103  0.1093  0.8638
 5851SOL    HW323177   5.895   5.948   0.649  0.2121 -0.9254 -1.0214
 5851SOL    MW423178   5.939   5.884   0.687  0.3484 -0.1625  0.1669
 5852SOL     OW23179   0.620   1.763   4.491  1.1226  0.0014 -0.1965
 5852SOL    HW223180   0.668   1.828   4.440  2.6886 -0.8892  0.0748
 5852SOL    HW323181   0.544   1.741   4.437  0.9037  1.5808 -0.5599
 5852SOL    MW423182   0.616   1.768   4.477  1.3003  0.0923 -0.2086
 5853SOL     OW23183   5.698   3.258   2.690 -0.4866  0.1905 -0.0636
 5853SOL    HW223184   5.721   3.166   2.677  1.6187  0.7316 -0.4658
 5853SOL    HW323185   5.726   3.301   2.609  3.3446  1.9653  1.9764
 5853SOL    MW423186   5.704   3.251   2.678  0.2967  0.4961  0.1525
 5854SOL     OW23187   5.125   2.380   5.691 -0.3172 -0.3770 -0.6664
 5854SOL    HW223188   5.082   2.300   5.664 -0.7023 -0.6362  0.6339
 5854SOL    HW323189   5.064   2.421   5.753 -0.4955  1.3417 -1.9060
 5854SOL    MW423190   5.111   2.375   5.696 -0.3916 -0.1844 -0.6584
 5855SOL     OW23191   5.737   1.099   1.126 -0.4129  0.2586  0.0014
 5855SOL    HW223192   5.656   1.057   1.097  0.2103 -0.0879 -1.3064
 5855SOL    HW323193   5.766   1.045   1.200 -0.5125 -0.6372 -0.5921
 5855SOL    MW423194   5.730   1.086   1.132 -0.3438  0.0947 -0.2495
 5856SOL     OW23195   0.422   1.531   4.890 -0.3009 -0.5223 -0.6453
 5856SOL    HW223196   0.350   1.480   4.927 -0.0194 -1.2228 -1.0477
 5856SOL    HW323197   0.391   1.558   4.804 -0.6029  0.3389 -0.2773
 5856SOL    MW423198   0.409   1.528   4.884 -0.3036 -0.5011 -0.6498
 5857SOL     OW23199   6.372   5.075   1.292  0.5555 -0.6044  0.1555
 5857SOL    HW223200   6.424   5.043   1.366 -0.3993 -0.7316  0.8009
 5857SOL    HW323201   6.290   5.025   1.298  0.2571 -0.2243 -0.6725
 5857SOL    MW423202   6.368   5.064   1.303  0.3902 -0.5710  0.1314
 5858SOL     OW23203   2.691   1.342   0.366  0.2428 -0.1588  0.0562
 5858SOL    HW223204   2.653   1.384   0.289 -0.8633  1.8657  1.6415
 5858SOL    HW323205   2.779   1.317   0.338 -0.0400  0.7649 -1.7811
 5858SOL    MW423206   2.698   1.344   0.352  0.0596  0.2302  0.0230
 5859SOL     OW23207   6.117   0.158   4.282  0.0035  0.1270  0.1891
 5859SOL    HW223208   6.073   0.081   4.316 -1.9610  1.0150 -0.2015
 5859SOL    HW323209   6.171   0.189   4.354  1.9100 -2.3059 -0.0527
 5859SOL    MW423210   6.119   0.152   4.296 -0.0042 -0.0768  0.1057
 5860SOL     OW23211   1.136   1.865   4.654  0.1523  0.0276  0.1836
 5860SOL    HW223212   1.222   1.881   4.694  1.4718 -0.1772 -2.3113
 5860SOL    HW323213   1.114   1.776   4.680  1.0545 -0.1742  0.3000
 5860SOL    MW423214   1.145   1.855   4.663  0.4454 -0.0260 -0.1302
 5861SOL     OW23215   5.501   5.187   5.976  0.1113  0.4467  0.1182
 5861SOL    HW223216   5.515   5.120   5.909 -0.2332  0.4049  0.0823
 5861SOL    HW323217   5.536   5.267   5.937 -0.0246  0.4088 -0.0853
 5861SOL    MW423218   5.507   5.188   5.962  0.0479  0.4361  0.0866
 5862SOL     OW23219   0.763   6.207   3.727  0.0882 -0.7010 -0.2882
 5862SOL    HW223220   0.744   6.148   3.800 -2.5418  1.0592  0.5796
 5862SOL    HW323221   0.705   6.282   3.740  2.2583  1.4630 -2.1362
 5862SOL    MW423222   0.753   6.209   3.738  0.0275 -0.1832 -0.4175
 5863SOL     OW23223   4.632   5.542   5.594  0.3273 -1.2029  0.2576
 5863SOL    HW223224   4.670   5.593   5.522 -2.6943 -1.5426 -1.7251
 5863SOL    HW323225   4.603   5.608   5.657  1.7971 -0.8338  0.5872
 5863SOL    MW423226   4.633   5.558   5.593  0.1226 -1.1990  0.0395
 5864SOL     OW23227   0.862   0.456   4.794  0.1977 -0.6214  0.0990
 5864SOL    HW223228   0.908   0.472   4.712  0.3237  0.8172  0.4128
 5864SOL    HW323229   0.907   0.513   4.857 -0.8688 -0.5412  0.8055
 5864SOL    MW423230   0.874   0.466   4.792  0.0736 -0.4210  0.2336
 5865SOL     OW23231   1.158   2.064   0.832 -0.3156  0.3944  0.3792
 5865SOL    HW223232   1.080   2.022   0.868 -1.3732  0.6938 -1.4632
 5865SOL    HW323233   1.156   2.153   0.869 -1.3643  0.6932 -0.3628
 5865SOL    MW423234   1.148   2.070   0.842 -0.5935  0.4734  0.0382
 5866SOL     OW23235   3.615   4.383   2.049  0.2887  0.1396 -0.5688
 5866SOL    HW223236   3.608   4.472   2.015 -1.2483  1.1454  2.0417
 5866SOL    HW323237   3.624   4.395   2.144  1.9916 -2.4732 -0.3136
 5866SOL    MW423238   3.615   4.397   2.057  0.3106 -0.0725 -0.1907
 5867SOL     OW23239   3.706   5.056   6.227 -0.0155 -0.0743 -0.1479
 5867SOL    HW223240   3.708   4.980   6.284 -0.4149  0.0741  0.0715
 5867SOL    HW323241   3.671   5.023   6.144  1.7200 -0.5459 -0.7202
 5867SOL    MW423242   3.701   5.042   6.223  0.1608 -0.1169 -0.1945
 5868SOL     OW23243   5.801   4.689   6.290  0.1986  0.1508  0.0364
 5868SOL    HW223244   5.860   4.724   6.356  0.2615  1.2412 -0.5636
 5868SOL    HW323245   5.769   4.767   6.243 -2.2359 -0.3033  0.7566
 5868SOL    MW423246   5.804   4.704   6.292 -0.1143  0.2348  0.0523
 5869SOL     OW23247   5.224   4.577   2.312 -0.6013 -0.6422  0.0450
 5869SOL    HW223248   5.260   4.665   2.318 -0.6437 -0.6337  0.1796
 5869SOL    HW323249   5.186   4.572   2.224 -0.3100 -0.6378 -0.0806
 5869SOL    MW423250   5.223   4.588   2.302 -0.5685 -0.6405  0.0462
 5870SOL     OW23251   4.249   1.298   4.250  0.0756 -0.1303  0.1413
 5870SOL    HW223252   4.237   1.205   4.232 -2.0568  0.3700 -1.3178
 5870SOL    HW323253   4.270   1.337   4.166 -1.1540  0.9907  0.3239
 5870SOL    MW423254   4.250   1.290   4.237 -0.3680  0.0836 -0.0271
 5871SOL     OW23255   1.277   5.281   6.308 -0.4150  0.5605 -0.0435
 5871SOL    HW223256   1.329   5.361   6.300 -1.5280  1.2042 -1.2687
 5871SOL    HW323257   1.336   5.210   6.281  0.4348  1.0149  0.5940
 5871SOL    MW423258   1.291   5.282   6.303 -0.4497  0.7053 -0.1210
 5872SOL     OW23259   2.781   4.368   1.308 -0.1315 -0.1744  0.0934
 5872SOL    HW223260   2.699   4.324   1.287 -1.0883  1.3107  0.5775
 5872SOL    HW323261   2.756   4.439   1.367  0.9933  2.4384 -2.3294
 5872SOL    MW423262   2.767   4.371   1.313 -0.1094  0.3662 -0.1624
 5873SOL     OW23263   2.002   4.088   2.293  0.3435  0.5957  0.3740
 5873SOL    HW223264   1.986   4.144   2.217 -1.8034 -0.3280  0.0476
 5873SOL    HW323265   2.061   4.020   2.260 -0.5684  0.2024 -0.5129
 5873SOL    MW423266   2.007   4.086   2.278 -0.0601  0.4219  0.2139
 5874SOL     OW23267   3.504   6.368   0.402  0.2989  0.3106  0.0227
 5874SOL    HW223268   3.476   6.280   0.377  0.7958 -0.3144  1.5574
 5874SOL    HW323269   3.428   6.406   0.446 -0.4025  1.2213 -1.8647
 5874SOL    MW423270   3.491   6.362   0.404  0.2719  0.3483 -0.0238
 5875SOL     OW23271   5.074   3.851   4.624  0.3963 -0.6477  0.5120
 5875SOL    HW223272   5.079   3.945   4.607 -0.3431 -0.7477 -0.3455
 5875SOL    HW323273   5.159   3.829   4.662  0.6425  0.3364  0.5572
 5875SOL    MW423274   5.086   3.860   4.626  0.3312 -0.5311  0.4048
 5876SOL     OW23275   4.328   3.730   0.450  0.1315  0.1941  0.1657
 5876SOL    HW223276   4.238   3.736   0.482  0.1136  2.0239 -0.1305
 5876SOL    HW323277   4.371   3.669   0.510 -1.2855 -0.7200  0.3054
 5876SOL    MW423278   4.321   3.723   0.462 -0.0578  0.3149  0.1451
 5877SOL     OW23279   1.376   3.362   5.887 -0.1146  0.1662 -0.2279
 5877SOL    HW223280   1.360   3.288   5.945 -0.2889  1.3305  1.2445
 5877SOL    HW323281   1.296   3.369   5.834 -0.3186 -0.3366  0.0073
 5877SOL    MW423282   1.364   3.353   5.887 -0.1645  0.2535 -0.0026
 5878SOL     OW23283   1.427   4.325   0.580 -0.1258 -0.3294 -0.0057
 5878SOL    HW223284   1.461   4.278   0.655 -0.3202  0.2719  0.4655
 5878SOL    HW323285   1.490   4.395   0.564  0.3459 -0.9340 -0.9193
 5878SOL    MW423286   1.440   4.328   0.588 -0.0892 -0.3299 -0.0641
 5879SOL     OW23287   2.137   0.534   4.640  0.2804 -0.6444 -0.5303
 5879SOL    HW223288   2.232   0.533   4.650  0.1740 -1.8010  0.6571
 5879SOL    HW323289   2.110   0.446   4.665 -1.2292  0.1067  0.6087
 5879SOL    MW423290   2.146   0.523   4.645  0.0672 -0.6979 -0.2234
 5880SOL     OW23291   0.922   0.932   1.221 -0.0025  0.7966  0.3440
 5880SOL    HW223292   1.011   0.953   1.195 -0.3056  0.4153 -1.0660
 5880SOL    HW323293   0.903   0.992   1.293  1.1341  1.3678  0.1785
 5880SOL    MW423294   0.931   0.943   1.227  0.1075  0.8217  0.1361
 5881SOL     OW23295   3.133   5.912   2.038 -0.0109  0.2657 -0.1135
 5881SOL    HW223296   3.137   5.838   1.978 -1.3123 -1.5865  1.9555
 5881SOL    HW323297   3.059   5.893   2.096  2.2435  0.9408  3.2705
 5881SOL    MW423298   3.124   5.900   2.038  0.1149  0.1104  0.6060
 5882SOL     OW23299   5.470   3.573   1.581 -0.0126  0.0005  0.4957
 5882SOL    HW223300   5.534   3.597   1.513 -1.2470  0.2183 -0.6257
 5882SOL    HW323301   5.524   3.546   1.656  1.3984  0.8775 -0.1554
 5882SOL    MW423302   5.486   3.573   1.582  0.0107  0.1450  0.2618
 5883SOL     OW23303   2.910   2.699   5.018 -0.0414  0.6131  0.3576
 5883SOL    HW223304   2.882   2.648   5.093 -0.5342 -1.8454 -1.3646
 5883SOL    HW323305   2.997   2.664   4.996 -0.3859  0.4663 -0.8630
 5883SOL    MW423306   2.918   2.688   5.025 -0.1519  0.2694 -0.0307
 5884SOL     OW23307   3.248   5.590   2.086  0.2106 -0.3120  0.5923
 5884SOL    HW223308   3.291   5.655   2.142 -0.3172  1.5000 -1.0107
 5884SOL    HW323309   3.163   5.574   2.129 -0.1073  0.9005  0.4594
 5884SOL    MW423310   3.242   5.596   2.099  0.0990  0.0871  0.3633
 5885SOL     OW23311   1.091   0.804   2.244 -0.0018 -0.6042  0.6077
 5885SOL    HW223312   1.029   0.875   2.262 -0.1602 -1.0090  1.6811
 5885SOL    HW323313   1.071   0.737   2.308  1.8639 -0.5554  1.2981
 5885SOL    MW423314   1.080   0.805   2.255  0.2235 -0.6512  0.8404
 5886SOL     OW23315   1.895   6.118   4.255 -0.1305  0.0428 -0.0221
 5886SOL    HW223316   1.979   6.141   4.215 -1.6922  1.8716 -2.5458
 5886SOL    HW323317   1.871   6.035   4.214 -1.1140  1.2637 -2.0397
 5886SOL    MW423318   1.903   6.110   4.244 -0.4663  0.4451 -0.6213
 5887SOL     OW23319   2.465   5.187   0.287 -0.3433 -0.7555 -0.4665
 5887SOL    HW223320   2.411   5.261   0.260  2.6342  0.9368 -2.3090
 5887SOL    HW323321   2.428   5.111   0.242 -0.4222  0.5854 -2.7973
 5887SOL    MW423322   2.453   5.187   0.278  0.0391 -0.3553 -1.0171
 5888SOL     OW23323   5.255   2.004   3.166  0.2738  0.0568 -0.3527
 5888SOL    HW223324   5.188   2.059   3.126 -0.6861 -1.8774 -1.5436
 5888SOL    HW323325   5.238   2.009   3.260 -1.4794 -0.2753 -0.6218
 5888SOL    MW423326   5.244   2.012   3.173 -0.0841 -0.2422 -0.5454
 5889SOL     OW23327   3.278   2.783   2.489 -0.7253  0.0065 -0.0556
 5889SOL    HW223328   3.232   2.846   2.544 -1.0801 -0.9599  0.7621
 5889SOL    HW323329   3.320   2.837   2.421 -0.3728  1.2023  1.0827
 5889SOL    MW423330   3.278   2.799   2.487 -0.7256  0.0368  0.2025
 5890SOL     OW23331   2.630   0.464   2.079  0.1916  0.6829 -0.2607
 5890SOL    HW223332   2.546   0.453   2.035 -0.6588  1.6396  1.0486
 5890SOL    HW323333   2.607   0.498   2.165  1.7972 -0.9693  0.8997
 5890SOL    MW423334   2.616   0.467   2.085  0.2912  0.5911  0.0651
 5891SOL     OW23335   5.703   6.252   5.309  0.1010  0.6586  0.3199
 5891SOL    HW223336   5.630   6.289   5.358  0.3147  0.3155  0.9113
 5891SOL    HW323337   5.672   6.165   5.283 -0.6635  1.4706 -1.6596
 5891SOL    MW423338   5.689   6.245   5.312  0.0283  0.7204  0.1368
 5892SOL     OW23339   3.259   0.632   4.273 -0.0543 -0.3907 -0.5273
 5892SOL    HW223340   3.330   0.672   4.322 -0.0591  0.6434 -1.3388
 5892SOL    HW323341   3.299   0.557   4.229  0.7921  0.7422 -1.7479
 5892SOL    MW423342   3.273   0.627   4.274  0.0567 -0.1048 -0.7954
 5893SOL     OW23343   1.232   4.447   5.764 -0.0761 -0.4282  0.1295
 5893SOL    HW223344   1.220   4.360   5.800 -0.7939 -0.1786  0.5194
 5893SOL    HW323345   1.143   4.480   5.751  0.1195  1.0982  2.1219
 5893SOL    MW423346   1.219   4.440   5.767 -0.1450 -0.1939  0.4438
 5894SOL     OW23347   0.716   1.294   2.759 -0.2442  0.4848 -0.0962
 5894SOL    HW223348   0.680   1.379   2.733 -1.1240  0.4374  0.9059
 5894SOL    HW323349   0.777   1.315   2.829 -0.9487  0.2520  0.6055
 5894SOL    MW423350   0.719   1.308   2.765 -0.4532  0.4478  0.1285
 5895SOL     OW23351   1.317   5.671   3.563  0.0385 -0.4643 -0.3202
 5895SOL    HW223352   1.227   5.643   3.548 -0.6262  1.4411 -0.1713
 5895SOL    HW323353   1.321   5.689   3.657  0.5453 -0.4268 -0.3444
 5895SOL    MW423354   1.306   5.670   3.574  0.0177 -0.2080 -0.3037
 5896SOL     OW23355   0.210   3.421   4.369  0.2137  0.2448 -0.1567
 5896SOL    HW223356   0.128   3.415   4.419 -0.4542  1.5013 -1.0526
 5896SOL    HW323357   0.184   3.405   4.278  0.9305  0.8318 -0.4739
 5896SOL    MW423358   0.195   3.418   4.364  0.2201  0.4880 -0.3168
 5897SOL     OW23359   2.909   6.306   6.320 -0.1033  0.1716 -0.0601
 5897SOL    HW223360   2.958   6.332   6.241  1.1983  0.5684  0.8503
 5897SOL    HW323361   2.975   6.274   6.380 -0.2712  4.2500  2.7119
 5897SOL    MW423362   2.924   6.306   6.317  0.0463  0.7621  0.4258
 5898SOL     OW23363   0.692   1.818   5.734 -0.0585  0.5011 -0.1182
 5898SOL    HW223364   0.702   1.808   5.640  1.2616  0.4422  0.0127
 5898SOL    HW323365   0.753   1.754   5.772  0.3038  1.3383  0.7598
 5898SOL    MW423366   0.701   1.808   5.727  0.1635  0.6038  0.0149
 5899SOL     OW23367   1.482   2.065   4.816 -0.1055  0.2538 -0.1162
 5899SOL    HW223368   1.515   1.980   4.787 -0.7300 -0.3878  0.9670
 5899SOL    HW323369   1.531   2.084   4.896 -1.3793 -0.0816  0.7790
 5899SOL    MW423370   1.493   2.057   4.823 -0.3560  0.1249  0.1448
 5900SOL     OW23371   2.478   5.571   1.961 -0.1177  0.5077  0.6680
 5900SOL    HW223372   2.505   5.555   1.870  0.6612  0.9868  0.8137
 5900SOL    HW323373   2.397   5.622   1.953  0.0436  0.6995  0.2506
 5900SOL    MW423374   2.471   5.575   1.948  0.0064  0.5962  0.6321
 5901SOL     OW23375   4.172   4.017   0.711 -0.3884 -0.3319 -0.2617
 5901SOL    HW223376   4.140   4.008   0.800 -1.4017 -0.6756 -0.6494
 5901SOL    HW323377   4.260   3.977   0.713 -1.5873 -3.2566 -0.0799
 5901SOL    MW423378   4.179   4.010   0.723 -0.6803 -0.7632 -0.2888
 5902SOL     OW23379   6.246   0.046   0.776 -0.2081  0.3544 -0.4668
 5902SOL    HW223380   6.318  -0.010   0.805 -0.8413  0.4167  1.3293
 5902SOL    HW323381   6.275   0.080   0.692  1.5798 -0.1459 -0.0964
 5902SOL    MW423382   6.259   0.043   0.769 -0.0558  0.2966 -0.1810
 5903SOL     OW23383   3.508   5.159   2.881 -0.1300 -0.6193 -0.0511
 5903SOL    HW223384   3.568   5.108   2.936 -2.0945 -1.6868  1.2444
 5903SOL    HW323385   3.508   5.246   2.920 -2.0281 -1.5266  2.2782
 5903SOL    MW423386   3.516   5.164   2.894 -0.6396 -0.8799  0.4272
 5904SOL     OW23387   5.203   3.688   0.404 -0.4683  0.4471 -0.0044
 5904SOL    HW223388   5.272   3.755   0.403  0.1129 -0.1349  0.2409
 5904SOL    HW323389   5.123   3.735   0.379  0.2265  0.8923 -1.5279
 5904SOL    MW423390   5.201   3.703   0.401 -0.2999  0.4291 -0.1730
 5905SOL     OW23391   2.221   3.697   1.781 -0.1424 -0.2859  0.5158
 5905SOL    HW223392   2.311   3.711   1.812  0.8898 -0.4767 -2.1783
 5905SOL    HW323393   2.223   3.608   1.745 -0.9901  0.2432 -0.8794
 5905SOL    MW423394   2.233   3.687   1.781 -0.1180 -0.2412 -0.0237
 5906SOL     OW23395   0.632   3.964   2.193 -0.7387 -0.7318  0.3398
 5906SOL    HW223396   0.681   3.951   2.274  3.1567  1.1750 -1.4785
 5906SOL    HW323397   0.670   3.902   2.131 -3.7232 -2.2453 -0.2037
 5906SOL    MW423398   0.643   3.954   2.196 -0.6185 -0.6799  0.0282
 5907SOL     OW23399   4.394   2.770   0.212 -0.3053  0.1713  0.3563
 5907SOL    HW223400   4.381   2.860   0.240 -0.9520  0.5333 -1.0433
 5907SOL    HW323401   4.488   2.762   0.200 -0.3833  1.1839 -1.1438
 5907SOL    MW423402   4.405   2.781   0.214 -0.4010  0.3527 -0.0262
 5908SOL     OW23403   5.372   6.112   3.948 -0.4825 -0.0715  0.1726
 5908SOL    HW223404   5.400   6.027   3.984 -1.4509 -1.7655 -2.7266
 5908SOL    HW323405   5.317   6.089   3.873 -1.3628  3.1687 -0.3112
 5908SOL    MW423406   5.369   6.097   3.943 -0.7264  0.1325 -0.2738
 5909SOL     OW23407   0.193   0.334   1.608 -0.1909 -0.2608 -0.0623
 5909SOL    HW223408   0.193   0.250   1.563 -0.6956 -0.6119  0.5756
 5909SOL    HW323409   0.134   0.389   1.556 -2.0035 -1.1290  0.9680
 5909SOL    MW423410   0.185   0.330   1.595 -0.4966 -0.4217  0.1578
 5910SOL     OW23411   6.321   4.081   0.005  0.8078  0.3164 -0.3822
 5910SOL    HW223412   6.273   4.055  -0.074 -0.2768  2.4720 -0.4974
 5910SOL    HW323413   6.266   4.050   0.077  1.1356 -0.4666 -0.4498
 5910SOL    MW423414   6.307   4.073   0.004  0.7080  0.4975 -0.4063
 5911SOL     OW23415   0.911   5.111   2.625 -0.7785  0.3259 -0.5594
 5911SOL    HW223416   0.934   5.126   2.534  4.0012 -0.9373  0.1604
 5911SOL    HW323417   0.880   5.021   2.628 -0.7757  0.3135 -0.8760
 5911SOL    MW423418   0.910   5.101   2.614 -0.1475  0.1576 -0.5062
 5912SOL     OW23419   6.425   1.668   1.453 -0.4620  0.3279  0.1221
 5912SOL    HW223420   6.485   1.666   1.378  0.4966  0.2787  0.8825
 5912SOL    HW323421   6.388   1.756   1.451 -1.0035  0.0983 -0.8321
 5912SOL    MW423422   6.428   1.679   1.443 -0.4070  0.2911  0.0965
 5913SOL     OW23423   5.956   1.374   2.009  0.1732 -0.0770 -0.6350
 5913SOL    HW223424   5.996   1.358   1.923  2.1961 -0.5244  0.3334
 5913SOL    HW323425   5.999   1.312   2.068 -1.7417 -0.3208  0.5883
 5913SOL    MW423426   5.967   1.364   2.005  0.1874 -0.1682 -0.3458
 5914SOL     OW23427   4.020   4.211   5.918 -0.8718  0.1275  0.4002
 5914SOL    HW223428   3.996   4.139   5.976 -2.3213  1.0911  1.0589
 5914SOL    HW323429   4.026   4.171   5.831  2.4790 -1.5781  1.2510
 5914SOL    MW423430   4.018   4.197   5.914 -0.6210  0.0296  0.5993
 5915SOL     OW23431   4.459   0.871   3.217  0.3381 -0.6096 -0.6611
 5915SOL    HW223432   4.508   0.952   3.216  0.0813 -0.4468 -2.1477
 5915SOL    HW323433   4.370   0.896   3.242  0.2697 -0.4366 -1.0776
 5915SOL    MW423434   4.453   0.885   3.220  0.2952 -0.5653 -0.9122
 5916SOL     OW23435   2.202   4.413   3.717 -0.6737  0.6262 -0.2501
 5916SOL    HW223436   2.240   4.491   3.675 -1.0265  1.6600  1.2968
 5916SOL    HW323437   2.269   4.345   3.704 -0.1977  1.2549 -1.3035
 5916SOL    MW423438   2.216   4.414   3.710 -0.6574  0.8455 -0.1850
 5917SOL     OW23439   3.995   5.122   6.222  0.6732 -0.1772  0.1435
 5917SOL    HW223440   4.026   5.047   6.172 -0.1841 -1.7737  1.8867
 5917SOL    HW323441   3.900   5.111   6.226  0.5280  1.0071  0.4375
 5917SOL    MW423442   3.987   5.111   6.216  0.5409 -0.2316  0.4123
 5918SOL     OW23443   5.245   1.513   1.349  0.1811  0.0738  0.6488
 5918SOL    HW223444   5.235   1.459   1.271  2.2216 -1.7505  1.5290
 5918SOL    HW323445   5.318   1.572   1.328 -0.3708  0.7650  0.6159
 5918SOL    MW423446   5.254   1.514   1.336  0.3775 -0.0757  0.7606
 5919SOL     OW23447   2.195   2.654   2.860  0.0193  0.1850 -0.0051
 5919SOL    HW223448   2.289   2.666   2.869 -0.0830  1.3007 -0.3627
 5919SOL    HW323449   2.185   2.610   2.775  0.2065  0.0551  0.0377
 5919SOL    MW423450   2.206   2.650   2.850  0.0305  0.3151 -0.0467
 5920SOL     OW23451   1.015   1.378   2.465  0.1806 -0.0606 -0.3525
 5920SOL    HW223452   0.940   1.320   2.481  1.1326 -1.6599 -1.3987
 5920SOL    HW323453   1.013   1.394   2.370  1.7269 -0.9699 -0.5650
 5920SOL    MW423454   1.005   1.373   2.454  0.5102 -0.3916 -0.5186
 5921SOL     OW23455   1.124   6.156   0.538 -0.2994 -0.1756 -0.0814
 5921SOL    HW223456   1.087   6.193   0.618  1.2745 -0.2827  0.7269
 5921SOL    HW323457   1.061   6.089   0.512 -0.7126 -0.3246  1.2199
 5921SOL    MW423458   1.111   6.152   0.545 -0.1463 -0.2094  0.1969
 5922SOL     OW23459   0.077   4.274   2.861 -0.0766 -0.1771 -0.3557
 5922SOL    HW223460   0.024   4.353   2.864  1.6105  0.9636  0.8918
 5922SOL    HW323461   0.013   4.203   2.853 -1.9919  0.9723  2.7578
 5922SOL    MW423462   0.061   4.275   2.860 -0.1067  0.1251  0.2197
 5923SOL     OW23463   1.075   5.504   4.556  0.5453  0.9091 -0.0176
 5923SOL    HW223464   1.035   5.457   4.483  2.3531 -0.4591 -0.1903
 5923SOL    HW323465   1.063   5.597   4.535 -1.8823  0.5779 -0.3645
 5923SOL    MW423466   1.068   5.510   4.544  0.4635  0.6849 -0.0862
 5924SOL     OW23467   0.649   5.260   2.597  0.1588 -0.1937 -0.3323
 5924SOL    HW223468   0.742   5.239   2.596  0.3731  0.6976 -0.6652
 5924SOL    HW323469   0.622   5.251   2.505 -0.0437 -0.2950 -0.2631
 5924SOL    MW423470   0.657   5.256   2.584  0.1604 -0.0895 -0.3671
 5925SOL     OW23471   2.478   1.081   2.850  0.1953  0.6100  0.3368
 5925SOL    HW223472   2.391   1.049   2.824  0.5624 -0.7572  0.6735
 5925SOL    HW323473   2.464   1.172   2.875 -1.4102  0.0763  1.5852
 5925SOL    MW423474   2.465   1.089   2.850  0.0319  0.3592  0.5460
 5926SOL     OW23475   0.430   0.701   2.390  0.4998 -0.2970 -0.3694
 5926SOL    HW223476   0.418   0.664   2.477  0.5801  1.2828  0.3504
 5926SOL    HW323477   0.394   0.790   2.396 -0.7707 -0.6265 -2.3549
 5926SOL    MW423478   0.424   0.708   2.402  0.3428 -0.1320 -0.5364
 5927SOL     OW23479   0.634   0.561   3.129 -0.9923 -0.2406 -0.3683
 5927SOL    HW223480   0.695   0.533   3.061 -0.8603 -0.5739 -0.1148
 5927SOL    HW323481   0.566   0.493   3.131 -1.1286 -0.1042 -0.3406
 5927SOL    MW423482   0.633   0.548   3.120 -0.9929 -0.2666 -0.3312
 5928SOL     OW23483   2.594   3.690   3.803  0.0132 -0.3582 -0.0613
 5928SOL    HW223484   2.583   3.771   3.853  4.4723  0.9186 -0.7181
 5928SOL    HW323485   2.592   3.717   3.712  0.8404 -1.0819 -0.3090
 5928SOL    MW423486   2.592   3.704   3.798  0.7106 -0.2852 -0.1807
 5929SOL     OW23487   4.384   2.268   1.724  0.4052 -0.7099  0.0192
 5929SOL    HW223488   4.382   2.266   1.629 -0.1846 -1.6488  0.0383
 5929SOL    HW323489   4.475   2.291   1.746  0.0215  1.8765 -0.7504
 5929SOL    MW423490   4.396   2.271   1.715  0.2768 -0.4925 -0.0798
 5930SOL     OW23491   0.897   0.686   5.198  0.4551  0.1651 -0.0402
 5930SOL    HW223492   0.947   0.649   5.126 -0.3275 -0.0041 -0.5101
 5930SOL    HW323493   0.958   0.687   5.272  1.0540 -0.3044 -0.5184
 5930SOL    MW423494   0.912   0.681   5.199  0.4308  0.0808 -0.1653
 5931SOL     OW23495   2.308   5.909   0.212 -0.0690  0.3206 -0.3862
 5931SOL    HW223496   2.378   5.843   0.218 -0.9255 -0.7685 -1.6995
 5931SOL    HW323497   2.252   5.878   0.141 -1.6188  1.4320  0.2846
 5931SOL    MW423498   2.310   5.896   0.204 -0.3865  0.3236 -0.4710
 5932SOL     OW23499   2.787   1.434   5.586 -0.2619  0.4123 -0.4662
 5932SOL    HW223500   2.718   1.382   5.628  0.3248  0.3657  0.4801
 5932SOL    HW323501   2.865   1.379   5.593  0.0100  0.7441 -0.9245
 5932SOL    MW423502   2.788   1.420   5.593 -0.1486  0.4499 -0.4018
 5933SOL     OW23503   5.590   1.675   0.169  0.6628  0.0031 -0.0374
 5933SOL    HW223504   5.667   1.662   0.114 -0.8168 -0.5065 -2.1082
 5933SOL    HW323505   5.538   1.741   0.123 -0.4547 -0.1416  0.9577
 5933SOL    MW423506   5.593   1.682   0.155  0.3201 -0.0832 -0.1793
 5934SOL     OW23507   3.425   0.909   0.350 -0.6073 -0.1035 -0.7075
 5934SOL    HW223508   3.381   0.994   0.356  1.3960  0.9357  0.1515
 5934SOL    HW323509   3.353   0.846   0.341 -2.2057  1.5775 -0.4257
 5934SOL    MW423510   3.409   0.911   0.350 -0.5539  0.2554 -0.5570
 5935SOL     OW23511   0.497   2.825   3.826 -0.1489 -0.0271 -0.8941
 5935SOL    HW223512   0.537   2.769   3.760 -4.4542 -2.1218 -2.1255
 5935SOL    HW323513   0.471   2.904   3.779  1.6577  0.9934 -0.2723
 5935SOL    MW423514   0.499   2.828   3.811 -0.4785 -0.1688 -0.9745
 5936SOL     OW23515   4.460   4.341   3.437  0.3902  0.0936 -0.0141
 5936SOL    HW223516   4.369   4.369   3.435  0.7886  1.4938 -2.2240
 5936SOL    HW323517   4.498   4.389   3.511 -0.4329  0.2943  0.2916
 5936SOL    MW423518   4.453   4.351   3.447  0.3342  0.3048 -0.2653
 5937SOL     OW23519   6.353   4.333   0.398 -0.2018  0.7654 -0.1462
 5937SOL    HW223520   6.295   4.403   0.371 -0.9355  0.5627  0.8774
 5937SOL    HW323521   6.296   4.257   0.411  0.5139  0.0909 -0.7862
 5937SOL    MW423522   6.338   4.332   0.396 -0.2041  0.6497 -0.0956
 5938SOL     OW23523   4.634   4.716   5.974  0.3770  0.2272  0.0573
 5938SOL    HW223524   4.707   4.722   5.911  2.1757 -0.2495  1.9760
 5938SOL    HW323525   4.602   4.627   5.965  0.5574  0.1940 -0.2711
 5938SOL    MW423526   4.640   4.705   5.964  0.6381  0.1600  0.2671
 5939SOL     OW23527   0.243   6.021   3.966  0.3443  0.0334  0.1876
 5939SOL    HW223528   0.245   5.962   4.042 -1.4135 -0.3982 -0.0447
 5939SOL    HW323529   0.218   5.964   3.893  0.3197  0.7567 -0.3782
 5939SOL    MW423530   0.240   6.005   3.967  0.1092  0.0719  0.0823
 5940SOL     OW23531   4.550   0.095   4.749  0.1905 -0.1256 -0.0624
 5940SOL    HW223532   4.482   0.092   4.817 -0.4301 -0.2136 -0.6744
 5940SOL    HW323533   4.632   0.099   4.798 -0.3121  2.1963  0.7104
 5940SOL    MW423534   4.552   0.095   4.765  0.0423  0.1692 -0.0412
 5941SOL     OW23535   4.361   4.508   0.126 -0.2134 -0.3611  0.1266
 5941SOL    HW223536   4.357   4.419   0.161 -1.9256 -0.4722 -0.2410
 5941SOL    HW323537   4.293   4.555   0.175 -0.4899  0.2905 -0.8571
 5941SOL    MW423538   4.351   4.502   0.137 -0.4758 -0.2898 -0.0517
 5942SOL     OW23539   5.630   6.056   4.325  0.1019  0.1041 -0.1844
 5942SOL    HW223540   5.707   6.061   4.268  0.3573 -1.6128 -0.0543
 5942SOL    HW323541   5.654   5.992   4.392 -1.4938 -0.6430 -0.2660
 5942SOL    MW423542   5.644   6.048   4.326 -0.0749 -0.2210 -0.1780
 5943SOL     OW23543   3.770   2.304   5.486  0.0024 -0.0428 -0.0823
 5943SOL    HW223544   3.820   2.225   5.468 -0.2617  0.5004 -4.1979
 5943SOL    HW323545   3.834   2.375   5.484 -0.2595  0.1909 -0.5853
 5943SOL    MW423546   3.785   2.303   5.483 -0.0670  0.0597 -0.6916
 5944SOL     OW23547   4.080   0.394   1.782 -0.4191  0.2303 -0.1434
 5944SOL    HW223548   4.118   0.466   1.832  3.1435 -1.0449 -0.7354
 5944SOL    HW323549   3.986   0.396   1.803 -0.0131  3.3170  1.9073
 5944SOL    MW423550   4.072   0.404   1.791  0.1045  0.4693  0.0491
 5945SOL     OW23551   2.126   6.153   0.940 -0.3999 -0.2488  0.0049
 5945SOL    HW223552   2.101   6.075   0.890  0.9041 -0.4736 -0.3494
 5945SOL    HW323553   2.140   6.121   1.029 -1.2367 -0.1435  0.1764
 5945SOL    MW423554   2.125   6.139   0.945 -0.3383 -0.2646 -0.0192
 5946SOL     OW23555   0.482   3.604   4.696  0.6653  0.3495  0.0234
 5946SOL    HW223556   0.405   3.622   4.751  1.2753 -1.9316  1.7633
 5946SOL    HW323557   0.447   3.554   4.622  0.4518 -0.6372  0.7790
 5946SOL    MW423558   0.467   3.600   4.693  0.7176 -0.0816  0.3526
 5947SOL     OW23559   2.243   2.537   4.470 -0.0169 -0.0317 -0.0002
 5947SOL    HW223560   2.269   2.447   4.490  1.3493  0.7796  2.3867
 5947SOL    HW323561   2.213   2.534   4.380 -2.2130 -3.3201  0.6511
 5947SOL    MW423562   2.242   2.524   4.461 -0.1264 -0.3585  0.4007
 5948SOL     OW23563   4.994   1.484   1.790 -0.4631  0.1112 -0.7834
 5948SOL    HW223564   4.904   1.489   1.759  0.3704  1.3671 -3.2848
 5948SOL    HW323565   5.015   1.574   1.817  0.6532  0.3595 -2.3118
 5948SOL    MW423566   4.985   1.497   1.789 -0.2058  0.3097 -1.3150
 5949SOL     OW23567   3.658   1.889   3.429  0.3174  0.2418 -0.2720
 5949SOL    HW223568   3.703   1.805   3.425  1.0384  0.6366 -0.8526
 5949SOL    HW323569   3.619   1.891   3.516 -0.2629 -0.9606 -0.4825
 5949SOL    MW423570   3.659   1.878   3.440  0.3360  0.1353 -0.3763
 5950SOL     OW23571   2.917   6.217   4.189  0.1239 -0.2064 -0.2716
 5950SOL    HW223572   2.955   6.175   4.112 -0.9622 -1.1593 -0.3094
 5950SOL    HW323573   2.831   6.247   4.160  0.5773  1.4148 -0.0318
 5950SOL    MW423574   2.911   6.216   4.175  0.0404 -0.1182 -0.2450
 5951SOL     OW23575   5.854   4.021   2.533 -0.9391 -0.3439 -0.0094
 5951SOL    HW223576   5.947   4.015   2.555 -0.9254  1.6169  0.5763
 5951SOL    HW323577   5.853   4.027   2.437 -0.4570 -0.2566 -0.0142
 5951SOL    MW423578   5.866   4.021   2.523 -0.8737 -0.0737  0.0672
 5952SOL     OW23579   5.483   4.208   1.692 -0.3322 -0.3041  0.2006
 5952SOL    HW223580   5.433   4.281   1.727  0.0201 -0.4014  0.9396
 5952SOL    HW323581   5.574   4.239   1.692 -0.0506 -1.0465  1.4135
 5952SOL    MW423582   5.489   4.222   1.697 -0.2486 -0.4149  0.4582
 5953SOL     OW23583   5.694   5.046   3.168 -0.7676  0.0606  0.0421
 5953SOL    HW223584   5.790   5.053   3.171 -0.6698  0.7250 -2.3680
 5953SOL    HW323585   5.664   5.136   3.181 -0.9025  0.3166 -1.8161
 5953SOL    MW423586   5.703   5.059   3.170 -0.7725  0.1820 -0.5211
 5954SOL     OW23587   6.321   6.247   2.306 -0.3087 -0.4002  0.1679
 5954SOL    HW223588   6.376   6.322   2.328 -0.5691  0.0726 -0.7236
 5954SOL    HW323589   6.246   6.286   2.261  0.2809 -1.2973 -1.6743
 5954SOL    MW423590   6.319   6.262   2.303 -0.2653 -0.4562 -0.1928
 5955SOL     OW23591   4.922   0.750   2.250 -0.4655 -0.0914 -0.0487
 5955SOL    HW223592   4.984   0.726   2.181 -0.2690  1.5774 -0.5057
 5955SOL    HW323593   4.897   0.667   2.291  0.4918 -0.9768 -1.2071
 5955SOL    MW423594   4.927   0.736   2.246 -0.3133  0.0120 -0.2619
 5956SOL     OW23595   4.310   3.401   1.912 -0.1188  0.2198  0.0617
 5956SOL    HW223596   4.310   3.396   2.008 -0.1110  2.5224  0.2291
 5956SOL    HW323597   4.257   3.478   1.892  2.2209  1.5159 -1.6539
 5956SOL    MW423598   4.303   3.411   1.922  0.1909  0.6946 -0.1425
 5957SOL     OW23599   2.409   4.032   0.805 -0.1577 -1.0621 -0.0445
 5957SOL    HW223600   2.496   3.993   0.813 -0.3006 -1.3047  0.3468
 5957SOL    HW323601   2.385   4.015   0.714  0.5009 -0.3522 -0.3628
 5957SOL    MW423602   2.418   4.025   0.794 -0.0897 -1.0004 -0.0349
 5958SOL     OW23603   1.701   0.032   4.034 -0.2611  0.0782 -0.2878
 5958SOL    HW223604   1.753  -0.044   4.010 -0.6102 -0.4360  0.5599
 5958SOL    HW323605   1.635  -0.001   4.095  0.7456  1.3749  1.5932
 5958SOL    MW423606   1.699   0.018   4.039 -0.1743  0.1815  0.0722
 5959SOL     OW23607   4.105   5.130   1.218  0.3983 -0.2529 -0.3882
 5959SOL    HW223608   4.186   5.085   1.243  1.1047  2.0195  1.8773
 5959SOL    HW323609   4.050   5.124   1.297  0.2009  1.9904 -0.2872
 5959SOL    MW423610   4.108   5.123   1.232  0.4655  0.3429 -0.0760
 5960SOL     OW23611   1.880   5.300   5.118 -0.4266  0.2515 -0.2933
 5960SOL    HW223612   1.933   5.362   5.168  1.2521  0.0671 -1.7203
 5960SOL    HW323613   1.939   5.227   5.101 -1.4538 -0.4064 -1.1344
 5960SOL    MW423614   1.895   5.299   5.122 -0.3407  0.1403 -0.5926
 5961SOL     OW23615   2.528   0.648   0.201 -0.1369 -0.1636 -0.6674
 5961SOL    HW223616   2.447   0.601   0.224 -0.0055  0.0887  0.3998
 5961SOL    HW323617   2.591   0.578   0.181 -0.4892 -0.3751 -1.0590
 5961SOL    MW423618   2.525   0.632   0.202 -0.1660 -0.1583 -0.5782
 5962SOL     OW23619   2.755   1.945   3.496  0.4735  0.4948  0.2081
 5962SOL    HW223620   2.702   2.021   3.519  0.3526  0.0841  1.3398
 5962SOL    HW323621   2.724   1.876   3.555  0.1137 -0.6284 -1.2358
 5962SOL    MW423622   2.744   1.946   3.507  0.4101  0.2924  0.1669
 5963SOL     OW23623   1.928   3.917   3.965  0.3886  0.4795  0.3579
 5963SOL    HW223624   2.007   3.867   3.945 -0.1233 -0.0488 -0.4006
 5963SOL    HW323625   1.889   3.936   3.880  1.4632  3.7258  0.4626
 5963SOL    MW423626   1.933   3.913   3.951  0.4628  0.8381  0.2716
 5964SOL     OW23627   6.231   4.867   2.337 -0.3505  0.3435 -0.0760
 5964SOL    HW223628   6.186   4.938   2.383 -0.1740 -0.4658  1.4057
 5964SOL    HW323629   6.321   4.898   2.327  0.1434 -0.2410  1.9881
 5964SOL    MW423630   6.237   4.880   2.342 -0.2621  0.1596  0.3918
 5965SOL     OW23631   1.870   0.105   5.186  0.0956  0.4910  0.3704
 5965SOL    HW223632   1.851   0.091   5.279  0.0948  2.0993  0.6370
 5965SOL    HW323633   1.964   0.090   5.178  0.4804  2.2794  1.0618
 5965SOL    MW423634   1.880   0.101   5.198  0.1463  0.9391  0.4968
 5966SOL     OW23635   4.912   2.969   2.857 -0.3973 -0.6885  0.0800
 5966SOL    HW223636   4.830   2.938   2.819  0.5798 -1.3015 -1.6153
 5966SOL    HW323637   4.978   2.907   2.828  0.7588  0.0431  1.0317
 5966SOL    MW423638   4.910   2.957   2.848 -0.1158 -0.6729 -0.0181
 5967SOL     OW23639   0.750   6.391   4.388 -0.0059  0.1906 -0.0594
 5967SOL    HW223640   0.808   6.320   4.358 -0.2532  0.8361 -2.2701
 5967SOL    HW323641   0.667   6.374   4.345 -0.1057  1.7451 -0.5505
 5967SOL    MW423642   0.747   6.379   4.378 -0.0517  0.4809 -0.4159
 5968SOL     OW23643   0.998   0.027   5.942  0.1697  0.0258 -0.6817
 5968SOL    HW223644   0.910   0.002   5.970 -0.0305 -2.1512 -2.8686
 5968SOL    HW323645   1.051   0.020   6.021 -1.3438 -0.0198  0.3800
 5968SOL    MW423646   0.993   0.023   5.956 -0.0564 -0.2674 -0.8302
 5969SOL     OW23647   2.298   3.941   2.854  0.3963 -0.7623  0.8114
 5969SOL    HW223648   2.282   3.915   2.764  1.0745  0.5137  0.3068
 5969SOL    HW323649   2.286   3.860   2.904 -0.1316 -1.4537 -0.3898
 5969SOL    MW423650   2.295   3.927   2.849  0.4161 -0.6852  0.5863
 5970SOL     OW23651   4.615   2.053   0.507  0.1401  0.8136  0.2122
 5970SOL    HW223652   4.608   2.033   0.601 -1.0133 -0.8205 -0.1630
 5970SOL    HW323653   4.666   1.980   0.471 -1.4393  0.1313 -0.7549
 5970SOL    MW423654   4.620   2.041   0.515 -0.2204  0.5080  0.0351
 5971SOL     OW23655   1.259   4.739   3.125 -0.0294 -0.1549  0.0723
 5971SOL    HW223656   1.341   4.752   3.174 -0.7452  1.3141  0.9532
 5971SOL    HW323657   1.194   4.721   3.193 -0.9703  1.5402 -0.3467
 5971SOL    MW423658   1.261   4.738   3.141 -0.2480  0.2625  0.1333
 5972SOL     OW23659   3.522   6.103   6.289  0.0757 -0.0417  0.4090
 5972SOL    HW223660   3.428   6.085   6.292 -0.3315  1.5909 -1.0763
 5972SOL    HW323661   3.552   6.089   6.379 -1.7059 -0.0222  1.0348
 5972SOL    MW423662   3.514   6.099   6.302 -0.2131  0.1763  0.2956
 5973SOL     OW23663   3.195   0.722   0.359  0.1330 -0.0520  0.0036
 5973SOL    HW223664   3.266   0.673   0.401 -0.1379  1.4200  2.3625
 5973SOL    HW323665   3.118   0.668   0.373  0.2636 -0.1715  0.2784
 5973SOL    MW423666   3.194   0.709   0.366  0.1145  0.1264  0.3511
 5974SOL     OW23667   2.935   5.345   3.101 -0.7637  0.0678  1.0273
 5974SOL    HW223668   2.971   5.267   3.057 -1.7089 -0.0759  0.4824
 5974SOL    HW323669   3.011   5.384   3.144  0.4639  0.7502 -1.5178
 5974SOL    MW423670   2.950   5.340   3.101 -0.7265  0.1389  0.6196
 5975SOL     OW23671   1.915   2.556   3.871  0.1372 -0.0950  0.3705
 5975SOL    HW223672   1.829   2.565   3.913  0.5865 -2.9809  2.2345
 5975SOL    HW323673   1.911   2.471   3.827  2.2607 -0.6709  1.1972
 5975SOL    MW423674   1.903   2.546   3.871  0.4767 -0.5517  0.7255
 5976SOL     OW23675   3.147   2.149   4.497 -0.5212  0.0238  0.3743
 5976SOL    HW223676   3.063   2.109   4.521  0.1244 -0.9855  1.0265
 5976SOL    HW323677   3.200   2.077   4.464 -0.4518  0.9302 -1.6597
 5976SOL    MW423678   3.143   2.134   4.496 -0.4269  0.0102  0.1920
 5977SOL     OW23679   6.309   0.876   4.263  0.5408  0.1172  0.1021
 5977SOL    HW223680   6.244   0.938   4.231 -1.2885 -1.8772 -0.2718
 5977SOL    HW323681   6.362   0.854   4.187 -0.8707 -1.1550 -0.5541
 5977SOL    MW423682   6.307   0.882   4.249  0.1132 -0.3138 -0.0338
 5978SOL     OW23683   4.611   1.762   0.328 -0.4143 -0.5267  0.2304
 5978SOL    HW223684   4.659   1.828   0.278 -1.3306 -0.0707 -0.0773
 5978SOL    HW323685   4.665   1.683   0.322 -0.2895 -0.3664 -1.1342
 5978SOL    MW423686   4.624   1.760   0.321 -0.5188 -0.4454  0.0098
 5979SOL     OW23687   3.902   4.303   3.203 -0.7349 -0.7733 -0.6743
 5979SOL    HW223688   3.871   4.366   3.269  0.8084 -0.7734  0.0865
 5979SOL    HW323689   3.909   4.354   3.123 -0.5706 -0.2381 -0.3269
 5979SOL    MW423690   3.899   4.318   3.201 -0.5096 -0.7027 -0.5281
 5980SOL     OW23691   1.155   1.632   2.168 -0.8952  0.4590 -0.4130
 5980SOL    HW223692   1.168   1.637   2.074 -0.3670 -0.4722 -0.4066
 5980SOL    HW323693   1.188   1.715   2.202 -1.4166  0.9423 -1.0716
 5980SOL    MW423694   1.161   1.644   2.160 -0.8943  0.3999 -0.4991
 5981SOL     OW23695   2.009   2.170   0.531 -0.2619 -0.2020 -0.1287
 5981SOL    HW223696   1.975   2.096   0.480  0.7571 -1.2009  0.5948
 5981SOL    HW323697   2.085   2.134   0.578 -0.4195  1.0132  1.1159
 5981SOL    MW423698   2.015   2.155   0.531 -0.1483 -0.1735  0.1309
 5982SOL     OW23699   1.184   5.151   2.893  0.7077  0.6262  0.6164
 5982SOL    HW223700   1.164   5.127   2.984  1.4367  1.1559  0.9337
 5982SOL    HW323701   1.257   5.095   2.869  0.5088  0.4803  0.3516
 5982SOL    MW423702   1.191   5.141   2.902  0.7777  0.6768  0.6234
 5983SOL     OW23703   6.048   0.904   3.308 -0.0833 -0.0005 -0.0476
 5983SOL    HW223704   5.996   0.910   3.388  0.2322 -0.6184  0.2070
 5983SOL    HW323705   6.088   0.817   3.311  0.6337  0.3021 -0.4421
 5983SOL    MW423706   6.046   0.894   3.319  0.0529 -0.0421 -0.0661
 5984SOL     OW23707   4.781   2.379   0.814 -0.4359  0.2381  0.0107
 5984SOL    HW223708   4.705   2.325   0.836 -0.2762  0.0006 -0.0083
 5984SOL    HW323709   4.793   2.366   0.720 -0.6934  0.6983 -0.0901
 5984SOL    MW423710   4.773   2.370   0.805 -0.4488  0.2675 -0.0051
 5985SOL     OW23711   2.155   5.909   3.724  0.3165 -0.2434  0.0522
 5985SOL    HW223712   2.065   5.918   3.692 -0.2188 -0.0073  1.5489
 5985SOL    HW323713   2.167   5.815   3.737  0.4662 -0.3214 -0.5909
 5985SOL    MW423714   2.145   5.898   3.721  0.2656 -0.2225  0.1648
 5986SOL     OW23715   0.999   4.105   5.019 -0.6164 -0.6316 -0.4557
 5986SOL    HW223716   1.027   4.037   4.958  0.2483 -1.4626  0.8100
 5986SOL    HW323717   1.034   4.186   4.982  1.8125 -1.3755 -0.0031
 5986SOL    MW423718   1.008   4.107   5.006 -0.1818 -0.8394 -0.2290
 5987SOL     OW23719   2.421   1.992   4.933 -1.1642  0.0622 -0.0147
 5987SOL    HW223720   2.433   2.066   4.992  0.3861 -0.1549 -0.0173
 5987SOL    HW323721   2.438   1.915   4.987 -0.5573 -0.1756 -0.5303
 5987SOL    MW423722   2.424   1.991   4.948 -0.8796  0.0022 -0.0831
 5988SOL     OW23723   3.222   6.366   3.516  0.6185  0.1926  0.2723
 5988SOL    HW223724   3.241   6.370   3.610 -0.0910  1.7716  0.3815
 5988SOL    HW323725   3.136   6.323   3.511  0.9140 -0.4145  0.2880
 5988SOL    MW423726   3.213   6.361   3.528  0.5639  0.3208  0.2888
 5989SOL     OW23727   5.762   2.065   0.249  0.0694 -0.1082  0.2350
 5989SOL    HW223728   5.850   2.027   0.245  0.0777 -0.0393 -0.5645
 5989SOL    HW323729   5.774   2.156   0.221 -0.0190  0.3851  1.7112
 5989SOL    MW423730   5.775   2.072   0.244  0.0589 -0.0341  0.3243
 5990SOL     OW23731   0.108   0.792   4.978  0.3844  0.0987  0.1497
 5990SOL    HW223732   0.074   0.808   4.890  2.9527 -0.7192 -1.0748
 5990SOL    HW323733   0.060   0.854   5.034  0.4859  2.4937 -2.2168
 5990SOL    MW423734   0.097   0.803   4.974  0.7366  0.3068 -0.3240
 5991SOL     OW23735   3.611   3.274   1.369  0.1466  0.2622 -0.1265
 5991SOL    HW223736   3.663   3.330   1.312 -1.3470  0.4827 -1.3288
 5991SOL    HW323737   3.559   3.334   1.422 -0.0664  0.0396 -0.0764
 5991SOL    MW423738   3.611   3.289   1.368 -0.0786  0.2619 -0.2785
 5992SOL     OW23739   5.258   4.296   4.883 -0.1784  0.3341  0.3216
 5992SOL    HW223740   5.296   4.270   4.799  0.2687  0.6025  0.4351
 5992SOL    HW323741   5.216   4.380   4.866 -1.8097 -0.5299 -0.0955
 5992SOL    MW423742   5.258   4.303   4.870 -0.3346  0.2555  0.2815
 5993SOL     OW23743   1.097   3.395   3.030 -0.1871  0.7907  0.0015
 5993SOL    HW223744   1.059   3.307   3.023  0.4884  0.5883 -1.4616
 5993SOL    HW323745   1.170   3.384   3.091  1.0375 -0.1162 -1.5483
 5993SOL    MW423746   1.101   3.382   3.037  0.0636  0.6443 -0.3961
 5994SOL     OW23747   1.270   3.987   3.485 -0.2265  0.3401 -0.4437
 5994SOL    HW223748   1.351   4.016   3.528  0.0478  0.9653 -1.3511
 5994SOL    HW323749   1.291   3.900   3.451  0.0037  0.4198 -0.5068
 5994SOL    MW423750   1.284   3.979   3.487 -0.1599  0.4331 -0.5717
 5995SOL     OW23751   0.325   5.052   3.608 -0.2368  0.1813 -0.2026
 5995SOL    HW223752   0.367   4.989   3.666 -1.1969  0.0374  0.3524
 5995SOL    HW323753   0.363   5.136   3.634  1.0367 -0.1355 -0.9371
 5995SOL    MW423754   0.336   5.055   3.619 -0.1955  0.1205 -0.2263
 5996SOL     OW23755   1.927   0.390   3.840 -0.5687  0.1931 -0.0085
 5996SOL    HW223756   2.013   0.348   3.838 -1.0225 -0.7191 -1.5262
 5996SOL    HW323757   1.872   0.331   3.891 -0.1340  1.1995  1.7196
 5996SOL    MW423758   1.931   0.377   3.846 -0.5713  0.2055  0.0193
 5997SOL     OW23759   3.123   0.324   4.108  0.3061 -0.2768  0.2011
 5997SOL    HW223760   3.066   0.372   4.047 -1.1666 -0.8771  1.0511
 5997SOL    HW323761   3.210   0.359   4.091 -0.0035 -0.5111 -2.3323
 5997SOL    MW423762   3.127   0.335   4.097  0.0710 -0.3869 -0.0210
 5998SOL     OW23763   5.610   0.892   3.279  0.0577 -0.3771 -0.4302
 5998SOL    HW223764   5.540   0.839   3.243  0.7791 -0.8548 -1.1546
 5998SOL    HW323765   5.675   0.829   3.311  0.2188  0.0561  0.1309
 5998SOL    MW423766   5.610   0.877   3.279  0.1741 -0.3830 -0.4517
 5999SOL     OW23767   6.403   5.609   5.216  0.0169  0.2193  0.1268
 5999SOL    HW223768   6.417   5.531   5.269 -0.1121  0.1549  0.0660
 5999SOL    HW323769   6.420   5.580   5.126 -1.3960 -0.0916 -0.0564
 5999SOL    MW423770   6.407   5.595   5.211 -0.1865  0.1698  0.0946
 6000SOL     OW23771   0.619   5.694   1.226 -0.2263 -0.1817 -0.2843
 6000SOL    HW223772   0.604   5.609   1.267  2.5371 -1.1376 -0.9779
 6000SOL    HW323773   0.663   5.746   1.294 -1.6030  0.6086  0.0280
 6000SOL    MW423774   0.623   5.689   1.240 -0.0433 -0.2036 -0.3346
 6001SOL     OW23775   1.984   2.852   1.298 -0.2405  0.5761  0.8937
 6001SOL    HW223776   2.034   2.852   1.379  0.9189  1.5959  0.2146
 6001SOL    HW323777   1.903   2.805   1.319  0.6156 -0.3433  2.2565
 6001SOL    MW423778   1.980   2.846   1.311  0.0254  0.5894  0.9839
 6002SOL     OW23779   6.353   1.836   5.522  0.0224 -0.4874  0.1288
 6002SOL    HW223780   6.426   1.882   5.564 -0.6462  0.2112  0.5434
 6002SOL    HW323781   6.385   1.747   5.510  0.3455 -0.6452  1.8550
 6002SOL    MW423782   6.367   1.830   5.526 -0.0232 -0.4161  0.4113
 6003SOL     OW23783   1.678   2.053   5.515  0.2529  0.2866 -0.2847
 6003SOL    HW223784   1.641   2.141   5.518  0.4366  0.3479  1.2380
 6003SOL    HW323785   1.647   2.012   5.596  3.8877  0.5505  1.4846
 6003SOL    MW423786   1.669   2.059   5.526  0.7567  0.3295  0.1497
 6004SOL     OW23787   0.801   6.021   3.954 -0.6792 -0.2476  0.4199
 6004SOL    HW223788   0.799   5.948   4.015 -2.7210 -0.9770 -0.4148
 6004SOL    HW323789   0.870   6.000   3.892 -0.7077 -1.0715  0.6662
 6004SOL    MW423790   0.810   6.009   3.954 -0.9523 -0.4525  0.3423
 6005SOL     OW23791   5.884   1.424   5.731  0.2725  0.1558  0.2447
 6005SOL    HW223792   5.937   1.384   5.662 -2.5871 -0.2822 -1.9052
 6005SOL    HW323793   5.877   1.357   5.798 -1.5892 -1.7860 -1.7364
 6005SOL    MW423794   5.890   1.410   5.731 -0.3504 -0.1582 -0.3004
 6006SOL     OW23795   3.482   2.567   3.058  0.4459 -0.0141  0.2883
 6006SOL    HW223796   3.515   2.482   3.087  0.6954  0.1638  0.5270
 6006SOL    HW323797   3.560   2.622   3.051  0.4196 -0.1037 -0.9088
 6006SOL    MW423798   3.497   2.563   3.061  0.4754 -0.0024  0.1619
 6007SOL     OW23799   1.611   0.369   5.551  0.0088 -0.4170  0.1251
 6007SOL    HW223800   1.630   0.395   5.461 -0.8410 -0.1542  0.0082
 6007SOL    HW323801   1.602   0.452   5.599 -3.4624 -0.3129 -0.4084
 6007SOL    MW423802   1.612   0.384   5.545 -0.5613 -0.3686  0.0393
 6008SOL     OW23803   5.476   4.887   3.237 -0.3392 -0.4156  0.0600
 6008SOL    HW223804   5.445   4.917   3.323 -0.5237  0.1422 -0.1978
 6008SOL    HW323805   5.563   4.926   3.229 -0.1764 -0.7604  0.1445
 6008SOL    MW423806   5.483   4.896   3.248 -0.3421 -0.3875  0.0371
 6009SOL     OW23807   4.106   4.957   2.248 -0.3857 -0.5594  0.0075
 6009SOL    HW223808   4.060   4.881   2.284 -1.3333  0.1839  0.4141
 6009SOL    HW323809   4.060   5.032   2.284  0.2547  0.2147 -0.7405
 6009SOL    MW423810   4.094   4.957   2.257 -0.4262 -0.3592 -0.0375
 6010SOL     OW23811   1.064   0.301   4.411 -0.3025  0.0852 -0.4441
 6010SOL    HW223812   1.125   0.362   4.454 -2.7684  1.1792  1.8014
 6010SOL    HW323813   1.042   0.344   4.328  0.7484  0.4308 -0.5566
 6010SOL    MW423814   1.069   0.315   4.406 -0.4892  0.2751 -0.1627
 6011SOL     OW23815   3.267   1.727   1.828  0.5008 -0.3936 -0.4135
 6011SOL    HW223816   3.188   1.704   1.780 -0.3592  1.4723  0.0185
 6011SOL    HW323817   3.303   1.803   1.782  2.0088 -1.1383 -0.5343
 6011SOL    MW423818   3.261   1.734   1.816  0.5863 -0.2456 -0.3724
 6012SOL     OW23819   1.546   5.022   1.837 -0.0435 -0.0131 -0.4151
 6012SOL    HW223820   1.555   5.067   1.921 -0.4085  0.8439 -0.8324
 6012SOL    HW323821   1.631   5.033   1.795 -0.4598  1.2153 -0.9651
 6012SOL    MW423822   1.559   5.029   1.843 -0.1466  0.2620 -0.5427
 6013SOL     OW23823   4.336   4.889   0.200 -0.3351 -0.0022  0.1123
 6013SOL    HW223824   4.322   4.856   0.289 -1.0421  1.2997  0.5082
 6013SOL    HW323825   4.418   4.939   0.207 -0.3579  0.0470  0.0146
 6013SOL    MW423826   4.345   4.892   0.213 -0.4314  0.1761  0.1516
 6014SOL     OW23827   4.975   5.892   3.981 -0.1875 -0.2754  0.0263
 6014SOL    HW223828   4.990   5.960   4.047 -0.5954 -0.6793  0.5454
 6014SOL    HW323829   5.040   5.825   4.001 -1.5842 -1.3102  1.2902
 6014SOL    MW423830   4.986   5.892   3.992 -0.4256 -0.4652  0.2615
 6015SOL     OW23831   1.486   3.250   0.532 -0.5605 -0.4550 -0.1382
 6015SOL    HW223832   1.473   3.161   0.564 -2.6804 -1.3686 -3.0620
 6015SOL    HW323833   1.529   3.239   0.447 -0.4511  1.3342 -0.3553
 6015SOL    MW423834   1.490   3.237   0.525 -0.8257 -0.3394 -0.5526
 6016SOL     OW23835   4.525   5.195   0.404  0.6729  0.2664  0.2325
 6016SOL    HW223836   4.512   5.289   0.397  0.8461  0.2858  0.1642
 6016SOL    HW323837   4.494   5.173   0.492 -1.0064  0.1094 -0.3570
 6016SOL    MW423838   4.519   5.204   0.415  0.4742  0.2483  0.1457
 6017SOL     OW23839   5.103   0.273   2.295 -0.3263 -0.4823  0.4233
 6017SOL    HW223840   5.135   0.183   2.294  2.8708  0.5240  1.7959
 6017SOL    HW323841   5.101   0.297   2.387  0.4864  1.3321  0.0112
 6017SOL    MW423842   5.107   0.264   2.307  0.2028 -0.1101  0.5500
 6018SOL     OW23843   1.640   0.671   4.526  0.6243 -0.2781  0.2019
 6018SOL    HW223844   1.668   0.581   4.543  1.0778 -0.2031 -0.1166
 6018SOL    HW323845   1.547   0.664   4.504  0.7400 -0.7150 -0.1757
 6018SOL    MW423846   1.631   0.658   4.525  0.6994 -0.3258  0.1101
 6019SOL     OW23847   4.550   6.307   6.183  0.2976  0.1597 -0.0772
 6019SOL    HW223848   4.527   6.263   6.265 -0.9341  1.9699  0.6067
 6019SOL    HW323849   4.642   6.332   6.194  0.2399  0.0883  0.6158
 6019SOL    MW423850   4.559   6.304   6.196  0.1274  0.3891  0.1045
 6020SOL     OW23851   3.564   5.434   2.998  0.5946 -0.1198 -0.1645
 6020SOL    HW223852   3.516   5.489   3.060  0.0439 -0.2174 -0.4981
 6020SOL    HW323853   3.650   5.422   3.038  0.6799  0.8734 -0.0253
 6020SOL    MW423854   3.569   5.440   3.011  0.5332 -0.0016 -0.1901
 6021SOL     OW23855   4.357   4.012   6.021 -0.6265 -0.4956  0.5633
 6021SOL    HW223856   4.295   4.059   6.076 -0.3259 -0.7884  1.1643
 6021SOL    HW323857   4.431   3.995   6.079 -0.5957 -1.4200  0.2581
 6021SOL    MW423858   4.359   4.016   6.036 -0.5828 -0.6562  0.6023
 6022SOL     OW23859   1.764   2.091   2.659  0.2576 -0.0500  0.4491
 6022SOL    HW223860   1.836   2.046   2.702 -1.6061 -0.4194  3.4478
 6022SOL    HW323861   1.790   2.183   2.658  0.1056  0.1063  3.2356
 6022SOL    MW423862   1.777   2.097   2.664 -0.0084 -0.0781  1.2124
 6023SOL     OW23863   2.533   0.167   3.621  0.2157  0.1775 -0.1755
 6023SOL    HW223864   2.508   0.243   3.673  1.3358  0.6269 -0.2658
 6023SOL    HW323865   2.450   0.129   3.592 -0.4262  0.1974  1.5112
 6023SOL    MW423866   2.519   0.172   3.624  0.2788  0.2394  0.0351
 6024SOL     OW23867   2.342   4.646   4.847 -0.3001 -0.6273  0.1070
 6024SOL    HW223868   2.432   4.615   4.857  1.2167  2.8526 -1.1711
 6024SOL    HW323869   2.293   4.568   4.822  2.5327 -2.5104 -0.0465
 6024SOL    MW423870   2.348   4.631   4.845  0.2738 -0.4166 -0.0818
 6025SOL     OW23871   1.822   2.239   0.025 -0.1490 -0.3540 -0.0104
 6025SOL    HW223872   1.884   2.302   0.061  0.9763 -0.5173 -1.5719
 6025SOL    HW323873   1.758   2.293  -0.021 -0.0159 -0.2847 -0.1148
 6025SOL    MW423874   1.822   2.255   0.024  0.0170 -0.3664 -0.2302
 6026SOL     OW23875   4.635   1.178   3.324  0.5069  0.2011  0.0798
 6026SOL    HW223876   4.634   1.208   3.234 -1.6732  0.7754  0.2303
 6026SOL    HW323877   4.726   1.157   3.342  0.8270 -0.9962 -2.5851
 6026SOL    MW423878   4.647   1.180   3.315  0.2615  0.1189 -0.2520
 6027SOL     OW23879   5.828   4.966   5.905 -0.5977 -0.2164  0.2082
 6027SOL    HW223880   5.915   4.985   5.939 -0.7572 -0.6254  0.8566
 6027SOL    HW323881   5.836   4.878   5.868 -0.5850 -0.0180 -0.2674
 6027SOL    MW423882   5.841   4.957   5.905 -0.6171 -0.2442  0.2310
 6028SOL     OW23883   2.848   3.271   5.621 -0.1659 -0.0064  0.4345
 6028SOL    HW223884   2.852   3.306   5.532 -2.6262  0.2044  0.3496
 6028SOL    HW323885   2.850   3.347   5.678  0.9483 -0.1176  0.5585
 6028SOL    MW423886   2.849   3.285   5.617 -0.3435  0.0067  0.4397
 6029SOL     OW23887   0.305   4.612   1.394 -0.1825 -0.2084 -0.0864
 6029SOL    HW223888   0.220   4.630   1.355 -0.0066  1.2739  0.1566
 6029SOL    HW323889   0.361   4.684   1.365  0.9873 -1.1386 -0.2124
 6029SOL    MW423890   0.301   4.624   1.385 -0.0050 -0.1355 -0.0710
 6030SOL     OW23891   3.355   0.425   0.985 -0.2190 -0.3816 -0.5199
 6030SOL    HW223892   3.439   0.456   0.951  0.1029  1.3147  1.6124
 6030SOL    HW323893   3.297   0.501   0.979 -1.0391 -0.9676 -0.1862
 6030SOL    MW423894   3.359   0.439   0.980 -0.2847 -0.2351 -0.1946
 6031SOL     OW23895   5.715   5.807   5.926  0.4941  0.8422 -0.4504
 6031SOL    HW223896   5.633   5.835   5.887 -0.6922 -0.4973  0.9420
 6031SOL    HW323897   5.783   5.847   5.872 -1.0402  0.2208 -2.9989
 6031SOL    MW423898   5.713   5.816   5.914  0.1352  0.5835 -0.6029
 6032SOL     OW23899   3.939   3.603   2.353 -0.6118  0.0197  0.2689
 6032SOL    HW223900   3.938   3.587   2.448 -1.3959 -2.1710 -0.0631
 6032SOL    HW323901   4.032   3.611   2.331 -0.3072 -1.3315  0.9604
 6032SOL    MW423902   3.951   3.602   2.363 -0.6750 -0.4476  0.3164
 6033SOL     OW23903   3.065   3.112   5.598 -0.0723  0.1265 -0.1227
 6033SOL    HW223904   2.982   3.155   5.620  0.2495 -0.5966  3.0513
 6033SOL    HW323905   3.051   3.075   5.511 -2.9536  0.3561  0.1412
 6033SOL    MW423906   3.052   3.113   5.590 -0.4100  0.0614  0.3309
 6034SOL     OW23907   5.837   4.684   1.790 -0.3904  0.6121 -1.1066
 6034SOL    HW223908   5.864   4.599   1.825 -1.8229 -0.7472 -3.0855
 6034SOL    HW323909   5.908   4.710   1.732  0.3964  1.1793  0.0725
 6034SOL    MW423910   5.850   4.676   1.787 -0.4756  0.5076 -1.2121
 6035SOL     OW23911   1.602   6.349   0.993  0.5331 -0.2000 -0.4272
 6035SOL    HW223912   1.568   6.302   1.069  1.5396 -0.3839 -0.0720
 6035SOL    HW323913   1.649   6.423   1.031 -1.0630  1.1696 -0.9710
 6035SOL    MW423914   1.604   6.353   1.008  0.4553 -0.0436 -0.4521
 6036SOL     OW23915   1.325   0.029   4.474 -0.8418  0.0030 -0.3237
 6036SOL    HW223916   1.325   0.067   4.561  0.7160  0.7138 -0.5927
 6036SOL    HW323917   1.395  -0.037   4.477 -2.0602 -1.3266 -0.4918
 6036SOL    MW423918   1.334   0.025   4.486 -0.7970 -0.0787 -0.3813
 6037SOL     OW23919   5.429   2.282   0.427 -1.0538  0.0549  0.3805
 6037SOL    HW223920   5.356   2.257   0.484 -1.0442  0.3891  0.5418
 6037SOL    HW323921   5.391   2.343   0.364 -1.3284 -1.2184 -0.7293
 6037SOL    MW423922   5.414   2.286   0.426 -1.0887 -0.0690  0.2553
 6038SOL     OW23923   4.910   4.726   0.605  0.1956 -0.2362 -0.7949
 6038SOL    HW223924   4.829   4.705   0.558 -0.1339 -2.6780  0.7072
 6038SOL    HW323925   4.959   4.644   0.605  1.9857  0.7986 -0.3408
 6038SOL    MW423926   4.906   4.712   0.599  0.3883 -0.4218 -0.5368
 6039SOL     OW23927   6.274   6.113   1.968 -0.0205 -0.2850  0.1670
 6039SOL    HW223928   6.364   6.144   1.966  0.0108 -0.3701 -1.9681
 6039SOL    HW323929   6.277   6.034   2.022  1.2841 -0.5578 -0.2690
 6039SOL    MW423930   6.286   6.106   1.975  0.1557 -0.3322 -0.1722
 6040SOL     OW23931   0.655   0.574   5.238 -0.0745 -0.5398  0.4124
 6040SOL    HW223932   0.651   0.493   5.289  0.2456 -1.7486 -1.3687
 6040SOL    HW323933   0.746   0.603   5.246 -0.0105 -0.7582  0.4888
 6040SOL    MW423934   0.667   0.567   5.245 -0.0238 -0.7281  0.1875
 6041SOL     OW23935   3.554   2.788   1.445  0.3031  0.2256  0.1699
 6041SOL    HW223936   3.553   2.841   1.365 -0.4389  0.7047  0.4814
 6041SOL    HW323937   3.619   2.830   1.502  0.8427 -0.1256 -0.1781
 6041SOL    MW423938   3.562   2.801   1.442  0.2764  0.2425  0.1651
 6042SOL     OW23939   0.042   2.029   4.898  0.4162 -0.0200 -0.2012
 6042SOL    HW223940  -0.050   2.017   4.874  0.4397  0.6481 -0.6559
 6042SOL    HW323941   0.040   2.059   4.989  0.0922  1.3029 -0.6177
 6042SOL    MW423942   0.030   2.031   4.906  0.3765  0.2427 -0.3162
 6043SOL     OW23943   4.099   2.479   1.486  0.3881 -0.0035  0.1351
 6043SOL    HW223944   4.055   2.394   1.494 -0.1225 -0.0851 -2.5125
 6043SOL    HW323945   4.030   2.543   1.497 -0.4552 -0.1225 -3.2624
 6043SOL    MW423946   4.084   2.476   1.488  0.2095 -0.0300 -0.6625
 6044SOL     OW23947   2.703   6.265   1.647 -0.6079 -0.7155 -0.0148
 6044SOL    HW223948   2.773   6.322   1.677 -2.1218  0.4533  1.4733
 6044SOL    HW323949   2.722   6.250   1.554  1.0426  0.3542  0.1113
 6044SOL    MW423950   2.714   6.270   1.638 -0.5899 -0.4202  0.1982
 6045SOL     OW23951   4.611   2.879   1.415 -0.1924 -0.5862 -0.3685
 6045SOL    HW223952   4.667   2.956   1.424 -0.9443 -0.0776  0.0840
 6045SOL    HW323953   4.555   2.881   1.493 -2.7429  0.5092 -2.0865
 6045SOL    MW423954   4.611   2.890   1.426 -0.6281 -0.3746 -0.5355
 6046SOL     OW23955   4.748   5.829   4.961  0.0063  0.0787  0.7925
 6046SOL    HW223956   4.814   5.877   5.010  0.1453  0.3805  0.3159
 6046SOL    HW323957   4.693   5.897   4.922  0.6807 -0.1132 -0.5440
 6046SOL    MW423958   4.750   5.844   4.962  0.1136  0.0932  0.5533
 6047SOL     OW23959   1.050   0.450   0.160 -0.2880  0.0329  0.7466
 6047SOL    HW223960   1.105   0.373   0.150 -0.0661  0.1860  0.7729
 6047SOL    HW323961   1.041   0.461   0.255 -1.9536 -1.1098  0.7607
 6047SOL    MW423962   1.056   0.441   0.172 -0.4785 -0.0977  0.7519
 6048SOL     OW23963   6.306   6.013   6.357 -0.1219 -0.1932 -0.0226
 6048SOL    HW223964   6.284   5.942   6.297 -0.2774 -2.2074  2.2761
 6048SOL    HW323965   6.387   5.986   6.398 -0.3042  0.8466  1.0825
 6048SOL    MW423966   6.313   6.000   6.355 -0.1665 -0.3218  0.4265
 6049SOL     OW23967   4.758   6.269   5.294  0.3204 -0.4199 -0.0451
 6049SOL    HW223968   4.668   6.236   5.285  0.5718 -0.7616 -1.4714
 6049SOL    HW323969   4.773   6.319   5.214  1.0360  0.5662  0.6841
 6049SOL    MW423970   4.748   6.271   5.283  0.4480 -0.3349 -0.1371
 6050SOL     OW23971   3.689   2.561   2.419 -0.2012  0.0356 -0.1319
 6050SOL    HW223972   3.782   2.558   2.438 -0.0518  1.0468 -0.6719
 6050SOL    HW323973   3.649   2.594   2.499 -0.2517 -1.5995  0.5498
 6050SOL    MW423974   3.696   2.565   2.432 -0.1882 -0.0467 -0.1132
 6051SOL     OW23975   5.262   1.329   6.028 -0.2854  0.2743 -0.5458
 6051SOL    HW223976   5.260   1.307   5.935  0.0745 -0.6877 -0.3379
 6051SOL    HW323977   5.354   1.346   6.047 -0.1206 -1.0807 -0.0371
 6051SOL    MW423978   5.274   1.328   6.019 -0.2162 -0.0314 -0.4513
 6052SOL     OW23979   2.881   0.803   0.765 -0.0026  0.0689 -0.5664
 6052SOL    HW223980   2.842   0.840   0.686  1.5705  1.0734 -0.9049
 6052SOL    HW323981   2.945   0.739   0.733 -0.5469 -0.7675 -0.0396
 6052SOL    MW423982   2.884   0.799   0.750  0.1331  0.0911 -0.5416
 6053SOL     OW23983   1.538   5.342   0.325 -0.2017 -0.1798  0.6249
 6053SOL    HW223984   1.484   5.304   0.256 -0.8430  0.6325  0.6643
 6053SOL    HW323985   1.503   5.430   0.337 -0.2900 -0.3921  2.1843
 6053SOL    MW423986   1.526   5.348   0.317 -0.2980 -0.1006  0.8358
 6054SOL     OW23987   3.724   0.327   4.471  0.0222 -0.4230  0.2128
 6054SOL    HW223988   3.809   0.284   4.481  0.9703  1.3120  0.1369
 6054SOL    HW323989   3.713   0.376   4.553 -0.8793 -0.5627  0.1848
 6054SOL    MW423990   3.734   0.328   4.483  0.0284 -0.2125  0.1991
 6055SOL     OW23991   2.652   1.995   4.735  0.4721 -0.2791 -0.2272
 6055SOL    HW223992   2.722   1.988   4.799  1.6944  0.2092 -1.4664
 6055SOL    HW323993   2.572   1.973   4.784  1.2377  0.8562  1.6344
 6055SOL    MW423994   2.650   1.991   4.750  0.7344 -0.0649 -0.1451
 6056SOL     OW23995   6.425   4.923   2.604 -0.1646  0.3190 -0.5691
 6056SOL    HW223996   6.389   5.010   2.620 -0.5499 -0.2394  2.2362
 6056SOL    HW323997   6.498   4.937   2.544 -1.0411  2.3514 -1.2436
 6056SOL    MW423998   6.430   4.936   2.598 -0.3311  0.5134 -0.2880
 6057SOL     OW23999   0.396   0.079   1.972  0.1634  0.3301  0.0018
 6057SOL    HW224000   0.447   0.155   1.944 -0.2201  0.3157 -0.7577
 6057SOL    HW324001   0.414   0.071   2.066  0.0966  1.4364  0.1186
 6057SOL    MW424002   0.405   0.088   1.981  0.1040  0.4741 -0.0830
 6058SOL     OW24003   1.510   3.723   2.625  0.3430 -0.6958 -0.8533
 6058SOL    HW224004   1.591   3.698   2.669 -0.0985 -0.7271 -0.0417
 6058SOL    HW324005   1.459   3.642   2.622 -0.1184 -0.4341 -0.3345
 6058SOL    MW424006   1.514   3.709   2.631  0.2239 -0.6654 -0.6777
 6059SOL     OW24007   4.907   1.355   0.496 -0.1181 -0.8358 -0.3672
 6059SOL    HW224008   4.985   1.327   0.448  0.5280  1.3409 -0.6784
 6059SOL    HW324009   4.864   1.418   0.438 -0.9994 -0.4742  0.6419
 6059SOL    MW424010   4.912   1.360   0.482 -0.1491 -0.5009 -0.2751
 6060SOL     OW24011   0.534   1.758   1.987  0.3499  0.0903 -0.2786
 6060SOL    HW224012   0.523   1.826   1.920 -0.7062  0.4804  0.2735
 6060SOL    HW324013   0.489   1.682   1.951 -0.6955  0.4613  0.1963
 6060SOL    MW424014   0.527   1.757   1.973  0.0726  0.1907 -0.1431
 6061SOL     OW24015   2.801   4.273   4.054  0.5958  0.0809  0.1343
 6061SOL    HW224016   2.803   4.233   3.966  0.1388  3.4391 -1.5651
 6061SOL    HW324017   2.864   4.344   4.049 -0.3928  1.1626  2.1059
 6061SOL    MW424018   2.809   4.277   4.041  0.4051  0.6667  0.1702
 6062SOL     OW24019   4.869   3.181   3.123 -0.2696 -0.1350  0.3425
 6062SOL    HW224020   4.806   3.207   3.056  0.4092  0.0905 -0.2256
 6062SOL    HW324021   4.841   3.094   3.150 -0.5981 -0.1965 -0.1837
 6062SOL    MW424022   4.857   3.173   3.118 -0.2234 -0.1134  0.1981
 6063SOL     OW24023   0.165   0.631   5.780  0.3097  1.1115 -0.3128
 6063SOL    HW224024   0.137   0.673   5.699 -0.8720  2.0814  0.5531
 6063SOL    HW324025   0.229   0.565   5.752 -1.9723 -0.4445 -2.3326
 6063SOL    MW424026   0.170   0.628   5.766 -0.1473  1.0341 -0.4650
 6064SOL     OW24027   1.947   4.915   4.647  0.0343 -0.4928 -0.0819
 6064SOL    HW224028   1.978   4.983   4.706  1.2655 -0.9888 -0.1239
 6064SOL    HW324029   1.852   4.921   4.651  0.1155  0.7166  0.4932
 6064SOL    MW424030   1.939   4.925   4.655  0.2075 -0.3987 -0.0116
 6065SOL     OW24031   5.346   4.518   2.859  0.3677  0.2066  0.3035
 6065SOL    HW224032   5.318   4.536   2.770 -0.1376  1.5064  0.6980
 6065SOL    HW324033   5.413   4.584   2.877  1.1893 -0.6759  0.5549
 6065SOL    MW424034   5.351   4.529   2.850  0.4095  0.2616  0.3887
 6066SOL     OW24035   6.245   5.638   0.878 -0.3151 -0.0880 -0.5588
 6066SOL    HW224036   6.171   5.585   0.908  0.6392 -1.6402 -0.8525
 6066SOL    HW324037   6.305   5.576   0.839  1.7236  0.9363  0.7720
 6066SOL    MW424038   6.243   5.623   0.877  0.0798 -0.1577 -0.4220
 6067SOL     OW24039   3.409   3.173   4.563 -0.3861 -0.0426  0.1831
 6067SOL    HW224040   3.425   3.082   4.585 -0.0692 -0.3977 -1.4498
 6067SOL    HW324041   3.482   3.221   4.602 -0.6832 -0.4168  1.2583
 6067SOL    MW424042   3.421   3.168   4.571 -0.3835 -0.1388  0.1095
 6068SOL     OW24043   3.514   2.651   2.043  0.2712 -0.0509 -0.0091
 6068SOL    HW224044   3.448   2.589   2.072  1.0409 -1.1266 -0.4709
 6068SOL    HW324045   3.469   2.706   1.979 -0.1593 -0.8139 -0.3765
 6068SOL    MW424046   3.500   2.650   2.039  0.3160 -0.2935 -0.1185
 6069SOL     OW24047   5.833   1.594   0.467  0.0616 -0.0436  0.7011
 6069SOL    HW224048   5.799   1.652   0.535  0.3386  0.7011  0.2245
 6069SOL    HW324049   5.855   1.653   0.395  1.8926 -0.5311  0.8038
 6069SOL    MW424050   5.832   1.610   0.466  0.3397 -0.0096  0.6518
 6070SOL     OW24051   0.843   6.371   5.620  0.2675  0.1764 -0.1892
 6070SOL    HW224052   0.765   6.380   5.676  0.0973  0.9960 -0.5505
 6070SOL    HW324053   0.823   6.423   5.543  1.2428  0.5195 -0.2205
 6070SOL    MW424054   0.830   6.379   5.618  0.3737  0.3298 -0.2410
 6071SOL     OW24055   5.942   4.334   4.848  0.1030 -0.0371 -0.1649
 6071SOL    HW224056   6.036   4.314   4.848 -0.1471 -1.3275  0.4325
 6071SOL    HW324057   5.931   4.393   4.922  0.4850  0.3534 -0.4142
 6071SOL    MW424058   5.953   4.339   4.858  0.1204 -0.1558 -0.1190
 6072SOL     OW24059   0.478   3.469   1.826  0.2097 -0.1227  0.0844
 6072SOL    HW224060   0.383   3.465   1.825  0.1159  0.9234  1.5050
 6072SOL    HW324061   0.506   3.406   1.760 -1.4542 -0.5988 -0.1965
 6072SOL    MW424062   0.469   3.460   1.817 -0.0222 -0.0475  0.2348
 6073SOL     OW24063   5.449   1.664   2.855 -0.1566  0.5083 -0.1299
 6073SOL    HW224064   5.432   1.687   2.947 -0.3387  0.9093 -0.2622
 6073SOL    HW324065   5.373   1.612   2.829 -1.0134  1.9267 -0.5884
 6073SOL    MW424066   5.437   1.660   2.864 -0.2937  0.7483 -0.2079
 6074SOL     OW24067   1.893   0.671   0.557 -0.3500  0.4871  0.2464
 6074SOL    HW224068   1.854   0.754   0.585 -1.4691 -0.1198  0.5769
 6074SOL    HW324069   1.868   0.609   0.626  2.4627  0.3301  1.2669
 6074SOL    MW424070   1.884   0.674   0.570 -0.1266  0.3863  0.4246
 6075SOL     OW24071   4.461   4.271   5.452 -0.5011  0.1311  0.0553
 6075SOL    HW224072   4.469   4.333   5.524 -1.7296  0.0372  0.3002
 6075SOL    HW324073   4.384   4.300   5.404  1.3071  1.3118 -2.3762
 6075SOL    MW424074   4.452   4.283   5.455 -0.4246  0.2745 -0.2332
 6076SOL     OW24075   1.084   3.674   3.795  0.7245  0.0646 -0.2591
 6076SOL    HW224076   1.026   3.688   3.870  0.9220 -0.6569  0.0313
 6076SOL    HW324077   1.169   3.706   3.825  0.3371  1.8219 -0.9419
 6076SOL    MW424078   1.088   3.680   3.809  0.6995  0.2013 -0.3108
 6077SOL     OW24079   6.245   0.396   1.830  0.1434  0.2842  0.4379
 6077SOL    HW224080   6.340   0.383   1.829  0.2444  0.4957  2.8950
 6077SOL    HW324081   6.211   0.325   1.884 -1.0941  0.3782 -0.1752
 6077SOL    MW424082   6.253   0.385   1.837 -0.0066  0.3245  0.6812
 6078SOL     OW24083   0.673   1.614   6.051  0.3696  0.7528  0.3937
 6078SOL    HW224084   0.701   1.651   6.135  0.6745  2.2493 -0.3206
 6078SOL    HW324085   0.752   1.617   5.996  0.0849  0.1366 -0.0558
 6078SOL    MW424086   0.687   1.619   6.055  0.3723  0.8689  0.2401
 6079SOL     OW24087   3.829   0.485   1.029  0.4581 -0.0450  0.0099
 6079SOL    HW224088   3.895   0.507   0.963 -0.8892  1.9941 -0.7712
 6079SOL    HW324089   3.837   0.554   1.095  0.3048 -0.8026  0.8398
 6079SOL    MW424090   3.838   0.497   1.029  0.2601  0.1241  0.0163
 6080SOL     OW24091   1.667   1.681   4.523 -0.4182  0.4508  0.1289
 6080SOL    HW224092   1.624   1.596   4.512 -0.3466  0.2204  1.5063
 6080SOL    HW324093   1.726   1.687   4.448 -0.9300 -0.3905 -0.3668
 6080SOL    MW424094   1.669   1.671   4.512 -0.4763  0.3094  0.2452
 6081SOL     OW24095   0.473   3.752   2.565  0.0275 -0.4482  0.2061
 6081SOL    HW224096   0.488   3.719   2.476 -0.8572 -0.8423  0.1894
 6081SOL    HW324097   0.429   3.679   2.610 -0.1865  0.0098  0.7455
 6081SOL    MW424098   0.469   3.738   2.559 -0.1175 -0.4398  0.2751
 6082SOL     OW24099   0.634   2.453   3.328  0.2158  0.3023  0.2564
 6082SOL    HW224100   0.723   2.460   3.360 -0.1981 -0.9869  1.8062
 6082SOL    HW324101   0.632   2.370   3.280 -0.1600  0.3049  0.2583
 6082SOL    MW424102   0.645   2.443   3.326  0.1116  0.1325  0.4611
 6083SOL     OW24103   1.616   0.258   3.919 -0.0278  0.0647 -0.6347
 6083SOL    HW224104   1.661   0.180   3.949  0.4183  0.8649  0.8889
 6083SOL    HW324105   1.524   0.243   3.941  0.3441  0.8317  1.7713
 6083SOL    MW424106   1.610   0.246   3.926  0.0801  0.2715 -0.1163
 6084SOL     OW24107   5.846   1.149   0.144 -0.5108 -0.0233  0.1205
 6084SOL    HW224108   5.908   1.117   0.209 -0.0307 -1.1433 -0.8492
 6084SOL    HW324109   5.805   1.070   0.108 -1.5945  0.6279 -0.1481
 6084SOL    MW424110   5.849   1.134   0.148 -0.5905 -0.0851 -0.0429
 6085SOL     OW24111   1.801   0.480   1.463 -0.3851  0.1477  0.6815
 6085SOL    HW224112   1.869   0.547   1.465  0.9029 -0.9574 -1.8191
 6085SOL    HW324113   1.796   0.449   1.554 -0.3676  2.9084  1.7081
 6085SOL    MW424114   1.810   0.485   1.475 -0.2129  0.3661  0.4871
 6086SOL     OW24115   3.336   3.523   4.909  0.1275 -0.0265 -0.1351
 6086SOL    HW224116   3.298   3.450   4.957  0.5327  0.1461  0.4793
 6086SOL    HW324117   3.286   3.529   4.828  0.6341 -1.5180 -0.5877
 6086SOL    MW424118   3.325   3.514   4.905  0.2478 -0.2005 -0.1138
 6087SOL     OW24119   3.234   3.602   0.208 -0.7684  0.3821 -0.3566
 6087SOL    HW224120   3.182   3.660   0.264 -0.9606 -1.8150  1.8973
 6087SOL    HW324121   3.308   3.655   0.180 -2.1006  2.3684 -0.3309
 6087SOL    MW424122   3.237   3.617   0.211 -0.9695  0.3543 -0.0559
 6088SOL     OW24123   1.377   3.282   4.964 -0.1329 -0.6066 -0.0743
 6088SOL    HW224124   1.379   3.203   5.017 -0.0768  0.1128  1.0289
 6088SOL    HW324125   1.333   3.256   4.883 -0.5669 -1.6364  0.4790
 6088SOL    MW424126   1.371   3.268   4.960 -0.1828 -0.6476  0.1443
 6089SOL     OW24127   5.739   2.196   2.000 -0.8055 -0.4628  0.2325
 6089SOL    HW224128   5.735   2.265   1.934 -1.0091 -0.3276  0.3874
 6089SOL    HW324129   5.712   2.238   2.081  0.4904 -0.3623  0.6281
 6089SOL    MW424130   5.735   2.210   2.002 -0.6613 -0.4317  0.3051
 6090SOL     OW24131   2.593   0.982   5.969  0.2896 -0.3522 -0.0106
 6090SOL    HW224132   2.570   0.901   5.923  0.9423 -0.4820 -0.1155
 6090SOL    HW324133   2.662   1.021   5.916  0.5665 -0.1531  0.4881
 6090SOL    MW424134   2.599   0.976   5.956  0.4122 -0.3431  0.0414
 6091SOL     OW24135   3.281   2.854   5.145 -0.5050  0.1096  0.2474
 6091SOL    HW224136   3.247   2.793   5.080 -1.7502 -0.5619  1.4863
 6091SOL    HW324137   3.243   2.825   5.228 -1.4386  2.7525  0.8527
 6091SOL    MW424138   3.271   2.842   5.148 -0.7925  0.3697  0.4907
 6092SOL     OW24139   4.568   6.283   3.521  0.2437 -0.0987  0.0773
 6092SOL    HW224140   4.485   6.292   3.474  0.4833 -1.5508 -0.6656
 6092SOL    HW324141   4.620   6.357   3.490  0.1187 -0.6023 -1.3866
 6092SOL    MW424142   4.564   6.294   3.511  0.2588 -0.3568 -0.2139
 6093SOL     OW24143   5.265   1.976   5.288  0.3255  1.3837 -0.5975
 6093SOL    HW224144   5.284   1.898   5.235 -0.3809 -0.5599  1.8389
 6093SOL    HW324145   5.173   1.995   5.271  0.0157  0.5741  0.1194
 6093SOL    MW424146   5.256   1.968   5.279  0.1914  1.0205 -0.1815
 6094SOL     OW24147   4.560   5.621   1.687 -0.4980 -0.5287  0.0564
 6094SOL    HW224148   4.617   5.698   1.691  0.7015 -1.3818 -0.0518
 6094SOL    HW324149   4.487   5.648   1.631 -0.5372  0.7878  0.6985
 6094SOL    MW424150   4.558   5.635   1.680 -0.3449 -0.4676  0.1269
 6095SOL     OW24151   3.942   4.707   5.328  0.2960  0.3328  0.3462
 6095SOL    HW224152   3.940   4.794   5.288 -0.0598  1.1710  2.0836
 6095SOL    HW324153   3.928   4.723   5.422 -0.8373 -1.6781  0.5882
 6095SOL    MW424154   3.940   4.720   5.335  0.0995  0.1781  0.6074
 6096SOL     OW24155   1.988   1.158   5.913  0.2514 -0.1140 -0.1076
 6096SOL    HW224156   1.896   1.166   5.891  0.5630  0.1451 -1.3887
 6096SOL    HW324157   2.003   1.063   5.919  0.1862 -0.2106 -1.2421
 6096SOL    MW424158   1.978   1.146   5.911  0.2839 -0.0926 -0.4263
 6097SOL     OW24159   2.529   0.066   0.423  0.1918  0.6755  0.3039
 6097SOL    HW224160   2.613   0.042   0.461  0.1110 -0.1941 -0.0468
 6097SOL    HW324161   2.535   0.161   0.407  1.5319  0.4201 -0.7961
 6097SOL    MW424162   2.541   0.076   0.426  0.3579  0.5271  0.1125
 6098SOL     OW24163   1.674   3.037   0.849 -0.0036 -0.5302 -0.1304
 6098SOL    HW224164   1.735   3.064   0.781  0.0954  2.9110  1.1569
 6098SOL    HW324165   1.597   3.005   0.800  0.2757  1.2862 -1.8883
 6098SOL    MW424166   1.672   3.036   0.833  0.0463  0.1634 -0.1925
 6099SOL     OW24167   4.432   3.132   3.626  0.5540  0.8880 -0.4234
 6099SOL    HW224168   4.341   3.144   3.654  0.0546  0.2197 -1.7061
 6099SOL    HW324169   4.434   3.046   3.585  1.2799  1.7193 -2.2551
 6099SOL    MW424170   4.420   3.123   3.624  0.5839  0.9095 -0.8343
 6100SOL     OW24171   1.339   2.379   5.885 -0.4647 -0.6210  0.4811
 6100SOL    HW224172   1.352   2.286   5.865  0.4493 -0.1034 -1.5793
 6100SOL    HW324173   1.341   2.422   5.800 -0.0483  1.4013  1.4676
 6100SOL    MW424174   1.341   2.372   5.871 -0.2891 -0.2859  0.3394
 6101SOL     OW24175   3.233   4.244   5.041 -0.2111  0.1934 -0.0353
 6101SOL    HW224176   3.271   4.269   4.957  0.7137 -1.2891 -0.1036
 6101SOL    HW324177   3.307   4.241   5.101 -0.6930  0.1776  0.5706
 6101SOL    MW424178   3.247   4.247   5.038 -0.1527 -0.0043  0.0356
 6102SOL     OW24179   3.108   2.783   1.730 -0.3393  0.0145 -0.2340
 6102SOL    HW224180   3.102   2.758   1.823  1.6321 -0.3742 -0.1683
 6102SOL    HW324181   3.042   2.852   1.720 -1.0371 -0.3728  1.2939
 6102SOL    MW424182   3.098   2.789   1.741 -0.1713 -0.0879 -0.0237
 6103SOL     OW24183   4.231   2.733   5.868 -0.6403  0.6373 -0.4643
 6103SOL    HW224184   4.232   2.828   5.856  2.1704  0.6792 -0.3956
 6103SOL    HW324185   4.274   2.719   5.953 -0.5420 -0.7313 -0.7172
 6103SOL    MW424186   4.237   2.744   5.878 -0.2565  0.4622 -0.4886
 6104SOL     OW24187   4.975   1.723   3.639 -0.6412  0.1058  0.2291
 6104SOL    HW224188   4.890   1.683   3.622 -0.6282  0.8791 -2.1322
 6104SOL    HW324189   4.957   1.817   3.646 -0.1405  0.1447  1.2069
 6104SOL    MW424190   4.962   1.730   3.637 -0.5734  0.2129  0.0466
 6105SOL     OW24191   5.450   4.401   0.293  0.1275 -0.1104  0.1695
 6105SOL    HW224192   5.415   4.325   0.339  0.4913  0.1638  0.9263
 6105SOL    HW324193   5.387   4.471   0.312 -0.7265 -0.4227 -1.3186
 6105SOL    MW424194   5.437   4.400   0.302  0.0629 -0.1154  0.0730
 6106SOL     OW24195   4.223   3.153   4.305  0.3256 -0.3308 -0.0322
 6106SOL    HW224196   4.220   3.062   4.274 -0.0847 -0.3219 -0.0150
 6106SOL    HW324197   4.161   3.156   4.378  0.3149 -0.0291 -0.0522
 6106SOL    MW424198   4.215   3.141   4.310  0.2700 -0.2898 -0.0326
 6107SOL     OW24199   4.237   2.800   5.144  0.5966  0.1774  0.1672
 6107SOL    HW224200   4.143   2.785   5.152  0.7562 -0.8812  0.2121
 6107SOL    HW324201   4.257   2.778   5.053  0.5675  1.8272 -0.2623
 6107SOL    MW424202   4.227   2.795   5.133  0.6138  0.2554  0.1164
 6108SOL     OW24203   4.140   3.626   1.875 -0.0960  0.6361  0.1922
 6108SOL    HW224204   4.077   3.687   1.838 -0.0312 -0.2739 -1.5084
 6108SOL    HW324205   4.220   3.678   1.887 -0.2340  1.0483 -0.6139
 6108SOL    MW424206   4.142   3.641   1.872 -0.1057  0.5704 -0.1385
 6109SOL     OW24207   3.721   2.721   3.031 -0.1188 -0.4228  0.1007
 6109SOL    HW224208   3.766   2.647   2.989 -1.5480 -0.9327 -0.6007
 6109SOL    HW324209   3.762   2.728   3.117 -0.9043 -3.0149  0.7925
 6109SOL    MW424210   3.732   2.712   3.037 -0.4110 -0.8321  0.0994
 6110SOL     OW24211   6.194   1.939   4.819 -0.0219 -0.7788 -0.4617
 6110SOL    HW224212   6.113   1.985   4.798  1.1697  1.2513 -0.8838
 6110SOL    HW324213   6.167   1.867   4.876 -1.9885  0.5199  0.3499
 6110SOL    MW424214   6.180   1.936   4.824 -0.1242 -0.3396 -0.4103
 6111SOL     OW24215   5.408   3.859   0.412 -0.1704 -0.1050  0.0286
 6111SOL    HW224216   5.405   3.954   0.411  0.9194 -0.0516  0.7052
 6111SOL    HW324217   5.450   3.837   0.495 -1.4956 -1.2139  0.4483
 6111SOL    MW424218   5.413   3.868   0.423 -0.2014 -0.2442  0.1733
 6112SOL     OW24219   5.058   3.572   1.796 -0.2709 -0.1658 -0.0862
 6112SOL    HW224220   4.978   3.581   1.847 -0.4603  2.8296 -0.7119
 6112SOL    HW324221   5.127   3.562   1.862 -1.0078 -1.6638  0.4946
 6112SOL    MW424222   5.057   3.572   1.811 -0.3931  0.0318 -0.0921
 6113SOL     OW24223   2.286   5.140   2.556  0.2285  0.8704  0.4570
 6113SOL    HW224224   2.251   5.174   2.638  0.2866  1.8739  0.0883
 6113SOL    HW324225   2.220   5.078   2.525 -1.5439  3.0727 -0.4585
 6113SOL    MW424226   2.273   5.136   2.562  0.0023  1.2933  0.2876
 6114SOL     OW24227   5.579   0.524   4.088  0.7995  0.3733 -0.5081
 6114SOL    HW224228   5.658   0.556   4.132 -0.4553  1.6141  0.9831
 6114SOL    HW324229   5.507   0.559   4.141 -0.7805 -3.1482 -0.0560
 6114SOL    MW424230   5.580   0.533   4.101  0.4255  0.0724 -0.2517
 6115SOL     OW24231   0.854   0.642   1.241  0.1758  0.1184  0.0086
 6115SOL    HW224232   0.890   0.624   1.328  1.9981  0.5839 -0.6208
 6115SOL    HW324233   0.860   0.737   1.232  1.1257 -0.0342 -1.0808
 6115SOL    MW424234   0.859   0.652   1.252  0.5416  0.1597 -0.2182
 6116SOL     OW24235   1.888   2.829   2.243  0.0612 -0.2160 -0.0530
 6116SOL    HW224236   1.926   2.819   2.156 -0.1471  1.7249 -0.4323
 6116SOL    HW324237   1.828   2.904   2.234  0.5058  0.4375  1.8918
 6116SOL    MW424238   1.885   2.838   2.231  0.0924  0.1263  0.1535
 6117SOL     OW24239   1.842   4.819   4.203 -0.4299  0.5057  0.0807
 6117SOL    HW224240   1.859   4.727   4.185 -1.6203  0.2401  0.1979
 6117SOL    HW324241   1.775   4.844   4.139  2.1970  2.2441 -2.2081
 6117SOL    MW424242   1.835   4.810   4.193 -0.2403  0.7000 -0.2058
 6118SOL     OW24243   3.341   0.839   1.955  0.2146  0.4566 -0.6464
 6118SOL    HW224244   3.414   0.900   1.965  0.7006 -0.3962  1.3960
 6118SOL    HW324245   3.295   0.843   2.039 -1.1867 -0.1906 -1.3523
 6118SOL    MW424246   3.344   0.848   1.967  0.0939  0.2587 -0.4701
 6119SOL     OW24247   3.434   5.548   2.469 -0.2323 -0.6063  0.3371
 6119SOL    HW224248   3.490   5.475   2.440 -0.1844 -0.2793 -0.4268
 6119SOL    HW324249   3.493   5.623   2.475 -0.8169  0.1224 -2.0094
 6119SOL    MW424250   3.450   5.548   2.466 -0.3031 -0.4670 -0.0733
 6120SOL     OW24251   3.421   4.350   2.632 -0.2889 -0.0227  0.3099
 6120SOL    HW224252   3.510   4.324   2.656 -0.1993 -1.4112 -1.2779
 6120SOL    HW324253   3.369   4.333   2.710  0.9996  2.0055  1.6920
 6120SOL    MW424254   3.426   4.344   2.645 -0.1071  0.0617  0.2827
 6121SOL     OW24255   3.618   1.490   5.288 -0.0598 -0.3020  0.1390
 6121SOL    HW224256   3.556   1.539   5.235  0.9273  0.5061 -0.3158
 6121SOL    HW324257   3.668   1.557   5.336 -1.3310 -1.0163  2.6342
 6121SOL    MW424258   3.617   1.505   5.287 -0.0973 -0.2896  0.4082
 6122SOL     OW24259   3.899   4.895   2.052 -0.2141 -0.4611 -0.2096
 6122SOL    HW224260   3.830   4.837   2.085 -0.6266  0.0789 -0.1113
 6122SOL    HW324261   3.940   4.931   2.130 -0.2540 -0.2803 -0.2714
 6122SOL    MW424262   3.895   4.892   2.066 -0.2738 -0.3660 -0.2048
 6123SOL     OW24263   6.232   5.933   1.277 -0.1047 -0.3486 -1.0269
 6123SOL    HW224264   6.281   5.883   1.212  0.7883 -0.4218 -0.3096
 6123SOL    HW324265   6.278   6.017   1.282 -0.0886 -0.3923 -0.3968
 6123SOL    MW424266   6.245   5.937   1.269  0.0152 -0.3641 -0.8491
 6124SOL     OW24267   5.266   0.591   2.780  0.6421  0.1175 -0.0276
 6124SOL    HW224268   5.180   0.614   2.744 -0.1289  0.2817  1.8194
 6124SOL    HW324269   5.319   0.670   2.767 -0.0483  0.6708  0.4734
 6124SOL    MW424270   5.262   0.605   2.774  0.4493  0.2122  0.2822
 6125SOL     OW24271   4.443   4.063   3.520  0.3413 -0.2712 -0.4557
 6125SOL    HW224272   4.400   4.057   3.605 -1.3727  0.3885 -1.2276
 6125SOL    HW324273   4.432   4.155   3.493 -0.8971 -0.8826 -2.2333
 6125SOL    MW424274   4.436   4.074   3.527 -0.0482 -0.2648 -0.7921
 6126SOL     OW24275   4.982   3.228   3.864  0.1057 -0.3836 -0.5124
 6126SOL    HW224276   5.060   3.198   3.910 -0.9738 -2.1674  0.2957
 6126SOL    HW324277   4.916   3.237   3.933 -0.9166 -0.8347 -1.4105
 6126SOL    MW424278   4.984   3.225   3.879 -0.1716 -0.6785 -0.5243
 6127SOL     OW24279   5.056   1.008   6.325 -0.0401  0.0920 -0.4968
 6127SOL    HW224280   5.131   1.048   6.370 -0.2492  0.5586 -0.5491
 6127SOL    HW324281   5.040   1.065   6.250 -0.2038 -0.2263 -0.7058
 6127SOL    MW424282   5.064   1.021   6.321 -0.0892  0.1116 -0.5313
 6128SOL     OW24283   3.683   3.275   3.677 -0.1812 -0.2571 -0.1641
 6128SOL    HW224284   3.700   3.266   3.583 -1.9598 -1.0274 -0.4549
 6128SOL    HW324285   3.587   3.272   3.684 -0.1619  1.3777  1.5361
 6128SOL    MW424286   3.672   3.273   3.665 -0.4133 -0.1430  0.0219
 6129SOL     OW24287   1.200   5.639   2.794 -0.5194  0.0057  0.1798
 6129SOL    HW224288   1.225   5.683   2.875 -0.6840 -1.2246  0.9382
 6129SOL    HW324289   1.202   5.546   2.817 -0.1303 -0.3909 -1.3667
 6129SOL    MW424290   1.204   5.632   2.808 -0.4898 -0.2090  0.0758
 6130SOL     OW24291   5.935   0.097   0.335  0.4339  0.2725 -0.0816
 6130SOL    HW224292   5.987   0.098   0.255 -1.2882  3.7378 -1.3415
 6130SOL    HW324293   5.975   0.162   0.391  1.9797 -2.5104  2.3375
 6130SOL    MW424294   5.947   0.105   0.332  0.4106  0.3625  0.0714
 6131SOL     OW24295   2.645   5.158   1.915  0.3807  0.2486  0.0728
 6131SOL    HW224296   2.735   5.130   1.932  0.3949  0.5470  0.4981
 6131SOL    HW324297   2.594   5.118   1.986  0.3586  1.0542  0.5244
 6131SOL    MW424298   2.650   5.149   1.927  0.3797  0.3942  0.1885
 6132SOL     OW24299   5.707   2.047   3.591 -0.0757  0.0097 -0.0519
 6132SOL    HW224300   5.756   2.084   3.517  0.4586 -0.0246  0.2740
 6132SOL    HW324301   5.770   2.049   3.663 -1.1471  1.7987  0.9062
 6132SOL    MW424302   5.722   2.052   3.591 -0.1465  0.2412  0.1175
 6133SOL     OW24303   0.773   3.597   0.783 -0.0673 -0.4919 -0.0700
 6133SOL    HW224304   0.833   3.523   0.779 -1.3817 -1.5739 -0.9254
 6133SOL    HW324305   0.806   3.659   0.718  0.1276 -1.0822 -0.5420
 6133SOL    MW424306   0.785   3.595   0.774 -0.2150 -0.7125 -0.2452
 6134SOL     OW24307   2.531   5.351   0.988 -0.0862 -0.9154 -0.2646
 6134SOL    HW224308   2.614   5.341   0.942  0.2658 -1.6904  0.5124
 6134SOL    HW324309   2.495   5.434   0.956  0.9674 -0.5930 -0.6399
 6134SOL    MW424310   2.537   5.361   0.978  0.0993 -0.9751 -0.2116
 6135SOL     OW24311   6.416   0.494   4.421  0.0128  0.3433  0.1449
 6135SOL    HW224312   6.382   0.417   4.466  2.7666 -0.1646  1.5697
 6135SOL    HW324313   6.343   0.524   4.367 -2.3691 -1.0838  2.3069
 6135SOL    MW424314   6.402   0.488   4.420  0.0619  0.0880  0.6181
 6136SOL     OW24315   5.153   1.001   1.783 -0.5100 -0.5246  0.6137
 6136SOL    HW224316   5.145   1.049   1.701 -2.2584  0.1001  1.0834
 6136SOL    HW324317   5.246   1.006   1.805 -0.1221 -0.1611 -0.9931
 6136SOL    MW424318   5.164   1.008   1.775 -0.6895 -0.3942  0.4637
 6137SOL     OW24319   1.902   5.898   5.106 -0.6101 -0.0089 -0.1453
 6137SOL    HW224320   1.860   5.963   5.161  0.5717  1.2831 -0.7137
 6137SOL    HW324321   1.833   5.867   5.048 -1.8163 -1.2015  1.8101
 6137SOL    MW424322   1.888   5.902   5.106 -0.6133  0.0042  0.0377
 6138SOL     OW24323   5.737   4.097   4.064 -0.0779 -0.4378 -0.3922
 6138SOL    HW224324   5.676   4.040   4.018 -3.5585  2.3085  0.4343
 6138SOL    HW324325   5.726   4.182   4.023  3.2601  0.2904 -0.1044
 6138SOL    MW424326   5.728   4.100   4.052 -0.0967  0.0206 -0.2452
 6139SOL     OW24327   6.254   4.766   5.863 -0.2416 -0.0151  0.2229
 6139SOL    HW224328   6.303   4.685   5.848  0.1575  0.4629 -1.1671
 6139SOL    HW324329   6.313   4.821   5.915 -1.2178 -1.2652  2.8752
 6139SOL    MW424330   6.268   4.762   5.868 -0.3177 -0.1169  0.3895
 6140SOL     OW24331   2.318   1.113   4.553  0.0151  0.1950  0.2467
 6140SOL    HW224332   2.266   1.076   4.624  0.5659 -0.5454  0.2701
 6140SOL    HW324333   2.255   1.160   4.499 -0.8729 -1.6356 -0.3552
 6140SOL    MW424334   2.303   1.115   4.556 -0.0294 -0.1442  0.1704
 6141SOL     OW24335   2.479   0.905   4.832  0.3198  0.2407 -0.1546
 6141SOL    HW224336   2.391   0.930   4.804  0.1957  0.3870  0.3465
 6141SOL    HW324337   2.469   0.815   4.862  0.7702 -0.4506 -1.9757
 6141SOL    MW424338   2.466   0.896   4.832  0.3628  0.1688 -0.3287
 6142SOL     OW24339   4.388   4.175   5.793 -0.8397  0.0225  0.3117
 6142SOL    HW224340   4.385   4.134   5.880  1.3290  0.1115  0.4720
 6142SOL    HW324341   4.448   4.121   5.742 -1.6040  0.3308 -0.9755
 6142SOL    MW424342   4.395   4.163   5.798 -0.6544  0.0749  0.1630
 6143SOL     OW24343   5.148   6.356   5.507 -0.1870  0.3825  0.0806
 6143SOL    HW224344   5.189   6.332   5.590 -2.0384  1.5190  1.3693
 6143SOL    HW324345   5.103   6.276   5.479  0.8235 -0.1440 -0.1180
 6143SOL    MW424346   5.148   6.342   5.514 -0.2980  0.4630  0.2245
 6144SOL     OW24347   0.291   6.207   0.729 -0.2752  0.1989 -0.1857
 6144SOL    HW224348   0.323   6.293   0.703  0.7212  0.4324  1.6717
 6144SOL    HW324349   0.229   6.224   0.800  1.8104 -0.6514  1.9783
 6144SOL    MW424350   0.287   6.221   0.735  0.1314  0.1175  0.3449
 6145SOL     OW24351   2.414   6.397   2.799 -0.0468  0.2708  0.0397
 6145SOL    HW224352   2.415   6.430   2.889  0.0841 -1.5654  0.7373
 6145SOL    HW324353   2.445   6.471   2.747  0.1959  1.2701  1.5256
 6145SOL    MW424354   2.418   6.411   2.804  0.0025  0.1604  0.3278
 6146SOL     OW24355   0.626   0.060   1.324 -0.3037 -0.2765 -0.3833
 6146SOL    HW224356   0.649   0.051   1.231  0.9157  0.6892 -0.2119
 6146SOL    HW324357   0.687   0.127   1.356 -1.9553  0.7787  0.6859
 6146SOL    MW424358   0.637   0.068   1.316 -0.3607 -0.0099 -0.2196
 6147SOL     OW24359   5.931   1.783   2.455 -0.2923  0.0150 -0.1361
 6147SOL    HW224360   5.953   1.787   2.548  0.9728  1.0896 -0.4538
 6147SOL    HW324361   5.980   1.855   2.416  0.5545 -1.4618 -1.9152
 6147SOL    MW424362   5.940   1.793   2.462 -0.0136 -0.0381 -0.4128
 6148SOL     OW24363   1.669   4.071   5.051 -0.5961  0.2560 -0.3099
 6148SOL    HW224364   1.730   4.025   5.108  0.5945  0.7454 -1.1561
 6148SOL    HW324365   1.627   4.136   5.107 -0.9711 -0.6251  0.4673
 6148SOL    MW424366   1.671   4.073   5.066 -0.4885  0.2043 -0.3190
 6149SOL     OW24367   0.496   3.563   0.716 -0.0056 -0.1636 -0.0711
 6149SOL    HW224368   0.586   3.549   0.745  0.0051  1.9604  1.0691
 6149SOL    HW324369   0.451   3.482   0.739  1.1631 -0.4860  1.2292
 6149SOL    MW424370   0.502   3.551   0.722  0.1500  0.0741  0.2509
 6150SOL     OW24371   1.242   0.449   5.016  0.2382  0.0520 -0.3623
 6150SOL    HW224372   1.256   0.476   5.107 -0.2756  1.2912 -0.6367
 6150SOL    HW324373   1.312   0.490   4.967  0.8765 -1.1184 -0.4612
 6150SOL    MW424374   1.253   0.458   5.022  0.2546  0.0611 -0.4116
 6151SOL     OW24375   2.834   5.940   4.207  0.4052 -0.2975  0.3931
 6151SOL    HW224376   2.914   5.908   4.248 -0.2178  0.5201  2.3661
 6151SOL    HW324377   2.832   6.033   4.228  0.3621  0.3732 -2.1516
 6151SOL    MW424378   2.844   5.948   4.215  0.3174 -0.1011  0.3177
 6152SOL     OW24379   3.263   3.290   1.045  0.4833 -0.3705  0.7538
 6152SOL    HW224380   3.318   3.346   0.989  0.5267 -1.2640 -0.1145
 6152SOL    HW324381   3.191   3.263   0.988 -0.0359 -0.4471  1.4442
 6152SOL    MW424382   3.261   3.294   1.030  0.4205 -0.4985  0.7304
 6153SOL     OW24383   6.194   3.129   1.820 -0.1051  0.1686 -0.0460
 6153SOL    HW224384   6.198   3.064   1.891  2.4060 -0.6721 -0.8351
 6153SOL    HW324385   6.161   3.080   1.745 -0.6868  0.5004 -0.0125
 6153SOL    MW424386   6.190   3.114   1.820  0.1494  0.1015 -0.1457
 6154SOL     OW24387   5.551   2.407   0.850  0.2655  0.4990  0.2986
 6154SOL    HW224388   5.594   2.372   0.929 -0.1978  0.0971  0.3756
 6154SOL    HW324389   5.458   2.389   0.863  0.2584 -0.2879 -0.6917
 6154SOL    MW424390   5.545   2.400   0.862  0.2034  0.3421  0.1781
 6155SOL     OW24391   2.252   0.569   2.700 -0.2089  0.4865  0.6509
 6155SOL    HW224392   2.227   0.571   2.607  0.7563 -1.9403  0.2662
 6155SOL    HW324393   2.346   0.587   2.700 -0.5703  2.6613  1.4260
 6155SOL    MW424394   2.261   0.571   2.688 -0.1292  0.4532  0.7024
 6156SOL     OW24395   0.934   3.166   2.996  0.2207 -0.2866 -0.3023
 6156SOL    HW224396   0.890   3.164   3.081  0.5262 -0.4785 -0.1502
 6156SOL    HW324397   0.989   3.088   2.996  0.4743 -0.1070 -0.5431
 6156SOL    MW424398   0.935   3.156   3.007  0.2945 -0.2882 -0.3140
 6157SOL     OW24399   5.932   3.441   5.966  0.3461  0.3598  0.0434
 6157SOL    HW224400   5.881   3.511   6.007  0.4987  1.4799 -1.6120
 6157SOL    HW324401   5.990   3.411   6.036 -0.8755  0.7290  1.2607
 6157SOL    MW424402   5.933   3.447   5.981  0.2051  0.5563 -0.0144
 6158SOL     OW24403   2.123   3.979   3.161 -0.1166 -0.3513 -0.1715
 6158SOL    HW224404   2.092   3.925   3.087 -1.8022 -0.1495  0.3326
 6158SOL    HW324405   2.044   4.023   3.192  1.0213  1.5474  0.1528
 6158SOL    MW424406   2.108   3.977   3.155 -0.1889 -0.0742 -0.0622
 6159SOL     OW24407   4.258   0.481   4.646 -0.6787 -0.1801 -0.0218
 6159SOL    HW224408   4.278   0.418   4.576 -0.8254  0.4224 -0.6155
 6159SOL    HW324409   4.266   0.566   4.605  2.1230  0.3478  1.4120
 6159SOL    MW424410   4.261   0.484   4.631 -0.3284 -0.0310  0.0890
 6160SOL     OW24411   3.775   0.651   1.257  0.2287 -0.1866  0.0525
 6160SOL    HW224412   3.856   0.657   1.309  0.3972  1.3376 -0.3196
 6160SOL    HW324413   3.726   0.730   1.281  0.2434  0.4940 -1.9645
 6160SOL    MW424414   3.779   0.662   1.267  0.2529  0.1043 -0.2627
 6161SOL     OW24415   1.912   3.256   0.247 -0.3319 -0.3913 -0.3730
 6161SOL    HW224416   1.817   3.257   0.238 -0.5639 -0.5069  1.5844
 6161SOL    HW324417   1.928   3.197   0.321  1.1032  1.3233  0.7584
 6161SOL    MW424418   1.902   3.248   0.256 -0.1731 -0.1804  0.0346
 6162SOL     OW24419   3.300   1.929   1.116 -0.0920 -0.2371  0.3816
 6162SOL    HW224420   3.242   1.864   1.156  1.3390 -2.5588 -1.0852
 6162SOL    HW324421   3.252   1.959   1.039 -1.5275  1.9246  2.0087
 6162SOL    MW424422   3.286   1.924   1.112 -0.0926 -0.2582  0.4027
 6163SOL     OW24423   5.158   4.203   1.469 -0.3118 -0.1232  0.0634
 6163SOL    HW224424   5.150   4.128   1.410 -1.4759  0.7681 -0.9424
 6163SOL    HW324425   5.243   4.242   1.447 -0.8602  0.3711 -1.2446
 6163SOL    MW424426   5.168   4.198   1.458 -0.5377  0.0596 -0.2419
 6164SOL     OW24427   0.024   0.235   3.919 -0.1328 -0.0612 -0.1573
 6164SOL    HW224428  -0.064   0.258   3.949  0.1243 -0.2735  0.7908
 6164SOL    HW324429   0.015   0.146   3.885 -0.1511 -0.3247  0.5359
 6164SOL    MW424430   0.011   0.226   3.918 -0.1013 -0.1240  0.0593
 6165SOL     OW24431   4.412   1.692   5.003  0.3228 -0.1465  0.0098
 6165SOL    HW224432   4.455   1.638   5.069  0.9958 -1.2599 -1.2831
 6165SOL    HW324433   4.435   1.651   4.920 -1.3984  0.5670 -0.8681
 6165SOL    MW424434   4.421   1.680   5.001  0.1845 -0.1993 -0.2766
 6166SOL     OW24435   2.573   6.273   0.075  0.4204  0.2662 -0.0197
 6166SOL    HW224436   2.659   6.264   0.116  0.5837  0.7428 -0.2438
 6166SOL    HW324437   2.517   6.307   0.145  0.5167  0.3560  0.0149
 6166SOL    MW424438   2.577   6.276   0.090  0.4547  0.3409 -0.0447
 6167SOL     OW24439   0.573   0.262   2.492 -0.0767 -0.0884 -0.3440
 6167SOL    HW224440   0.538   0.174   2.476 -1.0555  0.0231  0.9453
 6167SOL    HW324441   0.503   0.306   2.542  0.2557  1.5332 -1.2507
 6167SOL    MW424442   0.559   0.256   2.497 -0.1620  0.1402 -0.2935
 6168SOL     OW24443   4.642   3.234   4.662  0.3510 -0.2692 -0.5090
 6168SOL    HW224444   4.590   3.171   4.712 -1.2106 -0.6130 -2.4452
 6168SOL    HW324445   4.593   3.247   4.581  2.3898  0.8206 -1.6555
 6168SOL    MW424446   4.629   3.227   4.658  0.4139 -0.1708 -0.9157
 6169SOL     OW24447   4.875   2.627   5.721  0.0056 -1.0866 -0.2890
 6169SOL    HW224448   4.832   2.545   5.745 -1.1863 -1.2395 -2.6333
 6169SOL    HW324449   4.884   2.622   5.626  1.8694  0.6089 -0.2752
 6169SOL    MW424450   4.871   2.615   5.712  0.0942 -0.8830 -0.5965
 6170SOL     OW24451   4.612   3.984   5.707  0.2481  0.4149 -0.5354
 6170SOL    HW224452   4.695   4.031   5.700  0.7898 -0.5992 -1.0897
 6170SOL    HW324453   4.631   3.908   5.760 -0.4039  0.3216 -0.4242
 6170SOL    MW424454   4.626   3.980   5.713  0.2336  0.2688 -0.5938
 6171SOL     OW24455   5.280   2.515   1.663  0.0113 -0.2183 -0.0361
 6171SOL    HW224456   5.270   2.609   1.676 -0.1008  0.0864 -2.0239
 6171SOL    HW324457   5.299   2.480   1.750 -1.5053  1.4240  1.0004
 6171SOL    MW424458   5.281   2.522   1.676 -0.2036  0.0386 -0.1616
 6172SOL     OW24459   5.911   3.147   5.636  0.2601 -0.0010 -0.3188
 6172SOL    HW224460   5.922   3.057   5.605  1.2827 -0.1798  0.4823
 6172SOL    HW324461   6.001   3.178   5.652 -0.1635  0.3170  1.7164
 6172SOL    MW424462   5.924   3.140   5.634  0.3391  0.0174  0.0554
 6173SOL     OW24463   2.030   2.181   6.268  0.6973 -1.1660 -0.1691
 6173SOL    HW224464   2.102   2.237   6.295  0.7748  0.0250 -2.5430
 6173SOL    HW324465   1.962   2.195   6.334  0.6345  1.9808 -0.7376
 6173SOL    MW424466   2.030   2.190   6.280  0.6992 -0.5937 -0.5573
 6174SOL     OW24467   3.277   3.715   2.963 -0.7594 -0.4513  0.1517
 6174SOL    HW224468   3.217   3.787   2.944  0.6646  0.4489 -1.1861
 6174SOL    HW324469   3.293   3.722   3.058 -1.5851  0.2143  0.2611
 6174SOL    MW424470   3.271   3.726   2.973 -0.6804 -0.2447 -0.0104
 6175SOL     OW24471   2.169   2.937   3.920 -0.0743  0.3436  0.4411
 6175SOL    HW224472   2.164   2.843   3.935 -0.1273  0.0017 -1.4879
 6175SOL    HW324473   2.250   2.964   3.964 -0.3276 -0.4889  1.4533
 6175SOL    MW424474   2.179   2.928   3.928 -0.1147  0.1886  0.3202
 6176SOL     OW24475   5.519   1.133   2.101 -0.3906  0.2744 -0.1582
 6176SOL    HW224476   5.603   1.162   2.063 -1.4767  1.4545 -1.8212
 6176SOL    HW324477   5.473   1.215   2.120 -0.5621 -0.3174  2.3361
 6176SOL    MW424478   5.524   1.148   2.099 -0.5565  0.3521 -0.0485
 6177SOL     OW24479   1.565   4.692   0.677 -0.5509 -0.1858  0.1209
 6177SOL    HW224480   1.529   4.780   0.692  0.9001  0.3446  0.6136
 6177SOL    HW324481   1.567   4.652   0.764 -0.7299 -0.5328 -0.0304
 6177SOL    MW424482   1.560   4.698   0.691 -0.3831 -0.1616  0.1659
 6178SOL     OW24483   2.661   3.527   5.678 -0.1344  0.0553  0.2379
 6178SOL    HW224484   2.692   3.537   5.588  0.3618  0.2170  0.4270
 6178SOL    HW324485   2.740   3.533   5.732 -0.3894 -0.3316  0.6675
 6178SOL    MW424486   2.676   3.529   5.673 -0.1026  0.0256  0.3196
 6179SOL     OW24487   0.781   2.325   5.532  0.1757 -0.5596 -0.5448
 6179SOL    HW224488   0.687   2.341   5.533  0.3184  0.3461  0.3981
 6179SOL    HW324489   0.798   2.277   5.613  0.8957  1.8880  0.8634
 6179SOL    MW424490   0.771   2.321   5.543  0.2895 -0.1171 -0.2346
 6180SOL     OW24491   3.804   4.828   0.588 -0.5378  0.4799  1.0556
 6180SOL    HW224492   3.834   4.738   0.580  0.6893  1.0135 -1.3517
 6180SOL    HW324493   3.712   4.825   0.560 -0.8873 -0.1839  2.2224
 6180SOL    MW424494   3.796   4.816   0.583 -0.4220  0.4627  0.8919
 6181SOL     OW24495   3.800   1.678   5.402 -0.0036 -0.3737  0.0547
 6181SOL    HW224496   3.846   1.677   5.486 -0.0559 -0.0196  0.0894
 6181SOL    HW324497   3.870   1.687   5.337  0.0058 -0.2305  0.0843
 6181SOL    MW424498   3.816   1.679   5.404 -0.0093 -0.3081  0.0632
 6182SOL     OW24499   3.474   0.280   3.352  0.3752 -0.3922  0.1793
 6182SOL    HW224500   3.480   0.336   3.274 -0.2590  0.9890  1.0842
 6182SOL    HW324501   3.398   0.313   3.399  0.5198 -1.4638  1.2011
 6182SOL    MW424502   3.465   0.292   3.348  0.3106 -0.3514  0.4335
 6183SOL     OW24503   3.797   3.584   2.996  0.1133 -0.0649  0.4136
 6183SOL    HW224504   3.770   3.493   3.009  2.2682 -0.6191  1.4446
 6183SOL    HW324505   3.890   3.578   2.973  0.3428  1.8933  0.6882
 6183SOL    MW424506   3.806   3.571   2.995  0.4279  0.1204  0.5859
 6184SOL     OW24507   1.830   2.997   3.016  0.0809  0.0082 -0.2780
 6184SOL    HW224508   1.829   3.086   2.981 -0.5353 -0.7399 -2.3012
 6184SOL    HW324509   1.908   2.957   2.976 -0.3791 -0.7399 -0.4468
 6184SOL    MW424510   1.840   3.003   3.006 -0.0611 -0.1892 -0.5672
 6185SOL     OW24511   4.298   2.187   2.462 -0.5161  0.4032 -0.3150
 6185SOL    HW224512   4.393   2.190   2.478 -0.1707  1.2168 -2.2489
 6185SOL    HW324513   4.269   2.108   2.508  1.2615 -0.3599 -0.3972
 6185SOL    MW424514   4.307   2.177   2.470 -0.2360  0.4099 -0.5810
 6186SOL     OW24515   0.398   6.130   1.599 -0.0915 -0.4212 -0.6279
 6186SOL    HW224516   0.332   6.110   1.532 -0.3478 -3.1235  0.3227
 6186SOL    HW324517   0.468   6.174   1.551 -1.6785  0.7162 -2.0213
 6186SOL    MW424518   0.399   6.133   1.584 -0.3347 -0.6277 -0.6863
 6187SOL     OW24519   4.332   6.073   2.008  0.0702  0.7964  0.0562
 6187SOL    HW224520   4.257   6.125   1.979 -0.8385  0.0757  1.0593
 6187SOL    HW324521   4.348   6.012   1.936  0.7155  1.9716 -0.8383
 6187SOL    MW424522   4.324   6.072   1.994  0.0354  0.8564  0.0705
 6188SOL     OW24523   0.749   4.167   4.507 -0.1683 -0.0019  0.5809
 6188SOL    HW224524   0.758   4.244   4.451 -0.6060 -0.8091 -0.6232
 6188SOL    HW324525   0.796   4.097   4.461 -0.3794 -0.6418  1.3055
 6188SOL    MW424526   0.756   4.168   4.494 -0.2539 -0.1928  0.5176
 6189SOL     OW24527   5.862   6.332   1.012  0.3603 -0.3054  0.4307
 6189SOL    HW224528   5.812   6.397   1.062  0.1575 -0.0723 -0.0597
 6189SOL    HW324529   5.940   6.315   1.065  0.1928 -0.0050  0.7821
 6189SOL    MW424530   5.865   6.339   1.026  0.3114 -0.2350  0.4123
 6190SOL     OW24531   2.561   0.486   1.044  0.2834  0.6119 -0.0936
 6190SOL    HW224532   2.601   0.401   1.027  0.3004  0.6093 -0.0410
 6190SOL    HW324533   2.589   0.542   0.971 -0.1831  0.4172 -0.4306
 6190SOL    MW424534   2.570   0.483   1.032  0.2241  0.5858 -0.1311
 6191SOL     OW24535   0.891   2.322   5.063 -0.8318  0.0401  0.7371
 6191SOL    HW224536   0.879   2.387   5.133  0.3389  0.7953  0.2624
 6191SOL    HW324537   0.819   2.339   5.002 -1.2396  0.0807  1.2248
 6191SOL    MW424538   0.880   2.333   5.064 -0.7311  0.1451  0.7388
 6192SOL     OW24539   5.013   0.382   0.465 -0.0607  0.6722 -0.2527
 6192SOL    HW224540   5.042   0.420   0.548  0.4164  2.3046 -1.1205
 6192SOL    HW324541   4.923   0.412   0.456  0.0084  0.8117 -0.4885
 6192SOL    MW424542   5.005   0.391   0.475  0.0113  0.9060 -0.3983
 6193SOL     OW24543   2.929   4.209   6.200  0.6653  0.5498  0.3841
 6193SOL    HW224544   2.930   4.304   6.188 -1.0386  0.3594 -1.7060
 6193SOL    HW324545   2.838   4.189   6.223  0.7130 -0.7118 -0.4689
 6193SOL    MW424546   2.917   4.219   6.202  0.4468  0.3582 -0.0042
 6194SOL     OW24547   6.263   4.512   1.351  0.0570 -0.0112  0.3434
 6194SOL    HW224548   6.329   4.578   1.331  1.3224 -1.2686  0.1642
 6194SOL    HW324549   6.310   4.448   1.406 -1.3422 -0.3531  1.1908
 6194SOL    MW424550   6.278   4.512   1.356  0.0394 -0.2222  0.4316
 6195SOL     OW24551   3.635   5.081   4.788  0.0433 -0.0507  0.8665
 6195SOL    HW224552   3.699   5.133   4.740  0.5063 -1.1243  0.2798
 6195SOL    HW324553   3.579   5.044   4.720 -1.2728  0.9233  1.3696
 6195SOL    MW424554   3.636   5.083   4.772 -0.0692 -0.0638  0.8555
 6196SOL     OW24555   0.971   4.249   5.715  0.6494 -0.2703  0.5850
 6196SOL    HW224556   0.977   4.260   5.810  3.1468  0.9434  0.3460
 6196SOL    HW324557   1.054   4.210   5.690  0.1241 -0.3222 -1.1775
 6196SOL    MW424558   0.982   4.245   5.724  0.9096 -0.1170  0.3209
 6197SOL     OW24559   0.980   5.448   1.971 -0.1292  0.0001  0.1435
 6197SOL    HW224560   1.039   5.477   2.041 -0.5071  1.2507 -0.0411
 6197SOL    HW324561   0.958   5.357   1.994 -0.8213  0.6078  2.0624
 6197SOL    MW424562   0.985   5.440   1.983 -0.2703  0.2453  0.3723
 6198SOL     OW24563   1.725   3.364   4.439 -0.3414  0.2193 -0.1503
 6198SOL    HW224564   1.701   3.290   4.495 -2.6336  0.7080 -0.3711
 6198SOL    HW324565   1.765   3.427   4.498 -1.5591  0.2022  0.7352
 6198SOL    MW424566   1.727   3.362   4.454 -0.8045  0.2815 -0.0626
 6199SOL     OW24567   5.538   0.724   4.718  0.3949  0.0454 -0.2959
 6199SOL    HW224568   5.523   0.665   4.792 -2.3176 -0.7481 -1.3463
 6199SOL    HW324569   5.595   0.675   4.660 -0.6106 -0.9668 -0.4654
 6199SOL    MW424570   5.544   0.710   4.720 -0.0957 -0.1928 -0.4569
 6200SOL     OW24571   3.021   5.105   4.240  0.1328 -0.7177  0.2534
 6200SOL    HW224572   3.085   5.110   4.310  0.9269  0.4050 -0.5224
 6200SOL    HW324573   3.034   5.017   4.202  1.2302 -0.5096  0.1062
 6200SOL    MW424574   3.031   5.094   4.244  0.3824 -0.5421  0.1316
 6201SOL     OW24575   5.297   1.310   0.486 -0.0483 -0.3005 -0.0925
 6201SOL    HW224576   5.260   1.342   0.568 -0.7176  0.6368 -0.7394
 6201SOL    HW324577   5.342   1.385   0.448  0.4584 -0.7849 -0.4856
 6201SOL    MW424578   5.298   1.324   0.492 -0.0698 -0.2407 -0.2297
 6202SOL     OW24579   0.936   2.461   3.924  0.4578  0.5744  0.8098
 6202SOL    HW224580   0.849   2.500   3.913 -0.2656 -1.2952 -0.6966
 6202SOL    HW324581   0.987   2.499   3.853  0.7293  1.2772  1.3759
 6202SOL    MW424582   0.931   2.471   3.913  0.3982  0.4204  0.6857
 6203SOL     OW24583   5.161   6.362   3.155  0.4593  0.3843  0.1299
 6203SOL    HW224584   5.113   6.290   3.113  0.7320 -1.6645  3.0790
 6203SOL    HW324585   5.094   6.429   3.170 -0.7310 -0.9156  0.8599
 6203SOL    MW424586   5.145   6.361   3.151  0.3383 -0.0576  0.6153
 6204SOL     OW24587   0.383   5.492   2.316  0.1739  0.1009  0.8064
 6204SOL    HW224588   0.306   5.441   2.292  0.6711 -1.1724  1.8109
 6204SOL    HW324589   0.398   5.549   2.241 -1.4953  0.0843  0.4255
 6204SOL    MW424590   0.375   5.493   2.303  0.0192 -0.0693  0.8887
 6205SOL     OW24591   4.010   1.715   4.121  0.2423 -0.7377 -0.4045
 6205SOL    HW224592   4.079   1.777   4.143 -1.1157  1.2878 -1.6066
 6205SOL    HW324593   4.054   1.651   4.065  1.4382 -0.2991 -0.0065
 6205SOL    MW424594   4.025   1.714   4.116  0.2209 -0.4126 -0.5106
 6206SOL     OW24595   1.665   2.644   0.725 -0.0556  0.0456 -0.2575
 6206SOL    HW224596   1.702   2.659   0.812 -1.9060  0.4178  0.5261
 6206SOL    HW324597   1.713   2.568   0.691 -0.0846 -0.8566  1.6022
 6206SOL    MW424598   1.676   2.636   0.732 -0.3035 -0.0244  0.0913
 6207SOL     OW24599   3.436   4.828   5.300 -0.3958 -0.2274  0.8258
 6207SOL    HW224600   3.470   4.782   5.223 -1.9114 -2.2966  1.3017
 6207SOL    HW324601   3.514   4.863   5.343  0.8834 -2.2013  0.2797
 6207SOL    MW424602   3.451   4.826   5.296 -0.4270 -0.7608  0.8165
 6208SOL     OW24603   2.337   3.685   5.805 -0.0874 -0.4383  0.7188
 6208SOL    HW224604   2.252   3.728   5.804  0.0005 -0.2371 -0.8430
 6208SOL    HW324605   2.320   3.600   5.844 -0.7972 -0.0107  1.3713
 6208SOL    MW424606   2.323   3.680   5.810 -0.1695 -0.3554  0.5988
 6209SOL     OW24607   4.933   4.898   4.589 -0.4176  0.3260  0.5210
 6209SOL    HW224608   5.021   4.865   4.608 -0.8640 -0.6825  0.9139
 6209SOL    HW324609   4.947   4.988   4.560  0.7851  0.0240  0.1022
 6209SOL    MW424610   4.947   4.906   4.588 -0.3178  0.1531  0.5176
 6210SOL     OW24611   0.607   0.563   5.978  0.2130  0.5602 -0.4515
 6210SOL    HW224612   0.626   0.646   6.021 -0.8445  0.8630 -0.5188
 6210SOL    HW324613   0.570   0.589   5.893  2.4307 -0.0229 -1.6501
 6210SOL    MW424614   0.604   0.577   5.972  0.3661  0.5232 -0.6185
 6211SOL     OW24615   5.510   5.533   2.229 -1.0248 -0.0797  0.0568
 6211SOL    HW224616   5.546   5.591   2.161 -0.5666 -0.6553 -0.1996
 6211SOL    HW324617   5.473   5.460   2.180  0.7039 -1.2831  0.4811
 6211SOL    MW424618   5.510   5.531   2.213 -0.7363 -0.3144  0.0789
 6212SOL     OW24619   5.617   3.170   0.230  0.5251 -0.0568  0.0111
 6212SOL    HW224620   5.618   3.075   0.216 -1.5727 -0.4491  1.9705
 6212SOL    HW324621   5.652   3.182   0.318 -0.8630  0.7633  0.4956
 6212SOL    MW424622   5.622   3.159   0.239  0.0652 -0.0004  0.3335
 6213SOL     OW24623   1.057   2.082   2.707  0.2353 -0.0943  0.4687
 6213SOL    HW224624   1.087   2.065   2.796 -1.0167 -0.7079  0.7961
 6213SOL    HW324625   1.074   2.175   2.694  0.9116 -0.1080  1.1492
 6213SOL    MW424626   1.064   2.092   2.717  0.1594 -0.1771  0.6017
 6214SOL     OW24627   5.954   5.969   4.609  0.7087 -0.4180 -0.2279
 6214SOL    HW224628   5.985   5.907   4.676 -0.4752  0.1004  0.8460
 6214SOL    HW324629   6.026   5.975   4.547  1.3849 -1.8281  0.3746
 6214SOL    MW424630   5.968   5.962   4.610  0.6417 -0.5357 -0.0068
 6215SOL     OW24631   4.184   0.004   3.883  0.0733  0.1559  0.0841
 6215SOL    HW224632   4.194  -0.043   3.966 -0.2092  0.3921  0.2557
 6215SOL    HW324633   4.193  -0.063   3.815 -0.4535 -0.1601  0.3301
 6215SOL    MW424634   4.187  -0.011   3.885 -0.0335  0.1454  0.1392
 6216SOL     OW24635   5.207   1.702   0.219  0.0004  0.5192  0.5042
 6216SOL    HW224636   5.231   1.793   0.198  1.1719 -0.0579 -0.7964
 6216SOL    HW324637   5.174   1.707   0.308  0.5995  2.1433  0.6812
 6216SOL    MW424638   5.206   1.715   0.228  0.2340  0.6573  0.3559
 6217SOL     OW24639   5.449   6.297   0.527 -0.4903  0.2675 -0.4446
 6217SOL    HW224640   5.419   6.274   0.615  0.5778 -0.5211 -0.2626
 6217SOL    HW324641   5.507   6.225   0.502  2.0150  2.1122 -0.3748
 6217SOL    MW424642   5.453   6.284   0.535 -0.0188  0.4068 -0.4114
 6218SOL     OW24643   2.531   0.752   0.455  0.6411 -0.2770  0.1974
 6218SOL    HW224644   2.538   0.726   0.363  1.8253 -2.2025  0.7682
 6218SOL    HW324645   2.439   0.777   0.466  0.7825  1.3359 -1.8042
 6218SOL    MW424646   2.519   0.752   0.444  0.8160 -0.3182  0.0087
 6219SOL     OW24647   3.631   5.313   4.474  0.0222  0.0474  0.4185
 6219SOL    HW224648   3.648   5.398   4.435  0.9135 -0.1965  0.2728
 6219SOL    HW324649   3.703   5.298   4.534  0.4291 -1.0554 -0.3131
 6219SOL    MW424650   3.643   5.322   4.476  0.1935 -0.1303  0.3028
 6220SOL     OW24651   5.551   0.112   0.752  0.4929 -0.0955  0.3226
 6220SOL    HW224652   5.466   0.132   0.791  0.0907 -0.7339 -0.2084
 6220SOL    HW324653   5.610   0.179   0.788 -0.5017  1.1576 -0.2777
 6220SOL    MW424654   5.548   0.124   0.762  0.3086 -0.0144  0.1734
 6221SOL     OW24655   5.245   3.913   5.955  0.2987 -0.3674  0.8586
 6221SOL    HW224656   5.316   3.880   6.010 -1.1432 -3.2458  1.1751
 6221SOL    HW324657   5.166   3.894   6.005 -0.8078  1.8446  0.0627
 6221SOL    MW424658   5.244   3.906   5.969 -0.0375 -0.4553  0.7953
 6222SOL     OW24659   0.898   4.371   5.299 -0.0166 -0.9033  0.6702
 6222SOL    HW224660   0.832   4.388   5.367 -0.5109  0.4309 -0.1040
 6222SOL    HW324661   0.849   4.376   5.217  1.1173  0.6444  0.0478
 6222SOL    MW424662   0.883   4.374   5.297  0.0678 -0.5231  0.4859
 6223SOL     OW24663   5.509   3.595   4.596 -0.3337 -0.0786  0.4604
 6223SOL    HW224664   5.584   3.654   4.586 -1.5178  1.6870  1.3649
 6223SOL    HW324665   5.445   3.647   4.646 -1.6245 -2.0011  0.8952
 6223SOL    MW424666   5.510   3.610   4.602 -0.6602 -0.0993  0.6371
 6224SOL     OW24667   5.246   5.320   5.960 -0.6958  0.0325 -0.3820
 6224SOL    HW224668   5.330   5.277   5.947 -1.4151 -1.0461 -1.7707
 6224SOL    HW324669   5.253   5.401   5.911  0.0357  0.6815  0.7523
 6224SOL    MW424670   5.258   5.325   5.952 -0.6942 -0.0242 -0.4155
 6225SOL     OW24671   5.200   2.463   5.018  0.5772  0.1644 -0.0112
 6225SOL    HW224672   5.272   2.477   5.079 -0.3388  0.5609  1.0217
 6225SOL    HW324673   5.123   2.453   5.074 -0.1581 -0.3597 -1.0790
 6225SOL    MW424674   5.199   2.464   5.034  0.3594  0.1476 -0.0158
 6226SOL     OW24675   4.257   5.017   3.874  0.2174 -0.1502 -0.1746
 6226SOL    HW224676   4.252   5.016   3.970 -0.6645  0.4611 -0.2065
 6226SOL    HW324677   4.324   5.083   3.855 -0.9956  1.1847 -0.0011
 6226SOL    MW424678   4.265   5.026   3.884 -0.0590  0.1066 -0.1559
 6227SOL     OW24679   1.793   0.302   6.347  0.0529 -0.0109 -0.5634
 6227SOL    HW224680   1.779   0.280   6.439 -0.4456  1.1854 -0.3369
 6227SOL    HW324681   1.711   0.343   6.319 -0.3138 -1.5785 -1.9435
 6227SOL    MW424682   1.780   0.305   6.355 -0.0612 -0.0599 -0.7156
 6228SOL     OW24683   5.731   2.634   5.207 -0.1611  0.4143  0.3717
 6228SOL    HW224684   5.641   2.631   5.238  0.1310  0.1379  1.2524
 6228SOL    HW324685   5.779   2.578   5.269  0.1497 -1.7891 -1.7075
 6228SOL    MW424686   5.726   2.626   5.219 -0.0816  0.0871  0.2136
 6229SOL     OW24687   4.709   5.224   6.086  0.0203  0.4491  0.4875
 6229SOL    HW224688   4.621   5.252   6.060  0.2069 -1.1282 -2.3066
 6229SOL    HW324689   4.698   5.133   6.111  1.0436 -0.4074 -1.8622
 6229SOL    MW424690   4.696   5.216   6.086  0.1799  0.1280 -0.1912
 6230SOL     OW24691   3.450   3.228   0.543  0.0035  1.5090  0.3498
 6230SOL    HW224692   3.428   3.153   0.598  3.5899 -1.3030 -1.5757
 6230SOL    HW324693   3.366   3.259   0.510 -1.7201 -1.5729  1.3732
 6230SOL    MW424694   3.436   3.222   0.546  0.2493  0.7314  0.2308
 6231SOL     OW24695   3.090   2.024   5.765  0.0749 -0.5571  0.1671
 6231SOL    HW224696   3.031   2.096   5.785  0.2749 -0.0895 -0.8755
 6231SOL    HW324697   3.070   2.001   5.674  1.3823 -0.4797 -0.1585
 6231SOL    MW424698   3.080   2.030   5.755  0.2738 -0.4852 -0.0134
 6232SOL     OW24699   1.541   0.110   5.365  0.3001  0.3864 -0.0515
 6232SOL    HW224700   1.518   0.131   5.274  0.5267 -0.5281 -0.3283
 6232SOL    HW324701   1.504   0.182   5.416  1.7333  1.9074 -1.0271
 6232SOL    MW424702   1.533   0.123   5.360  0.5191  0.4665 -0.2167
 6233SOL     OW24703   3.340   6.073   5.728  0.4221  0.5394  0.0479
 6233SOL    HW224704   3.362   6.132   5.800 -0.9161 -0.4236  1.3474
 6233SOL    HW324705   3.254   6.104   5.698  0.3849  0.1571 -0.2402
 6233SOL    MW424706   3.331   6.085   5.734  0.2406  0.3619  0.1813
 6234SOL     OW24707   1.356   0.940   5.328 -0.4785 -0.3083 -0.4604
 6234SOL    HW224708   1.405   0.860   5.309  0.4797  0.1148  0.1639
 6234SOL    HW324709   1.290   0.913   5.393  1.7051 -0.0810  2.0365
 6234SOL    MW424710   1.354   0.926   5.334 -0.0640 -0.2225 -0.0486
 6235SOL     OW24711   2.392   5.512   4.195 -0.0074  0.1031 -0.3002
 6235SOL    HW224712   2.298   5.501   4.188 -0.0362  0.5585 -0.7251
 6235SOL    HW324713   2.423   5.433   4.238 -0.7160  0.4626  0.9069
 6235SOL    MW424714   2.384   5.500   4.200 -0.1047  0.2106 -0.1970
 6236SOL     OW24715   0.698   4.572   5.095 -0.0487  0.4443  0.3532
 6236SOL    HW224716   0.633   4.609   5.034 -0.6796 -0.7517  0.2720
 6236SOL    HW324717   0.657   4.492   5.128  2.3557 -1.7941 -1.6573
 6236SOL    MW424718   0.684   4.567   5.091  0.1853 -0.0088  0.0772
 6237SOL     OW24719   2.193   5.302   1.578 -0.8517 -0.1348  0.5475
 6237SOL    HW224720   2.142   5.227   1.610 -1.5949  0.5973  1.1129
 6237SOL    HW324721   2.172   5.373   1.638 -1.6190  1.0504 -1.0426
 6237SOL    MW424722   2.183   5.302   1.590 -1.0510  0.1182  0.4123
 6238SOL     OW24723   1.949   3.336   4.860 -0.0728 -0.0198  0.0157
 6238SOL    HW224724   1.902   3.392   4.799  1.4050  0.2586 -0.9052
 6238SOL    HW324725   2.031   3.316   4.816  0.2413 -1.3573  1.1344
 6238SOL    MW424726   1.953   3.340   4.846  0.1636 -0.1596  0.0418
 6239SOL     OW24727   1.823   3.392   5.261  0.7210  0.0592  0.8000
 6239SOL    HW224728   1.808   3.420   5.351 -0.5884 -0.9447  0.9263
 6239SOL    HW324729   1.886   3.455   5.226 -0.9815  2.2682  1.4895
 6239SOL    MW424730   1.830   3.404   5.268  0.3236  0.2182  0.9076
 6240SOL     OW24731   4.018   5.016   0.919 -0.2057  0.2576  0.0657
 6240SOL    HW224732   3.932   5.003   0.879 -0.4531  0.5121  0.5082
 6240SOL    HW324733   4.009   5.095   0.972  0.7825  1.2895 -1.2181
 6240SOL    MW424734   4.006   5.024   0.921 -0.1080  0.4273 -0.0453
 6241SOL     OW24735   2.518   4.586   2.978  0.5655 -0.1591  0.0725
 6241SOL    HW224736   2.447   4.568   3.040 -0.5427 -0.4182 -1.2181
 6241SOL    HW324737   2.513   4.681   2.963  0.3596 -0.2083 -0.1707
 6241SOL    MW424738   2.508   4.596   2.984  0.3921 -0.1998 -0.1298
 6242SOL     OW24739   6.402   4.624   1.616 -0.2533  0.1997  0.0933
 6242SOL    HW224740   6.383   4.606   1.524 -1.1152  2.1987 -0.1839
 6242SOL    HW324741   6.320   4.606   1.661  0.0482 -0.3807  0.4148
 6242SOL    MW424742   6.389   4.619   1.610 -0.3272  0.3869  0.0992
 6243SOL     OW24743   0.918   4.289   4.705  0.2486 -0.0632 -0.0290
 6243SOL    HW224744   0.941   4.370   4.659 -1.4268  0.5648  0.1940
 6243SOL    HW324745   0.862   4.242   4.643 -2.0577  0.8027  1.2643
 6243SOL    MW424746   0.914   4.294   4.691 -0.2767  0.1339  0.1711
 6244SOL     OW24747   2.284   0.287   0.652 -0.2127 -0.6407  0.4266
 6244SOL    HW224748   2.223   0.259   0.584 -0.0507  2.1808 -1.0440
 6244SOL    HW324749   2.230   0.334   0.716  0.2131  1.1643 -0.4676
 6244SOL    MW424750   2.269   0.290   0.652 -0.1351 -0.0303  0.1146
 6245SOL     OW24751   3.506   4.328   0.521  0.0241 -0.0920 -0.5705
 6245SOL    HW224752   3.433   4.266   0.509  0.7376 -1.5113  1.8439
 6245SOL    HW324753   3.541   4.308   0.607  2.5091  1.4204 -1.1284
 6245SOL    MW424754   3.501   4.317   0.531  0.4461 -0.0797 -0.3255
 6246SOL     OW24755   4.797   2.451   2.879  0.3976 -0.1249  0.3313
 6246SOL    HW224756   4.849   2.447   2.798 -0.7850  0.3687 -0.4790
 6246SOL    HW324757   4.786   2.544   2.895 -1.4866 -0.1829 -0.3701
 6246SOL    MW424758   4.803   2.462   2.870 -0.0070 -0.0674  0.1318
 6247SOL     OW24759   3.888   4.744   4.981  0.2051  0.0800 -0.5317
 6247SOL    HW224760   3.907   4.740   4.887  2.0516 -0.7699 -0.1792
 6247SOL    HW324761   3.868   4.653   5.005 -1.5121  0.4863 -0.2960
 6247SOL    MW424762   3.888   4.731   4.972  0.2222  0.0215 -0.4541
 6248SOL     OW24763   5.873   1.406   4.464  0.2291 -0.1905  0.4913
 6248SOL    HW224764   5.806   1.345   4.434  2.5202 -1.8747 -1.5613
 6248SOL    HW324765   5.902   1.370   4.548  0.7610 -1.3496 -0.1639
 6248SOL    MW424766   5.868   1.394   4.471  0.6016 -0.5656  0.1340
 6249SOL     OW24767   5.657   2.914   3.857  0.3901  0.2916 -0.3829
 6249SOL    HW224768   5.752   2.913   3.851  0.5728  0.2598  1.7225
 6249SOL    HW324769   5.632   3.000   3.824  1.3066  0.9359  0.5404
 6249SOL    MW424770   5.666   2.925   3.852  0.5351  0.3724  0.0167
 6250SOL     OW24771   6.397   0.115   6.190  0.9076 -0.1008 -0.2743
 6250SOL    HW224772   6.346   0.036   6.208  2.6869 -0.7766  2.2200
 6250SOL    HW324773   6.361   0.181   6.249  0.6813  0.4273 -0.9864
 6250SOL    MW424774   6.385   0.113   6.200  1.1125 -0.1203 -0.0392
 6251SOL     OW24775   3.419   3.909   1.612 -0.0260 -0.1302  0.5519
 6251SOL    HW224776   3.434   3.968   1.537  2.2272 -0.0444  0.9964
 6251SOL    HW324777   3.343   3.946   1.656  0.3858  1.5638 -0.0687
 6251SOL    MW424778   3.411   3.922   1.608  0.3257  0.1046  0.5287
 6252SOL     OW24779   4.602   2.592   1.669  0.6229  0.1898  0.2355
 6252SOL    HW224780   4.617   2.532   1.742 -1.6491 -0.0086  0.6157
 6252SOL    HW324781   4.521   2.638   1.692  1.3520  2.1700 -0.8619
 6252SOL    MW424782   4.594   2.590   1.682  0.4193  0.4249  0.1409
 6253SOL     OW24783   2.831   4.180   0.154  0.6215  0.1602 -0.4305
 6253SOL    HW224784   2.842   4.199   0.247 -0.1335 -2.4034  0.2381
 6253SOL    HW324785   2.912   4.136   0.129  1.0254  1.2563 -1.1656
 6253SOL    MW424786   2.843   4.177   0.163  0.5752 -0.0334 -0.4392
 6254SOL     OW24787   3.534   6.320   5.036 -0.6701  0.2523 -0.5190
 6254SOL    HW224788   3.565   6.395   4.986  0.7526 -2.0980 -3.4198
 6254SOL    HW324789   3.486   6.266   4.973  0.5654 -2.5390  0.7500
 6254SOL    MW424790   3.532   6.323   5.021 -0.3194 -0.4261 -0.7343
 6255SOL     OW24791   0.321   3.312   5.526 -0.8600 -0.2435  0.1183
 6255SOL    HW224792   0.324   3.277   5.437 -0.6548  0.6028 -0.2125
 6255SOL    HW324793   0.229   3.304   5.552 -1.1029  0.4037 -0.5339
 6255SOL    MW424794   0.309   3.306   5.518 -0.8650 -0.0464 -0.0114
 6256SOL     OW24795   3.041   0.206   3.644  0.6633 -0.0209  0.1483
 6256SOL    HW224796   3.019   0.193   3.552  0.2603  0.1520  0.2170
 6256SOL    HW324797   3.061   0.119   3.677  1.0990 -0.0445 -0.1772
 6256SOL    MW424798   3.041   0.193   3.636  0.6676 -0.0012  0.1144
 6257SOL     OW24799   3.228   1.150   4.780 -0.2025 -0.5975 -0.3279
 6257SOL    HW224800   3.213   1.076   4.720  3.2686 -0.7203 -1.2442
 6257SOL    HW324801   3.301   1.122   4.834 -0.3805  1.2943  0.9738
 6257SOL    MW424802   3.235   1.137   4.779  0.2320 -0.3641 -0.2771
 6258SOL     OW24803   4.218   6.258   4.128  0.3895  0.2843 -0.4398
 6258SOL    HW224804   4.267   6.184   4.093  2.0689  1.8267 -1.5392
 6258SOL    HW324805   4.272   6.290   4.201 -0.8284 -0.1672  0.6907
 6258SOL    MW424806   4.232   6.253   4.133  0.4504  0.4282 -0.4357
 6259SOL     OW24807   3.143   6.057   1.606 -0.4704  1.1791  0.0463
 6259SOL    HW224808   3.128   6.132   1.549 -0.4351  0.5637 -0.7975
 6259SOL    HW324809   3.223   6.079   1.654 -0.1786  1.4676 -0.5586
 6259SOL    MW424810   3.152   6.070   1.605 -0.4273  1.1360 -0.1448
 6260SOL     OW24811   0.700   1.152   0.670  0.4726  0.1075  0.5718
 6260SOL    HW224812   0.634   1.117   0.729 -0.9623 -1.2967 -1.7014
 6260SOL    HW324813   0.656   1.223   0.624  1.6166  1.2863  1.2152
 6260SOL    MW424814   0.685   1.157   0.672  0.4342  0.0777  0.3568
 6261SOL     OW24815   4.947   4.406   3.134  0.2174 -0.3849 -0.5307
 6261SOL    HW224816   4.871   4.352   3.111 -1.0826 -0.1911  2.7375
 6261SOL    HW324817   4.947   4.477   3.070 -1.5677 -1.1045 -1.3943
 6261SOL    MW424818   4.937   4.408   3.122 -0.1896 -0.4542 -0.2135
 6262SOL     OW24819   3.771   2.999   5.026  0.1001 -0.4733  0.0219
 6262SOL    HW224820   3.684   3.024   4.996 -0.9131 -2.3647  1.1767
 6262SOL    HW324821   3.776   3.030   5.116 -0.6955 -3.0166  1.0450
 6262SOL    MW424822   3.760   3.006   5.034 -0.1386 -1.0584  0.3093
 6263SOL     OW24823   5.295   4.152   1.966 -0.1390 -0.4347 -0.4238
 6263SOL    HW224824   5.366   4.207   1.934 -0.6305  1.4649  1.5595
 6263SOL    HW324825   5.223   4.167   1.905  0.3575 -0.4741 -1.0315
 6263SOL    MW424826   5.295   4.161   1.954 -0.1383 -0.1893 -0.2423
 6264SOL     OW24827   1.849   5.955   1.685 -0.5690 -0.0666 -0.3605
 6264SOL    HW224828   1.935   5.931   1.718 -1.2726 -0.2012  1.4860
 6264SOL    HW324829   1.790   5.943   1.760 -2.0501  0.8721 -1.3204
 6264SOL    MW424830   1.852   5.950   1.699 -0.8572  0.0395 -0.2435
 6265SOL     OW24831   1.986   2.116   2.440 -0.1145  0.3984 -0.5939
 6265SOL    HW224832   1.896   2.087   2.459  1.1400 -2.4963  1.7672
 6265SOL    HW324833   1.986   2.209   2.460 -2.1434  0.0670  1.3648
 6265SOL    MW424834   1.974   2.124   2.445 -0.2167 -0.0273 -0.0240
 6266SOL     OW24835   3.568   0.097   4.858  0.0135  0.0621 -0.2189
 6266SOL    HW224836   3.495   0.151   4.889 -0.1412 -0.1967 -0.1258
 6266SOL    HW324837   3.549   0.081   4.765  0.5255  0.9153 -0.4816
 6266SOL    MW424838   3.556   0.102   4.850  0.0607  0.1405 -0.2413
 6267SOL     OW24839   0.316   5.654   2.100  0.6640 -0.5658  0.4071
 6267SOL    HW224840   0.321   5.594   2.026 -1.4431  0.3995 -0.5991
 6267SOL    HW324841   0.371   5.728   2.076  0.7593 -0.6865  0.2547
 6267SOL    MW424842   0.324   5.656   2.087  0.3986 -0.4544  0.2542
 6268SOL     OW24843   2.933   3.314   0.538  0.2926 -0.1831  0.2542
 6268SOL    HW224844   2.957   3.403   0.515  0.3860 -0.2482  0.0988
 6268SOL    HW324845   2.852   3.323   0.589  0.6501  0.0331  0.7879
 6268SOL    MW424846   2.925   3.327   0.542  0.3521 -0.1632  0.3041
 6269SOL     OW24847   1.974   0.028   0.025  0.1261 -0.1579 -0.0872
 6269SOL    HW224848   1.993   0.047  -0.067 -0.3388 -0.8712 -0.3411
 6269SOL    HW324849   2.055   0.050   0.070  0.6414 -0.5501 -0.7830
 6269SOL    MW424850   1.987   0.033   0.018  0.1327 -0.3038 -0.2125
 6270SOL     OW24851   5.596   1.222   5.716 -0.2699  0.0898 -0.5243
 6270SOL    HW224852   5.615   1.184   5.630  0.1226 -1.0765  0.0538
 6270SOL    HW324853   5.660   1.292   5.726 -0.5977  0.5287 -1.3540
 6270SOL    MW424854   5.607   1.226   5.706 -0.2613 -0.0062 -0.5575
 6271SOL     OW24855   5.989   5.115   1.467  0.0203 -0.2170 -0.4671
 6271SOL    HW224856   6.051   5.042   1.457  0.4931  0.3762 -2.4389
 6271SOL    HW324857   6.045   5.191   1.484 -0.3294 -0.0246 -0.1837
 6271SOL    MW424858   6.005   5.115   1.468  0.0365 -0.1133 -0.6899
 6272SOL     OW24859   3.423   4.501   5.162  0.6212 -0.0610  0.2898
 6272SOL    HW224860   3.471   4.537   5.236  1.5562  0.3008 -0.4756
 6272SOL    HW324861   3.487   4.498   5.091 -0.4021  0.1400 -0.6703
 6272SOL    MW424862   3.437   4.505   5.162  0.6095  0.0132  0.0622
 6273SOL     OW24863   5.134   0.064   3.610 -0.7988  0.4931 -0.1319
 6273SOL    HW224864   5.100   0.132   3.668 -1.4460 -0.1059  0.2032
 6273SOL    HW324865   5.126  -0.017   3.660  0.1168  0.1826 -0.4616
 6273SOL    MW424866   5.128   0.062   3.624 -0.7634  0.3731 -0.1311
 6274SOL     OW24867   1.096   1.043   4.049  0.3489 -0.3559  0.0914
 6274SOL    HW224868   1.092   1.125   4.001  0.2313 -0.0251  0.6622
 6274SOL    HW324869   1.186   1.036   4.080  0.0861  0.1103  0.9900
 6274SOL    MW424870   1.107   1.053   4.047  0.2987 -0.2507  0.2853
 6275SOL     OW24871   4.643   2.014   1.071 -0.1062  0.1903 -0.7236
 6275SOL    HW224872   4.610   2.090   1.119  0.7725  0.0445  0.1478
 6275SOL    HW324873   4.738   2.018   1.084 -0.1425 -1.7432  0.3724
 6275SOL    MW424874   4.652   2.025   1.079  0.0050 -0.0840 -0.4640
 6276SOL     OW24875   2.238   4.318   6.068  0.2133  0.0819  0.1508
 6276SOL    HW224876   2.267   4.303   5.978 -0.9625  1.1872 -0.4433
 6276SOL    HW324877   2.316   4.351   6.113  0.6256  0.2326 -0.6539
 6276SOL    MW424878   2.253   4.320   6.062  0.1126  0.2476 -0.0338
 6277SOL     OW24879   1.826   4.467   3.284  0.4681 -0.1492 -0.0903
 6277SOL    HW224880   1.914   4.504   3.295  0.4223  0.1827 -0.7945
 6277SOL    HW324881   1.780   4.491   3.365  0.8769  0.0975  0.0745
 6277SOL    MW424882   1.831   4.475   3.297  0.5160 -0.0729 -0.1615
 6278SOL     OW24883   0.397   0.502   2.195  0.4879 -0.1137 -0.2971
 6278SOL    HW224884   0.480   0.461   2.220  0.3958 -0.4840 -0.5870
 6278SOL    HW324885   0.390   0.578   2.253  0.2000 -1.0273  0.9217
 6278SOL    MW424886   0.407   0.507   2.206  0.4378 -0.2831 -0.1745
 6279SOL     OW24887   3.169   5.783   1.527 -0.5942  0.6299 -0.7658
 6279SOL    HW224888   3.168   5.869   1.570 -1.5839 -0.0159  0.5737
 6279SOL    HW324889   3.087   5.742   1.553  0.1256 -0.9708 -0.8928
 6279SOL    MW424890   3.158   5.789   1.536 -0.6298  0.3335 -0.6058
 6280SOL     OW24891   0.717   4.232   2.172  0.1004 -0.0238 -0.1997
 6280SOL    HW224892   0.686   4.141   2.175 -1.5036  0.4102 -1.8487
 6280SOL    HW324893   0.692   4.268   2.257  1.5203 -1.3124  0.8170
 6280SOL    MW424894   0.710   4.225   2.184  0.0761 -0.1366 -0.2831
 6281SOL     OW24895   2.635   1.356   4.444 -0.6390  0.0577  0.2014
 6281SOL    HW224896   2.592   1.441   4.443 -2.7691 -0.9384 -0.8562
 6281SOL    HW324897   2.681   1.351   4.360 -0.6157  0.1411  0.2099
 6281SOL    MW424898   2.635   1.366   4.433 -0.9170 -0.0627  0.0630
 6282SOL     OW24899   4.661   4.317   0.277  0.0797 -0.1609 -0.4550
 6282SOL    HW224900   4.647   4.264   0.356  0.9724 -1.1749 -0.9510
 6282SOL    HW324901   4.627   4.264   0.205  2.8087 -1.0405 -1.2154
 6282SOL    MW424902   4.655   4.303   0.278  0.5575 -0.4108 -0.6207
 6283SOL     OW24903   6.051   1.322   0.060  0.0235 -0.0181 -0.3061
 6283SOL    HW224904   5.987   1.265   0.101  0.7073 -0.8241 -0.3422
 6283SOL    HW324905   6.113   1.344   0.130 -1.0263  1.9176  0.1067
 6283SOL    MW424906   6.051   1.318   0.075 -0.0248  0.1309 -0.2564
 6284SOL     OW24907   3.718   2.942   3.308  0.5333 -0.8557 -0.2298
 6284SOL    HW224908   3.687   2.970   3.222  3.2605 -0.9417 -1.3486
 6284SOL    HW324909   3.755   3.021   3.348  0.6159 -1.1183  0.2253
 6284SOL    MW424910   3.719   2.956   3.302  0.9041 -0.9017 -0.3174
 6285SOL     OW24911   5.497   6.141   5.815 -0.2445  0.0687  0.5371
 6285SOL    HW224912   5.443   6.202   5.765 -0.7394 -2.0207 -1.6343
 6285SOL    HW324913   5.445   6.061   5.821  1.2905 -0.9287  1.2579
 6285SOL    MW424914   5.483   6.138   5.810 -0.1073 -0.3386  0.3457
 6286SOL     OW24915   5.147   4.835   1.607  0.2499  0.7876 -0.1753
 6286SOL    HW224916   5.152   4.929   1.624  1.0932  0.6558  0.3653
 6286SOL    HW324917   5.230   4.800   1.639  0.1495 -0.0780 -0.8104
 6286SOL    MW424918   5.159   4.843   1.613  0.3479  0.6560 -0.1878
 6287SOL     OW24919   2.946   3.766   2.052  0.2242 -1.1640 -0.2870
 6287SOL    HW224920   2.924   3.678   2.083 -0.6221 -0.8339  0.0712
 6287SOL    HW324921   3.011   3.751   1.983  1.1659 -1.9916  0.7210
 6287SOL    MW424922   2.952   3.752   2.047  0.2368 -1.2296 -0.1067
 6288SOL     OW24923   5.906   2.532   3.591 -0.3549  0.0098 -0.0918
 6288SOL    HW224924   5.887   2.498   3.679  2.2599  0.2001  0.6338
 6288SOL    HW324925   5.952   2.461   3.547  0.6147  0.8034 -0.3826
 6288SOL    MW424926   5.909   2.518   3.597  0.1180  0.1396 -0.0344
 6289SOL     OW24927   5.586   4.512   5.277  0.8332 -0.5901 -0.3107
 6289SOL    HW224928   5.668   4.486   5.319  0.6219  1.3108  1.4402
 6289SOL    HW324929   5.518   4.462   5.322  0.9788 -3.0120 -2.4964
 6289SOL    MW424930   5.588   4.502   5.288  0.8245 -0.6588 -0.3680
 6290SOL     OW24931   1.789   0.518   5.758 -0.4357  0.1425  0.5131
 6290SOL    HW224932   1.788   0.422   5.759  0.0226 -0.0884 -3.4278
 6290SOL    HW324933   1.868   0.542   5.806  0.0480 -1.5237  0.6131
 6290SOL    MW424934   1.799   0.508   5.764 -0.3114 -0.1078  0.0064
 6291SOL     OW24935   4.551   1.356   1.292  0.3059 -0.4315  0.1676
 6291SOL    HW224936   4.595   1.393   1.215  0.6227 -0.4043  0.3591
 6291SOL    HW324937   4.547   1.262   1.274 -1.8453 -0.1721 -1.0010
 6291SOL    MW424938   4.556   1.348   1.279  0.0639 -0.3937  0.0387
 6292SOL     OW24939   2.765   1.901   4.452 -0.3300 -0.2053  0.0757
 6292SOL    HW224940   2.840   1.889   4.393 -0.7623 -0.2083 -0.4825
 6292SOL    HW324941   2.803   1.935   4.533  0.5352 -2.0916  0.5136
 6292SOL    MW424942   2.780   1.904   4.455 -0.2729 -0.4546  0.0598
 6293SOL     OW24943   3.298   5.252   6.169  0.2165 -0.1722 -0.4792
 6293SOL    HW224944   3.298   5.332   6.222 -0.6222  0.5340 -1.5102
 6293SOL    HW324945   3.214   5.210   6.188  0.2369 -0.3052 -0.6747
 6293SOL    MW424946   3.287   5.257   6.179  0.1086 -0.0966 -0.6410
 6294SOL     OW24947   6.232   0.287   4.514 -0.1018 -0.2100 -0.0521
 6294SOL    HW224948   6.150   0.326   4.545 -1.9878 -2.9018 -1.2937
 6294SOL    HW324949   6.269   0.244   4.591 -2.1021 -2.5045 -0.2589
 6294SOL    MW424950   6.226   0.287   4.528 -0.6146 -0.8679 -0.2432
 6295SOL     OW24951   2.445   1.165   0.386 -0.3601 -0.0070 -0.0999
 6295SOL    HW224952   2.511   1.224   0.351 -0.4885  0.3619  0.2750
 6295SOL    HW324953   2.409   1.121   0.308  0.0010  0.1280 -0.3444
 6295SOL    MW424954   2.449   1.167   0.371 -0.3294  0.0595 -0.0827
 6296SOL     OW24955   4.403   4.956   1.640  0.3349  0.2015  0.1369
 6296SOL    HW224956   4.388   4.907   1.721  0.0155  1.6134  0.9722
 6296SOL    HW324957   4.498   4.967   1.636  0.2863  1.1046  0.9603
 6296SOL    MW424958   4.414   4.951   1.650  0.2864  0.5069  0.3558
 6297SOL     OW24959   3.046   2.991   0.619 -0.3752 -0.2402 -0.2949
 6297SOL    HW224960   2.951   3.006   0.612 -0.5115 -1.3811 -1.3647
 6297SOL    HW324961   3.064   2.926   0.552  0.9511 -1.0875  0.8409
 6297SOL    MW424962   3.036   2.985   0.609 -0.2182 -0.5025 -0.2862
 6298SOL     OW24963   4.426   0.829   4.977 -0.6216 -0.0962  0.2470
 6298SOL    HW224964   4.342   0.814   4.933 -0.2633  0.0968 -0.5140
 6298SOL    HW324965   4.405   0.820   5.070 -1.7786  1.2970  0.1696
 6298SOL    MW424966   4.412   0.826   4.983 -0.7269  0.1131  0.1364
 6299SOL     OW24967   4.271   6.069   2.496  0.5415 -0.0846 -0.0311
 6299SOL    HW224968   4.219   6.148   2.479 -0.1167 -0.9458 -2.5178
 6299SOL    HW324969   4.251   6.012   2.422  2.5881 -1.7618  0.6299
 6299SOL    MW424970   4.262   6.072   2.484  0.7247 -0.4195 -0.2719
 6300SOL     OW24971   2.379   5.419   0.715  0.0016  0.5905 -0.4914
 6300SOL    HW224972   2.452   5.393   0.660 -0.0485  1.2621 -0.8809
 6300SOL    HW324973   2.343   5.497   0.673  2.2697  3.4507  2.4015
 6300SOL    MW424974   2.384   5.426   0.702  0.2942  1.0565 -0.1611
 6301SOL     OW24975   3.218   2.678   4.023  0.0342  0.4627  0.0294
 6301SOL    HW224976   3.211   2.653   4.115 -1.0109  0.2814 -0.0765
 6301SOL    HW324977   3.309   2.702   4.011  0.0865  0.9215  1.2212
 6301SOL    MW424978   3.229   2.678   4.033 -0.0968  0.4993  0.1727
 6302SOL     OW24979   0.991   3.022   4.655  0.2034 -0.4016  0.2217
 6302SOL    HW224980   0.977   3.023   4.749 -0.3943  1.2108  0.1432
 6302SOL    HW324981   0.943   2.945   4.624  2.3171 -2.3275  1.4453
 6302SOL    MW424982   0.982   3.012   4.663  0.4034 -0.4429  0.3728
 6303SOL     OW24983   1.334   5.085   1.519 -0.1114  0.3078 -0.7399
 6303SOL    HW224984   1.274   5.138   1.467  0.8965  0.8234 -1.4083
 6303SOL    HW324985   1.420   5.099   1.479  0.9252  1.5961  1.7006
 6303SOL    MW424986   1.337   5.094   1.507  0.1583  0.5458 -0.5061
 6304SOL     OW24987   5.568   3.230   4.399  0.2339  0.0924  0.3167
 6304SOL    HW224988   5.568   3.274   4.484  0.0966  1.0885 -0.1850
 6304SOL    HW324989   5.487   3.179   4.398 -0.4522  1.1722  0.2424
 6304SOL    MW424990   5.557   3.229   4.410  0.1253  0.3663  0.2407
 6305SOL     OW24991   4.707   0.470   1.870 -0.5516 -0.3573 -0.2071
 6305SOL    HW224992   4.685   0.379   1.888 -0.9018  0.0845  1.7565
 6305SOL    HW324993   4.722   0.472   1.775  1.8618 -2.9489 -0.0088
 6305SOL    MW424994   4.706   0.458   1.860 -0.2794 -0.6410  0.0781
 6306SOL     OW24995   5.182   6.242   4.810  0.4834 -0.1709  0.5463
 6306SOL    HW224996   5.234   6.199   4.878  1.4488  0.7097  0.4037
 6306SOL    HW324997   5.246   6.264   4.742 -0.9031 -3.8145 -2.2093
 6306SOL    MW424998   5.198   6.239   4.810  0.4279 -0.5355  0.1639
 6307SOL     OW24999   5.899   5.156   5.262  0.3261 -0.2375 -0.1115
 6307SOL    HW225000   5.882   5.074   5.308  2.2285 -1.8816 -2.0602
 6307SOL    HW325001   5.817   5.177   5.218 -0.0900 -1.3365  0.1169
 6307SOL    MW425002   5.886   5.148   5.262  0.5222 -0.5994 -0.3385
 6308SOL     OW25003   3.711   1.397   4.395 -0.1469 -0.2076  0.1998
 6308SOL    HW225004   3.773   1.448   4.342 -0.2518  1.1242  1.3087
 6308SOL    HW325005   3.625   1.420   4.359 -0.0715 -1.3527 -0.7473
 6308SOL    MW425006   3.708   1.407   4.383 -0.1508 -0.1830  0.2212
 6309SOL     OW25007   1.310   5.943   4.963 -0.1660  0.6242  0.4252
 6309SOL    HW225008   1.314   5.972   5.054  0.7960 -1.2823  1.0239
 6309SOL    HW325009   1.287   6.023   4.915 -0.4364  1.7398  2.2806
 6309SOL    MW425010   1.308   5.958   4.969 -0.0748  0.5199  0.7490
 6310SOL     OW25011   3.053   4.813   4.141  0.2788  0.0831  0.2737
 6310SOL    HW225012   3.084   4.803   4.051 -0.6119 -1.2196  0.0816
 6310SOL    HW325013   3.132   4.797   4.194  0.4370 -1.0231 -0.2503
 6310SOL    MW425014   3.068   4.809   4.136  0.1822 -0.2347  0.1792
 6311SOL     OW25015   4.513   5.823   2.256  0.2501 -0.1162  0.2225
 6311SOL    HW225016   4.417   5.818   2.249  0.0406 -0.0557  2.4220
 6311SOL    HW325017   4.531   5.916   2.263  0.3821 -0.1782  0.7172
 6311SOL    MW425018   4.502   5.834   2.256  0.2398 -0.1164  0.5779
 6312SOL     OW25019   4.038   0.838   0.466 -0.4515 -0.3658 -0.4128
 6312SOL    HW225020   4.010   0.803   0.382  0.0120 -1.5218 -0.1060
 6312SOL    HW325021   4.047   0.932   0.451  0.4512 -0.6614 -1.9043
 6312SOL    MW425022   4.036   0.846   0.453 -0.2713 -0.5573 -0.5691
 6313SOL     OW25023   5.316   2.774   0.088  0.2307  0.2471  0.2839
 6313SOL    HW225024   5.335   2.835   0.016 -0.1279 -0.3414 -0.3261
 6313SOL    HW325025   5.351   2.690   0.058 -0.8169 -0.2262  0.3527
 6313SOL    MW425026   5.323   2.771   0.074  0.0452  0.1070  0.2125
 6314SOL     OW25027   0.101   0.579   3.285  0.4905  0.4560 -0.3459
 6314SOL    HW225028   0.114   0.604   3.194  0.0871  1.1968 -0.2092
 6314SOL    HW325029   0.077   0.660   3.329 -1.7485 -0.2908 -0.0472
 6314SOL    MW425030   0.099   0.593   3.279  0.1419  0.4552 -0.2885
 6315SOL     OW25031   0.147   5.140   0.330 -0.2162 -0.5164  0.0959
 6315SOL    HW225032   0.070   5.084   0.322  0.8466 -1.9728 -0.2742
 6315SOL    HW325033   0.214   5.096   0.278  1.2010  0.1123  1.3320
 6315SOL    MW425034   0.146   5.127   0.322  0.1110 -0.6256  0.2102
 6316SOL     OW25035   5.232   1.807   5.572  0.0859 -0.0516  0.2268
 6316SOL    HW225036   5.300   1.799   5.505 -0.1130  2.0126 -0.2913
 6316SOL    HW325037   5.253   1.889   5.618 -2.2050  0.8395 -0.1738
 6316SOL    MW425038   5.244   1.817   5.569 -0.2426  0.3383  0.1056
 6317SOL     OW25039   5.366   2.963   6.322 -0.0887 -0.7865 -0.0849
 6317SOL    HW225040   5.411   3.046   6.338  0.8083 -1.3856  0.5586
 6317SOL    HW325041   5.372   2.950   6.228  0.2702 -0.4041 -0.1170
 6317SOL    MW425042   5.373   2.972   6.312  0.0770 -0.8151 -0.0042
 6318SOL     OW25043   1.341   4.726   3.536 -0.6156  0.2540  0.0619
 6318SOL    HW225044   1.350   4.632   3.521  0.1761  0.4591 -0.8233
 6318SOL    HW325045   1.320   4.734   3.629  0.9813 -0.7193  0.5375
 6318SOL    MW425046   1.339   4.715   3.547 -0.3004  0.1526  0.0078
 6319SOL     OW25047   1.593   5.283   1.609  0.4410  0.0241 -0.4259
 6319SOL    HW225048   1.526   5.345   1.638  0.1888 -0.1081 -0.7151
 6319SOL    HW325049   1.550   5.231   1.541  1.6965  2.0351 -2.9837
 6319SOL    MW425050   1.579   5.284   1.604  0.5734  0.2720 -0.8015
 6320SOL     OW25051   4.788   2.216   3.033  0.3490  0.0322  0.4288
 6320SOL    HW225052   4.755   2.268   3.107 -1.0577 -0.2883  0.0567
 6320SOL    HW325053   4.816   2.280   2.968  1.2560  0.3133  1.0760
 6320SOL    MW425054   4.787   2.231   3.034  0.2830  0.0270  0.4651
 6321SOL     OW25055   1.907   5.797   5.547  0.1525  0.7152  0.4742
 6321SOL    HW225056   1.892   5.730   5.613  2.0285 -0.3143 -0.0709
 6321SOL    HW325057   1.857   5.769   5.471 -0.9729  1.2244  1.0047
 6321SOL    MW425058   1.899   5.785   5.546  0.2516  0.6466  0.4723
 6322SOL     OW25059   2.322   3.155   0.522  0.3421 -0.6187  0.2340
 6322SOL    HW225060   2.400   3.164   0.466  0.1140  1.0305  0.1306
 6322SOL    HW325061   2.311   3.060   0.533  2.5398 -0.8945  0.4943
 6322SOL    MW425062   2.331   3.144   0.516  0.6020 -0.4375  0.2547
 6323SOL     OW25063   4.545   3.109   4.952  0.1478 -0.4662  0.1979
 6323SOL    HW225064   4.460   3.147   4.932  0.4592 -0.6619 -1.7275
 6323SOL    HW325065   4.593   3.179   4.997 -0.0429  0.6984 -1.3248
 6323SOL    MW425066   4.540   3.123   4.955  0.1637 -0.3384 -0.2570
 6324SOL     OW25067   2.981   4.458   4.797 -0.1366 -0.3095 -0.9977
 6324SOL    HW225068   2.993   4.390   4.863 -0.3764  1.6980  1.2275
 6324SOL    HW325069   3.047   4.438   4.730 -1.4656 -3.7824 -1.4555
 6324SOL    MW425070   2.991   4.446   4.797 -0.3436 -0.5028 -0.7645
 6325SOL     OW25071   1.790   0.118   0.688  0.3349 -0.6667  0.2611
 6325SOL    HW225072   1.815   0.210   0.683  2.0289 -0.9386  2.4279
 6325SOL    HW325073   1.871   0.070   0.672 -0.0649 -1.7193  1.2650
 6325SOL    MW425074   1.804   0.124   0.685  0.5057 -0.8414  0.6794
 6326SOL     OW25075   1.469   2.046   2.819 -0.3922 -0.0175 -0.2540
 6326SOL    HW225076   1.542   1.992   2.792 -0.4527  0.2925 -1.0601
 6326SOL    HW325077   1.453   2.104   2.745 -1.5393 -0.1687 -0.1482
 6326SOL    MW425078   1.476   2.047   2.806 -0.5515  0.0035 -0.3464
 6327SOL     OW25079   0.310   1.136   2.934  0.0854 -0.5098  0.2622
 6327SOL    HW225080   0.323   1.189   2.856  0.3136  0.4404  0.9301
 6327SOL    HW325081   0.253   1.189   2.990  0.8829 -0.6521  1.2390
 6327SOL    MW425082   0.304   1.150   2.931  0.2207 -0.4032  0.4792
 6328SOL     OW25083   3.312   0.473   5.117  0.1581 -0.1312  0.2873
 6328SOL    HW225084   3.264   0.542   5.072  0.1085 -0.4844 -0.2075
 6328SOL    HW325085   3.325   0.406   5.051  0.1349 -0.6345  0.7872
 6328SOL    MW425086   3.307   0.474   5.103  0.1485 -0.2442  0.2879
 6329SOL     OW25087   2.664   1.995   5.754  0.1261 -0.2557  0.0093
 6329SOL    HW225088   2.689   1.966   5.666  2.6904  1.7710 -0.0533
 6329SOL    HW325089   2.569   1.982   5.757  0.0330 -1.0051 -2.8064
 6329SOL    MW425090   2.655   1.989   5.742  0.4521 -0.0872 -0.3705
 6330SOL     OW25091   0.375   0.938   1.522  0.5167 -0.0728  0.3181
 6330SOL    HW225092   0.326   0.991   1.585 -0.7532  0.3741 -0.9785
 6330SOL    HW325093   0.366   0.848   1.555 -2.4135 -0.2070 -0.5327
 6330SOL    MW425094   0.367   0.933   1.535 -0.0375 -0.0316  0.0348
 6331SOL     OW25095   4.514   5.114   4.569  0.2809  0.0204  0.6037
 6331SOL    HW225096   4.553   5.202   4.573 -0.1412  0.2258  0.2534
 6331SOL    HW325097   4.456   5.110   4.645 -0.6257  0.5005 -0.0358
 6331SOL    MW425098   4.512   5.125   4.579  0.1056  0.1109  0.4731
 6332SOL     OW25099   0.665   5.350   3.458  0.1159  0.0652  0.5828
 6332SOL    HW225100   0.585   5.330   3.507  0.2208  2.0170  1.6613
 6332SOL    HW325101   0.639   5.346   3.366 -1.2384  0.6667  0.9162
 6332SOL    MW425102   0.651   5.347   3.452 -0.0489  0.4021  0.7691
 6333SOL     OW25103   3.666   3.792   0.395  0.2370  0.1704 -0.3191
 6333SOL    HW225104   3.732   3.859   0.415  0.0405  0.3623 -0.3106
 6333SOL    HW325105   3.684   3.722   0.457  0.2253  0.3632 -0.0944
 6333SOL    MW425106   3.677   3.792   0.406  0.2096  0.2212 -0.2883
 6334SOL     OW25107   1.434   0.811   5.651  0.0651  0.1163  0.2347
 6334SOL    HW225108   1.513   0.796   5.598  1.2895  0.2032  1.9444
 6334SOL    HW325109   1.452   0.891   5.700 -0.6532 -0.3945  1.3907
 6334SOL    MW425110   1.447   0.819   5.651  0.1318  0.0604  0.6128
 6335SOL     OW25111   0.428   1.563   4.084 -0.4419  0.2366 -0.6057
 6335SOL    HW225112   0.502   1.574   4.144 -0.5312  1.2015 -0.6600
 6335SOL    HW325113   0.466   1.574   3.997 -0.8656  2.1934 -0.5858
 6335SOL    MW425114   0.443   1.566   4.081 -0.5096  0.6221 -0.6102
 6336SOL     OW25115   5.391   6.240   5.380 -0.1185  0.1220 -0.1262
 6336SOL    HW225116   5.378   6.153   5.419 -0.3007  0.1136 -0.2042
 6336SOL    HW325117   5.317   6.291   5.412 -2.1635 -0.7659 -3.0122
 6336SOL    MW425118   5.380   6.235   5.389 -0.4124  0.0038 -0.5173
 6337SOL     OW25119   4.654   0.685   4.857 -0.1359 -0.0800 -0.2547
 6337SOL    HW225120   4.605   0.631   4.918 -1.7984 -0.3324 -1.7259
 6337SOL    HW325121   4.608   0.769   4.857  0.9305  0.5244  0.1556
 6337SOL    MW425122   4.641   0.689   4.865 -0.2146 -0.0336 -0.3947
 6338SOL     OW25123   5.845   3.685   5.199  0.4287 -0.2642 -0.8482
 6338SOL    HW225124   5.795   3.647   5.126 -0.4630 -1.9031  0.5435
 6338SOL    HW325125   5.791   3.668   5.276  0.5150  2.9334  0.0662
 6338SOL    MW425126   5.831   3.678   5.199  0.3224 -0.0586 -0.5439
 6339SOL     OW25127   0.629   4.237   3.861 -0.0135 -0.1300 -0.5648
 6339SOL    HW225128   0.685   4.192   3.797  0.2073  0.9168 -1.1391
 6339SOL    HW325129   0.600   4.316   3.815  2.0293  1.9052  1.3537
 6339SOL    MW425130   0.633   4.241   3.846  0.2852  0.2767 -0.3875
 6340SOL     OW25131   1.698   4.603   2.185 -0.0901  0.3770  0.3968
 6340SOL    HW225132   1.656   4.532   2.137  0.8288  0.4549 -0.5723
 6340SOL    HW325133   1.767   4.560   2.236  1.0402  0.6177 -0.8537
 6340SOL    MW425134   1.702   4.588   2.185  0.1803  0.4191  0.1040
 6341SOL     OW25135   5.656   2.685   3.562 -0.1949  0.0589 -0.4998
 6341SOL    HW225136   5.673   2.779   3.566  1.4697 -0.2164 -0.6735
 6341SOL    HW325137   5.740   2.646   3.538 -0.9470 -1.4503 -0.7823
 6341SOL    MW425138   5.669   2.693   3.560 -0.0745 -0.1765 -0.5600
 6342SOL     OW25139   0.027   0.915   3.124  0.8794  0.6595 -0.0096
 6342SOL    HW225140   0.042   0.954   3.037 -1.7377 -1.2190 -1.4707
 6342SOL    HW325141  -0.036   0.973   3.166  0.7456  0.6197 -0.1529
 6342SOL    MW425142   0.021   0.928   3.118  0.5165  0.4064 -0.2213
 6343SOL     OW25143   4.353   3.893   1.722 -0.3925 -0.2463  0.6108
 6343SOL    HW225144   4.316   3.879   1.635  2.8358  1.5281 -1.2261
 6343SOL    HW325145   4.310   3.972   1.754 -1.0440 -0.4707  0.3132
 6343SOL    MW425146   4.342   3.901   1.715 -0.0525 -0.0418  0.3292
 6344SOL     OW25147   6.010   2.632   0.103 -0.2439  0.0685  0.3126
 6344SOL    HW225148   5.915   2.631   0.106 -0.4605  1.9468 -2.2471
 6344SOL    HW325149   6.036   2.697   0.168 -0.4816 -2.0109  2.6026
 6344SOL    MW425150   6.001   2.640   0.112 -0.3038  0.0420  0.2770
 6345SOL     OW25151   3.471   3.057   5.000 -0.4746  0.1585  0.0006
 6345SOL    HW225152   3.515   3.134   5.036 -1.2992  0.0069  1.3976
 6345SOL    HW325153   3.380   3.085   4.988 -0.6838 -0.4619  0.1079
 6345SOL    MW425154   3.465   3.071   5.003 -0.6110  0.0566  0.1991
 6346SOL     OW25155   0.417   3.297   4.845  0.0994 -0.0747 -0.2101
 6346SOL    HW225156   0.507   3.330   4.847  0.9354 -2.0724 -1.2238
 6346SOL    HW325157   0.427   3.202   4.855 -2.0566 -0.1835  1.4514
 6346SOL    MW425158   0.430   3.289   4.847 -0.0748 -0.3527 -0.1246
 6347SOL     OW25159   2.579   0.111   4.536 -0.7436 -0.0628 -0.1982
 6347SOL    HW225160   2.607   0.139   4.449 -1.0057  1.8663  0.3067
 6347SOL    HW325161   2.496   0.158   4.552 -0.1542  0.4855  1.5081
 6347SOL    MW425162   2.571   0.121   4.527 -0.7004  0.2641  0.0935
 6348SOL     OW25163   2.599   0.189   1.477 -0.1877  0.6515 -0.0086
 6348SOL    HW225164   2.678   0.136   1.489  0.3662  1.2264 -0.9767
 6348SOL    HW325165   2.542   0.163   1.549  0.0578 -1.2657 -0.4419
 6348SOL    MW425166   2.602   0.178   1.488 -0.0823  0.4744 -0.1935
 6349SOL     OW25167   5.523   4.718   2.941  0.2944 -0.2861  0.1887
 6349SOL    HW225168   5.607   4.736   2.898 -0.9435  1.1165 -1.7834
 6349SOL    HW325169   5.481   4.804   2.948 -0.6034 -0.8281  2.0641
 6349SOL    MW425170   5.529   4.732   2.937  0.0126 -0.1725  0.1759
 6350SOL     OW25171   3.968   5.172   1.681 -0.0270  0.5765  0.3587
 6350SOL    HW225172   3.942   5.249   1.731 -0.3193  1.0247 -0.4601
 6350SOL    HW325173   4.055   5.195   1.647  1.2735 -0.6843  2.6097
 6350SOL    MW425174   3.976   5.185   1.683  0.1060  0.4693  0.5476
 6351SOL     OW25175   3.025   1.065   0.819  0.2292 -0.1579  0.4932
 6351SOL    HW225176   3.009   1.117   0.740 -1.1182  1.4214  1.7519
 6351SOL    HW325177   2.957   0.998   0.818  0.4745 -0.4119  0.1335
 6351SOL    MW425178   3.014   1.063   0.808  0.0838  0.0170  0.6118
 6352SOL     OW25179   0.430   1.750   2.261  0.0778  0.2516 -0.0640
 6352SOL    HW225180   0.338   1.734   2.244  0.1972 -0.8835  0.2905
 6352SOL    HW325181   0.471   1.753   2.174 -0.1469 -0.1348 -0.1820
 6352SOL    MW425182   0.423   1.748   2.247  0.0639  0.0509 -0.0328
 6353SOL     OW25183   0.244   2.148   3.207  0.2046 -0.2192  0.0454
 6353SOL    HW225184   0.312   2.193   3.156  0.1848  0.9766  1.0207
 6353SOL    HW325185   0.220   2.211   3.275 -0.7950 -1.2212  0.6493
 6353SOL    MW425186   0.250   2.163   3.209  0.0701 -0.1936  0.2538
 6354SOL     OW25187   4.442   5.523   3.876 -0.4180 -0.1614  0.1000
 6354SOL    HW225188   4.436   5.497   3.968  0.7778 -3.1915 -0.5339
 6354SOL    HW325189   4.531   5.496   3.850 -0.1859  1.9871 -1.5956
 6354SOL    MW425190   4.453   5.516   3.885 -0.2296 -0.2777 -0.2073
 6355SOL     OW25191   2.809   6.408   4.580 -0.0674 -0.5684  0.1642
 6355SOL    HW225192   2.881   6.471   4.574  1.8128 -2.5485  0.3428
 6355SOL    HW325193   2.730   6.460   4.567  1.2991  1.9183  1.1145
 6355SOL    MW425194   2.808   6.423   4.577  0.3610 -0.5015  0.3131
 6356SOL     OW25195   4.320   5.265   4.132 -0.1672  0.5745  0.2776
 6356SOL    HW225196   4.393   5.215   4.097  1.1994  2.5088  0.2199
 6356SOL    HW325197   4.352   5.355   4.136 -1.7756  1.1374  2.3774
 6356SOL    MW425198   4.334   5.270   4.128 -0.1991  0.9040  0.5470
 6357SOL     OW25199   0.362   5.569   3.632  0.2208 -0.4389  0.9852
 6357SOL    HW225200   0.290   5.580   3.694 -0.2015 -0.9646  0.6043
 6357SOL    HW325201   0.327   5.601   3.549 -0.1816 -2.1952  0.4145
 6357SOL    MW425202   0.348   5.574   3.629  0.1120 -0.7400  0.8596
 6358SOL     OW25203   2.363   1.402   5.437  0.1013 -0.2430 -0.2828
 6358SOL    HW225204   2.424   1.473   5.418  1.0680 -0.6335  1.1636
 6358SOL    HW325205   2.283   1.425   5.390  0.8472  1.0780 -0.9587
 6358SOL    MW425206   2.361   1.414   5.428  0.3273 -0.1202 -0.1812
 6359SOL     OW25207   2.795   5.972   4.611 -0.0801  0.5126  0.0264
 6359SOL    HW225208   2.868   6.033   4.602 -0.9680  1.6838  0.5548
 6359SOL    HW325209   2.831   5.887   4.583  1.1218  1.3001 -0.9168
 6359SOL    MW425210   2.809   5.969   4.606 -0.0387  0.7710 -0.0283
 6360SOL     OW25211   1.653   4.007   3.425 -0.4438  0.4595 -0.6077
 6360SOL    HW225212   1.682   4.091   3.461 -1.8676  0.9129 -0.4510
 6360SOL    HW325213   1.573   4.028   3.377 -1.1193 -0.8727 -0.1210
 6360SOL    MW425214   1.646   4.021   3.424 -0.7207  0.3436 -0.5228
 6361SOL     OW25215   2.519   1.764   2.108 -0.2717  0.3681 -0.3246
 6361SOL    HW225216   2.514   1.705   2.184  0.3870  0.6614 -0.0485
 6361SOL    HW325217   2.430   1.763   2.072 -0.8865  1.0366  1.0748
 6361SOL    MW425218   2.506   1.756   2.114 -0.2659  0.4950 -0.1035
 6362SOL     OW25219   3.228   5.020   5.235 -0.0743 -0.0889  0.8913
 6362SOL    HW225220   3.308   4.967   5.242  0.1863  0.4307  2.2125
 6362SOL    HW325221   3.164   4.962   5.195  0.7618 -0.7529  0.4694
 6362SOL    MW425222   3.230   5.005   5.231  0.0704 -0.1079  1.0099
 6363SOL     OW25223   1.438   2.890   6.209  0.0965 -0.0728  0.9159
 6363SOL    HW225224   1.513   2.883   6.266  0.6087 -0.0624  0.2581
 6363SOL    HW325225   1.452   2.823   6.142 -0.2741  0.1971  0.5620
 6363SOL    MW425226   1.449   2.880   6.207  0.1152 -0.0358  0.7824
 6364SOL     OW25227   1.674   2.850   3.771  0.4097 -0.4404  0.0304
 6364SOL    HW225228   1.580   2.865   3.778  0.4088 -1.1184  2.3123
 6364SOL    HW325229   1.713   2.923   3.819  1.0520 -0.2690 -0.7391
 6364SOL    MW425230   1.667   2.862   3.778  0.4943 -0.5073  0.2300
 6365SOL     OW25231   4.850   3.294   1.661 -0.0907 -0.0557 -0.4788
 6365SOL    HW225232   4.918   3.235   1.692  0.4469  0.7354 -0.1342
 6365SOL    HW325233   4.769   3.260   1.700  0.4563  0.4484  1.1559
 6365SOL    MW425234   4.848   3.281   1.670  0.0524  0.1152 -0.2177
 6366SOL     OW25235   0.997   5.841   1.017  0.2200 -0.2891  0.4087
 6366SOL    HW225236   1.004   5.915   1.077 -2.0572  0.1572  0.2422
 6366SOL    HW325237   1.070   5.852   0.956  1.1943  0.5671  1.6911
 6366SOL    MW425238   1.007   5.852   1.017  0.0481 -0.1172  0.5560
 6367SOL     OW25239   1.955   3.546   0.171  0.2977  0.0551  0.6721
 6367SOL    HW225240   1.951   3.450   0.163 -0.4886  0.1858 -0.8016
 6367SOL    HW325241   1.903   3.565   0.250 -0.8281 -0.6416  0.1329
 6367SOL    MW425242   1.948   3.536   0.181  0.0454 -0.0196  0.4065
 6368SOL     OW25243   1.801   5.331   2.097  0.5620  0.1075 -0.6579
 6368SOL    HW225244   1.863   5.364   2.032 -0.1214 -1.7463 -2.3292
 6368SOL    HW325245   1.746   5.406   2.118  3.0445  1.7143  0.5892
 6368SOL    MW425246   1.802   5.345   2.091  0.7994  0.0749 -0.7139
 6369SOL     OW25247   4.616   5.861   6.313  0.0775 -0.0406  0.5691
 6369SOL    HW225248   4.574   5.838   6.230 -0.3103  1.2644  0.3834
 6369SOL    HW325249   4.709   5.865   6.291 -0.0594  0.7157  0.0811
 6369SOL    MW425250   4.623   5.858   6.299  0.0083  0.2313  0.4802
 6370SOL     OW25251   0.002   0.647   3.837 -0.7295 -0.9879  0.3661
 6370SOL    HW225252   0.050   0.624   3.758 -1.9318 -1.2204 -0.3287
 6370SOL    HW325253  -0.090   0.633   3.814 -1.1033 -1.1067  1.8177
 6370SOL    MW425254  -0.004   0.642   3.824 -0.9375 -1.0343  0.4659
 6371SOL     OW25255   2.903   3.595   3.546 -0.5569 -0.6240  0.4991
 6371SOL    HW225256   2.811   3.602   3.520 -0.0614  1.1036 -0.9950
 6371SOL    HW325257   2.933   3.512   3.508 -0.8312  0.0993 -1.4112
 6371SOL    MW425258   2.895   3.585   3.537 -0.5277 -0.3006  0.0499
 6372SOL     OW25259   0.376   4.018   3.611  0.2055 -0.2324  0.2000
 6372SOL    HW225260   0.346   3.948   3.553  2.4329 -0.7989 -0.3609
 6372SOL    HW325261   0.438   4.068   3.558  0.9882  0.2854  1.5594
 6372SOL    MW425262   0.381   4.015   3.597  0.6026 -0.2389  0.3054
 6373SOL     OW25263   2.467   4.013   5.948 -0.5722 -0.0972  0.3436
 6373SOL    HW225264   2.503   3.952   5.884 -0.8944  0.1129 -0.0433
 6373SOL    HW325265   2.374   3.991   5.953 -0.5504 -0.1089  0.7390
 6373SOL    MW425266   2.460   4.002   5.940 -0.6118 -0.0710  0.3448
 6374SOL     OW25267   5.806   6.367   4.196  0.0515  0.5573 -0.4183
 6374SOL    HW225268   5.849   6.330   4.119 -1.3556 -1.6341 -0.2365
 6374SOL    HW325269   5.713   6.345   4.185 -0.3697  1.2979  1.3056
 6374SOL    MW425270   5.799   6.360   4.184 -0.1897  0.3659 -0.1669
 6375SOL     OW25271   4.405   4.847   5.160  0.0234 -0.2289  0.1334
 6375SOL    HW225272   4.371   4.835   5.249 -1.3887 -1.1004 -0.4956
 6375SOL    HW325273   4.421   4.941   5.153 -1.6122  0.1217  0.7177
 6375SOL    MW425274   4.402   4.858   5.171 -0.3787 -0.2976  0.1275
 6376SOL     OW25275   3.731   4.071   2.176  0.4127 -0.0332  0.2693
 6376SOL    HW225276   3.785   4.008   2.224 -0.0217 -0.1818  0.5715
 6376SOL    HW325277   3.654   4.083   2.231  1.0438  1.7317  0.8302
 6376SOL    MW425278   3.728   4.064   2.190  0.4387  0.1801  0.3832
 6377SOL     OW25279   4.308   3.032   1.959 -0.1694 -0.7807 -0.0812
 6377SOL    HW225280   4.253   2.960   1.990 -1.2493  0.2201  0.3974
 6377SOL    HW325281   4.278   3.047   1.869  0.1303 -0.9862 -0.2180
 6377SOL    MW425282   4.297   3.024   1.951 -0.2724 -0.6758 -0.0361
 6378SOL     OW25283   1.547   0.497   1.357 -0.0356 -0.2586 -0.6460
 6378SOL    HW225284   1.627   0.512   1.408  0.2280 -0.1212 -1.0949
 6378SOL    HW325285   1.481   0.472   1.422  0.0046  1.0184 -0.0907
 6378SOL    MW425286   1.549   0.496   1.372  0.0045 -0.0720 -0.6320
 6379SOL     OW25287   1.522   5.803   2.295  0.1295 -0.2934  0.0843
 6379SOL    HW225288   1.565   5.737   2.241 -2.1599 -0.4095 -1.7458
 6379SOL    HW325289   1.435   5.767   2.312 -0.0729  0.8847  1.7661
 6379SOL    MW425290   1.516   5.789   2.291 -0.1992 -0.1533  0.0647
 6380SOL     OW25291   5.913   3.729   0.465  0.2362 -0.4763 -0.0699
 6380SOL    HW225292   5.879   3.680   0.390 -0.2731  2.5363 -1.9790
 6380SOL    HW325293   6.001   3.756   0.438  0.1355  0.4616  0.4938
 6380SOL    MW425294   5.920   3.726   0.452  0.1557  0.0449 -0.2474
 6381SOL     OW25295   4.719   1.933   5.107  0.5139 -0.0328 -0.1772
 6381SOL    HW225296   4.684   1.852   5.145 -1.7384  1.2238  0.5595
 6381SOL    HW325297   4.723   1.915   5.013 -2.1511 -0.3141 -0.3104
 6381SOL    MW425298   4.715   1.920   5.100 -0.1349  0.0959 -0.0976
 6382SOL     OW25299   0.005   0.312   3.133 -0.2192 -0.0946  0.1235
 6382SOL    HW225300  -0.021   0.387   3.079  1.5912  1.7279  1.6109
 6382SOL    HW325301  -0.076   0.286   3.178 -1.4026 -0.6577 -2.2079
 6382SOL    MW425302  -0.009   0.318   3.132 -0.1365  0.0715  0.0122
 6383SOL     OW25303   1.550   2.999   0.252 -0.2114  0.7048  0.3550
 6383SOL    HW225304   1.479   2.937   0.239 -1.9200  2.5472  0.4623
 6383SOL    HW325305   1.597   2.967   0.329  0.0851 -1.3990 -0.6396
 6383SOL    MW425306   1.547   2.987   0.260 -0.3977  0.6703  0.2379
 6384SOL     OW25307   0.340   5.125   1.273  0.3964  0.3079  0.9865
 6384SOL    HW225308   0.283   5.194   1.307 -0.2422  0.3653 -0.1431
 6384SOL    HW325309   0.402   5.171   1.217 -0.7496 -0.1041 -0.6994
 6384SOL    MW425310   0.341   5.140   1.270  0.1609  0.2611  0.6151
 6385SOL     OW25311   3.342   1.519   2.318  0.4525 -0.0494  0.1421
 6385SOL    HW225312   3.333   1.424   2.311 -1.8943 -0.1427  2.6823
 6385SOL    HW325313   3.366   1.534   2.410 -1.8651  1.8547  0.5257
 6385SOL    MW425314   3.344   1.508   2.329 -0.1629  0.1895  0.5278
 6386SOL     OW25315   4.180   2.077   0.109 -0.1154 -0.1176 -0.7200
 6386SOL    HW225316   4.262   2.035   0.083  0.4401 -0.3649  1.2697
 6386SOL    HW325317   4.194   2.170   0.094  1.3508  0.0890  1.4532
 6386SOL    MW425318   4.192   2.084   0.104  0.1514 -0.1229 -0.1707
 6387SOL     OW25319   3.699   0.972   2.399  0.1993  0.3282 -0.0909
 6387SOL    HW225320   3.725   0.967   2.308  1.1366 -0.2821  0.2027
 6387SOL    HW325321   3.666   1.062   2.410 -0.1256  0.3362 -1.0641
 6387SOL    MW425322   3.698   0.984   2.389  0.2801  0.2487 -0.1805
 6388SOL     OW25323   1.499   3.595   3.665 -0.1419  0.4364  0.2706
 6388SOL    HW225324   1.576   3.539   3.659  0.2398  1.0366 -0.6390
 6388SOL    HW325325   1.434   3.553   3.609  0.6085  1.6053 -1.5348
 6388SOL    MW425326   1.501   3.582   3.657  0.0075  0.6698 -0.0876
 6389SOL     OW25327   2.905   4.197   5.369  0.3410  0.1987 -0.3289
 6389SOL    HW225328   2.913   4.225   5.460  1.3958 -0.3480 -0.2386
 6389SOL    HW325329   2.811   4.200   5.351 -0.1241 -1.6658  1.4257
 6389SOL    MW425330   2.894   4.201   5.379  0.4188 -0.1194 -0.0855
 6390SOL     OW25331   5.613   3.197   6.362 -0.2907  0.8687 -0.1945
 6390SOL    HW225332   5.598   3.260   6.432 -2.3483 -0.1161  0.3191
 6390SOL    HW325333   5.654   3.248   6.292  1.7775  1.8991  1.6321
 6390SOL    MW425334   5.617   3.212   6.362 -0.2893  0.8747  0.1143
 6391SOL     OW25335   5.145   5.899   4.818  0.0682 -0.3420 -0.8820
 6391SOL    HW225336   5.228   5.939   4.791  0.3700 -1.1614 -1.1856
 6391SOL    HW325337   5.168   5.810   4.843 -0.6714 -0.4710 -0.6552
 6391SOL    MW425338   5.159   5.893   4.818  0.0104 -0.4671 -0.8921
 6392SOL     OW25339   3.894   3.621   5.202 -0.2697 -0.2757 -0.0435
 6392SOL    HW225340   3.812   3.630   5.250 -0.4071 -0.3626 -0.2591
 6392SOL    HW325341   3.940   3.703   5.218 -0.6215 -0.0155 -0.3406
 6392SOL    MW425342   3.889   3.633   5.211 -0.3343 -0.2528 -0.1112
 6393SOL     OW25343   3.231   5.461   2.653  0.1943 -0.5964  0.1520
 6393SOL    HW225344   3.242   5.371   2.681  1.0772 -0.0972  1.4820
 6393SOL    HW325345   3.314   5.485   2.612  0.8460  0.2803  1.8575
 6393SOL    MW425346   3.243   5.452   2.651  0.3968 -0.4148  0.5525
 6394SOL     OW25347   5.609   4.880   4.536  0.0822 -0.3149 -0.3511
 6394SOL    HW225348   5.634   4.972   4.534 -0.9445  0.0129  0.5939
 6394SOL    HW325349   5.595   4.862   4.629 -2.1332 -0.7284 -0.7090
 6394SOL    MW425350   5.610   4.890   4.548 -0.3455 -0.3262 -0.2736
 6395SOL     OW25351   2.641   5.731   5.056  0.7095  0.2063 -0.3753
 6395SOL    HW225352   2.645   5.642   5.092  2.3572 -0.0134 -1.0075
 6395SOL    HW325353   2.555   5.764   5.083 -0.1673 -1.7599 -0.5622
 6395SOL    MW425354   2.630   5.724   5.064  0.8112 -0.0821 -0.4834
 6396SOL     OW25355   3.911   4.659   3.059 -0.0080 -0.7693 -0.2355
 6396SOL    HW225356   3.929   4.695   3.146 -1.4572 -1.0676  0.2041
 6396SOL    HW325357   3.938   4.729   2.999 -1.1421  0.3984  0.5486
 6396SOL    MW425358   3.917   4.673   3.062 -0.3488 -0.6546 -0.0741
 6397SOL     OW25359   5.464   0.859   3.551  0.5075 -0.3530 -0.1893
 6397SOL    HW225360   5.385   0.804   3.545  0.0582  0.3847 -1.4506
 6397SOL    HW325361   5.500   0.857   3.462  1.0323  0.5955 -0.0035
 6397SOL    MW425362   5.458   0.851   3.538  0.5174 -0.1305 -0.3312
 6398SOL     OW25363   3.935   4.039   3.235  0.0839  0.1503 -0.0281
 6398SOL    HW225364   3.920   4.131   3.215 -1.4829 -0.1353 -0.3285
 6398SOL    HW325365   3.952   3.998   3.150  1.1399  0.2044  0.1443
 6398SOL    MW425366   3.935   4.045   3.221  0.0165  0.1197 -0.0450
 6399SOL     OW25367   0.104   5.558   2.535 -0.0457  0.2820  0.5513
 6399SOL    HW225368   0.191   5.597   2.550 -0.1259  0.1715  1.3349
 6399SOL    HW325369   0.063   5.557   2.621 -0.1774 -1.2309  0.4844
 6399SOL    MW425370   0.110   5.563   2.548 -0.0737  0.0678  0.6459
 6400SOL     OW25371   0.963   1.759   3.626 -0.7145 -0.2465 -0.2981
 6400SOL    HW225372   0.973   1.664   3.619 -0.6900 -0.4452  1.7705
 6400SOL    HW325373   1.027   1.785   3.692 -0.7267  1.2199 -0.8314
 6400SOL    MW425374   0.973   1.750   3.634 -0.7129 -0.0792 -0.0955
 6401SOL     OW25375   6.270   0.715   3.102 -0.3920  0.3161 -0.2079
 6401SOL    HW225376   6.241   0.684   3.187  1.0962 -1.3143 -0.2333
 6401SOL    HW325377   6.333   0.784   3.121  0.4178 -0.4798  0.0658
 6401SOL    MW425378   6.274   0.720   3.115 -0.0888 -0.0040 -0.1751
 6402SOL     OW25379   1.803   3.453   1.648 -0.5146  0.1558 -0.2162
 6402SOL    HW225380   1.812   3.448   1.743 -0.1319  1.6937 -0.1406
 6402SOL    HW325381   1.840   3.371   1.616  0.5809  0.1790  0.9007
 6402SOL    MW425382   1.809   3.442   1.656 -0.3195  0.3617 -0.0589
 6403SOL     OW25383   2.403   6.267   3.259  0.0682  0.4789 -0.1596
 6403SOL    HW225384   2.338   6.214   3.306 -0.2125  0.0473 -1.0090
 6403SOL    HW325385   2.485   6.218   3.268  0.0656  0.5128  0.0630
 6403SOL    MW425386   2.405   6.253   3.267  0.0308  0.4264 -0.2423
 6404SOL     OW25387   2.465   2.692   0.201  0.6049 -0.1074  0.1061
 6404SOL    HW225388   2.381   2.699   0.155  0.2207  0.7612  0.8950
 6404SOL    HW325389   2.516   2.765   0.167  1.2065 -0.8784 -0.6730
 6404SOL    MW425390   2.460   2.703   0.190  0.6336 -0.0945  0.1074
 6405SOL     OW25391   4.541   6.054   4.312  0.0636 -0.4619  0.2792
 6405SOL    HW225392   4.498   6.137   4.333  0.6504  0.1340 -0.7649
 6405SOL    HW325393   4.507   6.031   4.225  1.4836 -0.1967 -0.3805
 6405SOL    MW425394   4.531   6.062   4.303  0.3284 -0.3483  0.0544
 6406SOL     OW25395   4.660   3.535   6.243 -0.2415 -0.1623 -0.5878
 6406SOL    HW225396   4.690   3.605   6.300 -0.7535 -0.6546  0.3116
 6406SOL    HW325397   4.682   3.564   6.155  0.0317  0.8782 -0.1849
 6406SOL    MW425398   4.667   3.548   6.239 -0.2730 -0.0899 -0.4160
 6407SOL     OW25399   0.896   3.725   4.026  0.0591 -0.4831 -0.0190
 6407SOL    HW225400   0.950   3.663   4.075  1.0086 -1.2538 -1.9553
 6407SOL    HW325401   0.842   3.670   3.969 -0.7913  0.4053 -0.0945
 6407SOL    MW425402   0.896   3.709   4.025  0.0722 -0.4675 -0.2844
 6408SOL     OW25403   5.463   2.233   0.007 -0.4494  0.0773 -0.6921
 6408SOL    HW225404   5.494   2.311  -0.040 -0.5535 -1.2012 -3.0473
 6408SOL    HW325405   5.373   2.223  -0.023  0.0079 -1.7258 -1.5562
 6408SOL    MW425406   5.455   2.242  -0.003 -0.4028 -0.3293 -1.1168
 6409SOL     OW25407   1.039   0.599   4.309 -0.3038 -0.1440 -0.1187
 6409SOL    HW225408   0.970   0.657   4.278 -1.2956 -1.4741 -0.5289
 6409SOL    HW325409   1.092   0.581   4.232 -0.7769 -0.7856 -0.3093
 6409SOL    MW425410   1.037   0.604   4.295 -0.4971 -0.4041 -0.1980
 6410SOL     OW25411   4.640   1.334   0.212 -0.6810  0.4611  0.2441
 6410SOL    HW225412   4.673   1.259   0.261  0.6472  0.1479 -1.0646
 6410SOL    HW325413   4.626   1.301   0.123 -0.4148  1.6748 -0.2687
 6410SOL    MW425414   4.642   1.320   0.207 -0.4706  0.5799  0.0038
 6411SOL     OW25415   0.130   5.940   0.074  0.2260 -0.1609  0.4228
 6411SOL    HW225416   0.108   5.950   0.167  0.2781 -3.0839  0.8239
 6411SOL    HW325417   0.210   5.991   0.063  0.2326  0.2197  1.9811
 6411SOL    MW425418   0.137   5.948   0.085  0.2337 -0.4963  0.6813
 6412SOL     OW25419   4.770   4.398   4.313  0.4129  0.4558 -0.7179
 6412SOL    HW225420   4.705   4.351   4.262  1.7733  0.3822 -2.4718
 6412SOL    HW325421   4.778   4.483   4.271  0.1249  1.1722  0.6230
 6412SOL    MW425422   4.763   4.403   4.301  0.5544  0.5406 -0.7724
 6413SOL     OW25423   1.379   0.583   3.381 -0.0242  0.0491  0.0182
 6413SOL    HW225424   1.369   0.677   3.361 -0.6796  0.1523  0.7866
 6413SOL    HW325425   1.458   0.557   3.334 -1.1351  0.4238 -2.1899
 6413SOL    MW425426   1.388   0.592   3.372 -0.2573  0.1122 -0.1717
 6414SOL     OW25427   2.136   5.012   2.345 -0.2332 -0.0608 -0.0219
 6414SOL    HW225428   2.047   4.980   2.340  0.1412 -0.8922 -2.2326
 6414SOL    HW325429   2.133   5.098   2.304 -0.0932  0.1152  0.3314
 6414SOL    MW425430   2.124   5.019   2.339 -0.1654 -0.1473 -0.2670
 6415SOL     OW25431   2.299   1.818   2.541  0.0869 -0.3925  0.7550
 6415SOL    HW225432   2.351   1.888   2.578  0.6474 -1.5114  2.1697
 6415SOL    HW325433   2.363   1.756   2.505 -0.4258  0.3448 -1.5718
 6415SOL    MW425434   2.314   1.819   2.541  0.0932 -0.4428  0.6347
 6416SOL     OW25435   6.142   0.654   3.367  0.3483 -0.6334 -0.7626
 6416SOL    HW225436   6.204   0.586   3.394  0.9322  0.7538  1.6968
 6416SOL    HW325437   6.058   0.624   3.401  0.3860 -0.6981 -0.7245
 6416SOL    MW425438   6.139   0.641   3.375  0.4303 -0.4589 -0.4331
 6417SOL     OW25439   1.760   6.214   4.895  0.3500  0.8300  0.1575
 6417SOL    HW225440   1.851   6.216   4.923 -0.0939 -0.5190  1.8629
 6417SOL    HW325441   1.749   6.293   4.842  2.0960  1.8359  1.2087
 6417SOL    MW425442   1.771   6.225   4.892  0.5218  0.7847  0.5212
 6418SOL     OW25443   2.673   0.187   4.282  0.0867  0.1287  0.2640
 6418SOL    HW225444   2.657   0.102   4.241  0.3783  0.4550 -0.5400
 6418SOL    HW325445   2.762   0.181   4.316  0.6500  0.6169 -1.0903
 6418SOL    MW425446   2.682   0.175   4.281  0.1995  0.2362 -0.0208
 6419SOL     OW25447   4.543   3.199   3.209 -0.2538  0.2768 -0.1417
 6419SOL    HW225448   4.599   3.128   3.240  0.4501 -0.1634 -2.2202
 6419SOL    HW325449   4.456   3.177   3.243  0.3034 -0.5411  0.8143
 6419SOL    MW425450   4.539   3.186   3.217 -0.0874  0.1108 -0.2898
 6420SOL     OW25451   0.655   6.252   2.314  0.1444 -0.4084  0.5973
 6420SOL    HW225452   0.695   6.310   2.250  2.4215 -1.9793  0.4801
 6420SOL    HW325453   0.701   6.271   2.396  0.4105 -1.4973  0.7175
 6420SOL    MW425454   0.666   6.262   2.317  0.4800 -0.7593  0.5977
 6421SOL     OW25455   3.883   0.802   3.492 -0.6286 -0.2476 -0.8560
 6421SOL    HW225456   3.876   0.864   3.419 -3.8926  0.8195  0.1917
 6421SOL    HW325457   3.869   0.716   3.453 -2.1255  0.2931 -1.5700
 6421SOL    MW425458   3.880   0.799   3.477 -1.2567 -0.0354 -0.8120
 6422SOL     OW25459   0.482   4.644   2.518 -0.3168 -0.2389  0.2728
 6422SOL    HW225460   0.534   4.599   2.585  0.0757 -0.5567 -0.2314
 6422SOL    HW325461   0.525   4.728   2.505 -0.4594 -0.1310  0.4983
 6422SOL    MW425462   0.494   4.649   2.525 -0.2839 -0.2666  0.2360
 6423SOL     OW25463   1.569   2.782   4.794  0.1871  0.1993 -0.4171
 6423SOL    HW225464   1.653   2.809   4.756  0.1356 -1.1451 -1.5771
 6423SOL    HW325465   1.579   2.798   4.888  1.8167 -0.1135 -0.5036
 6423SOL    MW425466   1.582   2.788   4.801  0.3953 -0.0193 -0.5816
 6424SOL     OW25467   2.993   0.341   0.867 -0.0416 -0.4454 -0.7069
 6424SOL    HW225468   2.952   0.254   0.866  1.1251 -1.0391  0.7454
 6424SOL    HW325469   2.980   0.374   0.778 -2.1768 -1.2939 -0.7671
 6424SOL    MW425470   2.986   0.334   0.855 -0.1693 -0.6357 -0.5232
 6425SOL     OW25471   2.441   3.436   1.906 -0.3154  0.1564  0.2761
 6425SOL    HW225472   2.400   3.412   1.823 -0.6569 -1.0536  0.7745
 6425SOL    HW325473   2.371   3.477   1.957 -0.6036 -0.7179  0.6213
 6425SOL    MW425474   2.426   3.438   1.902 -0.3985 -0.1186  0.3874
 6426SOL     OW25475   2.086   4.215   0.067 -0.7930 -0.5457 -0.1923
 6426SOL    HW225476   2.110   4.124   0.085 -0.4334 -0.4233 -0.0334
 6426SOL    HW325477   2.077   4.255   0.154 -0.8915 -0.4157 -0.2620
 6426SOL    MW425478   2.088   4.208   0.081 -0.7585 -0.5124 -0.1805
 6427SOL     OW25479   2.768   4.466   5.043  0.0720 -0.2872 -0.4379
 6427SOL    HW225480   2.841   4.419   5.082  1.1751  1.6861 -0.0164
 6427SOL    HW325481   2.691   4.436   5.091  0.5584 -2.3371 -0.8381
 6427SOL    MW425482   2.767   4.456   5.054  0.2817 -0.2973 -0.4351
 6428SOL     OW25483   1.091   2.558   3.647  0.5120  0.1118  0.1342
 6428SOL    HW225484   1.033   2.605   3.587  0.7059 -0.8711 -0.8492
 6428SOL    HW325485   1.177   2.599   3.634  1.1742 -1.8248 -2.3326
 6428SOL    MW425486   1.095   2.570   3.637  0.6249 -0.2734 -0.3210
 6429SOL     OW25487   2.382   0.095   1.650  0.0278  0.1190  0.1918
 6429SOL    HW225488   2.307   0.115   1.595 -0.6205  2.4218  1.8033
 6429SOL    HW325489   2.397   0.001   1.636 -2.7640 -0.2878 -0.6065
 6429SOL    MW425490   2.374   0.085   1.641 -0.4261  0.3692  0.2991
 6430SOL     OW25491   1.298   2.510   1.833 -0.4944  0.9668 -0.1346
 6430SOL    HW225492   1.318   2.524   1.741 -1.7159 -0.3394 -0.6297
 6430SOL    HW325493   1.202   2.511   1.838 -0.5524 -1.2686  0.6766
 6430SOL    MW425494   1.288   2.512   1.822 -0.6632  0.4995 -0.0929
 6431SOL     OW25495   4.635   3.330   2.529  1.2184 -0.3051  0.3721
 6431SOL    HW225496   4.617   3.337   2.435  1.6185  0.6962  0.3582
 6431SOL    HW325497   4.595   3.246   2.555 -0.6524  0.3314 -0.2794
 6431SOL    MW425498   4.627   3.319   2.520  1.0243 -0.0890  0.2843
 6432SOL     OW25499   5.897   3.075   0.129  0.2062 -0.2154 -0.5946
 6432SOL    HW225500   5.835   3.138   0.165  1.0127  0.0940  0.2991
 6432SOL    HW325501   5.847   3.026   0.064 -0.8974  0.1877 -0.0687
 6432SOL    MW425502   5.882   3.077   0.125  0.1670 -0.1214 -0.4073
 6433SOL     OW25503   1.654   1.945   6.050  0.4507 -0.4387 -0.3198
 6433SOL    HW225504   1.624   1.936   5.959 -0.6582  0.7373 -0.1034
 6433SOL    HW325505   1.718   1.875   6.061 -0.8148 -1.8499 -1.4238
 6433SOL    MW425506   1.659   1.935   6.039  0.1374 -0.4697 -0.4369
 6434SOL     OW25507   1.275   4.617   1.144  0.6913  0.3489 -0.6964
 6434SOL    HW225508   1.261   4.531   1.183  0.5830  0.5403 -0.3049
 6434SOL    HW325509   1.267   4.603   1.050 -1.2101  0.2535 -0.5597
 6434SOL    MW425510   1.272   4.604   1.137  0.4261  0.3616 -0.6267
 6435SOL     OW25511   1.432   4.325   4.931 -0.4443  0.4663  0.4764
 6435SOL    HW225512   1.370   4.381   4.883 -1.3187 -0.5905  0.3183
 6435SOL    HW325513   1.490   4.386   4.976 -0.7123  1.4879 -0.5266
 6435SOL    MW425514   1.431   4.340   4.931 -0.5951  0.4617  0.3232
 6436SOL     OW25515   3.170   5.225   1.798 -0.5091 -0.1944 -0.3957
 6436SOL    HW225516   3.220   5.176   1.864  1.2750  0.8299 -0.9185
 6436SOL    HW325517   3.107   5.162   1.764 -0.4476 -1.1762  1.2200
 6436SOL    MW425518   3.168   5.210   1.802 -0.2656 -0.1888 -0.2515
 6437SOL     OW25519   2.428   4.381   0.110  0.2047 -0.2571 -0.1804
 6437SOL    HW225520   2.514   4.387   0.068  0.6097  0.2160  0.7066
 6437SOL    HW325521   2.407   4.471   0.134 -1.4086 -0.0657 -2.0694
 6437SOL    MW425522   2.437   4.393   0.107  0.0453 -0.1694 -0.3126
 6438SOL     OW25523   3.794   1.638   6.294 -0.1668 -0.0707 -0.4723
 6438SOL    HW225524   3.733   1.572   6.262  1.0965 -1.4067 -0.2440
 6438SOL    HW325525   3.746   1.684   6.363 -2.0586  1.1999 -2.5188
 6438SOL    MW425526   3.780   1.635   6.299 -0.2497 -0.0793 -0.7122
 6439SOL     OW25527   6.193   3.655   2.963 -0.0408  0.2419 -0.1138
 6439SOL    HW225528   6.107   3.678   2.927  0.5303  1.3675 -0.8412
 6439SOL    HW325529   6.228   3.591   2.901 -0.6581 -0.8436  0.6207
 6439SOL    MW425530   6.186   3.650   2.950 -0.0469  0.2472 -0.1129
 6440SOL     OW25531   4.307   3.471   1.529 -0.2846  1.1094 -0.1085
 6440SOL    HW225532   4.301   3.478   1.434  1.6497 -1.1118 -0.4756
 6440SOL    HW325533   4.375   3.533   1.553 -0.2277  1.1059 -0.2597
 6440SOL    MW425534   4.315   3.480   1.519 -0.0219  0.8158 -0.1769
 6441SOL     OW25535   2.385   1.413   0.574  0.6377  0.0963 -0.1176
 6441SOL    HW225536   2.381   1.324   0.539 -1.5155  0.1593 -0.2141
 6441SOL    HW325537   2.377   1.402   0.668  2.4767  0.1241  0.0742
 6441SOL    MW425538   2.383   1.400   0.581  0.5962  0.1083 -0.1050
 6442SOL     OW25539   3.512   1.675   1.290 -0.0718  0.2510  0.0408
 6442SOL    HW225540   3.563   1.633   1.359  1.3323  2.2469  0.3001
 6442SOL    HW325541   3.543   1.634   1.209  1.2629  0.7122  0.2886
 6442SOL    MW425542   3.523   1.664   1.288  0.2895  0.5752  0.1077
 6443SOL     OW25543   0.072   2.646   0.601 -0.4513  0.4467 -0.1627
 6443SOL    HW225544   0.051   2.553   0.595 -0.1083  0.3929 -0.6128
 6443SOL    HW325545   0.123   2.654   0.682 -1.0417  0.3578  0.2241
 6443SOL    MW425546   0.076   2.635   0.611 -0.4840  0.4279 -0.1711
 6444SOL     OW25547   3.329   1.696   2.995  0.2316 -0.0015  0.2493
 6444SOL    HW225548   3.368   1.656   3.073 -1.5538  0.0984  1.2447
 6444SOL    HW325549   3.313   1.787   3.020  0.0415  0.1466 -0.3932
 6444SOL    MW425550   3.332   1.703   3.009 -0.0290  0.0312  0.2959
 6445SOL     OW25551   4.296   1.074   2.832 -0.1755  0.2018 -0.2759
 6445SOL    HW225552   4.381   1.033   2.819  0.3327 -0.1272  3.0800
 6445SOL    HW325553   4.315   1.168   2.835  0.0358  0.1520  0.0631
 6445SOL    MW425554   4.309   1.081   2.831 -0.0806  0.1518  0.2116
 6446SOL     OW25555   2.237   5.217   0.889  0.4376  0.3665 -0.4487
 6446SOL    HW225556   2.259   5.124   0.889  0.0050  0.2206  1.2455
 6446SOL    HW325557   2.309   5.259   0.842  0.7858 -0.7806 -0.9903
 6446SOL    MW425558   2.249   5.210   0.883  0.4265  0.1959 -0.2967
 6447SOL     OW25559   2.302   0.502   5.888  0.2541  0.2463  0.3033
 6447SOL    HW225560   2.277   0.499   5.796  1.4580  0.0206 -0.0248
 6447SOL    HW325561   2.321   0.411   5.910 -1.2835  0.0846  1.1576
 6447SOL    MW425562   2.301   0.489   5.879  0.2101  0.1952  0.3727
 6448SOL     OW25563   3.122   5.920   5.502  0.3546  0.0105 -0.1089
 6448SOL    HW225564   3.112   6.013   5.521  1.8493  0.0784  0.4516
 6448SOL    HW325565   3.192   5.916   5.438  0.9314 -0.7827  0.5506
 6448SOL    MW425566   3.130   5.932   5.496  0.6279 -0.0852  0.0521
 6449SOL     OW25567   2.262   3.209   1.100  0.1878  0.0933 -0.2513
 6449SOL    HW225568   2.197   3.165   1.155  1.0850 -0.0285  0.7476
 6449SOL    HW325569   2.322   3.251   1.163  2.2618 -1.5188 -1.0638
 6449SOL    MW425570   2.262   3.209   1.116  0.5798 -0.1355 -0.2267
 6450SOL     OW25571   4.494   3.244   1.590  0.4149  0.3550  0.5718
 6450SOL    HW225572   4.523   3.269   1.677  2.2085 -0.0360  0.1378
 6450SOL    HW325573   4.430   3.310   1.565  1.0737  1.3824  1.5437
 6450SOL    MW425574   4.489   3.256   1.598  0.7384  0.4390  0.6427
 6451SOL     OW25575   6.092   2.030   0.185 -0.3639 -0.4139  0.2239
 6451SOL    HW225576   6.058   2.007   0.098  0.7536 -1.4525  0.0430
 6451SOL    HW325577   6.131   2.117   0.173  1.2474 -1.2236 -0.7522
 6451SOL    MW425578   6.092   2.038   0.172 -0.0039 -0.6578  0.0712
 6452SOL     OW25579   2.895   5.484   3.602  0.4368  0.2918 -0.0790
 6452SOL    HW225580   2.869   5.408   3.549  1.5214 -0.3022  0.1976
 6452SOL    HW325581   2.891   5.452   3.692 -1.0801  1.1996  0.2048
 6452SOL    MW425582   2.891   5.470   3.607  0.3798  0.3332 -0.0051
 6453SOL     OW25583   5.337   4.030   2.872 -0.5789  0.1858  0.2958
 6453SOL    HW225584   5.382   4.109   2.901  0.1450 -0.1140  0.0006
 6453SOL    HW325585   5.345   3.970   2.947  0.6769 -0.3353 -0.2236
 6453SOL    MW425586   5.344   4.032   2.886 -0.3177  0.0775  0.1883
 6454SOL     OW25587   4.905   1.161   3.374  0.1334 -0.2676 -0.1203
 6454SOL    HW225588   4.981   1.144   3.318  0.7021  2.7196 -0.4019
 6454SOL    HW325589   4.929   1.239   3.424 -2.8762  1.0258 -0.5071
 6454SOL    MW425590   4.918   1.169   3.373 -0.1886  0.2972 -0.2085
 6455SOL     OW25591   4.375   3.435   0.288  0.4942  0.0851 -0.3696
 6455SOL    HW225592   4.395   3.409   0.198  2.3943  0.9916 -0.2586
 6455SOL    HW325593   4.314   3.368   0.319  1.8673 -1.7739 -1.4618
 6455SOL    MW425594   4.370   3.422   0.280  0.9261 -0.0406 -0.4991
 6456SOL     OW25595   5.244   4.973   5.927 -0.2888  0.2439 -0.2842
 6456SOL    HW225596   5.150   4.981   5.909 -0.5562  0.7190  1.2204
 6456SOL    HW325597   5.251   4.968   6.022  1.2192  0.1444 -0.3656
 6456SOL    MW425598   5.233   4.973   5.937 -0.1251  0.2935 -0.0964
 6457SOL     OW25599   5.498   2.337   6.034  0.3349  0.1761 -0.3084
 6457SOL    HW225600   5.477   2.250   6.068  0.1081  0.1594 -0.4908
 6457SOL    HW325601   5.588   2.330   6.002  0.3052  0.0015 -0.3513
 6457SOL    MW425602   5.507   2.325   6.034  0.3011  0.1509 -0.3381
 6458SOL     OW25603   1.135   4.518   1.913 -0.6806 -0.0893 -0.1078
 6458SOL    HW225604   1.079   4.595   1.918 -1.0634 -0.3356 -0.5760
 6458SOL    HW325605   1.096   4.456   1.975 -1.8668 -0.8514 -1.5558
 6458SOL    MW425606   1.123   4.520   1.922 -0.8876 -0.2224 -0.3606
 6459SOL     OW25607   5.397   2.313   2.141 -0.1595  0.5929  0.5840
 6459SOL    HW225608   5.404   2.354   2.227 -3.9282 -0.4265  1.5525
 6459SOL    HW325609   5.395   2.219   2.159 -0.5218  0.3432 -0.6571
 6459SOL    MW425610   5.398   2.306   2.154 -0.7046  0.4254  0.5480
 6460SOL     OW25611   0.959   2.993   5.476  0.1492 -0.4669 -0.0640
 6460SOL    HW225612   1.052   2.988   5.496  0.6138 -0.7339 -2.0969
 6460SOL    HW325613   0.955   3.003   5.381 -1.8789  0.4000  0.0529
 6460SOL    MW425614   0.971   2.994   5.466 -0.0571 -0.3878 -0.3168
 6461SOL     OW25615   3.186   3.017   1.390 -0.1824 -0.0390 -0.3405
 6461SOL    HW225616   3.207   2.967   1.312 -1.7064 -1.1679 -0.0807
 6461SOL    HW325617   3.246   2.984   1.457 -1.0517 -1.4397 -0.2156
 6461SOL    MW425618   3.197   3.006   1.389 -0.4982 -0.3727 -0.2898
 6462SOL     OW25619   4.159   4.612   5.166  0.1256 -0.3946 -0.3199
 6462SOL    HW225620   4.095   4.623   5.235  0.8903  0.3142  0.2919
 6462SOL    HW325621   4.114   4.560   5.099 -1.2500  0.5502 -0.1501
 6462SOL    MW425622   4.145   4.607   5.166  0.0450 -0.1764 -0.2167
 6463SOL     OW25623   4.463   2.616   0.844 -0.7981  0.2883 -0.2195
 6463SOL    HW225624   4.457   2.523   0.867 -0.2653  0.0566 -1.0015
 6463SOL    HW325625   4.408   2.660   0.910 -0.5100 -0.5042  0.5684
 6463SOL    MW425626   4.455   2.610   0.856 -0.6898  0.1532 -0.2187
 6464SOL     OW25627   6.113   4.542   1.997 -0.2496  0.3888  0.3497
 6464SOL    HW225628   6.108   4.629   2.038 -0.4216  0.0567  1.0437
 6464SOL    HW325629   6.041   4.493   2.037 -0.6631  0.1718 -0.6324
 6464SOL    MW425630   6.103   4.547   2.008 -0.3269  0.3163  0.3117
 6465SOL     OW25631   2.093   1.895   5.052 -0.1491  0.3523 -0.0702
 6465SOL    HW225632   2.095   1.902   4.956 -0.6648 -1.6164 -0.2776
 6465SOL    HW325633   2.147   1.967   5.083 -1.5732  2.2842 -1.7540
 6465SOL    MW425634   2.100   1.905   5.043 -0.4050  0.3475 -0.3197
 6466SOL     OW25635   5.583   3.398   6.182 -0.1296  0.0570  0.3161
 6466SOL    HW225636   5.540   3.418   6.266 -0.1045 -0.0633  0.3582
 6466SOL    HW325637   5.516   3.353   6.131  0.2425 -1.0469  0.7581
 6466SOL    MW425638   5.568   3.395   6.187 -0.0772 -0.1045  0.3799
 6467SOL     OW25639   3.494   1.151   2.228 -0.6004 -0.6870 -0.1364
 6467SOL    HW225640   3.555   1.215   2.265 -1.6233 -0.6387  1.5478
 6467SOL    HW325641   3.505   1.160   2.133  1.3339 -0.0488  0.1101
 6467SOL    MW425642   3.503   1.160   2.220 -0.4802 -0.5964  0.1183
 6468SOL     OW25643   0.828   3.865   4.753 -0.1935  0.3355  0.1388
 6468SOL    HW225644   0.827   3.819   4.669 -1.6653 -1.2799  0.9946
 6468SOL    HW325645   0.921   3.880   4.771  0.2420 -0.9912 -0.8781
 6468SOL    MW425646   0.841   3.861   4.744 -0.3302 -0.0527  0.1175
 6469SOL     OW25647   5.178   0.576   1.865  0.8481 -0.6110 -0.5314
 6469SOL    HW225648   5.114   0.646   1.853 -1.7503 -2.3694  1.7356
 6469SOL    HW325649   5.197   0.576   1.959  1.8440 -2.0428 -0.6985
 6469SOL    MW425650   5.172   0.585   1.876  0.6366 -1.0319 -0.2544
 6470SOL     OW25651   2.658   5.442   4.737 -0.7838 -0.2202 -0.1262
 6470SOL    HW225652   2.724   5.418   4.803  0.1844  1.8606 -0.2644
 6470SOL    HW325653   2.699   5.421   4.653 -1.4826 -1.6076 -0.1469
 6470SOL    MW425654   2.672   5.436   4.735 -0.7482 -0.1287 -0.1472
 6471SOL     OW25655   1.213   5.789   2.246 -0.4620 -0.8708 -0.7954
 6471SOL    HW225656   1.160   5.807   2.324  0.0396  0.5733 -0.7641
 6471SOL    HW325657   1.200   5.866   2.190 -1.2906 -2.1394 -2.4387
 6471SOL    MW425658   1.204   5.802   2.249 -0.5051 -0.8476 -1.0081
 6472SOL     OW25659   0.292   4.742   1.073  0.1556 -0.9978  0.2385
 6472SOL    HW225660   0.224   4.804   1.100 -0.4836 -1.3603 -0.5038
 6472SOL    HW325661   0.357   4.797   1.028 -0.6793 -0.9061 -0.9186
 6472SOL    MW425662   0.292   4.758   1.071 -0.0389 -1.0336 -0.0121
 6473SOL     OW25663   4.842   5.595   0.750 -0.1021  0.0131  0.6580
 6473SOL    HW225664   4.915   5.602   0.688 -1.5717 -0.0551 -1.1558
 6473SOL    HW325665   4.845   5.677   0.800  1.1051  0.0752  0.5223
 6473SOL    MW425666   4.852   5.607   0.749 -0.1367  0.0123  0.4008
 6474SOL     OW25667   2.843   2.875   4.127  0.1302 -0.2038 -0.4620
 6474SOL    HW225668   2.923   2.887   4.178 -0.0219  1.6468 -0.6172
 6474SOL    HW325669   2.802   2.798   4.166  0.2902  0.8029  1.8640
 6474SOL    MW425670   2.848   2.866   4.138  0.1312  0.1732 -0.1756
 6475SOL     OW25671   2.044   3.758   2.978  0.1209 -0.0235  0.0650
 6475SOL    HW225672   1.971   3.714   3.021  0.5459 -0.9217 -0.1079
 6475SOL    HW325673   2.008   3.791   2.896 -0.2653  0.1939  0.3189
 6475SOL    MW425674   2.030   3.757   2.973  0.1260 -0.1134  0.0757
 6476SOL     OW25675   4.977   5.350   4.087  0.1941  0.2010 -0.2209
 6476SOL    HW225676   5.037   5.382   4.019 -0.0334 -1.1434 -1.0917
 6476SOL    HW325677   4.895   5.395   4.069  0.6061  1.1778  0.2686
 6476SOL    MW425678   4.974   5.360   4.075  0.2184  0.1525 -0.2712
 6477SOL     OW25679   2.144   4.656   2.122  0.0783 -0.4749 -0.1503
 6477SOL    HW225680   2.094   4.726   2.079  0.8125 -1.0233 -1.9796
 6477SOL    HW325681   2.177   4.697   2.201 -3.3641 -0.1171  1.3078
 6477SOL    MW425682   2.142   4.671   2.126 -0.2790 -0.5001 -0.1993
 6478SOL     OW25683   0.357   1.572   0.855  0.5740 -0.1323 -0.3023
 6478SOL    HW225684   0.444   1.585   0.817  0.6147  0.8056  0.0963
 6478SOL    HW325685   0.360   1.483   0.890  1.1352 -0.3571 -0.8979
 6478SOL    MW425686   0.369   1.562   0.854  0.6534 -0.0382 -0.3283
 6479SOL     OW25687   0.088   4.667   2.656  0.3809  0.7831  0.3871
 6479SOL    HW225688   0.070   4.627   2.571  1.6249  2.0022 -0.5000
 6479SOL    HW325689   0.056   4.757   2.647  1.8362  1.3497  0.6830
 6479SOL    MW425690   0.081   4.674   2.643  0.7370  1.0187  0.3091
 6480SOL     OW25691   4.215   4.075   3.265  0.1365 -0.2148  0.4312
 6480SOL    HW225692   4.208   4.168   3.290  0.8466  0.6671 -2.2836
 6480SOL    HW325693   4.128   4.052   3.233  0.8025  0.7102 -2.3088
 6480SOL    MW425694   4.203   4.084   3.265  0.3181  0.0236 -0.2885
 6481SOL     OW25695   1.464   1.191   2.636 -0.5935 -0.6985  0.5384
 6481SOL    HW225696   1.464   1.277   2.592 -1.3901 -1.9349 -2.1057
 6481SOL    HW325697   1.444   1.211   2.727  0.1051  1.9872  0.2004
 6481SOL    MW425698   1.461   1.205   2.642 -0.6064 -0.5073  0.1450
 6482SOL     OW25699   0.130   0.354   0.074 -0.3934  0.7001 -0.1978
 6482SOL    HW225700   0.175   0.396   0.147  1.0097  0.2738 -0.7844
 6482SOL    HW325701   0.113   0.426   0.012  1.4541  0.5662 -0.9268
 6482SOL    MW425702   0.133   0.369   0.075  0.0355  0.6262 -0.3714
 6483SOL     OW25703   5.593   5.327   3.157 -0.8721 -0.1513  0.4065
 6483SOL    HW225704   5.601   5.359   3.067  1.1396  0.9214  0.9038
 6483SOL    HW325705   5.533   5.389   3.199  0.7100  1.3263  0.5932
 6483SOL    MW425706   5.586   5.340   3.151 -0.3979  0.1852  0.4967
 6484SOL     OW25707   4.847   1.793   0.539 -0.3930  0.5584  0.3078
 6484SOL    HW225708   4.896   1.842   0.473 -0.7711  0.5155 -0.0081
 6484SOL    HW325709   4.794   1.731   0.488 -0.3652  0.2286  0.6724
 6484SOL    MW425710   4.846   1.791   0.523 -0.4392  0.5093  0.3142
 6485SOL     OW25711   5.033   5.501   1.213  0.3318 -0.6298 -0.0986
 6485SOL    HW225712   5.098   5.558   1.254  0.6637  0.1535 -1.6432
 6485SOL    HW325713   5.076   5.465   1.137 -0.7096 -0.9208 -0.5724
 6485SOL    MW425714   5.047   5.504   1.209  0.2382 -0.5648 -0.3649
 6486SOL     OW25715   0.364   1.565   4.618 -0.7411 -0.1861  0.0074
 6486SOL    HW225716   0.307   1.501   4.577  1.8535 -1.7809 -1.3436
 6486SOL    HW325717   0.360   1.642   4.562 -0.7437 -0.6939 -0.6935
 6486SOL    MW425718   0.356   1.567   4.605 -0.3991 -0.4635 -0.2633
 6487SOL     OW25719   1.668   4.732   1.600  0.7973 -0.0386 -0.0490
 6487SOL    HW225720   1.620   4.696   1.674  0.8060  1.3857  0.6750
 6487SOL    HW325721   1.660   4.827   1.609  1.8353  0.1870 -1.1814
 6487SOL    MW425722   1.661   4.739   1.611  0.9354  0.1791 -0.1029
 6488SOL     OW25723   0.667   2.212   3.172  0.1525 -0.3238 -0.1555
 6488SOL    HW225724   0.728   2.220   3.100  1.8466 -4.2721  0.5817
 6488SOL    HW325725   0.585   2.184   3.131  0.5399 -0.6384 -0.7358
 6488SOL    MW425726   0.664   2.209   3.157  0.4271 -0.8862 -0.1348
 6489SOL     OW25727   1.647   4.271   3.187  0.3934 -0.3785  0.4696
 6489SOL    HW225728   1.574   4.328   3.163 -0.2372 -1.9387 -1.6250
 6489SOL    HW325729   1.720   4.331   3.203 -0.5649  1.0620 -0.3026
 6489SOL    MW425730   1.647   4.287   3.186  0.1838 -0.3943  0.0913
 6490SOL     OW25731   5.084   2.135   4.915 -0.4996  0.2109  0.3790
 6490SOL    HW225732   5.065   2.218   4.872 -1.4601  0.3144  0.9822
 6490SOL    HW325733   5.127   2.082   4.847 -2.9897 -0.0396 -1.1083
 6490SOL    MW425734   5.087   2.139   4.900 -0.9549  0.1915  0.2624
 6491SOL     OW25735   5.424   3.185   2.228  0.5709  0.9023  0.1907
 6491SOL    HW225736   5.425   3.151   2.139 -1.1646  0.8187  0.1708
 6491SOL    HW325737   5.483   3.260   2.226  1.8945 -0.1250 -0.5760
 6491SOL    MW425738   5.432   3.190   2.216  0.5165  0.7558  0.0869
 6492SOL     OW25739   2.647   3.580   2.019 -0.2840  0.4104  0.3442
 6492SOL    HW225740   2.569   3.541   1.978 -1.4804  2.1634  0.8470
 6492SOL    HW325741   2.717   3.518   2.001 -1.5513 -0.6567 -1.1432
 6492SOL    MW425742   2.646   3.566   2.011 -0.6091  0.5009  0.2143
 6493SOL     OW25743   6.268   4.366   0.865 -0.0221  0.2470  0.2858
 6493SOL    HW225744   6.219   4.448   0.867  0.3648  0.4808  0.3518
 6493SOL    HW325745   6.332   4.378   0.794 -0.7421 -0.4546 -0.5139
 6493SOL    MW425746   6.270   4.378   0.856 -0.0660  0.1853  0.1890
 6494SOL     OW25747   6.194   1.258   3.103 -0.1572  0.3972 -0.8744
 6494SOL    HW225748   6.233   1.191   3.158 -1.0421  0.2826 -0.3569
 6494SOL    HW325749   6.268   1.300   3.059  0.5045 -0.0043 -0.1596
 6494SOL    MW425750   6.209   1.255   3.104 -0.1867  0.3291 -0.7118
 6495SOL     OW25751   1.368   3.835   4.504 -0.1061 -0.2049 -0.5918
 6495SOL    HW225752   1.326   3.819   4.589 -0.9534 -2.2685 -1.3348
 6495SOL    HW325753   1.461   3.838   4.523 -0.3201 -0.0374  0.4932
 6495SOL    MW425754   1.375   3.833   4.518 -0.2461 -0.4550 -0.5467
 6496SOL     OW25755   2.409   3.500   2.621  0.1770  1.0783 -0.5987
 6496SOL    HW225756   2.426   3.590   2.593 -0.2789  1.6215  0.8288
 6496SOL    HW325757   2.355   3.508   2.699  0.2374 -0.4374 -0.3689
 6496SOL    MW425758   2.404   3.513   2.627  0.1248  0.9500 -0.3800
 6497SOL     OW25759   3.451   2.388   1.756 -0.3795 -0.0482 -0.1910
 6497SOL    HW225760   3.374   2.394   1.813  0.6685  1.2713  1.1898
 6497SOL    HW325761   3.430   2.442   1.681 -0.6272  0.7179  0.4198
 6497SOL    MW425762   3.438   2.396   1.754 -0.2739  0.2270  0.0718
 6498SOL     OW25763   3.664   1.491   3.376 -0.1060  0.2986 -0.6951
 6498SOL    HW225764   3.684   1.532   3.460  1.7373 -0.4104 -0.7408
 6498SOL    HW325765   3.728   1.529   3.315 -1.6240  1.0546 -1.8922
 6498SOL    MW425766   3.675   1.501   3.379 -0.0631  0.3048 -0.8591
 6499SOL     OW25767   4.081   2.199   0.857 -1.0226 -0.4255 -0.0101
 6499SOL    HW225768   4.096   2.291   0.838 -0.3559 -0.5355 -0.0621
 6499SOL    HW325769   4.147   2.153   0.805  1.1641 -0.7030  2.7357
 6499SOL    MW425770   4.092   2.205   0.848 -0.6462 -0.4766  0.3453
 6500SOL     OW25771   2.583   5.172   4.150  0.3745 -0.1714  0.0513
 6500SOL    HW225772   2.645   5.110   4.188  1.2397  0.5383 -0.1483
 6500SOL    HW325773   2.518   5.118   4.105  0.6214 -0.9454  0.6120
 6500SOL    MW425774   2.583   5.157   4.149  0.5213 -0.1799  0.0990
 6501SOL     OW25775   5.054   4.475   2.864  0.4442 -0.3376  0.1563
 6501SOL    HW225776   5.139   4.519   2.865  0.1626  0.3169 -1.4675
 6501SOL    HW325777   5.076   4.382   2.865  1.2677 -0.1985 -1.3899
 6501SOL    MW425778   5.068   4.468   2.864  0.5157 -0.2329 -0.2620
 6502SOL     OW25779   1.668   3.145   4.569 -0.6577  0.3554 -0.1215
 6502SOL    HW225780   1.641   3.170   4.658 -0.8006  0.2165 -0.1262
 6502SOL    HW325781   1.617   3.067   4.549  0.6651 -0.6739  0.3695
 6502SOL    MW425782   1.658   3.138   4.578 -0.5020  0.2013 -0.0573
 6503SOL     OW25783   5.666   1.257   2.814  0.6407  0.2532  0.4644
 6503SOL    HW225784   5.750   1.212   2.806  0.0633 -0.9775  0.9949
 6503SOL    HW325785   5.688   1.349   2.824  1.9925 -0.2030  1.9752
 6503SOL    MW425786   5.680   1.263   2.814  0.7429  0.0307  0.7337
 6504SOL     OW25787   1.042   3.394   2.534 -1.0178 -0.0128 -0.0224
 6504SOL    HW225788   1.033   3.368   2.442  0.4605 -2.7635  0.5059
 6504SOL    HW325789   1.022   3.314   2.583 -0.3289  0.9935  1.9914
 6504SOL    MW425790   1.038   3.380   2.529 -0.7319 -0.2429  0.3130
 6505SOL     OW25791   1.167   1.255   3.813 -0.4283 -0.5552 -0.3667
 6505SOL    HW225792   1.245   1.291   3.855 -0.7238 -0.9278  0.5411
 6505SOL    HW325793   1.191   1.167   3.787 -0.3361 -0.4265 -0.7241
 6505SOL    MW425794   1.180   1.248   3.815 -0.4551 -0.5874 -0.2941
 6506SOL     OW25795   5.533   6.309   4.132 -0.0252 -0.6605  0.3857
 6506SOL    HW225796   5.506   6.223   4.099 -0.2460 -0.1891 -0.7193
 6506SOL    HW325797   5.466   6.332   4.196 -1.3983 -0.2464 -1.1124
 6506SOL    MW425798   5.520   6.300   4.136 -0.2355 -0.5437  0.0422
 6507SOL     OW25799   4.220   3.288   4.581 -0.1476  0.4381  0.0922
 6507SOL    HW225800   4.175   3.207   4.607  0.8812 -0.3181 -0.3813
 6507SOL    HW325801   4.233   3.336   4.663 -0.9167  0.2018  0.3566
 6507SOL    MW425802   4.216   3.283   4.595 -0.1133  0.3072  0.0646
 6508SOL     OW25803   2.983   4.000   3.082 -0.1086  0.0517  0.0356
 6508SOL    HW225804   2.948   4.079   3.121 -0.3593 -0.2764  0.4827
 6508SOL    HW325805   2.948   3.929   3.135 -0.2355 -0.3856 -0.6160
 6508SOL    MW425806   2.974   4.001   3.094 -0.1584 -0.0493  0.0086
 6509SOL     OW25807   4.976   0.252   3.029 -0.1642  0.6129  0.0175
 6509SOL    HW225808   4.941   0.331   2.988  0.7986  2.0816  1.8144
 6509SOL    HW325809   5.071   0.263   3.023  0.0254  0.7920  2.2527
 6509SOL    MW425810   4.984   0.264   3.023 -0.0121  0.8303  0.5495
 6510SOL     OW25811   3.028   1.481   3.105  0.2258 -0.5451  0.3841
 6510SOL    HW225812   2.946   1.432   3.110  0.7580 -1.5018  0.0383
 6510SOL    HW325813   3.096   1.416   3.123  0.9452  0.0939  0.0372
 6510SOL    MW425814   3.026   1.466   3.108  0.3909 -0.5870  0.2927
 6511SOL     OW25815   2.017   4.855   6.315 -0.5724 -0.1062 -0.6946
 6511SOL    HW225816   2.002   4.928   6.256  0.2632 -0.0455 -0.8445
 6511SOL    HW325817   2.112   4.843   6.316 -0.5091  0.1829  0.9797
 6511SOL    MW425818   2.028   4.863   6.308 -0.4538 -0.0601 -0.4935
 6512SOL     OW25819   0.893   4.414   3.944 -0.1356  0.5091  0.2255
 6512SOL    HW225820   0.926   4.325   3.929 -1.1377  0.3275 -1.1017
 6512SOL    HW325821   0.798   4.404   3.948 -0.1784  1.2712  2.1265
 6512SOL    MW425822   0.885   4.401   3.942 -0.2735  0.5857  0.3012
 6513SOL     OW25823   4.119   3.167   2.168 -0.2997 -0.4126  0.2786
 6513SOL    HW225824   4.176   3.128   2.102  0.5096  0.5627  0.3739
 6513SOL    HW325825   4.112   3.101   2.236 -0.2522 -1.0036 -0.2769
 6513SOL    MW425826   4.125   3.153   2.168 -0.1866 -0.3619  0.2179
 6514SOL     OW25827   5.389   1.517   1.779 -0.0274  0.1058 -0.2566
 6514SOL    HW225828   5.337   1.497   1.701  0.9636 -0.2565 -0.8456
 6514SOL    HW325829   5.342   1.590   1.821 -0.2011  0.7788 -1.5650
 6514SOL    MW425830   5.376   1.524   1.774  0.0804  0.1468 -0.5069
 6515SOL     OW25831   5.831   0.634   6.403 -0.0694 -0.3092 -0.7273
 6515SOL    HW225832   5.910   0.640   6.350 -0.1338 -1.1419 -0.9364
 6515SOL    HW325833   5.861   0.606   6.489  0.0854  1.4869 -0.1590
 6515SOL    MW425834   5.845   0.631   6.407 -0.0575 -0.1821 -0.6799
 6516SOL     OW25835   4.499   1.039   4.274 -0.0154 -0.3095  0.2075
 6516SOL    HW225836   4.564   0.969   4.272 -0.6795 -0.9353 -0.3486
 6516SOL    HW325837   4.423   1.002   4.229  0.2002  1.3691 -1.6824
 6516SOL    MW425838   4.497   1.025   4.268 -0.0746 -0.1706 -0.1152
 6517SOL     OW25839   1.187   5.487   5.515 -0.6979  0.6416 -0.0407
 6517SOL    HW225840   1.174   5.400   5.479 -0.2968 -0.3235  2.0316
 6517SOL    HW325841   1.099   5.515   5.543 -0.4686 -0.2536  1.7044
 6517SOL    MW425842   1.174   5.479   5.514 -0.6147  0.3962  0.4630
 6518SOL     OW25843   2.854   0.065   0.833 -0.5360 -0.1169 -0.0351
 6518SOL    HW225844   2.781   0.008   0.808  0.5617 -1.5487 -0.0365
 6518SOL    HW325845   2.873   0.042   0.924 -0.6748  0.9146  0.2668
 6518SOL    MW425846   2.847   0.055   0.841 -0.4095 -0.1697  0.0046
 6519SOL     OW25847   3.852   0.186   4.890  0.4792 -0.0602 -0.1542
 6519SOL    HW225848   3.862   0.265   4.943 -0.8884  1.1712 -1.6304
 6519SOL    HW325849   3.757   0.173   4.884  0.6482 -2.6656  1.1776
 6519SOL    MW425850   3.841   0.195   4.896  0.3211 -0.2415 -0.1732
 6520SOL     OW25851   4.338   3.993   3.025 -0.3862 -0.0753  0.3812
 6520SOL    HW225852   4.301   4.010   3.112  0.5013  1.4964  0.4860
 6520SOL    HW325853   4.432   3.993   3.039 -0.2490 -0.4106 -0.4926
 6520SOL    MW425854   4.345   3.995   3.039 -0.2510  0.0878  0.2797
 6521SOL     OW25855   5.599   1.803   3.265  0.4830  0.1781  0.5293
 6521SOL    HW225856   5.561   1.840   3.185  0.4046  1.6071  1.1922
 6521SOL    HW325857   5.540   1.732   3.289 -0.1473  0.4968 -0.0440
 6521SOL    MW425858   5.586   1.798   3.257  0.3895  0.4087  0.5411
 6522SOL     OW25859   2.647   0.973   3.057  0.4096  0.0552 -0.3048
 6522SOL    HW225860   2.581   1.022   3.007 -0.9985 -0.9725  0.4643
 6522SOL    HW325861   2.704   1.040   3.093 -0.6449  1.0397 -0.4074
 6522SOL    MW425862   2.646   0.988   3.055  0.0847  0.0495 -0.2169
 6523SOL     OW25863   5.177   2.458   3.633 -1.0866  0.1084 -0.4632
 6523SOL    HW225864   5.146   2.438   3.722  1.7782  2.1812  1.1719
 6523SOL    HW325865   5.203   2.373   3.597 -0.7087 -0.5968  1.3505
 6523SOL    MW425866   5.176   2.444   3.640 -0.6588  0.2889 -0.0082
 6524SOL     OW25867   2.341   2.598   6.212 -0.0446  0.2174  0.1081
 6524SOL    HW225868   2.401   2.666   6.243  1.4462 -0.7444 -0.5755
 6524SOL    HW325869   2.253   2.634   6.230  0.6862  2.2602 -0.1343
 6524SOL    MW425870   2.337   2.612   6.219  0.2485  0.3600 -0.0140
 6525SOL     OW25871   0.181   2.645   0.058 -0.0745 -0.1502  0.1253
 6525SOL    HW225872   0.153   2.694  -0.020 -0.4837  0.5938  0.7296
 6525SOL    HW325873   0.119   2.670   0.126  2.1291  1.7631  1.5965
 6525SOL    MW425874   0.169   2.654   0.056  0.1623  0.2004  0.3991
 6526SOL     OW25875   2.946   0.547   3.987 -0.3407 -0.0196 -0.4555
 6526SOL    HW225876   2.910   0.473   3.938  2.9864 -1.3924 -1.0921
 6526SOL    HW325877   2.993   0.599   3.921 -0.7184  1.4339  0.3713
 6526SOL    MW425878   2.948   0.544   3.972  0.0484 -0.0090 -0.4304
 6527SOL     OW25879   3.906   4.317   1.632 -0.3380  0.6733 -0.2138
 6527SOL    HW225880   3.852   4.285   1.560 -1.4721 -0.2641  1.0208
 6527SOL    HW325881   3.995   4.317   1.597 -0.4672 -2.4563 -0.7549
 6527SOL    MW425882   3.911   4.313   1.618 -0.5047  0.1367 -0.1223
 6528SOL     OW25883   4.097   0.640   1.062 -0.6703  0.0838 -0.2027
 6528SOL    HW225884   4.150   0.560   1.054  1.1624  1.2068  0.0059
 6528SOL    HW325885   4.150   0.698   1.116 -0.9613  2.2099 -2.0541
 6528SOL    MW425886   4.111   0.637   1.068 -0.4669  0.5125 -0.4195
 6529SOL     OW25887   0.928   2.769   5.693 -0.4804  0.0385 -0.0914
 6529SOL    HW225888   0.872   2.838   5.728 -0.1472  0.3356 -0.1392
 6529SOL    HW325889   0.890   2.688   5.727 -1.4817  0.1613 -0.8457
 6529SOL    MW425890   0.916   2.767   5.702 -0.5686  0.0939 -0.1973
 6530SOL     OW25891   2.195   4.222   1.478 -0.0288  0.0759  0.4323
 6530SOL    HW225892   2.239   4.198   1.560 -0.0145  0.1403  0.4434
 6530SOL    HW325893   2.169   4.313   1.491  1.0447  0.4718 -0.0945
 6530SOL    MW425894   2.197   4.230   1.491  0.1148  0.1366  0.3642
 6531SOL     OW25895   1.400   0.546   2.346  0.0172 -0.3311  0.4025
 6531SOL    HW225896   1.481   0.557   2.395 -0.5373 -3.2128  2.2504
 6531SOL    HW325897   1.337   0.604   2.389  0.6505  0.6507  0.0313
 6531SOL    MW425898   1.402   0.555   2.358  0.0276 -0.5818  0.5973
 6532SOL     OW25899   0.049   3.684   4.713 -0.7108 -0.3945  0.2517
 6532SOL    HW225900   0.115   3.650   4.773 -1.2182  0.4470  1.3338
 6532SOL    HW325901   0.094   3.693   4.630  0.6166  0.3713  1.0156
 6532SOL    MW425902   0.063   3.681   4.710 -0.6026 -0.1824  0.4953
 6533SOL     OW25903   2.236   3.001   2.030 -0.1161  0.6796 -0.0501
 6533SOL    HW225904   2.294   3.063   1.986  0.7708 -1.0392 -1.4521
 6533SOL    HW325905   2.294   2.946   2.082 -0.5572 -0.4190 -0.6742
 6533SOL    MW425906   2.251   3.002   2.031 -0.0573  0.3079 -0.3174
 6534SOL     OW25907   1.547   6.271   4.476 -0.5068  0.0102  0.4604
 6534SOL    HW225908   1.532   6.239   4.565 -0.6139 -1.0870  0.0752
 6534SOL    HW325909   1.536   6.193   4.422  1.7620  0.1450 -0.3075
 6534SOL    MW425910   1.544   6.256   4.481 -0.2216 -0.1168  0.3083
 6535SOL     OW25911   3.552   4.125   0.759  0.1994  0.1299 -0.0293
 6535SOL    HW225912   3.477   4.072   0.732 -0.8511  1.7063 -0.3437
 6535SOL    HW325913   3.627   4.067   0.749 -0.9364 -1.4321  0.0777
 6535SOL    MW425914   3.552   4.110   0.754 -0.0890  0.1318 -0.0566
 6536SOL     OW25915   2.079   3.993   3.543  0.5287 -0.0650  0.2001
 6536SOL    HW225916   2.167   3.959   3.528  0.0903 -0.2808 -2.3400
 6536SOL    HW325917   2.088   4.087   3.532  0.9582  0.3517  3.1590
 6536SOL    MW425918   2.092   4.001   3.540  0.5276 -0.0385  0.2554
 6537SOL     OW25919   5.240   3.210   1.485  0.1143 -0.2160  0.0188
 6537SOL    HW225920   5.215   3.298   1.459 -0.5774 -0.3691  0.1655
 6537SOL    HW325921   5.326   3.221   1.527 -0.0058  0.3904  0.1115
 6537SOL    MW425922   5.248   3.223   1.487  0.0072 -0.1562  0.0504
 6538SOL     OW25923   1.847   3.924   3.692 -0.6057 -0.0308 -0.3101
 6538SOL    HW225924   1.771   3.982   3.699 -0.7125 -0.1243 -0.6940
 6538SOL    HW325925   1.912   3.974   3.645  0.2920  0.7699  1.6686
 6538SOL    MW425926   1.845   3.938   3.687 -0.5014  0.0625 -0.0997
 6539SOL     OW25927   2.784   0.725   2.970  0.2285  0.2425  0.3582
 6539SOL    HW225928   2.807   0.708   2.879  0.0205 -0.1014  0.3701
 6539SOL    HW325929   2.753   0.816   2.970 -1.3575 -0.2546 -0.2313
 6539SOL    MW425930   2.783   0.735   2.958 -0.0082  0.1315  0.2820
 6540SOL     OW25931   1.514   1.139   5.445 -0.1345 -0.0786  0.0958
 6540SOL    HW225932   1.607   1.144   5.426 -0.2266  0.8976 -0.1647
 6540SOL    HW325933   1.486   1.055   5.407  0.6181 -0.3450  0.1178
 6540SOL    MW425934   1.522   1.129   5.437 -0.0474  0.0150  0.0644
 6541SOL     OW25935   3.256   1.329   3.202 -0.2399  0.6604  0.7249
 6541SOL    HW225936   3.254   1.301   3.110 -2.9647  0.7104  0.7064
 6541SOL    HW325937   3.324   1.397   3.204  2.6560 -1.9266 -0.3696
 6541SOL    MW425938   3.265   1.334   3.190 -0.2173  0.3257  0.5781
 6542SOL     OW25939   2.016   4.902   2.059  0.1377  0.0764 -0.1062
 6542SOL    HW225940   1.968   4.886   1.977  0.2625 -0.8731  0.0028
 6542SOL    HW325941   1.948   4.915   2.125  0.0358  0.1106 -0.2183
 6542SOL    MW425942   2.001   4.902   2.057  0.1407 -0.0444 -0.1066
 6543SOL     OW25943   2.133   2.590   0.573 -0.0563  0.2914  0.2686
 6543SOL    HW225944   2.057   2.633   0.534  0.3354  0.6194 -0.1425
 6543SOL    HW325945   2.142   2.508   0.525  0.3194  0.6143 -0.2181
 6543SOL    MW425946   2.124   2.584   0.562  0.0450  0.3773  0.1501
 6544SOL     OW25947   5.048   3.854   5.720  0.1169 -0.1896 -0.5701
 6544SOL    HW225948   4.988   3.782   5.700  0.9374 -1.1253  0.2058
 6544SOL    HW325949   4.998   3.934   5.701 -1.2382 -0.9378 -0.2498
 6544SOL    MW425950   5.034   3.855   5.715  0.0464 -0.4118 -0.4255
 6545SOL     OW25951   0.553   0.428   1.481  0.1381  0.2668  0.2542
 6545SOL    HW225952   0.483   0.363   1.469  0.1722  0.3690 -0.5964
 6545SOL    HW325953   0.558   0.441   1.575  0.5132 -1.3835  0.4880
 6545SOL    MW425954   0.544   0.421   1.492  0.1921  0.0626  0.1728
 6546SOL     OW25955   2.371   3.742   6.195 -0.1912 -0.1253  0.2516
 6546SOL    HW225956   2.446   3.691   6.165 -0.6596  0.1272 -1.4898
 6546SOL    HW325957   2.400   3.781   6.277  0.6018 -2.1908  1.0413
 6546SOL    MW425958   2.384   3.740   6.202 -0.1484 -0.3645  0.1261
 6547SOL     OW25959   0.121   3.325   2.082  0.0676 -0.0084  0.9218
 6547SOL    HW225960   0.163   3.241   2.102 -0.2129 -0.3590  0.0944
 6547SOL    HW325961   0.168   3.358   2.006  0.8592  1.1070  1.8481
 6547SOL    MW425962   0.133   3.318   2.075  0.1350  0.0925  0.9348
 6548SOL     OW25963   4.267   4.229   4.789  0.0968  0.0110 -0.2061
 6548SOL    HW225964   4.268   4.313   4.744  0.1148 -0.4219 -1.0320
 6548SOL    HW325965   4.175   4.217   4.815  0.0060  0.0622 -0.5074
 6548SOL    MW425966   4.255   4.238   4.787  0.0872 -0.0393 -0.3548
 6549SOL     OW25967   2.621   0.637   3.184  0.2603 -0.0594 -0.4496
 6549SOL    HW225968   2.680   0.675   3.119  1.0835  0.6607  0.6683
 6549SOL    HW325969   2.543   0.693   3.182 -0.2307 -0.7626 -1.6400
 6549SOL    MW425970   2.619   0.649   3.175  0.3041 -0.0572 -0.4592
 6550SOL     OW25971   2.280   0.019   6.284 -0.0938 -0.6144  0.6020
 6550SOL    HW225972   2.278   0.103   6.330 -0.0973 -0.2915  0.0188
 6550SOL    HW325973   2.264  -0.046   6.352 -1.5798 -0.0448  0.8319
 6550SOL    MW425974   2.278   0.021   6.299 -0.2903 -0.4967  0.5554
 6551SOL     OW25975   2.113   0.758   1.692  0.5172 -0.4628  0.1010
 6551SOL    HW225976   2.139   0.670   1.665 -1.7844 -1.0400 -0.4681
 6551SOL    HW325977   2.165   0.817   1.638  1.1319 -1.5017 -0.4561
 6551SOL    MW425978   2.123   0.754   1.682  0.2946 -0.6760 -0.0476
 6552SOL     OW25979   0.806   4.243   1.566 -0.0844 -0.1015  0.0796
 6552SOL    HW225980   0.751   4.190   1.623  0.6143 -1.5372 -0.5303
 6552SOL    HW325981   0.854   4.301   1.626 -2.4425  1.4375  0.5946
 6552SOL    MW425982   0.805   4.244   1.582 -0.3034 -0.0878  0.0671
 6553SOL     OW25983   3.606   5.955   5.408 -0.0166 -0.5606 -0.0459
 6553SOL    HW225984   3.622   6.018   5.338  1.6820 -0.5888  0.2731
 6553SOL    HW325985   3.684   5.898   5.407 -0.7748 -1.6495  0.7178
 6553SOL    MW425986   3.619   5.956   5.399  0.1075 -0.7080  0.0970
 6554SOL     OW25987   5.702   3.863   0.150  0.3466 -0.6812 -0.2784
 6554SOL    HW225988   5.674   3.941   0.197 -0.4772  0.1002 -1.9484
 6554SOL    HW325989   5.626   3.804   0.154  0.4067 -0.7616 -0.3127
 6554SOL    MW425990   5.688   3.865   0.157  0.2458 -0.5887 -0.5032
 6555SOL     OW25991   4.687   5.334   4.141 -0.1124 -0.7426 -0.2570
 6555SOL    HW225992   4.697   5.424   4.110  0.4296 -0.9610 -0.7457
 6555SOL    HW325993   4.632   5.292   4.074 -0.4230 -0.7635  0.0061
 6555SOL    MW425994   4.681   5.340   4.128 -0.0818 -0.7742 -0.2868
 6556SOL     OW25995   3.629   5.023   4.041  0.1578 -0.1518  0.0814
 6556SOL    HW225996   3.639   5.117   4.060  2.1890 -0.0950 -1.0408
 6556SOL    HW325997   3.695   4.980   4.095 -0.1886 -0.8670 -0.0528
 6556SOL    MW425998   3.639   5.030   4.050  0.3801 -0.2386 -0.0844
 6557SOL     OW25999   2.889   3.521   5.835  0.6362 -0.4565  0.1300
 6557SOL    HW226000   2.920   3.599   5.881 -0.5973 -0.1655  0.5194
 6557SOL    HW326001   2.840   3.472   5.902  0.2374 -0.8665 -0.4560
 6557SOL    MW426002   2.886   3.525   5.850  0.4209 -0.4722  0.1041
 6558SOL     OW26003   4.820   0.665   4.311 -0.0561 -0.4599  0.0566
 6558SOL    HW226004   4.866   0.600   4.364 -1.3009 -1.3930  0.0149
 6558SOL    HW326005   4.851   0.650   4.222  1.5798  0.7168  0.3684
 6558SOL    MW426006   4.830   0.655   4.306 -0.0045 -0.4277  0.0923
 6559SOL     OW26007   1.840   5.230   5.824 -0.1800  0.1133  0.3639
 6559SOL    HW226008   1.798   5.231   5.910 -1.4217  2.7281 -0.1650
 6559SOL    HW326009   1.768   5.245   5.762  0.9165  0.0738 -0.9732
 6559SOL    MW426010   1.825   5.232   5.827 -0.1991  0.4531  0.1177
 6560SOL     OW26011   0.713   1.513   5.113  0.3693  0.4126  0.4023
 6560SOL    HW226012   0.633   1.496   5.164  0.6415 -1.4504  0.2622
 6560SOL    HW326013   0.690   1.488   5.024  1.6520 -2.0908  0.7007
 6560SOL    MW426014   0.699   1.508   5.108  0.5745 -0.1635  0.4232
 6561SOL     OW26015   5.959   1.438   2.604 -0.5689 -0.3475 -0.7082
 6561SOL    HW226016   6.050   1.462   2.586 -0.3004 -2.0796 -1.8754
 6561SOL    HW326017   5.953   1.440   2.700  1.0331 -1.3088 -0.5418
 6561SOL    MW426018   5.971   1.441   2.614 -0.3221 -0.7029 -0.8402
 6562SOL     OW26019   0.190   0.112   3.047  0.0832 -0.2050 -0.1506
 6562SOL    HW226020   0.136   0.046   3.004  0.2112 -2.0625  2.2989
 6562SOL    HW326021   0.133   0.187   3.057 -1.6948 -1.6327  1.1161
 6562SOL    MW426022   0.175   0.113   3.043 -0.1345 -0.6385  0.3397
 6563SOL     OW26023   6.219   2.938   2.043  0.8972  0.2877  0.4695
 6563SOL    HW226024   6.123   2.939   2.037  0.8803  3.1375 -3.7508
 6563SOL    HW326025   6.240   3.011   2.102  0.5141 -0.0783  1.0722
 6563SOL    MW426026   6.209   2.948   2.050  0.8444  0.6154 -0.0078
 6564SOL     OW26027   2.388   3.802   5.031 -0.4784  0.3608 -0.1626
 6564SOL    HW226028   2.300   3.798   4.992 -0.1035 -0.4939 -0.9657
 6564SOL    HW326029   2.395   3.721   5.082 -0.3916  0.7370  0.4281
 6564SOL    MW426030   2.377   3.791   5.033 -0.4175  0.2977 -0.1906
 6565SOL     OW26031   6.338   6.352   0.328 -0.8208  0.3600  0.3075
 6565SOL    HW226032   6.433   6.352   0.317 -0.7820  0.7937  0.6491
 6565SOL    HW326033   6.315   6.259   0.333 -0.4018  0.2569  0.3480
 6565SOL    MW426034   6.348   6.340   0.327 -0.7604  0.4036  0.3579
 6566SOL     OW26035   0.847   4.757   4.540  0.0890  0.4679 -0.1377
 6566SOL    HW226036   0.786   4.753   4.466  0.1146 -1.2592 -0.0892
 6566SOL    HW326037   0.928   4.794   4.503 -0.3572  0.9746 -0.6239
 6566SOL    MW426038   0.850   4.762   4.526  0.0335  0.3068 -0.1954
 6567SOL     OW26039   0.197   2.438   6.156  0.1071  0.7551  0.1487
 6567SOL    HW226040   0.173   2.405   6.243  0.5340 -0.8381 -0.3048
 6567SOL    HW326041   0.114   2.463   6.116 -0.2446  0.1847  0.5130
 6567SOL    MW426042   0.183   2.437   6.162  0.1170  0.4696  0.1369
 6568SOL     OW26043   3.893   6.166   3.855 -0.0530 -0.0287 -0.1971
 6568SOL    HW226044   3.815   6.111   3.847 -0.5805  0.8931 -1.7754
 6568SOL    HW326045   3.962   6.105   3.884 -0.7341 -1.4358 -1.3867
 6568SOL    MW426046   3.892   6.151   3.858 -0.2125 -0.0927 -0.5623
 6569SOL     OW26047   5.657   1.431   1.194 -0.2541 -0.2152 -0.5850
 6569SOL    HW226048   5.582   1.390   1.238 -0.3297  0.7184  0.1969
 6569SOL    HW326049   5.663   1.387   1.110 -2.8249  0.9029 -1.4600
 6569SOL    MW426050   5.648   1.420   1.189 -0.6033  0.0555 -0.5973
 6570SOL     OW26051   5.157   1.910   6.264  0.6745  0.5298 -0.0119
 6570SOL    HW226052   5.123   1.917   6.175  1.6920 -1.1762 -0.5759
 6570SOL    HW326053   5.159   1.816   6.282  2.4620  0.7064  1.0013
 6570SOL    MW426054   5.153   1.898   6.255  1.0446  0.3280  0.0474
 6571SOL     OW26055   6.215   3.652   3.613  0.3385  0.2994  0.0565
 6571SOL    HW226056   6.204   3.746   3.619  0.3353  0.3573 -0.7304
 6571SOL    HW326057   6.133   3.616   3.647  0.7210  0.5482  1.2787
 6571SOL    MW426058   6.203   3.659   3.618  0.3885  0.3398  0.1139
 6572SOL     OW26059   6.043   4.985   6.061  0.1546  0.3843 -0.0358
 6572SOL    HW226060   6.048   4.890   6.051 -0.4235  0.3840 -0.3832
 6572SOL    HW326061   6.080   5.002   6.147  1.2441 -0.0506 -0.4034
 6572SOL    MW426062   6.048   4.974   6.071  0.2220  0.3269 -0.1301
 6573SOL     OW26063   5.104   5.144   2.544 -0.4951 -0.1006  0.3411
 6573SOL    HW226064   5.185   5.140   2.595 -1.1498  0.0659  1.4228
 6573SOL    HW326065   5.074   5.054   2.537 -1.3547  0.0361  1.8550
 6573SOL    MW426066   5.111   5.132   2.550 -0.6949 -0.0606  0.6835
 6574SOL     OW26067   1.305   4.539   0.872 -0.0759  0.4061  0.0615
 6574SOL    HW226068   1.258   4.456   0.879 -0.6810  0.8148  1.2603
 6574SOL    HW326069   1.397   4.515   0.879 -0.1379 -0.3174 -1.3429
 6574SOL    MW426070   1.311   4.525   0.874 -0.1639  0.3646  0.0344
 6575SOL     OW26071   2.545   4.510   1.121  0.0713  1.0896 -0.1758
 6575SOL    HW226072   2.481   4.577   1.144  0.0212  1.3464 -1.0142
 6575SOL    HW326073   2.563   4.526   1.028  1.5716  1.2105  0.1216
 6575SOL    MW426074   2.539   4.521   1.112  0.2626  1.1394 -0.2472
 6576SOL     OW26075   0.699   1.643   3.404 -0.0653 -0.1238 -0.1921
 6576SOL    HW226076   0.670   1.590   3.331 -1.8705  1.1694 -0.4744
 6576SOL    HW326077   0.651   1.726   3.395  2.8114  1.7182  0.0424
 6576SOL    MW426078   0.689   1.647   3.393  0.0761  0.2898 -0.1984
 6577SOL     OW26079   2.019   1.798   5.886 -0.3994  0.2171 -0.4794
 6577SOL    HW226080   2.094   1.764   5.837 -0.5114  1.1359 -1.3181
 6577SOL    HW326081   2.037   1.891   5.894 -0.9900  0.2765  0.1662
 6577SOL    MW426082   2.031   1.805   5.880 -0.4921  0.3462 -0.5049
 6578SOL     OW26083   2.350   1.256   5.692 -0.4540  0.0866 -0.2641
 6578SOL    HW226084   2.356   1.288   5.602 -1.6535  0.6152 -0.1788
 6578SOL    HW326085   2.348   1.335   5.746 -1.8794 -0.1435  0.0577
 6578SOL    MW426086   2.350   1.271   5.687 -0.8003  0.1260 -0.2104
 6579SOL     OW26087   3.536   4.069   0.163  0.2615 -0.2064 -0.4397
 6579SOL    HW226088   3.600   4.099   0.228 -0.4179 -1.8795  1.1128
 6579SOL    HW326089   3.588   4.047   0.086  1.5637 -1.2687  0.6908
 6579SOL    MW426090   3.551   4.070   0.162  0.3437 -0.5673 -0.0857
 6580SOL     OW26091   0.959   0.299   1.160  1.0642  0.1788  0.1654
 6580SOL    HW226092   0.898   0.293   1.234  2.0346 -1.8599  0.8726
 6580SOL    HW326093   1.035   0.346   1.195  1.8064 -1.3739  0.7219
 6580SOL    MW426094   0.961   0.305   1.174  1.2902 -0.2951  0.3321
 6581SOL     OW26095   2.849   3.673   3.949  0.0564 -0.4543  0.2731
 6581SOL    HW226096   2.907   3.629   3.887 -0.7162 -1.2165  0.0782
 6581SOL    HW326097   2.772   3.697   3.897  0.4213  1.0929  0.3861
 6581SOL    MW426098   2.847   3.671   3.934  0.0026 -0.3507  0.2623
 6582SOL     OW26099   2.113   1.928   0.155 -0.3255  0.2383  1.0531
 6582SOL    HW226100   2.086   1.918   0.063 -1.6077 -0.0007  1.4313
 6582SOL    HW326101   2.154   1.844   0.177 -0.9728 -0.0985  0.9965
 6582SOL    MW426102   2.115   1.915   0.146 -0.5800  0.1623  1.0955
 6583SOL     OW26103   2.970   3.172   4.165 -0.2143  0.2444 -0.2504
 6583SOL    HW226104   2.931   3.146   4.082 -1.2495  0.5813  0.1132
 6583SOL    HW326105   3.028   3.244   4.143  1.3123 -1.1482 -1.0061
 6583SOL    MW426106   2.972   3.178   4.152 -0.1495  0.1051 -0.3021
 6584SOL     OW26107   1.699   1.917   6.392 -0.0546 -0.2066  0.2631
 6584SOL    HW226108   1.709   1.953   6.480  0.4880  1.4761 -0.4444
 6584SOL    HW326109   1.667   1.827   6.406  1.8384 -0.6570  2.2181
 6584SOL    MW426110   1.696   1.910   6.406  0.2667 -0.0440  0.4277
 6585SOL     OW26111   2.522   2.229   1.924 -0.1871 -0.6642  0.3601
 6585SOL    HW226112   2.543   2.312   1.881 -1.5158 -1.1598 -1.3795
 6585SOL    HW326113   2.533   2.247   2.017 -1.0406  1.6646  0.0774
 6585SOL    MW426114   2.526   2.243   1.930 -0.4750 -0.4223  0.0933
 6586SOL     OW26115   3.243   6.009   6.310  0.1684  0.1286 -0.2159
 6586SOL    HW226116   3.192   6.017   6.229 -1.3804 -0.7298  0.6409
 6586SOL    HW326117   3.190   6.052   6.377  1.0022  0.0152  0.5399
 6586SOL    MW426118   3.229   6.016   6.308  0.0741  0.0004 -0.0032
 6587SOL     OW26119   5.639   2.463   2.986  0.3794  0.7208 -0.0337
 6587SOL    HW226120   5.694   2.534   3.021  1.1449  0.3146 -0.4036
 6587SOL    HW326121   5.569   2.509   2.940  1.8678  1.2802 -1.8639
 6587SOL    MW426122   5.637   2.479   2.985  0.6768  0.7410 -0.3240
 6588SOL     OW26123   5.364   1.550   4.384 -0.1814 -0.3413  0.2542
 6588SOL    HW226124   5.446   1.565   4.339  0.1325  0.0623  0.9379
 6588SOL    HW326125   5.310   1.501   4.322  0.2723  0.1059 -0.5020
 6588SOL    MW426126   5.368   1.546   4.370 -0.0802 -0.2290  0.2446
 6589SOL     OW26127   4.956   3.911   0.625 -0.3039  0.5562  0.8940
 6589SOL    HW226128   4.936   3.869   0.542  0.9058 -0.5515  1.1386
 6589SOL    HW326129   4.894   3.872   0.687 -1.8353  2.0559  0.3824
 6589SOL    MW426130   4.945   3.900   0.622 -0.3463  0.6079  0.8588
 6590SOL     OW26131   5.284   6.211   2.245 -0.2656 -0.2546 -0.4147
 6590SOL    HW226132   5.305   6.303   2.232 -2.3204  0.5373  1.2109
 6590SOL    HW326133   5.230   6.187   2.170 -0.9447  0.3415 -0.1364
 6590SOL    MW426134   5.279   6.220   2.234 -0.6263 -0.0715 -0.1635
 6591SOL     OW26135   0.998   4.056   0.024  0.2135  0.4795  0.0267
 6591SOL    HW226136   0.911   4.028   0.053 -0.5666  1.9487 -0.7731
 6591SOL    HW326137   1.047   3.974   0.015 -0.8387 -0.3344  1.2033
 6591SOL    MW426138   0.993   4.041   0.027 -0.0282  0.5660  0.0764
 6592SOL     OW26139   6.281   1.195   0.656  0.6045  0.2934 -0.2294
 6592SOL    HW226140   6.340   1.123   0.677  1.7626  0.9725 -1.0768
 6592SOL    HW326141   6.199   1.152   0.630  0.2528 -0.6467  2.1481
 6592SOL    MW426142   6.278   1.180   0.656  0.7109  0.2590 -0.0275
 6593SOL     OW26143   5.719   0.543   4.580 -0.6218 -0.6433  1.0265
 6593SOL    HW226144   5.798   0.502   4.614  0.0786  0.4987  0.8394
 6593SOL    HW326145   5.740   0.564   4.489 -0.6286  0.8783  1.3480
 6593SOL    MW426146   5.732   0.540   4.572 -0.5302 -0.2918  1.0442
 6594SOL     OW26147   5.306   5.484   3.095 -0.3308  0.1926 -0.3017
 6594SOL    HW226148   5.338   5.569   3.125 -0.4445  0.2852 -0.4453
 6594SOL    HW326149   5.315   5.427   3.172  1.6018 -0.1832 -0.7522
 6594SOL    MW426150   5.311   5.488   3.109 -0.0908  0.1553 -0.3800
 6595SOL     OW26151   1.867   0.001   6.173 -0.1943  0.2290  0.1664
 6595SOL    HW226152   1.783   0.046   6.163  0.2534  0.9499 -0.5521
 6595SOL    HW326153   1.885  -0.036   6.086 -0.2222 -0.7596  0.5659
 6595SOL    MW426154   1.859   0.002   6.160 -0.1389  0.1937  0.1243
 6596SOL     OW26155   1.788   1.668   5.455 -0.1396  0.2425 -0.0971
 6596SOL    HW226156   1.732   1.739   5.424 -0.1400  0.5726  0.6378
 6596SOL    HW326157   1.737   1.588   5.437 -0.6175  0.5039  0.0677
 6596SOL    MW426158   1.774   1.667   5.448 -0.2027  0.3206  0.0216
 6597SOL     OW26159   5.847   1.774   2.751 -0.5842  0.1481 -0.1283
 6597SOL    HW226160   5.778   1.713   2.725 -0.3013  0.1552 -0.9471
 6597SOL    HW326161   5.900   1.725   2.813 -0.1814 -0.5617 -1.0115
 6597SOL    MW426162   5.845   1.760   2.756 -0.4937  0.0554 -0.3529
 6598SOL     OW26163   3.960   0.180   4.471  0.4589  0.3327 -0.1203
 6598SOL    HW226164   4.013   0.204   4.547  2.2956 -1.2891 -0.8096
 6598SOL    HW326165   4.008   0.214   4.396  0.0468 -0.3592 -0.7170
 6598SOL    MW426166   3.973   0.187   4.471  0.6469  0.0274 -0.2899
 6599SOL     OW26167   0.451   2.980   2.475  0.2683 -0.6739  0.5581
 6599SOL    HW226168   0.434   3.009   2.565  1.8202  0.7868  0.4308
 6599SOL    HW326169   0.503   2.900   2.486 -0.4242 -1.0836  0.9350
 6599SOL    MW426170   0.456   2.973   2.488  0.3817 -0.5352  0.5910
 6600SOL     OW26171   0.392   3.546   2.992 -0.0542 -0.6538 -0.6642
 6600SOL    HW226172   0.485   3.568   2.993  0.1280 -1.4015 -0.4585
 6600SOL    HW326173   0.389   3.454   3.020 -0.6418 -1.4266 -3.0768
 6600SOL    MW426174   0.404   3.537   2.996 -0.1077 -0.8544 -0.9554
 6601SOL     OW26175   2.459   4.758   3.913 -0.0392 -0.0147 -0.3007
 6601SOL    HW226176   2.461   4.781   4.006 -0.4493 -3.0783  0.5818
 6601SOL    HW326177   2.367   4.739   3.895  0.3234 -1.4719 -0.7242
 6601SOL    MW426178   2.447   4.759   3.923 -0.0454 -0.6112 -0.2402
 6602SOL     OW26179   5.604   6.104   2.832  0.6604 -0.2287 -0.0399
 6602SOL    HW226180   5.673   6.170   2.833 -1.4325  2.1381  0.0267
 6602SOL    HW326181   5.556   6.119   2.914 -1.8103  0.4588 -1.5215
 6602SOL    MW426182   5.607   6.115   2.843  0.0583  0.1743 -0.2266
 6603SOL     OW26183   2.170   3.207   1.428  0.4642  0.0930 -0.0524
 6603SOL    HW226184   2.261   3.206   1.398  1.1223 -0.4773  1.8065
 6603SOL    HW326185   2.170   3.153   1.507 -1.6893 -0.6381 -0.4890
 6603SOL    MW426186   2.182   3.200   1.434  0.2669 -0.0787  0.1352
 6604SOL     OW26187   3.458   5.342   1.722 -0.3095  0.3052 -0.6187
 6604SOL    HW226188   3.425   5.417   1.672 -1.1557 -0.1075 -0.6761
 6604SOL    HW326189   3.381   5.292   1.746  0.2224 -0.3607 -0.2556
 6604SOL    MW426190   3.444   5.346   1.719 -0.3509  0.1629 -0.5784
 6605SOL     OW26191   2.385   6.125   3.012 -0.1352  0.1178 -0.0445
 6605SOL    HW226192   2.472   6.098   2.982 -0.2312  0.2131 -0.4099
 6605SOL    HW326193   2.399   6.155   3.102  0.0421 -0.8018  0.2444
 6605SOL    MW426194   2.398   6.125   3.020 -0.1245  0.0090 -0.0546
 6606SOL     OW26195   3.033   5.020   3.472  0.3091  0.2027 -0.4394
 6606SOL    HW226196   2.969   4.949   3.474  1.4808 -0.8920  1.1650
 6606SOL    HW326197   3.024   5.062   3.557  3.9178 -2.1796  1.3936
 6606SOL    MW426198   3.023   5.016   3.484  0.9398 -0.2560  0.0141
 6607SOL     OW26199   6.135   0.611   2.136 -0.0037  0.1481 -0.3299
 6607SOL    HW226200   6.229   0.597   2.150  0.1797 -0.2162 -1.8583
 6607SOL    HW326201   6.113   0.682   2.197  1.2176  0.1326  0.1603
 6607SOL    MW426202   6.145   0.619   2.146  0.1816  0.0980 -0.4669
 6608SOL     OW26203   1.321   4.363   2.617 -0.1423 -0.0657  0.1797
 6608SOL    HW226204   1.400   4.362   2.563 -0.8845  0.2115 -0.9635
 6608SOL    HW326205   1.323   4.447   2.662  0.3979 -0.2223  0.4518
 6608SOL    MW426206   1.331   4.374   2.616 -0.1689 -0.0498  0.0648
 6609SOL     OW26207   4.561   5.377   2.186  0.5542  0.0452  0.1723
 6609SOL    HW226208   4.586   5.290   2.154 -0.6366 -0.1323 -0.3234
 6609SOL    HW326209   4.550   5.430   2.107  0.6154  0.4638  0.4408
 6609SOL    MW426210   4.563   5.372   2.172  0.4052  0.0770  0.1423
 6610SOL     OW26211   3.213   4.155   6.326 -0.1672 -0.3685  0.1302
 6610SOL    HW226212   3.136   4.193   6.285  0.8283 -2.0654 -3.7192
 6610SOL    HW326213   3.180   4.076   6.371 -0.8094 -0.5990 -0.7282
 6610SOL    MW426214   3.198   4.149   6.327 -0.1205 -0.6228 -0.4910
 6611SOL     OW26215   1.561   0.162   4.329  0.0957  0.0399  0.0392
 6611SOL    HW226216   1.589   0.195   4.415 -0.2627  1.1186 -0.2332
 6611SOL    HW326217   1.639   0.170   4.274  0.3825 -0.8455  0.3115
 6611SOL    MW426218   1.575   0.168   4.333  0.0862  0.0654  0.0392
 6612SOL     OW26219   5.597   5.141   6.239 -1.0867  0.0466  0.1328
 6612SOL    HW226220   5.520   5.112   6.287 -1.4671  0.5236 -0.1708
 6612SOL    HW326221   5.565   5.156   6.150 -0.5574 -0.1307 -0.0896
 6612SOL    MW426222   5.583   5.139   6.233 -1.0671  0.0862  0.0634
 6613SOL     OW26223   5.347   0.439   2.574 -0.4277  0.4583  0.3859
 6613SOL    HW226224   5.324   0.482   2.656  1.1992 -1.9853  2.2799
 6613SOL    HW326225   5.442   0.434   2.576 -0.4110 -0.4441 -1.2171
 6613SOL    MW426226   5.356   0.444   2.585 -0.2109  0.0168  0.4243
 6614SOL     OW26227   6.392   5.173   1.797 -0.2899  0.3799  0.2928
 6614SOL    HW226228   6.322   5.227   1.833 -0.4753 -1.0436  2.2375
 6614SOL    HW326229   6.346   5.101   1.754 -0.0284  1.1169 -1.2764
 6614SOL    MW426230   6.377   5.171   1.796 -0.2798  0.2893  0.3424
 6615SOL     OW26231   3.046   0.058   2.823  0.6876  0.2430 -0.4406
 6615SOL    HW226232   3.138   0.032   2.824  0.6764 -0.1496  3.0738
 6615SOL    HW326233   3.000  -0.017   2.861 -0.8783  1.0790 -0.6177
 6615SOL    MW426234   3.052   0.044   2.828  0.4795  0.3015 -0.0003
 6616SOL     OW26235   4.911   1.098   5.235 -0.0554  0.2228  0.1841
 6616SOL    HW226236   4.876   1.183   5.262 -0.3640 -0.0864  0.7637
 6616SOL    HW326237   4.857   1.072   5.161 -1.8581 -0.7879  1.7754
 6616SOL    MW426238   4.899   1.106   5.229 -0.3340  0.0486  0.4705
 6617SOL     OW26239   0.160   5.749   4.821  0.5345  0.4272  0.3154
 6617SOL    HW226240   0.240   5.775   4.774  0.8439  0.2044  0.7108
 6617SOL    HW326241   0.148   5.817   4.888  1.1599 -0.2423  1.1359
 6617SOL    MW426242   0.169   5.761   4.824  0.6578  0.3095  0.4758
 6618SOL     OW26243   3.167   0.180   0.036 -0.5821 -0.2731 -0.2873
 6618SOL    HW226244   3.221   0.101   0.041 -1.1154 -1.0033 -3.4473
 6618SOL    HW326245   3.204   0.230  -0.036 -2.2061  0.7373 -0.4832
 6618SOL    MW426246   3.179   0.176   0.027 -0.8667 -0.2362 -0.7300
 6619SOL     OW26247   2.466   4.706   1.951  0.2380 -0.3539  0.1029
 6619SOL    HW226248   2.405   4.634   1.934  0.6725 -1.3638  2.4917
 6619SOL    HW326249   2.410   4.781   1.970 -0.2157 -0.2544 -1.4931
 6619SOL    MW426250   2.451   4.707   1.951  0.2355 -0.4740  0.2075
 6620SOL     OW26251   3.581   0.551   3.964  0.2603  0.2077  0.0715
 6620SOL    HW226252   3.560   0.513   3.879  0.2931 -0.1230  0.2117
 6620SOL    HW326253   3.645   0.620   3.944 -1.1392  1.4113 -0.3813
 6620SOL    MW426254   3.587   0.555   3.950  0.0799  0.3228  0.0303
 6621SOL     OW26255   2.132   4.142   1.069  0.1463 -0.4360 -0.8322
 6621SOL    HW226256   2.109   4.099   1.151 -0.7396  0.4060 -0.6286
 6621SOL    HW326257   2.194   4.211   1.094 -0.2811 -0.0473 -0.8423
 6621SOL    MW426258   2.138   4.145   1.083 -0.0270 -0.2736 -0.8066
 6622SOL     OW26259   0.198   2.944   6.124 -0.2240 -0.3809  0.0572
 6622SOL    HW226260   0.154   2.971   6.043  1.1911  2.5688  0.1504
 6622SOL    HW326261   0.245   2.864   6.100 -0.8662 -0.2768 -1.6775
 6622SOL    MW426262   0.198   2.937   6.110 -0.1221  0.0220 -0.1594
 6623SOL     OW26263   3.589   5.805   1.361  0.3192  0.0521  0.3340
 6623SOL    HW226264   3.668   5.755   1.380  0.3951 -0.2405 -0.7070
 6623SOL    HW326265   3.521   5.738   1.351  0.1601  0.2352  0.1888
 6623SOL    MW426266   3.590   5.790   1.362  0.3082  0.0377  0.1775
 6624SOL     OW26267   0.436   6.279   3.135  0.2657  0.1218 -0.0122
 6624SOL    HW226268   0.493   6.203   3.145  2.6742  1.7872 -0.2652
 6624SOL    HW326269   0.407   6.275   3.044 -0.2565 -0.8626  0.1798
 6624SOL    MW426270   0.440   6.268   3.124  0.5146  0.2116 -0.0203
 6625SOL     OW26271   3.171   4.767   1.637  0.7873 -0.1184  0.2411
 6625SOL    HW226272   3.236   4.741   1.571  1.3143  0.4796  0.5135
 6625SOL    HW326273   3.109   4.694   1.640  1.1235 -0.4394 -0.4431
 6625SOL    MW426274   3.171   4.754   1.629  0.9012 -0.0819  0.1868
 6626SOL     OW26275   2.774   5.154   1.591  0.3350  0.3592  0.7537
 6626SOL    HW226276   2.769   5.175   1.498  0.3533  0.5556  0.7971
 6626SOL    HW326277   2.687   5.177   1.626  0.0992 -0.3575  0.6536
 6626SOL    MW426278   2.762   5.160   1.583  0.3063  0.2905  0.7462
 6627SOL     OW26279   5.451   4.293   5.957 -0.3763  0.3208  0.4626
 6627SOL    HW226280   5.503   4.243   5.894  0.2872 -2.6870  3.1186
 6627SOL    HW326281   5.511   4.359   5.991  0.3637 -0.2828  0.3663
 6627SOL    MW426282   5.466   4.295   5.953 -0.1911 -0.1556  0.8003
 6628SOL     OW26283   3.312   1.159   1.159  0.3066 -0.1063  0.1131
 6628SOL    HW226284   3.349   1.109   1.232  1.8721  0.5699 -0.1771
 6628SOL    HW326285   3.350   1.246   1.168  1.8015 -0.4040 -2.3579
 6628SOL    MW426286   3.322   1.164   1.169  0.7104 -0.0564 -0.2512
 6629SOL     OW26287   1.613   2.960   2.542 -0.3233  0.4179  0.5841
 6629SOL    HW226288   1.631   2.879   2.495 -0.0805 -0.1099  1.5456
 6629SOL    HW326289   1.569   3.017   2.478  2.1149  0.6511 -1.0068
 6629SOL    MW426290   1.610   2.957   2.528  0.0304  0.3791  0.5011
 6630SOL     OW26291   0.464   1.575   0.077  0.1023  0.7173 -0.4353
 6630SOL    HW226292   0.535   1.520   0.045  0.0800  0.0493  0.5980
 6630SOL    HW326293   0.384   1.524   0.060  0.0669  0.4829  0.3499
 6630SOL    MW426294   0.463   1.561   0.071  0.0947  0.5982 -0.1954
 6631SOL     OW26295   4.629   2.317   1.807 -0.3302 -1.0785  0.3173
 6631SOL    HW226296   4.642   2.293   1.899  1.4738 -1.5079 -0.0198
 6631SOL    HW326297   4.695   2.267   1.760 -0.7709 -0.3210 -1.1485
 6631SOL    MW426298   4.639   2.307   1.813 -0.1503 -1.0352  0.0794
 6632SOL     OW26299   4.464   1.442   5.572  0.4890  0.3535  0.4393
 6632SOL    HW226300   4.475   1.503   5.646 -0.0094  1.1182 -0.1044
 6632SOL    HW326301   4.445   1.498   5.497  0.4884 -0.4518 -0.1802
 6632SOL    MW426302   4.463   1.458   5.572  0.4232  0.3481  0.2859
 6633SOL     OW26303   3.089   0.073   1.278  0.2044  0.3276  0.2562
 6633SOL    HW226304   3.112  -0.003   1.333 -0.0915  0.9504  1.2694
 6633SOL    HW326305   3.172   0.101   1.241  0.4946  0.2043  0.7997
 6633SOL    MW426306   3.103   0.067   1.281  0.2037  0.3935  0.4616
 6634SOL     OW26307   0.716   4.765   1.846 -0.2228 -0.1444  0.0201
 6634SOL    HW226308   0.643   4.745   1.905 -0.1353 -1.7428 -0.3761
 6634SOL    HW326309   0.675   4.798   1.766 -0.4025  0.7690  0.4771
 6634SOL    MW426310   0.701   4.767   1.843 -0.2350 -0.2348  0.0281
 6635SOL     OW26311   5.795   2.916   3.431 -0.0525  0.0891  0.9309
 6635SOL    HW226312   5.756   3.003   3.429 -0.3353 -0.0182 -1.7349
 6635SOL    HW326313   5.741   2.863   3.372  1.5982 -1.1866  0.4617
 6635SOL    MW426314   5.783   2.920   3.423  0.1280 -0.0934  0.5173
 6636SOL     OW26315   3.756   0.269   0.374 -0.1048 -0.0385 -0.0092
 6636SOL    HW226316   3.833   0.226   0.337 -0.1978  0.1112 -0.3734
 6636SOL    HW326317   3.738   0.220   0.455 -0.2412 -0.7176 -0.4489
 6636SOL    MW426318   3.764   0.257   0.380 -0.1350 -0.1083 -0.1153
 6637SOL     OW26319   3.907   1.679   5.941 -0.8221 -0.9954 -0.5388
 6637SOL    HW226320   3.881   1.601   5.989  2.4383 -2.3616 -0.7315
 6637SOL    HW326321   3.902   1.750   6.005 -2.8478 -1.4820 -0.0874
 6637SOL    MW426322   3.903   1.678   5.956 -0.6592 -1.2399 -0.5047
 6638SOL     OW26323   4.742   4.695   2.111  0.0124  0.1718  0.4886
 6638SOL    HW226324   4.744   4.726   2.020 -1.0250  1.8505  0.9861
 6638SOL    HW326325   4.648   4.690   2.132  0.2433 -0.2595  1.4498
 6638SOL    MW426326   4.730   4.698   2.102 -0.0940  0.3364  0.6811
 6639SOL     OW26327   6.023   4.311   3.866 -0.0408  0.2197  0.2443
 6639SOL    HW226328   6.114   4.298   3.891 -0.0293 -0.6899 -0.2377
 6639SOL    HW326329   5.986   4.363   3.938 -0.0725 -2.5451  2.4272
 6639SOL    MW426330   6.030   4.316   3.879 -0.0435 -0.2651  0.4687
 6640SOL     OW26331   4.668   2.349   2.106  0.4325 -0.5004 -0.5483
 6640SOL    HW226332   4.606   2.352   2.178  1.9802  0.2869  0.8259
 6640SOL    HW326333   4.671   2.439   2.073  0.9359 -0.4921 -0.4954
 6640SOL    MW426334   4.660   2.362   2.111  0.7032 -0.3954 -0.3600
 6641SOL     OW26335   1.679   3.587   2.870 -0.4988  0.3088 -0.2556
 6641SOL    HW226336   1.747   3.562   2.807  0.5794  0.0010  1.0078
 6641SOL    HW326337   1.727   3.611   2.949 -1.8801 -0.5886  0.9027
 6641SOL    MW426338   1.694   3.587   2.872 -0.5388  0.1498  0.0639
 6642SOL     OW26339   1.181   0.435   0.600  0.2196  0.5009 -0.0538
 6642SOL    HW226340   1.192   0.344   0.572 -1.0297  0.4212 -0.3286
 6642SOL    HW326341   1.141   0.479   0.525  1.5919  1.5054 -0.2470
 6642SOL    MW426342   1.177   0.429   0.587  0.2358  0.6230 -0.1155
 6643SOL     OW26343   3.568   2.354   0.002  0.0753  0.2091  0.0133
 6643SOL    HW226344   3.566   2.449   0.007  1.6896  0.2626 -0.0145
 6643SOL    HW326345   3.617   2.326   0.080 -0.1476 -0.5933 -0.1179
 6643SOL    MW426346   3.574   2.363   0.013  0.2589  0.1103 -0.0077
 6644SOL     OW26347   0.301   2.208   2.730 -0.1524  0.2235 -0.1506
 6644SOL    HW226348   0.266   2.285   2.684 -0.7754 -0.3949 -0.7536
 6644SOL    HW326349   0.233   2.141   2.718  0.2260 -0.3149  0.6568
 6644SOL    MW426350   0.287   2.209   2.722 -0.1847  0.0709 -0.1237
 6645SOL     OW26351   1.618   2.130   5.076 -0.0490  0.2297 -0.1367
 6645SOL    HW226352   1.697   2.175   5.104  0.0381  0.4728 -0.7568
 6645SOL    HW326353   1.644   2.039   5.065  0.4737  0.5157 -1.5293
 6645SOL    MW426354   1.632   2.124   5.078  0.0314  0.2995 -0.4023
 6646SOL     OW26355   3.294   3.916   0.181  0.2934  0.3907  0.4405
 6646SOL    HW226356   3.306   3.846   0.117  0.1087  0.6455  0.1236
 6646SOL    HW326357   3.364   3.978   0.162 -0.8059  1.3409 -0.6948
 6646SOL    MW426358   3.305   3.915   0.170  0.1240  0.5497  0.2489
 6647SOL     OW26359   1.654   3.963   2.601 -0.3422  1.0195 -0.7821
 6647SOL    HW226360   1.633   3.995   2.514 -1.1241 -0.5015 -1.1899
 6647SOL    HW326361   1.602   3.883   2.611 -0.7288  1.4589  1.3123
 6647SOL    MW426362   1.644   3.957   2.591 -0.4964  0.8768 -0.5596
 6648SOL     OW26363   2.631   1.664   3.060 -0.4906  0.6692 -0.0521
 6648SOL    HW226364   2.635   1.688   3.153 -2.4014 -1.3861  0.6434
 6648SOL    HW326365   2.715   1.693   3.025  1.0508 -0.0341  2.7189
 6648SOL    MW426366   2.643   1.671   3.068 -0.5394  0.3052  0.4052
 6649SOL     OW26367   3.168   3.739   2.534  0.1263  0.0992 -0.8469
 6649SOL    HW226368   3.170   3.831   2.560 -1.0950  0.1230 -0.7558
 6649SOL    HW326369   3.203   3.738   2.445 -0.7391  0.8056 -1.2109
 6649SOL    MW426370   3.173   3.751   2.526 -0.1490  0.1955 -0.8829
 6650SOL     OW26371   5.432   5.842   5.840 -0.1890  0.6171 -0.5881
 6650SOL    HW226372   5.414   5.810   5.751 -0.5076 -0.9606  0.0177
 6650SOL    HW326373   5.421   5.765   5.896  1.6276  1.1825  0.6358
 6650SOL    MW426374   5.428   5.827   5.835  0.0087  0.4836 -0.3467
 6651SOL     OW26375   0.336   0.886   3.061  0.6290  0.5130 -0.0047
 6651SOL    HW226376   0.419   0.847   3.032 -0.0233 -0.0461 -1.1500
 6651SOL    HW326377   0.331   0.969   3.013 -0.4165 -0.3812 -1.5125
 6651SOL    MW426378   0.346   0.892   3.051  0.4050  0.3213 -0.3547
 6652SOL     OW26379   4.193   3.509   5.067 -0.0084 -0.3935 -0.0092
 6652SOL    HW226380   4.250   3.446   5.023 -0.1626  0.4237 -1.4734
 6652SOL    HW326381   4.115   3.459   5.091  0.0517 -0.8748 -0.7659
 6652SOL    MW426382   4.190   3.494   5.064 -0.0208 -0.3492 -0.3022
 6653SOL     OW26383   0.814   3.692   2.010 -0.5735 -0.3192  0.2296
 6653SOL    HW226384   0.831   3.639   1.932 -1.6759 -0.8169  0.3198
 6653SOL    HW326385   0.813   3.782   1.977 -0.5756 -0.4926 -0.2582
 6653SOL    MW426386   0.816   3.697   1.995 -0.7192 -0.4077  0.1772
 6654SOL     OW26387   5.653   0.594   3.528 -0.7002 -0.0052  0.1704
 6654SOL    HW226388   5.565   0.632   3.535 -1.4659 -1.4875 -0.7903
 6654SOL    HW326389   5.644   0.525   3.462  0.4677 -2.1541  2.0988
 6654SOL    MW426390   5.640   0.590   3.521 -0.6471 -0.4843  0.2981
 6655SOL     OW26391   4.031   5.380   6.088  0.1667 -0.1752 -0.1605
 6655SOL    HW226392   4.019   5.300   6.139  2.9070  0.7814  2.2341
 6655SOL    HW326393   3.979   5.445   6.135  0.5356  0.1306 -0.1776
 6655SOL    MW426394   4.022   5.378   6.101  0.5769 -0.0086  0.1532
 6656SOL     OW26395   4.809   4.095   6.130 -0.4132  0.4270  1.0200
 6656SOL    HW226396   4.890   4.082   6.081 -1.0142 -0.6016  0.2510
 6656SOL    HW326397   4.758   4.157   6.077 -0.0409  1.2702  1.6299
 6656SOL    MW426398   4.813   4.101   6.116 -0.4433  0.4025  0.9990
 6657SOL     OW26399   4.018   0.635   5.909  0.1328  0.0968  0.3909
 6657SOL    HW226400   4.027   0.547   5.947 -0.9588 -0.0478  0.3550
 6657SOL    HW326401   3.953   0.678   5.965  0.3898  0.7584  0.1877
 6657SOL    MW426402   4.011   0.629   5.922  0.0227  0.1650  0.3594
 6658SOL     OW26403   2.096   1.683   4.404 -0.0415 -0.3848  0.7952
 6658SOL    HW226404   2.053   1.753   4.356  0.9961 -0.1013  0.2422
 6658SOL    HW326405   2.122   1.619   4.337  0.4098 -0.5352  1.1027
 6658SOL    MW426406   2.094   1.683   4.389  0.1550 -0.3673  0.7628
 6659SOL     OW26407   0.331   0.059   0.678 -0.0327 -0.7369 -0.2498
 6659SOL    HW226408   0.376   0.089   0.599  1.5670  0.0223  0.8852
 6659SOL    HW326409   0.400   0.056   0.745 -1.2799 -1.6197  1.0541
 6659SOL    MW426410   0.346   0.063   0.676  0.0138 -0.7532  0.0720
 6660SOL     OW26411   0.330   0.871   5.635 -0.1076 -0.1201  0.0771
 6660SOL    HW226412   0.313   0.964   5.648  0.4026  0.0826 -0.6332
 6660SOL    HW326413   0.309   0.856   5.543  2.1641 -0.1348 -0.5121
 6660SOL    MW426414   0.325   0.881   5.625  0.2595 -0.0953 -0.0944
 6661SOL     OW26415   2.613   4.423   4.624  0.3659 -0.0104  0.0449
 6661SOL    HW226416   2.529   4.465   4.608  0.3154 -0.5281 -1.1309
 6661SOL    HW326417   2.653   4.476   4.693 -0.6492  0.6122  0.1789
 6661SOL    MW426418   2.607   4.436   4.631  0.2253  0.0035 -0.0926
 6662SOL     OW26419   3.278   1.459   1.085  0.3851  0.4417  0.2901
 6662SOL    HW226420   3.364   1.491   1.057  0.0932  1.1066  0.1244
 6662SOL    HW326421   3.242   1.530   1.138 -0.3400  0.4611 -0.2087
 6662SOL    MW426422   3.284   1.472   1.088  0.2509  0.5319  0.2024
 6663SOL     OW26423   1.111   5.990   2.069  1.1296 -0.0932 -0.8306
 6663SOL    HW226424   1.150   6.075   2.048  0.0523  0.7511  0.4866
 6663SOL    HW326425   1.024   6.010   2.103  1.4931 -1.5886  1.1507
 6663SOL    MW426426   1.105   6.004   2.071  1.0354 -0.1791 -0.3954
 6664SOL     OW26427   4.407   3.021   0.338  0.3320 -0.2454  0.4157
 6664SOL    HW226428   4.477   3.054   0.282  1.4453  0.2856  2.0622
 6664SOL    HW326429   4.351   3.097   0.355  0.0034 -0.4038  0.0806
 6664SOL    MW426430   4.409   3.035   0.333  0.4355 -0.1963  0.5887
 6665SOL     OW26431   2.946   2.122   2.595  0.3020  0.2037 -0.0112
 6665SOL    HW226432   2.873   2.126   2.534  0.0677  2.0093  0.3108
 6665SOL    HW326433   2.910   2.081   2.674  0.3991 -1.4030 -0.7735
 6665SOL    MW426434   2.932   2.117   2.598  0.2839  0.2299 -0.0693
 6666SOL     OW26435   4.513   3.652   1.655 -0.1447 -0.5493  0.9015
 6666SOL    HW226436   4.451   3.702   1.708  0.5975 -0.3558  1.6210
 6666SOL    HW326437   4.558   3.596   1.718 -0.0518 -1.1708  0.2939
 6666SOL    MW426438   4.511   3.652   1.670 -0.0345 -0.6058  0.9163
 6667SOL     OW26439   0.226   4.705   1.644  0.5258  0.1564 -0.1517
 6667SOL    HW226440   0.263   4.680   1.559 -0.7080  0.3678 -0.7764
 6667SOL    HW326441   0.132   4.691   1.634  0.2149  1.4460  0.7438
 6667SOL    MW426442   0.219   4.700   1.631  0.3220  0.3544 -0.1160
 6668SOL     OW26443   1.657   0.609   2.470  0.3154  0.1070  0.3506
 6668SOL    HW226444   1.662   0.579   2.561 -2.0495  0.1490  0.5655
 6668SOL    HW326445   1.624   0.699   2.477  0.7260  0.3354 -0.5343
 6668SOL    MW426446   1.654   0.617   2.483  0.0576  0.1427  0.2622
 6669SOL     OW26447   2.552   0.938   0.888  0.0701 -0.3212 -0.8006
 6669SOL    HW226448   2.533   1.007   0.823 -0.1564  1.5358  1.1244
 6669SOL    HW326449   2.484   0.948   0.954  1.2285 -1.0402  0.5583
 6669SOL    MW426450   2.540   0.949   0.888  0.1930 -0.1711 -0.3673
 6670SOL     OW26451   5.731   4.363   0.261 -0.2162  0.0179 -0.3466
 6670SOL    HW226452   5.731   4.268   0.273  1.8580  0.0135 -0.0677
 6670SOL    HW326453   5.639   4.388   0.268 -0.7533 -1.9107  0.0101
 6670SOL    MW426454   5.719   4.354   0.263 -0.0134 -0.2371 -0.2628
 6671SOL     OW26455   4.465   2.752   1.918 -0.4619 -0.3370  0.2443
 6671SOL    HW226456   4.410   2.675   1.906 -0.5016 -0.2646 -0.0369
 6671SOL    HW326457   4.432   2.793   1.998 -0.6945 -0.3936  0.1779
 6671SOL    MW426458   4.454   2.747   1.927 -0.4978 -0.3349  0.1985
 6672SOL     OW26459   5.984   5.817   0.019 -0.1597  0.0376 -0.1124
 6672SOL    HW226460   5.978   5.905  -0.018 -0.7042 -0.3172 -0.8894
 6672SOL    HW326461   5.893   5.788   0.026  0.0304 -0.5519 -0.0741
 6672SOL    MW426462   5.971   5.825   0.015 -0.2065 -0.0870 -0.2099
 6673SOL     OW26463   0.833   0.641   2.736  0.1015 -0.1078 -0.1026
 6673SOL    HW226464   0.826   0.722   2.787 -0.6737 -0.4158  0.2917
 6673SOL    HW326465   0.744   0.623   2.707 -0.1208 -1.8289  1.4150
 6673SOL    MW426466   0.820   0.649   2.739 -0.0301 -0.3756  0.1496
 6674SOL     OW26467   3.816   2.560   1.566 -0.5446  0.6009  0.0881
 6674SOL    HW226468   3.767   2.526   1.642  0.6853  0.9163  1.0502
 6674SOL    HW326469   3.839   2.649   1.591 -0.3697  0.8159 -0.8032
 6674SOL    MW426470   3.812   2.567   1.579 -0.3592  0.6709  0.0974
 6675SOL     OW26471   4.895   0.232   2.089 -0.2403 -0.0264 -0.3857
 6675SOL    HW226472   4.972   0.214   2.143 -1.2355 -1.8863  0.5109
 6675SOL    HW326473   4.931   0.261   2.005  1.5120 -2.1494 -0.4634
 6675SOL    MW426474   4.910   0.234   2.085 -0.1404 -0.5519 -0.2776
 6676SOL     OW26475   5.611   3.188   1.184  0.6628  0.7026  0.0982
 6676SOL    HW226476   5.521   3.218   1.196  0.8300  1.3438 -0.2235
 6676SOL    HW326477   5.602   3.102   1.143  0.1929  1.5210 -1.6254
 6676SOL    MW426478   5.598   3.180   1.180  0.6229  0.8952 -0.1717
 6677SOL     OW26479   1.641   5.065   4.661  0.7313  0.0409  0.1814
 6677SOL    HW226480   1.675   5.016   4.586  1.1646  1.1164 -0.3352
 6677SOL    HW326481   1.554   5.093   4.634  0.7055  0.0443  0.2668
 6677SOL    MW426482   1.634   5.062   4.648  0.7851  0.1832  0.1245
 6678SOL     OW26483   0.006   2.452   4.951  0.8573 -0.4491 -0.2482
 6678SOL    HW226484   0.015   2.521   4.886  1.5639 -0.5626 -0.2845
 6678SOL    HW326485   0.089   2.405   4.947  0.8570 -0.5428  0.6363
 6678SOL    MW426486   0.018   2.455   4.942  0.9505 -0.4764 -0.1363
 6679SOL     OW26487   2.189   3.818   3.922  0.4753 -0.8570 -0.1079
 6679SOL    HW226488   2.234   3.900   3.903 -0.3185 -0.4455 -0.2410
 6679SOL    HW326489   2.251   3.769   3.977  1.0716 -0.2964 -0.2708
 6679SOL    MW426490   2.204   3.822   3.927  0.4493 -0.7288 -0.1469
 6680SOL     OW26491   5.769   0.527   1.317 -0.6374  0.3123 -0.3280
 6680SOL    HW226492   5.806   0.613   1.336 -0.5332  0.2004 -0.0054
 6680SOL    HW326493   5.784   0.477   1.398  0.6899 -0.4961 -1.0501
 6680SOL    MW426494   5.776   0.531   1.330 -0.4485  0.1908 -0.3807
 6681SOL     OW26495   4.518   1.440   6.163  0.1333  0.2990 -0.3160
 6681SOL    HW226496   4.539   1.521   6.118 -1.5346  0.2020 -1.3808
 6681SOL    HW326497   4.531   1.372   6.097 -0.1670 -0.1138  0.0412
 6681SOL    MW426498   4.523   1.441   6.148 -0.1264  0.2317 -0.4093
 6682SOL     OW26499   2.351   4.049   3.912 -0.6089  0.0583 -0.2048
 6682SOL    HW226500   2.348   4.098   3.993 -1.8757 -0.6736  0.2183
 6682SOL    HW326501   2.443   4.022   3.903 -0.5569 -0.3297  1.2872
 6682SOL    MW426502   2.363   4.052   3.921 -0.7692 -0.0894  0.0479
 6683SOL     OW26503   6.228   1.910   0.850  0.9882 -0.6519 -0.4676
 6683SOL    HW226504   6.261   1.937   0.936 -0.9757 -0.7636  0.3782
 6683SOL    HW326505   6.265   1.823   0.837  1.3441 -0.6207  0.2536
 6683SOL    MW426506   6.237   1.902   0.860  0.7760 -0.6625 -0.2608
 6684SOL     OW26507   1.689   3.425   3.546  0.2275 -0.1236  0.0362
 6684SOL    HW226508   1.744   3.443   3.470  1.4768  0.9488  1.1386
 6684SOL    HW326509   1.751   3.401   3.615 -0.8662 -0.9281  0.7783
 6684SOL    MW426510   1.705   3.424   3.545  0.2480 -0.0882  0.2796
 6685SOL     OW26511   6.327   2.528   5.219 -0.0116 -0.5076 -0.2705
 6685SOL    HW226512   6.359   2.446   5.257 -1.6558 -1.4743 -0.8236
 6685SOL    HW326513   6.345   2.519   5.125  0.2415 -0.0252 -0.2669
 6685SOL    MW426514   6.333   2.516   5.211 -0.1951 -0.5715 -0.3430
 6686SOL     OW26515   6.420   1.200   0.403 -0.2193 -0.2978 -0.3266
 6686SOL    HW226516   6.377   1.247   0.332 -2.6205 -1.3457  0.3283
 6686SOL    HW326517   6.366   1.219   0.480 -0.3727 -2.8077  0.2591
 6686SOL    MW426518   6.407   1.209   0.404 -0.5564 -0.7672 -0.1629
 6687SOL     OW26519   0.751   3.652   4.922 -0.0311  0.4930 -0.1229
 6687SOL    HW226520   0.723   3.585   4.860  2.6237  0.5870 -1.5921
 6687SOL    HW326521   0.762   3.731   4.868  1.3915  0.8386  0.6160
 6687SOL    MW426522   0.749   3.654   4.906  0.5069  0.5510 -0.2193
 6688SOL     OW26523   5.515   0.938   1.027  0.0702 -0.4694  0.2840
 6688SOL    HW226524   5.465   1.017   1.005  0.4927 -0.0330  0.8691
 6688SOL    HW326525   5.492   0.875   0.958  1.2736  0.8191 -1.3932
 6688SOL    MW426526   5.505   0.940   1.015  0.2847 -0.2418  0.1399
 6689SOL     OW26527   5.223   4.171   2.581  0.4855  0.5548  0.1078
 6689SOL    HW226528   5.209   4.079   2.606  0.5034  0.3137 -0.7330
 6689SOL    HW326529   5.140   4.199   2.543  0.3722  1.0005  0.6692
 6689SOL    MW426530   5.210   4.162   2.579  0.4729  0.5818  0.0709
 6690SOL     OW26531   1.513   5.774   5.613  0.0178 -0.6740  0.4623
 6690SOL    HW226532   1.418   5.781   5.623  0.1078 -0.3346  1.1265
 6690SOL    HW326533   1.546   5.863   5.627  0.5104 -0.9633  1.2334
 6690SOL    MW426534   1.505   5.787   5.617  0.0947 -0.6674  0.6517
 6691SOL     OW26535   0.783   6.351   3.299 -0.4898 -0.1864 -0.1909
 6691SOL    HW226536   0.711   6.310   3.347 -0.5247 -0.8529 -0.8037
 6691SOL    HW326537   0.838   6.390   3.367 -1.2584  0.0608  0.3027
 6691SOL    MW426538   0.781   6.351   3.314 -0.5958 -0.2417 -0.2066
 6692SOL     OW26539   1.840   2.701   3.454  0.1608 -0.4813 -0.2685
 6692SOL    HW226540   1.750   2.734   3.448  0.4653  0.4900  0.2974
 6692SOL    HW326541   1.879   2.751   3.525  1.6179  0.2265 -1.5040
 6692SOL    MW426542   1.833   2.712   3.462  0.3932 -0.2598 -0.3568
 6693SOL     OW26543   1.714   0.684   3.047 -0.0181  0.4564 -0.3141
 6693SOL    HW226544   1.806   0.670   3.069 -0.6519 -3.0293  0.6633
 6693SOL    HW326545   1.707   0.652   2.957 -0.3713  0.2458 -0.2100
 6693SOL    MW426546   1.726   0.678   3.038 -0.1484 -0.0313 -0.1714
 6694SOL     OW26547   2.756   3.351   1.703  0.2539 -0.1459 -0.6236
 6694SOL    HW226548   2.684   3.344   1.639  0.5659 -1.3259 -0.8719
 6694SOL    HW326549   2.786   3.442   1.695 -0.4821  0.0516 -1.3172
 6694SOL    MW426550   2.750   3.362   1.693  0.1979 -0.2755 -0.7479
 6695SOL     OW26551   5.855   5.234   4.826  0.2325  0.7232 -0.5267
 6695SOL    HW226552   5.940   5.199   4.852  0.0908  1.8112  1.6026
 6695SOL    HW326553   5.862   5.328   4.843 -0.6729  1.1879 -2.4498
 6695SOL    MW426554   5.867   5.242   4.831  0.0943  0.9280 -0.4995
 6696SOL     OW26555   3.538   3.895   3.473  0.2315  0.4774  0.4184
 6696SOL    HW226556   3.582   3.955   3.414  0.4845 -0.7826 -0.7140
 6696SOL    HW326557   3.549   3.809   3.433 -1.7529 -0.1064  0.9960
 6696SOL    MW426558   3.545   3.892   3.460  0.0030  0.2341  0.3452
 6697SOL     OW26559   6.195   3.605   5.905 -0.0047 -0.2604 -0.4192
 6697SOL    HW226560   6.110   3.571   5.878  1.1369 -2.4264 -1.4758
 6697SOL    HW326561   6.216   3.671   5.838 -1.0515  0.7174  0.1676
 6697SOL    MW426562   6.187   3.610   5.893  0.0078 -0.4172 -0.4812
 6698SOL     OW26563   1.476   2.368   4.873  0.9287  0.4685 -0.2541
 6698SOL    HW226564   1.394   2.369   4.921 -0.1633  3.0241 -1.9408
 6698SOL    HW326565   1.480   2.281   4.832 -0.2325 -0.1635  0.9368
 6698SOL    MW426566   1.466   2.357   4.874  0.6314  0.7223 -0.3195
 6699SOL     OW26567   2.553   2.457   1.697  0.6240 -0.0422 -0.0716
 6699SOL    HW226568   2.547   2.551   1.711  1.2952  0.2281 -1.3908
 6699SOL    HW326569   2.647   2.438   1.704  0.2986 -1.0141  2.3526
 6699SOL    MW426570   2.565   2.467   1.700  0.6696 -0.1348  0.0742
 6700SOL     OW26571   2.355   3.569   5.187 -0.4635  0.6315 -0.6196
 6700SOL    HW226572   2.317   3.482   5.173 -1.4526  1.1996 -1.5993
 6700SOL    HW326573   2.288   3.617   5.235  0.7740  0.3579  1.5106
 6700SOL    MW426574   2.341   3.564   5.191 -0.4307  0.6704 -0.4678
 6701SOL     OW26575   5.890   6.345   0.016 -0.0144 -0.1039 -0.7039
 6701SOL    HW226576   5.973   6.313   0.052 -0.4606 -1.6552 -0.9840
 6701SOL    HW326577   5.914   6.389  -0.065  0.8144  1.9344  0.5716
 6701SOL    MW426578   5.904   6.347   0.010  0.0361 -0.0396 -0.5726
 6702SOL     OW26579   6.167   2.676   5.929  0.9135  0.4367  0.8598
 6702SOL    HW226580   6.235   2.628   5.976 -0.3454  0.1406  2.4816
 6702SOL    HW326581   6.111   2.608   5.891 -0.4775  0.5515  2.5773
 6702SOL    MW426582   6.169   2.661   5.930  0.5639  0.4128  1.3004
 6703SOL     OW26583   4.120   4.807   2.591  0.2229  0.0434 -0.1308
 6703SOL    HW226584   4.107   4.762   2.675  0.5143  0.0849 -0.0630
 6703SOL    HW326585   4.098   4.741   2.525  1.1278 -0.3700 -0.0418
 6703SOL    MW426586   4.115   4.792   2.593  0.3808 -0.0057 -0.1101
 6704SOL     OW26587   3.103   1.761   0.239 -0.0790  0.5844 -0.4607
 6704SOL    HW226588   3.169   1.692   0.237  1.2101  1.7501  0.2871
 6704SOL    HW326589   3.118   1.807   0.322 -1.7355  0.9863 -0.3435
 6704SOL    MW426590   3.113   1.758   0.250 -0.1275  0.7913 -0.3466
 6705SOL     OW26591   1.543   4.219   0.352 -0.2095 -0.0745 -0.3898
 6705SOL    HW226592   1.506   4.281   0.415  1.2793 -0.6011  1.0786
 6705SOL    HW326593   1.536   4.263   0.268 -0.0254  1.6897  0.4798
 6705SOL    MW426594   1.537   4.233   0.349  0.0112  0.0888 -0.0813
 6706SOL     OW26595   3.835   2.265   6.004 -0.0707 -0.2478  0.0526
 6706SOL    HW226596   3.900   2.261   5.933 -0.8533  1.3357 -0.8050
 6706SOL    HW326597   3.877   2.221   6.077  1.7192  0.1432 -0.6788
 6706SOL    MW426598   3.849   2.259   6.004  0.0622  0.0127 -0.1570
 6707SOL     OW26599   4.692   4.305   6.007  0.0323 -0.3772 -0.5898
 6707SOL    HW226600   4.597   4.316   5.994 -0.6505 -3.7000  0.5839
 6707SOL    HW326601   4.729   4.316   5.920 -1.5144  0.4482 -1.1857
 6707SOL    MW426602   4.684   4.308   5.994 -0.2619 -0.7067 -0.5135
 6708SOL     OW26603   4.342   3.297   5.462 -0.4288 -0.3975  0.0941
 6708SOL    HW226604   4.310   3.386   5.444 -1.2795 -0.7413 -0.1740
 6708SOL    HW326605   4.270   3.241   5.435  0.1890 -1.1846  0.0626
 6708SOL    MW426606   4.328   3.302   5.456 -0.4595 -0.5467  0.0546
 6709SOL     OW26607   2.546   4.118   1.176  0.1724  0.1290  0.3205
 6709SOL    HW226608   2.602   4.162   1.112  1.6879  1.3349  2.3437
 6709SOL    HW326609   2.464   4.167   1.173  1.6853  3.0828  2.2563
 6709SOL    MW426610   2.543   4.131   1.167  0.5719  0.6778  0.8428
 6710SOL     OW26611   2.734   2.064   0.256  0.3577  0.1642 -0.0127
 6710SOL    HW226612   2.684   2.110   0.324  0.3648  0.4896 -0.2211
 6710SOL    HW326613   2.761   1.982   0.297 -1.2070 -0.4920 -0.2186
 6710SOL    MW426614   2.731   2.060   0.271  0.1522  0.1206 -0.0674
 6711SOL     OW26615   3.082   5.641   5.014  0.1094  0.7725 -0.0575
 6711SOL    HW226616   3.126   5.672   4.934 -0.2384  0.9703 -0.1732
 6711SOL    HW326617   3.150   5.644   5.081  0.6298 -0.1825 -0.5275
 6711SOL    MW426618   3.097   5.646   5.012  0.1322  0.6726 -0.1348
 6712SOL     OW26619   3.624   5.865   6.198 -0.1085  0.1806 -0.1324
 6712SOL    HW226620   3.583   5.947   6.225  0.5674  0.9929 -1.4511
 6712SOL    HW326621   3.702   5.892   6.150  0.4273 -1.2635 -0.1295
 6712SOL    MW426622   3.629   5.879   6.195  0.0514  0.0973 -0.3060
 6713SOL     OW26623   6.006   2.812   2.794  0.4124 -0.2348 -0.0301
 6713SOL    HW226624   6.093   2.772   2.784  0.0667 -1.2018  0.6387
 6713SOL    HW326625   6.016   2.900   2.758  1.1294 -1.0116 -1.8780
 6713SOL    MW426626   6.019   2.818   2.788  0.4614 -0.4649 -0.1857
 6714SOL     OW26627   0.720   5.098   5.956 -0.4470 -0.0192 -0.3310
 6714SOL    HW226628   0.742   5.147   6.035  0.5044  0.2247 -0.7272
 6714SOL    HW326629   0.700   5.165   5.891 -0.1560 -0.1773 -0.5894
 6714SOL    MW426630   0.720   5.113   5.958 -0.2831 -0.0078 -0.4173
 6715SOL     OW26631   3.639   0.175   1.449  0.4335 -0.2553 -0.2110
 6715SOL    HW226632   3.665   0.106   1.387  2.4835  0.0590  0.2254
 6715SOL    HW326633   3.678   0.255   1.413  0.3408  0.1983  0.6857
 6715SOL    MW426634   3.647   0.176   1.436  0.6918 -0.1540 -0.0351
 6716SOL     OW26635   3.663   0.234   6.353 -0.1470  0.6381  0.5633
 6716SOL    HW226636   3.632   0.269   6.437  0.7818  1.6707  0.4989
 6716SOL    HW326637   3.687   0.143   6.373  1.8072  1.3843  1.8989
 6716SOL    MW426638   3.662   0.226   6.367  0.2334  0.8728  0.7310
 6717SOL     OW26639   2.540   2.801   6.270  0.4315 -0.5390  0.3253
 6717SOL    HW226640   2.618   2.818   6.322  0.4928  0.3385 -0.0409
 6717SOL    HW326641   2.478   2.870   6.295 -0.4494 -1.5463  1.0293
 6717SOL    MW426642   2.542   2.812   6.280  0.3234 -0.5561  0.3699
 6718SOL     OW26643   0.100   2.096   2.394  0.4001  0.1674  0.1702
 6718SOL    HW226644   0.090   2.048   2.476  0.2435  0.9400  0.6184
 6718SOL    HW326645   0.015   2.137   2.380 -0.3568 -1.8432 -1.6344
 6718SOL    MW426646   0.088   2.095   2.403  0.2796  0.0040 -0.0087
 6719SOL     OW26647   5.004   2.921   3.449 -0.2343 -0.3782 -0.0313
 6719SOL    HW226648   5.045   3.000   3.485 -1.5603  0.0345  0.6316
 6719SOL    HW326649   4.948   2.888   3.519  0.2996 -1.9269 -0.3065
 6719SOL    MW426650   5.002   2.927   3.463 -0.3388 -0.5281  0.0198
 6720SOL     OW26651   5.295   6.042   2.592 -0.1018 -0.1162  0.4398
 6720SOL    HW226652   5.309   5.954   2.556 -1.8112 -0.2950  0.0995
 6720SOL    HW326653   5.365   6.095   2.554 -0.0107 -0.9842 -0.6751
 6720SOL    MW426654   5.306   6.037   2.582 -0.3153 -0.2543  0.2478
 6721SOL     OW26655   2.590   5.379   6.347  0.2667 -0.4818 -0.0068
 6721SOL    HW226656   2.562   5.292   6.375 -0.1893  0.2299  1.9085
 6721SOL    HW326657   2.686   5.376   6.353  0.1983 -0.4124  1.6134
 6721SOL    MW426658   2.599   5.367   6.352  0.1975 -0.3788  0.4597
 6722SOL     OW26659   5.658   3.534   0.521  0.1984 -0.3101 -0.0524
 6722SOL    HW226660   5.708   3.479   0.582  0.9169 -0.4235 -0.7176
 6722SOL    HW326661   5.716   3.542   0.445 -0.9648 -0.7430 -1.0020
 6722SOL    MW426662   5.672   3.528   0.519  0.1397 -0.3822 -0.2655
 6723SOL     OW26663   5.728   5.960   5.390 -0.5264 -0.3951  0.6589
 6723SOL    HW226664   5.816   5.923   5.381 -0.2603  0.3829 -0.0402
 6723SOL    HW326665   5.737   6.023   5.462  0.2489  1.7720 -1.2076
 6723SOL    MW426666   5.741   5.963   5.398 -0.3890 -0.0065  0.3204
 6724SOL     OW26667   6.387   2.531   4.195 -0.2068  0.2521  0.0028
 6724SOL    HW226668   6.345   2.613   4.220 -2.5078 -1.0384  0.6682
 6724SOL    HW326669   6.362   2.469   4.264 -0.8182 -1.6515 -1.8154
 6724SOL    MW426670   6.378   2.534   4.207 -0.5911 -0.1693 -0.1493
 6725SOL     OW26671   2.580   3.599  -0.004 -0.0085  0.4135 -0.4010
 6725SOL    HW226672   2.499   3.575   0.041 -0.1450 -0.8922 -1.2866
 6725SOL    HW326673   2.578   3.695  -0.007 -0.2565  0.5392  1.8290
 6725SOL    MW426674   2.569   3.609   0.002 -0.0593  0.2578 -0.2236
 6726SOL     OW26675   4.738   4.766   0.323 -0.1054 -0.3760  0.2300
 6726SOL    HW226676   4.830   4.745   0.306  0.0300  1.4468 -1.5725
 6726SOL    HW326677   4.690   4.694   0.282  0.4752 -0.6820  0.0706
 6726SOL    MW426678   4.744   4.754   0.315 -0.0109 -0.1759 -0.0289
 6727SOL     OW26679   6.223   6.370   2.991  0.4058  0.3701  0.7449
 6727SOL    HW226680   6.314   6.356   2.963 -0.2035 -0.8176 -0.8419
 6727SOL    HW326681   6.178   6.290   2.963 -1.5284  1.7580 -0.3455
 6727SOL    MW426682   6.229   6.357   2.984  0.0703  0.3965  0.3917
 6728SOL     OW26683   5.154   4.642   4.281  0.1557  0.1615  0.5373
 6728SOL    HW226684   5.182   4.731   4.302 -1.0680  0.8326 -0.4994
 6728SOL    HW326685   5.201   4.621   4.200 -0.9189  0.6053 -0.2276
 6728SOL    MW426686   5.164   4.651   4.273 -0.1475  0.3086  0.2996
 6729SOL     OW26687   2.581   0.411   3.028  0.5492  0.1771  0.0824
 6729SOL    HW226688   2.572   0.348   3.100 -0.5246  1.8284  1.4691
 6729SOL    HW326689   2.606   0.493   3.071 -0.3390  1.2682 -1.4073
 6729SOL    MW426690   2.583   0.413   3.043  0.2903  0.5389  0.0688
 6730SOL     OW26691   0.188   1.764   0.989  0.7975 -0.2989  0.4394
 6730SOL    HW226692   0.240   1.697   0.945  0.9397  0.1293 -0.0539
 6730SOL    HW326693   0.098   1.732   0.984  0.6446  0.2999 -1.2485
 6730SOL    MW426694   0.183   1.751   0.983  0.7961 -0.1634  0.1516
 6731SOL     OW26695   1.812   0.845   4.628 -0.1816  0.2140  0.8406
 6731SOL    HW226696   1.753   0.780   4.591  1.3016 -0.8555  0.2602
 6731SOL    HW326697   1.840   0.897   4.553 -0.9193  1.1889  1.2207
 6731SOL    MW426698   1.808   0.843   4.613 -0.0832  0.2015  0.8142
 6732SOL     OW26699   0.179   3.055   0.142  0.3551  0.6114 -0.0796
 6732SOL    HW226700   0.222   2.976   0.176  0.7224 -0.1943 -2.2714
 6732SOL    HW326701   0.245   3.099   0.089 -0.9627  0.1667 -2.2444
 6732SOL    MW426702   0.193   3.050   0.139  0.2297  0.4465 -0.6544
 6733SOL     OW26703   2.414   1.094   2.024  0.2252 -0.2196  0.1432
 6733SOL    HW226704   2.459   1.022   1.980  0.2874 -0.2280  0.2209
 6733SOL    HW326705   2.372   1.053   2.099 -0.7544 -0.3986 -0.4859
 6733SOL    MW426706   2.414   1.079   2.028  0.1041 -0.2443  0.0704
 6734SOL     OW26707   3.883   4.608   1.618  0.4447 -0.0683 -0.1378
 6734SOL    HW226708   3.885   4.519   1.654  1.2201 -0.5179 -1.2674
 6734SOL    HW326709   3.948   4.656   1.669  0.1880 -0.1942  0.3198
 6734SOL    MW426710   3.892   4.603   1.630  0.5132 -0.1443 -0.2265
 6735SOL     OW26711   4.125   0.653   2.554 -0.1819 -0.2565 -0.2225
 6735SOL    HW226712   4.160   0.676   2.640  1.2871  1.7488 -1.2861
 6735SOL    HW326713   4.035   0.624   2.572 -0.2229  0.9879  1.8749
 6735SOL    MW426714   4.118   0.652   2.568  0.0065  0.1723 -0.0861
 6736SOL     OW26715   4.822   1.203   3.945  0.2019  0.3286  0.2544
 6736SOL    HW226716   4.790   1.263   4.014 -0.0345 -0.2216  0.6326
 6736SOL    HW326717   4.747   1.193   3.886  0.2480  0.4225  0.1799
 6736SOL    MW426718   4.808   1.210   3.947  0.1768  0.2684  0.2945
 6737SOL     OW26719   0.226   3.536   5.845 -0.2871  0.8592 -0.3369
 6737SOL    HW226720   0.301   3.594   5.829  0.5018  0.2800  1.0476
 6737SOL    HW326721   0.193   3.563   5.931 -1.2694  0.6723 -0.6450
 6737SOL    MW426722   0.232   3.547   5.854 -0.3126  0.7581 -0.1949
 6738SOL     OW26723   4.895   2.628   2.423  0.5302 -0.6448 -0.0312
 6738SOL    HW226724   4.844   2.681   2.363  0.1231 -1.5630 -0.5172
 6738SOL    HW326725   4.931   2.558   2.369  1.2450 -0.7398  0.5483
 6738SOL    MW426726   4.893   2.626   2.408  0.5708 -0.7785 -0.0189
 6739SOL     OW26727   1.281   4.677   1.508  0.0283  0.2909 -0.0570
 6739SOL    HW226728   1.334   4.713   1.579  0.0970 -0.6282  0.3754
 6739SOL    HW326729   1.313   4.722   1.430  2.0270 -0.7757  0.0732
 6739SOL    MW426730   1.292   4.687   1.507  0.3011  0.0289  0.0173
 6740SOL     OW26731   2.457   5.325   5.735  0.3330 -0.1195  0.3571
 6740SOL    HW226732   2.477   5.301   5.644  1.6136  0.7915  0.3633
 6740SOL    HW326733   2.452   5.421   5.734  3.3519  0.1828  1.7148
 6740SOL    MW426734   2.459   5.335   5.723  0.9003  0.0406  0.5371
 6741SOL     OW26735   5.995   0.985   6.029 -0.0813 -0.0254  0.4155
 6741SOL    HW226736   5.976   1.060   5.972  1.8716 -0.1533 -0.4835
 6741SOL    HW326737   5.916   0.932   6.026 -1.0094  1.3208  0.0014
 6741SOL    MW426738   5.982   0.988   6.021  0.0539  0.1354  0.2423
 6742SOL     OW26739   0.151   3.991   3.066 -0.3485  0.1924 -0.5557
 6742SOL    HW226740   0.064   3.955   3.048  0.1833 -1.2721 -0.3425
 6742SOL    HW326741   0.140   4.045   3.144 -0.6400 -1.9416  0.9600
 6742SOL    MW426742   0.138   3.993   3.074 -0.3168 -0.2823 -0.3276
 6743SOL     OW26743   2.938   2.556   3.467 -0.7416 -0.1875 -0.6548
 6743SOL    HW226744   3.004   2.494   3.500 -1.5695 -0.2113  1.0353
 6743SOL    HW326745   2.980   2.596   3.391  0.9996 -0.6436  0.0036
 6743SOL    MW426746   2.953   2.553   3.461 -0.6211 -0.2508 -0.3449
 6744SOL     OW26747   0.143   4.737   0.675  0.1743 -0.1756  0.0040
 6744SOL    HW226748   0.124   4.747   0.769 -0.8283 -0.9302 -0.1061
 6744SOL    HW326749   0.058   4.722   0.635  0.8235 -2.5053 -0.6658
 6744SOL    MW426750   0.129   4.736   0.682  0.1277 -0.5825 -0.0989
 6745SOL     OW26751   3.482   6.396   4.133 -0.1121  0.1635  0.5038
 6745SOL    HW226752   3.388   6.394   4.114  0.0495 -0.3802 -0.2981
 6745SOL    HW326753   3.522   6.421   4.050  0.2937  3.6149  1.5882
 6745SOL    MW426754   3.475   6.399   4.119 -0.0373  0.5471  0.5410
 6746SOL     OW26755   6.196   0.371   2.549  0.3808  0.0207  0.8826
 6746SOL    HW226756   6.143   0.415   2.616 -0.0062  1.8251 -0.5346
 6746SOL    HW326757   6.149   0.386   2.467  0.4237 -2.7985  0.2356
 6746SOL    MW426758   6.183   0.379   2.547  0.3354 -0.1132  0.6102
 6747SOL     OW26759   3.963   0.174   0.211  0.1886  0.2526  0.4041
 6747SOL    HW226760   4.052   0.140   0.220  0.4426  0.6555 -0.5044
 6747SOL    HW326761   3.969   0.239   0.141 -0.9768 -0.2528 -0.1784
 6747SOL    MW426762   3.975   0.178   0.203  0.0683  0.2391  0.2074
 6748SOL     OW26763   1.430   3.601   5.724 -0.1505  0.2294 -0.4481
 6748SOL    HW226764   1.418   3.522   5.671 -0.5969 -0.2865  0.3907
 6748SOL    HW326765   1.466   3.569   5.806 -0.5314  0.8778 -0.0240
 6748SOL    MW426766   1.433   3.587   5.728 -0.2597  0.2469 -0.2815
 6749SOL     OW26767   4.982   6.212   1.075  0.4608  0.2621  0.4364
 6749SOL    HW226768   4.970   6.117   1.078 -2.3172  0.4895 -0.6463
 6749SOL    HW326769   4.976   6.239   1.167  2.7758 -0.6881  0.9229
 6749SOL    MW426770   4.980   6.203   1.088  0.3997  0.1667  0.3577
 6750SOL     OW26771   2.318   5.955   5.678  0.0798  0.6991  0.2343
 6750SOL    HW226772   2.300   5.930   5.769 -0.9273 -1.9049 -0.5737
 6750SOL    HW326773   2.412   5.941   5.668  0.0357  0.0064  0.6574
 6750SOL    MW426774   2.328   5.950   5.689 -0.0589  0.2641  0.1835
 6751SOL     OW26775   5.344   1.133   1.138 -0.6838 -0.1539 -0.0195
 6751SOL    HW226776   5.301   1.047   1.136 -1.6491  0.3356 -0.4829
 6751SOL    HW326777   5.397   1.130   1.218 -0.6297 -1.2146 -0.0771
 6751SOL    MW426778   5.346   1.121   1.149 -0.8041 -0.2293 -0.0883
 6752SOL     OW26779   5.689   0.902   3.712 -0.3136  0.4827 -0.0080
 6752SOL    HW226780   5.614   0.884   3.656  1.2958 -1.9362 -1.6069
 6752SOL    HW326781   5.714   0.816   3.746  2.3837  0.9708 -0.4938
 6752SOL    MW426782   5.682   0.888   3.709  0.2546  0.2280 -0.2830
 6753SOL     OW26783   2.053   0.213   2.144  0.4319 -0.1933  0.0105
 6753SOL    HW226784   2.105   0.285   2.110 -0.7202 -0.8264 -3.4729
 6753SOL    HW326785   1.973   0.255   2.176  1.1366  0.3310  1.1456
 6753SOL    MW426786   2.049   0.228   2.144  0.3729 -0.2077 -0.2993
 6754SOL     OW26787   0.507   0.626   0.673  0.3128  0.6420 -0.7571
 6754SOL    HW226788   0.470   0.541   0.649  1.1146 -0.4382  1.4938
 6754SOL    HW326789   0.598   0.606   0.696  1.3014  2.5933 -2.6203
 6754SOL    MW426790   0.514   0.612   0.673  0.5490  0.7569 -0.7060
 6755SOL     OW26791   2.408   2.512   3.875  0.6690  0.1905 -0.1131
 6755SOL    HW226792   2.395   2.505   3.780 -1.1461  0.1475  0.1128
 6755SOL    HW326793   2.340   2.572   3.905  0.1457 -1.0725  1.3662
 6755SOL    MW426794   2.397   2.519   3.867  0.3605  0.0182  0.1119
 6756SOL     OW26795   3.991   3.223   2.835 -0.1448 -0.1929 -0.2097
 6756SOL    HW226796   4.040   3.243   2.914 -0.3987  0.2946 -0.1759
 6756SOL    HW326797   4.051   3.243   2.763  0.4054 -1.4630 -0.1435
 6756SOL    MW426798   4.006   3.228   2.836 -0.1057 -0.2962 -0.1965
 6757SOL     OW26799   3.663   5.317   6.374  0.4167  0.0456 -0.2532
 6757SOL    HW226800   3.707   5.246   6.327 -1.3435  0.2570 -2.3325
 6757SOL    HW326801   3.633   5.376   6.306 -0.7581  1.2762  1.2580
 6757SOL    MW426802   3.665   5.315   6.359  0.0295  0.2359 -0.3282
 6758SOL     OW26803   1.102   5.226   1.127 -0.0099 -0.7094  0.4128
 6758SOL    HW226804   1.066   5.139   1.145  1.4984 -1.5579 -0.4405
 6758SOL    HW326805   1.184   5.209   1.081  0.3260  1.1812  0.2206
 6758SOL    MW426806   1.108   5.212   1.123  0.2334 -0.5719  0.2749
 6759SOL     OW26807   6.119   3.206   0.018  0.1602  0.6756 -0.3326
 6759SOL    HW226808   6.031   3.173   0.039 -0.5040  2.5510  0.0673
 6759SOL    HW326809   6.103   3.270  -0.052  1.0855  1.6506  0.3278
 6759SOL    MW426810   6.105   3.210   0.011  0.1946  1.0517 -0.1927
 6760SOL     OW26811   2.243   4.644   0.678 -0.0086  0.3426  0.4225
 6760SOL    HW226812   2.172   4.608   0.625  0.4753 -0.0962  0.0599
 6760SOL    HW326813   2.264   4.728   0.637 -1.1087  1.0392  1.2428
 6760SOL    MW426814   2.237   4.651   0.665 -0.0899  0.3766  0.4828
 6761SOL     OW26815   3.421   3.270   3.770  0.2807  0.2538 -0.0934
 6761SOL    HW226816   3.391   3.180   3.760 -2.2389  0.8067  1.6425
 6761SOL    HW326817   3.475   3.269   3.850  1.2048  0.1203 -0.6984
 6761SOL    MW426818   3.424   3.258   3.779  0.0702  0.3092  0.0558
 6762SOL     OW26819   4.101   4.639   6.356  0.0231  0.3330  0.4219
 6762SOL    HW226820   4.052   4.578   6.411  0.4346 -0.4201 -0.0279
 6762SOL    HW326821   4.038   4.666   6.288 -0.5327  1.3868  1.3218
 6762SOL    MW426822   4.086   4.635   6.354  0.0041  0.3727  0.4813
 6763SOL     OW26823   4.666   5.848   4.011 -0.1675  0.1433  0.2220
 6763SOL    HW226824   4.719   5.908   4.064 -1.4098  4.0201 -2.5018
 6763SOL    HW326825   4.731   5.797   3.962  0.9358 -0.6211  2.3450
 6763SOL    MW426826   4.682   5.849   4.012 -0.1859  0.5539  0.1427
 6764SOL     OW26827   4.261   4.765   5.432  0.5379  0.4077 -0.7287
 6764SOL    HW226828   4.334   4.703   5.424  0.2637  0.0554 -0.4895
 6764SOL    HW326829   4.218   4.743   5.514 -1.3780 -1.0775 -2.0166
 6764SOL    MW426830   4.265   4.754   5.442  0.2490  0.1653 -0.8671
 6765SOL     OW26831   4.197   1.807   6.131 -0.0137  0.1613  0.5396
 6765SOL    HW226832   4.209   1.714   6.146  0.3147  0.2916  1.1224
 6765SOL    HW326833   4.286   1.841   6.120 -0.1280  0.4078  0.3726
 6765SOL    MW426834   4.210   1.799   6.132  0.0145  0.2110  0.5945
 6766SOL     OW26835   0.010   4.833   0.915  0.3561  0.2957  0.1547
 6766SOL    HW226836  -0.079   4.867   0.926 -0.2249 -1.4309  1.1383
 6766SOL    HW326837   0.061   4.875   0.984 -0.7751 -2.0724  2.5806
 6766SOL    MW426838   0.005   4.843   0.925  0.1302 -0.2445  0.6046
 6767SOL     OW26839   4.062   3.181   3.539  0.1643  0.0459  0.0238
 6767SOL    HW226840   4.115   3.241   3.486  1.3107 -0.7671  0.2060
 6767SOL    HW326841   4.104   3.095   3.528 -2.1247 -1.0264 -1.2046
 6767SOL    MW426842   4.075   3.177   3.531  0.0135 -0.2029 -0.1142
 6768SOL     OW26843   0.960   1.107   2.857 -0.1329  0.8344 -0.4845
 6768SOL    HW226844   1.025   1.050   2.816 -0.6309  0.3607 -0.6264
 6768SOL    HW326845   0.996   1.195   2.846  0.2235  0.6259 -1.0479
 6768SOL    MW426846   0.974   1.111   2.850 -0.1516  0.7444 -0.5775
 6769SOL     OW26847   0.457   3.131   1.122 -0.5368 -0.3516 -0.3908
 6769SOL    HW226848   0.481   3.081   1.200  1.4665 -1.1961 -1.4997
 6769SOL    HW326849   0.469   3.070   1.049 -0.3888  1.0342 -1.5597
 6769SOL    MW426850   0.461   3.116   1.123 -0.2529 -0.2802 -0.6913
 6770SOL     OW26851   2.704   0.382   0.729  0.1233 -0.6142 -0.1966
 6770SOL    HW226852   2.741   0.464   0.762 -0.9923  0.4410 -1.4595
 6770SOL    HW326853   2.630   0.409   0.675 -1.3926 -2.5614  0.7813
 6770SOL    MW426854   2.699   0.396   0.726 -0.2239 -0.7319 -0.2342
 6771SOL     OW26855   2.555   1.981   4.285  0.1601 -0.2653 -0.0790
 6771SOL    HW226856   2.632   1.946   4.329  1.7085  0.8144 -1.7953
 6771SOL    HW326857   2.508   2.029   4.353  0.0296 -2.3523  1.3924
 6771SOL    MW426858   2.559   1.982   4.300  0.3471 -0.3982 -0.1113
 6772SOL     OW26859   4.454   0.337   1.676 -0.0305 -0.7899  0.1307
 6772SOL    HW226860   4.535   0.294   1.650  0.1696 -0.8626  0.8513
 6772SOL    HW326861   4.388   0.268   1.673 -0.3063 -0.4886 -1.5327
 6772SOL    MW426862   4.456   0.322   1.672 -0.0405 -0.7597  0.0063
 6773SOL     OW26863   2.073   5.782   6.018 -0.1631 -0.1625 -0.0119
 6773SOL    HW226864   2.028   5.720   6.075  3.3145  0.5796  4.0632
 6773SOL    HW326865   2.026   5.865   6.030 -1.4821 -0.7233 -1.0570
 6773SOL    MW426866   2.061   5.785   6.027  0.1217 -0.1386  0.3879
 6774SOL     OW26867   0.487   6.080   4.415 -0.1347 -0.2365  0.4150
 6774SOL    HW226868   0.426   6.107   4.483  1.7186 -1.0585  2.5378
 6774SOL    HW326869   0.570   6.065   4.461  1.2363 -0.8487 -2.0340
 6774SOL    MW426870   0.490   6.082   4.430  0.2907 -0.4257  0.3720
 6775SOL     OW26871   2.268   5.664   0.596 -0.5227  0.2592  0.8160
 6775SOL    HW226872   2.342   5.723   0.584  0.5476 -1.2460 -0.4148
 6775SOL    HW326873   2.210   5.684   0.522  0.2088 -0.6716 -0.0553
 6775SOL    MW426874   2.270   5.674   0.584 -0.2850 -0.0622  0.5386
 6776SOL     OW26875   1.673   5.588   2.184 -0.6384 -0.0250 -0.2853
 6776SOL    HW226876   1.603   5.523   2.185  0.4705 -1.2426  0.6507
 6776SOL    HW326877   1.714   5.581   2.270  3.7175 -2.8388 -2.2747
 6776SOL    MW426878   1.669   5.579   2.195  0.0826 -0.5569 -0.4243
 6777SOL     OW26879   2.643   6.118   3.172  0.1999  0.3422 -0.1209
 6777SOL    HW226880   2.680   6.099   3.259 -1.9728 -0.5275  0.6902
 6777SOL    HW326881   2.676   6.048   3.116 -1.4856 -1.4367  0.9944
 6777SOL    MW426882   2.653   6.107   3.176 -0.3091 -0.0073  0.1333
 6778SOL     OW26883   3.626   4.506   2.326 -0.2642 -0.3555  0.2832
 6778SOL    HW226884   3.694   4.469   2.381 -1.8166 -0.7304  2.0258
 6778SOL    HW326885   3.663   4.589   2.295  1.1013 -0.7227  0.8685
 6778SOL    MW426886   3.640   4.512   2.329 -0.2889 -0.4534  0.5903
 6779SOL     OW26887   5.002   3.123   1.275  0.0341  0.1004  0.2748
 6779SOL    HW226888   4.971   3.089   1.191 -0.5652 -1.1597  0.9782
 6779SOL    HW326889   5.018   3.216   1.259 -0.6181  0.0014 -1.0781
 6779SOL    MW426890   5.000   3.131   1.262 -0.1310 -0.0789  0.1891
 6780SOL     OW26891   1.097   1.319   4.734 -0.0517 -0.3029 -0.0410
 6780SOL    HW226892   1.049   1.399   4.757  1.2796  0.2027  1.1463
 6780SOL    HW326893   1.110   1.274   4.818  1.6152 -0.3559 -0.2937
 6780SOL    MW426894   1.092   1.324   4.748  0.3439 -0.2432  0.0823
 6781SOL     OW26895   3.628   4.540   3.801 -0.4313  0.2513  0.1528
 6781SOL    HW226896   3.647   4.454   3.763  0.4903 -0.4556  2.0800
 6781SOL    HW326897   3.714   4.580   3.813 -0.6690  0.3898  1.5467
 6781SOL    MW426898   3.642   4.534   3.798 -0.3411  0.1763  0.5910
 6782SOL     OW26899   3.921   6.378   0.595  0.0754  0.1011 -0.1329
 6782SOL    HW226900   3.901   6.293   0.555  1.9729 -0.0963 -0.7725
 6782SOL    HW326901   3.945   6.357   0.685 -0.2046  0.0622 -0.0656
 6782SOL    MW426902   3.921   6.364   0.602  0.2888  0.0700 -0.2084
 6783SOL     OW26903   0.365   2.639   2.163 -0.1827  0.0959 -0.1614
 6783SOL    HW226904   0.410   2.722   2.149  2.0421 -0.9897  0.0991
 6783SOL    HW326905   0.339   2.610   2.076  0.0769  0.5164 -0.3808
 6783SOL    MW426906   0.367   2.646   2.150  0.1451  0.0082 -0.1560
 6784SOL     OW26907   0.904   4.377   0.885  0.1523 -0.1657  0.6722
 6784SOL    HW226908   0.844   4.303   0.894 -1.1068  0.6279 -0.6842
 6784SOL    HW326909   0.853   4.453   0.913  0.4607  0.5465 -0.5815
 6784SOL    MW426910   0.889   4.377   0.890  0.0269  0.0330  0.3278
 6785SOL     OW26911   2.409   1.398   2.692 -0.2075  0.0809  0.0294
 6785SOL    HW226912   2.453   1.368   2.772  0.4984  0.5353 -0.1794
 6785SOL    HW326913   2.478   1.440   2.641 -0.0820 -2.3306 -1.9540
 6785SOL    MW426914   2.424   1.400   2.696 -0.0978 -0.1773 -0.2598
 6786SOL     OW26915   2.122   1.743   0.410 -0.0916  0.3078  0.3328
 6786SOL    HW226916   2.073   1.733   0.492 -0.0252 -1.1482  0.2200
 6786SOL    HW326917   2.144   1.654   0.385  2.2863  0.8830  0.1584
 6786SOL    MW426918   2.118   1.730   0.418  0.2309  0.1916  0.2949
 6787SOL     OW26919   1.707   5.736   4.987 -0.0082  0.4783 -0.1446
 6787SOL    HW226920   1.618   5.737   5.022 -0.4650  0.3412 -1.2637
 6787SOL    HW326921   1.737   5.646   4.998 -0.1085  0.4638  0.0063
 6787SOL    MW426922   1.699   5.724   4.993 -0.0817  0.4583 -0.2724
 6788SOL     OW26923   0.084   0.176   3.370  0.1478  0.4257 -0.2843
 6788SOL    HW226924   0.176   0.179   3.395  0.0846  2.0142 -0.1905
 6788SOL    HW326925   0.081   0.209   3.280 -0.3930  0.9898 -0.0691
 6788SOL    MW426926   0.095   0.180   3.362  0.0681  0.7097 -0.2436
 6789SOL     OW26927   1.129   1.916   1.784 -0.4696  0.6684  0.2927
 6789SOL    HW226928   1.148   1.982   1.851 -0.7879  0.6798  0.3758
 6789SOL    HW326929   1.157   1.833   1.823  0.5555  0.8341 -0.0775
 6789SOL    MW426930   1.135   1.914   1.798 -0.3764  0.6918  0.2548
 6790SOL     OW26931   5.368   0.572   5.430 -0.1576  0.2134 -0.4032
 6790SOL    HW226932   5.368   0.497   5.489  0.1390  0.5064 -0.0265
 6790SOL    HW326933   5.300   0.630   5.465  0.2381  0.5333 -0.1615
 6790SOL    MW426934   5.359   0.570   5.442 -0.0662  0.2943 -0.3216
 6791SOL     OW26935   1.372   3.811   1.833 -0.0466  0.2895  0.7843
 6791SOL    HW226936   1.437   3.741   1.833  0.5655  0.7131 -2.3986
 6791SOL    HW326937   1.405   3.875   1.897  1.6734 -0.3634  0.5909
 6791SOL    MW426938   1.385   3.810   1.842  0.2611  0.2592  0.3388
 6792SOL     OW26939   3.476   5.564   4.864 -0.1836  0.6180 -0.2496
 6792SOL    HW226940   3.559   5.610   4.854 -0.3031  0.7488 -0.6277
 6792SOL    HW326941   3.467   5.552   4.959  0.1766  0.7639 -0.1952
 6792SOL    MW426942   3.486   5.568   4.875 -0.1519  0.6545 -0.2923
 6793SOL     OW26943   3.824   6.048   6.108  0.1292 -0.0493 -0.2344
 6793SOL    HW226944   3.898   6.002   6.069  1.3426  0.0205  1.8390
 6793SOL    HW326945   3.844   6.051   6.202 -2.7198 -0.4047  0.4817
 6793SOL    MW426946   3.837   6.042   6.116 -0.0866 -0.0870  0.1337
 6794SOL     OW26947   4.243   2.628   0.654 -0.7277  0.3120  0.3740
 6794SOL    HW226948   4.330   2.644   0.692 -0.8210  2.2921 -0.1384
 6794SOL    HW326949   4.261   2.608   0.562 -0.7994  1.1100  0.1731
 6794SOL    MW426950   4.257   2.628   0.647 -0.7495  0.6786  0.2799
 6795SOL     OW26951   1.316   2.522   2.397  0.0090  0.4097  0.1477
 6795SOL    HW226952   1.347   2.534   2.307  0.8180  0.3075  0.4087
 6795SOL    HW326953   1.252   2.592   2.409  1.8628  2.1574  0.3640
 6795SOL    MW426954   1.312   2.533   2.387  0.3603  0.6268  0.2107
 6796SOL     OW26955   1.284   1.292   5.410 -0.0424  0.0472 -0.2528
 6796SOL    HW226956   1.343   1.217   5.410 -0.2773 -0.1419 -0.5555
 6796SOL    HW326957   1.208   1.263   5.359  0.0334  0.6197 -0.7124
 6796SOL    MW426958   1.282   1.279   5.403 -0.0634  0.0978 -0.3534
 6797SOL     OW26959   2.952   3.158   6.204  0.4874 -0.1408  0.5645
 6797SOL    HW226960   2.966   3.081   6.258 -2.2673  0.2849  2.0759
 6797SOL    HW326961   2.947   3.231   6.266 -0.9172  0.6440 -0.4145
 6797SOL    MW426962   2.953   3.157   6.219 -0.0614  0.0189  0.6348
 6798SOL     OW26963   4.763   4.063   3.632  0.3164  0.4406 -0.1322
 6798SOL    HW226964   4.838   4.004   3.641 -1.3949 -1.5269  3.5212
 6798SOL    HW326965   4.702   4.015   3.577  1.8057  2.4202 -3.8795
 6798SOL    MW426966   4.765   4.049   3.626  0.2871  0.4422 -0.1446
 6799SOL     OW26967   5.090   0.482   0.733 -1.0062 -1.2224 -0.0344
 6799SOL    HW226968   5.010   0.492   0.784 -0.8114  0.5021 -0.0063
 6799SOL    HW326969   5.144   0.422   0.784 -1.4027 -0.6646  1.0654
 6799SOL    MW426970   5.087   0.475   0.746 -1.0328 -0.9213  0.1144
 6800SOL     OW26971   6.066   3.066   5.300  0.5677 -0.1292 -0.3803
 6800SOL    HW226972   5.992   3.017   5.337  1.8011 -0.6271  1.6235
 6800SOL    HW326973   6.037   3.157   5.298 -0.4903 -0.4671 -0.7280
 6800SOL    MW426974   6.053   3.072   5.305  0.5909 -0.2395 -0.1618
 6801SOL     OW26975   2.915   6.063   5.021  0.0112 -0.7612 -0.1677
 6801SOL    HW226976   2.879   6.061   4.933  0.0287  0.9281 -0.2458
 6801SOL    HW326977   2.898   5.976   5.056 -2.3551 -0.6636 -0.9072
 6801SOL    MW426978   2.908   6.051   5.014 -0.2987 -0.5254 -0.2756
 6802SOL     OW26979   1.831   5.007   2.930  0.4498 -0.4709 -0.6903
 6802SOL    HW226980   1.812   5.050   3.013 -0.1604  0.3686 -1.2493
 6802SOL    HW326981   1.855   4.918   2.954  1.3510  0.0592  0.4626
 6802SOL    MW426982   1.831   5.001   2.944  0.4882 -0.2902 -0.6119
 6803SOL     OW26983   5.487   1.127   5.280 -0.6113 -0.0629 -0.1543
 6803SOL    HW226984   5.483   1.155   5.188  2.8585 -1.5194 -0.9319
 6803SOL    HW326985   5.433   1.048   5.283  0.2029 -0.7072 -1.3359
 6803SOL    MW426986   5.479   1.120   5.268 -0.0461 -0.3401 -0.4128
 6804SOL     OW26987   3.124   0.484   2.209  0.3209  0.0893 -0.2377
 6804SOL    HW226988   3.203   0.510   2.162  0.8441 -1.4875 -0.2863
 6804SOL    HW326989   3.052   0.505   2.149  0.6731  1.5268 -0.1975
 6804SOL    MW426990   3.125   0.491   2.195  0.4364  0.0709 -0.2388
 6805SOL     OW26991   3.610   2.617   0.028 -0.0983  0.3992 -0.2742
 6805SOL    HW226992   3.704   2.614   0.010  0.2873  1.3281  1.3623
 6805SOL    HW326993   3.578   2.693  -0.020  0.1104  0.4177 -0.3832
 6805SOL    MW426994   3.618   2.626   0.019 -0.0199  0.5242 -0.0726
 6806SOL     OW26995   0.107   2.313   5.574 -0.3743 -0.2548  0.6988
 6806SOL    HW226996   0.189   2.324   5.622 -0.2986 -1.0732  0.7611
 6806SOL    HW326997   0.041   2.304   5.643 -0.2296 -1.7118  0.6721
 6806SOL    MW426998   0.109   2.314   5.589 -0.3452 -0.5550  0.7035
 6807SOL     OW26999   1.705   4.920   0.103  0.5654 -0.6751 -0.2080
 6807SOL    HW227000   1.718   4.831   0.070 -1.2494 -0.7542 -0.7836
 6807SOL    HW327001   1.621   4.916   0.149  2.0145 -0.0622  2.7436
 6807SOL    MW427002   1.696   4.907   0.105  0.5172 -0.6047  0.1055
 6808SOL     OW27003   3.219   4.503   4.651 -0.1856 -0.1579  0.0898
 6808SOL    HW227004   3.245   4.571   4.713  1.5475 -0.0800 -0.6454
 6808SOL    HW327005   3.290   4.501   4.587 -1.5031 -0.8234 -1.4155
 6808SOL    MW427006   3.232   4.511   4.651 -0.1308 -0.2354 -0.2058
 6809SOL     OW27007   1.921   1.780   1.639 -0.7025  0.4494 -0.3715
 6809SOL    HW227008   1.988   1.746   1.697 -1.2485  0.6595  0.3986
 6809SOL    HW327009   1.963   1.782   1.553 -0.6771 -2.2276 -0.4887
 6809SOL    MW427010   1.935   1.776   1.635 -0.7712  0.1239 -0.2854
 6810SOL     OW27011   0.674   6.186   0.189  0.3894 -0.3639 -0.3236
 6810SOL    HW227012   0.616   6.111   0.177  1.2416 -1.1165  0.1252
 6810SOL    HW327013   0.623   6.248   0.242 -0.5207 -0.3676 -1.1598
 6810SOL    MW427014   0.659   6.184   0.195  0.3817 -0.4637 -0.3747
 6811SOL     OW27015   2.225   1.682   5.730 -0.6373 -0.4773  0.6374
 6811SOL    HW227016   2.249   1.615   5.793 -0.5747 -1.0263  0.0449
 6811SOL    HW327017   2.308   1.706   5.688 -0.9373 -1.6109 -0.6721
 6811SOL    MW427018   2.239   1.677   5.733 -0.6686 -0.6993  0.3864
 6812SOL     OW27019   0.192   2.845   2.451  0.7003  0.5565 -0.0216
 6812SOL    HW227020   0.159   2.815   2.366  1.7870  0.1975 -0.3350
 6812SOL    HW327021   0.272   2.892   2.429  1.0059  0.4295  0.8142
 6812SOL    MW427022   0.198   2.847   2.437  0.8840  0.4924  0.0473
 6813SOL     OW27023   1.194   5.613   1.038  0.0101 -0.0050  0.4419
 6813SOL    HW227024   1.199   5.621   0.943 -0.1725  1.9251  0.5506
 6813SOL    HW327025   1.131   5.681   1.064  2.4111  1.6988  2.1895
 6813SOL    MW427026   1.186   5.623   1.029  0.3028  0.4744  0.6868
 6814SOL     OW27027   0.751   1.544   1.979  0.0158 -0.4333  0.4448
 6814SOL    HW227028   0.811   1.525   2.051 -1.3640 -1.3582  1.3968
 6814SOL    HW327029   0.703   1.622   2.007  0.0625 -0.2854  0.1269
 6814SOL    MW427030   0.752   1.552   1.992 -0.1601 -0.5358  0.5285
 6815SOL     OW27031   0.920   1.958   0.585  0.3409 -0.4363 -0.0371
 6815SOL    HW227032   1.007   1.995   0.601  1.6485 -1.7198 -3.1504
 6815SOL    HW327033   0.938   1.880   0.532 -2.7315 -0.8426 -0.6436
 6815SOL    MW427034   0.934   1.952   0.580  0.1080 -0.6592 -0.5279
 6816SOL     OW27035   1.524   0.885   0.997  0.2231  0.8267 -0.1629
 6816SOL    HW227036   1.490   0.798   0.977 -0.0283  0.6669  0.8672
 6816SOL    HW327037   1.516   0.934   0.915 -4.7466  1.5348  0.4543
 6816SOL    MW427038   1.518   0.880   0.984 -0.4658  0.8991  0.0544
 6817SOL     OW27039   1.889   1.458   2.553  0.3934 -0.4004 -0.4299
 6817SOL    HW227040   1.884   1.534   2.496 -2.1765 -0.3559 -0.2472
 6817SOL    HW327041   1.894   1.383   2.494 -0.6918 -0.2664 -0.7075
 6817SOL    MW427042   1.889   1.458   2.538 -0.0888 -0.3768 -0.4424
 6818SOL     OW27043   2.926   0.536   2.017  0.0527  0.0398  0.3204
 6818SOL    HW227044   2.833   0.535   2.039 -0.5455  2.8616 -1.4153
 6818SOL    HW327045   2.932   0.597   1.943  3.0993 -1.2575 -0.6729
 6818SOL    MW427046   2.915   0.544   2.010  0.3757  0.2409 -0.0396
 6819SOL     OW27047   2.157   2.630   5.881 -0.5227  0.3042 -0.1637
 6819SOL    HW227048   2.151   2.705   5.940  0.2394 -0.3384  0.7649
 6819SOL    HW327049   2.111   2.658   5.801 -2.0458  1.0072  0.9060
 6819SOL    MW427050   2.150   2.643   5.878 -0.6231  0.3122  0.1000
 6820SOL     OW27051   0.878   3.464   3.596 -0.2903 -0.3521  0.4409
 6820SOL    HW227052   0.896   3.491   3.506 -0.8750 -1.8857 -0.1661
 6820SOL    HW327053   0.816   3.392   3.588 -1.0650  0.0672  2.1228
 6820SOL    MW427054   0.872   3.458   3.583 -0.4696 -0.4991  0.5827
 6821SOL     OW27055   3.375   2.432   0.459  0.3726 -0.1632  0.6098
 6821SOL    HW227056   3.361   2.517   0.501 -0.6262  0.0968 -0.2033
 6821SOL    HW327057   3.316   2.433   0.384  0.3927 -1.5536  0.5531
 6821SOL    MW427058   3.365   2.443   0.455  0.2434 -0.3123  0.4950
 6822SOL     OW27059   3.311   6.336   5.193  0.5223 -0.4308 -0.2809
 6822SOL    HW227060   3.394   6.352   5.148  1.7186 -0.8154  1.6714
 6822SOL    HW327061   3.310   6.398   5.266 -1.5511  0.4753 -0.9944
 6822SOL    MW427062   3.321   6.346   5.197  0.4065 -0.3620 -0.1174
 6823SOL     OW27063   4.770   2.345   5.000  0.2789 -0.1664 -0.1616
 6823SOL    HW227064   4.833   2.394   5.051 -1.9545  2.2793  0.4600
 6823SOL    HW327065   4.729   2.286   5.063 -0.7802  1.1225  0.4105
 6823SOL    MW427066   4.773   2.343   5.015 -0.1555  0.3263 -0.0041
 6824SOL     OW27067   4.608   3.360   1.306  0.5498  0.5812  0.3987
 6824SOL    HW227068   4.590   3.315   1.388  2.7037 -0.3601  0.4342
 6824SOL    HW327069   4.646   3.444   1.333 -1.5406  1.5920  0.3280
 6824SOL    MW427070   4.611   3.365   1.320  0.5582  0.5904  0.3940
 6825SOL     OW27071   3.716   0.706   4.318  0.1671 -0.4556 -0.0685
 6825SOL    HW227072   3.711   0.769   4.247  0.5263 -1.4605 -1.0125
 6825SOL    HW327073   3.748   0.626   4.277  0.4124 -1.0497  1.2343
 6825SOL    MW427074   3.719   0.704   4.303  0.2468 -0.6666 -0.0212
 6826SOL     OW27075   0.800   2.629   1.677  0.0581  0.2620  0.4401
 6826SOL    HW227076   0.876   2.627   1.735 -0.0671 -0.8290  0.5743
 6826SOL    HW327077   0.738   2.569   1.717  0.4651 -1.5650 -1.4992
 6826SOL    MW427078   0.802   2.621   1.690  0.0953 -0.1230  0.2019
 6827SOL     OW27079   1.893   5.832   3.392 -0.3549 -0.7616  0.2436
 6827SOL    HW227080   1.807   5.871   3.372 -0.0823 -0.5151 -0.4644
 6827SOL    HW327081   1.951   5.867   3.325  0.5663 -0.0258  1.4011
 6827SOL    MW427082   1.889   5.842   3.381 -0.1974 -0.6320  0.3029
 6828SOL     OW27083   2.946   3.788   6.381 -0.1819  0.0215 -0.7167
 6828SOL    HW227084   2.873   3.804   6.321  0.2578  2.6573 -0.6455
 6828SOL    HW327085   2.908   3.738   6.453 -1.3440 -0.7475 -1.8158
 6828SOL    MW427086   2.931   3.783   6.382 -0.2772  0.2678 -0.8523
 6829SOL     OW27087   0.120   2.798   1.424 -0.8486  0.2109  0.2277
 6829SOL    HW227088   0.165   2.751   1.495 -1.1862  0.8285  0.8664
 6829SOL    HW327089   0.082   2.874   1.467 -0.0340  1.2504 -0.8461
 6829SOL    MW427090   0.121   2.802   1.439 -0.7857  0.4296  0.1703
 6830SOL     OW27091   5.051   3.872   1.727 -0.3616  0.3994  0.0967
 6830SOL    HW227092   4.976   3.849   1.782 -0.8088  0.5507 -0.4464
 6830SOL    HW327093   5.118   3.808   1.750 -0.6957  0.1859  0.4930
 6830SOL    MW427094   5.050   3.861   1.737 -0.4647  0.3912  0.0774
 6831SOL     OW27095   3.678   4.269   3.697 -0.4810 -0.3212  0.0544
 6831SOL    HW227096   3.710   4.183   3.725 -1.4168  0.3103  3.5546
 6831SOL    HW327097   3.582   4.262   3.704 -0.5389  1.2818  1.6480
 6831SOL    MW427098   3.669   4.256   3.702 -0.6121 -0.0264  0.7265
 6832SOL     OW27099   3.484   5.789   4.286 -0.0448  0.2300 -0.1891
 6832SOL    HW227100   3.451   5.764   4.372  1.0080 -0.9030 -0.0925
 6832SOL    HW327101   3.532   5.871   4.302 -0.3681  0.3500  0.1807
 6832SOL    MW427102   3.486   5.797   4.300  0.0515  0.0963 -0.1276
 6833SOL     OW27103   0.294   4.721   1.928  0.1213 -0.1448  0.6061
 6833SOL    HW227104   0.297   4.702   1.834  2.5930 -0.0138  0.5787
 6833SOL    HW327105   0.221   4.669   1.961  0.9757 -2.4874 -0.9408
 6833SOL    MW427106   0.285   4.711   1.920  0.5601 -0.4366  0.3984
 6834SOL     OW27107   2.087   2.869   6.067  0.2909  0.0957 -0.4366
 6834SOL    HW227108   2.016   2.888   6.006 -1.0058 -1.0633  0.6501
 6834SOL    HW327109   2.159   2.925   6.038 -1.1612  1.5681 -1.3610
 6834SOL    MW427110   2.087   2.879   6.055 -0.0718  0.1371 -0.4152
 6835SOL     OW27111   3.298   4.951   1.025  0.0923 -0.1691  0.2257
 6835SOL    HW227112   3.229   5.009   0.992 -0.4017 -1.4232 -1.0634
 6835SOL    HW327113   3.363   5.010   1.064 -1.6917  1.0423  1.4995
 6835SOL    MW427114   3.298   4.967   1.026 -0.2082 -0.1747  0.2237
 6836SOL     OW27115   3.206   1.962   3.376 -0.0207  0.3546 -0.6804
 6836SOL    HW227116   3.207   1.868   3.393 -0.9477  0.4962  0.2797
 6836SOL    HW327117   3.114   1.983   3.363 -0.0420  1.4140  0.9038
 6836SOL    MW427118   3.194   1.952   3.376 -0.1458  0.5130 -0.3447
 6837SOL     OW27119   3.604   5.599   3.697 -0.5319 -0.1807 -0.3687
 6837SOL    HW227120   3.667   5.560   3.757 -1.9267  0.2206  1.4463
 6837SOL    HW327121   3.520   5.558   3.720 -1.0207 -0.5728 -2.5885
 6837SOL    MW427122   3.601   5.588   3.708 -0.7804 -0.1795 -0.4221
 6838SOL     OW27123   0.540   5.128   2.811  0.1975 -0.1301  0.2252
 6838SOL    HW227124   0.472   5.063   2.795  1.0452 -1.1395  0.6127
 6838SOL    HW327125   0.571   5.152   2.723 -0.3953  0.0507  0.0637
 6838SOL    MW427126   0.535   5.122   2.797  0.2311 -0.2394  0.2550
 6839SOL     OW27127   2.106   0.348   0.863 -0.1920 -0.0540 -0.4906
 6839SOL    HW227128   2.153   0.404   0.925 -1.7803 -0.3324  1.0721
 6839SOL    HW327129   2.123   0.259   0.893  0.4100 -0.3075 -1.5318
 6839SOL    MW427130   2.115   0.344   0.875 -0.3221 -0.1242 -0.4218
 6840SOL     OW27131   5.430   2.567   6.381  0.3520 -0.1519 -0.1319
 6840SOL    HW227132   5.505   2.602   6.332 -0.2530  2.5708  0.7109
 6840SOL    HW327133   5.363   2.552   6.314  1.0121 -0.8260 -0.6566
 6840SOL    MW427134   5.431   2.570   6.365  0.3593  0.1184 -0.0899
 6841SOL     OW27135   0.067   3.936   5.521 -1.0841 -0.2257  0.1900
 6841SOL    HW227136   0.023   3.965   5.600 -0.2672  1.0223  0.2167
 6841SOL    HW327137   0.089   3.844   5.538  0.4536  0.4173  2.0924
 6841SOL    MW427138   0.064   3.927   5.533 -0.7735  0.0238  0.4445
 6842SOL     OW27139   5.136   2.879   1.275  0.2596  1.4458 -0.4124
 6842SOL    HW227140   5.146   2.838   1.361  0.2043  2.0470 -0.1175
 6842SOL    HW327141   5.109   2.969   1.294  1.6122  2.0091 -1.0148
 6842SOL    MW427142   5.134   2.885   1.289  0.4308  1.5994 -0.4530
 6843SOL     OW27143   3.686   3.270   0.756  0.0329  0.5490 -0.1655
 6843SOL    HW227144   3.709   3.355   0.718 -0.2982  1.6643  1.9406
 6843SOL    HW327145   3.595   3.279   0.783 -0.1919 -0.6993 -0.4386
 6843SOL    MW427146   3.677   3.282   0.754 -0.0404  0.5315  0.0764
 6844SOL     OW27147   5.399   4.233   3.262  0.6003 -0.4779 -0.1293
 6844SOL    HW227148   5.416   4.244   3.168  0.6656 -0.2353 -0.0901
 6844SOL    HW327149   5.382   4.322   3.293  2.4225 -0.2839  0.4409
 6844SOL    MW427150   5.399   4.246   3.253  0.8494 -0.4203 -0.0489
 6845SOL     OW27151   4.581   0.838   3.787 -0.1975  0.1609 -0.8133
 6845SOL    HW227152   4.575   0.933   3.781 -3.0491  0.0713 -0.7627
 6845SOL    HW327153   4.660   0.822   3.838  0.2091  2.5092 -0.5974
 6845SOL    MW427154   4.590   0.848   3.793 -0.5201  0.4589 -0.7781
 6846SOL     OW27155   5.254   5.348   0.740  0.2929 -0.1887  0.6825
 6846SOL    HW227156   5.347   5.369   0.734  0.2278 -0.1912 -0.3695
 6846SOL    HW327157   5.228   5.324   0.651 -0.7384 -0.0984  0.9447
 6846SOL    MW427158   5.263   5.348   0.728  0.1483 -0.1771  0.5783
 6847SOL     OW27159   5.361   0.616   1.662 -0.2342  0.2509  0.2612
 6847SOL    HW227160   5.313   0.600   1.743  0.1265 -0.2321  0.3877
 6847SOL    HW327161   5.398   0.531   1.638  1.4595  0.7968  0.7648
 6847SOL    MW427162   5.360   0.603   1.669  0.0368  0.2592  0.3443
 6848SOL     OW27163   3.649   3.443   2.028  0.5468 -0.1029  0.2308
 6848SOL    HW227164   3.701   3.433   1.949  1.3798  0.0014  0.7609
 6848SOL    HW327165   3.558   3.448   1.996  0.8120 -0.7424 -0.6555
 6848SOL    MW427166   3.644   3.442   2.013  0.6917 -0.1735  0.1838
 6849SOL     OW27167   0.584   0.975   2.480 -0.2687 -0.0314  0.1574
 6849SOL    HW227168   0.539   0.957   2.563 -1.2473 -0.8205 -0.5150
 6849SOL    HW327169   0.637   0.896   2.464  0.3105  0.3278  0.2675
 6849SOL    MW427170   0.585   0.962   2.489 -0.3214 -0.0881  0.0832
 6850SOL     OW27171   5.042   5.652   3.769 -0.1054  0.7324 -0.7197
 6850SOL    HW227172   5.108   5.721   3.772 -0.2325  0.9374  2.9200
 6850SOL    HW327173   4.959   5.700   3.759 -0.1965  1.2992  1.8217
 6850SOL    MW427174   5.039   5.668   3.768 -0.1342  0.8342  0.0958
 6851SOL     OW27175   2.281   0.176   1.892  0.1214  0.0298  0.8604
 6851SOL    HW227176   2.246   0.088   1.907 -0.4002  0.1217  0.2042
 6851SOL    HW327177   2.339   0.166   1.816 -2.9661  0.9744 -1.8057
 6851SOL    MW427178   2.284   0.163   1.884 -0.3548  0.1666  0.4221
 6852SOL     OW27179   6.246   1.508   4.776  0.0664 -0.5872  0.1659
 6852SOL    HW227180   6.340   1.523   4.776  0.0604 -0.5228 -0.2159
 6852SOL    HW327181   6.211   1.574   4.715 -0.3650  0.2070  1.2368
 6852SOL    MW427182   6.254   1.519   4.768  0.0087 -0.4739  0.2568
 6853SOL     OW27183   4.253   3.827   1.480  0.0687 -0.0328 -0.0440
 6853SOL    HW227184   4.313   3.834   1.406  0.0882  1.9169  0.0815
 6853SOL    HW327185   4.193   3.901   1.469 -0.2273  0.0205  1.6142
 6853SOL    MW427186   4.253   3.838   1.469  0.0323  0.2314  0.1914
 6854SOL     OW27187   3.234   2.937   0.154  0.3602  0.0310 -0.3561
 6854SOL    HW227188   3.228   2.990   0.233 -1.4313  0.7672 -0.9319
 6854SOL    HW327189   3.238   2.847   0.187  0.9544  0.3792  0.5810
 6854SOL    MW427190   3.234   2.932   0.169  0.2022  0.1741 -0.3085
 6855SOL     OW27191   5.688   1.243   4.634  0.3286  0.0072  0.2881
 6855SOL    HW227192   5.640   1.312   4.681  1.0990  0.9729 -0.3067
 6855SOL    HW327193   5.659   1.162   4.675 -1.1531  0.6173  0.5342
 6855SOL    MW427194   5.678   1.241   4.645  0.2347  0.2151  0.2421
 6856SOL     OW27195   5.929   1.971   6.389 -0.0629  0.8443 -0.2250
 6856SOL    HW227196   5.837   2.000   6.386  0.5255  2.8374 -0.4403
 6856SOL    HW327197   5.931   1.891   6.337 -1.5978  1.0110 -0.5843
 6856SOL    MW427198   5.917   1.964   6.382 -0.1878  1.1292 -0.3008
 6857SOL     OW27199   1.888   4.689   5.300 -0.5410 -0.0531 -0.0841
 6857SOL    HW227200   1.833   4.639   5.361  0.4667 -1.9061 -0.6183
 6857SOL    HW327201   1.903   4.629   5.227  1.8467  0.4977 -0.1311
 6857SOL    MW427202   1.883   4.674   5.298 -0.0930 -0.2249 -0.1608
 6858SOL     OW27203   1.305   3.537   1.055  0.2928 -0.7195 -0.1124
 6858SOL    HW227204   1.254   3.607   1.096  0.1134 -2.8121  3.6582
 6858SOL    HW327205   1.386   3.580   1.028 -0.9513  1.4557 -0.6064
 6858SOL    MW427206   1.309   3.552   1.057  0.1050 -0.7086  0.3199
 6859SOL     OW27207   5.569   4.117   2.144 -0.0329  0.2570  0.5125
 6859SOL    HW227208   5.536   4.047   2.087 -0.7219 -0.8899  2.2436
 6859SOL    HW327209   5.572   4.194   2.087 -0.1791 -0.9459 -1.2040
 6859SOL    MW427210   5.565   4.118   2.129 -0.1431 -0.0531  0.5145
 6860SOL     OW27211   5.041   0.568   6.005  0.3143  0.2051 -0.0114
 6860SOL    HW227212   4.980   0.624   6.053 -1.1713 -0.5266 -0.9484
 6860SOL    HW327213   5.114   0.554   6.064 -0.8003  0.4762  1.4785
 6860SOL    MW427214   5.043   0.574   6.019 -0.0288  0.1443  0.0616
 6861SOL     OW27215   1.683   4.860   1.074 -0.3741 -0.1703  0.0796
 6861SOL    HW227216   1.626   4.790   1.104 -0.4885  0.3181  1.0518
 6861SOL    HW327217   1.702   4.911   1.153 -0.2264  0.8401 -0.5904
 6861SOL    MW427218   1.678   4.858   1.088 -0.3697  0.0275  0.1194
 6862SOL     OW27219   3.212   3.413   3.270 -0.7162  0.2809  0.0652
 6862SOL    HW227220   3.191   3.506   3.266 -1.2221  0.1350 -1.0140
 6862SOL    HW327221   3.295   3.405   3.222  0.2937  0.4220  1.7290
 6862SOL    MW427222   3.220   3.424   3.263 -0.6497  0.2803  0.1423
 6863SOL     OW27223   0.949   3.226   1.189  0.2175  0.2956 -0.0801
 6863SOL    HW227224   0.971   3.159   1.254 -0.1510  0.1449 -0.1112
 6863SOL    HW327225   0.901   3.292   1.239  0.2212  0.3390 -0.1347
 6863SOL    MW427226   0.946   3.226   1.204  0.1694  0.2815 -0.0914
 6864SOL     OW27227   3.953   6.375   6.197  0.3412  0.1351  1.0216
 6864SOL    HW227228   3.925   6.400   6.285 -0.2463  0.9102  0.6178
 6864SOL    HW327229   4.048   6.387   6.198  0.1564  1.8035  1.0404
 6864SOL    MW427230   3.962   6.380   6.209  0.2393  0.4575  0.9708
 6865SOL     OW27231   5.350   3.938   2.333  0.1391  0.1122  0.1038
 6865SOL    HW227232   5.303   4.021   2.337  1.1709  0.7753 -0.6734
 6865SOL    HW327233   5.357   3.909   2.424 -2.0831 -0.2366  0.2118
 6865SOL    MW427234   5.345   3.945   2.345 -0.0180  0.1537  0.0155
 6866SOL     OW27235   4.665   4.304   4.015 -0.7194  0.0371 -0.3604
 6866SOL    HW227236   4.630   4.217   3.998 -1.4940  0.2220  0.2170
 6866SOL    HW327237   4.759   4.295   4.004 -0.7630 -0.9496  0.0162
 6866SOL    MW427238   4.673   4.292   4.011 -0.8273 -0.0687 -0.2346
 6867SOL     OW27239   4.217   6.242   5.373 -0.2120  0.6151  0.4647
 6867SOL    HW227240   4.123   6.253   5.360  0.0892  1.5474 -1.1691
 6867SOL    HW327241   4.242   6.312   5.432 -0.5513  0.2926  0.9986
 6867SOL    MW427242   4.208   6.252   5.379 -0.2170  0.6955  0.3196
 6868SOL     OW27243   0.994   2.583  -0.009  0.8584  0.3667  0.4033
 6868SOL    HW227244   0.994   2.547   0.079 -1.0836 -1.1828 -0.1448
 6868SOL    HW327245   0.926   2.650  -0.008 -1.6386 -1.9593 -0.6405
 6868SOL    MW427246   0.985   2.587   0.002  0.2727 -0.1447  0.1933
 6869SOL     OW27247   3.894   4.076   4.580 -0.2376 -0.1959 -0.6499
 6869SOL    HW227248   3.835   4.008   4.546  1.6234 -1.8625 -0.7717
 6869SOL    HW327249   3.929   4.118   4.501 -0.0390 -0.3353 -0.6377
 6869SOL    MW427250   3.891   4.072   4.565  0.0342 -0.4342 -0.6643
 6870SOL     OW27251   4.525   6.240   2.678 -0.1604 -0.4315  0.2002
 6870SOL    HW227252   4.460   6.275   2.739 -0.6927 -0.4946 -0.3303
 6870SOL    HW327253   4.586   6.313   2.663 -0.2468 -0.2968  0.4971
 6870SOL    MW427254   4.525   6.254   2.684 -0.2420 -0.4220  0.1694
 6871SOL     OW27255   0.095   5.283   2.566 -0.4558 -0.0329 -0.1314
 6871SOL    HW227256   0.098   5.374   2.538 -0.9296  0.2786  0.7855
 6871SOL    HW327257   0.127   5.233   2.491 -1.4148  0.7869 -1.1179
 6871SOL    MW427258   0.100   5.288   2.553 -0.6448  0.1164 -0.1406
 6872SOL     OW27259   4.469   2.707   2.723  0.4669 -0.3241  0.4169
 6872SOL    HW227260   4.500   2.670   2.640  1.6656  0.9668  0.2356
 6872SOL    HW327261   4.398   2.766   2.698  1.6908  1.0831  0.0864
 6872SOL    MW427262   4.464   2.710   2.709  0.7865  0.0319  0.3494
 6873SOL     OW27263   3.287   0.775   3.726  0.4718 -0.3157  0.4884
 6873SOL    HW227264   3.334   0.758   3.808  0.6074 -0.6537  0.3403
 6873SOL    HW327265   3.304   0.867   3.708  1.5361 -0.5666  0.1436
 6873SOL    MW427266   3.295   0.785   3.735  0.6301 -0.3934  0.4234
 6874SOL     OW27267   2.802   3.203   4.365  0.3749 -0.6763 -0.2396
 6874SOL    HW227268   2.853   3.163   4.436  3.4522  1.9630 -0.7549
 6874SOL    HW327269   2.852   3.183   4.286 -1.9216 -1.8190 -1.4858
 6874SOL    MW427270   2.815   3.195   4.364  0.4779 -0.4789 -0.4720
 6875SOL     OW27271   3.271   2.331   0.190  0.3977 -0.4472  0.6677
 6875SOL    HW227272   3.178   2.344   0.207  0.0262 -0.8282 -0.9260
 6875SOL    HW327273   3.276   2.249   0.140  1.4688  0.1239 -0.2225
 6875SOL    MW427274   3.260   2.322   0.186  0.4900 -0.4221  0.3399
 6876SOL     OW27275   0.868   6.034   3.256  0.0315  0.0105  0.0700
 6876SOL    HW227276   0.918   6.003   3.332  1.1005 -3.5174 -1.8659
 6876SOL    HW327277   0.930   6.090   3.209 -0.1496  1.0274  0.9981
 6876SOL    MW427278   0.883   6.037   3.260  0.1486 -0.3208 -0.0630
 6877SOL     OW27279   1.750   5.702   4.697 -0.2465 -0.2675 -0.1993
 6877SOL    HW227280   1.719   5.685   4.786  3.7021  1.6941  1.8139
 6877SOL    HW327281   1.749   5.797   4.689  0.6242 -0.3633 -1.7562
 6877SOL    MW427282   1.746   5.712   4.708  0.3894 -0.0213 -0.1391
 6878SOL     OW27283   5.028   5.007   6.177 -0.3087 -0.1794 -0.1375
 6878SOL    HW227284   5.017   4.988   6.084 -0.9103  0.7884 -0.2743
 6878SOL    HW327285   4.949   4.972   6.218 -0.7472  0.7126 -0.2008
 6878SOL    MW427286   5.016   5.000   6.170 -0.4459  0.0660 -0.1639
 6879SOL     OW27287   3.581   0.566   0.892 -0.0741  0.1788 -0.2725
 6879SOL    HW227288   3.664   0.538   0.932 -0.2766  0.6429  0.4951
 6879SOL    HW327289   3.590   0.660   0.880 -1.3932  0.7100  2.1579
 6879SOL    MW427290   3.593   0.575   0.896 -0.2749  0.3101  0.1495
 6880SOL     OW27291   5.988   4.820   0.719 -0.2669 -0.1770  0.2306
 6880SOL    HW227292   5.918   4.768   0.758 -0.6613 -0.2513 -0.5517
 6880SOL    HW327293   5.944   4.876   0.656  0.3709 -0.2236 -0.2724
 6880SOL    MW427294   5.973   4.820   0.716 -0.2347 -0.1930  0.0610
 6881SOL     OW27295   1.909   5.654   5.813 -0.0353  0.8055  0.3148
 6881SOL    HW227296   1.937   5.562   5.806  1.6031  1.3881 -1.8700
 6881SOL    HW327297   1.975   5.695   5.868 -1.0634  0.6322  1.7460
 6881SOL    MW427298   1.921   5.647   5.819  0.0452  0.8595  0.2154
 6882SOL     OW27299   1.874   1.173   1.569  0.9920  0.0142  0.1826
 6882SOL    HW227300   1.869   1.268   1.581  3.0574  0.4674 -1.9165
 6882SOL    HW327301   1.816   1.155   1.496  0.7809 -0.3042  0.4300
 6882SOL    MW427302   1.866   1.183   1.561  1.2366  0.0320 -0.0617
 6883SOL     OW27303   3.648   5.649   5.799 -0.0397  0.2780 -0.0711
 6883SOL    HW227304   3.571   5.668   5.745  0.0997  0.3880 -0.2325
 6883SOL    HW327305   3.643   5.555   5.815  0.9863 -0.1489 -1.9494
 6883SOL    MW427306   3.637   5.639   5.794  0.1141  0.2362 -0.3402
 6884SOL     OW27307   2.991   0.574   1.074 -0.0579  0.1266 -0.8770
 6884SOL    HW227308   3.026   0.548   1.159  0.6362  1.8772 -0.5950
 6884SOL    HW327309   2.988   0.492   1.024  3.6439 -0.3568 -0.6411
 6884SOL    MW427310   2.995   0.560   1.079  0.5221  0.2938 -0.8087
 6885SOL     OW27311   5.973   2.873   3.055  0.9278  0.1165  0.0210
 6885SOL    HW227312   6.007   2.859   2.967  0.5890 -0.1484 -0.0720
 6885SOL    HW327313   6.032   2.937   3.095  0.3874  1.1468 -0.8060
 6885SOL    MW427314   5.985   2.880   3.049  0.8118  0.2175 -0.1004
 6886SOL     OW27315   5.925   5.519   2.998 -0.1472  0.8059 -0.1038
 6886SOL    HW227316   5.843   5.496   2.955 -0.4067 -1.3844  1.3708
 6886SOL    HW327317   5.900   5.542   3.087  0.8251 -0.5581  0.5702
 6886SOL    MW427318   5.911   5.519   3.004 -0.0532  0.3370  0.1797
 6887SOL     OW27319   4.048   3.326   0.775  0.3283 -0.4354 -0.0452
 6887SOL    HW227320   4.082   3.262   0.712 -0.1012 -0.8074  0.0922
 6887SOL    HW327321   3.996   3.274   0.836 -1.3291  0.2067 -0.8284
 6887SOL    MW427322   4.046   3.310   0.775  0.0530 -0.3998 -0.1304
 6888SOL     OW27323   2.493   4.428   3.419 -0.8818  0.0781 -0.5055
 6888SOL    HW227324   2.478   4.334   3.433  0.1614 -0.2374 -1.3213
 6888SOL    HW327325   2.487   4.466   3.507  1.2703 -1.1725  0.2820
 6888SOL    MW427326   2.490   4.420   3.433 -0.4602 -0.1286 -0.5092
 6889SOL     OW27327   3.818   0.783   4.999 -0.0960 -0.6076 -0.3565
 6889SOL    HW227328   3.875   0.749   4.929  0.6549  0.2803 -0.1948
 6889SOL    HW327329   3.736   0.734   4.989  0.2361 -0.9739 -1.4336
 6889SOL    MW427330   3.815   0.772   4.988  0.0469 -0.5388 -0.4773
 6890SOL     OW27331   6.073   2.418   5.863  0.8225 -0.7549 -0.1678
 6890SOL    HW227332   6.085   2.382   5.951 -0.2186 -1.8725 -0.4621
 6890SOL    HW327333   6.151   2.389   5.815  0.0665 -2.6022 -0.3646
 6890SOL    MW427334   6.085   2.410   5.868  0.5854 -1.1461 -0.2326
 6891SOL     OW27335   0.240   5.945   3.067  0.3786 -0.6766  0.2196
 6891SOL    HW227336   0.160   5.895   3.052  0.4475 -1.3706  1.9874
 6891SOL    HW327337   0.303   5.881   3.102  1.1160  0.2279  0.5973
 6891SOL    MW427338   0.238   5.930   3.069  0.4850 -0.6488  0.5027
 6892SOL     OW27339   4.243   1.295   0.139 -0.6305  0.3141 -0.1334
 6892SOL    HW227340   4.206   1.382   0.123  0.3144  0.9899  1.1729
 6892SOL    HW327341   4.167   1.237   0.148 -1.2947  1.2033  0.0669
 6892SOL    MW427342   4.228   1.299   0.138 -0.5935  0.5206  0.0654
 6893SOL     OW27343   0.087   1.690   6.326 -0.2492  1.1177 -0.0317
 6893SOL    HW227344   0.102   1.650   6.240  0.3008 -0.1621  0.6349
 6893SOL    HW327345   0.165   1.743   6.342 -0.2261  1.1347 -0.1981
 6893SOL    MW427346   0.099   1.691   6.317 -0.1736  0.9511  0.0343
 6894SOL     OW27347   2.040   1.520   3.621  0.5733 -0.3569  0.5447
 6894SOL    HW227348   2.093   1.599   3.632  2.9405 -1.7665 -0.1614
 6894SOL    HW327349   2.072   1.459   3.688 -0.9915 -0.8895  0.8719
 6894SOL    MW427350   2.051   1.522   3.631  0.6791 -0.6132  0.4947
 6895SOL     OW27351   4.550   5.716   5.778  0.2942 -0.6131 -0.2656
 6895SOL    HW227352   4.572   5.685   5.865  1.0426  0.1341 -0.1740
 6895SOL    HW327353   4.463   5.755   5.787 -0.9409 -3.0961 -0.5074
 6895SOL    MW427354   4.541   5.717   5.791  0.2300 -0.8421 -0.2854
 6896SOL     OW27355   6.370   0.068   4.702 -0.3137 -0.0855 -0.5134
 6896SOL    HW227356   6.345  -0.005   4.646 -0.9070 -0.9086  0.7825
 6896SOL    HW327357   6.442   0.034   4.755  0.8758  0.9794 -1.3741
 6896SOL    MW427358   6.376   0.054   4.701 -0.2351 -0.0536 -0.4559
 6897SOL     OW27359   3.392   0.428   4.146 -0.0488 -0.2723 -1.0691
 6897SOL    HW227360   3.430   0.477   4.072  0.8015  2.7005  1.1240
 6897SOL    HW327361   3.460   0.368   4.173  0.5555  0.3024 -1.2815
 6897SOL    MW427362   3.406   0.427   4.140  0.1431  0.1957 -0.8077
 6898SOL     OW27363   1.055   4.239   2.585  0.3068  0.2083  0.3416
 6898SOL    HW227364   1.133   4.292   2.571  1.1365 -1.5064 -2.1359
 6898SOL    HW327365   1.020   4.224   2.498 -0.2838 -2.6886  0.9753
 6898SOL    MW427366   1.060   4.244   2.572  0.3384 -0.4001  0.0984
 6899SOL     OW27367   5.460   6.150   6.101 -0.2299 -0.2080 -0.1548
 6899SOL    HW227368   5.380   6.170   6.053 -0.2514  0.3886  0.1163
 6899SOL    HW327369   5.530   6.195   6.053  0.1584 -1.7930 -1.1438
 6899SOL    MW427370   5.459   6.159   6.089 -0.1815 -0.3384 -0.2495
 6900SOL     OW27371   0.209   4.234   0.393  0.5876 -0.5784 -0.0722
 6900SOL    HW227372   0.257   4.283   0.326  1.4654  1.6592  2.0097
 6900SOL    HW327373   0.128   4.285   0.407  1.3465  0.1997  1.8913
 6900SOL    MW427374   0.204   4.247   0.386  0.8035 -0.1806  0.4615
 6901SOL     OW27375   3.916   3.911   4.850  0.0379 -0.5827 -0.3275
 6901SOL    HW227376   3.892   3.935   4.760  0.3948 -1.3493 -0.6467
 6901SOL    HW327377   3.997   3.861   4.839 -0.4661 -1.5717  0.3139
 6901SOL    MW427378   3.924   3.907   4.837  0.0185 -0.8143 -0.2850
 6902SOL     OW27379   5.541   3.940   1.633  0.5808 -0.2480  0.7723
 6902SOL    HW227380   5.471   3.884   1.667 -0.1151  0.4519  0.5180
 6902SOL    HW327381   5.512   4.029   1.653  1.2444  0.0652  0.3656
 6902SOL    MW427382   5.528   3.944   1.640  0.5766 -0.1143  0.6850
 6903SOL     OW27383   2.691   2.284   2.757 -0.4627  0.4458  0.1572
 6903SOL    HW227384   2.718   2.192   2.756  0.4697  0.6828  1.2060
 6903SOL    HW327385   2.752   2.328   2.698 -0.0964  0.5762  0.6196
 6903SOL    MW427386   2.703   2.278   2.749 -0.2914  0.4943  0.3566
 6904SOL     OW27387   6.328   4.295   1.137  0.0656  0.4771 -0.1276
 6904SOL    HW227388   6.303   4.297   1.044  0.3843  1.1405 -0.2080
 6904SOL    HW327389   6.305   4.382   1.169  2.4954  1.2768 -0.2854
 6904SOL    MW427390   6.322   4.307   1.129  0.4282  0.6702 -0.1590
 6905SOL     OW27391   3.711   3.066   1.898  0.2781 -0.0976  0.4054
 6905SOL    HW227392   3.740   3.134   1.960  0.7147 -0.3055  0.4318
 6905SOL    HW327393   3.682   3.115   1.821  2.4648  0.0711 -0.3725
 6905SOL    MW427394   3.711   3.082   1.896  0.6243 -0.1028  0.3063
 6906SOL     OW27395   3.110   3.376   4.322 -0.1078  0.3789 -0.8839
 6906SOL    HW227396   3.145   3.463   4.339  0.5999  0.1914 -1.3374
 6906SOL    HW327397   3.021   3.391   4.291 -0.3877  0.8729  0.1129
 6906SOL    MW427398   3.103   3.389   4.320 -0.0514  0.4193 -0.8122
 6907SOL     OW27399   3.864   1.749   0.707  0.3605 -0.0563  0.1141
 6907SOL    HW227400   3.882   1.770   0.798 -0.4877  1.8589 -0.1102
 6907SOL    HW327401   3.946   1.767   0.661  0.3649  0.4163  0.3015
 6907SOL    MW427402   3.877   1.754   0.713  0.2492  0.2587  0.1093
 6908SOL     OW27403   3.665   4.140   3.397  0.2276 -0.1562 -0.2167
 6908SOL    HW227404   3.696   4.225   3.429  0.2303  0.0462 -0.7495
 6908SOL    HW327405   3.734   4.110   3.338 -0.8714  0.6175 -1.9649
 6908SOL    MW427406   3.679   4.147   3.394  0.0829 -0.0274 -0.5177
 6909SOL     OW27407   3.614   6.413   5.841  0.0715  0.1607 -0.3871
 6909SOL    HW227408   3.670   6.356   5.788 -0.3947 -0.7821  0.1312
 6909SOL    HW327409   3.640   6.395   5.932 -1.0563 -0.2656 -0.1408
 6909SOL    MW427410   3.625   6.403   5.846 -0.1388 -0.0200 -0.2863
 6910SOL     OW27411   5.674   6.414   3.121  0.6222 -0.1171  0.5290
 6910SOL    HW227412   5.679   6.397   3.026  0.0087  1.3053  0.2124
 6910SOL    HW327413   5.692   6.507   3.129 -0.3023 -0.0236  1.7150
 6910SOL    MW427414   5.677   6.424   3.109  0.4193  0.0829  0.6437
 6911SOL     OW27415   5.074   0.059   6.285  0.4018  0.4699  0.1250
 6911SOL    HW227416   5.160   0.050   6.326  0.8077  1.4963 -0.4584
 6911SOL    HW327417   5.082   0.136   6.229 -1.1723  1.1330  0.7465
 6911SOL    MW427418   5.086   0.068   6.283  0.2476  0.6928  0.1300
 6912SOL     OW27419   0.697   4.662   0.274  0.7184 -0.1447 -0.0912
 6912SOL    HW227420   0.764   4.678   0.341  0.7799 -0.9286  0.0490
 6912SOL    HW327421   0.731   4.703   0.195  0.8073  0.4889  0.2701
 6912SOL    MW427422   0.710   4.669   0.273  0.7383 -0.1645 -0.0251
 6913SOL     OW27423   4.105   0.325   0.517 -0.1753 -0.0561  0.3894
 6913SOL    HW227424   4.166   0.252   0.530 -0.0525  0.0148  0.2167
 6913SOL    HW327425   4.025   0.297   0.562  0.1831  0.1141  1.1535
 6913SOL    MW427426   4.103   0.312   0.525 -0.1118 -0.0243  0.4674
 6914SOL     OW27427   2.537   6.338   5.168 -0.0447 -0.2813  0.0722
 6914SOL    HW227428   2.609   6.342   5.105  0.3353 -0.3786  0.4979
 6914SOL    HW327429   2.466   6.386   5.125 -0.1522 -1.2618 -0.8893
 6914SOL    MW427430   2.537   6.345   5.154 -0.0088 -0.4235  0.0015
 6915SOL     OW27431   1.756   2.594   6.212 -0.3277 -0.5030 -0.0218
 6915SOL    HW227432   1.810   2.539   6.157 -1.3520 -1.6775  0.0976
 6915SOL    HW327433   1.701   2.533   6.261 -0.4524  0.5658  1.2314
 6915SOL    MW427434   1.756   2.579   6.211 -0.4793 -0.5169  0.1593
 6916SOL     OW27435   3.792   3.671   4.932  0.3142 -0.6770  0.3628
 6916SOL    HW227436   3.829   3.755   4.905 -0.2828 -0.7840 -0.8533
 6916SOL    HW327437   3.844   3.646   5.009 -0.2751  1.3685  1.5134
 6916SOL    MW427438   3.804   3.679   4.939  0.1577 -0.4212  0.3541
 6917SOL     OW27439   0.167   3.201   2.662  0.3225  0.2058 -0.6382
 6917SOL    HW227440   0.199   3.202   2.571  2.4682 -0.5606  0.0382
 6917SOL    HW327441   0.160   3.293   2.687  2.1891  0.4401 -0.8264
 6917SOL    MW427442   0.170   3.213   2.653  0.8519  0.1356 -0.5738
 6918SOL     OW27443   3.049   1.639   2.526  0.1054  0.1068  0.6320
 6918SOL    HW227444   3.135   1.606   2.551  0.7186  1.0914 -0.0853
 6918SOL    HW327445   3.024   1.584   2.452  0.5991  0.4665  0.1837
 6918SOL    MW427446   3.057   1.627   2.519  0.2515  0.2841  0.4782
 6919SOL     OW27447   6.116   5.163   4.873 -0.6744  0.4874 -0.2397
 6919SOL    HW227448   6.168   5.110   4.813 -2.4063 -2.0500  0.3181
 6919SOL    HW327449   6.161   5.154   4.957  0.1319  1.6314 -0.5221
 6919SOL    MW427450   6.129   5.155   4.876 -0.7965  0.3036 -0.2034
 6920SOL     OW27451   2.017   6.186   1.861  0.0624  0.1103 -0.0739
 6920SOL    HW227452   2.079   6.188   1.788 -1.4837 -1.5788 -1.5069
 6920SOL    HW327453   2.058   6.126   1.924 -0.2368 -1.3111 -1.1807
 6920SOL    MW427454   2.031   6.178   1.860 -0.1810 -0.3001 -0.4090
 6921SOL     OW27455   0.993   0.582   1.468 -0.0775  0.0616  0.6474
 6921SOL    HW227456   1.055   0.635   1.419 -0.2892 -1.4581 -1.4342
 6921SOL    HW327457   1.005   0.608   1.559  2.4395  0.9680  0.1355
 6921SOL    MW427458   1.003   0.592   1.473  0.2267 -0.0193  0.3052
 6922SOL     OW27459   5.791   1.034   2.237 -0.9517  0.5389 -0.3908
 6922SOL    HW227460   5.808   1.128   2.243  0.1550  0.3275  0.1712
 6922SOL    HW327461   5.876   0.993   2.256 -1.4601 -0.5766 -0.4157
 6922SOL    MW427462   5.805   1.041   2.241 -0.8728  0.3638 -0.3200
 6923SOL     OW27463   3.972   5.570   1.096  0.2526  0.0776 -0.1809
 6923SOL    HW227464   4.027   5.618   1.034 -0.4725  0.6339 -0.4085
 6923SOL    HW327465   3.994   5.478   1.080  0.7764  0.2611 -0.5876
 6923SOL    MW427466   3.982   5.564   1.085  0.2260  0.1752 -0.2646
 6924SOL     OW27467   2.501   0.284   2.428  0.6197 -0.0375 -0.0610
 6924SOL    HW227468   2.569   0.242   2.376  0.2673 -1.0379  0.2711
 6924SOL    HW327469   2.422   0.235   2.408  0.0216  0.9876 -0.2904
 6924SOL    MW427470   2.500   0.272   2.418  0.4943 -0.0342 -0.0474
 6925SOL     OW27471   0.826   2.839   3.785 -0.0541 -0.5129 -0.4230
 6925SOL    HW227472   0.780   2.904   3.838  1.6011 -0.7218  1.3929
 6925SOL    HW327473   0.795   2.755   3.819 -0.5693 -0.6822 -1.2822
 6925SOL    MW427474   0.816   2.836   3.797  0.0963 -0.5628 -0.2968
 6926SOL     OW27475   4.972   5.076   3.036  0.1476 -0.3583 -0.7359
 6926SOL    HW227476   4.964   5.157   3.087  2.0793 -0.1997 -0.6381
 6926SOL    HW327477   4.986   5.008   3.101 -1.7234 -0.8570 -0.8001
 6926SOL    MW427478   4.972   5.078   3.051  0.1556 -0.4032 -0.7314
 6927SOL     OW27479   4.635   5.358   4.607  0.3986  0.5227 -0.0261
 6927SOL    HW227480   4.598   5.401   4.684  2.0318 -0.7555  1.5817
 6927SOL    HW327481   4.728   5.381   4.609  0.6522 -0.3214 -1.0540
 6927SOL    MW427482   4.642   5.367   4.617  0.6475  0.2427  0.0504
 6928SOL     OW27483   3.803   6.054   1.661  0.0007  0.0098 -0.5459
 6928SOL    HW227484   3.866   6.124   1.643 -0.3464  0.4801  0.0476
 6928SOL    HW327485   3.728   6.075   1.606 -0.2059  0.2489 -0.1742
 6928SOL    MW427486   3.802   6.066   1.651 -0.0723  0.1034 -0.4185
 6929SOL     OW27487   3.450   2.214   3.606  0.7340  0.2197 -0.5873
 6929SOL    HW227488   3.459   2.121   3.623 -1.0244  0.2410  0.7336
 6929SOL    HW327489   3.422   2.219   3.514  2.7542 -0.3952 -1.2769
 6929SOL    MW427490   3.447   2.203   3.596  0.7686  0.1414 -0.5040
 6930SOL     OW27491   6.069   1.289   5.580  0.4258  0.7510 -0.4087
 6930SOL    HW227492   6.067   1.353   5.508 -2.0892  1.2512  0.0038
 6930SOL    HW327493   6.039   1.208   5.540  0.0320  0.7671 -0.1457
 6930SOL    MW427494   6.065   1.287   5.565  0.0420  0.8191 -0.3196
 6931SOL     OW27495   0.216   4.875   3.248  0.9209  0.8872 -0.4052
 6931SOL    HW227496   0.216   4.785   3.214  1.6006  0.9552 -0.5778
 6931SOL    HW327497   0.123   4.899   3.248  0.7937  0.4384 -1.0169
 6931SOL    MW427498   0.203   4.866   3.244  0.9938  0.8370 -0.5087
 6932SOL     OW27499   4.253   3.830   3.567 -0.1961  0.1107  0.0214
 6932SOL    HW227500   4.261   3.830   3.471  1.1237 -1.5946  0.0896
 6932SOL    HW327501   4.162   3.856   3.583 -0.0703  1.8075 -1.6245
 6932SOL    MW427502   4.242   3.834   3.556 -0.0053  0.1096 -0.1868
 6933SOL     OW27503   0.749   1.805   4.124 -0.1871 -0.4797  0.5700
 6933SOL    HW227504   0.726   1.719   4.158  3.0235 -0.9694  1.8006
 6933SOL    HW327505   0.701   1.812   4.041 -1.5890 -2.8279  1.1126
 6933SOL    MW427506   0.739   1.795   4.117  0.0516 -0.8541  0.8039
 6934SOL     OW27507   6.184   3.902   3.495 -0.4112  0.0718  0.1531
 6934SOL    HW227508   6.275   3.877   3.483 -0.6353 -2.5677  2.7605
 6934SOL    HW327509   6.188   3.982   3.548  0.3307  0.8009 -0.9618
 6934SOL    MW427510   6.196   3.909   3.501 -0.3429 -0.1803  0.3500
 6935SOL     OW27511   5.719   4.377   3.355  0.1379 -0.5687 -0.3100
 6935SOL    HW227512   5.671   4.430   3.291 -0.2797  0.8424  1.0971
 6935SOL    HW327513   5.654   4.315   3.389  0.0259 -0.4602 -0.3275
 6935SOL    MW427514   5.704   4.376   3.351  0.0680 -0.3682 -0.1267
 6936SOL     OW27515   2.708   0.532   3.418 -0.1722  0.1779  0.9724
 6936SOL    HW227516   2.799   0.523   3.391 -0.6236 -1.6563 -0.1779
 6936SOL    HW327517   2.664   0.570   3.342 -0.7336 -1.1320  0.6066
 6936SOL    MW427518   2.714   0.536   3.404 -0.3058 -0.2369  0.7724
 6937SOL     OW27519   5.312   0.456   3.787  0.0077  0.4365  0.1325
 6937SOL    HW227520   5.298   0.510   3.865  0.0221  0.7191 -0.0590
 6937SOL    HW327521   5.319   0.519   3.715  0.0989  0.1828 -0.0825
 6937SOL    MW427522   5.311   0.471   3.788  0.0217  0.4403  0.0789
 6938SOL     OW27523   2.592   3.342   3.320 -0.1575  0.2764  0.3457
 6938SOL    HW227524   2.529   3.331   3.391 -1.1177  1.0124 -0.3588
 6938SOL    HW327525   2.538   3.363   3.244  0.9274  0.7020 -0.3249
 6938SOL    MW427526   2.576   3.343   3.320 -0.1410  0.4296  0.1643
 6939SOL     OW27527   5.609   4.561   4.741  0.0670  0.0313 -0.0763
 6939SOL    HW227528   5.522   4.577   4.703 -0.0099 -1.1063 -0.3940
 6939SOL    HW327529   5.592   4.547   4.834 -0.2526 -1.3508 -0.3179
 6939SOL    MW427530   5.595   4.562   4.748  0.0147 -0.3011 -0.1501
 6940SOL     OW27531   2.055   1.574   4.743 -0.1360 -0.1497 -0.1516
 6940SOL    HW227532   2.134   1.616   4.710  0.3122  0.3075  1.4226
 6940SOL    HW327533   2.086   1.502   4.797 -0.6399  1.4530  2.4270
 6940SOL    MW427534   2.070   1.570   4.746 -0.1434  0.1221  0.3963
 6941SOL     OW27535   3.230   1.362   3.709 -0.1917 -0.2819 -0.0174
 6941SOL    HW227536   3.145   1.406   3.701 -0.6778 -1.1409  0.3185
 6941SOL    HW327537   3.233   1.302   3.635 -0.6123 -1.4615  0.9024
 6941SOL    MW427538   3.219   1.360   3.698 -0.3113 -0.5508  0.1483
 6942SOL     OW27539   3.220   4.037   5.924 -0.0572  0.7939 -0.1489
 6942SOL    HW227540   3.223   4.119   5.973 -0.5920  1.7543 -1.6496
 6942SOL    HW327541   3.142   3.993   5.956 -1.8610  2.5699 -1.8013
 6942SOL    MW427542   3.210   4.042   5.935 -0.3658  1.1549 -0.5649
 6943SOL     OW27543   6.021   2.484   2.650 -0.1950 -0.0890 -0.0582
 6943SOL    HW227544   6.035   2.412   2.712  1.6607 -0.0551 -0.3775
 6943SOL    HW327545   6.089   2.547   2.672  1.5359 -0.7357 -3.0381
 6943SOL    MW427546   6.031   2.482   2.661  0.2782 -0.1699 -0.4935
 6944SOL     OW27547   3.545   4.956   2.254 -0.0254  0.4843  0.3441
 6944SOL    HW227548   3.465   4.990   2.294 -0.1045 -2.1381  2.7011
 6944SOL    HW327549   3.594   5.035   2.230 -2.5658  2.1762  0.2733
 6944SOL    MW427550   3.541   4.971   2.256 -0.3710  0.3615  0.6457
 6945SOL     OW27551   0.516   0.684   5.723  0.0988 -0.1421  0.5450
 6945SOL    HW227552   0.586   0.687   5.657 -0.1045  0.9043  0.3630
 6945SOL    HW327553   0.455   0.752   5.697 -2.1119 -2.3609 -0.4913
 6945SOL    MW427554   0.517   0.693   5.711 -0.2197 -0.2968  0.3842
 6946SOL     OW27555   5.868   1.795   3.241 -0.6086 -0.3949 -0.0239
 6946SOL    HW227556   5.879   1.706   3.273  0.3942 -1.0615 -2.0585
 6946SOL    HW327557   5.775   1.804   3.224 -0.8722 -0.6653  1.1967
 6946SOL    MW427558   5.857   1.785   3.243 -0.5110 -0.5185 -0.1313
 6947SOL     OW27559   3.666   4.240   4.602 -0.1775  0.3303  0.5391
 6947SOL    HW227560   3.751   4.195   4.600 -0.5487 -0.4186  1.2188
 6947SOL    HW327561   3.661   4.278   4.689  0.5037  2.4944 -0.2951
 6947SOL    MW427562   3.677   4.239   4.613 -0.1366  0.5170  0.5187
 6948SOL     OW27563   2.668   3.077   4.122 -0.4997  0.4295  0.7174
 6948SOL    HW227564   2.729   3.004   4.112 -1.0849  0.1723 -1.9124
 6948SOL    HW327565   2.582   3.039   4.102 -0.6736  1.9791 -2.0354
 6948SOL    MW427566   2.665   3.062   4.118 -0.5999  0.6000  0.0072
 6949SOL     OW27567   4.397   2.001   0.344 -0.0774  0.3434 -0.4070
 6949SOL    HW227568   4.410   1.907   0.334 -1.2516 -0.3537  3.2356
 6949SOL    HW327569   4.464   2.029   0.405  0.4067  1.9896 -1.6148
 6949SOL    MW427570   4.407   1.993   0.351 -0.1685  0.4687 -0.0858
 6950SOL     OW27571   1.934   4.163   5.547 -0.3690  0.5968  0.0384
 6950SOL    HW227572   1.869   4.110   5.593 -0.0908 -0.4358 -0.7485
 6950SOL    HW327573   1.957   4.231   5.611 -1.2760  0.2378  0.7864
 6950SOL    MW427574   1.928   4.165   5.562 -0.4519  0.4132  0.0333
 6951SOL     OW27575   4.979   0.625   1.120  0.1171  0.1651 -0.2762
 6951SOL    HW227576   5.068   0.656   1.107  0.5638 -1.2143 -0.6118
 6951SOL    HW327577   4.941   0.623   1.033 -0.2903  0.8232 -0.1260
 6951SOL    MW427578   4.986   0.629   1.107  0.1223  0.0699 -0.3006
 6952SOL     OW27579   5.544   5.162   0.238  0.5507  0.1319  0.0612
 6952SOL    HW227580   5.573   5.141   0.327 -0.3473  0.0349  0.3441
 6952SOL    HW327581   5.473   5.225   0.251 -0.2611 -0.6427 -0.5333
 6952SOL    MW427582   5.538   5.167   0.252  0.3251  0.0169  0.0201
 6953SOL     OW27583   4.437   5.362   1.454  0.0672 -0.1442 -0.3447
 6953SOL    HW227584   4.497   5.354   1.379  2.1497  1.6909  1.0080
 6953SOL    HW327585   4.494   5.361   1.531 -1.9287 -1.0260  1.2164
 6953SOL    MW427586   4.453   5.361   1.454  0.0786 -0.0184  0.0397
 6954SOL     OW27587   2.952   0.098   4.102 -0.2456  0.3003  0.4925
 6954SOL    HW227588   3.006   0.168   4.140  0.5348 -0.0920  0.1275
 6954SOL    HW327589   2.951   0.030   4.169 -2.3973  1.2931  1.5627
 6954SOL    MW427590   2.959   0.099   4.116 -0.4265  0.3796  0.5855
 6955SOL     OW27591   4.883   1.954   1.396  0.3577 -0.1237 -0.1488
 6955SOL    HW227592   4.947   2.025   1.404  0.5019 -0.2838  0.1637
 6955SOL    HW327593   4.873   1.941   1.302  1.7761 -0.9637 -0.2266
 6955SOL    MW427594   4.890   1.962   1.385  0.5639 -0.2556 -0.1179
 6956SOL     OW27595   4.772   6.051   1.346 -0.0256  0.5580 -0.1063
 6956SOL    HW227596   4.752   6.067   1.254 -0.0341 -0.1885 -0.2371
 6956SOL    HW327597   4.860   6.015   1.346 -0.7438 -1.3268 -0.0184
 6956SOL    MW427598   4.781   6.048   1.334 -0.1215  0.2108 -0.1119
 6957SOL     OW27599   3.138   2.528   6.122 -0.3692  0.3324 -0.9661
 6957SOL    HW227600   3.228   2.546   6.150 -0.3203 -1.1124 -0.1153
 6957SOL    HW327601   3.143   2.530   6.026  0.3654  1.1395 -0.9302
 6957SOL    MW427602   3.151   2.531   6.113 -0.2658  0.2483 -0.8491
 6958SOL     OW27603   0.069   6.120   3.219  0.2631 -0.0308  0.4544
 6958SOL    HW227604   0.118   6.180   3.275  0.7316 -2.6345  3.0867
 6958SOL    HW327605   0.132   6.050   3.199 -1.0816 -1.1700  0.0968
 6958SOL    MW427606   0.084   6.119   3.224  0.1475 -0.5246  0.7545
 6959SOL     OW27607   4.537   4.116   5.019 -0.4563  0.4421  0.2462
 6959SOL    HW227608   4.450   4.151   5.037 -0.4438  0.0701  1.0596
 6959SOL    HW327609   4.559   4.063   5.096 -1.0078 -2.4204 -1.4263
 6959SOL    MW427610   4.529   4.113   5.031 -0.5274  0.0154  0.1328
 6960SOL     OW27611   5.421   0.014   4.330  0.4362 -0.4653 -0.5642
 6960SOL    HW227612   5.362   0.054   4.393  1.1778 -2.9720  1.9027
 6960SOL    HW327613   5.488   0.080   4.315  0.7795 -0.1108  2.1129
 6960SOL    MW427614   5.422   0.028   4.336  0.5793 -0.7492  0.1145
 6961SOL     OW27615   4.664   6.338   3.070  0.2676  0.1684  0.3597
 6961SOL    HW227616   4.606   6.269   3.037  0.5083 -0.2210  0.7380
 6961SOL    HW327617   4.605   6.409   3.094  0.1479  1.0905 -2.2778
 6961SOL    MW427618   4.649   6.338   3.069  0.2836  0.2387  0.0616
 6962SOL     OW27619   4.284   6.033   6.245  0.4602 -0.5286  0.2527
 6962SOL    HW227620   4.354   5.967   6.243  1.7320  0.7574 -1.8372
 6962SOL    HW327621   4.211   5.992   6.199  0.6521 -1.0302  0.3789
 6962SOL    MW427622   4.284   6.019   6.239  0.6534 -0.4251 -0.0064
 6963SOL     OW27623   0.879   0.590   3.303  0.6472  0.0252 -0.0832
 6963SOL    HW227624   0.797   0.560   3.264  0.1868  0.3424  0.6247
 6963SOL    HW327625   0.923   0.638   3.233  1.0505 -1.6160 -1.0153
 6963SOL    MW427626   0.874   0.592   3.288  0.6397 -0.1495 -0.1128
 6964SOL     OW27627   0.322   4.481   4.949  0.5114 -0.1708 -0.0009
 6964SOL    HW227628   0.297   4.459   5.038 -0.9428 -0.9899 -0.5795
 6964SOL    HW327629   0.397   4.424   4.930  2.3212  1.6009  1.4123
 6964SOL    MW427630   0.329   4.471   4.958  0.5583 -0.0451  0.1092
 6965SOL     OW27631   1.459   6.016   4.391 -0.4329  0.3546 -0.6397
 6965SOL    HW227632   1.521   5.948   4.366 -1.0604 -0.6758  0.4845
 6965SOL    HW327633   1.390   5.969   4.439 -0.8781  1.7744  0.1767
 6965SOL    MW427634   1.458   6.001   4.394 -0.5744  0.4060 -0.3837
 6966SOL     OW27635   1.240   3.510   0.268  0.2774  0.2105  0.4205
 6966SOL    HW227636   1.256   3.605   0.263 -0.7925  0.4827  1.6651
 6966SOL    HW327637   1.186   3.499   0.346 -0.9285 -1.2625 -0.5800
 6966SOL    MW427638   1.235   3.521   0.278 -0.0228  0.0520  0.4527
 6967SOL     OW27639   5.882   6.348   3.266  0.0476  0.4748  0.1739
 6967SOL    HW227640   5.810   6.381   3.213  0.4577  0.5914 -0.3144
 6967SOL    HW327641   5.855   6.259   3.290 -0.2983  0.5496  0.0666
 6967SOL    MW427642   5.869   6.340   3.262  0.0561  0.5000  0.0953
 6968SOL     OW27643   4.242   1.483   5.894  0.8352 -0.3849  0.3688
 6968SOL    HW227644   4.248   1.568   5.851 -1.3006  0.1318  0.9485
 6968SOL    HW327645   4.236   1.504   5.987  0.1733 -1.1249  0.5081
 6968SOL    MW427646   4.242   1.497   5.901  0.4661 -0.4144  0.4637
 6969SOL     OW27647   5.558   1.173   0.303 -0.1772 -0.0115 -0.5558
 6969SOL    HW227648   5.634   1.183   0.246  1.3011 -0.2011  1.2909
 6969SOL    HW327649   5.583   1.105   0.365 -1.6300  0.3597  0.4839
 6969SOL    MW427650   5.572   1.165   0.303 -0.1738  0.0125 -0.1750
 6970SOL     OW27651   3.758   2.243   0.200  0.1170  0.3188 -0.0378
 6970SOL    HW227652   3.740   2.227   0.292 -0.0510  1.2028  0.0938
 6970SOL    HW327653   3.744   2.158   0.158 -1.9891  0.3746  0.4173
 6970SOL    MW427654   3.754   2.230   0.207 -0.1831  0.4428  0.0396
 6971SOL     OW27655   2.571   2.437   5.045 -0.3801  0.3419  0.2021
 6971SOL    HW227656   2.663   2.413   5.038 -0.1213 -0.1903  3.5140
 6971SOL    HW327657   2.570   2.513   5.104 -2.0437  0.8513 -0.3934
 6971SOL    MW427658   2.583   2.444   5.052 -0.5655  0.3389  0.5605
 6972SOL     OW27659   5.125   1.460   3.244  0.1803  0.3956 -0.0365
 6972SOL    HW227660   5.029   1.460   3.244  0.1433 -1.0166  0.8442
 6972SOL    HW327661   5.149   1.410   3.165  0.1175 -0.8137  0.6761
 6972SOL    MW427662   5.116   1.453   3.233  0.1671  0.0498  0.1737
 6973SOL     OW27663   5.229   1.081   2.414 -0.1111  0.6005  0.0929
 6973SOL    HW227664   5.145   1.061   2.372 -0.5735 -0.2170  1.3467
 6973SOL    HW327665   5.241   1.175   2.401 -0.8558  0.5956 -0.7326
 6973SOL    MW427666   5.219   1.090   2.407 -0.2704  0.4920  0.1494
 6974SOL     OW27667   5.680   5.105   1.811  0.0932 -0.1651  0.3249
 6974SOL    HW227668   5.660   5.022   1.769 -0.4950 -0.1628  0.5857
 6974SOL    HW327669   5.641   5.171   1.753  2.5413  0.1291 -1.1342
 6974SOL    MW427670   5.672   5.103   1.798  0.3386 -0.1260  0.1668
 6975SOL     OW27671   3.704   1.016   1.729 -0.0406 -0.0358 -0.0603
 6975SOL    HW227672   3.786   0.976   1.759  0.6947  0.3797 -1.4231
 6975SOL    HW327673   3.732   1.092   1.677 -1.3228  0.5931  0.1353
 6975SOL    MW427674   3.719   1.021   1.726 -0.1127  0.1020 -0.2143
 6976SOL     OW27675   2.303   3.360   4.070 -0.3132 -0.7310 -0.5953
 6976SOL    HW227676   2.348   3.435   4.109 -0.4580 -1.4300  1.0200
 6976SOL    HW327677   2.370   3.292   4.066 -0.2901 -0.6566 -1.6638
 6976SOL    MW427678   2.318   3.361   4.075 -0.3293 -0.8134 -0.5232
 6977SOL     OW27679   6.019   6.144   5.165  0.1010  0.6593  0.3212
 6977SOL    HW227680   6.019   6.055   5.200  1.1882  0.6668  0.3712
 6977SOL    HW327681   6.001   6.200   5.241  1.5290  0.6124  0.7150
 6977SOL    MW427682   6.016   6.140   5.180  0.4328  0.6541  0.3798
 6978SOL     OW27683   5.699   1.537   5.460 -0.6781  0.3062 -0.0688
 6978SOL    HW227684   5.645   1.615   5.450  2.6557  2.8330 -0.2722
 6978SOL    HW327685   5.746   1.551   5.543 -0.4918 -1.9046  0.2694
 6978SOL    MW427686   5.698   1.549   5.470 -0.2136  0.3479 -0.0510
 6979SOL     OW27687   2.573   2.100   5.441 -0.1450 -0.7414 -0.3891
 6979SOL    HW227688   2.664   2.130   5.443  0.1724 -1.5220 -1.6442
 6979SOL    HW327689   2.536   2.128   5.524  1.3078 -0.5898  0.2338
 6979SOL    MW427690   2.580   2.107   5.452  0.0885 -0.8244 -0.4725
 6980SOL     OW27691   2.634   1.241   4.837  0.1461 -0.4154  0.6316
 6980SOL    HW227692   2.706   1.287   4.879  0.8225 -0.2681 -0.6551
 6980SOL    HW327693   2.638   1.152   4.874  1.4383 -0.6163  0.0524
 6980SOL    MW427694   2.644   1.235   4.848  0.4059 -0.4224  0.3854
 6981SOL     OW27695   2.749   2.389   4.140  0.4589 -0.2885  0.1341
 6981SOL    HW227696   2.771   2.470   4.186 -1.4705 -0.0833  0.7942
 6981SOL    HW327697   2.759   2.411   4.047  2.1634 -0.0155  0.3499
 6981SOL    MW427698   2.753   2.403   4.133  0.4292 -0.2254  0.2497
 6982SOL     OW27699   4.362   4.963   4.368  0.4497  0.4695  0.3764
 6982SOL    HW227700   4.389   4.872   4.377 -4.7442 -1.2692  1.7665
 6982SOL    HW327701   4.408   5.009   4.438  3.7142 -0.7294 -0.7756
 6982SOL    MW427702   4.372   4.957   4.378  0.1951  0.0819  0.4078
 6983SOL     OW27703   2.832   6.196   2.199 -0.4270 -0.1423 -0.3262
 6983SOL    HW227704   2.841   6.267   2.136  0.5676  0.6657  0.7035
 6983SOL    HW327705   2.784   6.234   2.273  0.9831 -0.2367  0.6656
 6983SOL    MW427706   2.827   6.210   2.201 -0.1097 -0.0481 -0.0595
 6984SOL     OW27707   2.227   3.392   3.724  0.4139  1.1742 -0.4399
 6984SOL    HW227708   2.230   3.487   3.740  2.6908  1.1129 -0.1526
 6984SOL    HW327709   2.279   3.354   3.794 -0.1180 -0.2770 -0.7881
 6984SOL    MW427710   2.234   3.400   3.735  0.6441  0.9747 -0.4479
 6985SOL     OW27711   3.743   2.423   1.807  0.6501  0.0148 -0.2467
 6985SOL    HW227712   3.649   2.436   1.811  0.8548  1.6351  0.4753
 6985SOL    HW327713   3.756   2.329   1.815 -0.8642 -0.1455  0.5465
 6985SOL    MW427714   3.733   2.413   1.809  0.4773  0.2074 -0.0468
 6986SOL     OW27715   0.856   5.704   2.974 -0.2193  0.5958 -0.1695
 6986SOL    HW227716   0.824   5.666   2.891  0.7093 -0.5578 -0.0348
 6986SOL    HW327717   0.876   5.795   2.953 -0.9748  0.5946 -0.9461
 6986SOL    MW427718   0.854   5.711   2.960 -0.1965  0.4434 -0.2542
 6987SOL     OW27719   4.512   1.716   0.017 -0.0461 -0.0564 -0.2259
 6987SOL    HW227720   4.464   1.799   0.012 -1.9595 -1.0438  0.4332
 6987SOL    HW327721   4.524   1.702   0.111  0.9081 -0.1878 -0.3656
 6987SOL    MW427722   4.507   1.725   0.029 -0.1726 -0.2040 -0.1574
 6988SOL     OW27723   5.474   4.709   6.056  0.3063  0.1721  0.4273
 6988SOL    HW227724   5.527   4.775   6.100 -0.1085  0.9950 -0.2832
 6988SOL    HW327725   5.531   4.632   6.051  1.1159  0.7550  0.4842
 6988SOL    MW427726   5.488   4.707   6.061  0.3584  0.3576  0.3411
 6989SOL     OW27727   5.853   3.180   5.060  0.0930 -0.3323  0.1811
 6989SOL    HW227728   5.909   3.112   5.024  0.7402  0.2940 -0.0260
 6989SOL    HW327729   5.833   3.237   4.986 -1.1277 -0.7389  0.1744
 6989SOL    MW427730   5.858   3.179   5.046  0.0173 -0.3034  0.1529
 6990SOL     OW27731   2.635   3.799   4.352  0.2235  0.4120 -0.1558
 6990SOL    HW227732   2.619   3.831   4.441  0.2726 -0.5292  0.1942
 6990SOL    HW327733   2.725   3.768   4.354  0.6647  1.5848 -0.9049
 6990SOL    MW427734   2.645   3.799   4.364  0.2882  0.4426 -0.2085
 6991SOL     OW27735   3.178   5.584   3.935  0.0554 -0.5108  0.0490
 6991SOL    HW227736   3.252   5.615   3.986 -0.0438  0.9952 -0.6786
 6991SOL    HW327737   3.217   5.551   3.853 -0.0488  0.0563 -0.2324
 6991SOL    MW427738   3.193   5.583   3.931  0.0285 -0.2373 -0.0841
 6992SOL     OW27739   1.670   0.762   5.471 -0.3319 -0.5851  0.3222
 6992SOL    HW227740   1.746   0.704   5.461 -0.9044 -0.9545 -3.6168
 6992SOL    HW327741   1.705   0.841   5.511  2.2696 -0.6256 -1.6257
 6992SOL    MW427742   1.685   0.765   5.475 -0.0642 -0.6392 -0.4545
 6993SOL     OW27743   4.572   1.544   0.576  0.2029  0.1038  0.5730
 6993SOL    HW227744   4.509   1.491   0.625 -0.3255  1.4081  1.3744
 6993SOL    HW327745   4.657   1.522   0.614 -0.0305 -0.0286  1.0222
 6993SOL    MW427746   4.575   1.534   0.588  0.1024  0.2584  0.7380
 6994SOL     OW27747   3.769   4.454   5.605 -0.2261  0.1119 -0.3399
 6994SOL    HW227748   3.807   4.421   5.686 -1.8350  1.6144  1.0979
 6994SOL    HW327749   3.821   4.414   5.536  0.8607 -1.6255  1.4078
 6994SOL    MW427750   3.781   4.444   5.607 -0.2950  0.0809  0.0804
 6995SOL     OW27751   4.236   1.583   0.022  0.2057  0.0217  0.2882
 6995SOL    HW227752   4.287   1.660   0.048  0.3988  0.4474 -1.2502
 6995SOL    HW327753   4.148   1.602   0.054  0.1439  1.1302 -0.4559
 6995SOL    MW427754   4.231   1.596   0.030  0.2231  0.2241 -0.0130
 6996SOL     OW27755   3.404   5.003   1.450  0.2456  0.4978  0.1706
 6996SOL    HW227756   3.314   5.032   1.434 -0.7027  1.7221  5.5571
 6996SOL    HW327757   3.406   4.913   1.418 -4.1857 -0.8345  2.6994
 6996SOL    MW427758   3.392   4.995   1.444 -0.4642  0.4835  1.2149
 6997SOL     OW27759   1.973   2.806   0.783  0.4031  0.0315 -0.4186
 6997SOL    HW227760   1.893   2.800   0.835  0.2158 -1.6914 -0.8445
 6997SOL    HW327761   2.039   2.837   0.845  0.3674 -2.6968  1.1531
 6997SOL    MW427762   1.971   2.809   0.798  0.3737 -0.5558 -0.2675
 6998SOL     OW27763   5.080   1.266   3.791  0.1199  0.1670  0.0101
 6998SOL    HW227764   5.111   1.195   3.735  2.4025  0.2682  1.0482
 6998SOL    HW327765   5.021   1.224   3.853 -1.3106 -0.1816 -1.5336
 6998SOL    MW427766   5.076   1.251   3.792  0.2324  0.1344 -0.0566
 6999SOL     OW27767   1.161   0.439   0.873 -0.0417  0.5793 -0.4760
 6999SOL    HW227768   1.154   0.441   0.778 -0.6032 -1.6558 -0.5369
 6999SOL    HW327769   1.085   0.487   0.905 -0.9047 -0.3134 -1.1694
 6999SOL    MW427770   1.150   0.446   0.865 -0.2296  0.1666 -0.5755
 7000SOL     OW27771   6.259   6.326   6.285  0.3804  0.0397 -0.0216
 7000SOL    HW227772   6.197   6.320   6.357 -0.2240  1.7293 -0.3545
 7000SOL    HW327773   6.279   6.235   6.262 -2.6975 -0.6286 -0.5305
 7000SOL    MW427774   6.254   6.314   6.291 -0.1054  0.1744 -0.1326
 7001SOL     OW27775   0.854   0.327   1.752 -0.1227  0.0238  0.6652
 7001SOL    HW227776   0.907   0.262   1.707 -1.6829 -0.4531 -0.5996
 7001SOL    HW327777   0.856   0.300   1.844  0.5260 -0.9022  0.3945
 7001SOL    MW427778   0.861   0.315   1.758 -0.2430 -0.1613  0.4626
 7002SOL     OW27779   3.364   5.797   2.207  0.0831 -0.0964  0.2886
 7002SOL    HW227780   3.292   5.845   2.248  0.0598 -1.1643  1.5342
 7002SOL    HW327781   3.389   5.852   2.132 -0.2862  1.6093  1.3518
 7002SOL    MW427782   3.358   5.811   2.203  0.0313 -0.0123  0.5932
 7003SOL     OW27783   1.316   2.674   4.776 -0.0608  0.1999  0.3622
 7003SOL    HW227784   1.402   2.712   4.758  0.6507 -2.2807 -2.1047
 7003SOL    HW327785   1.335   2.597   4.831 -0.6773 -0.3427 -0.1673
 7003SOL    MW427786   1.330   2.669   4.781 -0.0482 -0.1990 -0.0331
 7004SOL     OW27787   0.257   2.591   3.603 -0.1230 -0.2789 -0.6214
 7004SOL    HW227788   0.250   2.507   3.648 -1.4375 -0.2802 -0.7967
 7004SOL    HW327789   0.231   2.573   3.513 -1.8438  0.5526 -0.3402
 7004SOL    MW427790   0.253   2.578   3.597 -0.5235 -0.1694 -0.6075
 7005SOL     OW27791   3.213   3.965   3.949  0.2683  0.2428 -0.2090
 7005SOL    HW227792   3.118   3.964   3.963  0.0447  1.0979 -1.5148
 7005SOL    HW327793   3.233   4.055   3.924  0.8997 -0.5849 -3.0631
 7005SOL    MW427794   3.203   3.977   3.947  0.3221  0.2464 -0.7579
 7006SOL     OW27795   6.336   1.634   0.771  0.5035 -0.0981  0.1166
 7006SOL    HW227796   6.398   1.571   0.735  1.1568  0.9772 -0.6959
 7006SOL    HW327797   6.260   1.628   0.714  0.7589  0.1807 -0.2613
 7006SOL    MW427798   6.334   1.625   0.759  0.6234  0.0805 -0.0404
 7007SOL     OW27799   4.529   1.865   2.844 -0.2468 -0.2505  0.1914
 7007SOL    HW227800   4.556   1.951   2.876 -1.0558 -0.1687  0.7028
 7007SOL    HW327801   4.526   1.810   2.923  1.7137 -1.1703 -0.3246
 7007SOL    MW427802   4.532   1.869   2.859 -0.0949 -0.3611  0.1908
 7008SOL     OW27803   2.984   3.067   4.537  0.2149  0.0857  0.2574
 7008SOL    HW227804   3.059   3.064   4.596  0.4994  0.2867 -0.0867
 7008SOL    HW327805   3.001   2.997   4.474 -0.7325 -0.9956  1.1641
 7008SOL    MW427806   2.996   3.057   4.536  0.1274 -0.0304  0.3316
 7009SOL     OW27807   4.365   5.879   3.421 -0.7618 -0.1051 -0.9167
 7009SOL    HW227808   4.383   5.788   3.445 -0.3697  0.6931  2.3194
 7009SOL    HW327809   4.451   5.920   3.420 -1.1273  0.6948 -0.0879
 7009SOL    MW427810   4.379   5.872   3.424 -0.7583  0.1057 -0.3804
 7010SOL     OW27811   6.180   5.408   2.871  0.0159  0.4790 -0.3649
 7010SOL    HW227812   6.110   5.440   2.928  1.5478  2.6415  0.4679
 7010SOL    HW327813   6.185   5.314   2.888  0.0818  0.9486  2.8029
 7010SOL    MW427814   6.172   5.400   2.881  0.2267  0.8263  0.1629
 7011SOL     OW27815   1.157   3.653   1.698  0.4969  0.0191  0.0211
 7011SOL    HW227816   1.210   3.721   1.739  0.9150  0.0495 -0.5551
 7011SOL    HW327817   1.211   3.621   1.626  0.1865 -0.7257  0.1095
 7011SOL    MW427818   1.171   3.658   1.694  0.5111 -0.0751 -0.0432
 7012SOL     OW27819   6.262   4.248   5.587 -0.1438  0.3574 -0.0058
 7012SOL    HW227820   6.302   4.184   5.645  1.5000  1.9985  0.7830
 7012SOL    HW327821   6.229   4.196   5.513  1.2092 -1.3756  0.5392
 7012SOL    MW427822   6.263   4.233   5.585  0.2516  0.3452  0.1702
 7013SOL     OW27823   4.306   4.259   5.059  0.1544 -0.2433  0.6013
 7013SOL    HW227824   4.350   4.344   5.065 -0.8846  0.4372 -0.8643
 7013SOL    HW327825   4.273   4.256   4.970 -1.8721 -1.1642  1.3250
 7013SOL    MW427826   4.308   4.270   5.048 -0.2501 -0.2751  0.5034
 7014SOL     OW27827   2.662   4.827   1.372 -0.0057  0.1872  0.0147
 7014SOL    HW227828   2.595   4.885   1.408  0.3031  1.1230 -0.8896
 7014SOL    HW327829   2.726   4.818   1.443 -1.0810 -0.7636  0.9111
 7014SOL    MW427830   2.662   4.833   1.386 -0.1069  0.1852  0.0137
 7015SOL     OW27831   4.773   1.445   0.739  0.3902  0.0884  0.2775
 7015SOL    HW227832   4.850   1.424   0.686  1.0524 -1.8493  1.8667
 7015SOL    HW327833   4.792   1.531   0.775  2.7499 -1.0455  2.0410
 7015SOL    MW427834   4.785   1.453   0.737  0.7889 -0.3169  0.7198
 7016SOL     OW27835   1.269   4.269   6.307 -0.0021  0.2735 -0.1861
 7016SOL    HW227836   1.220   4.337   6.260  1.9488  0.2123 -2.4967
 7016SOL    HW327837   1.231   4.187   6.275 -0.0472  0.2401 -0.0474
 7016SOL    MW427838   1.257   4.267   6.296  0.2493  0.2610 -0.4726
 7017SOL     OW27839   1.891   0.916   3.939  0.3524  0.0918  0.0182
 7017SOL    HW227840   1.925   0.833   3.972  1.9016 -0.3134 -2.3419
 7017SOL    HW327841   1.925   0.982   4.001  1.4674 -0.7798  0.3728
 7017SOL    MW427842   1.900   0.914   3.952  0.7039 -0.0766 -0.2464
 7018SOL     OW27843   4.005   0.839   0.893 -0.7839  0.2169 -0.5503
 7018SOL    HW227844   4.025   0.758   0.940  0.1786  0.8743  0.2181
 7018SOL    HW327845   3.967   0.810   0.810 -1.0446 -1.0025 -0.0272
 7018SOL    MW427846   4.003   0.825   0.888 -0.6913  0.1428 -0.3799
 7019SOL     OW27847   4.851   6.197   4.770 -0.1291 -0.2490 -0.6513
 7019SOL    HW227848   4.935   6.183   4.727  0.4694  0.5903  0.2016
 7019SOL    HW327849   4.865   6.168   4.860 -1.1288 -1.2483 -0.7930
 7019SOL    MW427850   4.864   6.192   4.776 -0.1820 -0.2701 -0.5575
 7020SOL     OW27851   0.134   0.095   1.885  0.3770  0.1314  0.2977
 7020SOL    HW227852   0.228   0.099   1.866  0.0797  2.3539 -1.0556
 7020SOL    HW327853   0.095   0.056   1.806 -0.1031  2.2329 -0.5654
 7020SOL    MW427854   0.141   0.090   1.872  0.2744  0.7019  0.0053
 7021SOL     OW27855   4.451   4.075   2.637  0.0854  0.0102  0.5130
 7021SOL    HW227856   4.512   4.137   2.677  0.3242  1.4336 -1.8947
 7021SOL    HW327857   4.365   4.115   2.648  0.1618  0.4523 -0.4137
 7021SOL    MW427858   4.448   4.088   2.644  0.1270  0.2563  0.0731
 7022SOL     OW27859   0.656   0.403   2.255  0.1889  0.2137  0.5233
 7022SOL    HW227860   0.642   0.354   2.336  0.0104  1.7734  1.4938
 7022SOL    HW327861   0.751   0.399   2.241  0.0415 -1.5811 -0.2423
 7022SOL    MW427862   0.667   0.396   2.264  0.1459  0.1827  0.5503
 7023SOL     OW27863   4.447   5.137   5.102 -0.0282 -0.4115  0.0185
 7023SOL    HW227864   4.383   5.185   5.154 -1.4745 -3.0251  0.8632
 7023SOL    HW327865   4.499   5.204   5.059 -2.0864  1.8428  0.8364
 7023SOL    MW427866   4.445   5.152   5.103 -0.4906 -0.4589  0.2378
 7024SOL     OW27867   1.578   2.766   1.253  0.5164  0.1597 -0.6116
 7024SOL    HW227868   1.662   2.735   1.286  0.5514  0.1947 -0.6688
 7024SOL    HW327869   1.529   2.686   1.233 -0.2225  0.0890  1.3252
 7024SOL    MW427870   1.582   2.751   1.255  0.4235  0.1550 -0.3636
 7025SOL     OW27871   5.189   5.701   4.525 -0.1995 -0.6761  0.1266
 7025SOL    HW227872   5.191   5.607   4.546  0.2131 -0.7780 -0.3579
 7025SOL    HW327873   5.264   5.737   4.572 -0.1410 -0.6540  0.0170
 7025SOL    MW427874   5.199   5.693   4.534 -0.1373 -0.6866  0.0482
 7026SOL     OW27875   3.682   4.010   5.814  0.0948 -0.3008  0.0326
 7026SOL    HW227876   3.646   4.096   5.792  1.4829  0.0516 -1.0537
 7026SOL    HW327877   3.744   4.028   5.886 -0.2771 -0.5441  0.4167
 7026SOL    MW427878   3.686   4.024   5.821  0.2289 -0.2864 -0.0600
 7027SOL     OW27879   1.892   6.208   1.086  0.5265  0.1418 -0.3380
 7027SOL    HW227880   1.964   6.211   1.023 -0.7978 -0.1427 -1.9562
 7027SOL    HW327881   1.814   6.223   1.033 -0.8896 -2.4930  0.7953
 7027SOL    MW427882   1.891   6.210   1.071  0.1650 -0.2434 -0.4020
 7028SOL     OW27883   1.824   6.215   3.995 -0.5577 -0.1922  0.9731
 7028SOL    HW227884   1.891   6.186   3.934  0.3315  2.3143  0.6646
 7028SOL    HW327885   1.853   6.181   4.080  0.7657  0.2574  0.7251
 7028SOL    MW427886   1.837   6.207   3.998 -0.2658  0.1978  0.8997
 7029SOL     OW27887   5.007   0.777   1.796 -0.4235  0.0015 -0.5173
 7029SOL    HW227888   5.006   0.750   1.704 -0.8922 -0.9043 -0.2611
 7029SOL    HW327889   5.059   0.857   1.797  1.4487 -1.1369 -1.2522
 7029SOL    MW427890   5.014   0.784   1.784 -0.2383 -0.2682 -0.5804
 7030SOL     OW27891   4.938   4.850   1.828  0.2610  0.3001 -0.3278
 7030SOL    HW227892   4.844   4.867   1.814  0.0584 -1.4286 -1.3387
 7030SOL    HW327893   4.974   4.840   1.740  0.8593 -1.6002  0.0955
 7030SOL    MW427894   4.930   4.851   1.815  0.3132 -0.1787 -0.4053
 7031SOL     OW27895   4.904   4.310   2.648  0.0618 -0.0451  0.4043
 7031SOL    HW227896   4.945   4.319   2.562  0.3580  1.0268  0.6489
 7031SOL    HW327897   4.967   4.349   2.709 -0.9890  0.9615  0.8699
 7031SOL    MW427898   4.918   4.316   2.644 -0.0378  0.2292  0.4980
 7032SOL     OW27899   0.584   4.913   2.504 -0.0246 -0.1797  0.1434
 7032SOL    HW227900   0.652   4.902   2.571 -0.9752 -0.1226  1.1530
 7032SOL    HW327901   0.632   4.920   2.422  1.2010  0.0271  0.8467
 7032SOL    MW427902   0.599   4.913   2.502  0.0117 -0.1448  0.3694
 7033SOL     OW27903   3.994   3.211   2.512  0.3086  0.1100  0.1459
 7033SOL    HW227904   4.036   3.139   2.467  1.3189 -0.0111  1.2259
 7033SOL    HW327905   3.910   3.222   2.468  0.3171 -1.4502 -0.2911
 7033SOL    MW427906   3.988   3.203   2.501  0.4430 -0.1118  0.2307
 7034SOL     OW27907   0.809   3.191   0.937  1.1214  0.4926 -0.5669
 7034SOL    HW227908   0.805   3.097   0.924  2.1676  0.3800 -0.1634
 7034SOL    HW327909   0.824   3.202   1.031  0.5142  1.0790 -0.5307
 7034SOL    MW427910   0.811   3.180   0.947  1.1793  0.5551 -0.5089
 7035SOL     OW27911   5.945   1.779   1.582 -0.1484 -0.1236 -0.3501
 7035SOL    HW227912   5.865   1.829   1.564 -0.6175 -0.8616 -0.3658
 7035SOL    HW327913   6.003   1.842   1.624 -0.0860  0.8869 -1.8625
 7035SOL    MW427914   5.942   1.794   1.585 -0.2021 -0.0877 -0.5517
 7036SOL     OW27915   2.500   2.824   4.285  0.5458  0.0543 -0.2476
 7036SOL    HW227916   2.536   2.913   4.288  3.6353 -0.9954 -1.7286
 7036SOL    HW327917   2.451   2.821   4.203  0.9807  0.2270 -0.5166
 7036SOL    MW427918   2.498   2.835   4.274  1.0108 -0.0614 -0.4785
 7037SOL     OW27919   1.849   2.061   1.348  0.0132 -0.5795  0.0757
 7037SOL    HW227920   1.921   2.040   1.407  0.3317  0.7066  0.1690
 7037SOL    HW327921   1.886   2.124   1.286 -0.7443 -0.7094 -0.5228
 7037SOL    MW427922   1.863   2.067   1.348 -0.0447 -0.4270  0.0090
 7038SOL     OW27923   0.486   0.872   2.719  0.1880  0.4435 -0.1117
 7038SOL    HW227924   0.392   0.865   2.736  0.1443 -1.0917 -0.8398
 7038SOL    HW327925   0.517   0.938   2.782 -1.0376 -0.4204  1.4598
 7038SOL    MW427926   0.478   0.880   2.730  0.0205  0.1270 -0.0004
 7039SOL     OW27927   5.994   2.220   0.583 -0.6477 -0.6122  0.1708
 7039SOL    HW227928   6.008   2.204   0.676  3.0824  1.3600  0.1780
 7039SOL    HW327929   5.976   2.314   0.578  0.4272 -0.4484 -1.1232
 7039SOL    MW427930   5.994   2.231   0.595 -0.0138 -0.3303  0.0010
 7040SOL     OW27931   1.269   6.103   3.656 -0.6715 -0.0723  0.0487
 7040SOL    HW227932   1.196   6.094   3.595 -0.7434 -0.5986  0.2100
 7040SOL    HW327933   1.279   6.016   3.696  1.7171 -0.7851 -1.8615
 7040SOL    MW427934   1.261   6.090   3.654 -0.3658 -0.2358 -0.1820
 7041SOL     OW27935   3.985   4.544   1.353  0.4549 -0.4797 -0.3026
 7041SOL    HW227936   4.034   4.625   1.337  1.9746 -1.3729 -0.4011
 7041SOL    HW327937   3.944   4.558   1.439 -0.2988  0.8384 -0.8468
 7041SOL    MW427938   3.986   4.557   1.362  0.5560 -0.4236 -0.3874
 7042SOL     OW27939   0.860   2.076   5.712  0.2715 -0.1611 -0.2276
 7042SOL    HW227940   0.931   2.071   5.648  0.0946 -1.4542 -0.3532
 7042SOL    HW327941   0.819   1.989   5.709  0.1591 -0.2058  1.5308
 7042SOL    MW427942   0.864   2.064   5.703  0.2333 -0.3376 -0.0122
 7043SOL     OW27943   4.165   0.353   6.110 -0.1585  0.4411  0.0557
 7043SOL    HW227944   4.236   0.417   6.106  0.7886 -0.6167 -0.8275
 7043SOL    HW327945   4.195   0.288   6.173  0.0544 -0.4357 -0.9266
 7043SOL    MW427946   4.178   0.353   6.118 -0.0055  0.1858 -0.1904
 7044SOL     OW27947   5.642   6.113   2.166  0.2620  0.0134  0.0104
 7044SOL    HW227948   5.722   6.076   2.129  1.3722  1.4145  0.9187
 7044SOL    HW327949   5.665   6.203   2.189 -0.5566 -0.5096  3.3685
 7044SOL    MW427950   5.655   6.120   2.164  0.3005  0.1293  0.5733
 7045SOL     OW27951   4.015   6.363   0.862  0.0381 -0.4467  0.3152
 7045SOL    HW227952   4.072   6.440   0.868 -0.6904  0.0713  0.7783
 7045SOL    HW327953   4.070   6.290   0.890  0.7422 -0.0904 -0.1380
 7045SOL    MW427954   4.030   6.364   0.867  0.0349 -0.3313  0.3165
 7046SOL     OW27955   3.917   0.637   5.220 -0.5245  0.0507 -0.0850
 7046SOL    HW227956   3.882   0.707   5.164  0.6818  0.2544 -0.6274
 7046SOL    HW327957   3.865   0.642   5.300 -1.7702  0.2695 -0.8767
 7046SOL    MW427958   3.905   0.647   5.223 -0.5297  0.1065 -0.2610
 7047SOL     OW27959   1.762   1.282   2.057 -0.0231  0.2984 -0.4419
 7047SOL    HW227960   1.729   1.193   2.049 -0.8712  0.5401  0.1847
 7047SOL    HW327961   1.684   1.337   2.043 -0.0309  0.8782  1.5865
 7047SOL    MW427962   1.747   1.278   2.054 -0.1360  0.4068 -0.0916
 7048SOL     OW27963   0.510   3.865   0.723 -0.1002  0.2389  0.3623
 7048SOL    HW227964   0.467   3.921   0.788  0.0498  1.6051 -0.6613
 7048SOL    HW327965   0.501   3.776   0.758  0.4917  0.9589  2.5263
 7048SOL    MW427966   0.503   3.861   0.736 -0.0023  0.5141  0.5128
 7049SOL     OW27967   3.937   0.802   2.071 -0.1653 -0.2296  0.0934
 7049SOL    HW227968   3.962   0.710   2.068  0.4063 -0.2353  2.6817
 7049SOL    HW327969   3.990   0.839   2.142 -0.8274  1.9529 -0.4803
 7049SOL    MW427970   3.947   0.795   2.080 -0.1772  0.0576  0.3592
 7050SOL     OW27971   3.834   5.089   3.543 -0.2296  0.2140  0.3695
 7050SOL    HW227972   3.901   5.081   3.611  0.5947 -0.1097 -0.4693
 7050SOL    HW327973   3.806   5.000   3.526 -1.1770  0.3772  0.9900
 7050SOL    MW427974   3.839   5.076   3.550 -0.2459  0.1928  0.3407
 7051SOL     OW27975   2.194   1.151   1.859 -0.1044  0.3811  0.1427
 7051SOL    HW227976   2.120   1.095   1.881 -0.7887  1.4854  0.7684
 7051SOL    HW327977   2.255   1.139   1.932 -0.1506  0.2891  0.1660
 7051SOL    MW427978   2.193   1.142   1.872 -0.2008  0.5147  0.2283
 7052SOL     OW27979   2.959   3.942   5.490 -0.4700 -0.9290  0.7330
 7052SOL    HW227980   2.941   4.017   5.434 -1.2678 -3.4727 -2.7592
 7052SOL    HW327981   2.909   3.959   5.570 -0.9399  2.0076 -0.0709
 7052SOL    MW427982   2.950   3.954   5.493 -0.6373 -0.8772  0.1662
 7053SOL     OW27983   4.582   4.725   2.417  0.0744 -0.3433 -0.3081
 7053SOL    HW227984   4.573   4.799   2.477  0.9000 -1.5954  1.4140
 7053SOL    HW327985   4.503   4.673   2.431 -0.8707  0.5316 -2.0591
 7053SOL    MW427986   4.570   4.728   2.426  0.0586 -0.3931 -0.3119
 7054SOL     OW27987   2.198   0.292   2.724 -0.0565  0.3113  0.4695
 7054SOL    HW227988   2.200   0.385   2.703  0.9931 -0.0464 -1.2838
 7054SOL    HW327989   2.291   0.268   2.732 -0.2032 -0.9635 -1.1717
 7054SOL    MW427990   2.211   0.301   2.722  0.0626  0.0959  0.0216
 7055SOL     OW27991   5.025   2.355   3.869 -0.1991  0.1938  0.0180
 7055SOL    HW227992   5.059   2.353   3.958 -0.8184  0.1724  0.2556
 7055SOL    HW327993   5.036   2.266   3.836  1.5558  0.5599 -0.5212
 7055SOL    MW427994   5.031   2.343   3.876 -0.0492  0.2393 -0.0218
 7056SOL     OW27995   5.796   3.742   1.616  0.2330 -0.2542 -0.1564
 7056SOL    HW227996   5.799   3.763   1.523  1.7830  2.7406  0.4386
 7056SOL    HW327997   5.837   3.818   1.659 -2.1086 -0.6357  3.1042
 7056SOL    MW427998   5.802   3.755   1.609  0.1286  0.0906  0.3523
 7057SOL     OW27999   5.095   3.243   2.622  0.7542 -0.3723  0.1107
 7057SOL    HW228000   5.073   3.197   2.541 -1.1352 -1.3424  1.0833
 7057SOL    HW328001   5.160   3.308   2.597 -3.2761  2.9503 -3.3046
 7057SOL    MW428002   5.101   3.246   2.608 -0.0268 -0.0619 -0.2116
 7058SOL     OW28003   0.271   0.956  -0.011  0.1708  0.1173  0.7238
 7058SOL    HW228004   0.279   1.036   0.041 -0.8336  0.2662  0.6694
 7058SOL    HW328005   0.178   0.935  -0.008  0.1782 -0.1947 -0.5178
 7058SOL    MW428006   0.260   0.964  -0.004  0.0393  0.0958  0.5528
 7059SOL     OW28007   4.151   1.398   4.983  0.4893 -0.8910 -0.0263
 7059SOL    HW228008   4.110   1.313   4.998  1.3265 -1.5113 -1.0645
 7059SOL    HW328009   4.238   1.377   4.949  0.2540  0.3785 -1.5286
 7059SOL    MW428010   4.157   1.384   4.980  0.5687 -0.8054 -0.3615
 7060SOL     OW28011   2.394   0.280   0.099  0.5691  0.8640 -0.3229
 7060SOL    HW228012   2.348   0.360   0.072 -1.5533  0.6434  2.2605
 7060SOL    HW328013   2.326   0.226   0.140  2.7058 -0.5065  1.6683
 7060SOL    MW428014   2.379   0.284   0.101  0.5710  0.6541  0.2807
 7061SOL     OW28015   3.270   1.648   5.788  0.3108  0.1485  0.2150
 7061SOL    HW228016   3.348   1.615   5.744 -0.5604 -0.7483 -0.7265
 7061SOL    HW328017   3.299   1.673   5.875  1.6188 -0.2468 -0.0958
 7061SOL    MW428018   3.284   1.647   5.793  0.3685 -0.0220  0.0497
 7062SOL     OW28019   6.274   1.310   0.908  0.2378  0.5400  0.0544
 7062SOL    HW228020   6.258   1.281   0.818  0.0745 -0.4990  0.3929
 7062SOL    HW328021   6.368   1.305   0.919  0.3332  1.4285 -0.2900
 7062SOL    MW428022   6.284   1.305   0.897  0.2288  0.5202  0.0536
 7063SOL     OW28023   4.592   5.387   1.206  0.1941 -1.2828  0.0770
 7063SOL    HW228024   4.543   5.325   1.153  0.0658 -0.5132 -0.7422
 7063SOL    HW328025   4.600   5.465   1.151 -0.0906 -0.3834  1.2525
 7063SOL    MW428026   4.587   5.389   1.192  0.1396 -1.0626  0.1240
 7064SOL     OW28027   4.669   2.869   0.848  0.4710 -0.5429  0.6898
 7064SOL    HW228028   4.576   2.887   0.834  1.4704  3.4326 -2.8407
 7064SOL    HW328029   4.687   2.905   0.935 -0.7823  1.5937  0.1389
 7064SOL    MW428030   4.659   2.876   0.858  0.4375  0.2635  0.1513
 7065SOL     OW28031   4.010   6.157   4.280  0.2905  0.6820 -0.3886
 7065SOL    HW228032   4.099   6.175   4.249 -0.0290  1.0464 -1.1199
 7065SOL    HW328033   4.009   6.062   4.297  0.2437  0.3015 -2.3291
 7065SOL    MW428034   4.022   6.147   4.278  0.2422  0.6799 -0.7411
 7066SOL     OW28035   1.200   2.605   3.962 -0.0429  0.5710 -0.5550
 7066SOL    HW228036   1.165   2.540   4.024 -0.0877  0.4338 -0.7239
 7066SOL    HW328037   1.279   2.564   3.927 -0.1416  0.5546 -0.7579
 7066SOL    MW428038   1.206   2.591   3.966 -0.0618  0.5507 -0.6040
 7067SOL     OW28039   0.972   6.391   1.284 -0.0210 -0.0386  0.4099
 7067SOL    HW228040   0.884   6.413   1.253 -0.4498  0.4978  1.8834
 7067SOL    HW328041   1.027   6.393   1.206 -1.8018 -3.4483 -1.1216
 7067SOL    MW428042   0.967   6.394   1.270 -0.3126 -0.4177  0.4022
 7068SOL     OW28043   5.710   5.758   3.235 -0.0793 -0.0558 -0.7462
 7068SOL    HW228044   5.802   5.740   3.252  0.2812  1.6763 -0.6240
 7068SOL    HW328045   5.707   5.783   3.142 -0.2331  0.8378 -0.5173
 7068SOL    MW428046   5.722   5.759   3.225 -0.0520  0.2906 -0.6999
 7069SOL     OW28047   3.109   2.294   5.067 -0.6165 -0.7114  0.0164
 7069SOL    HW228048   3.149   2.210   5.091 -0.4376 -0.6290  0.0085
 7069SOL    HW328049   3.182   2.347   5.034 -0.6606 -0.4168  0.3815
 7069SOL    MW428050   3.124   2.290   5.066 -0.5987 -0.6617  0.0635
 7070SOL     OW28051   1.515   1.282   0.460 -0.2575  0.5888 -0.6058
 7070SOL    HW228052   1.455   1.244   0.395 -2.4291  0.9741  1.0509
 7070SOL    HW328053   1.566   1.208   0.491 -1.0905 -0.1082 -0.8362
 7070SOL    MW428054   1.514   1.267   0.455 -0.6539  0.5476 -0.4176
 7071SOL     OW28055   6.080   6.111   2.649 -0.5660 -0.3367  0.8357
 7071SOL    HW228056   6.089   6.092   2.742 -0.1830  0.9220  1.0767
 7071SOL    HW328057   6.170   6.132   2.621 -0.4795 -1.7798 -0.0848
 7071SOL    MW428058   6.093   6.111   2.657 -0.5041 -0.3610  0.7461
 7072SOL     OW28059   4.037   3.550   2.911  0.0576  0.5314 -0.0917
 7072SOL    HW228060   4.074   3.631   2.947  0.3970  0.0945  0.5427
 7072SOL    HW328061   4.008   3.575   2.823 -2.1352  1.9951  0.9621
 7072SOL    MW428062   4.038   3.564   2.904 -0.1869  0.6669  0.1310
 7073SOL     OW28063   6.253   2.538   3.866 -0.1285 -0.2244 -0.3150
 7073SOL    HW228064   6.276   2.481   3.792  2.0676 -0.6305  0.6080
 7073SOL    HW328065   6.335   2.580   3.890  0.0167 -2.4222  3.8335
 7073SOL    MW428066   6.267   2.536   3.859  0.1804 -0.5679  0.3541
 7074SOL     OW28067   2.677   0.066   5.346  0.2692  0.7503 -0.4271
 7074SOL    HW228068   2.632   0.150   5.341 -0.2987  0.3969 -1.6812
 7074SOL    HW328069   2.619   0.005   5.301  0.5030 -0.4050  0.7650
 7074SOL    MW428070   2.664   0.069   5.340  0.2251  0.5513 -0.4353
 7075SOL     OW28071   3.769   3.239   0.304  0.1861 -0.2293 -0.2207
 7075SOL    HW228072   3.857   3.231   0.266 -0.2772 -3.0116 -0.9351
 7075SOL    HW328073   3.773   3.189   0.385 -0.3478  1.0149  0.6019
 7075SOL    MW428074   3.781   3.231   0.309  0.0545 -0.4322 -0.2064
 7076SOL     OW28075   4.026   0.088   1.988  0.8297 -0.3945  0.5682
 7076SOL    HW228076   3.977   0.155   1.940  0.8665  0.6713  1.9666
 7076SOL    HW328077   3.974   0.008   1.976 -0.5817  0.4275  0.9509
 7076SOL    MW428078   4.013   0.086   1.980  0.6483 -0.1454  0.8032
 7077SOL     OW28079   3.557   0.272   0.173  0.3487  0.5421 -0.1753
 7077SOL    HW228080   3.487   0.333   0.195 -0.1504 -0.4456  1.0938
 7077SOL    HW328081   3.622   0.283   0.242  0.9204  0.6299 -0.7130
 7077SOL    MW428082   3.556   0.282   0.185  0.3583  0.4234 -0.0788
 7078SOL     OW28083   6.338   1.074   5.426  0.3300  0.4573  0.5669
 7078SOL    HW228084   6.318   1.150   5.373  0.3248  1.9619  2.5990
 7078SOL    HW328085   6.258   1.022   5.426 -0.1093  1.1336  0.2162
 7078SOL    MW428086   6.325   1.077   5.419  0.2713  0.7450  0.7887
 7079SOL     OW28087   5.501   3.527   0.857 -0.4147 -0.3945  0.7221
 7079SOL    HW228088   5.479   3.569   0.940 -0.5289 -0.4507  0.7204
 7079SOL    HW328089   5.581   3.477   0.876  0.0873  0.3347  0.5612
 7079SOL    MW428090   5.509   3.526   0.871 -0.3636 -0.3057  0.7007
 7080SOL     OW28091   0.200   1.592   2.168  0.1417 -0.0687  0.2888
 7080SOL    HW228092   0.227   1.504   2.195 -0.2782  0.1799  1.6140
 7080SOL    HW328093   0.152   1.579   2.087 -0.5618 -1.1671  0.8599
 7080SOL    MW428094   0.197   1.579   2.161 -0.0065 -0.1808  0.5390
 7081SOL     OW28095   2.140   0.080   0.954  0.1513  0.2201 -0.1887
 7081SOL    HW228096   2.094   0.076   1.038  2.2708 -0.4471  1.0056
 7081SOL    HW328097   2.090   0.021   0.897 -1.2657  0.6041  0.6179
 7081SOL    MW428098   2.127   0.071   0.958  0.2440  0.1827  0.0753
 7082SOL     OW28099   4.575   5.619   0.243 -0.3088 -0.3684 -0.2857
 7082SOL    HW228100   4.642   5.570   0.291  0.1907 -0.3373 -0.9440
 7082SOL    HW328101   4.494   5.569   0.258 -0.3341  0.0711  1.2335
 7082SOL    MW428102   4.573   5.606   0.251 -0.2462 -0.3063 -0.1721
 7083SOL     OW28103   1.621   2.866   1.585 -0.1641 -0.3924  0.0455
 7083SOL    HW228104   1.618   2.907   1.672  1.1918  1.5048 -0.7253
 7083SOL    HW328105   1.533   2.833   1.571 -1.3038  2.0496  0.8899
 7083SOL    MW428106   1.609   2.867   1.595 -0.1356  0.1801  0.0553
 7084SOL     OW28107   0.493   2.699   5.900 -0.4421  0.2087  0.4136
 7084SOL    HW228108   0.548   2.757   5.954 -1.9957  1.7813  0.4202
 7084SOL    HW328109   0.536   2.698   5.815  0.4247  0.1354  0.8335
 7084SOL    MW428110   0.506   2.707   5.896 -0.5327  0.4065  0.4699
 7085SOL     OW28111   5.198   1.440   0.702  0.4707  1.0185  0.5707
 7085SOL    HW228112   5.158   1.499   0.637 -0.0828  0.0418  0.0072
 7085SOL    HW328113   5.283   1.480   0.720  0.0462  2.0904  0.3378
 7085SOL    MW428114   5.204   1.453   0.696  0.3416  1.0310  0.4657
 7086SOL     OW28115   6.011   5.639   5.544 -0.0387  0.4931 -0.2415
 7086SOL    HW228116   6.040   5.715   5.593  1.8965 -0.1648 -0.2654
 7086SOL    HW328117   5.926   5.616   5.582  1.2890  0.0962  2.7509
 7086SOL    MW428118   6.004   5.646   5.555  0.3918  0.3540  0.1501
 7087SOL     OW28119   1.380   1.765   4.421  0.2266  0.5779  0.4765
 7087SOL    HW228120   1.404   1.801   4.336  2.1935  0.3813  0.8983
 7087SOL    HW328121   1.451   1.706   4.444 -0.6522  0.0008  1.9045
 7087SOL    MW428122   1.392   1.762   4.413  0.3702  0.4759  0.7206
 7088SOL     OW28123   1.910   4.385   1.210 -0.1176  0.0698 -0.4122
 7088SOL    HW228124   1.900   4.420   1.122 -0.6196 -0.1957 -0.4646
 7088SOL    HW328125   1.850   4.437   1.264 -1.2073 -0.9756 -0.5720
 7088SOL    MW428126   1.901   4.397   1.205 -0.3276 -0.1031 -0.4402
 7089SOL     OW28127   4.916   1.907  -0.017  0.0784 -0.0713  0.0879
 7089SOL    HW228128   4.910   1.811  -0.016  1.6353 -0.1937  1.6497
 7089SOL    HW328129   5.003   1.925  -0.052 -0.4774  0.8313 -0.8814
 7089SOL    MW428130   4.926   1.896  -0.022  0.2105  0.0316  0.1661
 7090SOL     OW28131   0.520   0.039   0.874  0.0946 -0.1759 -0.5684
 7090SOL    HW228132   0.523   0.135   0.879 -0.1320 -0.1871 -0.1626
 7090SOL    HW328133   0.446   0.015   0.929 -1.1091 -0.4853 -2.2439
 7090SOL    MW428134   0.511   0.049   0.882 -0.0941 -0.2182 -0.7359
 7091SOL     OW28135   1.777   4.504   1.848  0.5009 -0.5346 -0.2691
 7091SOL    HW228136   1.788   4.436   1.782  0.5137 -1.0623  0.2729
 7091SOL    HW328137   1.695   4.548   1.823  0.9765 -0.1227 -1.1580
 7091SOL    MW428138   1.767   4.501   1.836  0.5653 -0.5498 -0.3149
 7092SOL     OW28139   4.997   6.015   3.471 -0.1664  0.6154  0.0785
 7092SOL    HW228140   5.006   5.945   3.407 -1.0658  1.9770 -1.6271
 7092SOL    HW328141   5.061   6.080   3.445 -0.2127  0.9900  0.8643
 7092SOL    MW428142   5.006   6.014   3.460 -0.2912  0.8445 -0.0429
 7093SOL     OW28143   2.182   4.440   4.809 -0.0447  0.2684 -0.2173
 7093SOL    HW228144   2.196   4.359   4.858  0.4297  0.7856  0.5326
 7093SOL    HW328145   2.088   4.459   4.820 -0.5476 -1.0473 -1.8185
 7093SOL    MW428146   2.171   4.432   4.817 -0.0485  0.1631 -0.3297
 7094SOL     OW28147   3.403   1.955   1.688 -0.2792 -1.1104  0.6081
 7094SOL    HW228148   3.403   1.987   1.598 -0.0869 -1.8262  0.3459
 7094SOL    HW328149   3.477   2.000   1.729 -0.3103 -0.8526  0.3859
 7094SOL    MW428150   3.413   1.965   1.681 -0.2579 -1.1708  0.5442
 7095SOL     OW28151   3.257   5.185   2.775 -0.0965 -0.0593 -0.2962
 7095SOL    HW228152   3.221   5.100   2.749  1.8555 -1.7058  1.9160
 7095SOL    HW328153   3.346   5.166   2.805  1.2476  3.1692 -1.7439
 7095SOL    MW428154   3.264   5.172   2.776  0.3384  0.1494 -0.1953
 7096SOL     OW28155   4.671   1.692   2.148  0.3687 -0.0150  0.2535
 7096SOL    HW228156   4.677   1.787   2.134 -0.9952  0.3732  1.9083
 7096SOL    HW328157   4.667   1.682   2.244  0.3589 -1.7391  0.1052
 7096SOL    MW428158   4.671   1.703   2.159  0.1875 -0.1913  0.4522
 7097SOL     OW28159   3.126   4.326   3.573  0.2895  0.0450 -0.7357
 7097SOL    HW228160   3.222   4.328   3.563  0.4941  2.1382  0.8757
 7097SOL    HW328161   3.100   4.242   3.535  2.6651 -0.2379 -1.9676
 7097SOL    MW428162   3.135   4.315   3.567  0.6299  0.2838 -0.6856
 7098SOL     OW28163   0.363   0.457   4.654  0.4525 -0.1134  0.8758
 7098SOL    HW228164   0.366   0.465   4.750  0.1050  0.5232  0.8454
 7098SOL    HW328165   0.282   0.503   4.630 -1.5967 -3.5654  0.5753
 7098SOL    MW428166   0.353   0.464   4.664  0.1363 -0.4849  0.8321
 7099SOL     OW28167   2.887   5.731   1.544  0.4117 -0.4947  0.5316
 7099SOL    HW228168   2.832   5.665   1.502 -0.3815  0.3419  0.2182
 7099SOL    HW328169   2.894   5.801   1.479 -0.2582  0.5210  1.5121
 7099SOL    MW428170   2.881   5.732   1.530  0.2186 -0.2503  0.6196
 7100SOL     OW28171   2.939   5.584   2.863 -0.1966  0.0469 -0.3139
 7100SOL    HW228172   2.936   5.565   2.770 -2.0889 -0.9846 -0.0718
 7100SOL    HW328173   2.989   5.512   2.901  1.4810  1.0031 -0.6121
 7100SOL    MW428174   2.945   5.572   2.856 -0.2250  0.0369 -0.3213
 7101SOL     OW28175   1.202   6.007   5.488 -0.7512  0.3541  0.1435
 7101SOL    HW228176   1.111   6.031   5.503 -2.1139 -3.0569 -1.5723
 7101SOL    HW328177   1.224   5.951   5.563 -1.1675 -1.2577 -0.8874
 7101SOL    MW428178   1.193   6.003   5.500 -0.9859 -0.3086 -0.2189
 7102SOL     OW28179   2.246   5.422   3.548 -0.1745 -0.5999 -0.0418
 7102SOL    HW228180   2.211   5.471   3.473  0.3527  0.1273  0.1698
 7102SOL    HW328181   2.341   5.433   3.541 -0.1433 -0.1293  0.9921
 7102SOL    MW428182   2.254   5.430   3.537 -0.1008 -0.4419  0.1225
 7103SOL     OW28183   1.573   6.402   6.033  0.1636 -0.6746 -0.2001
 7103SOL    HW228184   1.559   6.328   5.974  0.9754 -2.5505  1.8124
 7103SOL    HW328185   1.538   6.373   6.117  0.1631  1.4012  0.5770
 7103SOL    MW428186   1.566   6.388   6.036  0.2706 -0.6482  0.1680
 7104SOL     OW28187   2.308   1.342   0.150  0.0846  0.6583 -0.7982
 7104SOL    HW228188   2.226   1.351   0.102 -0.1140 -1.9082 -1.0469
 7104SOL    HW328189   2.355   1.272   0.105  1.3895  0.4705  0.7597
 7104SOL    MW428190   2.304   1.334   0.138  0.2306  0.2949 -0.6254
 7105SOL     OW28191   1.050   2.092   3.919  0.3854  0.2745 -0.2743
 7105SOL    HW228192   1.061   2.126   4.007 -0.4944 -0.5929  0.2034
 7105SOL    HW328193   1.003   2.009   3.931 -0.3318  0.4532 -1.5961
 7105SOL    MW428194   1.045   2.085   3.932  0.1747  0.1836 -0.3857
 7106SOL     OW28195   1.659   2.627   3.937 -0.3424  0.1701 -0.2781
 7106SOL    HW228196   1.577   2.586   3.908  1.2836 -2.4429 -1.4999
 7106SOL    HW328197   1.661   2.710   3.890 -3.2641  1.4162  1.4836
 7106SOL    MW428198   1.648   2.633   3.927 -0.5133 -0.0102 -0.2068
 7107SOL     OW28199   0.185   5.569   1.447 -0.1776 -0.5483  0.3668
 7107SOL    HW228200   0.134   5.638   1.489  0.5204 -0.1709  0.6186
 7107SOL    HW328201   0.243   5.616   1.387  0.0135 -0.9510  0.2343
 7107SOL    MW428202   0.186   5.585   1.444 -0.0603 -0.5516  0.3825
 7108SOL     OW28203   1.149   2.749   2.425  0.4656 -0.4090 -0.0495
 7108SOL    HW228204   1.065   2.724   2.464 -0.2482 -1.1619 -1.9781
 7108SOL    HW328205   1.127   2.780   2.338  2.1535 -0.0566 -0.3800
 7108SOL    MW428206   1.135   2.749   2.419  0.5941 -0.4618 -0.3476
 7109SOL     OW28207   0.029   1.983   3.767 -0.0379  0.1706  0.0352
 7109SOL    HW228208  -0.028   2.021   3.834 -0.9176  0.3470 -0.7971
 7109SOL    HW328209   0.117   2.003   3.797 -0.2326 -2.4521  2.7719
 7109SOL    MW428210   0.033   1.991   3.780 -0.1797 -0.1522  0.2864
 7110SOL     OW28211   0.428   2.880   5.510 -0.2020  0.8510 -0.2546
 7110SOL    HW228212   0.520   2.874   5.486 -0.1687 -1.2939  0.1949
 7110SOL    HW328213   0.428   2.925   5.594  0.3430  1.5467 -0.6133
 7110SOL    MW428214   0.440   2.885   5.518 -0.1257  0.6598 -0.2426
 7111SOL     OW28215   2.941   1.319   5.095  0.4647 -0.3705  0.0048
 7111SOL    HW228216   2.897   1.238   5.070 -0.5285 -0.3204  1.4913
 7111SOL    HW328217   2.991   1.296   5.174  0.0398  0.4792  0.5457
 7111SOL    MW428218   2.942   1.305   5.102  0.2776 -0.2518  0.2723
 7112SOL     OW28219   2.398   4.063   4.778 -0.0457 -0.1083  0.4938
 7112SOL    HW228220   2.441   3.996   4.725  0.2868  0.9394 -0.6017
 7112SOL    HW328221   2.469   4.118   4.810 -0.3467 -0.0374  1.0527
 7112SOL    MW428222   2.413   4.061   4.775 -0.0415  0.0393  0.4230
 7113SOL     OW28223   3.039   0.819   5.128  0.5290 -0.5827 -0.7457
 7113SOL    HW228224   3.090   0.829   5.047  2.1529  3.4957  0.5025
 7113SOL    HW328225   2.965   0.878   5.117  0.7251 -0.0452  0.6815
 7113SOL    MW428226   3.036   0.828   5.116  0.7692  0.0263 -0.3927
 7114SOL     OW28227   4.434   4.291   3.031  0.0936  0.5090 -0.3879
 7114SOL    HW228228   4.405   4.201   3.018 -0.4584  0.3048  1.7677
 7114SOL    HW328229   4.432   4.330   2.944  0.1196 -1.4824 -1.3434
 7114SOL    MW428230   4.430   4.284   3.018  0.0242  0.2193 -0.2296
 7115SOL     OW28231   4.090   2.133   2.954 -0.0494  0.1757  0.2657
 7115SOL    HW228232   4.155   2.063   2.956  0.3996  0.5604 -0.4351
 7115SOL    HW328233   4.139   2.211   2.928 -0.5150  0.7883  1.1646
 7115SOL    MW428234   4.105   2.134   2.950 -0.0516  0.3073  0.2919
 7116SOL     OW28235   6.258   0.416   5.035 -0.0062 -0.2655 -0.0442
 7116SOL    HW228236   6.173   0.372   5.030  1.0949 -2.5380  0.0370
 7116SOL    HW328237   6.319   0.356   4.992  1.9743  0.1604  1.9812
 7116SOL    MW428238   6.255   0.403   5.029  0.4004 -0.5091  0.2337
 7117SOL     OW28239   3.683   0.095   0.576  0.2664  0.2790 -0.0402
 7117SOL    HW228240   3.619   0.045   0.525  0.2352  0.1897  0.0851
 7117SOL    HW328241   3.755   0.034   0.590 -0.0399  0.0559  0.6464
 7117SOL    MW428242   3.684   0.080   0.572  0.2219  0.2378  0.0669
 7118SOL     OW28243   1.479   1.546   0.550 -0.8037  0.0237  0.2516
 7118SOL    HW228244   1.450   1.611   0.487 -0.0695  1.3600  1.2429
 7118SOL    HW328245   1.478   1.463   0.502 -1.8360  0.7374 -1.0087
 7118SOL    MW428246   1.475   1.543   0.535 -0.8431  0.2942  0.2161
 7119SOL     OW28247   3.817   0.734   6.121 -0.4067  0.2485  0.4688
 7119SOL    HW228248   3.725   0.747   6.098 -0.0711  0.3087 -0.9372
 7119SOL    HW328249   3.820   0.744   6.217 -1.2458  4.1732  0.2586
 7119SOL    MW428250   3.805   0.737   6.131 -0.4731  0.7743  0.2556
 7120SOL     OW28251   2.299   3.051   6.006  0.4321 -0.6797  0.0752
 7120SOL    HW228252   2.318   3.095   6.089 -0.5707 -0.7376  0.3390
 7120SOL    HW328253   2.377   3.069   5.952  0.5188  0.4937  0.5561
 7120SOL    MW428254   2.312   3.059   6.010  0.3112 -0.5325  0.1734
 7121SOL     OW28255   5.761   6.370   0.758  0.1368  0.4558 -0.4861
 7121SOL    HW228256   5.795   6.368   0.848  0.1920  1.7528 -0.4541
 7121SOL    HW328257   5.677   6.415   0.765 -0.3605 -0.3709 -0.9513
 7121SOL    MW428258   5.755   6.376   0.771  0.0785  0.5178 -0.5432
 7122SOL     OW28259   5.799   0.568   4.321  0.0883  0.4969 -0.6562
 7122SOL    HW228260   5.871   0.512   4.293 -0.8072 -0.5320 -0.9559
 7122SOL    HW328261   5.824   0.656   4.292  0.4336 -0.1088 -2.3135
 7122SOL    MW428262   5.811   0.572   4.314  0.0157  0.2812 -0.9144
 7123SOL     OW28263   5.741   0.231   0.157 -0.4426  0.0353 -0.0783
 7123SOL    HW228264   5.647   0.247   0.163 -0.6680 -0.9371 -0.8119
 7123SOL    HW328265   5.760   0.169   0.227 -0.4050 -0.0207 -0.1378
 7123SOL    MW428266   5.731   0.225   0.167 -0.4674 -0.1004 -0.1829
 7124SOL     OW28267   0.507   0.849   0.502 -0.0288 -0.1184 -0.2147
 7124SOL    HW228268   0.573   0.827   0.437  0.2931 -1.1951  0.4392
 7124SOL    HW328269   0.507   0.774   0.562  0.4241  1.2851  1.6216
 7124SOL    MW428270   0.516   0.836   0.501  0.0734 -0.0753  0.1139
 7125SOL     OW28271   2.066   0.848   5.428 -0.0761  0.1985 -0.0770
 7125SOL    HW228272   2.142   0.817   5.378 -0.1900  1.0719 -0.8121
 7125SOL    HW328273   2.018   0.769   5.451  0.7508 -0.3212 -0.1063
 7125SOL    MW428274   2.070   0.834   5.424  0.0180  0.2452 -0.1778
 7126SOL     OW28275   1.443   4.853   5.760  0.1978  0.2309  0.1327
 7126SOL    HW228276   1.493   4.858   5.678  1.1073 -1.9344  0.4890
 7126SOL    HW328277   1.449   4.761   5.785 -1.6431  0.4971  1.6806
 7126SOL    MW428278   1.451   4.841   5.752  0.0749 -0.0196  0.3839
 7127SOL     OW28279   2.915   1.345   1.291  0.0248 -0.3317  0.1253
 7127SOL    HW228280   2.938   1.325   1.200 -0.9774  0.8698 -0.4243
 7127SOL    HW328281   2.959   1.429   1.308 -0.2743 -0.2605  0.5483
 7127SOL    MW428282   2.924   1.354   1.281 -0.1469 -0.1638  0.1086
 7128SOL     OW28283   4.513   4.450   1.956  0.6233 -0.3143 -0.3472
 7128SOL    HW228284   4.482   4.426   2.043 -0.8046 -0.4577 -0.8755
 7128SOL    HW328285   4.563   4.374   1.926  2.3337  0.2667  0.8732
 7128SOL    MW428286   4.515   4.437   1.964  0.6606 -0.2565 -0.2559
 7129SOL     OW28287   6.202   0.723   1.080  0.8623 -0.0711 -0.0410
 7129SOL    HW228288   6.192   0.772   1.161  0.1978 -0.3306  0.0366
 7129SOL    HW328289   6.119   0.676   1.069  0.7700  0.3256 -1.1185
 7129SOL    MW428290   6.190   0.723   1.090  0.7624 -0.0530 -0.1729
 7130SOL     OW28291   2.441   5.612   5.738  0.2041  0.2126 -0.2230
 7130SOL    HW228292   2.455   5.658   5.655  1.6917 -0.0883 -0.1679
 7130SOL    HW328293   2.381   5.668   5.787  0.5773  1.2040 -0.8672
 7130SOL    MW428294   2.435   5.625   5.733  0.4496  0.3037 -0.3007
 7131SOL     OW28295   0.543   0.050   4.950  0.0915 -0.2737 -0.3010
 7131SOL    HW228296   0.468   0.005   4.989  1.1419 -0.7393  1.2851
 7131SOL    HW328297   0.534   0.141   4.976  0.1361 -0.3537 -0.0044
 7131SOL    MW428298   0.532   0.056   4.959  0.2360 -0.3457 -0.0526
 7132SOL     OW28299   5.711   4.509   3.701  0.1004  0.5998  0.7356
 7132SOL    HW228300   5.748   4.581   3.752 -0.7551  2.1674 -0.7502
 7132SOL    HW328301   5.779   4.486   3.638 -0.6839  2.3135 -0.8537
 7132SOL    MW428302   5.724   4.516   3.699 -0.1159  1.0328  0.3299
 7133SOL     OW28303   1.068   2.994   5.988  0.1598  0.1260 -0.2307
 7133SOL    HW228304   1.030   2.963   6.070 -0.2270  0.9239 -0.0960
 7133SOL    HW328305   1.109   2.916   5.949 -2.5194 -1.0840 -0.9132
 7133SOL    MW428306   1.068   2.979   5.993 -0.2447  0.0717 -0.3030
 7134SOL     OW28307   5.625   1.561   4.213 -0.4744  0.2981  0.0108
 7134SOL    HW228308   5.638   1.466   4.212 -4.6494 -0.5983  3.2267
 7134SOL    HW328309   5.590   1.582   4.127 -1.0986 -1.4212 -0.1865
 7134SOL    MW428310   5.622   1.551   4.202 -1.1076 -0.0470  0.4091
 7135SOL     OW28311   3.981   5.079   4.851  0.3372 -0.4808 -0.9833
 7135SOL    HW228312   3.936   5.045   4.774 -0.6659 -0.8442 -0.2555
 7135SOL    HW328313   4.002   5.001   4.903  0.2161 -0.1793 -0.4702
 7135SOL    MW428314   3.978   5.064   4.848  0.1889 -0.4890 -0.8196
 7136SOL     OW28315   1.783   5.939   1.061 -0.1396  0.1010  0.1427
 7136SOL    HW228316   1.820   6.017   1.103 -1.4598  0.4211  0.7788
 7136SOL    HW328317   1.691   5.961   1.047 -0.2424 -0.8719 -0.8602
 7136SOL    MW428318   1.776   5.952   1.065 -0.3274  0.0149  0.0943
 7137SOL     OW28319   1.854   3.466   3.301 -0.1983  0.5569 -0.3940
 7137SOL    HW228320   1.793   3.401   3.268 -0.8665  1.3444 -0.7282
 7137SOL    HW328321   1.940   3.425   3.292 -0.7348 -1.0377  1.1672
 7137SOL    MW428322   1.857   3.452   3.296 -0.3573  0.4504 -0.2321
 7138SOL     OW28323   5.650   5.350   0.533 -0.3569  0.0489  0.0761
 7138SOL    HW228324   5.625   5.396   0.453 -0.9501  0.3767  0.4448
 7138SOL    HW328325   5.617   5.261   0.521 -0.7180  0.1816  0.0841
 7138SOL    MW428326   5.643   5.344   0.521 -0.4828  0.1097  0.1258
 7139SOL     OW28327   5.285   5.085   6.285  0.2211  0.3560 -0.1344
 7139SOL    HW228328   5.195   5.056   6.272  0.0107  0.9156  0.0701
 7139SOL    HW328329   5.317   5.032   6.359  0.1244  0.0259 -0.3280
 7139SOL    MW428330   5.278   5.074   6.293  0.1806  0.3863 -0.1329
 7140SOL     OW28331   4.863   1.822   3.234  0.5306  0.0090  0.0893
 7140SOL    HW228332   4.840   1.729   3.233 -0.1887  0.1845 -0.5129
 7140SOL    HW328333   4.948   1.825   3.279  0.1720 -0.8396  0.8540
 7140SOL    MW428334   4.871   1.810   3.240  0.3884 -0.0798  0.1108
 7141SOL     OW28335   2.422   1.356   2.163  0.1615 -0.1530  0.1660
 7141SOL    HW228336   2.510   1.390   2.181  1.2005 -1.7995 -1.4275
 7141SOL    HW328337   2.437   1.268   2.129 -2.2109 -0.9823  1.0442
 7141SOL    MW428338   2.436   1.349   2.161 -0.0144 -0.4796  0.0717
 7142SOL     OW28339   4.132   1.332   2.352 -0.0838  0.1324  0.4243
 7142SOL    HW228340   4.057   1.274   2.362 -0.0151  0.3109  2.3804
 7142SOL    HW328341   4.097   1.409   2.306 -1.0798  0.1368  1.1495
 7142SOL    MW428342   4.118   1.335   2.347 -0.2061  0.1565  0.7781
 7143SOL     OW28343   2.067   2.893   2.912  0.1557 -0.1117  0.2831
 7143SOL    HW228344   2.128   2.967   2.908 -0.8209  0.6895 -0.4736
 7143SOL    HW328345   2.119   2.818   2.884  0.9148  0.4696  0.0934
 7143SOL    MW428346   2.082   2.893   2.907  0.1270  0.0707  0.1582
 7144SOL     OW28347   3.925   1.184   5.898 -0.0168 -0.2008  0.3920
 7144SOL    HW228348   3.980   1.107   5.910  0.4509 -0.2031 -1.4180
 7144SOL    HW328349   3.864   1.159   5.828  0.1877  1.0650 -0.2752
 7144SOL    MW428350   3.924   1.170   5.890  0.0719 -0.0341  0.0652
 7145SOL     OW28351   0.167   6.406   2.338 -0.1875  0.4238 -0.0322
 7145SOL    HW228352   0.157   6.491   2.381 -0.3345  1.4433 -2.0104
 7145SOL    HW328353   0.134   6.419   2.249 -0.3711 -1.7595 -0.3367
 7145SOL    MW428354   0.161   6.419   2.332 -0.2311  0.2703 -0.3334
 7146SOL     OW28355   4.747   1.700   4.635  0.4388  0.0374  0.0076
 7146SOL    HW228356   4.811   1.630   4.650  0.1157 -0.8238 -2.2309
 7146SOL    HW328357   4.747   1.751   4.716  2.8626 -0.8130  0.6235
 7146SOL    MW428358   4.755   1.698   4.648  0.7159 -0.1884 -0.2065
 7147SOL     OW28359   4.323   5.196   2.557  0.0408 -0.1119  0.1772
 7147SOL    HW228360   4.398   5.218   2.612  0.0849  0.9697 -0.2934
 7147SOL    HW328361   4.341   5.107   2.527  1.3642  0.2963 -0.3006
 7147SOL    MW428362   4.335   5.187   2.561  0.2212  0.0847  0.0520
 7148SOL     OW28363   2.361   2.816   2.190 -0.7048 -0.5470  0.1910
 7148SOL    HW228364   2.447   2.830   2.229 -1.4231  2.0013  1.1117
 7148SOL    HW328365   2.307   2.781   2.261 -0.4932 -2.0693 -0.3621
 7148SOL    MW428366   2.365   2.814   2.204 -0.7716 -0.4116  0.2395
 7149SOL     OW28367   0.197   4.706   0.310 -0.0047 -0.2369 -0.0915
 7149SOL    HW228368   0.164   4.677   0.225  0.5754  1.5985 -1.0002
 7149SOL    HW328369   0.269   4.646   0.330 -1.2447 -1.7712 -0.0134
 7149SOL    MW428370   0.202   4.694   0.302 -0.0917 -0.1972 -0.2011
 7150SOL     OW28371   5.349   4.895   1.252 -0.2192  0.2245  0.1284
 7150SOL    HW228372   5.313   4.884   1.164  0.6638 -0.2790 -0.1826
 7150SOL    HW328373   5.272   4.907   1.308 -0.8578 -0.6757 -0.5336
 7150SOL    MW428374   5.334   4.895   1.247 -0.1869  0.0393 -0.0000
 7151SOL     OW28375   5.247   0.240   6.096  0.7092  0.2881 -0.0442
 7151SOL    HW228376   5.216   0.312   6.152 -0.4967 -2.1879  2.7388
 7151SOL    HW328377   5.315   0.198   6.147  0.1098 -1.6209 -0.7546
 7151SOL    MW428378   5.252   0.244   6.110  0.4710 -0.2904  0.2293
 7152SOL     OW28379   3.592   1.563   1.044  0.2676 -0.4320 -0.2649
 7152SOL    HW228380   3.684   1.552   1.068  0.5840 -0.9625 -1.6170
 7152SOL    HW328381   3.594   1.625   0.972 -0.4276 -0.4986 -0.3410
 7152SOL    MW428382   3.605   1.570   1.038  0.2177 -0.5108 -0.4533
 7153SOL     OW28383   4.277   1.130   6.118 -0.2908 -0.3795 -0.3474
 7153SOL    HW228384   4.327   1.158   6.195 -0.7514  1.6252 -0.7186
 7153SOL    HW328385   4.185   1.142   6.142 -0.4756 -0.6774 -0.8725
 7153SOL    MW428386   4.272   1.135   6.131 -0.3760 -0.1543 -0.4657
 7154SOL     OW28387   4.409   0.881   5.716 -0.8434 -0.3702  0.4824
 7154SOL    HW228388   4.337   0.826   5.683 -0.3074 -0.3004 -0.8605
 7154SOL    HW328389   4.487   0.826   5.707 -0.8174 -0.8646  2.9758
 7154SOL    MW428390   4.409   0.866   5.711 -0.7692 -0.4262  0.6342
 7155SOL     OW28391   0.207   4.348   4.724  0.2949 -0.5108  0.4242
 7155SOL    HW228392   0.253   4.389   4.797 -0.5399  0.4636  0.4253
 7155SOL    HW328393   0.243   4.389   4.646  0.0949 -0.4232  0.3767
 7155SOL    MW428394   0.218   4.359   4.723  0.1584 -0.3707  0.4181
 7156SOL     OW28395   1.035   1.270   1.225 -0.0175  0.0153  0.3015
 7156SOL    HW228396   0.960   1.254   1.167 -1.0238  1.9712  0.9355
 7156SOL    HW328397   0.997   1.319   1.298  2.0190  1.8461  0.2177
 7156SOL    MW428398   1.020   1.275   1.227  0.1184  0.5149  0.3741
 7157SOL     OW28399   1.026   1.239   5.320 -0.4335 -1.0452 -0.5968
 7157SOL    HW228400   0.975   1.291   5.257  1.2167  2.1999  0.5206
 7157SOL    HW328401   0.962   1.179   5.359 -2.6153  0.4334 -1.6800
 7157SOL    MW428402   1.011   1.238   5.317 -0.5036 -0.4219 -0.5923
 7158SOL     OW28403   2.227   4.612   2.581 -0.3892  0.2818  0.0488
 7158SOL    HW228404   2.260   4.662   2.506 -0.6017  1.3335  0.6443
 7158SOL    HW328405   2.164   4.551   2.543  3.0237 -2.7321 -1.3564
 7158SOL    MW428406   2.223   4.611   2.566  0.0331  0.0229 -0.0580
 7159SOL     OW28407   6.063   1.979   2.291  0.3012  0.2332  0.0301
 7159SOL    HW228408   6.122   1.928   2.236  0.0918 -0.5272  0.4914
 7159SOL    HW328409   5.978   1.972   2.247  0.4330  0.8769 -0.3431
 7159SOL    MW428410   6.059   1.972   2.278  0.2910  0.2178  0.0417
 7160SOL     OW28411   1.665   1.531   2.743  0.2851 -0.2736  0.4854
 7160SOL    HW228412   1.738   1.504   2.688  1.3297  2.3954  0.3969
 7160SOL    HW328413   1.698   1.524   2.832  0.0697 -0.6238  0.5381
 7160SOL    MW428414   1.679   1.527   2.748  0.3945  0.0324  0.4807
 7161SOL     OW28415   1.339   0.944   1.545 -0.5436  0.1327 -0.1035
 7161SOL    HW228416   1.336   0.858   1.586  2.5832 -0.1616 -0.2560
 7161SOL    HW328417   1.383   0.930   1.462  0.4731  1.9262  0.0839
 7161SOL    MW428418   1.344   0.931   1.540  0.0031  0.3305 -0.0989
 7162SOL     OW28419   4.648   0.893   5.275 -0.1623 -0.3256  0.1028
 7162SOL    HW228420   4.660   0.918   5.184 -1.5116  0.3909  0.0967
 7162SOL    HW328421   4.729   0.847   5.298  0.9090  0.9616 -0.9369
 7162SOL    MW428422   4.660   0.890   5.266 -0.1990 -0.0612 -0.0352
 7163SOL     OW28423   5.597   1.830   6.045  0.4833 -0.1913 -0.4477
 7163SOL    HW228424   5.616   1.742   6.013  3.0192  0.7987 -2.0085
 7163SOL    HW328425   5.505   1.844   6.022 -0.5177 -2.9454  1.3652
 7163SOL    MW428426   5.587   1.820   6.038  0.6858 -0.4240 -0.4144
 7164SOL     OW28427   5.731   3.617   6.080 -0.4859 -0.3434 -0.4815
 7164SOL    HW228428   5.777   3.667   6.147 -1.4115  2.5111 -1.8603
 7164SOL    HW328429   5.695   3.541   6.128  0.0597  0.8277  1.9364
 7164SOL    MW428430   5.732   3.613   6.095 -0.5360  0.1877 -0.3444
 7165SOL     OW28431   1.940   4.025   4.375  0.0604 -0.3927  0.5251
 7165SOL    HW228432   1.927   4.073   4.294 -1.2060  0.8126  1.3820
 7165SOL    HW328433   1.991   4.084   4.430 -0.4172 -0.5326  1.1349
 7165SOL    MW428434   1.945   4.039   4.372 -0.1697 -0.2521  0.7186
 7166SOL     OW28435   5.040   4.181   5.943 -0.0429  0.2287  0.1656
 7166SOL    HW228436   5.080   4.265   5.923  0.5268 -0.1622 -0.3854
 7166SOL    HW328437   5.091   4.146   6.016  0.3603 -0.0737 -0.2520
 7166SOL    MW428438   5.052   4.187   5.950  0.0855  0.1372  0.0378
 7167SOL     OW28439   2.967   5.612   2.176 -0.0116  0.3048 -0.1722
 7167SOL    HW228440   3.015   5.596   2.257 -2.0491 -0.7414  0.8807
 7167SOL    HW328441   2.931   5.527   2.151  0.6087  0.5927 -2.2390
 7167SOL    MW428442   2.969   5.599   2.184 -0.1986  0.2047 -0.3060
 7168SOL     OW28443   3.389   0.271   0.593 -0.4946  0.6673 -0.3574
 7168SOL    HW228444   3.306   0.259   0.547 -0.1617 -1.8071 -0.4341
 7168SOL    HW328445   3.370   0.250   0.684 -0.1897  1.3220 -0.1307
 7168SOL    MW428446   3.376   0.267   0.599 -0.4105  0.4272 -0.3376
 7169SOL     OW28447   5.422   2.076   1.690 -0.2441  0.2151 -0.0596
 7169SOL    HW228448   5.467   2.154   1.657 -1.6520  0.1746 -2.2256
 7169SOL    HW328449   5.468   2.055   1.771  3.8492 -0.0370 -2.2151
 7169SOL    MW428450   5.434   2.084   1.697  0.1102  0.1765 -0.6298
 7170SOL     OW28451   5.989   1.730   2.990 -0.1651  0.1993 -0.0046
 7170SOL    HW228452   6.055   1.794   2.966  1.9470 -1.9524 -0.3451
 7170SOL    HW328453   5.962   1.755   3.078  1.0662  1.1971  0.1157
 7170SOL    MW428454   5.994   1.742   2.998  0.2761  0.0470 -0.0337
 7171SOL     OW28455   5.269   0.612   1.168  0.3739  0.7810  0.4436
 7171SOL    HW228456   5.289   0.522   1.143  2.9936  1.6701 -0.9870
 7171SOL    HW328457   5.315   0.625   1.251 -1.3674  0.3695  1.5216
 7171SOL    MW428458   5.277   0.602   1.176  0.4898  0.8440  0.3971
 7172SOL     OW28459   5.090   0.260   3.346  0.0617  0.3925 -0.2880
 7172SOL    HW228460   5.055   0.175   3.373  2.7354  0.0986  2.9156
 7172SOL    HW328461   5.012   0.312   3.326 -1.7273 -2.3062 -0.8988
 7172SOL    MW428462   5.075   0.256   3.347  0.1784 -0.0023  0.0541
 7173SOL     OW28463   5.110   2.728   5.847  0.4486  0.7458  0.2734
 7173SOL    HW228464   5.030   2.702   5.803 -0.2128  0.3333  1.6606
 7173SOL    HW328465   5.181   2.695   5.791 -0.3171 -3.0110  1.2448
 7173SOL    MW428466   5.109   2.720   5.834  0.2603  0.1957  0.5846
 7174SOL     OW28467   3.126   1.244   5.994  0.7863 -0.5890  0.0933
 7174SOL    HW228468   3.103   1.151   5.994 -2.2881 -0.0495  3.0773
 7174SOL    HW328469   3.171   1.258   6.077  1.0833  0.6188 -0.2467
 7174SOL    MW428470   3.129   1.234   6.005  0.4199 -0.3585  0.4421
 7175SOL     OW28471   2.084   2.588   1.907 -0.2529  0.1468  0.3537
 7175SOL    HW228472   2.060   2.606   1.817  1.8375  1.3324 -0.0287
 7175SOL    HW328473   2.047   2.661   1.957 -0.3149  0.1831  0.2535
 7175SOL    MW428474   2.076   2.600   1.902  0.0147  0.3080  0.2900
 7176SOL     OW28475   5.340   4.629   4.685  0.1024 -0.4823 -0.8873
 7176SOL    HW228476   5.283   4.598   4.756 -0.3825 -2.1989 -1.9489
 7176SOL    HW328477   5.289   4.615   4.605  0.8797  0.7929 -1.6407
 7176SOL    MW428478   5.326   4.623   4.684  0.1410 -0.5406 -1.1268
 7177SOL     OW28479   5.889   6.066   0.907  0.3154  0.0064  0.6235
 7177SOL    HW228480   5.910   5.990   0.852 -1.4788  0.4681 -0.8144
 7177SOL    HW328481   5.941   6.137   0.870  0.2575 -0.0232  0.4809
 7177SOL    MW428482   5.899   6.065   0.895  0.0711  0.0634  0.4150
 7178SOL     OW28483   1.823   2.855   4.707 -0.7563 -0.3018 -0.3514
 7178SOL    HW228484   1.897   2.797   4.690 -0.1225  0.2421  0.4486
 7178SOL    HW328485   1.790   2.879   4.620 -0.9558 -1.7290 -0.6988
 7178SOL    MW428486   1.828   2.851   4.693 -0.6990 -0.4184 -0.2917
 7179SOL     OW28487   0.639   1.651   2.435 -0.0966 -0.2264  0.7179
 7179SOL    HW228488   0.679   1.725   2.482  0.2363 -0.1689  0.3489
 7179SOL    HW328489   0.557   1.686   2.401  0.4555  0.2463 -0.1921
 7179SOL    MW428490   0.634   1.666   2.437  0.0202 -0.1564  0.5491
 7180SOL     OW28491   3.717   2.336   1.016  0.4551  0.3997  0.1544
 7180SOL    HW228492   3.750   2.393   0.947  0.3489  0.1659 -0.0897
 7180SOL    HW328493   3.754   2.250   0.995  1.0563  0.4791  0.8144
 7180SOL    MW428494   3.726   2.332   1.004  0.5204  0.3793  0.2093
 7181SOL     OW28495   1.856   1.723   4.869  0.0963  0.2423  0.3866
 7181SOL    HW228496   1.920   1.672   4.820 -0.8593 -1.1851  0.5550
 7181SOL    HW328497   1.774   1.711   4.821 -0.8234 -1.0506  2.1757
 7181SOL    MW428498   1.853   1.715   4.856 -0.1512 -0.1166  0.6449
 7182SOL     OW28499   3.759   4.915   0.836 -0.2754 -0.6660  0.5398
 7182SOL    HW228500   3.800   4.858   0.900  0.8899 -0.2758  0.1671
 7182SOL    HW328501   3.782   4.876   0.751 -0.4100 -0.2687  0.3162
 7182SOL    MW428502   3.767   4.902   0.833 -0.1394 -0.5621  0.4611
 7183SOL     OW28503   5.228   2.843   0.948  0.0877  0.0755 -0.7701
 7183SOL    HW228504   5.233   2.911   1.016  0.8889  1.3132 -2.0099
 7183SOL    HW328505   5.314   2.802   0.948  0.1512  0.2042 -1.1562
 7183SOL    MW428506   5.240   2.847   0.957  0.2018  0.2558 -0.9846
 7184SOL     OW28507   0.664   4.060   1.737  0.5561 -0.1335  0.1787
 7184SOL    HW228508   0.589   4.003   1.753  0.2626  0.2046  0.0287
 7184SOL    HW328509   0.720   4.011   1.676  0.0875 -0.0727 -0.3038
 7184SOL    MW428510   0.662   4.046   1.731  0.4555 -0.0809  0.0953
 7185SOL     OW28511   2.830   4.792   4.544 -0.5088 -0.1282  0.3800
 7185SOL    HW228512   2.862   4.738   4.471 -0.8132 -2.0886  1.6176
 7185SOL    HW328513   2.737   4.802   4.527 -0.4003  0.2709  0.0005
 7185SOL    MW428514   2.822   4.786   4.532 -0.5347 -0.3342  0.4932
 7186SOL     OW28515   2.736   4.311   2.238 -0.0483 -0.1007 -0.1053
 7186SOL    HW228516   2.805   4.250   2.212 -0.1125  0.0957 -0.7468
 7186SOL    HW328517   2.716   4.287   2.329  1.2928  0.2374  0.3063
 7186SOL    MW428518   2.742   4.300   2.247  0.1201 -0.0302 -0.1357
 7187SOL     OW28519   4.475   2.323   0.567 -0.0796  0.0486  0.2769
 7187SOL    HW228520   4.541   2.255   0.582  0.5446  0.8071  1.0433
 7187SOL    HW328521   4.429   2.294   0.488 -0.0090 -1.3931  0.7333
 7187SOL    MW428522   4.478   2.310   0.558  0.0121 -0.0415  0.4382
 7188SOL     OW28523   2.802   0.795   1.106  0.3486  0.6602 -0.1271
 7188SOL    HW228524   2.782   0.841   1.025 -1.1512 -1.4656 -1.0638
 7188SOL    HW328525   2.862   0.725   1.079  2.2664  1.6925  1.1863
 7188SOL    MW428526   2.808   0.792   1.092  0.4037  0.5159 -0.0774
 7189SOL     OW28527   3.207   1.687   3.405  0.0370  0.1500  0.0932
 7189SOL    HW228528   3.216   1.669   3.498 -3.5755  0.5374  0.6635
 7189SOL    HW328529   3.126   1.643   3.379  1.0027 -0.0900 -2.9538
 7189SOL    MW428530   3.197   1.679   3.413 -0.3122  0.1694 -0.2336
 7190SOL     OW28531   4.312   6.360   2.824  0.4372 -0.8670 -0.1849
 7190SOL    HW228532   4.262   6.333   2.747  0.4337 -1.3624 -0.0153
 7190SOL    HW328533   4.255   6.339   2.898 -0.3349  1.2776 -0.1010
 7190SOL    MW428534   4.298   6.354   2.823  0.3349 -0.6494 -0.1515
 7191SOL     OW28535   4.869   0.434   3.777  0.6315 -0.3562 -0.4054
 7191SOL    HW228536   4.774   0.428   3.764  0.7329  0.9247 -2.3140
 7191SOL    HW328537   4.879   0.463   3.867 -0.7230 -1.6790  0.2116
 7191SOL    MW428538   4.858   0.437   3.787  0.4662 -0.3617 -0.5758
 7192SOL     OW28539   4.844   3.789   0.859  0.0559 -0.1613 -0.7762
 7192SOL    HW228540   4.800   3.840   0.927  1.2830 -0.7061  0.4798
 7192SOL    HW328541   4.774   3.736   0.820 -0.7953  0.6575 -0.4080
 7192SOL    MW428542   4.829   3.789   0.863  0.1055 -0.1252 -0.5619
 7193SOL     OW28543   3.987   1.677   0.148  0.9156 -0.1642 -0.7742
 7193SOL    HW228544   3.917   1.619   0.118 -1.3717  1.5635  0.8171
 7193SOL    HW328545   4.000   1.738   0.075  0.9599 -0.6689 -1.1892
 7193SOL    MW428546   3.979   1.678   0.134  0.6196 -0.0028 -0.6190
 7194SOL     OW28547   4.348   3.441   3.917 -0.1565  0.4844  0.3096
 7194SOL    HW228548   4.440   3.415   3.906 -0.5288 -0.3211 -1.3288
 7194SOL    HW328549   4.329   3.422   4.009  1.0191 -0.3900  0.4077
 7194SOL    MW428550   4.358   3.435   3.928 -0.0505  0.2627  0.1064
 7195SOL     OW28551   2.177   1.469   2.241 -1.0449 -0.6264  0.0170
 7195SOL    HW228552   2.265   1.452   2.207 -0.1488  0.4974  1.6364
 7195SOL    HW328553   2.187   1.465   2.336 -2.5610  0.3800  0.2557
 7195SOL    MW428554   2.190   1.466   2.249 -1.1267 -0.3454  0.2621
 7196SOL     OW28555   0.192   6.061   4.319  0.0268  0.1825 -0.1029
 7196SOL    HW228556   0.183   6.111   4.238  0.1978 -0.0160 -0.2471
 7196SOL    HW328557   0.278   6.085   4.354 -0.0605  0.2930  0.0370
 7196SOL    MW428558   0.202   6.070   4.313  0.0379  0.1709 -0.1034
 7197SOL     OW28559   2.268   3.442   1.658 -0.1816 -0.1291 -0.0282
 7197SOL    HW228560   2.208   3.376   1.693  1.2293 -0.4757  1.9170
 7197SOL    HW328561   2.336   3.390   1.614 -0.0054  0.1317 -0.0639
 7197SOL    MW428562   2.269   3.426   1.656  0.0278 -0.1404  0.2237
 7198SOL     OW28563   3.677   2.449   3.385 -0.4391 -0.1662  0.2418
 7198SOL    HW228564   3.741   2.520   3.378  2.6909 -2.8326 -0.5366
 7198SOL    HW328565   3.703   2.402   3.465 -1.9301 -0.9452  0.3028
 7198SOL    MW428566   3.689   2.452   3.395 -0.2229 -0.6208  0.1472
 7199SOL     OW28567   1.833   2.426   3.498  0.3916 -0.1270  0.6145
 7199SOL    HW228568   1.811   2.407   3.589 -1.8995 -0.0027  0.1406
 7199SOL    HW328569   1.825   2.521   3.490 -1.7820 -0.3171 -0.2067
 7199SOL    MW428570   1.829   2.436   3.509 -0.1975 -0.1357  0.4436
 7200SOL     OW28571   3.550   0.806   6.068  0.4046 -0.2613 -0.4281
 7200SOL    HW228572   3.550   0.752   5.989 -1.6558 -0.4412 -0.3616
 7200SOL    HW328573   3.458   0.809   6.095  0.8600  1.0112  1.1408
 7200SOL    MW428574   3.538   0.799   6.061  0.1928 -0.1171 -0.2123
 7201SOL     OW28575   2.968   1.408   3.533  0.6428  0.4690  0.5389
 7201SOL    HW228576   2.927   1.408   3.620  0.9016  0.1911  0.6645
 7201SOL    HW328577   2.897   1.391   3.472 -0.0070  3.0607  0.4566
 7201SOL    MW428578   2.954   1.406   3.537  0.5912  0.7743  0.5446
 7202SOL     OW28579   1.714   3.186   4.199  0.2133 -0.0317  0.4056
 7202SOL    HW228580   1.796   3.140   4.219  1.1818  2.2666  2.0874
 7202SOL    HW328581   1.703   3.249   4.270 -2.9276 -0.0492  0.1116
 7202SOL    MW428582   1.723   3.188   4.211 -0.0733  0.2692  0.5887
 7203SOL     OW28583   0.488   0.012   2.612 -0.0886  0.0663 -0.0480
 7203SOL    HW228584   0.434  -0.062   2.586 -0.6822  1.6079 -3.7867
 7203SOL    HW328585   0.577  -0.015   2.591  0.4040 -1.2271  3.0827
 7203SOL    MW428586   0.493  -0.002   2.606 -0.1020  0.0990 -0.1282
 7204SOL     OW28587   1.150   4.130   1.932 -0.0172 -0.0251 -0.1427
 7204SOL    HW228588   1.135   4.103   1.842  0.5447 -2.9517  0.5295
 7204SOL    HW328589   1.076   4.187   1.953 -1.4403 -1.1940 -1.7385
 7204SOL    MW428590   1.138   4.134   1.923 -0.1308 -0.5654 -0.2646
 7205SOL     OW28591   1.136   0.762   1.974 -0.3434  0.2204  0.0043
 7205SOL    HW228592   1.163   0.849   1.947  0.3586  0.5732  1.7364
 7205SOL    HW328593   1.142   0.763   2.069 -2.3794 -1.0648  0.2031
 7205SOL    MW428594   1.141   0.773   1.983 -0.5194  0.0974  0.2591
 7206SOL     OW28595   3.878   1.090   4.122 -0.3345 -0.8318 -0.7660
 7206SOL    HW228596   3.915   1.110   4.036 -0.1212  0.5903 -0.3731
 7206SOL    HW328597   3.937   1.025   4.159 -0.2363 -1.2030 -1.5545
 7206SOL    MW428598   3.890   1.084   4.116 -0.2934 -0.6931 -0.8182
 7207SOL     OW28599   2.980   2.672   1.195  0.0801 -0.0089 -0.0179
 7207SOL    HW228600   3.015   2.681   1.107 -1.0542  1.1604 -0.3784
 7207SOL    HW328601   2.911   2.605   1.187 -0.3363  0.4307 -0.1206
 7207SOL    MW428602   2.975   2.664   1.182 -0.1245  0.2034 -0.0790
 7208SOL     OW28603   3.347   4.537   2.434 -0.1671  0.0540 -0.4936
 7208SOL    HW228604   3.429   4.522   2.387  1.3040  2.0783  1.2988
 7208SOL    HW328605   3.351   4.479   2.509  0.7612  1.7717  0.8461
 7208SOL    MW428606   3.358   4.527   2.438  0.1495  0.5477 -0.0803
 7209SOL     OW28607   3.965   2.506   2.453  0.8545  0.1432 -0.0689
 7209SOL    HW228608   3.987   2.455   2.531 -0.2911  0.1870  0.3086
 7209SOL    HW328609   4.004   2.457   2.380 -0.2597 -1.3219  0.2727
 7209SOL    MW428610   3.973   2.493   2.454  0.5564 -0.0443  0.0260
 7210SOL     OW28611   0.036   3.862   5.978 -0.5449 -0.2253  0.4600
 7210SOL    HW228612   0.104   3.915   6.019 -0.2188 -0.6287  0.4390
 7210SOL    HW328613   0.052   3.773   6.010  1.0448 -0.9947 -2.1778
 7210SOL    MW428614   0.047   3.857   5.988 -0.2921 -0.3801  0.1092
 7211SOL     OW28615   6.159   4.719   6.335 -0.1891  0.0037 -0.5248
 7211SOL    HW228616   6.119   4.681   6.257  1.6053 -0.3748 -1.3026
 7211SOL    HW328617   6.250   4.735   6.311 -0.5105  3.8359  0.0714
 7211SOL    MW428618   6.166   4.716   6.322  0.0052  0.4594 -0.5487
 7212SOL     OW28619   5.904   5.409   3.731  0.1684  0.1490 -0.7231
 7212SOL    HW228620   5.998   5.397   3.722  0.3149  0.8199 -0.1016
 7212SOL    HW328621   5.866   5.331   3.689  0.9976 -0.2669 -0.7117
 7212SOL    MW428622   5.911   5.397   3.724  0.2972  0.1826 -0.6396
 7213SOL     OW28623   2.802   0.537   6.352  0.0298 -0.4576 -0.2959
 7213SOL    HW228624   2.776   0.446   6.362  0.1063 -0.4009  0.4917
 7213SOL    HW328625   2.877   0.535   6.293  0.2094 -0.9327 -0.0536
 7213SOL    MW428626   2.808   0.525   6.346  0.0635 -0.5128 -0.1600
 7214SOL     OW28627   0.842   4.707   6.163 -0.0290  0.0494  0.3360
 7214SOL    HW228628   0.884   4.636   6.115 -1.0579 -2.0707  2.3444
 7214SOL    HW328629   0.882   4.702   6.251 -1.9763  0.1797  1.2720
 7214SOL    MW428630   0.853   4.697   6.168 -0.4217 -0.2131  0.7245
 7215SOL     OW28631   0.451   5.292   3.641  0.4079  0.3248 -0.3497
 7215SOL    HW228632   0.403   5.373   3.626 -0.0136  0.3686  1.1006
 7215SOL    HW328633   0.471   5.293   3.734 -0.0568 -1.4884 -0.2073
 7215SOL    MW428634   0.448   5.303   3.651  0.2910  0.0914 -0.1396
 7216SOL     OW28635   5.833   1.272   5.148  0.2885  0.1095 -0.0275
 7216SOL    HW228636   5.907   1.253   5.091  2.1882 -0.2084  2.3943
 7216SOL    HW328637   5.756   1.252   5.095  1.8421  1.4581 -3.0122
 7216SOL    MW428638   5.832   1.267   5.134  0.7441  0.2455 -0.1018
 7217SOL     OW28639   5.926   0.186   0.754  0.2715 -0.1026  0.6130
 7217SOL    HW228640   5.851   0.241   0.777  0.5259  0.5658 -0.1151
 7217SOL    HW328641   5.890   0.097   0.753 -0.1212  0.0139  1.8813
 7217SOL    MW428642   5.911   0.181   0.757  0.2533  0.0009  0.6843
 7218SOL     OW28643   0.475   5.372   4.125  0.3309  0.1747  0.4836
 7218SOL    HW228644   0.496   5.444   4.066 -0.0426 -0.1745 -0.0864
 7218SOL    HW328645   0.382   5.383   4.144  0.5434  0.5304  1.3565
 7218SOL    MW428646   0.466   5.383   4.119  0.3096  0.1756  0.5235
 7219SOL     OW28647   4.199   5.667   0.954  0.2224  0.0061  0.2607
 7219SOL    HW228648   4.288   5.695   0.933 -0.0574  0.3738 -0.4657
 7219SOL    HW328649   4.144   5.741   0.929 -0.3907 -0.6295 -0.3439
 7219SOL    MW428650   4.204   5.680   0.948  0.1046 -0.0292  0.0851
 7220SOL     OW28651   0.397   0.724   0.058 -0.5298  0.0337 -0.3168
 7220SOL    HW228652   0.367   0.694   0.144 -0.7774  0.2875 -0.3142
 7220SOL    HW328653   0.357   0.811   0.048 -0.6067 -0.0511 -0.7433
 7220SOL    MW428654   0.388   0.732   0.068 -0.5726  0.0560 -0.3727
 7221SOL     OW28655   1.861   5.773   3.010 -0.4255  0.5347 -0.4509
 7221SOL    HW228656   1.885   5.696   2.958 -0.7546  1.3932 -1.9235
 7221SOL    HW328657   1.943   5.799   3.053 -0.0008  0.1576 -1.0155
 7221SOL    MW428658   1.875   5.766   3.009 -0.4129  0.5982 -0.7197
 7222SOL     OW28659   2.172   5.897   5.101  0.6302  0.2600  0.2139
 7222SOL    HW228660   2.189   5.942   5.184  0.1632  0.2005  0.3453
 7222SOL    HW328661   2.077   5.886   5.099  0.8233 -2.6666  1.2327
 7222SOL    MW428662   2.161   5.901   5.112  0.5941 -0.1340  0.3657
 7223SOL     OW28663   0.124   2.114   4.021 -0.3479  0.3150 -0.1089
 7223SOL    HW228664   0.195   2.153   4.070 -0.6785 -0.4303  0.9913
 7223SOL    HW328665   0.052   2.177   4.027  0.4182  1.4553 -1.9102
 7223SOL    MW428666   0.124   2.128   4.028 -0.2905  0.3671 -0.2014
 7224SOL     OW28667   6.357   5.670   5.599 -0.3170  0.0390 -0.3124
 7224SOL    HW228668   6.442   5.644   5.635 -0.8476  0.4419  1.3085
 7224SOL    HW328669   6.294   5.610   5.638 -0.8719  0.1873 -0.9512
 7224SOL    MW428670   6.360   5.659   5.609 -0.4602  0.1117 -0.1828
 7225SOL     OW28671   2.027   0.962   2.601  0.1676 -0.2026  0.0494
 7225SOL    HW228672   1.945   0.987   2.644 -0.6460 -1.7746 -0.5332
 7225SOL    HW328673   2.052   1.040   2.551 -1.1544  0.1807 -0.0450
 7225SOL    MW428674   2.019   0.976   2.600 -0.1142 -0.3595 -0.0399
 7226SOL     OW28675   4.877   0.689   5.326 -0.1066  0.1836  0.1702
 7226SOL    HW228676   4.952   0.721   5.275  0.2439 -0.5278  0.2269
 7226SOL    HW328677   4.854   0.606   5.284  1.5546 -1.5276  2.4207
 7226SOL    MW428678   4.884   0.683   5.314  0.1588 -0.1360  0.4746
 7227SOL     OW28679   1.182   4.785   4.181  0.1400 -0.0322  0.1916
 7227SOL    HW228680   1.179   4.829   4.266  0.2669 -2.3298  1.4741
 7227SOL    HW328681   1.091   4.785   4.151  0.2697  1.8795 -0.3232
 7227SOL    MW428682   1.170   4.791   4.189  0.1739 -0.0831  0.2929
 7228SOL     OW28683   5.437   6.032   1.142  0.3011  0.4324  0.3288
 7228SOL    HW228684   5.379   5.962   1.114 -1.5843  2.2998 -0.7911
 7228SOL    HW328685   5.499   6.042   1.070 -0.7166  1.2093 -0.4731
 7228SOL    MW428686   5.437   6.024   1.129 -0.0819  0.7813  0.0753
 7229SOL     OW28687   2.075   2.025   3.022 -0.2141 -0.2654  0.2371
 7229SOL    HW228688   2.118   2.105   3.050  1.1220 -0.9679  0.2366
 7229SOL    HW328689   2.044   1.984   3.103 -0.8184  0.1799  0.2437
 7229SOL    MW428690   2.076   2.030   3.036 -0.1175 -0.2993  0.2379
 7230SOL     OW28691   1.127   2.250   1.215 -0.1347 -0.0969 -0.4975
 7230SOL    HW228692   1.199   2.192   1.240  0.0860  0.8348  1.2049
 7230SOL    HW328693   1.120   2.312   1.287 -0.3675  2.0109 -2.2247
 7230SOL    MW428694   1.135   2.251   1.228 -0.1363  0.3041 -0.5008
 7231SOL     OW28695   3.818   6.362   4.455  0.3708 -0.0375 -0.3202
 7231SOL    HW228696   3.841   6.455   4.462  2.0546 -0.5505  2.8192
 7231SOL    HW328697   3.898   6.320   4.424  0.8057 -0.7844  1.6815
 7231SOL    MW428698   3.832   6.369   4.451  0.6503 -0.2037  0.3581
 7232SOL     OW28699   1.593   6.385   0.552 -0.9163 -0.1268 -0.6111
 7232SOL    HW228700   1.659   6.450   0.576 -1.2431  0.4785 -1.2818
 7232SOL    HW328701   1.535   6.380   0.628 -2.6887  2.7168 -1.5894
 7232SOL    MW428702   1.594   6.393   0.565 -1.1933  0.3283 -0.8287
 7233SOL     OW28703   2.136   3.249   2.138 -0.2611  0.3950 -0.1634
 7233SOL    HW228704   2.170   3.263   2.226 -1.5650 -0.4486  0.5117
 7233SOL    HW328705   2.148   3.155   2.123 -3.5731 -0.3239  0.7649
 7233SOL    MW428706   2.142   3.238   2.148 -0.8701  0.1888  0.0482
 7234SOL     OW28707   3.856   4.033   6.040 -0.3910 -0.1139  0.1076
 7234SOL    HW228708   3.865   3.954   6.093 -1.3899 -1.5381 -1.7009
 7234SOL    HW328709   3.822   4.099   6.100 -0.1511 -1.2400  1.5386
 7234SOL    MW428710   3.852   4.031   6.055 -0.4911 -0.4503  0.0578
 7235SOL     OW28711   0.665   4.337   0.540  0.1842  0.7065 -0.0101
 7235SOL    HW228712   0.614   4.258   0.554  1.6925 -0.1206  1.1237
 7235SOL    HW328713   0.750   4.306   0.509  0.9986  1.8302  1.0124
 7235SOL    MW428714   0.670   4.323   0.538  0.4906  0.7456  0.2744
 7236SOL     OW28715   2.941   1.803   5.985 -0.2792  0.3407  0.6537
 7236SOL    HW228716   2.991   1.872   5.943  1.3937 -0.3218  1.4543
 7236SOL    HW328717   2.942   1.731   5.923  0.9929 -0.1515  1.2140
 7236SOL    MW428718   2.947   1.803   5.972  0.1094  0.1884  0.8333
 7237SOL     OW28719   1.080   5.495   0.128 -0.6096 -0.2105 -0.6715
 7237SOL    HW228720   1.015   5.497   0.198 -1.3822 -0.0580 -1.3906
 7237SOL    HW328721   1.142   5.564   0.153 -1.6796  0.8612 -0.8859
 7237SOL    MW428722   1.080   5.505   0.141 -0.8527 -0.0490 -0.7946
 7238SOL     OW28723   4.939   2.567   3.491 -0.0760 -0.1341  0.0618
 7238SOL    HW228724   5.021   2.530   3.521 -0.5738 -1.1448  0.2365
 7238SOL    HW328725   4.952   2.582   3.398  0.9073  1.4401  0.4195
 7238SOL    MW428726   4.951   2.564   3.483 -0.0120 -0.0598  0.1321
 7239SOL     OW28727   5.208   2.562   5.430 -0.3073 -0.9148 -0.6413
 7239SOL    HW228728   5.139   2.501   5.458 -0.8297 -0.1745 -0.2850
 7239SOL    HW328729   5.161   2.632   5.385 -0.0069  0.4958  1.1286
 7239SOL    MW428730   5.193   2.563   5.428 -0.3365 -0.6311 -0.3607
 7240SOL     OW28731   4.715   2.937   1.113 -0.1127  0.0137  0.2845
 7240SOL    HW228732   4.630   2.966   1.146 -0.0313  1.7091 -0.8563
 7240SOL    HW328733   4.743   2.869   1.174 -1.8335  0.1182  1.2420
 7240SOL    MW428734   4.708   2.932   1.125 -0.3290  0.2512  0.2604
 7241SOL     OW28735   3.993   0.864   4.641  0.1406 -0.1210 -0.4625
 7241SOL    HW228736   4.021   0.952   4.667  0.9548 -0.2601 -0.8530
 7241SOL    HW328737   4.027   0.806   4.708 -0.4521 -0.1363 -0.1706
 7241SOL    MW428738   4.001   0.868   4.653  0.1698 -0.1414 -0.4755
 7242SOL     OW28739   3.169   0.854   4.894 -0.9269 -0.0123 -0.1438
 7242SOL    HW228740   3.258   0.888   4.902 -0.1196 -1.7080 -1.2423
 7242SOL    HW328741   3.129   0.904   4.823 -1.2878  1.5410  1.1080
 7242SOL    MW428742   3.175   0.865   4.886 -0.8680 -0.0311 -0.1235
 7243SOL     OW28743   5.811   0.620   2.401  0.1548  0.0597  0.0497
 7243SOL    HW228744   5.752   0.576   2.463 -0.4755 -0.3895 -0.8450
 7243SOL    HW328745   5.875   0.665   2.457 -0.7076  0.1082  1.0375
 7243SOL    MW428746   5.812   0.620   2.417 -0.0421  0.0068  0.0620
 7244SOL     OW28747   6.192   4.950   0.526  0.5670  0.1554 -0.4719
 7244SOL    HW228748   6.212   4.869   0.478 -0.2519 -0.1056 -0.3847
 7244SOL    HW328749   6.146   4.920   0.605 -0.5091  0.7600 -0.8586
 7244SOL    MW428750   6.189   4.935   0.530  0.3170  0.2007 -0.5114
 7245SOL     OW28751   1.358   3.101   5.772  0.5869 -0.3741  0.3707
 7245SOL    HW228752   1.410   3.181   5.769  0.3140 -0.2082  0.0438
 7245SOL    HW328753   1.362   3.074   5.864 -0.7386  0.9659  0.8628
 7245SOL    MW428754   1.366   3.108   5.784  0.3760 -0.1754  0.3925
 7246SOL     OW28755   0.210   1.379   4.504 -0.0552  0.2117 -0.3236
 7246SOL    HW228756   0.206   1.407   4.412 -1.9485  3.1296  0.5228
 7246SOL    HW328757   0.131   1.326   4.517 -1.8191  2.8252  0.3805
 7246SOL    MW428758   0.199   1.376   4.493 -0.5377  0.9415 -0.1190
 7247SOL     OW28759   1.692   3.570   3.943  0.0043 -0.3250  0.6122
 7247SOL    HW228760   1.759   3.608   3.888 -0.8160 -0.5412 -0.5666
 7247SOL    HW328761   1.683   3.631   4.016  0.4777  0.4249  0.0543
 7247SOL    MW428762   1.699   3.583   3.946 -0.0415 -0.2546  0.3831
 7248SOL     OW28763   5.327   6.230   0.764 -0.2142  0.0240  0.8642
 7248SOL    HW228764   5.333   6.136   0.750 -1.5385  0.1114 -0.5542
 7248SOL    HW328765   5.326   6.241   0.860  2.0419 -1.2036  1.0858
 7248SOL    MW428766   5.328   6.219   0.775 -0.0912 -0.1264  0.7063
 7249SOL     OW28767   0.911   3.471   2.269 -0.1271 -0.1397 -0.0080
 7249SOL    HW228768   0.883   3.409   2.202 -0.0961 -0.0931 -0.0643
 7249SOL    HW328769   0.909   3.557   2.226  0.0447 -0.1284  0.0040
 7249SOL    MW428770   0.907   3.474   2.255 -0.1003 -0.1320 -0.0139
 7250SOL     OW28771   5.250   2.533   4.362  0.8225 -0.1945 -0.4956
 7250SOL    HW228772   5.223   2.450   4.401 -1.1564  0.2467 -0.8089
 7250SOL    HW328773   5.329   2.512   4.313  1.1282 -1.5852  0.5299
 7250SOL    MW428774   5.257   2.519   4.361  0.6018 -0.3198 -0.4017
 7251SOL     OW28775   1.136   4.458   6.146 -0.0390 -0.0333  0.1924
 7251SOL    HW228776   1.090   4.494   6.222 -0.1663  0.4959 -0.1307
 7251SOL    HW328777   1.120   4.521   6.076  0.4662 -0.2818 -0.1534
 7251SOL    MW428778   1.128   4.471   6.146  0.0109  0.0037  0.1041
 7252SOL     OW28779   1.029   3.657   1.338 -0.0485 -0.7197 -0.7439
 7252SOL    HW228780   1.015   3.694   1.425  1.4253 -0.8214 -0.4469
 7252SOL    HW328781   0.956   3.596   1.326 -0.9608  0.2099 -0.1080
 7252SOL    MW428782   1.017   3.654   1.347  0.0256 -0.6105 -0.6208
 7253SOL     OW28783   4.286   5.541   6.089 -0.1779  0.7111  0.4970
 7253SOL    HW228784   4.325   5.475   6.031 -1.1283 -0.7719  1.4723
 7253SOL    HW328785   4.193   5.520   6.090 -0.6180  2.4975  0.3448
 7253SOL    MW428786   4.279   5.529   6.082 -0.3613  0.7511  0.6056
 7254SOL     OW28787   4.248   4.531   1.138  0.0859  0.3335  0.0742
 7254SOL    HW228788   4.272   4.484   1.059 -0.4057  0.8101 -0.3742
 7254SOL    HW328789   4.153   4.543   1.130 -0.2427 -0.9806  1.4893
 7254SOL    MW428790   4.238   4.526   1.127 -0.0223  0.2230  0.2017
 7255SOL     OW28791   6.324   6.370   4.423  1.0652 -0.0225  0.7411
 7255SOL    HW228792   6.232   6.378   4.448  0.6504  2.0858 -1.1117
 7255SOL    HW328793   6.344   6.277   4.433 -2.4355 -1.3949 -2.4203
 7255SOL    MW428794   6.314   6.359   4.428  0.5486  0.0746  0.0795
 7256SOL     OW28795   6.200   5.352   3.744 -0.1776 -0.6727 -0.4886
 7256SOL    HW228796   6.193   5.329   3.837 -0.0908 -0.3910 -0.4125
 7256SOL    HW328797   6.294   5.349   3.726 -0.1636 -0.3660 -0.4745
 7256SOL    MW428798   6.211   5.348   3.754 -0.1643 -0.5951 -0.4767
 7257SOL     OW28799   0.337   6.332   5.015 -0.3300  0.3861 -0.1496
 7257SOL    HW228800   0.306   6.357   5.102  0.3893  4.6226 -0.9262
 7257SOL    HW328801   0.269   6.362   4.955  0.3298 -0.1715 -1.2155
 7257SOL    MW428802   0.324   6.339   5.019 -0.1481  0.8715 -0.3927
 7258SOL     OW28803   6.037   3.461   2.732 -0.5502 -0.1177  0.0946
 7258SOL    HW228804   5.961   3.516   2.713  0.1651  1.4808  1.5891
 7258SOL    HW328805   6.003   3.392   2.789 -1.0645 -0.0114 -0.0751
 7258SOL    MW428806   6.023   3.459   2.737 -0.5237  0.1072  0.2694
 7259SOL     OW28807   4.134   2.141   5.443  0.5928 -0.5428 -0.7936
 7259SOL    HW228808   4.187   2.151   5.364 -1.0170  1.2357 -1.7638
 7259SOL    HW328809   4.152   2.220   5.494  0.5138 -0.9745 -0.0793
 7259SOL    MW428810   4.143   2.153   5.439  0.3700 -0.3651 -0.8274
 7260SOL     OW28811   1.228   4.524   4.247  0.0259 -0.0195 -0.1799
 7260SOL    HW228812   1.237   4.512   4.341  1.8737  0.5328 -0.2396
 7260SOL    HW328813   1.227   4.619   4.235 -1.5973 -0.0682 -0.6349
 7260SOL    MW428814   1.229   4.535   4.258  0.0556  0.0470 -0.2478
 7261SOL     OW28815   2.326   4.142   4.506 -0.0040 -0.6909 -0.2181
 7261SOL    HW228816   2.348   4.123   4.597 -0.0401 -0.6136 -0.1929
 7261SOL    HW328817   2.332   4.058   4.462  1.0722 -0.5486 -0.3651
 7261SOL    MW428818   2.329   4.129   4.512  0.1332 -0.6619 -0.2342
 7262SOL     OW28819   2.318   5.468   2.785  0.4005  0.0537 -0.7143
 7262SOL    HW228820   2.310   5.548   2.733  1.4002 -0.1439 -1.1876
 7262SOL    HW328821   2.261   5.405   2.741 -2.4813  1.1656  1.1119
 7262SOL    MW428822   2.309   5.470   2.773  0.1522  0.1743 -0.5358
 7263SOL     OW28823   4.749   1.148   0.401 -0.0079  0.1063  0.0461
 7263SOL    HW228824   4.740   1.081   0.468 -2.5969  1.2927  1.0167
 7263SOL    HW328825   4.818   1.206   0.434  0.4778 -0.6828  0.4342
 7263SOL    MW428826   4.757   1.147   0.414 -0.2855  0.1587  0.2253
 7264SOL     OW28827   0.340   2.227   4.175  0.5535  0.3342  0.6054
 7264SOL    HW228828   0.413   2.188   4.126 -0.6308 -0.2626 -0.7550
 7264SOL    HW328829   0.358   2.204   4.266  2.9963  1.7558  0.5708
 7264SOL    MW428830   0.352   2.219   4.180  0.7195  0.4430  0.4213
 7265SOL     OW28831   2.544   1.268   3.976 -0.0029  0.6496 -0.3332
 7265SOL    HW228832   2.587   1.183   3.969 -1.0589  0.0466  0.1402
 7265SOL    HW328833   2.615   1.331   3.985  0.8041 -0.1508 -0.9922
 7265SOL    MW428834   2.559   1.265   3.977 -0.0357  0.4644 -0.3577
 7266SOL     OW28835   0.962   0.336   5.377 -0.2859 -0.3603 -0.3218
 7266SOL    HW228836   0.875   0.298   5.384 -0.8755  0.9011 -0.6271
 7266SOL    HW328837   0.949   0.430   5.386  1.1279 -0.1937  0.3175
 7266SOL    MW428838   0.949   0.343   5.379 -0.1771 -0.1719 -0.2777
 7267SOL     OW28839   1.869   2.555   2.341  0.3266 -1.2708 -0.1843
 7267SOL    HW228840   1.872   2.650   2.326  1.4315 -0.6923  2.8763
 7267SOL    HW328841   1.777   2.531   2.326 -0.2710  0.5725  0.2852
 7267SOL    MW428842   1.857   2.564   2.337  0.3936 -0.9513  0.2814
 7268SOL     OW28843   4.730   3.663   0.295  0.7367  0.3059  0.2132
 7268SOL    HW228844   4.655   3.716   0.268 -0.1502  1.2087  3.8827
 7268SOL    HW328845   4.732   3.591   0.232 -1.7303  1.5030 -1.4078
 7268SOL    MW428846   4.721   3.661   0.283  0.2942  0.5830  0.4835
 7269SOL     OW28847   0.336   1.373   3.494  0.1797  0.3615  0.5608
 7269SOL    HW228848   0.350   1.302   3.431  0.4463 -0.5183  1.5689
 7269SOL    HW328849   0.256   1.349   3.540  0.8109  0.1727  1.5931
 7269SOL    MW428850   0.327   1.360   3.492  0.2981  0.2205  0.8300
 7270SOL     OW28851   6.265   4.090   2.820  0.3609 -0.1093 -0.2883
 7270SOL    HW228852   6.186   4.056   2.862 -0.7416  0.9970 -1.3720
 7270SOL    HW328853   6.284   4.028   2.750  1.2550 -1.0800  0.7751
 7270SOL    MW428854   6.257   4.077   2.816  0.3334 -0.0914 -0.2910
 7271SOL     OW28855   2.775   3.050   0.656 -0.1071  0.5565  0.2856
 7271SOL    HW228856   2.725   2.972   0.680  1.4091 -0.0988  1.5123
 7271SOL    HW328857   2.743   3.073   0.569 -3.0335  0.6470  1.2817
 7271SOL    MW428858   2.764   3.043   0.647 -0.2931  0.4819  0.5788
 7272SOL     OW28859   3.622   3.855   1.200  0.1123  0.5282  0.2992
 7272SOL    HW228860   3.629   3.803   1.280 -1.9459  0.4019  0.4454
 7272SOL    HW328861   3.687   3.924   1.211  1.1454 -0.5513  1.2358
 7272SOL    MW428862   3.631   3.857   1.212 -0.0229  0.3691  0.4421
 7273SOL     OW28863   0.910   0.784   0.768 -0.2189 -0.1613 -0.2774
 7273SOL    HW228864   1.002   0.795   0.792 -0.0864 -0.3100 -0.7063
 7273SOL    HW328865   0.897   0.690   0.760 -0.1723 -0.1096 -1.0894
 7273SOL    MW428866   0.920   0.773   0.770 -0.1952 -0.1741 -0.4411
 7274SOL     OW28867   3.180   2.199   3.670 -0.2384  0.2468 -0.3867
 7274SOL    HW228868   3.161   2.122   3.724 -1.0670  2.1056  2.1231
 7274SOL    HW328869   3.275   2.204   3.668 -0.1840 -0.5549 -0.1563
 7274SOL    MW428870   3.190   2.189   3.676 -0.3405  0.3862 -0.0251
 7275SOL     OW28871   5.259   5.357   1.824  0.3151 -0.4456 -0.5869
 7275SOL    HW228872   5.217   5.272   1.810 -0.2643 -0.4477  0.9772
 7275SOL    HW328873   5.216   5.416   1.761 -0.2607 -1.0063 -0.7315
 7275SOL    MW428874   5.248   5.354   1.814  0.1627 -0.5198 -0.3996
 7276SOL     OW28875   3.207   0.642   1.806 -0.5453  0.3028  0.0326
 7276SOL    HW228876   3.281   0.629   1.746 -2.2210 -1.4192 -1.7857
 7276SOL    HW328877   3.233   0.717   1.860  2.4640 -0.1574 -0.5839
 7276SOL    MW428878   3.220   0.650   1.805 -0.3693  0.0149 -0.2887
 7277SOL     OW28879   0.674   2.046   0.710 -0.5301 -0.4507  0.5698
 7277SOL    HW228880   0.764   2.046   0.679 -0.8270  0.0600 -0.3316
 7277SOL    HW328881   0.666   1.966   0.762  0.6380 -0.1256  1.2892
 7277SOL    MW428882   0.685   2.036   0.713 -0.4152 -0.3404  0.5458
 7278SOL     OW28883   6.195   0.173   2.012  0.1934 -0.2801 -0.6500
 7278SOL    HW228884   6.265   0.198   2.072  0.4828  0.0259 -1.1037
 7278SOL    HW328885   6.191   0.078   2.017  1.0549 -0.3464 -1.0634
 7278SOL    MW428886   6.204   0.164   2.021  0.3453 -0.2484 -0.7644
 7279SOL     OW28887   6.185   2.574   3.324 -0.0180 -0.1426  0.0828
 7279SOL    HW228888   6.124   2.646   3.310  1.2258  0.6418 -1.7477
 7279SOL    HW328889   6.247   2.607   3.389 -0.9721 -0.6203  1.2840
 7279SOL    MW428890   6.185   2.588   3.331  0.0203 -0.1021 -0.0002
 7280SOL     OW28891   5.810   5.964   2.010  0.6013 -0.1729 -0.0918
 7280SOL    HW228892   5.815   6.043   1.956  0.1265 -0.1647 -0.1283
 7280SOL    HW328893   5.901   5.942   2.029  0.7513  0.1242 -0.4594
 7280SOL    MW428894   5.823   5.971   2.006  0.5585 -0.1326 -0.1451
 7281SOL     OW28895   3.887   3.849   4.174 -0.4738 -0.1932  0.4481
 7281SOL    HW228896   3.935   3.832   4.255 -0.0072  1.8762  0.6619
 7281SOL    HW328897   3.861   3.762   4.143  0.2588 -1.1095  2.2406
 7281SOL    MW428898   3.890   3.835   4.181 -0.3156 -0.0410  0.7128
 7282SOL     OW28899   2.919   4.944   2.508  0.4430 -0.9662  0.1258
 7282SOL    HW228900   2.989   4.945   2.574 -0.2870  0.3580  0.9391
 7282SOL    HW328901   2.844   4.906   2.554  0.3099 -1.3496 -0.3986
 7282SOL    MW428902   2.919   4.939   2.523  0.3291 -0.8421  0.1639
 7283SOL     OW28903   6.084   5.556   4.082 -0.3389  0.1533  0.0364
 7283SOL    HW228904   6.026   5.551   4.158 -0.7029  1.4585 -0.1234
 7283SOL    HW328905   6.078   5.469   4.042  0.5151 -0.8494  1.9294
 7283SOL    MW428906   6.075   5.544   4.087 -0.2743  0.1932  0.2651
 7284SOL     OW28907   3.677   0.598   1.769 -0.4257  0.2171  0.6506
 7284SOL    HW228908   3.595   0.587   1.721 -0.3904 -1.5945  0.9173
 7284SOL    HW328909   3.650   0.609   1.860 -0.4069 -2.4193  1.0574
 7284SOL    MW428910   3.663   0.598   1.775 -0.4186 -0.3698  0.7395
 7285SOL     OW28911   3.690   6.343   6.114  0.4368 -0.6299  0.5434
 7285SOL    HW228912   3.671   6.250   6.127  1.2619 -0.7328  1.0599
 7285SOL    HW328913   3.772   6.358   6.161 -1.1383  1.0101  2.9731
 7285SOL    MW428914   3.698   6.333   6.122  0.3378 -0.4271  0.9321
 7286SOL     OW28915   5.413   0.050   3.178 -0.3993  0.3698 -0.0079
 7286SOL    HW228916   5.490   0.004   3.144 -0.1505  0.5881  0.2494
 7286SOL    HW328917   5.339  -0.004   3.151 -0.1871  0.3744 -0.6158
 7286SOL    MW428918   5.414   0.036   3.170 -0.3385  0.3992 -0.0542
 7287SOL     OW28919   3.758   0.816   2.632 -0.0732  0.5071  0.3728
 7287SOL    HW228920   3.778   0.729   2.597 -0.2282  0.7883 -0.4201
 7287SOL    HW328921   3.764   0.874   2.557 -1.1832  1.0065  0.6469
 7287SOL    MW428922   3.761   0.812   2.618 -0.2401  0.6101  0.3044
 7288SOL     OW28923   2.241   0.917   6.089  0.8674  0.3209 -0.0641
 7288SOL    HW228924   2.264   0.989   6.030  0.8535 -0.8169 -1.4951
 7288SOL    HW328925   2.305   0.849   6.069 -1.0503 -1.2902 -1.0709
 7288SOL    MW428926   2.252   0.917   6.079  0.6126 -0.0418 -0.3857
 7289SOL     OW28927   2.815   5.019   3.746  0.0415  0.5615  0.5222
 7289SOL    HW228928   2.822   4.954   3.816 -1.0143 -0.3136 -0.1472
 7289SOL    HW328929   2.805   4.967   3.666 -0.0359  1.5434 -0.1259
 7289SOL    MW428930   2.814   5.004   3.745 -0.1080  0.5756  0.3484
 7290SOL     OW28931   3.248   0.780   6.118 -0.2426  0.4515  0.5719
 7290SOL    HW228932   3.254   0.711   6.052 -2.0269  0.1665  0.6701
 7290SOL    HW328933   3.264   0.735   6.201  0.3425  0.5076  0.4988
 7290SOL    MW428934   3.251   0.765   6.120 -0.4008  0.4213  0.5752
 7291SOL     OW28935   1.923   1.391   0.565 -0.9116 -0.6484  0.4159
 7291SOL    HW228936   1.990   1.329   0.536 -0.8035 -0.6443  0.6531
 7291SOL    HW328937   1.927   1.387   0.661 -0.5051  0.1473  0.4358
 7291SOL    MW428938   1.932   1.382   0.574 -0.8437 -0.5429  0.4498
 7292SOL     OW28939   2.650   1.645   5.912 -0.3365  0.1027 -0.8859
 7292SOL    HW228940   2.724   1.672   5.858  1.6570 -0.2928  1.4643
 7292SOL    HW328941   2.641   1.551   5.894  1.5276 -0.4484  0.6596
 7292SOL    MW428942   2.659   1.636   5.903  0.1725 -0.0222 -0.3719
 7293SOL     OW28943   6.304   0.441   3.436  0.2511  0.1011 -0.8572
 7293SOL    HW228944   6.355   0.399   3.505 -1.2908  1.9116  1.5036
 7293SOL    HW328945   6.370   0.463   3.369  2.3684  0.9847  1.3602
 7293SOL    MW428946   6.320   0.439   3.436  0.3270  0.4566 -0.2531
 7294SOL     OW28947   4.845   5.272   1.235  0.1925 -0.4195  0.6167
 7294SOL    HW228948   4.918   5.333   1.224 -0.1134 -0.3543 -1.4709
 7294SOL    HW328949   4.768   5.321   1.206 -0.7322 -0.4899  2.7775
 7294SOL    MW428950   4.845   5.286   1.229  0.0301 -0.4202  0.6264
 7295SOL     OW28951   0.086   4.942   5.330 -0.3256  0.2323  0.5995
 7295SOL    HW228952   0.066   5.022   5.281 -1.6604  0.1783  1.0222
 7295SOL    HW328953   0.089   4.873   5.263  0.2968  0.5471  0.2985
 7295SOL    MW428954   0.084   4.944   5.314 -0.4196  0.2667  0.6155
 7296SOL     OW28955   5.379   0.827   2.391  0.5286  0.4949 -0.0472
 7296SOL    HW228956   5.326   0.903   2.413  1.7633  0.8543  1.9525
 7296SOL    HW328957   5.376   0.822   2.296 -3.3040  0.2680 -0.0620
 7296SOL    MW428958   5.372   0.836   2.381  0.1859  0.5123  0.2147
 7297SOL     OW28959   5.042   4.289   5.558  0.2708  0.1698  0.2566
 7297SOL    HW228960   5.116   4.236   5.590 -0.8500 -1.6862 -0.1075
 7297SOL    HW328961   5.067   4.379   5.580  3.2001 -0.2260 -0.9113
 7297SOL    MW428962   5.055   4.293   5.565  0.5094 -0.1273  0.0544
 7298SOL     OW28963   4.135   2.442   4.258  0.0402 -0.1041 -0.5095
 7298SOL    HW228964   4.046   2.476   4.263 -0.1270  0.2557 -3.6552
 7298SOL    HW328965   4.190   2.520   4.256  0.4619 -0.3235  1.3356
 7298SOL    MW428966   4.130   2.456   4.258  0.0738 -0.0856 -0.6811
 7299SOL     OW28967   4.155   2.934   1.116  0.2286 -0.2431 -0.1883
 7299SOL    HW228968   4.083   2.912   1.057 -2.1811  1.5836  1.8435
 7299SOL    HW328969   4.146   3.028   1.130  1.8702 -0.2999  1.6194
 7299SOL    MW428970   4.145   2.943   1.110  0.1272 -0.0096  0.3183
 7300SOL     OW28971   5.280   1.739   0.670  0.6128 -0.4438  0.2952
 7300SOL    HW228972   5.364   1.755   0.627  1.5920 -1.1878  1.8347
 7300SOL    HW328973   5.303   1.720   0.761 -1.3175  0.4194  1.0182
 7300SOL    MW428974   5.294   1.739   0.677  0.4873 -0.4281  0.5937
 7301SOL     OW28975   1.116   4.384   2.165 -0.5365 -0.5275  0.6561
 7301SOL    HW228976   1.097   4.471   2.201  1.0706 -0.9108  2.5699
 7301SOL    HW328977   1.069   4.323   2.222  0.3376 -1.0438  0.8468
 7301SOL    MW428978   1.107   4.387   2.177 -0.2092 -0.6462  0.9338
 7302SOL     OW28979   0.853   0.860   2.920 -0.1246  0.9989 -0.4976
 7302SOL    HW228980   0.891   0.870   3.007  1.6338 -0.5814 -1.0211
 7302SOL    HW328981   0.871   0.944   2.877  0.9065  1.0465 -0.0109
 7302SOL    MW428982   0.860   0.873   2.926  0.2435  0.7967 -0.5025
 7303SOL     OW28983   6.255   3.549   3.938  0.0114  0.1691 -0.4891
 7303SOL    HW228984   6.251   3.455   3.958  0.1614  0.1922 -0.3448
 7303SOL    HW328985   6.333   3.558   3.884 -0.3884  0.1095 -1.0915
 7303SOL    MW428986   6.265   3.538   3.934 -0.0216  0.1643 -0.5496
 7304SOL     OW28987   4.944   4.452   0.659  0.5275  0.5246  0.3750
 7304SOL    HW228988   4.950   4.357   0.651  0.0726  0.5129  0.1407
 7304SOL    HW328989   4.960   4.469   0.752  0.7474  0.2325  0.3940
 7304SOL    MW428990   4.947   4.442   0.670  0.4965  0.4845  0.3466
 7305SOL     OW28991   3.496   4.070   2.300 -0.3127 -0.3103 -0.2983
 7305SOL    HW228992   3.441   4.088   2.223  0.0998 -2.2770 -1.1094
 7305SOL    HW328993   3.436   4.077   2.374 -1.5547 -1.7010 -1.1108
 7305SOL    MW428994   3.481   4.073   2.300 -0.4222 -0.7533 -0.5125
 7306SOL     OW28995   4.662   2.264   6.344 -0.4041  0.7241  0.3718
 7306SOL    HW228996   4.599   2.287   6.412 -0.2146  2.2623  0.0635
 7306SOL    HW328997   4.647   2.328   6.274  0.3239  0.0229 -0.4542
 7306SOL    MW428998   4.652   2.275   6.343 -0.2831  0.8346  0.2222
 7307SOL     OW28999   3.170   2.115   2.346  0.3337 -0.2715 -0.2751
 7307SOL    HW229000   3.260   2.137   2.373  0.5287  0.1830 -1.2723
 7307SOL    HW329001   3.118   2.190   2.375 -0.1566 -1.5186  2.3761
 7307SOL    MW429002   3.175   2.128   2.354  0.2947 -0.3761 -0.0569
 7308SOL     OW29003   2.154   3.390   0.530  0.6908  0.2469  0.2232
 7308SOL    HW229004   2.201   3.323   0.578 -0.9177 -0.5519  0.7718
 7308SOL    HW329005   2.065   3.388   0.566  0.4833  2.3920 -0.0387
 7308SOL    MW429006   2.148   3.381   0.541  0.4512  0.4246  0.2610
 7309SOL     OW29007   4.613   0.789   4.428  0.5515 -0.4716  0.4381
 7309SOL    HW229008   4.674   0.767   4.358 -0.2176 -1.6409  0.1158
 7309SOL    HW329009   4.527   0.788   4.387  0.2823  1.3049  0.8554
 7309SOL    MW429010   4.610   0.786   4.413  0.4145 -0.3915  0.4507
 7310SOL     OW29011   5.592   6.152   3.134  0.1792  0.0236  0.0885
 7310SOL    HW229012   5.539   6.152   3.214 -1.5217  0.0674 -0.9889
 7310SOL    HW329013   5.651   6.227   3.145 -1.2866  1.1578  0.5232
 7310SOL    MW429014   5.593   6.162   3.146 -0.2386  0.1790  0.0037
 7311SOL     OW29015   5.944   1.045   0.929 -0.2999  0.1232  0.4798
 7311SOL    HW229016   5.865   1.054   0.981  0.2066  1.6508  1.0327
 7311SOL    HW329017   5.934   1.108   0.858  0.5226  0.5450  0.7212
 7311SOL    MW429018   5.933   1.054   0.927 -0.1246  0.3804  0.5846
 7312SOL     OW29019   1.373   0.066   3.044  1.0675  0.2207  0.1535
 7312SOL    HW229020   1.280   0.065   3.068  1.0426  0.4037  0.0641
 7312SOL    HW329021   1.390   0.156   3.019  1.0122 -0.0219 -0.8305
 7312SOL    MW429022   1.363   0.078   3.044  1.0570  0.2128  0.0119
 7313SOL     OW29023   5.738   3.036   4.291 -0.4791 -0.2339 -0.1039
 7313SOL    HW229024   5.781   3.052   4.375 -0.6788 -1.4242  0.2469
 7313SOL    HW329025   5.676   3.108   4.281  0.2054  0.4306  0.3132
 7313SOL    MW429026   5.735   3.047   4.301 -0.4151 -0.3033 -0.0026
 7314SOL     OW29027   5.511   0.149   5.719  0.2166 -0.2114 -0.0225
 7314SOL    HW229028   5.586   0.195   5.756  1.0574 -1.6398  0.1126
 7314SOL    HW329029   5.435   0.197   5.752  1.0417  1.2970 -0.2079
 7314SOL    MW429030   5.511   0.162   5.728  0.4364 -0.2008 -0.0292
 7315SOL     OW29031   4.084   6.254   4.548  0.3348 -0.2438 -0.0075
 7315SOL    HW229032   4.129   6.172   4.530  0.3848 -0.1941 -0.1078
 7315SOL    HW329033   4.016   6.230   4.611 -0.4616 -0.6037 -0.9804
 7315SOL    MW429034   4.081   6.240   4.554  0.2363 -0.2847 -0.1491
 7316SOL     OW29035   2.217   1.632   5.032  0.3559 -0.5789 -0.2269
 7316SOL    HW229036   2.264   1.610   4.951  0.2620  0.8984 -0.6989
 7316SOL    HW329037   2.158   1.704   5.008  1.6490  1.1766  1.5516
 7316SOL    MW429038   2.215   1.638   5.018  0.5141 -0.1524 -0.0545
 7317SOL     OW29039   1.034   4.755   1.214 -0.1259 -0.1316  0.2306
 7317SOL    HW229040   1.124   4.726   1.196 -0.2059  0.2283 -0.8502
 7317SOL    HW329041   1.015   4.722   1.302  1.2339  0.2033  0.6804
 7317SOL    MW429042   1.044   4.746   1.223  0.0430 -0.0399  0.1474
 7318SOL     OW29043   5.990   0.366   4.892  0.2400 -0.1030 -0.0573
 7318SOL    HW229044   5.899   0.353   4.918 -0.0904  0.6254 -0.8059
 7318SOL    HW329045   6.018   0.280   4.860  0.3299 -0.7394  1.6360
 7318SOL    MW429046   5.981   0.353   4.891  0.2083 -0.0909  0.0674
 7319SOL     OW29047   6.410   3.345   6.325 -0.5024  0.4771  0.2416
 7319SOL    HW229048   6.451   3.341   6.239  1.5524  1.5712  1.0946
 7319SOL    HW329049   6.372   3.259   6.338  0.0651 -0.0411 -1.3290
 7319SOL    MW429050   6.410   3.333   6.316 -0.1564  0.5531  0.1470
 7320SOL     OW29051   4.623   6.172   5.728 -0.4539 -0.4661  0.2666
 7320SOL    HW229052   4.608   6.146   5.819 -0.5039 -0.3132  0.3010
 7320SOL    HW329053   4.560   6.121   5.678  0.4211 -1.5196  0.1863
 7320SOL    MW429054   4.613   6.162   5.733 -0.3450 -0.5850  0.2605
 7321SOL     OW29055   2.803   5.415   1.693  0.6783  0.3553 -0.8427
 7321SOL    HW229056   2.888   5.457   1.682  2.4442 -2.5445  0.6525
 7321SOL    HW329057   2.807   5.339   1.635 -0.5659 -0.2895 -0.1094
 7321SOL    MW429058   2.815   5.411   1.684  0.7472 -0.1124 -0.5487
 7322SOL     OW29059   4.918   5.197   4.617 -0.2470  0.3706  0.0380
 7322SOL    HW229060   5.003   5.240   4.625 -0.0541  0.0240 -0.1716
 7322SOL    HW329061   4.880   5.235   4.538 -1.0657  1.8747  1.0898
 7322SOL    MW429062   4.924   5.208   4.608 -0.3295  0.5233  0.1491
 7323SOL     OW29063   1.182   5.743   4.194 -0.2874 -0.2115 -0.3981
 7323SOL    HW229064   1.150   5.829   4.166 -0.0309 -0.3896 -1.2882
 7323SOL    HW329065   1.134   5.681   4.139 -0.4426 -0.6447  0.2125
 7323SOL    MW429066   1.171   5.747   4.183 -0.2740 -0.2922 -0.4350
 7324SOL     OW29067   3.350   1.768   0.629  0.1319  0.4417  0.5499
 7324SOL    HW229068   3.405   1.709   0.578 -0.4838  0.0063  0.3760
 7324SOL    HW329069   3.395   1.776   0.713  0.4433  0.0750  0.4215
 7324SOL    MW429070   3.363   1.761   0.633  0.0917  0.3359  0.5100
 7325SOL     OW29071   5.863   3.344   1.206  0.5644 -1.0339 -0.1520
 7325SOL    HW229072   5.784   3.312   1.162 -0.2626  1.1765 -0.4227
 7325SOL    HW329073   5.861   3.439   1.192  3.1360 -0.8751  0.0899
 7325SOL    MW429074   5.853   3.353   1.198  0.7946 -0.7213 -0.1558
 7326SOL     OW29075   4.891   3.108   1.009 -0.0791  0.5440 -0.6175
 7326SOL    HW229076   4.835   3.036   1.038  0.7327  0.0954 -0.1356
 7326SOL    HW329077   4.844   3.188   1.035  0.6004  0.1766  1.9799
 7326SOL    MW429078   4.878   3.109   1.016  0.1177  0.4363 -0.2112
 7327SOL     OW29079   1.796   0.594   4.867 -0.1226  0.2688 -0.3376
 7327SOL    HW229080   1.883   0.633   4.857  0.6797 -0.6481  2.0610
 7327SOL    HW329081   1.788   0.533   4.794  2.1404 -1.0528  0.4138
 7327SOL    MW429082   1.806   0.591   4.856  0.2818 -0.0266  0.0780
 7328SOL     OW29083   2.808   4.125   3.822 -0.3736 -0.2721 -0.0745
 7328SOL    HW229084   2.816   4.141   3.728  1.7603 -0.5593  0.0288
 7328SOL    HW329085   2.863   4.049   3.839  0.2619  0.5174  1.5980
 7328SOL    MW429086   2.816   4.117   3.812 -0.0082 -0.2058  0.1598
 7329SOL     OW29087   1.028   3.675   4.985  0.1272 -0.1021 -0.0788
 7329SOL    HW229088   0.934   3.667   4.969 -0.1214  1.5038  0.4168
 7329SOL    HW329089   1.036   3.750   5.044  1.9066  1.3847 -2.0745
 7329SOL    MW429090   1.017   3.684   4.991  0.3291  0.3059 -0.2767
 7330SOL     OW29091   1.225   4.772   2.455 -0.0848 -0.4862  0.1181
 7330SOL    HW229092   1.179   4.720   2.389  0.5264 -0.1597 -0.5793
 7330SOL    HW329093   1.315   4.775   2.425  0.1207  0.0060  0.7628
 7330SOL    MW429094   1.231   4.766   2.442  0.0230 -0.3782  0.1112
 7331SOL     OW29095   3.174   1.227   3.458 -0.1327  0.1273  0.0683
 7331SOL    HW229096   3.101   1.282   3.489  0.8160  0.5788  1.6101
 7331SOL    HW329097   3.205   1.272   3.380  0.1539  1.4283  0.8908
 7331SOL    MW429098   3.168   1.241   3.452  0.0303  0.3585  0.3803
 7332SOL     OW29099   4.510   2.885   0.554  0.3182  0.0400 -0.2315
 7332SOL    HW229100   4.563   2.817   0.511 -0.2502 -0.0050 -0.8688
 7332SOL    HW329101   4.464   2.929   0.482  0.2482  0.7331  0.2291
 7332SOL    MW429102   4.511   2.882   0.539  0.2340  0.1255 -0.2548
 7333SOL     OW29103   0.794   1.667   5.495  0.1964 -0.1706  0.1353
 7333SOL    HW229104   0.722   1.708   5.447  0.9665  0.6632 -0.3174
 7333SOL    HW329105   0.872   1.686   5.443  0.7676 -0.9923  0.6689
 7333SOL    MW429106   0.795   1.675   5.482  0.3733 -0.1690  0.1460
 7334SOL     OW29107   2.319   3.021   3.637  0.2270  0.2920 -0.0225
 7334SOL    HW229108   2.290   2.954   3.698 -1.5316  0.6234 -0.4576
 7334SOL    HW329109   2.240   3.069   3.613  1.3989  2.5733  0.3006
 7334SOL    MW429110   2.305   3.019   3.642  0.1496  0.6367 -0.0373
 7335SOL     OW29111   3.597   2.779   5.203  0.8536 -0.2426  0.7773
 7335SOL    HW229112   3.579   2.685   5.204 -0.3001 -0.0333  2.0538
 7335SOL    HW329113   3.513   2.819   5.182  1.3720  0.5123  0.1092
 7335SOL    MW429114   3.583   2.772   5.200  0.7698 -0.1154  0.8576
 7336SOL     OW29115   5.347   6.191   4.573 -0.3331 -0.0669  0.3531
 7336SOL    HW229116   5.426   6.241   4.552 -1.1152  0.7706 -0.6723
 7336SOL    HW329117   5.317   6.157   4.489  0.0794 -2.1679  0.9924
 7336SOL    MW429118   5.353   6.193   4.559 -0.3819 -0.2336  0.3022
 7337SOL     OW29119   2.416   0.536   4.706  0.1233 -0.2089  0.4056
 7337SOL    HW229120   2.387   0.602   4.768  0.4180 -0.7056  1.0878
 7337SOL    HW329121   2.455   0.586   4.634  0.6152  0.3496  1.0504
 7337SOL    MW429122   2.417   0.551   4.704  0.2271 -0.2007  0.5807
 7338SOL     OW29123   6.297   3.414   2.770  0.1920  0.0702 -0.0678
 7338SOL    HW229124   6.286   3.355   2.844 -1.3762  1.2266  0.6925
 7338SOL    HW329125   6.208   3.435   2.742  0.7105  1.4576 -0.8046
 7338SOL    MW429126   6.284   3.409   2.776  0.0535  0.4058 -0.0647
 7339SOL     OW29127   6.301   5.969   5.853  0.0092 -0.2294 -0.5648
 7339SOL    HW229128   6.298   5.878   5.882  2.7831 -0.3058 -0.2612
 7339SOL    HW329129   6.383   5.976   5.805 -0.0410  2.1896 -0.4086
 7339SOL    MW429130   6.311   5.958   5.850  0.3686  0.0797 -0.5042
 7340SOL     OW29131   3.485   6.090   2.815  0.0050 -0.0378  0.1358
 7340SOL    HW229132   3.441   6.089   2.730  0.3256 -3.2308 -0.0796
 7340SOL    HW329133   3.419   6.125   2.876 -0.9735  0.2265 -1.0468
 7340SOL    MW429134   3.471   6.095   2.812 -0.0818 -0.4242 -0.0487
 7341SOL     OW29135   1.302   0.808   0.018 -0.4155 -0.6275  0.2237
 7341SOL    HW229136   1.383   0.844   0.054 -0.3810 -0.4184 -0.0573
 7341SOL    HW329137   1.310   0.714   0.031  0.8151 -0.8365 -1.6731
 7341SOL    MW429138   1.314   0.800   0.024 -0.2486 -0.6275 -0.0636
 7342SOL     OW29139   4.855   3.501   1.469 -0.3584  0.4018 -0.3789
 7342SOL    HW229140   4.925   3.466   1.414 -0.6156  0.1036 -0.5149
 7342SOL    HW329141   4.852   3.440   1.543 -0.7084  0.2182 -0.5449
 7342SOL    MW429142   4.864   3.488   1.472 -0.4385  0.3383 -0.4187
 7343SOL     OW29143   3.435   2.233   2.789 -0.1748  0.1924  0.3270
 7343SOL    HW229144   3.341   2.224   2.778 -0.1648 -0.0186  0.4136
 7343SOL    HW329145   3.466   2.268   2.705 -0.0953 -1.4337 -0.3500
 7343SOL    MW429146   3.427   2.236   2.776 -0.1630 -0.0500  0.2491
 7344SOL     OW29147   1.955   0.640   4.005  0.2860 -0.3488 -0.2852
 7344SOL    HW229148   1.953   0.569   3.941  0.4270  0.4111 -1.1550
 7344SOL    HW329149   2.037   0.627   4.052  0.3424 -0.7255 -0.4806
 7344SOL    MW429150   1.966   0.629   4.002  0.3121 -0.2982 -0.4258
 7345SOL     OW29151   0.075   4.331   5.463  0.3844 -0.3507 -0.0875
 7345SOL    HW229152  -0.010   4.321   5.504  0.6006 -0.3674  0.3618
 7345SOL    HW329153   0.135   4.279   5.518  0.5376 -1.0429 -0.8778
 7345SOL    MW429154   0.072   4.322   5.475  0.4331 -0.4442 -0.1325
 7346SOL     OW29155   3.172   5.597   2.394  0.4931  0.0018  0.5345
 7346SOL    HW229156   3.264   5.573   2.383  0.1352 -0.4323 -2.3786
 7346SOL    HW329157   3.137   5.531   2.454  1.8268 -0.5079  0.7741
 7346SOL    MW429158   3.179   5.585   2.401  0.6218 -0.1227  0.1818
 7347SOL     OW29159   1.057   1.014   1.578  0.0006 -0.4069  0.2087
 7347SOL    HW229160   1.149   1.001   1.555  1.3912  1.5075  3.8689
 7347SOL    HW329161   1.024   0.926   1.594  1.3924 -1.0728 -0.3988
 7347SOL    MW429162   1.064   1.001   1.577  0.3677 -0.2422  0.6114
 7348SOL     OW29163   5.416   1.142   3.472  0.4049 -0.2001 -0.2372
 7348SOL    HW229164   5.423   1.148   3.377 -2.0855  0.7596 -0.4522
 7348SOL    HW329165   5.411   1.049   3.491 -0.6209 -0.3669 -1.2398
 7348SOL    MW429166   5.416   1.131   3.462 -0.0590 -0.0955 -0.3978
 7349SOL     OW29167   1.845   2.262   1.559 -0.4067 -0.1939  0.5306
 7349SOL    HW229168   1.812   2.191   1.614 -1.2333 -0.6087 -0.4655
 7349SOL    HW329169   1.867   2.219   1.476  0.3197  0.5017  0.3486
 7349SOL    MW429170   1.844   2.247   1.555 -0.4199 -0.1568  0.3752
 7350SOL     OW29171   0.532   2.192   2.264  0.3369 -0.1278  0.0801
 7350SOL    HW229172   0.500   2.186   2.174  0.3400 -0.5049  0.0997
 7350SOL    HW329173   0.605   2.129   2.267  2.0248  1.6928 -0.3576
 7350SOL    MW429174   0.538   2.183   2.253  0.5600  0.0626  0.0249
 7351SOL     OW29175   4.417   1.321   4.908  0.1861 -0.0839  0.7459
 7351SOL    HW229176   4.466   1.379   4.967  0.3509 -0.3004  0.8232
 7351SOL    HW329177   4.413   1.238   4.955  0.6212 -0.3599  0.3046
 7351SOL    MW429178   4.423   1.318   4.922  0.2652 -0.1488  0.6979
 7352SOL     OW29179   5.330   2.693   3.627 -0.5256  0.2579 -0.1274
 7352SOL    HW229180   5.310   2.601   3.642  0.6866  0.1810  1.2385
 7352SOL    HW329181   5.425   2.695   3.615 -0.7442  1.1108 -2.1478
 7352SOL    MW429182   5.340   2.681   3.628 -0.3945  0.3602 -0.2137
 7353SOL     OW29183   1.308   5.303   5.135  0.5778 -0.0492  0.0685
 7353SOL    HW229184   1.392   5.311   5.091  0.7000 -0.6389  0.1893
 7353SOL    HW329185   1.244   5.330   5.069  0.9621  2.4378  0.5997
 7353SOL    MW429186   1.310   5.308   5.120  0.6446  0.2012  0.1546
 7354SOL     OW29187   0.726   2.068   4.849 -0.1147 -0.8579  0.0392
 7354SOL    HW229188   0.704   1.978   4.873 -1.2728 -0.2365  1.4044
 7354SOL    HW329189   0.822   2.068   4.843  0.0424 -1.7294  1.9276
 7354SOL    MW429190   0.736   2.056   4.851 -0.2467 -0.8909  0.4685
 7355SOL     OW29191   3.551   2.225   4.544 -0.0979  0.4232 -0.4706
 7355SOL    HW229192   3.599   2.155   4.587 -0.4751  0.2731 -0.2879
 7355SOL    HW329193   3.467   2.230   4.591  0.4189  1.8566  0.3795
 7355SOL    MW429194   3.546   2.217   4.556 -0.0795  0.5925 -0.3343
 7356SOL     OW29195   3.084   5.967   3.169  0.0272 -0.9279  0.3187
 7356SOL    HW229196   3.047   5.933   3.087 -0.1794 -1.0031  0.4442
 7356SOL    HW329197   3.021   6.033   3.198  0.1032 -0.8991  0.4167
 7356SOL    MW429198   3.071   5.971   3.162  0.0100 -0.9340  0.3482
 7357SOL     OW29199   4.703   2.616   1.985  0.7284 -0.2967 -0.4388
 7357SOL    HW229200   4.777   2.621   1.924  0.1353 -1.3466 -1.2762
 7357SOL    HW329201   4.631   2.656   1.938 -0.1016 -2.3763 -1.0572
 7357SOL    MW429202   4.704   2.622   1.971  0.5406 -0.7096 -0.6309
 7358SOL     OW29203   2.871   2.417   6.236  0.5421  0.2991  0.3175
 7358SOL    HW229204   2.953   2.391   6.277  0.2401 -2.2305 -0.5249
 7358SOL    HW329205   2.804   2.363   6.278 -0.3335  0.5655 -0.6745
 7358SOL    MW429206   2.873   2.407   6.247  0.3868  0.0005  0.0755
 7359SOL     OW29207   1.190   0.897   3.676 -0.1658 -0.3430  0.0737
 7359SOL    HW229208   1.275   0.925   3.710  0.9413 -2.0625 -1.0809
 7359SOL    HW329209   1.151   0.847   3.747 -0.2695  0.5292  0.6435
 7359SOL    MW429210   1.196   0.894   3.690 -0.0335 -0.4548 -0.0035
 7360SOL     OW29211   2.388   0.305   4.573  0.1710 -0.5443  0.5529
 7360SOL    HW229212   2.417   0.367   4.641  0.8333 -0.4037  0.1559
 7360SOL    HW329213   2.408   0.349   4.491 -0.2515 -0.8856  0.2651
 7360SOL    MW429214   2.395   0.319   4.571  0.2027 -0.5708  0.4626
 7361SOL     OW29215   3.157   3.841   5.688  0.1467  0.1463  0.6185
 7361SOL    HW229216   3.128   3.885   5.608  2.0322  0.8439  0.2611
 7361SOL    HW329217   3.207   3.908   5.735  1.4766 -1.0557  0.9791
 7361SOL    MW429218   3.160   3.855   5.683  0.5710  0.0798  0.6189
 7362SOL     OW29219   1.350   0.829   2.345  0.5094  0.5242  0.3497
 7362SOL    HW229220   1.263   0.831   2.306  0.3741  0.8854  0.6639
 7362SOL    HW329221   1.407   0.799   2.274  0.1497  0.4127  0.1045
 7362SOL    MW429222   1.346   0.826   2.330  0.4441  0.5572  0.3588
 7363SOL     OW29223   4.921   1.903   2.699  0.0114  0.0728 -0.2138
 7363SOL    HW229224   4.924   1.929   2.791  1.7692 -1.1192  0.1198
 7363SOL    HW329225   4.905   1.809   2.701  1.2257 -0.1763 -1.0496
 7363SOL    MW429226   4.919   1.894   2.711  0.4035 -0.1173 -0.2800
 7364SOL     OW29227   0.230   5.249   1.924 -0.1541  0.2688  0.6973
 7364SOL    HW229228   0.260   5.335   1.895  0.8510  0.1084  1.2314
 7364SOL    HW329229   0.135   5.252   1.913  0.0288  0.7817 -1.0769
 7364SOL    MW429230   0.221   5.261   1.919  0.0027  0.3153  0.5336
 7365SOL     OW29231   4.869   2.548   0.360  0.4095 -0.0192  0.6754
 7365SOL    HW229232   4.941   2.522   0.303 -0.1769 -0.3708  0.0814
 7365SOL    HW329233   4.885   2.640   0.380 -0.4560  0.7340 -1.7497
 7365SOL    MW429234   4.880   2.557   0.355  0.2180  0.0338  0.2770
 7366SOL     OW29235   6.419   1.847   3.056  0.5787 -0.7799 -0.1661
 7366SOL    HW229236   6.346   1.888   3.011 -0.3903 -2.3562 -0.1152
 7366SOL    HW329237   6.496   1.894   3.026 -0.2496 -0.4053 -1.8181
 7366SOL    MW429238   6.420   1.858   3.046  0.3416 -0.9384 -0.3773
 7367SOL     OW29239   6.163   5.468   5.708  0.3659  0.3631 -0.2817
 7367SOL    HW229240   6.120   5.533   5.652 -2.5951 -1.3388 -0.2219
 7367SOL    HW329241   6.195   5.401   5.648 -0.6196 -0.2561 -0.1502
 7367SOL    MW429242   6.161   5.468   5.693 -0.1548  0.0569 -0.2564
 7368SOL     OW29243   5.010   1.011   2.214  0.6826  0.1592 -0.1798
 7368SOL    HW229244   4.979   1.034   2.126  0.4324  0.8988  0.0950
 7368SOL    HW329245   4.964   0.930   2.235 -2.3026  1.9117  0.7841
 7368SOL    MW429246   5.000   1.004   2.205  0.2558  0.4880 -0.0164
 7369SOL     OW29247   0.516   4.332   1.732 -0.1716 -0.3445  0.0972
 7369SOL    HW229248   0.539   4.240   1.749  0.0802 -0.0696  1.3144
 7369SOL    HW329249   0.421   4.335   1.740 -0.0947 -0.3109  1.0480
 7369SOL    MW429250   0.507   4.320   1.735 -0.1282 -0.3038  0.3832
 7370SOL     OW29251   5.291   2.098   4.144  0.3577  0.2556  0.2722
 7370SOL    HW229252   5.357   2.097   4.075  1.2505 -0.9302  1.0801
 7370SOL    HW329253   5.245   2.014   4.134 -1.4879  1.3234 -0.6602
 7370SOL    MW429254   5.294   2.087   4.134  0.2320  0.2401  0.2558
 7371SOL     OW29255   2.292   4.492   1.885 -0.6142 -0.4676  0.3591
 7371SOL    HW229256   2.215   4.528   1.841  0.4945  0.0989 -1.2098
 7371SOL    HW329257   2.351   4.467   1.813  0.8425 -0.4763  1.5123
 7371SOL    MW429258   2.290   4.494   1.869 -0.2758 -0.3940  0.3043
 7372SOL     OW29259   0.887   3.804   0.632 -0.4446  0.2056 -0.1583
 7372SOL    HW229260   0.951   3.818   0.701 -1.5227  2.1487  0.5323
 7372SOL    HW329261   0.826   3.877   0.640 -1.5655 -0.4169 -2.1168
 7372SOL    MW429262   0.887   3.815   0.642 -0.7348  0.3798 -0.3256
 7373SOL     OW29263   0.926   5.277   5.611 -0.0525  0.2581  0.7060
 7373SOL    HW229264   0.897   5.203   5.559 -0.4431  1.9332 -1.6072
 7373SOL    HW329265   1.021   5.265   5.621  0.6095  1.2663 -2.9846
 7373SOL    MW429266   0.935   5.266   5.605 -0.0167  0.6121 -0.0861
 7374SOL     OW29267   0.850   6.118   5.998  0.1821 -0.7721 -0.0878
 7374SOL    HW229268   0.881   6.116   5.907  0.7386 -0.3733  0.0827
 7374SOL    HW329269   0.807   6.203   6.006  0.0927 -0.8267  0.0035
 7374SOL    MW429270   0.849   6.129   5.987  0.2437 -0.7267 -0.0533
 7375SOL     OW29271   6.379   6.161   3.636 -0.3710 -0.5645 -0.2819
 7375SOL    HW229272   6.465   6.174   3.596  0.0977  2.5775  1.4063
 7375SOL    HW329273   6.316   6.192   3.571 -0.4539 -3.7644 -1.9127
 7375SOL    MW429274   6.382   6.166   3.622 -0.3201 -0.5721 -0.2744
 7376SOL     OW29275   2.706   0.846   5.251 -0.9262 -0.2777 -0.5894
 7376SOL    HW229276   2.628   0.902   5.249 -1.1600 -0.5815 -2.7394
 7376SOL    HW329277   2.711   0.809   5.163  2.2957  0.6223 -0.9365
 7376SOL    MW429278   2.696   0.849   5.239 -0.5320 -0.1991 -0.9189
 7377SOL     OW29279   1.759   3.372   5.811 -0.2959 -0.1666  0.2771
 7377SOL    HW229280   1.726   3.451   5.854 -2.5550 -0.6131 -0.4986
 7377SOL    HW329281   1.716   3.300   5.858  2.0169 -1.0248  1.2280
 7377SOL    MW429282   1.749   3.373   5.823 -0.2888 -0.3388  0.3002
 7378SOL     OW29283   5.649   4.016   6.286 -0.4233  0.1997  0.4312
 7378SOL    HW229284   5.662   4.110   6.276  0.6064  0.2785  2.0804
 7378SOL    HW329285   5.581   4.008   6.353 -1.2764 -0.2345 -0.4794
 7378SOL    MW429286   5.642   4.028   6.294 -0.4000  0.1528  0.5286
 7379SOL     OW29287   2.092   3.559   6.139 -0.4768  0.0102 -0.6612
 7379SOL    HW229288   2.132   3.638   6.177 -1.1034  1.0760 -2.1045
 7379SOL    HW329289   2.153   3.489   6.158  2.3505  1.6012 -3.1005
 7379SOL    MW429290   2.105   3.560   6.147 -0.1864  0.3607 -1.1734
 7380SOL     OW29291   6.305   3.782   4.387  0.3849 -0.3496 -0.3951
 7380SOL    HW229292   6.258   3.785   4.303 -0.8358 -1.4547  0.2093
 7380SOL    HW329293   6.396   3.763   4.362  0.1414 -0.1766 -1.4921
 7380SOL    MW429294   6.311   3.780   4.372  0.1917 -0.4726 -0.4601
 7381SOL     OW29295   1.358   2.962   2.265  1.0321 -0.0535 -0.3937
 7381SOL    HW229296   1.301   2.935   2.193 -1.2368 -2.8578  2.1684
 7381SOL    HW329297   1.428   2.896   2.266  2.3050  1.2300 -1.2578
 7381SOL    MW429298   1.360   2.949   2.256  0.9007 -0.2541 -0.1697
 7382SOL     OW29299   1.431   3.253   1.493  0.0079  0.5322 -0.2080
 7382SOL    HW229300   1.478   3.187   1.441 -0.6859 -0.3418  0.2487
 7382SOL    HW329301   1.453   3.336   1.451  0.0753 -0.0752 -1.4389
 7382SOL    MW429302   1.440   3.255   1.481 -0.0747  0.3367 -0.3101
 7383SOL     OW29303   3.984   4.728   3.319  0.0381 -0.3937  0.4040
 7383SOL    HW229304   3.956   4.645   3.358 -0.0815 -0.1003  0.9549
 7383SOL    HW329305   3.912   4.788   3.337 -0.1633 -0.3259 -0.5597
 7383SOL    MW429306   3.971   4.725   3.327 -0.0042 -0.3460  0.3495
 7384SOL     OW29307   0.229   3.585  -0.000 -0.4744 -0.7279 -0.4579
 7384SOL    HW229308   0.323   3.586   0.019 -0.6838 -0.4169  0.5979
 7384SOL    HW329309   0.188   3.564   0.083 -1.5010  2.0654 -0.1701
 7384SOL    MW429310   0.236   3.582   0.013 -0.6374 -0.3183 -0.2806
 7385SOL     OW29311   4.719   0.847   3.382  0.0613  0.5563 -0.1053
 7385SOL    HW229312   4.748   0.807   3.300  2.0101  0.9518  0.3364
 7385SOL    HW329313   4.641   0.897   3.359 -0.7746 -1.1784 -1.2312
 7385SOL    MW429314   4.712   0.848   3.368  0.2081  0.3796 -0.1955
 7386SOL     OW29315   3.843   6.003   5.717 -0.1490  0.2703 -0.1935
 7386SOL    HW229316   3.859   5.977   5.627 -0.7062 -1.3133  0.1231
 7386SOL    HW329317   3.790   6.083   5.711 -2.5686 -1.2915 -1.3550
 7386SOL    MW429318   3.838   6.010   5.704 -0.5417 -0.1447 -0.3050
 7387SOL     OW29319   3.818   1.482   4.895  0.7618 -0.3489  0.2807
 7387SOL    HW229320   3.738   1.455   4.851  1.3707 -2.1839  0.2054
 7387SOL    HW329321   3.878   1.505   4.823  0.6299  0.0688  0.3013
 7387SOL    MW429322   3.816   1.482   4.879  0.8247 -0.5359  0.2734
 7388SOL     OW29323   3.074   4.818   5.515 -0.6363  0.0112  0.1516
 7388SOL    HW229324   3.132   4.759   5.466  1.2744  1.0928  0.9913
 7388SOL    HW329325   3.014   4.760   5.561  1.7275 -1.4061  1.6547
 7388SOL    MW429326   3.074   4.802   5.514 -0.0724 -0.0331  0.4607
 7389SOL     OW29327   2.819   0.778   3.907 -0.3263 -0.5196  0.2890
 7389SOL    HW229328   2.847   0.699   3.954  0.5968  0.2586  1.1228
 7389SOL    HW329329   2.788   0.746   3.822  0.0912 -1.7663  0.5748
 7389SOL    MW429330   2.819   0.763   3.902 -0.1494 -0.5814  0.4367
 7390SOL     OW29331   2.747   1.681   2.748 -0.0037 -0.1389  0.0436
 7390SOL    HW229332   2.656   1.694   2.774  0.5021 -0.5021  2.1404
 7390SOL    HW329333   2.788   1.767   2.760 -0.0587  0.0385 -0.9532
 7390SOL    MW429334   2.740   1.694   2.753  0.0558 -0.1634  0.1887
 7391SOL     OW29335   0.484   4.326   3.187  0.5576  0.1842  0.2621
 7391SOL    HW229336   0.390   4.320   3.171  0.7774  0.0397 -1.0309
 7391SOL    HW329337   0.511   4.406   3.142  1.1599 -0.1020  0.1034
 7391SOL    MW429338   0.475   4.336   3.179  0.6661  0.1274  0.0706
 7392SOL     OW29339   2.914   4.455   0.898  0.2959 -0.0974 -0.1509
 7392SOL    HW229340   2.975   4.381   0.890 -0.9867 -1.1009 -1.0895
 7392SOL    HW329341   2.931   4.492   0.985  2.1763 -0.3799 -0.3604
 7392SOL    MW429342   2.924   4.450   0.908  0.3748 -0.2671 -0.3024
 7393SOL     OW29343   4.429   0.956   0.240 -0.2907 -0.1593 -0.0407
 7393SOL    HW229344   4.388   0.927   0.321  2.8185  1.1972  2.2029
 7393SOL    HW329345   4.502   0.894   0.227  0.1851  0.5576 -0.9085
 7393SOL    MW429346   4.434   0.944   0.249  0.1823  0.1143  0.1408
 7394SOL     OW29347   4.323   1.408   1.623 -0.2140 -0.3338  0.0587
 7394SOL    HW229348   4.389   1.466   1.584 -0.4031 -0.5451 -0.5778
 7394SOL    HW329349   4.263   1.468   1.669  0.6402 -0.1659  1.0025
 7394SOL    MW429350   4.324   1.424   1.624 -0.1263 -0.3395  0.0992
 7395SOL     OW29351   3.092   4.282   0.309 -0.1628  0.5241  0.3792
 7395SOL    HW229352   3.050   4.363   0.281  1.2234  0.7959 -1.0455
 7395SOL    HW329353   3.164   4.270   0.247  1.0765 -0.5692  1.9569
 7395SOL    MW429354   3.096   4.291   0.297  0.1836  0.4157  0.3994
 7396SOL     OW29355   6.116   3.366   0.239 -0.2191 -0.0360  0.2247
 7396SOL    HW229356   6.023   3.386   0.227  0.0206  0.4022 -1.0462
 7396SOL    HW329357   6.140   3.318   0.160  1.0868  1.5597 -0.4077
 7396SOL    MW429358   6.107   3.362   0.227 -0.0152  0.2324 -0.0264
 7397SOL     OW29359   5.861   5.361   5.878 -0.2806  0.4039 -0.1357
 7397SOL    HW229360   5.881   5.296   5.811 -1.4441  0.7941 -0.9008
 7397SOL    HW329361   5.845   5.310   5.958 -0.9190 -0.2342 -0.6617
 7397SOL    MW429362   5.861   5.346   5.880 -0.5183  0.3712 -0.3060
 7398SOL     OW29363   5.761   1.675   5.725  0.7324  0.2748 -0.0658
 7398SOL    HW229364   5.687   1.641   5.774  0.0978 -1.1155 -1.9073
 7398SOL    HW329365   5.827   1.605   5.729  1.3830  0.8813  0.2605
 7398SOL    MW429366   5.760   1.662   5.732  0.7345  0.1714 -0.2657
 7399SOL     OW29367   6.019   3.537   0.003 -0.3641 -0.6325  0.3921
 7399SOL    HW229368   6.068   3.531  -0.078 -0.0539 -1.2230  0.6194
 7399SOL    HW329369   6.065   3.605   0.053 -0.5722 -0.2489  0.0706
 7399SOL    MW429370   6.032   3.545  -0.001 -0.3506 -0.6598  0.3797
 7400SOL     OW29371   1.905   1.275   3.469 -0.3050 -0.3667 -0.0351
 7400SOL    HW229372   1.971   1.219   3.429  0.4035 -0.1549  0.8130
 7400SOL    HW329373   1.955   1.338   3.521 -1.0895  0.8584 -0.6969
 7400SOL    MW429374   1.920   1.276   3.471 -0.3150 -0.1771 -0.0105
 7401SOL     OW29375   2.546   5.298   3.457  0.0804 -0.0965 -0.5384
 7401SOL    HW229376   2.634   5.318   3.425  0.3318  0.1496  0.2686
 7401SOL    HW329377   2.558   5.279   3.550 -0.7662  0.3187 -0.3315
 7401SOL    MW429378   2.559   5.298   3.465  0.0018 -0.0093 -0.4046
 7402SOL     OW29379   1.535   2.636   4.469 -0.1397 -0.8732 -0.2710
 7402SOL    HW229380   1.541   2.731   4.480 -2.0949 -0.8554  1.3399
 7402SOL    HW329381   1.592   2.600   4.537 -1.1969 -0.8069  0.6798
 7402SOL    MW429382   1.543   2.644   4.480 -0.5372 -0.8621  0.0670
 7403SOL     OW29383   5.417   5.600   5.997  0.4648  0.3901 -0.2822
 7403SOL    HW229384   5.406   5.597   6.092  0.7163  0.6191 -0.2462
 7403SOL    HW329385   5.328   5.596   5.962  0.4122 -2.3667 -0.1118
 7403SOL    MW429386   5.404   5.599   6.005  0.4910  0.0566 -0.2550
 7404SOL     OW29387   4.783   5.473   0.360  0.4298 -0.1574  0.8903
 7404SOL    HW229388   4.841   5.545   0.383  0.1449 -0.1425  1.6146
 7404SOL    HW329389   4.805   5.404   0.423 -0.8978  0.1554  1.7577
 7404SOL    MW429390   4.793   5.473   0.371  0.2170 -0.1141  1.1003
 7405SOL     OW29391   3.251   4.649   5.392  0.4289 -0.0382  0.3052
 7405SOL    HW229392   3.313   4.707   5.349 -0.1636  0.0401 -0.4628
 7405SOL    HW329393   3.205   4.605   5.321 -0.6683  0.1952  0.8393
 7405SOL    MW429394   3.253   4.651   5.377  0.2060  0.0029  0.2743
 7406SOL     OW29395   2.262   5.394   6.056 -0.1359 -0.0308  0.7878
 7406SOL    HW229396   2.200   5.399   5.983 -0.7629  1.1969  1.3710
 7406SOL    HW329397   2.345   5.372   6.016 -0.8488 -1.2986 -0.0656
 7406SOL    MW429398   2.264   5.392   6.041 -0.3127 -0.0361  0.7521
 7407SOL     OW29399   0.913   2.721   2.577 -0.1293 -0.6692 -0.5695
 7407SOL    HW229400   0.948   2.769   2.651 -0.1806  0.1857 -1.0803
 7407SOL    HW329401   0.818   2.731   2.584 -0.1519 -0.8914 -0.5506
 7407SOL    MW429402   0.905   2.728   2.587 -0.1390 -0.5858 -0.6344
 7408SOL     OW29403   0.187   4.268   1.182 -0.0221 -0.1396  0.4942
 7408SOL    HW229404   0.093   4.280   1.175 -0.0772 -0.3980  0.7654
 7408SOL    HW329405   0.209   4.292   1.272  0.2973  0.7183  0.1936
 7408SOL    MW429406   0.178   4.273   1.193  0.0128 -0.0605  0.4903
 7409SOL     OW29407   0.237   4.425   1.782  0.2881  0.2501  0.0480
 7409SOL    HW229408   0.204   4.335   1.781  1.2344 -0.1395  1.0785
 7409SOL    HW329409   0.217   4.459   1.695 -0.7831 -0.6975 -0.0995
 7409SOL    MW429410   0.230   4.417   1.771  0.2716  0.0736  0.1645
 7410SOL     OW29411   1.371   5.955   2.577 -0.1217 -0.7385  0.8264
 7410SOL    HW229412   1.285   5.964   2.617 -0.0114 -0.3810  0.9923
 7410SOL    HW329413   1.390   6.041   2.540 -0.1258 -1.0071  0.1874
 7410SOL    MW429414   1.362   5.968   2.578 -0.1077 -0.7268  0.7640
 7411SOL     OW29415   6.012   3.548   3.794 -0.1945  0.7074  0.0713
 7411SOL    HW229416   6.013   3.454   3.775 -0.8097  0.7553 -0.2317
 7411SOL    HW329417   6.089   3.562   3.848  1.0664  0.3775 -1.5323
 7411SOL    MW429418   6.022   3.537   3.798 -0.1093  0.6702 -0.1802
 7412SOL     OW29419   5.587   2.042   1.294 -0.6749 -0.9476  0.2611
 7412SOL    HW229420   5.494   2.066   1.298 -0.7802 -1.2151 -0.4632
 7412SOL    HW329421   5.590   1.967   1.234  0.1147 -0.4205 -0.3736
 7412SOL    MW429422   5.575   2.035   1.286 -0.5846 -0.9134  0.0818
 7413SOL     OW29423   3.237   2.702   4.412  0.2237  0.3414 -0.1149
 7413SOL    HW229424   3.216   2.700   4.505  1.8380 -3.0008  0.3247
 7413SOL    HW329425   3.189   2.628   4.375 -1.0208  2.0676 -2.1933
 7413SOL    MW429426   3.228   2.692   4.419  0.2725  0.1282 -0.3312
 7414SOL     OW29427   3.524   3.856   2.579 -0.1125  0.4414  0.4378
 7414SOL    HW229428   3.481   3.942   2.584  1.2804  1.1542  0.5655
 7414SOL    HW329429   3.608   3.869   2.622 -0.4726 -1.3954  1.7702
 7414SOL    MW429430   3.529   3.869   2.585  0.0237  0.2931  0.6305
 7415SOL     OW29431   0.684   5.165   1.761  0.3453  0.1263  0.1459
 7415SOL    HW229432   0.710   5.191   1.672  1.2751 -2.0202 -0.2893
 7415SOL    HW329433   0.619   5.097   1.748  0.8431 -0.5553  1.0831
 7415SOL    MW429434   0.679   5.160   1.747  0.5337 -0.2468  0.2121
 7416SOL     OW29435   3.254   4.196   0.569 -0.0961 -0.1193  0.1609
 7416SOL    HW229436   3.194   4.216   0.498 -0.8961  2.2658  1.3982
 7416SOL    HW329437   3.243   4.102   0.584 -0.9592 -0.3885 -1.8756
 7416SOL    MW429438   3.245   4.186   0.562 -0.3155  0.1599  0.0555
 7417SOL     OW29439   5.770   2.046   0.556 -0.7485  0.2224 -0.2084
 7417SOL    HW229440   5.746   2.094   0.477 -1.4367 -0.2131 -0.2724
 7417SOL    HW329441   5.850   2.090   0.588 -0.8108  0.7797 -0.8016
 7417SOL    MW429442   5.778   2.058   0.550 -0.8475  0.2385 -0.2951
 7418SOL     OW29443   4.376   4.796   1.863 -0.1370  0.4473  0.4519
 7418SOL    HW229444   4.325   4.851   1.922  2.4576  2.0360  1.3839
 7418SOL    HW329445   4.467   4.825   1.875  0.8324 -1.0324 -2.3427
 7418SOL    MW429446   4.381   4.807   1.872  0.3332  0.4617  0.2062
 7419SOL     OW29447   3.605   1.909   1.392 -0.1406 -0.6338  0.1262
 7419SOL    HW229448   3.563   1.827   1.363  0.2269 -0.8804  0.2827
 7419SOL    HW329449   3.549   1.978   1.357 -0.1385 -0.9414 -0.5018
 7419SOL    MW429450   3.592   1.907   1.384 -0.0918 -0.7069  0.0640
 7420SOL     OW29451   1.889   2.666   3.002  0.0061  0.2781 -0.7064
 7420SOL    HW229452   1.918   2.667   3.093 -1.0759  1.5645 -0.3467
 7420SOL    HW329453   1.937   2.738   2.961  1.1332 -0.8211 -1.4012
 7420SOL    MW429454   1.899   2.676   3.008  0.0120  0.3028 -0.7506
 7421SOL     OW29455   4.522   0.126   2.428 -0.0595  0.2255  0.4053
 7421SOL    HW229456   4.471   0.164   2.499  0.1785  1.5602 -0.1149
 7421SOL    HW329457   4.459   0.073   2.379 -0.6609  0.8273  0.5100
 7421SOL    MW429458   4.507   0.124   2.430 -0.1075  0.4810  0.3505
 7422SOL     OW29459   3.295   4.190   3.238 -0.0965 -0.4246  0.0257
 7422SOL    HW229460   3.355   4.219   3.306  0.9299 -2.2833 -0.0276
 7422SOL    HW329461   3.295   4.095   3.245  1.9573 -0.9553 -4.0648
 7422SOL    MW429462   3.303   4.181   3.247  0.3099 -0.7399 -0.5210
 7423SOL     OW29463   1.683   5.564   1.062  0.3530 -0.2487  0.0018
 7423SOL    HW229464   1.666   5.480   1.103 -1.7157 -0.3350 -0.9283
 7423SOL    HW329465   1.654   5.554   0.972  0.6750  1.2633 -0.3088
 7423SOL    MW429466   1.677   5.552   1.056  0.1226 -0.0606 -0.1619
 7424SOL     OW29467   1.564   4.892   4.060 -0.2615 -0.3048 -0.2383
 7424SOL    HW229468   1.473   4.914   4.036  0.0926  0.7078 -0.7000
 7424SOL    HW329469   1.617   4.959   4.017  0.6681 -0.5283  0.5302
 7424SOL    MW429470   1.559   4.904   4.051 -0.0921 -0.2007 -0.1978
 7425SOL     OW29471   3.553   0.477   3.691  0.4694  0.2199  0.3048
 7425SOL    HW229472   3.503   0.396   3.696  0.4414  0.2705  0.9736
 7425SOL    HW329473   3.499   0.535   3.637  0.3583 -0.1115  0.0548
 7425SOL    MW429474   3.539   0.474   3.684  0.4510  0.1828  0.3600
 7426SOL     OW29475   5.706   4.315   1.572 -0.3621  0.3584 -0.1595
 7426SOL    HW229476   5.666   4.384   1.518  0.0281  0.2966 -0.5366
 7426SOL    HW329477   5.734   4.249   1.508  0.5929  0.5316  0.0645
 7426SOL    MW429478   5.705   4.315   1.556 -0.1846  0.3731 -0.1797
 7427SOL     OW29479   1.210   3.181   5.279  0.0295  0.3125 -0.3209
 7427SOL    HW229480   1.268   3.132   5.221  0.7627  0.8943 -0.0974
 7427SOL    HW329481   1.229   3.147   5.367  0.1156  0.5771 -0.2348
 7427SOL    MW429482   1.220   3.170   5.283  0.1376  0.4242 -0.2800
 7428SOL     OW29483   5.228   0.306   4.836  0.0854  0.2613 -0.0891
 7428SOL    HW229484   5.306   0.257   4.810  0.1357  1.3738 -2.2434
 7428SOL    HW329485   5.158   0.241   4.835  0.5592 -0.2522 -0.5784
 7428SOL    MW429486   5.229   0.291   4.832  0.1545  0.3404 -0.4379
 7429SOL     OW29487   2.326   5.118   5.906 -0.1284  0.0800 -0.1384
 7429SOL    HW229488   2.368   5.188   5.855 -1.1098  0.2897 -0.6899
 7429SOL    HW329489   2.323   5.152   5.995  1.2104 -0.1029  0.0012
 7429SOL    MW429490   2.331   5.132   5.911 -0.0813  0.0836 -0.1927
 7430SOL     OW29491   1.624   0.234   3.633 -0.2186  0.3856 -0.1216
 7430SOL    HW229492   1.609   0.256   3.725 -1.3744  2.4049 -0.7371
 7430SOL    HW329493   1.702   0.284   3.610 -1.0862  1.4806 -0.7417
 7430SOL    MW429494   1.633   0.243   3.642 -0.4856  0.7965 -0.2846
 7431SOL     OW29495   5.492   5.930   4.117 -0.0087 -0.1851 -0.2914
 7431SOL    HW229496   5.416   5.895   4.164  1.6084 -2.9542  0.4786
 7431SOL    HW329497   5.537   5.983   4.183 -0.6940  0.6380 -0.4600
 7431SOL    MW429498   5.488   5.933   4.132  0.1142 -0.4419 -0.2121
 7432SOL     OW29499   0.794   4.062   5.459  0.2244  0.5703 -0.4301
 7432SOL    HW229500   0.887   4.081   5.443  0.6673 -0.8773  0.2364
 7432SOL    HW329501   0.754   4.062   5.372  1.3677 -1.2734 -0.9982
 7432SOL    MW429502   0.801   4.065   5.446  0.4337  0.1361 -0.4171
 7433SOL     OW29503   5.540   3.299   5.748  0.4478 -1.0154 -1.0326
 7433SOL    HW229504   5.588   3.218   5.758 -0.2987 -1.2636  0.8602
 7433SOL    HW329505   5.497   3.313   5.832  0.2986  1.1806 -1.4085
 7433SOL    MW429506   5.541   3.290   5.760  0.3296 -0.7584 -0.8324
 7434SOL     OW29507   4.628   5.872   1.861 -0.0972 -0.6042 -0.3353
 7434SOL    HW229508   4.715   5.893   1.827 -0.2025  1.5034  0.5219
 7434SOL    HW329509   4.645   5.807   1.930  0.8517 -0.0386 -0.0076
 7434SOL    MW429510   4.642   5.866   1.866  0.0141 -0.2515 -0.1790
 7435SOL     OW29511   4.972   4.861   0.027  0.3242 -0.0295  1.0362
 7435SOL    HW229512   4.879   4.882   0.017  0.0934 -0.3699  2.2985
 7435SOL    HW329513   4.982   4.775  -0.015  0.3003  0.4451  0.0159
 7435SOL    MW429514   4.961   4.852   0.020  0.2906 -0.0118  1.0682
 7436SOL     OW29515   0.039   5.318   4.715  0.2327  0.5399  0.4696
 7436SOL    HW229516  -0.018   5.364   4.777  0.6907 -0.0593  1.3642
 7436SOL    HW329517  -0.011   5.241   4.688 -0.4769  1.4418 -0.9188
 7436SOL    MW429518   0.025   5.314   4.720  0.1995  0.5798  0.4044
 7437SOL     OW29519   4.097   3.628   1.232  0.0946  0.3879 -0.0050
 7437SOL    HW229520   4.115   3.599   1.322  2.2698 -1.9976 -1.0869
 7437SOL    HW329521   4.010   3.594   1.213  0.0019  0.1016  0.8650
 7437SOL    MW429522   4.088   3.620   1.242  0.3694  0.0354 -0.0330
 7438SOL     OW29523   5.255   1.485   2.766 -0.1123 -0.3206 -0.0683
 7438SOL    HW229524   5.305   1.410   2.800  1.1140  0.6449  0.3687
 7438SOL    HW329525   5.281   1.492   2.675  0.6941  0.2577  0.1912
 7438SOL    MW429526   5.265   1.476   2.759  0.1559 -0.1169  0.0236
 7439SOL     OW29527   6.037   4.532   0.661 -0.1023 -0.3751  0.0530
 7439SOL    HW229528   6.024   4.626   0.677 -0.1327 -0.1641 -1.1644
 7439SOL    HW329529   6.008   4.490   0.743 -0.2383  0.6579  0.5532
 7439SOL    MW429530   6.031   4.539   0.674 -0.1243 -0.2110 -0.0416
 7440SOL     OW29531   5.293   0.902   5.024 -0.0637  0.1731 -0.2986
 7440SOL    HW229532   5.368   0.848   5.048 -0.5855 -0.6427 -0.4386
 7440SOL    HW329533   5.234   0.895   5.100  0.0414  0.8824 -0.1505
 7440SOL    MW429534   5.295   0.894   5.037 -0.1187  0.1591 -0.2975
 7441SOL     OW29535   1.224   5.186   5.697  0.2977 -0.0057 -0.4555
 7441SOL    HW229536   1.245   5.198   5.605 -1.5615 -0.5352 -0.9835
 7441SOL    HW329537   1.302   5.216   5.743  1.8095 -1.0024 -2.2261
 7441SOL    MW429538   1.237   5.191   5.691  0.2519 -0.2071 -0.7588
 7442SOL     OW29539   0.367   4.375   5.879  0.4537 -0.2310 -0.2831
 7442SOL    HW229540   0.384   4.302   5.937  0.0923 -1.4343 -1.6343
 7442SOL    HW329541   0.390   4.453   5.930 -2.1017 -1.0197  2.3159
 7442SOL    MW429542   0.372   4.376   5.893  0.0689 -0.4938 -0.1185
 7443SOL     OW29543   0.100   3.718   4.072  0.3181  0.3673 -0.4584
 7443SOL    HW229544   0.097   3.780   4.145  0.3256 -1.3006  1.0394
 7443SOL    HW329545   0.185   3.675   4.080  0.0061 -0.3738 -0.9673
 7443SOL    MW429546   0.111   3.720   4.083  0.2779  0.0495 -0.3280
 7444SOL     OW29547   0.723   2.005   1.314  0.2642  0.1137  0.3257
 7444SOL    HW229548   0.679   1.941   1.259  1.3388  0.2851 -0.7804
 7444SOL    HW329549   0.777   2.056   1.253 -0.5777  2.0987  1.1520
 7444SOL    MW429550   0.725   2.004   1.299  0.2949  0.3982  0.2888
 7445SOL     OW29551   3.226   2.105   2.076 -0.1666 -0.0258 -0.0398
 7445SOL    HW229552   3.187   2.113   2.163 -2.3839 -1.8227 -0.7720
 7445SOL    HW329553   3.218   2.013   2.054  0.0302  0.4198 -2.2724
 7445SOL    MW429554   3.220   2.094   2.084 -0.4332 -0.2041 -0.4309
 7446SOL     OW29555   5.202   0.275   4.255 -0.2434  0.1124  0.7932
 7446SOL    HW229556   5.179   0.206   4.317 -3.8345  0.7655  0.3859
 7446SOL    HW329557   5.223   0.230   4.174 -1.8505 -0.5640  0.7327
 7446SOL    MW429558   5.202   0.260   4.253 -0.9292  0.1093  0.7315
 7447SOL     OW29559   1.081   3.611   5.860 -0.1269  0.0711  0.4645
 7447SOL    HW229560   1.109   3.682   5.801  0.2726 -0.2979  0.2026
 7447SOL    HW329561   1.111   3.531   5.817 -1.1405 -0.3041  0.4507
 7447SOL    MW429562   1.089   3.610   5.846 -0.2080 -0.0271  0.4281
 7448SOL     OW29563   1.739   5.523   3.526  0.1519 -0.1590 -0.3220
 7448SOL    HW229564   1.775   5.435   3.511  0.8620  0.1519 -0.4872
 7448SOL    HW329565   1.799   5.563   3.590 -0.5895 -0.0554  0.3171
 7448SOL    MW429566   1.752   5.517   3.532  0.1478 -0.1043 -0.2595
 7449SOL     OW29567   0.857   3.219   1.827  0.3124  0.1107  0.1231
 7449SOL    HW229568   0.859   3.126   1.850  0.1502  0.2423  0.6958
 7449SOL    HW329569   0.948   3.246   1.829  0.1882  0.6294  2.8531
 7449SOL    MW429570   0.869   3.210   1.831  0.2746  0.1965  0.5588
 7450SOL     OW29571   1.851   5.687   5.264  0.5479  0.0668 -0.4836
 7450SOL    HW229572   1.757   5.673   5.258  0.6641 -0.2622 -1.8287
 7450SOL    HW329573   1.868   5.762   5.207  1.0446  0.4531  0.1467
 7450SOL    MW429574   1.841   5.695   5.256  0.6287  0.0744 -0.5779
 7451SOL     OW29575   1.376   0.607   0.940 -0.4426 -0.1114 -0.4434
 7451SOL    HW229576   1.311   0.547   0.906 -0.2735 -0.0616 -0.8673
 7451SOL    HW329577   1.442   0.551   0.982 -1.2107 -0.1108  0.8077
 7451SOL    MW429578   1.376   0.592   0.941 -0.5217 -0.1047 -0.3343
 7452SOL     OW29579   4.874   0.628   3.225 -0.0854  0.3283  0.6053
 7452SOL    HW229580   4.878   0.545   3.273  2.3598  1.1516  2.0343
 7452SOL    HW329581   4.893   0.605   3.134 -0.0708 -0.7397  0.8693
 7452SOL    MW429582   4.877   0.614   3.219  0.2391  0.2960  0.8287
 7453SOL     OW29583   2.705   0.618   6.000  0.5303  0.0232  0.2415
 7453SOL    HW229584   2.676   0.575   5.919  0.6813  0.0871  0.1506
 7453SOL    HW329585   2.791   0.655   5.977  0.6980 -0.1977  0.5146
 7453SOL    MW429586   2.713   0.617   5.986  0.5724  0.0025  0.2655
 7454SOL     OW29587   5.334   4.812   5.262  0.3365 -0.0230 -0.1342
 7454SOL    HW229588   5.271   4.758   5.308  2.5388 -0.3932  2.7834
 7454SOL    HW329589   5.321   4.900   5.297  0.4121  0.2164 -0.6904
 7454SOL    MW429590   5.324   4.816   5.273  0.6371 -0.0402  0.1774
 7455SOL     OW29591   4.328   1.081   5.046  0.0752 -0.0347 -0.1020
 7455SOL    HW229592   4.354   1.087   5.138  1.0561 -0.1930 -0.3522
 7455SOL    HW329593   4.387   1.015   5.009  1.2256  1.5761 -1.3356
 7455SOL    MW429594   4.340   1.073   5.053  0.3564  0.1569 -0.2978
 7456SOL     OW29595   5.068   1.219   0.843  0.0471  0.3994 -0.3878
 7456SOL    HW229596   5.133   1.151   0.831 -1.3233 -1.2497  1.0530
 7456SOL    HW329597   5.092   1.287   0.780  1.7752 -1.1527 -1.4810
 7456SOL    MW429598   5.080   1.219   0.833  0.0943 -0.0230 -0.3420
 7457SOL     OW29599   6.197   0.282   4.021  0.3553 -0.1412  0.2419
 7457SOL    HW229600   6.160   0.231   3.950  0.8253 -0.3740  0.1614
 7457SOL    HW329601   6.179   0.231   4.100 -0.2607  0.1692  0.3053
 7457SOL    MW429602   6.190   0.269   4.022  0.3360 -0.1310  0.2397
 7458SOL     OW29603   0.309   2.921   0.352 -0.2967  0.2808 -1.1376
 7458SOL    HW229604   0.344   3.009   0.340 -0.2329  0.3273 -0.6330
 7458SOL    HW329605   0.241   2.931   0.419  1.2547 -0.4111  0.6388
 7458SOL    MW429606   0.305   2.934   0.359 -0.0836  0.1957 -0.8366
 7459SOL     OW29607   3.806   1.783   3.818  0.0161 -0.4002 -0.1482
 7459SOL    HW229608   3.874   1.847   3.799 -0.6941  0.3292 -0.3266
 7459SOL    HW329609   3.731   1.835   3.846 -0.4739 -1.1808  0.0430
 7459SOL    MW429610   3.805   1.798   3.819 -0.1422 -0.4070 -0.1465
 7460SOL     OW29611   1.148   1.474   5.161  0.0296 -0.4064 -0.2061
 7460SOL    HW229612   1.216   1.530   5.124 -1.2215  0.6731 -0.9803
 7460SOL    HW329613   1.139   1.402   5.098 -0.3162  0.0531 -0.6862
 7460SOL    MW429614   1.156   1.472   5.148 -0.1811 -0.2033 -0.3716
 7461SOL     OW29615   3.540   4.634   1.927 -0.0460 -0.2743 -0.1471
 7461SOL    HW229616   3.445   4.638   1.920 -0.2213  2.4811  2.0657
 7461SOL    HW329617   3.571   4.695   1.860 -0.0511  1.0339  0.9974
 7461SOL    MW429618   3.532   4.643   1.917 -0.0698  0.2619  0.2959
 7462SOL     OW29619   4.086   1.855   0.560 -0.2854  0.1544  0.5962
 7462SOL    HW229620   4.146   1.782   0.548 -0.1371  0.4099 -0.2539
 7462SOL    HW329621   4.048   1.870   0.474  0.3255  1.6130  0.5477
 7462SOL    MW429622   4.089   1.848   0.547 -0.1852  0.3805  0.4777
 7463SOL     OW29623   4.459   4.808   5.675  0.1162  0.7357  0.1008
 7463SOL    HW229624   4.515   4.740   5.713 -0.8392  0.3798  0.8960
 7463SOL    HW329625   4.375   4.765   5.660 -0.1913  1.4698 -0.3659
 7463SOL    MW429626   4.455   4.793   5.678 -0.0504  0.7856  0.1442
 7464SOL     OW29627   0.556   5.996   1.125  0.1370  0.2710  0.0265
 7464SOL    HW229628   0.546   5.907   1.157 -0.9181 -0.0523 -1.1503
 7464SOL    HW329629   0.594   5.986   1.038  1.7620  1.0789  0.5874
 7464SOL    MW429630   0.560   5.983   1.118  0.2122  0.3349 -0.0547
 7465SOL     OW29631   2.063   3.918   1.666  0.4129 -0.2945 -0.3106
 7465SOL    HW229632   2.048   3.995   1.721  0.7132  0.1626 -0.8663
 7465SOL    HW329633   2.131   3.869   1.713  0.3773 -0.1166 -0.0687
 7465SOL    MW429634   2.070   3.921   1.680  0.4478 -0.2107 -0.3520
 7466SOL     OW29635   5.450   5.667   3.301 -0.1503 -0.2086 -0.5843
 7466SOL    HW229636   5.542   5.684   3.279 -0.0329 -2.5982 -2.2943
 7466SOL    HW329637   5.453   5.620   3.384  0.1100  0.2944 -0.3045
 7466SOL    MW429638   5.463   5.663   3.309 -0.1004 -0.4575 -0.7730
 7467SOL     OW29639   2.343   3.863   1.501 -0.6038 -0.4546 -0.3716
 7467SOL    HW229640   2.270   3.925   1.508  0.5575  0.9272 -0.0078
 7467SOL    HW329641   2.369   3.867   1.409 -1.0455 -1.0324 -0.5260
 7467SOL    MW429642   2.337   3.872   1.490 -0.5089 -0.3485 -0.3440
 7468SOL     OW29643   2.995   2.893   5.826 -0.3626 -0.3387 -0.0901
 7468SOL    HW229644   2.910   2.870   5.863 -0.5576  0.9566  0.3155
 7468SOL    HW329645   2.976   2.965   5.766  0.2787 -0.8835 -0.9582
 7468SOL    MW429646   2.981   2.900   5.823 -0.3037 -0.2397 -0.1511
 7469SOL     OW29647   0.744   1.973   2.557  0.1058 -0.1273  0.1883
 7469SOL    HW229648   0.696   2.047   2.593  0.2476 -0.7587  1.7585
 7469SOL    HW329649   0.835   2.004   2.550 -0.1713  0.4768 -1.0876
 7469SOL    MW429650   0.750   1.987   2.561  0.0879 -0.1309  0.2271
 7470SOL     OW29651   4.035   1.123   0.479 -0.2647 -0.0191 -0.0035
 7470SOL    HW229652   4.110   1.171   0.516 -1.2991  1.2264  0.5658
 7470SOL    HW329653   4.044   1.136   0.384 -0.2515  0.9099  0.1120
 7470SOL    MW429654   4.046   1.131   0.471 -0.3994  0.2678  0.0869
 7471SOL     OW29655   0.707   1.282   3.243 -0.2477  0.0410 -0.4411
 7471SOL    HW229656   0.657   1.342   3.188  0.0493  0.7226  0.0285
 7471SOL    HW329657   0.669   1.196   3.224  0.8427  0.0174 -2.8541
 7471SOL    MW429658   0.695   1.278   3.233 -0.0647  0.1278 -0.6975
 7472SOL     OW29659   4.457   4.431   3.876 -0.0028 -0.0288 -0.8791
 7472SOL    HW229660   4.420   4.345   3.858 -0.0211  0.0704 -1.3437
 7472SOL    HW329661   4.523   4.415   3.944 -1.3127 -0.1030  0.4069
 7472SOL    MW429662   4.461   4.418   3.882 -0.1780 -0.0255 -0.7707
 7473SOL     OW29663   4.956   5.060   1.586  0.7348 -0.0371 -0.1312
 7473SOL    HW229664   4.996   5.075   1.671 -3.6614 -1.6034  2.5491
 7473SOL    HW329665   4.946   5.147   1.548  1.9859  0.8061  1.3745
 7473SOL    MW429666   4.960   5.073   1.592  0.3199 -0.1325  0.4211
 7474SOL     OW29667   4.584   3.668   2.273 -0.4356  0.2341  0.0210
 7474SOL    HW229668   4.552   3.746   2.227  0.4432  0.1038 -0.8360
 7474SOL    HW329669   4.574   3.690   2.366 -2.5377  0.3828 -0.1746
 7474SOL    MW429670   4.578   3.681   2.279 -0.5970  0.2365 -0.1179
 7475SOL     OW29671   1.192   4.191   0.552 -0.4152  0.2026 -0.4385
 7475SOL    HW229672   1.282   4.224   0.559 -0.4070 -0.0537  0.7535
 7475SOL    HW329673   1.137   4.265   0.579 -0.5963  0.4548 -1.4440
 7475SOL    MW429674   1.197   4.205   0.556 -0.4380  0.2021 -0.4139
 7476SOL     OW29675   5.318   6.342   5.716  0.3383  0.0378  0.1716
 7476SOL    HW229676   5.269   6.384   5.787 -0.3658  1.2062 -0.9705
 7476SOL    HW329677   5.381   6.408   5.688  0.7360 -0.4823 -0.1644
 7476SOL    MW429678   5.319   6.356   5.722  0.2979  0.1234 -0.0234
 7477SOL     OW29679   1.632   4.037   5.375 -0.1584  0.9414 -1.2268
 7477SOL    HW229680   1.606   4.113   5.324 -1.3292  0.5685 -1.2215
 7477SOL    HW329681   1.549   3.997   5.402  0.4419  0.5153  0.0366
 7477SOL    MW429682   1.618   4.042   5.372 -0.2337  0.8360 -1.0594
 7478SOL     OW29683   1.896   4.447   2.895  0.1302  0.4682 -0.3800
 7478SOL    HW229684   1.907   4.379   2.961  0.2483  1.1415  0.3061
 7478SOL    HW329685   1.862   4.401   2.818  0.7523 -0.4550 -0.1204
 7478SOL    MW429686   1.893   4.432   2.893  0.2279  0.4352 -0.2553
 7479SOL     OW29687   5.308   5.999   5.524  0.7012 -0.1896  0.1735
 7479SOL    HW229688   5.308   5.904   5.539  1.5504 -0.1871  0.2114
 7479SOL    HW329689   5.263   6.035   5.601 -1.9346 -0.7068 -1.0041
 7479SOL    MW429690   5.302   5.991   5.536  0.4655 -0.2575  0.0232
 7480SOL     OW29691   4.996   4.643   0.267 -0.2868 -0.2556  0.1590
 7480SOL    HW229692   5.017   4.680   0.182  0.2279  0.2840  0.5132
 7480SOL    HW329693   4.957   4.558   0.247  0.7420 -0.5814 -0.5809
 7480SOL    MW429694   4.994   4.637   0.253 -0.0831 -0.2274  0.1081
 7481SOL     OW29695   5.888   3.805   2.179  0.2246 -0.1286  0.0121
 7481SOL    HW229696   5.877   3.742   2.250  0.5913 -2.1126 -1.6193
 7481SOL    HW329697   5.823   3.780   2.113  1.4865  0.1191 -1.3805
 7481SOL    MW429698   5.878   3.794   2.180  0.4395 -0.3577 -0.3869
 7482SOL     OW29699   0.893   1.274   3.459  0.6015  0.8505  0.0456
 7482SOL    HW229700   0.824   1.283   3.393  2.0224  2.1581 -1.3316
 7482SOL    HW329701   0.915   1.181   3.458 -0.7664  0.4975  0.1575
 7482SOL    MW429702   0.887   1.262   3.450  0.6085  0.9765 -0.1214
 7483SOL     OW29703   5.833   5.212   0.816 -0.0590  0.2182  0.2393
 7483SOL    HW229704   5.900   5.205   0.884  0.2914 -0.2640 -0.1510
 7483SOL    HW329705   5.751   5.193   0.862  0.1671 -0.0394  0.5402
 7483SOL    MW429706   5.831   5.209   0.831  0.0171  0.1206  0.2275
 7484SOL     OW29707   0.795   3.385   1.603  0.0289  0.0077 -0.1673
 7484SOL    HW229708   0.884   3.395   1.570  0.7747  0.8044  1.9236
 7484SOL    HW329709   0.800   3.313   1.665 -0.2485  1.3807  1.5354
 7484SOL    MW429710   0.807   3.377   1.607  0.0907  0.2940  0.3332
 7485SOL     OW29711   2.820   3.502   6.277 -0.0056 -0.3660  0.0207
 7485SOL    HW229712   2.762   3.539   6.344  0.4418 -0.2985  0.3761
 7485SOL    HW329713   2.890   3.460   6.326 -0.2732 -1.3129 -0.3927
 7485SOL    MW429714   2.822   3.502   6.292  0.0181 -0.4821  0.0131
 7486SOL     OW29715   0.285   4.557   3.784  0.2256  0.4560 -0.4544
 7486SOL    HW229716   0.217   4.491   3.798  1.3621 -0.5946  0.2726
 7486SOL    HW329717   0.336   4.524   3.710  2.0633 -0.5975  1.2099
 7486SOL    MW429718   0.283   4.544   3.776  0.6180  0.1784 -0.1389
 7487SOL     OW29719   5.617   3.856   2.596 -0.0008  0.8194 -0.0887
 7487SOL    HW229720   5.595   3.805   2.518 -1.2844  1.6253 -0.2906
 7487SOL    HW329721   5.698   3.901   2.574 -0.8417  1.7838 -1.3554
 7487SOL    MW429722   5.625   3.855   2.583 -0.2811  1.0530 -0.2825
 7488SOL     OW29723   0.770   4.035   3.641 -0.2549 -0.6955  0.1449
 7488SOL    HW229724   0.855   3.991   3.636  0.3157  0.1411  1.6269
 7488SOL    HW329725   0.706   3.963   3.643  0.5069 -1.3901  0.3638
 7488SOL    MW429726   0.773   4.019   3.641 -0.0791 -0.6768  0.3693
 7489SOL     OW29727   0.769   0.040   5.104 -0.3070 -0.1847 -0.2152
 7489SOL    HW229728   0.812  -0.042   5.078  0.4293  0.5373 -1.3539
 7489SOL    HW329729   0.688   0.042   5.052 -0.2375 -0.1035 -0.3202
 7489SOL    MW429730   0.764   0.029   5.093 -0.2007 -0.0787 -0.3793
 7490SOL     OW29731   2.469   5.965   1.139 -0.4399  0.1378  0.5933
 7490SOL    HW229732   2.463   6.021   1.061  1.3581  0.9102  0.9709
 7490SOL    HW329733   2.472   5.876   1.104  3.1729  0.5473 -0.4928
 7490SOL    MW429734   2.468   5.961   1.124  0.2740  0.2938  0.4998
 7491SOL     OW29735   4.435   5.812   3.859  0.2915 -0.0691 -0.0013
 7491SOL    HW229736   4.507   5.825   3.921  1.0003 -0.3540 -0.7488
 7491SOL    HW329737   4.433   5.717   3.844 -0.3536 -0.0820  0.1432
 7491SOL    MW429738   4.444   5.801   3.865  0.2999 -0.1084 -0.0809
 7492SOL     OW29739   0.379   4.970   4.905 -0.2111  0.6100 -0.7050
 7492SOL    HW229740   0.338   4.891   4.871 -0.9233  1.6377 -2.3284
 7492SOL    HW329741   0.362   4.967   4.999  0.5090 -1.5528 -0.5922
 7492SOL    MW429742   0.371   4.959   4.913 -0.2100  0.4603 -0.9043
 7493SOL     OW29743   6.289   4.770   2.972 -0.0672 -0.3413 -0.5868
 7493SOL    HW229744   6.250   4.804   2.891 -0.7093 -1.2413 -0.6704
 7493SOL    HW329745   6.227   4.703   3.002  0.5397 -0.5441  0.2498
 7493SOL    MW429746   6.276   4.766   2.966 -0.0719 -0.4868 -0.4875
 7494SOL     OW29747   2.237   2.409   2.035 -0.6967  0.2593  0.0871
 7494SOL    HW229748   2.174   2.391   2.104 -0.9144  1.7335  0.3117
 7494SOL    HW329749   2.191   2.471   1.977  0.1747  0.5378 -0.3179
 7494SOL    MW429750   2.222   2.415   2.036 -0.6104  0.4906  0.0633
 7495SOL     OW29751   4.431   6.337   2.206 -0.0134 -0.3435  0.1993
 7495SOL    HW229752   4.423   6.417   2.153  1.2438 -1.5812 -2.0263
 7495SOL    HW329753   4.343   6.301   2.208 -0.1364 -0.1619 -0.9456
 7495SOL    MW429754   4.419   6.343   2.199  0.1362 -0.4828 -0.2454
 7496SOL     OW29755   5.909   3.024   4.533  0.5056  0.7391 -0.0317
 7496SOL    HW229756   5.928   2.993   4.621  1.8089  1.2702 -0.1116
 7496SOL    HW329757   5.993   3.020   4.487 -0.3644 -0.7982 -1.6695
 7496SOL    MW429758   5.922   3.019   4.538  0.5628  0.6064 -0.2583
 7497SOL     OW29759   2.655   2.541   1.419 -0.4602 -0.6095  0.7325
 7497SOL    HW229760   2.712   2.480   1.372  0.6824 -0.8275  2.3321
 7497SOL    HW329761   2.604   2.486   1.478 -1.1798 -0.2422  0.4651
 7497SOL    MW429762   2.655   2.526   1.421 -0.4044 -0.5898  0.9083
 7498SOL     OW29763   4.962   3.244   5.361  0.1708 -0.1450  0.1764
 7498SOL    HW229764   4.994   3.240   5.451 -0.1497  1.0583  0.3651
 7498SOL    HW329765   4.885   3.188   5.360  0.6130 -0.7684  0.4448
 7498SOL    MW429766   4.956   3.236   5.373  0.1869 -0.0685  0.2367
 7499SOL     OW29767   1.333   0.745   4.230 -0.1817  0.4717  0.1559
 7499SOL    HW229768   1.339   0.775   4.140  0.8355  0.3758  0.1851
 7499SOL    HW329769   1.268   0.802   4.270 -0.7357  0.4296 -0.6672
 7499SOL    MW429770   1.325   0.757   4.224 -0.1206  0.4535  0.0511
 7500SOL     OW29771   2.996   2.328   0.521  0.5173  0.2124 -0.3875
 7500SOL    HW229772   3.044   2.260   0.568  0.6274  1.0847  0.8078
 7500SOL    HW329773   2.906   2.319   0.551  0.6390  0.9538  0.2722
 7500SOL    MW429774   2.991   2.318   0.531  0.5479  0.4253 -0.1427
 7501SOL     OW29775   3.845   1.208   1.543 -0.2978 -0.6196  0.5432
 7501SOL    HW229776   3.927   1.167   1.516 -0.4627  0.0125 -1.0090
 7501SOL    HW329777   3.809   1.245   1.462 -1.4874  0.2079  1.4213
 7501SOL    MW429778   3.851   1.208   1.529 -0.4765 -0.4270  0.4542
 7502SOL     OW29779   6.393   1.995   4.235  0.6393 -0.1813 -0.5234
 7502SOL    HW229780   6.316   1.963   4.187 -1.6464  3.4276  0.3436
 7502SOL    HW329781   6.454   2.023   4.167  0.0057 -0.5434 -1.2554
 7502SOL    MW429782   6.391   1.994   4.220  0.2541  0.2471 -0.5056
 7503SOL     OW29783   3.201   2.363   3.192 -0.0795 -0.2936  0.2146
 7503SOL    HW229784   3.151   2.430   3.239 -1.1450 -1.1713  0.3846
 7503SOL    HW329785   3.185   2.382   3.100 -1.3791 -0.9888  0.2639
 7503SOL    MW429786   3.192   2.374   3.186 -0.3916 -0.5011  0.2435
 7504SOL     OW29787   2.024   5.476   2.664  0.0402  0.0769 -0.4058
 7504SOL    HW229788   2.095   5.464   2.601  1.8481 -0.5190  1.6258
 7504SOL    HW329789   1.987   5.389   2.674  0.9779 -0.2290  0.6535
 7504SOL    MW429790   2.029   5.463   2.657  0.4025 -0.0421  0.0020
 7505SOL     OW29791   0.386   4.059   4.743 -0.4596 -0.0591 -0.7933
 7505SOL    HW229792   0.457   4.023   4.690  0.4070  0.2375  0.1436
 7505SOL    HW329793   0.399   4.022   4.830 -1.1723  0.3792 -0.4857
 7505SOL    MW429794   0.397   4.049   4.747 -0.4393  0.0379 -0.6291
 7506SOL     OW29795   3.808   0.295   2.911 -0.2490  0.4653  0.0150
 7506SOL    HW229796   3.896   0.257   2.908 -0.9027 -1.0692 -0.5932
 7506SOL    HW329797   3.764   0.249   2.982 -1.4177 -0.8052 -1.4737
 7506SOL    MW429798   3.814   0.284   2.920 -0.4895  0.0952 -0.2617
 7507SOL     OW29799   2.894   0.277   1.927  0.1723 -0.6641  0.1293
 7507SOL    HW229800   2.878   0.287   1.833  4.8656  1.2447 -0.7336
 7507SOL    HW329801   2.921   0.364   1.957  1.2096 -1.7445  2.6678
 7507SOL    MW429802   2.896   0.290   1.919  0.9284 -0.5548  0.3504
 7508SOL     OW29803   2.503   1.712   5.550 -0.3770 -0.4211  0.0492
 7508SOL    HW229804   2.580   1.765   5.569 -0.3731 -0.7679  1.0602
 7508SOL    HW329805   2.454   1.763   5.486 -0.0491  0.5027  0.5177
 7508SOL    MW429806   2.507   1.726   5.544 -0.3332 -0.3449  0.2444
 7509SOL     OW29807   2.047   1.909   2.114 -0.1700  0.1801 -0.5291
 7509SOL    HW229808   1.976   1.862   2.072  0.5608 -1.0440 -0.4474
 7509SOL    HW329809   2.076   1.851   2.184  0.4550  0.9639 -0.1147
 7509SOL    MW429810   2.042   1.896   2.118  0.0089  0.1220 -0.4636
 7510SOL     OW29811   3.066   3.571   0.553 -0.1998 -0.0198 -0.2275
 7510SOL    HW229812   3.143   3.527   0.517 -1.5859 -2.3677 -0.5464
 7510SOL    HW329813   3.081   3.572   0.647  0.2980 -0.3341 -0.2967
 7510SOL    MW429814   3.078   3.565   0.560 -0.3170 -0.3711 -0.2787
 7511SOL     OW29815   4.002   5.401   5.794  0.1527  0.0093 -0.1840
 7511SOL    HW229816   4.021   5.322   5.744  1.2961  1.2994 -1.9065
 7511SOL    HW329817   3.955   5.370   5.871  0.8364 -2.3646 -0.6415
 7511SOL    MW429818   3.998   5.386   5.797  0.3937 -0.1337 -0.4717
 7512SOL     OW29819   3.165   3.049   4.969  0.2203  0.4827 -0.2482
 7512SOL    HW229820   3.198   2.993   5.040 -0.5122 -0.0841 -0.3422
 7512SOL    HW329821   3.070   3.040   4.974  0.0334  2.2161  0.1342
 7512SOL    MW429822   3.157   3.041   4.979  0.0990  0.6366 -0.2101
 7513SOL     OW29823   0.278   0.671   6.227  0.3676 -0.4258  0.1852
 7513SOL    HW229824   0.304   0.594   6.176  0.5168 -0.2343 -0.0318
 7513SOL    HW329825   0.327   0.664   6.309  0.1920 -0.6905  0.2694
 7513SOL    MW429826   0.288   0.660   6.231  0.3641 -0.4354  0.1677
 7514SOL     OW29827   6.211   3.966   4.589 -0.4121 -0.0414  0.2078
 7514SOL    HW229828   6.212   4.059   4.565  0.7979  0.4126  1.7671
 7514SOL    HW329829   6.264   3.923   4.522 -3.3083 -0.1681 -2.1992
 7514SOL    MW429830   6.218   3.973   4.577 -0.6346  0.0018  0.0959
 7515SOL     OW29831   2.657   5.147   2.780 -0.4519  0.2780  0.7803
 7515SOL    HW229832   2.673   5.240   2.791 -0.8092  0.2988  1.1669
 7515SOL    HW329833   2.743   5.106   2.794 -0.3406  0.5301  0.8369
 7515SOL    MW429834   2.671   5.154   2.784 -0.4844  0.3140  0.8388
 7516SOL     OW29835   3.240   1.516   0.224  0.3153  0.3093 -0.2755
 7516SOL    HW229836   3.216   1.454   0.155  0.2903 -0.2951  0.2636
 7516SOL    HW329837   3.293   1.465   0.285 -2.2305 -0.0861  1.8044
 7516SOL    MW429838   3.243   1.501   0.223 -0.0239  0.1774  0.0700
 7517SOL     OW29839   2.561   1.650   4.420 -0.2337 -0.1809  0.0482
 7517SOL    HW229840   2.626   1.718   4.402 -0.6954 -0.2077 -1.9725
 7517SOL    HW329841   2.479   1.697   4.434 -0.4005 -0.2698 -0.5937
 7517SOL    MW429842   2.559   1.665   4.420 -0.3166 -0.1961 -0.3031
 7518SOL     OW29843   4.614   4.069   3.873  0.1932 -0.7042  0.3027
 7518SOL    HW229844   4.619   3.994   3.932  1.0636  1.0905  2.6742
 7518SOL    HW329845   4.703   4.078   3.837  0.0958 -0.7785  0.0380
 7518SOL    MW429846   4.627   4.061   3.876  0.2952 -0.4772  0.5806
 7519SOL     OW29847   1.109   1.241   4.998  0.3022  0.8498  0.2525
 7519SOL    HW229848   1.156   1.160   5.015  0.8627  1.0092 -0.4984
 7519SOL    HW329849   1.017   1.213   4.991  0.5832  0.1436 -0.8421
 7519SOL    MW429850   1.103   1.226   4.999  0.4132  0.7776  0.0091
 7520SOL     OW29851   4.682   4.540   6.306  0.2185  0.1401 -0.1495
 7520SOL    HW229852   4.675   4.551   6.401 -0.6609  0.1508 -0.2075
 7520SOL    HW329853   4.722   4.621   6.275 -2.2800  1.4507 -0.1112
 7520SOL    MW429854   4.687   4.552   6.314 -0.2272  0.3145 -0.1521
 7521SOL     OW29855   5.540   4.809   0.447  0.8925 -0.1161 -0.1705
 7521SOL    HW229856   5.568   4.900   0.453  3.8805 -1.0174  2.2772
 7521SOL    HW329857   5.447   4.811   0.471  0.6746  2.3080 -0.9078
 7521SOL    MW429858   5.531   4.821   0.451  1.2580  0.0848  0.0552
 7522SOL     OW29859   6.162   2.018   3.810 -0.5608 -0.0971  0.2218
 7522SOL    HW229860   6.194   1.947   3.754  0.4588  0.2492  0.3295
 7522SOL    HW329861   6.155   1.979   3.897 -0.7910 -0.2774  0.1212
 7522SOL    MW429862   6.166   2.003   3.814 -0.4566 -0.0752  0.2227
 7523SOL     OW29863   1.458   4.595   6.211 -0.2250 -0.2457  0.5660
 7523SOL    HW229864   1.544   4.557   6.192 -0.7020 -0.0763 -2.3902
 7523SOL    HW329865   1.396   4.525   6.192 -0.8228  0.1042  1.1915
 7523SOL    MW429866   1.462   4.580   6.206 -0.3668 -0.1772  0.2585
 7524SOL     OW29867   1.141   4.630   5.066  0.0829  0.3434  0.0265
 7524SOL    HW229868   1.187   4.594   5.142 -2.0221 -1.9606  0.3344
 7524SOL    HW329869   1.198   4.610   4.992  0.6944 -0.2941  0.6507
 7524SOL    MW429870   1.155   4.623   5.066 -0.1142 -0.0447  0.1495
 7525SOL     OW29871   1.933   4.827   1.809  0.5758 -0.3205  0.2228
 7525SOL    HW229872   1.867   4.795   1.870 -0.6556 -0.4625 -1.1304
 7525SOL    HW329873   1.985   4.750   1.787 -0.5315 -0.8288 -0.7598
 7525SOL    MW429874   1.931   4.813   1.814  0.2672 -0.4063 -0.0854
 7526SOL     OW29875   4.169   4.714   3.640 -0.4016  0.4544  0.2267
 7526SOL    HW229876   4.242   4.715   3.701 -0.3918  1.0208  0.2160
 7526SOL    HW329877   4.116   4.640   3.667 -1.0398  1.4041  1.7055
 7526SOL    MW429878   4.172   4.705   3.651 -0.4845  0.6544  0.4204
 7527SOL     OW29879   0.817   6.192   1.894 -0.1826  0.5159 -0.2556
 7527SOL    HW229880   0.860   6.129   1.836  2.0863  2.1690 -0.4713
 7527SOL    HW329881   0.796   6.266   1.837  0.2031  1.3165  0.6337
 7527SOL    MW429882   0.820   6.193   1.879  0.1676  0.8396 -0.1667
 7528SOL     OW29883   0.174   1.525   2.489 -0.1012  0.1822 -0.1043
 7528SOL    HW229884   0.234   1.490   2.422 -1.1626  0.0258 -0.9938
 7528SOL    HW329885   0.114   1.581   2.440 -0.1781  1.0159  0.9089
 7528SOL    MW429886   0.174   1.528   2.474 -0.2514  0.2716 -0.0880
 7529SOL     OW29887   0.610   4.572   3.936  0.7021  0.0706 -0.0438
 7529SOL    HW229888   0.607   4.642   4.001 -0.4979 -0.4777  0.5242
 7529SOL    HW329889   0.543   4.596   3.872 -0.1111 -0.8216  0.4520
 7529SOL    MW429890   0.601   4.584   3.936  0.4365 -0.1194  0.0966
 7530SOL     OW29891   1.725   3.802   4.123  0.2839 -0.4787  0.1652
 7530SOL    HW229892   1.760   3.795   4.212  0.3133 -0.5426  0.1485
 7530SOL    HW329893   1.801   3.823   4.069  0.0038  1.3082  0.3917
 7530SOL    MW429894   1.740   3.804   4.128  0.2508 -0.2514  0.1929
 7531SOL     OW29895   0.092   4.161   2.088  0.0275 -0.2266 -0.2318
 7531SOL    HW229896   0.015   4.213   2.066  0.4764  0.0736 -1.1040
 7531SOL    HW329897   0.159   4.225   2.111  0.4423 -0.4308 -0.8525
 7531SOL    MW429898   0.090   4.176   2.088  0.1414 -0.2139 -0.4287
 7532SOL     OW29899   4.993   4.179   0.605 -0.7115  0.2196  0.4341
 7532SOL    HW229900   4.969   4.087   0.609  4.1712 -1.2766  2.0046
 7532SOL    HW329901   5.020   4.194   0.515  0.8999 -0.7422  0.7216
 7532SOL    MW429902   4.993   4.169   0.594  0.1453 -0.1047  0.6793
 7533SOL     OW29903   5.148   2.747   1.507 -0.2498  0.0240 -0.3736
 7533SOL    HW229904   5.056   2.756   1.530 -0.5392 -0.0585 -1.4590
 7533SOL    HW329905   5.157   2.657   1.476  0.2995 -0.1057  0.1408
 7533SOL    MW429906   5.137   2.737   1.506 -0.2155 -0.0040 -0.4489
 7534SOL     OW29907   6.030   2.357   3.422  0.4938 -0.5436 -0.0052
 7534SOL    HW229908   6.084   2.431   3.395  0.8398  0.2277  2.5211
 7534SOL    HW329909   6.089   2.302   3.474 -0.5505 -0.8819  0.8658
 7534SOL    MW429910   6.045   2.359   3.426  0.4017 -0.4865  0.4430
 7535SOL     OW29911   1.484   0.236   6.074  0.3618  0.4946 -0.2734
 7535SOL    HW229912   1.425   0.267   6.005  0.1185 -0.4883 -0.5201
 7535SOL    HW329913   1.502   0.145   6.051 -0.7155 -0.2523  1.6364
 7535SOL    MW429914   1.479   0.228   6.062  0.1876  0.2663 -0.0540
 7536SOL     OW29915   0.159   5.347   2.230 -0.1539  1.0492 -0.4566
 7536SOL    HW229916   0.219   5.283   2.192 -2.4850 -1.9383  0.5443
 7536SOL    HW329917   0.132   5.402   2.156  0.3957 -0.3917 -1.7737
 7536SOL    MW429918   0.164   5.346   2.215 -0.3889  0.4650 -0.4983
 7537SOL     OW29919   6.362   5.717   0.343 -0.4325  0.6574  0.2307
 7537SOL    HW229920   6.419   5.681   0.274 -2.0148 -0.7745 -0.3886
 7537SOL    HW329921   6.339   5.642   0.397 -1.4426  1.2704  0.6729
 7537SOL    MW429922   6.367   5.702   0.341 -0.7745  0.5494  0.2073
 7538SOL     OW29923   3.144   2.450   2.930 -0.0437  0.4896 -0.2603
 7538SOL    HW229924   3.207   2.521   2.925  1.5473 -0.8180  0.3367
 7538SOL    HW329925   3.157   2.401   2.848 -0.8359  0.6388 -0.4841
 7538SOL    MW429926   3.154   2.453   2.918  0.0617  0.3368 -0.2111
 7539SOL     OW29927   2.023   1.198   5.641  0.3306 -0.1844  0.2357
 7539SOL    HW229928   2.042   1.291   5.628  0.8015 -0.4471 -1.1831
 7539SOL    HW329929   2.034   1.184   5.735 -1.0725  1.4749  0.7042
 7539SOL    MW429930   2.027   1.208   5.651  0.2076 -0.0001  0.1103
 7540SOL     OW29931   4.882   4.608   1.140  0.3925 -0.5760  0.1619
 7540SOL    HW229932   4.907   4.681   1.197 -0.4255 -0.6195  0.5938
 7540SOL    HW329933   4.895   4.530   1.194 -0.4251 -0.6144  0.3197
 7540SOL    MW429934   4.887   4.608   1.155  0.1767 -0.5868  0.2397
 7541SOL     OW29935   4.751   3.780   3.797 -0.0418  0.1485  0.1620
 7541SOL    HW229936   4.759   3.717   3.868  0.5196 -0.4419 -0.4022
 7541SOL    HW329937   4.660   3.772   3.767 -0.2618  0.3607  0.7660
 7541SOL    MW429938   4.740   3.771   3.802  0.0032  0.0986  0.1673
 7542SOL     OW29939   5.823   2.828   1.182  0.1567 -0.7065  0.2990
 7542SOL    HW229940   5.897   2.884   1.163  0.9931 -1.4532  1.2316
 7542SOL    HW329941   5.840   2.747   1.134 -0.5866 -0.5162 -0.3113
 7542SOL    MW429942   5.835   2.825   1.174  0.1690 -0.7799  0.3415
 7543SOL     OW29943   2.077   1.701   2.695 -0.6015 -0.2358  0.1675
 7543SOL    HW229944   2.118   1.629   2.744 -1.0858 -0.5216  0.1527
 7543SOL    HW329945   2.151   1.754   2.666 -0.3251  0.4067  1.9084
 7543SOL    MW429946   2.093   1.698   2.698 -0.6289 -0.1887  0.3953
 7544SOL     OW29947   1.039   3.007   1.335  0.0667  0.1284 -0.0203
 7544SOL    HW229948   1.084   3.023   1.418  0.3292 -2.3045  0.3842
 7544SOL    HW329949   1.100   2.951   1.286 -0.6936  0.3661 -1.2695
 7544SOL    MW429950   1.053   3.001   1.340  0.0010 -0.1612 -0.1317
 7545SOL     OW29951   1.180   3.396   5.705  0.3063  0.4163  0.4329
 7545SOL    HW229952   1.107   3.341   5.676  0.2985 -0.3258  1.7902
 7545SOL    HW329953   1.249   3.379   5.641 -0.2287  0.0234 -0.0518
 7545SOL    MW429954   1.180   3.386   5.693  0.2347  0.2665  0.5480
 7546SOL     OW29955   0.587   0.640   1.302  1.1230  0.7930  0.3161
 7546SOL    HW229956   0.567   0.571   1.364 -0.2098  1.8635  1.1310
 7546SOL    HW329957   0.675   0.619   1.269 -0.2699 -2.8546 -1.6547
 7546SOL    MW429958   0.596   0.628   1.306  0.7634  0.4530  0.1636
 7547SOL     OW29959   2.419   3.082   6.275 -0.7859  0.1182 -0.2788
 7547SOL    HW229960   2.504   3.100   6.234 -0.6606  0.7927  0.2576
 7547SOL    HW329961   2.387   3.168   6.302 -1.3827 -0.1934  0.0163
 7547SOL    MW429962   2.426   3.095   6.274 -0.8481  0.1661 -0.1690
 7548SOL     OW29963   1.653   1.775   1.245  0.6307  0.4094 -0.3436
 7548SOL    HW229964   1.741   1.808   1.229  1.2362 -0.5386  0.8127
 7548SOL    HW329965   1.617   1.832   1.313  1.5011 -0.9395  1.3173
 7548SOL    MW429966   1.660   1.787   1.252  0.8254  0.1063  0.0281
 7549SOL     OW29967   5.569   5.173   0.954 -0.2487  0.0450 -0.2583
 7549SOL    HW229968   5.500   5.122   0.911  0.7195 -1.3044 -0.2881
 7549SOL    HW329969   5.551   5.163   1.048 -1.2498  1.4027 -0.2747
 7549SOL    MW429970   5.558   5.165   0.961 -0.2530  0.0461 -0.2644
 7550SOL     OW29971   0.264   4.733   4.808 -0.2808 -0.2598 -0.5363
 7550SOL    HW229972   0.236   4.703   4.722  1.7141  0.9395 -1.6859
 7550SOL    HW329973   0.294   4.654   4.853  2.5513 -0.5153 -2.5760
 7550SOL    MW429974   0.265   4.719   4.803  0.3561 -0.1353 -0.9571
 7551SOL     OW29975   4.922   2.021   1.078  0.2386  0.8966 -0.7152
 7551SOL    HW229976   4.994   2.084   1.072  0.1613  0.8885 -2.1911
 7551SOL    HW329977   4.932   1.967   0.999  0.8418 -1.5496  0.9233
 7551SOL    MW429978   4.933   2.022   1.067  0.3080  0.5728 -0.6938
 7552SOL     OW29979   0.522   1.382   4.457  0.9588 -0.1606  0.2052
 7552SOL    HW229980   0.462   1.433   4.511  0.7687 -0.5128  0.3285
 7552SOL    HW329981   0.476   1.300   4.440  0.7306  0.2032 -1.0629
 7552SOL    MW429982   0.508   1.378   4.461  0.9036 -0.1591  0.0542
 7553SOL     OW29983   6.209   1.660   2.114 -0.7965  0.2858 -0.5832
 7553SOL    HW229984   6.124   1.643   2.154 -0.8832  2.0311  0.1104
 7553SOL    HW329985   6.202   1.750   2.082 -0.0724 -0.4318 -2.9085
 7553SOL    MW429986   6.197   1.670   2.115 -0.7124  0.4214 -0.7985
 7554SOL     OW29987   3.633   2.988   4.463  0.1178  0.2144  0.2332
 7554SOL    HW229988   3.693   3.017   4.394  0.3498 -0.8343 -0.0277
 7554SOL    HW329989   3.564   3.054   4.465  0.7686  0.9173 -0.1404
 7554SOL    MW429990   3.632   3.000   4.454  0.2343  0.1688  0.1495
 7555SOL     OW29991   1.778   3.727   4.958  0.2731 -0.3308  0.3114
 7555SOL    HW229992   1.731   3.767   5.031 -1.1898 -1.8347  0.2624
 7555SOL    HW329993   1.817   3.801   4.911 -2.1309  1.0273  0.3138
 7555SOL    MW429994   1.777   3.742   4.962 -0.2371 -0.3500  0.3052
 7556SOL     OW29995   3.729   2.442   5.044 -0.4636 -0.2687 -0.2949
 7556SOL    HW229996   3.741   2.517   4.986 -1.5222  0.1782  0.0392
 7556SOL    HW329997   3.699   2.371   4.986  0.0926 -0.3036 -0.5408
 7556SOL    MW429998   3.726   2.442   5.029 -0.5299 -0.2143 -0.2832
 7557SOL     OW29999   1.298   4.358   5.520  0.0918 -0.7969  0.3434
 7557SOL    HW230000   1.232   4.389   5.458 -0.1561 -1.0200  0.4916
 7557SOL    HW330001   1.266   4.387   5.605  0.8287  0.1951  0.2975
 7557SOL    MW430002   1.285   4.366   5.523  0.1563 -0.6955  0.3569
 7558SOL     OW30003   4.917   2.985   2.169  0.5084  0.0298  0.0543
 7558SOL    HW230004   4.898   3.041   2.244  0.2777  1.2697 -0.8973
 7558SOL    HW330005   4.950   3.045   2.102  1.8949 -1.2088 -0.4357
 7558SOL    MW430006   4.919   3.000   2.170  0.6609  0.0299 -0.1359
 7559SOL     OW30007   3.627   0.192   2.030  0.3360  0.7113 -0.1844
 7559SOL    HW230008   3.646   0.101   2.007 -0.8655  0.7433 -1.3876
 7559SOL    HW330009   3.682   0.209   2.107  0.9625 -0.8586 -0.2506
 7559SOL    MW430010   3.637   0.182   2.037  0.2601  0.5084 -0.3519
 7560SOL     OW30011   3.657   5.868   5.080  0.4436  0.4597  0.2012
 7560SOL    HW230012   3.641   5.940   5.141  0.9785  0.9546 -0.2454
 7560SOL    HW330013   3.581   5.869   5.022  0.4262  0.6208  0.2275
 7560SOL    MW430014   3.645   5.877   5.081  0.5119  0.5462  0.1457
 7561SOL     OW30015   3.897   4.793   1.043 -0.2718  0.3241 -0.0535
 7561SOL    HW230016   3.830   4.816   1.108 -1.5072  1.0946 -1.5458
 7561SOL    HW330017   3.954   4.869   1.039 -0.2740  0.3298  0.0178
 7561SOL    MW430018   3.895   4.806   1.051 -0.4351  0.4265 -0.2410
 7562SOL     OW30019   3.187   5.491   3.575 -0.3905  0.1186  0.2938
 7562SOL    HW230020   3.098   5.465   3.597 -0.0819 -0.9902  0.2556
 7562SOL    HW330021   3.215   5.428   3.509  0.2666  0.7336 -0.0254
 7562SOL    MW430022   3.179   5.480   3.569 -0.2631  0.0534  0.2467
 7563SOL     OW30023   0.285   3.791   1.544 -0.4797 -0.4121  0.5825
 7563SOL    HW230024   0.224   3.720   1.564 -1.1173 -0.6349 -1.8651
 7563SOL    HW330025   0.370   3.747   1.536 -0.9187 -1.0266 -1.2238
 7563SOL    MW430026   0.288   3.775   1.546 -0.6218 -0.5226  0.0212
 7564SOL     OW30027   4.183   5.659   2.466  0.0644  0.1630  0.1782
 7564SOL    HW230028   4.155   5.570   2.485 -1.6988  0.7800  0.6374
 7564SOL    HW330029   4.262   5.648   2.412 -1.0718 -1.6932 -1.2310
 7564SOL    MW430030   4.190   5.646   2.461 -0.3181 -0.0005  0.0528
 7565SOL     OW30031   0.366   4.299   4.414 -0.2268 -0.2757  0.3106
 7565SOL    HW230032   0.412   4.305   4.498 -1.2779 -3.1918  1.2097
 7565SOL    HW330033   0.430   4.261   4.354 -0.3098 -0.7568  0.5275
 7565SOL    MW430034   0.380   4.295   4.417 -0.3765 -0.7240  0.4578
 7566SOL     OW30035   4.942   2.248   6.290  0.5638 -0.3773 -0.1655
 7566SOL    HW230036   4.960   2.325   6.235  0.8133  1.3097  2.1381
 7566SOL    HW330037   4.851   2.261   6.319  0.1553 -1.6781 -0.7851
 7566SOL    MW430038   4.932   2.260   6.286  0.5428 -0.3264  0.0567
 7567SOL     OW30039   4.511   3.000   4.329 -0.7103  0.0295  0.3410
 7567SOL    HW230040   4.592   3.018   4.283 -1.7455 -0.3838 -1.7961
 7567SOL    HW330041   4.534   2.934   4.394  1.0341  1.4513  1.2567
 7567SOL    MW430042   4.524   2.993   4.331 -0.6167  0.1626  0.1799
 7568SOL     OW30043   1.215   2.374   3.346  0.8202  0.2609  0.4277
 7568SOL    HW230044   1.207   2.293   3.397 -0.1732  0.5933  0.8158
 7568SOL    HW330045   1.217   2.345   3.255 -2.3964 -0.0841  0.3699
 7568SOL    MW430046   1.215   2.359   3.341  0.2647  0.2592  0.4713
 7569SOL     OW30047   1.782   2.318   4.811 -0.0536  0.3621 -0.3340
 7569SOL    HW230048   1.870   2.299   4.843 -0.2216  0.4883  0.2082
 7569SOL    HW330049   1.746   2.381   4.873  0.3771  2.2782 -1.9294
 7569SOL    MW430050   1.788   2.324   4.823 -0.0189  0.6315 -0.4729
 7570SOL     OW30051   0.501   3.697   6.103 -0.1089 -0.7100  0.3580
 7570SOL    HW230052   0.581   3.725   6.147 -0.0098  1.7771 -1.2566
 7570SOL    HW330053   0.431   3.729   6.159  0.0235 -0.3157  0.3011
 7570SOL    MW430054   0.502   3.705   6.116 -0.0784 -0.3298  0.1375
 7571SOL     OW30055   6.015   4.762   1.167 -0.4404  0.1013  0.5464
 7571SOL    HW230056   6.002   4.684   1.221 -0.9913  0.9268  1.6468
 7571SOL    HW330057   5.926   4.794   1.150 -0.1903  0.7981  0.5577
 7571SOL    MW430058   6.001   4.756   1.172 -0.4801  0.3021  0.6930
 7572SOL     OW30059   2.993   0.522   3.485  0.1348 -0.1778  0.3423
 7572SOL    HW230060   3.021   0.600   3.438 -1.5598 -0.8392 -1.9839
 7572SOL    HW330061   3.068   0.462   3.480  0.8712  0.6923  0.7476
 7572SOL    MW430062   3.006   0.524   3.478  0.0084 -0.1502  0.0889
 7573SOL     OW30063   2.029   2.627   1.629 -0.2454  0.9438  0.3178
 7573SOL    HW230064   2.039   2.539   1.593 -2.5008  1.1571 -1.0338
 7573SOL    HW330065   1.949   2.661   1.588  0.7410  3.7691  0.5075
 7573SOL    MW430066   2.020   2.620   1.619 -0.4129  1.3447  0.1645
 7574SOL     OW30067   5.230   1.806   4.136  0.8464 -0.3436  0.0042
 7574SOL    HW230068   5.262   1.793   4.225 -0.2601  1.7594  0.7767
 7574SOL    HW330069   5.147   1.758   4.133  1.3312 -1.1937 -0.2283
 7574SOL    MW430070   5.223   1.798   4.147  0.7644 -0.1783  0.0754
 7575SOL     OW30071   1.042   1.120   5.894  0.6957 -0.0195  0.4286
 7575SOL    HW230072   1.000   1.036   5.875  3.7774 -1.7927  0.8021
 7575SOL    HW330073   1.074   1.111   5.984  0.1095  2.0468  0.8874
 7575SOL    MW430074   1.041   1.107   5.903  1.0249  0.0192  0.5384
 7576SOL     OW30075   3.420   6.305   1.572 -0.0182 -0.2139  0.6243
 7576SOL    HW230076   3.503   6.280   1.533 -0.4823 -0.2918 -0.3553
 7576SOL    HW330077   3.439   6.384   1.622  0.4381  0.3896 -0.4719
 7576SOL    MW430078   3.433   6.312   1.573 -0.0192 -0.1446  0.3505
 7577SOL     OW30079   0.504   4.227   6.317  0.1096 -0.1452  0.0878
 7577SOL    HW230080   0.538   4.289   6.252 -2.5157 -1.2388 -2.5249
 7577SOL    HW330081   0.461   4.282   6.382 -0.0117  0.8931 -0.8320
 7577SOL    MW430082   0.503   4.243   6.317 -0.2528 -0.1525 -0.3782
 7578SOL     OW30083   1.788   2.705   1.447 -0.2535 -0.2897  0.2143
 7578SOL    HW230084   1.745   2.624   1.472  0.9981 -1.2481 -0.6250
 7578SOL    HW330085   1.744   2.773   1.499 -1.9258 -1.3591  0.2557
 7578SOL    MW430086   1.777   2.704   1.458 -0.3090 -0.5572  0.1090
 7579SOL     OW30087   2.128   5.830   0.389 -0.2382 -0.1070  0.4670
 7579SOL    HW230088   2.199   5.856   0.331 -1.6466 -0.5558 -1.5958
 7579SOL    HW330089   2.082   5.911   0.409  0.8898  0.2059  1.9354
 7579SOL    MW430090   2.131   5.844   0.384 -0.2752 -0.1249  0.3886
 7580SOL     OW30091   4.570   1.680   5.996  0.2248  0.1988  0.2747
 7580SOL    HW230092   4.547   1.671   5.904  2.5276  2.2131 -0.6125
 7580SOL    HW330093   4.525   1.760   6.024 -1.0736 -0.8006  1.1795
 7580SOL    MW430094   4.561   1.690   5.988  0.3573  0.3327  0.2770
 7581SOL     OW30095   6.194   5.375   5.977  0.2288 -0.2394  0.2906
 7581SOL    HW230096   6.185   5.395   5.883 -0.4785  0.3237  0.4684
 7581SOL    HW330097   6.164   5.285   5.985 -2.2012  0.4896  0.3223
 7581SOL    MW430098   6.189   5.366   5.965 -0.1851 -0.0689  0.3182
 7582SOL     OW30099   3.352   2.197   3.348 -0.5699  0.1459  0.0215
 7582SOL    HW230100   3.288   2.245   3.296  1.4944  1.1245 -1.7523
 7582SOL    HW330101   3.315   2.109   3.357 -2.0018  0.5871 -1.1944
 7582SOL    MW430102   3.339   2.192   3.342 -0.4865  0.3332 -0.3729
 7583SOL     OW30103   0.392   4.086   2.669  0.3184  0.0120  0.3692
 7583SOL    HW230104   0.477   4.067   2.631  0.8032 -0.7937  1.7959
 7583SOL    HW330105   0.329   4.054   2.604  1.1213 -1.5096  0.3023
 7583SOL    MW430106   0.395   4.079   2.656  0.4883 -0.2951  0.5486
 7584SOL     OW30107   1.169   5.403   4.923 -0.2768  0.3218  0.4636
 7584SOL    HW230108   1.108   5.350   4.871 -0.6237  0.0317  1.1630
 7584SOL    HW330109   1.113   5.462   4.974  0.1143  2.0739 -1.0001
 7584SOL    MW430110   1.153   5.404   4.923 -0.2710  0.5147  0.3628
 7585SOL     OW30111   1.245   1.030   3.037  0.2004 -0.7318 -0.4208
 7585SOL    HW230112   1.184   1.069   3.100 -1.4223 -1.5922 -1.3883
 7585SOL    HW330113   1.308   0.983   3.091  0.5766  0.9162  0.6516
 7585SOL    MW430114   1.245   1.029   3.052  0.0359 -0.6279 -0.4070
 7586SOL     OW30115   4.539   1.537   1.502  0.3682 -0.5565 -0.3514
 7586SOL    HW230116   4.558   1.487   1.423  0.0235  0.0680 -0.8422
 7586SOL    HW330117   4.601   1.504   1.567  0.3937 -1.3477 -0.7657
 7586SOL    MW430118   4.550   1.526   1.501  0.3261 -0.5785 -0.4708
 7587SOL     OW30119   3.356   5.065   4.158  0.0972 -0.1666 -0.3378
 7587SOL    HW230120   3.312   5.117   4.091  1.3539 -0.3096 -1.3094
 7587SOL    HW330121   3.433   5.029   4.114  1.3479  0.3001  1.3587
 7587SOL    MW430122   3.360   5.067   4.144  0.4280 -0.1239 -0.2422
 7588SOL     OW30123   2.795   6.317   0.189 -0.5510 -0.0838 -0.6872
 7588SOL    HW230124   2.874   6.277   0.154  0.5569  0.5175  0.9796
 7588SOL    HW330125   2.806   6.411   0.172 -0.4360  0.1080  0.3269
 7588SOL    MW430126   2.807   6.324   0.182 -0.3897  0.0208 -0.3335
 7589SOL     OW30127   4.227   4.203   6.150  0.0235  0.4118 -0.1906
 7589SOL    HW230128   4.228   4.258   6.072  0.1877  0.4190 -0.1835
 7589SOL    HW330129   4.309   4.223   6.195  0.6818 -0.7332 -0.8158
 7589SOL    MW430130   4.238   4.213   6.145  0.1320  0.2617 -0.2722
 7590SOL     OW30131   2.417   1.896   5.374  0.0612 -0.6773  0.6288
 7590SOL    HW230132   2.469   1.974   5.394 -1.2852  0.4105  0.0693
 7590SOL    HW330133   2.441   1.874   5.284  0.5801 -1.0366  0.8498
 7590SOL    MW430134   2.427   1.904   5.364 -0.0480 -0.5812  0.5842
 7591SOL     OW30135   4.783   3.367   1.072  0.3793 -0.2410  0.0916
 7591SOL    HW230136   4.722   3.356   0.998  0.3251 -0.6582  0.1922
 7591SOL    HW330137   4.730   3.347   1.149  0.8735 -1.5373  0.1161
 7591SOL    MW430138   4.768   3.363   1.072  0.4373 -0.4670  0.1081
 7592SOL     OW30139   1.387   5.114   4.353 -0.4642 -0.1774 -0.1878
 7592SOL    HW230140   1.364   5.141   4.442 -0.5571  2.0623 -0.8248
 7592SOL    HW330141   1.478   5.141   4.342 -1.0435  1.4914 -1.3913
 7592SOL    MW430142   1.396   5.121   4.363 -0.5529  0.3383 -0.4306
 7593SOL     OW30143   1.820   0.733   6.276  0.0613 -0.3876 -0.2407
 7593SOL    HW230144   1.769   0.787   6.216  1.7550  1.3138 -0.2477
 7593SOL    HW330145   1.892   0.790   6.304 -0.0895 -1.4622  2.6118
 7593SOL    MW430146   1.823   0.748   6.272  0.2649 -0.3049  0.1347
 7594SOL     OW30147   3.022   3.834   5.165 -0.6611 -0.1853 -0.5757
 7594SOL    HW230148   3.087   3.840   5.235  0.9111  1.3024 -2.0588
 7594SOL    HW330149   3.046   3.904   5.104 -3.1017 -0.2117 -1.6825
 7594SOL    MW430150   3.034   3.844   5.166 -0.7757  0.0075 -0.9174
 7595SOL     OW30151   5.787   5.299   4.153  0.1100 -0.6713 -0.2031
 7595SOL    HW230152   5.703   5.273   4.190 -0.2419  2.2607  1.3917
 7595SOL    HW330153   5.767   5.378   4.102  1.8282 -0.1167 -0.0795
 7595SOL    MW430154   5.773   5.306   4.151  0.2903 -0.2113  0.0237
 7596SOL     OW30155   1.665   3.721   5.590 -0.4661 -0.5529 -0.1398
 7596SOL    HW230156   1.622   3.711   5.506 -1.8280 -0.3523  0.5107
 7596SOL    HW330157   1.615   3.664   5.650  0.8760 -1.2103  0.4071
 7596SOL    MW430158   1.653   3.712   5.587 -0.4687 -0.6131  0.0182
 7597SOL     OW30159   2.217   1.517   2.845 -0.0265 -0.2391  0.4791
 7597SOL    HW230160   2.161   1.463   2.901  1.6936 -1.9379  0.6826
 7597SOL    HW330161   2.272   1.454   2.799 -0.1389  1.2249 -1.7784
 7597SOL    MW430162   2.217   1.502   2.847  0.1856 -0.2701  0.2081
 7598SOL     OW30163   3.819   1.701   2.280 -0.4058 -0.6275 -0.4035
 7598SOL    HW230164   3.872   1.776   2.308 -2.0477  0.3833  0.1509
 7598SOL    HW330165   3.800   1.717   2.188  1.9766 -2.1122 -1.2512
 7598SOL    MW430166   3.823   1.713   2.272 -0.3081 -0.6900 -0.4422
 7599SOL     OW30167   1.320   2.021   3.980 -0.1629  0.3153 -0.0359
 7599SOL    HW230168   1.227   2.043   3.983 -0.2581  1.3059 -4.4329
 7599SOL    HW330169   1.365   2.106   3.979  0.4579  0.0088 -2.0486
 7599SOL    MW430170   1.314   2.035   3.980 -0.0935  0.4055 -0.8816
 7600SOL     OW30171   0.720   4.822   5.951  0.1915  0.6068  0.4518
 7600SOL    HW230172   0.751   4.784   6.033 -1.2188  0.3583  0.8934
 7600SOL    HW330173   0.715   4.916   5.968  1.8653  0.8154 -0.0347
 7600SOL    MW430174   0.724   4.829   5.964  0.2262  0.6016  0.4459
 7601SOL     OW30175   4.001   5.610   0.681 -0.7017  0.4096  0.2121
 7601SOL    HW230176   3.993   5.672   0.753 -0.8493  0.4619  0.1526
 7601SOL    HW330177   4.026   5.528   0.722 -0.3523  0.5449  0.2750
 7601SOL    MW430178   4.003   5.608   0.696 -0.6751  0.4343  0.2125
 7602SOL     OW30179   0.586   5.239   0.160 -0.2637 -0.4781 -0.5549
 7602SOL    HW230180   0.645   5.310   0.136 -0.0276 -0.4518  0.0975
 7602SOL    HW330181   0.500   5.268   0.129 -0.0370 -0.2621 -0.9870
 7602SOL    MW430182   0.582   5.252   0.153 -0.2026 -0.4461 -0.5258
 7603SOL     OW30183   5.254   3.737   0.067 -0.3020  0.6742 -0.0511
 7603SOL    HW230184   5.235   3.759  -0.024  0.1687 -0.1508 -0.3550
 7603SOL    HW330185   5.175   3.693   0.098 -0.0366 -0.0783 -0.4170
 7603SOL    MW430186   5.241   3.734   0.059 -0.2049  0.4660 -0.1395
 7604SOL     OW30187   4.425   5.961   0.103 -0.3041  0.2620 -0.3701
 7604SOL    HW230188   4.508   5.914   0.113 -0.3819  0.3455  0.8095
 7604SOL    HW330189   4.377   5.911   0.038  0.7131  0.2796 -1.1714
 7604SOL    MW430190   4.430   5.948   0.096 -0.1801  0.2753 -0.3202
 7605SOL     OW30191   2.617   1.422   6.338 -0.0645  0.7904 -0.0388
 7605SOL    HW230192   2.592   1.447   6.427  1.4228  2.0982  0.0688
 7605SOL    HW330193   2.535   1.416   6.291 -0.7518  2.6670  0.8114
 7605SOL    MW430194   2.603   1.425   6.344  0.0411  1.2106  0.0876
 7606SOL     OW30195   2.505   4.852   5.295  0.4955  0.3301  0.4516
 7606SOL    HW230196   2.571   4.855   5.225  2.0187 -1.4347  1.7023
 7606SOL    HW330197   2.496   4.758   5.314  1.5468  0.7806  3.8237
 7606SOL    MW430198   2.513   4.840   5.288  0.8352  0.1567  1.0615
 7607SOL     OW30199   3.470   3.723   2.318  0.0065 -0.1329  0.1069
 7607SOL    HW230200   3.488   3.793   2.381  1.8983  2.1484 -2.7100
 7607SOL    HW330201   3.509   3.645   2.357  2.4278  1.4760  1.1372
 7607SOL    MW430202   3.477   3.722   2.332  0.5756  0.3804 -0.1288
 7608SOL     OW30203   1.570   0.409   1.097  0.2468 -0.7375  0.0227
 7608SOL    HW230204   1.615   0.325   1.093  0.1986 -0.9570  2.4870
 7608SOL    HW330205   1.572   0.432   1.190  0.6858  2.2352 -0.6300
 7608SOL    MW430206   1.576   0.401   1.109  0.2983 -0.3743  0.2617
 7609SOL     OW30207   6.027   0.742   2.525  0.3091  0.3479 -0.1769
 7609SOL    HW230208   6.014   0.828   2.566 -1.7907 -0.1556  0.3228
 7609SOL    HW330209   6.037   0.682   2.599  0.7301  0.0120 -0.5059
 7609SOL    MW430210   6.026   0.746   2.540  0.0876  0.2372 -0.1544
 7610SOL     OW30211   5.199   4.415   0.568 -0.0680  0.3975 -0.1280
 7610SOL    HW230212   5.213   4.323   0.592 -2.1842 -0.0515 -0.4434
 7610SOL    HW330213   5.109   4.433   0.594 -0.5908  1.5597 -2.5208
 7610SOL    MW430214   5.189   4.405   0.575 -0.4162  0.4916 -0.4853
 7611SOL     OW30215   5.481   6.345   4.939  0.2640 -0.6172 -0.8615
 7611SOL    HW230216   5.515   6.256   4.948 -0.6682 -0.9976 -1.0319
 7611SOL    HW330217   5.437   6.363   5.022 -1.1978 -1.0396 -1.5229
 7611SOL    MW430218   5.480   6.336   4.951 -0.0519 -0.7231 -0.9712
 7612SOL     OW30219   0.188   1.313   1.579 -0.4017 -0.5534 -0.5860
 7612SOL    HW230220   0.203   1.312   1.484 -0.4582 -1.0907 -0.5932
 7612SOL    HW330221   0.201   1.222   1.606 -1.7421 -0.6814 -0.2971
 7612SOL    MW430222   0.192   1.301   1.570 -0.5860 -0.6412 -0.5488
 7613SOL     OW30223   4.844   4.415   5.765 -0.0719 -0.5545  0.3233
 7613SOL    HW230224   4.913   4.479   5.747 -0.4529  0.3562  1.9419
 7613SOL    HW330225   4.763   4.459   5.742 -0.2257 -1.1244 -0.2580
 7613SOL    MW430226   4.843   4.429   5.759 -0.1424 -0.5095  0.4602
 7614SOL     OW30227   4.011   3.382   3.293 -0.2699 -0.7017  0.2077
 7614SOL    HW230228   4.091   3.411   3.338 -1.0806 -0.6787  1.7315
 7614SOL    HW330229   3.945   3.448   3.318 -1.4815 -2.3136  1.4986
 7614SOL    MW430230   4.012   3.395   3.303 -0.5367 -0.9114  0.5790
 7615SOL     OW30231   5.050   2.832   0.118 -0.2220  0.3980  0.4081
 7615SOL    HW230232   5.142   2.817   0.096 -0.4873 -2.4414  0.8911
 7615SOL    HW330233   5.024   2.904   0.060  1.7225 -0.1723 -1.3313
 7615SOL    MW430234   5.059   2.840   0.107 -0.0005 -0.0519  0.2424
 7616SOL     OW30235   3.652   4.129   5.510  0.0678 -0.5158 -0.1902
 7616SOL    HW230236   3.640   4.207   5.455  0.5987  1.1164  1.8957
 7616SOL    HW330237   3.567   4.085   5.509 -1.0376  1.4731  0.5838
 7616SOL    MW430238   3.640   4.134   5.502 -0.0080 -0.0380  0.1871
 7617SOL     OW30239   6.100   3.032   4.351 -0.0409 -0.2048  0.3325
 7617SOL    HW230240   6.052   3.031   4.268 -0.2685 -1.3680  0.4593
 7617SOL    HW330241   6.131   3.122   4.360  0.4584 -0.1905 -1.2888
 7617SOL    MW430242   6.098   3.043   4.341 -0.0050 -0.3564  0.1354
 7618SOL     OW30243   6.049   5.379   0.236 -0.1521  0.2177  0.0572
 7618SOL    HW230244   5.973   5.395   0.180  0.4978  1.6603 -0.4608
 7618SOL    HW330245   6.098   5.462   0.235  0.8694 -0.3308  1.2432
 7618SOL    MW430246   6.046   5.392   0.229  0.0684  0.3357  0.1454
 7619SOL     OW30247   2.208   5.004   1.203 -0.2858  0.1150 -0.4091
 7619SOL    HW230248   2.194   4.944   1.130  1.7868  0.0337 -0.8063
 7619SOL    HW330249   2.212   5.091   1.163  1.5632  0.0042 -0.5439
 7619SOL    MW430250   2.207   5.008   1.188  0.2316  0.0896 -0.4793
 7620SOL     OW30251   3.619   3.537   1.048 -0.0529  0.3335  0.5872
 7620SOL    HW230252   3.524   3.532   1.059 -0.3690  2.3415 -0.7261
 7620SOL    HW330253   3.633   3.610   0.988  2.4244  1.0094  1.8467
 7620SOL    MW430254   3.609   3.546   1.042  0.2322  0.6876  0.5801
 7621SOL     OW30255   5.639   3.889   1.372 -0.9315 -0.1759  0.0255
 7621SOL    HW230256   5.593   3.894   1.456 -1.1946  1.8100 -0.1926
 7621SOL    HW330257   5.571   3.903   1.306 -0.7133 -1.6305 -0.5358
 7621SOL    MW430258   5.624   3.892   1.374 -0.9374 -0.1058 -0.0773
 7622SOL     OW30259   5.912   0.007   6.177  0.0614 -0.2199  0.1057
 7622SOL    HW230260   5.845  -0.036   6.122 -0.3282  0.7428 -0.1980
 7622SOL    HW330261   5.871   0.089   6.204  1.8937  1.5345 -1.9804
 7622SOL    MW430262   5.898   0.012   6.173  0.2518  0.1386 -0.2096
 7623SOL     OW30263   4.669   2.800   0.217 -1.1535  0.7497 -0.0103
 7623SOL    HW230264   4.656   2.895   0.209 -0.4111  1.2128  2.9108
 7623SOL    HW330265   4.755   2.791   0.257 -1.4684 -1.1356  0.3394
 7623SOL    MW430266   4.679   2.812   0.221 -1.0971  0.5620  0.4212
 7624SOL     OW30267   2.097   4.593   1.272 -0.2843  0.2217  0.1029
 7624SOL    HW230268   2.043   4.637   1.339 -1.8415  0.5088 -1.2742
 7624SOL    HW330269   2.051   4.512   1.253  0.8587 -0.4937  0.3024
 7624SOL    MW430270   2.084   4.588   1.279 -0.3389  0.1652 -0.0525
 7625SOL     OW30271   1.868   3.177   1.581 -0.5642 -0.2448  0.3831
 7625SOL    HW230272   1.943   3.148   1.530 -0.1489  1.8241 -0.2781
 7625SOL    HW330273   1.792   3.146   1.532 -0.1562  0.8691 -0.9927
 7625SOL    MW430274   1.867   3.169   1.568 -0.4556  0.1751  0.1143
 7626SOL     OW30275   5.646   0.594   6.211  0.2654 -0.3525 -0.6643
 7626SOL    HW230276   5.703   0.622   6.282 -1.3725  1.6928 -0.0790
 7626SOL    HW330277   5.682   0.510   6.183  2.2385 -0.1595  1.1080
 7626SOL    MW430278   5.658   0.586   6.217  0.3096 -0.0572 -0.3532
 7627SOL     OW30279   4.266   2.617   3.784 -0.4085 -0.5445  0.3860
 7627SOL    HW230280   4.233   2.562   3.713 -0.1541 -0.5565  0.2739
 7627SOL    HW330281   4.340   2.567   3.820  0.2778  0.0372 -0.1767
 7627SOL    MW430282   4.272   2.603   3.779 -0.2844 -0.4693  0.2969
 7628SOL     OW30283   3.741   1.584   2.741 -0.1336 -0.3802  0.0770
 7628SOL    HW230284   3.674   1.653   2.750 -0.3543 -0.6129  0.2185
 7628SOL    HW330285   3.824   1.631   2.746 -0.2514  0.1843 -1.9805
 7628SOL    MW430286   3.743   1.600   2.742 -0.1783 -0.3365 -0.1758
 7629SOL     OW30287   2.177   3.978   0.178  0.4540  0.1464  0.5997
 7629SOL    HW230288   2.183   3.883   0.168  1.6157  0.4124 -1.6241
 7629SOL    HW330289   2.129   3.989   0.261 -2.1658 -2.3655 -0.3801
 7629SOL    MW430290   2.171   3.967   0.188  0.2616 -0.1499  0.1770
 7630SOL     OW30291   2.085   0.946   3.731  0.2785 -0.1020 -0.1394
 7630SOL    HW230292   2.033   0.948   3.811  0.1847  1.7272 -0.1923
 7630SOL    HW330293   2.174   0.926   3.761 -0.3871 -3.5129 -0.0784
 7630SOL    MW430294   2.090   0.944   3.745  0.1783 -0.3107 -0.1383
 7631SOL     OW30295   3.639   0.398   2.714  0.7246 -0.2285  0.8400
 7631SOL    HW230296   3.569   0.337   2.690  0.4553  0.1002  0.7863
 7631SOL    HW330297   3.690   0.351   2.780 -0.5205  0.1620  2.1276
 7631SOL    MW430298   3.637   0.384   2.719  0.5248 -0.1336  1.0028
 7632SOL     OW30299   2.788   4.258   2.506 -0.6110 -0.1435 -0.0156
 7632SOL    HW230300   2.815   4.179   2.459 -2.2234  0.5154 -2.1659
 7632SOL    HW330301   2.711   4.231   2.555 -2.1458  0.3891 -2.0139
 7632SOL    MW430302   2.782   4.244   2.507 -1.0262  0.0137 -0.5630
 7633SOL     OW30303   2.042   5.546   2.933 -0.6580  0.2861  0.0084
 7633SOL    HW230304   2.008   5.468   2.976 -0.8323  0.2306 -0.2349
 7633SOL    HW330305   2.047   5.524   2.841 -0.1193  0.3516  0.0156
 7633SOL    MW430306   2.038   5.533   2.927 -0.6099  0.2874 -0.0227
 7634SOL     OW30307   3.577   5.863   0.371  0.0238 -0.5029 -0.8858
 7634SOL    HW230308   3.626   5.881   0.452 -0.8299 -2.3821  0.1094
 7634SOL    HW330309   3.522   5.940   0.359  0.1323 -0.1961  0.3714
 7634SOL    MW430310   3.577   5.876   0.380 -0.0745 -0.7103 -0.5886
 7635SOL     OW30311   1.235   1.835   3.209 -0.2716 -0.5982  0.0845
 7635SOL    HW230312   1.177   1.872   3.275 -0.4304  1.2374 -1.0386
 7635SOL    HW330313   1.196   1.750   3.188 -3.0623  0.8963 -1.2033
 7635SOL    MW430314   1.222   1.828   3.215 -0.6608 -0.1588 -0.2336
 7636SOL     OW30315   3.292   6.103   2.598  0.1329  0.3002 -0.4178
 7636SOL    HW230316   3.293   6.197   2.617  2.6757 -0.2962  3.6514
 7636SOL    HW330317   3.211   6.071   2.639 -0.9211  0.6605 -2.1205
 7636SOL    MW430318   3.281   6.111   2.606  0.3293  0.2690 -0.1056
 7637SOL     OW30319   6.037   1.539   1.455 -0.3794 -0.0325 -0.4145
 7637SOL    HW230320   6.098   1.598   1.411 -1.6631 -0.2679 -2.6760
 7637SOL    HW330321   5.989   1.596   1.517  0.0037  0.7965 -0.8630
 7637SOL    MW430322   6.039   1.555   1.457 -0.4982  0.0458 -0.7721
 7638SOL     OW30323   4.917   4.397   6.220  0.0961 -0.0184  0.0297
 7638SOL    HW230324   4.833   4.441   6.230  0.1733  0.1630 -0.1010
 7638SOL    HW330325   4.911   4.353   6.134  0.0618 -0.1701  0.1084
 7638SOL    MW430326   4.905   4.397   6.210  0.1018 -0.0145  0.0228
 7639SOL     OW30327   4.449   2.272   1.464  0.1887  0.2990 -0.0834
 7639SOL    HW230328   4.503   2.194   1.458  0.4076  0.4102  0.4007
 7639SOL    HW330329   4.510   2.345   1.451  0.1143  0.4167  0.2161
 7639SOL    MW430330   4.464   2.272   1.462  0.2078  0.3292  0.0200
 7640SOL     OW30331   3.389   3.893   1.037 -0.7063 -0.2294 -0.0939
 7640SOL    HW230332   3.378   3.987   1.032  0.4486 -0.0433  0.5868
 7640SOL    HW330333   3.477   3.880   1.070 -1.8572 -1.4986  2.8100
 7640SOL    MW430334   3.399   3.903   1.041 -0.7058 -0.3723  0.3790
 7641SOL     OW30335   1.905   1.748   0.602 -0.1651 -0.2445  0.1663
 7641SOL    HW230336   1.974   1.771   0.665  0.4500 -0.5353 -0.3931
 7641SOL    HW330337   1.845   1.694   0.653 -0.3694  0.6018  0.8540
 7641SOL    MW430338   1.907   1.744   0.617 -0.1109 -0.1712  0.1832
 7642SOL     OW30339   4.059   2.468   3.254  1.1499 -0.6376  0.2427
 7642SOL    HW230340   4.047   2.520   3.333 -0.2885 -0.9713  0.2749
 7642SOL    HW330341   4.152   2.476   3.233  0.8812  2.5796 -0.2127
 7642SOL    MW430342   4.070   2.476   3.261  0.9247 -0.2571  0.1869
 7643SOL     OW30343   5.569   4.832   3.820 -0.0741 -0.1140  0.4042
 7643SOL    HW230344   5.478   4.823   3.850 -0.3230  0.9645  0.0028
 7643SOL    HW330345   5.616   4.764   3.868 -1.0085 -0.3792  0.9769
 7643SOL    MW430346   5.563   4.821   3.831 -0.2302 -0.0067  0.4268
 7644SOL     OW30347   2.775   6.072   3.391 -0.2212 -0.1328 -0.4277
 7644SOL    HW230348   2.771   5.995   3.448  0.3495 -0.4158 -0.7543
 7644SOL    HW330349   2.798   6.144   3.450  0.1165 -0.3774 -0.2558
 7644SOL    MW430350   2.778   6.071   3.406 -0.1014 -0.2024 -0.4481
 7645SOL     OW30351   5.294   0.624   3.566  0.2355 -0.0898  0.0500
 7645SOL    HW230352   5.309   0.541   3.520  0.1341 -1.0461  1.6533
 7645SOL    HW330353   5.208   0.653   3.535  0.3251 -0.5008 -0.6156
 7645SOL    MW430354   5.284   0.617   3.556  0.2339 -0.2702  0.1737
 7646SOL     OW30355   5.326   2.118   1.271  0.2036  0.2013 -0.1009
 7646SOL    HW230356   5.313   2.038   1.220  0.1062  0.0907  0.0928
 7646SOL    HW330357   5.271   2.105   1.349  1.2943 -0.1798  0.6281
 7646SOL    MW430358   5.317   2.105   1.275  0.3347  0.1364  0.0209
 7647SOL     OW30359   3.397   1.286   5.185 -0.3105  0.2471 -0.0629
 7647SOL    HW230360   3.440   1.371   5.196 -1.4098  0.6973  0.9089
 7647SOL    HW330361   3.346   1.296   5.104 -0.4522  0.5166  0.0580
 7647SOL    MW430362   3.396   1.299   5.176 -0.4742  0.3421  0.0813
 7648SOL     OW30363   3.199   3.050   4.692  0.4110 -0.2397  0.1180
 7648SOL    HW230364   3.175   3.071   4.782  1.6372 -1.2968  0.7272
 7648SOL    HW330365   3.269   3.113   4.671 -0.1668  0.2893 -0.2707
 7648SOL    MW430366   3.205   3.061   4.701  0.4966 -0.3094  0.1471
 7649SOL     OW30367   4.326   2.612   3.430 -0.2007 -0.0061 -0.1434
 7649SOL    HW230368   4.344   2.662   3.351 -1.8821 -0.7252 -1.0248
 7649SOL    HW330369   4.365   2.526   3.413  0.1828  0.0990  0.1827
 7649SOL    MW430370   4.333   2.607   3.418 -0.3720 -0.0871 -0.2166
 7650SOL     OW30371   4.919   4.683   4.896  0.0905  0.3790  0.1222
 7650SOL    HW230372   4.870   4.614   4.940  1.0897 -0.3523  0.1291
 7650SOL    HW330373   4.884   4.684   4.807  1.0705 -1.2079 -0.3320
 7650SOL    MW430374   4.908   4.674   4.890  0.3516  0.0731  0.0632
 7651SOL     OW30375   2.946   5.417   3.900 -0.1306 -0.0987  0.1086
 7651SOL    HW230376   3.028   5.433   3.947  0.4717  0.6280 -1.1608
 7651SOL    HW330377   2.883   5.398   3.970  0.8110  0.6183  1.2038
 7651SOL    MW430378   2.949   5.417   3.916  0.0731  0.0918  0.0856
 7652SOL     OW30379   4.440   1.181   4.490 -0.1090 -0.1240 -0.2803
 7652SOL    HW230380   4.366   1.223   4.445 -1.2761 -1.8690 -0.1022
 7652SOL    HW330381   4.489   1.138   4.420  0.3186  0.3909 -0.3056
 7652SOL    MW430382   4.437   1.181   4.475 -0.2066 -0.2863 -0.2601
 7653SOL     OW30383   5.900   3.348   1.545 -0.1210 -0.1673 -0.5731
 7653SOL    HW230384   5.942   3.286   1.604 -0.5119  1.0963  1.0945
 7653SOL    HW330385   5.846   3.293   1.488  0.9613 -1.4920 -0.3966
 7653SOL    MW430386   5.899   3.332   1.545 -0.0297 -0.1753 -0.3298
 7654SOL     OW30387   1.371   5.137   4.633 -0.3609  0.1727 -0.5095
 7654SOL    HW230388   1.355   5.097   4.718  1.2675 -1.4542 -0.9066
 7654SOL    HW330389   1.341   5.227   4.643  0.3874  0.2247  1.9936
 7654SOL    MW430390   1.365   5.144   4.645 -0.0474 -0.0351 -0.2316
 7655SOL     OW30391   2.188   2.694   3.604  0.5172 -0.2897  0.1681
 7655SOL    HW230392   2.175   2.599   3.597  0.5697 -0.2842  0.0164
 7655SOL    HW330393   2.282   2.706   3.595  0.2356  0.1395 -3.9085
 7655SOL    MW430394   2.199   2.683   3.602  0.4869 -0.2324 -0.3897
 7656SOL     OW30395   2.216   3.510   2.832  0.0932 -0.2962 -0.3746
 7656SOL    HW230396   2.186   3.441   2.891 -2.1171  0.2224 -0.8063
 7656SOL    HW330397   2.242   3.582   2.890  1.3037 -1.0509  0.0375
 7656SOL    MW430398   2.215   3.511   2.847 -0.0387 -0.3273 -0.3772
 7657SOL     OW30399   2.899   0.309   4.409 -0.5731 -0.4076  0.4816
 7657SOL    HW230400   2.946   0.231   4.380 -0.6693  0.1223 -1.2120
 7657SOL    HW330401   2.929   0.378   4.350 -0.6119  0.8296  1.8396
 7657SOL    MW430402   2.909   0.308   4.397 -0.5909 -0.1744  0.4373
 7658SOL     OW30403   5.947   2.768   2.372  0.4798 -0.1030 -0.2200
 7658SOL    HW230404   5.938   2.860   2.393 -1.6174 -0.2923 -0.0854
 7658SOL    HW330405   5.916   2.722   2.450  1.3768 -0.9290 -0.3322
 7658SOL    MW430406   5.941   2.774   2.385  0.3214 -0.2369 -0.2170
 7659SOL     OW30407   5.728   3.950   1.840 -0.1444 -0.2557 -0.4810
 7659SOL    HW230408   5.666   3.949   1.768  0.3790 -1.4678 -0.9304
 7659SOL    HW330409   5.714   3.867   1.886  0.4857 -0.1270 -0.0319
 7659SOL    MW430410   5.718   3.939   1.837  0.0078 -0.3987 -0.4810
 7660SOL     OW30411   0.511   1.044   0.839  0.2005 -0.3715  0.8496
 7660SOL    HW230412   0.591   1.029   0.890  0.3566  1.3270  1.1492
 7660SOL    HW330413   0.459   0.965   0.854  1.0991 -0.7853  2.0279
 7660SOL    MW430414   0.515   1.031   0.848  0.3396 -0.2020  1.0446
 7661SOL     OW30415   4.688   3.654   2.574  0.2290 -0.3943  0.2033
 7661SOL    HW230416   4.680   3.702   2.656 -0.2116 -2.1713  1.2524
 7661SOL    HW330417   4.627   3.582   2.582 -1.5410  0.6135 -2.6679
 7661SOL    MW430418   4.679   3.651   2.586 -0.0627 -0.4958 -0.0371
 7662SOL     OW30419   4.507   5.486   4.801 -0.2545 -0.2175 -0.5500
 7662SOL    HW230420   4.415   5.476   4.825 -0.3308  1.9361  0.2830
 7662SOL    HW330421   4.511   5.570   4.755  1.5425  0.6181  1.0171
 7662SOL    MW430422   4.495   5.496   4.798 -0.0275  0.1769 -0.2333
 7663SOL     OW30423   1.278   1.277   0.631  0.1832 -0.3125  0.3570
 7663SOL    HW230424   1.245   1.193   0.662  0.0600  0.0755  1.2976
 7663SOL    HW330425   1.370   1.260   0.609  0.3147 -0.5658  1.0833
 7663SOL    MW430426   1.286   1.264   0.632  0.1843 -0.2947  0.5769
 7664SOL     OW30427   6.381   1.338   1.201 -0.2118  0.1662  0.0214
 7664SOL    HW230428   6.405   1.246   1.194 -1.0046 -0.1952  1.6669
 7664SOL    HW330429   6.348   1.348   1.290  1.7968  2.5321  0.6000
 7664SOL    MW430430   6.380   1.327   1.212 -0.0514  0.4307  0.3149
 7665SOL     OW30431   2.084   5.764   4.137  0.1266  0.0083  0.1899
 7665SOL    HW230432   2.145   5.771   4.210  1.1417 -0.0873 -0.6382
 7665SOL    HW330433   2.092   5.674   4.107  0.0216  0.1614 -0.3098
 7665SOL    MW430434   2.093   5.753   4.142  0.2467  0.0159  0.0147
 7666SOL     OW30435   5.823   4.738   5.765 -0.1070 -0.4408  0.3745
 7666SOL    HW230436   5.870   4.656   5.782  1.2806 -0.0166 -1.1573
 7666SOL    HW330437   5.798   4.733   5.673 -0.5474  0.5880  0.4270
 7666SOL    MW430438   5.826   4.726   5.755  0.0180 -0.2491  0.1793
 7667SOL     OW30439   6.128   3.294   0.665  0.2382 -0.1739  0.1996
 7667SOL    HW230440   6.192   3.278   0.596  1.7727  1.2434  1.2237
 7667SOL    HW330441   6.154   3.234   0.736  0.6337  0.6006  0.7227
 7667SOL    MW430442   6.140   3.284   0.665  0.4929  0.1153  0.4037
 7668SOL     OW30443   4.489   1.806   1.466  0.4739 -0.1531  0.3027
 7668SOL    HW230444   4.515   1.719   1.496  0.4882  0.2574  1.5195
 7668SOL    HW330445   4.418   1.789   1.404  2.1863 -1.1771 -1.5146
 7668SOL    MW430446   4.483   1.792   1.461  0.7017 -0.2341  0.2235
 7669SOL     OW30447   5.610   2.946   1.056  0.1895  0.2837 -0.5241
 7669SOL    HW230448   5.543   2.944   1.125  0.4781  4.0080  0.0644
 7669SOL    HW330449   5.684   2.898   1.093 -0.4948  0.1773  0.7795
 7669SOL    MW430450   5.611   2.939   1.070  0.1373  0.7610 -0.2745
 7670SOL     OW30451   1.000   4.631   2.277 -0.2162  0.1935  0.4055
 7670SOL    HW230452   0.994   4.726   2.270  0.8339  0.2603  0.2970
 7670SOL    HW330453   0.944   4.609   2.352  0.5846  1.0402  1.2773
 7670SOL    MW430454   0.992   4.641   2.286  0.0280  0.3140  0.5062
 7671SOL     OW30455   0.954   2.325   2.268  0.0251  0.0210 -0.3130
 7671SOL    HW230456   1.028   2.317   2.328  0.4820  3.0192 -0.3025
 7671SOL    HW330457   0.878   2.301   2.321  0.8061 -1.9135  0.0246
 7671SOL    MW430458   0.953   2.321   2.283  0.1884  0.1613 -0.2671
 7672SOL     OW30459   3.567   4.245   5.751 -0.1196 -0.3077 -0.2698
 7672SOL    HW230460   3.636   4.290   5.800 -0.2524 -0.2680 -0.1195
 7672SOL    HW330461   3.604   4.234   5.663  0.1536 -0.4582 -0.1374
 7672SOL    MW430462   3.581   4.250   5.746 -0.1011 -0.3223 -0.2325
 7673SOL     OW30463   3.970   2.968   2.749  0.7544 -0.1527 -0.1192
 7673SOL    HW230464   4.060   2.949   2.722  1.0443 -0.0930  0.7855
 7673SOL    HW330465   3.976   3.052   2.796  0.3006 -0.3572  0.3098
 7673SOL    MW430466   3.983   2.977   2.752  0.7328 -0.1718  0.0568
 7674SOL     OW30467   1.644   2.790   5.308 -0.0285 -0.1589  0.1350
 7674SOL    HW230468   1.716   2.847   5.336 -0.2442  0.5824 -0.7814
 7674SOL    HW330469   1.678   2.701   5.320  0.9876  0.1796 -0.1583
 7674SOL    MW430470   1.658   2.786   5.314  0.0771 -0.0164 -0.0246
 7675SOL     OW30471   4.490   1.238   5.256  0.0717 -0.1058  0.1693
 7675SOL    HW230472   4.405   1.274   5.281  0.6754  1.1238  0.4955
 7675SOL    HW330473   4.528   1.208   5.338 -0.0849 -0.7796  0.0048
 7675SOL    MW430474   4.483   1.238   5.270  0.1307 -0.0325  0.1906
 7676SOL     OW30475   1.607   0.206   4.625 -0.5032  0.0246  0.1087
 7676SOL    HW230476   1.521   0.186   4.664 -0.7060  0.2238 -0.2295
 7676SOL    HW330477   1.666   0.141   4.663 -0.9506 -0.5706 -0.1970
 7676SOL    MW430478   1.603   0.195   4.635 -0.5890 -0.0277  0.0238
 7677SOL     OW30479   2.192   5.303   4.598 -0.5797  0.1144  0.0524
 7677SOL    HW230480   2.133   5.369   4.561  1.8850  0.7906 -3.1939
 7677SOL    HW330481   2.246   5.353   4.660 -0.5255  0.5468 -0.3317
 7677SOL    MW430482   2.192   5.319   4.602 -0.2474  0.2607 -0.4266
 7678SOL     OW30483   0.577   2.679   4.197  0.5880  0.1803  0.0167
 7678SOL    HW230484   0.491   2.686   4.156 -1.0771  1.4574  3.3509
 7678SOL    HW330485   0.620   2.762   4.176  0.9622 -0.3509 -1.4371
 7678SOL    MW430486   0.571   2.691   4.189  0.4177  0.2787  0.2648
 7679SOL     OW30487   0.734   2.553   0.234  0.1464 -0.3283  0.0832
 7679SOL    HW230488   0.709   2.461   0.227  2.2499 -0.9621  0.3155
 7679SOL    HW330489   0.689   2.583   0.313 -0.0202 -1.3405  0.3896
 7679SOL    MW430490   0.725   2.545   0.244  0.4019 -0.5454  0.1543
 7680SOL     OW30491   3.750   1.570   3.646 -0.3344  0.4336 -0.1959
 7680SOL    HW230492   3.773   1.655   3.683 -0.7019  0.2369  0.5140
 7680SOL    HW330493   3.696   1.529   3.714  2.5729 -1.7677  0.9715
 7680SOL    MW430494   3.746   1.576   3.660  0.0007  0.1172  0.0518
 7681SOL     OW30495   2.350   4.254   5.311  0.6368 -0.5928 -0.0717
 7681SOL    HW230496   2.305   4.190   5.255  0.9043 -0.8615  0.0158
 7681SOL    HW330497   2.286   4.323   5.324  0.5817 -0.5008 -0.7540
 7681SOL    MW430498   2.336   4.255   5.305  0.6648 -0.6161 -0.1502
 7682SOL     OW30499   0.917   0.880   5.799  0.3826  1.0033  0.1828
 7682SOL    HW230500   0.993   0.837   5.760 -0.5182 -0.2018 -0.3352
 7682SOL    HW330501   0.899   0.829   5.878 -0.1298  1.0044  0.0726
 7682SOL    MW430502   0.925   0.867   5.804  0.1961  0.8445  0.1000
 7683SOL     OW30503   1.071   5.389   1.687 -0.0910 -0.3508 -0.4745
 7683SOL    HW230504   1.020   5.408   1.766  0.4675 -0.4132 -0.0929
 7683SOL    HW330505   1.162   5.404   1.713  0.2411 -1.9456 -0.6447
 7683SOL    MW430506   1.076   5.394   1.701  0.0265 -0.5695 -0.4466
 7684SOL     OW30507   1.031   5.955   6.383  0.6025 -0.2464 -0.3800
 7684SOL    HW230508   0.988   5.872   6.363  1.4339 -0.8208  0.1640
 7684SOL    HW330509   1.052   5.993   6.297 -1.6415  0.4384 -0.7048
 7684SOL    MW430510   1.028   5.949   6.369  0.4161 -0.2318 -0.3511
 7685SOL     OW30511   0.861   2.940   1.933 -0.1514  1.0014 -0.3091
 7685SOL    HW230512   0.939   2.920   1.881  0.0484 -0.6436  0.5765
 7685SOL    HW330513   0.798   2.873   1.909 -1.4515  2.4845 -1.2338
 7685SOL    MW430514   0.863   2.929   1.923 -0.2966  0.9801 -0.3143
 7686SOL     OW30515   2.823   2.124   4.215 -0.2186 -0.3664  0.3999
 7686SOL    HW230516   2.737   2.082   4.203  0.6994 -2.4284  0.6896
 7686SOL    HW330517   2.806   2.217   4.197 -2.5967 -0.6320  0.9063
 7686SOL    MW430518   2.809   2.131   4.211 -0.4113 -0.6735  0.5049
 7687SOL     OW30519   5.296   3.201   5.579 -0.3479  0.4641  0.2742
 7687SOL    HW230520   5.357   3.206   5.653  0.0071  0.1936  0.0057
 7687SOL    HW330521   5.292   3.291   5.546 -0.4875  0.5812  0.6038
 7687SOL    MW430522   5.304   3.213   5.584 -0.3195  0.4439  0.2823
 7688SOL     OW30523   5.315   0.019   6.392  0.1817  0.3905 -0.1030
 7688SOL    HW230524   5.351   0.039   6.305 -0.5499 -1.3907 -0.8653
 7688SOL    HW330525   5.317  -0.076   6.397 -1.8764  0.3574  0.9016
 7688SOL    MW430526   5.320   0.009   6.381 -0.1863  0.1511 -0.0710
 7689SOL     OW30527   2.045   6.157   1.361  0.4149  0.1298  0.2124
 7689SOL    HW230528   1.991   6.198   1.293  0.1367 -0.3067  0.1629
 7689SOL    HW330529   2.106   6.101   1.313  1.0343  0.7633  0.2598
 7689SOL    MW430530   2.046   6.155   1.346  0.4599  0.1558  0.2121
 7690SOL     OW30531   3.197   3.998   2.901 -0.8287 -0.5584 -0.7461
 7690SOL    HW230532   3.121   4.015   2.957 -1.5797 -1.7684 -1.3380
 7690SOL    HW330533   3.168   4.025   2.814  0.6849  2.2974 -0.4746
 7690SOL    MW430534   3.183   4.004   2.897 -0.7281 -0.3413 -0.7884
 7691SOL     OW30535   4.619   2.482   5.371 -0.1489  0.0454  0.4470
 7691SOL    HW230536   4.531   2.476   5.408  0.1064  0.5971  1.1902
 7691SOL    HW330537   4.621   2.568   5.328 -0.3771 -0.5105 -0.6991
 7691SOL    MW430538   4.608   2.493   5.370 -0.1453  0.0449  0.3939
 7692SOL     OW30539   4.583   0.872   0.844 -0.0265 -0.2642 -0.5302
 7692SOL    HW230540   4.593   0.935   0.772  0.4409 -0.3151 -0.5088
 7692SOL    HW330541   4.488   0.859   0.850 -0.3560  2.2120  0.9898
 7692SOL    MW430542   4.572   0.879   0.835 -0.0083  0.0558 -0.3268
 7693SOL     OW30543   1.427   4.367   4.095  0.0451  0.4238 -0.5908
 7693SOL    HW230544   1.373   4.433   4.139  0.6358  0.4789  0.0672
 7693SOL    HW330545   1.390   4.283   4.122 -2.2526  0.4127 -3.3279
 7693SOL    MW430546   1.415   4.364   4.104 -0.1801  0.4296 -0.8651
 7694SOL     OW30547   4.539   3.649   3.494 -0.4156 -0.6804 -0.0258
 7694SOL    HW230548   4.513   3.558   3.479 -0.0415 -0.5666 -1.5482
 7694SOL    HW330549   4.634   3.646   3.498 -0.4649 -0.6112  2.0005
 7694SOL    MW430550   4.548   3.636   3.493 -0.3728 -0.6562  0.0406
 7695SOL     OW30551   2.255   2.778   2.442  0.0726  0.1660 -0.0945
 7695SOL    HW230552   2.235   2.700   2.495  0.8853  0.4731  0.6847
 7695SOL    HW330553   2.182   2.837   2.457 -0.2950 -0.2322 -0.2844
 7695SOL    MW430554   2.243   2.775   2.451  0.1313  0.1540 -0.0168
 7696SOL     OW30555   5.645   1.344   0.496  0.4340  0.3967  0.2466
 7696SOL    HW230556   5.598   1.300   0.425 -0.4784 -0.6487  1.4445
 7696SOL    HW330557   5.694   1.414   0.453 -2.0032  1.3914 -1.1287
 7696SOL    MW430558   5.645   1.347   0.481 -0.0080  0.3900  0.2232
 7697SOL     OW30559   2.300   5.679   5.037 -0.1177  0.5138  0.0825
 7697SOL    HW230560   2.256   5.610   5.086 -0.5959  1.7909  1.5497
 7697SOL    HW330561   2.249   5.758   5.057  0.5920  1.3456 -1.2811
 7697SOL    MW430562   2.288   5.681   5.046 -0.0872  0.7920  0.0962
 7698SOL     OW30563   1.044   3.646   3.281 -0.5208  0.2461  0.2800
 7698SOL    HW230564   1.135   3.668   3.302 -0.5395  0.7414 -0.1485
 7698SOL    HW330565   0.992   3.705   3.335 -0.6451 -1.4851  2.1778
 7698SOL    MW430566   1.049   3.657   3.291 -0.5396  0.0830  0.4738
 7699SOL     OW30567   5.334   5.628   0.928 -0.1275  0.2792  0.1515
 7699SOL    HW230568   5.262   5.579   0.887  0.7677 -1.1239  0.1959
 7699SOL    HW330569   5.405   5.565   0.936  0.9655  1.5084  0.5561
 7699SOL    MW430570   5.334   5.613   0.924  0.1348  0.2562  0.2107
 7700SOL     OW30571   3.581   3.442   0.068  0.2098 -0.2518 -0.2492
 7700SOL    HW230572   3.546   3.361   0.106  1.8532  0.3073  2.7723
 7700SOL    HW330573   3.629   3.413  -0.009  0.3092 -2.0883  0.4532
 7700SOL    MW430574   3.582   3.427   0.063  0.4397 -0.4203  0.2421
 7701SOL     OW30575   2.959   6.256   2.953  0.7524  0.0316 -0.4530
 7701SOL    HW230576   2.972   6.248   3.047  0.9903 -0.2136 -0.5068
 7701SOL    HW330577   2.864   6.270   2.942  0.7187  0.0044 -0.1841
 7701SOL    MW430578   2.948   6.257   2.964  0.7793 -0.0043 -0.4246
 7702SOL     OW30579   0.646   0.789   4.084 -0.3885 -0.4975 -0.1318
 7702SOL    HW230580   0.629   0.837   4.003 -0.7133 -0.8983 -0.3003
 7702SOL    HW330581   0.565   0.799   4.135  0.6144  1.8032  1.2031
 7702SOL    MW430582   0.633   0.797   4.080 -0.2990 -0.2469  0.0221
 7703SOL     OW30583   4.880   4.455   2.203  0.1882  0.1445  0.6366
 7703SOL    HW230584   4.866   4.544   2.170 -1.4022 -0.2627  0.0933
 7703SOL    HW330585   4.887   4.401   2.123  0.3363 -0.3142  0.9544
 7703SOL    MW430586   4.879   4.459   2.188 -0.0021  0.0303  0.6069
 7704SOL     OW30587   6.190   4.130   0.446 -0.0172  0.6349  1.0853
 7704SOL    HW230588   6.123   4.143   0.513 -0.6853 -0.5332  0.6870
 7704SOL    HW330589   6.249   4.064   0.484  0.6366  1.3058  1.2433
 7704SOL    MW430590   6.189   4.123   0.460 -0.0191  0.5693  1.0536
 7705SOL     OW30591   1.650   1.727   2.130 -0.6187 -0.2012  0.2134
 7705SOL    HW230592   1.575   1.784   2.113 -1.5375 -1.1628  0.9382
 7705SOL    HW330593   1.633   1.691   2.217  0.4942 -0.7455  0.2199
 7705SOL    MW430594   1.638   1.730   2.140 -0.5931 -0.3999  0.3099
 7706SOL     OW30595   0.547   1.503   2.656 -0.1062  0.0056 -0.3674
 7706SOL    HW230596   0.554   1.563   2.582  0.5077 -0.1142 -0.4165
 7706SOL    HW330597   0.527   1.559   2.731  1.2900  0.4014 -0.2568
 7706SOL    MW430598   0.546   1.518   2.656  0.1590  0.0420 -0.3592
 7707SOL     OW30599   0.639   0.893   5.378 -0.2146 -0.1886  0.0222
 7707SOL    HW230600   0.562   0.843   5.351 -0.6673  0.6888 -0.3620
 7707SOL    HW330601   0.676   0.842   5.450 -1.9475  0.0449  1.1527
 7707SOL    MW430602   0.634   0.880   5.384 -0.5030 -0.0421  0.1207
 7708SOL     OW30603   4.739   6.357   1.798  0.0856  0.5780  0.1991
 7708SOL    HW230604   4.734   6.298   1.723 -0.0928  0.4154  0.3407
 7708SOL    HW330605   4.694   6.311   1.869 -0.8048  1.2346  0.0808
 7708SOL    MW430606   4.733   6.343   1.797 -0.0554  0.6432  0.2022
 7709SOL     OW30607   6.393   3.375   4.508  0.3527 -0.4333 -0.1417
 7709SOL    HW230608   6.397   3.301   4.568  1.0707 -0.1120  0.2211
 7709SOL    HW330609   6.340   3.441   4.554  1.4791  0.0831  0.4735
 7709SOL    MW430610   6.386   3.374   4.522  0.5960 -0.3227 -0.0127
 7710SOL     OW30611   3.056   0.624   3.744 -0.2128  0.2505 -0.1730
 7710SOL    HW230612   3.109   0.702   3.728 -0.0042  0.0412 -0.5165
 7710SOL    HW330613   3.030   0.594   3.657 -1.9866  1.0890  0.0241
 7710SOL    MW430614   3.060   0.630   3.730 -0.4193  0.3335 -0.1923
 7711SOL     OW30615   4.747   4.061   2.392 -0.5207 -0.7823  0.0238
 7711SOL    HW230616   4.707   4.146   2.371 -0.8349 -1.1191 -0.8024
 7711SOL    HW330617   4.762   4.064   2.486  1.2252  0.9224 -0.2639
 7711SOL    MW430618   4.743   4.072   2.401 -0.3318 -0.6018 -0.1232
 7712SOL     OW30619   4.295   2.528   3.127 -0.0721 -0.1291  0.0598
 7712SOL    HW230620   4.253   2.613   3.112  0.1263  0.0773  0.6197
 7712SOL    HW330621   4.269   2.475   3.053 -0.5769  0.2822 -0.0670
 7712SOL    MW430622   4.286   2.533   3.115 -0.1125 -0.0476  0.1169
 7713SOL     OW30623   4.028   5.366   3.113  0.3907 -0.1296  0.0100
 7713SOL    HW230624   4.022   5.461   3.112  0.3550 -0.0513  2.2829
 7713SOL    HW330625   3.945   5.337   3.153  0.0975 -1.1755 -1.2672
 7713SOL    MW430626   4.016   5.374   3.118  0.3473 -0.2573  0.1414
 7714SOL     OW30627   0.514   6.296   6.312 -0.1915  0.1756 -0.4343
 7714SOL    HW230628   0.531   6.354   6.386 -0.9631  0.5619 -0.5480
 7714SOL    HW330629   0.592   6.242   6.306  0.5413  1.1807 -0.3039
 7714SOL    MW430630   0.526   6.297   6.321 -0.1966  0.3592 -0.4321
 7715SOL     OW30631   2.437   5.213   5.178 -0.6277 -0.4654 -0.4364
 7715SOL    HW230632   2.475   5.235   5.263 -1.4221  1.5234 -0.5331
 7715SOL    HW330633   2.511   5.214   5.117 -0.5663  2.1652 -0.4215
 7715SOL    MW430634   2.452   5.216   5.181 -0.7244  0.1441 -0.4472
 7716SOL     OW30635   1.501   0.983   3.245  0.1208 -0.7917 -0.2681
 7716SOL    HW230636   1.559   0.916   3.282 -1.2953 -0.9328  1.8887
 7716SOL    HW330637   1.539   1.066   3.275 -0.5075 -0.8665  0.7939
 7716SOL    MW430638   1.514   0.985   3.254 -0.1489 -0.8202  0.1566
 7717SOL     OW30639   5.110   4.568   5.611 -0.4586 -0.3553  0.4117
 7717SOL    HW230640   5.204   4.556   5.598 -0.3474 -0.0968  0.9790
 7717SOL    HW330641   5.075   4.572   5.522  0.3140  1.3911  0.1267
 7717SOL    MW430642   5.118   4.567   5.597 -0.3420 -0.0908  0.4490
 7718SOL     OW30643   1.770   0.448   1.732  0.4421  0.3265 -0.3556
 7718SOL    HW230644   1.854   0.410   1.760  0.8390  0.6742 -1.0314
 7718SOL    HW330645   1.717   0.452   1.812  0.8262 -0.5190 -0.0474
 7718SOL    MW430646   1.774   0.444   1.746  0.5452  0.2608 -0.4041
 7719SOL     OW30647   3.092   0.226   1.521 -0.1394  0.3310 -0.2736
 7719SOL    HW230648   3.108   0.178   1.440 -1.8093 -0.3889 -0.2129
 7719SOL    HW330649   3.171   0.277   1.535  0.4378 -0.0537 -1.9938
 7719SOL    MW430650   3.105   0.226   1.512 -0.2836  0.1853 -0.4926
 7720SOL     OW30651   4.259   2.667   1.085  0.3940  0.4546 -0.0199
 7720SOL    HW230652   4.236   2.760   1.083 -1.0203  0.1170 -0.8187
 7720SOL    HW330653   4.207   2.631   1.158  0.7674  0.2470  0.1447
 7720SOL    MW430654   4.249   2.675   1.095  0.2567  0.3826 -0.1036
 7721SOL     OW30655   0.595   6.094   2.887 -0.3477  0.2810 -0.0313
 7721SOL    HW230656   0.641   6.027   2.836 -1.1195 -0.0019 -0.3618
 7721SOL    HW330657   0.608   6.069   2.978 -0.4454 -0.1887 -0.1469
 7721SOL    MW430658   0.603   6.082   2.892 -0.4624  0.1817 -0.0901
 7722SOL     OW30659   4.763   3.992   4.280 -0.8335 -0.1354 -0.0020
 7722SOL    HW230660   4.799   3.919   4.330 -0.3293 -0.8232 -1.3096
 7722SOL    HW330661   4.711   3.950   4.212  0.7749  0.5981 -1.7909
 7722SOL    MW430662   4.761   3.977   4.277 -0.5548 -0.1294 -0.4105
 7723SOL     OW30663   6.026   1.350   4.695 -0.2389  0.3719  0.2563
 7723SOL    HW230664   6.010   1.291   4.768 -1.9290  1.5675  0.9158
 7723SOL    HW330665   6.103   1.401   4.721  2.0975 -2.3153 -0.8973
 7723SOL    MW430666   6.034   1.349   4.708 -0.1537  0.1751  0.1911
 7724SOL     OW30667   1.850   2.942   5.400  0.1271  0.4440  0.0722
 7724SOL    HW230668   1.862   2.977   5.488 -0.5330 -0.0722  0.3648
 7724SOL    HW330669   1.921   2.983   5.349  0.4660  0.7997  0.8141
 7724SOL    MW430670   1.861   2.952   5.405  0.0847  0.4228  0.2087
 7725SOL     OW30671   2.616   1.369   6.006 -0.2286 -0.2340 -0.0340
 7725SOL    HW230672   2.559   1.335   6.075  1.0103  1.6879  2.1260
 7725SOL    HW330673   2.705   1.353   6.039  0.4026  0.8845 -1.0888
 7725SOL    MW430674   2.620   1.363   6.020  0.0181  0.1672  0.1118
 7726SOL     OW30675   5.142   2.149   2.809 -0.2704  0.1095 -0.3143
 7726SOL    HW230676   5.127   2.172   2.900  0.3018 -0.4796 -0.0579
 7726SOL    HW330677   5.149   2.053   2.810  1.6426  0.1973 -0.6580
 7726SOL    MW430678   5.141   2.139   2.821  0.0575  0.0433 -0.3258
 7727SOL     OW30679   5.255   4.482   3.317 -0.0832 -0.0135  0.2082
 7727SOL    HW230680   5.338   4.516   3.281 -0.2868 -1.2855 -1.6095
 7727SOL    HW330681   5.189   4.543   3.283 -0.2468 -1.0695 -1.4720
 7727SOL    MW430682   5.257   4.495   3.307 -0.1317 -0.3206 -0.2533
 7728SOL     OW30683   5.088   3.763   1.456 -0.1686 -0.6256 -0.0177
 7728SOL    HW230684   5.041   3.774   1.539 -0.9617  0.4511 -0.5800
 7728SOL    HW330685   5.134   3.679   1.466 -1.4662 -1.2753  0.9209
 7728SOL    MW430686   5.088   3.753   1.468 -0.4444 -0.5692  0.0319
 7729SOL     OW30687   1.870   1.743   2.471 -0.1955 -0.3933 -0.0348
 7729SOL    HW230688   1.919   1.757   2.552  0.8626  0.1762 -0.7546
 7729SOL    HW330689   1.934   1.758   2.401 -1.5463  1.0389 -1.0222
 7729SOL    MW430690   1.885   1.747   2.473 -0.2341 -0.1292 -0.2600
 7730SOL     OW30691   3.888   2.034   5.430  0.2785  0.1894 -0.2389
 7730SOL    HW230692   3.967   2.087   5.420  1.3995 -1.1498  1.0638
 7730SOL    HW330693   3.890   2.004   5.521 -0.7202 -1.4101 -0.6977
 7730SOL    MW430694   3.899   2.037   5.441  0.2946 -0.1984 -0.1275
 7731SOL     OW30695   4.186   1.427   0.480 -0.1971 -0.5976  0.8666
 7731SOL    HW230696   4.218   1.437   0.569  1.3679  0.4640  0.2299
 7731SOL    HW330697   4.261   1.392   0.432 -0.5666  0.1559 -0.2995
 7731SOL    MW430698   4.201   1.424   0.485 -0.0394 -0.3581  0.6287
 7732SOL     OW30699   4.860   3.521   3.713  0.1485 -0.0415  0.5687
 7732SOL    HW230700   4.855   3.615   3.732 -0.7444  0.2276 -0.8487
 7732SOL    HW330701   4.953   3.499   3.726  0.5545  1.2514  0.0181
 7732SOL    MW430702   4.872   3.531   3.717  0.0843  0.1646  0.3090
 7733SOL     OW30703   4.022   3.114   3.971 -0.1914  0.0187 -0.3848
 7733SOL    HW230704   4.067   3.054   4.030  0.2668  0.4546 -0.2843
 7733SOL    HW330705   4.089   3.141   3.908 -0.0847  1.2644  0.2239
 7733SOL    MW430706   4.037   3.110   3.971 -0.1169  0.2405 -0.2912
 7734SOL     OW30707   0.922   5.375   3.187  0.1070 -0.3783 -0.0736
 7734SOL    HW230708   0.976   5.453   3.173 -0.6861  0.2729  0.4423
 7734SOL    HW330709   0.869   5.368   3.108 -1.2326  0.7676  0.6826
 7734SOL    MW430710   0.922   5.384   3.175 -0.1744 -0.1412  0.0942
 7735SOL     OW30711   0.685   4.757   1.238  0.3998 -0.5303  0.2845
 7735SOL    HW230712   0.659   4.665   1.227  0.0188 -0.3862 -0.0333
 7735SOL    HW330713   0.611   4.798   1.282  0.5687 -0.3734  0.4225
 7735SOL    MW430714   0.672   4.750   1.242  0.3718 -0.4906  0.2608
 7736SOL     OW30715   2.473   1.672   2.842 -0.0739 -0.2942 -0.1289
 7736SOL    HW230716   2.410   1.599   2.845  0.5124 -0.8264 -0.4129
 7736SOL    HW330717   2.503   1.681   2.933 -0.9130  0.2836  0.0956
 7736SOL    MW430718   2.469   1.663   2.855 -0.1073 -0.2882 -0.1367
 7737SOL     OW30719   3.253   1.728   3.919 -0.6982  0.2097 -0.2114
 7737SOL    HW230720   3.223   1.818   3.904  1.8038  0.8076 -2.2243
 7737SOL    HW330721   3.291   1.730   4.007 -1.4055  0.8681  0.0995
 7737SOL    MW430722   3.254   1.740   3.929 -0.4614  0.3755 -0.4359
 7738SOL     OW30723   5.945   5.703   2.393  0.4306 -0.6828 -0.7096
 7738SOL    HW230724   5.856   5.698   2.428 -0.3216 -0.4958 -2.4948
 7738SOL    HW330725   6.001   5.683   2.468 -1.0826 -0.3361  0.5733
 7738SOL    MW430726   5.941   5.700   2.407  0.1317 -0.6124 -0.7759
 7739SOL     OW30727   1.527   1.697   0.971  0.1760  0.0724 -0.2520
 7739SOL    HW230728   1.442   1.658   0.993  1.2217 -2.0514  0.3099
 7739SOL    HW330729   1.563   1.725   1.055 -0.3253  1.9037 -0.5917
 7739SOL    MW430730   1.520   1.696   0.985  0.2478  0.0338 -0.2227
 7740SOL     OW30731   3.346   0.752   1.233 -0.2736  0.0244 -0.1738
 7740SOL    HW230732   3.278   0.788   1.290 -0.7467  1.4252 -1.5738
 7740SOL    HW330733   3.308   0.753   1.145  0.3500 -2.3258 -0.5549
 7740SOL    MW430734   3.332   0.757   1.229 -0.2537 -0.1009 -0.4088
 7741SOL     OW30735   1.029   1.850   4.085 -0.4785 -0.2009  0.0125
 7741SOL    HW230736   0.938   1.825   4.100  0.2314 -3.1714 -0.0868
 7741SOL    HW330737   1.059   1.885   4.169 -1.6988  0.9562 -0.0017
 7741SOL    MW430738   1.021   1.851   4.098 -0.5459 -0.4402 -0.0025
 7742SOL     OW30739   5.815   3.158   3.684 -0.8762 -0.1464  0.5593
 7742SOL    HW230740   5.865   3.078   3.666 -0.5623  0.3586 -1.0258
 7742SOL    HW330741   5.740   3.153   3.625 -1.6330  0.0714  1.4737
 7742SOL    MW430742   5.812   3.147   3.674 -0.9346 -0.0510  0.4708
 7743SOL     OW30743   6.157   4.602   3.893 -0.2946 -0.1133 -0.5476
 7743SOL    HW230744   6.149   4.528   3.832 -0.2895 -0.4736 -0.1133
 7743SOL    HW330745   6.115   4.675   3.847  0.3231 -0.2039 -1.2790
 7743SOL    MW430746   6.150   4.602   3.879 -0.2124 -0.1728 -0.5868
 7744SOL     OW30747   3.608   3.476   4.879  0.1494 -0.1510  0.2792
 7744SOL    HW230748   3.653   3.559   4.893 -0.2253 -0.0101  0.6703
 7744SOL    HW330749   3.516   3.496   4.892 -0.0649 -0.3872 -0.7255
 7744SOL    MW430750   3.602   3.490   4.882  0.0717 -0.1635  0.1982
 7745SOL     OW30751   1.218   2.471   0.546  0.2324  0.0426 -0.1234
 7745SOL    HW230752   1.159   2.508   0.612  0.9168 -1.6507  1.5282
 7745SOL    HW330753   1.292   2.530   0.544  0.0114  0.3385  0.3219
 7745SOL    MW430754   1.220   2.483   0.554  0.2935 -0.1418  0.1533
 7746SOL     OW30755   4.033   6.186   1.574 -0.6152 -0.0549 -0.2541
 7746SOL    HW230756   4.028   6.264   1.520 -0.2279 -0.1113 -0.3759
 7746SOL    HW330757   4.112   6.198   1.627  0.2289 -0.9600 -1.2374
 7746SOL    MW430758   4.043   6.198   1.574 -0.4527 -0.1818 -0.3999
 7747SOL     OW30759   1.336   2.035   2.459  0.0796 -0.4566 -0.4877
 7747SOL    HW230760   1.430   2.030   2.441  0.6642 -0.0293  2.0812
 7747SOL    HW330761   1.319   1.963   2.519 -1.1320 -0.2334 -0.5421
 7747SOL    MW430762   1.346   2.025   2.465 -0.0032 -0.3708 -0.1560
 7748SOL     OW30763   0.141   1.242   0.950  0.5348  0.2864 -0.2159
 7748SOL    HW230764   0.233   1.264   0.957  0.8053 -0.8426 -0.0392
 7748SOL    HW330765   0.135   1.188   0.871 -0.0422  0.6432 -0.4263
 7748SOL    MW430766   0.152   1.238   0.940  0.4943  0.1845 -0.2203
 7749SOL     OW30767   2.617   3.943   3.909  0.1262 -0.0874 -0.3136
 7749SOL    HW230768   2.677   4.011   3.877  0.2708  0.0662  0.2712
 7749SOL    HW330769   2.614   3.957   4.004  0.4845 -1.1672 -0.1346
 7749SOL    MW430770   2.625   3.954   3.918  0.1925 -0.2096 -0.2128
 7750SOL     OW30771   1.135   3.300   1.835 -0.1580 -0.1070  0.5733
 7750SOL    HW230772   1.153   3.385   1.874  2.6413  0.6725 -2.0715
 7750SOL    HW330773   1.190   3.239   1.884  1.2875  0.4232 -0.3210
 7750SOL    MW430774   1.144   3.303   1.847  0.4021  0.0658  0.1064
 7751SOL     OW30775   4.369   0.511   2.486 -0.5067  0.1308  0.2637
 7751SOL    HW230776   4.375   0.508   2.391 -0.6795  0.9924  0.2192
 7751SOL    HW330777   4.276   0.520   2.505 -0.4480  0.2502  0.5063
 7751SOL    MW430778   4.358   0.512   2.476 -0.5218  0.2602  0.2898
 7752SOL     OW30779   2.599   1.846   1.654  0.1234  0.1041  0.7478
 7752SOL    HW230780   2.514   1.824   1.616  0.2563  0.7865  0.0248
 7752SOL    HW330781   2.577   1.880   1.741 -0.2148 -1.0640  1.1423
 7752SOL    MW430782   2.585   1.848   1.660  0.0963  0.0400  0.7045
 7753SOL     OW30783   3.647   4.631   5.311 -0.1666  0.3742  0.4674
 7753SOL    HW230784   3.631   4.650   5.404 -0.4143 -0.1925  0.5437
 7753SOL    HW330785   3.736   4.662   5.296  0.0394  0.0662  1.0103
 7753SOL    MW430786   3.657   4.638   5.321 -0.1721  0.2588  0.5491
 7754SOL     OW30787   5.777   0.904  -0.016 -0.0488 -0.0384  0.0652
 7754SOL    HW230788   5.786   0.811   0.002  1.3618  0.1347  0.4282
 7754SOL    HW330789   5.863   0.930  -0.050  0.6078  1.6750  2.6894
 7754SOL    MW430790   5.790   0.895  -0.018  0.2239  0.2105  0.4593
 7755SOL     OW30791   4.446   1.119   3.514 -0.3932 -0.3303 -0.1460
 7755SOL    HW230792   4.496   1.122   3.596 -2.2764 -0.7634  1.0750
 7755SOL    HW330793   4.513   1.125   3.446  1.1625  1.4042  1.3919
 7755SOL    MW430794   4.461   1.120   3.516 -0.4364 -0.1586  0.2180
 7756SOL     OW30795   1.024   2.968   4.109  0.0584  0.7716 -0.0508
 7756SOL    HW230796   1.068   2.921   4.179  0.3306  0.0381 -0.7035
 7756SOL    HW330797   1.050   2.923   4.029 -2.2885 -0.0391 -0.4266
 7756SOL    MW430798   1.033   2.956   4.108 -0.2153  0.5679 -0.1865
 7757SOL     OW30799   1.126   1.072   4.551  0.1774  0.1325 -0.3979
 7757SOL    HW230800   1.046   1.050   4.598  0.0829 -0.9550 -1.0241
 7757SOL    HW330801   1.193   1.079   4.619 -0.4488  1.1097  0.1341
 7757SOL    MW430802   1.125   1.070   4.566  0.0823  0.1179 -0.4103
 7758SOL     OW30803   5.038   2.936   6.023 -0.0179 -0.1205  0.4006
 7758SOL    HW230804   5.071   2.868   5.964 -0.0011 -0.2248  0.5275
 7758SOL    HW330805   4.956   2.965   5.984  0.1443  0.0223  0.1698
 7758SOL    MW430806   5.031   2.931   6.010  0.0057 -0.1154  0.3869
 7759SOL     OW30807   1.153   1.848   5.817 -0.4903 -0.4641 -0.5403
 7759SOL    HW230808   1.081   1.804   5.771 -0.1871 -0.4146 -1.0777
 7759SOL    HW330809   1.227   1.788   5.807 -0.4461 -0.4926 -0.0306
 7759SOL    MW430810   1.153   1.834   5.809 -0.4444 -0.4613 -0.5439
 7760SOL     OW30811   3.275   0.426   5.642  0.0817  0.2462  0.5035
 7760SOL    HW230812   3.358   0.378   5.636 -0.7123 -1.0154 -2.6346
 7760SOL    HW330813   3.272   0.478   5.562 -0.7399  2.9295  2.1453
 7760SOL    MW430814   3.286   0.427   5.630 -0.1314  0.4338  0.3061
 7761SOL     OW30815   4.683   5.625   3.296 -0.2432  0.0895 -0.0166
 7761SOL    HW230816   4.654   5.626   3.387  1.6990 -1.6158  0.6928
 7761SOL    HW330817   4.670   5.534   3.267  1.5511 -0.0226 -0.5861
 7761SOL    MW430818   4.677   5.613   3.304  0.2498 -0.1503  0.0018
 7762SOL     OW30819   2.687   2.588   3.614  0.3669 -0.3265  0.4299
 7762SOL    HW230820   2.731   2.551   3.690  1.7939 -0.0671 -0.2275
 7762SOL    HW330821   2.748   2.571   3.541 -1.1697 -1.0244 -0.7485
 7762SOL    MW430822   2.701   2.581   3.614  0.3525 -0.3843  0.1877
 7763SOL     OW30823   5.821   2.888   1.457 -0.1411  0.3015 -0.0516
 7763SOL    HW230824   5.821   2.875   1.363 -1.0106 -0.2291  0.0108
 7763SOL    HW330825   5.827   2.800   1.494 -1.3261  0.3894  0.3822
 7763SOL    MW430826   5.822   2.874   1.450 -0.4122  0.2431  0.0139
 7764SOL     OW30827   0.257   3.261   2.412 -0.5579 -0.1764  0.1096
 7764SOL    HW230828   0.253   3.190   2.348  0.3020 -0.5859  0.4818
 7764SOL    HW330829   0.306   3.330   2.368  3.1279 -1.7050  1.3431
 7764SOL    MW430830   0.263   3.261   2.398  0.0418 -0.4321  0.3215
 7765SOL     OW30831   3.769   3.090   0.543 -0.4921 -0.3448 -0.0947
 7765SOL    HW230832   3.720   3.147   0.602 -2.5342  1.0771 -2.9277
 7765SOL    HW330833   3.702   3.038   0.498  0.9541 -1.3794 -1.1896
 7765SOL    MW430834   3.754   3.090   0.545 -0.5707 -0.2937 -0.6130
 7766SOL     OW30835   5.990   3.799   2.801 -0.2884 -0.1005 -0.5477
 7766SOL    HW230836   5.957   3.868   2.858  0.5183  0.2357 -0.4754
 7766SOL    HW330837   6.035   3.846   2.730 -0.4210 -0.5336 -0.9241
 7766SOL    MW430838   5.992   3.814   2.799 -0.1994 -0.1133 -0.5878
 7767SOL     OW30839   5.187   3.170   0.983  0.4439  0.0728 -0.0557
 7767SOL    HW230840   5.218   3.208   0.901 -0.2644 -2.4356 -1.5626
 7767SOL    HW330841   5.092   3.166   0.974  0.2974  0.2431  1.1465
 7767SOL    MW430842   5.178   3.175   0.971  0.3311 -0.2357 -0.0959
 7768SOL     OW30843   5.556   6.063   1.747  0.2990 -0.0358 -0.7559
 7768SOL    HW230844   5.534   6.134   1.807  0.3521 -1.8239  1.4835
 7768SOL    HW330845   5.472   6.034   1.712 -0.0610 -0.8758  0.7395
 7768SOL    MW430846   5.542   6.069   1.750  0.2585 -0.3826 -0.2631
 7769SOL     OW30847   2.596   1.451   2.483  0.0983  0.1337  0.5111
 7769SOL    HW230848   2.563   1.366   2.453 -2.1736  0.7535  1.0670
 7769SOL    HW330849   2.683   1.432   2.518 -0.7692 -2.2039  1.6231
 7769SOL    MW430850   2.603   1.437   2.484 -0.3159 -0.0929  0.7312
 7770SOL     OW30851   1.846   4.710   0.628 -0.0872 -0.1175 -0.0010
 7770SOL    HW230852   1.758   4.673   0.633  0.6660 -1.8366  1.7952
 7770SOL    HW330853   1.855   4.762   0.709  0.4098  0.4100 -0.3839
 7770SOL    MW430854   1.836   4.712   0.640  0.0777 -0.2747  0.1855
 7771SOL     OW30855   0.346   0.136   1.301 -0.5741 -0.0565 -0.3992
 7771SOL    HW230856   0.342   0.227   1.274 -0.6033  0.3090  0.7949
 7771SOL    HW330857   0.439   0.120   1.318 -0.4106 -0.5824 -1.6400
 7771SOL    MW430858   0.358   0.146   1.299 -0.5564 -0.0776 -0.4053
 7772SOL     OW30859   0.404   2.631   0.216  0.4075 -0.4842 -0.5695
 7772SOL    HW230860   0.458   2.708   0.238  1.0235 -0.7984 -0.9431
 7772SOL    HW330861   0.324   2.669   0.179 -0.7129  0.0605  2.1706
 7772SOL    MW430862   0.401   2.646   0.214  0.3409 -0.4538 -0.2573
 7773SOL     OW30863   2.580   3.850   3.155  0.1731  0.3973  0.5865
 7773SOL    HW230864   2.632   3.847   3.075  0.6159  0.7165  0.8600
 7773SOL    HW330865   2.581   3.760   3.188 -2.1995 -0.3840 -1.1283
 7773SOL    MW430866   2.587   3.838   3.149 -0.0815  0.3363  0.3963
 7774SOL     OW30867   4.193   3.356   2.631  0.3803  0.0600  0.4474
 7774SOL    HW230868   4.253   3.283   2.648  2.1875  0.2587 -3.7090
 7774SOL    HW330869   4.125   3.319   2.574  0.0493  1.1325  0.1170
 7774SOL    MW430870   4.192   3.342   2.626  0.5751  0.2277 -0.1446
 7775SOL     OW30871   3.021   4.651   2.298 -0.4380 -0.0622 -0.1597
 7775SOL    HW230872   3.095   4.590   2.290 -0.6918 -1.1266  3.4220
 7775SOL    HW330873   2.952   4.613   2.244  0.4700 -1.0878 -0.6359
 7775SOL    MW430874   3.022   4.638   2.290 -0.3517 -0.3380  0.2500
 7776SOL     OW30875   0.048   4.973   0.004  0.2702 -0.3243  0.0143
 7776SOL    HW230876   0.006   5.000   0.086  1.3074 -0.1213  0.4855
 7776SOL    HW330877  -0.002   5.019  -0.064  0.6570  1.1105  0.6579
 7776SOL    MW430878   0.036   4.983   0.006  0.4581 -0.1082  0.1614
 7777SOL     OW30879   5.541   1.744   4.563 -0.1122  0.0208 -0.9839
 7777SOL    HW230880   5.584   1.730   4.647  1.5002  1.3575 -1.5261
 7777SOL    HW330881   5.609   1.725   4.498 -1.1281 -0.3146 -1.9760
 7777SOL    MW430882   5.556   1.740   4.565 -0.0335  0.1529 -1.1863
 7778SOL     OW30883   5.339   3.296   0.782  0.0164 -0.2106  0.4985
 7778SOL    HW230884   5.262   3.341   0.747 -0.6804 -1.9313 -0.3386
 7778SOL    HW330885   5.403   3.365   0.798 -0.9043  1.0306 -0.9403
 7778SOL    MW430886   5.337   3.311   0.779 -0.1970 -0.2738  0.1982
 7779SOL     OW30887   1.541   3.930   0.311 -0.1232 -0.0436  0.2001
 7779SOL    HW230888   1.618   3.894   0.267  0.9506 -0.1634  2.0905
 7779SOL    HW330889   1.555   4.025   0.308  0.4614 -0.0840  1.0918
 7779SOL    MW430890   1.553   3.938   0.305  0.0956 -0.0647  0.5672
 7780SOL     OW30891   4.551   5.250   2.984 -0.7974  0.7077  0.0395
 7780SOL    HW230892   4.458   5.230   2.998 -0.7375 -1.0129 -1.7124
 7780SOL    HW330893   4.596   5.168   3.001  0.1592  0.9406 -1.2343
 7780SOL    MW430894   4.545   5.237   2.988 -0.6633  0.5114 -0.3597
 7781SOL     OW30895   3.493   1.573   0.510 -0.2386 -0.1020 -0.4955
 7781SOL    HW230896   3.586   1.555   0.524 -0.0699 -0.2746 -1.7508
 7781SOL    HW330897   3.450   1.539   0.589  0.8411  0.8714  0.5542
 7781SOL    MW430898   3.499   1.566   0.522 -0.0739  0.0036 -0.5227
 7782SOL     OW30899   2.168   2.570   2.581 -0.6067  0.5552  0.0876
 7782SOL    HW230900   2.078   2.602   2.591 -0.8237 -0.1872  0.6542
 7782SOL    HW330901   2.172   2.493   2.637  0.8574  1.4874  1.3463
 7782SOL    MW430902   2.157   2.564   2.590 -0.4422  0.5802  0.3284
 7783SOL     OW30903   0.420   2.569   1.153  0.1360 -0.5033  0.7665
 7783SOL    HW230904   0.473   2.619   1.215  0.7908 -0.8587  0.5024
 7783SOL    HW330905   0.480   2.502   1.118  0.0768  0.2638 -0.9405
 7783SOL    MW430906   0.435   2.567   1.156  0.2146 -0.4490  0.5064
 7784SOL     OW30907   0.875   1.641   4.524  0.1283  0.5129  0.3207
 7784SOL    HW230908   0.857   1.551   4.498  0.2423  0.2643  1.0795
 7784SOL    HW330909   0.792   1.687   4.512  0.4468  0.6868 -1.5523
 7784SOL    MW430910   0.862   1.635   4.519  0.1853  0.5030  0.1737
 7785SOL     OW30911   0.759   5.640   2.729  0.4870 -0.2427  0.2354
 7785SOL    HW230912   0.824   5.623   2.660  2.1081 -1.0819  1.8876
 7785SOL    HW330913   0.681   5.593   2.699  0.9872 -0.1891 -1.2520
 7785SOL    MW430914   0.757   5.631   2.716  0.7669 -0.3464  0.2572
 7786SOL     OW30915   1.592   2.395   6.313  0.1435 -0.2932 -0.2269
 7786SOL    HW230916   1.544   2.323   6.274  0.8688 -0.9094 -0.0146
 7786SOL    HW330917   1.537   2.425   6.386  0.2017 -1.1638  0.1837
 7786SOL    MW430918   1.579   2.390   6.318  0.2468 -0.4894 -0.1447
 7787SOL     OW30919   4.273   6.315   6.176  0.5520 -1.2880 -0.4839
 7787SOL    HW230920   4.284   6.222   6.199  0.1313 -1.8053 -2.2228
 7787SOL    HW330921   4.360   6.353   6.188  0.6362 -1.7923  0.6540
 7787SOL    MW430922   4.286   6.307   6.181  0.5076 -1.4228 -0.5632
 7788SOL     OW30923   2.410   3.406   3.520 -0.3224 -0.1581  0.7304
 7788SOL    HW230924   2.341   3.401   3.586  0.3254  0.3459  1.4734
 7788SOL    HW330925   2.489   3.427   3.570  0.1067  0.7064 -0.2613
 7788SOL    MW430926   2.412   3.408   3.535 -0.1803  0.0224  0.6976
 7789SOL     OW30927   5.074   0.286   1.860 -0.0225 -0.1275  0.0547
 7789SOL    HW230928   5.107   0.376   1.854  0.2858 -0.3004 -1.3942
 7789SOL    HW330929   5.151   0.234   1.883  0.3486 -0.2889 -1.4355
 7789SOL    MW430930   5.089   0.291   1.862  0.0671 -0.1716 -0.3331
 7790SOL     OW30931   4.628   0.642   6.256 -0.2056 -0.4109 -0.0271
 7790SOL    HW230932   4.570   0.626   6.182 -1.4457  1.5830  0.4417
 7790SOL    HW330933   4.708   0.678   6.218 -1.1487  1.3845 -0.3869
 7790SOL    MW430934   4.631   0.644   6.241 -0.4936  0.0891 -0.0127
 7791SOL     OW30935   0.887   2.293   5.903  0.0870 -0.2512 -0.2321
 7791SOL    HW230936   0.966   2.274   5.954 -1.2199 -0.6863  1.7138
 7791SOL    HW330937   0.878   2.218   5.844 -0.0093 -1.2173  0.9932
 7791SOL    MW430938   0.896   2.280   5.902 -0.0981 -0.4361  0.1863
 7792SOL     OW30939   5.536   3.800   4.852 -0.0579 -0.6894 -0.1427
 7792SOL    HW230940   5.561   3.880   4.806 -1.6732 -0.9237 -1.4985
 7792SOL    HW330941   5.519   3.829   4.942  0.6705  0.2287 -0.2855
 7792SOL    MW430942   5.537   3.815   4.858 -0.1749 -0.5992 -0.3404
 7793SOL     OW30943   4.220   4.394   5.940 -0.5896 -0.6858  0.1653
 7793SOL    HW230944   4.142   4.349   5.910 -0.6505 -0.6219  0.2282
 7793SOL    HW330945   4.191   4.483   5.959 -0.3661 -0.4741 -0.4519
 7793SOL    MW430946   4.206   4.400   5.939 -0.5682 -0.6495  0.0922
 7794SOL     OW30947   2.505   4.536   3.669 -0.4982  0.5043 -0.3061
 7794SOL    HW230948   2.589   4.581   3.679  0.1737 -0.5343 -1.1694
 7794SOL    HW330949   2.512   4.459   3.725  0.3210 -1.1974 -2.6190
 7794SOL    MW430950   2.517   4.532   3.678 -0.3015  0.1427 -0.7252
 7795SOL     OW30951   1.740   1.511   0.383 -0.0802  0.0104 -0.4491
 7795SOL    HW230952   1.655   1.515   0.428  0.2595  0.0051  0.2126
 7795SOL    HW330953   1.796   1.461   0.442  1.0244  1.9005  0.2152
 7795SOL    MW430954   1.736   1.505   0.397  0.1104  0.2591 -0.2742
 7796SOL     OW30955   3.757   0.992   2.132 -0.2022 -0.4506  0.8173
 7796SOL    HW230956   3.806   0.911   2.116  0.4682  0.4875 -2.7127
 7796SOL    HW330957   3.823   1.061   2.130 -1.1707  0.4860 -0.0791
 7796SOL    MW430958   3.772   0.990   2.129 -0.2415 -0.2033  0.2333
 7797SOL     OW30959   5.754   5.873   1.735 -0.6949 -0.5491  0.2267
 7797SOL    HW230960   5.766   5.866   1.830  0.1885  0.3985  0.2020
 7797SOL    HW330961   5.695   5.948   1.725  1.7986  1.4926 -0.0653
 7797SOL    MW430962   5.748   5.882   1.746 -0.2494 -0.1547  0.1849
 7798SOL     OW30963   5.568   4.658   2.577  0.4421  0.3192  0.5683
 7798SOL    HW230964   5.494   4.602   2.598  1.4753 -1.4761 -0.2763
 7798SOL    HW330965   5.536   4.747   2.589 -1.8478 -0.3918  0.1629
 7798SOL    MW430966   5.554   4.663   2.581  0.2763 -0.0115  0.4034
 7799SOL     OW30967   6.388   5.501   3.174 -0.0478 -0.3660  0.5482
 7799SOL    HW230968   6.416   5.451   3.251 -0.4239 -1.3860  0.0416
 7799SOL    HW330969   6.448   5.473   3.105 -0.4917 -0.3848  0.1685
 7799SOL    MW430970   6.400   5.491   3.175 -0.1560 -0.5030  0.4312
 7800SOL     OW30971   5.152   5.106   4.792 -0.1116 -0.0400  0.2109
 7800SOL    HW230972   5.075   5.068   4.834 -0.0344  0.4826  0.8340
 7800SOL    HW330973   5.175   5.043   4.723 -0.0542 -1.0640  1.1381
 7800SOL    MW430974   5.145   5.092   4.788 -0.0939 -0.1061  0.4155
 7801SOL     OW30975   0.247   3.379   0.525 -0.2953 -0.0078 -0.4924
 7801SOL    HW230976   0.208   3.466   0.529 -2.1507 -0.7415 -1.4343
 7801SOL    HW330977   0.251   3.351   0.616 -0.3913  0.7618 -0.2416
 7801SOL    MW430978   0.242   3.387   0.538 -0.5528 -0.0031 -0.5836
 7802SOL     OW30979   6.027   2.590   4.019  0.1989 -0.0126 -0.2569
 7802SOL    HW230980   6.109   2.561   3.981 -0.2163 -2.1225  0.3524
 7802SOL    HW330981   5.960   2.536   3.977 -0.6292  0.0806  0.8952
 7802SOL    MW430982   6.029   2.579   4.008  0.0349 -0.2787 -0.0245
 7803SOL     OW30983   0.558   5.665   1.616  0.3381  0.0472  0.3242
 7803SOL    HW230984   0.498   5.737   1.633 -0.1471 -0.2275 -0.2171
 7803SOL    HW330985   0.503   5.593   1.588  0.6476 -1.0470  2.3029
 7803SOL    MW430986   0.543   5.665   1.615  0.3149 -0.1334  0.5139
 7804SOL     OW30987   0.026   1.789   4.411 -0.1829  0.1860 -0.0173
 7804SOL    HW230988  -0.054   1.800   4.462 -1.3627 -0.7567 -1.5713
 7804SOL    HW330989   0.008   1.833   4.328  0.4269 -1.0806 -0.8538
 7804SOL    MW430990   0.013   1.796   4.407 -0.2581 -0.1055 -0.3327
 7805SOL     OW30991   1.255   1.870   2.221 -0.4012  0.1332 -0.5032
 7805SOL    HW230992   1.309   1.890   2.144 -1.5061 -0.3472 -1.4358
 7805SOL    HW330993   1.288   1.928   2.289 -0.0954  1.3613 -1.6536
 7805SOL    MW430994   1.266   1.881   2.220 -0.5066  0.2319 -0.7780
 7806SOL     OW30995   0.909   4.296   0.401  0.0723  0.3508  0.2952
 7806SOL    HW230996   0.966   4.349   0.456  2.6012 -1.9562  0.1535
 7806SOL    HW330997   0.849   4.358   0.361  1.0980  2.6890  2.1413
 7806SOL    MW430998   0.909   4.311   0.403  0.5413  0.3549  0.5201
 7807SOL     OW30999   0.958   0.123   4.592 -0.3032 -0.3798  0.2084
 7807SOL    HW231000   0.977   0.198   4.535  0.2389  0.0240  0.8986
 7807SOL    HW331001   0.997   0.048   4.548  0.3665 -0.0223  0.1759
 7807SOL    MW431002   0.966   0.123   4.579 -0.1433 -0.2794  0.2952
 7808SOL     OW31003   1.486   3.791   2.341 -0.2216  0.0610 -0.2464
 7808SOL    HW231004   1.443   3.877   2.342  2.2371  1.4006  0.9062
 7808SOL    HW331005   1.475   3.758   2.430 -0.6790 -0.5838 -0.5384
 7808SOL    MW431006   1.479   3.798   2.353  0.0424  0.1527 -0.1329
 7809SOL     OW31007   2.932   3.934   4.016 -0.4658 -0.7515 -0.0265
 7809SOL    HW231008   2.894   3.847   4.009  0.7891 -1.3737  0.6039
 7809SOL    HW331009   2.898   3.970   4.098 -1.4130 -0.4207 -0.5574
 7809SOL    MW431010   2.923   3.927   4.026 -0.4252 -0.7900 -0.0134
 7810SOL     OW31011   6.405   5.385   3.977  0.3966 -0.0087 -0.7207
 7810SOL    HW231012   6.428   5.297   3.950 -2.6108 -0.8086 -1.0533
 7810SOL    HW331013   6.377   5.376   4.068 -4.7118 -0.6170 -2.0557
 7810SOL    MW431014   6.404   5.373   3.985 -0.6742 -0.1945 -0.9407
 7811SOL     OW31015   5.450   4.205   4.379  0.6764 -0.2211  0.3919
 7811SOL    HW231016   5.466   4.112   4.364 -2.1123 -1.1301  2.3155
 7811SOL    HW331017   5.389   4.230   4.310  2.3092  0.5811 -0.8382
 7811SOL    MW431018   5.444   4.196   4.368  0.5239 -0.2352  0.4834
 7812SOL     OW31019   5.431   2.606   3.265 -0.3146 -0.4938  0.4606
 7812SOL    HW231020   5.483   2.671   3.219  0.1436 -0.0141  1.6205
 7812SOL    HW331021   5.358   2.655   3.302 -0.6803 -0.8759  0.2602
 7812SOL    MW431022   5.428   2.621   3.264 -0.3024 -0.4809  0.5872
 7813SOL     OW31023   5.418   2.394   5.790 -0.0501 -0.0828  0.5588
 7813SOL    HW231024   5.443   2.391   5.883 -1.1182  1.8876  0.9509
 7813SOL    HW331025   5.324   2.376   5.791  0.1798 -1.4745 -0.3209
 7813SOL    MW431026   5.409   2.391   5.803 -0.1607 -0.0064  0.4945
 7814SOL     OW31027   0.283   0.169   6.018 -0.3552 -0.1040  0.1520
 7814SOL    HW231028   0.227   0.246   6.004  0.7944  0.8689  0.7277
 7814SOL    HW331029   0.311   0.176   6.109  1.0065 -0.3520 -0.2264
 7814SOL    MW431030   0.279   0.180   6.028 -0.0239 -0.0083  0.1780
 7815SOL     OW31031   2.054   1.051   0.190  0.0010 -0.3162  0.2967
 7815SOL    HW231032   2.007   0.988   0.245  0.2623  0.6726  1.6848
 7815SOL    HW331033   2.146   1.029   0.202  0.0092 -2.2321 -2.3975
 7815SOL    MW431034   2.060   1.039   0.199  0.0365 -0.4385  0.1243
 7816SOL     OW31035   0.554   5.806   1.953  0.4902  0.7702 -0.0572
 7816SOL    HW231036   0.645   5.788   1.928  0.8488  2.2164  0.1051
 7816SOL    HW331037   0.548   5.902   1.953 -1.2132  0.6991 -0.6801
 7816SOL    MW431038   0.565   5.817   1.949  0.3128  0.9516 -0.1180
 7817SOL     OW31039   1.635   1.854   5.059 -0.2461  0.5630  0.0953
 7817SOL    HW231040   1.562   1.823   5.112  0.8632  1.5243  2.3210
 7817SOL    HW331041   1.646   1.787   4.992 -2.0071 -0.5061  0.7928
 7817SOL    MW431042   1.627   1.841   5.057 -0.3321  0.5488  0.4810
 7818SOL     OW31043   3.706   6.387   1.246 -0.0147 -0.6023  0.3885
 7818SOL    HW231044   3.642   6.388   1.176 -0.1919  3.4838  0.3737
 7818SOL    HW331045   3.791   6.387   1.201  0.0071 -2.1105  0.3569
 7818SOL    MW431046   3.709   6.387   1.231 -0.0352 -0.2622  0.3824
 7819SOL     OW31047   4.796   4.000   1.294 -0.0465  0.3076  0.0676
 7819SOL    HW231048   4.770   4.073   1.349  0.2744  0.2298  0.3218
 7819SOL    HW331049   4.775   3.922   1.345  0.1253  0.2323  0.0237
 7819SOL    MW431050   4.790   3.999   1.308  0.0185  0.2874  0.0954
 7820SOL     OW31051   3.432   2.839   1.845 -0.7759  0.6532  0.0639
 7820SOL    HW231052   3.385   2.875   1.769 -1.2851 -0.6794 -0.2872
 7820SOL    HW331053   3.429   2.908   1.910 -2.1428  1.0728 -0.4109
 7820SOL    MW431054   3.426   2.852   1.843 -1.0235  0.5327 -0.0451
 7821SOL     OW31055   3.906   3.892   2.314  0.8023 -0.0381 -0.1881
 7821SOL    HW231056   3.901   3.800   2.342 -1.3276 -0.2272 -1.0367
 7821SOL    HW331057   3.950   3.888   2.228 -0.3219 -0.4161 -0.7614
 7821SOL    MW431058   3.911   3.879   2.306  0.3730 -0.1129 -0.3757
 7822SOL     OW31059   5.470   2.090   6.127  0.0223  0.9567  0.1796
 7822SOL    HW231060   5.550   2.047   6.159 -0.4435 -0.8851 -0.9806
 7822SOL    HW331061   5.424   2.022   6.078 -2.3646  1.9150  0.9386
 7822SOL    MW431062   5.475   2.076   6.125 -0.3541  0.8402  0.1267
 7823SOL     OW31063   5.087   1.843   5.035  0.1401 -0.1805 -0.5424
 7823SOL    HW231064   5.023   1.801   5.093 -0.1889 -0.3138 -1.0025
 7823SOL    HW331065   5.066   1.936   5.040  1.2108  0.0150  0.9013
 7823SOL    MW431066   5.076   1.850   5.044  0.2380 -0.1723 -0.4127
 7824SOL     OW31067   6.074   2.344   0.186 -0.1817  0.1309 -0.1712
 7824SOL    HW231068   6.068   2.407   0.115  1.5227 -1.3539 -1.7365
 7824SOL    HW331069   6.145   2.376   0.241  0.4000 -0.1703 -0.7317
 7824SOL    MW431070   6.083   2.356   0.184  0.1199 -0.1048 -0.4517
 7825SOL     OW31071   4.600   5.002   0.228  0.1550 -0.3405 -0.1417
 7825SOL    HW231072   4.572   5.075   0.285  1.1925  1.1193 -1.4188
 7825SOL    HW331073   4.648   4.943   0.286  0.6183  0.7748  0.6471
 7825SOL    MW431074   4.602   5.004   0.243  0.3530 -0.0008 -0.2061
 7826SOL     OW31075   1.381   5.435   1.216  0.8367 -0.2497  0.3976
 7826SOL    HW231076   1.356   5.510   1.269  1.6159 -1.7461  3.0631
 7826SOL    HW331077   1.304   5.417   1.161 -0.9915 -0.0026  2.7289
 7826SOL    MW431078   1.367   5.442   1.216  0.6983 -0.4146  1.0569
 7827SOL     OW31079   0.751   2.381   4.838 -0.2471 -0.0053  0.5802
 7827SOL    HW231080   0.819   2.422   4.785  0.6369  0.1121  1.7665
 7827SOL    HW331081   0.737   2.295   4.798  1.4085 -0.4831  0.9652
 7827SOL    MW431082   0.758   2.375   4.826  0.0880 -0.0529  0.7875
 7828SOL     OW31083   0.845   3.945   1.929  0.8624  0.7435  0.1248
 7828SOL    HW231084   0.791   3.996   1.869  0.7516 -0.7773 -1.1433
 7828SOL    HW331085   0.933   3.982   1.920  0.5982  1.3480 -0.0044
 7828SOL    MW431086   0.850   3.957   1.920  0.8129  0.6226 -0.0596
 7829SOL     OW31087   0.338   0.453   6.082  0.1532  0.0693 -0.4201
 7829SOL    HW231088   0.272   0.444   6.014  0.3326  1.9588 -0.8920
 7829SOL    HW331089   0.421   0.459   6.034  0.3749  0.4397  0.0025
 7829SOL    MW431090   0.340   0.453   6.067  0.2061  0.3675 -0.4266
 7830SOL     OW31091   4.831   3.321   3.364 -0.9017  0.4965 -0.4151
 7830SOL    HW231092   4.835   3.258   3.293  0.0633 -1.9771  1.6898
 7830SOL    HW331093   4.922   3.344   3.382 -1.2029  2.0914 -0.7455
 7830SOL    MW431094   4.843   3.316   3.357 -0.8141  0.3806 -0.1810
 7831SOL     OW31095   3.148   3.962   1.292 -0.3811 -0.1977 -0.8151
 7831SOL    HW231096   3.100   4.033   1.250  2.2663  0.0369 -3.9262
 7831SOL    HW331097   3.240   3.985   1.279  0.6153 -2.1076  1.9906
 7831SOL    MW431098   3.154   3.974   1.285  0.0997 -0.4187 -0.8554
 7832SOL     OW31099   1.478   5.767   0.818  0.2281 -0.2356  0.6513
 7832SOL    HW231100   1.517   5.853   0.802 -0.5149  0.1768  0.9827
 7832SOL    HW331101   1.472   5.761   0.914  1.1848 -1.0805  0.6656
 7832SOL    MW431102   1.482   5.778   0.829  0.2563 -0.2927  0.6969
 7833SOL     OW31103   4.422   0.298   2.647  0.4711  0.3556  0.3420
 7833SOL    HW231104   4.505   0.311   2.693  0.8238  1.2687 -0.5076
 7833SOL    HW331105   4.419   0.369   2.583 -2.2612  2.0673  2.1510
 7833SOL    MW431106   4.433   0.309   2.645  0.1572  0.7019  0.4686
 7834SOL     OW31107   6.150   6.258   4.844 -0.3361 -0.3192 -0.0858
 7834SOL    HW231108   6.172   6.246   4.936 -0.8827  1.1552  0.2574
 7834SOL    HW331109   6.059   6.232   4.837 -0.0856 -1.1515 -0.3800
 7834SOL    MW431110   6.141   6.253   4.855 -0.3751 -0.2345 -0.0793
 7835SOL     OW31111   4.670   0.203   1.566  0.3940  0.0307  0.5512
 7835SOL    HW231112   4.751   0.197   1.615  0.8058 -0.9568 -0.2153
 7835SOL    HW331113   4.687   0.267   1.497 -0.2035  1.4623  1.6888
 7835SOL    MW431114   4.683   0.210   1.563  0.3695  0.0893  0.6002
 7836SOL     OW31115   2.506   5.841   3.911 -0.0292 -0.2055 -0.0420
 7836SOL    HW231116   2.471   5.752   3.910  0.3750 -0.4097  1.3295
 7836SOL    HW331117   2.444   5.890   3.966  1.4371 -0.4276  1.8979
 7836SOL    MW431118   2.493   5.836   3.918  0.2176 -0.2618  0.3949
 7837SOL     OW31119   1.028   0.078   2.339  0.8864 -1.2130 -0.0331
 7837SOL    HW231120   1.051   0.031   2.419  1.4181  0.6125  0.9234
 7837SOL    HW331121   1.003   0.165   2.368  0.6149 -0.6585 -1.8231
 7837SOL    MW431122   1.028   0.083   2.353  0.9207 -0.8990 -0.1431
 7838SOL     OW31123   1.548   5.400   5.025 -0.0732 -0.5845  0.6605
 7838SOL    HW231124   1.519   5.489   5.044 -1.7964 -0.5780 -1.5258
 7838SOL    HW331125   1.630   5.411   4.976 -0.6525 -0.1007 -0.2449
 7838SOL    MW431126   1.555   5.413   5.021 -0.3770 -0.5198  0.2526
 7839SOL     OW31127   4.032   0.416   0.844 -0.3227  0.7763 -0.5121
 7839SOL    HW231128   4.076   0.482   0.791  0.6695 -1.2125 -2.3249
 7839SOL    HW331129   3.962   0.382   0.788  0.1382 -0.7208 -0.2329
 7839SOL    MW431130   4.028   0.420   0.830 -0.1310  0.3164 -0.7144
 7840SOL     OW31131   3.138   1.333   4.592  0.8026  0.9896  0.3551
 7840SOL    HW231132   3.216   1.337   4.536  1.9940  1.0689  1.9442
 7840SOL    HW331133   3.167   1.285   4.669 -1.0705  0.0353  0.5148
 7840SOL    MW431134   3.152   1.328   4.595  0.7127  0.8741  0.5858
 7841SOL     OW31135   0.762   1.852   0.297 -0.1059  0.3675  0.6093
 7841SOL    HW231136   0.716   1.860   0.381 -1.0662 -0.4855  0.1798
 7841SOL    HW331137   0.718   1.915   0.240 -2.3735 -2.0481 -0.4764
 7841SOL    MW431138   0.750   1.861   0.301 -0.5318 -0.0637  0.4094
 7842SOL     OW31139   3.667   5.432   1.288 -0.1497 -0.4329  0.2548
 7842SOL    HW231140   3.632   5.363   1.344  0.6191 -0.2516  0.9749
 7842SOL    HW331141   3.594   5.494   1.279 -0.5997 -0.9658  0.2297
 7842SOL    MW431142   3.652   5.431   1.295 -0.1076 -0.4793  0.3465
 7843SOL     OW31143   1.300   1.130  -0.017 -0.0722  0.2175  0.2774
 7843SOL    HW231144   1.367   1.078   0.027 -1.4170  0.0041  2.1722
 7843SOL    HW331145   1.349   1.180  -0.083  1.4621 -2.3775 -0.6913
 7843SOL    MW431146   1.316   1.130  -0.020 -0.0472 -0.1530  0.3996
 7844SOL     OW31147   1.147   1.088   6.142 -0.5207  0.4684 -0.4627
 7844SOL    HW231148   1.212   1.021   6.123 -1.1540 -0.0741 -0.7255
 7844SOL    HW331149   1.199   1.168   6.155  0.2946 -0.1911  0.5217
 7844SOL    MW431150   1.163   1.090   6.141 -0.4967  0.3098 -0.3675
 7845SOL     OW31151   0.936   3.439   5.374 -0.2255 -0.6093  0.0664
 7845SOL    HW231152   0.931   3.366   5.436 -0.5043  0.0765  0.8640
 7845SOL    HW331153   0.944   3.517   5.429 -0.3522  0.0036 -0.7653
 7845SOL    MW431154   0.936   3.440   5.389 -0.2790 -0.4379  0.0619
 7846SOL     OW31155   3.423   5.652   4.042  0.0646 -0.4768 -0.1742
 7846SOL    HW231156   3.442   5.706   4.118 -0.9168 -0.2901 -0.0442
 7846SOL    HW331157   3.508   5.638   4.000  0.4424  0.4638  0.2535
 7846SOL    MW431158   3.437   5.657   4.046 -0.0150 -0.3281 -0.1006
 7847SOL     OW31159   5.180   6.132   0.463  0.1168  0.6155  0.2917
 7847SOL    HW231160   5.157   6.173   0.380  0.0315 -0.6095 -0.3106
 7847SOL    HW331161   5.148   6.192   0.529 -2.4158  0.2901 -0.5184
 7847SOL    MW431162   5.173   6.145   0.461 -0.2286  0.4110  0.1054
 7848SOL     OW31163   1.782   0.032   4.752 -0.5785  0.3645  0.1129
 7848SOL    HW231164   1.786   0.107   4.811 -2.5363 -0.1952  1.0487
 7848SOL    HW331165   1.869   0.028   4.712  0.6376  1.1665  2.4636
 7848SOL    MW431166   1.794   0.041   4.755 -0.6763  0.3965  0.5465
 7849SOL     OW31167   4.357   5.015   1.297 -0.1560 -0.0868  0.3211
 7849SOL    HW231168   4.363   4.931   1.252 -2.0591  0.6225 -1.3328
 7849SOL    HW331169   4.330   4.992   1.386 -0.7611 -1.2254 -0.1377
 7849SOL    MW431170   4.355   5.001   1.303 -0.4870 -0.1434  0.0424
 7850SOL     OW31171   3.473   2.882  -0.009 -0.0640  0.5191 -0.0594
 7850SOL    HW231172   3.405   2.924   0.044 -0.6745  0.2256 -0.5969
 7850SOL    HW331173   3.426   2.841  -0.081  0.3795 -1.9592  0.9505
 7850SOL    MW431174   3.458   2.882  -0.012 -0.0860  0.1534  0.0030
 7851SOL     OW31175   1.269   5.424   3.045  0.2548  0.2829  0.0781
 7851SOL    HW231176   1.344   5.481   3.030  1.6452 -1.4129  0.2611
 7851SOL    HW331177   1.283   5.388   3.133 -0.7116 -0.1247  0.0778
 7851SOL    MW431178   1.281   5.427   3.054  0.3108  0.0054  0.1022
 7852SOL     OW31179   1.302   4.755   3.815  0.4835 -0.2351 -0.1355
 7852SOL    HW231180   1.312   4.822   3.882 -0.1283  0.9780 -1.2171
 7852SOL    HW331181   1.213   4.766   3.783  0.9310 -0.4357 -1.5077
 7852SOL    MW431182   1.292   4.765   3.820  0.4618 -0.1015 -0.4592
 7853SOL     OW31183   0.631   0.176   0.111  0.0375 -0.3416  0.4117
 7853SOL    HW231184   0.541   0.145   0.122  0.3167 -1.2458  0.2394
 7853SOL    HW331185   0.685   0.101   0.135  0.7235 -0.3113 -0.9210
 7853SOL    MW431186   0.626   0.162   0.116  0.1648 -0.4569  0.2132
 7854SOL     OW31187   3.858   5.386   1.839  0.0429  0.0619 -0.1643
 7854SOL    HW231188   3.769   5.365   1.867  0.5581 -0.6450  1.0309
 7854SOL    HW331189   3.857   5.480   1.822 -1.3706 -0.2092 -1.9153
 7854SOL    MW431190   3.846   5.395   1.840 -0.0756 -0.0671 -0.2377
 7855SOL     OW31191   2.504   2.474   2.334 -0.5233 -0.4651  0.1501
 7855SOL    HW231192   2.419   2.443   2.364 -0.8466  0.2772  0.0231
 7855SOL    HW331193   2.487   2.515   2.250 -0.4507  1.6338  1.0835
 7855SOL    MW431194   2.491   2.476   2.327 -0.5564 -0.0903  0.2565
 7856SOL     OW31195   5.678   3.986   3.745 -0.0395 -0.1088 -0.4905
 7856SOL    HW231196   5.769   4.017   3.744 -0.1246  0.2206  0.7130
 7856SOL    HW331197   5.664   3.952   3.657  1.5250 -0.9811 -0.4373
 7856SOL    MW431198   5.688   3.986   3.733  0.1557 -0.1804 -0.3247
 7857SOL     OW31199   0.382   1.918   1.352 -0.0903  0.2440  0.6446
 7857SOL    HW231200   0.317   1.868   1.304 -1.6396  2.9748 -0.2885
 7857SOL    HW331201   0.362   1.902   1.444 -2.5242  1.4574  0.3847
 7857SOL    MW431202   0.371   1.909   1.358 -0.6159  0.7644  0.4872
 7858SOL     OW31203   1.318   2.861   3.365 -0.2978  0.3274  0.8756
 7858SOL    HW231204   1.223   2.858   3.354 -0.0177 -1.2727 -2.1555
 7858SOL    HW331205   1.346   2.770   3.354  1.5689  0.6790  2.2846
 7858SOL    MW431206   1.309   2.849   3.362 -0.0145  0.1627  0.6616
 7859SOL     OW31207   2.266   5.390   5.031  0.0770 -0.1914 -0.1097
 7859SOL    HW231208   2.300   5.391   4.942  1.2337 -0.6094  0.3084
 7859SOL    HW331209   2.343   5.376   5.086 -0.4757  0.9554  1.0205
 7859SOL    MW431210   2.281   5.389   5.027  0.1567 -0.0953  0.0946
 7860SOL     OW31211   5.588   0.959   5.887 -0.5456 -0.0105  0.2546
 7860SOL    HW231212   5.520   0.920   5.832  0.5788 -0.3408 -0.9718
 7860SOL    HW331213   5.621   1.033   5.836 -0.3076  0.4360  1.0376
 7860SOL    MW431214   5.583   0.964   5.873 -0.3658  0.0049  0.1961
 7861SOL     OW31215   4.957   1.281   2.819 -0.4423 -0.0437  0.3034
 7861SOL    HW231216   4.915   1.202   2.784  0.0393  0.5369 -1.6850
 7861SOL    HW331217   4.971   1.337   2.743  2.7488  0.3664  1.0596
 7861SOL    MW431218   4.953   1.278   2.804  0.0422  0.0870  0.1408
 7862SOL     OW31219   5.109   6.131   2.053  0.2480 -0.7078  0.4918
 7862SOL    HW231220   5.123   6.088   1.969 -2.0566  0.7982 -0.7863
 7862SOL    HW331221   5.051   6.071   2.101 -0.0252 -0.6754  0.2028
 7862SOL    MW431222   5.103   6.117   2.048 -0.0921 -0.5048  0.2850
 7863SOL     OW31223   1.229   3.328   1.231 -0.3168 -0.5747 -0.2194
 7863SOL    HW231224   1.136   3.308   1.245 -0.1525 -1.2014  0.0186
 7863SOL    HW331225   1.231   3.378   1.150 -0.9171 -0.1074  0.0501
 7863SOL    MW431226   1.217   3.332   1.222 -0.3743 -0.5957 -0.1524
 7864SOL     OW31227   6.355   4.270   5.887 -0.6329  0.1937 -0.8083
 7864SOL    HW231228   6.441   4.305   5.912 -0.1388 -0.1684 -1.9225
 7864SOL    HW331229   6.367   4.175   5.888 -1.3987  0.0893  0.2703
 7864SOL    MW431230   6.368   4.262   5.890 -0.6687  0.1321 -0.8130
 7865SOL     OW31231   6.365   3.605   0.916  0.5005 -0.4457  0.0548
 7865SOL    HW231232   6.453   3.632   0.893  0.3953 -0.4761 -0.4002
 7865SOL    HW331233   6.311   3.683   0.903  0.6744 -0.0357  1.6707
 7865SOL    MW431234   6.369   3.619   0.911  0.5096 -0.3956  0.2079
 7866SOL     OW31235   4.336   4.365   0.932  0.1810  0.0263  0.2555
 7866SOL    HW231236   4.349   4.444   0.879 -0.6592  0.5279  0.7719
 7866SOL    HW331237   4.418   4.317   0.925  0.5786  0.7790 -0.3506
 7866SOL    MW431238   4.349   4.369   0.924  0.1226  0.1918  0.2437
 7867SOL     OW31239   1.812   0.331   2.259  0.1551  0.1840  0.2061
 7867SOL    HW231240   1.744   0.311   2.324  1.9349 -1.2649  1.7258
 7867SOL    HW331241   1.851   0.413   2.289 -0.8019  0.9623 -0.6103
 7867SOL    MW431242   1.808   0.339   2.271  0.2637  0.0955  0.2989
 7868SOL     OW31243   5.621   5.390   4.959 -0.4339 -0.3762  0.3855
 7868SOL    HW231244   5.638   5.299   4.981  0.5596 -0.3060 -0.0402
 7868SOL    HW331245   5.629   5.437   5.041  1.1365 -0.3988  0.2676
 7868SOL    MW431246   5.624   5.384   4.973 -0.0956 -0.3699  0.3138
 7869SOL     OW31247   6.334   4.440   2.416  0.1753  0.4988  0.0824
 7869SOL    HW231248   6.284   4.402   2.488 -1.0672  1.2058 -0.3617
 7869SOL    HW331249   6.362   4.364   2.364  0.4166  0.0343  0.8635
 7869SOL    MW431250   6.331   4.425   2.418  0.0432  0.5308  0.1269
 7870SOL     OW31251   4.476   2.304   0.846 -0.1949  0.0077 -0.4554
 7870SOL    HW231252   4.452   2.278   0.757 -1.8055 -0.4203  0.0814
 7870SOL    HW331253   4.468   2.223   0.897  1.4189  0.0830 -0.0288
 7870SOL    MW431254   4.472   2.290   0.841 -0.1945 -0.0388 -0.3283
 7871SOL     OW31255   2.809   2.641   4.533  0.6255 -0.0852  0.3627
 7871SOL    HW231256   2.719   2.621   4.558  0.6908 -1.3287 -0.3496
 7871SOL    HW331257   2.838   2.704   4.599 -0.5346 -0.2016  1.0119
 7871SOL    MW431258   2.801   2.647   4.545  0.4810 -0.2646  0.3544
 7872SOL     OW31259   4.047   2.405   0.207 -0.6116 -0.6454  0.1492
 7872SOL    HW231260   4.116   2.380   0.145 -1.0238  0.4575 -0.8062
 7872SOL    HW331261   3.971   2.353   0.181 -0.3396 -1.3544  0.7598
 7872SOL    MW431262   4.046   2.395   0.195 -0.6301 -0.5934  0.1037
 7873SOL     OW31263   5.056   3.843   4.124 -0.3674  0.6210  0.7528
 7873SOL    HW231264   5.063   3.760   4.077  1.1919  1.0063  0.2526
 7873SOL    HW331265   4.992   3.826   4.193  0.6306 -1.2835  1.2791
 7873SOL    MW431266   5.048   3.830   4.127 -0.0300  0.4205  0.7562
 7874SOL     OW31267   2.632   2.651   5.629 -0.2450 -0.0558  0.0846
 7874SOL    HW231268   2.594   2.717   5.686  0.7609  1.5843 -1.0303
 7874SOL    HW331269   2.724   2.677   5.621  0.0163 -1.1915 -0.9370
 7874SOL    MW431270   2.639   2.664   5.635 -0.0778  0.0107 -0.1972
 7875SOL     OW31271   2.375   2.357   0.957  0.3917 -0.0195 -0.1625
 7875SOL    HW231272   2.364   2.435   0.904 -3.2573  0.8221  1.5167
 7875SOL    HW331273   2.400   2.389   1.043 -0.8993 -0.6440  0.4802
 7875SOL    MW431274   2.377   2.371   0.961 -0.2601  0.0091  0.1439
 7876SOL     OW31275   1.025   1.955   2.443 -0.9686 -0.2632  0.0554
 7876SOL    HW231276   1.043   1.863   2.460  3.1342  0.0745 -1.2079
 7876SOL    HW331277   1.033   1.997   2.528 -0.3574 -0.8104  0.2743
 7876SOL    MW431278   1.029   1.949   2.456 -0.3466 -0.2908 -0.0824
 7877SOL     OW31279   2.141   4.025   5.651  0.3441 -0.4249  0.0730
 7877SOL    HW231280   2.214   4.044   5.591 -0.3508 -0.2502 -0.7325
 7877SOL    HW331281   2.067   4.074   5.615 -0.1342 -0.4478  0.9923
 7877SOL    MW431282   2.141   4.034   5.638  0.1893 -0.4048  0.0880
 7878SOL     OW31283   2.125   6.393   2.013  0.0391 -0.3733 -0.6939
 7878SOL    HW231284   2.077   6.356   1.939 -1.9623  1.1506 -0.2347
 7878SOL    HW331285   2.080   6.475   2.033 -0.9731 -1.6731  3.5329
 7878SOL    MW431286   2.113   6.399   2.006 -0.3585 -0.3437 -0.0756
 7879SOL     OW31287   4.184   3.926   6.375 -0.4239  0.7276  0.2314
 7879SOL    HW231288   4.189   3.855   6.312 -1.9107  0.6059  0.2307
 7879SOL    HW331289   4.113   3.982   6.343 -1.8321  0.1880  2.2408
 7879SOL    MW431290   4.175   3.924   6.362 -0.8059  0.6403  0.4964
 7880SOL     OW31291   4.495   3.619   4.302  0.2471 -0.9505  0.0275
 7880SOL    HW231292   4.464   3.651   4.386 -3.3836  0.2145 -1.5730
 7880SOL    HW331293   4.509   3.697   4.249  2.4721 -1.6531 -0.5360
 7880SOL    MW431294   4.493   3.633   4.306  0.0616 -0.8895 -0.2580
 7881SOL     OW31295   4.631   3.426   3.865 -0.2299  0.1971  0.1336
 7881SOL    HW231296   4.624   3.332   3.880 -0.7736  0.0489 -0.9438
 7881SOL    HW331297   4.701   3.435   3.800  0.5216  0.6264  0.9862
 7881SOL    MW431298   4.639   3.415   3.858 -0.2025  0.2342  0.1039
 7882SOL     OW31299   0.239   3.661   0.861 -0.0366 -0.6234  0.2500
 7882SOL    HW231300   0.327   3.623   0.860 -0.6655 -2.1583 -0.3816
 7882SOL    HW331301   0.213   3.662   0.768  0.3859  2.5290  0.0595
 7882SOL    MW431302   0.247   3.656   0.848 -0.0638 -0.4100  0.1415
 7883SOL     OW31303   5.132   1.599   3.930 -0.1858  0.3390 -0.0733
 7883SOL    HW231304   5.179   1.597   3.846 -0.6142  2.0066 -0.3825
 7883SOL    HW331305   5.201   1.597   3.996  0.1545 -1.2511 -0.4128
 7883SOL    MW431306   5.147   1.598   3.927 -0.1974  0.3492 -0.1589
 7884SOL     OW31307   2.246   2.344   6.341  0.6021 -0.0845 -0.5521
 7884SOL    HW231308   2.335   2.314   6.358  0.2830 -0.2811  0.8631
 7884SOL    HW331309   2.247   2.370   6.249  2.6184  1.5880 -0.1403
 7884SOL    MW431310   2.258   2.344   6.331  0.8260  0.1102 -0.3110
 7885SOL     OW31311   3.641   1.366   4.663 -0.1274  0.2703 -0.6820
 7885SOL    HW231312   3.567   1.424   4.682  0.2684  0.4208  0.4828
 7885SOL    HW331313   3.652   1.372   4.568 -2.4774 -0.8368 -1.0964
 7885SOL    MW431314   3.633   1.375   4.653 -0.3852  0.1441 -0.5830
 7886SOL     OW31315   2.562   3.345   5.411  0.3104 -0.4800  0.1393
 7886SOL    HW231316   2.507   3.336   5.488  0.8594  0.4547  0.6557
 7886SOL    HW331317   2.544   3.433   5.379  0.1550 -0.8250 -0.7618
 7886SOL    MW431318   2.552   3.355   5.417  0.3623 -0.4022  0.0885
 7887SOL     OW31319   3.678   5.299   4.959  0.0514  0.2665  0.3407
 7887SOL    HW231320   3.621   5.376   4.961  0.0291  0.2519  0.2544
 7887SOL    HW331321   3.628   5.234   4.909 -0.0101  0.1346  0.5680
 7887SOL    MW431322   3.664   5.301   4.953  0.0404  0.2471  0.3593
 7888SOL     OW31323   5.293   0.039   0.392 -0.4459 -0.2795  0.2024
 7888SOL    HW231324   5.345  -0.011   0.455 -0.4018 -0.8595 -0.2815
 7888SOL    HW331325   5.221   0.076   0.444 -0.4192 -0.7617  0.5920
 7888SOL    MW431326   5.290   0.037   0.407 -0.4366 -0.4196  0.1899
 7889SOL     OW31327   4.233   5.479   4.862 -0.2849 -0.8010  0.0473
 7889SOL    HW231328   4.246   5.535   4.939  0.6444 -1.4052  0.3487
 7889SOL    HW331329   4.216   5.392   4.898 -1.4627 -0.7822 -0.4240
 7889SOL    MW431330   4.232   5.475   4.877 -0.3177 -0.8782  0.0249
 7890SOL     OW31331   5.513   1.423   6.113 -0.0046  0.1779 -0.6764
 7890SOL    HW231332   5.495   1.473   6.192  0.0367  0.0558 -0.5900
 7890SOL    HW331333   5.603   1.392   6.123 -0.7799 -1.9399  0.3856
 7890SOL    MW431334   5.523   1.426   6.125 -0.1014 -0.1176 -0.5249
 7891SOL     OW31335   0.734   3.154   0.133  0.1774  0.8262 -0.2149
 7891SOL    HW231336   0.691   3.177   0.051  1.4874  0.4901 -1.0372
 7891SOL    HW331337   0.692   3.073   0.161  0.9911 -0.1232 -1.6046
 7891SOL    MW431338   0.723   3.147   0.126  0.4576  0.6566 -0.5067
 7892SOL     OW31339   0.995   2.533   5.492  0.2735  0.5735 -0.4292
 7892SOL    HW231340   0.972   2.616   5.534  1.1221 -0.0928  1.4830
 7892SOL    HW331341   0.920   2.476   5.510  0.7567  0.2038  0.4869
 7892SOL    MW431342   0.982   2.537   5.500  0.4492  0.4368 -0.0561
 7893SOL     OW31343   6.071   5.119   3.627  0.5385  0.2686 -0.1079
 7893SOL    HW231344   6.127   5.191   3.656  0.6082  0.4843 -0.7494
 7893SOL    HW331345   6.092   5.109   3.534  0.6632 -0.7129  0.0196
 7893SOL    MW431346   6.081   5.127   3.618  0.5642  0.1675 -0.1757
 7894SOL     OW31347   5.981   5.742   3.261  0.3045  0.5841  0.0256
 7894SOL    HW231348   6.018   5.820   3.220  1.5670  0.1532  0.3107
 7894SOL    HW331349   6.039   5.723   3.335 -0.0596 -0.5368  0.0491
 7894SOL    MW431350   5.993   5.750   3.265  0.4230  0.3793  0.0663
 7895SOL     OW31351   4.948   3.656   2.420  0.1737 -0.5924 -0.0847
 7895SOL    HW231352   4.927   3.686   2.332 -0.4551 -1.6672 -0.3186
 7895SOL    HW331353   4.867   3.669   2.470  0.9318  1.3521  0.7404
 7895SOL    MW431354   4.934   3.662   2.415  0.1908 -0.4776 -0.0067
 7896SOL     OW31355   6.380   3.071   6.396  0.0265 -0.6754  0.4381
 7896SOL    HW231356   6.460   3.053   6.445 -0.4921 -1.1136  1.1492
 7896SOL    HW331357   6.323   3.115   6.459  0.3601  1.2986 -0.5649
 7896SOL    MW431358   6.383   3.075   6.411  0.0021 -0.4728  0.3996
 7897SOL     OW31359   5.708   3.588   4.969 -0.2371  0.0577  0.0620
 7897SOL    HW231360   5.651   3.647   4.920 -0.4462  0.1530  0.4170
 7897SOL    HW331361   5.651   3.515   4.994  0.3898 -1.1668 -1.8221
 7897SOL    MW431362   5.693   3.586   4.966 -0.1820 -0.0913 -0.1397
 7898SOL     OW31363   5.112   1.743   1.267  0.2472 -0.4911 -0.3199
 7898SOL    HW231364   5.162   1.663   1.282  1.8643  0.2433 -1.4805
 7898SOL    HW331365   5.120   1.792   1.349  2.1642 -0.0466 -0.7249
 7898SOL    MW431366   5.120   1.739   1.280  0.7135 -0.3355 -0.5265
 7899SOL     OW31367   4.471   4.475   5.076  0.6089 -0.4000 -0.2925
 7899SOL    HW231368   4.513   4.516   5.152 -0.7159  1.1395 -0.3470
 7899SOL    HW331369   4.433   4.548   5.027  1.3311 -1.3566 -2.4117
 7899SOL    MW431370   4.472   4.490   5.079  0.5294 -0.3231 -0.5793
 7900SOL     OW31371   6.219   4.436   6.096 -0.6557  0.3253  0.0364
 7900SOL    HW231372   6.188   4.519   6.060  2.4348  1.4372 -0.4537
 7900SOL    HW331373   6.262   4.393   6.022  0.5773 -0.1636  1.0074
 7900SOL    MW431374   6.221   4.441   6.081 -0.0853  0.4075  0.0998
 7901SOL     OW31375   0.758   4.250   3.251 -0.1605  0.1744 -0.5240
 7901SOL    HW231376   0.813   4.294   3.186 -0.5773  0.4943 -0.6630
 7901SOL    HW331377   0.669   4.257   3.216 -0.5219  1.1985  0.5353
 7901SOL    MW431378   0.753   4.257   3.238 -0.2632  0.3517 -0.4026
 7902SOL     OW31379   2.952   0.144   3.117 -0.3407  0.1274  0.3449
 7902SOL    HW231380   2.883   0.078   3.121 -0.4166  0.0755 -1.1955
 7902SOL    HW331381   3.021   0.103   3.065 -0.7545  1.5338 -1.4013
 7902SOL    MW431382   2.952   0.130   3.110 -0.4053  0.3061 -0.0887
 7903SOL     OW31383   1.383   0.193   0.782 -0.4522 -0.5862  0.3930
 7903SOL    HW231384   1.378   0.203   0.877  1.4663  0.4293  0.4476
 7903SOL    HW331385   1.372   0.099   0.767 -2.2648 -0.6042  1.4432
 7903SOL    MW431386   1.381   0.182   0.792 -0.4383 -0.4546  0.5388
 7904SOL     OW31387   3.154   3.996   1.982 -0.2464 -0.1853  0.0532
 7904SOL    HW231388   3.065   4.030   1.996 -0.0045  0.7798 -0.6381
 7904SOL    HW331389   3.141   3.911   1.939 -0.8404 -0.1963  0.2471
 7904SOL    MW431390   3.140   3.989   1.978 -0.2929 -0.0594 -0.0125
 7905SOL     OW31391   4.330   0.954   4.612  0.4366  0.0289  0.3723
 7905SOL    HW231392   4.250   1.002   4.633 -0.7383 -1.6455 -0.0556
 7905SOL    HW331393   4.387   1.019   4.571 -0.0697  1.6315  2.0942
 7905SOL    MW431394   4.327   0.969   4.609  0.2148  0.0194  0.5430
 7906SOL     OW31395   5.521   1.863   3.522 -0.8684 -0.0734  0.0620
 7906SOL    HW231396   5.584   1.932   3.547 -1.3747 -0.3125  2.1062
 7906SOL    HW331397   5.545   1.842   3.432  1.9547 -0.0966  0.7266
 7906SOL    MW431398   5.533   1.869   3.513 -0.5627 -0.1080  0.4194
 7907SOL     OW31399   1.462   4.338   5.978  0.3953 -0.5720 -0.1413
 7907SOL    HW231400   1.500   4.327   6.066 -1.0334 -0.5905  0.5116
 7907SOL    HW331401   1.529   4.304   5.919  1.6505 -0.0054  0.8839
 7907SOL    MW431402   1.476   4.332   5.982  0.3724 -0.4997  0.0801
 7908SOL     OW31403   1.433   1.229   1.451  0.6296 -0.1146 -0.4020
 7908SOL    HW231404   1.419   1.203   1.542 -1.8055  0.9332 -0.4169
 7908SOL    HW331405   1.429   1.325   1.452  0.7954 -0.0731 -1.5862
 7908SOL    MW431406   1.431   1.238   1.463  0.3302  0.0291 -0.5602
 7909SOL     OW31407   2.859   1.928   4.924  0.9194  0.5743 -0.2626
 7909SOL    HW231408   2.819   1.980   4.994 -0.1994  1.0503 -1.2038
 7909SOL    HW331409   2.877   1.844   4.964 -1.6723  0.0998  0.1198
 7909SOL    MW431410   2.856   1.924   4.939  0.4299  0.5745 -0.3363
 7910SOL     OW31411   6.336   6.186   1.343 -0.3681  0.3940  0.3356
 7910SOL    HW231412   6.270   6.208   1.409  0.1331  3.5797 -0.0636
 7910SOL    HW331413   6.299   6.219   1.261  1.2533  1.3992 -0.0364
 7910SOL    MW431414   6.322   6.193   1.341 -0.0880  0.9469  0.2338
 7911SOL     OW31415   1.331   0.044   2.556  0.5359  0.3361  0.0118
 7911SOL    HW231416   1.304   0.105   2.626  0.3426  0.0245  0.2090
 7911SOL    HW331417   1.413   0.006   2.589  0.6292  0.4471 -0.0889
 7911SOL    MW431418   1.338   0.047   2.570  0.5227  0.3096  0.0246
 7912SOL     OW31419   2.892   1.645   5.731 -0.2200  0.3768  0.1239
 7912SOL    HW231420   2.863   1.568   5.683 -0.8362 -0.8696  2.3637
 7912SOL    HW331421   2.967   1.677   5.682  0.5806 -2.1476 -0.4512
 7912SOL    MW431422   2.898   1.639   5.719 -0.1957 -0.1207  0.3435
 7913SOL     OW31423   1.820   2.167   6.015 -0.4014 -0.1971 -0.4005
 7913SOL    HW231424   1.762   2.099   6.048 -0.6633  0.0697 -0.2990
 7913SOL    HW331425   1.850   2.212   6.094  0.8426 -1.0417 -0.3673
 7913SOL    MW431426   1.817   2.164   6.030 -0.2718 -0.2733 -0.3828
 7914SOL     OW31427   3.093   5.035   5.857 -0.8524 -0.5540 -0.3716
 7914SOL    HW231428   3.135   5.056   5.774  0.4793 -1.3779  0.0504
 7914SOL    HW331429   3.006   5.003   5.833  0.0622 -2.2926 -1.6097
 7914SOL    MW431430   3.087   5.033   5.843 -0.5560 -0.8921 -0.4793
 7915SOL     OW31431   4.249   5.664   5.069  0.0214  0.2904  0.1109
 7915SOL    HW231432   4.162   5.658   5.110  0.1807  0.7888  0.5371
 7915SOL    HW331433   4.305   5.610   5.124  0.3904  1.5308  1.0177
 7915SOL    MW431434   4.245   5.656   5.082  0.0911  0.5198  0.2867
 7916SOL     OW31435   1.054   1.098   3.217  0.2311 -0.5346 -0.0254
 7916SOL    HW231436   0.975   1.147   3.196 -0.8634 -2.4248 -0.5777
 7916SOL    HW331437   1.036   1.059   3.303 -0.1178 -2.2027 -0.8137
 7916SOL    MW431438   1.041   1.099   3.226  0.0406 -1.0041 -0.2023
 7917SOL     OW31439   0.416   2.964   1.356  0.3712  1.0201  0.3629
 7917SOL    HW231440   0.423   2.989   1.448 -0.5740  1.6340  0.2813
 7917SOL    HW331441   0.357   2.888   1.356  0.3903  1.0054  0.2602
 7917SOL    MW431442   0.409   2.957   1.368  0.2490  1.0991  0.3386
 7918SOL     OW31443   5.616   4.791   5.154  0.0344 -0.1219  0.2402
 7918SOL    HW231444   5.524   4.812   5.164  0.2667  0.4120  1.4422
 7918SOL    HW331445   5.628   4.709   5.202 -0.1335 -1.1257 -1.3589
 7918SOL    MW431446   5.606   4.783   5.161  0.0429 -0.1839  0.1878
 7919SOL     OW31447   5.917   1.410   3.130 -0.1594  0.1503  0.0914
 7919SOL    HW231448   5.925   1.437   3.038  0.7279 -0.4074 -0.0033
 7919SOL    HW331449   5.987   1.347   3.143 -1.1212 -0.8183  0.7907
 7919SOL    MW431450   5.927   1.406   3.120 -0.1692 -0.0511  0.1711
 7920SOL     OW31451   5.439   2.159   5.619  0.3097  0.5390 -0.3580
 7920SOL    HW231452   5.436   2.231   5.682  0.3173  0.2095  0.0146
 7920SOL    HW331453   5.417   2.201   5.535 -1.2797  0.6902  0.1013
 7920SOL    MW431454   5.436   2.174   5.616  0.1010  0.5154 -0.2482
 7921SOL     OW31455   2.775   2.112   5.099 -0.2397 -0.5083 -0.1300
 7921SOL    HW231456   2.682   2.128   5.117  0.1634  0.6064  1.0642
 7921SOL    HW331457   2.803   2.187   5.047  0.2438 -0.2965  0.4285
 7921SOL    MW431458   2.766   2.124   5.095 -0.1227 -0.3333  0.1012
 7922SOL     OW31459   0.493   4.251   0.863  0.4829 -0.1378 -0.5546
 7922SOL    HW231460   0.441   4.311   0.918  1.1166 -0.0656 -0.0216
 7922SOL    HW331461   0.467   4.273   0.774  0.0822  0.3535 -0.3279
 7922SOL    MW431462   0.482   4.262   0.859  0.5136 -0.0634 -0.4543
 7923SOL     OW31463   2.358   4.134   6.317 -0.2955 -0.0541  0.0622
 7923SOL    HW231464   2.350   4.201   6.385  0.3747  0.6756 -0.5536
 7923SOL    HW331465   2.276   4.140   6.268 -0.1767  0.4442 -0.0873
 7923SOL    MW431466   2.346   4.144   6.320 -0.1914  0.1079 -0.0388
 7924SOL     OW31467   3.843   5.657   1.360 -0.1733 -0.1524 -0.0817
 7924SOL    HW231468   3.914   5.637   1.299 -1.3548 -1.1664 -1.1682
 7924SOL    HW331469   3.774   5.595   1.339 -0.2847 -1.2567  2.9760
 7924SOL    MW431470   3.843   5.646   1.349 -0.3439 -0.4319  0.1783
 7925SOL     OW31471   2.952   6.033   1.819 -0.1317 -0.3384 -0.0107
 7925SOL    HW231472   3.015   6.040   1.748  0.5047  2.1494  0.7113
 7925SOL    HW331473   3.003   5.999   1.893  0.7826  2.6064  0.8682
 7925SOL    MW431474   2.967   6.029   1.819  0.0729  0.3783  0.2005
 7926SOL     OW31475   0.195   2.483   4.029 -0.1506 -0.1423 -0.0596
 7926SOL    HW231476   0.118   2.486   4.086 -0.2994  1.7742 -0.2750
 7926SOL    HW331477   0.250   2.414   4.065 -0.5496  0.5527  1.9875
 7926SOL    MW431478   0.192   2.474   4.041 -0.2229  0.2023  0.1821
 7927SOL     OW31479   5.050   5.097   5.463 -0.4806 -0.1541 -0.4384
 7927SOL    HW231480   4.956   5.086   5.475 -0.4357 -3.7547 -1.9652
 7927SOL    HW331481   5.083   5.123   5.549 -2.7215  0.1716  0.3827
 7927SOL    MW431482   5.042   5.099   5.476 -0.7703 -0.5862 -0.5315
 7928SOL     OW31483   4.398   4.020   0.439  0.3658 -0.5973 -0.1907
 7928SOL    HW231484   4.381   4.092   0.379  0.3112  0.6650  1.2844
 7928SOL    HW331485   4.323   3.961   0.428 -1.6295  1.4764  1.2785
 7928SOL    MW431486   4.386   4.022   0.429  0.0954 -0.1572  0.1977
 7929SOL     OW31487   5.105   5.240   3.604 -0.0897  0.0362  0.1694
 7929SOL    HW231488   5.194   5.229   3.571  0.3921  0.3935  1.2925
 7929SOL    HW331489   5.073   5.320   3.561  0.4430  0.3712  0.3854
 7929SOL    MW431490   5.112   5.249   3.594  0.0442  0.1275  0.3461
 7930SOL     OW31491   3.113   5.706   1.864 -0.3000 -0.1906  0.1084
 7930SOL    HW231492   3.153   5.640   1.920 -0.8817  0.7200  1.6681
 7930SOL    HW331493   3.019   5.688   1.869 -0.3355 -0.3535 -0.9434
 7930SOL    MW431494   3.106   5.695   1.872 -0.3815 -0.0920  0.1754
 7931SOL     OW31495   3.255   5.040   5.629  0.5866  0.5298  0.1336
 7931SOL    HW231496   3.239   5.122   5.584 -0.3480  0.0995 -0.3501
 7931SOL    HW331497   3.228   4.972   5.567 -0.2310 -0.0863  1.1275
 7931SOL    MW431498   3.249   5.042   5.615  0.3554  0.3917  0.2009
 7932SOL     OW31499   1.146   1.299   0.944 -0.0357 -0.3594  0.1945
 7932SOL    HW231500   1.235   1.270   0.925  0.6131  0.0772  2.3376
 7932SOL    HW331501   1.120   1.250   1.022 -1.6724 -0.4191 -0.3334
 7932SOL    MW431502   1.154   1.288   0.951 -0.1661 -0.3097  0.4076
 7933SOL     OW31503   2.851   2.836   2.841 -0.2443  0.3172 -0.4569
 7933SOL    HW231504   2.775   2.817   2.895 -0.2009 -0.2728 -0.5945
 7933SOL    HW331505   2.876   2.751   2.805  0.9585  0.3542  0.2258
 7933SOL    MW431506   2.845   2.823   2.844 -0.0799  0.2443 -0.3850
 7934SOL     OW31507   2.410   0.737   3.595 -0.1069 -0.4569 -0.3013
 7934SOL    HW231508   2.341   0.672   3.584 -0.1482 -0.3144 -0.9022
 7934SOL    HW331509   2.397   0.798   3.523  0.0028  0.1557  0.1961
 7934SOL    MW431510   2.399   0.736   3.584 -0.0979 -0.3572 -0.3149
 7935SOL     OW31511   2.301   3.262   2.391 -0.1665  0.0382 -0.3051
 7935SOL    HW231512   2.310   3.263   2.486 -1.6402  1.3454 -0.1161
 7935SOL    HW331513   2.327   3.350   2.364 -0.3946 -0.1051 -1.0168
 7935SOL    MW431514   2.305   3.274   2.400 -0.3910  0.1917 -0.3741
 7936SOL     OW31515   2.592   2.833   0.706 -0.1875 -0.3561  0.1548
 7936SOL    HW231516   2.578   2.748   0.665  1.0704 -0.5298  0.0410
 7936SOL    HW331517   2.632   2.813   0.791 -2.1622  0.0317  1.2348
 7936SOL    MW431518   2.595   2.819   0.712 -0.2821 -0.3279  0.2822
 7937SOL     OW31519   2.058   0.721   0.797 -0.1152 -0.7809 -0.3867
 7937SOL    HW231520   2.152   0.735   0.798  0.0439 -1.7887  1.0415
 7937SOL    HW331521   2.037   0.711   0.704  1.3196 -1.4094 -0.6698
 7937SOL    MW431522   2.067   0.721   0.785  0.0951 -0.9968 -0.2356
 7938SOL     OW31523   6.246   4.237   4.514  0.1504  0.2131 -0.3793
 7938SOL    HW231524   6.226   4.269   4.602  1.9294 -1.2888  0.6239
 7938SOL    HW331525   6.317   4.293   4.483  1.5333 -1.0755  0.3617
 7938SOL    MW431526   6.253   4.249   4.521  0.5676 -0.1550 -0.1492
 7939SOL     OW31527   2.950   2.869   1.383 -0.8397  0.5867 -0.1790
 7939SOL    HW231528   2.957   2.814   1.306 -0.0880  0.3694  0.0396
 7939SOL    HW331529   3.038   2.904   1.396 -0.9136  0.4788  0.6817
 7939SOL    MW431530   2.963   2.867   1.374 -0.7503  0.5438 -0.0366
 7940SOL     OW31531   3.846   4.911   4.205 -0.5107  0.0888 -0.0264
 7940SOL    HW231532   3.810   4.872   4.284 -0.2509  1.5192  0.8270
 7940SOL    HW331533   3.850   5.005   4.224  0.6734  0.3263 -1.2824
 7940SOL    MW431534   3.842   4.918   4.218 -0.3202  0.3088 -0.0795
 7941SOL     OW31535   3.207   1.543   2.807  0.0451  0.1113 -0.5957
 7941SOL    HW231536   3.262   1.545   2.728 -1.0561  2.8858 -1.4160
 7941SOL    HW331537   3.249   1.604   2.867  0.6884 -1.7319  0.9231
 7941SOL    MW431538   3.220   1.551   2.804 -0.0153  0.2342 -0.5035
 7942SOL     OW31539   2.922   5.949   1.378  0.4000 -0.6833 -0.3788
 7942SOL    HW231540   3.011   5.963   1.345  1.2918 -0.5578  1.9172
 7942SOL    HW331541   2.878   6.033   1.365  0.5840 -0.7434 -1.5234
 7942SOL    MW431542   2.928   5.962   1.372  0.5420 -0.6747 -0.2269
 7943SOL     OW31543   2.272   3.538   5.495  0.6183 -0.3695 -0.1876
 7943SOL    HW231544   2.246   3.610   5.436  1.2712 -0.4379 -0.5591
 7943SOL    HW331545   2.246   3.569   5.582  2.6580  1.1912 -0.0756
 7943SOL    MW431546   2.265   3.552   5.499  0.9736 -0.1726 -0.2218
 7944SOL     OW31547   4.704   2.841   5.757  0.2859  0.1431  0.2346
 7944SOL    HW231548   4.761   2.909   5.795  1.0331  0.2512 -1.0121
 7944SOL    HW331549   4.757   2.762   5.759  0.5316  0.2531 -0.9787
 7944SOL    MW431550   4.719   2.840   5.762  0.4169  0.1719 -0.0899
 7945SOL     OW31551   3.668   5.563   4.329 -0.3234  0.2445  0.2274
 7945SOL    HW231552   3.588   5.575   4.277 -0.0366 -1.1544 -0.5872
 7945SOL    HW331553   3.696   5.652   4.349  0.0063  0.9421 -2.7535
 7945SOL    MW431554   3.661   5.576   4.324 -0.2420  0.1520 -0.2734
 7946SOL     OW31555   4.929   3.135   0.754 -0.2509 -0.2824  0.3646
 7946SOL    HW231556   4.846   3.159   0.712  0.3881 -3.0738 -2.9104
 7946SOL    HW331557   4.906   3.119   0.845 -2.4579  2.7559  0.4906
 7946SOL    MW431558   4.915   3.136   0.760 -0.4578 -0.2498 -0.0509
 7947SOL     OW31559   5.557   0.540   0.694  0.1527 -0.3050  0.3148
 7947SOL    HW231560   5.476   0.500   0.663 -0.7075  1.5218  0.1272
 7947SOL    HW331561   5.529   0.611   0.751  1.5844  1.2545 -0.8357
 7947SOL    MW431562   5.543   0.544   0.698  0.2281  0.1418  0.1382
 7948SOL     OW31563   1.109   3.857   5.713  0.4555 -0.1076  0.2147
 7948SOL    HW231564   1.092   3.944   5.677 -0.8806 -0.3178  0.2729
 7948SOL    HW331565   1.106   3.869   5.808  2.8895  0.2424  0.3017
 7948SOL    MW431566   1.106   3.870   5.721  0.6003 -0.0892  0.2339
 7949SOL     OW31567   4.349   5.635   1.509 -0.2700  0.0834  0.0558
 7949SOL    HW231568   4.385   5.571   1.448  1.3080  0.3722  0.6356
 7949SOL    HW331569   4.280   5.588   1.556  0.1075 -0.8420 -0.2974
 7949SOL    MW431570   4.345   5.620   1.507 -0.0120 -0.0006  0.0857
 7950SOL     OW31571   5.969   3.819   6.150  0.5721  0.2779 -0.1076
 7950SOL    HW231572   6.037   3.756   6.176  1.4268  1.5128  0.7619
 7950SOL    HW331573   5.951   3.869   6.229 -1.6655 -0.2538 -0.2312
 7950SOL    MW431574   5.976   3.818   6.164  0.3896  0.3707 -0.0092
 7951SOL     OW31575   4.260   5.227   5.287  0.2423 -0.2249 -0.3577
 7951SOL    HW231576   4.207   5.153   5.318  0.1189 -0.4788 -1.1676
 7951SOL    HW331577   4.197   5.287   5.248  0.4212  0.0194 -0.2748
 7951SOL    MW431578   4.245   5.225   5.286  0.2496 -0.2262 -0.4536
 7952SOL     OW31579   1.843   3.524   4.654  0.5522 -0.2840 -0.2835
 7952SOL    HW231580   1.913   3.584   4.682  0.0318 -0.1473  0.7970
 7952SOL    HW331581   1.774   3.536   4.720  0.4893 -2.1679  0.0302
 7952SOL    MW431582   1.843   3.534   4.666  0.4753 -0.5145 -0.0995
 7953SOL     OW31583   5.044   4.330   2.412  0.2331  0.4602  0.0610
 7953SOL    HW231584   5.089   4.268   2.355  1.5997  2.5131 -1.2023
 7953SOL    HW331585   5.022   4.404   2.356 -1.2144  1.2461  1.5501
 7953SOL    MW431586   5.047   4.332   2.397  0.2224  0.8347  0.0908
 7954SOL     OW31587   4.163   5.106   0.437  0.1573 -0.3651  0.3333
 7954SOL    HW231588   4.167   5.201   0.441  0.0633 -0.3667  0.4933
 7954SOL    HW331589   4.241   5.076   0.484  0.8180 -0.3595 -0.7443
 7954SOL    MW431590   4.174   5.114   0.444  0.2321 -0.3646  0.2123
 7955SOL     OW31591   4.132   1.698   4.960 -0.2320 -0.5072 -0.2788
 7955SOL    HW231592   4.227   1.686   4.964 -0.0225  1.1449  1.6098
 7955SOL    HW331593   4.097   1.610   4.952  1.4170 -1.3938  1.3654
 7955SOL    MW431594   4.140   1.685   4.959  0.0132 -0.4062  0.1873
 7956SOL     OW31595   4.315   4.395   0.468  0.1006 -0.4548 -0.5599
 7956SOL    HW231596   4.247   4.447   0.424 -0.0488  1.6930  1.9327
 7956SOL    HW331597   4.266   4.337   0.526  0.3161  0.3088  0.4149
 7956SOL    MW431598   4.299   4.394   0.469  0.1093 -0.0707 -0.1024
 7957SOL     OW31599   4.299   1.364   0.990  0.3952  0.2049  0.2158
 7957SOL    HW231600   4.317   1.441   1.043 -0.1614 -0.1572  0.9551
 7957SOL    HW331601   4.204   1.353   0.994  0.1442  1.0868 -2.1914
 7957SOL    MW431602   4.289   1.373   0.998  0.2887  0.2735 -0.0043
 7958SOL     OW31603   5.552   5.518   1.055  0.2078  0.0030  0.0248
 7958SOL    HW231604   5.595   5.477   0.980  0.9895  0.5071  0.1892
 7958SOL    HW331605   5.584   5.609   1.054 -0.1740  0.1465  0.6660
 7958SOL    MW431606   5.562   5.525   1.045  0.2605  0.0884  0.1311
 7959SOL     OW31607   0.177   5.524   5.725  0.0411  0.2404  0.9969
 7959SOL    HW231608   0.134   5.439   5.736  0.4254 -0.0202  0.5078
 7959SOL    HW331609   0.253   5.519   5.782  0.3786  0.0353  0.5322
 7959SOL    MW431610   0.181   5.512   5.734  0.1364  0.1790  0.8710
 7960SOL     OW31611   3.177   5.246   4.438 -0.2791  0.0410  0.3189
 7960SOL    HW231612   3.267   5.213   4.429 -0.0827  0.8332 -0.7425
 7960SOL    HW331613   3.187   5.339   4.456 -0.8720 -0.1564  1.8096
 7960SOL    MW431614   3.191   5.254   4.439 -0.3314  0.1195  0.3756
 7961SOL     OW31615   6.196   3.802   0.472  0.0059 -0.0064 -0.2841
 7961SOL    HW231616   6.188   3.747   0.550 -1.8796  0.2714 -0.2341
 7961SOL    HW331617   6.277   3.852   0.485  0.5044 -1.0648  0.7632
 7961SOL    MW431618   6.205   3.801   0.484 -0.1771 -0.1094 -0.1393
 7962SOL     OW31619   0.694   0.802   0.271  0.5177  0.2356 -0.4335
 7962SOL    HW231620   0.766   0.865   0.271 -1.0902  2.1349 -0.1989
 7962SOL    HW331621   0.691   0.770   0.180  0.5183  1.5181 -0.9065
 7962SOL    MW431622   0.703   0.806   0.259  0.3056  0.6554 -0.4649
 7963SOL     OW31623   1.351   6.053   1.695  0.3267  0.1602  0.2113
 7963SOL    HW231624   1.385   5.989   1.758 -0.5688 -1.4872 -0.8940
 7963SOL    HW331625   1.409   6.129   1.704  1.4745 -0.8196  1.5473
 7963SOL    MW431626   1.363   6.055   1.704  0.3600 -0.1864  0.2418
 7964SOL     OW31627   0.539   4.388   2.051 -0.5222  0.0389  0.2995
 7964SOL    HW231628   0.598   4.328   2.097 -1.5910 -0.3787  1.1430
 7964SOL    HW331629   0.547   4.363   1.959  1.0135  0.3401  0.3197
 7964SOL    MW431630   0.548   4.377   2.045 -0.4606  0.0235  0.4135
 7965SOL     OW31631   5.116   2.517   0.251  0.0341  0.4641 -0.5725
 7965SOL    HW231632   5.196   2.472   0.223  0.7429  0.9333  0.6007
 7965SOL    HW331633   5.125   2.605   0.216  0.1048  0.5565 -0.3255
 7965SOL    MW431634   5.128   2.523   0.243  0.1369  0.5382 -0.3851
 7966SOL     OW31635   5.462   4.462   3.568  0.3390 -0.2160  0.2886
 7966SOL    HW231636   5.446   4.523   3.496  0.2316  1.1782  1.4593
 7966SOL    HW331637   5.552   4.479   3.594  0.0060  0.1178  1.2412
 7966SOL    MW431638   5.471   4.472   3.562  0.2809  0.0120  0.5688
 7967SOL     OW31639   0.641   5.724   4.837  0.3006 -0.3305  0.4399
 7967SOL    HW231640   0.696   5.801   4.822  1.3379 -0.7655  1.7853
 7967SOL    HW331641   0.628   5.723   4.932  0.8900 -2.1956  0.5287
 7967SOL    MW431642   0.646   5.734   4.848  0.5153 -0.6340  0.6291
 7968SOL     OW31643   2.374   1.704   0.114 -0.4593 -0.6092 -0.1399
 7968SOL    HW231644   2.356   1.722   0.206  2.1714 -0.5907  0.4477
 7968SOL    HW331645   2.425   1.780   0.084  1.7346 -2.1337 -0.5531
 7968SOL    MW431646   2.379   1.717   0.122  0.1772 -0.8079 -0.1169
 7969SOL     OW31647   4.525   0.544   0.073  0.7852 -0.1461 -0.4309
 7969SOL    HW231648   4.451   0.486   0.053 -0.6620  0.9200  1.4605
 7969SOL    HW331649   4.550   0.580  -0.012 -0.1286 -1.3874 -1.2724
 7969SOL    MW431650   4.518   0.541   0.059  0.4737 -0.1692 -0.2924
 7970SOL     OW31651   4.290   0.393   0.012 -0.4155  0.3717 -0.0034
 7970SOL    HW231652   4.257   0.468  -0.037 -0.0609 -0.5585 -1.7593
 7970SOL    HW331653   4.251   0.401   0.099  0.2583  3.0206  0.1265
 7970SOL    MW431654   4.281   0.404   0.017 -0.2798  0.5984 -0.2179
 7971SOL     OW31655   3.972   4.482   2.647 -0.1504  0.1724  0.3501
 7971SOL    HW231656   3.951   4.459   2.737 -0.1297 -0.0038  0.3109
 7971SOL    HW331657   4.062   4.454   2.635 -0.7343 -1.5849 -0.2990
 7971SOL    MW431658   3.981   4.475   2.657 -0.2247 -0.0827  0.2593
 7972SOL     OW31659   2.759   1.357   1.668  0.2445 -0.3597  0.1489
 7972SOL    HW231660   2.763   1.449   1.695  0.1110 -0.2540 -0.1752
 7972SOL    HW331661   2.678   1.324   1.706 -0.3279 -0.0048 -0.7235
 7972SOL    MW431662   2.749   1.365   1.676  0.1514 -0.2989 -0.0090
 7973SOL     OW31663   6.362   3.415   5.783 -0.2579 -0.0339 -0.1003
 7973SOL    HW231664   6.448   3.422   5.824 -0.2567  0.1902 -0.1397
 7973SOL    HW331665   6.308   3.480   5.829 -0.3044  0.0919 -0.3305
 7973SOL    MW431666   6.366   3.425   5.795 -0.2639  0.0123 -0.1359
 7974SOL     OW31667   2.491   2.196   6.076 -0.1982 -0.3235 -0.5113
 7974SOL    HW231668   2.475   2.108   6.112 -0.0261 -1.1343 -2.2992
 7974SOL    HW331669   2.523   2.247   6.150 -0.0628 -1.8505  0.5212
 7974SOL    MW431670   2.493   2.191   6.090 -0.1576 -0.6320 -0.6109
 7975SOL     OW31671   1.952   5.062   3.776  0.1009 -0.1691 -0.1120
 7975SOL    HW231672   1.963   5.019   3.691  0.6355 -0.8465  0.2933
 7975SOL    HW331673   1.995   5.147   3.766  0.7571 -0.5181 -0.3182
 7975SOL    MW431674   1.959   5.067   3.764  0.2580 -0.3046 -0.0857
 7976SOL     OW31675   0.140   4.367   3.113  0.3483 -0.1131 -0.1172
 7976SOL    HW231676   0.170   4.457   3.099 -0.1894  0.3046  1.1944
 7976SOL    HW331677   0.116   4.336   3.026 -1.7852  1.8692 -0.3306
 7976SOL    MW431678   0.141   4.375   3.100 -0.0041  0.2035  0.0277
 7977SOL     OW31679   1.420   2.447   3.931 -0.0604  0.2150 -0.1820
 7977SOL    HW231680   1.474   2.382   3.886  0.4321 -0.4479  1.3030
 7977SOL    HW331681   1.435   2.430   4.025 -0.3196  2.1395  0.2425
 7977SOL    MW431682   1.429   2.436   3.938 -0.0296  0.3814  0.0700
 7978SOL     OW31683   5.682   0.237   5.212  0.1793 -0.9795 -0.5058
 7978SOL    HW231684   5.588   0.241   5.229  0.4946 -0.0570  1.1925
 7978SOL    HW331685   5.694   0.156   5.161 -1.5718 -0.8353 -1.2189
 7978SOL    MW431686   5.671   0.227   5.207 -0.0101 -0.8387 -0.3758
 7979SOL     OW31687   2.720   6.376   3.099  0.5104 -0.1927  0.3047
 7979SOL    HW231688   2.633   6.402   3.070  0.0332  0.7020  2.4068
 7979SOL    HW331689   2.708   6.289   3.138  0.2987  0.4057  1.6253
 7979SOL    MW431690   2.707   6.368   3.100  0.4195  0.0043  0.7563
 7980SOL     OW31691   0.542   2.038   4.043 -0.3814  0.8816 -0.7912
 7980SOL    HW231692   0.612   2.098   4.017  0.6598  0.0864  0.1468
 7980SOL    HW331693   0.546   1.967   3.979  0.7346  0.0375  0.1839
 7980SOL    MW431694   0.552   2.037   4.031 -0.0968  0.6653 -0.5388
 7981SOL     OW31695   5.518   3.732   0.672 -0.3490 -0.4052  0.0765
 7981SOL    HW231696   5.574   3.682   0.613  0.1201  0.2335 -0.0349
 7981SOL    HW331697   5.501   3.673   0.746 -2.4606 -1.9031 -1.4968
 7981SOL    MW431698   5.523   3.718   0.674 -0.5657 -0.5185 -0.1458
 7982SOL     OW31699   0.225   1.346   1.276 -0.5318  0.0240  0.4972
 7982SOL    HW231700   0.138   1.338   1.236 -1.0815 -3.2719  2.0147
 7982SOL    HW331701   0.270   1.266   1.250  2.4378  1.9766 -0.8649
 7982SOL    MW431702   0.220   1.334   1.267 -0.2125 -0.1532  0.5177
 7983SOL     OW31703   3.535   0.887   1.554  0.1161 -0.0401 -0.0315
 7983SOL    HW231704   3.568   0.876   1.465 -1.9547  2.0754 -1.1737
 7983SOL    HW331705   3.612   0.909   1.606  1.4162 -1.5775 -1.1841
 7983SOL    MW431706   3.549   0.888   1.549  0.0144  0.0362 -0.3343
 7984SOL     OW31707   3.009   2.326   4.334 -0.5101 -0.0285 -0.8006
 7984SOL    HW231708   2.921   2.324   4.371  0.0483 -0.3899  0.5880
 7984SOL    HW331709   3.066   2.300   4.407  0.7341  0.0964 -1.6953
 7984SOL    MW431710   3.005   2.322   4.348 -0.2722 -0.0597 -0.7355
 7985SOL     OW31711   0.217   5.237   2.811  0.3779 -0.7108  0.5349
 7985SOL    HW231712   0.176   5.153   2.829  0.3072 -0.7253  0.3140
 7985SOL    HW331713   0.192   5.257   2.720  2.4650 -1.6619 -0.3047
 7985SOL    MW431714   0.208   5.229   2.801  0.6439 -0.8382  0.3950
 7986SOL     OW31715   0.563   3.747   3.709 -0.0031 -0.2555  0.1783
 7986SOL    HW231716   0.470   3.747   3.729 -0.1108  1.0391 -0.2343
 7986SOL    HW331717   0.567   3.745   3.613  0.2618  2.9716 -0.0038
 7986SOL    MW431718   0.551   3.747   3.699  0.0176  0.3411  0.0998
 7987SOL     OW31719   6.029   2.099   0.828 -0.0568  0.4672  0.2053
 7987SOL    HW231720   6.090   2.027   0.813 -0.1748  0.1771  1.0529
 7987SOL    HW331721   5.967   2.065   0.892 -1.4553  0.5647 -1.0283
 7987SOL    MW431722   6.029   2.085   0.834 -0.2569  0.4418  0.1544
 7988SOL     OW31723   5.740   5.589   3.572  0.5554 -0.5841  0.4057
 7988SOL    HW231724   5.754   5.676   3.608 -1.5262 -1.3645  3.4892
 7988SOL    HW331725   5.802   5.533   3.619 -0.7970 -1.3146  1.3926
 7988SOL    MW431726   5.750   5.593   3.583  0.1023 -0.7835  0.9427
 7989SOL     OW31727   5.692   5.539   5.195 -0.3337  0.7979  0.5533
 7989SOL    HW231728   5.612   5.589   5.179  0.0286  1.0696 -0.5310
 7989SOL    HW331729   5.664   5.466   5.251 -0.7567  2.5201  2.7208
 7989SOL    MW431730   5.678   5.536   5.200 -0.3417  1.0610  0.6962
 7990SOL     OW31731   0.201   2.435   0.920 -0.1479 -0.4775 -0.8503
 7990SOL    HW231732   0.111   2.405   0.905  0.0706 -1.4275 -0.3412
 7990SOL    HW331733   0.214   2.424   1.014  0.0081  1.0861 -0.6693
 7990SOL    MW431734   0.190   2.429   0.930 -0.0985 -0.3965 -0.7593
 7991SOL     OW31735   4.888   6.270   3.611 -0.2470  0.0012  0.2289
 7991SOL    HW231736   4.859   6.354   3.574 -2.5948 -1.2925 -1.0923
 7991SOL    HW331737   4.946   6.233   3.544  0.7861  0.5310  0.8099
 7991SOL    MW431738   4.892   6.276   3.597 -0.4205 -0.0996  0.1312
 7992SOL     OW31739   6.167   4.661   3.316  0.2441  0.0211 -0.1399
 7992SOL    HW231740   6.090   4.705   3.351 -0.6104 -0.3725 -1.4367
 7992SOL    HW331741   6.226   4.652   3.391 -0.5137  1.2830  0.6492
 7992SOL    MW431742   6.165   4.666   3.330  0.0314  0.1357 -0.2069
 7993SOL     OW31743   0.765   4.844   4.780 -0.1533 -0.0379 -0.0759
 7993SOL    HW231744   0.853   4.873   4.803  0.4254 -1.7182 -0.0449
 7993SOL    HW331745   0.776   4.794   4.699 -1.2691  0.6700 -0.6998
 7993SOL    MW431746   0.778   4.841   4.772 -0.2242 -0.1662 -0.1541
 7994SOL     OW31747   4.646   5.868   0.263 -0.1818 -0.0615  0.6873
 7994SOL    HW231748   4.619   5.778   0.278 -2.6649  0.5328  0.3060
 7994SOL    HW331749   4.644   5.909   0.349 -0.0118 -0.1335  0.7257
 7994SOL    MW431750   4.642   5.862   0.276 -0.4870  0.0074  0.6421
 7995SOL     OW31751   0.180   4.046   1.451  0.7599  0.7909 -0.5396
 7995SOL    HW231752   0.209   3.955   1.458  1.9367  1.1737 -0.2602
 7995SOL    HW331753   0.085   4.042   1.465  0.8982 -0.2970  0.2261
 7995SOL    MW431754   0.171   4.033   1.453  0.9334  0.6979 -0.4017
 7996SOL     OW31755   0.913   5.484   0.684  0.0455 -0.1361  0.4461
 7996SOL    HW231756   0.927   5.454   0.774 -0.5238 -0.0076  0.5816
 7996SOL    HW331757   0.876   5.572   0.694  0.5934  0.1392  0.0703
 7996SOL    MW431758   0.910   5.492   0.697  0.0427 -0.0829  0.4144
 7997SOL     OW31759   4.384   0.916   1.760  0.2071  0.4970 -0.7287
 7997SOL    HW231760   4.332   0.996   1.761  2.3169  1.9428  0.0571
 7997SOL    HW331761   4.336   0.854   1.815 -0.8575  1.6312 -0.3550
 7997SOL    MW431762   4.371   0.918   1.767  0.3450  0.8374 -0.5757
 7998SOL     OW31763   1.600   2.265   0.350  0.2638  0.2118 -0.2524
 7998SOL    HW231764   1.632   2.177   0.335  0.4958  0.5564 -1.9957
 7998SOL    HW331765   1.609   2.279   0.445 -0.1120 -1.7319  0.0949
 7998SOL    MW431766   1.605   2.255   0.361  0.2448  0.0009 -0.4366
 7999SOL     OW31767   5.655   3.279   1.438  0.1291  0.1018  0.0376
 7999SOL    HW231768   5.674   3.227   1.360  0.3709  1.7963 -1.0715
 7999SOL    HW331769   5.656   3.370   1.408  0.4405  0.8215  2.0647
 7999SOL    MW431770   5.658   3.284   1.424  0.2021  0.4203  0.1587
 8000SOL     OW31771   3.562   3.442   5.287 -0.0763 -0.7228  0.0707
 8000SOL    HW231772   3.604   3.401   5.362  0.4091 -1.6692 -0.6903
 8000SOL    HW331773   3.596   3.531   5.286  1.3461 -1.2355 -0.0680
 8000SOL    MW431774   3.572   3.448   5.296  0.1754 -0.9153 -0.0480
 8001SOL     OW31775   6.101   0.873   0.666  0.2311  0.5043  0.0183
 8001SOL    HW231776   6.027   0.813   0.671  0.1046  0.6913  0.5155
 8001SOL    HW331777   6.131   0.881   0.757  1.5300 -0.3855 -0.3220
 8001SOL    MW431778   6.095   0.866   0.679  0.3858  0.4116  0.0390
 8002SOL     OW31779   3.960   2.795   1.763 -0.5886  0.7104  0.2779
 8002SOL    HW231780   3.980   2.880   1.803 -0.7678 -0.0866  2.1271
 8002SOL    HW331781   3.954   2.734   1.836 -0.5914 -0.8978 -1.0001
 8002SOL    MW431782   3.962   2.798   1.778 -0.6126  0.3930  0.3533
 8003SOL     OW31783   4.948   3.826   0.355  0.5874  0.2679 -0.4710
 8003SOL    HW231784   4.882   3.760   0.331 -0.0982  0.8591 -0.2502
 8003SOL    HW331785   4.977   3.862   0.271 -0.5581  1.1359 -0.5066
 8003SOL    MW431786   4.943   3.822   0.340  0.3458  0.4604 -0.4465
 8004SOL     OW31787   3.548   1.577   2.102 -0.2229  0.6799  0.2834
 8004SOL    HW231788   3.519   1.667   2.085  0.9497  0.9299 -0.4423
 8004SOL    HW331789   3.483   1.543   2.165 -1.2507  1.6894 -0.1899
 8004SOL    MW431790   3.535   1.584   2.108 -0.2038  0.8461  0.1252
 8005SOL     OW31791   1.967   1.908   6.306  0.1606  0.3621 -0.0207
 8005SOL    HW231792   1.887   1.921   6.356  0.4464  0.7236  0.3576
 8005SOL    HW331793   2.001   1.997   6.291  0.5670  0.2095 -0.0343
 8005SOL    MW431794   1.961   1.922   6.311  0.2519  0.3896  0.0274
 8006SOL     OW31795   0.431   3.114   4.395 -0.0277 -0.1486 -0.3104
 8006SOL    HW231796   0.385   3.116   4.312 -1.2435  1.5697  0.3490
 8006SOL    HW331797   0.465   3.203   4.407  1.0538 -0.6441  0.5353
 8006SOL    MW431798   0.429   3.126   4.386 -0.0454  0.0127 -0.1118
 8007SOL     OW31799   5.962   0.389   4.608 -0.4377 -0.3271  0.0447
 8007SOL    HW231800   5.916   0.313   4.573 -1.0883 -1.2038  2.6158
 8007SOL    HW331801   5.954   0.381   4.703 -0.1067  2.7147  0.4276
 8007SOL    MW431802   5.955   0.378   4.616 -0.4799 -0.0414  0.4345
 8008SOL     OW31803   1.875   2.956   2.666  0.9252  0.4180 -0.5054
 8008SOL    HW231804   1.784   2.959   2.639 -0.3953  0.7013  3.3453
 8008SOL    HW331805   1.897   2.863   2.668 -0.4102  0.0823  1.5095
 8008SOL    MW431806   1.866   2.944   2.663  0.5748  0.4111  0.2685
 8009SOL     OW31807   4.447   6.195   3.877 -0.1000  0.8495  0.0151
 8009SOL    HW231808   4.474   6.278   3.839  1.8926 -0.0315 -0.6281
 8009SOL    HW331809   4.423   6.141   3.802  0.1324  0.3553  0.2926
 8009SOL    MW431810   4.447   6.199   3.862  0.1935  0.6680 -0.0332
 8010SOL     OW31811   3.394   6.411   3.313 -0.2292  0.2814 -0.6732
 8010SOL    HW231812   3.426   6.501   3.320 -1.3092  0.8389 -2.3139
 8010SOL    HW331813   3.347   6.396   3.395  1.4383  0.5623  0.3791
 8010SOL    MW431814   3.392   6.421   3.324 -0.1517  0.3920 -0.7508
 8011SOL     OW31815   6.355   6.155   6.053  0.3696 -0.1178 -0.0430
 8011SOL    HW231816   6.441   6.127   6.085  1.2070  0.2184 -1.8477
 8011SOL    HW331817   6.345   6.110   5.969 -0.9483  0.3318 -0.1510
 8011SOL    MW431818   6.365   6.145   6.046  0.3062 -0.0141 -0.2954
 8012SOL     OW31819   6.327   4.073   0.796 -0.0479  0.0566  0.0372
 8012SOL    HW231820   6.297   4.164   0.793  0.0410  0.0792 -0.1918
 8012SOL    HW331821   6.419   4.077   0.771  0.1056 -0.0293  0.5920
 8012SOL    MW431822   6.335   4.085   0.792 -0.0159  0.0482  0.0802
 8013SOL     OW31823   2.821   0.807   4.694 -0.5320 -0.2292 -0.5444
 8013SOL    HW231824   2.892   0.772   4.640 -0.4459  1.3523 -1.5185
 8013SOL    HW331825   2.742   0.775   4.652 -0.5307  2.0508 -2.5545
 8013SOL    MW431826   2.820   0.798   4.681 -0.5204  0.2803 -0.9381
 8014SOL     OW31827   4.707   3.197   5.275 -0.3114  0.9088  0.2705
 8014SOL    HW231828   4.668   3.118   5.313  1.0484  1.3506  2.8256
 8014SOL    HW331829   4.683   3.267   5.335 -0.5388  2.2740 -1.3433
 8014SOL    MW431830   4.699   3.196   5.288 -0.1620  1.1472  0.3947
 8015SOL     OW31831   4.506   3.880   3.325 -0.8096  0.3002  0.2257
 8015SOL    HW231832   4.460   3.953   3.366 -0.5135  1.2194 -1.0126
 8015SOL    HW331833   4.491   3.806   3.384 -0.3303  1.5551  2.0358
 8015SOL    MW431834   4.498   3.880   3.339 -0.7073  0.5870  0.3011
 8016SOL     OW31835   4.076   1.858   6.368 -0.1108 -0.3865  0.5167
 8016SOL    HW231836   4.119   1.835   6.285 -1.6073  0.7823 -0.6468
 8016SOL    HW331837   4.111   1.944   6.390 -2.0368  0.7704 -0.6677
 8016SOL    MW431838   4.086   1.866   6.360 -0.5624 -0.0796  0.2069
 8017SOL     OW31839   1.567   5.085   5.007  0.2229  0.2338 -0.2984
 8017SOL    HW231840   1.637   5.020   5.001 -0.5103 -0.4689 -2.2855
 8017SOL    HW331841   1.600   5.159   4.956  0.1991  0.5766  0.1835
 8017SOL    MW431842   1.581   5.086   4.999  0.1230  0.1863 -0.4970
 8018SOL     OW31843   0.698   1.750   6.298 -0.2009  0.0819  0.2665
 8018SOL    HW231844   0.672   1.818   6.360 -0.8865 -0.6730  0.8239
 8018SOL    HW331845   0.700   1.669   6.350  1.8274 -0.1451 -0.0850
 8018SOL    MW431846   0.695   1.748   6.313 -0.0237 -0.0477  0.2937
 8019SOL     OW31847   0.927   5.850   5.376  0.4587 -0.4412 -0.0624
 8019SOL    HW231848   0.842   5.826   5.339  0.0477  0.8220  0.0263
 8019SOL    HW331849   0.991   5.807   5.318 -0.1591  1.4926 -2.3357
 8019SOL    MW431850   0.924   5.841   5.363  0.3230 -0.0194 -0.3506
 8020SOL     OW31851   2.613   3.274   0.028  0.1157 -0.3174 -0.1608
 8020SOL    HW231852   2.575   3.348  -0.020 -0.6031  0.2482  1.2045
 8020SOL    HW331853   2.648   3.216  -0.039  1.0547  1.4546 -1.2745
 8020SOL    MW431854   2.613   3.276   0.013  0.1448 -0.0089 -0.1276
 8021SOL     OW31855   4.115   5.467   3.373 -0.2047  0.2468 -0.3639
 8021SOL    HW231856   4.096   5.378   3.404 -0.7849  0.6160  0.3525
 8021SOL    HW331857   4.114   5.458   3.277 -0.0397 -0.5646 -0.3030
 8021SOL    MW431858   4.112   5.454   3.364 -0.2595  0.1885 -0.2613
 8022SOL     OW31859   3.049   0.482   0.409 -0.1744  0.1040  0.4935
 8022SOL    HW231860   2.962   0.457   0.375 -1.0364 -1.6060  3.5489
 8022SOL    HW331861   3.102   0.403   0.398  0.8549  0.9355 -0.7521
 8022SOL    MW431862   3.044   0.468   0.403 -0.1523 -0.0119  0.7323
 8023SOL     OW31863   1.131   4.399   3.360  0.2253 -0.0439 -0.0801
 8023SOL    HW231864   1.075   4.341   3.411 -2.7501  0.6785 -2.2547
 8023SOL    HW331865   1.150   4.350   3.280  1.7830  0.2156  0.0904
 8023SOL    MW431866   1.126   4.385   3.356  0.0383  0.0857 -0.3445
 8024SOL     OW31867   5.834   4.142   1.404  0.3745 -0.6271  0.5173
 8024SOL    HW231868   5.789   4.058   1.413 -1.4292 -0.0541 -2.0972
 8024SOL    HW331869   5.916   4.130   1.452  0.3808 -4.0351 -0.1095
 8024SOL    MW431870   5.839   4.129   1.411  0.1374 -1.0011  0.0897
 8025SOL     OW31871   4.585   2.643   2.487 -0.1087  0.0860  0.3465
 8025SOL    HW231872   4.661   2.592   2.461 -0.5459 -0.2676 -0.2541
 8025SOL    HW331873   4.543   2.668   2.405 -1.5505 -1.1199  0.6781
 8025SOL    MW431874   4.589   2.639   2.473 -0.3566 -0.1197  0.3110
 8026SOL     OW31875   4.710   3.405   0.170  0.1235  1.2635  0.5101
 8026SOL    HW231876   4.691   3.368   0.256 -1.3370  2.0937  0.5735
 8026SOL    HW331877   4.688   3.335   0.109  0.0781  1.0528  0.7651
 8026SOL    MW431878   4.704   3.391   0.173 -0.0752  1.3452  0.5521
 8027SOL     OW31879   4.796   2.797   3.565 -0.6497  0.2835 -0.1710
 8027SOL    HW231880   4.833   2.727   3.511  0.8408  0.9973 -0.1313
 8027SOL    HW331881   4.702   2.780   3.566 -0.2893 -1.9533  0.1792
 8027SOL    MW431882   4.789   2.786   3.558 -0.4055  0.0826 -0.1195
 8028SOL     OW31883   3.106   3.536   5.666  0.3986  0.4523 -0.0370
 8028SOL    HW231884   3.125   3.629   5.672 -0.6264  0.8489 -1.9105
 8028SOL    HW331885   3.024   3.525   5.715  1.7044  0.0295  2.1936
 8028SOL    MW431886   3.097   3.547   5.673  0.4356  0.4489  0.0101
 8029SOL     OW31887   3.655   1.697   4.295 -0.0943  0.0095 -0.3451
 8029SOL    HW231888   3.681   1.779   4.253  1.3841 -0.6868 -0.8877
 8029SOL    HW331889   3.738   1.660   4.327 -0.6801 -1.4311 -0.4193
 8029SOL    MW431890   3.670   1.703   4.294  0.0235 -0.2724 -0.4265
 8030SOL     OW31891   0.181   0.666   3.029  0.5507  0.1980 -0.4968
 8030SOL    HW231892   0.250   0.606   3.002  0.7322  0.1901 -0.0119
 8030SOL    HW331893   0.227   0.746   3.055  0.4895 -0.2842  1.1604
 8030SOL    MW431894   0.196   0.669   3.029  0.5666  0.1333 -0.2142
 8031SOL     OW31895   0.174   1.349   1.909  0.0287  0.4585  0.2674
 8031SOL    HW231896   0.178   1.339   1.813  1.6557  0.8231  0.2614
 8031SOL    HW331897   0.103   1.411   1.923 -0.2580  0.3763 -0.7116
 8031SOL    MW431898   0.165   1.356   1.898  0.2055  0.4958  0.1375
 8032SOL     OW31899   0.245   4.475   5.229 -0.1650 -0.7376 -0.1723
 8032SOL    HW231900   0.197   4.394   5.214  0.2698 -0.5845 -2.9176
 8032SOL    HW331901   0.180   4.544   5.216  0.1571 -0.5978 -1.1201
 8032SOL    MW431902   0.230   4.473   5.225 -0.0652 -0.6989 -0.6596
 8033SOL     OW31903   5.197   5.556   5.187 -0.4663  0.3323  0.4294
 8033SOL    HW231904   5.132   5.489   5.168 -0.1341  0.4483 -1.2248
 8033SOL    HW331905   5.162   5.602   5.263 -0.8511 -1.4782  1.4046
 8033SOL    MW431906   5.184   5.553   5.195 -0.4733  0.1087  0.3398
 8034SOL     OW31907   0.998   5.191   2.376  0.9933 -0.0108 -0.2288
 8034SOL    HW231908   1.073   5.161   2.326  1.7203  1.7406 -0.2657
 8034SOL    HW331909   0.934   5.217   2.309 -0.0780 -2.3636 -0.2065
 8034SOL    MW431910   0.999   5.191   2.361  0.9478 -0.0901 -0.2307
 8035SOL     OW31911   6.098   3.601   5.490  0.7323 -0.3295 -0.8480
 8035SOL    HW231912   6.036   3.582   5.561  1.1746  0.3662 -0.2628
 8035SOL    HW331913   6.064   3.680   5.449  1.4010  0.2334 -0.3220
 8035SOL    MW431914   6.085   3.609   5.494  0.8789 -0.1635 -0.7014
 8036SOL     OW31915   4.328   3.398   1.243  0.1982 -0.2513  0.8088
 8036SOL    HW231916   4.421   3.394   1.264  0.2572  0.1676  0.6336
 8036SOL    HW331917   4.315   3.484   1.203 -0.4712  0.1536  1.8405
 8036SOL    MW431918   4.338   3.409   1.240  0.1176 -0.1426  0.9218
 8037SOL     OW31919   4.451   3.937   0.001  0.4587  0.0876  0.8264
 8037SOL    HW231920   4.359   3.961  -0.013  0.4973 -1.0616 -1.8204
 8037SOL    HW331921   4.449   3.878   0.076 -0.5364  2.2904  2.6655
 8037SOL    MW431922   4.439   3.932   0.009  0.3325  0.2266  0.7198
 8038SOL     OW31923   3.005   5.559   4.255  0.1861 -0.6054  0.0551
 8038SOL    HW231924   2.935   5.596   4.200  0.6968 -0.8585 -0.7859
 8038SOL    HW331925   3.047   5.493   4.199  0.1957 -1.4581  1.0473
 8038SOL    MW431926   3.001   5.555   4.240  0.2548 -0.7513  0.0751
 8039SOL     OW31927   0.428   4.177   0.583  0.1674  0.0793  0.7251
 8039SOL    HW231928   0.381   4.224   0.514  0.6967  0.5815  0.6944
 8039SOL    HW331929   0.426   4.085   0.555 -0.3634  0.1646  0.4781
 8039SOL    MW431930   0.422   4.171   0.570  0.1672  0.1568  0.6884
 8040SOL     OW31931   5.909   6.216   1.900 -0.3142  0.0411 -0.5567
 8040SOL    HW231932   5.989   6.255   1.936 -1.3215  0.8814  0.8643
 8040SOL    HW331933   5.864   6.289   1.857  0.1374 -0.6432 -2.2764
 8040SOL    MW431934   5.914   6.231   1.899 -0.3875  0.0617 -0.5961
 8041SOL     OW31935   0.224   0.833   2.745  0.7197  0.7458  0.0734
 8041SOL    HW231936   0.201   0.746   2.776 -0.7108  0.9363 -0.3751
 8041SOL    HW331937   0.164   0.892   2.790  3.1500  1.8470  2.1667
 8041SOL    MW431938   0.213   0.830   2.755  0.8516  0.9162  0.2904
 8042SOL     OW31939   3.545   5.865   1.622 -0.0671 -0.1314 -0.3817
 8042SOL    HW231940   3.493   5.945   1.621  2.3818  1.6337 -2.6704
 8042SOL    HW331941   3.559   5.845   1.529  2.6436 -0.8724  0.1081
 8042SOL    MW431942   3.540   5.873   1.610  0.6136  0.0037 -0.6190
 8043SOL     OW31943   5.136   1.089   4.502 -0.2821  0.8823 -0.2157
 8043SOL    HW231944   5.216   1.080   4.555 -0.4397  0.8996  0.0263
 8043SOL    HW331945   5.161   1.147   4.431  0.8206 -1.5344 -1.9319
 8043SOL    MW431946   5.150   1.095   4.500 -0.1574  0.5657 -0.4102
 8044SOL     OW31947   5.788   6.059   3.824 -0.3126  0.2169 -0.3796
 8044SOL    HW231948   5.872   6.104   3.820 -0.6538  0.7988 -1.4095
 8044SOL    HW331949   5.723   6.129   3.828 -0.7520 -0.2294  0.6866
 8044SOL    MW431950   5.790   6.074   3.824 -0.4156  0.2348 -0.3748
 8045SOL     OW31951   4.959   0.557   4.042 -0.1779 -0.0967 -0.2897
 8045SOL    HW231952   4.948   0.469   4.076  0.3566  0.2795  0.8955
 8045SOL    HW331953   5.053   0.568   4.031 -0.0046  1.0601  1.7302
 8045SOL    MW431954   4.970   0.547   4.045 -0.0845  0.1056  0.1332
 8046SOL     OW31955   4.142   2.131   1.307 -0.2962  0.2217  0.2370
 8046SOL    HW231956   4.194   2.129   1.227 -1.7363  3.1059 -0.8957
 8046SOL    HW331957   4.071   2.193   1.289 -1.9126 -0.6071  3.0427
 8046SOL    MW431958   4.139   2.139   1.294 -0.6995  0.4929  0.4577
 8047SOL     OW31959   3.451   2.552   3.510  0.3086 -0.3674 -0.0038
 8047SOL    HW231960   3.497   2.586   3.587 -0.3291  0.0053  0.2271
 8047SOL    HW331961   3.520   2.518   3.454  0.8594  0.1081  0.3638
 8047SOL    MW431962   3.466   2.552   3.513  0.2971 -0.2555  0.0752
 8048SOL     OW31963   0.723   6.360   6.035 -0.1753 -0.3560  0.1034
 8048SOL    HW231964   0.630   6.342   6.024 -0.2724  0.2199 -0.0460
 8048SOL    HW331965   0.728   6.422   6.107  0.1132 -0.5685  0.2711
 8048SOL    MW431966   0.712   6.366   6.043 -0.1500 -0.3081  0.1058
 8049SOL     OW31967   5.715   0.148   2.059  0.0668  0.0787  0.2018
 8049SOL    HW231968   5.794   0.201   2.066  0.3466  0.0043 -1.6762
 8049SOL    HW331969   5.717   0.114   1.969 -2.7387  1.1391 -0.3742
 8049SOL    MW431970   5.725   0.150   2.048 -0.2664  0.2088 -0.1220
 8050SOL     OW31971   2.248   4.278   2.366  0.1698 -0.1849 -0.0727
 8050SOL    HW231972   2.214   4.251   2.281  0.5477 -0.1179 -0.2492
 8050SOL    HW331973   2.294   4.360   2.348  3.0575 -1.7418 -0.4764
 8050SOL    MW431974   2.250   4.285   2.352  0.6006 -0.3815 -0.1492
 8051SOL     OW31975   4.573   3.072   2.501  0.4420  0.4279 -0.4099
 8051SOL    HW231976   4.489   3.079   2.545 -0.2499  1.5539 -1.8112
 8051SOL    HW331977   4.551   3.049   2.410  1.6941  0.0085 -0.6364
 8051SOL    MW431978   4.559   3.070   2.495  0.5159  0.5211 -0.6247
 8052SOL     OW31979   5.808   1.441   3.857  0.5947  0.1695 -0.3551
 8052SOL    HW231980   5.797   1.458   3.764  0.8846  0.2711 -0.3728
 8052SOL    HW331981   5.903   1.440   3.870  0.5839  2.7190  0.4109
 8052SOL    MW431982   5.819   1.443   3.847  0.6315  0.5193 -0.2563
 8053SOL     OW31983   6.419   0.882   0.004 -0.1875  0.2631  0.1173
 8053SOL    HW231984   6.367   0.959   0.027 -2.2279 -1.6763  2.5769
 8053SOL    HW331985   6.405   0.871  -0.090  0.7580  3.2307 -0.4491
 8053SOL    MW431986   6.410   0.890  -0.005 -0.3320  0.3987  0.3671
 8054SOL     OW31987   0.121   4.930   1.161  0.4837  0.0799 -0.4959
 8054SOL    HW231988   0.041   4.981   1.176 -0.6087 -1.2863 -1.3955
 8054SOL    HW331989   0.192   4.986   1.195 -1.1122 -0.2791  4.1247
 8054SOL    MW431990   0.120   4.944   1.167  0.1290 -0.1477 -0.0050
 8055SOL     OW31991   5.894   5.470   0.754 -0.3065 -0.1318  1.0168
 8055SOL    HW231992   5.975   5.463   0.703 -0.1214 -1.0036  1.4134
 8055SOL    HW331993   5.866   5.379   0.766 -1.9092  0.1874  0.0086
 8055SOL    MW431994   5.901   5.457   0.748 -0.4935 -0.2047  0.9361
 8056SOL     OW31995   2.346   1.680   0.902 -0.0459  0.0269 -0.2117
 8056SOL    HW231996   2.422   1.702   0.956 -0.9190 -0.1065  1.1391
 8056SOL    HW331997   2.271   1.697   0.960 -1.0053 -0.5450 -1.2550
 8056SOL    MW431998   2.346   1.685   0.917 -0.2877 -0.0661 -0.1711
 8057SOL     OW31999   1.653   1.442   5.393  0.0424 -0.8607  0.1620
 8057SOL    HW232000   1.562   1.450   5.424 -0.0046  0.1978 -0.1893
 8057SOL    HW332001   1.648   1.460   5.299  0.5522 -1.3317  0.0389
 8057SOL    MW432002   1.640   1.446   5.385  0.1034 -0.7832  0.0994
 8058SOL     OW32003   3.304   3.531   5.341 -0.2543  0.0224 -0.2248
 8058SOL    HW232004   3.268   3.468   5.404 -0.6631  0.7164  0.2475
 8058SOL    HW332005   3.397   3.508   5.334 -0.0990  0.2018  0.9716
 8058SOL    MW432006   3.312   3.520   5.348 -0.2877  0.1376 -0.0046
 8059SOL     OW32007   4.053   3.222   5.831 -0.1042  0.1314 -0.2551
 8059SOL    HW232008   4.114   3.295   5.813  1.1330 -0.8591 -0.2435
 8059SOL    HW332009   3.990   3.226   5.760  0.7492  0.3967 -1.0207
 8059SOL    MW432010   4.053   3.232   5.819  0.1716  0.0357 -0.3546
 8060SOL     OW32011   2.028   6.188   4.938 -0.4564  0.2415 -0.2199
 8060SOL    HW232012   2.059   6.101   4.966  0.7911  0.5497 -0.6068
 8060SOL    HW332013   2.061   6.198   4.849 -1.9747  0.4670 -0.7862
 8060SOL    MW432014   2.036   6.178   4.930 -0.4921  0.3119 -0.3457
 8061SOL     OW32015   0.882   4.145   6.227  0.2995  0.4997 -0.2556
 8061SOL    HW232016   0.805   4.090   6.214  0.3235  0.7760 -1.7109
 8061SOL    HW332017   0.940   4.092   6.281  0.7337 -1.3506 -2.3896
 8061SOL    MW432018   0.879   4.131   6.233  0.3599  0.2920 -0.7291
 8062SOL     OW32019   1.356   4.887   5.270  0.0676  0.7319  0.0878
 8062SOL    HW232020   1.413   4.956   5.303  0.6548 -0.5737  1.9388
 8062SOL    HW332021   1.291   4.933   5.217  0.1660  2.7521  1.6138
 8062SOL    MW432022   1.355   4.902   5.267  0.1581  0.8262  0.5334
 8063SOL     OW32023   2.122   2.050   1.470 -0.2882 -0.4810 -0.2427
 8063SOL    HW232024   2.176   2.044   1.549  0.1296 -1.3296 -0.5829
 8063SOL    HW332025   2.147   1.974   1.418 -2.2273 -1.2339 -0.1582
 8063SOL    MW432026   2.132   2.039   1.474 -0.4889 -0.6923 -0.2764
 8064SOL     OW32027   3.309   4.962   4.943 -0.4314 -0.4989  0.1453
 8064SOL    HW232028   3.394   4.966   4.988 -0.1561 -1.8169 -0.2098
 8064SOL    HW332029   3.250   4.921   5.006 -0.6622 -0.0791  0.1997
 8064SOL    MW432030   3.313   4.957   4.957 -0.4255 -0.6174  0.1056
 8065SOL     OW32031   2.298   6.204   0.692  0.0400  0.0928 -0.0138
 8065SOL    HW232032   2.250   6.175   0.769 -0.8504  0.4872 -0.4066
 8065SOL    HW332033   2.323   6.295   0.713  1.6559 -0.4584  0.6620
 8065SOL    MW432034   2.295   6.212   0.705  0.1357  0.0721  0.0235
 8066SOL     OW32035   1.581   0.111   5.699 -0.2107  0.3857 -0.5790
 8066SOL    HW232036   1.575   0.186   5.640 -2.3689 -0.0138 -0.9369
 8066SOL    HW332037   1.516   0.049   5.666 -2.1651  0.4794  2.6233
 8066SOL    MW432038   1.572   0.113   5.687 -0.7533  0.3453 -0.2037
 8067SOL     OW32039   2.766   6.404   0.501 -0.4073  0.7584 -0.2351
 8067SOL    HW232040   2.806   6.369   0.421 -2.1951  0.4450 -1.0700
 8067SOL    HW332041   2.741   6.327   0.551  2.3484  0.9462  1.5910
 8067SOL    MW432042   2.768   6.390   0.497 -0.2796  0.7418 -0.1043
 8068SOL     OW32043   5.438   4.014   1.209 -0.2174 -0.1040 -0.0061
 8068SOL    HW232044   5.463   4.080   1.145  1.1404  0.1506  0.7474
 8068SOL    HW332045   5.343   4.007   1.201 -0.2418  1.0532 -0.9392
 8068SOL    MW432046   5.429   4.022   1.200 -0.0415  0.0823 -0.0298
 8069SOL     OW32047   1.725   5.076   0.559  0.7175 -0.1473 -0.0328
 8069SOL    HW232048   1.630   5.083   0.561  0.5283 -2.0404  3.1399
 8069SOL    HW332049   1.746   5.070   0.465 -2.2923 -0.2161 -0.8082
 8069SOL    MW432050   1.715   5.076   0.547  0.2954 -0.4061  0.2835
 8070SOL     OW32051   5.670   0.337   5.842 -0.3275  0.4356 -0.4117
 8070SOL    HW232052   5.668   0.433   5.841 -0.8912  0.4219 -1.0797
 8070SOL    HW332053   5.759   0.316   5.869  0.4568  1.1561 -2.2846
 8070SOL    MW432054   5.681   0.347   5.846 -0.2984  0.5289 -0.7470
 8071SOL     OW32055   4.394   0.352   0.795  0.6265  0.0378 -0.1892
 8071SOL    HW232056   4.407   0.335   0.702  0.8126 -1.8793  0.1374
 8071SOL    HW332057   4.332   0.285   0.823 -0.2331  1.2319  0.8758
 8071SOL    MW432058   4.387   0.341   0.786  0.5376 -0.0576 -0.0056
 8072SOL     OW32059   5.128   3.482   4.805  0.6583  0.3449 -0.2800
 8072SOL    HW232060   5.046   3.504   4.761 -0.2809 -0.5052  0.9700
 8072SOL    HW332061   5.123   3.527   4.889 -0.3031 -2.6450  1.4065
 8072SOL    MW432062   5.117   3.491   4.810  0.4076 -0.1617  0.1075
 8073SOL     OW32063   3.186   2.684   4.973  0.0367 -0.4418  0.4340
 8073SOL    HW232064   3.239   2.604   4.973  2.1713  0.8953 -0.5095
 8073SOL    HW332065   3.196   2.720   4.885 -2.8957 -0.3347  0.0491
 8073SOL    MW432066   3.194   2.678   4.962 -0.0686 -0.2513  0.2587
 8074SOL     OW32067   0.290   5.794   5.545  0.2984  0.2354 -0.9707
 8074SOL    HW232068   0.305   5.872   5.492  2.2011 -0.0888 -1.0032
 8074SOL    HW332069   0.269   5.725   5.482  1.1299  0.1722 -1.1884
 8074SOL    MW432070   0.289   5.795   5.530  0.6592  0.1843 -1.0037
 8075SOL     OW32071   5.171   3.799   3.200 -0.3359  0.1837 -0.1639
 8075SOL    HW232072   5.095   3.851   3.173 -0.1431 -0.5883 -2.4029
 8075SOL    HW332073   5.152   3.711   3.167  0.5048 -0.5864  1.2952
 8075SOL    MW432074   5.158   3.794   3.192 -0.1995 -0.0198 -0.2668
 8076SOL     OW32075   2.838   4.341   2.892 -0.6648  0.3867 -0.2837
 8076SOL    HW232076   2.782   4.346   2.815 -0.5125 -0.3201 -0.4534
 8076SOL    HW332077   2.779   4.317   2.963 -1.0407  2.3662  0.1155
 8076SOL    MW432078   2.823   4.338   2.891 -0.6943  0.5546 -0.2535
 8077SOL     OW32079   5.558   0.266   2.247  0.2627  0.3545 -0.2199
 8077SOL    HW232080   5.605   0.236   2.169  0.2906 -0.5770  0.1426
 8077SOL    HW332081   5.512   0.345   2.218 -2.4627 -1.7610 -2.1560
 8077SOL    MW432082   5.558   0.272   2.232 -0.0932 -0.0475 -0.4275
 8078SOL     OW32083   3.974   2.175   3.227 -0.0665 -0.3000 -0.3937
 8078SOL    HW232084   3.990   2.170   3.132 -0.0560 -0.1247 -0.4017
 8078SOL    HW332085   3.996   2.265   3.250  1.2252 -0.6961  0.0179
 8078SOL    MW432086   3.979   2.186   3.217  0.1053 -0.3291 -0.3404
 8079SOL     OW32087   6.131   4.619   2.299  0.1115  0.0115  0.5303
 8079SOL    HW232088   6.209   4.566   2.313  0.6843  0.7101  0.0334
 8079SOL    HW332089   6.162   4.709   2.297 -0.4500  0.2228 -1.2409
 8079SOL    MW432090   6.145   4.624   2.300  0.1130  0.1316  0.2311
 8080SOL     OW32091   5.514   5.149   2.401  0.5885  0.0408  0.4609
 8080SOL    HW232092   5.601   5.178   2.375 -0.0280  0.2351 -1.5105
 8080SOL    HW332093   5.474   5.226   2.440  0.6232  0.5258 -0.4341
 8080SOL    MW432094   5.521   5.163   2.403  0.5118  0.1304  0.0827
 8081SOL     OW32095   2.620   2.662   2.525 -0.0300 -0.0411 -0.5194
 8081SOL    HW232096   2.576   2.747   2.518 -1.0079 -0.4128  0.6467
 8081SOL    HW332097   2.581   2.609   2.456 -1.3168 -0.2860  0.3374
 8081SOL    MW432098   2.609   2.666   2.515 -0.3288 -0.1224 -0.2525
 8082SOL     OW32099   6.327   1.768   2.529 -0.4036  0.4177 -0.0327
 8082SOL    HW232100   6.365   1.737   2.447 -2.1903  2.0870 -1.6159
 8082SOL    HW332101   6.280   1.693   2.565  0.1768 -0.2622 -0.6774
 8082SOL    MW432102   6.326   1.754   2.523 -0.5628  0.5483 -0.3266
 8083SOL     OW32103   5.374   5.398   4.851  0.2618 -0.0204 -0.0561
 8083SOL    HW232104   5.326   5.328   4.895  0.6178 -0.7384 -0.7722
 8083SOL    HW332105   5.465   5.385   4.877  0.3228  0.2217 -0.1414
 8083SOL    MW432106   5.380   5.387   4.860  0.3168 -0.0832 -0.1618
 8084SOL     OW32107   0.339   2.653   4.867  0.4535  0.0722 -0.5377
 8084SOL    HW232108   0.258   2.683   4.827  0.5375 -0.1033 -0.8409
 8084SOL    HW332109   0.404   2.659   4.797  0.8624  0.8833 -0.1080
 8084SOL    MW432110   0.337   2.658   4.853  0.5185  0.1561 -0.5210
 8085SOL     OW32111   3.306   5.509   5.910  0.5587  0.2908  0.2309
 8085SOL    HW232112   3.324   5.528   6.002  0.1164  1.4264  0.0958
 8085SOL    HW332113   3.223   5.461   5.911  0.6386  0.1599  0.4395
 8085SOL    MW432114   3.297   5.505   5.922  0.5109  0.4234  0.2406
 8086SOL     OW32115   1.518   1.775   3.285  0.0167 -0.1455 -0.5120
 8086SOL    HW232116   1.431   1.811   3.270 -0.6039 -1.1418  0.5119
 8086SOL    HW332117   1.565   1.792   3.204  0.1904  3.9074  0.2277
 8086SOL    MW432118   1.513   1.782   3.272 -0.0422  0.2578 -0.2793
 8087SOL     OW32119   1.783   4.204   0.486  0.1263  0.2722  0.7160
 8087SOL    HW232120   1.766   4.144   0.558  0.7979 -1.1268 -0.2684
 8087SOL    HW332121   1.699   4.209   0.439  0.3797 -0.8338  0.1244
 8087SOL    MW432122   1.770   4.197   0.489  0.2483 -0.0583  0.5081
 8088SOL     OW32123   4.146   5.393   0.471 -0.1096 -0.2272  0.4343
 8088SOL    HW232124   4.074   5.457   0.476 -0.4337 -0.6764  2.0420
 8088SOL    HW332125   4.199   5.411   0.548 -0.6321 -2.3635  1.3772
 8088SOL    MW432126   4.143   5.404   0.482 -0.2213 -0.5683  0.7709
 8089SOL     OW32127   0.937   2.529   1.025 -0.0878 -0.7697 -0.2035
 8089SOL    HW232128   1.004   2.541   1.093 -0.9307  1.5268  0.3112
 8089SOL    HW332129   0.985   2.538   0.943  0.2052  1.7736  0.1586
 8089SOL    MW432130   0.952   2.532   1.024 -0.1603 -0.1311 -0.0878
 8090SOL     OW32131   4.337   0.382   2.204  0.8044  0.3269 -0.0837
 8090SOL    HW232132   4.331   0.437   2.125  0.3694  0.3595 -0.0290
 8090SOL    HW332133   4.246   0.361   2.225  0.9826 -0.6968 -0.2960
 8090SOL    MW432134   4.324   0.387   2.196  0.7705  0.1961 -0.1045
 8091SOL     OW32135   1.343   0.089   4.755 -0.8128  0.0656 -0.2630
 8091SOL    HW232136   1.376   0.037   4.828  0.0825  0.2985 -0.4939
 8091SOL    HW332137   1.267   0.135   4.790 -1.0739 -0.7102  0.1910
 8091SOL    MW432138   1.337   0.089   4.769 -0.7291 -0.0060 -0.2336
 8092SOL     OW32139   4.127   2.041   3.417 -0.0902  0.3664 -0.3714
 8092SOL    HW232140   4.108   1.947   3.418 -1.3247  0.5915  0.8173
 8092SOL    HW332141   4.068   2.077   3.351 -0.3869  0.4369 -0.0714
 8092SOL    MW432142   4.117   2.034   3.408 -0.2922  0.4054 -0.1750
 8093SOL     OW32143   6.151   1.665   6.276  0.1107  0.1513  0.2378
 8093SOL    HW232144   6.197   1.673   6.359  0.2974 -0.6445  0.2253
 8093SOL    HW332145   6.208   1.708   6.212  0.0840  0.5465  0.4807
 8093SOL    MW432146   6.165   1.672   6.278  0.1318  0.0985  0.2682
 8094SOL     OW32147   4.138   3.790   3.030  0.1289  0.2781  0.2322
 8094SOL    HW232148   4.225   3.824   3.011  0.3373 -0.4521 -0.1714
 8094SOL    HW332149   4.144   3.756   3.120  0.6595 -0.9511 -0.2409
 8094SOL    MW432150   4.150   3.790   3.039  0.2264  0.0196  0.1165
 8095SOL     OW32151   4.545   4.189   0.922  0.7610  0.2863 -0.1648
 8095SOL    HW232152   4.631   4.154   0.944  0.1744 -1.4483 -0.4546
 8095SOL    HW332153   4.500   4.117   0.878 -0.9179  1.0687  0.1583
 8095SOL    MW432154   4.550   4.175   0.919  0.4621  0.1607 -0.1604
 8096SOL     OW32155   6.189   2.704   4.741  0.6031 -0.7832 -0.6985
 8096SOL    HW232156   6.095   2.693   4.755  0.9742 -1.2601  2.0272
 8096SOL    HW332157   6.219   2.755   4.817  2.7583 -1.9341 -0.6837
 8096SOL    MW432158   6.181   2.709   4.753  0.9364 -0.9980 -0.3369
 8097SOL     OW32159   2.382   3.086   3.364  0.2106  0.2002  0.1080
 8097SOL    HW232160   2.338   3.105   3.446 -0.8898  0.6273 -0.5540
 8097SOL    HW332161   2.461   3.038   3.389 -0.8635 -1.0276  1.3063
 8097SOL    MW432162   2.387   3.082   3.378 -0.0763  0.0946  0.1787
 8098SOL     OW32163   5.308   1.849   2.546 -0.0542  0.5096 -0.2157
 8098SOL    HW232164   5.274   1.875   2.632 -0.9446  0.2900 -0.4833
 8098SOL    HW332165   5.396   1.884   2.542 -0.3474  1.3305  0.4162
 8098SOL    MW432166   5.315   1.857   2.557 -0.2103  0.5889 -0.1676
 8099SOL     OW32167   1.331   1.239   2.899  0.3343 -0.2073  0.4532
 8099SOL    HW232168   1.309   1.163   2.953 -2.0310  0.8800  1.1565
 8099SOL    HW332169   1.247   1.267   2.862  1.0334  2.3807  0.6594
 8099SOL    MW432170   1.317   1.233   2.901  0.1145  0.2776  0.5732
 8100SOL     OW32171   0.063   6.396   0.007 -0.0109  0.3782 -0.4238
 8100SOL    HW232172   0.073   6.491   0.014  0.0882  0.2566  1.5660
 8100SOL    HW332173  -0.016   6.384  -0.046 -0.8748  1.6082  0.5186
 8100SOL    MW432174   0.054   6.407   0.001 -0.1118  0.5244 -0.0369
 8101SOL     OW32175   5.323   1.713   1.990 -0.1660  0.2827 -0.1083
 8101SOL    HW232176   5.412   1.686   2.013 -0.8487 -1.2997  0.8551
 8101SOL    HW332177   5.310   1.796   2.037  1.3840  1.5170 -1.7268
 8101SOL    MW432178   5.333   1.720   1.999 -0.0515  0.2368 -0.1947
 8102SOL     OW32179   2.884   1.332   6.090  0.2040 -0.0753  0.5429
 8102SOL    HW232180   2.915   1.418   6.115  1.3549 -0.7794  1.6194
 8102SOL    HW332181   2.959   1.291   6.046 -0.4102 -0.4478 -0.1834
 8102SOL    MW432182   2.898   1.338   6.087  0.2748 -0.2174  0.5891
 8103SOL     OW32183   0.598   5.658   6.107 -0.3982 -0.1880 -0.1870
 8103SOL    HW232184   0.514   5.668   6.063  0.0938  2.0437 -0.7378
 8103SOL    HW332185   0.662   5.654   6.036 -0.0400 -3.0785  0.1665
 8103SOL    MW432186   0.595   5.659   6.092 -0.2860 -0.2750 -0.2130
 8104SOL     OW32187   4.195   1.133   1.221  0.0771 -0.5806  0.2937
 8104SOL    HW232188   4.133   1.103   1.155  0.4614 -0.7171 -0.0104
 8104SOL    HW332189   4.281   1.105   1.188  0.1954 -1.4627  1.2940
 8104SOL    MW432190   4.198   1.125   1.208  0.1434 -0.7150  0.3856
 8105SOL     OW32191   3.186   0.342   3.114 -0.0234  0.4215 -0.3503
 8105SOL    HW232192   3.111   0.284   3.102 -0.8191  1.2578  0.4023
 8105SOL    HW332193   3.183   0.367   3.206  0.7693  1.0217 -0.4714
 8105SOL    MW432194   3.176   0.338   3.125 -0.0238  0.6110 -0.2670
 8106SOL     OW32195   6.098   5.787   5.057  0.3456  0.5121 -0.3628
 8106SOL    HW232196   6.122   5.805   4.966  1.5141 -0.3917 -0.2567
 8106SOL    HW332197   6.117   5.694   5.069  0.2185  0.6211  0.8123
 8106SOL    MW432198   6.103   5.777   5.047  0.4830  0.4073 -0.1938
 8107SOL     OW32199   1.857   2.572   4.210  0.5292 -0.0663  0.1088
 8107SOL    HW232200   1.793   2.511   4.245  1.3013 -0.1465  1.4715
 8107SOL    HW332201   1.826   2.658   4.238 -1.3979  0.4692 -3.0933
 8107SOL    MW432202   1.845   2.576   4.218  0.3768 -0.0062 -0.1339
 8108SOL     OW32203   4.562   5.984   4.796 -0.1564  0.4198 -0.4892
 8108SOL    HW232204   4.469   5.994   4.819 -0.1465  0.1743 -0.3437
 8108SOL    HW332205   4.578   6.053   4.731 -1.0449 -1.0100 -2.3194
 8108SOL    MW432206   4.552   5.995   4.791 -0.2723  0.1988 -0.7115
 8109SOL     OW32207   1.013   2.796   3.280  0.9461  0.1505  0.2023
 8109SOL    HW232208   0.948   2.736   3.316  0.6315  0.4589  0.1566
 8109SOL    HW332209   1.037   2.758   3.196  1.1364 -0.1832  0.4050
 8109SOL    MW432210   1.008   2.783   3.274  0.9297  0.1472  0.2230
 8110SOL     OW32211   5.765   0.226   3.454 -0.1011 -0.2040 -0.0497
 8110SOL    HW232212   5.754   0.264   3.542  0.1549  0.2609 -0.2148
 8110SOL    HW332213   5.712   0.146   3.456 -0.3581 -0.0288  0.4250
 8110SOL    MW432214   5.756   0.221   3.466 -0.1012 -0.1195 -0.0088
 8111SOL     OW32215   1.790   1.279   0.239  0.7611  0.0493 -0.4234
 8111SOL    HW232216   1.771   1.364   0.279  1.8281  0.5209 -0.8939
 8111SOL    HW332217   1.789   1.218   0.313  0.6203  0.5639  0.0101
 8111SOL    MW432218   1.787   1.282   0.254  0.8833  0.1794 -0.4283
 8112SOL     OW32219   1.566   5.312   3.201 -0.0554 -0.2086 -0.2275
 8112SOL    HW232220   1.543   5.314   3.108  0.1729  0.0773 -0.2775
 8112SOL    HW332221   1.585   5.403   3.223 -0.3437 -0.2406  0.1578
 8112SOL    MW432222   1.565   5.325   3.192 -0.0633 -0.1751 -0.1833
 8113SOL     OW32223   4.314   4.471   1.772  0.5548  0.0580  0.1353
 8113SOL    HW232224   4.320   4.565   1.783 -2.2678  0.2225  0.9626
 8113SOL    HW332225   4.380   4.435   1.832  0.6216  1.4478  0.9123
 8113SOL    MW432226   4.324   4.478   1.781  0.1912  0.2630  0.3470
 8114SOL     OW32227   4.703   5.366   0.725 -0.9391 -0.3038  0.1885
 8114SOL    HW232228   4.625   5.382   0.672 -0.8133  1.1879  0.4058
 8114SOL    HW332229   4.735   5.453   0.747 -0.9703 -0.8465  2.6994
 8114SOL    MW432230   4.697   5.379   0.721 -0.9266 -0.1786  0.5484
 8115SOL     OW32231   6.025   2.341   4.642  0.2968 -0.2137  0.2940
 8115SOL    HW232232   6.023   2.405   4.571 -1.3290 -1.8294 -1.2353
 8115SOL    HW332233   5.950   2.365   4.698  1.1519  0.6293  1.1189
 8115SOL    MW432234   6.015   2.353   4.640  0.1951 -0.3157  0.2011
 8116SOL     OW32235   3.098   1.500   0.857  0.4615  0.3677 -0.1010
 8116SOL    HW232236   3.012   1.460   0.873  0.6320 -0.5647 -1.3114
 8116SOL    HW332237   3.158   1.448   0.910  0.8793 -2.0416 -2.6598
 8116SOL    MW432238   3.095   1.488   0.866  0.5391 -0.0732 -0.5983
 8117SOL     OW32239   5.592   1.628   0.868 -0.5060  0.3236 -0.3847
 8117SOL    HW232240   5.559   1.607   0.781  0.6074 -1.2070 -0.4640
 8117SOL    HW332241   5.653   1.557   0.889  0.8530  1.7506  0.7655
 8117SOL    MW432242   5.596   1.616   0.859 -0.1798  0.3099 -0.2434
 8118SOL     OW32243   0.936   5.392   0.961 -0.6292 -0.2018  0.2098
 8118SOL    HW232244   0.945   5.449   1.037  0.9513  0.0715 -0.1423
 8118SOL    HW332245   0.996   5.319   0.978 -1.2487 -0.8149 -0.1787
 8118SOL    MW432246   0.945   5.390   0.973 -0.5024 -0.2466  0.1121
 8119SOL     OW32247   6.289   4.344   2.118 -0.1861  0.2104  0.4875
 8119SOL    HW232248   6.237   4.419   2.090 -1.2819  0.2698  2.4839
 8119SOL    HW332249   6.229   4.269   2.112  0.7877 -0.5048 -1.1391
 8119SOL    MW432250   6.274   4.344   2.113 -0.2022  0.1239  0.5363
 8120SOL     OW32251   5.502   2.633   2.574 -0.0771 -0.1845  0.2215
 8120SOL    HW232252   5.598   2.633   2.575 -0.0731 -0.5647  0.8350
 8120SOL    HW332253   5.479   2.580   2.499  0.2037 -0.5350  0.3788
 8120SOL    MW432254   5.511   2.626   2.565 -0.0396 -0.2809  0.3232
 8121SOL     OW32255   2.637   0.190   5.767 -0.7285  0.3765  0.3272
 8121SOL    HW232256   2.598   0.140   5.839 -0.7413  0.7387  0.5752
 8121SOL    HW332257   2.660   0.124   5.702 -1.1975  0.0958  0.4398
 8121SOL    MW432258   2.635   0.174   5.768 -0.7920  0.3872  0.3748
 8122SOL     OW32259   2.897   4.775   0.192 -0.3075  0.2466 -0.2704
 8122SOL    HW232260   2.964   4.836   0.224  0.2838 -0.8924  0.7185
 8122SOL    HW332261   2.853   4.743   0.270 -0.5147 -0.7161 -0.7641
 8122SOL    MW432262   2.900   4.779   0.206 -0.2568 -0.0307 -0.2051
 8123SOL     OW32263   4.160   4.357   3.346 -0.8345  0.0495  0.3922
 8123SOL    HW232264   4.165   4.452   3.340 -1.4691  0.1253  1.0903
 8123SOL    HW332265   4.074   4.335   3.311 -0.4720 -0.3225 -0.2967
 8123SOL    MW432266   4.150   4.366   3.340 -0.8704  0.0104  0.3934
 8124SOL     OW32267   1.109   2.825   2.157  0.5921  0.0462  0.0890
 8124SOL    HW232268   1.071   2.737   2.159  0.9567 -0.1068  1.7576
 8124SOL    HW332269   1.034   2.883   2.143  0.1623 -0.4432  0.3198
 8124SOL    MW432270   1.094   2.821   2.155  0.5835 -0.0385  0.3396
 8125SOL     OW32271   6.383   3.625   6.366 -0.5969  0.1088 -0.0071
 8125SOL    HW232272   6.462   3.673   6.390  0.4339 -1.1615 -0.7635
 8125SOL    HW332273   6.409   3.533   6.366 -1.6037 -0.2336 -1.9228
 8125SOL    MW432274   6.397   3.620   6.369 -0.5937 -0.1040 -0.3596
 8126SOL     OW32275   4.911   5.323   0.151  0.6440  0.3979  0.0814
 8126SOL    HW232276   4.840   5.372   0.193  0.1615 -0.4077  0.2168
 8126SOL    HW332277   4.872   5.289   0.071  1.0882  0.5440 -0.1993
 8126SOL    MW432278   4.897   5.325   0.146  0.6390  0.3109  0.0622
 8127SOL     OW32279   4.777   5.187   0.933  0.0144  0.1201 -0.1410
 8127SOL    HW232280   4.774   5.231   0.848 -0.4082  0.4483  0.0416
 8127SOL    HW332281   4.823   5.249   0.990 -0.2390  0.1640  0.0181
 8127SOL    MW432282   4.783   5.201   0.929 -0.0748  0.1692 -0.0959
 8128SOL     OW32283   5.185   0.635   2.419 -0.3772 -0.0493  0.5049
 8128SOL    HW232284   5.257   0.698   2.419 -1.9061  1.8316 -0.5776
 8128SOL    HW332285   5.219   0.558   2.464  0.9804  2.2764  3.8077
 8128SOL    MW432286   5.199   0.633   2.425 -0.3998  0.5057  0.7978
 8129SOL     OW32287   0.174   2.950   0.652  0.3144  0.4759 -0.0500
 8129SOL    HW232288   0.211   2.866   0.626 -2.3201 -0.4407 -1.0922
 8129SOL    HW332289   0.222   2.973   0.732 -0.5328 -3.2799  1.7602
 8129SOL    MW432290   0.185   2.942   0.659 -0.1450 -0.1405  0.0514
 8130SOL     OW32291   3.329   2.747   6.234 -0.6338  0.4378  0.2009
 8130SOL    HW232292   3.380   2.705   6.164  0.5220  1.4218  0.4078
 8130SOL    HW332293   3.303   2.675   6.292  0.8800 -0.0681  0.2948
 8130SOL    MW432294   3.332   2.732   6.232 -0.2816  0.5009  0.2406
 8131SOL     OW32295   3.954   4.295   3.930  0.0117  0.3329 -0.1278
 8131SOL    HW232296   4.007   4.242   3.870 -0.5823  0.5208 -0.8329
 8131SOL    HW332297   3.896   4.232   3.972 -1.0535  0.4590 -1.3486
 8131SOL    MW432298   3.953   4.280   3.928 -0.2072  0.3744 -0.3819
 8132SOL     OW32299   0.045   5.015   3.641  0.0557  0.0722  0.2591
 8132SOL    HW232300   0.135   5.042   3.622 -0.5218  0.9488 -1.4793
 8132SOL    HW332301   0.053   4.928   3.679  1.6012 -0.2897 -0.8221
 8132SOL    MW432302   0.058   5.007   3.643  0.1834  0.1401 -0.1129
 8133SOL     OW32303   4.103   4.661   2.312 -0.7271 -0.4923  0.1954
 8133SOL    HW232304   4.041   4.588   2.315 -2.4758  0.8204 -1.6351
 8133SOL    HW332305   4.135   4.661   2.222  0.2313  0.2476  0.5217
 8133SOL    MW432306   4.099   4.651   2.301 -0.8314 -0.2215 -0.0030
 8134SOL     OW32307   3.214   1.940   2.584  0.0818 -1.1494 -0.1410
 8134SOL    HW232308   3.180   2.016   2.538  1.5649 -1.8539 -2.5825
 8134SOL    HW332309   3.245   1.974   2.668 -2.6041  0.2197  0.3790
 8134SOL    MW432310   3.214   1.954   2.589 -0.0769 -1.0617 -0.3945
 8135SOL     OW32311   0.010  -0.003   2.108 -0.2472  0.2243 -0.2295
 8135SOL    HW232312   0.030  -0.096   2.114 -1.0152  0.0523 -0.2076
 8135SOL    HW332313   0.061   0.028   2.033  0.6550 -0.0319  0.2767
 8135SOL    MW432314   0.019  -0.011   2.099 -0.2295  0.1678 -0.1598
 8136SOL     OW32315   2.821   2.812   5.489  0.2028  0.5496  0.4985
 8136SOL    HW232316   2.842   2.787   5.399 -1.5868 -1.5862  0.5970
 8136SOL    HW332317   2.887   2.768   5.543 -0.7632 -1.0983  0.4056
 8136SOL    MW432318   2.833   2.803   5.485 -0.1608  0.0504  0.4993
 8137SOL     OW32319   5.265   5.125   3.958 -0.4222  0.0259 -0.3707
 8137SOL    HW232320   5.242   5.218   3.948  0.6780  0.5559  1.4590
 8137SOL    HW332321   5.360   5.123   3.944 -0.7009 -1.2031 -2.4408
 8137SOL    MW432322   5.275   5.137   3.955 -0.3138 -0.0663 -0.4024
 8138SOL     OW32323   6.343   2.049   1.112  0.6292  0.1050  0.4634
 8138SOL    HW232324   6.319   2.141   1.118 -0.7031 -0.3083  2.6452
 8138SOL    HW332325   6.435   2.049   1.087  0.0679  1.9257 -1.9585
 8138SOL    MW432326   6.352   2.061   1.109  0.3793  0.2906  0.4317
 8139SOL     OW32327   5.872   0.600   0.658  0.0490  0.8849 -0.2503
 8139SOL    HW232328   5.830   0.659   0.720 -0.3155  0.9950 -0.5964
 8139SOL    HW332329   5.887   0.654   0.580 -0.7196  0.4079 -0.7430
 8139SOL    MW432330   5.868   0.615   0.656 -0.1005  0.8365 -0.3610
 8140SOL     OW32331   2.036   0.284   4.861 -0.1307  0.1939 -0.5209
 8140SOL    HW232332   1.952   0.273   4.904 -0.3707 -0.6984 -1.1804
 8140SOL    HW332333   2.058   0.196   4.828  0.9774  0.4434 -0.4936
 8140SOL    MW432334   2.028   0.271   4.862 -0.0161  0.1091 -0.6043
 8141SOL     OW32335   1.591   0.461   3.217  0.3074  0.0099  0.2815
 8141SOL    HW232336   1.626   0.533   3.165 -1.0839 -1.0235 -2.2746
 8141SOL    HW332337   1.627   0.382   3.176 -2.7722 -0.9659 -0.8010
 8141SOL    MW432338   1.601   0.460   3.205 -0.2825 -0.2552 -0.1986
 8142SOL     OW32339   1.661   1.567   4.222 -0.2864 -0.0988 -0.0842
 8142SOL    HW232340   1.569   1.544   4.222 -0.2649 -0.1866  0.3100
 8142SOL    HW332341   1.662   1.663   4.214 -0.3611 -0.2411 -2.7921
 8142SOL    MW432342   1.649   1.577   4.221 -0.2935 -0.1292 -0.3895
 8143SOL     OW32343   0.668   4.045   2.643 -0.2121 -0.1333  0.6145
 8143SOL    HW232344   0.654   3.978   2.710 -0.7936 -0.7093 -0.0809
 8143SOL    HW332345   0.686   3.996   2.563 -1.5820  0.5014 -0.1178
 8143SOL    MW432346   0.669   4.030   2.642 -0.4696 -0.1256  0.4261
 8144SOL     OW32347   5.688   2.315   5.435  0.3715  0.5518 -0.6222
 8144SOL    HW232348   5.628   2.244   5.457 -2.3259  2.6994 -0.4179
 8144SOL    HW332349   5.735   2.285   5.357  0.3847 -1.9514  0.2907
 8144SOL    MW432350   5.686   2.302   5.427  0.0174  0.5049 -0.4748
 8145SOL     OW32351   3.270   3.052   3.282 -1.1096 -0.2531 -0.1384
 8145SOL    HW232352   3.335   2.989   3.312 -0.1874  0.3200 -0.8723
 8145SOL    HW332353   3.311   3.094   3.206 -2.0362  0.6442 -0.1625
 8145SOL    MW432354   3.284   3.050   3.276 -1.1102 -0.0591 -0.2384
 8146SOL     OW32355   5.121   5.097   1.823 -0.6955  0.2238  0.3559
 8146SOL    HW232356   5.191   5.032   1.823 -0.2084  0.7372  0.3737
 8146SOL    HW332357   5.088   5.098   1.913  0.2080  0.9501  0.6980
 8146SOL    MW432358   5.126   5.089   1.835 -0.5120  0.3874  0.4034
 8147SOL     OW32359   2.710   3.412   6.048  0.4038  0.3540  0.4068
 8147SOL    HW232360   2.623   3.373   6.044 -0.7613  2.8059 -0.5318
 8147SOL    HW332361   2.720   3.439   6.139  0.6350 -0.7928  0.7380
 8147SOL    MW432362   2.700   3.411   6.059  0.2806  0.5262  0.3267
 8148SOL     OW32363   3.842   1.022   6.189  0.0890 -0.4270  0.1809
 8148SOL    HW232364   3.841   0.942   6.136 -1.1091 -0.2867 -0.0311
 8148SOL    HW332365   3.755   1.060   6.177  0.1447  0.1518  1.4417
 8148SOL    MW432366   3.831   1.017   6.180 -0.0617 -0.3321  0.3192
 8149SOL     OW32367   2.215   5.771   5.501 -0.4931 -0.2954 -0.0255
 8149SOL    HW232368   2.252   5.840   5.557 -0.1941 -0.5036  0.0367
 8149SOL    HW332369   2.122   5.768   5.525 -0.5223  0.1318 -0.0779
 8149SOL    MW432370   2.207   5.780   5.512 -0.4575 -0.2665 -0.0242
 8150SOL     OW32371   5.587   4.134   3.455  0.4142  0.4248 -0.0047
 8150SOL    HW232372   5.634   4.091   3.384  0.9088 -0.6200  0.9353
 8150SOL    HW332373   5.504   4.162   3.415 -0.0630 -1.6654 -0.5901
 8150SOL    MW432374   5.582   4.132   3.440  0.4165  0.0112  0.0421
 8151SOL     OW32375   0.603   1.047   3.186 -0.4095 -0.1681 -0.4229
 8151SOL    HW232376   0.595   1.035   3.091 -1.2419 -1.6316 -0.2021
 8151SOL    HW332377   0.624   0.959   3.219  0.3978  0.4257  0.7136
 8151SOL    MW432378   0.605   1.034   3.178 -0.4128 -0.2828 -0.2438
 8152SOL     OW32379   1.802   1.015   4.413 -0.1021  0.6808 -0.3781
 8152SOL    HW232380   1.897   1.003   4.413 -0.2787 -1.6038  1.9617
 8152SOL    HW332381   1.768   0.937   4.370 -0.9468 -0.1681  1.7225
 8152SOL    MW432382   1.810   1.003   4.407 -0.2368  0.2674  0.2077
 8153SOL     OW32383   4.072   5.895   6.127 -0.1418  0.4765  0.0403
 8153SOL    HW232384   4.103   5.826   6.069  0.0363  1.1852 -0.7248
 8153SOL    HW332385   4.044   5.849   6.206 -0.6703 -0.5384 -0.7181
 8153SOL    MW432386   4.072   5.880   6.130 -0.1880  0.4361 -0.1607
 8154SOL     OW32387   2.729   4.623   5.525  0.6027 -0.5645 -0.5446
 8154SOL    HW232388   2.664   4.621   5.595  0.2429  1.1134 -0.7920
 8154SOL    HW332389   2.799   4.566   5.556 -0.4323 -1.4587  0.2600
 8154SOL    MW432390   2.729   4.615   5.538  0.4187 -0.4611 -0.4711
 8155SOL     OW32391   1.625   4.674   2.673 -0.4492  0.2587 -0.2530
 8155SOL    HW232392   1.614   4.763   2.708 -0.6819 -0.2115  0.9198
 8155SOL    HW332393   1.537   4.650   2.644 -0.4370  0.3189 -0.3406
 8155SOL    MW432394   1.612   4.683   2.674 -0.4783  0.2046 -0.1099
 8156SOL     OW32395   1.277   5.720   3.851  0.2065  0.1950  0.0248
 8156SOL    HW232396   1.350   5.754   3.902 -0.6483 -0.3807  1.7148
 8156SOL    HW332397   1.216   5.686   3.916 -1.2457  0.0008 -1.3693
 8156SOL    MW432398   1.279   5.720   3.866 -0.0979  0.0934  0.0639
 8157SOL     OW32399   5.407   5.001   3.495  0.1358 -0.0649  0.1479
 8157SOL    HW232400   5.352   4.948   3.552  0.0110  0.5885  0.6578
 8157SOL    HW332401   5.493   5.003   3.538  0.0459  0.4145  0.3192
 8157SOL    MW432402   5.411   4.995   3.508  0.1075  0.0846  0.2378
 8158SOL     OW32403   4.247   0.762   1.948 -0.2247  0.2961 -0.4152
 8158SOL    HW232404   4.281   0.673   1.960  0.4438  0.5542 -0.3875
 8158SOL    HW332405   4.244   0.799   2.036  0.3713  0.6140 -0.5215
 8158SOL    MW432406   4.251   0.755   1.961 -0.0578  0.3721 -0.4255
 8159SOL     OW32407   5.933   0.680   1.045 -0.0171 -0.0056 -0.2198
 8159SOL    HW232408   5.866   0.663   0.978  1.0047  1.3399 -1.6417
 8159SOL    HW332409   5.891   0.742   1.105 -1.0479 -1.4549  0.6660
 8159SOL    MW432410   5.918   0.686   1.044 -0.0183 -0.0193 -0.2905
 8160SOL     OW32411   2.227   5.705   0.887 -0.0356 -0.7947 -0.5668
 8160SOL    HW232412   2.246   5.668   0.801 -0.8207  0.2830 -1.2359
 8160SOL    HW332413   2.156   5.651   0.922  1.1439 -2.0438  0.0029
 8160SOL    MW432414   2.220   5.693   0.880  0.0164 -0.8173 -0.5799
 8161SOL     OW32415   2.525   0.337   0.349 -0.7967 -0.2660 -0.3515
 8161SOL    HW232416   2.467   0.320   0.275 -0.7118 -0.9887 -0.2600
 8161SOL    HW332417   2.614   0.330   0.312 -0.7557 -0.2070 -0.2647
 8161SOL    MW432418   2.529   0.334   0.334 -0.7801 -0.3536 -0.3280
 8162SOL     OW32419   6.161   1.358   5.990 -0.0435  0.4245  0.4350
 8162SOL    HW232420   6.107   1.375   6.067  0.1121 -0.1591  0.6761
 8162SOL    HW332421   6.149   1.436   5.935  0.4713  1.2088  1.3991
 8162SOL    MW432422   6.152   1.370   5.992  0.0450  0.4510  0.5940
 8163SOL     OW32423   4.100   0.241   4.740 -0.4260  0.0633  0.1738
 8163SOL    HW232424   4.177   0.249   4.797  0.9674 -1.4791 -1.4041
 8163SOL    HW332425   4.033   0.201   4.797  1.2394 -2.4015  0.5700
 8163SOL    MW432426   4.101   0.237   4.755 -0.0225 -0.4654  0.0179
 8164SOL     OW32427   3.817   1.620   3.166 -0.1748  0.0328  0.2151
 8164SOL    HW232428   3.828   1.705   3.124 -0.1933  1.1094  2.3022
 8164SOL    HW332429   3.782   1.563   3.096  0.3650  1.5496 -1.3611
 8164SOL    MW432430   3.814   1.623   3.151 -0.1060  0.3750  0.2825
 8165SOL     OW32431   4.314   5.943   5.169 -0.4529 -0.9243  0.0727
 8165SOL    HW232432   4.313   5.853   5.137 -1.1935 -0.8538 -0.1325
 8165SOL    HW332433   4.221   5.966   5.177 -0.3602 -1.1821  2.9807
 8165SOL    MW432434   4.302   5.934   5.166 -0.5384 -0.9491  0.4293
 8166SOL     OW32435   5.458   0.159   1.707 -0.2742 -0.3681  0.1362
 8166SOL    HW232436   5.529   0.113   1.752  0.3166  0.3119 -0.0774
 8166SOL    HW332437   5.474   0.251   1.726  0.3811  0.0126 -1.9631
 8166SOL    MW432438   5.470   0.165   1.715 -0.1098 -0.2282 -0.1690
 8167SOL     OW32439   1.656   1.202   5.082 -0.3928  0.7481  0.6292
 8167SOL    HW232440   1.653   1.238   5.171  1.8815 -1.6563  1.8073
 8167SOL    HW332441   1.730   1.248   5.041 -1.0226  1.3716  0.1598
 8167SOL    MW432442   1.665   1.213   5.088 -0.1759  0.5131  0.7227
 8168SOL     OW32443   4.143   3.772   4.801  0.0040 -0.3445 -0.5007
 8168SOL    HW232444   4.191   3.779   4.884  0.9351  0.7699 -1.1040
 8168SOL    HW332445   4.173   3.847   4.750 -0.7695 -0.8623 -1.7496
 8168SOL    MW432446   4.153   3.783   4.805  0.0248 -0.2658 -0.7451
 8169SOL     OW32447   2.635   4.251   3.147 -0.4697 -0.1808 -0.1382
 8169SOL    HW232448   2.562   4.257   3.208 -1.7514 -0.7684 -1.5535
 8169SOL    HW332449   2.629   4.163   3.111  0.1113  0.2195 -1.2670
 8169SOL    MW432450   2.625   4.240   3.150 -0.5621 -0.2055 -0.4739
 8170SOL     OW32451   1.591   2.110   3.051 -0.2373 -0.0445 -0.0300
 8170SOL    HW232452   1.651   2.183   3.034  0.0341 -0.1573  0.4537
 8170SOL    HW332453   1.562   2.083   2.964 -0.3193  0.6214 -0.2218
 8170SOL    MW432454   1.595   2.116   3.037 -0.2123  0.0285  0.0085
 8171SOL     OW32455   1.237   4.169   5.889 -0.0797 -0.1723  0.5425
 8171SOL    HW232456   1.164   4.176   5.951 -0.3415  1.6796  0.0834
 8171SOL    HW332457   1.311   4.208   5.935  0.1212 -0.2318  0.2727
 8171SOL    MW432458   1.237   4.175   5.903 -0.0878  0.0642  0.4463
 8172SOL     OW32459   0.888   1.588   5.830 -0.2619  0.2196 -0.2194
 8172SOL    HW232460   0.874   1.511   5.776  2.0177 -0.3909 -0.0539
 8172SOL    HW332461   0.933   1.555   5.908  1.1507  1.7253 -0.3337
 8172SOL    MW432462   0.892   1.573   5.834  0.2252  0.3377 -0.2127
 8173SOL     OW32463   3.900   0.245   1.139  0.3607  0.6453  0.3426
 8173SOL    HW232464   3.927   0.308   1.073  1.5020  0.4295  0.5814
 8173SOL    HW332465   3.901   0.294   1.222 -2.0223  1.1893  0.1437
 8173SOL    MW432466   3.903   0.260   1.141  0.1969  0.6886  0.3478
 8174SOL     OW32467   5.072   0.758   0.184  0.1235  0.3239 -0.2684
 8174SOL    HW232468   5.113   0.756   0.098 -0.7082 -0.5211 -0.6655
 8174SOL    HW332469   5.045   0.849   0.196  0.8655  0.5878 -0.5976
 8174SOL    MW432470   5.074   0.770   0.174  0.1117  0.2472 -0.3642
 8175SOL     OW32471   1.263   0.518   3.642 -0.0428 -0.3380  0.2734
 8175SOL    HW232472   1.327   0.530   3.572 -1.2456  0.3042 -0.7624
 8175SOL    HW332473   1.178   0.525   3.598 -0.8479  1.2541  1.9747
 8175SOL    MW432474   1.260   0.520   3.627 -0.3077 -0.0432  0.3612
 8176SOL     OW32475   3.835   3.191   2.138  0.4922  0.5087 -0.5492
 8176SOL    HW232476   3.817   3.265   2.195  0.9813 -0.0878  0.4069
 8176SOL    HW332477   3.930   3.181   2.141  0.3917 -0.5339 -0.1498
 8176SOL    MW432478   3.845   3.199   2.146  0.5435  0.2924 -0.3704
 8177SOL     OW32479   4.182   2.923   3.531  0.1582 -0.2714 -0.6179
 8177SOL    HW232480   4.127   2.877   3.594  0.1547  0.3220 -0.1748
 8177SOL    HW332481   4.271   2.893   3.551  0.4987  1.7457  1.3860
 8177SOL    MW432482   4.187   2.913   3.542  0.2026  0.0730 -0.2950
 8178SOL     OW32483   4.698   2.315   0.230  0.2534  0.4596 -0.1052
 8178SOL    HW232484   4.607   2.312   0.201 -0.1545  1.0315  1.0541
 8178SOL    HW332485   4.725   2.406   0.215 -0.4723  1.2215  2.6461
 8178SOL    MW432486   4.690   2.327   0.224  0.1038  0.6356  0.4108
 8179SOL     OW32487   4.144   5.179   5.952  0.1556 -0.4415  0.1943
 8179SOL    HW232488   4.105   5.251   6.001  1.0940 -0.1455  0.5243
 8179SOL    HW332489   4.219   5.152   6.004  1.6285  0.3628 -1.4142
 8179SOL    MW432490   4.149   5.185   5.965  0.4738 -0.2963  0.0256
 8180SOL     OW32491   6.003   1.573   3.648 -0.1914 -0.4077 -0.1981
 8180SOL    HW232492   6.042   1.496   3.689 -0.5365 -0.7251 -0.4564
 8180SOL    HW332493   5.974   1.543   3.562 -0.6933 -0.0941 -0.1463
 8180SOL    MW432494   6.004   1.559   3.642 -0.3031 -0.4082 -0.2253
 8181SOL     OW32495   1.448   4.896   0.219 -0.0574 -0.2259 -0.4443
 8181SOL    HW232496   1.427   4.825   0.278 -2.0653  0.2582 -0.5058
 8181SOL    HW332497   1.400   4.876   0.138 -2.5176  2.1874  0.2534
 8181SOL    MW432498   1.439   4.884   0.216 -0.6469  0.1564 -0.3603
 8182SOL     OW32499   6.089   6.060   4.167 -0.2814 -0.3667  0.5480
 8182SOL    HW232500   6.119   6.048   4.257  1.5485 -0.6688 -0.0658
 8182SOL    HW332501   6.114   6.149   4.144 -1.1425 -0.1322  0.4553
 8182SOL    MW432502   6.096   6.070   4.176 -0.1536 -0.3756  0.4548
 8183SOL     OW32503   0.939   0.263   5.039 -0.4681 -0.3828 -0.2723
 8183SOL    HW232504   0.860   0.214   5.064 -0.4281 -0.2649  0.0994
 8183SOL    HW332505   0.907   0.335   4.986 -0.4848 -1.0744 -1.2236
 8183SOL    MW432506   0.924   0.266   5.035 -0.4650 -0.4585 -0.3488
 8184SOL     OW32507   4.442   5.078   0.636  0.1480  0.0124 -0.2944
 8184SOL    HW232508   4.520   5.027   0.655  1.0209  0.7532 -1.6836
 8184SOL    HW332509   4.394   5.082   0.719  1.7115 -0.2429  0.6511
 8184SOL    MW432510   4.446   5.072   0.649  0.4694  0.0765 -0.3529
 8185SOL     OW32511   6.339   1.717   5.065  0.1672 -0.4359  0.2667
 8185SOL    HW232512   6.384   1.655   5.122  1.6768  0.8984  0.5938
 8185SOL    HW332513   6.405   1.744   5.002 -0.2238  1.3300  0.5621
 8185SOL    MW432514   6.353   1.713   5.064  0.3148 -0.0269  0.3488
 8186SOL     OW32515   2.752   1.733   0.880 -0.0179  0.0699  0.3130
 8186SOL    HW232516   2.780   1.642   0.889 -1.6452 -0.6409 -1.1516
 8186SOL    HW332517   2.717   1.738   0.791 -0.5767  1.9603  0.6075
 8186SOL    MW432518   2.751   1.721   0.869 -0.3063  0.2256  0.1587
 8187SOL     OW32519   2.508   6.221   2.264  0.3900  0.3693  0.0139
 8187SOL    HW232520   2.567   6.285   2.303  1.0161  2.0225 -3.2483
 8187SOL    HW332521   2.559   6.181   2.193 -1.1445 -1.1741 -0.2922
 8187SOL    MW432522   2.522   6.224   2.260  0.2702  0.3838 -0.4569
 8188SOL     OW32523   6.168   4.089   1.273 -0.5071 -0.4322  0.3279
 8188SOL    HW232524   6.216   4.160   1.231 -0.7823  0.0732  0.8577
 8188SOL    HW332525   6.124   4.044   1.200  0.7490 -0.9170 -0.1673
 8188SOL    MW432526   6.168   4.092   1.258 -0.3777 -0.4295  0.3325
 8189SOL     OW32527   1.032   2.567   4.897 -0.4029  0.4967  0.4017
 8189SOL    HW232528   0.944   2.601   4.914 -0.1985  2.0059 -1.3311
 8189SOL    HW332529   1.029   2.534   4.807  1.0561  1.5603 -0.0790
 8189SOL    MW432530   1.020   2.567   4.888 -0.1835  0.8361  0.1096
 8190SOL     OW32531   0.632   0.960   3.871  0.0613  0.0196  0.4812
 8190SOL    HW232532   0.708   1.017   3.859  0.0039 -0.2425 -1.2418
 8190SOL    HW332533   0.561   1.020   3.895  0.6407  0.3316  1.4689
 8190SOL    MW432534   0.633   0.976   3.873  0.1301  0.0262  0.3842
 8191SOL     OW32535   5.094   4.485   3.849  0.5965  0.2791  0.5137
 8191SOL    HW232536   5.074   4.568   3.893  0.5642  0.2810  0.4952
 8191SOL    HW332537   5.052   4.419   3.904  0.5614  0.2810  0.4893
 8191SOL    MW432538   5.085   4.488   3.862  0.5876  0.2796  0.5081
 8192SOL     OW32539   0.161   3.099   1.253 -0.0926  0.2901  0.2097
 8192SOL    HW232540   0.159   3.142   1.168 -0.1955  2.9038  1.4495
 8192SOL    HW332541   0.246   3.055   1.256 -0.4414 -0.5879 -1.5309
 8192SOL    MW432542   0.172   3.099   1.242 -0.1522  0.5191  0.1437
 8193SOL     OW32543   0.020   2.152   4.461 -0.3410 -0.2341  0.4726
 8193SOL    HW232544  -0.010   2.238   4.432 -0.7636 -0.0437  1.4286
 8193SOL    HW332545  -0.022   2.090   4.402 -2.9765 -0.0148  1.9438
 8193SOL    MW432546   0.011   2.156   4.450 -0.7445 -0.1800  0.7928
 8194SOL     OW32547   1.471   3.424   2.967 -0.3336  0.2397 -0.1677
 8194SOL    HW232548   1.407   3.488   2.937  0.0194  0.8185  0.3131
 8194SOL    HW332549   1.556   3.466   2.955 -0.1743  0.4892  1.6032
 8194SOL    MW432550   1.474   3.438   2.961 -0.2660  0.3490  0.1294
 8195SOL     OW32551   3.897   4.821   4.720 -0.6293 -0.1860 -0.1489
 8195SOL    HW232552   3.969   4.822   4.658 -1.4315  1.3751 -1.1268
 8195SOL    HW332553   3.824   4.781   4.672 -0.7630 -0.6627  0.4289
 8195SOL    MW432554   3.897   4.816   4.706 -0.7528 -0.0430 -0.2017
 8196SOL     OW32555   4.806   5.434   2.314 -0.6250 -0.0488  0.2673
 8196SOL    HW232556   4.777   5.365   2.373 -1.1894  0.4299  0.5642
 8196SOL    HW332557   4.729   5.456   2.261 -0.4656  0.3688  0.1986
 8196SOL    MW432558   4.792   5.428   2.315 -0.6784  0.0694  0.2974
 8197SOL     OW32559   3.622   3.316   4.658 -0.1286  0.3651 -0.3331
 8197SOL    HW232560   3.706   3.275   4.679 -0.2871  0.0210 -0.3622
 8197SOL    HW332561   3.610   3.381   4.728 -0.6803 -0.8217  0.7291
 8197SOL    MW432562   3.632   3.320   4.670 -0.2223  0.1631 -0.1968
 8198SOL     OW32563   2.149   3.720   0.090  0.2234  0.0494  0.2614
 8198SOL    HW232564   2.115   3.757   0.009  1.0648  0.7370  0.1981
 8198SOL    HW332565   2.082   3.659   0.120 -0.0068 -0.3543 -1.0445
 8198SOL    MW432566   2.136   3.717   0.084  0.3040  0.0869  0.0807
 8199SOL     OW32567   2.811   2.700   1.576  0.5860  0.4442  0.0248
 8199SOL    HW232568   2.825   2.768   1.510  0.4916  0.0042 -0.4546
 8199SOL    HW332569   2.767   2.629   1.528  0.4566  0.1485  0.5758
 8199SOL    MW432570   2.807   2.700   1.561  0.5565  0.3472  0.0342
 8200SOL     OW32571   0.038   2.097   5.161  0.1102 -0.5420  1.0561
 8200SOL    HW232572  -0.026   2.039   5.203 -0.3373 -1.5423 -0.9086
 8200SOL    HW332573   0.046   2.171   5.221 -2.6842 -0.5273  1.5228
 8200SOL    MW432574   0.031   2.099   5.175 -0.3175 -0.6720  0.8584
 8201SOL     OW32575   1.211   2.266   2.392 -0.0637  0.1771 -0.1353
 8201SOL    HW232576   1.262   2.336   2.433 -0.8933 -0.0534  1.3540
 8201SOL    HW332577   1.251   2.185   2.424 -0.3504 -0.0092 -0.2457
 8201SOL    MW432578   1.223   2.265   2.402 -0.2110  0.1221  0.0467
 8202SOL     OW32579   4.165   0.572   0.624  0.3611 -0.5553  0.3016
 8202SOL    HW232580   4.249   0.597   0.586 -0.0106  0.7495  0.2828
 8202SOL    HW332581   4.149   0.484   0.590  1.0387 -0.2488 -0.8876
 8202SOL    MW432582   4.174   0.564   0.614  0.4015 -0.3427  0.1422
 8203SOL     OW32583   6.370   4.011   5.753 -0.0410  0.0777  0.1411
 8203SOL    HW232584   6.277   3.992   5.769 -0.2856  0.6748 -0.4821
 8203SOL    HW332585   6.417   3.938   5.794 -0.8508 -0.9683 -0.7150
 8203SOL    MW432586   6.364   3.999   5.760 -0.1801  0.0185 -0.0541
 8204SOL     OW32587   3.893   4.283   2.048  0.6597  0.3562  0.1821
 8204SOL    HW232588   3.826   4.340   2.010  0.7835 -1.1641 -2.5401
 8204SOL    HW332589   3.843   4.216   2.095  0.2479 -0.2324 -1.0488
 8204SOL    MW432590   3.877   4.281   2.049  0.6217  0.0779 -0.3394
 8205SOL     OW32591   2.108   4.520   5.935 -0.8723  0.2346  0.0459
 8205SOL    HW232592   2.072   4.481   5.855 -0.0409 -0.4284 -0.0110
 8205SOL    HW332593   2.120   4.446   5.994  0.4235  0.4288  0.0532
 8205SOL    MW432594   2.105   4.505   5.932 -0.5916  0.1728  0.0393
 8206SOL     OW32595   6.177   2.943   6.194 -0.3348  0.6778  0.6308
 8206SOL    HW232596   6.236   2.988   6.253 -0.1928  1.2061  0.1031
 8206SOL    HW332597   6.199   2.850   6.203  0.5157  0.8617  0.5018
 8206SOL    MW432598   6.187   2.936   6.203 -0.2038  0.7718  0.5441
 8207SOL     OW32599   0.449   3.501   2.706 -0.0939 -0.2625 -0.0025
 8207SOL    HW232600   0.367   3.457   2.685 -0.7172  0.8808 -0.0487
 8207SOL    HW332601   0.444   3.520   2.800  1.6678 -3.2616  0.8345
 8207SOL    MW432602   0.438   3.498   2.716  0.0563 -0.5073  0.1019
 8208SOL     OW32603   2.910   0.065   5.214  0.2315 -0.3991 -0.6063
 8208SOL    HW232604   2.955  -0.015   5.240  1.1205  0.7509  1.7005
 8208SOL    HW332605   2.831   0.067   5.268  0.7435  0.7481  0.1465
 8208SOL    MW432606   2.905   0.055   5.224  0.4163 -0.0960 -0.2026
 8209SOL     OW32607   2.335   4.505   5.566  0.2465 -0.0180 -0.2808
 8209SOL    HW232608   2.246   4.538   5.556  1.1299  2.1520 -1.7677
 8209SOL    HW332609   2.381   4.532   5.486  2.3312 -0.7299  0.5883
 8209SOL    MW432610   2.330   4.513   5.554  0.6381  0.1744 -0.3623
 8210SOL     OW32611   5.800   4.660   4.517  0.2537  0.1637 -0.3204
 8210SOL    HW232612   5.768   4.747   4.493  0.7240  0.8493  1.3849
 8210SOL    HW332613   5.721   4.607   4.530 -0.0301  0.2679 -1.4990
 8210SOL    MW432614   5.785   4.664   4.515  0.2783  0.2679 -0.2509
 8211SOL     OW32615   5.403   3.799   0.946 -0.1661 -0.2214  0.1088
 8211SOL    HW232616   5.362   3.800   0.860  1.3845  1.4261 -0.6805
 8211SOL    HW332617   5.360   3.871   0.993 -0.5596 -0.7069  0.5059
 8211SOL    MW432618   5.392   3.809   0.941 -0.0134 -0.0681  0.0571
 8212SOL     OW32619   2.533   2.627   3.309  0.0542  0.0358  0.1347
 8212SOL    HW232620   2.615   2.666   3.279  1.4773 -1.6601  1.5837
 8212SOL    HW332621   2.510   2.678   3.387  0.6697 -0.5373  0.7013
 8212SOL    MW432622   2.541   2.639   3.316  0.3232 -0.2636  0.4006
 8213SOL     OW32623   2.275   1.367   3.942  0.5932 -0.2344  0.0486
 8213SOL    HW232624   2.262   1.318   3.860 -0.4271 -0.9365  0.5995
 8213SOL    HW332625   2.359   1.336   3.976 -0.4392 -2.3399  0.8401
 8213SOL    MW432626   2.284   1.356   3.936  0.3224 -0.6048  0.2257
 8214SOL     OW32627   1.643   5.817   4.289  0.8797  0.3481  0.3631
 8214SOL    HW232628   1.709   5.767   4.337  0.1459 -0.1746  0.8388
 8214SOL    HW332629   1.564   5.763   4.294 -0.0160  1.6958  1.1462
 8214SOL    MW432630   1.642   5.803   4.296  0.6647  0.4570  0.5291
 8215SOL     OW32631   3.576   5.149   5.581  0.0867  0.5871  0.4797
 8215SOL    HW232632   3.558   5.243   5.577  0.0169  0.5305 -2.2446
 8215SOL    HW332633   3.492   5.107   5.561  0.5366  0.0240 -0.2987
 8215SOL    MW432634   3.563   5.156   5.578  0.1368  0.5053  0.0176
 8216SOL     OW32635   5.601   4.062   4.800  0.0787  0.0204 -0.3840
 8216SOL    HW232636   5.623   4.139   4.747  1.3402  0.5007  0.7976
 8216SOL    HW332637   5.653   4.071   4.879  0.6866 -2.3211 -0.4254
 8216SOL    MW432638   5.611   4.073   4.803  0.3253 -0.2252 -0.2336
 8217SOL     OW32639   1.443   2.848   2.755 -0.1709  0.7145 -0.0537
 8217SOL    HW232640   1.359   2.883   2.728  0.4448  2.9103  0.6903
 8217SOL    HW332641   1.504   2.875   2.685 -0.0102 -0.6951 -0.4976
 8217SOL    MW432642   1.440   2.856   2.742 -0.0685  0.8183 -0.0141
 8218SOL     OW32643   5.250   3.174   3.980 -0.3467  0.2697  0.3802
 8218SOL    HW232644   5.322   3.171   3.917 -1.6208  1.3208 -1.2259
 8218SOL    HW332645   5.230   3.082   3.998  1.8427 -0.0382  1.4552
 8218SOL    MW432646   5.257   3.161   3.974 -0.2260  0.3678  0.3102
 8219SOL     OW32647   0.683   5.046  -0.006  0.0651  0.5174  0.5952
 8219SOL    HW232648   0.636   5.090   0.065 -0.0306  1.5299 -0.0664
 8219SOL    HW332649   0.762   5.100  -0.019 -0.7593  1.3840 -1.2001
 8219SOL    MW432650   0.687   5.059   0.002 -0.0563  0.7653  0.2710
 8220SOL     OW32651   6.423   0.539   2.486  0.4117  0.2532 -0.2628
 8220SOL    HW232652   6.416   0.538   2.391 -0.6915  0.2785 -0.1915
 8220SOL    HW332653   6.359   0.474   2.516  1.0532 -0.0670  0.4505
 8220SOL    MW432654   6.414   0.530   2.477  0.3508  0.2143 -0.1593
 8221SOL     OW32655   5.521   3.929   4.263  0.0393 -0.5950  0.4079
 8221SOL    HW232656   5.549   3.965   4.179 -1.2786 -2.1952 -0.7950
 8221SOL    HW332657   5.598   3.882   4.296  0.1732 -1.1231 -0.6161
 8221SOL    MW432658   5.535   3.927   4.256 -0.1169 -0.8758  0.1140
 8222SOL     OW32659   0.822   2.230   0.378  0.4362  0.1291 -0.2877
 8222SOL    HW232660   0.801   2.235   0.284  0.9587 -1.0319 -0.4831
 8222SOL    HW332661   0.898   2.172   0.382 -0.1808 -0.6180  0.9450
 8222SOL    MW432662   0.829   2.223   0.366  0.4237 -0.1227 -0.1508
 8223SOL     OW32663   3.135   1.849   4.939  0.1587 -0.2729  0.2850
 8223SOL    HW232664   3.201   1.907   4.901 -2.2044  2.4914  0.0407
 8223SOL    HW332665   3.052   1.890   4.917 -1.6585 -3.0651  1.4053
 8223SOL    MW432666   3.133   1.862   4.931 -0.3929 -0.2766  0.4006
 8224SOL     OW32667   3.882   2.680   4.176  0.4741 -0.3712 -0.3466
 8224SOL    HW232668   3.927   2.683   4.092  1.0423  0.7572 -0.0252
 8224SOL    HW332669   3.800   2.726   4.161 -0.5236 -2.2513 -0.8797
 8224SOL    MW432670   3.877   2.686   4.163  0.4174 -0.4703 -0.3745
 8225SOL     OW32671   6.107   6.310   1.153 -0.2220 -0.0535  0.1407
 8225SOL    HW232672   6.049   6.303   1.229  1.6324  1.9733  1.8854
 8225SOL    HW332673   6.095   6.400   1.122  2.3409  0.6598  0.9769
 8225SOL    MW432674   6.097   6.321   1.159  0.3608  0.3080  0.4812
 8226SOL     OW32675   4.307   3.249   4.947 -0.2504  0.3822 -0.0708
 8226SOL    HW232676   4.215   3.243   4.919 -0.1608 -1.9381 -0.0476
 8226SOL    HW332677   4.307   3.216   5.036  0.6867 -0.1688 -0.2663
 8226SOL    MW432678   4.295   3.244   4.955 -0.1149  0.0034 -0.0935
 8227SOL     OW32679   4.162   6.274   2.188  0.1014 -0.1954  0.4152
 8227SOL    HW232680   4.128   6.259   2.100  1.5500  0.0943 -0.2277
 8227SOL    HW332681   4.118   6.354   2.217 -1.5279 -1.1166  0.5970
 8227SOL    MW432682   4.152   6.283   2.180  0.0776 -0.2787  0.3544
 8228SOL     OW32683   1.488   5.234   5.813 -0.1293 -0.2080  0.0915
 8228SOL    HW232684   1.544   5.254   5.738 -0.2447  0.7666  0.2481
 8228SOL    HW332685   1.525   5.154   5.851  1.9465  1.0785  0.9319
 8228SOL    MW432686   1.500   5.226   5.808  0.1294  0.0903  0.2231
 8229SOL     OW32687   3.745   6.059   3.480 -0.0532 -0.2595 -0.3710
 8229SOL    HW232688   3.778   6.045   3.391  1.0650 -0.5826  0.0734
 8229SOL    HW332689   3.651   6.041   3.474  0.1206 -0.9249 -1.3476
 8229SOL    MW432690   3.737   6.054   3.467  0.1172 -0.3899 -0.4412
 8230SOL     OW32691   3.225   3.321   0.180  0.2981  0.0298  0.1814
 8230SOL    HW232692   3.223   3.417   0.180  0.2602  0.0423  1.1135
 8230SOL    HW332693   3.317   3.300   0.198  0.4940 -0.1304 -0.9213
 8230SOL    MW432694   3.237   3.331   0.182  0.3189  0.0103  0.1589
 8231SOL     OW32695   3.625   3.267   5.084  0.2412 -0.5820  0.4126
 8231SOL    HW232696   3.626   3.332   5.014  0.2067 -0.2013  0.7618
 8231SOL    HW332697   3.584   3.312   5.158 -0.3282 -1.1838  0.4775
 8231SOL    MW432698   3.619   3.282   5.085  0.1615 -0.6111  0.4673
 8232SOL     OW32699   1.533   2.756   2.338 -0.0446  0.2004 -0.3514
 8232SOL    HW232700   1.450   2.709   2.343  0.4306 -0.7237 -0.8566
 8232SOL    HW332701   1.582   2.712   2.268  0.7259  0.9598 -0.3141
 8232SOL    MW432702   1.529   2.744   2.329  0.1197  0.1787 -0.4132
 8233SOL     OW32703   3.320   6.385   0.059 -0.3480  0.0688  0.4804
 8233SOL    HW232704   3.412   6.391   0.084 -0.2604 -0.6414  0.3461
 8233SOL    HW332705   3.284   6.316   0.116 -0.5685 -0.3103 -0.1101
 8233SOL    MW432706   3.327   6.377   0.070 -0.3656 -0.0749  0.3847
 8234SOL     OW32707   0.840   1.343   5.687 -0.3107 -0.9271 -0.2652
 8234SOL    HW232708   0.915   1.384   5.644 -0.0697 -0.1961  0.8349
 8234SOL    HW332709   0.764   1.384   5.646 -0.0956  1.5492  1.5562
 8234SOL    MW432710   0.840   1.354   5.676 -0.2505 -0.5039  0.1203
 8235SOL     OW32711   1.027   4.132   5.310 -0.0415  0.2233  0.0684
 8235SOL    HW232712   0.988   4.220   5.309  0.8274  0.6226  0.5507
 8235SOL    HW332713   1.042   4.112   5.217  1.2545  1.2737  0.0207
 8235SOL    MW432714   1.024   4.141   5.297  0.2442  0.4146  0.1258
 8236SOL     OW32715   1.649   4.937   5.583  0.4561 -0.3867 -0.2006
 8236SOL    HW232716   1.700   4.938   5.665  1.3825  1.2151 -0.7559
 8236SOL    HW332717   1.660   4.848   5.550  1.8807 -0.4430  0.3402
 8236SOL    MW432718   1.658   4.925   5.590  0.7663 -0.1828 -0.2025
 8237SOL     OW32719   4.819   4.888   5.573 -1.1867 -0.2963 -0.4415
 8237SOL    HW232720   4.791   4.927   5.656 -1.0368 -0.6587 -0.2176
 8237SOL    HW332721   4.742   4.895   5.516 -0.9374  0.9885 -0.6512
 8237SOL    MW432722   4.805   4.894   5.577 -1.1340 -0.1746 -0.4396
 8238SOL     OW32723   1.518   3.657   3.217 -0.7048  0.5426  0.0104
 8238SOL    HW232724   1.595   3.688   3.265 -0.1913  0.4518 -0.7421
 8238SOL    HW332725   1.542   3.568   3.189 -0.7076  0.8604 -1.0318
 8238SOL    MW432726   1.532   3.649   3.220 -0.6375  0.5726 -0.2264
 8239SOL     OW32727   0.034   5.572   1.748  0.4313  0.6366  0.9836
 8239SOL    HW232728   0.005   5.503   1.688  1.3291  0.6648  0.5037
 8239SOL    HW332729   0.043   5.529   1.833 -0.2445  0.4551  0.9682
 8239SOL    MW432730   0.031   5.557   1.751  0.4606  0.6164  0.9183
 8240SOL     OW32731   6.140   6.196   0.074  0.1377  0.3701  0.3251
 8240SOL    HW232732   6.195   6.139   0.021 -1.4020  0.1153 -1.0714
 8240SOL    HW332733   6.137   6.153   0.160  1.9103  0.2923  0.3756
 8240SOL    MW432734   6.147   6.183   0.079  0.1684  0.3262  0.1475
 8241SOL     OW32735   3.681   2.571   5.841 -0.4065  0.5222  0.1807
 8241SOL    HW232736   3.760   2.622   5.856 -0.5564  0.7844  0.0869
 8241SOL    HW332737   3.617   2.608   5.903  0.0739 -0.9311  1.6147
 8241SOL    MW432738   3.683   2.583   5.851 -0.3629  0.3651  0.3575
 8242SOL     OW32739   3.941   4.831   3.947 -0.6565 -0.1320 -0.1523
 8242SOL    HW232740   3.942   4.736   3.963 -2.0841 -0.4094 -1.4484
 8242SOL    HW332741   3.900   4.869   4.024 -2.1537 -0.8292 -0.5657
 8242SOL    MW432742   3.936   4.823   3.959 -1.0424 -0.2606 -0.3779
 8243SOL     OW32743   4.864   5.360   5.749 -0.0899 -0.1410  0.3848
 8243SOL    HW232744   4.864   5.386   5.841  0.5945 -0.5388  0.5025
 8243SOL    HW332745   4.775   5.328   5.733 -0.4083  0.5575  0.7180
 8243SOL    MW432746   4.852   5.359   5.759 -0.0416 -0.1013  0.4443
 8244SOL     OW32747   0.744   3.038   2.564 -0.0058  0.8723  0.4591
 8244SOL    HW232748   0.690   3.109   2.527  0.9397  2.2227  1.5619
 8244SOL    HW332749   0.688   2.961   2.560 -1.9687  2.1656  1.3177
 8244SOL    MW432750   0.729   3.037   2.559 -0.1400  1.2211  0.7179
 8245SOL     OW32751   0.039   2.237   3.048 -0.3114 -0.1370 -0.4916
 8245SOL    HW232752   0.075   2.313   3.002  0.5789 -0.2277  0.0281
 8245SOL    HW332753   0.116   2.194   3.086 -0.8832 -0.8852 -0.1628
 8245SOL    MW432754   0.054   2.241   3.047 -0.2694 -0.2477 -0.3796
 8246SOL     OW32755   5.350   5.349   5.341  0.0506  0.0987 -0.0539
 8246SOL    HW232756   5.332   5.363   5.434 -1.0370 -1.2674 -0.0177
 8246SOL    HW332757   5.284   5.403   5.296 -1.3210 -1.4234  0.0355
 8246SOL    MW432758   5.339   5.358   5.348 -0.2739 -0.2824 -0.0373
 8247SOL     OW32759   2.333   1.999   3.348  0.8440 -0.4688  0.0214
 8247SOL    HW232760   2.239   2.018   3.351  0.8108 -0.7653  1.4600
 8247SOL    HW332761   2.374   2.085   3.334  0.3903 -0.2541 -0.0117
 8247SOL    MW432762   2.326   2.013   3.346  0.7797 -0.4796  0.2069
 8248SOL     OW32763   5.755   3.545   3.487  0.3073  0.2658  0.4913
 8248SOL    HW232764   5.799   3.620   3.448 -0.0040 -0.2065 -0.8417
 8248SOL    HW332765   5.825   3.481   3.502  0.2210 -0.2023 -0.9356
 8248SOL    MW432766   5.770   3.546   3.484  0.2549  0.1417  0.1271
 8249SOL     OW32767   5.315   5.922   2.252 -0.2983  0.2833 -0.0126
 8249SOL    HW232768   5.319   6.017   2.256 -0.2413  0.2595  0.6989
 8249SOL    HW332769   5.254   5.903   2.181 -0.9113  0.8693  0.3462
 8249SOL    MW432770   5.307   5.932   2.243 -0.3717  0.3575  0.1286
 8250SOL     OW32771   3.557   3.099   5.469  0.5134 -0.2693  0.5247
 8250SOL    HW232772   3.597   3.012   5.477  0.8088 -0.1805  0.0326
 8250SOL    HW332773   3.481   3.096   5.528  0.2957 -0.9960  0.2178
 8250SOL    MW432774   3.552   3.087   5.478  0.5237 -0.3534  0.4193
 8251SOL     OW32775   5.429   4.949   0.084 -0.4559  0.6978  0.0393
 8251SOL    HW232776   5.499   4.885   0.093 -0.5700  0.3722 -1.1853
 8251SOL    HW332777   5.446   5.014   0.152 -1.8582 -1.9620  3.2241
 8251SOL    MW432778   5.440   4.949   0.094 -0.6560  0.3039  0.2979
 8252SOL     OW32779   3.714   1.415   2.975  0.5766  0.4427 -0.1139
 8252SOL    HW232780   3.662   1.335   2.968 -1.1883  1.5668 -0.3215
 8252SOL    HW332781   3.713   1.453   2.887 -0.3993  1.7361  0.4114
 8252SOL    MW432782   3.707   1.410   2.963  0.2150  0.7616 -0.0720
 8253SOL     OW32783   5.836   0.234   6.310  0.3717 -0.5813  0.0333
 8253SOL    HW232784   5.911   0.294   6.311 -1.2796  1.6706 -0.8320
 8253SOL    HW332785   5.798   0.242   6.398  0.4121 -0.7103  0.0626
 8253SOL    MW432786   5.841   0.243   6.322  0.1591 -0.3012 -0.0770
 8254SOL     OW32787   0.729   1.092   5.667 -0.1252  0.4004  0.2923
 8254SOL    HW232788   0.781   1.173   5.658  0.5720 -0.1068 -0.3035
 8254SOL    HW332789   0.792   1.027   5.698 -0.1003 -0.5351 -1.6040
 8254SOL    MW432790   0.744   1.094   5.670 -0.0299  0.2101 -0.0365
 8255SOL     OW32791   5.871   4.106   5.552 -0.0197  0.7782  0.0242
 8255SOL    HW232792   5.829   4.165   5.614 -2.3575 -0.8417  0.1558
 8255SOL    HW332793   5.798   4.067   5.503  1.4874 -0.8235 -1.1014
 8255SOL    MW432794   5.856   4.108   5.554 -0.1293  0.3532 -0.1069
 8256SOL     OW32795   2.627   4.147   5.286 -0.5447 -0.3077 -0.0406
 8256SOL    HW232796   2.539   4.181   5.306 -0.7187 -0.7506 -0.0563
 8256SOL    HW332797   2.616   4.052   5.283 -0.1905 -0.3273 -0.6859
 8256SOL    MW432798   2.614   4.139   5.288 -0.5209 -0.3688 -0.1278
 8257SOL     OW32799   5.173   6.306   4.025 -0.3141 -0.3908 -0.1160
 8257SOL    HW232800   5.203   6.397   4.026  0.3393 -0.5771 -1.1223
 8257SOL    HW332801   5.253   6.254   4.022 -0.6644 -0.9193 -1.8982
 8257SOL    MW432802   5.187   6.311   4.024 -0.2741 -0.4851 -0.4839
 8258SOL     OW32803   0.449   0.143   6.241  0.4434  0.2110 -0.1880
 8258SOL    HW232804   0.543   0.161   6.237  0.4073  0.2107 -2.3388
 8258SOL    HW332805   0.443   0.048   6.252  0.6383  0.4292  2.3953
 8258SOL    MW432806   0.461   0.133   6.242  0.4644  0.2397 -0.1309
 8259SOL     OW32807   1.609   1.113   4.186  0.1580  0.2603  0.1260
 8259SOL    HW232808   1.617   1.030   4.232  0.0364  0.7862  1.1272
 8259SOL    HW332809   1.660   1.174   4.239 -0.4871  1.0135 -0.1031
 8259SOL    MW432810   1.617   1.110   4.199  0.0569  0.4290  0.2278
 8260SOL     OW32811   4.661   0.065   4.246 -0.3215 -0.3900  0.3557
 8260SOL    HW232812   4.685   0.055   4.338 -1.9113  0.5814  0.9053
 8260SOL    HW332813   4.729   0.017   4.199  0.7763 -0.5400  1.9981
 8260SOL    MW432814   4.673   0.058   4.252 -0.3864 -0.2816  0.6449
 8261SOL     OW32815   5.156   1.749   1.720 -0.1755  0.2912  0.0216
 8261SOL    HW232816   5.066   1.757   1.690 -0.0593  2.1097  0.0158
 8261SOL    HW332817   5.158   1.796   1.803  0.4934 -0.8785  0.6923
 8261SOL    MW432818   5.145   1.756   1.727 -0.0719  0.3768  0.1094
 8262SOL     OW32819   4.777   5.240   2.535  0.0085 -0.0557 -0.8244
 8262SOL    HW232820   4.839   5.175   2.503 -0.4465 -1.6345  1.2444
 8262SOL    HW332821   4.829   5.295   2.594 -0.2143 -0.5426 -0.1463
 8262SOL    MW432822   4.792   5.239   2.539 -0.0809 -0.3283 -0.4620
 8263SOL     OW32823   6.322   5.493   0.488  0.5629 -0.0480  0.8565
 8263SOL    HW232824   6.253   5.427   0.493 -0.0528  0.5915  0.9677
 8263SOL    HW332825   6.361   5.494   0.576  0.9033 -0.6043  0.7150
 8263SOL    MW432826   6.318   5.484   0.501  0.5266 -0.0370  0.8525
 8264SOL     OW32827   1.110   5.107   3.582 -0.8239  0.3119  0.4700
 8264SOL    HW232828   1.196   5.136   3.552  0.1258 -1.6183  1.1880
 8264SOL    HW332829   1.114   5.115   3.677 -1.1316 -0.5302  0.5635
 8264SOL    MW432830   1.122   5.112   3.591 -0.7392 -0.0539  0.5771
 8265SOL     OW32831   1.402   2.497   0.859  0.1939  0.2318 -0.2674
 8265SOL    HW232832   1.423   2.581   0.900 -1.0030 -0.3725  1.7248
 8265SOL    HW332833   1.424   2.510   0.766  1.2948  2.2782  0.2028
 8265SOL    MW432834   1.408   2.510   0.852  0.1812  0.4221  0.0575
 8266SOL     OW32835   4.050   0.175   2.934  0.2021 -0.5179  0.6675
 8266SOL    HW232836   4.065   0.118   3.009  0.7795 -0.5329  0.5479
 8266SOL    HW332837   4.138   0.193   2.900 -0.0976 -1.3749 -0.6359
 8266SOL    MW432838   4.064   0.170   2.939  0.2387 -0.6330  0.4797
 8267SOL     OW32839   0.459   1.054   4.854  0.2545 -0.2734 -0.5177
 8267SOL    HW232840   0.528   1.061   4.920  1.0212 -1.2250 -1.1951
 8267SOL    HW332841   0.500   1.009   4.781 -0.7154  0.3355 -1.4717
 8267SOL    MW432842   0.473   1.049   4.853  0.2277 -0.3186 -0.7330
 8268SOL     OW32843   3.007   3.263   2.605 -0.2939 -0.3587 -0.2683
 8268SOL    HW232844   2.960   3.235   2.683 -0.5554 -1.3657 -0.7698
 8268SOL    HW332845   2.982   3.355   2.593 -0.0401 -0.1089  0.9692
 8268SOL    MW432846   2.998   3.271   2.614 -0.2949 -0.4586 -0.1712
 8269SOL     OW32847   3.628   1.715   5.907  0.0691  0.7210 -0.1231
 8269SOL    HW232848   3.622   1.786   5.842  0.0833  1.7411  0.9544
 8269SOL    HW332849   3.716   1.722   5.942  0.4721 -0.6047 -0.8308
 8269SOL    MW432850   3.639   1.726   5.903  0.1241  0.6807 -0.0743
 8270SOL     OW32851   2.645   1.025   2.638  0.2469 -0.4223  0.3445
 8270SOL    HW232852   2.586   1.043   2.712 -0.1947  1.5586 -0.4164
 8270SOL    HW332853   2.730   1.056   2.668  0.4395 -1.1766  0.6072
 8270SOL    MW432854   2.648   1.031   2.652  0.2141 -0.2605  0.2788
 8271SOL     OW32855   3.803   1.510   3.979 -0.2063 -0.4493  0.5996
 8271SOL    HW232856   3.884   1.492   4.027  0.3235  0.9448  0.2800
 8271SOL    HW332857   3.824   1.585   3.923 -1.5180 -0.5093 -0.0189
 8271SOL    MW432858   3.816   1.518   3.978 -0.3095 -0.2733  0.4759
 8272SOL     OW32859   5.736   2.767   2.812 -0.2337 -0.4009 -0.2290
 8272SOL    HW232860   5.675   2.807   2.874  0.1483 -1.7784  1.0918
 8272SOL    HW332861   5.823   2.785   2.848  0.2934  2.2072 -2.4869
 8272SOL    MW432862   5.740   2.775   2.824 -0.1137 -0.2385 -0.3526
 8273SOL     OW32863   0.405   3.056   2.740 -0.4056  0.4456  0.1522
 8273SOL    HW232864   0.461   3.125   2.775 -1.1623 -0.1337  2.7366
 8273SOL    HW332865   0.321   3.098   2.724 -0.6662  0.3062  1.0825
 8273SOL    MW432866   0.401   3.070   2.743 -0.5399  0.3508  0.6160
 8274SOL     OW32867   0.142   2.833   1.099  0.6313  0.2572  0.1238
 8274SOL    HW232868   0.097   2.834   1.184  0.7576 -0.4841  0.2032
 8274SOL    HW332869   0.145   2.925   1.073 -1.3634  0.3120 -0.1179
 8274SOL    MW432870   0.136   2.846   1.107  0.3848  0.1667  0.1024
 8275SOL     OW32871   4.588   2.197   4.647  0.5826 -0.3591  0.2928
 8275SOL    HW232872   4.534   2.257   4.699  0.0936  0.0159 -0.6203
 8275SOL    HW332873   4.677   2.213   4.677  0.4902  1.0165 -0.1084
 8275SOL    MW432874   4.593   2.207   4.658  0.5059 -0.1282  0.1194
 8276SOL     OW32875   4.052   6.349   3.285  0.0936  0.0969 -0.0325
 8276SOL    HW232876   3.957   6.351   3.295 -0.0294  0.6066 -1.1490
 8276SOL    HW332877   4.067   6.350   3.191  1.2048 -0.8087  0.1076
 8276SOL    MW432878   4.042   6.349   3.274  0.2240  0.0447 -0.1613
 8277SOL     OW32879   0.925   3.280   5.613  0.2156 -0.7119  0.0602
 8277SOL    HW232880   0.845   3.319   5.648 -0.8085 -0.1159 -2.6568
 8277SOL    HW332881   0.898   3.193   5.585  1.3448 -1.7007  1.8710
 8277SOL    MW432882   0.911   3.274   5.614  0.2295 -0.7637 -0.0594
 8278SOL     OW32883   0.969   5.095   0.406 -0.0209 -0.1571 -0.4773
 8278SOL    HW232884   0.922   5.043   0.471 -0.3874  1.3305  0.4901
 8278SOL    HW332885   0.999   5.172   0.454  1.4591  0.0194 -1.6135
 8278SOL    MW432886   0.967   5.098   0.421  0.1260  0.0624 -0.4995
 8279SOL     OW32887   0.910   4.281   1.940  0.3099 -0.6141  0.5174
 8279SOL    HW232888   0.885   4.373   1.936 -0.7942 -0.9290 -3.5509
 8279SOL    HW332889   0.855   4.244   2.010 -0.0799  1.5334  1.4174
 8279SOL    MW432890   0.899   4.288   1.949  0.1128 -0.3723  0.0994
 8280SOL     OW32891   4.564   4.473   1.472  0.2175 -0.0663  0.2344
 8280SOL    HW232892   4.526   4.391   1.505 -2.8955  0.2688 -2.0366
 8280SOL    HW332893   4.491   4.536   1.476  1.2429  1.3916 -2.0516
 8280SOL    MW432894   4.549   4.470   1.477 -0.0579  0.1703 -0.3669
 8281SOL     OW32895   2.020   5.600   1.560  0.0006 -0.4999  0.5627
 8281SOL    HW232896   2.066   5.644   1.488  0.3758 -0.0193  1.0932
 8281SOL    HW332897   2.040   5.652   1.637 -1.4893 -0.2455  0.8082
 8281SOL    MW432898   2.029   5.612   1.561 -0.1465 -0.4029  0.6651
 8282SOL     OW32899   1.358   2.660   3.626  0.2112  0.2142  0.1947
 8282SOL    HW232900   1.375   2.742   3.671  0.5414  0.0798  0.3240
 8282SOL    HW332901   1.406   2.668   3.543  0.8358 -0.1238  0.5132
 8282SOL    MW432902   1.367   2.672   3.621  0.3372  0.1519  0.2538
 8283SOL     OW32903   4.326   4.430   4.584 -0.4145 -0.1029 -0.0951
 8283SOL    HW232904   4.378   4.478   4.648 -1.1944  0.1283  0.3877
 8283SOL    HW332905   4.390   4.388   4.527  0.3249 -0.8816  1.2480
 8283SOL    MW432906   4.341   4.431   4.585 -0.4198 -0.1752  0.1458
 8284SOL     OW32907   2.569   5.274   0.546 -0.0679  0.0686 -0.9889
 8284SOL    HW232908   2.542   5.241   0.460 -1.1143 -1.0042 -0.2760
 8284SOL    HW332909   2.561   5.199   0.604  1.1979  0.6271 -0.0442
 8284SOL    MW432910   2.564   5.260   0.542 -0.0389  0.0007 -0.7702
 8285SOL     OW32911   2.339   1.841   1.539 -0.3788  0.3237  0.2596
 8285SOL    HW232912   2.353   1.793   1.457  0.9715 -0.6780  1.0445
 8285SOL    HW332913   2.358   1.932   1.516 -0.9486  0.2151 -0.7491
 8285SOL    MW432914   2.343   1.847   1.525 -0.2758  0.1772  0.2301
 8286SOL     OW32915   1.465   4.190   3.616  0.0233  0.7027  0.6331
 8286SOL    HW232916   1.557   4.179   3.640 -0.4961  1.6497  3.3949
 8286SOL    HW332917   1.459   4.278   3.580  0.3975  0.0877 -1.0593
 8286SOL    MW432918   1.476   4.200   3.614  0.0042  0.7465  0.7742
 8287SOL     OW32919   3.279   2.521   6.377 -0.8047  0.1347  0.2006
 8287SOL    HW232920   3.202   2.464   6.373 -0.2666 -0.6393  0.7105
 8287SOL    HW332921   3.351   2.463   6.402 -0.2695  1.0678  0.8870
 8287SOL    MW432922   3.278   2.506   6.379 -0.6631  0.1557  0.3585
 8288SOL     OW32923   4.222   5.778   4.038 -0.0503  0.3890 -0.4558
 8288SOL    HW232924   4.289   5.784   3.970 -0.2413  0.5438 -0.6306
 8288SOL    HW332925   4.182   5.692   4.025  1.9298 -0.9262  1.3494
 8288SOL    MW432926   4.225   5.768   4.027  0.1858  0.2359 -0.2407
 8289SOL     OW32927   5.853   6.243   4.607 -0.1837 -0.2752  0.3279
 8289SOL    HW232928   5.765   6.248   4.569  0.8596  0.1195 -2.2975
 8289SOL    HW332929   5.876   6.150   4.605  0.2782 -0.1579 -1.2006
 8289SOL    MW432930   5.845   6.232   4.601  0.0149 -0.2077 -0.2202
 8290SOL     OW32931   6.000   6.352   3.996 -0.0137 -0.1203 -0.2029
 8290SOL    HW232932   6.010   6.414   3.925 -0.6324  0.5506  0.2793
 8290SOL    HW332933   6.075   6.369   4.054  0.3643 -0.5112 -0.5720
 8290SOL    MW432934   6.011   6.362   3.994 -0.0454 -0.0833 -0.1880
 8291SOL     OW32935   3.179   4.333   2.313  0.4182  0.5564  0.6507
 8291SOL    HW232936   3.253   4.390   2.333  1.4510 -0.6142  0.2503
 8291SOL    HW332937   3.213   4.271   2.249 -1.1290  0.4521 -0.1089
 8291SOL    MW432938   3.193   4.332   2.308  0.3503  0.3882  0.4977
 8292SOL     OW32939   4.963   1.475   5.859  0.0202 -0.1746 -0.1928
 8292SOL    HW232940   4.927   1.461   5.946 -0.5298  0.4238 -0.3180
 8292SOL    HW332941   4.918   1.552   5.826  0.2361 -0.3824 -1.0042
 8292SOL    MW432942   4.953   1.483   5.866 -0.0239 -0.1231 -0.3163
 8293SOL     OW32943   3.781   3.172   6.350  0.6340  0.0821 -0.0079
 8293SOL    HW232944   3.698   3.176   6.302  0.8662 -2.0372 -0.7100
 8293SOL    HW332945   3.821   3.258   6.337 -0.9117  0.7394 -0.6400
 8293SOL    MW432946   3.775   3.184   6.342  0.4607 -0.1108 -0.1839
 8294SOL     OW32947   6.206   3.834   0.867  0.4881 -0.1460  0.5331
 8294SOL    HW232948   6.137   3.870   0.922  1.7512  1.8033  0.9286
 8294SOL    HW332949   6.243   3.909   0.821  1.5673 -1.3016 -0.5874
 8294SOL    MW432950   6.202   3.848   0.868  0.7971 -0.0413  0.4374
 8295SOL     OW32951   3.144   1.987   3.896  0.2454 -0.5935  0.1644
 8295SOL    HW232952   3.061   1.994   3.943 -0.3166 -0.9030 -0.7540
 8295SOL    HW332953   3.204   2.046   3.943 -0.4479 -0.4762  0.9191
 8295SOL    MW432954   3.141   1.996   3.909  0.0798 -0.6189  0.1428
 8296SOL     OW32955   5.639   5.456   2.898  0.0328  0.2277  0.0215
 8296SOL    HW232956   5.643   5.410   2.814 -0.1147 -0.0931  0.1905
 8296SOL    HW332957   5.564   5.514   2.890  0.6016  0.9266 -0.4355
 8296SOL    MW432958   5.630   5.458   2.886  0.0884  0.2776 -0.0165
 8297SOL     OW32959   1.057   2.255   4.603 -0.2057 -0.4242  0.1683
 8297SOL    HW232960   1.029   2.194   4.671 -2.6113  1.0977  0.6410
 8297SOL    HW332961   1.017   2.222   4.523  0.8362 -0.9845 -0.1517
 8297SOL    MW432962   1.048   2.243   4.601 -0.3856 -0.2973  0.1884
 8298SOL     OW32963   5.398   1.252   2.856  0.3379  0.1989 -0.5729
 8298SOL    HW232964   5.359   1.183   2.802  0.0463 -0.3987  0.3795
 8298SOL    HW332965   5.491   1.232   2.857  0.4316  0.5658 -1.3440
 8298SOL    MW432966   5.405   1.241   2.849  0.3118  0.1684 -0.5490
 8299SOL     OW32967   4.562   6.226   0.003  0.3286 -0.0789 -0.3727
 8299SOL    HW232968   4.523   6.150   0.047  0.1852  0.2765  0.1221
 8299SOL    HW332969   4.657   6.210   0.009  0.3021 -0.1705 -0.1898
 8299SOL    MW432970   4.570   6.214   0.010  0.3062 -0.0441 -0.2833
 8300SOL     OW32971   5.977   4.803   3.486 -0.2220  0.6120 -0.6094
 8300SOL    HW232972   6.041   4.811   3.557 -0.7462 -4.0089  0.7066
 8300SOL    HW332973   5.895   4.833   3.524 -0.1948 -0.3862  0.2770
 8300SOL    MW432974   5.975   4.808   3.500 -0.2876 -0.1294 -0.3188
 8301SOL     OW32975   3.976   1.105   2.429  0.4900  0.2854 -0.2275
 8301SOL    HW232976   3.928   1.044   2.373 -3.4212  0.1060  2.9306
 8301SOL    HW332977   4.039   1.049   2.475  0.6706 -0.3258 -1.1679
 8301SOL    MW432978   3.978   1.089   2.428 -0.0022  0.1811  0.0651
 8302SOL     OW32979   1.634   5.326   1.206 -0.4835 -0.1234  0.2527
 8302SOL    HW232980   1.661   5.385   1.276 -0.1821 -0.3763  0.3538
 8302SOL    HW332981   1.539   5.333   1.204 -0.4848 -0.0188  0.6046
 8302SOL    MW432982   1.625   5.335   1.215 -0.4439 -0.1430  0.3125
 8303SOL     OW32983   0.305   1.334   5.461  0.2291  0.0391  0.0486
 8303SOL    HW232984   0.232   1.310   5.519  0.9191  0.8115  1.2913
 8303SOL    HW332985   0.310   1.429   5.467  0.8951  0.0556 -0.5859
 8303SOL    MW432986   0.296   1.343   5.470  0.4080  0.1432  0.1288
 8304SOL     OW32987   6.135   1.555   4.339 -0.1646 -0.2839  0.9068
 8304SOL    HW232988   6.102   1.547   4.428 -0.7037 -1.6197  0.6111
 8304SOL    HW332989   6.166   1.467   4.316  1.2066  0.3358  0.2355
 8304SOL    MW432990   6.135   1.542   4.348 -0.0548 -0.3783  0.7792
 8305SOL     OW32991   3.261   3.346   5.128  0.3686 -0.2472 -0.4698
 8305SOL    HW232992   3.273   3.406   5.202  2.1670  0.5799 -1.3683
 8305SOL    HW332993   3.278   3.259   5.164 -1.8356 -0.2414  0.7511
 8305SOL    MW432994   3.265   3.342   5.142  0.3150 -0.1373 -0.4273
 8306SOL     OW32995   1.138   2.344   2.745  0.4888  0.7190 -0.3483
 8306SOL    HW232996   1.082   2.414   2.711  1.5104  1.6556 -0.1587
 8306SOL    HW332997   1.173   2.379   2.827  2.4001  0.7126 -1.1193
 8306SOL    MW432998   1.135   2.358   2.751  0.8758  0.8417 -0.4250
 8307SOL     OW32999   4.182   5.990   5.487  0.0381 -0.4633 -0.8967
 8307SOL    HW233000   4.240   6.051   5.442 -1.0328  0.8580 -0.5481
 8307SOL    HW333001   4.163   6.031   5.571 -1.7816 -0.5763 -1.2035
 8307SOL    MW433002   4.187   6.003   5.492 -0.3433 -0.3039 -0.8912
 8308SOL     OW33003   0.478   4.683   3.247  0.0195  0.1110 -0.4687
 8308SOL    HW233004   0.573   4.691   3.251  0.0486 -0.3082 -0.3140
 8308SOL    HW333005   0.450   4.757   3.192  0.4346  0.2187 -0.5358
 8308SOL    MW433006   0.487   4.694   3.240  0.0781  0.0699 -0.4571
 8309SOL     OW33007   5.882   1.063   3.117  0.0279  0.4617  0.4975
 8309SOL    HW233008   5.938   1.008   3.171 -0.7415 -1.1870 -0.3182
 8309SOL    HW333009   5.936   1.085   3.041  0.1958  0.4728  0.6192
 8309SOL    MW433010   5.896   1.059   3.114 -0.0515  0.2457  0.4059
 8310SOL     OW33011   2.601   0.997   5.555 -0.1887  0.0240 -0.5139
 8310SOL    HW233012   2.555   0.972   5.474  0.6200 -0.7449 -0.7442
 8310SOL    HW333013   2.554   0.951   5.624 -1.1624  1.0306 -0.4679
 8310SOL    MW433014   2.589   0.987   5.553 -0.2105  0.0554 -0.5382
 8311SOL     OW33015   5.610   3.774   2.097  0.2725 -0.0609 -0.1854
 8311SOL    HW233016   5.603   3.684   2.064 -0.3007  0.7568 -2.5035
 8311SOL    HW333017   5.523   3.811   2.083  0.8098  1.1770 -0.3683
 8311SOL    MW433018   5.597   3.767   2.090  0.2678  0.2103 -0.5154
 8312SOL     OW33019   1.128   2.190   4.173  0.8787 -0.7142 -0.1581
 8312SOL    HW233020   1.213   2.174   4.212  0.7474 -0.0546  0.4175
 8312SOL    HW333021   1.123   2.285   4.164 -0.4373 -0.5982  1.3365
 8312SOL    MW433022   1.138   2.200   4.177  0.6878 -0.6119  0.1150
 8313SOL     OW33023   3.202   3.542   1.658  0.3354  0.1354  0.0828
 8313SOL    HW233024   3.270   3.491   1.616 -0.2780 -0.5341 -0.1093
 8313SOL    HW333025   3.128   3.482   1.668 -0.3273  0.9118  0.0500
 8313SOL    MW433026   3.201   3.528   1.654  0.1670  0.1495  0.0531
 8314SOL     OW33027   2.512   1.948   3.796  0.0631  0.8307  0.3060
 8314SOL    HW233028   2.434   1.978   3.749  0.1976  0.9394  0.1545
 8314SOL    HW333029   2.554   2.029   3.826  0.0819  0.7690  0.4481
 8314SOL    MW433030   2.507   1.963   3.794  0.0833  0.8369  0.3047
 8315SOL     OW33031   1.841   5.898   4.103 -0.0486 -0.2669  0.3082
 8315SOL    HW233032   1.785   5.843   4.157  1.1599 -2.0562 -0.1916
 8315SOL    HW333033   1.929   5.863   4.116  1.0715  2.6149  1.2575
 8315SOL    MW433034   1.845   5.886   4.112  0.2586 -0.1227  0.3675
 8316SOL     OW33035   0.782   6.325   2.945  0.1018  0.2813 -0.2579
 8316SOL    HW233036   0.733   6.250   2.910 -1.2614  1.5724 -1.2215
 8316SOL    HW333037   0.718   6.373   2.998  0.5164  1.5744 -0.8928
 8316SOL    MW433038   0.767   6.321   2.948 -0.0234  0.6222 -0.4688
 8317SOL     OW33039   4.468   4.799   2.170  0.5196 -0.3643 -0.4611
 8317SOL    HW233040   4.430   4.886   2.160  1.4247 -0.0125 -0.8673
 8317SOL    HW333041   4.491   4.793   2.263 -0.4053 -0.5499 -0.2241
 8317SOL    MW433042   4.466   4.809   2.181  0.5170 -0.3423 -0.4834
 8318SOL     OW33043   2.232   2.447   5.578 -0.0521  0.0421  0.2603
 8318SOL    HW233044   2.160   2.386   5.569 -0.0051 -0.0592  0.5508
 8318SOL    HW333045   2.190   2.532   5.593 -0.1192  0.1042 -0.2506
 8318SOL    MW433046   2.217   2.450   5.579 -0.0548  0.0369  0.2312
 8319SOL     OW33047   1.386   0.541   4.416  0.4699  0.1021 -0.2033
 8319SOL    HW233048   1.392   0.456   4.374  2.1038  0.8981 -1.7183
 8319SOL    HW333049   1.367   0.602   4.345 -1.9318  0.9095  1.0267
 8319SOL    MW433050   1.384   0.538   4.401  0.3686  0.3136 -0.2409
 8320SOL     OW33051   4.676   0.153   1.942  0.1799  0.2294  0.6665
 8320SOL    HW233052   4.703   0.100   1.868  1.4464 -0.5500  1.6452
 8320SOL    HW333053   4.754   0.159   1.998 -1.2190 -0.8514  2.9031
 8320SOL    MW433054   4.690   0.147   1.940  0.1625 -0.0161  1.0907
 8321SOL     OW33055   3.543   5.271   2.601  0.0776 -0.0906  0.4540
 8321SOL    HW233056   3.535   5.357   2.644  0.7977  0.4666 -0.4712
 8321SOL    HW333057   3.538   5.208   2.672  0.1742  0.7545  1.2344
 8321SOL    MW433058   3.541   5.274   2.616  0.1854  0.0944  0.4349
 8322SOL     OW33059   4.052   0.622   1.399 -0.0876  0.5973 -0.6322
 8322SOL    HW233060   4.023   0.639   1.488  0.7150 -2.6585  0.4124
 8322SOL    HW333061   4.066   0.708   1.361 -1.2363  2.1148  2.1137
 8322SOL    MW433062   4.050   0.635   1.406 -0.1333  0.3680 -0.1321
 8323SOL     OW33063   3.472   3.953   3.001 -0.1748  0.0317 -0.1129
 8323SOL    HW233064   3.470   4.049   2.992 -1.0579 -0.0763 -1.2061
 8323SOL    HW333065   3.385   3.924   2.974 -0.1068 -1.0557  0.7506
 8323SOL    MW433066   3.460   3.962   2.996 -0.2824 -0.1260 -0.1432
 8324SOL     OW33067   3.533   1.036   1.964 -0.1416  0.4055 -0.8312
 8324SOL    HW233068   3.606   0.993   2.008  0.1078  2.0483  0.4878
 8324SOL    HW333069   3.565   1.054   1.876  0.1453 -1.0368 -1.0318
 8324SOL    MW433070   3.547   1.033   1.958 -0.0708  0.4319 -0.6836
 8325SOL     OW33071   2.489   0.248   3.227 -0.5297  0.1963 -0.2068
 8325SOL    HW233072   2.560   0.234   3.290 -0.2322 -2.4887 -0.9864
 8325SOL    HW333073   2.453   0.334   3.249 -0.2155 -0.4351  3.4112
 8325SOL    MW433074   2.494   0.257   3.238 -0.4490 -0.2413  0.1677
 8326SOL     OW33075   3.972   3.115   4.482 -0.2538 -0.5717 -0.2788
 8326SOL    HW233076   3.918   3.136   4.407 -1.8179 -1.7636  0.4670
 8326SOL    HW333077   3.991   3.021   4.473  0.8468 -0.3941  0.0107
 8326SOL    MW433078   3.968   3.105   4.471 -0.3150 -0.7056 -0.1422
 8327SOL     OW33079   0.644   3.255   2.424  0.3037  0.2995 -0.4415
 8327SOL    HW233080   0.664   3.327   2.483 -0.5648 -0.9437  1.4584
 8327SOL    HW333081   0.587   3.294   2.358 -0.4594  1.2932  0.7637
 8327SOL    MW433082   0.639   3.270   2.423  0.0884  0.2665 -0.0318
 8328SOL     OW33083   0.913   0.979   4.712 -0.1881 -0.8065 -0.1167
 8328SOL    HW233084   0.895   1.048   4.775  0.6125 -1.1161  0.4718
 8328SOL    HW333085   0.827   0.946   4.686 -0.6415  1.1070 -1.2315
 8328SOL    MW433086   0.899   0.983   4.717 -0.1423 -0.5949 -0.1861
 8329SOL     OW33087   5.363   1.378   4.604 -0.2530 -0.0860 -0.2592
 8329SOL    HW233088   5.300   1.419   4.663  1.3275  1.1092  0.6892
 8329SOL    HW333089   5.378   1.444   4.536  0.5155 -0.0540 -0.0651
 8329SOL    MW433090   5.357   1.392   4.603  0.0569  0.0759 -0.1084
 8330SOL     OW33091   5.972   2.714   5.013  0.0716  0.3101  0.3439
 8330SOL    HW233092   5.969   2.658   5.090 -1.1605 -2.1796 -1.3426
 8330SOL    HW333093   5.912   2.672   4.951  0.5629  2.4912 -1.7757
 8330SOL    MW433094   5.963   2.701   5.015 -0.0262  0.2694 -0.1583
 8331SOL     OW33095   4.936   1.642   0.134 -0.0536 -0.0330  0.0354
 8331SOL    HW233096   5.023   1.675   0.155  0.4866  0.2380 -2.4059
 8331SOL    HW333097   4.952   1.555   0.097 -1.0815 -1.1033  1.9439
 8331SOL    MW433098   4.950   1.635   0.132 -0.1180 -0.1385 -0.0349
 8332SOL     OW33099   2.284   4.664   3.533 -0.5415 -0.3667 -0.2037
 8332SOL    HW233100   2.299   4.690   3.442 -0.7955  0.6136  0.0277
 8332SOL    HW333101   2.371   4.664   3.572 -0.3640 -1.2834 -0.5563
 8332SOL    MW433102   2.297   4.667   3.526 -0.5516 -0.3583 -0.2197
 8333SOL     OW33103   6.207   1.120   5.806 -0.1419 -0.3409 -0.0911
 8333SOL    HW233104   6.169   1.183   5.745  2.7812  1.0923 -0.6326
 8333SOL    HW333105   6.240   1.173   5.878  0.3266 -1.5413  0.6106
 8333SOL    MW433106   6.206   1.135   5.807  0.3055 -0.3102 -0.0700
 8334SOL     OW33107   5.235   0.607   3.988  0.5834 -0.1567  0.0480
 8334SOL    HW233108   5.270   0.599   4.077  0.4909  1.4612  0.2572
 8334SOL    HW333109   5.254   0.697   3.962 -2.7984  0.6626 -0.0587
 8334SOL    MW433110   5.242   0.618   3.996  0.1250  0.1649  0.0615
 8335SOL     OW33111   1.961   0.021   3.684  0.0302 -0.2747  0.2485
 8335SOL    HW233112   1.880   0.028   3.633 -1.5439 -1.0304  2.4617
 8335SOL    HW333113   1.993   0.111   3.690 -0.7096  0.0571 -0.5782
 8335SOL    MW433114   1.954   0.034   3.678 -0.2751 -0.3306  0.4314
 8336SOL     OW33115   2.198   0.161   4.442 -0.1550  0.0599  0.7410
 8336SOL    HW233116   2.256   0.216   4.496 -1.0115  1.9281 -0.1390
 8336SOL    HW333117   2.141   0.118   4.506  1.9573 -1.6272  1.6039
 8336SOL    MW433118   2.198   0.163   4.458  0.0107  0.0838  0.7387
 8337SOL     OW33119   4.106   2.857   1.389  0.3093 -0.3395  0.4255
 8337SOL    HW233120   4.118   2.891   1.300  2.3252  2.5879  1.6206
 8337SOL    HW333121   4.019   2.887   1.415 -0.4995 -1.6571 -0.6832
 8337SOL    MW433122   4.096   2.866   1.381  0.4685 -0.1271  0.4369
 8338SOL     OW33123   3.782   4.850   3.713 -0.0682  0.0905 -0.6116
 8338SOL    HW233124   3.713   4.900   3.756 -0.6476 -1.7896  0.7712
 8338SOL    HW333125   3.845   4.832   3.782  1.0564  0.4491 -1.5118
 8338SOL    MW433126   3.781   4.854   3.727  0.0037 -0.1102 -0.5479
 8339SOL     OW33127   4.624   0.378   3.079 -0.0909 -0.0583 -0.2035
 8339SOL    HW233128   4.654   0.375   2.988  0.6206  1.2769 -0.0486
 8339SOL    HW333129   4.592   0.468   3.090 -2.6918 -0.9395  0.1254
 8339SOL    MW433130   4.624   0.390   3.068 -0.3402  0.0016 -0.1397
 8340SOL     OW33131   3.131   2.939   3.852  0.3302  0.8707 -0.2138
 8340SOL    HW233132   3.211   2.964   3.806 -0.2612  0.8955 -1.2805
 8340SOL    HW333133   3.126   2.844   3.842  0.3076  0.8504 -0.0171
 8340SOL    MW433134   3.141   2.930   3.844  0.2492  0.8713 -0.3286
 8341SOL     OW33135   2.896   5.434   4.895  0.0645 -0.3974 -0.4010
 8341SOL    HW233136   2.970   5.410   4.839  0.9458 -0.3357  0.7025
 8341SOL    HW333137   2.928   5.508   4.947 -0.6203 -0.6613  0.4179
 8341SOL    MW433138   2.910   5.441   4.894  0.0904 -0.4241 -0.1474
 8342SOL     OW33139   5.650   4.770   0.171  0.8393 -0.4116 -0.5809
 8342SOL    HW233140   5.610   4.687   0.144 -0.1549 -0.1444  0.0406
 8342SOL    HW333141   5.617   4.786   0.259  0.5572  0.9149 -0.8941
 8342SOL    MW433142   5.640   4.761   0.179  0.6709 -0.2013 -0.5402
 8343SOL     OW33143   0.948   4.515   4.206  0.1979 -0.1172  1.0202
 8343SOL    HW233144   0.939   4.491   4.114 -2.0710  0.3668  1.0407
 8343SOL    HW333145   1.042   4.521   4.221  0.6699 -2.0557 -0.7649
 8343SOL    MW433146   0.959   4.513   4.196 -0.0392 -0.3091  0.7874
 8344SOL     OW33147   3.358   4.794   2.538  0.0880  0.5211 -0.3013
 8344SOL    HW233148   3.369   4.846   2.459  0.9013 -0.7780 -1.0968
 8344SOL    HW333149   3.337   4.706   2.506  0.7560 -0.1122  0.9097
 8344SOL    MW433150   3.357   4.789   2.523  0.2835  0.2662 -0.2465
 8345SOL     OW33151   5.216   3.214   3.153 -0.0257  0.3444  0.0344
 8345SOL    HW233152   5.150   3.205   3.084 -0.9374 -0.8024  1.0180
 8345SOL    HW333153   5.223   3.127   3.191  2.1930  0.4027 -0.1232
 8345SOL    MW433154   5.208   3.201   3.149  0.1467  0.2008  0.1434
 8346SOL     OW33155   2.229   3.899   6.032  0.2897 -0.3037  0.1462
 8346SOL    HW233156   2.174   3.949   6.093 -2.1645 -2.5679 -0.0271
 8346SOL    HW333157   2.283   3.844   6.088  0.7363  0.2560  0.2802
 8346SOL    MW433158   2.229   3.898   6.047  0.0248 -0.5286  0.1410
 8347SOL     OW33159   1.077   3.032   0.673 -0.6151 -0.2148  0.2028
 8347SOL    HW233160   1.058   3.111   0.623 -2.7694 -0.9640 -0.2641
 8347SOL    HW333161   1.132   3.062   0.745  0.4647  1.3097 -1.1869
 8347SOL    MW433162   1.082   3.046   0.676 -0.7569 -0.1125 -0.0421
 8348SOL     OW33163   1.638   4.953   2.258 -0.2133  0.1860 -0.1929
 8348SOL    HW233164   1.564   4.892   2.256 -0.5331  0.5710 -0.2382
 8348SOL    HW333165   1.714   4.898   2.275 -0.2463 -0.4719 -1.9742
 8348SOL    MW433166   1.639   4.938   2.260 -0.2599  0.1500 -0.4339
 8349SOL     OW33167   4.214   0.713   4.488  0.0503 -0.1726  0.3107
 8349SOL    HW233168   4.129   0.758   4.491  1.0709  2.0964 -1.8611
 8349SOL    HW333169   4.273   0.771   4.537  1.2166  0.5340 -1.8390
 8349SOL    MW433170   4.210   0.727   4.495  0.3388  0.2200 -0.2595
 8350SOL     OW33171   1.049   6.281   3.507 -0.4317  0.4113 -0.0669
 8350SOL    HW233172   0.982   6.254   3.571  0.8573  0.1062  1.1963
 8350SOL    HW333173   1.038   6.376   3.500  1.1597  0.9247  2.8013
 8350SOL    MW433174   1.038   6.290   3.515 -0.0517  0.4388  0.4782
 8351SOL     OW33175   5.565   3.513   2.013  0.8905 -0.1116  0.3554
 8351SOL    HW233176   5.624   3.447   1.976 -0.8245 -1.5582  0.0575
 8351SOL    HW333177   5.548   3.483   2.102 -0.2608 -0.3731  0.0714
 8351SOL    MW433178   5.570   3.501   2.020  0.5123 -0.3370  0.2786
 8352SOL     OW33179   5.104   0.194   5.459 -0.3273  0.1122 -0.0154
 8352SOL    HW233180   5.102   0.101   5.479  1.4757 -0.4139 -1.9301
 8352SOL    HW333181   5.018   0.227   5.486 -1.3760 -2.2856 -0.2392
 8352SOL    MW433182   5.093   0.186   5.465 -0.2278 -0.2736 -0.2975
 8353SOL     OW33183   6.346   3.664   1.339  0.0707 -0.1083 -0.2126
 8353SOL    HW233184   6.410   3.685   1.271 -0.5656  1.8307 -0.2669
 8353SOL    HW333185   6.398   3.641   1.415  0.8110  0.1266 -0.6356
 8353SOL    MW433186   6.361   3.664   1.340  0.0844  0.1785 -0.2756
 8354SOL     OW33187   0.716   5.321   5.798 -0.4631 -0.3979  0.5996
 8354SOL    HW233188   0.651   5.302   5.730 -0.7599  0.5663  0.5982
 8354SOL    HW333189   0.797   5.336   5.749 -0.6638  0.2407  0.4506
 8354SOL    MW433190   0.718   5.321   5.782 -0.5287 -0.1864  0.5798
 8355SOL     OW33191   0.270   3.962   5.815 -0.1346  0.2169  0.1405
 8355SOL    HW233192   0.320   3.880   5.812 -0.7256 -0.1614  0.5005
 8355SOL    HW333193   0.187   3.938   5.856 -0.7643  0.7580 -0.7831
 8355SOL    MW433194   0.266   3.948   5.820 -0.2957  0.2384  0.0661
 8356SOL     OW33195   2.878   3.823   4.596  0.1509  0.3321 -0.2958
 8356SOL    HW233196   2.862   3.745   4.649  0.4306  0.4711  0.0014
 8356SOL    HW333197   2.885   3.791   4.506 -1.1560  0.1884 -0.3712
 8356SOL    MW433198   2.877   3.809   4.591  0.0153  0.3315 -0.2666
 8357SOL     OW33199   0.676   4.065   1.209  0.1837  0.6853  0.0714
 8357SOL    HW233200   0.738   3.996   1.232  1.5344  1.8259 -0.0182
 8357SOL    HW333201   0.690   4.080   1.116 -0.0599  1.1121  0.1022
 8357SOL    MW433202   0.686   4.058   1.200  0.3297  0.8921  0.0637
 8358SOL     OW33203   3.093   4.932   4.512 -0.4624 -0.6975 -0.1313
 8358SOL    HW233204   3.102   4.979   4.595  0.8176 -0.3266 -0.4560
 8358SOL    HW333205   3.005   4.896   4.514 -0.2479 -1.1827  1.6468
 8358SOL    MW433206   3.083   4.934   4.523 -0.2653 -0.7126  0.0604
 8359SOL     OW33207   6.365   5.037   3.102  0.0590 -0.2956  0.1129
 8359SOL    HW233208   6.385   5.059   3.193  0.6607  0.7172 -0.2535
 8359SOL    HW333209   6.338   4.945   3.105  4.1377 -1.6480  0.7772
 8359SOL    MW433210   6.364   5.028   3.114  0.6765 -0.3404  0.1522
 8360SOL     OW33211   1.630   3.860   4.578  0.3223 -0.5754 -0.1936
 8360SOL    HW233212   1.688   3.831   4.508  0.0530 -1.1451 -0.1896
 8360SOL    HW333213   1.625   3.786   4.638  1.9829  0.5286  1.4022
 8360SOL    MW433214   1.637   3.847   4.577  0.5058 -0.5049  0.0175
 8361SOL     OW33215   2.691   5.436   2.840  0.6121 -0.0345  0.3712
 8361SOL    HW233216   2.662   5.468   2.755 -0.6974 -0.4324  0.6529
 8361SOL    HW333217   2.768   5.490   2.861 -1.1100  2.5547  0.5502
 8361SOL    MW433218   2.697   5.448   2.832  0.2121  0.2546  0.4320
 8362SOL     OW33219   6.163   3.601   6.194  0.8076 -0.6604 -0.7081
 8362SOL    HW233220   6.165   3.575   6.101  1.9404 -0.4316 -0.7604
 8362SOL    HW333221   6.255   3.612   6.218  0.5770 -1.4404  0.6559
 8362SOL    MW433222   6.175   3.599   6.185  0.9266 -0.7331 -0.5350
 8363SOL     OW33223   3.787   5.742   3.948  0.3061 -0.5882  0.2328
 8363SOL    HW233224   3.782   5.787   3.864 -0.4667 -0.5683  0.2845
 8363SOL    HW333225   3.823   5.808   4.008  2.4306 -1.0802 -0.3967
 8363SOL    MW433226   3.791   5.757   3.945  0.4844 -0.6505  0.1565
 8364SOL     OW33227   1.926   1.176   0.972 -0.1072  0.1806  0.5636
 8364SOL    HW233228   1.884   1.095   1.004  0.0079  0.3035  1.0338
 8364SOL    HW333229   1.865   1.210   0.907 -0.2263 -0.2122  0.4637
 8364SOL    MW433230   1.912   1.170   0.968 -0.1077  0.1450  0.6124
 8365SOL     OW33231   2.321   1.797   4.543  0.7064 -0.0686 -0.3333
 8365SOL    HW233232   2.247   1.761   4.495  2.3369 -2.1331 -1.3879
 8365SOL    HW333233   2.337   1.734   4.613  2.7211 -0.7614 -1.3592
 8365SOL    MW433234   2.313   1.784   4.546  1.1873 -0.4324 -0.6078
 8366SOL     OW33235   4.953   4.280   3.978 -0.2337 -0.1037  0.0558
 8366SOL    HW233236   4.984   4.200   3.936 -0.5969 -0.3218  0.1963
 8366SOL    HW333237   4.965   4.263   4.072 -3.1132 -1.2303  0.3125
 8366SOL    MW433238   4.959   4.267   3.985 -0.6615 -0.2811  0.1082
 8367SOL     OW33239   5.322   2.663   5.692 -0.0236 -0.0532 -0.3934
 8367SOL    HW233240   5.382   2.595   5.724 -1.1299 -1.1107 -0.5184
 8367SOL    HW333241   5.285   2.626   5.612  0.4663  1.3333 -1.2861
 8367SOL    MW433242   5.325   2.649   5.685 -0.1049 -0.0098 -0.5276
 8368SOL     OW33243   1.899   5.595   6.219 -0.0363  0.6435  0.0986
 8368SOL    HW233244   1.815   5.596   6.172 -0.1037  0.1455  0.2084
 8368SOL    HW333245   1.879   5.553   6.303  0.6517 -0.8820 -0.4780
 8368SOL    MW433246   1.885   5.590   6.224  0.0456  0.3765  0.0370
 8369SOL     OW33247   3.889   2.507   2.973  0.0105  0.3249  0.6449
 8369SOL    HW233248   3.918   2.465   3.054 -0.4170  0.1501  0.7084
 8369SOL    HW333249   3.841   2.439   2.927  0.6582  0.2805  0.0165
 8369SOL    MW433250   3.887   2.492   2.978  0.0396  0.2960  0.5704
 8370SOL     OW33251   4.119   3.626   4.106 -0.2357 -0.3550 -0.3019
 8370SOL    HW233252   4.170   3.552   4.139  0.7823 -0.2121 -1.4822
 8370SOL    HW333253   4.104   3.681   4.183 -0.6222 -1.5620  0.5002
 8370SOL    MW433254   4.124   3.624   4.121 -0.1524 -0.4954 -0.3518
 8371SOL     OW33255   1.538   2.117   6.281 -0.0454  0.0156  0.4631
 8371SOL    HW233256   1.603   2.051   6.304  1.1812  0.6596 -1.0362
 8371SOL    HW333257   1.477   2.117   6.355  0.7481 -1.7335  1.1663
 8371SOL    MW433258   1.538   2.108   6.294  0.2211 -0.1302  0.3580
 8372SOL     OW33259   4.602   6.406   3.753  0.6163 -0.3233 -0.3443
 8372SOL    HW233260   4.579   6.348   3.680 -0.3945 -0.8460  0.3598
 8372SOL    HW333261   4.543   6.480   3.744  0.6744 -0.2613 -0.2196
 8372SOL    MW433262   4.591   6.408   3.742  0.4906 -0.3841 -0.2349
 8373SOL     OW33263   1.833   4.863   3.314 -0.2140  0.1891 -0.4050
 8373SOL    HW233264   1.808   4.823   3.230  1.8508  1.3673 -1.6869
 8373SOL    HW333265   1.838   4.956   3.295 -1.0937  0.6484  1.4668
 8373SOL    MW433266   1.830   4.870   3.300 -0.0576  0.4052 -0.3271
 8374SOL     OW33267   1.297   3.802   0.234  0.2020 -0.0535 -0.6504
 8374SOL    HW233268   1.386   3.831   0.254  0.8597 -2.1604 -0.2776
 8374SOL    HW333269   1.246   3.825   0.312  1.1050 -1.5087  0.4086
 8374SOL    MW433270   1.302   3.809   0.247  0.4079 -0.5235 -0.4615
 8375SOL     OW33271   4.318   1.965   4.493 -0.1531  0.2304  0.0854
 8375SOL    HW233272   4.386   1.919   4.542 -0.6569 -0.3851  0.2195
 8375SOL    HW333273   4.292   1.903   4.425  0.0488  0.8105 -0.5305
 8375SOL    MW433274   4.324   1.951   4.490 -0.1929  0.2257  0.0218
 8376SOL     OW33275   1.312   5.788   2.987  0.0857  0.5861 -0.8700
 8376SOL    HW233276   1.253   5.846   3.036  0.5357  0.4297 -0.1274
 8376SOL    HW333277   1.372   5.847   2.943  1.9664  0.7309  1.6413
 8376SOL    MW433278   1.312   5.804   2.988  0.3932  0.5845 -0.4407
 8377SOL     OW33279   4.695   6.305   1.071  0.4135 -0.2123 -0.2716
 8377SOL    HW233280   4.785   6.297   1.104  0.0772 -1.1797  0.4321
 8377SOL    HW333281   4.666   6.215   1.056  0.1033  0.1358 -2.0624
 8377SOL    MW433282   4.703   6.292   1.073  0.3282 -0.2940 -0.4150
 8378SOL     OW33283   0.430   3.364   3.684 -0.1748 -0.0151  0.0676
 8378SOL    HW233284   0.515   3.322   3.675 -0.6551 -0.7316 -1.5186
 8378SOL    HW333285   0.422   3.419   3.606 -1.4748 -0.5816 -0.2350
 8378SOL    MW433286   0.440   3.366   3.672 -0.4097 -0.1844 -0.1816
 8379SOL     OW33287   1.300   0.131   2.273 -0.3414 -0.3254 -0.0485
 8379SOL    HW233288   1.346   0.086   2.343  1.3374  2.3832  0.7387
 8379SOL    HW333289   1.207   0.117   2.292  0.0954 -0.9701  1.7968
 8379SOL    MW433290   1.293   0.123   2.284 -0.0622 -0.0531  0.2988
 8380SOL     OW33291   4.772   0.314   5.762  0.4870  0.0776 -0.5162
 8380SOL    HW233292   4.755   0.329   5.669  0.7495  0.0106 -0.5764
 8380SOL    HW333293   4.850   0.366   5.781  0.3843  0.1583 -0.3126
 8380SOL    MW433294   4.780   0.322   5.752  0.5081  0.0794 -0.4973
 8381SOL     OW33295   3.218   3.772   0.857 -0.2437 -0.1983  0.4665
 8381SOL    HW233296   3.292   3.797   0.912 -0.4889 -0.2776  0.8346
 8381SOL    HW333297   3.146   3.829   0.886 -0.5428 -0.6673  0.6491
 8381SOL    MW433298   3.218   3.783   0.868 -0.3155 -0.2706  0.5392
 8382SOL     OW33299   4.620   0.975   4.799 -0.2230 -0.0225 -0.5456
 8382SOL    HW233300   4.542   0.943   4.753 -0.0239 -2.2161  0.5310
 8382SOL    HW333301   4.682   0.997   4.728 -0.4717 -1.8603 -1.3883
 8382SOL    MW433302   4.618   0.974   4.783 -0.2295 -0.5544 -0.5147
 8383SOL     OW33303   3.458   2.152   1.325 -0.1892 -0.3633  0.2678
 8383SOL    HW233304   3.456   2.173   1.232 -0.3156 -2.8356 -0.3538
 8383SOL    HW333305   3.508   2.223   1.365  0.1157  0.5890 -1.7140
 8383SOL    MW433306   3.464   2.164   1.318 -0.1656 -0.5639 -0.0757
 8384SOL     OW33307   1.371   0.646   3.883  0.4419 -0.5639  0.0294
 8384SOL    HW233308   1.460   0.616   3.896  0.4440 -1.1967 -1.2523
 8384SOL    HW333309   1.351   0.622   3.792 -0.5970  0.6697 -0.0961
 8384SOL    MW433310   1.380   0.639   3.873  0.3051 -0.4846 -0.1562
 8385SOL     OW33311   6.236   4.676   4.300  0.4796  0.2650 -0.2139
 8385SOL    HW233312   6.216   4.734   4.373  0.2856  1.0427 -0.8686
 8385SOL    HW333313   6.168   4.608   4.304  0.2117  0.5456  0.0689
 8385SOL    MW433314   6.224   4.674   4.310  0.4186  0.4046 -0.2630
 8386SOL     OW33315   3.473   5.947   1.997 -0.1437  0.2844 -0.0127
 8386SOL    HW233316   3.535   5.885   1.961  0.5315  0.9343  0.0074
 8386SOL    HW333317   3.441   5.996   1.921 -1.9792 -1.1840 -0.2740
 8386SOL    MW433318   3.477   5.945   1.982 -0.2968  0.1764 -0.0445
 8387SOL     OW33319   1.392   4.484   3.767 -0.3564  0.3090  0.0153
 8387SOL    HW233320   1.484   4.467   3.785 -0.4496  0.1367  0.3524
 8387SOL    HW333321   1.377   4.573   3.797 -0.5419 -0.0229  0.9405
 8387SOL    MW433322   1.402   4.493   3.773 -0.3932  0.2425  0.1818
 8388SOL     OW33323   5.014   1.436   2.601 -0.2775  0.1207 -0.3572
 8388SOL    HW233324   4.948   1.410   2.536  0.0417 -2.1553  0.1320
 8388SOL    HW333325   5.096   1.404   2.565  0.0543 -0.1924  0.6559
 8388SOL    MW433326   5.016   1.428   2.588 -0.1916 -0.2209 -0.1590
 8389SOL     OW33327   0.628   3.229   2.847 -1.0225 -0.3675 -0.6500
 8389SOL    HW233328   0.713   3.271   2.837  0.3696 -2.8774 -0.3321
 8389SOL    HW333329   0.599   3.252   2.935 -0.2923 -0.0912 -0.4754
 8389SOL    MW433330   0.635   3.237   2.857 -0.7425 -0.6622 -0.5850
 8390SOL     OW33331   2.010   3.697   1.969  0.2286 -0.2192 -0.7583
 8390SOL    HW233332   2.047   3.744   2.043 -0.9070 -0.2228 -0.1599
 8390SOL    HW333333   2.083   3.687   1.908  1.3479 -0.7151  0.5874
 8390SOL    MW433334   2.024   3.702   1.971  0.2264 -0.2851 -0.5018
 8391SOL     OW33335   0.603   3.328   4.134  0.1383 -0.4217  0.7614
 8391SOL    HW233336   0.538   3.259   4.142 -0.5058  0.1192  0.3829
 8391SOL    HW333337   0.570   3.384   4.063  1.5073 -0.6593 -0.1197
 8391SOL    MW433338   0.590   3.327   4.126  0.2339 -0.3817  0.5952
 8392SOL     OW33339   1.560   3.443   1.339  0.4925  0.5195 -0.5328
 8392SOL    HW233340   1.585   3.400   1.257  0.9004  2.0457 -1.2376
 8392SOL    HW333341   1.632   3.503   1.357  0.3117  0.3391  0.8589
 8392SOL    MW433342   1.573   3.445   1.330  0.5224  0.6970 -0.4422
 8393SOL     OW33343   4.876   4.021   0.018  0.1434 -0.1271  0.5736
 8393SOL    HW233344   4.798   4.066   0.053 -0.5142 -1.2380  0.5745
 8393SOL    HW333345   4.899   4.071  -0.060 -2.5293 -1.5605 -1.3124
 8393SOL    MW433346   4.868   4.034   0.012 -0.2960 -0.4628  0.3249
 8394SOL     OW33347   5.267   2.760   4.892  0.2909 -0.5827  0.3272
 8394SOL    HW233348   5.189   2.707   4.910 -0.2710 -0.3643 -1.2653
 8394SOL    HW333349   5.323   2.703   4.839 -0.2827  0.2972 -1.3315
 8394SOL    MW433350   5.264   2.745   4.887  0.1411 -0.4378 -0.1018
 8395SOL     OW33351   2.586   3.463   2.318  0.5207 -0.3006 -0.1324
 8395SOL    HW233352   2.504   3.512   2.323  0.9230  0.2881  0.9299
 8395SOL    HW333353   2.630   3.498   2.241  0.3222  0.2627  0.0063
 8395SOL    MW433354   2.581   3.474   2.309  0.5476 -0.1486  0.0261
 8396SOL     OW33355   4.431   2.177   3.213 -0.0691  0.1966  0.3065
 8396SOL    HW233356   4.433   2.249   3.276  1.8348 -0.2635  0.8169
 8396SOL    HW333357   4.499   2.117   3.242  0.1460 -0.5613 -1.6057
 8396SOL    MW433358   4.440   2.179   3.225  0.2105  0.0359  0.1215
 8397SOL     OW33359   3.594   4.357   4.850  0.0228 -0.3360 -0.3886
 8397SOL    HW233360   3.639   4.435   4.884 -1.4394 -0.0824  1.0787
 8397SOL    HW333361   3.626   4.285   4.906  2.0146 -1.0247 -2.2671
 8397SOL    MW433362   3.604   4.358   4.862  0.0927 -0.3934 -0.4429
 8398SOL     OW33363   5.796   1.619   1.777  0.4235 -0.2270 -0.4249
 8398SOL    HW233364   5.705   1.647   1.775 -0.0475 -1.6020 -2.8827
 8398SOL    HW333365   5.843   1.686   1.727  0.4894 -0.3186 -0.4861
 8398SOL    MW433366   5.790   1.631   1.770  0.3700 -0.4205 -0.7573
 8399SOL     OW33367   0.614   1.147   1.246 -0.0729 -0.3152  0.0645
 8399SOL    HW233368   0.532   1.104   1.271 -0.4688  1.2407  1.6530
 8399SOL    HW333369   0.680   1.110   1.305  0.1775 -0.7946 -0.5022
 8399SOL    MW433370   0.612   1.136   1.257 -0.0921 -0.1732  0.1993
 8400SOL     OW33371   5.019   1.705   2.488  0.5148 -0.2704 -0.3497
 8400SOL    HW233372   5.093   1.762   2.509  0.2019 -0.4257  1.3287
 8400SOL    HW333373   5.030   1.630   2.546 -0.9710 -0.2802 -0.0539
 8400SOL    MW433374   5.030   1.702   2.499  0.2775 -0.2922 -0.0892
 8401SOL     OW33375   6.379   1.243   4.529  0.0681  0.0530 -0.3851
 8401SOL    HW233376   6.424   1.179   4.474  0.7084 -0.5728  0.8260
 8401SOL    HW333377   6.384   1.207   4.618 -0.0129  1.5220  0.2525
 8401SOL    MW433378   6.386   1.230   4.534  0.1419  0.1643 -0.1412
 8402SOL     OW33379   6.330   3.528   0.389  0.5957 -0.2799  0.1140
 8402SOL    HW233380   6.258   3.480   0.348  0.6619  0.4653 -0.9217
 8402SOL    HW333381   6.293   3.561   0.471  0.2512 -1.2307  0.3506
 8402SOL    MW433382   6.315   3.526   0.394  0.5590 -0.3070  0.0085
 8403SOL     OW33383   5.025   0.688   0.461 -0.0264 -0.3981 -0.6455
 8403SOL    HW233384   5.025   0.706   0.367 -1.6711 -2.4355 -1.0749
 8403SOL    HW333385   4.969   0.756   0.498 -0.8050 -0.6342 -1.3684
 8403SOL    MW433386   5.018   0.700   0.453 -0.3462 -0.6981 -0.7975
 8404SOL     OW33387   3.515   3.709   5.557 -0.4875 -0.3898  0.3569
 8404SOL    HW233388   3.503   3.790   5.605  0.9778  0.0948 -0.0636
 8404SOL    HW333389   3.466   3.644   5.608 -1.9295  0.7698  0.5412
 8404SOL    MW433390   3.507   3.711   5.570 -0.4844 -0.1728  0.3257
 8405SOL     OW33391   3.236   5.668   2.847 -0.3227 -0.2329  0.2418
 8405SOL    HW233392   3.143   5.656   2.829 -0.1810  1.8588 -2.6166
 8405SOL    HW333393   3.279   5.597   2.798 -0.3617 -1.6166  2.1148
 8405SOL    MW433394   3.230   5.657   2.838 -0.3092 -0.1395  0.1118
 8406SOL     OW33395   5.949   5.305   4.402  0.1301  0.1422 -0.4374
 8406SOL    HW233396   5.904   5.325   4.320  1.4768 -1.8250 -1.7532
 8406SOL    HW333397   5.892   5.244   4.447 -0.3549  0.7959 -0.1519
 8406SOL    MW433398   5.936   5.300   4.397  0.2438 -0.0311 -0.5733
 8407SOL     OW33399   0.682   3.231   3.629 -0.3656 -0.0585  0.0638
 8407SOL    HW233400   0.712   3.171   3.697  2.6205 -0.1503 -1.1442
 8407SOL    HW333401   0.666   3.175   3.553  2.6038  0.5192 -1.1246
 8407SOL    MW433402   0.684   3.216   3.628  0.4201  0.0056 -0.2524
 8408SOL     OW33403   4.950   6.157   4.112  0.3877  0.1571  0.1767
 8408SOL    HW233404   5.023   6.202   4.071  0.9625 -0.2764  0.6985
 8408SOL    HW333405   4.880   6.159   4.047  0.9037  0.4761 -0.3732
 8408SOL    MW433406   4.950   6.163   4.098  0.5316  0.1420  0.1730
 8409SOL     OW33407   5.444   6.403   2.872 -0.1481  0.1241  0.2771
 8409SOL    HW233408   5.354   6.371   2.880 -0.2262  0.3134  0.1499
 8409SOL    HW333409   5.490   6.332   2.826 -0.0399 -0.3219  1.0476
 8409SOL    MW433410   5.439   6.389   2.867 -0.1441  0.0902  0.3620
 8410SOL     OW33411   1.091   5.292   0.574 -0.4599 -0.2106 -0.0215
 8410SOL    HW233412   1.026   5.352   0.610  2.1711  2.0208  1.4666
 8410SOL    HW333413   1.136   5.343   0.506 -0.7240 -1.9543 -1.5909
 8410SOL    MW433414   1.089   5.307   0.569 -0.1476 -0.1462 -0.0322
 8411SOL     OW33415   2.260   0.118   2.355 -0.2118  0.2257  0.4522
 8411SOL    HW233416   2.211   0.176   2.297  0.5375  2.8614  2.2750
 8411SOL    HW333417   2.201   0.044   2.369 -1.6487  0.9742 -1.1711
 8411SOL    MW433418   2.245   0.116   2.349 -0.3025  0.6722  0.4785
 8412SOL     OW33419   2.329   6.193   3.672 -0.3333 -0.3573 -0.0734
 8412SOL    HW233420   2.317   6.275   3.625  1.0047 -1.2683 -2.1749
 8412SOL    HW333421   2.244   6.175   3.712 -1.7553  0.2682 -2.6027
 8412SOL    MW433422   2.316   6.201   3.671 -0.3444 -0.3949 -0.6844
 8413SOL     OW33423   1.179   3.206   4.784 -0.6595  0.7798 -0.1087
 8413SOL    HW233424   1.104   3.255   4.817 -1.3222 -1.0721  1.2920
 8413SOL    HW333425   1.142   3.147   4.719  0.0167  1.5412 -1.2272
 8413SOL    MW433426   1.164   3.205   4.780 -0.6577  0.6359 -0.0715
 8414SOL     OW33427   3.038   0.552   0.670 -0.3286  0.4217  0.3916
 8414SOL    HW233428   3.035   0.530   0.577 -0.6002  1.9024  0.0216
 8414SOL    HW333429   3.131   0.562   0.689 -0.2649 -0.0217  0.3165
 8414SOL    MW433430   3.050   0.551   0.660 -0.3560  0.5586  0.3329
 8415SOL     OW33431   0.033   2.857   4.367  0.5389  0.5365 -0.0425
 8415SOL    HW233432   0.040   2.876   4.461 -1.1292 -1.7884  0.6431
 8415SOL    HW333433  -0.058   2.878   4.346  0.3540 -0.7759 -0.6426
 8415SOL    MW433434   0.022   2.862   4.377  0.2944  0.0566 -0.0312
 8416SOL     OW33435   3.133   4.557   2.930 -0.3164  0.0284  0.3246
 8416SOL    HW233436   3.077   4.613   2.875 -0.9917  0.1845  1.1527
 8416SOL    HW333437   3.218   4.601   2.929 -0.6179  0.6291  0.2904
 8416SOL    MW433438   3.137   4.570   2.922 -0.4453  0.1283  0.4294
 8417SOL     OW33439   3.991   5.283   1.038  0.2602 -0.5856  0.1400
 8417SOL    HW233440   3.900   5.253   1.043  0.2912 -0.5941  0.7380
 8417SOL    HW333441   4.033   5.244   1.115  0.9338 -1.1365 -0.5022
 8417SOL    MW433442   3.985   5.274   1.049  0.3531 -0.6594  0.1342
 8418SOL     OW33443   3.099   5.780   5.922  0.7827 -0.4745 -0.2859
 8418SOL    HW233444   3.077   5.785   6.015  0.3740  1.7854 -0.4450
 8418SOL    HW333445   3.195   5.776   5.920  0.9159  1.4326  0.2527
 8418SOL    MW433446   3.109   5.780   5.934  0.7464  0.0753 -0.2358
 8419SOL     OW33447   0.813   4.793   0.047  0.0778 -0.0815 -0.5512
 8419SOL    HW233448   0.879   4.820   0.111 -2.0639 -0.6826  2.0793
 8419SOL    HW333449   0.774   4.874   0.017  1.1250  0.2108 -1.1868
 8419SOL    MW433450   0.817   4.807   0.052 -0.0666 -0.1223 -0.2880
 8420SOL     OW33451   2.750   2.569   0.684 -0.4024 -0.7806  0.5235
 8420SOL    HW233452   2.738   2.523   0.601  1.2964 -0.0926 -0.1559
 8420SOL    HW333453   2.842   2.597   0.682 -1.1207  1.9009  1.2608
 8420SOL    MW433454   2.760   2.566   0.673 -0.2730 -0.3361  0.5312
 8421SOL     OW33455   0.882   1.800   1.854 -0.5090  0.0293 -0.5543
 8421SOL    HW233456   0.953   1.852   1.816 -2.0181  2.1811 -0.6183
 8421SOL    HW333457   0.892   1.810   1.949  0.3726 -1.2839 -0.4858
 8421SOL    MW433458   0.893   1.808   1.862 -0.5918  0.1399 -0.5537
 8422SOL     OW33459   3.702   6.203   2.950  0.2468  0.4198  0.4884
 8422SOL    HW233460   3.647   6.159   2.885  1.9128 -2.4603  0.8356
 8422SOL    HW333461   3.654   6.193   3.032  0.3596 -0.3597  0.4715
 8422SOL    MW433462   3.688   6.195   2.952  0.4815 -0.0631  0.5320
 8423SOL     OW33463   3.255   1.564   4.701 -0.3016  0.2450 -0.6572
 8423SOL    HW233464   3.208   1.487   4.669  1.0885  0.1888 -2.7123
 8423SOL    HW333465   3.186   1.630   4.713 -1.3707 -0.9515  0.1440
 8423SOL    MW433466   3.240   1.563   4.698 -0.2593  0.0797 -0.8226
 8424SOL     OW33467   1.666   1.566   1.418 -0.5500 -0.0302 -0.0019
 8424SOL    HW233468   1.690   1.655   1.395  1.1351 -0.2276  0.8420
 8424SOL    HW333469   1.672   1.517   1.336 -2.2564  0.7468 -0.6309
 8424SOL    MW433470   1.670   1.571   1.404 -0.5528  0.0463  0.0265
 8425SOL     OW33471   0.941   0.587   2.414  0.3219 -0.4009  0.3348
 8425SOL    HW233472   0.865   0.644   2.412  0.2367 -0.5037 -1.8788
 8425SOL    HW333473   0.990   0.614   2.492 -1.4661  0.3079  1.2543
 8425SOL    MW433474   0.938   0.598   2.424  0.0748 -0.3209  0.1640
 8426SOL     OW33475   4.489   3.093   6.397 -0.3856 -0.8879  0.0033
 8426SOL    HW233476   4.551   3.100   6.324 -1.1704 -0.5456 -0.6467
 8426SOL    HW333477   4.422   3.031   6.365 -0.6016 -0.9298  0.5264
 8426SOL    MW433478   4.488   3.085   6.383 -0.5177 -0.8483 -0.0135
 8427SOL     OW33479   3.589   2.275   4.253  0.0195 -0.3324 -0.4099
 8427SOL    HW233480   3.593   2.261   4.347  0.6127 -1.5646 -0.5985
 8427SOL    HW333481   3.591   2.370   4.243  0.9308 -0.1926  0.7921
 8427SOL    MW433482   3.590   2.286   4.264  0.2180 -0.4765 -0.2762
 8428SOL     OW33483   1.954   4.750   2.943 -0.3253 -0.1141  0.3924
 8428SOL    HW233484   1.891   4.678   2.943 -0.9666  0.4310 -0.2209
 8428SOL    HW333485   1.997   4.744   2.858 -0.8548  0.6228  0.0662
 8428SOL    MW433486   1.952   4.740   2.932 -0.4798  0.0550  0.2684
 8429SOL     OW33487   1.325   0.876   0.546  0.0373  0.0443 -0.3819
 8429SOL    HW233488   1.276   0.938   0.601  0.3182 -1.7670  2.0732
 8429SOL    HW333489   1.275   0.872   0.464 -2.5772  0.1243  1.1038
 8429SOL    MW433490   1.312   0.884   0.542 -0.2706 -0.1841  0.1380
 8430SOL     OW33491   2.652   3.601   0.702  0.4956  0.0444 -0.1550
 8430SOL    HW233492   2.593   3.611   0.777  0.1569  0.0721 -0.4233
 8430SOL    HW333493   2.594   3.606   0.626  0.7824 -0.4252 -0.4035
 8430SOL    MW433494   2.636   3.603   0.702  0.4888 -0.0139 -0.2232
 8431SOL     OW33495   5.303   1.862   1.119  0.1831 -0.4917  0.1379
 8431SOL    HW233496   5.315   1.806   1.043  0.4045  1.5598 -1.4110
 8431SOL    HW333497   5.248   1.811   1.178  0.8161 -2.5200 -0.9554
 8431SOL    MW433498   5.297   1.848   1.117  0.2958 -0.4886 -0.2107
 8432SOL     OW33499   3.757   3.978   1.503 -0.4424  0.2382 -0.3082
 8432SOL    HW233500   3.838   4.018   1.470 -0.5081  0.0920 -0.6551
 8432SOL    HW333501   3.766   3.885   1.483  0.2330 -0.1428  1.5781
 8432SOL    MW433502   3.769   3.971   1.496 -0.3620  0.1687 -0.1051
 8433SOL     OW33503   6.391   5.573   6.297  0.3161  0.1074 -0.5656
 8433SOL    HW233504   6.312   5.623   6.277  0.4381 -0.3573 -2.4144
 8433SOL    HW333505   6.361   5.483   6.307  0.7414 -0.3892 -3.0443
 8433SOL    MW433506   6.377   5.568   6.296  0.3883 -0.0194 -1.1366
 8434SOL     OW33507   4.929   1.189   2.408 -0.0775  0.0111 -0.0007
 8434SOL    HW233508   4.931   1.121   2.341  0.8105 -0.5766  0.6073
 8434SOL    HW333509   4.858   1.247   2.380  0.2937 -0.1878 -1.4731
 8434SOL    MW433510   4.920   1.188   2.395  0.0886 -0.0927 -0.1148
 8435SOL     OW33511   0.678   3.388   5.713 -0.2679 -0.4294 -0.2041
 8435SOL    HW233512   0.623   3.422   5.643 -0.5772 -0.8827 -0.1893
 8435SOL    HW333513   0.643   3.300   5.730 -1.2554  0.2617  1.6241
 8435SOL    MW433514   0.666   3.381   5.706 -0.4390 -0.3980  0.0390
 8436SOL     OW33515   2.150   5.591   2.216 -0.0697  0.0808 -0.1678
 8436SOL    HW233516   2.162   5.640   2.135  2.1343 -1.4277 -0.8324
 8436SOL    HW333517   2.090   5.645   2.267  1.6433  3.1709 -1.1131
 8436SOL    MW433518   2.144   5.605   2.212  0.4471  0.2895 -0.3802
 8437SOL     OW33519   4.737   1.184   1.611  0.2598  0.8249  0.6493
 8437SOL    HW233520   4.683   1.184   1.532  0.7434 -0.6391  0.2901
 8437SOL    HW333521   4.723   1.098   1.651  1.8743  0.6146  0.8408
 8437SOL    MW433522   4.728   1.173   1.606  0.5366  0.6040  0.6272
 8438SOL     OW33523   1.892   6.378   5.895 -0.3819 -0.1787  0.1220
 8438SOL    HW233524   1.845   6.460   5.885 -1.0259 -0.6765 -1.1814
 8438SOL    HW333525   1.862   6.324   5.822 -1.0620 -2.1058  1.7337
 8438SOL    MW433526   1.882   6.381   5.884 -0.5566 -0.4986  0.1627
 8439SOL     OW33527   5.312   5.816   2.943  0.3179 -0.1853 -0.1119
 8439SOL    HW233528   5.317   5.906   2.975  0.5602 -0.1323 -0.2946
 8439SOL    HW333529   5.243   5.818   2.877  0.4092 -0.1063 -0.2045
 8439SOL    MW433530   5.304   5.828   2.939  0.3619 -0.1679 -0.1482
 8440SOL     OW33531   4.681   2.852   4.574 -0.6668 -0.1225  0.1391
 8440SOL    HW233532   4.745   2.924   4.574  0.3401 -0.9839  0.5858
 8440SOL    HW333533   4.732   2.776   4.546 -1.6032 -0.7580  0.1399
 8440SOL    MW433534   4.696   2.852   4.570 -0.6575 -0.3200  0.1981
 8441SOL     OW33535   3.613   5.733   1.874 -0.1556 -0.3677  0.2403
 8441SOL    HW233536   3.703   5.717   1.846 -0.0688 -1.1871  0.9091
 8441SOL    HW333537   3.566   5.757   1.794  0.4990 -0.6624 -0.2401
 8441SOL    MW433538   3.618   5.734   1.860 -0.0578 -0.5147  0.2652
 8442SOL     OW33539   4.940   3.362   5.952 -0.0480 -0.2944  0.2881
 8442SOL    HW233540   4.945   3.344   6.046  0.1093 -2.2549 -0.0531
 8442SOL    HW333541   4.860   3.318   5.924  0.2847 -0.3236 -0.6245
 8442SOL    MW433542   4.930   3.354   5.961  0.0166 -0.5569  0.1226
 8443SOL     OW33543   5.170   3.636   1.151  0.1058 -0.1812  0.0255
 8443SOL    HW233544   5.122   3.705   1.196 -0.6708 -0.3075 -0.5974
 8443SOL    HW333545   5.136   3.636   1.062  1.6585  0.1006 -0.6032
 8443SOL    MW433546   5.159   3.645   1.145  0.2082 -0.1607 -0.1396
 8444SOL     OW33547   3.793   2.662   1.978  0.5119 -0.0728 -0.7308
 8444SOL    HW233548   3.702   2.665   2.006  0.8539  1.8757  0.3447
 8444SOL    HW333549   3.797   2.588   1.918 -1.9119  0.2042 -1.3325
 8444SOL    MW433550   3.782   2.652   1.974  0.2372  0.2208 -0.6683
 8445SOL     OW33551   5.260   3.571   6.039 -0.0309  0.1942  0.1430
 8445SOL    HW233552   5.170   3.600   6.055 -0.2792  0.1550 -1.1259
 8445SOL    HW333553   5.282   3.606   5.953  1.4399  0.8303  0.7462
 8445SOL    MW433554   5.251   3.579   6.030  0.1304  0.2729  0.0551
 8446SOL     OW33555   2.237   2.096   5.210 -0.1871  0.2095 -0.0627
 8446SOL    HW233556   2.320   2.143   5.215 -1.2679  2.2690 -0.1272
 8446SOL    HW333557   2.227   2.054   5.296  0.2275  1.2267  0.4989
 8446SOL    MW433558   2.247   2.097   5.222 -0.2750  0.6154  0.0029
 8447SOL     OW33559   5.969   6.043   1.194 -0.4009 -0.1296  0.0637
 8447SOL    HW233560   6.055   6.005   1.212 -0.4621  0.1969  1.1328
 8447SOL    HW333561   5.966   6.051   1.098 -0.0370 -1.9297 -0.1254
 8447SOL    MW433562   5.980   6.039   1.183 -0.3610 -0.3240  0.1798
 8448SOL     OW33563   1.714   5.147   6.341  0.4228 -0.1143 -0.0666
 8448SOL    HW233564   1.732   5.202   6.418 -0.3601  0.6536 -0.4186
 8448SOL    HW333565   1.729   5.057   6.372  0.6423  0.2181  0.8268
 8448SOL    MW433566   1.718   5.142   6.356  0.3484  0.0308  0.0048
 8449SOL     OW33567   0.117   0.854   2.174  0.6256  0.0580  0.1926
 8449SOL    HW233568   0.191   0.871   2.116  1.2609 -0.6517  0.7694
 8449SOL    HW333569   0.150   0.876   2.261  0.2480 -0.5382  0.4916
 8449SOL    MW433570   0.131   0.860   2.178  0.6596 -0.1143  0.3081
 8450SOL     OW33571   1.597   0.401   0.432  0.0831  0.1811  0.0148
 8450SOL    HW233572   1.547   0.320   0.418 -2.1388  1.3001  1.0489
 8450SOL    HW333573   1.602   0.410   0.528  1.4791  0.6204 -0.0724
 8450SOL    MW433574   1.591   0.391   0.443 -0.0259  0.3867  0.1397
 8451SOL     OW33575   5.144   1.636   6.000 -0.1447  0.2757  0.2174
 8451SOL    HW233576   5.158   1.541   5.996  3.3285  0.4921  2.4248
 8451SOL    HW333577   5.050   1.647   5.992 -0.6014 -3.2772 -0.9482
 8451SOL    MW433578   5.134   1.625   5.999  0.2533 -0.1645  0.3548
 8452SOL     OW33579   3.345   5.274   3.395  0.1361  0.2101  0.5999
 8452SOL    HW233580   3.296   5.207   3.347  0.0050  0.9468 -0.3232
 8452SOL    HW333581   3.371   5.337   3.328  1.6440  0.2697  1.2086
 8452SOL    MW433582   3.342   5.274   3.380  0.3177  0.3152  0.5584
 8453SOL     OW33583   4.691   0.364   2.818  0.0688  0.1558 -0.0137
 8453SOL    HW233584   4.767   0.339   2.766  0.4521  1.0526  0.0966
 8453SOL    HW333585   4.688   0.460   2.813 -0.8519  0.1588  0.2692
 8453SOL    MW433586   4.700   0.373   2.811 -0.0021  0.2745  0.0382
 8454SOL     OW33587   5.333   2.991   3.542  0.0314 -0.8454  0.2597
 8454SOL    HW233588   5.344   2.921   3.606  0.4970 -0.0141  1.1043
 8454SOL    HW333589   5.243   3.019   3.552  0.1710 -0.5552  0.7275
 8454SOL    MW433590   5.323   2.986   3.552  0.1113 -0.6975  0.4328
 8455SOL     OW33591   3.583   0.005   0.128 -0.3289  0.1944  0.0402
 8455SOL    HW233592   3.558   0.096   0.143  1.9165  0.9051 -0.1365
 8455SOL    HW333593   3.581  -0.035   0.215  0.8450  1.0291  0.4678
 8455SOL    MW433594   3.579   0.012   0.142  0.1223  0.3983  0.0733
 8456SOL     OW33595   1.032   5.899   0.611 -0.0746  0.5668  0.1009
 8456SOL    HW233596   1.068   5.826   0.560  2.3186  1.1836  0.7679
 8456SOL    HW333597   0.948   5.867   0.644 -0.3268 -0.8801 -1.8233
 8456SOL    MW433598   1.026   5.885   0.609  0.2079  0.4573 -0.0650
 8457SOL     OW33599   3.824   5.338   0.178  0.5806  0.1373 -0.4088
 8457SOL    HW233600   3.767   5.341   0.101  1.0829  1.2198 -0.7635
 8457SOL    HW333601   3.899   5.286   0.150  0.6051  0.2477 -0.5525
 8457SOL    MW433602   3.827   5.332   0.164  0.6501  0.2947 -0.4746
 8458SOL     OW33603   5.008   1.157   6.104  0.0444  0.2299 -0.1618
 8458SOL    HW233604   5.097   1.160   6.068  0.2245 -1.3835  0.0913
 8458SOL    HW333605   4.951   1.150   6.027  0.1348  1.0112 -0.3103
 8458SOL    MW433606   5.012   1.157   6.089  0.0801  0.1201 -0.1480
 8459SOL     OW33607   3.817   5.854   3.669  0.0971 -0.1469  0.0179
 8459SOL    HW233608   3.791   5.923   3.608 -0.9287  0.6814  1.3444
 8459SOL    HW333609   3.887   5.808   3.624  0.4953  1.4639 -1.1023
 8459SOL    MW433610   3.823   5.857   3.655  0.0143  0.1749  0.0452
 8460SOL     OW33611   1.261   0.400   1.801  0.3364  0.1273  0.2289
 8460SOL    HW233612   1.335   0.368   1.853 -0.4707 -3.5846 -0.6663
 8460SOL    HW333613   1.184   0.370   1.848 -0.5963  1.8892 -0.0995
 8460SOL    MW433614   1.261   0.392   1.814  0.1069 -0.1300  0.0675
 8461SOL     OW33615   5.785   5.456   2.414  0.3188 -0.2760 -0.4517
 8461SOL    HW233616   5.774   5.417   2.500  1.8160  0.5929  0.1610
 8461SOL    HW333617   5.715   5.522   2.409  2.2822  2.2051  1.6465
 8461SOL    MW433618   5.774   5.460   2.425  0.7754  0.1660 -0.0940
 8462SOL     OW33619   4.370   2.005   4.956 -0.0129 -0.1222 -0.5132
 8462SOL    HW233620   4.391   1.913   4.974 -2.0450 -0.4736  0.2875
 8462SOL    HW333621   4.276   2.012   4.973  0.5404  2.7146  2.2204
 8462SOL    MW433622   4.361   1.993   4.961 -0.2080  0.2057 -0.0469
 8463SOL     OW33623   5.169  -0.002   5.930 -0.6508 -0.2492 -0.0367
 8463SOL    HW233624   5.202   0.064   5.991 -0.4861 -1.7237  1.5512
 8463SOL    HW333625   5.088   0.036   5.895 -0.6498  0.7287  0.9598
 8463SOL    MW433626   5.162   0.012   5.934 -0.6289 -0.3147  0.3042
 8464SOL     OW33627   5.724   5.670   0.673 -0.0618 -0.2710  0.1299
 8464SOL    HW233628   5.802   5.726   0.680  1.5408 -2.1992 -1.2720
 8464SOL    HW333629   5.759   5.581   0.670 -2.3130 -1.1869 -0.9243
 8464SOL    MW433630   5.739   5.666   0.674 -0.1474 -0.6462 -0.1941
 8465SOL     OW33631   0.734   4.986   5.042  0.0789  0.2908  0.3547
 8465SOL    HW233632   0.731   4.938   5.125 -1.2830 -0.1137  0.0987
 8465SOL    HW333633   0.710   4.921   4.976 -0.4620  0.9979 -0.1610
 8465SOL    MW433634   0.730   4.971   5.044 -0.1721  0.3307  0.2529
 8466SOL     OW33635   5.766   3.464   3.146  0.6024  0.2725 -0.0698
 8466SOL    HW233636   5.709   3.393   3.175 -0.5011  0.1793 -2.2616
 8466SOL    HW333637   5.852   3.423   3.136 -0.0114 -0.7976 -1.2703
 8466SOL    MW433638   5.770   3.449   3.148  0.3758  0.1190 -0.5174
 8467SOL     OW33639   5.677   5.070   5.071  0.4436  0.2563  0.1604
 8467SOL    HW233640   5.682   4.992   5.126 -0.1693 -0.3197 -0.5883
 8467SOL    HW333641   5.759   5.071   5.022  0.8004  0.5322  0.7511
 8467SOL    MW433642   5.689   5.060   5.072  0.4098  0.2167  0.1396
 8468SOL     OW33643   0.586   2.133   5.833 -0.0576  0.3233  0.1654
 8468SOL    HW233644   0.601   2.227   5.847  0.2808 -0.0902  3.2309
 8468SOL    HW333645   0.669   2.092   5.860 -0.4016 -0.9078 -0.6000
 8468SOL    MW433646   0.599   2.140   5.838 -0.0583  0.1063  0.4688
 8469SOL     OW33647   4.508   1.305   2.559  0.1961  0.6274 -0.3028
 8469SOL    HW233648   4.572   1.373   2.579  0.3548  0.5548 -0.5574
 8469SOL    HW333649   4.423   1.348   2.565  0.0806  0.2325  2.3054
 8469SOL    MW433650   4.506   1.319   2.563  0.2018  0.5657  0.0077
 8470SOL     OW33651   3.312   5.134   2.055  0.1653 -0.3616 -0.6480
 8470SOL    HW233652   3.395   5.133   2.009  0.4694  0.6819 -0.1566
 8470SOL    HW333653   3.316   5.211   2.111 -1.8224  0.7542 -1.9011
 8470SOL    MW433654   3.323   5.144   2.056 -0.0568 -0.0767 -0.7485
 8471SOL     OW33655   2.500   4.547   0.623  0.1551  0.1686  0.4856
 8471SOL    HW233656   2.412   4.583   0.631  0.7484  1.5918  1.1515
 8471SOL    HW333657   2.501   4.503   0.538 -1.2857 -0.1958  0.6296
 8471SOL    MW433658   2.489   4.546   0.613  0.0433  0.3083  0.5924
 8472SOL     OW33659   2.720   5.488   5.177  0.4610 -0.1904 -0.2468
 8472SOL    HW233660   2.729   5.404   5.131 -0.2780  0.0473 -0.8367
 8472SOL    HW333661   2.809   5.509   5.206  0.8226 -0.6839 -0.9842
 8472SOL    MW433662   2.733   5.480   5.175  0.4112 -0.2241 -0.4219
 8473SOL     OW33663   5.187   5.436   4.630 -0.9791 -0.2433  0.1381
 8473SOL    HW233664   5.105   5.460   4.673 -0.5326  0.6893  0.4934
 8473SOL    HW333665   5.251   5.430   4.702 -0.5203  0.0321 -0.2391
 8473SOL    MW433666   5.185   5.438   4.645 -0.8596 -0.0839  0.1352
 8474SOL     OW33667   3.747   4.861   3.443 -0.4261  0.3151  0.1356
 8474SOL    HW233668   3.727   4.840   3.534  0.4529 -0.2901  0.1999
 8474SOL    HW333669   3.673   4.915   3.414 -2.4508 -2.2400  0.1867
 8474SOL    MW433670   3.735   4.866   3.451 -0.5773 -0.1019  0.1509
 8475SOL     OW33671   4.879   1.153   5.595  0.0476  0.0998 -0.5828
 8475SOL    HW233672   4.796   1.126   5.555  0.9323 -1.7327 -1.2623
 8475SOL    HW333673   4.861   1.155   5.689 -0.9213  0.3619 -0.7618
 8475SOL    MW433674   4.866   1.150   5.602  0.0365 -0.1074 -0.6961
 8476SOL     OW33675   4.935   4.234   1.047 -0.4883 -0.0138 -0.0265
 8476SOL    HW233676   4.869   4.287   1.001 -0.6745 -1.4555 -1.5442
 8476SOL    HW333677   4.935   4.267   1.136 -2.9316  0.3691 -0.1034
 8476SOL    MW433678   4.926   4.245   1.052 -0.8352 -0.1535 -0.2369
 8477SOL     OW33679   0.920   4.546   4.904  0.3790 -0.3890 -0.4805
 8477SOL    HW233680   0.842   4.538   4.959  0.0091  0.6203 -0.8345
 8477SOL    HW333681   0.981   4.597   4.956  0.5733 -0.6594 -0.4432
 8477SOL    MW433682   0.918   4.552   4.918  0.3558 -0.2915 -0.5223
 8478SOL     OW33683   6.005   5.889   5.295  0.1862  0.5858  0.2766
 8478SOL    HW233684   6.011   5.837   5.215  0.6722  0.1314  0.6042
 8478SOL    HW333685   6.093   5.887   5.333  0.1236  1.3401  0.4893
 8478SOL    MW433686   6.017   5.882   5.290  0.2421  0.6253  0.3479
 8479SOL     OW33687   1.289   5.605   4.794  0.1553 -0.3798 -0.2973
 8479SOL    HW233688   1.324   5.579   4.709 -0.6819 -0.8341 -0.5196
 8479SOL    HW333689   1.273   5.522   4.839  3.1644 -0.1679  1.4400
 8479SOL    MW433690   1.291   5.590   4.789  0.4418 -0.4118 -0.0974
 8480SOL     OW33691   2.707   1.472   2.158  0.2965  0.3634  0.3161
 8480SOL    HW233692   2.733   1.527   2.084  1.0057  1.0444  1.0552
 8480SOL    HW333693   2.766   1.496   2.229 -0.1002 -0.5713  0.9973
 8480SOL    MW433694   2.718   1.482   2.158  0.3377  0.3299  0.5035
 8481SOL     OW33695   5.091   0.868   5.220  0.0788  0.1639  0.0954
 8481SOL    HW233696   5.127   0.870   5.309 -1.3627  0.1589  0.7108
 8481SOL    HW333697   5.025   0.937   5.220 -1.5496 -1.3293 -0.2260
 8481SOL    MW433698   5.087   0.877   5.232 -0.3262 -0.0337  0.1342
 8482SOL     OW33699   6.169   4.615   5.324  0.0701  0.1993 -0.2175
 8482SOL    HW233700   6.255   4.614   5.366  0.2475  1.2757 -0.5179
 8482SOL    HW333701   6.131   4.699   5.351 -0.9491 -0.3294  0.0255
 8482SOL    MW433702   6.175   4.626   5.333 -0.0410  0.2716 -0.2251
 8483SOL     OW33703   1.679   2.042   3.498  0.1196  0.2369 -0.0640
 8483SOL    HW233704   1.630   2.009   3.573 -0.1659  0.3494 -0.2006
 8483SOL    HW333705   1.614   2.053   3.429  0.6075 -1.3104 -0.8242
 8483SOL    MW433706   1.664   2.039   3.499  0.1463  0.0476 -0.1823
 8484SOL     OW33707   1.762   2.149   4.085 -0.1240  0.2936  0.1498
 8484SOL    HW233708   1.832   2.213   4.071  0.7273 -0.3945  1.1099
 8484SOL    HW333709   1.736   2.161   4.176 -2.7881  1.9816 -0.7189
 8484SOL    MW433710   1.768   2.159   4.095 -0.3631  0.4255  0.1618
 8485SOL     OW33711   4.336   4.228   0.258  0.4705  0.3534  0.4053
 8485SOL    HW233712   4.242   4.228   0.239  0.4795  1.7123  0.2223
 8485SOL    HW333713   4.346   4.299   0.322  1.4162  0.4192  0.1851
 8485SOL    MW433714   4.325   4.238   0.264  0.5964  0.5414  0.3521
 8486SOL     OW33715   2.545   5.495   5.402  0.0210 -0.4368 -0.6018
 8486SOL    HW233716   2.543   5.406   5.437  2.9966  0.1154  1.3826
 8486SOL    HW333717   2.610   5.492   5.332 -0.3180  0.0476 -0.9432
 8486SOL    MW433718   2.553   5.483   5.397  0.3688 -0.3000 -0.3851
 8487SOL     OW33719   0.489   2.459   3.884 -0.2901 -0.1947  0.2228
 8487SOL    HW233720   0.420   2.420   3.831 -0.1538 -0.3317  0.1428
 8487SOL    HW333721   0.547   2.385   3.906  0.6543  0.1460 -0.9785
 8487SOL    MW433722   0.488   2.444   3.880 -0.1475 -0.1678  0.0537
 8488SOL     OW33723   4.265   1.821   4.234 -0.1103  0.0589  0.1677
 8488SOL    HW233724   4.351   1.863   4.241 -0.3765  0.3977  1.5433
 8488SOL    HW333725   4.281   1.731   4.262  0.2295 -0.5219 -1.7268
 8488SOL    MW433726   4.279   1.814   4.238 -0.1006  0.0270  0.0992
 8489SOL     OW33727   2.427   4.419   2.570 -0.1706  0.0634  0.1247
 8489SOL    HW233728   2.383   4.334   2.577 -0.2288  0.0659 -0.1860
 8489SOL    HW333729   2.356   4.483   2.574 -0.1433  0.0909  0.1743
 8489SOL    MW433730   2.412   4.416   2.571 -0.1747  0.0674  0.0903
 8490SOL     OW33731   2.497   1.643   0.660 -0.1182  0.1164  0.2437
 8490SOL    HW233732   2.440   1.657   0.736 -0.9447 -2.6832  0.2435
 8490SOL    HW333733   2.467   1.560   0.622  2.1973 -0.0613 -1.4103
 8490SOL    MW433734   2.486   1.634   0.665  0.0783 -0.2764  0.0255
 8491SOL     OW33735   3.391   1.161   3.919  0.2849 -0.1740 -0.0753
 8491SOL    HW233736   3.401   1.137   4.011  0.1869  0.2075  0.0369
 8491SOL    HW333737   3.445   1.098   3.872 -0.5957 -1.1179  0.1454
 8491SOL    MW433738   3.400   1.150   3.925  0.1558 -0.2482 -0.0314
 8492SOL     OW33739   6.390   4.534   5.787  0.6110 -0.1626 -0.2443
 8492SOL    HW233740   6.366   4.444   5.810  0.1630 -0.8831 -3.1731
 8492SOL    HW333741   6.482   4.529   5.763  0.5147  0.0857 -0.6777
 8492SOL    MW433742   6.399   4.521   5.787  0.5392 -0.2249 -0.6879
 8493SOL     OW33743   0.944   4.722   0.902 -0.4705  0.1255 -0.1221
 8493SOL    HW233744   0.860   4.677   0.915 -0.2519 -0.5463 -0.9384
 8493SOL    HW333745   0.991   4.707   0.984 -0.6593 -0.5893 -0.1301
 8493SOL    MW433746   0.939   4.714   0.914 -0.4665 -0.0574 -0.2308
 8494SOL     OW33747   0.517   3.304   1.598 -0.1879  0.1835 -1.1755
 8494SOL    HW233748   0.612   3.316   1.607 -0.4087  1.5644 -0.4300
 8494SOL    HW333749   0.494   3.355   1.520 -0.3425 -0.0570 -1.2890
 8494SOL    MW433750   0.527   3.313   1.589 -0.2374  0.3339 -1.0921
 8495SOL     OW33751   0.377   2.902  -0.001 -0.0322 -0.2725  0.7558
 8495SOL    HW233752   0.385   2.819  -0.048 -1.2208 -0.8853  1.5720
 8495SOL    HW333753   0.457   2.909   0.050  1.3652  0.4837 -1.3895
 8495SOL    MW433754   0.388   2.892  -0.000 -0.0047 -0.2536  0.5805
 8496SOL     OW33755   2.672   3.794   2.185  0.1207  0.2167  0.4485
 8496SOL    HW233756   2.651   3.720   2.128 -0.7836  2.1880 -2.0052
 8496SOL    HW333757   2.762   3.778   2.213  0.5563 -0.9877 -1.4310
 8496SOL    MW433758   2.682   3.782   2.181  0.0588  0.3179 -0.1232
 8497SOL     OW33759   5.769   0.668   5.157  0.2954 -0.5425 -0.6065
 8497SOL    HW233760   5.811   0.735   5.212 -0.1428 -1.4084  0.8425
 8497SOL    HW333761   5.783   0.586   5.205 -1.5888 -1.0972 -0.9308
 8497SOL    MW433762   5.777   0.666   5.171 -0.0110 -0.7300 -0.4581
 8498SOL     OW33763   5.864   0.967   3.524 -0.5331 -0.4147 -0.4215
 8498SOL    HW233764   5.802   0.957   3.596 -0.8990 -0.0581 -0.6830
 8498SOL    HW333765   5.829   1.039   3.472 -0.7219 -1.1957 -1.4089
 8498SOL    MW433766   5.852   0.975   3.526 -0.6063 -0.4707 -0.5863
 8499SOL     OW33767   0.485   3.497   3.922 -0.5596  0.1415  0.5697
 8499SOL    HW233768   0.576   3.520   3.905 -0.3320 -0.8303  0.4449
 8499SOL    HW333769   0.450   3.473   3.836 -0.9703  0.6187  0.5967
 8499SOL    MW433770   0.492   3.497   3.908 -0.5838  0.0763  0.5567
 8500SOL     OW33771   5.359   1.218   4.325 -0.3681 -0.1609  0.3890
 8500SOL    HW233772   5.297   1.256   4.262  0.9318  1.0258 -0.2241
 8500SOL    HW333773   5.344   1.268   4.405 -0.6387 -0.3042  0.4278
 8500SOL    MW433774   5.349   1.230   4.327 -0.2323 -0.0233  0.3132
 8501SOL     OW33775   4.826   0.067   5.490 -0.1821  0.2491 -0.2352
 8501SOL    HW233776   4.775   0.015   5.427 -0.8945  0.9608 -0.2476
 8501SOL    HW333777   4.766   0.084   5.562  0.3063  0.3679  0.1503
 8501SOL    MW433778   4.811   0.062   5.491 -0.2116  0.3586 -0.1859
 8502SOL     OW33779   0.204   6.416   0.266  0.5667 -0.2322 -0.1546
 8502SOL    HW233780   0.263   6.350   0.302  1.8168  0.3632 -1.0321
 8502SOL    HW333781   0.230   6.423   0.174 -0.5496  0.4132 -0.4383
 8502SOL    MW433782   0.215   6.409   0.259  0.5844 -0.0685 -0.3078
 8503SOL     OW33783   1.629   2.847  -0.007 -0.1205 -0.0676  0.7443
 8503SOL    HW233784   1.721   2.833  -0.030  0.0822 -2.6193  2.5821
 8503SOL    HW333785   1.632   2.914   0.061  0.5090 -0.6308  1.2962
 8503SOL    MW433786   1.642   2.854  -0.001 -0.0107 -0.4786  1.0596
 8504SOL     OW33787   6.007   4.675   4.714 -0.1441 -0.5252  0.6093
 8504SOL    HW233788   5.973   4.701   4.799 -0.4208 -0.8308  0.5945
 8504SOL    HW333789   5.931   4.680   4.655 -0.5796 -2.6887  0.8810
 8504SOL    MW433790   5.992   4.679   4.717 -0.2380 -0.8510  0.6432
 8505SOL     OW33791   2.428   0.713   6.068  0.2975  0.1430 -0.7259
 8505SOL    HW233792   2.381   0.658   6.005  2.0848 -2.2603 -0.1177
 8505SOL    HW333793   2.521   0.694   6.051  0.9117  1.5924  0.7623
 8505SOL    MW433794   2.434   0.703   6.057  0.6144  0.0171 -0.4493
 8506SOL     OW33795   5.401   5.254   2.836  0.7541 -0.2016 -0.3183
 8506SOL    HW233796   5.475   5.194   2.841  1.8991  0.9185 -2.4301
 8506SOL    HW333797   5.391   5.272   2.742 -2.9702 -1.1959 -0.2897
 8506SOL    MW433798   5.409   5.248   2.824  0.4138 -0.1850 -0.5932
 8507SOL     OW33799   1.396   5.681   2.587 -0.5922 -0.4429  0.1913
 8507SOL    HW233800   1.333   5.677   2.659 -0.3073 -0.6437  0.4326
 8507SOL    HW333801   1.400   5.773   2.563 -1.0441 -0.4414  0.1181
 8507SOL    MW433802   1.388   5.692   2.593 -0.6142 -0.4692  0.2135
 8508SOL     OW33803   0.514   5.515   2.676  0.2453 -0.2939  0.9974
 8508SOL    HW233804   0.549   5.443   2.623 -1.3634  0.2165 -0.9005
 8508SOL    HW333805   0.499   5.477   2.762 -1.0738 -2.4067 -0.0881
 8508SOL    MW433806   0.517   5.500   2.680 -0.1409 -0.5053  0.6038
 8509SOL     OW33807   4.855   6.121   0.367 -0.1153 -0.3607 -0.2354
 8509SOL    HW233808   4.923   6.134   0.433 -0.4169  1.0765 -0.1716
 8509SOL    HW333809   4.896   6.064   0.302  0.6865 -0.6146  0.4683
 8509SOL    MW433810   4.870   6.116   0.367 -0.0493 -0.2046 -0.1341
 8510SOL     OW33811   3.082   1.701   0.634  0.4289  0.1696  0.4620
 8510SOL    HW233812   3.089   1.667   0.723  1.9363 -0.9995 -0.0698
 8510SOL    HW333813   3.168   1.739   0.616 -0.9264  3.7837  0.7509
 8510SOL    MW433814   3.094   1.702   0.644  0.4489  0.4922  0.4300
 8511SOL     OW33815   4.322   0.135   4.915 -0.5773  0.3716  0.6215
 8511SOL    HW233816   4.313   0.117   5.008 -1.6825  1.3414  0.7258
 8511SOL    HW333817   4.284   0.059   4.872  0.1029 -0.1622  0.9463
 8511SOL    MW433818   4.316   0.123   4.921 -0.6333  0.4292  0.6781
 8512SOL     OW33819   5.431   2.468   5.186 -0.2303 -0.4372  0.2635
 8512SOL    HW233820   5.407   2.403   5.252 -1.9399 -0.9856 -0.8311
 8512SOL    HW333821   5.411   2.552   5.226 -0.0039 -0.6803  0.9060
 8512SOL    MW433822   5.425   2.470   5.200 -0.4260 -0.5416  0.2039
 8513SOL     OW33823   0.734   4.402   4.343 -0.7169  0.0622  0.0166
 8513SOL    HW233824   0.696   4.363   4.264 -0.0255 -1.0389  0.2046
 8513SOL    HW333825   0.819   4.435   4.314  0.4785 -2.1982  0.6803
 8513SOL    MW433826   0.740   4.401   4.329 -0.4680 -0.3813  0.1290
 8514SOL     OW33827   0.041   6.323   0.851  0.0924  0.0467  0.4557
 8514SOL    HW233828   0.054   6.413   0.880  1.1022 -0.2668  1.0085
 8514SOL    HW333829  -0.012   6.283   0.920 -0.4683  0.2461  0.1457
 8514SOL    MW433830   0.036   6.329   0.864  0.1517  0.0316  0.4877
 8515SOL     OW33831   2.211   2.276   6.052  0.3133 -0.1638  0.5387
 8515SOL    HW233832   2.168   2.191   6.055 -0.2040  0.0517 -0.5716
 8515SOL    HW333833   2.305   2.255   6.048  0.3297 -0.6335  2.4782
 8515SOL    MW433834   2.218   2.262   6.052  0.2472 -0.1974  0.6481
 8516SOL     OW33835   5.184   2.498   3.115  0.3874  0.1003 -0.1249
 8516SOL    HW233836   5.276   2.506   3.139  0.3507 -1.6327  0.7746
 8516SOL    HW333837   5.180   2.520   3.022  1.8929 -0.9056 -0.4483
 8516SOL    MW433838   5.196   2.502   3.106  0.5812 -0.2611 -0.0489
 8517SOL     OW33839   0.596   1.937   2.953 -0.3282 -0.3558  0.6822
 8517SOL    HW233840   0.551   1.926   2.869 -0.8045 -0.5019  0.9571
 8517SOL    HW333841   0.658   2.009   2.938 -1.6372  0.8164  0.7136
 8517SOL    MW433842   0.598   1.945   2.940 -0.5638 -0.2204  0.7226
 8518SOL     OW33843   6.278   5.855   2.497  0.1072 -0.2657 -0.6272
 8518SOL    HW233844   6.248   5.791   2.562 -1.2648  1.7330  0.8273
 8518SOL    HW333845   6.357   5.894   2.535 -0.9453  1.2237  0.1469
 8518SOL    MW433846   6.284   5.852   2.510 -0.2127  0.1945 -0.3332
 8519SOL     OW33847   6.090   5.644   2.607  0.2164  1.0637  0.7060
 8519SOL    HW233848   6.080   5.663   2.700 -0.7298 -0.3315  0.9247
 8519SOL    HW333849   6.062   5.553   2.598 -1.1651  1.5993 -1.1791
 8519SOL    MW433850   6.085   5.635   2.618 -0.0907  0.9503  0.4861
 8520SOL     OW33851   1.920   5.365   1.444 -0.1624 -0.4991 -0.9784
 8520SOL    HW233852   1.958   5.437   1.493 -0.5258 -2.0209  1.7027
 8520SOL    HW333853   1.832   5.395   1.421 -0.4977 -0.2333  0.5546
 8520SOL    MW433854   1.914   5.378   1.447 -0.2545 -0.6648 -0.4224
 8521SOL     OW33855   2.510   1.031   0.635 -0.6472  0.3842  0.0021
 8521SOL    HW233856   2.593   0.999   0.600  0.6130  2.5594  0.8627
 8521SOL    HW333857   2.460   1.057   0.557 -1.7979 -3.4211 -0.7786
 8521SOL    MW433858   2.514   1.030   0.620 -0.6327  0.1692  0.0126
 8522SOL     OW33859   4.533   1.749   3.165  0.4646 -0.0888  0.2019
 8522SOL    HW233860   4.474   1.686   3.205  0.5935 -0.6190 -0.4309
 8522SOL    HW333861   4.588   1.697   3.107  0.0935  0.6879 -0.8759
 8522SOL    MW433862   4.533   1.734   3.162  0.4326 -0.0563 -0.0238
 8523SOL     OW33863   4.752   1.885   4.832 -0.1588 -0.0835  0.7247
 8523SOL    HW233864   4.667   1.914   4.800 -0.4842 -1.4276  0.2568
 8523SOL    HW333865   4.815   1.943   4.789 -0.7795  0.1067  0.0467
 8523SOL    MW433866   4.749   1.896   4.822 -0.2836 -0.2358  0.5735
 8524SOL     OW33867   3.204   6.403   1.001 -0.3880  0.2582  0.5645
 8524SOL    HW233868   3.291   6.376   1.030 -0.1446  2.1552  1.7169
 8524SOL    HW333869   3.221   6.465   0.930 -0.7098  1.7889  1.7845
 8524SOL    MW433870   3.218   6.407   0.995 -0.3983  0.7104  0.8775
 8525SOL     OW33871   0.100   2.946   4.670  0.5145 -0.5924 -0.0472
 8525SOL    HW233872   0.182   2.988   4.643 -0.8536  1.1093 -1.9461
 8525SOL    HW333873   0.117   2.914   4.758  2.4770  1.8279  0.5687
 8525SOL    MW433874   0.113   2.947   4.678  0.5929 -0.0485 -0.2165
 8526SOL     OW33875   6.097   3.071   2.743 -0.0394  0.4232  0.0605
 8526SOL    HW233876   6.192   3.058   2.739 -0.3535 -2.0282 -1.7949
 8526SOL    HW333877   6.074   3.107   2.658 -0.9109 -0.0823  0.0752
 8526SOL    MW433878   6.107   3.074   2.732 -0.1958  0.0331 -0.1823
 8527SOL     OW33879   4.253   1.172   0.687  0.6309  0.4116  0.5190
 8527SOL    HW233880   4.211   1.117   0.753  0.3047 -1.6414 -1.2936
 8527SOL    HW333881   4.314   1.114   0.641  1.2362  1.8883 -0.6493
 8527SOL    MW433882   4.255   1.157   0.690  0.6677  0.3356  0.1257
 8528SOL     OW33883   0.021   3.332   5.537  0.2071 -0.3595 -0.2645
 8528SOL    HW233884  -0.049   3.334   5.471 -2.3603 -1.1706  2.2182
 8528SOL    HW333885  -0.016   3.377   5.613  1.0938 -3.4375  2.2368
 8528SOL    MW433886   0.007   3.338   5.538 -0.0146 -0.8726  0.3931
 8529SOL     OW33887   2.759   3.013   0.984 -0.6270 -0.3090  0.0837
 8529SOL    HW233888   2.709   2.937   1.012  1.0767 -1.3311  0.5171
 8529SOL    HW333889   2.849   2.981   0.975  0.0077  1.4760 -0.4794
 8529SOL    MW433890   2.764   2.999   0.987 -0.3185 -0.2083  0.0666
 8530SOL     OW33891   0.344   6.221   1.883 -0.2119  0.1195  0.2036
 8530SOL    HW233892   0.343   6.215   1.787  0.2785 -1.4718  0.2812
 8530SOL    HW333893   0.376   6.310   1.900 -1.4803  0.8915 -1.0944
 8530SOL    MW433894   0.348   6.232   1.872 -0.3145  0.0114  0.0425
 8531SOL     OW33895   4.424   5.459   0.608  0.2667 -0.1552  0.0730
 8531SOL    HW233896   4.409   5.429   0.697  1.9379 -1.4139 -0.0245
 8531SOL    HW333897   4.457   5.548   0.618 -0.8768  0.2394  0.5929
 8531SOL    MW433898   4.426   5.467   0.621  0.3363 -0.2692  0.1287
 8532SOL     OW33899   4.572   0.064   5.969 -0.0791  0.3889  0.2474
 8532SOL    HW233900   4.547  -0.008   6.027  1.1173 -0.2130  0.0496
 8532SOL    HW333901   4.626   0.121   6.024  0.1160  0.4081  0.0373
 8532SOL    MW433902   4.576   0.062   5.984  0.1045  0.3120  0.1936
 8533SOL     OW33903   0.074   4.610   2.094  0.3372  0.2408 -0.4539
 8533SOL    HW233904   0.064   4.515   2.083  0.9521  0.1284 -0.0848
 8533SOL    HW333905   0.086   4.622   2.188 -1.2456  0.8433 -0.2983
 8533SOL    MW433906   0.074   4.599   2.105  0.2095  0.3055 -0.3847
 8534SOL     OW33907   1.086   2.187   5.511  0.0720 -0.3304 -0.3476
 8534SOL    HW233908   1.127   2.272   5.494  2.6850 -1.4806 -0.2274
 8534SOL    HW333909   1.025   2.175   5.438  1.2370  0.7295 -1.5407
 8534SOL    MW433910   1.083   2.196   5.499  0.5705 -0.3423 -0.4891
 8535SOL     OW33911   2.865   1.103   1.429 -0.3089  0.1565 -0.8406
 8535SOL    HW233912   2.881   1.197   1.417 -1.8689  0.4077 -1.1756
 8535SOL    HW333913   2.907   1.062   1.354  1.9678  0.3673  0.2237
 8535SOL    MW433914   2.873   1.110   1.418 -0.2143  0.2174 -0.7444
 8536SOL     OW33915   5.634   2.219   2.799 -0.0472 -0.1349  0.0369
 8536SOL    HW233916   5.649   2.290   2.861  0.3602 -0.7216  0.6210
 8536SOL    HW333917   5.652   2.257   2.713 -1.6741  0.9922  0.1639
 8536SOL    MW433918   5.638   2.233   2.796 -0.2081 -0.0636  0.1307
 8537SOL     OW33919   2.864   1.042   5.108  0.2262  0.1949  0.0570
 8537SOL    HW233920   2.769   1.044   5.095  0.0896  0.1974  0.9639
 8537SOL    HW333921   2.875   1.045   5.203  1.1351  0.0957 -0.0358
 8537SOL    MW433922   2.853   1.042   5.119  0.3281  0.1821  0.1644
 8538SOL     OW33923   0.375   2.670   2.590  0.1585  0.5467 -0.0988
 8538SOL    HW233924   0.317   2.600   2.621  2.1881 -1.3865 -0.3971
 8538SOL    HW333925   0.318   2.728   2.541 -1.5542 -1.2455 -0.3786
 8538SOL    MW433926   0.360   2.668   2.587  0.2003  0.0552 -0.1751
 8539SOL     OW33927   1.157   1.188   2.107 -0.1208 -0.3933 -0.0936
 8539SOL    HW233928   1.103   1.138   2.169 -1.3693  1.3011  0.2540
 8539SOL    HW333929   1.095   1.218   2.040  0.8728 -0.5325 -1.1088
 8539SOL    MW433930   1.141   1.185   2.106 -0.1544 -0.1881 -0.1817
 8540SOL     OW33931   4.075   1.336   6.221  0.2484 -0.2565  0.5919
 8540SOL    HW233932   4.149   1.394   6.202  0.2399 -0.5619 -0.4300
 8540SOL    HW333933   4.003   1.370   6.169 -0.1917 -0.2778  1.1735
 8540SOL    MW433934   4.075   1.348   6.212  0.1892 -0.2996  0.5338
 8541SOL     OW33935   0.680   3.135   0.482  0.2009  0.0830  0.4418
 8541SOL    HW233936   0.603   3.126   0.425  0.3222  1.2731  0.0521
 8541SOL    HW333937   0.726   3.052   0.474 -1.0508 -0.6498  0.6869
 8541SOL    MW433938   0.676   3.123   0.473  0.0518  0.1433  0.4227
 8542SOL     OW33939   3.035   5.212   6.256 -0.1983 -0.1253  1.0770
 8542SOL    HW233940   2.977   5.265   6.312 -2.2893 -2.4912  1.3263
 8542SOL    HW333941   3.017   5.122   6.282  0.1076 -1.2365 -2.1448
 8542SOL    MW433942   3.025   5.207   6.267 -0.4338 -0.5841  0.6848
 8543SOL     OW33943   5.354   2.260   5.371  0.0831  0.5893  0.3622
 8543SOL    HW233944   5.273   2.299   5.402  0.7047  2.5704 -0.3502
 8543SOL    HW333945   5.326   2.191   5.310 -1.0777  1.4560 -0.1331
 8543SOL    MW433946   5.340   2.256   5.367  0.0120  0.9650  0.2029
 8544SOL     OW33947   1.026   5.844   2.439  0.2222  0.6910 -0.2144
 8544SOL    HW233948   0.983   5.758   2.439  1.5453 -0.0162  1.1416
 8544SOL    HW333949   1.046   5.861   2.531 -0.4204  2.7003 -0.3961
 8544SOL    MW433950   1.023   5.835   2.451  0.3120  0.8628 -0.0594
 8545SOL     OW33951   3.690   5.059   3.091  0.3434 -0.0103 -0.1207
 8545SOL    HW233952   3.772   5.030   3.131  0.6728  0.9464 -0.0857
 8545SOL    HW333953   3.625   5.055   3.162  0.9873  1.9785  0.6381
 8545SOL    MW433954   3.692   5.054   3.106  0.4718  0.3783 -0.0160
 8546SOL     OW33955   2.421   4.700   3.253 -0.3185  0.3919  0.1069
 8546SOL    HW233956   2.352   4.752   3.212  0.2085  0.0527 -1.2709
 8546SOL    HW333957   2.395   4.609   3.237  0.4746  0.2634 -0.5092
 8546SOL    MW433958   2.409   4.695   3.245 -0.1443  0.3302 -0.1561
 8547SOL     OW33959   1.330   1.508   0.803 -0.6458 -0.5015  0.3495
 8547SOL    HW233960   1.303   1.418   0.786  1.3252 -1.0265 -0.3259
 8547SOL    HW333961   1.388   1.529   0.729  0.2660  0.7028  1.3746
 8547SOL    MW433962   1.334   1.499   0.791 -0.2655 -0.4119  0.3956
 8548SOL     OW33963   5.487   4.944   2.600  0.0129 -0.0138  0.2491
 8548SOL    HW233964   5.485   5.024   2.547  1.4629  0.5156  0.9375
 8548SOL    HW333965   5.419   4.957   2.666  0.6435  0.9574  0.7383
 8548SOL    MW433966   5.478   4.956   2.602  0.2874  0.1842  0.4045
 8549SOL     OW33967   2.888   5.822   2.640  0.9291  0.1456 -0.6312
 8549SOL    HW233968   2.794   5.810   2.623  0.1039 -0.6032  3.3003
 8549SOL    HW333969   2.931   5.752   2.592 -0.6820 -0.3633 -1.3974
 8549SOL    MW433970   2.881   5.811   2.632  0.6076 -0.0203 -0.2136
 8550SOL     OW33971   3.317   0.039   2.261  0.1077 -0.2332 -0.2900
 8550SOL    HW233972   3.335   0.124   2.300  2.2857 -0.6887 -0.1989
 8550SOL    HW333973   3.229   0.017   2.291  0.0198  1.3907  0.7414
 8550SOL    MW433974   3.307   0.047   2.270  0.3835 -0.0790 -0.1419
 8551SOL     OW33975   2.134   2.188   3.884  0.3119  0.1209  0.3851
 8551SOL    HW233976   2.131   2.100   3.847  0.1319 -0.1150  0.9516
 8551SOL    HW333977   2.221   2.194   3.923  0.6773  0.5384 -0.4763
 8551SOL    MW433978   2.145   2.177   3.885  0.3364  0.1449  0.3462
 8552SOL     OW33979   0.057   4.419   4.126  0.0694 -0.7148  0.3971
 8552SOL    HW233980   0.063   4.344   4.185  1.3568 -1.3365 -0.4951
 8552SOL    HW333981   0.147   4.450   4.117 -0.4262  0.9320  0.7143
 8552SOL    MW433982   0.070   4.413   4.133  0.1739 -0.5796  0.3212
 8553SOL     OW33983   3.252   1.483   5.484 -0.6814 -0.4408 -0.1862
 8553SOL    HW233984   3.336   1.514   5.450 -0.9306 -1.0302 -1.3900
 8553SOL    HW333985   3.273   1.440   5.566  0.2073 -0.6475 -0.5175
 8553SOL    MW433986   3.266   1.482   5.490 -0.5970 -0.5458 -0.3888
 8554SOL     OW33987   4.258   5.662   5.440 -0.3419  0.1847  0.1213
 8554SOL    HW233988   4.240   5.579   5.484 -2.0861  0.2284 -0.4337
 8554SOL    HW333989   4.253   5.728   5.509  1.7938 -0.1856  0.7092
 8554SOL    MW433990   4.255   5.660   5.455 -0.2902  0.1416  0.1256
 8555SOL     OW33991   4.513   6.174   5.296 -0.0398 -0.0649  0.1969
 8555SOL    HW233992   4.519   6.126   5.379  0.2231  1.7491  1.2806
 8555SOL    HW333993   4.429   6.219   5.300 -1.6094 -2.5036 -2.0511
 8555SOL    MW433994   4.503   6.174   5.308 -0.2122 -0.1473  0.0433
 8556SOL     OW33995   3.464   3.689   1.406 -0.3283 -0.0500 -0.1832
 8556SOL    HW233996   3.491   3.607   1.447 -1.8806 -0.5155 -0.0606
 8556SOL    HW333997   3.445   3.748   1.479  0.9544  0.5053 -0.2694
 8556SOL    MW433998   3.465   3.686   1.421 -0.3638 -0.0381 -0.1784
 8557SOL     OW33999   2.284   4.760   2.350  0.5993 -0.3095 -0.1311
 8557SOL    HW234000   2.254   4.851   2.341  0.6392 -0.4940 -3.1039
 8557SOL    HW334001   2.378   4.765   2.335  0.6077 -0.8387 -0.2714
 8557SOL    MW434002   2.292   4.773   2.347  0.6057 -0.4037 -0.5418
 8558SOL     OW34003   3.131   0.704   5.733  0.0683  0.0727  0.5136
 8558SOL    HW234004   3.220   0.736   5.719 -0.0474  0.7126  1.1943
 8558SOL    HW334005   3.121   0.633   5.669  0.4022  1.2411 -0.8821
 8558SOL    MW434006   3.142   0.698   5.722  0.0971  0.3113  0.4193
 8559SOL     OW34007   2.209   6.015   5.349  0.2530 -0.6609  0.2060
 8559SOL    HW234008   2.287   6.054   5.389  0.8009 -2.2511  0.7673
 8559SOL    HW334009   2.193   5.936   5.400 -1.2724 -0.7833 -0.4047
 8559SOL    MW434010   2.217   6.010   5.361  0.1240 -0.8868  0.1995
 8560SOL     OW34011   2.911   1.914   5.278 -0.4317  0.0938 -0.6492
 8560SOL    HW234012   2.894   1.829   5.238  1.1908 -0.8453  0.5481
 8560SOL    HW334013   2.895   1.978   5.208  0.8102 -1.3568 -2.3440
 8560SOL    MW434014   2.906   1.912   5.264 -0.0538 -0.2215 -0.7148
 8561SOL     OW34015   1.586   5.139   2.084  0.6097  0.2239  0.1982
 8561SOL    HW234016   1.663   5.195   2.092  0.4517  0.5457 -0.4247
 8561SOL    HW334017   1.594   5.076   2.155  1.3789  0.3364  0.2178
 8561SOL    MW434018   1.597   5.138   2.094  0.6903  0.2812  0.1186
 8562SOL     OW34019   2.631   1.273   5.726 -0.0995 -0.5821 -0.1365
 8562SOL    HW234020   2.637   1.308   5.815 -0.0839  0.6108 -0.5808
 8562SOL    HW334021   2.538   1.254   5.714 -0.0457 -1.1167  0.2618
 8562SOL    MW434022   2.619   1.275   5.736 -0.0904 -0.4953 -0.1426
 8563SOL     OW34023   5.406   0.461   2.084  0.3892  0.0077 -0.5997
 8563SOL    HW234024   5.400   0.555   2.101  0.4273  0.2349 -1.7652
 8563SOL    HW334025   5.328   0.424   2.126 -0.8457  0.8649 -2.0517
 8563SOL    MW434026   5.395   0.469   2.092  0.2313  0.1508 -0.9450
 8564SOL     OW34027   2.689   1.024   3.972 -0.6208 -0.3020  0.2577
 8564SOL    HW234028   2.727   1.055   4.053  0.8410  1.8109 -1.1383
 8564SOL    HW334029   2.739   0.945   3.950  1.2985  0.9713 -0.2098
 8564SOL    MW434030   2.700   1.018   3.979 -0.1747  0.1448  0.0118
 8565SOL     OW34031   5.842   1.741   6.249 -0.4092  0.1431 -0.3876
 8565SOL    HW234032   5.761   1.787   6.225 -0.0913  1.2471  0.5497
 8565SOL    HW334033   5.897   1.747   6.172 -0.9425  0.0418 -0.7794
 8565SOL    MW434034   5.838   1.748   6.236 -0.4376  0.2754 -0.3156
 8566SOL     OW34035   5.832   2.205   1.477 -0.0035 -0.3990  0.0559
 8566SOL    HW234036   5.911   2.253   1.502 -0.5748  0.8260 -0.4482
 8566SOL    HW334037   5.862   2.140   1.413  0.5984  0.0490 -0.1216
 8566SOL    MW434038   5.846   2.203   1.472  0.0006 -0.1782 -0.0340
 8567SOL     OW34039   6.287   5.917   3.796 -0.0987  0.8361 -0.2647
 8567SOL    HW234040   6.346   5.966   3.740  0.5036  0.8692  0.3943
 8567SOL    HW334041   6.255   5.846   3.740  1.3768  0.1885 -0.3431
 8567SOL    MW434042   6.290   5.914   3.781  0.1755  0.7550 -0.1881
 8568SOL     OW34043   1.757   0.190   0.178 -0.0877  0.5585  0.2188
 8568SOL    HW234044   1.784   0.246   0.251  1.9405  0.3441 -0.3064
 8568SOL    HW334045   1.835   0.139   0.156 -0.9430 -0.1383 -1.4226
 8568SOL    MW434046   1.771   0.191   0.184  0.0670  0.4383 -0.0670
 8569SOL     OW34047   2.154   0.328   6.157  0.3575  0.8710  0.0136
 8569SOL    HW234048   2.083   0.386   6.184  0.9799  1.4649  0.3987
 8569SOL    HW334049   2.113   0.265   6.098 -0.5082  1.1438  0.3149
 8569SOL    MW434050   2.139   0.327   6.153  0.3254  0.9853  0.1042
 8570SOL     OW34051   0.943   0.548   0.991 -0.1571 -0.2428  0.2170
 8570SOL    HW234052   0.938   0.583   1.080  0.1305 -0.4345  0.3115
 8570SOL    HW334053   0.932   0.454   1.002  0.1215 -0.2916  0.0731
 8570SOL    MW434054   0.941   0.540   1.004 -0.0824 -0.2745  0.2105
 8571SOL     OW34055   1.478   3.920   4.010 -0.1189 -0.1370  0.4179
 8571SOL    HW234056   1.429   3.842   3.984  1.5720 -0.4900 -2.0662
 8571SOL    HW334057   1.551   3.885   4.062  0.9291 -0.3321 -1.1261
 8571SOL    MW434058   1.481   3.905   4.013  0.2425 -0.2093 -0.1136
 8572SOL     OW34059   3.180   3.185   0.415  0.3604 -0.4860 -0.0255
 8572SOL    HW234060   3.094   3.197   0.455  0.5402  0.3536  0.1256
 8572SOL    HW334061   3.176   3.235   0.333  0.5189 -0.8989 -0.2879
 8572SOL    MW434062   3.168   3.193   0.409  0.4050 -0.4297 -0.0402
 8573SOL     OW34063   5.543   4.800   2.128  0.3784  0.1124 -0.2019
 8573SOL    HW234064   5.628   4.836   2.151 -0.1054  1.2752 -0.1615
 8573SOL    HW334065   5.544   4.711   2.164  2.0535 -0.3663 -1.3507
 8573SOL    MW434066   5.554   4.793   2.136  0.5356  0.2026 -0.3481
 8574SOL     OW34067   3.972   4.124   1.819 -0.3181 -0.6695 -0.2326
 8574SOL    HW234068   3.968   4.178   1.897  0.6016 -1.1196  0.1351
 8574SOL    HW334069   3.942   4.182   1.748  1.0731  0.4802  0.0746
 8574SOL    MW434070   3.967   4.138   1.820 -0.0132 -0.5772 -0.1435
 8575SOL     OW34071   3.405   5.698   3.082 -0.0632  0.3703  0.3788
 8575SOL    HW234072   3.357   5.735   3.156 -0.9063 -2.5383  1.3895
 8575SOL    HW334073   3.340   5.690   3.012 -0.2662 -0.5346  0.6610
 8575SOL    MW434074   3.390   5.702   3.083 -0.2012 -0.1328  0.5494
 8576SOL     OW34075   2.977   3.637   4.960 -0.6429 -0.5571  0.2950
 8576SOL    HW234076   3.013   3.698   5.025 -0.3911 -1.0579  0.6402
 8576SOL    HW334077   2.997   3.550   4.996  1.2680 -0.8959 -1.3879
 8576SOL    MW434078   2.985   3.634   4.974 -0.3575 -0.6678  0.1185
 8577SOL     OW34079   0.696   2.448   1.305 -0.3404  0.2519 -0.1287
 8577SOL    HW234080   0.672   2.359   1.333 -0.2501  0.6924  1.4454
 8577SOL    HW334081   0.675   2.450   1.212 -2.0999 -0.8426  0.1901
 8577SOL    MW434082   0.690   2.436   1.297 -0.5606  0.1656  0.1210
 8578SOL     OW34083   5.250   3.648   2.442  0.2634 -0.7678 -0.0662
 8578SOL    HW234084   5.154   3.646   2.435  0.2459 -0.7651  0.1801
 8578SOL    HW334085   5.272   3.572   2.496  0.4518 -1.1763 -0.7081
 8578SOL    MW434086   5.240   3.637   2.448  0.2860 -0.8214 -0.1184
 8579SOL     OW34087   5.199   4.868   4.624  0.3005  0.2391  0.3342
 8579SOL    HW234088   5.223   4.929   4.554 -0.1986  0.6787  0.5393
 8579SOL    HW334089   5.269   4.803   4.624  0.0926  0.0059 -0.8464
 8579SOL    MW434090   5.212   4.868   4.615  0.2072  0.2663  0.2055
 8580SOL     OW34091   1.013   5.654   6.327 -0.0345 -0.0396 -0.0213
 8580SOL    HW234092   0.922   5.633   6.307  0.7509 -3.1993 -0.7648
 8580SOL    HW334093   1.030   5.611   6.411  0.8175  0.3570  0.0204
 8580SOL    MW434094   1.003   5.646   6.335  0.1815 -0.4042 -0.1139
 8581SOL     OW34095   5.340   4.589   6.290 -0.3188 -0.0159 -0.4019
 8581SOL    HW234096   5.349   4.653   6.220  2.3802 -0.0465 -0.2077
 8581SOL    HW334097   5.332   4.504   6.246  0.0989  0.0877 -0.6753
 8581SOL    MW434098   5.340   4.586   6.275  0.0924 -0.0063 -0.4123
 8582SOL     OW34099   6.122   3.784   1.490 -0.3739  0.3642  0.2089
 8582SOL    HW234100   6.208   3.763   1.453  0.2724 -0.3320  1.9849
 8582SOL    HW334101   6.060   3.760   1.421  0.6320 -2.8831  0.2457
 8582SOL    MW434102   6.125   3.778   1.476 -0.1559 -0.1561  0.4481
 8583SOL     OW34103   1.548   5.265   2.928 -0.0945 -0.2792 -0.2403
 8583SOL    HW234104   1.481   5.306   2.873 -0.7926 -0.4162  0.4923
 8583SOL    HW334105   1.617   5.331   2.934 -1.3248  0.9452  1.1408
 8583SOL    MW434106   1.548   5.279   2.921 -0.3490 -0.1357  0.0386
 8584SOL     OW34107   1.006   2.155   1.507 -0.4216  0.1927  0.0523
 8584SOL    HW234108   1.079   2.096   1.526 -0.9865 -1.2013 -1.8641
 8584SOL    HW334109   0.928   2.101   1.518 -1.0144  0.8847 -0.6861
 8584SOL    MW434110   1.005   2.140   1.511 -0.5743  0.1001 -0.2980
 8585SOL     OW34111   0.480   5.407   4.616  0.7029 -0.1681 -0.5020
 8585SOL    HW234112   0.484   5.358   4.534  0.3984  0.5377 -0.9546
 8585SOL    HW334113   0.526   5.489   4.597 -0.6740  0.6555 -0.4721
 8585SOL    MW434114   0.486   5.411   4.603  0.4811  0.0337 -0.5577
 8586SOL     OW34115   0.414   0.865   2.038 -0.9449  0.2353 -0.3330
 8586SOL    HW234116   0.337   0.840   1.987 -0.4379  3.4551 -3.0515
 8586SOL    HW334117   0.395   0.955   2.067  0.7420  0.1504  1.1992
 8586SOL    MW434118   0.401   0.874   2.036 -0.6554  0.6489 -0.4896
 8587SOL     OW34119   4.506   4.225   6.230 -0.0338 -0.0456 -0.1463
 8587SOL    HW234120   4.531   4.313   6.201 -0.2839 -0.2900 -1.1378
 8587SOL    HW334121   4.558   4.166   6.176 -0.9111 -0.5184 -0.4971
 8587SOL    MW434122   4.516   4.229   6.219 -0.1826 -0.1403 -0.3234
 8588SOL     OW34123   6.409   0.002   2.657  0.0709 -0.1138 -0.0423
 8588SOL    HW234124   6.317   0.025   2.649  0.3618  0.8058 -1.0139
 8588SOL    HW334125   6.414  -0.089   2.626 -0.4861 -0.1221 -0.1197
 8588SOL    MW434126   6.398  -0.007   2.652  0.0358  0.0064 -0.1807
 8589SOL     OW34127   3.929   5.475   4.401 -0.0652 -0.0969 -0.7505
 8589SOL    HW234128   3.948   5.411   4.332 -1.2472  0.2210 -1.3927
 8589SOL    HW334129   3.839   5.501   4.385 -0.0268  0.7469  0.3195
 8589SOL    MW434130   3.920   5.470   4.390 -0.2160  0.0564 -0.6940
 8590SOL     OW34131   3.907   5.493   3.688 -0.1443  0.6476 -0.3374
 8590SOL    HW234132   3.942   5.574   3.724  1.1848  0.5556 -1.3491
 8590SOL    HW334133   3.911   5.431   3.761  2.0323  0.6010 -0.4475
 8590SOL    MW434134   3.912   5.495   3.703  0.3182  0.6293 -0.4854
 8591SOL     OW34135   3.465   3.073   0.987  0.1859 -0.2999 -0.9201
 8591SOL    HW234136   3.438   3.164   0.994 -0.7994 -0.6733  0.6824
 8591SOL    HW334137   3.516   3.057   1.067 -0.3290 -1.3486 -0.7867
 8591SOL    MW434138   3.468   3.083   0.999 -0.0120 -0.4875 -0.6910
 8592SOL     OW34139   1.213   4.817   4.688 -0.0799 -0.4882 -0.1395
 8592SOL    HW234140   1.256   4.889   4.733 -1.9775  0.6239  0.0017
 8592SOL    HW334141   1.215   4.841   4.596  0.2127 -0.7730 -0.2091
 8592SOL    MW434142   1.219   4.829   4.682 -0.2917 -0.3790 -0.1300
 8593SOL     OW34143   0.045   0.735   0.749 -1.0289 -0.7247  0.1561
 8593SOL    HW234144  -0.029   0.773   0.796 -0.8513 -0.2337  0.0461
 8593SOL    HW334145   0.007   0.665   0.697 -1.3653 -0.6960  0.3602
 8593SOL    MW434146   0.031   0.731   0.748 -1.0498 -0.6562  0.1685
 8594SOL     OW34147   1.658   5.969   3.351  0.0640  0.0747  0.0063
 8594SOL    HW234148   1.590   5.934   3.409  0.2826 -0.8878 -0.3095
 8594SOL    HW334149   1.639   5.930   3.266  1.4956 -0.8665  0.0939
 8594SOL    MW434150   1.646   5.960   3.347  0.2817 -0.1764 -0.0238
 8595SOL     OW34151   5.550   2.937   2.972  0.2272 -0.3727  0.2596
 8595SOL    HW234152   5.518   3.026   2.984  0.4239 -0.1014 -1.1212
 8595SOL    HW334153   5.473   2.886   2.947  0.4657 -0.1589 -0.9557
 8595SOL    MW434154   5.536   2.942   2.971  0.2847 -0.3087 -0.0829
 8596SOL     OW34155   4.065   4.996   3.686 -0.3014  1.0910 -0.6697
 8596SOL    HW234156   4.126   5.000   3.759 -1.3506  1.5206  0.2001
 8596SOL    HW334157   4.064   4.903   3.660 -0.7792  0.7232  0.6151
 8596SOL    MW434158   4.073   4.984   3.692 -0.5028  1.0992 -0.3855
 8597SOL     OW34159   4.383   3.169   1.014 -0.1693  0.5735 -0.1994
 8597SOL    HW234160   4.404   3.110   1.086  1.6919  1.7343  0.2977
 8597SOL    HW334161   4.370   3.254   1.055  0.1927  1.1084 -1.1546
 8597SOL    MW434162   4.384   3.172   1.029  0.1241  0.7972 -0.2598
 8598SOL     OW34163   1.623   3.732   0.119  0.1123  0.4827  0.0103
 8598SOL    HW234164   1.611   3.658   0.179  1.8973 -1.0243 -1.3672
 8598SOL    HW334165   1.561   3.716   0.048 -1.3356  1.7662  0.9226
 8598SOL    MW434166   1.613   3.720   0.118  0.1568  0.4532 -0.0511
 8599SOL     OW34167   2.813   5.434   4.472  0.4754  0.4411 -0.3211
 8599SOL    HW234168   2.863   5.464   4.396  0.8306  1.6975  0.3849
 8599SOL    HW334169   2.867   5.363   4.509  0.8706  0.6084 -0.5702
 8599SOL    MW434170   2.827   5.428   4.467  0.5744  0.6290 -0.2609
 8600SOL     OW34171   5.126   5.516   2.748  0.4410 -0.6434  1.0796
 8600SOL    HW234172   5.096   5.431   2.780  1.2880 -1.5879 -0.4987
 8600SOL    HW334173   5.214   5.525   2.784  0.1938 -0.2329  1.5853
 8600SOL    MW434174   5.134   5.506   2.757  0.5202 -0.7139  0.9381
 8601SOL     OW34175   4.335   2.015   3.992 -0.1879 -0.7610 -0.0302
 8601SOL    HW234176   4.330   2.077   4.064 -1.1278  1.7579 -2.0847
 8601SOL    HW334177   4.372   1.935   4.030  2.8162  1.5762  2.4246
 8601SOL    MW434178   4.339   2.012   4.006  0.0844 -0.1203  0.0226
 8602SOL     OW34179   1.925   2.202   1.883 -0.4769 -0.5821 -0.0842
 8602SOL    HW234180   1.888   2.127   1.837  0.5943 -1.4420  0.4084
 8602SOL    HW334181   2.020   2.190   1.876 -0.2656  1.3217 -0.9241
 8602SOL    MW434182   1.933   2.190   1.876 -0.3077 -0.4444 -0.1300
 8603SOL     OW34183   6.411   1.032   3.822 -0.6252  0.1824  0.5063
 8603SOL    HW234184   6.421   0.968   3.893 -0.6451  0.0223  0.3669
 8603SOL    HW334185   6.339   1.088   3.849 -3.4740 -2.3471 -1.1921
 8603SOL    MW434186   6.403   1.031   3.835 -1.0037 -0.1725  0.2638
 8604SOL     OW34187   2.189   0.540   3.620 -0.2322 -0.0271 -0.0243
 8604SOL    HW234188   2.112   0.591   3.648 -0.6677 -1.6575  2.0312
 8604SOL    HW334189   2.159   0.492   3.544 -0.6659  0.7225 -0.3386
 8604SOL    MW434190   2.175   0.541   3.614 -0.3469 -0.1433  0.2054
 8605SOL     OW34191   2.771   1.620   1.745 -0.4627 -0.6368 -0.3440
 8605SOL    HW234192   2.858   1.650   1.718 -1.1763  1.8666 -0.0970
 8605SOL    HW334193   2.710   1.675   1.697 -1.9298 -1.8262  0.0667
 8605SOL    MW434194   2.774   1.631   1.735 -0.7504 -0.4635 -0.2572
 8606SOL     OW34195   6.197   2.776   1.460  0.3595 -0.2128  0.3843
 8606SOL    HW234196   6.130   2.708   1.466  1.0394 -0.9320  0.0022
 8606SOL    HW334197   6.218   2.781   1.367  0.4099  0.4362  0.4250
 8606SOL    MW434198   6.190   2.768   1.449  0.4559 -0.2221  0.3393
 8607SOL     OW34199   6.010   1.445   1.044 -0.3269 -0.0263  0.2222
 8607SOL    HW234200   5.989   1.399   1.125  0.3327 -0.4578  0.1577
 8607SOL    HW334201   6.093   1.405   1.015 -0.5401  0.1475 -0.6396
 8607SOL    MW434202   6.018   1.434   1.051 -0.2680 -0.0603  0.1000
 8608SOL     OW34203   1.790   2.477   1.863  0.3453 -0.4990 -0.5581
 8608SOL    HW234204   1.860   2.414   1.845  0.2184 -0.9468  0.4644
 8608SOL    HW334205   1.810   2.511   1.950  0.5513  1.0759 -1.1905
 8608SOL    MW434206   1.802   2.473   1.872  0.3558 -0.3503 -0.5067
 8609SOL     OW34207   3.577   1.780   2.454 -0.0762 -0.3494 -0.4040
 8609SOL    HW234208   3.492   1.780   2.410  0.2390 -1.2096 -1.0289
 8609SOL    HW334209   3.642   1.775   2.384  0.4036 -3.7008  0.0695
 8609SOL    MW434210   3.574   1.779   2.439  0.0287 -0.9051 -0.4240
 8610SOL     OW34211   2.939   3.843   1.145 -0.4879  0.4982 -0.1271
 8610SOL    HW234212   2.946   3.884   1.058 -1.2779 -0.2516 -0.5588
 8610SOL    HW334213   3.016   3.875   1.192  1.5316 -1.2168 -2.0076
 8610SOL    MW434214   2.950   3.853   1.139 -0.3257  0.1730 -0.4322
 8611SOL     OW34215   4.384   4.606   0.814  0.4963 -0.5440  0.3347
 8611SOL    HW234216   4.417   4.689   0.848 -0.7631 -0.2025  0.7846
 8611SOL    HW334217   4.442   4.585   0.742  0.1838  1.3101 -0.5202
 8611SOL    MW434218   4.396   4.614   0.809  0.2889 -0.2543  0.2812
 8612SOL     OW34219   0.909   3.725   0.113 -0.1783  0.2803  0.6940
 8612SOL    HW234220   0.942   3.763   0.194  0.9973  2.9466 -0.9151
 8612SOL    HW334221   0.838   3.783   0.086 -0.9070 -0.8733  0.0252
 8612SOL    MW434222   0.904   3.738   0.120 -0.1193  0.4799  0.3934
 8613SOL     OW34223   6.328   4.791   1.894 -0.0504  0.5965 -0.1931
 8613SOL    HW234224   6.350   4.740   1.973 -0.5256  0.0014 -0.4389
 8613SOL    HW334225   6.289   4.871   1.927 -2.0752 -0.4790  0.1808
 8613SOL    MW434226   6.326   4.795   1.909 -0.3803  0.3761 -0.1762
 8614SOL     OW34227   3.938   3.555   3.560  0.8484  0.0033 -0.4033
 8614SOL    HW234228   3.985   3.527   3.638  0.0504  0.0816  0.1168
 8614SOL    HW334229   3.953   3.649   3.555  1.0035 -0.0219 -0.4214
 8614SOL    MW434230   3.946   3.563   3.569  0.7636  0.0103 -0.3371
 8615SOL     OW34231   3.685   3.648   1.677 -0.4270  0.4446 -0.1150
 8615SOL    HW234232   3.620   3.688   1.735 -0.5141  0.6683 -0.3648
 8615SOL    HW334233   3.724   3.577   1.729  0.4444  1.4871  0.7029
 8615SOL    MW434234   3.682   3.644   1.692 -0.3235  0.6117 -0.0400
 8616SOL     OW34235   2.443   0.323   5.633  0.7173 -0.1687  0.3920
 8616SOL    HW234236   2.496   0.268   5.690 -0.4052  0.2733  1.9289
 8616SOL    HW334237   2.372   0.265   5.603  0.4933 -0.0254  0.6372
 8616SOL    MW434238   2.440   0.308   5.637  0.5397 -0.0915  0.6271
 8617SOL     OW34239   2.046   5.122   4.798 -0.2534  0.1147  0.6262
 8617SOL    HW234240   2.063   5.112   4.891  1.5880 -0.1392  0.3039
 8617SOL    HW334241   2.127   5.159   4.763 -1.0338  0.5145 -0.8228
 8617SOL    MW434242   2.059   5.126   4.805 -0.1134  0.1339  0.3925
 8618SOL     OW34243   1.479   4.011   2.026 -0.2150 -0.2761  0.1638
 8618SOL    HW234244   1.447   4.084   2.079  2.2254  1.0597 -0.0614
 8618SOL    HW334245   1.559   3.983   2.069  0.7965 -0.4465 -1.7058
 8618SOL    MW434246   1.485   4.017   2.038  0.2404 -0.1224 -0.1126
 8619SOL     OW34247   2.162   2.862   5.379  0.1012 -0.3289  0.4801
 8619SOL    HW234248   2.191   2.947   5.346  1.5380 -1.2390 -0.7396
 8619SOL    HW334249   2.243   2.817   5.401 -0.5004 -2.0095 -0.5545
 8619SOL    MW434250   2.176   2.868   5.377  0.2114 -0.6707  0.1827
 8620SOL     OW34251   2.224   1.489   4.231 -0.5021 -0.1808  0.0099
 8620SOL    HW234252   2.201   1.445   4.149 -0.3637  0.3412 -0.3113
 8620SOL    HW334253   2.310   1.527   4.215  0.3250 -1.5268  0.9784
 8620SOL    MW434254   2.232   1.488   4.218 -0.3747 -0.2895  0.0953
 8621SOL     OW34255   0.097   4.988   2.009  0.1620  0.1392  0.2694
 8621SOL    HW234256   0.139   4.913   1.969  1.8675  1.2933 -0.2081
 8621SOL    HW334257   0.046   5.028   1.938  0.8121  0.5144  0.0076
 8621SOL    MW434258   0.096   4.984   1.995  0.4728  0.3410  0.1719
 8622SOL     OW34259   4.434   1.481   0.346 -0.5794  0.2882  0.2211
 8622SOL    HW234260   4.489   1.515   0.418  0.1063 -0.8299  0.2443
 8622SOL    HW334261   4.497   1.455   0.279 -1.1798  0.4856 -0.4230
 8622SOL    MW434262   4.450   1.482   0.347 -0.5682  0.1667  0.1391
 8623SOL     OW34263   3.010   1.887   4.282 -0.3875  0.6233  0.3108
 8623SOL    HW234264   3.037   1.974   4.254  1.0043  0.4302  0.9763
 8623SOL    HW334265   3.086   1.832   4.267 -0.2484  0.1079  2.4981
 8623SOL    MW434266   3.024   1.891   4.277 -0.1855  0.5298  0.6872
 8624SOL     OW34267   1.238   4.536   2.892  0.0987  0.6859  1.0693
 8624SOL    HW234268   1.191   4.580   2.962 -0.3831 -0.8329  1.7475
 8624SOL    HW334269   1.306   4.485   2.936  0.5363  0.6162  0.3411
 8624SOL    MW434270   1.241   4.535   2.907  0.0929  0.4763  1.0627
 8625SOL     OW34271   1.457   4.032   6.019  0.3406  0.4799 -0.1521
 8625SOL    HW234272   1.538   4.080   6.000 -0.6891  1.7249 -1.7186
 8625SOL    HW334273   1.407   4.038   5.937 -0.8423 -1.2862  0.3920
 8625SOL    MW434274   1.461   4.039   6.005  0.0486  0.4112 -0.2870
 8626SOL     OW34275   2.473   5.226   1.662 -0.1340  0.5763 -0.1189
 8626SOL    HW234276   2.379   5.240   1.661 -0.2176  0.2047 -2.4068
 8626SOL    HW334277   2.493   5.204   1.753 -2.5865 -1.5787  0.0115
 8626SOL    MW434278   2.463   5.225   1.674 -0.4686  0.2429 -0.4035
 8627SOL     OW34279   3.841   1.488   1.149 -0.4247 -0.1967 -0.0596
 8627SOL    HW234280   3.867   1.559   1.208  3.2476 -1.2877 -0.1221
 8627SOL    HW334281   3.791   1.428   1.203  0.9904 -0.1067  1.4245
 8627SOL    MW434282   3.838   1.490   1.164  0.2465 -0.3288  0.1279
 8628SOL     OW34283   4.968   0.872   0.956 -0.0441 -0.6716  0.3019
 8628SOL    HW234284   4.897   0.820   0.993 -0.7052  0.3005  0.4169
 8628SOL    HW334285   4.925   0.946   0.914  0.9086  0.1267  0.6911
 8628SOL    MW434286   4.953   0.875   0.956 -0.0057 -0.4380  0.3684
 8629SOL     OW34287   1.806   3.670   2.572  1.0068 -0.1773 -0.4072
 8629SOL    HW234288   1.800   3.734   2.501 -0.9679 -0.6219 -0.6831
 8629SOL    HW334289   1.863   3.712   2.636 -1.0943  2.4289 -0.0528
 8629SOL    MW434290   1.813   3.684   2.571  0.4690  0.1079 -0.3968
 8630SOL     OW34291   3.376   3.622   1.155  0.8703 -0.0662  0.5701
 8630SOL    HW234292   3.411   3.636   1.243  0.5989 -0.3780  0.7263
 8630SOL    HW334293   3.388   3.706   1.111 -1.4322  0.9593  1.7373
 8630SOL    MW434294   3.382   3.635   1.160  0.5307  0.0279  0.7447
 8631SOL     OW34295   0.586   2.529   0.745  0.3650  0.0084  0.0977
 8631SOL    HW234296   0.506   2.477   0.733  0.5143 -0.0288 -0.8381
 8631SOL    HW334297   0.655   2.477   0.704  0.8303  0.1529  0.6884
 8631SOL    MW434298   0.584   2.515   0.738  0.4461  0.0226  0.0522
 8632SOL     OW34299   0.633   5.966   5.741 -0.5129 -0.5657 -0.6958
 8632SOL    HW234300   0.615   5.888   5.689 -0.2882 -0.1939 -1.3452
 8632SOL    HW334301   0.612   5.941   5.831 -1.4214 -1.0595 -1.0343
 8632SOL    MW434302   0.628   5.953   5.746 -0.6031 -0.5818 -0.8261
 8633SOL     OW34303   2.629   5.737   0.817 -0.0463 -0.4012 -0.0127
 8633SOL    HW234304   2.709   5.789   0.812  0.7557 -1.4659  1.1272
 8633SOL    HW334305   2.633   5.679   0.741 -0.0958  0.0157 -0.3392
 8633SOL    MW434306   2.640   5.736   0.806  0.0530 -0.4867  0.0946
 8634SOL     OW34307   1.821   5.382   3.896 -0.3902  0.1097 -0.1202
 8634SOL    HW234308   1.773   5.305   3.868  0.4860  0.0072 -1.4039
 8634SOL    HW334309   1.894   5.347   3.948 -0.0844  0.0789 -0.5676
 8634SOL    MW434310   1.824   5.367   3.899 -0.2342  0.0921 -0.3486
 8635SOL     OW34311   4.178   1.430   1.373  0.0734  0.5320  0.4139
 8635SOL    HW234312   4.242   1.397   1.437 -0.6169 -0.7096  0.4954
 8635SOL    HW334313   4.196   1.380   1.293  0.2232  1.3051 -0.0462
 8635SOL    MW434314   4.189   1.419   1.371  0.0021  0.4702  0.3640
 8636SOL     OW34315   3.676   1.287   3.864 -0.2080  0.6035 -0.8834
 8636SOL    HW234316   3.605   1.338   3.826  1.3515  2.6807 -1.2135
 8636SOL    HW334317   3.738   1.352   3.896  0.0781 -1.0482  2.4273
 8636SOL    MW434318   3.675   1.302   3.863  0.0355  0.6596 -0.4902
 8637SOL     OW34319   5.412   0.108   4.747 -0.1174 -0.0345  0.2091
 8637SOL    HW234320   5.428   0.037   4.810  1.3125 -2.1462 -2.3391
 8637SOL    HW334321   5.499   0.140   4.725 -0.7363  2.6866  1.3090
 8637SOL    MW434322   5.425   0.103   4.753 -0.0104  0.0459  0.0180
 8638SOL     OW34323   3.888   4.559   3.975  0.3183 -0.3760 -0.0546
 8638SOL    HW234324   3.912   4.468   3.961 -0.1087 -0.6413  0.8443
 8638SOL    HW334325   3.813   4.555   4.035 -1.5134  0.4263 -2.1463
 8638SOL    MW434326   3.881   4.547   3.981  0.0203 -0.3051 -0.2119
 8639SOL     OW34327   0.092   3.409   0.161 -0.4514  0.3293  0.0073
 8639SOL    HW234328   0.059   3.345   0.098 -0.9327  0.1566  0.4212
 8639SOL    HW334329   0.024   3.412   0.229  0.1277  0.3940  0.5964
 8639SOL    MW434330   0.078   3.401   0.162 -0.4385  0.3150  0.1396
 8640SOL     OW34331   0.059   1.246   2.758 -0.0556  0.1862  0.1426
 8640SOL    HW234332   0.022   1.275   2.675 -0.0649  0.4087  0.2236
 8640SOL    HW334333   0.148   1.281   2.757 -0.7093  2.0391  1.1505
 8640SOL    MW434334   0.066   1.255   2.747 -0.1431  0.4600  0.2862
 8641SOL     OW34335   5.205   2.174   6.381  0.5304  0.2046  0.6578
 8641SOL    HW234336   5.117   2.198   6.354 -0.1800 -1.4465  1.3311
 8641SOL    HW334337   5.211   2.080   6.361  2.1775  0.3029  0.5282
 8641SOL    MW434338   5.195   2.165   6.375  0.6540 -0.0003  0.7295
 8642SOL     OW34339   4.693   3.810   5.936 -0.2577  0.6476  0.4039
 8642SOL    HW234340   4.656   3.722   5.930 -1.5289  1.2181 -0.4728
 8642SOL    HW334341   4.652   3.848   6.013  2.3027 -0.3859  2.4128
 8642SOL    MW434342   4.683   3.803   5.945 -0.0876  0.5865  0.5533
 8643SOL     OW34343   5.947   1.071   1.611  0.3324 -0.1086 -0.4521
 8643SOL    HW234344   5.907   0.999   1.562  1.5459 -0.5525 -0.8162
 8643SOL    HW334345   5.963   1.034   1.698 -0.5349  0.2406 -0.1371
 8643SOL    MW434346   5.944   1.056   1.616  0.3780 -0.1211 -0.4586
 8644SOL     OW34347   3.013   3.553   2.659  0.1517 -0.1453 -0.1451
 8644SOL    HW234348   3.055   3.507   2.731  1.0706  0.0803 -0.5283
 8644SOL    HW334349   3.075   3.621   2.634 -1.1361  1.2651  0.3411
 8644SOL    MW434350   3.027   3.556   2.665  0.1030  0.0705 -0.1315
 8645SOL     OW34351   5.673   4.038   3.025  0.3982 -0.7193 -0.2125
 8645SOL    HW234352   5.588   3.994   3.018  1.4227 -2.6576 -1.4837
 8645SOL    HW334353   5.704   4.016   3.113 -1.3856  2.0533  1.2442
 8645SOL    MW434354   5.666   4.029   3.036  0.2980 -0.6092 -0.1880
 8646SOL     OW34355   5.014   3.206   2.005  0.3898 -0.4132  0.7205
 8646SOL    HW234356   4.952   3.279   2.009  0.5417 -0.3220  1.5012
 8646SOL    HW334357   5.020   3.184   1.912  1.3803  1.4608  0.3031
 8646SOL    MW434358   5.007   3.212   1.993  0.5405 -0.1539  0.7684
 8647SOL     OW34359   6.081   1.723   4.961  0.2877 -0.2829  0.0172
 8647SOL    HW234360   6.020   1.759   5.026 -1.2637 -1.3108 -0.8047
 8647SOL    HW334361   6.158   1.698   5.012 -0.7000 -0.6243  1.4037
 8647SOL    MW434362   6.083   1.724   4.976 -0.0473 -0.4636  0.0917
 8648SOL     OW34363   5.521   3.727   5.635 -0.4447  0.0345  0.0490
 8648SOL    HW234364   5.432   3.723   5.671 -0.4357  0.2301  0.0940
 8648SOL    HW334365   5.570   3.663   5.687 -0.3526  0.5555  0.6139
 8648SOL    MW434366   5.516   3.718   5.647 -0.4313  0.1290  0.1295
 8649SOL     OW34367   3.820   2.211   1.479 -0.1121 -0.0007 -0.2036
 8649SOL    HW234368   3.831   2.244   1.390 -0.0196 -0.2526 -0.2848
 8649SOL    HW334369   3.739   2.252   1.510  0.0523  0.3790 -0.2697
 8649SOL    MW434370   3.811   2.221   1.472 -0.0782  0.0161 -0.2230
 8650SOL     OW34371   3.324   4.507   0.837 -0.0955 -0.7470 -0.2356
 8650SOL    HW234372   3.305   4.499   0.743 -1.2684 -0.0598 -0.0788
 8650SOL    HW334373   3.249   4.554   0.872 -0.2141 -1.9995  1.2594
 8650SOL    MW434374   3.312   4.512   0.829 -0.2659 -0.8216 -0.0177
 8651SOL     OW34375   3.441   3.872   5.808  0.8530 -0.3437  0.2780
 8651SOL    HW234376   3.375   3.916   5.861  0.3487 -1.3603  0.5151
 8651SOL    HW334377   3.519   3.928   5.816  0.3865  0.2237  0.9893
 8651SOL    MW434378   3.443   3.885   5.816  0.7249 -0.4030  0.4032
 8652SOL     OW34379   3.061   1.495   4.239  0.1605  0.5999  0.7063
 8652SOL    HW234380   3.137   1.442   4.214 -2.8706 -3.6314 -0.7809
 8652SOL    HW334381   3.036   1.542   4.159  0.6288  1.2184  0.9195
 8652SOL    MW434382   3.067   1.494   4.225 -0.1776  0.1232  0.5382
 8653SOL     OW34383   2.285   0.022   3.567 -0.0019  0.2821  0.4203
 8653SOL    HW234384   2.210   0.059   3.612 -0.5345 -0.8402  0.4861
 8653SOL    HW334385   2.270   0.041   3.474  0.4661  1.4854  0.5756
 8653SOL    MW434386   2.273   0.029   3.561 -0.0105  0.2928  0.4495
 8654SOL     OW34387   2.350   4.313   0.807  0.0174 -0.2767 -0.4131
 8654SOL    HW234388   2.380   4.223   0.800  0.4595 -0.1581 -0.0601
 8654SOL    HW334389   2.327   4.337   0.717 -3.3073 -1.7888 -0.1400
 8654SOL    MW434390   2.351   4.305   0.794 -0.3629 -0.4606 -0.3305
 8655SOL     OW34391   5.962   2.938   4.806  0.3123 -0.0444  0.9522
 8655SOL    HW234392   6.017   3.010   4.837 -0.9857  0.8877  1.1753
 8655SOL    HW334393   5.965   2.874   4.877  1.8462 -0.4534  0.5598
 8655SOL    MW434394   5.970   2.939   4.819  0.3434  0.0246  0.9298
 8656SOL     OW34395   3.671   5.135   5.184 -0.0152 -0.3063 -0.3403
 8656SOL    HW234396   3.751   5.099   5.222 -0.3384  0.8925  1.6111
 8656SOL    HW334397   3.701   5.194   5.114  0.6282 -1.8649 -1.4401
 8656SOL    MW434398   3.685   5.138   5.179  0.0271 -0.3537 -0.2279
 8657SOL     OW34399   4.828   1.049   2.718 -0.6671 -0.1443 -0.2357
 8657SOL    HW234400   4.856   1.000   2.641 -1.8659 -1.9372  0.4009
 8657SOL    HW334401   4.733   1.039   2.720 -0.9349  1.8918  0.1903
 8657SOL    MW434402   4.819   1.041   2.708 -0.8606 -0.1122 -0.0955
 8658SOL     OW34403   1.740   5.473   4.472  0.0891  0.4350  0.1414
 8658SOL    HW234404   1.750   5.444   4.562  1.7924 -1.2026 -0.5217
 8658SOL    HW334405   1.769   5.564   4.472  1.1967  0.0948  1.0416
 8658SOL    MW434406   1.745   5.481   4.484  0.4599  0.1740  0.1727
 8659SOL     OW34407   6.203   0.614   4.845 -0.0708 -0.8759  0.7956
 8659SOL    HW234408   6.113   0.594   4.821 -0.8305  0.1883  2.5376
 8659SOL    HW334409   6.228   0.541   4.903 -0.6084 -0.1280  2.0241
 8659SOL    MW434410   6.194   0.601   4.850 -0.2420 -0.6368  1.1875
 8660SOL     OW34411   3.652   0.695   5.791  0.0923 -0.0867 -0.5850
 8660SOL    HW234412   3.731   0.698   5.736  1.4109  0.1138  1.2266
 8660SOL    HW334413   3.638   0.601   5.806 -0.1244 -0.1300 -1.0311
 8660SOL    MW434414   3.661   0.683   5.786  0.2377 -0.0659 -0.4048
 8661SOL     OW34415   1.946   0.819   0.291  0.3205 -0.1153  0.2171
 8661SOL    HW234416   1.935   0.744   0.233 -1.3806  0.8842 -0.8690
 8661SOL    HW334417   1.939   0.783   0.379  2.6232 -1.6291 -0.1454
 8661SOL    MW434418   1.944   0.805   0.295  0.3999 -0.1832  0.0259
 8662SOL     OW34419   6.042   3.988   1.036 -0.0821  0.4889  0.5977
 8662SOL    HW234420   6.032   4.071   0.990  0.2069  0.3267  0.2386
 8662SOL    HW334421   5.953   3.957   1.049 -0.2135  1.0189  1.0471
 8662SOL    MW434422   6.029   3.995   1.032 -0.0613  0.5374  0.6096
 8663SOL     OW34423   5.631   6.086   2.536  0.6356  0.0392 -0.0025
 8663SOL    HW234424   5.585   6.089   2.620  0.3998  0.9997 -0.1552
 8663SOL    HW334425   5.651   5.993   2.523 -1.0940 -0.3824  0.1546
 8663SOL    MW434426   5.628   6.074   2.546  0.3763  0.1103 -0.0019
 8664SOL     OW34427   4.287   0.890   0.012  0.5710 -0.5747  0.3275
 8664SOL    HW234428   4.335   0.912   0.092 -0.1321  2.2018  0.1005
 8664SOL    HW334429   4.240   0.971  -0.010 -1.9536 -2.2671 -1.0236
 8664SOL    MW434430   4.287   0.903   0.020  0.1451 -0.4317  0.1193
 8665SOL     OW34431   5.624   0.299   6.130  0.1893  0.0726  0.0925
 8665SOL    HW234432   5.710   0.280   6.168 -0.1934 -2.4103 -0.1698
 8665SOL    HW334433   5.642   0.312   6.037  0.2760 -0.5056  0.0271
 8665SOL    MW434434   5.638   0.298   6.123  0.1503 -0.3312  0.0493
 8666SOL     OW34435   1.569   1.330   3.017 -0.1845 -0.0048 -0.1318
 8666SOL    HW234436   1.586   1.424   3.004  0.1382  0.3708  2.3816
 8666SOL    HW334437   1.488   1.313   2.968 -0.8923  1.8919  0.2890
 8666SOL    MW434438   1.560   1.340   3.009 -0.2353  0.2950  0.2554
 8667SOL     OW34439   0.219   5.442   4.522  0.1477 -0.4300 -0.1665
 8667SOL    HW234440   0.302   5.421   4.565 -0.5494  0.6244  1.8129
 8667SOL    HW334441   0.152   5.422   4.587 -1.0861 -0.1846 -1.3132
 8667SOL    MW434442   0.221   5.437   4.536 -0.1071 -0.2585 -0.0566
 8668SOL     OW34443   2.036   5.711   2.485 -0.3251  0.1929 -0.1655
 8668SOL    HW234444   1.971   5.662   2.536 -0.7028 -0.9296 -1.6373
 8668SOL    HW334445   1.989   5.788   2.453 -0.6091 -0.0423 -0.3154
 8668SOL    MW434446   2.021   5.715   2.488 -0.4124  0.0137 -0.3794
 8669SOL     OW34447   2.991   1.986   1.607 -0.3313 -0.4788  0.1082
 8669SOL    HW234448   2.954   1.966   1.693 -0.7440 -1.8563 -0.3615
 8669SOL    HW334449   3.036   2.070   1.619 -3.3633  1.2214  0.7767
 8669SOL    MW434450   2.992   1.995   1.620 -0.7858 -0.4362  0.1344
 8670SOL     OW34451   0.265   6.176   5.846 -0.3739  0.2831 -0.1651
 8670SOL    HW234452   0.313   6.177   5.929 -2.5474 -3.0870  1.3354
 8670SOL    HW334453   0.189   6.232   5.861 -0.2897  0.4155 -0.2289
 8670SOL    MW434454   0.261   6.184   5.859 -0.6495 -0.1441  0.0244
 8671SOL     OW34455   1.736   1.979   0.620  0.1998 -0.1432  0.3481
 8671SOL    HW234456   1.649   1.946   0.600  0.1491  0.0579  0.2344
 8671SOL    HW334457   1.792   1.901   0.621 -0.0262 -0.3013  0.6686
 8671SOL    MW434458   1.732   1.964   0.617  0.1633 -0.1375  0.3753
 8672SOL     OW34459   3.866   0.432   6.133  0.0774  0.2016  0.6844
 8672SOL    HW234460   3.868   0.527   6.142 -1.8581  0.2668  0.8311
 8672SOL    HW334461   3.938   0.402   6.188  0.4582  1.5521  0.9737
 8672SOL    MW434462   3.875   0.441   6.141 -0.1277  0.3884  0.7419
 8673SOL     OW34463   3.590   0.934   4.708 -0.0184  0.2150 -0.0783
 8673SOL    HW234464   3.643   1.007   4.677  2.5709 -0.2495  2.7715
 8673SOL    HW334465   3.635   0.856   4.676 -1.9067 -0.2441 -1.8095
 8673SOL    MW434466   3.603   0.934   4.700  0.0740  0.0931  0.0693
 8674SOL     OW34467   4.011   0.817   2.360  0.1689 -0.2621  0.5549
 8674SOL    HW234468   4.097   0.822   2.318  0.9362  0.1539  2.0952
 8674SOL    HW334469   4.031   0.812   2.453 -1.4898 -0.4856  0.9197
 8674SOL    MW434470   4.025   0.817   2.367  0.0513 -0.2367  0.8062
 8675SOL     OW34471   1.437   5.449   3.737  0.2404 -0.0389 -0.3314
 8675SOL    HW234472   1.403   5.508   3.669 -0.8814 -1.0629 -0.6767
 8675SOL    HW334473   1.524   5.485   3.758  0.3684  0.6253 -1.8889
 8675SOL    MW434474   1.444   5.462   3.731  0.1093 -0.0864 -0.5825
 8676SOL     OW34475   1.100   6.306   2.560 -0.0167 -0.4358 -0.0616
 8676SOL    HW234476   1.187   6.342   2.542  0.1128 -1.3986 -1.4658
 8676SOL    HW334477   1.082   6.248   2.487 -1.5859 -0.7541  0.5380
 8676SOL    MW434478   1.109   6.303   2.548 -0.2067 -0.6048 -0.1678
 8677SOL     OW34479   5.184   6.113   5.124  0.3333  0.1350 -0.3191
 8677SOL    HW234480   5.125   6.119   5.200 -0.3298  1.4007 -0.9019
 8677SOL    HW334481   5.214   6.203   5.111  1.8935 -0.3803 -0.4482
 8677SOL    MW434482   5.180   6.126   5.133  0.4517  0.2340 -0.4130
 8678SOL     OW34483   2.640   4.178   6.259  0.4323  0.3424  0.1041
 8678SOL    HW234484   2.644   4.245   6.327 -0.1827 -1.6665  2.2565
 8678SOL    HW334485   2.546   4.166   6.242  0.5905  1.2391 -1.5956
 8678SOL    MW434486   2.628   4.185   6.266  0.3720  0.1956  0.1638
 8679SOL     OW34487   0.110   2.891   5.860  0.2450 -0.0115 -0.2531
 8679SOL    HW234488   0.027   2.896   5.812  1.1012 -0.1546 -1.8411
 8679SOL    HW334489   0.175   2.921   5.797  1.5127 -0.7415  0.6682
 8679SOL    MW434490   0.107   2.896   5.845  0.5252 -0.1267 -0.3411
 8680SOL     OW34491   5.414   1.486   5.609 -0.5018 -0.2801 -0.0839
 8680SOL    HW234492   5.322   1.507   5.625 -0.7649  0.5318 -2.2926
 8680SOL    HW334493   5.443   1.554   5.548  2.5490  1.5204  3.0558
 8680SOL    MW434494   5.406   1.498   5.603 -0.1340  0.0646  0.0389
 8681SOL     OW34495   4.988   5.929   1.447 -0.3478  0.2754 -0.5985
 8681SOL    HW234496   4.921   5.876   1.491 -0.9008  1.4758  0.0599
 8681SOL    HW334497   5.050   5.865   1.412 -1.6113 -0.8582 -0.8644
 8681SOL    MW434498   4.987   5.914   1.449 -0.5875  0.2842 -0.5467
 8682SOL     OW34499   0.351   6.242   2.872 -0.1095  0.2031  0.2382
 8682SOL    HW234500   0.427   6.188   2.850 -0.0469  0.2797  0.2633
 8682SOL    HW334501   0.313   6.265   2.788  0.6865  1.2916  0.1454
 8682SOL    MW434502   0.356   6.238   2.858  0.0038  0.3568  0.2293
 8683SOL     OW34503   2.513   0.337   4.920 -0.1879  0.6535  0.1839
 8683SOL    HW234504   2.573   0.314   4.849 -1.2190 -0.1758 -0.4310
 8683SOL    HW334505   2.446   0.391   4.879 -1.0781 -0.2638  0.3972
 8683SOL    MW434506   2.512   0.341   4.906 -0.4414  0.4230  0.1309
 8684SOL     OW34507   3.258   2.666   0.219  0.6736 -0.9288 -0.0610
 8684SOL    HW234508   3.342   2.683   0.261 -0.2988  0.6849  1.3698
 8684SOL    HW334509   3.278   2.606   0.148  2.8855 -1.2935  0.8021
 8684SOL    MW434510   3.272   2.660   0.215  0.8371 -0.7640  0.2416
 8685SOL     OW34511   2.940   2.714   3.917  0.1422 -0.3390 -0.2336
 8685SOL    HW234512   3.028   2.698   3.952  0.0128 -2.9437 -0.9019
 8685SOL    HW334513   2.903   2.781   3.974  2.1099 -0.0444  0.7862
 8685SOL    MW434514   2.947   2.721   3.929  0.3847 -0.6438 -0.1872
 8686SOL     OW34515   5.345   4.574   4.073  0.2812  0.4834  0.0598
 8686SOL    HW234516   5.437   4.599   4.077  0.6002 -0.4740 -0.9086
 8686SOL    HW334517   5.343   4.484   4.107 -0.5129  0.9892  1.4079
 8686SOL    MW434518   5.357   4.565   4.078  0.2185  0.4238  0.1099
 8687SOL     OW34519   3.526   1.303   2.607 -0.2892  0.3077  0.0902
 8687SOL    HW234520   3.519   1.216   2.568  4.1588  0.1177 -0.7694
 8687SOL    HW334521   3.530   1.287   2.701  0.6057 -0.4707 -0.0655
 8687SOL    MW434522   3.526   1.289   2.614  0.4157  0.1799 -0.0438
 8688SOL     OW34523   2.556   2.683   5.194 -0.0803 -0.1473 -0.3067
 8688SOL    HW234524   2.576   2.770   5.159 -0.3847 -0.1651 -0.5186
 8688SOL    HW334525   2.483   2.697   5.254  0.5778 -0.0774  0.5061
 8688SOL    MW434526   2.549   2.696   5.198 -0.0337 -0.1404 -0.2274
 8689SOL     OW34527   1.687   5.981   6.173 -0.0045  0.2295  0.2524
 8689SOL    HW234528   1.699   5.916   6.243  0.9279  0.5341  0.3915
 8689SOL    HW334529   1.637   5.934   6.106  2.8250 -1.5648 -0.8116
 8689SOL    MW434530   1.682   5.966   6.173  0.4918  0.0330  0.1304
 8690SOL     OW34531   5.907   3.974   6.379 -0.0292  0.4312 -0.1249
 8690SOL    HW234532   5.813   3.979   6.360 -0.0264  1.7209  0.1306
 8690SOL    HW334533   5.912   3.918   6.457 -0.3971 -1.2463 -1.2465
 8690SOL    MW434534   5.895   3.967   6.387 -0.0774  0.3800 -0.2392
 8691SOL     OW34535   1.919   1.995   5.624  0.0251 -0.4077  0.0385
 8691SOL    HW234536   1.883   1.991   5.713 -2.3978  0.2714 -0.8415
 8691SOL    HW334537   1.845   2.021   5.569  1.5475 -0.4364 -2.1492
 8691SOL    MW434538   1.905   1.998   5.629 -0.0937 -0.3219 -0.3663
 8692SOL     OW34539   0.397   2.536   2.972  0.1237  0.6662  0.2045
 8692SOL    HW234540   0.459   2.590   2.924 -1.4058  1.9199 -0.4723
 8692SOL    HW334541   0.414   2.555   3.064 -0.1036  2.0160 -0.0151
 8692SOL    MW434542   0.407   2.545   2.978 -0.1081  1.0097  0.0862
 8693SOL     OW34543   5.959   3.324   5.264  0.3859 -0.1121 -0.0043
 8693SOL    HW234544   6.039   3.369   5.236  0.1402  0.4054  0.1114
 8693SOL    HW334545   5.931   3.274   5.187 -0.5180  1.6235 -0.8503
 8693SOL    MW434546   5.966   3.323   5.250  0.2342  0.1852 -0.1006
 8694SOL     OW34547   5.332   4.255   4.617  0.2480 -0.0192  0.1072
 8694SOL    HW234548   5.287   4.333   4.583  2.3916  1.1909 -0.1614
 8694SOL    HW334549   5.392   4.230   4.546 -0.7825 -2.3299 -0.0489
 8694SOL    MW434550   5.334   4.262   4.603  0.3949 -0.1644  0.0512
 8695SOL     OW34551   4.549   4.471   3.212 -0.2680 -0.0138  0.1519
 8695SOL    HW234552   4.521   4.416   3.139 -1.3139 -0.4849  0.8805
 8695SOL    HW334553   4.520   4.424   3.290 -0.5972  1.2427  0.8222
 8695SOL    MW434554   4.542   4.458   3.213 -0.4494  0.0898  0.3365
 8696SOL     OW34555   0.480   3.533   5.548 -0.0583  0.1461  0.6854
 8696SOL    HW234556   0.417   3.461   5.550 -2.1054  1.7932 -0.1591
 8696SOL    HW334557   0.529   3.520   5.466  1.0300 -1.3426  1.5196
 8696SOL    MW434558   0.478   3.522   5.537 -0.1848  0.1670  0.6840
 8697SOL     OW34559   5.549   4.521   3.203 -0.1373  0.5068  0.4627
 8697SOL    HW234560   5.564   4.590   3.267 -1.6786  0.9189  0.4183
 8697SOL    HW334561   5.568   4.561   3.118  0.8432  0.2782  0.5566
 8697SOL    MW434562   5.553   4.535   3.200 -0.2113  0.5310  0.4692
 8698SOL     OW34563   1.672   6.294   5.136  0.1024  0.1897 -0.0354
 8698SOL    HW234564   1.698   6.263   5.049  1.8783 -1.1855  0.9319
 8698SOL    HW334565   1.724   6.374   5.149  0.6356 -0.1850  0.1695
 8698SOL    MW434566   1.682   6.301   5.126  0.4071 -0.0412  0.1193
 8699SOL     OW34567   0.348   3.249   0.028  0.4430 -0.0243 -0.3813
 8699SOL    HW234568   0.346   3.340   0.056  3.0975  0.1893 -0.6609
 8699SOL    HW334569   0.339   3.253  -0.067 -0.4554 -0.1560 -0.3109
 8699SOL    MW434570   0.347   3.262   0.019  0.6747 -0.0135 -0.4089
 8700SOL     OW34571   1.178   0.828   0.875 -0.0722  0.1533 -0.0231
 8700SOL    HW234572   1.179   0.869   0.962 -0.5746  0.6376 -0.2371
 8700SOL    HW334573   1.244   0.759   0.880  0.8468  1.0260  0.3333
 8700SOL    MW434574   1.187   0.825   0.887 -0.0172  0.3324 -0.0043
 8701SOL     OW34575   1.258   5.850   5.711 -0.3735 -0.4966  0.2928
 8701SOL    HW234576   1.274   5.912   5.782  0.7033 -2.1675  1.5657
 8701SOL    HW334577   1.235   5.768   5.755  1.8588 -2.0173 -1.1995
 8701SOL    MW434578   1.257   5.848   5.726  0.0631 -0.9177  0.2639
 8702SOL     OW34579   3.695   1.772   0.099  0.6112  0.0848 -0.3232
 8702SOL    HW234580   3.706   1.770   0.194  1.8932 -3.0927 -0.4417
 8702SOL    HW334581   3.608   1.734   0.084  0.5257  0.3275 -0.4544
 8702SOL    MW434582   3.685   1.767   0.110  0.7691 -0.3024 -0.3561
 8703SOL     OW34583   0.119   4.929   4.038 -0.5212  0.1705 -0.0392
 8703SOL    HW234584   0.208   4.910   4.008 -0.5651 -1.7022  0.8687
 8703SOL    HW334585   0.080   4.843   4.053 -2.0525  0.9765  0.8597
 8703SOL    MW434586   0.125   4.915   4.036 -0.7291  0.0298  0.1992
 8704SOL     OW34587   0.580   3.887   5.537 -0.3130 -0.5711 -0.0446
 8704SOL    HW234588   0.492   3.916   5.513 -0.4368 -1.8722 -1.3074
 8704SOL    HW334589   0.634   3.966   5.532 -1.0265 -0.1404 -1.2914
 8704SOL    MW434590   0.576   3.901   5.533 -0.4234 -0.6859 -0.3757
 8705SOL     OW34591   3.863   0.796   0.675  0.4199 -0.4012 -0.4260
 8705SOL    HW234592   3.798   0.862   0.652 -0.7877 -1.4789 -0.1820
 8705SOL    HW334593   3.935   0.810   0.612  0.3133  1.2816 -0.2213
 8705SOL    MW434594   3.864   0.807   0.664  0.2465 -0.3213 -0.3668
 8706SOL     OW34595   6.364   0.336   5.291 -0.3426 -0.6188 -0.2983
 8706SOL    HW234596   6.355   0.241   5.290  1.6063 -0.8359 -0.8053
 8706SOL    HW334597   6.345   0.363   5.201 -1.0281 -0.4964 -0.1233
 8706SOL    MW434598   6.360   0.327   5.279 -0.1759 -0.6313 -0.3421
 8707SOL     OW34599   5.572   3.525   3.947  0.0901 -0.5605 -0.3404
 8707SOL    HW234600   5.594   3.509   4.039  1.5531  2.0409 -0.1522
 8707SOL    HW334601   5.655   3.552   3.907 -1.1438  1.7080 -1.5689
 8707SOL    MW434602   5.586   3.526   3.954  0.1203  0.0820 -0.4777
 8708SOL     OW34603   4.567   0.296   6.163  0.1136  0.0980 -0.5217
 8708SOL    HW234604   4.640   0.323   6.218  0.0415 -0.9773  0.1241
 8708SOL    HW334605   4.517   0.236   6.217 -0.4109 -0.3524 -1.4872
 8708SOL    MW434606   4.570   0.292   6.177  0.0349 -0.1033 -0.5639
 8709SOL     OW34607   2.586   1.049   5.058  0.2988  0.3211 -0.4325
 8709SOL    HW234608   2.547   0.990   4.994  1.2486 -1.0428  0.1991
 8709SOL    HW334609   2.512   1.077   5.113  0.0741 -1.7937  0.4285
 8709SOL    MW434610   2.571   1.045   5.057  0.3945 -0.1379 -0.2356
 8710SOL     OW34611   1.638   0.541   2.739  0.0835  0.0832  0.5163
 8710SOL    HW234612   1.658   0.453   2.769 -0.1049 -0.1836 -0.1242
 8710SOL    HW334613   1.544   0.539   2.719  0.5427 -0.2873 -1.8207
 8710SOL    MW434614   1.628   0.529   2.740  0.1192 -0.0009  0.1234
 8711SOL     OW34615   2.062   4.557   0.108 -0.8014  0.4087 -0.0007
 8711SOL    HW234616   1.969   4.536   0.116 -0.8591  0.5017 -0.4161
 8711SOL    HW334617   2.070   4.644   0.149 -0.9509  0.5331 -0.2333
 8711SOL    MW434618   2.051   4.566   0.115 -0.8287  0.4374 -0.0862
 8712SOL     OW34619   3.230   3.846   4.432  0.1907  0.0995  0.2426
 8712SOL    HW234620   3.266   3.770   4.387 -1.5037 -0.5771 -0.0738
 8712SOL    HW334621   3.243   3.919   4.371 -1.5553 -0.6933 -1.1700
 8712SOL    MW434622   3.236   3.846   4.418 -0.2632 -0.0943  0.0145
 8713SOL     OW34623   3.197   2.482   4.219 -0.5333 -0.0280 -0.8714
 8713SOL    HW234624   3.128   2.444   4.273  0.4556  0.3649  0.7339
 8713SOL    HW334625   3.229   2.409   4.166 -0.1963 -0.9356  0.5244
 8713SOL    MW434626   3.193   2.467   4.219 -0.3584 -0.0959 -0.4754
 8714SOL     OW34627   1.706   6.250   3.294 -0.5206 -0.1546  0.7201
 8714SOL    HW234628   1.729   6.286   3.380  1.7708 -0.2321  0.1898
 8714SOL    HW334629   1.690   6.157   3.312  1.1383 -0.4356  0.9287
 8714SOL    MW434630   1.707   6.242   3.308  0.0006 -0.2019  0.6776
 8715SOL     OW34631   4.264   1.861   0.941  0.0235 -0.2158 -0.0318
 8715SOL    HW234632   4.291   1.864   0.849  2.5725  1.1825  0.6494
 8715SOL    HW334633   4.312   1.788   0.979 -1.5681 -1.2432  0.0860
 8715SOL    MW434634   4.274   1.852   0.934  0.1498 -0.1669  0.0736
 8716SOL     OW34635   3.338   1.770   4.169 -0.4496 -0.2054 -0.7424
 8716SOL    HW234636   3.289   1.736   4.244 -0.9598 -2.4299 -1.9991
 8716SOL    HW334637   3.338   1.865   4.182 -0.1072 -0.5147  2.2901
 8716SOL    MW434638   3.331   1.778   4.180 -0.4718 -0.5397 -0.5081
 8717SOL     OW34639   5.768   1.395   0.930 -0.2392  0.3671  0.5532
 8717SOL    HW234640   5.861   1.402   0.952  0.2530  0.2850 -1.2563
 8717SOL    HW334641   5.765   1.327   0.863 -1.3590  1.4633 -0.5756
 8717SOL    MW434642   5.780   1.387   0.924 -0.3220  0.5009  0.1655
 8718SOL     OW34643   0.663   5.356   3.870 -0.2539 -0.2108  0.4515
 8718SOL    HW234644   0.643   5.268   3.904 -0.2830  0.0784  1.1980
 8718SOL    HW334645   0.728   5.341   3.802  2.4277 -0.5477  2.9167
 8718SOL    MW434646   0.669   5.342   3.866  0.0961 -0.2171  0.8752
 8719SOL     OW34647   4.192   3.223   3.775 -0.2879 -0.9358 -0.1625
 8719SOL    HW234648   4.227   3.310   3.791 -1.5809 -0.3816 -0.2273
 8719SOL    HW334649   4.152   3.229   3.688 -1.2166 -1.3172  0.2340
 8719SOL    MW434650   4.191   3.235   3.765 -0.5810 -0.9130 -0.1187
 8720SOL     OW34651   4.752   1.338   3.023  0.4877  0.2719  0.0418
 8720SOL    HW234652   4.714   1.250   3.026 -1.8620  1.2118 -0.7193
 8720SOL    HW334653   4.813   1.335   2.949  0.1683 -0.6266 -0.1972
 8720SOL    MW434654   4.755   1.326   3.014  0.1355  0.2773 -0.0901
 8721SOL     OW34655   0.641   3.280   6.324 -0.3844  0.0061  0.0551
 8721SOL    HW234656   0.616   3.313   6.238 -0.5857  0.5677  0.3206
 8721SOL    HW334657   0.703   3.345   6.357 -0.1772 -0.2949  0.2636
 8721SOL    MW434658   0.646   3.293   6.317 -0.3836  0.0405  0.1176
 8722SOL     OW34659   1.345   4.633   2.648 -0.2189  0.8799  0.2963
 8722SOL    HW234660   1.314   4.656   2.735 -0.8453  1.7314 -0.1456
 8722SOL    HW334661   1.287   4.679   2.588 -1.9951 -2.2925 -0.6806
 8722SOL    MW434662   1.333   4.642   2.651 -0.5359  0.5737  0.1091
 8723SOL     OW34663   4.059   3.843   5.233 -0.7969  0.2745  0.2479
 8723SOL    HW234664   4.098   3.854   5.319 -0.9585  0.3365  0.3148
 8723SOL    HW334665   4.132   3.846   5.172 -0.4743 -1.4695  0.5084
 8723SOL    MW434666   4.074   3.845   5.236 -0.7756  0.0526  0.2911
 8724SOL     OW34667   1.511   1.470   4.857 -0.2730 -0.4979  0.0409
 8724SOL    HW234668   1.541   1.489   4.946  3.0986 -0.2582 -0.9929
 8724SOL    HW334669   1.476   1.381   4.862 -0.6395 -0.2900  1.6929
 8724SOL    MW434670   1.511   1.461   4.869  0.1235 -0.4388  0.1224
 8725SOL     OW34671   4.081   5.355   0.776 -0.1234 -0.1898  0.6543
 8725SOL    HW234672   4.034   5.333   0.856  1.1447  0.7805  1.7205
 8725SOL    HW334673   4.171   5.371   0.805  0.4401 -0.1443 -1.0226
 8725SOL    MW434674   4.087   5.354   0.790  0.1183 -0.0558  0.5737
 8726SOL     OW34675   6.348   1.098   1.787 -0.1091  0.2034 -0.3471
 8726SOL    HW234676   6.296   1.032   1.833 -0.6847  1.7980  1.4183
 8726SOL    HW334677   6.295   1.121   1.711 -1.8277  1.4157  1.1327
 8726SOL    MW434678   6.334   1.092   1.783 -0.4118  0.5737  0.0810
 8727SOL     OW34679   3.022   5.733   6.197 -0.2467  0.2704 -0.1523
 8727SOL    HW234680   3.055   5.728   6.287 -0.6325 -0.1402 -0.0253
 8727SOL    HW334681   2.933   5.697   6.203 -0.3609  0.4632 -0.6566
 8727SOL    MW434682   3.014   5.728   6.210 -0.3127  0.2416 -0.2021
 8728SOL     OW34683   5.312   4.522   1.513  0.3621 -0.2998 -0.2602
 8728SOL    HW234684   5.275   4.513   1.425  2.7444  1.2408 -1.5295
 8728SOL    HW334685   5.340   4.614   1.518  1.3336 -0.6524  1.6606
 8728SOL    MW434686   5.311   4.533   1.502  0.8046 -0.1431 -0.1743
 8729SOL     OW34687   3.812   1.139   4.427 -0.1736  0.1058  0.0877
 8729SOL    HW234688   3.791   1.229   4.403 -1.7849 -0.1955  0.2917
 8729SOL    HW334689   3.816   1.140   4.522 -0.7094 -0.1469  0.1129
 8729SOL    MW434690   3.810   1.151   4.436 -0.4569  0.0327  0.1180
 8730SOL     OW34691   0.284   2.286   2.370  0.1556  0.1573  0.2569
 8730SOL    HW234692   0.222   2.214   2.382 -1.3344  1.4554  0.6549
 8730SOL    HW334693   0.360   2.245   2.329 -1.3946 -1.3152 -1.3321
 8730SOL    MW434694   0.285   2.271   2.366 -0.2455  0.1343  0.0997
 8731SOL     OW34695   1.851   1.871   4.344  0.0637  0.4957 -0.5737
 8731SOL    HW234696   1.791   1.946   4.344 -1.6075 -0.7882  0.4186
 8731SOL    HW334697   1.884   1.867   4.434 -1.6254 -1.2396  0.0459
 8731SOL    MW434698   1.847   1.881   4.356 -0.3796  0.0974 -0.3611
 8732SOL     OW34699   6.061   2.957   1.122  0.2709 -0.1427  0.3536
 8732SOL    HW234700   6.114   2.880   1.143 -0.5508 -1.0776 -0.8804
 8732SOL    HW334701   6.106   2.997   1.047 -0.5757 -0.7969 -0.5350
 8732SOL    MW434702   6.074   2.952   1.115  0.0508 -0.3523  0.0735
 8733SOL     OW34703   3.435   0.540   0.514 -0.0564  0.2110 -0.0301
 8733SOL    HW234704   3.443   0.448   0.540  0.4809 -0.1553 -1.4126
 8733SOL    HW334705   3.519   0.578   0.536 -0.2596  0.3615  0.4914
 8733SOL    MW434706   3.447   0.532   0.520 -0.0123  0.1825 -0.1437
 8734SOL     OW34707   0.828   0.522   4.497 -0.0113 -0.1798 -0.1877
 8734SOL    HW234708   0.799   0.452   4.438  1.6280 -2.1449  1.2180
 8734SOL    HW334709   0.898   0.567   4.449  1.9427 -2.3409  0.4910
 8734SOL    MW434710   0.833   0.519   4.483  0.4628 -0.7242  0.0873
 8735SOL     OW34711   2.913   2.242   1.898 -0.4800  0.2702  0.3371
 8735SOL    HW234712   2.881   2.153   1.910 -2.4518  0.7691 -0.8339
 8735SOL    HW334713   3.005   2.231   1.873 -0.2868 -1.3295  1.5627
 8735SOL    MW434714   2.921   2.229   1.896 -0.7147  0.1250  0.3443
 8736SOL     OW34715   4.785   1.549   0.346  0.2339 -1.1271  0.0481
 8736SOL    HW234716   4.723   1.488   0.305  1.6341 -1.0962 -2.2563
 8736SOL    HW334717   4.847   1.571   0.277  0.9562  1.3790  1.3761
 8736SOL    MW434718   4.785   1.544   0.331  0.5139 -0.7924 -0.0807
 8737SOL     OW34719   1.359   1.582   5.934 -0.6407 -0.2933  1.0482
 8737SOL    HW234720   1.453   1.590   5.949 -0.5038 -0.5481  0.3189
 8737SOL    HW334721   1.320   1.611   6.017  0.0073  1.9768  0.6396
 8737SOL    MW434722   1.366   1.587   5.947 -0.5371 -0.0274  0.8981
 8738SOL     OW34723   5.179   4.150   2.238  0.0436  0.0261  0.5990
 8738SOL    HW234724   5.108   4.095   2.204 -0.3494  0.6430  0.3966
 8738SOL    HW334725   5.237   4.162   2.163  0.8040 -1.1421  0.9734
 8738SOL    MW434726   5.177   4.144   2.223  0.0921 -0.0467  0.6217
 8739SOL     OW34727   5.713   5.862   4.524 -0.5841 -0.2904 -0.1484
 8739SOL    HW234728   5.744   5.806   4.452 -1.3190  1.5841 -2.0351
 8739SOL    HW334729   5.790   5.878   4.577  0.4245 -0.3080 -1.5405
 8739SOL    MW434730   5.727   5.857   4.521 -0.5480 -0.0454 -0.5810
 8740SOL     OW34731   1.922   3.481   2.786 -0.2842  0.0838  0.2655
 8740SOL    HW234732   2.013   3.510   2.793 -0.2969  0.9011 -2.0109
 8740SOL    HW334733   1.928   3.394   2.748 -0.4088 -1.1938  2.9865
 8740SOL    MW434734   1.935   3.474   2.782 -0.3023  0.0231  0.3242
 8741SOL     OW34735   1.925   4.470   5.135  0.1866 -0.4258  0.0948
 8741SOL    HW234736   1.920   4.461   5.040 -0.1326  0.3555  0.0299
 8741SOL    HW334737   1.925   4.380   5.168  0.1965 -0.6979 -0.6370
 8741SOL    MW434738   1.924   4.457   5.127  0.1458 -0.3586 -0.0103
 8742SOL     OW34739   4.434   0.625   0.714 -0.3517  0.4648 -0.1549
 8742SOL    HW234740   4.421   0.543   0.760 -0.7278 -0.1900 -1.3870
 8742SOL    HW334741   4.374   0.686   0.756 -0.5871 -0.0809  0.3082
 8742SOL    MW434742   4.425   0.622   0.725 -0.4324  0.3064 -0.2564
 8743SOL     OW34743   6.378   5.439   4.978  0.1901  0.1606 -0.3352
 8743SOL    HW234744   6.389   5.348   5.006 -0.9551 -0.1767 -0.8905
 8743SOL    HW334745   6.292   5.464   5.013  0.4536  0.9956 -0.2767
 8743SOL    MW434746   6.368   5.430   4.986  0.0738  0.2263 -0.4008
 8744SOL     OW34747   4.775   5.358   3.564 -0.0614  0.2435  0.3188
 8744SOL    HW234748   4.835   5.422   3.526 -0.3494  0.1702 -0.2659
 8744SOL    HW334749   4.801   5.274   3.525 -1.7548  0.4721 -1.4489
 8744SOL    MW434750   4.786   5.355   3.554 -0.3228  0.2640  0.0085
 8745SOL     OW34751   4.718   6.152   3.963 -0.0658 -0.0138  0.2939
 8745SOL    HW234752   4.623   6.160   3.949  0.0208 -0.5331 -0.7207
 8745SOL    HW334753   4.754   6.232   3.925  0.1293 -1.2189 -2.3309
 8745SOL    MW434754   4.710   6.163   3.956 -0.0287 -0.2413 -0.1862
 8746SOL     OW34755   2.665   4.587   2.451 -0.1833  0.6402 -0.1985
 8746SOL    HW234756   2.601   4.521   2.476  0.3555  0.7917  1.7999
 8746SOL    HW334757   2.748   4.554   2.485  0.2912  1.7784 -0.2019
 8746SOL    MW434758   2.667   4.574   2.459 -0.0496  0.8104  0.0647
 8747SOL     OW34759   5.075   3.227   2.914  0.0063 -0.3121  0.0401
 8747SOL    HW234760   4.995   3.190   2.951 -0.3839  0.9483  0.5061
 8747SOL    HW334761   5.069   3.210   2.820 -1.2777  0.5901 -0.0649
 8747SOL    MW434762   5.064   3.220   2.907 -0.2146 -0.0268  0.0877
 8748SOL     OW34763   5.508   1.628   3.663 -0.3567  0.1271  0.2287
 8748SOL    HW234764   5.413   1.618   3.653 -0.1852 -0.2493 -1.2692
 8748SOL    HW334765   5.529   1.709   3.618  0.0456  0.2175  0.5679
 8748SOL    MW434766   5.498   1.637   3.656 -0.2810  0.0894  0.0759
 8749SOL     OW34767   0.813   6.208   4.895  0.1072  0.1847 -0.1839
 8749SOL    HW234768   0.806   6.133   4.955  0.6144 -0.3606 -0.7886
 8749SOL    HW334769   0.900   6.244   4.912 -0.1107  0.5930  0.0584
 8749SOL    MW434770   0.823   6.203   4.905  0.1454  0.1666 -0.2317
 8750SOL     OW34771   1.740   5.477   2.912  0.2805 -0.0066 -0.6138
 8750SOL    HW234772   1.723   5.542   2.844  0.1114  1.9646  1.1735
 8750SOL    HW334773   1.710   5.520   2.993  0.9426 -2.0177  0.7688
 8750SOL    MW434774   1.733   5.491   2.914  0.3455 -0.0119 -0.1956
 8751SOL     OW34775   0.116   0.523   2.719 -0.5995 -0.4275 -0.3677
 8751SOL    HW234776   0.202   0.493   2.689  0.4148  0.7672  1.1825
 8751SOL    HW334777   0.064   0.530   2.639  1.4557  1.0496 -1.6681
 8751SOL    MW434778   0.121   0.520   2.705 -0.1945 -0.0750 -0.3347
 8752SOL     OW34779   1.876   0.844   1.849  0.4653  0.9356 -0.1468
 8752SOL    HW234780   1.920   0.898   1.916  1.3826 -0.5782  0.5296
 8752SOL    HW334781   1.948   0.811   1.796 -0.0424  0.0490 -0.2886
 8752SOL    MW434782   1.892   0.847   1.851  0.5193  0.6189 -0.0762
 8753SOL     OW34783   4.905   5.770   4.699  0.0698  0.4982  0.0269
 8753SOL    HW234784   4.868   5.784   4.786  0.3390  0.6807  0.1113
 8753SOL    HW334785   4.997   5.795   4.707  1.1158 -3.0557  0.6946
 8753SOL    MW434786   4.912   5.775   4.712  0.2433  0.0534  0.1262
 8754SOL     OW34787   4.717   2.977   3.241  0.4316 -0.1236 -0.2892
 8754SOL    HW234788   4.790   2.918   3.223  1.9041  0.5959  2.7228
 8754SOL    HW334789   4.737   3.015   3.327 -2.2827  1.9864 -0.4510
 8754SOL    MW434790   4.729   2.974   3.250  0.2677  0.2497  0.0868
 8755SOL     OW34791   6.240   1.792   4.568  0.2928  0.3640  0.0138
 8755SOL    HW234792   6.167   1.830   4.520  1.2156 -0.7962 -2.4799
 8755SOL    HW334793   6.248   1.846   4.647 -2.8774  0.8334  0.1331
 8755SOL    MW434794   6.231   1.804   4.572 -0.0037  0.2728 -0.2995
 8756SOL     OW34795   0.154   2.348   1.538 -0.1313 -0.5709  0.2515
 8756SOL    HW234796   0.225   2.344   1.474  0.7722  0.8981  1.1197
 8756SOL    HW334797   0.079   2.379   1.488  0.7802  1.4075  0.0152
 8756SOL    MW434798   0.154   2.351   1.523  0.1082 -0.1160  0.3349
 8757SOL     OW34799   6.087   1.732   5.591 -0.9402 -0.3029 -0.3660
 8757SOL    HW234800   6.174   1.770   5.579 -0.3838 -1.1105  0.8409
 8757SOL    HW334801   6.026   1.802   5.569  0.0122  0.3020 -1.1430
 8757SOL    MW434802   6.091   1.746   5.587 -0.7412 -0.3296 -0.3092
 8758SOL     OW34803   6.218   1.514   2.612 -0.0730  0.0480  0.7050
 8758SOL    HW234804   6.236   1.477   2.698 -1.3143 -2.0888  0.1161
 8758SOL    HW334805   6.269   1.460   2.552 -0.9903  0.0378 -0.0825
 8758SOL    MW434806   6.227   1.502   2.616 -0.3578 -0.2353  0.5234
 8759SOL     OW34807   1.316   4.906   1.739 -0.7429  0.0844 -0.2158
 8759SOL    HW234808   1.326   4.941   1.650 -0.6287  0.2685 -0.1294
 8759SOL    HW334809   1.388   4.944   1.788 -1.5912  1.0696  0.2990
 8759SOL    MW434810   1.327   4.915   1.734 -0.8398  0.2386 -0.1365
 8760SOL     OW34811   1.292   3.717   4.738 -0.2463  1.1241 -0.2508
 8760SOL    HW234812   1.208   3.673   4.724  0.3513  0.2973 -1.3409
 8760SOL    HW334813   1.334   3.668   4.808  0.8089 -0.7138 -2.0554
 8760SOL    MW434814   1.286   3.705   4.745 -0.0282  0.7725 -0.6327
 8761SOL     OW34815   1.241   3.849  -0.020 -0.3265  0.3284  0.1596
 8761SOL    HW234816   1.269   3.829   0.070  0.8054 -2.6407 -0.7444
 8761SOL    HW334817   1.206   3.767  -0.053  2.1161  0.4145 -3.0872
 8761SOL    MW434818   1.240   3.836  -0.012  0.1451 -0.0520 -0.3880
 8762SOL     OW34819   4.623   0.394   0.973  0.2341 -0.2273 -0.5528
 8762SOL    HW234820   4.573   0.376   0.893  0.3972 -0.5975 -0.5762
 8762SOL    HW334821   4.610   0.316   1.026 -1.7042  0.9074  0.7489
 8762SOL    MW434822   4.615   0.381   0.969 -0.0001 -0.1264 -0.3841
 8763SOL     OW34823   4.662   4.929   0.690 -0.0514  0.5666  0.1272
 8763SOL    HW234824   4.747   4.971   0.682 -0.6858  1.7875 -0.3938
 8763SOL    HW334825   4.680   4.850   0.742  1.1106  1.6452  1.4681
 8763SOL    MW434826   4.676   4.924   0.696  0.0182  0.8700  0.2353
 8764SOL     OW34827   4.247   3.654   2.214 -0.6178  0.5723  0.8236
 8764SOL    HW234828   4.268   3.568   2.177  0.1977  1.3880 -0.6907
 8764SOL    HW334829   4.266   3.645   2.308 -1.2753 -1.1010  0.8318
 8764SOL    MW434830   4.252   3.641   2.222 -0.5970  0.4592  0.6249
 8765SOL     OW34831   4.103   1.075   1.482  0.4729  0.0195  0.2388
 8765SOL    HW234832   4.159   1.035   1.548  1.5378  2.0079  0.6205
 8765SOL    HW334833   4.163   1.099   1.411 -0.1196  0.8448  0.0026
 8765SOL    MW434834   4.119   1.073   1.481  0.5352  0.3907  0.2580
 8766SOL     OW34835   3.861   4.475   4.986  0.0868  0.1726 -0.1269
 8766SOL    HW234836   3.916   4.463   4.909 -0.4067  0.7861 -0.5918
 8766SOL    HW334837   3.899   4.418   5.052  1.4726  0.7983 -0.3356
 8766SOL    MW434838   3.874   4.466   4.985  0.2045  0.3361 -0.2158
 8767SOL     OW34839   0.060   1.256   5.581 -0.0529 -0.3107 -0.1200
 8767SOL    HW234840  -0.005   1.196   5.543 -1.1160  0.5995  0.1900
 8767SOL    HW334841   0.117   1.201   5.633  0.3521 -1.3490 -1.6102
 8767SOL    MW434842   0.059   1.241   5.583 -0.1398 -0.3276 -0.2758
 8768SOL     OW34843   3.623   2.940   0.357  0.3294 -0.2604  0.6225
 8768SOL    HW234844   3.650   2.970   0.270 -1.5582  1.0115  0.4097
 8768SOL    HW334845   3.603   2.847   0.346  0.4580 -0.1931 -0.2308
 8768SOL    MW434846   3.624   2.932   0.344  0.0973 -0.0837  0.4819
 8769SOL     OW34847   5.037   5.407   0.937 -0.5895 -0.1116 -0.1227
 8769SOL    HW234848   5.007   5.473   0.875 -0.8255 -0.1205 -0.0205
 8769SOL    HW334849   5.108   5.361   0.892 -0.4702  0.1667 -0.2193
 8769SOL    MW434850   5.043   5.409   0.923 -0.6049 -0.0760 -0.1219
 8770SOL     OW34851   3.966   1.596   1.489 -0.3199  0.4691 -0.2893
 8770SOL    HW234852   3.996   1.590   1.580 -0.0745  1.0228 -0.3328
 8770SOL    HW334853   4.015   1.528   1.443  1.4839  1.8699 -0.5231
 8770SOL    MW434854   3.976   1.586   1.495 -0.0496  0.7269 -0.3259
 8771SOL     OW34855   5.658   4.578   2.326 -0.4076  0.5862 -0.5731
 8771SOL    HW234856   5.627   4.603   2.413 -0.1248  0.4258 -0.4288
 8771SOL    HW334857   5.596   4.511   2.297 -1.7285  2.0527 -1.3357
 8771SOL    MW434858   5.645   4.573   2.334 -0.5446  0.7585 -0.6547
 8772SOL     OW34859   1.211   6.124   4.749  0.1810  0.0805  0.0850
 8772SOL    HW234860   1.178   6.201   4.796 -1.6773 -0.6381  0.0128
 8772SOL    HW334861   1.136   6.091   4.701  1.5958 -0.2847 -1.9884
 8772SOL    MW434862   1.197   6.130   4.749  0.1225 -0.0625 -0.1981
 8773SOL     OW34863   1.653   2.435   4.320  0.0282 -0.2500  0.4578
 8773SOL    HW234864   1.661   2.352   4.366 -2.1254 -0.5446  0.4082
 8773SOL    HW334865   1.605   2.491   4.381  0.0413  0.4234 -0.1373
 8773SOL    MW434866   1.647   2.432   4.334 -0.2542 -0.2000  0.3727
 8774SOL     OW34867   0.665   2.059   5.331  0.0551 -0.2518 -0.3205
 8774SOL    HW234868   0.603   2.100   5.392 -0.0395 -1.7058  0.5983
 8774SOL    HW334869   0.637   2.090   5.244 -1.0843  0.2213  0.1946
 8774SOL    MW434870   0.653   2.069   5.327 -0.1077 -0.3812 -0.1313
 8775SOL     OW34871   3.662   5.933   4.770  0.1592 -0.1534  0.0255
 8775SOL    HW234872   3.642   6.008   4.714 -1.3388  0.9656  1.9180
 8775SOL    HW334873   3.737   5.962   4.823 -0.4998  0.0921  0.8465
 8775SOL    MW434874   3.669   5.947   4.769 -0.1254  0.0266  0.3835
 8776SOL     OW34875   2.997   2.325   2.384  0.1551  0.2099 -0.7526
 8776SOL    HW234876   2.939   2.344   2.310 -1.4278 -0.2727  0.3155
 8776SOL    HW334877   3.055   2.400   2.388 -1.0491  1.2131 -1.2563
 8776SOL    MW434878   2.997   2.338   2.375 -0.2126  0.2786 -0.6781
 8777SOL     OW34879   0.338   1.815  -0.016  0.6087  1.1863  0.0318
 8777SOL    HW234880   0.390   1.739   0.012 -0.7731 -1.2748 -3.3593
 8777SOL    HW334881   0.391   1.855  -0.085 -0.3383  0.8991 -0.8813
 8777SOL    MW434882   0.352   1.810  -0.021  0.3015  0.8237 -0.5361
 8778SOL     OW34883   1.739   0.985   3.512  0.5008 -0.5149 -0.4028
 8778SOL    HW234884   1.833   0.998   3.496  0.3125  2.6792  0.4858
 8778SOL    HW334885   1.699   1.069   3.489 -1.8506 -1.0296  1.4540
 8778SOL    MW434886   1.746   0.997   3.507  0.1657 -0.1614 -0.0406
 8779SOL     OW34887   4.969   2.044   6.087  0.4351 -0.1370  0.0754
 8779SOL    HW234888   4.930   2.104   6.151  0.3049 -1.2537  1.0796
 8779SOL    HW334889   4.898   1.984   6.066  0.6951 -0.2203 -0.5647
 8779SOL    MW434890   4.954   2.044   6.093  0.4522 -0.2953  0.1234
 8780SOL     OW34891   1.306   3.323   6.239  0.2095  0.1608  0.0537
 8780SOL    HW234892   1.309   3.258   6.310  2.2724  0.7323  0.5608
 8780SOL    HW334893   1.214   3.324   6.212 -0.4776 -0.7290  2.0992
 8780SOL    MW434894   1.294   3.314   6.245  0.3910  0.1188  0.3905
 8781SOL     OW34895   1.467   4.451   3.107 -0.5293  0.0107 -0.1547
 8781SOL    HW234896   1.525   4.490   3.042  0.2118 -1.3497 -0.3384
 8781SOL    HW334897   1.457   4.519   3.174  1.2675  0.2899 -0.1182
 8781SOL    MW434898   1.473   4.465   3.107 -0.1945 -0.1319 -0.1741
 8782SOL     OW34899   0.998   5.203   4.837 -0.1928 -0.3006  0.3711
 8782SOL    HW234900   1.004   5.108   4.846 -0.7833 -0.4273 -0.4661
 8782SOL    HW334901   0.938   5.217   4.764  0.1489  0.7169  0.2630
 8782SOL    MW434902   0.991   5.192   4.829 -0.2256 -0.1831  0.2464
 8783SOL     OW34903   4.129   4.571   0.302  0.3250  0.2527  0.1787
 8783SOL    HW234904   4.067   4.546   0.233  1.0864 -1.4697  0.0654
 8783SOL    HW334905   4.092   4.651   0.339 -0.6923  0.6109 -1.4730
 8783SOL    MW434906   4.116   4.578   0.297  0.2912  0.0727 -0.0542
 8784SOL     OW34907   3.336   4.085   2.547  0.5326  0.3238 -0.9504
 8784SOL    HW234908   3.260   4.087   2.605 -0.5996 -0.1783 -2.3463
 8784SOL    HW334909   3.393   4.154   2.579  2.1678 -2.6199  3.5675
 8784SOL    MW434910   3.334   4.094   2.559  0.5990 -0.1309 -0.5385
 8785SOL     OW34911   5.784   3.655   3.849 -0.6512  0.2332  0.1910
 8785SOL    HW234912   5.784   3.719   3.777  2.2692  1.1489  0.8626
 8785SOL    HW334913   5.865   3.606   3.836 -0.0311  0.4479  2.8388
 8785SOL    MW434914   5.794   3.657   3.838 -0.1841  0.3824  0.6290
 8786SOL     OW34915   5.199   3.639   3.431  0.0481 -0.0322 -0.4366
 8786SOL    HW234916   5.281   3.668   3.472  0.8569 -0.7800 -1.4579
 8786SOL    HW334917   5.181   3.706   3.364 -1.2106  1.1279  0.9880
 8786SOL    MW434918   5.207   3.652   3.427 -0.0112  0.0222 -0.3834
 8787SOL     OW34919   0.261   5.003   0.709 -0.8958  0.2183  0.0319
 8787SOL    HW234920   0.232   5.074   0.652 -0.8041  0.5188  0.3558
 8787SOL    HW334921   0.204   4.930   0.686 -2.0068  0.8276  0.7345
 8787SOL    MW434922   0.250   5.003   0.698 -1.0303  0.3384  0.1673
 8788SOL     OW34923   0.809   0.302   3.883 -0.0032  0.2176  0.4060
 8788SOL    HW234924   0.797   0.312   3.789 -0.7847  1.5192  0.6207
 8788SOL    HW334925   0.900   0.330   3.898 -0.2749  1.2710  0.1843
 8788SOL    MW434926   0.820   0.307   3.873 -0.1422  0.5283  0.4051
 8789SOL     OW34927   3.869   5.614   2.214 -0.2047  0.2409 -0.6055
 8789SOL    HW234928   3.865   5.659   2.298 -0.9192  1.1336 -1.0929
 8789SOL    HW334929   3.778   5.610   2.184  0.0092 -0.2951 -1.2195
 8789SOL    MW434930   3.856   5.620   2.221 -0.2708  0.2880 -0.7508
 8790SOL     OW34931   5.795   4.273   5.227  0.2383  0.0720  0.2212
 8790SOL    HW234932   5.725   4.305   5.170 -0.1873  1.0261  1.2544
 8790SOL    HW334933   5.786   4.178   5.224 -0.5512  0.1506 -0.3332
 8790SOL    MW434934   5.784   4.265   5.219  0.0780  0.2082  0.2843
 8791SOL     OW34935   3.180   0.969   4.574  0.0995  0.0805 -0.2282
 8791SOL    HW234936   3.108   1.021   4.536  1.0415  1.2832 -0.4123
 8791SOL    HW334937   3.152   0.878   4.561 -1.9623  0.4947  0.8134
 8791SOL    MW434938   3.167   0.963   4.567 -0.0482  0.2938 -0.1150
 8792SOL     OW34939   2.851   1.337   2.542 -0.5509  0.0414  0.0474
 8792SOL    HW234940   2.874   1.357   2.632 -1.9469 -0.7914  0.6265
 8792SOL    HW334941   2.895   1.254   2.524 -1.1987 -0.3785  0.3676
 8792SOL    MW434942   2.860   1.329   2.551 -0.8205 -0.1239  0.1661
 8793SOL     OW34943   3.958   2.266   3.831 -0.4840  0.1088  0.6805
 8793SOL    HW234944   4.036   2.285   3.884 -0.1558 -1.4451  0.8210
 8793SOL    HW334945   3.896   2.229   3.894 -0.9070  0.2829  0.3629
 8793SOL    MW434946   3.960   2.264   3.846 -0.4965 -0.0732  0.6571
 8794SOL     OW34947   2.941   4.191   4.488  0.4463 -0.3139 -0.4084
 8794SOL    HW234948   2.939   4.284   4.515  1.2978 -0.6533  0.9591
 8794SOL    HW334949   3.030   4.162   4.511 -0.7375 -2.2883  2.2841
 8794SOL    MW434950   2.952   4.200   4.495  0.4024 -0.6192  0.1273
 8795SOL     OW34951   2.894   3.302   0.919  0.1971  0.1442 -0.0434
 8795SOL    HW234952   2.855   3.215   0.915 -1.7258  0.9566 -0.2099
 8795SOL    HW334953   2.846   3.347   0.989  0.9918  1.1545 -0.1199
 8795SOL    MW434954   2.882   3.297   0.928  0.0483  0.3847 -0.0755
 8796SOL     OW34955   5.218   2.921   3.173 -0.3898  0.2273 -0.0762
 8796SOL    HW234956   5.251   2.880   3.092  0.8832  1.1714 -0.0721
 8796SOL    HW334957   5.243   2.860   3.242 -1.5350 -0.6161 -0.3744
 8796SOL    MW434958   5.226   2.907   3.171 -0.3729  0.2406 -0.1150
 8797SOL     OW34959   5.897   4.462   2.238 -0.2527 -0.6950 -0.2194
 8797SOL    HW234960   5.965   4.528   2.256  0.8322 -1.7552 -0.2854
 8797SOL    HW334961   5.815   4.506   2.260  0.4253  0.7120 -0.3592
 8797SOL    MW434962   5.895   4.476   2.243 -0.0201 -0.6493 -0.2466
 8798SOL     OW34963   5.605   5.510   0.322 -0.1338  0.4434 -0.1924
 8798SOL    HW234964   5.599   5.502   0.227  1.6521  0.5215 -0.3511
 8798SOL    HW334965   5.674   5.576   0.336 -1.4521  1.6204  1.1557
 8798SOL    MW434966   5.613   5.518   0.311 -0.0721  0.6090 -0.0355
 8799SOL     OW34967   4.265   4.434   2.653  0.4120  0.7808  0.1168
 8799SOL    HW234968   4.316   4.465   2.578  3.2607 -0.3991  1.4227
 8799SOL    HW334969   4.268   4.506   2.716  3.3212 -0.2730  1.4065
 8799SOL    MW434970   4.272   4.448   2.651  1.1717  0.4861  0.4593
 8800SOL     OW34971   6.072   2.830   3.456 -0.1054  0.2536  0.0200
 8800SOL    HW234972   5.979   2.851   3.461 -0.4276 -1.2978  0.8283
 8800SOL    HW334973   6.099   2.813   3.546  1.4973  2.6513  0.1100
 8800SOL    MW434974   6.063   2.831   3.468  0.0635  0.3652  0.1385
 8801SOL     OW34975   2.452   0.562   5.476  0.2958 -0.5860  0.9572
 8801SOL    HW234976   2.455   0.480   5.526  1.1817 -1.0917  0.1150
 8801SOL    HW334977   2.544   0.590   5.471  0.3054 -0.8169 -0.7747
 8801SOL    MW434978   2.465   0.555   5.482  0.4140 -0.6832  0.6176
 8802SOL     OW34979   6.183   2.051   0.449 -0.4668 -0.1123  0.1533
 8802SOL    HW234980   6.140   2.027   0.367 -2.2353 -1.3510  1.3802
 8802SOL    HW334981   6.125   2.117   0.487  0.2828  0.3715  0.4696
 8802SOL    MW434982   6.170   2.057   0.443 -0.6012 -0.2119  0.3569
 8803SOL     OW34983   2.177   0.092   0.195  0.0855 -0.2790  0.3147
 8803SOL    HW234984   2.229   0.016   0.220 -0.7911 -0.8977  0.2877
 8803SOL    HW334985   2.161   0.139   0.277  0.3392 -0.3041  0.3796
 8803SOL    MW434986   2.182   0.089   0.209  0.0033 -0.3639  0.3197
 8804SOL     OW34987   2.098   3.729   4.257  0.0888 -0.0037 -0.3705
 8804SOL    HW234988   2.104   3.812   4.210  1.0661  0.0564 -0.1617
 8804SOL    HW334989   2.073   3.665   4.191 -3.9184  0.8956 -0.0332
 8804SOL    MW434990   2.095   3.732   4.242 -0.3110  0.1229 -0.2985
 8805SOL     OW34991   4.990   1.132   1.983  0.2348 -0.4853  0.4135
 8805SOL    HW234992   5.049   1.108   1.912  0.3690 -1.0648  0.7182
 8805SOL    HW334993   5.022   1.217   2.014  1.2494 -1.0462  0.9328
 8805SOL    MW434994   5.002   1.140   1.978  0.3864 -0.6358  0.5222
 8806SOL     OW34995   3.627   2.640   3.708 -0.1733  0.3357  0.0582
 8806SOL    HW234996   3.721   2.632   3.723 -0.2890 -0.6325  0.3250
 8806SOL    HW334997   3.587   2.632   3.794 -0.4955  0.8868 -0.0356
 8806SOL    MW434998   3.634   2.637   3.721 -0.2311  0.2807  0.0810
 8807SOL     OW34999   0.912   2.460   2.633 -0.1875  0.0446 -0.7850
 8807SOL    HW235000   0.841   2.459   2.698 -1.1081  0.5887 -1.7411
 8807SOL    HW335001   0.916   2.551   2.604 -0.5782 -0.4055 -2.3000
 8807SOL    MW435002   0.903   2.472   2.638 -0.3605  0.0570 -1.1111
 8808SOL     OW35003   2.814   2.638   2.057 -0.3191 -0.1858 -0.2305
 8808SOL    HW235004   2.748   2.703   2.084 -0.1184  0.0752 -0.3591
 8808SOL    HW335005   2.788   2.558   2.102 -1.5842 -0.4791 -1.4252
 8808SOL    MW435006   2.802   2.636   2.067 -0.4596 -0.1901 -0.4050
 8809SOL     OW35007   2.934   3.813   5.867 -0.2844  0.6175  0.1056
 8809SOL    HW235008   2.969   3.835   5.954  0.3243  1.0573 -0.2484
 8809SOL    HW335009   3.007   3.827   5.807 -0.5332 -0.2365 -0.4169
 8809SOL    MW435010   2.949   3.818   5.871 -0.2369  0.5629 -0.0100
 8810SOL     OW35011   1.529   3.219   1.997 -0.3979 -0.5761  0.2578
 8810SOL    HW235012   1.584   3.258   2.065 -3.6064  1.1282  2.1376
 8810SOL    HW335013   1.563   3.255   1.915  0.3472  1.6149  1.4460
 8810SOL    MW435014   1.541   3.229   1.995 -0.7229 -0.0621  0.6626
 8811SOL     OW35015   4.998   0.479   4.442  0.0757 -0.1236 -0.0948
 8811SOL    HW235016   5.020   0.449   4.354 -1.5331 -0.7139 -0.3214
 8811SOL    HW335017   5.082   0.479   4.489  0.9061 -0.0750 -1.5248
 8811SOL    MW435018   5.012   0.475   4.437 -0.0270 -0.1951 -0.3133
 8812SOL     OW35019   6.229   5.755   4.325  0.1329 -0.0292  0.4828
 8812SOL    HW235020   6.249   5.794   4.239  0.6388  0.6691  0.8994
 8812SOL    HW335021   6.315   5.734   4.361 -0.0971 -0.6273  0.6814
 8812SOL    MW435022   6.243   5.757   4.318  0.1693 -0.0160  0.5639
 8813SOL     OW35023   4.306   3.911   4.427  0.4495 -0.5367  0.3389
 8813SOL    HW235024   4.282   3.963   4.504  1.5316  0.3490  0.0995
 8813SOL    HW335025   4.395   3.939   4.406 -0.0679 -0.2804 -1.6546
 8813SOL    MW435026   4.315   3.921   4.434  0.5240 -0.3860  0.0443
 8814SOL     OW35027   0.454   0.386   4.281  0.4303  1.0829 -0.9924
 8814SOL    HW235028   0.457   0.311   4.221  1.3281  0.4268 -0.1694
 8814SOL    HW335029   0.375   0.434   4.257 -0.3596 -0.3320 -1.3125
 8814SOL    MW435030   0.444   0.382   4.270  0.4445  0.8096 -0.9260
 8815SOL     OW35031   5.994   6.384   2.424 -0.0155  0.1521 -0.3758
 8815SOL    HW235032   6.041   6.443   2.482 -0.5303  0.5962 -0.3976
 8815SOL    HW335033   5.939   6.332   2.482 -0.2209  0.3088 -0.4280
 8815SOL    MW435034   5.993   6.385   2.439 -0.1105  0.2314 -0.3856
 8816SOL     OW35035   3.511   0.630   0.216 -0.1410  0.0079  0.2036
 8816SOL    HW235036   3.601   0.610   0.243 -0.4126 -0.7666  0.5420
 8816SOL    HW335037   3.460   0.554   0.241 -0.8754  0.3726 -0.1359
 8816SOL    MW435038   3.516   0.617   0.223 -0.2737 -0.0462  0.2035
 8817SOL     OW35039   2.646   1.953   1.217 -0.0874  0.3903  0.6027
 8817SOL    HW235040   2.559   1.930   1.186  0.4129 -0.8876  0.0541
 8817SOL    HW335041   2.660   2.043   1.187  0.6400 -0.9347 -3.7781
 8817SOL    MW435042   2.637   1.962   1.209  0.0745  0.0469 -0.0477
 8818SOL     OW35043   1.433   1.881   1.999 -0.3350  0.0340 -0.2309
 8818SOL    HW235044   1.395   1.840   1.922  0.2133 -0.3725 -0.2958
 8818SOL    HW335045   1.497   1.943   1.965  2.1542 -2.2846 -0.1580
 8818SOL    MW435046   1.437   1.884   1.985  0.0658 -0.3256 -0.2299
 8819SOL     OW35047   2.115   5.157   5.054  0.6119  0.0693  0.1704
 8819SOL    HW235048   2.167   5.236   5.063  0.4212  0.4544 -1.7671
 8819SOL    HW335049   2.171   5.087   5.088  2.8067  0.3296 -2.5428
 8819SOL    MW435050   2.129   5.158   5.060  0.8763  0.1545 -0.4432
 8820SOL     OW35051   6.108   1.938   3.349 -0.7005 -0.3939 -0.0510
 8820SOL    HW235052   6.036   1.906   3.295 -1.1458  0.1469  0.2065
 8820SOL    HW335053   6.116   2.030   3.325  0.5457 -0.6766 -0.7738
 8820SOL    MW435054   6.099   1.946   3.339 -0.5948 -0.3598 -0.1124
 8821SOL     OW35055   1.208   5.849   0.822  0.0556 -0.0815  0.7716
 8821SOL    HW235056   1.155   5.876   0.747  1.0067  0.6394  0.3477
 8821SOL    HW335057   1.281   5.800   0.784 -1.5336 -3.2872  1.4891
 8821SOL    MW435058   1.210   5.846   0.808 -0.0286 -0.4094  0.8104
 8822SOL     OW35059   4.803   5.750   4.443  0.3098 -0.1504  0.0482
 8822SOL    HW235060   4.821   5.753   4.537 -1.0499  0.5715  0.3177
 8822SOL    HW335061   4.818   5.839   4.412 -4.2455  1.1028  0.6848
 8822SOL    MW435062   4.807   5.762   4.451 -0.4706  0.1102  0.1678
 8823SOL     OW35063   1.018   5.368   4.312  0.3027 -0.0844  0.0760
 8823SOL    HW235064   0.936   5.389   4.268 -0.4855 -2.0713  0.4803
 8823SOL    HW335065   1.010   5.275   4.334  1.8384  0.1651  1.9157
 8823SOL    MW435066   1.006   5.359   4.309  0.4013 -0.3136  0.3721
 8824SOL     OW35067   2.862   5.871   5.395 -0.2547  0.3451 -0.5410
 8824SOL    HW235068   2.948   5.869   5.437 -0.7257 -0.0018  0.4343
 8824SOL    HW335069   2.877   5.832   5.309  0.0538 -2.4089  0.6558
 8824SOL    MW435070   2.875   5.866   5.389 -0.2761 -0.0640 -0.2544
 8825SOL     OW35071   5.325   6.004   1.617 -0.1264  0.4223  0.2365
 8825SOL    HW235072   5.261   5.990   1.687 -4.0430  3.0657 -2.3934
 8825SOL    HW335073   5.337   5.917   1.578 -1.7687 -0.2542  1.1223
 8825SOL    MW435074   5.318   5.991   1.621 -0.8598  0.6818  0.0064
 8826SOL     OW35075   0.898   0.199   1.997  0.3491  0.2047  0.7547
 8826SOL    HW235076   0.886   0.129   2.061  2.5263 -0.9794 -0.0241
 8826SOL    HW335077   0.928   0.274   2.047  0.8826 -0.3429  1.2631
 8826SOL    MW435078   0.900   0.200   2.012  0.7067 -0.0238  0.7190
 8827SOL     OW35079   5.236   1.594   3.671  0.1462 -0.2833 -0.3349
 8827SOL    HW235080   5.147   1.629   3.660  0.0648 -0.3309  0.1466
 8827SOL    HW335081   5.234   1.509   3.627 -0.9851 -1.7501  2.3140
 8827SOL    MW435082   5.224   1.588   3.664 -0.0138 -0.4831  0.0781
 8828SOL     OW35083   2.501   6.206   5.785 -0.7153 -0.0485  0.2109
 8828SOL    HW235084   2.501   6.285   5.838  0.0741 -0.8284  1.4249
 8828SOL    HW335085   2.507   6.134   5.849  0.3515 -1.0146 -0.9264
 8828SOL    MW435086   2.502   6.207   5.800 -0.4704 -0.2789  0.2210
 8829SOL     OW35087   6.411   3.864   1.722 -0.5341  0.2405 -0.2072
 8829SOL    HW235088   6.373   3.883   1.636  0.2678  0.1462 -0.5945
 8829SOL    HW335089   6.372   3.781   1.748  0.8239 -0.8445 -1.4846
 8829SOL    MW435090   6.401   3.856   1.714 -0.2491  0.0849 -0.4269
 8830SOL     OW35091   0.333   0.673   1.640  0.9691  0.7636  0.8768
 8830SOL    HW235092   0.396   0.601   1.648  0.1660  0.0543  1.0333
 8830SOL    HW335093   0.276   0.647   1.568  0.0714  0.7573  1.5670
 8830SOL    MW435094   0.333   0.660   1.632  0.7447  0.6692  0.9885
 8831SOL     OW35095   1.912   2.816  -0.021  0.6861  0.3193  0.2071
 8831SOL    HW235096   1.982   2.861   0.027  1.7760 -0.6553 -0.4196
 8831SOL    HW335097   1.956   2.741  -0.061 -1.0719 -1.3282  1.2193
 8831SOL    MW435098   1.927   2.812  -0.020  0.5979 -0.0266  0.2579
 8832SOL     OW35099   2.597   4.909   4.933 -0.3438 -0.5156 -0.0278
 8832SOL    HW235100   2.520   4.952   4.971  0.9462  2.2409 -0.2868
 8832SOL    HW335101   2.653   4.890   5.009  0.0507  0.3625 -0.0892
 8832SOL    MW435102   2.594   4.912   4.948 -0.1215 -0.0361 -0.0701
 8833SOL     OW35103   3.445   3.135   4.038 -0.2583  0.2149  0.0152
 8833SOL    HW235104   3.360   3.092   4.048 -0.2470  0.3205  0.5725
 8833SOL    HW335105   3.457   3.185   4.118  0.7684 -0.5822  0.3930
 8833SOL    MW435106   3.436   3.136   4.050 -0.1214  0.1236  0.1385
 8834SOL     OW35107   3.146   4.503   4.234  0.4271  0.1086 -0.1033
 8834SOL    HW235108   3.162   4.413   4.206  0.6332 -0.7298  2.4486
 8834SOL    HW335109   3.228   4.548   4.217  1.2226 -0.8769  0.9555
 8834SOL    MW435110   3.159   4.497   4.228  0.5592 -0.1321  0.3731
 8835SOL     OW35111   4.708   4.516   5.472  0.1770  0.3201  0.1981
 8835SOL    HW235112   4.745   4.432   5.444  0.2617  0.3385  0.2570
 8835SOL    HW335113   4.770   4.582   5.439  1.5212  0.2470  2.3993
 8835SOL    MW435114   4.722   4.514   5.464  0.3655  0.3129  0.4963
 8836SOL     OW35115   2.875   3.790   2.420 -0.1054 -0.3657 -0.1229
 8836SOL    HW235116   2.835   3.768   2.504 -0.9306 -0.6042 -0.5700
 8836SOL    HW335117   2.964   3.754   2.426 -0.6877 -1.8526  0.0294
 8836SOL    MW435118   2.882   3.782   2.432 -0.2911 -0.5933 -0.1618
 8837SOL     OW35119   0.521   3.167   5.161 -0.2746 -0.3394  0.2143
 8837SOL    HW235120   0.492   3.107   5.093  3.0715 -1.5903 -0.3174
 8837SOL    HW335121   0.464   3.148   5.236 -1.9819 -1.1726 -1.2244
 8837SOL    MW435122   0.510   3.156   5.162 -0.0584 -0.6144 -0.0456
 8838SOL     OW35123   3.139   0.862   1.412  0.1121 -0.0326  0.1483
 8838SOL    HW235124   3.089   0.895   1.338  0.0380 -1.0470 -0.2744
 8838SOL    HW335125   3.212   0.923   1.422 -0.3515  0.5867 -0.2072
 8838SOL    MW435126   3.142   0.874   1.404  0.0412 -0.0847  0.0456
 8839SOL     OW35127   1.157   3.552   1.967  0.0085 -0.1262  0.0233
 8839SOL    HW235128   1.165   3.597   1.883 -1.5992  0.7611  0.3152
 8839SOL    HW335129   1.234   3.582   2.016  0.0198  0.7502 -0.4993
 8839SOL    MW435130   1.168   3.562   1.962 -0.2022  0.1065 -0.0071
 8840SOL     OW35131   5.064   4.624   5.341  0.3577  0.4073 -0.1373
 8840SOL    HW235132   5.032   4.709   5.311 -0.6938 -0.2901 -1.0623
 8840SOL    HW335133   5.057   4.567   5.265  0.3162 -0.7110  0.6773
 8840SOL    MW435134   5.059   4.627   5.327  0.2135  0.1677 -0.1519
 8841SOL     OW35135   1.780   1.442   6.154  0.3401 -0.0913 -0.3293
 8841SOL    HW235136   1.699   1.408   6.191 -0.3916  0.2432 -1.5417
 8841SOL    HW335137   1.812   1.506   6.218  0.0136 -0.7277  0.4733
 8841SOL    MW435138   1.773   1.446   6.167  0.2005 -0.1312 -0.3834
 8842SOL     OW35139   6.169   0.862   5.020 -0.4903 -0.2798 -0.0739
 8842SOL    HW235140   6.235   0.914   5.066  0.3757  0.2028 -1.7897
 8842SOL    HW335141   6.207   0.775   5.013 -0.6690 -0.3816  0.2164
 8842SOL    MW435142   6.183   0.857   5.025 -0.3996 -0.2295 -0.2620
 8843SOL     OW35143   3.940   2.310   1.184 -0.1258  0.9265 -1.0384
 8843SOL    HW235144   3.856   2.325   1.139 -0.7785  1.2985  0.2433
 8843SOL    HW335145   3.986   2.393   1.176 -0.3604  1.0834 -0.7954
 8843SOL    MW435146   3.935   2.323   1.177 -0.2429  0.9963 -0.8372
 8844SOL     OW35147   3.896   4.741   5.596 -1.1433  0.2276 -0.0677
 8844SOL    HW235148   3.868   4.651   5.615  2.2065 -0.6607  1.4533
 8844SOL    HW335149   3.868   4.791   5.672 -1.6863  0.1478 -0.2105
 8844SOL    MW435150   3.888   4.736   5.608 -0.7730  0.0998  0.1141
 8845SOL     OW35151   4.152   0.781   5.302  0.2382  0.5217 -0.4491
 8845SOL    HW235152   4.077   0.734   5.265  0.6015  0.5810 -1.2761
 8845SOL    HW335153   4.147   0.763   5.396 -0.8034  0.5112 -0.4877
 8845SOL    MW435154   4.141   0.772   5.309  0.1487  0.5281 -0.5633
 8846SOL     OW35155   2.059   5.605   0.236 -0.2077  0.5735 -0.1940
 8846SOL    HW235156   2.118   5.530   0.237 -2.1978 -1.1561 -1.4354
 8846SOL    HW335157   2.084   5.657   0.312  2.7944 -0.0579 -0.6208
 8846SOL    MW435158   2.070   5.602   0.246 -0.0742  0.2620 -0.4141
 8847SOL     OW35159   4.782   4.970   4.012 -0.3074  0.3369  0.1252
 8847SOL    HW235160   4.808   5.023   4.088 -0.0437  1.8281 -0.9525
 8847SOL    HW335161   4.846   4.992   3.944 -0.6306 -0.8436 -0.5898
 8847SOL    MW435162   4.794   4.980   4.013 -0.3152  0.3779 -0.1113
 8848SOL     OW35163   3.199   0.548   2.904 -0.1737  0.1418  0.1897
 8848SOL    HW235164   3.197   0.477   2.968  1.4094 -0.9498 -0.8885
 8848SOL    HW335165   3.291   0.571   2.896 -0.5787  1.7813 -0.0909
 8848SOL    MW435166   3.211   0.542   2.911 -0.0183  0.2141  0.0104
 8849SOL     OW35167   6.342   5.636   4.753 -0.2833  0.2638 -0.4617
 8849SOL    HW235168   6.324   5.585   4.832 -0.6762  0.2666 -0.5479
 8849SOL    HW335169   6.435   5.660   4.760 -0.3028  0.2141 -0.0328
 8849SOL    MW435170   6.352   5.632   4.764 -0.3377  0.2576 -0.4165
 8850SOL     OW35171   6.376   4.732   0.459  0.0411 -0.5142 -0.0002
 8850SOL    HW235172   6.460   4.714   0.417  0.7244 -0.5638  1.3417
 8850SOL    HW335173   6.316   4.669   0.419  0.4791 -0.0537 -1.4297
 8850SOL    MW435174   6.379   4.721   0.448  0.1890 -0.4600 -0.0118
 8851SOL     OW35175   3.459   5.294   5.331  0.4216 -0.1273  0.3238
 8851SOL    HW235176   3.509   5.227   5.286  0.6959  0.5603 -0.4130
 8851SOL    HW335177   3.369   5.282   5.300  0.4160 -0.3499  0.4278
 8851SOL    MW435178   3.454   5.284   5.321  0.4570 -0.0659  0.2403
 8852SOL     OW35179   3.892   1.219   2.114 -0.1112 -0.0415  0.2652
 8852SOL    HW235180   3.863   1.283   2.048 -0.5765 -1.1814 -0.6817
 8852SOL    HW335181   3.982   1.198   2.089 -0.7975 -1.6361 -0.9901
 8852SOL    MW435182   3.900   1.225   2.102 -0.2632 -0.4023 -0.0254
 8853SOL     OW35183   5.937   3.040   6.156 -0.0536  0.0142 -0.5862
 8853SOL    HW235184   6.024   3.001   6.153 -1.2832 -2.9748 -1.2721
 8853SOL    HW335185   5.907   3.038   6.065 -0.9090  0.8178 -0.3287
 8853SOL    MW435186   5.944   3.035   6.144 -0.3287 -0.2741 -0.6427
 8854SOL     OW35187   5.108   0.888   2.963 -0.1223  0.9979 -0.4700
 8854SOL    HW235188   5.029   0.840   2.936 -0.3193  1.9023 -1.5818
 8854SOL    HW335189   5.133   0.938   2.886  0.4087  2.2407  0.4618
 8854SOL    MW435190   5.101   0.888   2.950 -0.0782  1.2812 -0.4937
 8855SOL     OW35191   0.283   5.256   0.553  0.4864 -0.0710 -0.5750
 8855SOL    HW235192   0.228   5.224   0.481  1.0531 -1.6035 -0.3704
 8855SOL    HW335193   0.264   5.349   0.558 -1.0361 -0.2934 -1.4291
 8855SOL    MW435194   0.273   5.264   0.544  0.3603 -0.3026 -0.6607
 8856SOL     OW35195   0.594   5.118   5.342  0.1623 -0.6240 -0.2986
 8856SOL    HW235196   0.560   5.189   5.396  3.7619  0.8605  0.3203
 8856SOL    HW335197   0.602   5.156   5.254  0.2187 -0.9430 -0.4345
 8856SOL    MW435198   0.590   5.132   5.337  0.6447 -0.4702 -0.2349
 8857SOL     OW35199   0.803   5.178   4.626  0.2184 -0.7843 -0.4087
 8857SOL    HW235200   0.749   5.102   4.604 -0.0858 -0.2911 -1.4347
 8857SOL    HW335201   0.751   5.227   4.691 -0.4084 -0.5187 -1.0970
 8857SOL    MW435202   0.789   5.175   4.632  0.0956 -0.6842 -0.6349
 8858SOL     OW35203   3.701   5.362   0.610 -0.1583  0.0340 -0.0455
 8858SOL    HW235204   3.693   5.374   0.705 -0.2608 -0.6905  0.0430
 8858SOL    HW335205   3.619   5.397   0.575  0.7124  2.2132 -0.0763
 8858SOL    MW435206   3.689   5.368   0.618 -0.0569  0.2259 -0.0379
 8859SOL     OW35207   4.610   2.692   4.227 -0.2720  0.4653  0.1020
 8859SOL    HW235208   4.675   2.721   4.164 -0.6099  2.4706  0.6007
 8859SOL    HW335209   4.655   2.695   4.311 -0.4228 -0.1536  0.2093
 8859SOL    MW435210   4.624   2.697   4.230 -0.3365  0.6482  0.1819
 8860SOL     OW35211   5.609   6.298   4.464  0.2257  0.2238  0.3179
 8860SOL    HW235212   5.537   6.338   4.415  0.3899  0.3579  0.1846
 8860SOL    HW335213   5.627   6.216   4.417  0.1748  0.2024  0.3365
 8860SOL    MW435214   5.602   6.293   4.451  0.2406  0.2387  0.3028
 8861SOL     OW35215   2.875   2.201   5.760 -0.0514  0.2648  0.4902
 8861SOL    HW235216   2.876   2.240   5.848 -1.4517  0.7329  0.3256
 8861SOL    HW335217   2.792   2.154   5.756  0.2250 -0.1485 -0.4212
 8861SOL    MW435218   2.864   2.200   5.771 -0.1997  0.2720  0.3482
 8862SOL     OW35219   2.090   5.614   3.380 -0.6209  0.4859 -0.0976
 8862SOL    HW235220   2.145   5.692   3.387  0.2249 -0.2341  2.4699
 8862SOL    HW335221   2.005   5.641   3.415 -1.1441  0.8850 -1.5975
 8862SOL    MW435222   2.086   5.628   3.385 -0.5783  0.4435  0.0433
 8863SOL     OW35223   4.689   2.887   2.686 -0.1983  0.3244  0.1596
 8863SOL    HW235224   4.663   2.952   2.620  1.0912 -0.1922 -0.8952
 8863SOL    HW335225   4.610   2.835   2.701 -0.4848  0.3830 -1.0749
 8863SOL    MW435226   4.675   2.889   2.679 -0.0660  0.2640 -0.1425
 8864SOL     OW35227   4.774   0.141   0.887  0.0085 -0.5444 -0.3560
 8864SOL    HW235228   4.745   0.189   0.965  0.0344  0.6546 -1.0599
 8864SOL    HW335229   4.753   0.050   0.906 -1.4050 -0.0868  0.4199
 8864SOL    MW435230   4.767   0.136   0.900 -0.1746 -0.3258 -0.3465
 8865SOL     OW35231   2.388   1.739   1.285  0.7730 -0.6733  0.4647
 8865SOL    HW235232   2.335   1.811   1.250  0.4834 -0.6981  0.8584
 8865SOL    HW335233   2.467   1.740   1.230 -0.0959 -1.3645 -0.8710
 8865SOL    MW435234   2.392   1.749   1.273  0.6202 -0.7677  0.3404
 8866SOL     OW35235   1.868   4.015   3.233 -0.0746  0.0670 -0.3943
 8866SOL    HW235236   1.816   4.004   3.313  2.2273 -0.1284  1.1803
 8866SOL    HW335237   1.813   3.978   3.164 -1.8170 -0.5610  1.2300
 8866SOL    MW435238   1.854   4.008   3.234 -0.0008 -0.0416  0.0278
 8867SOL     OW35239   2.839   3.868   1.435 -0.0601  0.2635  0.1802
 8867SOL    HW235240   2.906   3.847   1.499  1.1691  1.2454 -0.7367
 8867SOL    HW335241   2.870   3.829   1.353 -0.0697  1.5959 -0.4838
 8867SOL    MW435242   2.852   3.860   1.433  0.1008  0.5689 -0.0284
 8868SOL     OW35243   2.285   0.933   3.411 -0.0136  0.5190 -0.5912
 8868SOL    HW235244   2.354   0.985   3.371  0.7289  0.5428  0.6765
 8868SOL    HW335245   2.204   0.978   3.388  0.4377  0.8687 -1.5294
 8868SOL    MW435246   2.284   0.946   3.403  0.1439  0.5683 -0.5477
 8869SOL     OW35247   4.032   0.049   2.354 -0.2756  0.8346  0.5309
 8869SOL    HW235248   4.054  -0.021   2.414 -1.1679  0.0164 -0.0678
 8869SOL    HW335249   4.076   0.127   2.390  0.1636  0.1243  1.5661
 8869SOL    MW435250   4.041   0.050   2.366 -0.3354  0.6330  0.5885
 8870SOL     OW35251   4.210   0.316   3.682  0.2529  0.6046 -0.4305
 8870SOL    HW235252   4.294   0.284   3.715 -0.6941 -0.0557  1.4604
 8870SOL    HW335253   4.212   0.410   3.698  0.1608  0.4170  0.8001
 8870SOL    MW435254   4.222   0.324   3.688  0.1158  0.4927 -0.0187
 8871SOL     OW35255   2.514   5.502   3.069 -0.2318  0.4168 -0.1494
 8871SOL    HW235256   2.475   5.421   3.035 -0.3129  0.5579 -0.3956
 8871SOL    HW335257   2.573   5.531   2.999 -1.0855  1.2009 -0.5559
 8871SOL    MW435258   2.517   5.495   3.055 -0.3552  0.5388 -0.2355
 8872SOL     OW35259   4.894   3.651   5.647 -0.1409 -0.2330  0.0194
 8872SOL    HW235260   4.800   3.644   5.628  0.0355 -0.7442 -0.7169
 8872SOL    HW335261   4.937   3.623   5.566  0.6526  0.5548  0.1508
 8872SOL    MW435262   4.887   3.646   5.634 -0.0129 -0.1965 -0.0604
 8873SOL     OW35263   1.463   2.084   3.309 -0.4373  1.1370  0.1702
 8873SOL    HW235264   1.502   2.093   3.222 -0.8274 -0.5421 -0.2107
 8873SOL    HW335265   1.465   2.173   3.345  1.5854  1.5241 -0.7351
 8873SOL    MW435266   1.468   2.097   3.302 -0.2219  0.9665  0.0005
 8874SOL     OW35267   2.986   3.382   5.090 -0.3624 -0.6140 -0.3230
 8874SOL    HW235268   2.922   3.375   5.161 -1.4890 -0.0543 -1.2519
 8874SOL    HW335269   3.068   3.349   5.128 -1.0695 -0.8528  1.0514
 8874SOL    MW435270   2.988   3.377   5.104 -0.6043 -0.5717 -0.2642
 8875SOL     OW35271   2.121   3.801   4.951 -0.4177 -0.1605  0.2354
 8875SOL    HW235272   2.097   3.796   4.859 -0.5720  0.8101  0.2031
 8875SOL    HW335273   2.125   3.710   4.981 -0.6018 -0.4708 -0.6651
 8875SOL    MW435274   2.118   3.789   4.943 -0.4624 -0.0734  0.1123
 8876SOL     OW35275   3.470   4.378   1.638  0.1711 -0.6673  0.0387
 8876SOL    HW235276   3.465   4.321   1.715 -1.2283  0.6856  1.0023
 8876SOL    HW335277   3.557   4.416   1.642  0.1170 -0.6214  0.9611
 8876SOL    MW435278   3.481   4.375   1.648 -0.0207 -0.4828  0.2875
 8877SOL     OW35279   2.805   3.177   2.839 -0.0447  0.4133 -0.0349
 8877SOL    HW235280   2.734   3.121   2.806  0.8304 -0.9251  0.3067
 8877SOL    HW335281   2.792   3.178   2.934  0.2408  0.3579  0.0055
 8877SOL    MW435282   2.794   3.170   2.847  0.1085  0.2294  0.0155
 8878SOL     OW35283   0.178   4.170   1.700 -0.8077  0.1509 -0.4094
 8878SOL    HW235284   0.202   4.132   1.615  1.3440  0.5892 -0.0590
 8878SOL    HW335285   0.219   4.111   1.764 -0.0329  1.3371  0.2231
 8878SOL    MW435286   0.187   4.157   1.697 -0.4216  0.3653 -0.2797
 8879SOL     OW35287   5.567   1.448   4.821  0.0430 -0.5548  0.0797
 8879SOL    HW235288   5.580   1.542   4.834  1.1950 -0.9283  2.1032
 8879SOL    HW335289   5.497   1.442   4.756  0.6004  1.6804 -0.8411
 8879SOL    MW435290   5.560   1.460   4.814  0.2685 -0.3092  0.2252
 8880SOL     OW35291   3.862   2.521   3.723  0.3747  0.2449 -0.4006
 8880SOL    HW235292   3.794   2.469   3.679  0.8354  0.4633 -1.3963
 8880SOL    HW335293   3.887   2.468   3.799  0.4944 -0.7670 -1.1238
 8880SOL    MW435294   3.856   2.507   3.728  0.4513  0.1402 -0.6274
 8881NA      NA35295   3.968   5.001   0.495  0.0033 -0.1224  0.3415
 8882NA      NA35296   4.701   2.640   0.805 -0.0388  0.2545 -0.0956
 8883NA      NA35297   0.705   0.136   4.551  0.1714 -0.3560  0.2600
 8884NA      NA35298   2.632   6.168   5.603  0.7595  0.1008  0.2623
 8885NA      NA35299   3.468   2.121   5.841 -0.0224  0.1441  0.0852
 8886NA      NA35300   5.252   4.440   3.689 -0.2406 -0.3499  0.2313
 8887NA      NA35301   0.649   6.012   2.237 -0.0066 -0.3343 -0.3420
   6.42842   6.42842   6.42842
