A-SYNC WITH LIG-47 in water
35301
  121NASP     N    1   0.091   3.717   0.414 -0.5910 -0.9211 -0.1840
  121NASP    H1    2   0.102   3.779   0.335 -0.5906 -0.4926  0.1521
  121NASP    H2    3   0.005   3.665   0.423  0.0714 -2.4045 -1.8822
  121NASP    H3    4   0.157   3.642   0.395 -1.5677 -1.2669 -2.5564
  121NASP    CA    5   0.133   3.788   0.534  0.5520  0.0767  0.4973
  121NASP    HA    6   0.111   3.715   0.612 -0.1281 -0.5476 -0.2676
  121NASP    CB    7   0.279   3.843   0.531 -0.0865  0.5953  0.5634
  121NASP   HB1    8   0.342   3.757   0.552 -2.2261 -1.5856 -1.3312
  121NASP   HB2    9   0.303   3.908   0.616 -0.0332 -1.3158  2.0657
  121NASP    CG   10   0.342   3.890   0.396  0.1165 -1.0600 -0.4911
  121NASP   OD1   11   0.264   3.894   0.292 -0.0486 -0.5681 -0.3585
  121NASP   OD2   12   0.464   3.917   0.385  0.4885  0.2622 -0.3872
  121NASP     C   13   0.044   3.904   0.552  0.3464 -0.1949  0.0246
  121NASP     O   14   0.018   3.980   0.456 -0.5085 -0.2082 -0.0623
  122ASN      N   15  -0.016   3.920   0.671 -0.3487  1.6946 -0.4869
  122ASN      H   16  -0.003   3.845   0.737 -0.2723  2.7377  0.7180
  122ASN     CA   17  -0.120   4.015   0.704  0.6414 -0.1500  0.3666
  122ASN     HA   18  -0.188   4.019   0.619  1.4998  0.3561 -0.3082
  122ASN     CB   19  -0.210   3.978   0.819  0.6884  0.0960  0.5847
  122ASN    HB1   20  -0.283   4.056   0.839 -0.6091 -0.7759 -0.5623
  122ASN    HB2   21  -0.156   3.960   0.912 -2.2936  0.5604  2.5334
  122ASN     CG   22  -0.290   3.849   0.788  0.0416  0.1948 -0.2968
  122ASN    OD1   23  -0.231   3.737   0.791  0.2712  0.0973  0.7809
  122ASN    ND2   24  -0.415   3.857   0.745 -0.0501 -0.2162  0.3660
  122ASN   HD21   25  -0.463   3.775   0.710 -1.2910  0.1215  1.1833
  122ASN   HD22   26  -0.450   3.950   0.725  1.5937  0.3474 -0.0411
  122ASN      C   27  -0.056   4.152   0.706 -0.5740 -0.1464 -0.7045
  122ASN      O   28   0.069   4.157   0.722  0.0371 -0.0327 -0.5229
  123GLU      N   29  -0.129   4.265   0.702 -0.1254  0.1681  0.3961
  123GLU      H   30  -0.225   4.248   0.677 -0.6370  0.4089  2.0538
  123GLU     CA   31  -0.082   4.395   0.676  0.4723 -0.3978 -0.3818
  123GLU     HA   32   0.027   4.402   0.683  0.3325  0.1824  2.4514
  123GLU     CB   33  -0.129   4.450   0.540  0.3158 -0.0149  0.1704
  123GLU    HB1   34  -0.088   4.550   0.528 -0.0656 -0.0987 -2.6222
  123GLU    HB2   35  -0.237   4.446   0.531  0.4611 -2.6336 -1.6745
  123GLU     CG   36  -0.071   4.361   0.425  0.5785 -0.0868 -0.9201
  123GLU    HG1   37  -0.117   4.263   0.422  0.6356 -0.1241 -0.5712
  123GLU    HG2   38   0.038   4.355   0.428  0.7680  1.2781 -2.8111
  123GLU     CD   39  -0.112   4.423   0.291  0.2865  0.3104 -0.4599
  123GLU    OE1   40  -0.022   4.479   0.230  0.0910 -0.2005 -0.1880
  123GLU    OE2   41  -0.227   4.410   0.248 -0.3431  0.1717  0.1329
  123GLU      C   42  -0.132   4.485   0.786 -0.2353 -0.0999  0.0079
  123GLU      O   43  -0.232   4.460   0.856  0.0749 -0.2032 -0.0699
  124ALA      N   44  -0.064   4.598   0.810 -0.0338  0.3214  0.1720
  124ALA      H   45   0.007   4.621   0.741 -1.1532  2.8855 -0.2404
  124ALA     CA   46  -0.075   4.698   0.923  0.5135 -0.3476 -0.1766
  124ALA     HA   47  -0.053   4.641   1.013  0.9483  3.1319  2.1092
  124ALA     CB   48   0.028   4.808   0.897  0.1521 -0.3135  0.0377
  124ALA    HB1   49   0.127   4.767   0.917 -0.8594 -2.1727  1.5505
  124ALA    HB2   50   0.013   4.899   0.955  0.6390  0.2827 -0.7506
  124ALA    HB3   51   0.017   4.839   0.793 -0.6413  1.0215  0.4924
  124ALA      C   52  -0.215   4.759   0.955  1.0864 -0.5955  0.0187
  124ALA      O   53  -0.241   4.786   1.071 -0.0567  0.6899 -0.1072
  125TYR      N   54  -0.316   4.764   0.861  0.5202 -0.2306  0.4723
  125TYR      H   55  -0.296   4.749   0.763 -0.7143  0.2939  0.1127
  125TYR     CA   56  -0.461   4.789   0.895  0.0552 -0.2089 -0.4588
  125TYR     HA   57  -0.474   4.883   0.949  1.4786 -0.9183  1.2309
  125TYR     CB   58  -0.524   4.813   0.761 -0.4370  0.1754 -0.2747
  125TYR    HB1   59  -0.469   4.873   0.688  1.2928  1.8654  2.2573
  125TYR    HB2   60  -0.611   4.873   0.787 -0.0546  0.5638  0.1427
  125TYR     CG   61  -0.583   4.696   0.689 -0.6717 -0.1692 -0.4206
  125TYR    CD1   62  -0.507   4.582   0.663 -0.3978  0.1636 -0.3622
  125TYR    HD1   63  -0.410   4.565   0.710 -0.8325  1.4129  1.0744
  125TYR    CE1   64  -0.564   4.478   0.586 -0.5446  0.4629  0.1045
  125TYR    HE1   65  -0.504   4.393   0.558 -0.6581 -0.8541  3.4201
  125TYR     CZ   66  -0.689   4.494   0.521  0.5753  0.0960 -0.5378
  125TYR     OH   67  -0.733   4.403   0.431  0.2262 -0.2909  0.2708
  125TYR     HH   68  -0.816   4.432   0.393 -0.0264  0.3201  1.2503
  125TYR    CE2   69  -0.766   4.613   0.542 -0.4939 -0.0637 -0.1847
  125TYR    HE2   70  -0.854   4.634   0.482  0.5142 -2.7229 -2.8608
  125TYR    CD2   71  -0.711   4.708   0.625  0.3772 -0.6927  0.5398
  125TYR    HD2   72  -0.763   4.803   0.618  2.9805  0.7261 -2.3695
  125TYR      C   73  -0.528   4.678   0.980  0.2828  0.1845 -0.0440
  125TYR      O   74  -0.637   4.698   1.025 -0.1134  0.3297  0.7177
  126GLU      N   75  -0.456   4.567   1.003 -0.2965 -0.4783 -0.5801
  126GLU      H   76  -0.365   4.558   0.962  0.5634  0.8690  0.9222
  126GLU     CA   77  -0.487   4.457   1.100 -0.3504 -0.2634  1.1793
  126GLU     HA   78  -0.542   4.493   1.188 -2.7066 -2.2727  0.6457
  126GLU     CB   79  -0.582   4.363   1.030  0.0212 -0.1078 -0.2508
  126GLU    HB1   80  -0.668   4.420   0.995  1.2202 -0.6023 -4.5296
  126GLU    HB2   81  -0.620   4.290   1.102  3.4267 -1.8131  0.0339
  126GLU     CG   82  -0.533   4.291   0.896  0.0649 -0.8849 -0.5414
  126GLU    HG1   83  -0.439   4.237   0.910 -0.9886 -2.4916  0.7310
  126GLU    HG2   84  -0.510   4.361   0.816  1.7452  0.0908  0.7312
  126GLU     CD   85  -0.628   4.187   0.840 -0.2168  0.2284  0.1140
  126GLU    OE1   86  -0.726   4.147   0.911 -0.7817  0.0055 -0.0006
  126GLU    OE2   87  -0.599   4.145   0.725  0.0767  0.3041 -0.1041
  126GLU      C   88  -0.360   4.386   1.168 -0.1622  1.1878  0.0395
  126GLU      O   89  -0.364   4.366   1.287  0.0432 -0.6248  0.0081
  127MET      N   90  -0.245   4.353   1.103  0.0802  0.5768  0.0266
  127MET      H   91  -0.252   4.363   1.002 -0.1098  2.8810  0.1985
  127MET     CA   92  -0.119   4.306   1.158 -0.2920  0.3910 -0.5118
  127MET     HA   93  -0.121   4.204   1.196 -1.9559 -0.0480 -1.6652
  127MET     CB   94  -0.010   4.289   1.047  0.0299 -1.2054 -0.4076
  127MET    HB1   95   0.011   4.389   1.009 -1.0660 -0.9386 -0.3551
  127MET    HB2   96  -0.048   4.230   0.963  2.0365  1.6619 -3.5598
  127MET     CG   97   0.117   4.227   1.090 -0.2461  0.0785 -0.9418
  127MET    HG1   98   0.138   4.273   1.187 -1.3579  1.0073 -1.1268
  127MET    HG2   99   0.205   4.254   1.030  2.4524  0.2084  2.6913
  127MET     SD  100   0.111   4.050   1.118  0.1567 -0.9982  0.0968
  127MET     CE  101   0.203   3.974   0.977 -0.5076 -0.1784  0.0368
  127MET    HE1  102   0.303   4.016   0.986 -0.1011 -0.7441 -1.5373
  127MET    HE2  103   0.168   4.008   0.880  0.3079  1.1804  0.1889
  127MET    HE3  104   0.201   3.865   0.976 -0.0895 -0.2410  2.0871
  127MET      C  105  -0.062   4.404   1.264  0.6759 -0.7872  0.3911
  127MET      O  106  -0.044   4.524   1.237 -0.1964  0.8740  0.3928
  128PRO      N  107  -0.038   4.367   1.389  0.1255 -0.5812  0.1266
  128PRO     CD  108  -0.091   4.246   1.437 -0.6613  0.3680  0.0996
  128PRO    HD1  109  -0.028   4.164   1.401  0.1774  1.0491  0.0033
  128PRO    HD2  110  -0.195   4.225   1.411 -0.4508  1.0339 -1.3506
  128PRO     CG  111  -0.087   4.260   1.585  0.0356  0.7875 -0.4525
  128PRO    HG1  112  -0.065   4.167   1.637 -0.4269 -0.5295 -2.4824
  128PRO    HG2  113  -0.180   4.297   1.629  0.6084  0.3249  1.2086
  128PRO     CB  114   0.026   4.363   1.617  0.0474  0.9035  0.7547
  128PRO    HB1  115   0.014   4.409   1.715  2.8639  0.7156  1.2957
  128PRO    HB2  116   0.126   4.319   1.612 -0.7595 -1.1332  1.4770
  128PRO     CA  117   0.014   4.456   1.490 -0.0566 -0.1521  0.4141
  128PRO     HA  118  -0.063   4.532   1.499 -0.4272 -0.4638 -0.0355
  128PRO      C  119   0.151   4.519   1.462 -0.1164  0.7572 -0.5973
  128PRO      O  120   0.227   4.465   1.377 -0.2934  0.2183  0.0204
  129SER      N  121   0.182   4.627   1.531  0.3245 -0.1613  0.4599
  129SER      H  122   0.109   4.654   1.596 -1.3553 -0.3270 -1.2684
  129SER     CA  123   0.307   4.697   1.517 -0.6450 -0.0774  0.0611
  129SER     HA  124   0.297   4.751   1.423  0.4640 -1.0699 -0.6594
  129SER     CB  125   0.333   4.798   1.633  0.0079 -0.0679  0.3010
  129SER    HB1  126   0.253   4.871   1.636  0.6786  0.7089 -0.1666
  129SER    HB2  127   0.424   4.855   1.615 -0.9386  2.1473  2.0070
  129SER     OG  128   0.335   4.734   1.761  0.3597  0.3328  0.7779
  129SER    HG1  129   0.345   4.803   1.827  0.3757  0.2409  0.8720
  129SER      C  130   0.438   4.614   1.504 -0.5585 -0.4659  0.5636
  129SER      O  131   0.515   4.633   1.403 -0.5629  0.1369 -0.2846
  130GLU      N  132   0.454   4.516   1.587 -0.5942 -0.1951 -0.2290
  130GLU      H  133   0.378   4.515   1.652  0.8276  1.1559  1.5382
  130GLU     CA  134   0.562   4.423   1.592 -0.1604 -0.0210  0.5875
  130GLU     HA  135   0.628   4.453   1.511 -0.9160  1.2153  0.4066
  130GLU     CB  136   0.643   4.418   1.721 -0.6020 -0.0752  0.0964
  130GLU    HB1  137   0.738   4.369   1.698  0.4206  1.6631  0.4035
  130GLU    HB2  138   0.598   4.366   1.805 -2.5045 -0.5540 -1.1690
  130GLU     CG  139   0.680   4.553   1.774 -0.4962 -0.2614  0.0224
  130GLU    HG1  140   0.590   4.614   1.784 -0.5418 -0.5323  1.4502
  130GLU    HG2  141   0.745   4.605   1.703 -0.3095 -0.2203  0.2229
  130GLU     CD  142   0.749   4.546   1.912 -0.1321  0.0976 -0.0386
  130GLU    OE1  143   0.703   4.630   1.997 -0.6666  0.0629 -0.4623
  130GLU    OE2  144   0.836   4.457   1.937  0.1128 -0.8132  0.1338
  130GLU      C  145   0.511   4.283   1.552  0.5058 -0.1950 -1.1762
  130GLU      O  146   0.575   4.182   1.587  0.7873  0.4293 -0.5271
  131GLU      N  147   0.409   4.271   1.468  0.0439  0.0968 -0.3292
  131GLU      H  148   0.368   4.359   1.442 -0.7914 -0.4831 -1.0540
  131GLU     CA  149   0.360   4.161   1.389  0.1301  0.6799  0.6910
  131GLU     HA  150   0.280   4.197   1.324  1.1968 -2.1690 -2.5086
  131GLU     CB  151   0.465   4.122   1.279  0.1379 -0.7322  0.1619
  131GLU    HB1  152   0.417   4.040   1.227 -0.9605  0.0581 -0.0943
  131GLU    HB2  153   0.557   4.082   1.323  1.6905  0.7570 -1.5838
  131GLU     CG  154   0.493   4.236   1.182  0.0202  0.4137 -0.4452
  131GLU    HG1  155   0.573   4.290   1.233  0.6636 -2.6834  2.1333
  131GLU    HG2  156   0.404   4.294   1.160  0.0237 -0.2976 -2.5581
  131GLU     CD  157   0.554   4.186   1.053  1.0246 -0.0310  0.6808
  131GLU    OE1  158   0.566   4.260   0.953 -0.0114  0.9677  0.3069
  131GLU    OE2  159   0.587   4.062   1.032  0.2846 -0.0262 -0.1750
  131GLU      C  160   0.310   4.042   1.466 -0.5833  0.1076 -0.5032
  131GLU      O  161   0.300   3.931   1.408  0.0621 -0.5316 -0.5160
  132GLY      N  162   0.275   4.054   1.599  0.4710 -0.2346  0.1520
  132GLY      H  163   0.276   4.148   1.636 -1.5852 -0.5549  1.1943
  132GLY     CA  164   0.246   3.937   1.690 -0.6644 -1.0035 -0.0861
  132GLY    HA1  165   0.219   3.852   1.627 -0.7455 -0.4417 -0.8202
  132GLY    HA2  166   0.159   3.948   1.754 -1.8373 -1.9666 -1.4519
  132GLY      C  167   0.366   3.896   1.779 -0.6030  0.3984 -0.3849
  132GLY      O  168   0.339   3.825   1.878 -0.0701 -0.6078  0.4526
  133TYR      N  169   0.492   3.927   1.742 -0.2497 -0.0044  0.0947
  133TYR      H  170   0.504   3.994   1.668 -0.8169 -0.9326 -0.8591
  133TYR     CA  171   0.606   3.876   1.818  0.2183  0.1556 -0.1624
  133TYR     HA  172   0.587   3.770   1.834  1.3901 -0.2922 -1.5388
  133TYR     CB  173   0.741   3.887   1.744  0.5002 -0.4318 -0.4085
  133TYR    HB1  174   0.815   3.952   1.792 -1.4309  0.8081  1.0348
  133TYR    HB2  175   0.721   3.946   1.654  0.6853  1.3857  0.6891
  133TYR     CG  176   0.794   3.748   1.705  0.4906  0.8275 -0.5932
  133TYR    CD1  177   0.920   3.706   1.743 -0.3500  0.0678 -0.2546
  133TYR    HD1  178   0.989   3.777   1.786  1.2968 -1.2516 -0.5941
  133TYR    CE1  179   0.958   3.567   1.737 -0.0423 -0.1648 -0.1423
  133TYR    HE1  180   1.047   3.522   1.779 -1.2520 -0.3447  2.4305
  133TYR     CZ  181   0.874   3.476   1.677  0.7998 -0.1937  0.6621
  133TYR     OH  182   0.908   3.351   1.665  0.2014 -0.4332  0.4888
  133TYR     HH  183   0.835   3.297   1.635  0.9310 -0.3161 -1.7403
  133TYR    CE2  184   0.754   3.519   1.615 -0.1268  0.4559 -0.9190
  133TYR    HE2  185   0.686   3.448   1.571  1.0973 -1.3882  0.0304
  133TYR    CD2  186   0.716   3.655   1.630  0.6955  0.0129  0.1559
  133TYR    HD2  187   0.619   3.681   1.588  1.4898  2.2748 -0.4368
  133TYR      C  188   0.622   3.924   1.964  0.8085 -1.0235 -0.4025
  133TYR      O  189   0.696   3.866   2.038  0.5812 -0.0406  0.2529
  134GLN      N  190   0.549   4.027   2.009  0.1914 -0.1880  0.1357
  134GLN      H  191   0.479   4.068   1.948  0.1914  0.2307  0.4174
  134GLN     CA  192   0.537   4.050   2.157 -0.6747 -0.5388 -0.1656
  134GLN     HA  193   0.634   4.071   2.202  0.3645 -1.9290 -1.6549
  134GLN     CB  194   0.451   4.173   2.189 -0.2209  0.4927  0.0035
  134GLN    HB1  195   0.445   4.179   2.297  0.5707 -1.1009  0.1714
  134GLN    HB2  196   0.351   4.148   2.153  0.2910 -0.4196 -0.8217
  134GLN     CG  197   0.510   4.305   2.131 -0.0607  0.1433 -0.7311
  134GLN    HG1  198   0.499   4.296   2.023 -3.7972  0.4548 -0.4879
  134GLN    HG2  199   0.610   4.325   2.172 -1.7459  3.8597  2.2078
  134GLN     CD  200   0.428   4.422   2.175 -0.0854 -0.1739  0.1588
  134GLN    OE1  201   0.334   4.417   2.252  0.5141  0.1764  0.6077
  134GLN    NE2  202   0.459   4.537   2.118  0.0243  0.0095  0.5776
  134GLN   HE21  203   0.409   4.618   2.148 -0.8529 -0.9356  1.7343
  134GLN   HE22  204   0.538   4.550   2.056  0.3149  0.0854  0.9597
  134GLN      C  205   0.471   3.927   2.219  0.5643 -0.4695  0.2008
  134GLN      O  206   0.518   3.894   2.326 -0.1753  0.4172  0.5383
  135ASP      N  207   0.362   3.878   2.157  0.1529 -0.5394 -0.0172
  135ASP      H  208   0.339   3.906   2.063  0.7599  1.6484  0.4263
  135ASP     CA  209   0.281   3.772   2.221  0.3062  0.5738  0.5883
  135ASP     HA  210   0.263   3.787   2.328 -0.6893 -0.4399  0.5791
  135ASP     CB  211   0.133   3.763   2.169  0.1943 -0.6630  0.1297
  135ASP    HB1  212   0.094   3.670   2.211  0.1048 -0.8889 -0.4384
  135ASP    HB2  213   0.141   3.738   2.063 -0.7089 -0.8694  0.0984
  135ASP     CG  214   0.038   3.892   2.182 -0.0854  0.4873  0.0603
  135ASP    OD1  215  -0.083   3.877   2.148  0.7173  0.1446  0.0088
  135ASP    OD2  216   0.076   4.008   2.210  0.0408 -0.1697 -0.0492
  135ASP      C  217   0.353   3.633   2.215  0.1780  0.5339  0.3717
  135ASP      O  218   0.322   3.545   2.297 -0.3078 -0.1660  0.2727
  136TYR      N  219   0.442   3.614   2.114  0.2153 -0.4721 -0.9264
  136TYR      H  220   0.476   3.693   2.061 -0.0293  0.4743  0.2895
  136TYR     CA  221   0.518   3.492   2.105 -0.3040 -0.2123 -0.0881
  136TYR     HA  222   0.454   3.406   2.089 -1.1379 -0.0449  2.0422
  136TYR     CB  223   0.609   3.497   1.980  0.5550 -0.2785 -0.2237
  136TYR    HB1  224   0.684   3.575   1.990 -0.1323  0.2373  1.3024
  136TYR    HB2  225   0.544   3.539   1.904  1.0493  3.9205  1.4269
  136TYR     CG  226   0.679   3.367   1.940 -0.2869 -0.5788  0.4096
  136TYR    CD1  227   0.601   3.270   1.862  0.0466 -0.3715 -0.0507
  136TYR    HD1  228   0.503   3.300   1.829  0.2534  1.4839  0.8814
  136TYR    CE1  229   0.662   3.147   1.826  0.6929  0.1545 -0.7434
  136TYR    HE1  230   0.598   3.076   1.776  0.4076 -0.6458  0.7026
  136TYR     CZ  231   0.795   3.121   1.864  0.3109 -0.5779  0.4549
  136TYR     OH  232   0.847   3.001   1.834  0.1716 -0.3964  0.1756
  136TYR     HH  233   0.929   2.971   1.875  0.5293 -0.4078 -0.5159
  136TYR    CE2  234   0.864   3.211   1.949 -0.0777 -0.0111  0.0510
  136TYR    HE2  235   0.961   3.180   1.986  1.7700  5.4873  0.7678
  136TYR    CD2  236   0.811   3.333   1.989 -1.0463  0.0779 -0.2602
  136TYR    HD2  237   0.865   3.404   2.049  0.9328  1.1242 -3.0391
  136TYR      C  238   0.607   3.466   2.227 -0.5495  0.2228  0.2015
  136TYR      O  239   0.682   3.552   2.278  0.4850  0.0956  0.0016
  137GLU      N  240   0.618   3.338   2.262  0.6869 -0.4008 -1.0733
  137GLU      H  241   0.571   3.264   2.212 -0.5098 -1.7764  1.8517
  137GLU     CA  242   0.700   3.293   2.380  0.8157  0.1794  0.2810
  137GLU     HA  243   0.735   3.384   2.429  0.3057  1.0234 -0.8628
  137GLU     CB  244   0.616   3.229   2.495 -0.0278 -0.2873 -0.3517
  137GLU    HB1  245   0.594   3.127   2.463  2.3052 -0.8481 -0.3394
  137GLU    HB2  246   0.519   3.279   2.504  0.4950  1.1423 -2.0866
  137GLU     CG  247   0.692   3.234   2.630  0.4302  0.1538  0.2966
  137GLU    HG1  248   0.743   3.329   2.646 -1.0249  0.5262  3.4515
  137GLU    HG2  249   0.762   3.151   2.637 -0.9873 -1.1768 -0.5002
  137GLU     CD  250   0.596   3.209   2.747  0.0992  0.1854  0.3961
  137GLU    OE1  251   0.475   3.191   2.733  0.2031 -0.4241  0.1536
  137GLU    OE2  252   0.644   3.193   2.860  0.3391  0.5897  0.1041
  137GLU      C  253   0.814   3.201   2.333 -0.2740  0.1951 -0.6525
  137GLU      O  254   0.789   3.095   2.271 -0.0649 -0.1474 -0.4253
  138PRO      N  255   0.937   3.229   2.385 -1.0009  0.3309 -0.0872
  138PRO     CD  256   0.977   3.360   2.418  0.7816 -0.4269  0.2454
  138PRO    HD1  257   0.945   3.372   2.521  0.3291 -2.7359  0.4140
  138PRO    HD2  258   0.930   3.436   2.354  0.9387  1.0350  1.7890
  138PRO     CG  259   1.124   3.382   2.414  0.3381  0.5325 -0.1647
  138PRO    HG1  260   1.153   3.459   2.484  0.5271 -0.5328  0.9631
  138PRO    HG2  261   1.168   3.410   2.318  2.4476 -0.7827  0.3324
  138PRO     CB  262   1.168   3.240   2.442 -0.3144  0.1868  0.3048
  138PRO    HB1  263   1.270   3.223   2.410  0.3848  3.2782  0.6444
  138PRO    HB2  264   1.167   3.229   2.551  0.2360  2.0803  0.5330
  138PRO     CA  265   1.062   3.148   2.377 -0.0361 -0.7221 -0.4969
  138PRO     HA  266   1.074   3.135   2.269 -1.8342 -2.0094 -0.5955
  138PRO      C  267   1.056   3.008   2.444  0.3128 -0.2419 -0.3704
  138PRO      O  268   0.967   2.992   2.529  0.0677 -0.0155 -0.1943
  139GLU      N  269   1.149   2.918   2.424 -0.0456  0.5400 -0.2499
  139GLU      H  270   1.224   2.937   2.358 -0.0201 -0.9359 -0.6874
  139GLU     CA  271   1.154   2.791   2.498  1.8621  0.0920  0.1032
  139GLU     HA  272   1.065   2.792   2.561  1.2371  2.3050 -0.7123
  139GLU     CB  273   1.137   2.682   2.390 -0.3537  0.1516 -0.2387
  139GLU    HB1  274   1.043   2.700   2.339 -0.1543  0.9911 -0.3318
  139GLU    HB2  275   1.122   2.591   2.449 -1.6432  2.3129  3.1038
  139GLU     CG  276   1.256   2.668   2.296  0.4814  0.2992 -0.3926
  139GLU    HG1  277   1.353   2.642   2.337 -0.1723 -1.0905  0.3387
  139GLU    HG2  278   1.258   2.766   2.248  1.3037 -0.2030 -1.4271
  139GLU     CD  279   1.240   2.570   2.178  0.2783  0.3627  0.4685
  139GLU    OE1  280   1.121   2.542   2.148 -0.1185  0.0251 -0.6035
  139GLU    OE2  281   1.344   2.533   2.113 -0.4095 -0.1258  0.1879
  139GLU      C  282   1.265   2.776   2.596 -0.0072  0.1316  0.1983
  139GLU      O  283   1.361   2.852   2.599 -0.5214 -0.1222  0.0139
  140CALA     N  284   1.252   2.670   2.679 -0.5061 -1.1280  0.7737
  140CALA     H  285   1.164   2.621   2.677 -0.0180 -2.1059 -2.5997
  140CALA    CA  286   1.361   2.614   2.761 -0.2073 -0.6939  0.0526
  140CALA    HA  287   1.401   2.701   2.812 -2.0396  0.7195 -0.7903
  140CALA    CB  288   1.300   2.514   2.867 -0.4848 -0.1104  0.4703
  140CALA   HB1  289   1.377   2.464   2.926 -0.1602  0.7365  0.7818
  140CALA   HB2  290   1.252   2.433   2.812 -0.8735 -0.2490  1.0077
  140CALA   HB3  291   1.227   2.562   2.932  1.0996  1.0808  1.4575
  140CALA     C  292   1.462   2.537   2.685 -0.5669 -0.4927  0.1208
  140CALA   OC1  293   1.431   2.440   2.610 -0.7221  0.3053 -0.5912
  140CALA   OC2  294   1.583   2.562   2.701  0.1513  0.0140 -0.2931
  141L47      C  295   3.809   3.966   3.585 -0.0546 -0.4351  0.2722
  141L47      H  296   3.835   3.877   3.644  2.4714  0.1102  0.1061
  141L47     H1  297   3.820   4.055   3.649  0.1041 -0.3965  0.1920
  141L47     H2  298   3.884   3.962   3.506 -0.2471  0.2121  0.0491
  141L47     C1  299   3.670   3.966   3.540  0.0410  0.3580  0.3057
  141L47      O  300   3.609   3.860   3.557  0.0812 -0.8486  0.0804
  141L47      N  301   3.619   4.069   3.463  0.1890 -0.1131  0.5325
  141L47     C2  302   3.701   4.178   3.399 -0.0239  0.5840 -0.3732
  141L47     H3  303   3.782   4.144   3.334 -1.2099 -1.7318 -0.7629
  141L47     H4  304   3.739   4.246   3.476 -1.3085  0.0372  0.7916
  141L47     C3  305   3.605   4.258   3.306 -0.0973 -0.6040 -0.9441
  141L47     H5  306   3.643   4.251   3.203  2.0668  2.6762 -0.5187
  141L47     H6  307   3.605   4.364   3.334  2.4885 -1.6846  4.2713
  141L47     C4  308   3.473   4.183   3.323  0.6515 -0.0304 -0.2586
  141L47     C5  309   3.487   4.078   3.413 -0.0539  0.7008  0.1159
  141L47     C6  310   3.377   3.997   3.448  0.0912 -0.1332  0.0180
  141L47     H7  311   3.384   3.903   3.502  1.7352 -0.7278 -1.1619
  141L47     C7  312   3.248   4.035   3.394  0.1669  0.5835  0.5267
  141L47     H8  313   3.159   3.977   3.417 -0.8009  1.8037 -0.0055
  141L47     C8  314   3.236   4.140   3.301  0.5134  0.0402 -0.4018
  141L47     C9  315   3.349   4.218   3.268  0.7083  0.3854  0.4716
  141L47     H9  316   3.340   4.306   3.205 -1.1991  1.1464  1.7115
  141L47      S  317   3.073   4.179   3.241  0.3717  0.0316 -0.3934
  141L47     O1  318   3.079   4.284   3.140  0.1272 -0.8512  0.8595
  141L47     O2  319   2.994   4.202   3.369  0.5351  0.3998  0.1718
  141L47     N1  320   3.029   4.029   3.171  0.2518 -0.0014  0.1291
  141L47    C10  321   2.884   4.004   3.162  0.1138 -0.8677 -0.2493
  141L47    H10  322   2.847   4.023   3.060  2.2182  0.7039 -0.7965
  141L47    H11  323   2.837   4.085   3.219  2.6658  0.8521 -0.4003
  141L47    C11  324   2.852   3.868   3.222 -0.3504 -0.2799 -0.0992
  141L47    H12  325   2.748   3.871   3.257 -0.7476 -0.1759 -1.2526
  141L47    H13  326   2.904   3.848   3.316 -0.7610  0.3083  0.2596
  141L47    C12  327   2.885   3.745   3.137  0.4840  0.0264 -0.0926
  141L47    H14  328   2.839   3.756   3.039  0.1265  1.4523  0.2141
  141L47    H15  329   2.845   3.657   3.187  0.9885 -0.1093  0.0875
  141L47     N2  330   3.036   3.728   3.109  0.3120 -0.1894 -0.1592
  141L47    H16  331   3.097   3.728   3.193 -0.7375 -0.3118  0.6187
  141L47    H17  332   3.047   3.637   3.062 -0.1459 -0.4795  0.2826
  141L47    C13  333   3.077   3.835   3.009  0.1425 -0.1713 -0.1961
  141L47    H18  334   2.998   3.854   2.936  0.4403  2.4014  0.0666
  141L47    H19  335   3.161   3.793   2.955  0.7850  0.3798  0.3553
  141L47    C14  336   3.124   3.973   3.066  0.5215 -0.4373  0.0230
  141L47    H20  337   3.220   3.954   3.116  0.1686 -1.0846  0.4718
  141L47    H21  338   3.129   4.046   2.984 -0.0785 -1.6441 -1.1106
  142SOL     OW  339   6.159   5.042   0.635  0.0081 -0.1778 -0.2005
  142SOL    HW2  340   6.154   4.947   0.621 -0.2194 -0.0536 -0.9563
  142SOL    HW3  341   6.070   5.073   0.618  0.4410  0.3836 -1.5406
  142SOL    MW4  342   6.147   5.034   0.631  0.0352 -0.0873 -0.4770
  143SOL     OW  343   4.902   0.560   4.373  0.2592 -0.0643  0.3761
  143SOL    HW2  344   4.900   0.651   4.403 -0.1353  0.1407 -0.2539
  143SOL    HW3  345   4.818   0.525   4.400 -1.1870  0.8276 -2.5677
  143SOL    MW4  346   4.891   0.568   4.381  0.0164  0.0804 -0.0954
  144SOL     OW  347   4.455   3.331   1.922 -0.2534 -0.0667 -0.1886
  144SOL    HW2  348   4.493   3.393   1.860 -1.1543  1.2618  0.5282
  144SOL    HW3  349   4.365   3.361   1.934 -0.3728 -0.8278  1.0652
  144SOL    MW4  350   4.448   3.343   1.915 -0.3880  0.0081  0.0714
  145SOL     OW  351   0.233   1.541   3.800  0.0061  0.2179 -0.1017
  145SOL    HW2  352   0.235   1.637   3.809  3.0503  0.0607  3.6446
  145SOL    HW3  353   0.181   1.511   3.875  0.2428 -1.0876 -0.4450
  145SOL    MW4  354   0.227   1.550   3.811  0.4390  0.0249  0.3473
  146SOL     OW  355   0.661   1.899   4.677  0.2459 -0.3904 -0.0004
  146SOL    HW2  356   0.595   1.968   4.687 -0.3085 -1.1485  2.1980
  146SOL    HW3  357   0.620   1.835   4.618 -0.3334 -0.0788  0.0513
  146SOL    MW4  358   0.647   1.900   4.671  0.0963 -0.4493  0.2965
  147SOL     OW  359   1.547   3.978   0.076 -0.9005 -0.1558  0.1113
  147SOL    HW2  360   1.517   3.988  -0.014 -1.0183 -0.6353  0.0904
  147SOL    HW3  361   1.469   3.994   0.130 -0.2938  2.7595  0.2957
  147SOL    MW4  362   1.533   3.981   0.071 -0.8360  0.1656  0.1328
  148SOL     OW  363   6.200   5.724   0.966  0.1405 -0.3665  0.1424
  148SOL    HW2  364   6.199   5.756   0.876  0.0644  0.1285  0.3153
  148SOL    HW3  365   6.225   5.632   0.958  3.0020  0.3532 -0.1780
  148SOL    MW4  366   6.203   5.716   0.953  0.5080 -0.2063  0.1230
  149SOL     OW  367   3.189   3.419   0.799 -0.2988  0.3161  0.2920
  149SOL    HW2  368   3.197   3.324   0.789 -1.4720  0.4059 -2.0046
  149SOL    HW3  369   3.141   3.430   0.881  1.6003 -0.9363  1.6716
  149SOL    MW4  370   3.184   3.408   0.809 -0.2030  0.1627  0.1710
  150SOL     OW  371   6.410   0.403   0.170  0.0045 -0.7174 -0.2737
  150SOL    HW2  372   6.407   0.310   0.192  2.1185 -0.6533  0.4632
  150SOL    HW3  373   6.356   0.410   0.091 -0.0543 -2.5984 -0.4478
  150SOL    MW4  374   6.403   0.392   0.162  0.2757 -0.9572 -0.1995
  151SOL     OW  375   6.301   5.294   2.087 -0.6696  0.3663 -0.2766
  151SOL    HW2  376   6.248   5.259   2.015  1.2427 -3.1117 -0.1661
  151SOL    HW3  377   6.249   5.278   2.166 -0.8758  0.0800 -0.4701
  151SOL    MW4  378   6.287   5.288   2.088 -0.4445 -0.1303 -0.2876
  152SOL     OW  379   3.377   6.014   2.208 -0.2875  0.3077 -0.6494
  152SOL    HW2  380   3.423   6.094   2.182  1.4414 -0.5400 -0.3238
  152SOL    HW3  381   3.397   5.951   2.139  0.6333 -0.6331  0.4362
  152SOL    MW4  382   3.386   6.016   2.195  0.0621  0.0718 -0.4632
  153SOL     OW  383   4.897   3.192   1.593 -0.5025 -0.2748  0.0357
  153SOL    HW2  384   4.880   3.252   1.665  0.6162 -1.1719  1.1137
  153SOL    HW3  385   4.835   3.120   1.607 -0.0431 -0.6213  0.3444
  153SOL    MW4  386   4.887   3.190   1.604 -0.2943 -0.4389  0.2186
  154SOL     OW  387   1.922   2.151   1.360 -0.2930 -0.7667  0.0837
  154SOL    HW2  388   1.953   2.070   1.401 -0.4104 -0.5892  0.5244
  154SOL    HW3  389   1.978   2.161   1.283  0.9797 -0.2890  1.0282
  154SOL    MW4  390   1.933   2.142   1.355 -0.1406 -0.6803  0.2664
  155SOL     OW  391   2.741   4.622   6.079  0.5193 -0.5565 -0.0034
  155SOL    HW2  392   2.766   4.538   6.040  2.8326 -0.0139  0.1391
  155SOL    HW3  393   2.762   4.687   6.012 -1.7696 -0.0741 -0.3285
  155SOL    MW4  394   2.747   4.620   6.065  0.5226 -0.4212 -0.0275
  156SOL     OW  395   2.050   6.373   5.446 -0.2662  0.2215 -0.3486
  156SOL    HW2  396   2.022   6.415   5.528  0.4792 -0.8621  0.4898
  156SOL    HW3  397   2.141   6.400   5.435  0.4511 -1.6423  0.5743
  156SOL    MW4  398   2.058   6.382   5.455 -0.0732 -0.1674 -0.1162
  157SOL     OW  399   4.000   3.998   2.083 -0.0386 -0.1021 -0.4016
  157SOL    HW2  400   4.062   3.929   2.105 -1.0597 -0.8168  0.3126
  157SOL    HW3  401   4.055   4.073   2.058  1.1533 -0.2654  1.5588
  157SOL    MW4  402   4.015   3.999   2.082 -0.0161 -0.2180 -0.0487
  158SOL     OW  403   5.971   5.517   0.614 -0.2149  0.2778  0.5371
  158SOL    HW2  404   6.056   5.473   0.622 -1.4277 -2.1292  1.1284
  158SOL    HW3  405   5.933   5.481   0.534 -0.7943  1.1055  0.4342
  158SOL    MW4  406   5.977   5.506   0.605 -0.4513  0.0694  0.6015
  159SOL     OW  407   4.122   0.686   0.796  0.6942 -0.0904  0.6110
  159SOL    HW2  408   4.193   0.692   0.732 -0.2849 -1.6846 -0.7092
  159SOL    HW3  409   4.107   0.592   0.807 -1.3123  0.1933  0.7220
  159SOL    MW4  410   4.129   0.675   0.789  0.3003 -0.2633  0.4515
  160SOL     OW  411   1.394   1.518   4.383  0.4278 -0.0757  0.3826
  160SOL    HW2  412   1.307   1.509   4.346  0.4903 -1.7983  0.5478
  160SOL    HW3  413   1.381   1.506   4.477  0.5837  1.8586  0.6888
  160SOL    MW4  414   1.381   1.515   4.391  0.4566 -0.0478  0.4448
  161SOL     OW  415   6.024   2.010   4.132  0.1076  0.3400 -0.3532
  161SOL    HW2  416   6.047   1.960   4.211 -1.0552  0.4891  0.0929
  161SOL    HW3  417   5.983   1.945   4.075 -1.4551  0.7514  0.2480
  161SOL    MW4  418   6.022   1.995   4.135 -0.2520  0.4140 -0.2150
  162SOL     OW  419   3.578   3.445   4.358 -0.3566 -0.1494  0.2098
  162SOL    HW2  420   3.545   3.459   4.447 -1.3895  1.6633 -0.4155
  162SOL    HW3  421   3.530   3.368   4.328  0.9578 -1.6114  1.6186
  162SOL    MW4  422   3.567   3.437   4.366 -0.3194 -0.1031  0.3132
  163SOL     OW  423   2.773   5.537   4.780  0.1393 -0.2680 -0.3862
  163SOL    HW2  424   2.809   5.480   4.713  0.8464 -1.6126  1.0907
  163SOL    HW3  425   2.721   5.601   4.731  0.0302 -1.6334 -2.1495
  163SOL    MW4  426   2.770   5.538   4.765  0.2182 -0.6256 -0.4240
  164SOL     OW  427   6.130   1.776   1.258 -0.8219 -0.3959 -1.0946
  164SOL    HW2  428   6.109   1.718   1.185  1.7799 -2.4724 -0.3344
  164SOL    HW3  429   6.058   1.765   1.320 -1.7707 -0.5661 -2.1928
  164SOL    MW4  430   6.118   1.767   1.256 -0.6038 -0.6923 -1.1392
  165SOL     OW  431   1.553   6.009   5.991 -0.1175 -0.8402  0.5419
  165SOL    HW2  432   1.476   5.970   5.950 -0.3271 -0.5437  0.6495
  165SOL    HW3  433   1.553   6.100   5.960 -0.9942 -0.2467  2.1827
  165SOL    MW4  434   1.543   6.016   5.981 -0.2608 -0.7228  0.7725
  166SOL     OW  435   2.748   5.498   5.065  0.0272 -0.4560  0.0638
  166SOL    HW2  436   2.833   5.541   5.065 -0.8959  1.4609 -0.1605
  166SOL    HW3  437   2.729   5.482   4.973 -0.5910  0.7141 -0.0308
  166SOL    MW4  438   2.756   5.501   5.053 -0.1761 -0.0487  0.0218
  167SOL     OW  439   1.234   4.656   5.784 -0.3501  0.5004 -0.4684
  167SOL    HW2  440   1.290   4.579   5.797 -0.4855  0.7830  2.6036
  167SOL    HW3  441   1.288   4.717   5.734  1.5077  0.1093  0.9526
  167SOL    MW4  442   1.249   4.654   5.779 -0.1229  0.4861  0.1244
  168SOL     OW  443   5.411   0.961   4.329  0.0752  0.1805  0.9295
  168SOL    HW2  444   5.400   1.022   4.403  0.6545  3.5024 -1.4703
  168SOL    HW3  445   5.502   0.974   4.301  0.1155 -1.6208  0.0970
  168SOL    MW4  446   5.422   0.971   4.335  0.1570  0.3811  0.5031
  169SOL     OW  447   5.058   2.640   5.557 -0.7957  0.7724  0.2381
  169SOL    HW2  448   5.054   2.591   5.640 -1.4597  0.0388 -0.2070
  169SOL    HW3  449   5.100   2.723   5.580 -0.4794  0.3615  1.2007
  169SOL    MW4  450   5.063   2.645   5.571 -0.8416  0.6214  0.3064
  170SOL     OW  451   5.867   0.677   2.101  0.4395 -0.0094 -0.0709
  170SOL    HW2  452   5.934   0.621   2.141  0.8185  0.8348  0.5190
  170SOL    HW3  453   5.784   0.637   2.125  0.7166 -0.5274  0.0298
  170SOL    MW4  454   5.865   0.665   2.110  0.5261  0.0336  0.0202
  171SOL     OW  455   6.244   1.016   2.154  0.2068  0.4719 -0.2832
  171SOL    HW2  456   6.213   0.970   2.233  0.8110  2.4474  1.1925
  171SOL    HW3  457   6.172   1.005   2.091 -1.2691  0.6316  1.2868
  171SOL    MW4  458   6.230   1.008   2.156  0.0918  0.7536  0.1187
  172SOL     OW  459   3.611   4.326   5.331 -0.2277  0.2898 -0.3494
  172SOL    HW2  460   3.581   4.267   5.262 -0.6997 -0.2966  0.3313
  172SOL    HW3  461   3.690   4.285   5.366  1.3078  1.7087 -1.9729
  172SOL    MW4  462   3.617   4.313   5.326 -0.0874  0.3996 -0.4738
  173SOL     OW  463   5.125   0.243   5.313  0.1785 -0.4491  0.1207
  173SOL    HW2  464   5.106   0.171   5.373 -0.7930  0.1381  0.5232
  173SOL    HW3  465   5.125   0.202   5.226  0.9970 -1.1819  0.4500
  173SOL    MW4  466   5.123   0.228   5.309  0.1583 -0.4683  0.2173
  174SOL     OW  467   0.637   2.803   1.493 -0.6432  0.2929  0.0558
  174SOL    HW2  468   0.606   2.726   1.446 -1.7520  0.3850  0.5948
  174SOL    HW3  469   0.578   2.873   1.466  1.0989  1.2960 -1.3915
  174SOL    MW4  470   0.625   2.802   1.483 -0.5596  0.4374 -0.0640
  175SOL     OW  471   0.660   4.025   0.547 -0.1690 -0.1534  0.3379
  175SOL    HW2  472   0.609   4.067   0.616  1.0057  1.8808  0.0400
  175SOL    HW3  473   0.594   3.989   0.486 -1.2006 -0.3520  1.5376
  175SOL    MW4  474   0.645   4.026   0.548 -0.1501  0.0888  0.4568
  176SOL     OW  475   1.204   5.652   1.562 -0.2384  0.2527 -0.4837
  176SOL    HW2  476   1.245   5.656   1.476 -1.5012  0.0990 -1.1267
  176SOL    HW3  477   1.227   5.735   1.604 -0.8555  1.0018 -1.5846
  176SOL    MW4  478   1.212   5.664   1.556 -0.4864  0.3313 -0.7138
  177SOL     OW  479   5.702   2.110   0.490 -1.0225 -0.2497  0.3393
  177SOL    HW2  480   5.735   2.047   0.426 -0.9192 -0.6395  0.7694
  177SOL    HW3  481   5.630   2.064   0.533 -0.4587 -0.3579  1.1780
  177SOL    MW4  482   5.697   2.095   0.487 -0.9345 -0.3154  0.5067
  178SOL     OW  483   6.266   0.247   0.794  0.6883  0.3578  0.2522
  178SOL    HW2  484   6.203   0.216   0.859  1.3823  0.1287  0.8203
  178SOL    HW3  485   6.267   0.342   0.805 -1.7802  0.7228 -1.7976
  178SOL    MW4  486   6.258   0.256   0.804  0.4541  0.3758  0.0567
  179SOL     OW  487   2.780   3.453   5.625 -0.0412  0.1309  0.0149
  179SOL    HW2  488   2.715   3.518   5.652  1.4180  1.4118  0.5900
  179SOL    HW3  489   2.782   3.460   5.529 -0.9430 -0.1371 -0.0337
  179SOL    MW4  490   2.771   3.463   5.616  0.0323  0.2645  0.0843
  180SOL     OW  491   1.008   4.353   3.368 -0.2834 -0.0058  0.2504
  180SOL    HW2  492   1.004   4.349   3.464  0.6861  2.2517  0.4286
  180SOL    HW3  493   0.959   4.431   3.345 -0.4834 -0.5101 -1.1132
  180SOL    MW4  494   1.001   4.362   3.378 -0.1819  0.2255  0.0940
  181SOL     OW  495   4.899   0.074   1.061 -0.3066 -0.4786  0.8521
  181SOL    HW2  496   4.951   0.129   1.120 -1.3038 -0.6917  1.9655
  181SOL    HW3  497   4.911  -0.015   1.093 -0.0033 -0.7335  0.0576
  181SOL    MW4  498   4.907   0.070   1.073 -0.3982 -0.5403  0.8942
  182SOL     OW  499   2.933   4.255   5.160  0.1009 -0.3260  0.2689
  182SOL    HW2  500   2.997   4.257   5.089 -0.7959 -0.5390 -0.5664
  182SOL    HW3  501   2.848   4.256   5.116 -0.5203  1.9985  1.3963
  182SOL    MW4  502   2.930   4.255   5.145 -0.0994 -0.0474  0.3074
  183SOL     OW  503   4.973   4.423   1.731 -0.0405 -0.5487  0.1925
  183SOL    HW2  504   5.068   4.418   1.743  0.1261  0.3388 -0.6598
  183SOL    HW3  505   4.949   4.508   1.767 -0.7146 -1.2607  1.5130
  183SOL    MW4  506   4.982   4.433   1.737 -0.1075 -0.5255  0.2543
  184SOL     OW  507   5.666   6.026   5.369  0.7919 -0.4097 -0.2524
  184SOL    HW2  508   5.694   5.939   5.397 -1.5335 -0.7848  1.1959
  184SOL    HW3  509   5.714   6.042   5.288  3.5386 -1.7396  0.9592
  184SOL    MW4  510   5.676   6.016   5.362  0.8475 -0.6346  0.0985
  185SOL     OW  511   0.616   0.674   3.282 -0.5434  0.5570  0.2517
  185SOL    HW2  512   0.684   0.642   3.342 -1.1310  0.6450  0.9770
  185SOL    HW3  513   0.660   0.740   3.229 -0.0267  0.5156  0.6208
  185SOL    MW4  514   0.631   0.678   3.283 -0.5528  0.5632  0.3961
  186SOL     OW  515   4.038   5.635   1.600  0.2049 -0.3562 -0.3549
  186SOL    HW2  516   4.012   5.621   1.509 -1.0838  0.8309 -0.2013
  186SOL    HW3  517   4.110   5.698   1.595 -1.1246  1.2373 -0.5129
  186SOL    MW4  518   4.044   5.642   1.588 -0.1405  0.0107 -0.3555
  187SOL     OW  519   5.429   5.458   6.044 -0.2069 -0.1929 -0.2988
  187SOL    HW2  520   5.385   5.518   6.104 -0.2358 -2.0573  1.6552
  187SOL    HW3  521   5.376   5.461   5.964 -1.1693  1.0867  0.3488
  187SOL    MW4  522   5.416   5.467   6.042 -0.3377 -0.2701  0.0444
  188SOL     OW  523   5.618   1.754   1.038 -0.8453  0.5021 -0.1304
  188SOL    HW2  524   5.658   1.827   0.990  3.6693 -0.3143  1.8884
  188SOL    HW3  525   5.614   1.683   0.974 -0.9958  1.2094 -0.9282
  188SOL    MW4  526   5.623   1.754   1.023 -0.2695  0.4877  0.0307
  189SOL     OW  527   5.283   6.407   4.319 -0.2858 -0.2688  0.3101
  189SOL    HW2  528   5.261   6.329   4.269 -0.5869  0.5850 -0.9251
  189SOL    HW3  529   5.370   6.389   4.356 -0.5772 -1.3763  0.4759
  189SOL    MW4  530   5.292   6.395   4.317 -0.3639 -0.3022  0.1690
  190SOL     OW  531   6.096   4.934   4.870 -0.6922  0.2427 -0.1932
  190SOL    HW2  532   6.178   4.887   4.888  0.7228  2.3801 -0.7064
  190SOL    HW3  533   6.105   4.964   4.780 -1.3032  1.8763  0.2508
  190SOL    MW4  534   6.108   4.932   4.861 -0.5861  0.7402 -0.2023
  191SOL     OW  535   1.646   4.591   0.134 -0.3937  0.3413 -0.2950
  191SOL    HW2  536   1.645   4.664   0.196  0.7811  0.0980  0.0289
  191SOL    HW3  537   1.729   4.547   0.149 -1.9651 -2.4446  1.1136
  191SOL    MW4  538   1.657   4.595   0.144 -0.4460 -0.0584 -0.0664
  192SOL     OW  539   0.196   1.802   3.995 -0.1175  0.4185  0.2823
  192SOL    HW2  540   0.104   1.775   3.994 -0.5453  1.7211  1.0436
  192SOL    HW3  541   0.235   1.753   4.067 -0.6062  0.9318  0.9207
  192SOL    MW4  542   0.189   1.792   4.005 -0.2384  0.6581  0.4669
  193SOL     OW  543   0.086   2.285   0.551  0.0750 -0.2583  0.5280
  193SOL    HW2  544   0.058   2.278   0.460  1.4024  1.7478 -0.0993
  193SOL    HW3  545   0.130   2.202   0.569  0.8974 -0.2102 -1.0828
  193SOL    MW4  546   0.088   2.273   0.542  0.3587  0.0127  0.2327
  194SOL     OW  547   2.866   3.752   5.779 -0.1546  0.3998  0.1958
  194SOL    HW2  548   2.905   3.784   5.698  0.5551 -2.6487 -0.8215
  194SOL    HW3  549   2.776   3.729   5.755 -0.0076 -0.3128  0.3017
  194SOL    MW4  550   2.859   3.753   5.765 -0.0416 -0.0964  0.0756
  195SOL     OW  551   2.405   4.899   4.514 -1.0337  0.2992  0.4584
  195SOL    HW2  552   2.424   4.858   4.430 -3.9156  1.8639 -1.1031
  195SOL    HW3  553   2.470   4.968   4.523 -1.0284  0.4735 -0.7894
  195SOL    MW4  554   2.416   4.902   4.504 -1.4132  0.5286  0.0877
  196SOL     OW  555   4.219   1.729   5.759  0.7482  0.0580 -0.1740
  196SOL    HW2  556   4.288   1.765   5.703 -0.5250  1.2463 -1.0346
  196SOL    HW3  557   4.198   1.644   5.720  0.8588  0.2459 -0.6439
  196SOL    MW4  558   4.225   1.723   5.747  0.5948  0.2395 -0.3495
  197SOL     OW  559   3.192   0.656   5.115 -0.8901  0.0339 -0.2392
  197SOL    HW2  560   3.188   0.619   5.203  1.7119 -1.1771 -0.5286
  197SOL    HW3  561   3.137   0.598   5.062 -0.1526 -0.9853  0.0858
  197SOL    MW4  562   3.184   0.644   5.119 -0.4495 -0.2604 -0.2345
  198SOL     OW  563   5.648   3.381   4.354 -0.1264 -0.0569 -0.7933
  198SOL    HW2  564   5.575   3.330   4.390  1.0799 -1.6557 -0.4828
  198SOL    HW3  565   5.613   3.420   4.274 -1.4468 -0.4275 -0.4202
  198SOL    MW4  566   5.634   3.379   4.348 -0.1415 -0.3168 -0.7031
  199SOL     OW  567   2.942   4.750   4.778 -0.2468 -0.5899  0.3327
  199SOL    HW2  568   2.915   4.658   4.771 -0.6851 -0.4633  0.2964
  199SOL    HW3  569   2.872   4.798   4.734  0.6261 -0.3394 -0.8345
  199SOL    MW4  570   2.929   4.744   4.771 -0.1895 -0.5401  0.1739
  200SOL     OW  571   4.428   6.016   4.325  0.7457 -0.0988 -0.2470
  200SOL    HW2  572   4.341   6.055   4.317  0.7115  0.0435  0.6506
  200SOL    HW3  573   4.413   5.922   4.324 -0.1206 -0.3226  4.9163
  200SOL    MW4  574   4.415   6.009   4.324  0.6269 -0.1095  0.5526
  201SOL     OW  575   5.979   3.633   5.297 -0.9140 -0.6292 -0.0391
  201SOL    HW2  576   6.058   3.579   5.291 -0.9788 -0.8624  0.9435
  201SOL    HW3  577   5.995   3.707   5.239  2.1262  1.9269  3.5735
  201SOL    MW4  578   5.992   3.635   5.289 -0.5215 -0.3228  0.5672
  202SOL     OW  579   3.322   1.957   2.819 -0.2709 -0.0077 -0.1106
  202SOL    HW2  580   3.373   1.876   2.827  1.7128  1.2687  0.9430
  202SOL    HW3  581   3.262   1.940   2.746 -1.0012 -2.9370  0.9992
  202SOL    MW4  582   3.321   1.944   2.811 -0.1056 -0.2258  0.1748
  203SOL     OW  583   2.558   0.268   2.372  0.6320  0.0908  0.0777
  203SOL    HW2  584   2.521   0.181   2.359  0.0461  0.2128  0.8493
  203SOL    HW3  585   2.590   0.267   2.462 -0.9136  1.2014  0.6809
  203SOL    MW4  586   2.557   0.257   2.382  0.3507  0.2534  0.2591
  204SOL     OW  587   1.526   2.136   0.676  0.3858  0.4673 -0.3539
  204SOL    HW2  588   1.586   2.174   0.740  0.4431 -0.1517 -0.0333
  204SOL    HW3  589   1.577   2.067   0.633  0.5560  1.2939 -1.5243
  204SOL    MW4  590   1.540   2.132   0.679  0.4158  0.4947 -0.4660
  205SOL     OW  591   0.899   3.303   0.725 -0.4544  0.2809  0.5066
  205SOL    HW2  592   0.903   3.236   0.657  0.5723  0.1319  0.6946
  205SOL    HW3  593   0.806   3.320   0.737 -0.7246 -0.9354  0.2780
  205SOL    MW4  594   0.887   3.296   0.718 -0.3546  0.1008  0.5012
  206SOL     OW  595   0.820   1.786   5.075  0.0440 -0.5851  0.0939
  206SOL    HW2  596   0.889   1.823   5.129 -0.6506 -1.1659  1.4210
  206SOL    HW3  597   0.866   1.740   5.005  0.9682 -0.1058  0.3757
  206SOL    MW4  598   0.835   1.785   5.073  0.0743 -0.5985  0.3062
  207SOL     OW  599   3.211   1.980   3.084  0.5782  0.4433  0.3974
  207SOL    HW2  600   3.228   1.980   2.990  1.0596 -0.3115  0.4783
  207SOL    HW3  601   3.165   1.897   3.100  2.0167 -0.2648  1.0772
  207SOL    MW4  602   3.207   1.969   3.074  0.8315  0.2503  0.4978
  208SOL     OW  603   1.660   5.460   2.899 -0.0354 -0.1580 -0.0702
  208SOL    HW2  604   1.596   5.410   2.850 -1.1086  1.2838 -0.2026
  208SOL    HW3  605   1.745   5.435   2.862 -0.7188 -0.1443 -1.6903
  208SOL    MW4  606   1.663   5.450   2.888 -0.2672  0.0340 -0.3014
  209SOL     OW  607   2.285   5.316   0.479 -0.4707 -0.1579  0.6743
  209SOL    HW2  608   2.289   5.398   0.528 -0.5760 -0.3425  0.9942
  209SOL    HW3  609   2.359   5.264   0.513 -0.4578 -0.2307  0.5360
  209SOL    MW4  610   2.296   5.320   0.490 -0.4829 -0.1918  0.6983
  210SOL     OW  611   2.351   4.319   0.323 -0.0077  0.3702  0.2403
  210SOL    HW2  612   2.276   4.262   0.337  1.0469 -0.9233  0.7971
  210SOL    HW3  613   2.334   4.360   0.238 -1.8876  1.0122  0.8760
  210SOL    MW4  614   2.339   4.317   0.314 -0.1166  0.2842  0.3977
  211SOL     OW  615   2.524   5.086   2.362  0.1653  0.1432 -0.4585
  211SOL    HW2  616   2.441   5.056   2.325  0.4170 -1.7051  0.3333
  211SOL    HW3  617   2.591   5.052   2.303  0.4522 -0.7249  0.3343
  211SOL    MW4  618   2.522   5.077   2.349  0.2364 -0.2152 -0.2494
  212SOL     OW  619   1.633   1.583   4.276  0.2758  0.0356 -0.8678
  212SOL    HW2  620   1.549   1.539   4.293  0.8001 -0.8242 -0.4214
  212SOL    HW3  621   1.679   1.522   4.218 -0.0990  1.3236 -2.6014
  212SOL    MW4  622   1.628   1.569   4.271  0.2955  0.0921 -1.0376
  213SOL     OW  623   4.581   1.190   4.625  0.0530 -0.2415 -0.2137
  213SOL    HW2  624   4.497   1.147   4.636  0.9361 -1.9444  0.1150
  213SOL    HW3  625   4.588   1.207   4.531 -1.0550  0.8204 -0.1273
  213SOL    MW4  626   4.571   1.187   4.614  0.0233 -0.3261 -0.1589
  214SOL     OW  627   0.372   5.356   4.300 -0.0772  0.8961  0.3729
  214SOL    HW2  628   0.401   5.440   4.264 -0.9558  0.6337 -1.0147
  214SOL    HW3  629   0.453   5.305   4.309  0.2930  1.3748 -0.1769
  214SOL    MW4  630   0.387   5.360   4.296 -0.1442  0.9246  0.1173
  215SOL     OW  631   4.585   2.758   5.976  0.6453  0.0889 -0.2611
  215SOL    HW2  632   4.628   2.792   5.897 -1.6698  2.3343 -0.6662
  215SOL    HW3  633   4.513   2.704   5.942  3.0498 -3.9746  0.4031
  215SOL    MW4  634   4.581   2.755   5.961  0.6571 -0.1509 -0.2269
  216SOL     OW  635   2.701   6.338   4.214  0.2780  0.6185 -0.1042
  216SOL    HW2  636   2.606   6.335   4.202  0.3794  0.2164 -0.9166
  216SOL    HW3  637   2.724   6.430   4.204  0.1199  0.5486 -1.2709
  216SOL    MW4  638   2.691   6.350   4.211  0.2705  0.5562 -0.3653
  217SOL     OW  639   2.419   5.807   3.878  0.0286 -0.1047 -0.3595
  217SOL    HW2  640   2.487   5.755   3.836  1.3916  0.6408  0.8395
  217SOL    HW3  641   2.400   5.877   3.815 -0.2520 -0.7758 -1.0461
  217SOL    MW4  642   2.426   5.810   3.864  0.1714 -0.0949 -0.2919
  218SOL     OW  643   5.333   1.348   4.712  0.2711  0.0605  0.0789
  218SOL    HW2  644   5.262   1.407   4.686 -1.3465 -2.8384 -2.7636
  218SOL    HW3  645   5.290   1.281   4.764  1.6362  0.0390  1.2453
  218SOL    MW4  646   5.318   1.347   4.716  0.2378 -0.3248 -0.1422
  219SOL     OW  647   1.146   1.514   2.899  0.2122 -0.4828  0.0530
  219SOL    HW2  648   1.116   1.513   2.808  0.3907 -0.6388 -0.0063
  219SOL    HW3  649   1.111   1.595   2.935 -1.6941 -1.4418  0.4817
  219SOL    MW4  650   1.138   1.524   2.892 -0.0158 -0.6299  0.1018
  220SOL     OW  651   1.308   5.895   2.408 -0.6812 -0.0555 -0.0206
  220SOL    HW2  652   1.317   5.871   2.500 -1.5408 -1.2780 -0.2297
  220SOL    HW3  653   1.260   5.978   2.410 -2.3814 -1.0039  0.6096
  220SOL    MW4  654   1.302   5.903   2.420 -1.0189 -0.3419  0.0350
  221SOL     OW  655   5.647   5.019   0.469  0.2308 -0.0312 -0.0177
  221SOL    HW2  656   5.656   5.114   0.458  1.9120 -0.1213  0.2964
  221SOL    HW3  657   5.634   4.985   0.380 -1.0798  0.5202 -0.0656
  221SOL    MW4  658   5.646   5.027   0.456  0.2797  0.0297  0.0174
  222SOL     OW  659   6.430   0.819   0.142 -0.3650 -0.1109  0.1558
  222SOL    HW2  660   6.401   0.762   0.070 -1.6588 -2.0801  2.0872
  222SOL    HW3  661   6.359   0.883   0.152  0.4161  1.0020 -1.0784
  222SOL    MW4  662   6.416   0.820   0.134 -0.4326 -0.2239  0.2478
  223SOL     OW  663   2.335   3.528   3.847  0.1817  0.0873  0.1732
  223SOL    HW2  664   2.304   3.466   3.914  2.0290 -2.0295 -0.8051
  223SOL    HW3  665   2.258   3.544   3.792 -0.1128 -2.4112 -0.2929
  223SOL    MW4  666   2.321   3.522   3.849  0.3866 -0.5217 -0.0173
  224SOL     OW  667   2.544   5.784   0.726 -0.0333  0.1533  0.1791
  224SOL    HW2  668   2.626   5.739   0.706 -0.0581 -0.3487  1.1522
  224SOL    HW3  669   2.476   5.719   0.706 -0.2991  0.9009 -1.6140
  224SOL    MW4  670   2.546   5.769   0.720 -0.0717  0.1857  0.0710
  225SOL     OW  671   4.109   5.345   2.168 -0.0660 -0.3106 -0.5358
  225SOL    HW2  672   4.114   5.312   2.078 -0.3502  0.5819 -0.8991
  225SOL    HW3  673   4.200   5.351   2.196 -0.0135 -1.4048 -0.4482
  225SOL    MW4  674   4.122   5.342   2.160 -0.0966 -0.3372 -0.5722
  226SOL     OW  675   2.578   1.500   5.163  0.0049 -0.2239 -0.2453
  226SOL    HW2  676   2.669   1.514   5.137 -0.5042  1.3375 -1.3673
  226SOL    HW3  677   2.556   1.578   5.215 -0.4264 -1.0395  0.8268
  226SOL    MW4  678   2.587   1.512   5.167 -0.1192 -0.1255 -0.2519
  227SOL     OW  679   2.712   0.527   4.178  0.1504 -0.3774 -0.1332
  227SOL    HW2  680   2.668   0.587   4.117 -1.2123  0.1754  1.3141
  227SOL    HW3  681   2.706   0.441   4.136 -2.0372 -0.2583 -0.1802
  227SOL    MW4  682   2.705   0.524   4.164 -0.3180 -0.2888  0.0516
  228SOL     OW  683   2.480   4.725   5.574 -0.2220  0.4536 -0.2653
  228SOL    HW2  684   2.481   4.651   5.635  1.1778  1.6008  1.2144
  228SOL    HW3  685   2.388   4.737   5.552 -0.5140 -1.4657 -0.2329
  228SOL    MW4  686   2.468   4.717   5.579 -0.0758  0.3517 -0.0658
  229SOL     OW  687   0.018   0.266   1.535 -0.3208  0.1678 -0.1532
  229SOL    HW2  688   0.046   0.356   1.517 -0.9973  0.1100 -1.6368
  229SOL    HW3  689   0.008   0.226   1.449 -2.5061 -0.5586  0.3818
  229SOL    MW4  690   0.020   0.272   1.521 -0.6984  0.0644 -0.2784
  230SOL     OW  691   3.910   3.542   4.159 -0.2738  0.2473 -0.7582
  230SOL    HW2  692   3.926   3.449   4.178 -1.1901  0.3190  0.4963
  230SOL    HW3  693   3.986   3.569   4.108 -1.2378 -1.8796 -3.6176
  230SOL    MW4  694   3.922   3.533   4.155 -0.5219 -0.0238 -0.9700
  231SOL     OW  695   5.424   5.984   0.918 -0.0967 -0.0686 -0.1189
  231SOL    HW2  696   5.384   5.973   0.831 -0.6103  2.3081 -0.2509
  231SOL    HW3  697   5.353   5.965   0.979 -0.5037  0.8714 -0.2875
  231SOL    MW4  698   5.409   5.980   0.915 -0.2182  0.3690 -0.1585
  232SOL     OW  699   0.783   4.583   5.944  0.2347  0.0044  0.5207
  232SOL    HW2  700   0.695   4.574   5.906  0.3419  0.5565  0.1234
  232SOL    HW3  701   0.770   4.641   6.019  0.5209  1.5799 -0.5878
  232SOL    MW4  702   0.769   4.590   5.949  0.2866  0.2851  0.3220
  233SOL     OW  703   0.176   6.376   2.176 -0.6412  0.2100  0.1527
  233SOL    HW2  704   0.157   6.293   2.220  1.7933 -0.6807 -0.3128
  233SOL    HW3  705   0.259   6.405   2.214  0.6654  0.2936 -2.5578
  233SOL    MW4  706   0.184   6.369   2.187 -0.1476  0.1035 -0.2663
  234SOL     OW  707   4.879   1.109   2.863 -0.5528 -0.1394 -0.3162
  234SOL    HW2  708   4.837   1.038   2.911  0.4915 -1.0836 -0.7555
  234SOL    HW3  709   4.806   1.161   2.829 -1.3130 -0.1498  1.2297
  234SOL    MW4  710   4.864   1.107   2.865 -0.5153 -0.2654 -0.1702
  235SOL     OW  711   1.246   3.526   3.209 -0.2905 -0.3980  0.1157
  235SOL    HW2  712   1.241   3.441   3.165  1.0782 -0.1074 -0.6593
  235SOL    HW3  713   1.248   3.505   3.302 -0.8589 -1.1578 -0.0334
  235SOL    MW4  714   1.245   3.512   3.216 -0.1849 -0.4599 -0.0062
  236SOL     OW  715   1.312   2.185   3.499  0.3057  0.2611 -1.0244
  236SOL    HW2  716   1.395   2.230   3.515 -0.3181  0.8878  0.6867
  236SOL    HW3  717   1.333   2.092   3.508  0.5039  0.4767  1.3439
  236SOL    MW4  718   1.326   2.178   3.503  0.2496  0.3722 -0.4862
  237SOL     OW  719   0.298   5.848   2.838  0.1599  0.2700  0.2147
  237SOL    HW2  720   0.242   5.829   2.913 -0.3934 -0.8119 -0.4486
  237SOL    HW3  721   0.357   5.773   2.833  0.4135  0.4956 -0.2376
  237SOL    MW4  722   0.299   5.836   2.847  0.1203  0.1570  0.0675
  238SOL     OW  723   5.540   2.130   1.467 -0.0402  0.4520 -0.4990
  238SOL    HW2  724   5.520   2.221   1.445 -0.2135  1.1894  2.2408
  238SOL    HW3  725   5.465   2.101   1.519  0.8470 -0.6207  0.2412
  238SOL    MW4  726   5.527   2.138   1.471  0.0539  0.4078 -0.0399
  239SOL     OW  727   1.144   6.323   0.127  0.0212  0.2951 -0.9701
  239SOL    HW2  728   1.191   6.374   0.193  0.4993  0.8182 -1.6920
  239SOL    HW3  729   1.170   6.362   0.044 -0.3379 -0.5407 -1.4905
  239SOL    MW4  730   1.154   6.335   0.125  0.0369  0.2539 -1.1340
  240SOL     OW  731   1.074   1.952   5.459 -0.1138 -0.4140 -0.0423
  240SOL    HW2  732   1.046   2.043   5.450 -0.5737 -0.5962 -0.5649
  240SOL    HW3  733   1.168   1.957   5.474 -0.0174  0.1298 -0.7247
  240SOL    MW4  734   1.083   1.965   5.459 -0.1617 -0.3663 -0.2013
  241SOL     OW  735   1.807   5.042   1.812  0.4458  0.5740 -0.0499
  241SOL    HW2  736   1.833   5.011   1.899  0.7400  1.3817  0.1531
  241SOL    HW3  737   1.756   5.121   1.829 -0.2755  0.2352 -0.5674
  241SOL    MW4  738   1.804   5.048   1.826  0.3894  0.6358 -0.0914
  242SOL     OW  739   5.487   4.511   2.698 -0.5100 -0.1171  0.6143
  242SOL    HW2  740   5.458   4.453   2.769  0.8987 -2.4244 -0.5692
  242SOL    HW3  741   5.519   4.452   2.630  2.3655  2.0598 -0.1330
  242SOL    MW4  742   5.487   4.496   2.699  0.0552 -0.1343  0.3596
  243SOL     OW  743   4.920   0.685   4.934  0.0936 -0.0294  0.1094
  243SOL    HW2  744   4.832   0.652   4.918  0.9063 -1.7964 -1.1884
  243SOL    HW3  745   4.972   0.648   4.863  2.1669 -0.3453  1.6810
  243SOL    MW4  746   4.916   0.675   4.923  0.4744 -0.3042  0.1455
  244SOL     OW  747   2.345   3.163   3.715 -0.3211 -0.3673  0.2031
  244SOL    HW2  748   2.398   3.241   3.701  1.3385 -1.1615  1.6287
  244SOL    HW3  749   2.369   3.105   3.643  1.7078 -1.1562  1.4262
  244SOL    MW4  750   2.355   3.166   3.703  0.1656 -0.5762  0.5526
  245SOL     OW  751   1.744   4.096   4.381  0.0236  0.2016 -0.0821
  245SOL    HW2  752   1.722   4.028   4.445  0.3726 -0.1670 -0.3553
  245SOL    HW3  753   1.835   4.119   4.399  0.6904 -1.1245 -1.5361
  245SOL    MW4  754   1.753   4.090   4.392  0.1576 -0.0220 -0.3100
  246SOL     OW  755   1.441   1.792   2.994 -0.4507  0.0545  0.1948
  246SOL    HW2  756   1.422   1.853   2.922 -0.9495 -1.9017 -1.4228
  246SOL    HW3  757   1.535   1.801   3.010 -0.3241  0.4736 -0.7505
  246SOL    MW4  758   1.451   1.802   2.987 -0.4998 -0.1483 -0.1433
  247SOL     OW  759   1.264   5.333   0.388  0.0348 -0.1347  0.3550
  247SOL    HW2  760   1.354   5.353   0.361 -0.0274  0.2169  0.4086
  247SOL    HW3  761   1.253   5.240   0.367 -0.1759  0.2370 -1.3374
  247SOL    MW4  762   1.274   5.323   0.382 -0.0012 -0.0392  0.1388
  248SOL     OW  763   6.009   3.173   5.271 -0.2203 -0.2179  0.2262
  248SOL    HW2  764   5.960   3.091   5.275  0.0698 -0.3766  0.5971
  248SOL    HW3  765   5.954   3.232   5.219 -1.3708  0.0077  1.6431
  248SOL    MW4  766   5.995   3.170   5.265 -0.3338 -0.2091  0.4621
  249SOL     OW  767   0.787   4.241   0.062 -0.3597  0.5593  0.0402
  249SOL    HW2  768   0.801   4.287   0.145 -1.1267 -0.2224  0.6305
  249SOL    HW3  769   0.712   4.184   0.079  1.7620 -2.4920  0.0804
  249SOL    MW4  770   0.779   4.239   0.075 -0.1809  0.0536  0.1234
  250SOL     OW  771   1.994   5.964   0.563 -0.0182 -0.2634 -0.1554
  250SOL    HW2  772   1.944   5.949   0.483 -0.1046 -0.4066 -0.0744
  250SOL    HW3  773   2.073   6.009   0.533 -0.2650  0.0953 -0.2628
  250SOL    MW4  774   1.998   5.968   0.548 -0.0622 -0.2350 -0.1589
  251SOL     OW  775   6.383   0.121   5.495 -0.0343 -0.1910  0.0363
  251SOL    HW2  776   6.475   0.122   5.471  0.1327  0.2830  0.6726
  251SOL    HW3  777   6.362   0.212   5.513 -0.7148 -0.2519 -0.4232
  251SOL    MW4  778   6.392   0.133   5.494 -0.1020 -0.1365  0.0596
  252SOL     OW  779   0.890   0.960   4.083  0.0821 -0.1895 -0.5250
  252SOL    HW2  780   0.811   0.935   4.034  0.2603  0.5541 -1.2001
  252SOL    HW3  781   0.939   0.879   4.093 -1.1812 -0.8519  0.6832
  252SOL    MW4  782   0.886   0.946   4.078 -0.0610 -0.1788 -0.4547
  253SOL     OW  783   3.382   5.185   0.632 -0.4718  0.6181  0.0453
  253SOL    HW2  784   3.476   5.181   0.613 -0.3714 -1.8385  0.6792
  253SOL    HW3  785   3.340   5.154   0.553 -0.5830 -0.5876  0.5563
  253SOL    MW4  786   3.389   5.180   0.619 -0.4733  0.1349  0.1964
  254SOL     OW  787   0.899   0.757   3.426  0.6197 -0.2404 -0.4348
  254SOL    HW2  788   0.995   0.749   3.423  0.5450 -1.7281  0.1853
  254SOL    HW3  789   0.868   0.668   3.445 -0.9203  0.1311 -1.0811
  254SOL    MW4  790   0.908   0.744   3.428  0.4067 -0.3877 -0.4382
  255SOL     OW  791   3.082   3.559   3.456  0.9833 -0.2237 -0.4152
  255SOL    HW2  792   3.114   3.616   3.525 -0.2065  0.1894 -0.1795
  255SOL    HW3  793   3.149   3.491   3.447  1.0605 -0.4162  1.3025
  255SOL    MW4  794   3.095   3.557   3.464  0.8365 -0.1946 -0.1575
  256SOL     OW  795   4.005   1.590   3.965  0.2043 -0.4393 -0.0935
  256SOL    HW2  796   4.018   1.649   3.891 -0.9264 -1.9431 -1.5509
  256SOL    HW3  797   4.004   1.502   3.926  0.6696 -1.3617  1.8527
  256SOL    MW4  798   4.007   1.586   3.950  0.1165 -0.7594 -0.0290
  257SOL     OW  799   4.617   0.446   1.481 -0.1168 -0.3022  0.7848
  257SOL    HW2  800   4.696   0.493   1.456 -0.8309  0.6325  0.2199
  257SOL    HW3  801   4.619   0.366   1.427 -0.6546  0.7751 -0.9095
  257SOL    MW4  802   4.627   0.441   1.470 -0.2820 -0.0367  0.4867
  258SOL     OW  803   2.224   1.225   0.142 -0.2746 -0.6780  0.3560
  258SOL    HW2  804   2.245   1.317   0.127  0.5026 -0.9701 -0.4441
  258SOL    HW3  805   2.257   1.206   0.229 -1.8983  0.2055  1.2116
  258SOL    MW4  806   2.231   1.235   0.151 -0.3863 -0.6000  0.3633
  259SOL     OW  807   1.014   5.731   5.817  0.2397  1.0335 -0.0397
  259SOL    HW2  808   0.952   5.659   5.830  1.8609 -0.0629  2.1678
  259SOL    HW3  809   1.024   5.771   5.903  3.1156  0.6837 -0.1137
  259SOL    MW4  810   1.007   5.727   5.830  0.8330  0.8427  0.2418
  260SOL     OW  811   0.100   5.293   4.329  0.5061  0.1536  0.0237
  260SOL    HW2  812   0.037   5.365   4.335 -0.0184 -0.0093 -2.3044
  260SOL    HW3  813   0.185   5.335   4.341  0.0688  0.6595  1.5381
  260SOL    MW4  814   0.103   5.308   4.331  0.3792  0.1988 -0.0836
  261SOL     OW  815   4.937   2.867   1.713  0.1889  0.0107 -0.1222
  261SOL    HW2  816   4.934   2.773   1.693 -0.0686 -0.1917  0.8052
  261SOL    HW3  817   4.874   2.878   1.784  0.0033  0.9455 -0.4227
  261SOL    MW4  818   4.929   2.856   1.720  0.1304  0.1073 -0.0395
  262SOL     OW  819   3.374   4.106   1.364  0.8117 -0.0799 -0.0439
  262SOL    HW2  820   3.356   4.129   1.455 -0.2755 -0.7900 -0.0615
  262SOL    HW3  821   3.302   4.048   1.339  0.9303  0.3322 -1.4468
  262SOL    MW4  822   3.362   4.102   1.373  0.6839 -0.1192 -0.2314
  263SOL     OW  823   1.666   0.757   2.873  0.0265 -0.1520  0.0794
  263SOL    HW2  824   1.648   0.816   2.800  0.6489 -0.0886 -0.0351
  263SOL    HW3  825   1.685   0.816   2.946 -0.3609 -0.2158  0.2329
  263SOL    MW4  826   1.666   0.773   2.873  0.0575 -0.1521  0.0846
  264SOL     OW  827   1.198   0.566   5.251 -0.3580  0.2322 -0.1805
  264SOL    HW2  828   1.105   0.558   5.234 -0.6801  1.0432  1.0638
  264SOL    HW3  829   1.227   0.476   5.269 -0.7636 -0.0974 -1.0907
  264SOL    MW4  830   1.190   0.553   5.251 -0.4540  0.2957 -0.1364
  265SOL     OW  831   4.144   4.043   3.489  0.0765  0.3700 -0.1968
  265SOL    HW2  832   4.227   4.051   3.537  0.4734 -0.3328 -0.7375
  265SOL    HW3  833   4.101   4.127   3.501  1.3468  1.1325 -0.7623
  265SOL    MW4  834   4.149   4.055   3.497  0.2965  0.3779 -0.3427
  266SOL     OW  835   4.028   0.848   1.771  0.0372 -0.2968  0.5747
  266SOL    HW2  836   4.113   0.810   1.795  0.2439 -0.7302 -0.7653
  266SOL    HW3  837   4.049   0.909   1.701 -0.5209  1.1054  1.5794
  266SOL    MW4  838   4.042   0.851   1.765 -0.0091 -0.1690  0.5304
  267SOL     OW  839   4.792   3.185   2.668  0.0720 -0.2493 -0.6788
  267SOL    HW2  840   4.829   3.113   2.720 -0.4498 -0.9407 -1.2474
  267SOL    HW3  841   4.794   3.260   2.727 -1.8160 -1.3165  0.8775
  267SOL    MW4  842   4.797   3.185   2.683 -0.2460 -0.4813 -0.5485
  268SOL     OW  843   1.259   0.080   4.418 -0.0838  0.1259  0.2486
  268SOL    HW2  844   1.195   0.043   4.479  1.7531 -1.1973  1.4841
  268SOL    HW3  845   1.262   0.019   4.345  0.0446 -0.0376  0.3890
  268SOL    MW4  846   1.251   0.067   4.416  0.1755 -0.0702  0.4301
  269SOL     OW  847   5.798   1.071   5.158 -0.3802 -0.3048  0.2595
  269SOL    HW2  848   5.776   1.117   5.077 -0.5963  1.3773  1.2235
  269SOL    HW3  849   5.715   1.058   5.202 -0.1160  0.2099  0.9236
  269SOL    MW4  850   5.784   1.075   5.153 -0.3739 -0.0149  0.4743
  270SOL     OW  851   4.976   5.180   1.169  0.0216  0.4408 -0.2625
  270SOL    HW2  852   4.993   5.090   1.144 -0.4731  0.4059 -0.4637
  270SOL    HW3  853   4.893   5.178   1.216 -0.7639  1.0053 -1.5680
  270SOL    MW4  854   4.968   5.168   1.172 -0.1473  0.5107 -0.4613
  271SOL     OW  855   4.077   4.456   1.824  0.3114  0.4067 -0.7884
  271SOL    HW2  856   3.997   4.494   1.788  0.2013 -0.8403 -1.9127
  271SOL    HW3  857   4.135   4.531   1.836 -0.9508  1.3076 -0.1087
  271SOL    MW4  858   4.074   4.471   1.821  0.1303  0.3610 -0.8470
  272SOL     OW  859   3.849   3.279   1.750 -0.3697  0.0825  0.4396
  272SOL    HW2  860   3.880   3.300   1.838 -1.4573 -1.9282  1.3802
  272SOL    HW3  861   3.901   3.204   1.724  0.0963  0.8008 -0.7586
  272SOL    MW4  862   3.860   3.272   1.758 -0.4517 -0.0880  0.4056
  273SOL     OW  863   1.479   0.050   0.068  0.0476  0.2831 -0.4536
  273SOL    HW2  864   1.512  -0.039   0.078  1.4758  0.7820 -0.4687
  273SOL    HW3  865   1.406   0.043   0.006 -0.5717 -1.0129  0.3895
  273SOL    MW4  866   1.474   0.037   0.061  0.1543  0.1779 -0.3444
  274SOL     OW  867   1.724   4.702   4.339 -0.0860 -0.0332 -0.4767
  274SOL    HW2  868   1.696   4.743   4.257 -0.8441 -0.1982 -0.3126
  274SOL    HW3  869   1.778   4.768   4.382 -0.0580  0.2242 -0.8963
  274SOL    MW4  870   1.727   4.716   4.334 -0.1823 -0.0210 -0.5104
  275SOL     OW  871   4.132   1.184   4.822 -0.1268 -0.3934 -0.2328
  275SOL    HW2  872   4.127   1.231   4.905 -0.5998  1.2496 -1.1355
  275SOL    HW3  873   4.205   1.123   4.833  1.2573  1.3193  0.6809
  275SOL    MW4  874   4.141   1.182   4.834 -0.0066  0.0494 -0.2314
  276SOL     OW  875   1.002   3.690   3.155  0.1957  0.1418  0.3671
  276SOL    HW2  876   0.945   3.680   3.231 -1.2504 -2.5096 -0.8939
  276SOL    HW3  877   1.061   3.614   3.159  0.4338  0.2388 -0.8314
  276SOL    MW4  878   1.002   3.678   3.166  0.0363 -0.1952  0.0426
  277SOL     OW  879   5.335   5.918   0.628  0.3688  0.5346  0.2643
  277SOL    HW2  880   5.426   5.919   0.601 -0.0604  1.1688 -1.2275
  277SOL    HW3  881   5.298   5.999   0.594 -0.5575  0.7176  1.6137
  277SOL    MW4  882   5.342   5.929   0.620  0.1900  0.6424  0.2455
  278SOL     OW  883   0.212   4.916   3.645 -0.2207  0.2406  0.1538
  278SOL    HW2  884   0.145   4.857   3.610  1.3347 -1.3198 -0.3627
  278SOL    HW3  885   0.294   4.871   3.626  0.9742  2.0875  0.7766
  278SOL    MW4  886   0.214   4.902   3.638  0.1422  0.2784  0.1678
  279SOL     OW  887   4.610   4.343   0.812  0.2155 -0.1629  0.2297
  279SOL    HW2  888   4.683   4.307   0.863 -0.5850 -2.2392  0.0310
  279SOL    HW3  889   4.546   4.370   0.878  0.7973  0.8731  0.3843
  279SOL    MW4  890   4.611   4.342   0.827  0.1866 -0.3002  0.2239
  280SOL     OW  891   0.638   1.363   0.159  0.2494 -0.4687  0.1553
  280SOL    HW2  892   0.580   1.436   0.176  0.4911 -0.1533 -0.3490
  280SOL    HW3  893   0.647   1.360   0.064  2.3975  0.5825  0.2527
  280SOL    MW4  894   0.632   1.372   0.149  0.5647 -0.2884  0.1016
  281SOL     OW  895   1.761   0.211   0.054  0.1346 -0.2934 -0.2304
  281SOL    HW2  896   1.674   0.240   0.081  0.3175  0.7299 -0.6820
  281SOL    HW3  897   1.747   0.166  -0.029 -0.1210 -1.2754  0.3391
  281SOL    MW4  898   1.748   0.209   0.047  0.1250 -0.2879 -0.2149
  282SOL     OW  899   1.655   2.126   5.482 -0.6157  0.3288 -0.1464
  282SOL    HW2  900   1.589   2.109   5.415 -0.4419 -0.2720 -0.1799
  282SOL    HW3  901   1.696   2.208   5.456 -2.2189  1.4030  0.5889
  282SOL    MW4  902   1.652   2.134   5.470 -0.8043  0.3913 -0.0538
  283SOL     OW  903   3.787   3.355   2.467 -0.0052  0.3396 -0.6587
  283SOL    HW2  904   3.717   3.318   2.521  0.6376 -1.7277 -1.1677
  283SOL    HW3  905   3.753   3.353   2.378  0.4854 -0.1457 -0.8379
  283SOL    MW4  906   3.773   3.350   2.463  0.1443  0.0028 -0.7495
  284SOL     OW  907   5.573   4.183   5.960 -0.4038  0.1547 -0.1985
  284SOL    HW2  908   5.624   4.136   5.894 -1.6260 -2.2414  0.4657
  284SOL    HW3  909   5.630   4.189   6.036 -0.1168  0.0900 -0.4101
  284SOL    MW4  910   5.587   4.178   5.961 -0.5272 -0.1699 -0.1388
  285SOL     OW  911   5.759   0.890   0.784  0.3831 -0.2530 -0.3430
  285SOL    HW2  912   5.817   0.931   0.721  0.3180 -0.0622 -0.2786
  285SOL    HW3  913   5.717   0.963   0.830  2.3625 -0.3225  1.7216
  285SOL    MW4  914   5.761   0.905   0.782  0.6357 -0.2370 -0.0621
  286SOL     OW  915   1.605   3.353   0.209 -0.2039  0.1099 -0.0458
  286SOL    HW2  916   1.668   3.332   0.140  0.2085 -0.1709  0.4135
  286SOL    HW3  917   1.587   3.270   0.252  2.3282  0.7119  2.5432
  286SOL    MW4  918   1.611   3.339   0.206  0.1846  0.1522  0.3564
  287SOL     OW  919   2.793   1.023   4.607 -0.0785  0.0070 -0.3097
  287SOL    HW2  920   2.769   0.976   4.527  0.0858 -0.3719 -0.1396
  287SOL    HW3  921   2.853   1.091   4.577 -0.6763  0.4100 -0.6185
  287SOL    MW4  922   2.798   1.026   4.593 -0.1356  0.0102 -0.3280
  288SOL     OW  923   5.309   1.603   3.615  0.1430 -0.1313 -0.2799
  288SOL    HW2  924   5.254   1.577   3.541  0.6427 -0.1392 -0.6523
  288SOL    HW3  925   5.375   1.661   3.577  0.6440 -0.4560  0.0844
  288SOL    MW4  926   5.310   1.607   3.600  0.2750 -0.1752 -0.2809
  289SOL     OW  927   2.657   0.295   2.641  0.7383 -0.2666 -0.2921
  289SOL    HW2  928   2.702   0.337   2.715 -1.7255  0.6212  0.8194
  289SOL    HW3  929   2.660   0.202   2.661  1.1523 -0.1296  0.3053
  289SOL    MW4  930   2.664   0.289   2.653  0.4678 -0.1314 -0.0667
  290SOL     OW  931   4.245   3.561   5.617  0.3494  0.0147  0.9518
  290SOL    HW2  932   4.199   3.536   5.537  0.2009  0.0711  1.0191
  290SOL    HW3  933   4.196   3.519   5.687  0.1015  0.4827  1.0665
  290SOL    MW4  934   4.232   3.552   5.616  0.2971  0.0839  0.9758
  291SOL     OW  935   3.235   1.258   0.146  0.3944  0.0778  0.7704
  291SOL    HW2  936   3.316   1.209   0.157  0.8917  1.1733  2.3303
  291SOL    HW3  937   3.177   1.224   0.214 -0.0468  0.1347  0.4287
  291SOL    MW4  938   3.238   1.247   0.156  0.4018  0.2299  0.9311
  292SOL     OW  939   0.654   4.870   3.442 -0.0012 -0.2035 -0.1625
  292SOL    HW2  940   0.673   4.953   3.486 -0.2680 -0.1092 -0.2261
  292SOL    HW3  941   0.606   4.895   3.363 -1.4630 -0.5081  0.5913
  292SOL    MW4  942   0.650   4.884   3.437 -0.2293 -0.2313 -0.0715
  293SOL     OW  943   6.332   0.954   5.428  0.6790  0.3074  0.1138
  293SOL    HW2  944   6.406   1.013   5.443  1.8941 -1.1624  0.2050
  293SOL    HW3  945   6.268   0.979   5.495  1.2843  1.2981  0.3499
  293SOL    MW4  946   6.334   0.965   5.439  0.9192  0.2441  0.1570
  294SOL     OW  947   4.428   3.913   2.915  0.1917  0.0047  0.5582
  294SOL    HW2  948   4.405   3.996   2.872  2.3429  0.9605  1.1199
  294SOL    HW3  949   4.477   3.865   2.848 -2.2104 -1.5151 -0.2471
  294SOL    MW4  950   4.431   3.917   2.900  0.1586 -0.0697  0.5261
  295SOL     OW  951   0.574   5.077   5.617  0.8077 -0.1075  0.2403
  295SOL    HW2  952   0.529   5.154   5.652  1.1168  0.2478 -0.1372
  295SOL    HW3  953   0.551   5.007   5.678 -2.2345 -0.5169 -1.1909
  295SOL    MW4  954   0.565   5.078   5.630  0.4471 -0.1146  0.0017
  296SOL     OW  955   3.946   1.959   1.800  0.7145 -1.3192  0.2788
  296SOL    HW2  956   3.998   1.969   1.721  0.7866 -0.0529  0.4677
  296SOL    HW3  957   3.857   1.941   1.768  0.8544 -1.3751 -0.0796
  296SOL    MW4  958   3.941   1.958   1.786  0.7425 -1.1595  0.2564
  297SOL     OW  959   3.100   2.318   1.452  0.1532 -0.3429 -0.1593
  297SOL    HW2  960   3.135   2.241   1.497 -0.2877 -0.4295  0.0373
  297SOL    HW3  961   3.022   2.342   1.502  0.4676  0.4351 -0.0143
  297SOL    MW4  962   3.094   2.311   1.465  0.1365 -0.2517 -0.1143
  298SOL     OW  963   2.050   1.264   4.747 -0.6405  0.7125  0.1431
  298SOL    HW2  964   2.047   1.171   4.770 -1.1914  0.6009 -0.3587
  298SOL    HW3  965   2.142   1.280   4.725 -0.7284  0.0413 -0.7527
  298SOL    MW4  966   2.062   1.254   4.747 -0.7248  0.6092 -0.0413
  299SOL     OW  967   0.561   6.362   3.817  0.1983  0.6214 -0.1629
  299SOL    HW2  968   0.657   6.355   3.824  0.1438 -1.0466 -0.7007
  299SOL    HW3  969   0.531   6.356   3.908  0.6468  2.5625  0.1485
  299SOL    MW4  970   0.570   6.360   3.830  0.2503  0.6574 -0.1928
  300SOL     OW  971   0.116   5.176   2.064  0.1353  0.2841  0.0001
  300SOL    HW2  972   0.025   5.200   2.047 -0.4561 -0.3770  1.9444
  300SOL    HW3  973   0.157   5.256   2.095 -0.4938  0.0512  1.5482
  300SOL    MW4  974   0.109   5.189   2.066 -0.0257  0.1662  0.4608
  301SOL     OW  975   3.231   1.245   2.544 -0.1472 -0.8240 -0.0675
  301SOL    HW2  976   3.146   1.249   2.588 -0.1382 -0.5459 -0.0737
  301SOL    HW3  977   3.246   1.151   2.530 -0.7449 -0.8410 -0.6398
  301SOL    MW4  978   3.221   1.233   2.548 -0.2249 -0.7896 -0.1438
  302SOL     OW  979   5.676   0.080   5.279  0.1123 -0.1892 -0.3792
  302SOL    HW2  980   5.690   0.041   5.365 -1.2767  0.6740  0.2751
  302SOL    HW3  981   5.596   0.132   5.289  1.1926  1.8133 -1.5286
  302SOL    MW4  982   5.668   0.082   5.291  0.0716  0.1889 -0.4445
  303SOL     OW  983   5.269   5.898   3.083 -0.6950 -0.3072 -1.0441
  303SOL    HW2  984   5.361   5.877   3.099 -0.4158  1.2594 -0.4272
  303SOL    HW3  985   5.220   5.835   3.135  0.1000  0.5706  0.8493
  303SOL    MW4  986   5.275   5.887   3.092 -0.5533  0.0153 -0.7129
  304SOL     OW  987   0.030   2.340   2.391 -0.0457 -0.1080  0.2351
  304SOL    HW2  988  -0.063   2.353   2.374  0.3129  1.3207 -0.8220
  304SOL    HW3  989   0.053   2.407   2.456  0.9511  2.0190 -2.1660
  304SOL    MW4  990   0.021   2.350   2.398  0.1331  0.3611 -0.2211
  305SOL     OW  991   4.549   2.829   4.705  0.5485  0.4436 -0.1301
  305SOL    HW2  992   4.617   2.858   4.644 -0.8294  1.9981 -0.9945
  305SOL    HW3  993   4.467   2.842   4.658 -0.4153 -0.8459  1.1017
  305SOL    MW4  994   4.547   2.834   4.691  0.2395  0.4786 -0.0816
  306SOL     OW  995   6.171   1.515   0.100  0.4454  0.3011  0.7924
  306SOL    HW2  996   6.262   1.513   0.130  0.8288 -0.9472 -0.3702
  306SOL    HW3  997   6.150   1.424   0.080 -1.4141  0.4206  1.9810
  306SOL    MW4  998   6.180   1.503   0.102  0.2507  0.1522  0.7959
  307SOL     OW  999   5.738   2.402   2.312 -0.1542  0.6396 -0.1979
  307SOL    HW2 1000   5.797   2.471   2.341  2.0728 -0.9536 -0.7242
  307SOL    HW3 1001   5.714   2.426   2.223  0.5763  0.7470 -0.3638
  307SOL    MW4 1002   5.742   2.414   2.304  0.2360  0.4435 -0.2892
  308SOL     OW 1003   6.008   5.278   0.275  0.6266 -0.3137 -0.3676
  308SOL    HW2 1004   6.068   5.203   0.276  0.3545 -0.5380 -0.6191
  308SOL    HW3 1005   5.948   5.262   0.348  0.6935 -0.2364 -0.2953
  308SOL    MW4 1006   6.008   5.266   0.285  0.5996 -0.3331 -0.3913
  309SOL     OW 1007   3.257   1.570   5.845  0.5683  0.0113 -0.0236
  309SOL    HW2 1008   3.229   1.480   5.864  1.5619 -0.7313 -1.8699
  309SOL    HW3 1009   3.182   1.609   5.801 -0.1342  0.3592  1.4175
  309SOL    MW4 1010   3.243   1.563   5.842  0.6067 -0.0408 -0.0770
  310SOL     OW 1011   3.582   1.462   5.630 -0.0012 -0.1644 -0.9013
  310SOL    HW2 1012   3.553   1.472   5.720  1.4416 -1.2524 -0.2709
  310SOL    HW3 1013   3.571   1.369   5.611 -0.8642  0.1457 -2.0897
  310SOL    MW4 1014   3.577   1.451   5.639  0.0753 -0.2670 -0.9749
  311SOL     OW 1015   2.043   1.536   4.481 -0.2353 -0.1583 -0.0981
  311SOL    HW2 1016   2.095   1.522   4.402 -0.0815  2.5025 -0.5491
  311SOL    HW3 1017   2.107   1.565   4.546 -0.8028  0.7811  0.0519
  311SOL    MW4 1018   2.059   1.538   4.479 -0.2899  0.3167 -0.1378
  312SOL     OW 1019   3.964   2.344   3.318  0.1236  0.2856 -0.7078
  312SOL    HW2 1020   3.907   2.270   3.298  0.4101 -0.0470 -0.3316
  312SOL    HW3 1021   3.913   2.398   3.379  1.6034 -2.1045  2.9866
  312SOL    MW4 1022   3.950   2.341   3.324  0.3566 -0.0736 -0.1707
  313SOL     OW 1023   5.395   2.700   2.253  0.3603  0.3850  0.5080
  313SOL    HW2 1024   5.357   2.613   2.251  0.9351  0.1004 -2.2127
  313SOL    HW3 1025   5.419   2.714   2.344 -1.9172 -1.2901  1.4430
  313SOL    MW4 1026   5.393   2.690   2.265  0.1357  0.1264  0.2724
  314SOL     OW 1027   4.157   0.338   2.264 -0.0056 -0.3553  0.6308
  314SOL    HW2 1028   4.239   0.341   2.214 -0.2238 -1.0731  0.2126
  314SOL    HW3 1029   4.108   0.415   2.236  0.8238  0.4930  1.4297
  314SOL    MW4 1030   4.161   0.348   2.254  0.0751 -0.3381  0.6810
  315SOL     OW 1031   4.676   5.296   6.177 -0.2652  0.0690  0.3332
  315SOL    HW2 1032   4.760   5.269   6.141 -0.5781  0.5690 -0.8554
  315SOL    HW3 1033   4.691   5.386   6.208 -0.3684  0.1810  0.0636
  315SOL    MW4 1034   4.689   5.304   6.176 -0.3201  0.1497  0.1408
  316SOL     OW 1035   2.928   2.094   4.592 -0.1208  0.7478  0.3379
  316SOL    HW2 1036   3.003   2.046   4.627 -0.0420  0.6167 -0.0131
  316SOL    HW3 1037   2.965   2.171   4.551  0.1647 -0.8168 -2.5965
  316SOL    MW4 1038   2.943   2.098   4.591 -0.0728  0.5241 -0.0956
  317SOL     OW 1039   5.217   5.174   0.950  0.5130  0.1935  0.0732
  317SOL    HW2 1040   5.127   5.192   0.977  0.7944  0.9323  0.5633
  317SOL    HW3 1041   5.210   5.142   0.860 -0.3686 -1.3027  0.6445
  317SOL    MW4 1042   5.204   5.172   0.942  0.4338  0.0936  0.2132
  318SOL     OW 1043   4.797   0.818   2.892 -0.0564  0.0274  0.2751
  318SOL    HW2 1044   4.738   0.757   2.936  1.5956 -0.4433  2.0240
  318SOL    HW3 1045   4.774   0.813   2.800 -1.8504 -1.0796  0.7413
  318SOL    MW4 1046   4.786   0.809   2.886 -0.0751 -0.1807  0.5674
  319SOL     OW 1047   4.477   2.643   2.375 -0.0528 -0.0893 -0.1379
  319SOL    HW2 1048   4.510   2.656   2.463 -0.6768 -0.6576  0.1873
  319SOL    HW3 1049   4.438   2.555   2.376 -2.6970  1.0011 -0.1425
  319SOL    MW4 1050   4.477   2.633   2.386 -0.4840 -0.0204 -0.0956
  320SOL     OW 1051   1.610   4.271   5.559  0.5538  0.1043  0.3684
  320SOL    HW2 1052   1.684   4.237   5.608  0.0818 -3.0036 -0.8081
  320SOL    HW3 1053   1.644   4.286   5.470 -0.1571 -1.3008 -0.1676
  320SOL    MW4 1054   1.624   4.269   5.553  0.3977 -0.4911  0.1424
  321SOL     OW 1055   4.889   0.580   1.440  0.1640  0.3229  0.1862
  321SOL    HW2 1056   4.920   0.493   1.466  1.1080  0.0606 -1.7059
  321SOL    HW3 1057   4.895   0.581   1.345 -0.2313  2.3316  0.1346
  321SOL    MW4 1058   4.894   0.569   1.431  0.2364  0.5533 -0.0702
  322SOL     OW 1059   1.394   5.695   6.264 -0.2758  0.5303 -0.2604
  322SOL    HW2 1060   1.303   5.685   6.290 -0.6506 -0.6389 -1.8712
  322SOL    HW3 1061   1.428   5.606   6.257  0.3100  0.8357 -1.8625
  322SOL    MW4 1062   1.387   5.682   6.266 -0.2480  0.4164 -0.6843
  323SOL     OW 1063   0.559   5.173   0.495 -0.1376  0.2444 -0.0779
  323SOL    HW2 1064   0.596   5.099   0.543 -0.5170  0.7538  1.0214
  323SOL    HW3 1065   0.483   5.200   0.546 -0.7382  0.6086 -1.1403
  323SOL    MW4 1066   0.554   5.167   0.508 -0.2669  0.3597 -0.0730
  324SOL     OW 1067   4.983   0.071   2.468 -0.3923  0.0572  0.0899
  324SOL    HW2 1068   5.046   0.014   2.512 -0.2411 -0.5218 -0.8653
  324SOL    HW3 1069   4.916   0.088   2.534  1.1080  1.3094  1.3969
  324SOL    MW4 1070   4.983   0.066   2.483 -0.1744  0.1461  0.1363
  325SOL     OW 1071   4.555   0.351   0.258 -0.4654  0.3315 -0.3193
  325SOL    HW2 1072   4.593   0.437   0.240  1.4065 -0.1157  1.1899
  325SOL    HW3 1073   4.560   0.343   0.353 -0.2620 -1.5822 -0.4627
  325SOL    MW4 1074   4.561   0.361   0.268 -0.1916  0.0200 -0.1391
  326SOL     OW 1075   4.917   2.101   1.575  0.3187  0.6443  0.4042
  326SOL    HW2 1076   4.968   2.140   1.646  0.8629  0.7067 -0.0228
  326SOL    HW3 1077   4.826   2.115   1.601  0.4762  2.8689 -0.0991
  326SOL    MW4 1078   4.912   2.108   1.588  0.4113  0.9460  0.2814
  327SOL     OW 1079   1.740   3.180   2.558  0.5611  0.3550  0.4435
  327SOL    HW2 1080   1.740   3.189   2.653 -0.0823  1.3431  0.3569
  327SOL    HW3 1081   1.808   3.114   2.541  0.1095 -0.4560  1.6346
  327SOL    MW4 1082   1.749   3.172   2.568  0.4166  0.3784  0.5892
  328SOL     OW 1083   2.096   4.605   4.662 -0.5383  0.4327 -0.2296
  328SOL    HW2 1084   2.017   4.658   4.659 -0.9514 -0.0733  0.8934
  328SOL    HW3 1085   2.083   4.548   4.738 -0.8702 -2.4654 -2.3097
  328SOL    MW4 1086   2.084   4.605   4.672 -0.6366 -0.0164 -0.3559
  329SOL     OW 1087   5.194   4.272   5.839 -0.0583  0.1614  0.0094
  329SOL    HW2 1088   5.122   4.278   5.776  0.0737  0.7901 -0.0847
  329SOL    HW3 1089   5.156   4.224   5.913 -0.6974  0.8380  0.1335
  329SOL    MW4 1090   5.179   4.266   5.841 -0.1252  0.3336  0.0134
  330SOL     OW 1091   0.112   5.220   5.660  0.2377  0.2047 -0.1248
  330SOL    HW2 1092   0.026   5.206   5.699 -0.0043 -2.8236 -1.4940
  330SOL    HW3 1093   0.104   5.302   5.612 -2.0471 -0.2327 -0.5687
  330SOL    MW4 1094   0.100   5.229   5.659 -0.0957 -0.2525 -0.3640
  331SOL     OW 1095   3.325   3.677   2.864  0.3545  0.4275 -0.0034
  331SOL    HW2 1096   3.312   3.610   2.931  1.5808  0.1494 -0.0081
  331SOL    HW3 1097   3.395   3.641   2.808  1.0183  1.6910 -0.0132
  331SOL    MW4 1098   3.333   3.663   2.865  0.6039  0.5575 -0.0053
  332SOL     OW 1099   6.108   0.420   2.536  0.4730  0.1057  0.0458
  332SOL    HW2 1100   6.160   0.492   2.498  1.0523  0.4292  1.3767
  332SOL    HW3 1101   6.048   0.464   2.596 -0.1562 -0.4203 -0.1967
  332SOL    MW4 1102   6.107   0.435   2.539  0.4664  0.0790  0.1894
  333SOL     OW 1103   4.905   5.341   2.227  0.4543 -0.1047  0.0198
  333SOL    HW2 1104   4.907   5.418   2.170 -2.1028  1.0867  1.3988
  333SOL    HW3 1105   4.880   5.374   2.313 -1.5382 -2.5134  0.4898
  333SOL    MW4 1106   4.902   5.355   2.231 -0.1459 -0.2653  0.2638
  334SOL     OW 1107   3.820   4.292   1.994 -0.2543 -0.2225  0.1831
  334SOL    HW2 1108   3.791   4.204   1.968  1.7039 -0.7683 -0.2882
  334SOL    HW3 1109   3.914   4.283   2.008 -0.3012  1.3964  1.9246
  334SOL    MW4 1110   3.828   4.279   1.993 -0.0021 -0.0809  0.3507
  335SOL     OW 1111   3.791   5.205   3.418  0.0548 -0.3077  0.2812
  335SOL    HW2 1112   3.735   5.280   3.399 -1.8242 -1.5384  0.6856
  335SOL    HW3 1113   3.868   5.218   3.363 -1.2230  0.8074 -1.3369
  335SOL    MW4 1114   3.793   5.216   3.408 -0.3617 -0.3229  0.1211
  336SOL     OW 1115   6.401   3.673   5.539 -0.1503  0.4751 -0.3390
  336SOL    HW2 1116   6.416   3.698   5.630 -0.0384 -0.5138 -0.0779
  336SOL    HW3 1117   6.354   3.747   5.502  0.1696  1.0665  0.4112
  336SOL    MW4 1118   6.397   3.686   5.546 -0.0934  0.4227 -0.2056
  337SOL     OW 1119   5.801   5.280   0.759  0.5361  0.3170 -0.0417
  337SOL    HW2 1120   5.731   5.225   0.794  1.0891  0.2927  1.0898
  337SOL    HW3 1121   5.864   5.288   0.831  2.1683 -0.4442 -1.2913
  337SOL    MW4 1122   5.800   5.273   0.773  0.8244  0.2134 -0.0573
  338SOL     OW 1123   0.484   2.191   2.047  0.2196  1.2925  0.5757
  338SOL    HW2 1124   0.580   2.196   2.050  0.5938 -1.2652 -2.0970
  338SOL    HW3 1125   0.462   2.123   2.110  0.4914  0.0781 -0.5898
  338SOL    MW4 1126   0.494   2.183   2.056  0.3048  0.7948  0.0693
  339SOL     OW 1127   4.524   3.930   0.902 -0.1471 -0.2257 -0.7454
  339SOL    HW2 1128   4.561   3.953   0.817 -0.2964  0.2750 -0.6726
  339SOL    HW3 1129   4.571   3.849   0.926 -0.7268 -0.8662 -1.6933
  339SOL    MW4 1130   4.535   3.922   0.894 -0.2433 -0.2442 -0.8608
  340SOL     OW 1131   2.728   1.316   2.637 -0.1902 -0.1108  0.7758
  340SOL    HW2 1132   2.680   1.234   2.638  0.1186 -0.3108 -0.0373
  340SOL    HW3 1133   2.722   1.347   2.547 -0.7949  1.0568  1.1968
  340SOL    MW4 1134   2.721   1.309   2.626 -0.2293  0.0169  0.7241
  341SOL     OW 1135   0.181   6.259   3.505  0.0774  0.0384  0.1084
  341SOL    HW2 1136   0.233   6.321   3.556 -0.2424 -0.2190  0.7472
  341SOL    HW3 1137   0.213   6.270   3.415  1.5169 -0.3914  0.5393
  341SOL    MW4 1138   0.192   6.269   3.500  0.2252 -0.0523  0.2495
  342SOL     OW 1139   2.724   4.367   2.289 -0.0730 -0.4347  0.4419
  342SOL    HW2 1140   2.668   4.417   2.348 -0.2160 -0.6598  0.4989
  342SOL    HW3 1141   2.724   4.278   2.324 -2.4464 -1.2908 -1.4329
  342SOL    MW4 1142   2.717   4.362   2.301 -0.4050 -0.5773  0.2021
  343SOL     OW 1143   1.512   4.174   2.932  0.2280 -0.0822 -0.2925
  343SOL    HW2 1144   1.506   4.079   2.926  0.0613 -0.0825 -0.1114
  343SOL    HW3 1145   1.423   4.206   2.918  0.5923  0.1526 -2.2815
  343SOL    MW4 1146   1.500   4.166   2.930  0.2540 -0.0513 -0.5310
  344SOL     OW 1147   0.892   5.227   5.291  0.3505  0.5465 -0.1453
  344SOL    HW2 1148   0.866   5.297   5.352  0.7109 -0.4082  1.1567
  344SOL    HW3 1149   0.861   5.257   5.206 -3.4373  0.3750  0.9604
  344SOL    MW4 1150   0.884   5.240   5.288 -0.1017  0.3979  0.1724
  345SOL     OW 1151   3.101   0.031   4.582 -0.2290 -0.1432 -0.2136
  345SOL    HW2 1152   3.040  -0.009   4.519  0.0874  1.0993 -1.3615
  345SOL    HW3 1153   3.073   0.123   4.586 -0.2671 -0.1957  1.5291
  345SOL    MW4 1154   3.089   0.038   4.574 -0.1923  0.0138 -0.1351
  346SOL     OW 1155   3.973   2.308   4.135  0.1174 -0.7087 -0.3313
  346SOL    HW2 1156   3.956   2.223   4.096  1.0972 -1.7459  1.3490
  346SOL    HW3 1157   3.897   2.324   4.191  0.6616 -1.2833  0.6009
  346SOL    MW4 1158   3.961   2.299   4.138  0.3185 -0.9213  0.0134
  347SOL     OW 1159   4.202   1.739   2.525 -0.1718  0.2002 -0.2009
  347SOL    HW2 1160   4.169   1.650   2.534  1.0109 -0.2534 -0.2236
  347SOL    HW3 1161   4.127   1.795   2.547 -0.6290 -0.7944  0.8563
  347SOL    MW4 1162   4.188   1.735   2.529 -0.0761  0.0091 -0.0644
  348SOL     OW 1163   5.411   2.970   1.317  0.3799  0.6034  0.0199
  348SOL    HW2 1164   5.440   3.061   1.312  0.3989  0.5798 -0.3817
  348SOL    HW3 1165   5.389   2.956   1.409  0.3363  1.0264  0.0752
  348SOL    MW4 1166   5.412   2.980   1.328  0.3767  0.6561 -0.0258
  349SOL     OW 1167   3.715   2.649   0.054 -0.8612 -0.3152 -0.8081
  349SOL    HW2 1168   3.658   2.640   0.131 -0.9345  0.3077 -0.7825
  349SOL    HW3 1169   3.666   2.706  -0.005  0.1550  1.1037 -0.3487
  349SOL    MW4 1170   3.701   2.656   0.057 -0.7368 -0.0458 -0.7441
  350SOL     OW 1171   3.569   0.446   3.502 -0.1882 -0.2305 -0.0638
  350SOL    HW2 1172   3.553   0.386   3.574  1.3747 -0.5368  0.0590
  350SOL    HW3 1173   3.531   0.403   3.425 -0.3305 -0.6969  0.2671
  350SOL    MW4 1174   3.562   0.432   3.501 -0.0008 -0.3324 -0.0039
  351SOL     OW 1175   3.452   4.718   0.538 -0.2261  0.1567  0.5427
  351SOL    HW2 1176   3.378   4.777   0.530 -0.2011  0.1525  0.2828
  351SOL    HW3 1177   3.477   4.698   0.448  0.7352  0.9706  0.6082
  351SOL    MW4 1178   3.446   4.723   0.525 -0.0960  0.2635  0.5171
  352SOL     OW 1179   5.661   2.400   0.089  0.4319 -0.1666  0.0387
  352SOL    HW2 1180   5.574   2.376   0.056  0.5213 -0.6355  0.1384
  352SOL    HW3 1181   5.647   2.414   0.183  0.2659  0.7392 -0.1105
  352SOL    MW4 1182   5.648   2.398   0.097  0.4218 -0.1090  0.0322
  353SOL     OW 1183   3.381   4.561   5.004  0.1550  0.8688  0.0254
  353SOL    HW2 1184   3.392   4.642   4.953 -1.2824  0.7466 -0.5130
  353SOL    HW3 1185   3.316   4.583   5.071  0.2550  0.3443  0.3002
  353SOL    MW4 1186   3.374   4.574   5.006 -0.0215  0.7835 -0.0093
  354SOL     OW 1187   4.046   1.193   5.578  0.7377 -0.9726  0.2358
  354SOL    HW2 1188   4.101   1.145   5.640  2.7845  2.6521  1.5486
  354SOL    HW3 1189   4.000   1.257   5.632 -0.3185 -0.1359 -1.5730
  354SOL    MW4 1190   4.047   1.195   5.593  0.8684 -0.3840  0.1704
  355SOL     OW 1191   4.555   1.530   1.912  0.5140  0.5282  0.4305
  355SOL    HW2 1192   4.511   1.470   1.972  1.9098  0.1024  1.0858
  355SOL    HW3 1193   4.533   1.497   1.824 -0.8679  0.6580  0.7109
  355SOL    MW4 1194   4.546   1.518   1.908  0.5158  0.4892  0.5539
  356SOL     OW 1195   0.156   3.296   4.337  0.0492 -0.2736  0.2620
  356SOL    HW2 1196   0.248   3.296   4.310  0.2104  0.3322  0.7972
  356SOL    HW3 1197   0.109   3.255   4.263  0.6045  0.4466 -0.5029
  356SOL    MW4 1198   0.162   3.290   4.324  0.1438 -0.0987  0.2317
  357SOL     OW 1199   2.223   4.678   1.260  0.0814  0.4569 -0.0041
  357SOL    HW2 1200   2.192   4.766   1.241 -1.7740 -0.3648 -1.1069
  357SOL    HW3 1201   2.241   4.678   1.354 -0.4956  1.8282  0.1251
  357SOL    MW4 1202   2.221   4.690   1.270 -0.2395  0.5294 -0.1325
  358SOL     OW 1203   6.024   2.999   3.356 -0.1073 -0.6442  0.3102
  358SOL    HW2 1204   6.040   3.084   3.316 -1.6140 -0.8778 -0.8594
  358SOL    HW3 1205   5.948   2.964   3.309  0.8479 -2.9063  0.3087
  358SOL    MW4 1206   6.016   3.005   3.344 -0.1800 -0.9735  0.1557
  359SOL     OW 1207   2.940   3.099   1.740 -0.0954 -0.2477  0.6898
  359SOL    HW2 1208   3.034   3.092   1.724 -0.4875 -1.3420 -1.4227
  359SOL    HW3 1209   2.908   3.009   1.741 -1.3602  0.1622 -0.2254
  359SOL    MW4 1210   2.948   3.086   1.738 -0.3140 -0.3380  0.2903
  360SOL     OW 1211   3.391   5.081   1.221 -0.6012  0.0383  0.0217
  360SOL    HW2 1212   3.313   5.114   1.266  1.1245  1.9670  1.8209
  360SOL    HW3 1213   3.414   5.151   1.160 -0.7605 -0.9328 -1.1910
  360SOL    MW4 1214   3.384   5.094   1.219 -0.3945  0.1646  0.0991
  361SOL     OW 1215   0.096   2.356   6.207  0.3360  0.4129  0.3828
  361SOL    HW2 1216   0.113   2.435   6.259  0.7740  0.4379  0.2056
  361SOL    HW3 1217   0.111   2.383   6.117  0.7283  0.0671  0.3405
  361SOL    MW4 1218   0.100   2.370   6.202  0.4456  0.3706  0.3538
  362SOL     OW 1219   0.244   2.888   5.502 -0.9720  0.9342 -0.6607
  362SOL    HW2 1220   0.189   2.965   5.493 -1.9456  0.1360 -1.8611
  362SOL    HW3 1221   0.231   2.859   5.592 -1.7789  1.2925 -0.6570
  362SOL    MW4 1222   0.235   2.894   5.513 -1.2069  0.8762 -0.8186
  363SOL     OW 1223   3.926   2.083   3.972  0.5959 -0.3910 -0.2351
  363SOL    HW2 1224   3.971   2.014   4.021 -0.2732 -1.7429 -1.2812
  363SOL    HW3 1225   3.852   2.039   3.931 -0.1092  1.2244 -0.7656
  363SOL    MW4 1226   3.922   2.068   3.973  0.3882 -0.3563 -0.4431
  364SOL     OW 1227   1.824   4.852   2.400  0.4433 -0.4020 -0.4282
  364SOL    HW2 1228   1.756   4.807   2.450 -1.4776  1.0040 -1.6332
  364SOL    HW3 1229   1.898   4.792   2.402  0.1648 -0.8894  3.1606
  364SOL    MW4 1230   1.825   4.838   2.407  0.1531 -0.2808 -0.1137
  365SOL     OW 1231   4.879   0.803   4.108 -0.1339 -0.3765  0.0868
  365SOL    HW2 1232   4.974   0.804   4.108 -0.1301  0.3241 -0.5133
  365SOL    HW3 1233   4.854   0.858   4.182 -0.0917 -2.0211  1.3602
  365SOL    MW4 1234   4.888   0.810   4.118 -0.1279 -0.5010  0.1756
  366SOL     OW 1235   1.129   0.222   3.014  0.2792  0.2956  0.1674
  366SOL    HW2 1236   1.075   0.280   3.067  0.5126  1.1272 -0.4773
  366SOL    HW3 1237   1.126   0.260   2.926  1.0152 -0.2649 -0.1137
  366SOL    MW4 1238   1.122   0.235   3.009  0.4071  0.3313  0.0453
  367SOL     OW 1239   4.288   4.597   5.421  0.0739 -0.3777  0.2867
  367SOL    HW2 1240   4.322   4.584   5.332 -1.8121  0.3196 -0.6092
  367SOL    HW3 1241   4.236   4.518   5.438  0.1795 -0.3730  0.6325
  367SOL    MW4 1242   4.285   4.585   5.411 -0.1610 -0.2851  0.2141
  368SOL     OW 1243   2.192   6.421   2.462  0.2568 -0.1349  0.3901
  368SOL    HW2 1244   2.151   6.335   2.466 -1.1974  0.4979 -0.0942
  368SOL    HW3 1245   2.119   6.483   2.472  0.9550  1.0426 -1.2644
  368SOL    MW4 1246   2.177   6.418   2.464  0.1570  0.1039  0.1079
  369SOL     OW 1247   3.397   0.453   5.143  0.0395  0.2106 -0.0216
  369SOL    HW2 1248   3.386   0.440   5.237  0.2499 -0.0231 -0.0284
  369SOL    HW3 1249   3.337   0.524   5.121  1.2507  1.4860  0.6091
  369SOL    MW4 1250   3.388   0.461   5.152  0.2271  0.3480  0.0607
  370SOL     OW 1251   5.303   2.879   0.244  1.0039  0.3500  0.1689
  370SOL    HW2 1252   5.209   2.862   0.237  0.8904 -0.6177  2.8050
  370SOL    HW3 1253   5.344   2.811   0.191  0.2490  1.0917 -1.4254
  370SOL    MW4 1254   5.296   2.868   0.236  0.8893  0.3202  0.3064
  371SOL     OW 1255   1.938   1.015   0.742  1.1181  0.2747  0.1374
  371SOL    HW2 1256   1.974   0.991   0.657  0.2776 -1.7721  0.2998
  371SOL    HW3 1257   1.975   0.951   0.803  1.9660  1.9078  1.4101
  371SOL    MW4 1258   1.948   1.003   0.739  1.1191  0.2201  0.3267
  372SOL     OW 1259   6.289   4.733   5.487 -0.2423 -0.0592  0.0670
  372SOL    HW2 1260   6.359   4.798   5.480 -0.4821  0.3777  1.3993
  372SOL    HW3 1261   6.328   4.652   5.455  1.3683 -0.1440  2.0502
  372SOL    MW4 1262   6.303   4.731   5.482 -0.0614 -0.0128  0.5044
  373SOL     OW 1263   2.119   0.103   0.291 -0.2073  0.1186  0.2542
  373SOL    HW2 1264   2.055   0.055   0.239 -1.3844  1.3561  0.5097
  373SOL    HW3 1265   2.156   0.167   0.231  0.3133 -0.1473  0.2847
  373SOL    MW4 1266   2.116   0.105   0.276 -0.2939  0.2468  0.2920
  374SOL     OW 1267   0.171   2.276   2.151 -0.5284 -0.1929  0.1413
  374SOL    HW2 1268   0.105   2.331   2.110 -1.2250  0.6427  2.2623
  374SOL    HW3 1269   0.158   2.288   2.245  1.5839 -1.2881  0.6399
  374SOL    MW4 1270   0.161   2.285   2.158 -0.3416 -0.2272  0.4869
  375SOL     OW 1271   6.262   3.884   4.928 -0.6034 -0.1388  0.0955
  375SOL    HW2 1272   6.328   3.884   4.997 -1.5040 -0.7907  0.9878
  375SOL    HW3 1273   6.309   3.913   4.850  0.8249 -0.9129  0.6230
  375SOL    MW4 1274   6.277   3.888   4.927 -0.5338 -0.3269  0.2828
  376SOL     OW 1275   1.496   0.473   1.535  0.0180 -0.3234 -0.1111
  376SOL    HW2 1276   1.419   0.478   1.479  0.4744  0.2151 -0.7227
  376SOL    HW3 1277   1.498   0.383   1.567 -1.6798  0.0490  1.1415
  376SOL    MW4 1278   1.486   0.462   1.532 -0.1458 -0.2033 -0.0266
  377SOL     OW 1279   2.226   4.633   4.198  0.4071  0.7646  0.1505
  377SOL    HW2 1280   2.173   4.586   4.263  1.6569 -0.7060  0.1558
  377SOL    HW3 1281   2.181   4.717   4.187 -1.1031  0.1454  1.2151
  377SOL    MW4 1282   2.213   4.638   4.205  0.3727  0.4889  0.2917
  378SOL     OW 1283   2.092   4.101   2.742 -0.0300  0.1839  0.4286
  378SOL    HW2 1284   2.154   4.107   2.815  2.3220 -0.5680 -1.3948
  378SOL    HW3 1285   2.098   4.185   2.698  1.4785 -0.6280 -1.0360
  378SOL    MW4 1286   2.101   4.113   2.746  0.4794 -0.0224 -0.0052
  379SOL     OW 1287   3.736   0.968   1.716 -0.0732 -0.3497  0.2273
  379SOL    HW2 1288   3.783   0.926   1.788  0.4129 -0.7199 -0.2894
  379SOL    HW3 1289   3.801   0.974   1.646 -0.3331  0.6669  0.0633
  379SOL    MW4 1290   3.751   0.963   1.716 -0.0434 -0.2644  0.1375
  380SOL     OW 1291   4.645   1.747   5.153 -0.2812 -0.3302  0.2911
  380SOL    HW2 1292   4.719   1.694   5.122 -0.3324 -0.2740  0.0756
  380SOL    HW3 1293   4.636   1.817   5.088 -0.7279 -0.5203  0.1457
  380SOL    MW4 1294   4.654   1.749   5.140 -0.3469 -0.3479  0.2435
  381SOL     OW 1295   5.276   0.841   5.213 -0.2666 -0.2847 -0.3342
  381SOL    HW2 1296   5.237   0.856   5.127 -0.0929  0.6088 -0.2652
  381SOL    HW3 1297   5.236   0.907   5.270  1.7483  1.0769 -0.3911
  381SOL    MW4 1298   5.266   0.851   5.209  0.0222  0.0129 -0.3326
  382SOL     OW 1299   1.747   3.205   3.464  0.4255  0.1096  0.1359
  382SOL    HW2 1300   1.712   3.124   3.428  2.7437 -0.6201 -0.6554
  382SOL    HW3 1301   1.770   3.184   3.555  0.2311  0.1425  0.1930
  382SOL    MW4 1302   1.745   3.192   3.472  0.7057  0.0177  0.0390
  383SOL     OW 1303   3.630   6.200   6.116 -0.1114 -0.6034  0.1414
  383SOL    HW2 1304   3.605   6.111   6.141  1.3249 -0.8974  0.6547
  383SOL    HW3 1305   3.641   6.196   6.021  1.4369 -1.4188  0.3160
  383SOL    MW4 1306   3.629   6.188   6.107  0.2824 -0.7498  0.2322
  384SOL     OW 1307   4.787   2.414   1.092  0.2124 -0.1641  0.3896
  384SOL    HW2 1308   4.789   2.508   1.106 -0.9562  0.1278 -1.0939
  384SOL    HW3 1309   4.875   2.392   1.060  0.8889  0.1784  1.9386
  384SOL    MW4 1310   4.799   2.423   1.090  0.1475 -0.0804  0.3983
  385SOL     OW 1311   4.485   1.992   2.968 -0.1565  0.5222 -0.2009
  385SOL    HW2 1312   4.397   1.968   2.997 -0.0970  0.8867  0.2927
  385SOL    HW3 1313   4.543   1.928   3.010 -0.1732  0.3694 -0.4109
  385SOL    MW4 1314   4.481   1.980   2.977 -0.1509  0.5502 -0.1634
  386SOL     OW 1315   0.676   0.877   6.265 -0.2444  0.1636  0.3195
  386SOL    HW2 1316   0.729   0.946   6.305  0.4289 -0.9904  1.4739
  386SOL    HW3 1317   0.593   0.920   6.246  0.1796  1.3204  0.9400
  386SOL    MW4 1318   0.672   0.892   6.268 -0.0996  0.1640  0.5537
  387SOL     OW 1319   5.813   0.294   3.840  0.4724  0.4374  0.3029
  387SOL    HW2 1320   5.745   0.226   3.833  0.4530  0.4234  0.6387
  387SOL    HW3 1321   5.799   0.333   3.926 -0.3230  1.7302 -0.3751
  387SOL    MW4 1322   5.802   0.290   3.850  0.3649  0.6061  0.2578
  388SOL     OW 1323   5.880   3.046   2.984  0.2242  0.8247  0.0605
  388SOL    HW2 1324   5.841   3.037   2.897 -0.0726  0.5709  0.2184
  388SOL    HW3 1325   5.940   2.972   2.991  1.0127  1.4114 -0.3206
  388SOL    MW4 1326   5.883   3.035   2.974  0.2890  0.8686  0.0311
  389SOL     OW 1327   0.600   4.078   0.204  0.9513 -0.2253  0.1686
  389SOL    HW2 1328   0.533   4.028   0.250  0.4729  0.3812  0.1515
  389SOL    HW3 1329   0.663   4.013   0.174  0.4018 -0.7993  0.2421
  389SOL    MW4 1330   0.599   4.063   0.206  0.8156 -0.2210  0.1760
  390SOL     OW 1331   3.837   6.336   3.257 -0.2602 -0.3210 -0.3333
  390SOL    HW2 1332   3.826   6.382   3.340 -0.8366  2.7851 -1.9990
  390SOL    HW3 1333   3.756   6.286   3.245  0.0704 -1.2778  1.1653
  390SOL    MW4 1334   3.825   6.335   3.266 -0.2926 -0.0374 -0.3553
  391SOL     OW 1335   3.239   5.578   3.966  0.2963 -0.4593  0.0167
  391SOL    HW2 1336   3.239   5.643   3.896 -1.8311 -1.6616 -1.1912
  391SOL    HW3 1337   3.220   5.629   4.045  0.0393  0.5702 -0.6854
  391SOL    MW4 1338   3.236   5.593   3.968 -0.0183 -0.4821 -0.2353
  392SOL     OW 1339   4.755   0.087   0.832 -0.9456 -0.2812  0.5293
  392SOL    HW2 1340   4.784   0.106   0.921 -1.7259  0.4718  0.6264
  392SOL    HW3 1341   4.711   0.002   0.839 -1.5764  0.0796  0.9885
  392SOL    MW4 1342   4.753   0.078   0.844 -1.1318 -0.1343  0.6027
  393SOL     OW 1343   4.365   2.063   4.301  0.5030 -0.6559  0.4139
  393SOL    HW2 1344   4.456   2.048   4.276  0.7945 -1.8298  2.0382
  393SOL    HW3 1345   4.349   2.002   4.374 -0.9994  0.9037  1.4697
  393SOL    MW4 1346   4.375   2.053   4.307  0.3432 -0.6050  0.7675
  394SOL     OW 1347   6.069   1.107   6.014 -0.2292 -0.2299 -0.1354
  394SOL    HW2 1348   5.986   1.114   6.061 -0.6753 -0.0318 -0.9405
  394SOL    HW3 1349   6.055   1.036   5.950 -0.7421  1.6001 -2.1751
  394SOL    MW4 1350   6.056   1.098   6.012 -0.3557  0.0377 -0.5107
  395SOL     OW 1351   0.640   4.335   4.145  0.3040 -0.1757  0.3845
  395SOL    HW2 1352   0.701   4.350   4.073 -1.4330  0.6451 -0.9833
  395SOL    HW3 1353   0.634   4.419   4.190  0.5219 -0.3804  0.8059
  395SOL    MW4 1354   0.647   4.348   4.142  0.1036 -0.0944  0.2596
  396SOL     OW 1355   2.567   0.755   3.841 -0.1275  0.2959  0.6823
  396SOL    HW2 1356   2.613   0.839   3.840 -0.7546  0.7310 -2.4344
  396SOL    HW3 1357   2.474   0.779   3.838 -0.3935 -0.5420  1.7066
  396SOL    MW4 1358   2.561   0.770   3.841 -0.2453  0.2428  0.4062
  397SOL     OW 1359   3.964   4.748   0.546 -0.2415  0.6064 -0.0637
  397SOL    HW2 1360   3.965   4.811   0.618 -0.2953 -0.0637  0.5447
  397SOL    HW3 1361   3.878   4.706   0.552  0.4059 -0.6777  0.5917
  397SOL    MW4 1362   3.953   4.751   0.556 -0.1632  0.3485  0.1030
  398SOL     OW 1363   4.018   2.545   3.114  0.6286  0.2150 -0.4824
  398SOL    HW2 1364   4.021   2.503   3.027 -0.4088  0.9548 -0.8932
  398SOL    HW3 1365   4.000   2.473   3.174 -0.8540 -0.0080 -1.1485
  398SOL    MW4 1366   4.016   2.530   3.110  0.2961  0.2832 -0.6245
  399SOL     OW 1367   5.600   1.768   6.358  0.3840  0.2840 -0.3839
  399SOL    HW2 1368   5.681   1.793   6.313  1.4018  0.8621  1.6585
  399SOL    HW3 1369   5.554   1.850   6.373 -0.1817  0.0458 -0.7581
  399SOL    MW4 1370   5.605   1.782   6.354  0.4436  0.3288 -0.1638
  400SOL     OW 1371   6.143   4.980   2.322  0.3310 -0.3420  0.5363
  400SOL    HW2 1372   6.138   5.041   2.395 -1.2840  0.1334  0.0929
  400SOL    HW3 1373   6.198   4.909   2.353  1.1646  0.7030  1.5484
  400SOL    MW4 1374   6.149   4.979   2.335  0.2279 -0.1414  0.6113
  401SOL     OW 1375   3.475   1.246   3.647  0.2729 -0.1885  0.1832
  401SOL    HW2 1376   3.405   1.281   3.591  0.7355  1.6625  0.7003
  401SOL    HW3 1377   3.503   1.321   3.699  1.6767 -1.2517  1.0043
  401SOL    MW4 1378   3.469   1.261   3.646  0.5191 -0.0846  0.3598
  402SOL     OW 1379   5.295   4.687   0.523  0.6023 -0.2398 -0.0649
  402SOL    HW2 1380   5.285   4.734   0.440  2.1638 -0.4062 -0.3926
  402SOL    HW3 1381   5.228   4.619   0.522 -0.7456  1.0625 -0.2370
  402SOL    MW4 1382   5.285   4.684   0.512  0.6305 -0.0899 -0.1308
  403SOL     OW 1383   4.675   3.130   2.980  0.0370  1.0149 -0.4634
  403SOL    HW2 1384   4.764   3.095   2.980  0.3067  0.8825  4.8160
  403SOL    HW3 1385   4.686   3.221   3.008 -1.4400  0.3588  2.6431
  403SOL    MW4 1386   4.688   3.138   2.984 -0.1223  0.9109  0.6430
  404SOL     OW 1387   5.410   3.945   1.781  0.0556  0.3024 -0.4991
  404SOL    HW2 1388   5.341   3.993   1.735 -0.7366  0.3773  0.7394
  404SOL    HW3 1389   5.478   3.933   1.715 -0.6277  1.2814 -1.4161
  404SOL    MW4 1390   5.410   3.950   1.766 -0.1391  0.4414 -0.4567
  405SOL     OW 1391   3.531   5.708   2.274  0.2463 -0.4254 -0.1466
  405SOL    HW2 1392   3.597   5.649   2.237 -0.5722 -1.5523  0.1271
  405SOL    HW3 1393   3.473   5.729   2.201  1.5892  1.6499 -0.7235
  405SOL    MW4 1394   3.532   5.703   2.260  0.3155 -0.3002 -0.1866
  406SOL     OW 1395   6.064   3.675   3.891  0.3231  0.1988  0.0035
  406SOL    HW2 1396   6.044   3.768   3.896  0.0246  0.0784  1.5306
  406SOL    HW3 1397   6.159   3.670   3.895  0.4142  0.4705 -1.2793
  406SOL    MW4 1398   6.074   3.687   3.892  0.2957  0.2188  0.0357
  407SOL     OW 1399   4.135   0.268   4.656  0.2683 -0.1529 -0.1270
  407SOL    HW2 1400   4.074   0.339   4.678 -0.0481 -0.4818  0.0772
  407SOL    HW3 1401   4.202   0.272   4.723  0.1653 -0.1461 -0.0240
  407SOL    MW4 1402   4.136   0.278   4.668  0.2130 -0.1954 -0.0865
  408SOL     OW 1403   4.528   1.538   2.684  0.0076  0.2643  0.2532
  408SOL    HW2 1404   4.581   1.618   2.684 -0.6407  0.7698 -2.1558
  408SOL    HW3 1405   4.447   1.564   2.730 -0.0066  0.8715 -0.1005
  408SOL    MW4 1406   4.524   1.552   2.690 -0.0798  0.4111 -0.1113
  409SOL     OW 1407   5.093   5.093   2.560 -0.0696  0.3036  0.2816
  409SOL    HW2 1408   5.074   5.005   2.591  3.1307 -0.4084  0.5477
  409SOL    HW3 1409   5.082   5.149   2.637  2.0047 -0.5655  1.2770
  409SOL    MW4 1410   5.089   5.089   2.574  0.6263  0.0950  0.4480
  410SOL     OW 1411   1.135   3.859   2.859 -0.1628 -0.4781  1.0572
  410SOL    HW2 1412   1.141   3.767   2.833  2.7773 -0.5117  1.5053
  410SOL    HW3 1413   1.159   3.860   2.951 -0.6076  0.7106  1.1748
  410SOL    MW4 1414   1.139   3.847   2.867  0.1664 -0.3257  1.1318
  411SOL     OW 1415   5.148   3.260   4.533 -0.2627 -0.0549  0.0911
  411SOL    HW2 1416   5.129   3.168   4.553 -2.1306  0.4925  1.0333
  411SOL    HW3 1417   5.078   3.309   4.576  0.5731  1.8125 -0.5786
  411SOL    MW4 1418   5.137   3.254   4.541 -0.3988  0.2637  0.1270
  412SOL     OW 1419   2.011   4.948   5.304  0.2548  0.4964 -0.2244
  412SOL    HW2 1420   2.104   4.926   5.304 -0.2232 -1.8792  0.9661
  412SOL    HW3 1421   1.993   4.974   5.395 -0.5101 -0.5657 -0.0503
  412SOL    MW4 1422   2.021   4.949   5.316  0.0908  0.0429 -0.0444
  413SOL     OW 1423   6.290   0.650   5.075 -0.6301  0.0177  0.6103
  413SOL    HW2 1424   6.213   0.686   5.031 -0.1941 -0.0426 -0.2140
  413SOL    HW3 1425   6.364   0.695   5.035 -0.0883 -1.5434 -0.2271
  413SOL    MW4 1426   6.289   0.661   5.064 -0.5011 -0.1962  0.3911
  414SOL     OW 1427   0.027   5.572   5.139 -0.1035 -0.4517 -0.0637
  414SOL    HW2 1428  -0.035   5.519   5.089  0.8924  0.8120 -2.8528
  414SOL    HW3 1429   0.111   5.557   5.095  0.1710  3.6460 -1.4115
  414SOL    MW4 1430   0.030   5.563   5.126  0.0641  0.2557 -0.6095
  415SOL     OW 1431   4.982   3.634   1.843  0.3715  0.9947 -0.2543
  415SOL    HW2 1432   4.939   3.667   1.922  0.4854  2.0994 -0.6347
  415SOL    HW3 1433   4.940   3.550   1.826  0.9070  0.3453  1.4368
  415SOL    MW4 1434   4.971   3.628   1.851  0.4572  1.0547 -0.0814
  416SOL     OW 1435   5.977   2.667   3.395 -0.0142 -0.2173 -0.4643
  416SOL    HW2 1436   5.893   2.681   3.351 -1.3195  2.0806  2.4331
  416SOL    HW3 1437   5.998   2.576   3.377 -3.9719 -1.4011 -0.0449
  416SOL    MW4 1438   5.968   2.657   3.387 -0.7086 -0.0703 -0.0267
  417SOL     OW 1439   1.736   4.884   1.328  0.2677 -0.6350  0.1927
  417SOL    HW2 1440   1.785   4.821   1.382 -0.2585 -1.3180 -0.1008
  417SOL    HW3 1441   1.698   4.830   1.259  1.7315  0.3688 -1.4654
  417SOL    MW4 1442   1.738   4.868   1.326  0.3914 -0.5927 -0.0648
  418SOL     OW 1443   3.377   3.012   1.062 -0.5865  0.0818 -0.4306
  418SOL    HW2 1444   3.381   3.030   0.968 -0.1091  0.0122 -0.4254
  418SOL    HW3 1445   3.383   2.917   1.069  1.4945  0.1831 -0.2410
  418SOL    MW4 1446   3.379   3.002   1.050 -0.2489  0.0860 -0.4049
  419SOL     OW 1447   6.293   5.878   3.959 -0.3101 -0.0366  0.1437
  419SOL    HW2 1448   6.383   5.846   3.955 -0.7291 -1.1388 -1.7691
  419SOL    HW3 1449   6.243   5.805   3.994 -0.7373 -0.1789 -0.7302
  419SOL    MW4 1450   6.298   5.864   3.963 -0.4217 -0.2008 -0.2239
  420SOL     OW 1451   2.397   5.931   5.743 -0.9346 -0.0748  0.4771
  420SOL    HW2 1452   2.412   5.936   5.649 -0.6075 -0.1776  0.5241
  420SOL    HW3 1453   2.358   6.015   5.766  0.0712  0.4083  0.4506
  420SOL    MW4 1454   2.394   5.943   5.734 -0.7587 -0.0246  0.4798
  421SOL     OW 1455   1.408   5.652   1.364  0.1654 -0.5670  0.8756
  421SOL    HW2 1456   1.371   5.594   1.297  1.1751  1.5400 -1.7269
  421SOL    HW3 1457   1.440   5.594   1.432 -1.6669 -2.8189 -0.0506
  421SOL    MW4 1458   1.407   5.637   1.364  0.0569 -0.5861  0.4100
  422SOL     OW 1459   5.375   5.507   6.345  0.3937 -0.2457 -0.2109
  422SOL    HW2 1460   5.292   5.460   6.356 -0.3976  1.1860  0.1293
  422SOL    HW3 1461   5.409   5.516   6.434  0.7258 -0.4647 -0.3123
  422SOL    MW4 1462   5.368   5.502   6.358  0.3331 -0.0857 -0.1794
  423SOL     OW 1463   0.878   0.574   3.704 -0.5761 -0.3248 -0.9070
  423SOL    HW2 1464   0.951   0.586   3.643 -0.0669 -1.1693 -0.4785
  423SOL    HW3 1465   0.892   0.640   3.772 -0.0788 -0.6276 -0.7080
  423SOL    MW4 1466   0.890   0.584   3.705 -0.4433 -0.4762 -0.8242
  424SOL     OW 1467   2.376   4.722   6.319 -0.0982 -0.8952 -0.0774
  424SOL    HW2 1468   2.461   4.681   6.332  0.6448  0.4024 -0.6347
  424SOL    HW3 1469   2.319   4.680   6.383  0.7945 -2.2371 -0.1232
  424SOL    MW4 1470   2.380   4.711   6.329  0.1176 -0.9010 -0.1570
  425SOL     OW 1471   0.732   1.809   6.122 -0.3888  0.9161 -0.2119
  425SOL    HW2 1472   0.719   1.904   6.119  0.4065  1.0983  1.2122
  425SOL    HW3 1473   0.648   1.772   6.095 -1.2992  2.0387  0.9893
  425SOL    MW4 1474   0.719   1.816   6.118 -0.4040  1.0883  0.1345
  426SOL     OW 1475   4.485   2.603   2.043 -0.3086  0.5509 -0.3303
  426SOL    HW2 1476   4.427   2.540   2.085 -1.4969  0.9576 -1.2864
  426SOL    HW3 1477   4.571   2.585   2.079 -1.4365  1.7935  3.3797
  426SOL    MW4 1478   4.488   2.593   2.053 -0.6142  0.7685  0.0331
  427SOL     OW 1479   1.208   0.464   0.260 -0.4829 -0.0009  0.1667
  427SOL    HW2 1480   1.283   0.507   0.219 -2.0995  1.2730 -1.5931
  427SOL    HW3 1481   1.131   0.510   0.226 -2.0711 -0.6528  2.6035
  427SOL    MW4 1482   1.208   0.476   0.250 -0.9057  0.0812  0.2560
  428SOL     OW 1483   6.261   2.179   5.135 -0.0031 -0.2483  0.5370
  428SOL    HW2 1484   6.279   2.180   5.229  0.4252 -0.5075  0.4569
  428SOL    HW3 1485   6.299   2.098   5.103  2.6403  1.2456 -0.3896
  428SOL    MW4 1486   6.268   2.169   5.143  0.4022 -0.0854  0.4042
  429SOL     OW 1487   3.403   0.864   2.236  0.2184 -0.1228  0.2368
  429SOL    HW2 1488   3.414   0.814   2.155  0.5032 -0.4090  0.4508
  429SOL    HW3 1489   3.361   0.946   2.208 -0.1373 -0.4286 -0.1264
  429SOL    MW4 1490   3.399   0.868   2.221  0.2090 -0.2009  0.2171
  430SOL     OW 1491   6.322   1.032   0.421 -0.1893 -0.2319  0.2793
  430SOL    HW2 1492   6.393   1.066   0.366  0.8707 -3.0182 -0.2749
  430SOL    HW3 1493   6.366   0.991   0.495 -1.1417 -2.0977 -0.1150
  430SOL    MW4 1494   6.337   1.031   0.423 -0.1751 -0.8457  0.1542
  431SOL     OW 1495   5.182   0.698   1.082  0.2780  0.0438 -0.4645
  431SOL    HW2 1496   5.122   0.773   1.088 -0.3322 -0.4811  0.0730
  431SOL    HW3 1497   5.258   0.733   1.035 -0.2355  0.8506 -0.7266
  431SOL    MW4 1498   5.184   0.713   1.077  0.1298  0.0810 -0.4282
  432SOL     OW 1499   5.795   4.476   1.599 -0.3188 -0.6801 -0.2420
  432SOL    HW2 1500   5.852   4.403   1.573 -0.5935 -0.8263 -0.4284
  432SOL    HW3 1501   5.719   4.434   1.639 -1.2750 -0.5675 -1.8823
  432SOL    MW4 1502   5.793   4.461   1.601 -0.4812 -0.6845 -0.4830
  433SOL     OW 1503   4.623   5.365   2.171  0.5102 -0.5151 -0.1266
  433SOL    HW2 1504   4.707   5.327   2.196  0.9932 -1.5339 -2.8635
  433SOL    HW3 1505   4.643   5.457   2.152  1.6698 -1.2319 -2.9643
  433SOL    MW4 1506   4.637   5.372   2.172  0.7269 -0.7441 -0.8621
  434SOL     OW 1507   4.607   1.324   3.020  0.3173  0.5639 -0.2110
  434SOL    HW2 1508   4.647   1.258   3.078  1.1710  0.9004 -0.4051
  434SOL    HW3 1509   4.588   1.398   3.078 -1.6778 -0.2292  0.2397
  434SOL    MW4 1510   4.609   1.325   3.036  0.1667  0.5036 -0.1771
  435SOL     OW 1511   2.747   0.683   2.292 -0.4690 -0.6839 -0.0530
  435SOL    HW2 1512   2.676   0.636   2.247 -1.5613  0.7240  0.1511
  435SOL    HW3 1513   2.771   0.626   2.365 -1.3391 -1.2139 -0.1679
  435SOL    MW4 1514   2.741   0.669   2.296 -0.7279 -0.5681 -0.0413
  436SOL     OW 1515   3.912   0.600   2.861 -0.2068  0.1124  0.3226
  436SOL    HW2 1516   3.911   0.504   2.862  2.0688  0.0341  0.6426
  436SOL    HW3 1517   3.872   0.623   2.778  0.0881 -1.1646 -0.2045
  436SOL    MW4 1518   3.907   0.590   2.850  0.1323 -0.0665  0.2953
  437SOL     OW 1519   0.328   3.395   1.681  0.4730  0.4834 -0.3342
  437SOL    HW2 1520   0.262   3.325   1.680  0.1181  0.8156 -1.2311
  437SOL    HW3 1521   0.284   3.469   1.724  0.5083  0.4766 -0.2863
  437SOL    MW4 1522   0.314   3.395   1.687  0.4308  0.5264 -0.4462
  438SOL     OW 1523   4.970   1.173   3.959  0.3622  0.2559 -0.1162
  438SOL    HW2 1524   4.904   1.109   3.931  1.1716 -0.8658  0.4608
  438SOL    HW3 1525   4.927   1.224   4.027  0.0988 -0.4916  0.2843
  438SOL    MW4 1526   4.956   1.171   3.964  0.4343  0.0093  0.0128
  439SOL     OW 1527   5.032   4.949   4.738  0.0135 -0.0551 -0.2597
  439SOL    HW2 1528   5.114   4.953   4.787 -0.4018  2.5368  0.3687
  439SOL    HW3 1529   5.051   4.994   4.656 -1.1823  2.2675  0.6524
  439SOL    MW4 1530   5.045   4.955   4.734 -0.1991  0.5933 -0.0565
  440SOL     OW 1531   3.220   2.123   1.656  0.4787 -0.3728  0.7918
  440SOL    HW2 1532   3.311   2.145   1.672  0.2548  1.4849 -0.1842
  440SOL    HW3 1533   3.171   2.177   1.718 -0.0596  1.3702 -1.0518
  440SOL    MW4 1534   3.225   2.133   1.666  0.3781  0.1023  0.4198
  441SOL     OW 1535   1.393   3.876   5.472  0.1308 -0.2099 -0.1850
  441SOL    HW2 1536   1.393   3.969   5.490  1.6477 -0.4458  1.2938
  441SOL    HW3 1537   1.303   3.848   5.488 -0.5983  1.1233 -1.6519
  441SOL    MW4 1538   1.381   3.884   5.477  0.2347 -0.0651 -0.1834
  442SOL     OW 1539   0.827   4.286   5.903 -0.0995 -0.1055 -0.3934
  442SOL    HW2 1540   0.828   4.381   5.914 -0.4754  0.1479 -2.2289
  442SOL    HW3 1541   0.734   4.263   5.903 -0.0033 -0.5206  0.3044
  442SOL    MW4 1542   0.815   4.296   5.905 -0.1364 -0.1268 -0.5435
  443SOL     OW 1543   2.659   3.676   0.143 -0.3575  0.3480 -0.4561
  443SOL    HW2 1544   2.568   3.650   0.158  0.1831 -1.1451  0.4818
  443SOL    HW3 1545   2.709   3.594   0.148  0.9918  1.0624 -1.4769
  443SOL    MW4 1546   2.653   3.662   0.146 -0.1081  0.2452 -0.4671
  444SOL     OW 1547   3.607   6.044   0.357 -0.0282 -0.2939 -0.3276
  444SOL    HW2 1548   3.581   5.952   0.357  1.9351 -1.0679  3.2006
  444SOL    HW3 1549   3.554   6.083   0.426  1.1571  0.4442  0.2011
  444SOL    MW4 1550   3.597   6.037   0.366  0.3872 -0.2986  0.2077
  445SOL     OW 1551   5.270   5.521   0.681  0.0826  0.7335  0.0239
  445SOL    HW2 1552   5.317   5.479   0.753  1.8743  1.2808 -0.7717
  445SOL    HW3 1553   5.179   5.490   0.690  1.1891 -3.1939 -0.3760
  445SOL    MW4 1554   5.264   5.511   0.691  0.4650  0.2876 -0.1338
  446SOL     OW 1555   0.581   6.144   0.714 -0.4573 -0.0760 -0.3358
  446SOL    HW2 1556   0.626   6.228   0.717 -2.3955  1.0935 -1.6025
  446SOL    HW3 1557   0.648   6.081   0.685  1.2905  0.7731  1.6664
  446SOL    MW4 1558   0.596   6.146   0.710 -0.4824  0.1903 -0.2388
  447SOL     OW 1559   0.509   2.383   4.284 -0.2773 -0.1614 -0.1448
  447SOL    HW2 1560   0.437   2.441   4.258 -1.4751 -1.0947  0.9771
  447SOL    HW3 1561   0.508   2.314   4.217 -2.5956 -1.9214  1.5371
  447SOL    MW4 1562   0.499   2.382   4.272 -0.7412 -0.5167  0.2251
  448SOL     OW 1563   6.105   3.527   3.637 -0.0697 -0.1218 -0.2924
  448SOL    HW2 1564   6.073   3.581   3.710  0.6028 -2.5018  1.9391
  448SOL    HW3 1565   6.033   3.465   3.621  0.3022 -0.4302 -0.7763
  448SOL    MW4 1566   6.091   3.526   3.645  0.0681 -0.4765 -0.0618
  449SOL     OW 1567   1.984   3.033   3.415  0.3254 -0.0048  0.2056
  449SOL    HW2 1568   1.972   3.121   3.452 -0.7474  0.4240 -1.0834
  449SOL    HW3 1569   1.917   3.026   3.347 -0.2640 -2.2006  0.9194
  449SOL    MW4 1570   1.974   3.044   3.411  0.1061 -0.2379  0.1297
  450SOL     OW 1571   5.820   3.844   2.537  0.1135 -0.1460 -0.8084
  450SOL    HW2 1572   5.754   3.895   2.492  1.8394  1.3165 -1.8414
  450SOL    HW3 1573   5.831   3.888   2.621 -0.9531 -1.0441 -0.1778
  450SOL    MW4 1574   5.813   3.857   2.542  0.2005 -0.0715 -0.8615
  451SOL     OW 1575   5.532   0.229   4.101  0.3771  0.4916 -0.3742
  451SOL    HW2 1576   5.490   0.145   4.085  2.0523 -0.3114 -0.8048
  451SOL    HW3 1577   5.538   0.270   4.015 -0.0339  0.8486 -0.2323
  451SOL    MW4 1578   5.527   0.224   4.088  0.5439  0.4328 -0.4123
  452SOL     OW 1579   3.306   5.984   3.271 -0.4854  0.2312 -0.3760
  452SOL    HW2 1580   3.379   5.964   3.214 -0.7045 -0.1950 -0.5132
  452SOL    HW3 1581   3.229   5.981   3.214 -0.8276 -1.1934  0.1056
  452SOL    MW4 1582   3.305   5.981   3.256 -0.5595 -0.0130 -0.3305
  453SOL     OW 1583   1.173   5.246   5.923  0.2084 -0.6703  0.3627
  453SOL    HW2 1584   1.124   5.223   5.844  0.4050  0.0976  0.0102
  453SOL    HW3 1585   1.235   5.313   5.894  1.7896 -1.9252  0.6946
  453SOL    MW4 1586   1.175   5.251   5.908  0.4430 -0.7345  0.3600
  454SOL     OW 1587   0.851   1.545   0.839  0.5074  0.3018  0.1691
  454SOL    HW2 1588   0.798   1.496   0.776 -0.6259  0.8034  0.7124
  454SOL    HW3 1589   0.919   1.484   0.866 -0.8475 -0.9792  0.7944
  454SOL    MW4 1590   0.853   1.531   0.834  0.1791  0.1989  0.3233
  455SOL     OW 1591   0.842   5.923   4.887  0.6847 -0.1925  0.1207
  455SOL    HW2 1592   0.893   5.964   4.817 -1.8469  0.2830 -1.5943
  455SOL    HW3 1593   0.895   5.848   4.914  1.9528 -0.1932 -2.0875
  455SOL    MW4 1594   0.856   5.919   4.881  0.5180 -0.1298 -0.3969
  456SOL     OW 1595   5.400   4.804   1.585  0.1921  0.3545  0.3995
  456SOL    HW2 1596   5.401   4.823   1.679  0.3803  1.2244  0.2202
  456SOL    HW3 1597   5.332   4.861   1.550 -1.1578 -1.2395  0.2605
  456SOL    MW4 1598   5.391   4.814   1.593  0.0388  0.2590  0.3575
  457SOL     OW 1599   3.892   0.935   5.576  0.3306  0.0570  0.1310
  457SOL    HW2 1600   3.904   1.030   5.579 -0.4225  0.3028 -2.4568
  457SOL    HW3 1601   3.799   0.922   5.593  0.1461 -0.0830 -0.9511
  457SOL    MW4 1602   3.882   0.946   5.579  0.2069  0.0710 -0.3532
  458SOL     OW 1603   0.693   6.394   0.800 -0.1113 -0.2611  0.0529
  458SOL    HW2 1604   0.604   6.429   0.805 -0.0733 -0.1840  0.1998
  458SOL    HW3 1605   0.749   6.470   0.811 -0.0231 -0.2453 -0.4953
  458SOL    MW4 1606   0.688   6.408   0.802 -0.0947 -0.2489 -0.0000
  459SOL     OW 1607   4.293   4.611   2.567 -0.1583  0.5219 -0.3323
  459SOL    HW2 1608   4.377   4.574   2.596 -0.7975  0.1242  1.0585
  459SOL    HW3 1609   4.262   4.663   2.641 -0.8982  1.1101 -1.0338
  459SOL    MW4 1610   4.300   4.613   2.580 -0.3403  0.5471 -0.2413
  460SOL     OW 1611   6.255   3.186   3.027 -0.2003 -0.2085  0.8222
  460SOL    HW2 1612   6.304   3.229   2.957  1.9422 -1.3070  1.5477
  460SOL    HW3 1613   6.168   3.225   3.024  0.1510  0.5206 -1.7420
  460SOL    MW4 1614   6.250   3.197   3.018  0.1288 -0.2573  0.5796
  461SOL     OW 1615   5.340   3.914   5.894 -0.0894  0.5564 -0.6024
  461SOL    HW2 1616   5.349   3.983   5.828  0.3976 -0.3190 -1.4681
  461SOL    HW3 1617   5.251   3.926   5.930 -1.2192 -0.2460 -2.9394
  461SOL    MW4 1618   5.329   3.925   5.890 -0.1742  0.3350 -1.0250
  462SOL     OW 1619   4.909   3.805   4.016  0.1150  0.2418  0.2615
  462SOL    HW2 1620   4.914   3.900   4.006  1.5380  0.1907  0.3442
  462SOL    HW3 1621   4.984   3.782   4.070 -0.0927 -0.9627  0.0743
  462SOL    MW4 1622   4.919   3.814   4.022  0.2753  0.0761  0.2477
  463SOL     OW 1623   1.072   1.312   2.659 -0.2922  0.0603 -0.3093
  463SOL    HW2 1624   0.995   1.287   2.709  1.3485  1.0313  2.9543
  463SOL    HW3 1625   1.043   1.388   2.607 -1.6610  0.0358  0.3781
  463SOL    MW4 1626   1.058   1.319   2.658 -0.2563  0.1852  0.2120
  464SOL     OW 1627   5.593   6.257   0.383  0.3462  0.2093  0.0763
  464SOL    HW2 1628   5.610   6.348   0.407  0.1594  0.8631 -2.1135
  464SOL    HW3 1629   5.516   6.261   0.327  0.1193 -1.3652  0.2264
  464SOL    MW4 1630   5.585   6.270   0.379  0.2916  0.0878 -0.1928
  465SOL     OW 1631   0.829   5.139   4.370 -0.7772 -0.0841 -0.0988
  465SOL    HW2 1632   0.875   5.061   4.338 -0.8884  0.0285 -0.5417
  465SOL    HW3 1633   0.852   5.207   4.307  1.0613  0.8175  1.4357
  465SOL    MW4 1634   0.838   5.138   4.358 -0.5493  0.0497  0.0452
  466SOL     OW 1635   4.712   3.787   3.806  0.5324  0.5812  0.0549
  466SOL    HW2 1636   4.624   3.759   3.829  0.6194  0.2172 -0.0513
  466SOL    HW3 1637   4.765   3.767   3.883  0.4388  1.2229  0.2938
  466SOL    MW4 1638   4.707   3.781   3.819  0.5316  0.6179  0.0724
  467SOL     OW 1639   4.384   0.991   3.244  0.7212 -0.4446 -0.6065
  467SOL    HW2 1640   4.314   0.981   3.308 -1.1700  0.9887 -2.3412
  467SOL    HW3 1641   4.443   1.055   3.283  0.6072 -0.9597  0.4618
  467SOL    MW4 1642   4.383   0.998   3.258  0.4566 -0.3234 -0.6944
  468SOL     OW 1643   2.721   3.175   6.291 -0.3066 -0.2154 -0.8344
  468SOL    HW2 1644   2.757   3.263   6.302  0.3143 -0.4693 -0.8284
  468SOL    HW3 1645   2.628   3.190   6.273 -0.0564  0.4807 -1.6430
  468SOL    MW4 1646   2.713   3.189   6.290 -0.1916 -0.1570 -0.9403
  469SOL     OW 1647   4.695   3.474   3.520 -0.2526 -0.1249 -0.4228
  469SOL    HW2 1648   4.782   3.507   3.540 -0.4782  0.0760  0.2583
  469SOL    HW3 1649   4.660   3.445   3.605 -1.2063  0.6946 -0.5192
  469SOL    MW4 1650   4.702   3.474   3.534 -0.4082  0.0097 -0.3456
  470SOL     OW 1651   3.296   3.834   0.675  0.5561  0.2926 -0.5935
  470SOL    HW2 1652   3.283   3.902   0.741 -1.5622  1.0605 -1.6826
  470SOL    HW3 1653   3.341   3.763   0.721 -0.5169  0.9323  1.5766
  470SOL    MW4 1654   3.300   3.833   0.690  0.1351  0.4783 -0.4509
  471SOL     OW 1655   5.240   3.006   2.598  0.0416 -1.0827  0.0996
  471SOL    HW2 1656   5.289   3.035   2.675 -0.9292 -1.3557  0.8310
  471SOL    HW3 1657   5.215   3.088   2.554  1.3037 -0.9403 -0.4076
  471SOL    MW4 1658   5.243   3.021   2.602  0.0801 -1.0999  0.1292
  472SOL     OW 1659   2.972   4.835   2.804  0.7445 -0.2323 -0.2365
  472SOL    HW2 1660   2.933   4.836   2.716  0.1348  0.7205  0.0298
  472SOL    HW3 1661   3.037   4.906   2.802 -1.5900  2.1307  1.0465
  472SOL    MW4 1662   2.976   4.845   2.792  0.3561  0.2052 -0.0321
  473SOL     OW 1663   5.657   1.148   6.078 -0.5137 -0.3378 -0.2728
  473SOL    HW2 1664   5.567   1.132   6.107 -1.1133 -0.2806 -1.9932
  473SOL    HW3 1665   5.669   1.090   6.003  0.3009  0.8521 -1.1054
  473SOL    MW4 1666   5.646   1.138   6.072 -0.4854 -0.1733 -0.6096
  474SOL     OW 1667   1.187   1.564   2.083  0.5186 -0.3520 -0.1233
  474SOL    HW2 1668   1.270   1.525   2.112  0.4810  1.2103  2.3739
  474SOL    HW3 1669   1.121   1.527   2.143 -0.8311 -2.0932 -2.4772
  474SOL    MW4 1670   1.189   1.554   2.095  0.3356 -0.3756 -0.1044
  475SOL     OW 1671   4.211   2.852   5.790 -0.2273  0.0401 -0.3930
  475SOL    HW2 1672   4.286   2.901   5.757 -1.4593  0.7340 -2.4082
  475SOL    HW3 1673   4.199   2.883   5.879 -0.0715  2.4207 -1.1280
  475SOL    MW4 1674   4.219   2.863   5.797 -0.3693  0.4458 -0.7559
  476SOL     OW 1675   3.388   3.398   6.342 -0.2904  0.0308  0.4694
  476SOL    HW2 1676   3.430   3.380   6.426 -0.7169  1.6996  1.0820
  476SOL    HW3 1677   3.405   3.491   6.326 -1.1043 -0.0109 -0.7781
  476SOL    MW4 1678   3.396   3.408   6.351 -0.4541  0.2455  0.3857
  477SOL     OW 1679   0.514   0.910   4.551 -0.0009 -0.2303 -0.1729
  477SOL    HW2 1680   0.520   0.899   4.646  0.9560  0.9153 -0.0733
  477SOL    HW3 1681   0.420   0.916   4.533 -0.1849 -0.3030  0.7226
  477SOL    MW4 1682   0.503   0.910   4.561  0.1011 -0.0887 -0.0416
  478SOL     OW 1683   4.739   3.461   0.572 -0.4500 -0.0798 -0.2912
  478SOL    HW2 1684   4.703   3.548   0.556  0.0320  0.7525  2.6014
  478SOL    HW3 1685   4.834   3.473   0.573 -0.3263 -0.8888 -0.9915
  478SOL    MW4 1686   4.747   3.474   0.570 -0.3701 -0.0767 -0.0019
  479SOL     OW 1687   5.982   2.436   0.509 -0.2067 -0.1108  0.1707
  479SOL    HW2 1688   5.973   2.352   0.554 -2.0502  0.4765  1.0299
  479SOL    HW3 1689   6.030   2.491   0.571 -0.5946 -0.0218  0.4002
  479SOL    MW4 1690   5.987   2.432   0.523 -0.5011 -0.0216  0.3143
  480SOL     OW 1691   0.527   2.114   0.688 -0.1718 -0.0686  0.4641
  480SOL    HW2 1692   0.546   2.134   0.780  1.1833 -1.6427  0.5723
  480SOL    HW3 1693   0.433   2.094   0.686 -0.4387  1.0196  1.2828
  480SOL    MW4 1694   0.517   2.114   0.700 -0.0282 -0.1327  0.5864
  481SOL     OW 1695   4.936   4.518   6.360 -0.4046  0.6169 -0.1058
  481SOL    HW2 1696   5.007   4.464   6.397 -0.4324  1.7701  1.7793
  481SOL    HW3 1697   4.978   4.601   6.339 -1.3859  1.9134  2.5567
  481SOL    MW4 1698   4.951   4.522   6.362 -0.5377  0.9401  0.4942
  482SOL     OW 1699   4.477   3.079   0.291  0.1132 -0.5754 -0.3232
  482SOL    HW2 1700   4.438   3.106   0.207 -0.8589  0.4873  0.4303
  482SOL    HW3 1701   4.540   3.148   0.311  1.0109 -1.2945 -0.5935
  482SOL    MW4 1702   4.480   3.092   0.282  0.1034 -0.5300 -0.2595
  483SOL     OW 1703   4.373   4.860   0.530  0.2895 -0.1465 -0.3592
  483SOL    HW2 1704   4.458   4.895   0.555  0.1788  0.1056 -0.3351
  483SOL    HW3 1705   4.332   4.930   0.480  0.1161 -0.2859 -0.4129
  483SOL    MW4 1706   4.378   4.874   0.527  0.2520 -0.1316 -0.3631
  484SOL     OW 1707   5.500   0.128   3.155 -0.0681  0.6867  0.0457
  484SOL    HW2 1708   5.428   0.176   3.195 -0.5640  0.7269 -0.8868
  484SOL    HW3 1709   5.575   0.146   3.213 -1.1634 -0.8000  2.0316
  484SOL    MW4 1710   5.501   0.137   3.168 -0.2780  0.4959  0.1847
  485SOL     OW 1711   5.276   6.133   2.118 -0.1564  0.1578 -0.4129
  485SOL    HW2 1712   5.358   6.164   2.156  0.6092 -0.1278 -1.7835
  485SOL    HW3 1713   5.210   6.195   2.149  0.5786  0.4391  0.6350
  485SOL    MW4 1714   5.278   6.145   2.128  0.0416  0.1573 -0.4555
  486SOL     OW 1715   5.960   0.013   4.556 -0.6331 -0.2370  0.3146
  486SOL    HW2 1716   6.017   0.019   4.479 -3.1582  0.6132 -1.6458
  486SOL    HW3 1717   5.981   0.091   4.607 -0.2811  0.2586 -0.5598
  486SOL    MW4 1718   5.970   0.025   4.553 -0.9198 -0.0594 -0.0594
  487SOL     OW 1719   4.810   4.268   3.793  0.0086 -0.0520 -0.1924
  487SOL    HW2 1720   4.883   4.220   3.755  0.2578 -0.2743  0.5536
  487SOL    HW3 1721   4.835   4.360   3.786  0.9471 -0.1688  1.1862
  487SOL    MW4 1722   4.823   4.274   3.787  0.1653 -0.0967  0.0879
  488SOL     OW 1723   5.235   1.812   0.019  0.2400 -0.8589 -0.7768
  488SOL    HW2 1724   5.200   1.877   0.080  2.4005  0.9198 -1.2840
  488SOL    HW3 1725   5.239   1.731   0.069  3.0440  0.7849  1.9673
  488SOL    MW4 1726   5.231   1.810   0.033  0.8950 -0.4074 -0.4816
  489SOL     OW 1727   0.709   2.834   6.069  0.6763  0.3045 -0.1013
  489SOL    HW2 1728   0.695   2.800   6.158 -0.1539  1.2693  0.1551
  489SOL    HW3 1729   0.796   2.875   6.073 -0.3719  2.6192  1.0529
  489SOL    MW4 1730   0.719   2.835   6.082  0.4285  0.7372  0.0848
  490SOL     OW 1731   4.416   6.229   1.411 -0.2321 -0.3136  0.0422
  490SOL    HW2 1732   4.352   6.249   1.342 -0.5405  0.0045  0.4144
  490SOL    HW3 1733   4.423   6.310   1.461  3.4137  1.0581 -2.2600
  490SOL    MW4 1734   4.409   6.243   1.408  0.2082 -0.0907 -0.2124
  491SOL     OW 1735   2.520   0.093   6.271 -0.6674  0.0514 -0.1720
  491SOL    HW2 1736   2.458   0.163   6.251 -1.0861 -0.6249 -1.3055
  491SOL    HW3 1737   2.556   0.068   6.186 -0.0205 -0.6599  0.3001
  491SOL    MW4 1738   2.517   0.099   6.258 -0.6373 -0.1317 -0.2592
  492SOL     OW 1739   4.995   6.425   1.728  0.2327  0.4299  0.0211
  492SOL    HW2 1740   5.076   6.439   1.776 -0.9818  0.0336  2.3178
  492SOL    HW3 1741   5.018   6.443   1.636  3.1266 -0.6459  0.4290
  492SOL    MW4 1742   5.009   6.429   1.722  0.4543  0.2357  0.3779
  493SOL     OW 1743   2.792   4.496   1.590  0.5262  0.1859 -0.1798
  493SOL    HW2 1744   2.767   4.406   1.612  3.4628 -0.3154  1.5092
  493SOL    HW3 1745   2.746   4.550   1.654  0.6356 -0.3281  0.3368
  493SOL    MW4 1746   2.782   4.491   1.601  0.9281  0.0520  0.1112
  494SOL     OW 1747   5.641   3.355   1.898  0.0661 -0.2363  0.2920
  494SOL    HW2 1748   5.617   3.398   1.980 -0.6916 -1.1788  0.5832
  494SOL    HW3 1749   5.654   3.263   1.921 -0.2476 -0.5386 -0.6535
  494SOL    MW4 1750   5.640   3.348   1.912 -0.0753 -0.4006  0.2057
  495SOL     OW 1751   6.297   5.465   4.765 -0.3759  0.6260  0.0585
  495SOL    HW2 1752   6.263   5.405   4.699  0.0039  1.0144 -0.5047
  495SOL    HW3 1753   6.288   5.552   4.725 -0.6452  0.9173  0.7431
  495SOL    MW4 1754   6.292   5.469   4.751 -0.3613  0.7157  0.0745
  496SOL     OW 1755   2.715   3.320   4.157  0.7176 -0.4602 -0.7471
  496SOL    HW2 1756   2.684   3.402   4.118  0.5668  0.0065  0.3371
  496SOL    HW3 1757   2.758   3.274   4.084 -1.4867 -0.6237 -2.0467
  496SOL    MW4 1758   2.717   3.325   4.142  0.4069 -0.4202 -0.7755
  497SOL     OW 1759   5.428   0.380   2.128 -0.0212 -0.9232 -0.5060
  497SOL    HW2 1760   5.483   0.364   2.051  0.3005 -0.8756 -0.2900
  497SOL    HW3 1761   5.339   0.387   2.093  0.2097 -0.1285 -0.9645
  497SOL    MW4 1762   5.424   0.378   2.113  0.0517 -0.8120 -0.5380
  498SOL     OW 1763   4.769   4.074   5.648 -0.8471 -0.3939 -0.0390
  498SOL    HW2 1764   4.754   4.047   5.558 -2.7784  1.0277 -0.2127
  498SOL    HW3 1765   4.692   4.126   5.671  0.6558  1.2503  1.6599
  498SOL    MW4 1766   4.757   4.077   5.639 -0.9036  0.0106  0.1622
  499SOL     OW 1767   4.319   5.592   3.052 -0.2546 -0.0007  0.0383
  499SOL    HW2 1768   4.298   5.670   3.001 -0.7584  0.0391  0.2988
  499SOL    HW3 1769   4.361   5.533   2.989  0.7540  0.7414  0.0045
  499SOL    MW4 1770   4.321   5.595   3.037 -0.1880  0.1025  0.0682
  500SOL     OW 1771   6.166   5.077   2.574 -0.0958  0.0460 -0.4857
  500SOL    HW2 1772   6.095   5.060   2.636 -1.1766  0.2904 -1.6023
  500SOL    HW3 1773   6.241   5.028   2.608 -1.0569 -0.9643  0.2495
  500SOL    MW4 1774   6.167   5.068   2.586 -0.3652 -0.0551 -0.5360
  501SOL     OW 1775   5.241   4.713   3.914 -0.3072  0.0788  0.0869
  501SOL    HW2 1776   5.232   4.784   3.979 -2.0364  0.1855 -0.2224
  501SOL    HW3 1777   5.188   4.642   3.949  0.5777 -0.7048 -0.1251
  501SOL    MW4 1778   5.233   4.713   3.927 -0.4186 -0.0105  0.0181
  502SOL     OW 1779   4.515   0.992   6.082  0.4391  0.2488  0.0537
  502SOL    HW2 1780   4.445   0.933   6.053 -1.6762  1.5814  2.0510
  502SOL    HW3 1781   4.573   0.935   6.133  0.3176 -0.7217 -0.8546
  502SOL    MW4 1782   4.513   0.977   6.085  0.1440  0.2965  0.1974
  503SOL     OW 1783   2.138   3.386   1.268  0.1003 -0.0110 -0.7010
  503SOL    HW2 1784   2.185   3.467   1.288 -2.7434  1.9723 -1.4048
  503SOL    HW3 1785   2.132   3.340   1.352 -0.0431  1.5777  0.1974
  503SOL    MW4 1786   2.143   3.391   1.282 -0.2938  0.4602 -0.6754
  504SOL     OW 1787   2.492   4.560   5.835  0.5193  0.3140 -0.6285
  504SOL    HW2 1788   2.477   4.538   5.927  1.1968  1.3042 -0.2674
  504SOL    HW3 1789   2.443   4.494   5.787 -0.5983  0.3117  0.4490
  504SOL    MW4 1790   2.484   4.548   5.841  0.4613  0.4443 -0.4387
  505SOL     OW 1791   0.564   0.481   3.959 -0.4076  0.2982  0.1820
  505SOL    HW2 1792   0.560   0.410   4.022 -0.8205 -0.7880 -1.0246
  505SOL    HW3 1793   0.571   0.438   3.874  0.6175  1.7196 -0.5022
  505SOL    MW4 1794   0.564   0.466   3.956 -0.3268  0.3424 -0.0675
  506SOL     OW 1795   5.541   4.582   1.930 -0.2283  0.2859  0.2408
  506SOL    HW2 1796   5.498   4.581   2.016  0.0524  2.4902  0.4767
  506SOL    HW3 1797   5.628   4.547   1.947 -0.2540  0.4849  0.8333
  506SOL    MW4 1798   5.546   4.577   1.944 -0.1947  0.6030  0.3501
  507SOL     OW 1799   1.510   1.124   3.343  0.4987  0.0885  0.0014
  507SOL    HW2 1800   1.485   1.106   3.252 -0.1557 -0.1234  0.2136
  507SOL    HW3 1801   1.432   1.101   3.394  0.6800  0.7094  0.5678
  507SOL    MW4 1802   1.496   1.118   3.338  0.4363  0.1424  0.1041
  508SOL     OW 1803   6.177   1.699   5.111  0.7574 -0.3152  0.2375
  508SOL    HW2 1804   6.121   1.710   5.188 -0.6013 -1.5942 -0.5197
  508SOL    HW3 1805   6.209   1.788   5.093 -0.2507  0.2952  1.2651
  508SOL    MW4 1806   6.174   1.712   5.119  0.4451 -0.4034  0.2732
  509SOL     OW 1807   2.077   2.751   4.682 -0.0349 -0.1973 -0.1832
  509SOL    HW2 1808   2.139   2.700   4.630  2.7801  2.2293  0.4976
  509SOL    HW3 1809   2.090   2.719   4.772  1.3412  1.2112  0.1628
  509SOL    MW4 1810   2.087   2.740   4.687  0.5180  0.3087 -0.0477
  510SOL     OW 1811   4.838   1.321   0.865  0.1598  0.0180 -0.3823
  510SOL    HW2 1812   4.883   1.389   0.914  0.0464 -0.2554  0.1047
  510SOL    HW3 1813   4.876   1.326   0.777 -0.7564  1.5661 -0.7298
  510SOL    MW4 1814   4.849   1.330   0.860  0.0239  0.1862 -0.3639
  511SOL     OW 1815   6.314   3.452   6.014  0.3128 -0.5464  0.5874
  511SOL    HW2 1816   6.267   3.370   6.022 -1.4536  0.2979 -0.4600
  511SOL    HW3 1817   6.274   3.510   6.079  1.1181 -0.3008  0.8877
  511SOL    MW4 1818   6.303   3.449   6.024  0.1860 -0.4026  0.4888
  512SOL     OW 1819   1.701   3.131   4.875 -0.2964 -0.4284 -0.0412
  512SOL    HW2 1820   1.726   3.173   4.957  1.0382  1.5386 -1.3744
  512SOL    HW3 1821   1.783   3.107   4.833 -0.6815  1.8233 -2.3472
  512SOL    MW4 1822   1.715   3.133   4.880 -0.1711  0.1282 -0.5214
  513SOL     OW 1823   5.218   4.127   1.677  0.1726  0.1623  0.1866
  513SOL    HW2 1824   5.229   4.186   1.603 -1.2838 -0.4728 -0.5714
  513SOL    HW3 1825   5.149   4.066   1.650 -0.6493  0.1220  2.1820
  513SOL    MW4 1826   5.210   4.127   1.664 -0.1280  0.0732  0.3498
  514SOL     OW 1827   3.334   1.774   1.450  1.0076 -0.2134 -0.2437
  514SOL    HW2 1828   3.313   1.786   1.542 -1.1712  0.6424 -0.7944
  514SOL    HW3 1829   3.304   1.685   1.430 -0.1703  0.2274 -0.5119
  514SOL    MW4 1830   3.328   1.764   1.459  0.5647 -0.0424 -0.3518
  515SOL     OW 1831   2.643   3.741   4.137  0.0103  0.0746  0.0044
  515SOL    HW2 1832   2.615   3.723   4.226  0.5972 -0.1246  0.1522
  515SOL    HW3 1833   2.577   3.801   4.102 -1.5827 -1.7594 -0.2639
  515SOL    MW4 1834   2.631   3.747   4.144 -0.1224 -0.1937 -0.0115
  516SOL     OW 1835   0.652   4.450   5.193  0.2023  0.2789  0.3353
  516SOL    HW2 1836   0.639   4.373   5.248  0.1604  1.6270  2.3224
  516SOL    HW3 1837   0.744   4.472   5.203 -0.3236  1.9822  1.9575
  516SOL    MW4 1838   0.662   4.443   5.202  0.1274  0.6815  0.8115
  517SOL     OW 1839   1.284   2.408   4.111 -0.1967 -0.0037  0.3254
  517SOL    HW2 1840   1.333   2.342   4.160 -0.5557 -2.2842 -2.1532
  517SOL    HW3 1841   1.318   2.402   4.022 -1.4117  2.0730 -0.3604
  517SOL    MW4 1842   1.295   2.399   4.106 -0.4044 -0.0306 -0.0921
  518SOL     OW 1843   2.846   3.344   1.629 -0.5920  0.5301 -0.8968
  518SOL    HW2 1844   2.777   3.354   1.694 -0.2041  0.4035 -0.4560
  518SOL    HW3 1845   2.893   3.265   1.656  0.8729  1.6119 -0.0762
  518SOL    MW4 1846   2.843   3.335   1.641 -0.3475  0.6562 -0.7304
  519SOL     OW 1847   6.029   0.857   3.556 -0.2526 -0.4627  0.1717
  519SOL    HW2 1848   6.101   0.799   3.532 -1.0070 -0.9147 -1.1087
  519SOL    HW3 1849   5.993   0.819   3.636  0.4726 -0.6331  0.4253
  519SOL    MW4 1850   6.034   0.844   3.563 -0.2565 -0.5449  0.0362
  520SOL     OW 1851   4.090   5.635   2.199 -0.0829 -0.1618 -0.3058
  520SOL    HW2 1852   4.074   5.541   2.191  1.8203 -0.5792  0.3035
  520SOL    HW3 1853   4.122   5.646   2.288  3.0368  0.4715 -1.3740
  520SOL    MW4 1854   4.092   5.624   2.210  0.5798 -0.1333 -0.3663
  521SOL     OW 1855   5.237   1.898   3.962  0.4648  0.2327 -0.4254
  521SOL    HW2 1856   5.310   1.955   3.939 -0.1462  0.4226 -1.9535
  521SOL    HW3 1857   5.169   1.919   3.899 -0.0842 -1.5918 -0.4960
  521SOL    MW4 1858   5.238   1.909   3.951  0.3117  0.0170 -0.6363
  522SOL     OW 1859   4.286   1.639   6.124  0.4932  0.0053 -0.1637
  522SOL    HW2 1860   4.330   1.655   6.041  1.5375  1.2227  0.5794
  522SOL    HW3 1861   4.194   1.659   6.107  0.7921  0.8543 -0.8804
  522SOL    MW4 1862   4.279   1.644   6.111  0.6704  0.2780 -0.1602
  523SOL     OW 1863   2.326   2.017   2.503  0.2499 -0.0260  0.7079
  523SOL    HW2 1864   2.260   2.032   2.436 -1.2487  0.1737  2.1721
  523SOL    HW3 1865   2.409   2.041   2.461 -0.3966 -1.4320 -1.5726
  523SOL    MW4 1866   2.328   2.022   2.489 -0.0331 -0.1852  0.6002
  524SOL     OW 1867   0.672   3.399   3.752  0.2446  0.2230 -0.0120
  524SOL    HW2 1868   0.706   3.414   3.841  0.7683  0.7025 -0.2849
  524SOL    HW3 1869   0.660   3.488   3.717  1.2459  0.0311 -0.8711
  524SOL    MW4 1870   0.675   3.413   3.759  0.4458  0.2609 -0.1614
  525SOL     OW 1871   0.260   6.350   6.030 -0.0642 -0.0543  0.1963
  525SOL    HW2 1872   0.254   6.283   6.098 -0.2309 -0.3160 -0.0722
  525SOL    HW3 1873   0.321   6.415   6.065  1.8773 -1.4215 -0.4301
  525SOL    MW4 1874   0.267   6.349   6.044  0.1700 -0.2693  0.0782
  526SOL     OW 1875   5.475   3.342   4.825  0.4288  0.2883  0.5319
  526SOL    HW2 1876   5.510   3.253   4.832  0.3050  0.2504  0.6724
  526SOL    HW3 1877   5.455   3.352   4.732 -0.4871 -0.1909  0.6672
  526SOL    MW4 1878   5.477   3.332   4.814  0.2916  0.2201  0.5683
  527SOL     OW 1879   1.078   4.979   4.025 -0.1673 -0.2923 -0.4289
  527SOL    HW2 1880   1.150   4.972   3.963 -0.5463  0.1640 -0.9217
  527SOL    HW3 1881   1.080   4.896   4.073  0.3882 -0.4738 -0.7589
  527SOL    MW4 1882   1.087   4.967   4.023 -0.1440 -0.2560 -0.5375
  528SOL     OW 1883   4.780   1.215   1.800  0.3361  0.2637 -0.0283
  528SOL    HW2 1884   4.767   1.128   1.839 -0.0768  0.1982 -0.3048
  528SOL    HW3 1885   4.790   1.273   1.875 -0.7267  0.1841  0.1935
  528SOL    MW4 1886   4.780   1.211   1.815  0.1414  0.2445 -0.0355
  529SOL     OW 1887   0.728   1.521   4.851 -0.0728  0.0776 -0.2945
  529SOL    HW2 1888   0.651   1.465   4.842 -0.8918  0.9136  1.1905
  529SOL    HW3 1889   0.798   1.462   4.879 -0.8264 -0.2936  0.8742
  529SOL    MW4 1890   0.727   1.506   4.853 -0.2803  0.1389  0.0556
  530SOL     OW 1891   1.099   0.805   4.250 -0.4238  0.1951 -0.0775
  530SOL    HW2 1892   1.040   0.800   4.324  1.3387 -2.3224  1.3422
  530SOL    HW3 1893   1.150   0.885   4.264 -1.0839  0.4978  0.6219
  530SOL    MW4 1894   1.098   0.815   4.261 -0.2783 -0.0971  0.2021
  531SOL     OW 1895   1.211   5.332   0.017 -0.0451  0.1483  0.0613
  531SOL    HW2 1896   1.161   5.335  -0.065  0.1668 -0.0134 -0.0780
  531SOL    HW3 1897   1.162   5.387   0.078 -0.9180 -0.7619  0.2223
  531SOL    MW4 1898   1.198   5.340   0.014 -0.1323  0.0068  0.0642
  532SOL     OW 1899   3.064   3.408   1.056  0.0464  0.1647  0.2009
  532SOL    HW2 1900   3.106   3.483   1.099  0.0067 -0.4642  1.3957
  532SOL    HW3 1901   3.115   3.333   1.086 -1.1896 -0.4913  0.7352
  532SOL    MW4 1902   3.076   3.408   1.066 -0.1219 -0.0048  0.4290
  533SOL     OW 1903   2.103   0.761   2.077 -0.4803  0.0370 -0.5202
  533SOL    HW2 1904   2.164   0.800   2.016  0.4588 -0.3159  0.1654
  533SOL    HW3 1905   2.159   0.719   2.143 -1.4472  0.7938  0.8250
  533SOL    MW4 1906   2.118   0.760   2.078 -0.4840  0.0903 -0.2523
  534SOL     OW 1907   3.556   4.962   5.118 -0.3070  0.1281 -0.0698
  534SOL    HW2 1908   3.626   4.906   5.084 -0.1451 -0.1906  0.7428
  534SOL    HW3 1909   3.535   5.021   5.046 -0.9659 -1.4110 -1.1917
  534SOL    MW4 1910   3.563   4.962   5.104 -0.3726 -0.1170 -0.1106
  535SOL     OW 1911   1.673   1.861   0.588  0.0246 -0.3249  0.1202
  535SOL    HW2 1912   1.644   1.781   0.544  2.4988 -0.5897 -1.2281
  535SOL    HW3 1913   1.716   1.831   0.668  2.0508 -0.5349 -0.9861
  535SOL    MW4 1914   1.675   1.847   0.592  0.6184 -0.3875 -0.2036
  536SOL     OW 1915   3.996   2.831   5.017  0.2534 -0.0585 -0.6329
  536SOL    HW2 1916   3.981   2.767   5.086  0.6131  2.0360  1.5142
  536SOL    HW3 1917   3.914   2.881   5.012  1.0016  1.2936 -0.0071
  536SOL    MW4 1918   3.983   2.829   5.025  0.3995  0.3962 -0.2670
  537SOL     OW 1919   5.503   4.754   4.444  0.0779  0.2933  0.3707
  537SOL    HW2 1920   5.537   4.842   4.458  0.5253 -0.2051  2.9034
  537SOL    HW3 1921   5.407   4.765   4.443  0.1006  1.1922 -2.9415
  537SOL    MW4 1922   5.495   4.767   4.445  0.1399  0.3462  0.2678
  538SOL     OW 1923   5.981   6.181   2.251 -0.1342  0.7426 -0.1519
  538SOL    HW2 1924   5.979   6.102   2.305  2.0735  0.6334 -0.1363
  538SOL    HW3 1925   5.899   6.227   2.272 -0.5484 -0.5777  1.2911
  538SOL    MW4 1926   5.970   6.177   2.261  0.1024  0.5540  0.0405
  539SOL     OW 1927   6.201   4.755   6.316  0.0610  0.6414 -0.2897
  539SOL    HW2 1928   6.250   4.835   6.297 -0.4453  1.1014  0.3036
  539SOL    HW3 1929   6.261   4.685   6.292  0.2900  1.1940 -1.3915
  539SOL    MW4 1930   6.215   4.757   6.311  0.0244  0.7750 -0.3568
  540SOL     OW 1931   5.735   5.823   2.384 -0.5083 -0.6359 -0.4640
  540SOL    HW2 1932   5.672   5.824   2.456 -1.6778  0.2158 -1.4574
  540SOL    HW3 1933   5.801   5.888   2.409 -2.0683  1.2686 -1.1147
  540SOL    MW4 1934   5.736   5.832   2.397 -0.8684 -0.2722 -0.6809
  541SOL     OW 1935   1.256   4.331   1.691 -0.1086 -0.3501 -0.1558
  541SOL    HW2 1936   1.166   4.330   1.726 -0.1303 -0.5900 -0.2193
  541SOL    HW3 1937   1.249   4.290   1.605 -0.3255  1.5384 -1.1116
  541SOL    MW4 1938   1.243   4.326   1.684 -0.1401 -0.1326 -0.2903
  542SOL     OW 1939   3.894   4.474   4.501 -0.3173  0.5247  0.2893
  542SOL    HW2 1940   3.901   4.417   4.424  1.4533  2.2544 -0.9324
  542SOL    HW3 1941   3.811   4.520   4.490  0.8014  2.2077 -1.7320
  542SOL    MW4 1942   3.884   4.473   4.490  0.0639  0.9749 -0.1386
  543SOL     OW 1943   2.933   3.911   0.866 -0.2163 -0.0817 -0.0497
  543SOL    HW2 1944   3.024   3.940   0.873 -0.2189 -0.0649 -0.0857
  543SOL    HW3 1945   2.888   3.983   0.821  0.2473 -1.1160 -2.2995
  543SOL    MW4 1946   2.939   3.924   0.861 -0.1555 -0.2160 -0.3513
  544SOL     OW 1947   3.298   1.147   4.000 -0.1870 -0.3342  0.5909
  544SOL    HW2 1948   3.380   1.113   4.039 -0.8298 -0.1310  2.2076
  544SOL    HW3 1949   3.316   1.239   3.982  0.0894 -0.4010  0.5230
  544SOL    MW4 1950   3.311   1.154   4.003 -0.2353 -0.3162  0.7953
  545SOL     OW 1951   1.275   1.762   3.223  0.7515  0.5350  0.1694
  545SOL    HW2 1952   1.318   1.763   3.138 -0.3330  0.0111 -0.4055
  545SOL    HW3 1953   1.273   1.670   3.248 -1.4699  0.3200 -0.5986
  545SOL    MW4 1954   1.281   1.750   3.215  0.3153  0.4375 -0.0077
  546SOL     OW 1955   1.527   3.910   3.002 -0.1978  0.4385 -0.3525
  546SOL    HW2 1956   1.442   3.892   3.043 -0.6435  0.8703 -1.0555
  546SOL    HW3 1957   1.537   3.840   2.937  0.8663 -0.7008  0.9632
  546SOL    MW4 1958   1.517   3.898   2.999 -0.1162  0.3451 -0.2716
  547SOL     OW 1959   5.436   1.994   6.404 -0.0097  0.3327  0.4043
  547SOL    HW2 1960   5.378   1.919   6.418  0.0542  0.6445  2.7266
  547SOL    HW3 1961   5.472   2.013   6.491  1.5896  1.7645 -0.5039
  547SOL    MW4 1962   5.433   1.987   6.417  0.2098  0.5628  0.5908
  548SOL     OW 1963   1.616   2.821   1.655  0.4444 -0.0794  0.9519
  548SOL    HW2 1964   1.679   2.783   1.594 -1.9387  1.2095 -2.6542
  548SOL    HW3 1965   1.565   2.746   1.687  0.3413 -0.6299 -0.4403
  548SOL    MW4 1966   1.617   2.806   1.652  0.1164  0.0180  0.2924
  549SOL     OW 1967   3.063   2.036   0.369  0.6706 -0.0098  0.0659
  549SOL    HW2 1968   3.149   2.037   0.412  1.5079 -2.0788 -1.4256
  549SOL    HW3 1969   3.041   1.943   0.360  0.4319  0.2479 -3.6050
  549SOL    MW4 1970   3.071   2.024   0.373  0.7496 -0.2488 -0.6152
  550SOL     OW 1971   2.488   2.558   0.551 -0.3384 -0.7134 -0.4475
  550SOL    HW2 1972   2.403   2.563   0.596 -0.1845 -0.5925 -0.1666
  550SOL    HW3 1973   2.549   2.532   0.620 -0.2731 -1.5299 -0.8074
  550SOL    MW4 1974   2.485   2.555   0.566 -0.3094 -0.8051 -0.4579
  551SOL     OW 1975   1.148   3.200   1.682  0.1517 -0.2418 -0.2777
  551SOL    HW2 1976   1.067   3.251   1.682  0.4926  0.3204 -1.3160
  551SOL    HW3 1977   1.132   3.129   1.745 -0.6110  0.6803  0.5844
  551SOL    MW4 1978   1.135   3.197   1.691  0.0961 -0.0459 -0.3009
  552SOL     OW 1979   2.138   5.935   6.279 -0.1206 -0.3224 -0.4891
  552SOL    HW2 1980   2.141   6.008   6.217  2.4130 -0.8809 -1.1379
  552SOL    HW3 1981   2.075   5.873   6.241 -0.5202  0.4649 -1.1433
  552SOL    MW4 1982   2.130   5.936   6.266  0.1609 -0.2922 -0.6610
  553SOL     OW 1983   0.723   6.411   1.076  0.2365  0.0619  0.3661
  553SOL    HW2 1984   0.694   6.496   1.109 -0.1804  0.5599 -1.1903
  553SOL    HW3 1985   0.692   6.408   0.985 -1.0789 -2.3660  0.7907
  553SOL    MW4 1986   0.715   6.422   1.068  0.0080 -0.1927  0.2168
  554SOL     OW 1987   3.215   4.133   2.755 -0.0904  0.7370  0.3558
  554SOL    HW2 1988   3.168   4.051   2.738 -0.9099  0.6999  2.4958
  554SOL    HW3 1989   3.189   4.190   2.683 -1.0166 -0.2843 -0.1554
  554SOL    MW4 1990   3.205   4.130   2.743 -0.3207  0.5974  0.5707
  555SOL     OW 1991   4.461   2.232   1.822 -0.0014 -0.6080 -0.1905
  555SOL    HW2 1992   4.479   2.236   1.916  0.6431  0.1734 -0.3375
  555SOL    HW3 1993   4.542   2.198   1.784 -0.6827 -2.1230 -0.3561
  555SOL    MW4 1994   4.474   2.228   1.830 -0.0062 -0.7048 -0.2317
  556SOL     OW 1995   5.156   0.101   5.076 -0.3590 -0.0007  0.0420
  556SOL    HW2 1996   5.075   0.061   5.045 -0.8446  1.3904 -0.5483
  556SOL    HW3 1997   5.197   0.138   4.998  0.5812 -0.1835  0.4229
  556SOL    MW4 1998   5.151   0.100   5.062 -0.2990  0.1587  0.0143
  557SOL     OW 1999   1.433   0.628   1.781  0.7552 -0.3230  0.5072
  557SOL    HW2 2000   1.436   0.554   1.721  0.7740 -0.3091  0.4912
  557SOL    HW3 2001   1.358   0.680   1.751 -0.1769 -1.0937  1.4064
  557SOL    MW4 2002   1.423   0.625   1.769  0.6347 -0.4228  0.6237
  558SOL     OW 2003   2.526   2.421   6.422 -0.4913  0.0836 -0.6052
  558SOL    HW2 2004   2.581   2.496   6.399 -1.8204  0.4261 -2.9482
  558SOL    HW3 2005   2.463   2.456   6.485  0.0970  0.4240 -0.1900
  558SOL    MW4 2006   2.525   2.436   6.427 -0.5890  0.1737 -0.8595
  559SOL     OW 2007   4.108   1.742   3.727 -0.1304  0.5003 -0.6792
  559SOL    HW2 2008   4.151   1.696   3.654 -1.0358 -0.9175 -0.3564
  559SOL    HW3 2009   4.081   1.826   3.690  0.4117  0.2518 -1.6653
  559SOL    MW4 2010   4.110   1.747   3.712 -0.1784  0.2804 -0.7667
  560SOL     OW 2011   2.636   1.283   5.686 -0.5168  0.5783  0.1772
  560SOL    HW2 2012   2.721   1.257   5.722  0.1922  0.1872 -1.6708
  560SOL    HW3 2013   2.587   1.316   5.762  1.6471  1.8188  1.1501
  560SOL    MW4 2014   2.641   1.284   5.701 -0.1378  0.6903  0.0617
  561SOL     OW 2015   0.037   5.041   3.394  0.1075 -0.2642 -0.0559
  561SOL    HW2 2016  -0.044   5.007   3.433 -0.0616  0.2532  0.0552
  561SOL    HW3 2017   0.063   5.112   3.452 -0.2675  0.6691 -1.0101
  561SOL    MW4 2018   0.029   5.046   3.407  0.0357 -0.0728 -0.1672
  562SOL     OW 2019   6.241   6.227   2.381  0.5877 -0.4173 -1.2786
  562SOL    HW2 2020   6.271   6.139   2.403  0.0537 -0.4298 -0.5676
  562SOL    HW3 2021   6.153   6.214   2.346  1.0288 -0.2933 -2.4661
  562SOL    MW4 2022   6.233   6.214   2.379  0.5754 -0.4026 -1.3415
  563SOL     OW 2023   5.390   2.442   2.915 -0.2990  0.0762  0.2310
  563SOL    HW2 2024   5.373   2.359   2.959 -1.3902 -0.6157 -1.3648
  563SOL    HW3 2025   5.336   2.438   2.835  1.0307  1.5286 -0.8102
  563SOL    MW4 2026   5.381   2.431   2.910 -0.2675  0.1765 -0.1169
  564SOL     OW 2027   5.484   1.786   4.192  0.8872  0.0914  0.7553
  564SOL    HW2 2028   5.436   1.704   4.205 -0.1327  0.5976  0.3314
  564SOL    HW3 2029   5.484   1.799   4.097  1.6135  0.2587  0.7687
  564SOL    MW4 2030   5.478   1.777   4.181  0.8485  0.1803  0.7011
  565SOL     OW 2031   1.945   1.696   3.172  0.2464 -0.3404  0.2806
  565SOL    HW2 2032   1.904   1.712   3.257 -2.3330 -2.5773 -0.4139
  565SOL    HW3 2033   1.893   1.746   3.110  3.3349  2.9696  0.0225
  565SOL    MW4 2034   1.933   1.705   3.175  0.3136 -0.1988  0.1549
  566SOL     OW 2035   3.181   3.891   2.292 -0.0896 -0.3238 -0.2421
  566SOL    HW2 2036   3.256   3.949   2.279  0.7489 -1.2150  0.4498
  566SOL    HW3 2037   3.210   3.828   2.358 -1.2156 -1.1135 -0.4557
  566SOL    MW4 2038   3.194   3.890   2.299 -0.1276 -0.5455 -0.1790
  567SOL     OW 2039   6.440   3.817   5.127  0.2773 -0.0692  0.1278
  567SOL    HW2 2040   6.505   3.882   5.098 -1.6429  0.4158 -3.8024
  567SOL    HW3 2041   6.474   3.734   5.094 -1.0272  0.2252 -2.2105
  567SOL    MW4 2042   6.453   3.815   5.119 -0.1482  0.0336 -0.6993
  568SOL     OW 2043   2.294   0.013   5.992  0.0406 -0.0718  0.8910
  568SOL    HW2 2044   2.210  -0.021   5.960 -1.2512  1.1091  2.7806
  568SOL    HW3 2045   2.304   0.096   5.946  0.0077 -0.0657  0.8938
  568SOL    MW4 2046   2.284   0.020   5.982 -0.1341  0.0848  1.1407
  569SOL     OW 2047   3.802   3.683   3.787  0.6381 -0.0854  0.0027
  569SOL    HW2 2048   3.750   3.615   3.829  0.1054  0.4773  0.2641
  569SOL    HW3 2049   3.867   3.709   3.852  0.7113 -0.2023 -0.0243
  569SOL    MW4 2050   3.804   3.678   3.801  0.5775 -0.0266  0.0336
  570SOL     OW 2051   3.494   0.058   5.891  0.1076 -0.1204  0.1796
  570SOL    HW2 2052   3.565   0.122   5.884  2.8896 -2.5929  3.0205
  570SOL    HW3 2053   3.475   0.033   5.800  1.6605  1.8386 -0.7529
  570SOL    MW4 2054   3.501   0.063   5.878  0.6795 -0.1882  0.4314
  571SOL     OW 2055   0.873   4.871   0.494 -0.3285 -0.5810  0.2319
  571SOL    HW2 2056   0.904   4.797   0.442 -0.5716 -1.4623  1.3055
  571SOL    HW3 2057   0.876   4.840   0.585 -1.7748  0.2292  0.5936
  571SOL    MW4 2058   0.878   4.857   0.499 -0.5514 -0.5904  0.4213
  572SOL     OW 2059   0.679   3.945   3.703 -0.4310 -0.4841 -0.4085
  572SOL    HW2 2060   0.713   3.921   3.616 -0.2251 -1.4345 -0.0686
  572SOL    HW3 2061   0.715   3.879   3.762  0.1701  0.6679  0.5591
  572SOL    MW4 2062   0.688   3.933   3.699 -0.3245 -0.4575 -0.2360
  573SOL     OW 2063   3.236   5.123   1.659 -0.1614 -0.4768  0.0627
  573SOL    HW2 2064   3.153   5.165   1.683  0.3155  0.1579  0.6550
  573SOL    HW3 2065   3.301   5.193   1.669  0.3694 -0.8217 -0.9158
  573SOL    MW4 2066   3.233   5.138   1.664 -0.0284 -0.4386  0.0117
  574SOL     OW 2067   1.325   0.679   3.879  0.1299  0.2051  0.1520
  574SOL    HW2 2068   1.371   0.731   3.946 -0.4238  0.8211  0.0633
  574SOL    HW3 2069   1.381   0.686   3.801  0.4986 -0.0598  0.3916
  574SOL    MW4 2070   1.339   0.687   3.877  0.1055  0.2514  0.1719
  575SOL     OW 2071   3.563   5.630   1.522 -0.4493  0.2560  0.6441
  575SOL    HW2 2072   3.641   5.651   1.573 -1.1603  0.2886  1.7443
  575SOL    HW3 2073   3.562   5.693   1.451 -0.1602  1.0832  1.3629
  575SOL    MW4 2074   3.573   5.641   1.519 -0.5050  0.3695  0.8841
  576SOL     OW 2075   3.081   4.078   5.773  0.1414 -0.4489 -0.3425
  576SOL    HW2 2076   2.994   4.081   5.810  0.9176  0.9560  1.4886
  576SOL    HW3 2077   3.093   4.163   5.730  0.5816 -0.6679 -0.6701
  576SOL    MW4 2078   3.071   4.089   5.772  0.3019 -0.2925 -0.1442
  577SOL     OW 2079   5.229   2.174   4.429  0.1071 -0.3342  0.6622
  577SOL    HW2 2080   5.274   2.112   4.371 -0.2393 -0.3233  0.3814
  577SOL    HW3 2081   5.300   2.227   4.467  0.2653  0.3341 -0.5289
  577SOL    MW4 2082   5.245   2.173   4.427  0.0822 -0.2446  0.4680
  578SOL     OW 2083   2.766   1.879   4.192  0.0771  0.2048 -0.1425
  578SOL    HW2 2084   2.804   1.849   4.109 -0.3817 -1.1558  0.1217
  578SOL    HW3 2085   2.681   1.916   4.167  0.8909  1.9418 -0.5427
  578SOL    MW4 2086   2.759   1.880   4.178  0.1239  0.2545 -0.1604
  579SOL     OW 2087   4.044   0.135   1.679  0.4569  0.3055 -0.4193
  579SOL    HW2 2088   4.024   0.228   1.690  1.4416  0.5414 -0.6103
  579SOL    HW3 2089   4.044   0.122   1.584  0.8428  0.2259 -0.4085
  579SOL    MW4 2090   4.041   0.145   1.668  0.6377  0.3261 -0.4431
  580SOL     OW 2091   4.115   1.298   1.661  0.0650 -0.2824  0.4163
  580SOL    HW2 2092   4.050   1.347   1.611  0.5045 -0.4350 -0.3374
  580SOL    HW3 2093   4.191   1.356   1.665  0.5921 -0.8622 -0.4899
  580SOL    MW4 2094   4.116   1.312   1.655  0.1926 -0.3790  0.1973
  581SOL     OW 2095   5.272   0.656   0.737 -0.5036 -0.8522 -0.2941
  581SOL    HW2 2096   5.194   0.651   0.793 -0.6402 -2.1483 -0.5694
  581SOL    HW3 2097   5.341   0.688   0.796 -1.0842 -0.3346  0.1208
  581SOL    MW4 2098   5.271   0.660   0.752 -0.5982 -0.9549 -0.2757
  582SOL     OW 2099   5.356   0.893   5.932  0.0902 -0.5304 -0.1775
  582SOL    HW2 2100   5.402   0.835   5.872 -0.0312 -1.7862  0.9049
  582SOL    HW3 2101   5.274   0.849   5.952  0.1804 -0.2039  0.9979
  582SOL    MW4 2102   5.351   0.880   5.927  0.0861 -0.6530  0.1204
  583SOL     OW 2103   3.012   5.707   2.708 -0.1128 -0.1586  0.0454
  583SOL    HW2 2104   2.927   5.666   2.692  0.1993 -0.3364 -1.3613
  583SOL    HW3 2105   2.994   5.778   2.769 -1.7020  1.2403 -1.8904
  583SOL    MW4 2106   2.998   5.711   2.714 -0.2813  0.0025 -0.3956
  584SOL     OW 2107   2.886   3.616   1.257 -0.3058  0.4389 -0.0688
  584SOL    HW2 2108   2.902   3.672   1.333  1.0992 -1.3459  1.0527
  584SOL    HW3 2109   2.887   3.527   1.293  1.1102 -0.5082 -2.2691
  584SOL    MW4 2110   2.888   3.612   1.272  0.0664  0.0785 -0.2112
  585SOL     OW 2111   6.074   0.937   0.845 -0.2807 -0.3396 -0.3470
  585SOL    HW2 2112   6.094   0.858   0.795 -1.1168 -0.9949  0.3273
  585SOL    HW3 2113   5.996   0.914   0.896  0.9508  0.0265  1.8131
  585SOL    MW4 2114   6.066   0.923   0.845 -0.2285 -0.3777  0.0270
  586SOL     OW 2115   5.066   5.739   1.167 -0.1428  0.5432 -0.5677
  586SOL    HW2 2116   5.071   5.732   1.263  0.1953 -0.8509 -0.6710
  586SOL    HW3 2117   5.148   5.702   1.136 -1.1510 -0.9999 -1.4695
  586SOL    MW4 2118   5.077   5.734   1.176 -0.2312  0.1557 -0.7003
  587SOL     OW 2119   5.508   0.873   1.924 -0.1396  0.3563 -1.0576
  587SOL    HW2 2120   5.442   0.908   1.984  1.1680  1.1469 -0.0367
  587SOL    HW3 2121   5.515   0.781   1.948  0.7828  0.7808  0.4647
  587SOL    MW4 2122   5.500   0.866   1.935  0.1546  0.5166 -0.7220
  588SOL     OW 2123   3.813   6.274   1.408 -0.5885 -0.5072 -0.3265
  588SOL    HW2 2124   3.874   6.230   1.468 -0.5857  0.2550  0.2478
  588SOL    HW3 2125   3.868   6.301   1.334 -0.4296 -0.7219 -0.2887
  588SOL    MW4 2126   3.829   6.272   1.406 -0.5672 -0.4350 -0.2457
  589SOL     OW 2127   3.799   5.076   0.318  0.2689 -0.2239  0.5802
  589SOL    HW2 2128   3.886   5.088   0.282 -0.1699  0.1277 -0.3884
  589SOL    HW3 2129   3.764   4.999   0.273  0.0073 -0.2445  0.8128
  589SOL    MW4 2130   3.806   5.068   0.307  0.1765 -0.1802  0.4831
  590SOL     OW 2131   2.570   1.126   4.389 -0.3066  0.3251  0.1096
  590SOL    HW2 2132   2.558   1.034   4.411 -0.5902  0.1262 -0.8176
  590SOL    HW3 2133   2.660   1.131   4.357  0.4335  0.7961  2.1122
  590SOL    MW4 2134   2.580   1.115   4.387 -0.2464  0.3610  0.2515
  591SOL     OW 2135   4.500   2.280   2.093 -0.4381 -0.0845 -0.1353
  591SOL    HW2 2136   4.562   2.352   2.107 -0.4228 -0.4024  1.7499
  591SOL    HW3 2137   4.552   2.201   2.104 -0.2350 -0.5080 -3.1937
  591SOL    MW4 2138   4.515   2.279   2.096 -0.4092 -0.1823 -0.2901
  592SOL     OW 2139   5.744   5.862   4.229 -0.3663  0.1081  0.1172
  592SOL    HW2 2140   5.705   5.817   4.304  0.3595 -0.1404  0.3543
  592SOL    HW3 2141   5.673   5.866   4.165 -0.2588 -2.0991 -0.2220
  592SOL    MW4 2142   5.729   5.856   4.230 -0.2564 -0.2159  0.1037
  593SOL     OW 2143   1.084   2.008   2.125  0.1890 -0.3939 -0.0805
  593SOL    HW2 2144   1.123   2.088   2.161  3.1555 -1.0474 -1.5305
  593SOL    HW3 2145   1.033   2.039   2.050 -0.8984  0.3317  0.9110
  593SOL    MW4 2146   1.083   2.023   2.120  0.4369 -0.3844 -0.1410
  594SOL     OW 2147   6.298   0.093   4.769  0.1923 -0.1442 -0.0119
  594SOL    HW2 2148   6.243   0.032   4.818 -0.3693 -0.0126 -0.4711
  594SOL    HW3 2149   6.377   0.102   4.823  0.1083 -0.9471  0.2645
  594SOL    MW4 2150   6.301   0.086   4.783  0.1072 -0.2328 -0.0360
  595SOL     OW 2151   3.308   0.843   0.731  0.3531 -0.3554 -0.0007
  595SOL    HW2 2152   3.376   0.880   0.675  0.7718 -1.1144  0.0001
  595SOL    HW3 2153   3.296   0.754   0.700  1.1726 -1.0700  1.6040
  595SOL    MW4 2154   3.315   0.836   0.720  0.5165 -0.5498  0.2111
  596SOL     OW 2155   1.650   1.943   1.546 -0.0784  0.2572 -0.1826
  596SOL    HW2 2156   1.632   2.035   1.565 -1.7203 -0.2244  0.7585
  596SOL    HW3 2157   1.597   1.894   1.609  1.3843 -1.3437 -0.1233
  596SOL    MW4 2158   1.641   1.948   1.557 -0.1020 -0.0175 -0.0506
  597SOL     OW 2159   4.544   1.131   2.416 -0.5479 -0.4866 -0.0316
  597SOL    HW2 2160   4.542   1.114   2.322  0.0119  0.0635 -0.1496
  597SOL    HW3 2161   4.504   1.217   2.426  1.9492  0.7670 -0.1052
  597SOL    MW4 2162   4.538   1.140   2.405 -0.1446 -0.2486 -0.0569
  598SOL     OW 2163   3.860   3.013   0.630  0.0424 -0.2688  0.8007
  598SOL    HW2 2164   3.810   2.972   0.700  2.1520 -1.5673  1.6582
  598SOL    HW3 2165   3.873   2.943   0.566  0.0977  0.2570  0.2351
  598SOL    MW4 2166   3.855   2.998   0.631  0.3280 -0.3708  0.8392
  599SOL     OW 2167   0.765   5.398   5.448  0.3012  0.0760 -0.5077
  599SOL    HW2 2168   0.794   5.489   5.451  0.5405  0.0397 -1.4266
  599SOL    HW3 2169   0.671   5.404   5.430  0.3478  0.1425 -0.7333
  599SOL    MW4 2170   0.756   5.411   5.446  0.3389  0.0800 -0.6587
  600SOL     OW 2171   1.373   1.919   3.597  0.3151  0.8971  0.0837
  600SOL    HW2 2172   1.434   1.945   3.666  0.4964 -0.8235  0.6082
  600SOL    HW3 2173   1.426   1.864   3.539  0.2371  2.5117 -1.6046
  600SOL    MW4 2174   1.388   1.915   3.598  0.3287  0.8831 -0.0699
  601SOL     OW 2175   3.824   5.920   2.334  0.3720  0.5139 -0.0575
  601SOL    HW2 2176   3.916   5.944   2.335  0.0989  1.6178 -0.2160
  601SOL    HW3 2177   3.799   5.914   2.426  1.1546 -2.1369  0.0625
  601SOL    MW4 2178   3.833   5.922   2.346  0.4392  0.3098 -0.0626
  602SOL     OW 2179   3.880   0.232   0.575 -0.6019  0.5843  0.2021
  602SOL    HW2 2180   3.909   0.298   0.513  0.3901 -1.2841 -1.4493
  602SOL    HW3 2181   3.795   0.202   0.541  0.1783 -0.8013 -0.6312
  602SOL    MW4 2182   3.872   0.237   0.562 -0.3681  0.1550 -0.1257
  603SOL     OW 2183   3.891   3.389   1.453 -0.2708 -0.7566  0.4923
  603SOL    HW2 2184   3.825   3.353   1.513 -0.7239  0.3233  0.6712
  603SOL    HW3 2185   3.843   3.408   1.373 -0.1345 -0.1423  0.5537
  603SOL    MW4 2186   3.876   3.386   1.450 -0.3126 -0.5331  0.5240
  604SOL     OW 2187   2.842   4.714   1.929  0.0572 -0.2939  0.8145
  604SOL    HW2 2188   2.899   4.714   2.006 -0.4244  1.4887  1.2353
  604SOL    HW3 2189   2.753   4.710   1.965 -0.2006  1.1879  0.4352
  604SOL    MW4 2190   2.838   4.714   1.944 -0.0404  0.1368  0.8200
  605SOL     OW 2191   5.742   3.896   5.035  0.0466  0.3668  0.2580
  605SOL    HW2 2192   5.745   3.869   5.126  1.4221  1.1221  0.4712
  605SOL    HW3 2193   5.786   3.824   4.988 -0.5659  0.0282  0.1953
  605SOL    MW4 2194   5.749   3.883   5.041  0.1472  0.4218  0.2778
  606SOL     OW 2195   5.617   4.175   3.961 -0.2116 -0.2745 -0.1563
  606SOL    HW2 2196   5.552   4.141   3.900 -1.1183  3.1107 -1.2900
  606SOL    HW3 2197   5.609   4.118   4.038  0.4422 -4.2348 -2.7103
  606SOL    MW4 2198   5.607   4.163   3.963 -0.2450 -0.3504 -0.6429
  607SOL     OW 2199   0.435   3.867   5.580 -0.0890 -0.0569  0.1777
  607SOL    HW2 2200   0.380   3.793   5.553 -0.6326  0.1340  0.7215
  607SOL    HW3 2201   0.378   3.918   5.638  0.3789  0.6274  0.0368
  607SOL    MW4 2202   0.420   3.864   5.584 -0.0990  0.0586  0.2308
  608SOL     OW 2203   6.162   4.775   0.560  0.3163 -0.2062  0.1259
  608SOL    HW2 2204   6.231   4.793   0.496 -0.4482 -0.1866 -0.6984
  608SOL    HW3 2205   6.083   4.761   0.508 -0.3243 -0.1704  1.0654
  608SOL    MW4 2206   6.161   4.776   0.545  0.1309 -0.1989  0.1411
  609SOL     OW 2207   6.279   2.648   4.154 -0.2824 -0.4656  0.2921
  609SOL    HW2 2208   6.217   2.654   4.081 -1.4304 -1.6576  1.1185
  609SOL    HW3 2209   6.266   2.560   4.189  0.3056  0.0542  1.8986
  609SOL    MW4 2210   6.269   2.637   4.149 -0.3563 -0.5543  0.6131
  610SOL     OW 2211   0.441   5.604   5.222  0.1234  0.6628 -0.3689
  610SOL    HW2 2212   0.450   5.695   5.196 -0.8847  0.4619 -1.5008
  610SOL    HW3 2213   0.392   5.563   5.151 -0.6499 -0.4614  0.7594
  610SOL    MW4 2214   0.436   5.610   5.209 -0.1116  0.4880 -0.3694
  611SOL     OW 2215   2.402   2.750   6.223  0.4740 -0.3367  0.6091
  611SOL    HW2 2216   2.392   2.837   6.185 -0.0016 -0.2801  0.8591
  611SOL    HW3 2217   2.447   2.699   6.156 -1.4603 -0.5904 -0.5636
  611SOL    MW4 2218   2.407   2.755   6.209  0.1560 -0.3627  0.4873
  612SOL     OW 2219   2.897   5.202   2.748 -0.0389  0.3835  0.4995
  612SOL    HW2 2220   2.952   5.276   2.724 -0.0238  0.2102 -0.0287
  612SOL    HW3 2221   2.808   5.237   2.749  0.0503  0.6019  1.0945
  612SOL    MW4 2222   2.892   5.216   2.745 -0.0251  0.3895  0.5083
  613SOL     OW 2223   3.558   5.718   5.446 -0.0589  0.4019  0.2006
  613SOL    HW2 2224   3.588   5.698   5.358 -1.2499  1.4798 -0.4792
  613SOL    HW3 2225   3.562   5.634   5.492 -0.4413 -0.3956 -1.1760
  613SOL    MW4 2226   3.563   5.704   5.441 -0.2665  0.4389 -0.0707
  614SOL     OW 2227   3.421   4.660   3.247 -0.1818 -0.4764  0.0640
  614SOL    HW2 2228   3.416   4.636   3.154 -0.5219  0.9362 -0.3084
  614SOL    HW3 2229   3.347   4.615   3.287  1.0232 -2.6041  0.0410
  614SOL    MW4 2230   3.410   4.651   3.240 -0.0676 -0.5708  0.0118
  615SOL     OW 2231   1.240   3.284   3.045 -0.5803  0.0942  0.2244
  615SOL    HW2 2232   1.169   3.281   2.981 -1.5700  0.7814  1.2652
  615SOL    HW3 2233   1.319   3.291   2.992 -1.3007 -0.3450 -0.9458
  615SOL    MW4 2234   1.241   3.284   3.030 -0.8059  0.1269  0.2073
  616SOL     OW 2235   2.289   0.879   0.560  0.5963  0.0878  0.0429
  616SOL    HW2 2236   2.345   0.806   0.534  0.7846  0.2867 -0.1106
  616SOL    HW3 2237   2.272   0.865   0.653 -0.3188 -0.7931 -0.2326
  616SOL    MW4 2238   2.294   0.867   0.568  0.5004 -0.0022 -0.0137
  617SOL     OW 2239   3.312   4.203   4.741  0.3231  0.2203 -0.1961
  617SOL    HW2 2240   3.393   4.160   4.716  0.4205 -0.0751  0.6061
  617SOL    HW3 2241   3.249   4.176   4.674  0.5058 -0.7790  0.0275
  617SOL    MW4 2242   3.314   4.194   4.728  0.3600  0.0495 -0.0608
  618SOL     OW 2243   4.480   0.729   3.246 -0.0639  0.2158  0.3097
  618SOL    HW2 2244   4.460   0.821   3.225  1.3479 -0.0232 -2.4545
  618SOL    HW3 2245   4.556   0.735   3.304  0.1222  0.8084  0.0211
  618SOL    MW4 2246   4.487   0.742   3.251  0.1470  0.2625 -0.0931
  619SOL     OW 2247   5.886   3.153   2.481  0.2210 -0.1548 -0.7683
  619SOL    HW2 2248   5.972   3.112   2.496  1.0999  0.4195 -3.6073
  619SOL    HW3 2249   5.859   3.184   2.567  2.5012 -1.0303  0.3599
  619SOL    MW4 2250   5.894   3.151   2.494  0.6378 -0.1946 -0.9940
  620SOL     OW 2251   4.273   2.069   2.662 -0.2570  0.0433  0.4409
  620SOL    HW2 2252   4.254   2.134   2.731  0.2444  0.7212 -0.0403
  620SOL    HW3 2253   4.366   2.050   2.672 -0.3270 -0.3467  0.3591
  620SOL    MW4 2254   4.282   2.075   2.673 -0.2001  0.0813  0.3666
  621SOL     OW 2255   4.004   6.317   5.923 -0.3959 -0.4289  0.1426
  621SOL    HW2 2256   3.931   6.338   5.865  2.0266 -0.6478 -3.3316
  621SOL    HW3 2257   4.024   6.225   5.904  2.0495  0.1940 -0.7801
  621SOL    MW4 2258   3.997   6.308   5.913  0.2464 -0.3756 -0.4375
  622SOL     OW 2259   2.739   1.480   0.644  0.5040 -0.1796  0.2060
  622SOL    HW2 2260   2.705   1.545   0.706 -0.9785 -1.2144  0.5208
  622SOL    HW3 2261   2.828   1.461   0.676  1.1532  1.9521 -0.1402
  622SOL    MW4 2262   2.746   1.486   0.657  0.3941 -0.0349  0.2018
  623SOL     OW 2263   1.472   0.093   4.679  0.3075  0.5057  1.0730
  623SOL    HW2 2264   1.513   0.047   4.606 -0.5935  0.4736  0.5736
  623SOL    HW3 2265   1.540   0.096   4.747  0.4374 -1.4264  1.0732
  623SOL    MW4 2266   1.487   0.088   4.678  0.2058  0.2465  1.0072
  624SOL     OW 2267   2.268   2.841   2.728  0.4050 -0.4351  0.3364
  624SOL    HW2 2268   2.224   2.852   2.644 -0.2184 -2.1387  0.3933
  624SOL    HW3 2269   2.348   2.893   2.721  1.0724 -1.6268 -1.8666
  624SOL    MW4 2270   2.273   2.849   2.716  0.4108 -0.8171  0.0532
  625SOL     OW 2271   2.389   5.554   2.933 -0.3730  0.3802  0.1388
  625SOL    HW2 2272   2.449   5.485   2.962 -0.4341  0.8493  1.4565
  625SOL    HW3 2273   2.314   5.546   2.992 -2.4167 -1.2054 -2.3996
  625SOL    MW4 2274   2.387   5.544   2.945 -0.6507  0.2329 -0.0222
  626SOL     OW 2275   0.903   1.162   5.977  0.7118  0.4742 -0.0989
  626SOL    HW2 2276   0.945   1.243   5.948  0.8372  1.1324  1.8347
  626SOL    HW3 2277   0.976   1.105   6.004  0.7039 -0.7220 -2.3385
  626SOL    MW4 2278   0.919   1.165   5.976  0.7273  0.4033 -0.1392
  627SOL     OW 2279   5.628   1.670   0.502  0.1005  0.3861  0.5955
  627SOL    HW2 2280   5.533   1.672   0.487  0.0753  0.0978  0.7005
  627SOL    HW3 2281   5.656   1.586   0.465  0.2979  0.4257  0.6546
  627SOL    MW4 2282   5.619   1.659   0.495  0.1232  0.3533  0.6172
  628SOL     OW 2283   0.777   4.074   5.591  0.2524 -0.3239 -0.6884
  628SOL    HW2 2284   0.721   4.067   5.668  0.7672  0.2632 -0.2510
  628SOL    HW3 2285   0.833   4.149   5.609 -0.1014  0.2695 -1.9496
  628SOL    MW4 2286   0.777   4.083   5.603  0.2736 -0.1681 -0.7971
  629SOL     OW 2287   0.107   3.214   5.837 -0.1457 -0.7668 -0.1955
  629SOL    HW2 2288   0.101   3.188   5.745 -0.7940 -0.1999 -0.3208
  629SOL    HW3 2289   0.163   3.292   5.836 -1.4622  0.2120 -0.3284
  629SOL    MW4 2290   0.114   3.221   5.824 -0.4049 -0.5628 -0.2296
  630SOL     OW 2291   3.214   1.109   3.319  0.0429 -0.2442  0.0036
  630SOL    HW2 2292   3.180   1.085   3.405  1.0684 -0.1931  0.4373
  630SOL    HW3 2293   3.137   1.107   3.262 -0.5666 -0.7881  0.8078
  630SOL    MW4 2294   3.199   1.105   3.323  0.0978 -0.3092  0.1669
  631SOL     OW 2295   3.950   5.508   5.301 -0.0149  0.2761 -0.4951
  631SOL    HW2 2296   4.020   5.446   5.320 -0.6453 -0.0328  0.9171
  631SOL    HW3 2297   3.872   5.453   5.288 -0.6757  0.7606  1.2243
  631SOL    MW4 2298   3.949   5.492   5.302 -0.1852  0.2993 -0.0819
  632SOL     OW 2299   1.421   0.986   3.113 -0.9689  0.2562 -0.1085
  632SOL    HW2 2300   1.348   0.928   3.135 -1.5141  1.0276  0.1711
  632SOL    HW3 2301   1.390   1.035   3.036 -0.5591  0.2374 -0.2827
  632SOL    MW4 2302   1.407   0.985   3.106 -0.9868  0.3555 -0.0946
  633SOL     OW 2303   4.756   2.946   4.549 -0.4599 -0.0987  0.3353
  633SOL    HW2 2304   4.830   2.901   4.508 -1.2328  0.4180 -1.7925
  633SOL    HW3 2305   4.796   3.003   4.615  0.9041 -0.8264  0.1840
  633SOL    MW4 2306   4.771   2.947   4.552 -0.3819 -0.1265  0.0346
  634SOL     OW 2307   0.101   5.847   0.594 -0.0346 -0.5041  0.3509
  634SOL    HW2 2308   0.194   5.858   0.614  0.3506 -1.1998 -0.9435
  634SOL    HW3 2309   0.056   5.899   0.660  1.3786  2.1161 -0.6051
  634SOL    MW4 2310   0.107   5.855   0.605  0.2027 -0.2502  0.0540
  635SOL     OW 2311   6.130   2.607   0.680  0.2705 -0.4454 -0.3058
  635SOL    HW2 2312   6.113   2.698   0.704  1.2133 -0.1660 -0.6731
  635SOL    HW3 2313   6.155   2.564   0.762  1.6974  0.0800 -0.4468
  635SOL    MW4 2314   6.131   2.613   0.694  0.5831 -0.3392 -0.3729
  636SOL     OW 2315   1.497   5.857   0.308 -0.2176 -0.0987 -0.5559
  636SOL    HW2 2316   1.593   5.861   0.302 -0.2523 -0.7238 -1.7730
  636SOL    HW3 2317   1.474   5.932   0.363  0.9736  0.0032 -0.1582
  636SOL    MW4 2318   1.507   5.867   0.314 -0.0650 -0.1677 -0.6640
  637SOL     OW 2319   2.974   2.954   4.614 -0.2844  0.5371  0.0617
  637SOL    HW2 2320   2.902   2.891   4.614  0.2769 -0.1278  0.6406
  637SOL    HW3 2321   2.971   2.994   4.701  0.3352  0.1517  0.2684
  637SOL    MW4 2322   2.964   2.951   4.626 -0.1286  0.3985  0.1653
  638SOL     OW 2323   5.083   6.327   2.190  0.5400 -0.2862 -0.0179
  638SOL    HW2 2324   5.093   6.308   2.283  0.3289 -0.8800 -0.1113
  638SOL    HW3 2325   4.992   6.357   2.181  0.3808 -0.7967 -0.1231
  638SOL    MW4 2326   5.072   6.329   2.201  0.4911 -0.4319 -0.0441
  639SOL     OW 2327   2.728   1.471   3.563  0.0514  0.6950  0.0960
  639SOL    HW2 2328   2.677   1.471   3.644 -0.6015  2.1641 -0.2984
  639SOL    HW3 2329   2.786   1.395   3.572 -0.2199  0.6500  1.8046
  639SOL    MW4 2330   2.729   1.461   3.575 -0.0705  0.8829  0.2694
  640SOL     OW 2331   4.539   6.396   6.410  0.2956  0.2015  0.1670
  640SOL    HW2 2332   4.466   6.452   6.436 -0.2817 -1.5907  2.7761
  640SOL    HW3 2333   4.502   6.338   6.343  0.2251  1.2328 -0.7209
  640SOL    MW4 2334   4.525   6.396   6.405  0.2101  0.1011  0.3941
  641SOL     OW 2335   1.889   5.466   5.107  0.9325 -0.3412 -0.4802
  641SOL    HW2 2336   1.801   5.469   5.145  1.4540 -3.1529  1.2337
  641SOL    HW3 2337   1.916   5.375   5.115  5.4971  0.9319  2.7550
  641SOL    MW4 2338   1.881   5.455   5.113  1.6036 -0.5442  0.1728
  642SOL     OW 2339   4.890   3.743   2.339  0.8809 -0.4841  0.3222
  642SOL    HW2 2340   4.928   3.813   2.391 -0.3945  0.1670  0.4097
  642SOL    HW3 2341   4.864   3.677   2.402 -1.8237  0.8431  0.7486
  642SOL    MW4 2342   4.892   3.744   2.354  0.3558 -0.2231  0.3900
  643SOL     OW 2343   3.761   2.576   0.634 -0.1194  0.5497  0.1188
  643SOL    HW2 2344   3.800   2.651   0.678  0.0042  0.7135 -0.2632
  643SOL    HW3 2345   3.667   2.582   0.653  0.1035 -0.1823  1.5428
  643SOL    MW4 2346   3.753   2.587   0.642 -0.0737  0.4747  0.2563
  644SOL     OW 2347   5.152   0.222   2.840  0.2672  0.3131  0.6481
  644SOL    HW2 2348   5.237   0.248   2.877  0.7528  0.2464 -0.3835
  644SOL    HW3 2349   5.139   0.282   2.766 -0.2521 -0.1382  0.3689
  644SOL    MW4 2350   5.162   0.234   2.835  0.2627  0.2447  0.4751
  645SOL     OW 2351   2.034   3.205   4.571  0.0589 -1.1155 -0.0321
  645SOL    HW2 2352   1.988   3.276   4.525 -2.5346 -1.3761  1.9348
  645SOL    HW3 2353   2.122   3.240   4.587 -0.2987  0.5745 -1.4554
  645SOL    MW4 2354   2.040   3.219   4.567 -0.3305 -0.9269  0.0396
  646SOL     OW 2355   1.749   0.827   4.125  0.9568  0.1154 -0.2724
  646SOL    HW2 2356   1.803   0.772   4.068  0.0726  0.9224 -1.9384
  646SOL    HW3 2357   1.659   0.813   4.095  0.2425 -0.6298  1.9629
  646SOL    MW4 2358   1.744   0.818   4.114  0.7459  0.1235 -0.1972
  647SOL     OW 2359   5.360   0.117   6.284  0.5172 -0.0597 -0.4261
  647SOL    HW2 2360   5.423   0.186   6.304 -0.8574  0.9308  0.7451
  647SOL    HW3 2361   5.276   0.162   6.279 -0.3330 -1.5520 -0.2588
  647SOL    MW4 2362   5.357   0.132   6.286  0.2236 -0.1259 -0.2495
  648SOL     OW 2363   2.667   6.173   1.699 -0.7384 -0.7168 -0.3300
  648SOL    HW2 2364   2.619   6.115   1.639 -3.1588 -0.8201  1.5385
  648SOL    HW3 2365   2.692   6.117   1.772  0.6741 -0.2397 -0.4140
  648SOL    MW4 2366   2.664   6.158   1.701 -0.8714 -0.6675 -0.0946
  649SOL     OW 2367   5.870   2.438   5.118  0.3326 -0.1755  0.5296
  649SOL    HW2 2368   5.963   2.416   5.127 -0.2139 -2.6525  0.8500
  649SOL    HW3 2369   5.825   2.354   5.128 -2.0765  1.2106  2.0507
  649SOL    MW4 2370   5.876   2.424   5.120 -0.0574 -0.3194  0.7726
  650SOL     OW 2371   1.925   1.399   4.953  0.4672  0.4315  0.3305
  650SOL    HW2 2372   1.902   1.329   5.014  1.9591  0.7942  1.3359
  650SOL    HW3 2373   1.983   1.357   4.889 -2.2996 -0.3471 -1.8849
  650SOL    MW4 2374   1.929   1.384   4.952  0.2990  0.3766  0.1709
  651SOL     OW 2375   5.787   3.593   2.474  0.0714 -0.3554  0.0613
  651SOL    HW2 2376   5.796   3.687   2.488  1.2421 -0.7422  2.4569
  651SOL    HW3 2377   5.692   3.579   2.466 -0.1426  0.9652  0.0618
  651SOL    MW4 2378   5.776   3.604   2.475  0.1976 -0.2322  0.3775
  652SOL     OW 2379   3.802   4.327   5.772  0.8410  0.3000  0.1580
  652SOL    HW2 2380   3.791   4.269   5.847 -1.6814  0.0589 -0.2969
  652SOL    HW3 2381   3.780   4.273   5.696 -0.2188  1.4266 -0.3893
  652SOL    MW4 2382   3.797   4.312   5.771  0.3684  0.4168  0.0258
  653SOL     OW 2383   2.539   4.847   0.242 -0.3054  0.4981 -0.0935
  653SOL    HW2 2384   2.570   4.929   0.205 -0.8594  1.0157  0.5608
  653SOL    HW3 2385   2.444   4.856   0.246 -0.5512 -0.9489 -1.7862
  653SOL    MW4 2386   2.531   4.859   0.238 -0.4109  0.3755 -0.2305
  654SOL     OW 2387   3.754   2.155   0.295  0.0323  0.2093 -0.6125
  654SOL    HW2 2388   3.722   2.243   0.317  0.5201  0.4544 -0.8674
  654SOL    HW3 2389   3.711   2.097   0.358  0.1192  0.6958 -0.0984
  654SOL    MW4 2390   3.744   2.159   0.306  0.1081  0.3059 -0.5783
  655SOL     OW 2391   3.209   5.529   6.329 -0.0259  0.6727  0.1069
  655SOL    HW2 2392   3.137   5.484   6.374 -0.8033  0.2833 -1.4490
  655SOL    HW3 2393   3.209   5.617   6.367 -2.1421  1.0751 -0.6696
  655SOL    MW4 2394   3.200   5.535   6.340 -0.4077  0.6744 -0.2008
  656SOL     OW 2395   5.808   0.731   4.229  0.2762 -0.2279 -0.3736
  656SOL    HW2 2396   5.900   0.760   4.225  0.5883 -1.1954 -0.5413
  656SOL    HW3 2397   5.811   0.652   4.282 -0.4584 -0.2862 -0.4200
  656SOL    MW4 2398   5.821   0.725   4.235  0.2204 -0.3632 -0.4018
  657SOL     OW 2399   5.888   3.760   1.221 -0.0260  0.6724 -0.3998
  657SOL    HW2 2400   5.921   3.679   1.259  2.2482  1.2390 -0.9974
  657SOL    HW3 2401   5.819   3.732   1.160 -1.0832 -0.5353  1.2848
  657SOL    MW4 2402   5.883   3.746   1.218  0.1346  0.5878 -0.2564
  658SOL     OW 2403   0.469   5.542   2.587 -0.2637  0.1778 -0.2625
  658SOL    HW2 2404   0.427   5.458   2.569  0.3275 -0.4299  1.0067
  658SOL    HW3 2405   0.560   5.519   2.607  0.3944  1.3330 -1.7697
  658SOL    MW4 2406   0.476   5.527   2.587 -0.0989  0.2501 -0.2939
  659SOL     OW 2407   3.438   2.797   2.572 -0.1537  0.4089 -0.6763
  659SOL    HW2 2408   3.444   2.823   2.480  1.2515 -1.1544 -1.0947
  659SOL    HW3 2409   3.346   2.776   2.585 -0.1382 -0.7662 -2.1857
  659SOL    MW4 2410   3.427   2.797   2.562  0.0338  0.0476 -0.9306
  660SOL     OW 2411   3.804   2.130   3.300  0.1005  0.6321 -0.3402
  660SOL    HW2 2412   3.794   2.051   3.354 -1.7957  1.0210 -0.0523
  660SOL    HW3 2413   3.823   2.096   3.212 -2.9767 -0.3553 -0.7602
  660SOL    MW4 2414   3.805   2.115   3.296 -0.5557  0.5532 -0.3576
  661SOL     OW 2415   0.113   5.537   3.810 -0.1228 -0.0127  0.5504
  661SOL    HW2 2416   0.127   5.609   3.872  1.7233  0.4048 -0.2900
  661SOL    HW3 2417   0.165   5.465   3.845 -0.4852 -0.3394  0.4140
  661SOL    MW4 2418   0.122   5.537   3.822  0.0730 -0.0007  0.4215
  662SOL     OW 2419   6.168   3.433   4.253 -0.2154 -0.6032 -0.1408
  662SOL    HW2 2420   6.094   3.413   4.310 -0.0079 -1.0578 -0.0282
  662SOL    HW3 2421   6.245   3.432   4.310 -0.1940  0.5305 -0.1308
  662SOL    MW4 2422   6.169   3.430   4.268 -0.1852 -0.5136 -0.1247
  663SOL     OW 2423   3.012   1.231   2.709 -0.2183  0.4304  0.2795
  663SOL    HW2 2424   3.050   1.263   2.791 -0.0392 -1.6539  1.0671
  663SOL    HW3 2425   2.930   1.279   2.700  0.0322  1.1002  1.3666
  663SOL    MW4 2426   3.006   1.242   2.719 -0.1616  0.2438  0.5269
  664SOL     OW 2427   1.123   0.028   2.655  0.1405  0.0886  0.0043
  664SOL    HW2 2428   1.114   0.122   2.666  0.8909  0.4875 -2.2113
  664SOL    HW3 2429   1.143  -0.005   2.743  2.3213  2.3065  0.4685
  664SOL    MW4 2430   1.125   0.036   2.668  0.5272  0.4339 -0.2268
  665SOL     OW 2431   3.331   0.124   5.267 -0.2449 -0.2632  0.0451
  665SOL    HW2 2432   3.251   0.173   5.285 -0.4646 -1.0082  1.2155
  665SOL    HW3 2433   3.306   0.032   5.277  0.3021 -0.6055 -1.5189
  665SOL    MW4 2434   3.318   0.118   5.271 -0.2017 -0.4067 -0.0068
  666SOL     OW 2435   0.658   5.896   6.028  0.2497  0.1890  0.1751
  666SOL    HW2 2436   0.632   5.876   5.938  0.7362  0.5473 -0.0438
  666SOL    HW3 2437   0.647   5.813   6.074 -2.0836  0.4912  0.2893
  666SOL    MW4 2438   0.653   5.882   6.022  0.0060  0.2762  0.1613
  667SOL     OW 2439   5.880   5.006   3.526  0.0929 -0.5991  0.3287
  667SOL    HW2 2440   5.874   4.953   3.605 -0.5514 -0.5399  0.3270
  667SOL    HW3 2441   5.838   5.089   3.549 -0.3780 -0.6938 -0.1608
  667SOL    MW4 2442   5.873   5.010   3.539 -0.0543 -0.6038  0.2639
  668SOL     OW 2443   2.013   0.162   2.786 -0.5373 -0.1373  0.2581
  668SOL    HW2 2444   2.102   0.127   2.776  0.4941  2.5935 -1.3597
  668SOL    HW3 2445   2.022   0.229   2.854 -1.4691 -0.1785  0.4294
  668SOL    MW4 2446   2.026   0.167   2.794 -0.5241  0.2176  0.0673
  669SOL     OW 2447   2.264   6.322   5.140  0.3954 -0.2581 -0.3098
  669SOL    HW2 2448   2.240   6.229   5.137  1.1655 -0.4826  0.2481
  669SOL    HW3 2449   2.296   6.336   5.230  2.0718  0.0905 -0.9220
  669SOL    MW4 2450   2.265   6.312   5.152  0.7182 -0.2417 -0.3169
  670SOL     OW 2451   4.770   3.102   2.412  0.2016  0.3783 -0.1504
  670SOL    HW2 2452   4.810   3.015   2.405 -2.2349 -0.8101 -0.3135
  670SOL    HW3 2453   4.783   3.127   2.504 -1.0221 -1.2051  0.4925
  670SOL    MW4 2454   4.777   3.094   2.423 -0.2813  0.0126 -0.0871
  671SOL     OW 2455   0.436   1.501   0.312 -0.1978  0.1293  0.4498
  671SOL    HW2 2456   0.361   1.560   0.319  0.8161  1.6913 -0.9445
  671SOL    HW3 2457   0.512   1.556   0.329  0.9050 -0.3289 -2.3275
  671SOL    MW4 2458   0.437   1.516   0.315  0.0815  0.2749 -0.1006
  672SOL     OW 2459   5.862   4.730   4.773  0.3610 -0.8744  0.7399
  672SOL    HW2 2460   5.943   4.779   4.760  0.7856 -1.8236 -0.3757
  672SOL    HW3 2461   5.873   4.651   4.720 -1.4686 -0.8361  0.2174
  672SOL    MW4 2462   5.874   4.726   4.764  0.1757 -0.9946  0.5238
  673SOL     OW 2463   0.921   5.575   6.131 -0.3403 -0.2715 -0.2025
  673SOL    HW2 2464   0.885   5.580   6.042  1.8766  0.3298 -1.1345
  673SOL    HW3 2465   0.865   5.632   6.183 -0.1623  1.4413 -1.7935
  673SOL    MW4 2466   0.909   5.583   6.126 -0.0243  0.0338 -0.5353
  674SOL     OW 2467   1.213   0.960   5.000  0.5328 -1.0284  0.2033
  674SOL    HW2 2468   1.267   0.889   5.035  0.1335 -1.1645  0.5502
  674SOL    HW3 2469   1.196   1.017   5.076  0.1099 -1.0399  0.1181
  674SOL    MW4 2470   1.218   0.958   5.015  0.4243 -1.0479  0.2378
  675SOL     OW 2471   2.293   3.623   1.363 -0.4420  0.3080 -0.0621
  675SOL    HW2 2472   2.388   3.614   1.360 -0.1596  1.5232  2.3821
  675SOL    HW3 2473   2.275   3.707   1.321 -0.4718 -0.0553 -0.7788
  675SOL    MW4 2474   2.303   3.633   1.357 -0.4087  0.4204  0.1658
  676SOL     OW 2475   5.419   5.910   1.682 -0.1431  0.4140 -0.1622
  676SOL    HW2 2476   5.401   5.889   1.590  1.2916  1.0564 -0.6107
  676SOL    HW3 2477   5.464   5.833   1.716 -2.0427 -0.4832  0.4875
  676SOL    MW4 2478   5.423   5.897   1.674 -0.2044  0.3804 -0.1357
  677SOL     OW 2479   4.950   3.540   5.827  0.3622  0.3360 -0.4281
  677SOL    HW2 2480   4.904   3.557   5.910 -1.6743  0.5224 -1.5376
  677SOL    HW3 2481   4.885   3.498   5.771  1.2735  1.4189 -2.4064
  677SOL    MW4 2482   4.935   3.537   5.831  0.2137  0.5035 -0.8355
  678SOL     OW 2483   1.617   4.379   0.745  0.0145 -0.0349  0.0477
  678SOL    HW2 2484   1.699   4.334   0.765  1.0111  1.9055  0.5627
  678SOL    HW3 2485   1.579   4.399   0.831 -1.0959 -1.0442 -0.1850
  678SOL    MW4 2486   1.623   4.376   0.759 -0.0005  0.0879  0.0849
  679SOL     OW 2487   4.787   5.790   5.937  0.2329  0.0337 -0.0384
  679SOL    HW2 2488   4.851   5.844   5.982 -0.8145  0.4928  0.9474
  679SOL    HW3 2489   4.792   5.819   5.845  0.7368  0.7431  0.2000
  679SOL    MW4 2490   4.796   5.801   5.931  0.1612  0.1879  0.1231
  680SOL     OW 2491   5.544   3.480   3.831  0.1116 -0.7903  0.0991
  680SOL    HW2 2492   5.574   3.412   3.769  2.8223  1.1718 -0.9166
  680SOL    HW3 2493   5.449   3.467   3.835  0.3334 -3.7221 -1.1115
  680SOL    MW4 2494   5.535   3.469   3.823  0.4985 -0.9182 -0.1946
  681SOL     OW 2495   5.715   5.773   5.451 -0.2651  0.5345  0.1460
  681SOL    HW2 2496   5.697   5.803   5.540 -2.0828  1.2727 -0.4188
  681SOL    HW3 2497   5.635   5.727   5.425  0.4761 -0.1946 -0.8980
  681SOL    MW4 2498   5.702   5.771   5.459 -0.4071  0.5357 -0.0663
  682SOL     OW 2499   2.973   0.227   5.567 -0.0674 -0.2988 -0.1605
  682SOL    HW2 2500   3.026   0.180   5.632  0.9385  1.4996  0.3727
  682SOL    HW3 2501   2.899   0.168   5.550  0.8164 -1.8050  0.9043
  682SOL    MW4 2502   2.971   0.213   5.573  0.1819 -0.2603  0.0503
  683SOL     OW 2503   1.048   2.666   1.079  0.2392 -0.0282 -0.1786
  683SOL    HW2 2504   1.012   2.748   1.113  1.0209  0.4086 -0.3706
  683SOL    HW3 2505   1.109   2.637   1.147  0.5318 -0.0416 -0.4416
  683SOL    MW4 2506   1.051   2.673   1.092  0.3809  0.0277 -0.2386
  684SOL     OW 2507   5.339   1.274   5.142  0.1831  0.0148  0.0836
  684SOL    HW2 2508   5.380   1.360   5.134  0.7711 -0.2376  0.3645
  684SOL    HW3 2509   5.293   1.277   5.226 -0.0944  0.1781 -0.0732
  684SOL    MW4 2510   5.338   1.285   5.152  0.2241  0.0030  0.1000
  685SOL     OW 2511   0.900   4.916   5.680  0.5312 -0.2349 -0.2106
  685SOL    HW2 2512   0.904   4.822   5.698  0.3840 -0.3537 -0.7657
  685SOL    HW3 2513   0.864   4.921   5.591  1.0012  0.3336 -0.3692
  685SOL    MW4 2514   0.896   4.904   5.670  0.5738 -0.1756 -0.3048
  686SOL     OW 2515   0.409   5.285   2.488 -0.6366 -0.0675  0.1973
  686SOL    HW2 2516   0.473   5.219   2.514 -1.9302 -1.5869 -0.3026
  686SOL    HW3 2517   0.332   5.235   2.463 -1.2889  1.5852 -1.3197
  686SOL    MW4 2518   0.408   5.270   2.488 -0.8934 -0.0499 -0.0688
  687SOL     OW 2519   3.380   1.029   6.226 -0.1322  0.0504 -0.2606
  687SOL    HW2 2520   3.358   1.117   6.257 -1.0075 -0.3813  0.4099
  687SOL    HW3 2521   3.327   0.971   6.281  0.2579 -0.8836 -0.8496
  687SOL    MW4 2522   3.370   1.033   6.237 -0.1962 -0.1298 -0.2498
  688SOL     OW 2523   0.370   2.305   3.355  0.5988 -0.6746 -0.1903
  688SOL    HW2 2524   0.312   2.229   3.347 -0.1642 -0.2437  1.0325
  688SOL    HW3 2525   0.313   2.378   3.378  0.6552  1.3127 -5.1286
  688SOL    MW4 2526   0.355   2.304   3.357  0.5056 -0.3556 -0.6805
  689SOL     OW 2527   1.170   5.130   4.238 -0.1841  0.4283  0.0367
  689SOL    HW2 2528   1.206   5.056   4.286  1.0517  1.6427  1.0384
  689SOL    HW3 2529   1.139   5.092   4.156  0.7155 -1.1330  0.3825
  689SOL    MW4 2530   1.170   5.115   4.234  0.0976  0.3825  0.2145
  690SOL     OW 2531   3.998   2.548   2.471  0.0626 -0.2793  0.0056
  690SOL    HW2 2532   4.039   2.587   2.548 -0.4320 -0.0782  0.1711
  690SOL    HW3 2533   3.919   2.600   2.457  0.7882  0.5127 -1.3999
  690SOL    MW4 2534   3.993   2.560   2.479  0.0931 -0.1483 -0.1580
  691SOL     OW 2535   6.001   1.083   4.443  0.5364  0.5080 -0.0725
  691SOL    HW2 2536   6.087   1.054   4.415  0.6736  1.1892 -0.3864
  691SOL    HW3 2537   5.950   1.087   4.363  0.6065  1.3938 -0.0843
  691SOL    MW4 2538   6.005   1.080   4.429  0.5638  0.7147 -0.1155
  692SOL     OW 2539   2.707   5.626   1.383 -0.5022  0.1487 -0.2038
  692SOL    HW2 2540   2.646   5.688   1.342  1.1096  1.2411 -1.0601
  692SOL    HW3 2541   2.723   5.663   1.470 -2.1928 -0.9772  0.6494
  692SOL    MW4 2542   2.701   5.639   1.389 -0.5126  0.1443 -0.2042
  693SOL     OW 2543   3.968   4.503   2.357  0.3205 -0.0868  0.0449
  693SOL    HW2 2544   3.944   4.538   2.443  2.1162 -0.7647  0.8822
  693SOL    HW3 2545   4.011   4.576   2.313  1.5399 -0.3790  0.6949
  693SOL    MW4 2546   3.971   4.517   2.362  0.7183 -0.2148  0.2411
  694SOL     OW 2547   0.101   3.221   1.718  0.4009  0.5082 -0.2263
  694SOL    HW2 2548   0.127   3.240   1.808  2.8164  2.5133 -1.2083
  694SOL    HW3 2549   0.012   3.255   1.710  0.3391  0.7435  1.2611
  694SOL    MW4 2550   0.093   3.228   1.729  0.7114  0.8038 -0.1596
  695SOL     OW 2551   2.036   2.446   5.978  0.2600  0.1502 -0.1642
  695SOL    HW2 2552   2.028   2.356   6.012  2.6162  0.1157  0.4828
  695SOL    HW3 2553   2.098   2.488   6.037  0.2544  1.8043 -1.2806
  695SOL    MW4 2554   2.043   2.439   5.991  0.5702  0.3638 -0.2261
  696SOL     OW 2555   1.609   0.315   5.802 -0.1787 -0.1868 -0.1995
  696SOL    HW2 2556   1.645   0.401   5.779  0.6442 -1.2534 -3.3235
  696SOL    HW3 2557   1.621   0.309   5.897  0.9656  2.5918 -0.0866
  696SOL    MW4 2558   1.616   0.325   5.812  0.0808  0.0391 -0.5968
  697SOL     OW 2559   2.700   3.934   1.362 -0.1226  0.1873 -0.6593
  697SOL    HW2 2560   2.698   3.988   1.441 -1.1048 -0.0694 -0.4945
  697SOL    HW3 2561   2.785   3.954   1.322 -0.0932  1.1919 -0.1456
  697SOL    MW4 2562   2.711   3.944   1.367 -0.2483  0.2860 -0.5697
  698SOL     OW 2563   1.073   3.715   2.284  0.4380 -0.2406  1.0387
  698SOL    HW2 2564   1.047   3.785   2.225 -0.3215 -0.6266  0.9089
  698SOL    HW3 2565   1.083   3.638   2.228  0.5673 -0.4033  1.2813
  698SOL    MW4 2566   1.071   3.714   2.269  0.3549 -0.3130  1.0536
  699SOL     OW 2567   4.953   2.475   1.380 -0.7693 -0.5788  0.1002
  699SOL    HW2 2568   4.944   2.529   1.302 -1.1026 -1.4164 -0.4517
  699SOL    HW3 2569   4.874   2.421   1.381 -0.2023 -1.4129  0.3610
  699SOL    MW4 2570   4.941   2.475   1.370 -0.7385 -0.7993  0.0618
  700SOL     OW 2571   5.785   3.912   3.076 -0.0349  0.7940 -0.5255
  700SOL    HW2 2572   5.869   3.873   3.100 -0.0539  0.8947 -0.2841
  700SOL    HW3 2573   5.721   3.842   3.091 -0.1391  1.0740  0.4459
  700SOL    MW4 2574   5.788   3.897   3.081 -0.0512  0.8442 -0.3655
  701SOL     OW 2575   1.158   1.020   6.051 -0.6004  0.4434  0.2357
  701SOL    HW2 2576   1.139   0.972   6.132 -0.9522  1.8612  1.0127
  701SOL    HW3 2577   1.244   1.058   6.065 -0.3974  0.2037 -0.3156
  701SOL    MW4 2578   1.167   1.019   6.064 -0.6200  0.5988  0.2655
  702SOL     OW 2579   0.975   5.340   4.209 -0.7225 -0.1905 -0.3706
  702SOL    HW2 2580   0.948   5.306   4.124 -2.0773  0.1328 -0.0786
  702SOL    HW3 2581   1.050   5.284   4.233  0.8452  0.8147 -2.5305
  702SOL    MW4 2582   0.982   5.328   4.201 -0.6944 -0.0152 -0.6170
  703SOL     OW 2583   0.376   5.307   0.651 -0.1932  0.2025  0.2377
  703SOL    HW2 2584   0.285   5.292   0.679 -0.0846  0.3246  0.6550
  703SOL    HW3 2585   0.425   5.314   0.732  0.5664 -1.9857  0.0450
  703SOL    MW4 2586   0.370   5.306   0.665 -0.0786 -0.0701  0.2673
  704SOL     OW 2587   1.976   1.197   2.003 -0.6024 -0.0745 -0.1115
  704SOL    HW2 2588   1.959   1.172   1.912  0.7187 -0.4619 -0.2684
  704SOL    HW3 2589   1.951   1.120   2.054 -1.7176  0.2828 -0.0954
  704SOL    MW4 2590   1.971   1.184   1.997 -0.5752 -0.0785 -0.1301
  705SOL     OW 2591   1.795   5.517   1.863 -0.1938  0.3156 -0.2457
  705SOL    HW2 2592   1.889   5.497   1.860 -0.2948 -0.2813  0.2828
  705SOL    HW3 2593   1.784   5.567   1.944 -0.4453 -0.3177  0.1240
  705SOL    MW4 2594   1.806   5.521   1.873 -0.2403  0.1533 -0.1272
  706SOL     OW 2595   1.611   1.386   6.107  0.5003 -0.5357  0.2182
  706SOL    HW2 2596   1.635   1.344   6.190 -0.0799 -0.5581  0.3827
  706SOL    HW3 2597   1.689   1.434   6.081  0.6965 -0.5464  0.7683
  706SOL    MW4 2598   1.624   1.387   6.115  0.4496 -0.5401  0.3125
  707SOL     OW 2599   0.293   4.828   6.201 -0.0329  0.2059 -0.0513
  707SOL    HW2 2600   0.223   4.785   6.151  0.1033  1.3533 -1.2947
  707SOL    HW3 2601   0.312   4.767   6.272 -1.0094 -0.9914 -0.7623
  707SOL    MW4 2602   0.286   4.814   6.204 -0.1438  0.1993 -0.3092
  708SOL     OW 2603   2.568   2.618   1.561  0.0510  0.2584 -0.9182
  708SOL    HW2 2604   2.616   2.691   1.523  0.7362  0.0959 -0.3709
  708SOL    HW3 2605   2.568   2.551   1.492  0.1188  0.4669 -1.1210
  708SOL    MW4 2606   2.574   2.619   1.547  0.1504  0.2645 -0.8727
  709SOL     OW 2607   3.116   2.700   4.241 -0.3176 -0.2312 -0.5206
  709SOL    HW2 2608   3.023   2.694   4.219 -0.0639  0.3259 -1.8999
  709SOL    HW3 2609   3.126   2.786   4.283 -0.4148 -0.2560 -0.4479
  709SOL    MW4 2610   3.105   2.711   4.243 -0.2970 -0.1610 -0.6930
  710SOL     OW 2611   0.273   2.485   3.889 -0.2774  0.0733  0.0131
  710SOL    HW2 2612   0.286   2.411   3.949 -0.3259  1.0500  1.2882
  710SOL    HW3 2613   0.224   2.549   3.942  1.5271  1.8511 -0.3554
  710SOL    MW4 2614   0.268   2.483   3.904 -0.0457  0.4367  0.1327
  711SOL     OW 2615   4.714   5.348   0.211 -0.1883  0.0667 -0.3706
  711SOL    HW2 2616   4.752   5.292   0.144  0.8164  1.3007 -0.8514
  711SOL    HW3 2617   4.770   5.425   0.214 -1.3916  0.9550  0.4563
  711SOL    MW4 2618   4.726   5.351   0.203 -0.2145  0.3467 -0.3249
  712SOL     OW 2619   3.423   4.754   4.806  0.7292 -0.2034 -0.2638
  712SOL    HW2 2620   3.514   4.767   4.781  1.4912 -0.6884  1.9902
  712SOL    HW3 2621   3.381   4.718   4.728  1.7023  2.7628 -2.3466
  712SOL    MW4 2622   3.430   4.751   4.793  0.9581  0.1239 -0.2412
  713SOL     OW 2623   2.809   4.337   6.077 -0.0800  0.3053 -0.0010
  713SOL    HW2 2624   2.782   4.365   5.990  0.5716 -0.7209 -0.5571
  713SOL    HW3 2625   2.905   4.343   6.076  0.1124 -1.8592 -0.1766
  713SOL    MW4 2626   2.818   4.341   6.065  0.0313 -0.1157 -0.0975
  714SOL     OW 2627   4.687   2.738   1.426 -0.0076  0.6745  0.4343
  714SOL    HW2 2628   4.719   2.690   1.502  1.4746  0.6816 -0.1550
  714SOL    HW3 2629   4.669   2.826   1.459 -0.7136  0.3029  1.0639
  714SOL    MW4 2630   4.689   2.743   1.440  0.0948  0.6264  0.4396
  715SOL     OW 2631   4.112   1.002   1.064  0.3911  0.1171  0.0023
  715SOL    HW2 2632   4.165   1.010   0.984  1.7267  1.3062  0.9604
  715SOL    HW3 2633   4.039   1.062   1.050  0.8813  0.6891 -0.1415
  715SOL    MW4 2634   4.110   1.011   1.051  0.6320  0.3494  0.1097
  716SOL     OW 2635   5.315   2.244   5.909 -0.0383 -0.0130 -0.5904
  716SOL    HW2 2636   5.258   2.185   5.860  1.4653 -0.3129 -2.0649
  716SOL    HW3 2637   5.363   2.187   5.969 -2.5594  0.4558  2.1211
  716SOL    MW4 2638   5.314   2.229   5.910 -0.1725  0.0093 -0.4272
  717SOL     OW 2639   0.654   3.178   5.366  0.3357 -0.0421  0.2605
  717SOL    HW2 2640   0.595   3.167   5.291  0.3349  1.3589  0.0259
  717SOL    HW3 2641   0.739   3.146   5.334 -0.0675 -1.1721  0.2849
  717SOL    MW4 2642   0.657   3.172   5.352  0.2824 -0.0063  0.2327
  718SOL     OW 2643   2.887   1.342   3.114 -0.1095 -0.1731 -0.2592
  718SOL    HW2 2644   2.866   1.414   3.054  2.0419  0.5242 -0.2562
  718SOL    HW3 2645   2.930   1.385   3.188  1.2611 -1.4315 -0.2829
  718SOL    MW4 2646   2.890   1.357   3.116  0.3552 -0.2471 -0.2619
  719SOL     OW 2647   3.012   1.509   1.925 -0.1336  0.2917  0.3167
  719SOL    HW2 2648   3.104   1.502   1.898  0.1665  2.6178  0.5091
  719SOL    HW3 2649   2.964   1.465   1.855  1.0551  0.3303 -0.5657
  719SOL    MW4 2650   3.018   1.503   1.912  0.0628  0.6037  0.2257
  720SOL     OW 2651   4.115   2.960   0.726  0.4787  0.5110 -0.1524
  720SOL    HW2 2652   4.040   2.996   0.679  0.6282 -1.6354 -2.1535
  720SOL    HW3 2653   4.190   2.978   0.670  0.7906 -1.3667 -0.3781
  720SOL    MW4 2654   4.115   2.967   0.713  0.5396 -0.0199 -0.4462
  721SOL     OW 2655   3.025   3.951   4.604  0.6923 -0.0666  0.1029
  721SOL    HW2 2656   2.982   4.018   4.656  0.4827 -0.3113  0.2459
  721SOL    HW3 2657   2.955   3.892   4.578  0.9203 -0.3883  0.2169
  721SOL    MW4 2658   3.010   3.952   4.608  0.6948 -0.1413  0.1368
  722SOL     OW 2659   5.456   4.437   0.314  0.1345 -0.0895 -0.0191
  722SOL    HW2 2660   5.370   4.401   0.294  0.4849 -0.3413 -1.1433
  722SOL    HW3 2661   5.460   4.519   0.264  0.7926 -0.4069 -0.5078
  722SOL    MW4 2662   5.445   4.443   0.305  0.2676 -0.1646 -0.2319
  723SOL     OW 2663   0.952   2.538   3.033  0.0522 -0.5079  0.2617
  723SOL    HW2 2664   0.863   2.503   3.043 -0.1939 -0.5203 -1.5841
  723SOL    HW3 2665   0.946   2.629   3.061 -0.7156 -0.3167 -0.5077
  723SOL    MW4 2666   0.939   2.545   3.038 -0.0816 -0.4843 -0.0834
  724SOL     OW 2667   3.988   4.502   5.055 -0.0383 -0.0824  0.2810
  724SOL    HW2 2668   4.070   4.525   5.100  0.0332  2.5651 -1.0250
  724SOL    HW3 2669   3.920   4.550   5.104 -0.1866  1.3319 -1.2257
  724SOL    MW4 2670   3.990   4.512   5.068 -0.0484  0.4535 -0.0901
  725SOL     OW 2671   3.479   3.509   5.249  0.7769  0.1254  0.1156
  725SOL    HW2 2672   3.470   3.477   5.160 -1.1819  0.0106  0.3016
  725SOL    HW3 2673   3.403   3.474   5.295  3.2782 -2.3909  2.6933
  725SOL    MW4 2674   3.467   3.500   5.244  0.8485 -0.2217  0.4802
  726SOL     OW 2675   5.243   4.237   0.646 -0.0553  0.1758  0.5931
  726SOL    HW2 2676   5.223   4.269   0.558 -2.2623  1.0507  1.3175
  726SOL    HW3 2677   5.326   4.279   0.669 -0.2097  1.1477 -0.5299
  726SOL    MW4 2678   5.251   4.247   0.638 -0.3669  0.4194  0.5405
  727SOL     OW 2679   3.025   4.316   5.571 -0.1755 -0.0591  0.1303
  727SOL    HW2 2680   3.052   4.371   5.645 -1.8463  0.4024  0.4436
  727SOL    HW3 2681   3.013   4.378   5.499  1.1403 -0.4692 -0.4624
  727SOL    MW4 2682   3.027   4.332   5.571 -0.2223 -0.0524  0.0934
  728SOL     OW 2683   1.671   4.985   3.863 -0.2427 -0.3978  0.5127
  728SOL    HW2 2684   1.648   5.045   3.935  0.0950  0.8438 -0.3791
  728SOL    HW3 2685   1.701   4.906   3.907 -1.1580 -0.1028  1.7327
  728SOL    MW4 2686   1.672   4.983   3.878 -0.3189 -0.1951  0.5560
  729SOL     OW 2687   5.470   2.128   5.681  0.1938  0.2573  0.2524
  729SOL    HW2 2688   5.493   2.035   5.687  1.2073  0.3588 -1.3839
  729SOL    HW3 2689   5.422   2.146   5.762 -0.2723 -1.7541  0.4843
  729SOL    MW4 2690   5.466   2.118   5.692  0.2660  0.0053  0.0671
  730SOL     OW 2691   3.628   1.509   4.993  0.2739  0.0636 -0.0268
  730SOL    HW2 2692   3.653   1.494   4.902 -0.5037 -0.2497 -0.1959
  730SOL    HW3 2693   3.533   1.498   4.994  0.0822  1.4744  0.5366
  730SOL    MW4 2694   3.619   1.506   4.981  0.1460  0.2084  0.0252
  731SOL     OW 2695   2.755   0.398   1.497  0.2724  0.1418  0.7037
  731SOL    HW2 2696   2.780   0.469   1.556 -0.0478  0.9531 -0.1192
  731SOL    HW3 2697   2.789   0.425   1.411 -3.0543  1.1674 -0.4425
  731SOL    MW4 2698   2.763   0.411   1.493 -0.2088  0.3841  0.4439
  732SOL     OW 2699   2.215   5.394   3.784  0.3799  0.1439 -0.2858
  732SOL    HW2 2700   2.233   5.461   3.717  1.6586 -1.6327 -1.8239
  732SOL    HW3 2701   2.128   5.361   3.761 -0.8684  2.1138  1.3017
  732SOL    MW4 2702   2.206   5.399   3.772  0.3839  0.1694 -0.2793
  733SOL     OW 2703   0.570   0.311   3.743  0.3592 -0.7324 -0.1224
  733SOL    HW2 2704   0.527   0.333   3.660  2.2754 -1.2533 -1.2956
  733SOL    HW3 2705   0.515   0.243   3.782 -0.8503 -0.1013 -0.6736
  733SOL    MW4 2706   0.557   0.305   3.737  0.4525 -0.7179 -0.3499
  734SOL     OW 2707   6.086   1.270   4.661  0.2396  0.4556 -0.3974
  734SOL    HW2 2708   6.100   1.342   4.600 -0.1349  1.1367  0.3002
  734SOL    HW3 2709   6.101   1.191   4.609  2.0236  1.0355 -0.8453
  734SOL    MW4 2710   6.090   1.269   4.647  0.4256  0.6220 -0.3644
  735SOL     OW 2711   5.522   1.732   5.492  0.0163  0.5874  0.5396
  735SOL    HW2 2712   5.588   1.799   5.509  0.8654 -0.8840  3.7431
  735SOL    HW3 2713   5.550   1.692   5.410  0.7004  2.6857 -0.3180
  735SOL    MW4 2714   5.535   1.735   5.483  0.2186  0.6701  0.8491
  736SOL     OW 2715   0.443   3.329   0.120 -0.3625 -0.2495 -0.0651
  736SOL    HW2 2716   0.352   3.354   0.136 -0.5109  1.2615 -2.6500
  736SOL    HW3 2717   0.486   3.411   0.094  0.9850 -1.4150 -1.7489
  736SOL    MW4 2718   0.437   3.343   0.119 -0.2043 -0.2039 -0.6283
  737SOL     OW 2719   3.530   5.594   5.815 -0.2879  0.3774 -0.0481
  737SOL    HW2 2720   3.517   5.610   5.909 -0.8531  3.1967 -0.5019
  737SOL    HW3 2721   3.466   5.651   5.772 -0.8190 -1.6804 -2.1788
  737SOL    MW4 2722   3.520   5.604   5.822 -0.4325  0.4779 -0.3891
  738SOL     OW 2723   5.936   1.410   6.212 -0.4566 -0.3582  0.1132
  738SOL    HW2 2724   5.967   1.330   6.254 -0.7300 -0.7398 -0.3910
  738SOL    HW3 2725   5.904   1.465   6.284 -0.2445 -0.6919  0.4642
  738SOL    MW4 2726   5.936   1.407   6.227 -0.4647 -0.4526  0.0930
  739SOL     OW 2727   4.017   2.008   3.727  0.4353 -0.4965 -0.6231
  739SOL    HW2 2728   3.935   2.000   3.679  0.3709  0.5141 -0.7039
  739SOL    HW3 2729   3.994   2.055   3.806  0.7764 -1.0414 -0.1909
  739SOL    MW4 2730   4.003   2.013   3.731  0.4718 -0.4350 -0.5767
  740SOL     OW 2731   2.946   5.446   3.120  0.3634  0.3794  0.1189
  740SOL    HW2 2732   2.863   5.430   3.077  1.5687 -0.6372 -1.9643
  740SOL    HW3 2733   2.962   5.367   3.172  0.6365 -0.0243 -0.5632
  740SOL    MW4 2734   2.937   5.434   3.121  0.5585  0.1920 -0.2460
  741SOL     OW 2735   4.579   1.314   4.356 -0.3072 -0.0824  0.2434
  741SOL    HW2 2736   4.575   1.388   4.416  0.9740 -1.0599  1.6181
  741SOL    HW3 2737   4.514   1.333   4.289  0.4362  2.5774  0.1822
  741SOL    MW4 2738   4.570   1.326   4.356 -0.0400  0.1396  0.4167
  742SOL     OW 2739   0.490   5.508   2.270 -0.1923  0.9103  0.1765
  742SOL    HW2 2740   0.507   5.496   2.363 -2.5574  1.5078  0.7705
  742SOL    HW3 2741   0.576   5.526   2.231  0.9668 -0.2879  2.0594
  742SOL    MW4 2742   0.503   5.509   2.277 -0.3514  0.8310  0.5033
  743SOL     OW 2743   0.097   3.121   4.562 -0.4015  0.1266 -0.3328
  743SOL    HW2 2744   0.085   3.181   4.489  0.8333  0.8120  0.0069
  743SOL    HW3 2745   0.102   3.034   4.522 -1.5550  0.2952 -0.8818
  743SOL    MW4 2746   0.096   3.117   4.547 -0.3908  0.2393 -0.3604
  744SOL     OW 2747   5.686   0.995   3.223  0.5320  0.0086 -0.0386
  744SOL    HW2 2748   5.727   1.081   3.229  0.5211  0.0149 -0.0554
  744SOL    HW3 2749   5.748   0.936   3.265  0.6182 -0.0025 -0.1826
  744SOL    MW4 2750   5.700   0.998   3.229  0.5419  0.0080 -0.0598
  745SOL     OW 2751   2.013   0.682   4.807  0.4865  0.7055  0.0539
  745SOL    HW2 2752   2.040   0.741   4.877 -2.8391  0.0316  2.1114
  745SOL    HW3 2753   2.050   0.597   4.830  1.4245  0.9735 -0.4039
  745SOL    MW4 2754   2.021   0.678   4.819  0.1715  0.6519  0.2650
  746SOL     OW 2755   1.797   2.307   1.584 -0.1221 -0.0201  0.2913
  746SOL    HW2 2756   1.855   2.265   1.521 -1.1674 -0.2439 -0.5473
  746SOL    HW3 2757   1.854   2.331   1.657  0.5155 -3.2239  1.0223
  746SOL    MW4 2758   1.812   2.304   1.586 -0.1759 -0.4723  0.2771
  747SOL     OW 2759   2.838   5.668   6.192 -0.0391  0.0247  0.1793
  747SOL    HW2 2760   2.772   5.599   6.196 -1.3989  0.9481 -3.1673
  747SOL    HW3 2761   2.914   5.628   6.150 -1.2369  0.6810 -2.8401
  747SOL    MW4 2762   2.840   5.654   6.187 -0.3765  0.2331 -0.6606
  748SOL     OW 2763   2.578   2.850   0.048 -0.0501  0.3095  0.1555
  748SOL    HW2 2764   2.660   2.887   0.016  0.0634  2.5961  2.7033
  748SOL    HW3 2765   2.510   2.908   0.015 -0.3340  0.2026  0.5390
  748SOL    MW4 2766   2.580   2.862   0.040 -0.0726  0.5971  0.5422
  749SOL     OW 2767   6.312   6.159   4.404  0.5328 -0.1729  0.3218
  749SOL    HW2 2768   6.288   6.250   4.383 -0.5718 -0.2061  1.3566
  749SOL    HW3 2769   6.354   6.127   4.324 -1.7354  0.3251 -1.1814
  749SOL    MW4 2770   6.314   6.167   4.391  0.0878 -0.1115  0.2600
  750SOL     OW 2771   2.959   4.908   1.043 -0.7499  0.6374  0.0807
  750SOL    HW2 2772   3.047   4.920   1.009 -1.0533  1.0016 -0.5989
  750SOL    HW3 2773   2.945   4.984   1.100 -0.3153  0.1313  0.8727
  750SOL    MW4 2774   2.969   4.920   1.046 -0.7326  0.6187  0.0955
  751SOL     OW 2775   2.196   0.393   0.432  0.1707 -0.7686  0.4773
  751SOL    HW2 2776   2.286   0.399   0.464  0.2366  0.5461  0.0778
  751SOL    HW3 2777   2.205   0.374   0.339  0.1887  2.8530 -0.4082
  751SOL    MW4 2778   2.209   0.391   0.424  0.1818 -0.1173  0.3077
  752SOL     OW 2779   2.590   3.395   1.759  0.3058  0.5150 -0.0425
  752SOL    HW2 2780   2.616   3.486   1.747  1.6076  0.2823  0.7907
  752SOL    HW3 2781   2.522   3.398   1.826  0.8559  0.8277  0.5106
  752SOL    MW4 2782   2.585   3.407   1.766  0.5502  0.5256  0.1404
  753SOL     OW 2783   1.555   1.524   1.062 -0.5835 -0.2163 -0.0404
  753SOL    HW2 2784   1.481   1.466   1.082 -1.0477  0.2810 -0.2942
  753SOL    HW3 2785   1.521   1.612   1.076  0.3102 -0.0130  0.9680
  753SOL    MW4 2786   1.541   1.528   1.067 -0.5269 -0.1238  0.0591
  754SOL     OW 2787   1.848   3.770   5.150  0.5362 -0.3307 -0.7788
  754SOL    HW2 2788   1.909   3.841   5.172  0.1070  0.0296 -0.7331
  754SOL    HW3 2789   1.864   3.704   5.217 -1.6855  1.3096  1.5643
  754SOL    MW4 2790   1.858   3.771   5.162  0.1865 -0.0667 -0.4636
  755SOL     OW 2791   2.329   5.692   2.696 -0.1396  0.0936  0.4277
  755SOL    HW2 2792   2.355   5.642   2.773 -2.1719 -0.3622  0.8689
  755SOL    HW3 2793   2.342   5.784   2.723 -1.1250 -0.0446  1.4470
  755SOL    MW4 2794   2.334   5.698   2.710 -0.5377  0.0152  0.6204
  756SOL     OW 2795   0.832   0.480   3.395  0.5175  0.3975 -0.1420
  756SOL    HW2 2796   0.871   0.460   3.310  3.2534 -0.2080  1.1355
  756SOL    HW3 2797   0.766   0.411   3.408  0.9544 -0.2499 -1.2267
  756SOL    MW4 2798   0.828   0.468   3.385  0.9361  0.2322 -0.1166
  757SOL     OW 2799   2.232   1.416   2.435  0.6116 -0.0693  0.3165
  757SOL    HW2 2800   2.262   1.434   2.524 -0.4241  2.1263  0.2884
  757SOL    HW3 2801   2.216   1.503   2.398  0.9446 -0.9338 -2.0021
  757SOL    MW4 2802   2.234   1.430   2.442  0.5189  0.1063  0.0069
  758SOL     OW 2803   1.303   4.642   0.827  0.3084  0.3418 -0.1008
  758SOL    HW2 2804   1.284   4.675   0.739  2.1405  3.2215  0.4423
  758SOL    HW3 2805   1.226   4.667   0.879  0.6277  1.6904 -0.2336
  758SOL    MW4 2806   1.290   4.650   0.822  0.5922  0.8996 -0.0467
  759SOL     OW 2807   1.945   6.235   1.061  0.5138  0.4082 -0.2357
  759SOL    HW2 2808   1.928   6.148   1.026  0.5708  1.1409 -2.2405
  759SOL    HW3 2809   2.021   6.266   1.012 -0.7277  2.3450 -1.0965
  759SOL    MW4 2810   1.953   6.228   1.050  0.3575  0.7604 -0.6138
  760SOL     OW 2811   3.673   5.413   6.098  0.3485 -0.0239  0.3620
  760SOL    HW2 2812   3.764   5.440   6.090  1.3003 -1.3309  4.4869
  760SOL    HW3 2813   3.630   5.486   6.143 -0.3881  0.0635 -0.4431
  760SOL    MW4 2814   3.679   5.426   6.103  0.3769 -0.1848  0.8000
  761SOL     OW 2815   6.216   3.610   4.933  0.5620 -0.6194  0.3774
  761SOL    HW2 2816   6.280   3.565   4.878  0.1531 -1.0515  0.2492
  761SOL    HW3 2817   6.225   3.702   4.909  1.5009 -0.6102  0.7425
  761SOL    MW4 2818   6.226   3.616   4.922  0.6319 -0.6752  0.4087
  762SOL     OW 2819   5.482   0.939   1.651  0.1236 -0.1903 -0.3892
  762SOL    HW2 2820   5.505   0.904   1.737 -0.8197  0.0812 -0.0121
  762SOL    HW3 2821   5.527   0.882   1.589  0.6112 -0.5440  0.2797
  762SOL    MW4 2822   5.491   0.927   1.654  0.0635 -0.2012 -0.2512
  763SOL     OW 2823   0.660   4.735   0.793 -0.5826 -0.6655 -0.5184
  763SOL    HW2 2824   0.661   4.822   0.753  0.1024  0.1352  1.1444
  763SOL    HW3 2825   0.610   4.681   0.731 -2.5224  1.2860 -0.7817
  763SOL    MW4 2826   0.654   4.739   0.779 -0.7481 -0.3024 -0.3337
  764SOL     OW 2827   0.570   5.620   3.925  0.2233  0.4702 -0.1011
  764SOL    HW2 2828   0.561   5.578   3.839  1.2545 -0.6128  0.2915
  764SOL    HW3 2829   0.574   5.547   3.987 -1.9834  1.2556  1.0652
  764SOL    MW4 2830   0.569   5.605   3.921  0.0682  0.4310  0.1046
  765SOL     OW 2831   4.713   0.578   2.632  0.7149 -0.5589 -0.6761
  765SOL    HW2 2832   4.766   0.519   2.686  0.9166  1.1273  1.0991
  765SOL    HW3 2833   4.623   0.564   2.662  0.8036  0.2402  0.0023
  765SOL    MW4 2834   4.708   0.569   2.643  0.7532 -0.2310 -0.3524
  766SOL     OW 2835   3.137   1.947   4.648  0.1434  0.2696  0.1173
  766SOL    HW2 2836   3.115   1.915   4.735  0.1703  0.3918  0.1691
  766SOL    HW3 2837   3.209   2.009   4.662 -0.4962  1.0218  0.1169
  766SOL    MW4 2838   3.144   1.951   4.661  0.0625  0.3850  0.1241
  767SOL     OW 2839   0.565   3.605   2.745  0.9746 -1.3984  0.0215
  767SOL    HW2 2840   0.529   3.607   2.656  1.4205 -1.1179 -0.1569
  767SOL    HW3 2841   0.659   3.615   2.732  1.1937 -2.7621  0.4408
  767SOL    MW4 2842   0.573   3.607   2.731  1.0624 -1.5413  0.0533
  768SOL     OW 2843   4.142   1.545   2.066 -0.5270 -0.0527 -0.0421
  768SOL    HW2 2844   4.101   1.459   2.078 -0.8784  0.1083 -0.0668
  768SOL    HW3 2845   4.129   1.590   2.149  2.7976 -1.2796  1.3159
  768SOL    MW4 2846   4.135   1.540   2.078 -0.1347 -0.1933  0.1338
  769SOL     OW 2847   4.605   3.665   3.129 -0.0186 -0.1448 -0.3819
  769SOL    HW2 2848   4.668   3.681   3.199 -1.0069 -0.3307  0.5850
  769SOL    HW3 2849   4.613   3.741   3.071  0.1490  0.4804  0.4498
  769SOL    MW4 2850   4.614   3.677   3.131 -0.1269 -0.0869 -0.1446
  770SOL     OW 2851   5.931   6.058   6.382  0.6194 -0.5833 -0.1315
  770SOL    HW2 2852   5.938   6.087   6.473  1.0952 -1.1038  0.0019
  770SOL    HW3 2853   5.863   6.115   6.344  0.6202 -0.1715  0.4660
  770SOL    MW4 2854   5.923   6.070   6.389  0.6823 -0.5976 -0.0351
  771SOL     OW 2855   5.049   0.801   6.342  0.5242 -0.8602  0.3992
  771SOL    HW2 2856   5.016   0.871   6.286  1.0024 -2.1767 -1.6623
  771SOL    HW3 2857   5.104   0.845   6.407  0.3546  0.7015 -0.4727
  771SOL    MW4 2858   5.052   0.816   6.343  0.5649 -0.8278  0.0121
  772SOL     OW 2859   4.135   3.674   0.559  0.2007 -0.0400  0.1356
  772SOL    HW2 2860   4.086   3.607   0.606  0.9061 -0.2923  0.5284
  772SOL    HW3 2861   4.070   3.738   0.532 -0.1075  0.5794  2.2246
  772SOL    MW4 2862   4.120   3.674   0.561  0.2531  0.0084  0.4631
  773SOL     OW 2863   3.025   4.051   0.537  0.1162  0.1414 -0.2596
  773SOL    HW2 2864   3.013   3.960   0.564 -2.7860  0.3309 -0.5821
  773SOL    HW3 2865   3.032   4.047   0.441 -1.3560  0.3003 -0.3992
  773SOL    MW4 2866   3.024   4.039   0.528 -0.4609  0.1874 -0.3206
  774SOL     OW 2867   1.244   1.508   4.674  0.1836 -0.1255 -0.0456
  774SOL    HW2 2868   1.203   1.559   4.605 -1.4541 -0.5003  0.6025
  774SOL    HW3 2869   1.267   1.572   4.742  0.8413  0.1102 -0.4888
  774SOL    MW4 2870   1.242   1.523   4.674  0.0543 -0.1439 -0.0186
  775SOL     OW 2871   1.633   4.630   1.236  0.6885  0.3497 -0.2135
  775SOL    HW2 2872   1.616   4.575   1.312 -0.1115  0.1294 -0.5393
  775SOL    HW3 2873   1.688   4.576   1.179 -1.0211 -0.6192 -1.0540
  775SOL    MW4 2874   1.638   4.616   1.238  0.3574  0.1928 -0.3674
  776SOL     OW 2875   2.400   3.853   6.349  0.6914  0.2920 -0.7005
  776SOL    HW2 2876   2.358   3.781   6.302  1.2779 -0.4616 -0.1073
  776SOL    HW3 2877   2.402   3.824   6.440 -0.1651  1.5976 -0.2312
  776SOL    MW4 2878   2.395   3.840   6.355  0.6558  0.3648 -0.5603
  777SOL     OW 2879   3.235   6.184   4.475  0.9741  0.4562  0.2251
  777SOL    HW2 2880   3.243   6.193   4.570 -0.7875  2.4777  0.2385
  777SOL    HW3 2881   3.278   6.262   4.440 -0.0659  0.7128 -0.5307
  777SOL    MW4 2882   3.242   6.195   4.483  0.6045  0.7567  0.1271
  778SOL     OW 2883   2.488   5.034   2.816  0.3873 -0.1310  1.1708
  778SOL    HW2 2884   2.411   5.075   2.776  0.0942 -1.2090  0.6001
  778SOL    HW3 2885   2.498   5.079   2.900  0.2055  1.2473  0.4763
  778SOL    MW4 2886   2.479   5.045   2.822  0.3246 -0.0914  1.0039
  779SOL     OW 2887   5.978   0.396   0.417  0.2596  0.2709  1.2459
  779SOL    HW2 2888   5.911   0.447   0.462 -0.4699  0.4164  0.0113
  779SOL    HW3 2889   6.007   0.452   0.345  2.0917  0.4231  2.0270
  779SOL    MW4 2890   5.973   0.410   0.414  0.4051  0.3102  1.1861
  780SOL     OW 2891   3.540   0.115   0.728 -0.0919 -0.8481  0.2277
  780SOL    HW2 2892   3.528   0.210   0.736 -0.1441 -0.8540  0.2232
  780SOL    HW3 2893   3.491   0.079   0.803 -0.2334 -0.8818  0.1200
  780SOL    MW4 2894   3.532   0.123   0.739 -0.1175 -0.8533  0.2129
  781SOL     OW 2895   3.487   4.522   5.478 -0.4895  0.5725  0.2727
  781SOL    HW2 2896   3.508   4.442   5.429 -1.3290 -0.4383  1.4864
  781SOL    HW3 2897   3.509   4.593   5.418 -0.9153 -0.5896 -1.3524
  781SOL    MW4 2898   3.492   4.521   5.464 -0.6564  0.2858  0.2184
  782SOL     OW 2899   2.690   0.549   1.941 -0.2125 -0.3581  0.1705
  782SOL    HW2 2900   2.754   0.487   1.976 -1.4704 -0.7867  1.8588
  782SOL    HW3 2901   2.713   0.558   1.849  1.5815 -1.3293  0.4705
  782SOL    MW4 2902   2.702   0.542   1.934 -0.1418 -0.5428  0.4328
  783SOL     OW 2903   2.566   4.862   0.526 -0.1021 -0.0055 -0.4157
  783SOL    HW2 2904   2.590   4.848   0.434  0.5377 -0.6806 -0.1537
  783SOL    HW3 2905   2.516   4.784   0.550  0.5442 -0.2708  0.0802
  783SOL    MW4 2906   2.563   4.850   0.517  0.0676 -0.1296 -0.3157
  784SOL     OW 2907   1.413   4.890   1.191  0.6379  0.0301  0.0347
  784SOL    HW2 2908   1.371   4.816   1.236 -0.9688  0.7307 -0.2367
  784SOL    HW3 2909   1.474   4.849   1.130 -1.7897 -1.2621 -1.7088
  784SOL    MW4 2910   1.415   4.874   1.189  0.1056 -0.0480 -0.2311
  785SOL     OW 2911   2.927   6.045   1.659 -0.2987  0.3461 -0.3568
  785SOL    HW2 2912   2.985   6.051   1.583 -1.4608  1.3525 -1.1943
  785SOL    HW3 2913   2.858   6.109   1.642 -2.9219 -2.2934 -0.4825
  785SOL    MW4 2914   2.926   6.054   1.647 -0.7981  0.1307 -0.4839
  786SOL     OW 2915   4.510   2.885   2.776  0.4769 -0.0196  1.0005
  786SOL    HW2 2916   4.518   2.978   2.753 -0.4941  0.2763  1.7832
  786SOL    HW3 2917   4.468   2.886   2.862  1.4518 -1.1682  1.5092
  786SOL    MW4 2918   4.505   2.898   2.784  0.4774 -0.1321  1.1709
  787SOL     OW 2919   5.434   4.843   1.862  0.3111  0.1921  0.3063
  787SOL    HW2 2920   5.458   4.751   1.876 -0.8394 -0.4668 -1.6149
  787SOL    HW3 2921   5.338   4.843   1.866  0.3300  1.6089  1.6982
  787SOL    MW4 2922   5.425   4.830   1.865  0.1618  0.2921  0.2365
  788SOL     OW 2923   3.649   1.940   2.679 -0.2875 -0.2365 -0.2987
  788SOL    HW2 2924   3.608   2.021   2.707 -0.9847 -1.8464  4.0069
  788SOL    HW3 2925   3.580   1.894   2.631 -0.9422  0.3541  0.0548
  788SOL    MW4 2926   3.635   1.944   2.676 -0.4658 -0.3710  0.3160
  789SOL     OW 2927   2.467   5.105   5.676  0.2287  0.2595  0.5260
  789SOL    HW2 2928   2.520   5.176   5.640  1.7699 -1.0084  0.1616
  789SOL    HW3 2929   2.458   5.127   5.769  1.4514  0.5034  0.6077
  789SOL    MW4 2930   2.473   5.117   5.684  0.5934  0.1244  0.4887
  790SOL     OW 2931   3.659   1.182   0.801 -0.2705  0.1381  1.1285
  790SOL    HW2 2932   3.582   1.155   0.750 -0.2781 -0.3922  1.4146
  790SOL    HW3 2933   3.642   1.148   0.889  0.9159 -1.1941  0.8780
  790SOL    MW4 2934   3.647   1.174   0.806 -0.1149 -0.1077  1.1332
  791SOL     OW 2935   5.549   0.578   3.487 -0.6112  0.2347  0.0876
  791SOL    HW2 2936   5.503   0.651   3.529 -1.0196 -0.3063  0.6068
  791SOL    HW3 2937   5.620   0.556   3.547 -0.2834  0.4180 -0.2300
  791SOL    MW4 2938   5.552   0.585   3.500 -0.6218  0.1875  0.1142
  792SOL     OW 2939   0.391   4.757   4.820 -0.0133 -0.4626 -0.3833
  792SOL    HW2 2940   0.354   4.715   4.742 -0.8899 -2.3086  0.9419
  792SOL    HW3 2941   0.456   4.694   4.852  1.6249  1.0730 -0.5807
  792SOL    MW4 2942   0.395   4.743   4.814  0.0872 -0.5036 -0.2345
  793SOL     OW 2943   2.859   1.564   6.426 -0.4005  0.4285 -0.6528
  793SOL    HW2 2944   2.865   1.606   6.512 -2.0589  1.5548 -1.0336
  793SOL    HW3 2945   2.945   1.578   6.386  0.3737 -0.0631  0.7678
  793SOL    MW4 2946   2.871   1.571   6.432 -0.5171  0.5122 -0.5156
  794SOL     OW 2947   3.162   5.909   1.160 -0.2512 -0.0838  0.2194
  794SOL    HW2 2948   3.164   5.982   1.221 -1.5505 -0.0785  0.2987
  794SOL    HW3 2949   3.098   5.848   1.199 -2.1016  0.4898 -1.7077
  794SOL    MW4 2950   3.154   5.910   1.174 -0.6668 -0.0074 -0.0244
  795SOL     OW 2951   0.017   5.534   2.966  0.3646 -0.7800  0.1707
  795SOL    HW2 2952   0.076   5.601   3.002 -0.2035 -0.3068  0.2460
  795SOL    HW3 2953   0.071   5.486   2.904  0.4889  0.5019 -0.7649
  795SOL    MW4 2954   0.032   5.537   2.963  0.3060 -0.5484  0.0572
  796SOL     OW 2955   3.441   1.363   2.384  0.4448  0.6178 -0.2458
  796SOL    HW2 2956   3.375   1.338   2.450  1.2810 -0.2168  0.2998
  796SOL    HW3 2957   3.390   1.405   2.315 -0.9011 -1.4452 -0.6084
  796SOL    MW4 2958   3.425   1.366   2.384  0.3776  0.2355 -0.2216
  797SOL     OW 2959   5.130   1.912   3.537  0.2717  0.0883  0.0146
  797SOL    HW2 2960   5.095   1.844   3.594  1.3231 -0.4457  0.0449
  797SOL    HW3 2961   5.059   1.975   3.529 -0.2257 -0.3075  1.1258
  797SOL    MW4 2962   5.116   1.911   3.543  0.3448 -0.0344  0.1652
  798SOL     OW 2963   5.199   0.307   0.616  0.6594  0.3757 -0.4082
  798SOL    HW2 2964   5.264   0.286   0.549 -0.3101 -0.1996 -1.2083
  798SOL    HW3 2965   5.167   0.394   0.593  1.5443  0.9148  0.3334
  798SOL    MW4 2966   5.203   0.315   0.604  0.6483  0.3709 -0.4159
  799SOL     OW 2967   3.833   5.817   2.965 -0.0636 -0.1684 -0.7992
  799SOL    HW2 2968   3.830   5.731   3.007  0.1722 -0.4802 -1.4125
  799SOL    HW3 2969   3.800   5.803   2.877 -0.0968  0.3888 -0.8815
  799SOL    MW4 2970   3.829   5.804   2.959 -0.0369 -0.1360 -0.8910
  800SOL     OW 2971   4.734   0.402   0.019  0.0876 -0.0807 -1.1310
  800SOL    HW2 2972   4.655   0.367  -0.022 -0.4246 -0.7220  0.3588
  800SOL    HW3 2973   4.796   0.411  -0.053 -0.9813 -0.5714 -2.1491
  800SOL    MW4 2974   4.731   0.399   0.004 -0.1210 -0.2300 -1.0688
  801SOL     OW 2975   1.265   2.011   3.979 -0.1579 -0.3718 -1.1329
  801SOL    HW2 2976   1.224   2.072   3.918 -0.8211 -1.3096 -1.6459
  801SOL    HW3 2977   1.348   1.987   3.937 -0.8874 -1.4802 -1.9708
  801SOL    MW4 2978   1.271   2.016   3.966 -0.3416 -0.6418 -1.3111
  802SOL     OW 2979   0.388   1.494   4.432 -0.2451  0.3209 -0.1349
  802SOL    HW2 2980   0.462   1.553   4.440  0.7123 -0.9609  1.0057
  802SOL    HW3 2981   0.427   1.406   4.433 -1.6035 -0.3585 -1.8539
  802SOL    MW4 2982   0.403   1.490   4.433 -0.2980  0.0621 -0.2112
  803SOL     OW 2983   4.995   4.143   4.829  0.1303  0.0479  0.6122
  803SOL    HW2 2984   5.080   4.144   4.787 -0.2315  0.9725 -0.1292
  803SOL    HW3 2985   4.945   4.212   4.785 -0.5228  0.5103  2.0149
  803SOL    MW4 2986   4.999   4.152   4.818 -0.0036  0.2309  0.6994
  804SOL     OW 2987   5.810   5.667   1.877 -0.3061  0.6399  0.3109
  804SOL    HW2 2988   5.879   5.728   1.853  1.4799  0.1454  3.6351
  804SOL    HW3 2989   5.839   5.583   1.841 -0.7352  0.9379 -0.7925
  804SOL    MW4 2990   5.823   5.664   1.869 -0.1271  0.6140  0.6039
  805SOL     OW 2991   0.419   1.111   0.271 -0.1449  0.4856  0.2916
  805SOL    HW2 2992   0.387   1.021   0.262  1.5459 -0.1816  0.6630
  805SOL    HW3 2993   0.513   1.105   0.255 -0.2299  2.4675 -1.3113
  805SOL    MW4 2994   0.427   1.098   0.268  0.0670  0.6590  0.1291
  806SOL     OW 2995   2.194   4.906   3.253 -0.2080  0.0923  0.2599
  806SOL    HW2 2996   2.212   4.827   3.304  1.9682  1.2265  1.3783
  806SOL    HW3 2997   2.228   4.885   3.165 -3.2536 -1.5717 -0.6685
  806SOL    MW4 2998   2.201   4.892   3.248 -0.3227  0.0224  0.2850
  807SOL     OW 2999   3.222   3.511   4.413 -0.0070 -0.0140  0.4433
  807SOL    HW2 3000   3.176   3.504   4.329  0.6146  0.7030  0.0337
  807SOL    HW3 3001   3.270   3.594   4.407 -0.1665  0.1788  1.6154
  807SOL    MW4 3002   3.222   3.521   4.401  0.0540  0.1061  0.5439
  808SOL     OW 3003   2.718   3.691   0.727 -0.2233  0.0147  0.0126
  808SOL    HW2 3004   2.755   3.649   0.805 -0.2618 -0.1002 -0.0299
  808SOL    HW3 3005   2.711   3.783   0.749 -1.6909 -0.2365  0.6998
  808SOL    MW4 3006   2.722   3.697   0.740 -0.4220 -0.0336  0.0976
  809SOL     OW 3007   6.396   0.416   2.888 -0.5010 -0.1192  0.3256
  809SOL    HW2 3008   6.316   0.397   2.937 -1.2904 -1.5926 -1.4219
  809SOL    HW3 3009   6.466   0.384   2.945 -1.3096 -0.7475  1.0062
  809SOL    MW4 3010   6.395   0.409   2.902 -0.7118 -0.3965  0.1848
  810SOL     OW 3011   0.430   3.858   3.365 -0.5130  0.1861  0.5695
  810SOL    HW2 3012   0.432   3.809   3.447 -1.3015 -2.3890 -0.8366
  810SOL    HW3 3013   0.439   3.792   3.297 -2.1860  1.9187 -1.5064
  810SOL    MW4 3014   0.431   3.843   3.367 -0.8378  0.0749  0.1101
  811SOL     OW 3015   2.753   2.895   6.221 -0.1943 -0.2434  0.2202
  811SOL    HW2 3016   2.748   2.990   6.216  1.8323 -0.1478 -0.6576
  811SOL    HW3 3017   2.744   2.865   6.131 -0.2124 -0.8575  0.4179
  811SOL    MW4 3018   2.751   2.904   6.208  0.0707 -0.3118  0.1305
  812SOL     OW 3019   0.049   0.598   3.583 -0.1862 -0.3793 -0.1874
  812SOL    HW2 3020  -0.024   0.552   3.625 -0.5697  2.1181  2.1445
  812SOL    HW3 3021   0.123   0.585   3.642  0.6709 -0.8725 -1.3154
  812SOL    MW4 3022   0.049   0.590   3.596 -0.1237 -0.1149 -0.0286
  813SOL     OW 3023   3.499   3.852   1.421  0.3819 -0.2343  0.0421
  813SOL    HW2 3024   3.469   3.941   1.405  1.5037 -0.0949 -1.5801
  813SOL    HW3 3025   3.557   3.858   1.496 -1.1282  0.0192  1.2308
  813SOL    MW4 3026   3.502   3.864   1.428  0.3307 -0.1825 -0.0151
  814SOL     OW 3027   1.010   5.885   6.040  0.3824  0.1523  0.1730
  814SOL    HW2 3028   1.088   5.935   6.061 -0.4804  1.8763 -0.4812
  814SOL    HW3 3029   0.967   5.871   6.124  0.1427  1.4328  0.2928
  814SOL    MW4 3030   1.014   5.890   6.054  0.2369  0.5487  0.1025
  815SOL     OW 3031   1.322   5.260   3.873  0.0611  0.1694  0.1036
  815SOL    HW2 3032   1.411   5.287   3.851  0.2213 -0.2059  0.2686
  815SOL    HW3 3033   1.303   5.188   3.813  0.0691 -0.0980  0.4144
  815SOL    MW4 3034   1.331   5.254   3.862  0.0833  0.0846  0.1664
  816SOL     OW 3035   5.481   5.701   2.927 -0.0173  0.2451  0.4244
  816SOL    HW2 3036   5.544   5.766   2.958 -1.2584  1.4446  0.5310
  816SOL    HW3 3037   5.462   5.727   2.837 -0.5195  0.0300  0.4653
  816SOL    MW4 3038   5.486   5.713   2.919 -0.2473  0.3750  0.4439
  817SOL     OW 3039   5.124   4.354   0.039 -0.8027  0.5317  0.4248
  817SOL    HW2 3040   5.101   4.265   0.010 -0.7230  0.4520  0.6044
  817SOL    HW3 3041   5.208   4.372  -0.004 -0.9708  0.6424  0.1388
  817SOL    MW4 3042   5.132   4.344   0.030 -0.8144  0.5358  0.4108
  818SOL     OW 3043   6.260   5.800   6.008 -0.1212  0.1273 -0.0097
  818SOL    HW2 3044   6.344   5.805   5.962 -0.7110 -0.8088 -1.2167
  818SOL    HW3 3045   6.271   5.728   6.071 -0.0521 -0.0443 -0.2195
  818SOL    MW4 3046   6.273   5.791   6.010 -0.1899 -0.0189 -0.1966
  819SOL     OW 3047   0.693   5.503   4.701 -0.0075 -0.2847 -0.2264
  819SOL    HW2 3048   0.607   5.486   4.662 -0.5395 -1.2408  1.2592
  819SOL    HW3 3049   0.680   5.583   4.752 -0.2511 -0.8615  0.6296
  819SOL    MW4 3050   0.680   5.512   4.703 -0.1098 -0.4870  0.0826
  820SOL     OW 3051   4.975   6.185   1.947 -0.2736 -0.4891  0.1618
  820SOL    HW2 3052   5.030   6.209   2.022  1.4679 -0.1417 -1.1651
  820SOL    HW3 3053   4.994   6.252   1.881 -0.6807 -1.5753 -1.1049
  820SOL    MW4 3054   4.985   6.197   1.948 -0.0976 -0.5865 -0.1804
  821SOL     OW 3055   0.366   3.004   2.543  0.4355  0.1683 -0.0715
  821SOL    HW2 3056   0.272   2.995   2.558  0.2710  0.9057 -0.6594
  821SOL    HW3 3057   0.394   3.071   2.606  0.7318 -0.6452  0.6885
  821SOL    MW4 3058   0.358   3.012   2.554  0.4529  0.1583 -0.0488
  822SOL     OW 3059   3.357   2.122   5.141  0.0689  0.4212 -0.2197
  822SOL    HW2 3060   3.410   2.202   5.130  1.2801 -0.4645 -1.1134
  822SOL    HW3 3061   3.321   2.130   5.230 -0.4108  2.2760 -0.5370
  822SOL    MW4 3062   3.359   2.134   5.152  0.1654  0.5490 -0.3795
  823SOL     OW 3063   3.495   4.822   0.943  0.3538 -0.2693 -0.5843
  823SOL    HW2 3064   3.403   4.841   0.958  0.3204  0.2448 -1.3753
  823SOL    HW3 3065   3.496   4.735   0.903  0.0532  0.5194 -2.3588
  823SOL    MW4 3066   3.483   4.813   0.940  0.3097 -0.0974 -0.9228
  824SOL     OW 3067   3.664   4.938   3.935  0.1332 -0.5401 -0.0655
  824SOL    HW2 3068   3.627   4.861   3.977 -0.5214  0.9282  2.2195
  824SOL    HW3 3069   3.649   4.925   3.842 -2.7616 -1.7551  0.4888
  824SOL    MW4 3070   3.657   4.926   3.928 -0.3351 -0.5067  0.3091
  825SOL     OW 3071   1.510   1.729   2.589 -0.0569 -0.0189  0.0663
  825SOL    HW2 3072   1.482   1.687   2.670 -0.9448 -0.4191 -0.4271
  825SOL    HW3 3073   1.574   1.795   2.616 -1.6120  1.0670  1.3099
  825SOL    MW4 3074   1.515   1.732   2.603 -0.3792  0.0716  0.1653
  826SOL     OW 3075   3.898   3.840   0.499  0.7559  0.5011 -0.1494
  826SOL    HW2 3076   3.853   3.883   0.572  2.1294  3.1550 -0.7282
  826SOL    HW3 3077   3.862   3.881   0.420 -0.9362 -2.5471 -1.1041
  826SOL    MW4 3078   3.887   3.851   0.498  0.7139  0.4491 -0.3517
  827SOL     OW 3079   0.368   0.098   0.545  0.0351  0.5465 -0.3991
  827SOL    HW2 3080   0.306   0.049   0.490  0.0421 -0.0122  0.0813
  827SOL    HW3 3081   0.445   0.109   0.489  0.3217 -0.6555 -0.2673
  827SOL    MW4 3082   0.370   0.093   0.530  0.0738  0.3142 -0.3183
  828SOL     OW 3083   0.128   0.883   5.182  0.4986 -0.6046 -0.2070
  828SOL    HW2 3084   0.056   0.873   5.120 -3.1472  2.9419  2.8839
  828SOL    HW3 3085   0.100   0.835   5.260  1.8573  0.1327  0.7929
  828SOL    MW4 3086   0.115   0.876   5.184  0.1968 -0.0394  0.3327
  829SOL     OW 3087   2.978   4.015   0.244 -0.2832 -0.1600 -0.0732
  829SOL    HW2 3088   2.989   4.006   0.150 -0.9820  0.5170 -0.2270
  829SOL    HW3 3089   2.897   3.968   0.264  1.5529 -3.2352  0.7222
  829SOL    MW4 3090   2.969   4.008   0.234 -0.1331 -0.4764  0.0114
  830SOL     OW 3091   5.241   1.558   0.116 -0.5193  0.4746 -0.5315
  830SOL    HW2 3092   5.243   1.489   0.050  1.9473  1.8781 -2.0920
  830SOL    HW3 3093   5.280   1.518   0.194 -1.2032 -0.5122 -0.6789
  830SOL    MW4 3094   5.247   1.544   0.118 -0.2841  0.5296 -0.7568
  831SOL     OW 3095   0.358   0.586   6.182 -0.3757 -0.1478  0.0052
  831SOL    HW2 3096   0.341   0.643   6.107  1.7925 -0.9514 -1.1844
  831SOL    HW3 3097   0.404   0.510   6.145 -1.8048 -1.9819  1.7481
  831SOL    MW4 3098   0.362   0.583   6.167 -0.2782 -0.4958  0.0782
  832SOL     OW 3099   4.945   2.304   2.157 -0.6138 -0.4265  0.0146
  832SOL    HW2 3100   4.899   2.298   2.074 -0.1291 -0.7583 -0.2365
  832SOL    HW3 3101   5.027   2.348   2.136  0.2297 -1.9508 -0.0083
  832SOL    MW4 3102   4.950   2.309   2.143 -0.4386 -0.6714 -0.0216
  833SOL     OW 3103   4.990   2.623   4.098 -0.6158  0.4773 -0.2775
  833SOL    HW2 3104   4.934   2.551   4.069 -0.3738 -0.5309  1.6169
  833SOL    HW3 3105   4.929   2.692   4.123 -0.9382  0.0782  0.0397
  833SOL    MW4 3106   4.975   2.623   4.097 -0.6264  0.2916  0.0143
  834SOL     OW 3107   1.192   0.831   3.664  0.1944 -0.1096  0.2708
  834SOL    HW2 3108   1.160   0.760   3.608 -0.6567 -0.5588  1.2783
  834SOL    HW3 3109   1.216   0.787   3.746 -1.5143  0.8817  1.3594
  834SOL    MW4 3110   1.191   0.816   3.668 -0.1433 -0.0381  0.5474
  835SOL     OW 3111   0.940   0.095   2.016 -0.0864 -0.1582 -0.4584
  835SOL    HW2 3112   0.867   0.156   2.015  0.2429  0.2916  0.6188
  835SOL    HW3 3113   1.011   0.141   1.970  0.9016  1.3313  2.2989
  835SOL    MW4 3114   0.940   0.109   2.010  0.0874  0.0977  0.0475
  836SOL     OW 3115   5.581   3.797   3.640  0.1049  0.6149  0.1274
  836SOL    HW2 3116   5.626   3.858   3.582  0.1780 -1.5374 -2.3065
  836SOL    HW3 3117   5.650   3.742   3.676 -0.2000 -0.1411 -0.4103
  836SOL    MW4 3118   5.596   3.797   3.637  0.0743  0.2312 -0.2647
  837SOL     OW 3119   6.163   5.747   0.438  0.6472 -0.0332 -0.6397
  837SOL    HW2 3120   6.174   5.791   0.522  1.1280 -0.5486 -0.4213
  837SOL    HW3 3121   6.071   5.760   0.415  0.5554  0.2482 -0.1077
  837SOL    MW4 3122   6.152   5.754   0.446  0.6985 -0.0641 -0.5407
  838SOL     OW 3123   5.538   4.293   1.187 -0.3097  0.2982 -0.6201
  838SOL    HW2 3124   5.576   4.378   1.164  0.4629 -0.2469 -1.4169
  838SOL    HW3 3125   5.483   4.270   1.112  0.4110 -0.4307 -0.9449
  838SOL    MW4 3126   5.536   4.301   1.174 -0.1127  0.1301 -0.7681
  839SOL     OW 3127   4.890   1.935   0.338  0.3373 -0.1634  0.5152
  839SOL    HW2 3128   4.842   1.926   0.256  3.9130 -1.3048 -1.6476
  839SOL    HW3 3129   4.932   1.850   0.351  0.1054  0.0806  3.4390
  839SOL    MW4 3130   4.889   1.923   0.329  0.7785 -0.2818  0.6156
  840SOL     OW 3131   1.157   5.667   2.704 -0.7188 -0.0181  0.6040
  840SOL    HW2 3132   1.117   5.648   2.619 -1.1716  1.5563  0.4396
  840SOL    HW3 3133   1.194   5.583   2.732  0.0714 -0.4209 -1.4662
  840SOL    MW4 3134   1.157   5.653   2.697 -0.6743  0.1365  0.3092
  841SOL     OW 3135   6.164   0.499   3.337 -0.9397 -0.1519 -0.2699
  841SOL    HW2 3136   6.179   0.565   3.405  0.7348 -1.2748  0.5418
  841SOL    HW3 3137   6.069   0.492   3.331 -1.1452  0.6051  1.3732
  841SOL    MW4 3138   6.154   0.506   3.345 -0.7459 -0.2002  0.0540
  842SOL     OW 3139   3.965   3.211   0.117 -0.0082  0.4361 -0.2389
  842SOL    HW2 3140   3.913   3.245   0.190  0.5082 -1.1269  0.9020
  842SOL    HW3 3141   4.036   3.274   0.107 -0.1632  0.7392  0.5216
  842SOL    MW4 3142   3.967   3.224   0.125  0.0395  0.2699  0.0119
  843SOL     OW 3143   5.289   5.048   2.198 -0.5072 -0.7684 -0.3641
  843SOL    HW2 3144   5.380   5.039   2.170 -1.1144 -2.8096 -1.8763
  843SOL    HW3 3145   5.245   5.087   2.123 -1.3192 -2.1372 -0.6276
  843SOL    MW4 3146   5.295   5.052   2.185 -0.6944 -1.2183 -0.5984
  844SOL     OW 3147   6.039   3.745   2.792 -0.1319  0.3869 -0.6376
  844SOL    HW2 3148   6.120   3.757   2.743  0.4523 -1.4648 -0.1812
  844SOL    HW3 3149   5.993   3.829   2.783  1.7666  1.4366 -0.9910
  844SOL    MW4 3150   6.044   3.758   2.784  0.1957  0.2811 -0.6240
  845SOL     OW 3151   0.933   2.397   1.710 -0.1849  0.7154  0.2766
  845SOL    HW2 3152   0.959   2.307   1.728  0.1795  0.4896 -1.2610
  845SOL    HW3 3153   0.970   2.416   1.624 -1.6158  1.7979 -0.1314
  845SOL    MW4 3154   0.941   2.388   1.701 -0.3256  0.8284  0.0199
  846SOL     OW 3155   0.933   4.514   5.198  0.2362  0.5348 -0.4359
  846SOL    HW2 3156   1.004   4.578   5.200 -0.1543  0.9359  1.0018
  846SOL    HW3 3157   0.965   4.441   5.251  0.1488  0.0886 -0.9866
  846SOL    MW4 3158   0.946   4.513   5.205  0.1732  0.5288 -0.3189
  847SOL     OW 3159   4.505   1.718   6.301 -0.6335 -0.3478  0.6165
  847SOL    HW2 3160   4.518   1.674   6.385 -0.6405 -0.5206  0.5266
  847SOL    HW3 3161   4.431   1.673   6.261 -1.9949  1.0929  1.4347
  847SOL    MW4 3162   4.497   1.706   6.306 -0.8140 -0.1805  0.7126
  848SOL     OW 3163   5.979   2.834   0.664 -0.1448  0.4329  0.2792
  848SOL    HW2 3164   5.886   2.850   0.650  0.0499  1.2171 -0.1962
  848SOL    HW3 3165   6.023   2.905   0.618  0.7817 -1.3189 -1.7403
  848SOL    MW4 3166   5.973   2.845   0.656  0.0032  0.3052 -0.0500
  849SOL     OW 3167   0.704   3.482   4.032 -0.2449 -0.5760  0.5115
  849SOL    HW2 3168   0.767   3.488   4.104  0.0331  0.2138  0.2221
  849SOL    HW3 3169   0.646   3.557   4.045 -0.3226 -0.5499  0.0428
  849SOL    MW4 3170   0.705   3.493   4.043 -0.2185 -0.4684  0.4114
  850SOL     OW 3171   1.118   3.088   4.826  0.0043 -0.1530  0.2841
  850SOL    HW2 3172   1.071   3.016   4.870 -0.4938 -0.9777 -1.5065
  850SOL    HW3 3173   1.180   3.044   4.768 -0.3218  0.8632 -0.8663
  850SOL    MW4 3174   1.120   3.072   4.824 -0.1044 -0.1277 -0.1039
  851SOL     OW 3175   0.593   4.185   2.582  0.5657  0.2941  0.2487
  851SOL    HW2 3176   0.642   4.133   2.517  1.4667 -0.1856  1.2851
  851SOL    HW3 3177   0.596   4.274   2.547  2.5537  0.3544  0.4438
  851SOL    MW4 3178   0.600   4.190   2.568  0.9469  0.2388  0.4112
  852SOL     OW 3179   2.938   5.551   4.287  0.0897 -0.1467 -0.3365
  852SOL    HW2 3180   2.942   5.483   4.220 -0.3075 -0.4463 -0.0618
  852SOL    HW3 3181   3.022   5.597   4.280 -0.3267  0.4454 -1.6817
  852SOL    MW4 3182   2.950   5.548   4.277 -0.0177 -0.1081 -0.4777
  853SOL     OW 3183   4.929   3.870   4.838  0.0350 -0.2242 -0.2695
  853SOL    HW2 3184   4.957   3.846   4.926 -0.7462 -1.1320 -0.2556
  853SOL    HW3 3185   4.945   3.964   4.832  1.7906 -0.4719  0.1888
  853SOL    MW4 3186   4.934   3.879   4.849  0.1636 -0.3766 -0.2072
  854SOL     OW 3187   5.252   3.306   6.407 -0.0098  0.2243 -0.7663
  854SOL    HW2 3188   5.325   3.311   6.345 -0.6529 -0.2684 -1.5910
  854SOL    HW3 3189   5.250   3.215   6.435  1.2093  0.7493  1.1781
  854SOL    MW4 3190   5.261   3.295   6.403  0.0662  0.2286 -0.6186
  855SOL     OW 3191   1.171   3.623   5.770 -0.2184 -0.0076  0.0202
  855SOL    HW2 3192   1.118   3.549   5.740 -1.9149  0.4192  1.7898
  855SOL    HW3 3193   1.154   3.692   5.706  0.5742 -0.7940 -1.0713
  855SOL    MW4 3194   1.162   3.623   5.758 -0.3376 -0.0550  0.1097
  856SOL     OW 3195   1.508   4.380   5.067 -0.4514  0.3075  0.6886
  856SOL    HW2 3196   1.575   4.343   5.009 -0.2390 -0.3972  1.3746
  856SOL    HW3 3197   1.550   4.456   5.107 -1.5024  2.6111 -2.1887
  856SOL    MW4 3198   1.522   4.386   5.064 -0.5620  0.5185  0.3995
  857SOL     OW 3199   0.845   4.264   4.320  0.3595 -0.0656 -0.6003
  857SOL    HW2 3200   0.771   4.295   4.267 -0.2619  1.0189  0.8075
  857SOL    HW3 3201   0.914   4.247   4.257 -0.4301  0.9259 -1.7955
  857SOL    MW4 3202   0.844   4.266   4.305  0.1733  0.2083 -0.5723
  858SOL     OW 3203   1.695   6.342   1.340  0.1725  0.2809 -0.4298
  858SOL    HW2 3204   1.719   6.254   1.311  1.6748  0.5839 -0.2194
  858SOL    HW3 3205   1.623   6.368   1.282  1.0221 -0.3272 -1.8165
  858SOL    MW4 3206   1.689   6.334   1.329  0.4828  0.2407 -0.5850
  859SOL     OW 3207   1.676   4.679   2.074 -0.0653 -0.3717 -0.4116
  859SOL    HW2 3208   1.674   4.692   1.979 -0.4386  0.0991 -0.3445
  859SOL    HW3 3209   1.731   4.750   2.107 -3.5138  2.3377  0.1240
  859SOL    MW4 3210   1.683   4.690   2.066 -0.5695  0.0479 -0.3321
  860SOL     OW 3211   4.842   1.056   0.949  0.6512 -0.0909 -0.2127
  860SOL    HW2 3212   4.907   1.052   1.019  1.5634  1.0002 -0.9611
  860SOL    HW3 3213   4.857   1.141   0.907 -0.8287 -0.1000 -0.8271
  860SOL    MW4 3214   4.852   1.067   0.953  0.5763  0.0519 -0.3925
  861SOL     OW 3215   1.456   1.199   4.951  0.0347  0.5501 -0.1074
  861SOL    HW2 3216   1.485   1.108   4.957 -0.5129  0.3126 -0.8462
  861SOL    HW3 3217   1.411   1.203   4.867 -0.3741  1.3829  0.1490
  861SOL    MW4 3218   1.454   1.187   4.941 -0.0915  0.6287 -0.1710
  862SOL     OW 3219   1.247   6.225   5.091 -0.0732 -0.2160 -0.5110
  862SOL    HW2 3220   1.246   6.138   5.131 -0.3948  0.1241  0.2372
  862SOL    HW3 3221   1.339   6.252   5.096 -0.3589  0.5267  1.5946
  862SOL    MW4 3222   1.259   6.217   5.097 -0.1533 -0.0732 -0.1345
  863SOL     OW 3223   0.507   4.537   6.218 -0.0985 -0.6564  0.0092
  863SOL    HW2 3224   0.454   4.536   6.139 -1.8510 -1.2990  1.1329
  863SOL    HW3 3225   0.573   4.469   6.203  1.0054  0.7119 -1.7450
  863SOL    MW4 3226   0.509   4.528   6.206 -0.1841 -0.5606 -0.0740
  864SOL     OW 3227   2.776   3.922   5.193 -0.0328 -0.5145  0.1322
  864SOL    HW2 3228   2.862   3.928   5.151 -0.4235 -0.1868 -0.6406
  864SOL    HW3 3229   2.735   4.006   5.175 -0.1364 -0.2849  1.3652
  864SOL    MW4 3230   2.782   3.934   5.186 -0.0980 -0.4410  0.1929
  865SOL     OW 3231   3.029   1.128   4.036 -0.1865 -0.1065  0.2501
  865SOL    HW2 3232   3.122   1.148   4.039 -0.1607  0.0345 -1.1557
  865SOL    HW3 3233   3.003   1.142   3.945 -0.9467 -2.9057 -0.0825
  865SOL    MW4 3234   3.038   1.132   4.025 -0.2834 -0.4572  0.0208
  866SOL     OW 3235   2.656   5.057   4.295  0.7613  0.7745 -0.3765
  866SOL    HW2 3236   2.640   5.144   4.260 -0.5374  1.3346  1.4856
  866SOL    HW3 3237   2.714   5.016   4.231  0.2426  2.4743 -2.0192
  866SOL    MW4 3238   2.662   5.063   4.282  0.5215  1.0727 -0.3475
  867SOL     OW 3239   2.659   2.424   0.712  0.2527 -0.0759 -0.5067
  867SOL    HW2 3240   2.717   2.402   0.638  1.3190 -0.0860  0.3050
  867SOL    HW3 3241   2.719   2.453   0.781 -0.7677  0.4453  0.1812
  867SOL    MW4 3242   2.675   2.425   0.711  0.2587 -0.0085 -0.3089
  868SOL     OW 3243   2.073   3.630   0.096 -0.7875  0.1721  0.2269
  868SOL    HW2 3244   2.064   3.535   0.103 -0.9098  0.1628 -0.0177
  868SOL    HW3 3245   2.158   3.644   0.054 -1.8414  0.0613 -2.1275
  868SOL    MW4 3246   2.083   3.619   0.091 -0.9427  0.1563 -0.1160
  869SOL     OW 3247   4.640   3.007   1.524 -0.3253 -0.1439 -0.1195
  869SOL    HW2 3248   4.615   2.954   1.599 -2.9095  0.1954 -0.6709
  869SOL    HW3 3249   4.569   3.070   1.513  1.0408  1.2731 -1.5278
  869SOL    MW4 3250   4.627   3.008   1.533 -0.4860  0.0878 -0.3781
  870SOL     OW 3251   0.621   2.332   2.780  0.1532  0.5493  0.3025
  870SOL    HW2 3252   0.597   2.239   2.776 -0.4883  0.7156  0.3093
  870SOL    HW3 3253   0.709   2.332   2.819  0.4606 -0.1029 -0.3542
  870SOL    MW4 3254   0.630   2.320   2.785  0.1091  0.4852  0.2167
  871SOL     OW 3255   4.967   5.869   4.866  0.4594  0.0575 -0.1375
  871SOL    HW2 3256   4.905   5.877   4.793  0.4308 -1.6635 -0.3655
  871SOL    HW3 3257   4.912   5.849   4.941  0.6027  0.3593  0.0464
  871SOL    MW4 3258   4.952   5.867   4.866  0.4745 -0.1298 -0.1434
  872SOL     OW 3259   5.337   1.709   1.011  0.8393 -0.4347  0.7453
  872SOL    HW2 3260   5.432   1.724   1.009  1.0312 -1.6022  0.3674
  872SOL    HW3 3261   5.319   1.681   1.101  1.3764 -3.1437  0.0990
  872SOL    MW4 3262   5.347   1.708   1.023  0.9355 -0.9461  0.6101
  873SOL     OW 3263   1.012   3.982   5.797  0.3477 -0.5761  0.2796
  873SOL    HW2 3264   0.943   4.004   5.735  1.4694  0.4963 -0.6368
  873SOL    HW3 3265   0.965   3.948   5.874 -1.3333  1.7813  0.4206
  873SOL    MW4 3266   0.996   3.980   5.799  0.2739 -0.1236  0.1773
  874SOL     OW 3267   6.104   5.219   5.470  0.2826 -0.3251  0.1636
  874SOL    HW2 3268   6.114   5.307   5.435  2.9707 -1.0507 -1.1396
  874SOL    HW3 3269   6.131   5.226   5.561  0.9022  0.1294 -0.0526
  874SOL    MW4 3270   6.109   5.232   5.477  0.7190 -0.3609 -0.0369
  875SOL     OW 3271   1.658   5.319   5.225 -0.3539  0.2939 -0.3497
  875SOL    HW2 3272   1.616   5.380   5.164  1.5981  1.2487 -0.8124
  875SOL    HW3 3273   1.703   5.256   5.169 -1.0039 -0.6254  0.1345
  875SOL    MW4 3274   1.658   5.319   5.210 -0.1821  0.2986 -0.3469
  876SOL     OW 3275   1.543   0.685   3.711  0.0054 -0.3111 -0.4613
  876SOL    HW2 3276   1.525   0.597   3.677  0.2587 -0.8368  0.7089
  876SOL    HW3 3277   1.573   0.734   3.635 -0.7753 -1.0397 -1.2734
  876SOL    MW4 3278   1.544   0.680   3.696 -0.0642 -0.4766 -0.4141
  877SOL     OW 3279   3.786   2.945   5.668 -0.3310  0.3458 -0.0902
  877SOL    HW2 3280   3.793   2.968   5.760 -1.4461 -2.8786  0.9579
  877SOL    HW3 3281   3.694   2.961   5.646 -0.1762  0.6698 -0.4954
  877SOL    MW4 3282   3.775   2.950   5.677 -0.4577 -0.0369 -0.0054
  878SOL     OW 3283   0.925   3.234   1.013 -0.5650  0.3454 -0.1525
  878SOL    HW2 3284   0.927   3.277   0.928 -0.8289  2.8536  1.0148
  878SOL    HW3 3285   0.997   3.171   1.010  1.0716  2.1580 -1.3837
  878SOL    MW4 3286   0.935   3.231   1.001 -0.3839  0.9155 -0.1609
  879SOL     OW 3287   2.815   0.403   5.713 -0.0268  0.5870 -0.7585
  879SOL    HW2 3288   2.869   0.334   5.673 -1.3073  0.2477 -1.9841
  879SOL    HW3 3289   2.837   0.482   5.664  0.3005  0.7338 -0.3829
  879SOL    MW4 3290   2.825   0.404   5.701 -0.1526  0.5616 -0.8707
  880SOL     OW 3291   0.178   4.668   3.241  0.4667  0.0446 -0.6884
  880SOL    HW2 3292   0.148   4.595   3.186  0.4120  0.3781 -1.1095
  880SOL    HW3 3293   0.271   4.651   3.255  0.1363 -0.8967  0.4620
  880SOL    MW4 3294   0.186   4.656   3.235  0.4159 -0.0356 -0.5922
  881SOL     OW 3295   0.858   1.566   4.604  0.1889  0.4562 -0.2912
  881SOL    HW2 3296   0.791   1.541   4.541 -1.0997  2.0228  0.3846
  881SOL    HW3 3297   0.813   1.566   4.688  1.3575  0.4022  0.3601
  881SOL    MW4 3298   0.844   1.563   4.607  0.1731  0.6558 -0.1161
  882SOL     OW 3299   0.941   0.563   0.182 -0.2726 -0.1378  0.1129
  882SOL    HW2 3300   0.903   0.581   0.096 -2.6384 -0.4444  1.0036
  882SOL    HW3 3301   0.948   0.649   0.223  0.0851 -0.0680 -0.0955
  882SOL    MW4 3302   0.937   0.577   0.176 -0.5375 -0.1690  0.2029
  883SOL     OW 3303   5.991   5.903   4.430 -0.1866 -0.1265 -0.2094
  883SOL    HW2 3304   5.972   5.898   4.337 -0.5649 -1.0604 -0.0899
  883SOL    HW3 3305   5.945   5.981   4.460  0.0959  0.2864 -0.8387
  883SOL    MW4 3306   5.983   5.913   4.422 -0.1992 -0.1953 -0.2767
  884SOL     OW 3307   1.693   1.820   3.661 -0.1557  0.0761 -0.2042
  884SOL    HW2 3308   1.775   1.859   3.692  0.2888 -1.2794  0.4370
  884SOL    HW3 3309   1.633   1.829   3.734 -0.5731  0.9933 -0.6453
  884SOL    MW4 3310   1.696   1.826   3.675 -0.1521  0.0183 -0.1778
  885SOL     OW 3311   4.509   0.923   2.607 -0.1515 -0.1045  0.0257
  885SOL    HW2 3312   4.524   0.957   2.695 -0.2249 -2.3735  0.9769
  885SOL    HW3 3313   4.533   0.996   2.549  0.8337  1.1194  1.8701
  885SOL    MW4 3314   4.514   0.937   2.611 -0.0312 -0.2424  0.3946
  886SOL     OW 3315   2.965   4.277   4.734  0.1138 -0.5616  0.2559
  886SOL    HW2 3316   2.975   4.271   4.639  2.6372  0.1445  0.4071
  886SOL    HW3 3317   2.913   4.356   4.748  1.5584  0.5604 -0.5124
  886SOL    MW4 3318   2.960   4.286   4.724  0.6374 -0.3204  0.1745
  887SOL     OW 3319   3.034   4.546   0.341  0.1009 -0.2133 -1.0130
  887SOL    HW2 3320   3.007   4.455   0.326 -1.2127  0.2453 -1.5871
  887SOL    HW3 3321   3.090   4.542   0.419  0.5482 -1.5852 -1.3840
  887SOL    MW4 3322   3.038   4.533   0.350 -0.0134 -0.3338 -1.1377
  888SOL     OW 3323   6.250   2.302   3.650 -0.4996  0.6729  0.2989
  888SOL    HW2 3324   6.155   2.292   3.638 -0.4485 -0.0832  0.4319
  888SOL    HW3 3325   6.269   2.250   3.728  0.2309 -0.3923 -0.5549
  888SOL    MW4 3326   6.240   2.294   3.658 -0.3965  0.4326  0.2038
  889SOL     OW 3327   4.850   0.032   0.572  0.3470  0.3738 -0.3433
  889SOL    HW2 3328   4.856  -0.063   0.576 -2.8410  0.0139 -1.5058
  889SOL    HW3 3329   4.795   0.056   0.647 -0.5952  1.0288 -1.2101
  889SOL    MW4 3330   4.844   0.023   0.582 -0.1979  0.4127 -0.6110
  890SOL     OW 3331   1.281   1.026   4.414  0.4585 -0.1840  0.3937
  890SOL    HW2 3332   1.240   1.014   4.500 -1.7598  1.3451 -0.3779
  890SOL    HW3 3333   1.343   1.097   4.427  1.7779 -1.4183  1.1860
  890SOL    MW4 3334   1.284   1.034   4.427  0.3399 -0.1451  0.3965
  891SOL     OW 3335   0.678   5.139   4.855 -0.0827  0.6720 -0.5063
  891SOL    HW2 3336   0.727   5.205   4.904 -0.8413 -0.3398  1.7674
  891SOL    HW3 3337   0.743   5.093   4.803  0.8658  1.4987 -0.0708
  891SOL    MW4 3338   0.693   5.142   4.855 -0.0576  0.6475 -0.1488
  892SOL     OW 3339   5.517   6.124   2.927  0.0134  0.0744 -0.3169
  892SOL    HW2 3340   5.568   6.202   2.952  0.2035  0.1393 -0.8913
  892SOL    HW3 3341   5.471   6.151   2.848 -0.8008 -0.0375  0.1170
  892SOL    MW4 3342   5.518   6.138   2.920 -0.0689  0.0682 -0.3354
  893SOL     OW 3343   4.998   3.586   0.611  0.0835  0.2324  0.0166
  893SOL    HW2 3344   5.054   3.520   0.652  0.0630 -0.8958 -1.6823
  893SOL    HW3 3345   4.969   3.641   0.684  0.9437 -0.9996  1.3424
  893SOL    MW4 3346   5.001   3.585   0.626  0.1943 -0.0790 -0.0326
  894SOL     OW 3347   5.885   3.442   0.399 -0.4778  0.4157 -0.4443
  894SOL    HW2 3348   5.869   3.359   0.444 -1.1923 -0.2145 -1.8239
  894SOL    HW3 3349   5.835   3.436   0.318 -1.3866  2.6299 -0.1077
  894SOL    MW4 3350   5.877   3.430   0.394 -0.6919  0.6247 -0.5819
  895SOL     OW 3351   4.727   5.061   2.739 -0.2344  0.3528  0.3372
  895SOL    HW2 3352   4.657   5.089   2.798  0.3822  0.8061  0.8737
  895SOL    HW3 3353   4.697   4.977   2.705 -1.4862  0.9993 -0.2148
  895SOL    MW4 3354   4.714   5.054   2.743 -0.3182  0.4979  0.3352
  896SOL     OW 3355   6.187   2.130   2.058  0.4853  0.3000 -0.0227
  896SOL    HW2 3356   6.276   2.096   2.043  0.6149  0.2163  0.8620
  896SOL    HW3 3357   6.150   2.139   1.971  0.4396 -2.1236 -0.3196
  896SOL    MW4 3358   6.194   2.126   2.045  0.4964 -0.0308  0.0548
  897SOL     OW 3359   2.970   1.161   3.774 -0.3258 -0.3750 -0.0472
  897SOL    HW2 3360   3.027   1.090   3.743  0.2123 -0.2617  0.6486
  897SOL    HW3 3361   3.011   1.241   3.740  0.3414 -0.2381  0.9970
  897SOL    MW4 3362   2.983   1.162   3.766 -0.1668 -0.3420  0.1824
  898SOL     OW 3363   5.984   5.194   1.355 -0.2125  0.8086 -0.1567
  898SOL    HW2 3364   5.943   5.141   1.287  0.2976 -1.0136  0.8788
  898SOL    HW3 3365   6.025   5.266   1.308 -0.4793 -0.0005 -1.6992
  898SOL    MW4 3366   5.984   5.196   1.340 -0.1804  0.4615 -0.2236
  899SOL     OW 3367   1.213   0.361   3.389  0.2494  0.0946 -0.3839
  899SOL    HW2 3368   1.152   0.306   3.439 -0.0409 -0.4036 -1.2479
  899SOL    HW3 3369   1.179   0.357   3.299  0.4249  1.4202 -0.5317
  899SOL    MW4 3370   1.200   0.353   3.384  0.2342  0.2038 -0.5174
  900SOL     OW 3371   2.096   0.324   5.136 -0.5410  0.5168 -0.2620
  900SOL    HW2 3372   2.042   0.396   5.170 -0.6253 -1.0230  3.2398
  900SOL    HW3 3373   2.043   0.246   5.150  0.7080 -0.5706 -1.3008
  900SOL    MW4 3374   2.082   0.323   5.142 -0.3873  0.1701  0.0630
  901SOL     OW 3375   5.426   6.396   4.779  0.2696 -0.0168  0.4403
  901SOL    HW2 3376   5.459   6.339   4.848  0.4875 -1.8286 -1.0734
  901SOL    HW3 3377   5.337   6.364   4.762  0.2614  0.3096 -0.1863
  901SOL    MW4 3378   5.418   6.384   4.786  0.2973 -0.2128  0.1579
  902SOL     OW 3379   3.753   2.610   3.961 -0.2543 -0.0064 -0.2980
  902SOL    HW2 3380   3.792   2.592   3.875 -0.8620 -0.3565 -0.5076
  902SOL    HW3 3381   3.684   2.674   3.942 -0.1914  0.1461 -0.0189
  902SOL    MW4 3382   3.749   2.616   3.947 -0.3262 -0.0325 -0.2889
  903SOL     OW 3383   5.189   0.669   3.454 -0.2376  0.8218 -0.4583
  903SOL    HW2 3384   5.180   0.664   3.549  0.1443  1.5502 -0.3804
  903SOL    HW3 3385   5.244   0.746   3.439 -0.4142  0.7953 -1.2763
  903SOL    MW4 3386   5.195   0.678   3.464 -0.2105  0.9144 -0.5559
  904SOL     OW 3387   2.756   5.813   4.670 -0.4610  0.1825 -0.3614
  904SOL    HW2 3388   2.721   5.827   4.582  1.5775 -1.2450 -1.4853
  904SOL    HW3 3389   2.835   5.867   4.672 -0.6674  0.4565  0.7482
  904SOL    MW4 3390   2.762   5.822   4.658 -0.2193  0.0303 -0.3633
  905SOL     OW 3391   2.558   5.372   1.400 -0.4350 -0.2264  0.2891
  905SOL    HW2 3392   2.571   5.460   1.436 -0.7485  0.4415 -1.1290
  905SOL    HW3 3393   2.463   5.365   1.389 -0.3034  0.0164 -1.3002
  905SOL    MW4 3394   2.547   5.383   1.403 -0.4590 -0.1062 -0.1077
  906SOL     OW 3395   2.707   1.711   0.812 -0.3917  0.0288  0.0918
  906SOL    HW2 3396   2.666   1.792   0.844 -0.9601 -0.3535  0.3645
  906SOL    HW3 3397   2.759   1.680   0.887 -0.9704 -0.3737  0.3335
  906SOL    MW4 3398   2.708   1.718   0.826 -0.5430 -0.0748  0.1597
  907SOL     OW 3399   2.174   1.869   3.133  0.0799 -0.7864 -0.1511
  907SOL    HW2 3400   2.095   1.837   3.177  1.1738 -0.4816  2.2022
  907SOL    HW3 3401   2.148   1.880   3.041 -3.1118  0.9673  0.8159
  907SOL    MW4 3402   2.160   1.866   3.127 -0.1969 -0.5148  0.2869
  908SOL     OW 3403   4.279   4.988   1.974  0.5339 -0.3710 -0.1315
  908SOL    HW2 3404   4.344   5.005   2.041 -0.3434  3.8224 -0.0645
  908SOL    HW3 3405   4.330   4.972   1.894  1.5633 -1.4108  0.7048
  908SOL    MW4 3406   4.294   4.988   1.972  0.5540  0.0450 -0.0123
  909SOL     OW 3407   4.507   3.725   1.291  0.2762  0.0754 -0.6450
  909SOL    HW2 3408   4.577   3.680   1.245 -0.7391 -0.9366 -1.2415
  909SOL    HW3 3409   4.440   3.740   1.224 -0.5846 -0.0549  0.1729
  909SOL    MW4 3410   4.507   3.721   1.276  0.0286 -0.0753 -0.6158
  910SOL     OW 3411   3.439   6.420   6.146  0.5413 -0.3112 -0.0636
  910SOL    HW2 3412   3.524   6.379   6.165  0.8283 -0.8690 -2.2675
  910SOL    HW3 3413   3.447   6.450   6.055 -1.5039 -0.0402 -0.1952
  910SOL    MW4 3414   3.451   6.419   6.136  0.3093 -0.3490 -0.3717
  911SOL     OW 3415   1.648   3.439   2.040  0.1438 -0.7947 -0.5158
  911SOL    HW2 3416   1.564   3.405   2.072 -0.7324  2.5673  1.1634
  911SOL    HW3 3417   1.624   3.495   1.966  0.9275  0.0616 -0.1283
  911SOL    MW4 3418   1.633   3.442   2.034  0.1316 -0.2381 -0.2431
  912SOL     OW 3419   1.120   0.327   1.919  0.2454  0.5983  0.1387
  912SOL    HW2 3420   1.051   0.388   1.891 -1.4606 -0.2423  2.1968
  912SOL    HW3 3421   1.169   0.375   1.985  0.4508  0.5720  0.0047
  912SOL    MW4 3422   1.117   0.341   1.924  0.0474  0.4839  0.3925
  913SOL     OW 3423   4.819   1.410   1.991  0.1366 -0.2183  0.2216
  913SOL    HW2 3424   4.793   1.344   2.055 -1.7885 -0.8483 -1.1259
  913SOL    HW3 3425   4.739   1.460   1.975  1.0646  1.1565 -0.2801
  913SOL    MW4 3426   4.805   1.408   1.997  0.0050 -0.1201 -0.0224
  914SOL     OW 3427   2.068   3.088   6.156  0.3744  0.0738  0.1895
  914SOL    HW2 3428   2.078   3.070   6.250 -0.4049  1.1621  0.4933
  914SOL    HW3 3429   2.155   3.071   6.119  1.5978  2.6952  1.6244
  914SOL    MW4 3430   2.081   3.083   6.164  0.4330  0.5632  0.4189
  915SOL     OW 3431   0.581   0.100   4.891 -0.2177 -0.4284  0.0112
  915SOL    HW2 3432   0.571   0.117   4.985  1.5203 -1.5742  0.4531
  915SOL    HW3 3433   0.641   0.169   4.861  0.4557 -0.9625  0.0980
  915SOL    MW4 3434   0.588   0.111   4.900  0.1004 -0.6500  0.0810
  916SOL     OW 3435   3.566   2.437   4.035 -0.0338  0.7163  0.1719
  916SOL    HW2 3436   3.623   2.503   3.997 -0.8473  0.4865 -1.5242
  916SOL    HW3 3437   3.489   2.486   4.065  0.2047  0.7772  0.6929
  916SOL    MW4 3438   3.563   2.452   4.034 -0.1097  0.6940  0.0168
  917SOL     OW 3439   4.322   4.794   1.275  0.2600 -0.1055  0.1020
  917SOL    HW2 3440   4.275   4.717   1.241  2.1583 -1.3582  0.1614
  917SOL    HW3 3441   4.408   4.760   1.299  1.3420  2.1718 -0.3417
  917SOL    MW4 3442   4.327   4.779   1.274  0.6532  0.0297  0.0513
  918SOL     OW 3443   1.502   1.595   3.629 -0.2864  0.5931 -0.3653
  918SOL    HW2 3444   1.571   1.641   3.582 -0.3362  1.6888  0.5795
  918SOL    HW3 3445   1.549   1.530   3.681  0.0479  1.2401  0.1668
  918SOL    MW4 3446   1.518   1.592   3.630 -0.2488  0.8230 -0.1705
  919SOL     OW 3447   3.107   0.106   4.135  0.3684  0.3830 -0.1707
  919SOL    HW2 3448   3.022   0.125   4.096 -0.2278 -0.7503  0.5521
  919SOL    HW3 3449   3.121   0.013   4.120  1.1352  0.3984  0.3744
  919SOL    MW4 3450   3.098   0.096   4.128  0.3909  0.2355 -0.0034
  920SOL     OW 3451   2.390   2.056   3.414  0.6263 -0.6140 -0.1456
  920SOL    HW2 3452   2.295   2.058   3.400  0.3180  0.3818  1.8001
  920SOL    HW3 3453   2.426   2.097   3.336 -0.4118 -2.2888 -1.5916
  920SOL    MW4 3454   2.382   2.062   3.402  0.4487 -0.7036 -0.0797
  921SOL     OW 3455   0.093   1.482   4.711  0.1151  0.6787  0.5248
  921SOL    HW2 3456   0.160   1.549   4.721  1.4342 -0.6626  0.9998
  921SOL    HW3 3457   0.136   1.400   4.735 -0.0738 -1.0654 -4.0748
  921SOL    MW4 3458   0.107   1.480   4.715  0.2642  0.2716 -0.0194
  922SOL     OW 3459   1.947   0.477   2.555  0.2841  0.3344  0.1341
  922SOL    HW2 3460   1.941   0.382   2.549 -0.1034  0.4327 -1.2145
  922SOL    HW3 3461   1.869   0.502   2.604 -0.7712  0.1067 -1.3652
  922SOL    MW4 3462   1.936   0.468   2.561  0.0938  0.3173 -0.2416
  923SOL     OW 3463   4.537   2.094   1.405 -0.3514 -0.1569 -0.1301
  923SOL    HW2 3464   4.514   2.090   1.312  0.3557  0.7826 -0.3522
  923SOL    HW3 3465   4.453   2.084   1.451 -1.1728  2.4497 -0.9072
  923SOL    MW4 3466   4.522   2.092   1.399 -0.3665  0.3109 -0.2620
  924SOL     OW 3467   3.604   1.762   1.485 -0.0498  0.0934  0.0190
  924SOL    HW2 3468   3.514   1.762   1.454 -0.8582  0.8012  2.1782
  924SOL    HW3 3469   3.654   1.801   1.413 -1.5676  0.4014 -0.9180
  924SOL    MW4 3470   3.599   1.767   1.471 -0.3567  0.2274  0.1802
  925SOL     OW 3471   5.629   1.568   4.609  0.5944  0.1598  0.4156
  925SOL    HW2 3472   5.583   1.484   4.609 -0.4532  0.6785 -0.8776
  925SOL    HW3 3473   5.668   1.574   4.696 -0.2589 -1.1540  0.9341
  925SOL    MW4 3474   5.628   1.558   4.620  0.3436  0.0549  0.3134
  926SOL     OW 3475   4.799   4.823   2.016 -0.0432 -0.2468  0.1168
  926SOL    HW2 3476   4.806   4.819   2.111 -0.8757 -1.9053  0.1406
  926SOL    HW3 3477   4.719   4.774   1.995  0.9162 -1.2282 -1.5031
  926SOL    MW4 3478   4.790   4.816   2.025 -0.0264 -0.5951 -0.0938
  927SOL     OW 3479   1.252   3.820   6.384 -0.4252 -0.2934 -0.2598
  927SOL    HW2 3480   1.305   3.816   6.304 -0.4873  0.0647 -0.3211
  927SOL    HW3 3481   1.193   3.895   6.370 -0.3911 -0.1876  0.1490
  927SOL    MW4 3482   1.251   3.830   6.371 -0.4289 -0.2322 -0.2140
  928SOL     OW 3483   4.915   4.034   1.964 -0.6432 -0.0295  0.1672
  928SOL    HW2 3484   4.987   4.027   2.026 -0.7137 -2.0612  0.0962
  928SOL    HW3 3485   4.860   3.957   1.983 -2.6681  1.3091  0.0505
  928SOL    MW4 3486   4.917   4.023   1.975 -0.9197 -0.1210  0.1424
  929SOL     OW 3487   2.437   5.848   1.258  0.0487  0.6587 -0.3594
  929SOL    HW2 3488   2.360   5.903   1.273 -2.4750 -2.4656 -0.6835
  929SOL    HW3 3489   2.446   5.845   1.162  1.2207  1.7743 -0.3002
  929SOL    MW4 3490   2.428   5.855   1.247 -0.1296  0.3937 -0.3944
  930SOL     OW 3491   0.343   6.040   5.012 -0.9078 -0.2059 -0.0704
  930SOL    HW2 3492   0.355   6.032   5.107  0.7476  0.3118 -0.2025
  930SOL    HW3 3493   0.290   6.119   5.001  0.1454  0.5891  0.3861
  930SOL    MW4 3494   0.338   6.049   5.023 -0.5504 -0.0327 -0.0276
  931SOL     OW 3495   6.147   1.819   2.991 -0.2563  0.2125  0.0756
  931SOL    HW2 3496   6.142   1.786   2.901 -2.8658 -0.6410  0.4324
  931SOL    HW3 3497   6.147   1.914   2.983  0.2029  0.1409 -0.8279
  931SOL    MW4 3498   6.146   1.827   2.978 -0.5400  0.0905  0.0035
  932SOL     OW 3499   3.281   3.153   0.789 -0.0859 -0.0633  0.2525
  932SOL    HW2 3500   3.268   3.155   0.694 -0.2859 -0.5739  0.2707
  932SOL    HW3 3501   3.207   3.103   0.822  1.6522 -2.6843  0.4012
  932SOL    MW4 3502   3.269   3.147   0.780  0.1170 -0.4765  0.2746
  933SOL     OW 3503   5.350   2.774   3.032 -0.0841  0.2152 -0.0900
  933SOL    HW2 3504   5.281   2.745   2.973 -1.0740  2.1677  0.0325
  933SOL    HW3 3505   5.379   2.694   3.076 -1.1167 -0.8887 -1.3236
  933SOL    MW4 3506   5.345   2.760   3.030 -0.3510  0.3271 -0.2366
  934SOL     OW 3507   2.042   5.588   2.141  0.6709  0.3253 -0.3036
  934SOL    HW2 3508   2.104   5.581   2.069  0.9915  0.5141 -0.0472
  934SOL    HW3 3509   2.088   5.639   2.208  0.7931 -0.7616  0.4774
  934SOL    MW4 3510   2.056   5.594   2.141  0.7293  0.2068 -0.1667
  935SOL     OW 3511   2.256   4.369   3.631 -0.2532  0.4212 -0.3277
  935SOL    HW2 3512   2.222   4.441   3.684  0.5410  0.7026 -0.1908
  935SOL    HW3 3513   2.347   4.394   3.612 -0.3693  0.1010 -1.4083
  935SOL    MW4 3514   2.263   4.382   3.635 -0.1637  0.4161 -0.4522
  936SOL     OW 3515   4.700   2.615   4.294 -0.6549  0.0786  0.7184
  936SOL    HW2 3516   4.647   2.570   4.359 -1.5631  0.2459  0.1178
  936SOL    HW3 3517   4.654   2.600   4.211  0.5679 -0.2825  0.0796
  936SOL    MW4 3518   4.687   2.607   4.291 -0.6134  0.0530  0.5548
  937SOL     OW 3519   0.220   3.136   3.034  0.2021  0.0828  0.0917
  937SOL    HW2 3520   0.202   3.057   2.984  2.0528 -0.1652 -0.2475
  937SOL    HW3 3521   0.143   3.191   3.020 -0.5762 -1.1469 -0.6627
  937SOL    MW4 3522   0.208   3.133   3.026  0.3436 -0.1121 -0.0526
  938SOL     OW 3523   0.156   2.773   1.234  0.2290  0.1241 -0.3578
  938SOL    HW2 3524   0.228   2.830   1.205 -1.2560  2.0341 -0.4361
  938SOL    HW3 3525   0.170   2.762   1.328  0.0587  1.3365 -0.1845
  938SOL    MW4 3526   0.168   2.779   1.242  0.0106  0.5361 -0.3453
  939SOL     OW 3527   5.959   0.154   5.186  0.4320  0.2156  0.0166
  939SOL    HW2 3528   5.869   0.145   5.216  0.6476 -0.8383  0.4011
  939SOL    HW3 3529   6.005   0.194   5.260  0.2677  0.8628 -0.2227
  939SOL    MW4 3530   5.953   0.158   5.200  0.4388  0.1620  0.0358
  940SOL     OW 3531   4.128   4.262   2.040 -0.1006 -0.1145  0.4863
  940SOL    HW2 3532   4.123   4.346   1.995 -1.4073  0.6588  1.9621
  940SOL    HW3 3533   4.217   4.231   2.023  1.0289  2.4040  1.2674
  940SOL    MW4 3534   4.139   4.269   2.032 -0.1240  0.3198  0.7841
  941SOL     OW 3535   5.068   2.230   5.702  0.0784 -0.1655  0.0861
  941SOL    HW2 3536   5.007   2.224   5.629 -2.4087  0.0590  1.9971
  941SOL    HW3 3537   5.037   2.165   5.765  1.9540 -0.1591  1.1014
  941SOL    MW4 3538   5.056   2.221   5.701 -0.0023 -0.1351  0.4722
  942SOL     OW 3539   5.720   0.154   4.460 -0.0677 -0.1935  0.4793
  942SOL    HW2 3540   5.710   0.130   4.368 -0.4263  0.3373  0.3750
  942SOL    HW3 3541   5.803   0.114   4.486  0.5322  0.4615 -0.3507
  942SOL    MW4 3542   5.730   0.146   4.451 -0.0359 -0.0370  0.3561
  943SOL     OW 3543   4.070   3.270   3.406  0.2762  0.2557 -0.3877
  943SOL    HW2 3544   4.091   3.212   3.333  1.1199  0.8870 -0.6503
  943SOL    HW3 3545   3.982   3.243   3.433 -0.3203  0.4177 -2.0419
  943SOL    MW4 3546   4.061   3.259   3.400  0.3088  0.3604 -0.6406
  944SOL     OW 3547   6.262   5.819   1.225 -0.2287  0.5906  0.0702
  944SOL    HW2 3548   6.249   5.790   1.135 -2.3041 -1.5979  0.9872
  944SOL    HW3 3549   6.214   5.901   1.231  0.3398  1.0110 -0.9181
  944SOL    MW4 3550   6.254   5.826   1.214 -0.4276  0.3573  0.0608
  945SOL     OW 3551   5.446   5.936   4.903 -0.2498  0.1305 -0.0437
  945SOL    HW2 3552   5.452   6.025   4.937 -1.3290  0.0743  0.3136
  945SOL    HW3 3553   5.497   5.938   4.822 -0.4318  1.1188 -0.1422
  945SOL    MW4 3554   5.454   5.948   4.897 -0.4162  0.2535 -0.0096
  946SOL     OW 3555   2.915   4.011   1.732  0.4797 -0.4869  0.4464
  946SOL    HW2 3556   2.946   4.101   1.730 -0.0594 -0.3036  0.0159
  946SOL    HW3 3557   2.992   3.959   1.754  1.1377 -0.0652 -0.7553
  946SOL    MW4 3558   2.929   4.016   1.735  0.4954 -0.4070  0.2310
  947SOL     OW 3559   0.798   4.136   4.930 -0.0668 -0.3626  0.4117
  947SOL    HW2 3560   0.860   4.119   5.001  0.9322  0.6692 -0.1673
  947SOL    HW3 3561   0.815   4.066   4.867  1.2299  0.4462 -0.1790
  947SOL    MW4 3562   0.809   4.124   4.931  0.2361 -0.1198  0.2574
  948SOL     OW 3563   3.947   1.697   1.900 -0.3969  0.2952 -0.0217
  948SOL    HW2 3564   3.963   1.789   1.879  0.1110 -0.2154 -2.1523
  948SOL    HW3 3565   4.026   1.668   1.945 -0.5285  0.8795  0.5904
  948SOL    MW4 3566   3.959   1.705   1.903 -0.3472  0.3049 -0.2220
  949SOL     OW 3567   5.952   5.594   5.102  0.3398 -0.0036 -0.1076
  949SOL    HW2 3568   5.943   5.567   5.011  0.6812  0.2648 -0.2237
  949SOL    HW3 3569   6.043   5.574   5.125 -0.1211 -1.3777  0.6161
  949SOL    MW4 3570   5.963   5.588   5.093  0.3240 -0.1495 -0.0274
  950SOL     OW 3571   2.096   0.119   0.583  0.2177  0.3926 -0.1138
  950SOL    HW2 3572   2.098   0.118   0.487 -2.2417  2.2162 -0.2716
  950SOL    HW3 3573   2.188   0.110   0.608  0.7587 -2.3257 -2.5207
  950SOL    MW4 3574   2.109   0.118   0.574 -0.0354  0.2745 -0.4522
  951SOL     OW 3575   1.583   5.986   5.571  0.8185 -0.1651 -0.1709
  951SOL    HW2 3576   1.628   5.959   5.651  0.8060 -1.3322 -0.5383
  951SOL    HW3 3577   1.567   6.080   5.582  0.1252 -0.4501  1.5288
  951SOL    MW4 3578   1.587   5.995   5.583  0.7254 -0.3567  0.0048
  952SOL     OW 3579   3.313   0.712   1.249  0.1076  1.0804  0.3367
  952SOL    HW2 3580   3.408   0.698   1.243  0.4194  2.9041  0.3976
  952SOL    HW3 3581   3.277   0.666   1.173  0.9762  0.0208  0.5371
  952SOL    MW4 3582   3.321   0.704   1.238  0.2633  1.1812  0.3712
  953SOL     OW 3583   1.860   4.222   0.994 -0.2960 -0.0045  0.5155
  953SOL    HW2 3584   1.890   4.267   0.915  0.1009 -0.5442  0.3539
  953SOL    HW3 3585   1.918   4.146   1.002 -1.7864 -1.2407  0.0246
  953SOL    MW4 3586   1.871   4.218   0.984 -0.4403 -0.2388  0.4294
  954SOL     OW 3587   3.455   5.647   2.719  0.2897 -0.6972  0.4318
  954SOL    HW2 3588   3.507   5.634   2.798 -0.0012 -2.0037  0.4257
  954SOL    HW3 3589   3.481   5.733   2.687 -0.7412  0.5980  2.8081
  954SOL    MW4 3590   3.465   5.657   2.725  0.1153 -0.6987  0.7445
  955SOL     OW 3591   6.080   0.983   2.663  0.0456  0.3020  0.3120
  955SOL    HW2 3592   6.126   1.054   2.708 -0.2830  0.0059  1.1398
  955SOL    HW3 3593   6.064   0.918   2.731 -1.6200  0.4164  0.0831
  955SOL    MW4 3594   6.084   0.984   2.678 -0.2175  0.2781  0.3911
  956SOL     OW 3595   1.988   0.930   0.485  0.8152 -0.1758  0.0972
  956SOL    HW2 3596   2.075   0.905   0.454  0.4533 -0.1882 -0.9527
  956SOL    HW3 3597   1.940   0.847   0.493  0.7299 -0.1249  0.1169
  956SOL    MW4 3598   1.993   0.916   0.482  0.7562 -0.1707 -0.0387
  957SOL     OW 3599   5.726   1.087   1.429  0.4106 -0.0923  0.0986
  957SOL    HW2 3600   5.805   1.100   1.377  0.8785  1.4435  1.1497
  957SOL    HW3 3601   5.751   1.024   1.497  1.0386  1.1461  1.0357
  957SOL    MW4 3602   5.740   1.080   1.431  0.5552  0.2737  0.3609
  958SOL     OW 3603   1.355   3.061   1.564  0.8377 -0.9565 -0.0336
  958SOL    HW2 3604   1.292   3.124   1.600 -1.9849 -1.9584 -2.7751
  958SOL    HW3 3605   1.345   2.984   1.619 -2.1023 -1.8538 -1.6029
  958SOL    MW4 3606   1.345   3.059   1.576  0.0774 -1.2071 -0.6024
  959SOL     OW 3607   5.271   1.676   0.473  0.2150 -0.0676  0.6052
  959SOL    HW2 3608   5.184   1.673   0.432  0.6022  1.7211 -0.4810
  959SOL    HW3 3609   5.260   1.732   0.549  0.6160  1.1317 -0.1867
  959SOL    MW4 3610   5.258   1.683   0.478  0.3190  0.3266  0.3574
  960SOL     OW 3611   1.188   6.062   6.183 -0.6633  0.1376 -0.1779
  960SOL    HW2 3612   1.270   6.067   6.232  0.6365  0.0247 -2.2348
  960SOL    HW3 3613   1.120   6.058   6.251  1.1717 -5.0457  1.8455
  960SOL    MW4 3614   1.189   6.062   6.199 -0.2497 -0.5612 -0.1823
  961SOL     OW 3615   4.624   4.536   4.134 -0.2774  0.2235 -0.3945
  961SOL    HW2 3616   4.584   4.622   4.126  0.4704  0.6151  0.0355
  961SOL    HW3 3617   4.565   4.488   4.193 -0.1267  0.7955  0.2327
  961SOL    MW4 3618   4.611   4.541   4.141 -0.1589  0.3507 -0.2550
  962SOL     OW 3619   4.118   1.729   4.547  0.6227 -0.3250  0.0076
  962SOL    HW2 3620   4.199   1.780   4.536  1.8758 -2.1035  0.6307
  962SOL    HW3 3621   4.078   1.766   4.626  0.9893  0.3612 -0.1138
  962SOL    MW4 3622   4.124   1.741   4.556  0.8364 -0.4691  0.0738
  963SOL     OW 3623   6.026   3.038   2.205 -0.4960  0.0147  0.1832
  963SOL    HW2 3624   6.050   3.054   2.296  3.3907  2.2427 -0.9868
  963SOL    HW3 3625   5.982   3.118   2.177  0.0806  0.1757 -0.3170
  963SOL    MW4 3626   6.024   3.050   2.213  0.0928  0.3299 -0.0372
  964SOL     OW 3627   2.149   1.190   3.046 -0.1888  0.2714 -0.3386
  964SOL    HW2 3628   2.141   1.280   3.013 -1.4713 -0.4605 -2.2019
  964SOL    HW3 3629   2.234   1.160   3.015 -0.3221  0.4126 -0.8424
  964SOL    MW4 3630   2.159   1.198   3.038 -0.3756  0.1935 -0.6509
  965SOL     OW 3631   0.153   1.638   2.126 -0.2601 -0.4691  0.4027
  965SOL    HW2 3632   0.085   1.590   2.174 -0.6083  0.2618  0.6676
  965SOL    HW3 3633   0.104   1.687   2.060  0.0745 -0.3848  0.2197
  965SOL    MW4 3634   0.137   1.638   2.124 -0.2619 -0.3615  0.4135
  966SOL     OW 3635   1.738   3.279   5.101 -0.4388 -0.2854 -0.8211
  966SOL    HW2 3636   1.788   3.358   5.079  1.1660 -1.2220 -0.7174
  966SOL    HW3 3637   1.663   3.311   5.150  0.1846  1.1705 -0.7555
  966SOL    MW4 3638   1.735   3.294   5.104 -0.1448 -0.2169 -0.7988
  967SOL     OW 3639   6.302   1.319   3.867 -0.6284  0.3834  0.1369
  967SOL    HW2 3640   6.393   1.314   3.894 -0.1334  2.6681 -0.9100
  967SOL    HW3 3641   6.290   1.244   3.809  0.3506 -0.3666  0.8786
  967SOL    MW4 3642   6.312   1.308   3.863 -0.4339  0.5859  0.0966
  968SOL     OW 3643   2.994   2.636   0.995  0.1072 -0.1390 -0.1399
  968SOL    HW2 3644   3.068   2.626   1.055 -0.6912  1.3365  1.1772
  968SOL    HW3 3645   2.996   2.557   0.942  1.6811 -0.8766  0.9169
  968SOL    MW4 3646   3.004   2.624   0.996  0.2096 -0.0417  0.1733
  969SOL     OW 3647   0.806   5.564   5.875  0.0996  0.3750  0.3249
  969SOL    HW2 3648   0.834   5.499   5.811  1.2675  1.7845 -0.6415
  969SOL    HW3 3649   0.712   5.548   5.886  0.5474 -2.2263  1.0449
  969SOL    MW4 3650   0.797   5.553   5.868  0.3128  0.2178  0.2924
  970SOL     OW 3651   2.000   1.435   6.386  0.4760 -0.0675 -0.0789
  970SOL    HW2 3652   2.084   1.434   6.432 -0.5411  0.8878  1.9503
  970SOL    HW3 3653   1.953   1.358   6.418  1.4868 -2.1808 -3.2478
  970SOL    MW4 3654   2.005   1.425   6.396  0.4752 -0.2203 -0.2292
  971SOL     OW 3655   0.483   6.256   3.129 -0.8009 -0.9106  0.4136
  971SOL    HW2 3656   0.573   6.261   3.161  0.6197  0.5761 -3.2474
  971SOL    HW3 3657   0.481   6.178   3.075 -2.0749 -1.4934  1.2608
  971SOL    MW4 3658   0.494   6.246   3.126 -0.7815 -0.7913  0.0424
  972SOL     OW 3659   2.354   3.036   0.036  0.4463  0.2795  0.2049
  972SOL    HW2 3660   2.263   3.045   0.005  0.4799 -0.8315 -0.2332
  972SOL    HW3 3661   2.380   3.126   0.058 -1.4316  0.3928  2.3046
  972SOL    MW4 3662   2.345   3.049   0.035  0.2030  0.1479  0.4242
  973SOL     OW 3663   4.912   2.594   1.640  1.1532  0.4818  0.2042
  973SOL    HW2 3664   4.946   2.563   1.556  0.1674  0.3401 -0.1598
  973SOL    HW3 3665   4.841   2.534   1.661  0.4653  1.3519  0.4418
  973SOL    MW4 3666   4.907   2.582   1.632  0.9324  0.5779  0.1875
  974SOL     OW 3667   1.328   5.879   3.930  0.2979 -0.2926 -0.2569
  974SOL    HW2 3668   1.284   5.794   3.935  1.0151 -0.6302  0.6177
  974SOL    HW3 3669   1.360   5.894   4.019  1.8590 -0.0323 -0.8346
  974SOL    MW4 3670   1.327   5.870   3.943  0.5985 -0.3028 -0.2177
  975SOL     OW 3671   5.866   1.350   0.871  0.1070  0.3622  0.2127
  975SOL    HW2 3672   5.878   1.440   0.840  2.3422 -0.1707 -0.6596
  975SOL    HW3 3673   5.948   1.330   0.917 -0.3591 -1.2148  0.4032
  975SOL    MW4 3674   5.879   1.359   0.873  0.3404  0.0838  0.1228
  976SOL     OW 3675   2.335   2.151   3.943 -0.0034 -0.2075 -0.4945
  976SOL    HW2 3676   2.380   2.212   4.001 -1.2114 -1.3006  1.7460
  976SOL    HW3 3677   2.384   2.154   3.861  1.2524  2.1063  0.2543
  976SOL    MW4 3678   2.347   2.160   3.940  0.0029 -0.0465 -0.1001
  977SOL     OW 3679   2.399   4.001   1.771  0.6663  0.2575  0.1304
  977SOL    HW2 3680   2.361   4.027   1.688  0.5708 -0.5240 -0.0802
  977SOL    HW3 3681   2.335   4.026   1.837  0.2772 -0.0675 -0.1252
  977SOL    MW4 3682   2.386   4.008   1.769  0.6023  0.1115  0.0689
  978SOL     OW 3683   5.757   5.147   5.811 -0.8228 -0.1472 -0.3238
  978SOL    HW2 3684   5.691   5.089   5.849 -2.5976  0.4260 -2.3357
  978SOL    HW3 3685   5.714   5.187   5.736  1.8119  0.2981 -1.7397
  978SOL    MW4 3686   5.743   5.144   5.806 -0.7094 -0.0128 -0.7761
  979SOL     OW 3687   5.055   2.173   3.761  0.0209 -0.4458  0.7210
  979SOL    HW2 3688   5.077   2.193   3.852 -2.2158  1.2815  0.9777
  979SOL    HW3 3689   4.986   2.106   3.768  0.3336 -0.8277  0.2474
  979SOL    MW4 3690   5.048   2.167   3.774 -0.2330 -0.2683  0.6924
  980SOL     OW 3691   2.152   0.174   1.009 -0.1286 -0.4403  0.5551
  980SOL    HW2 3692   2.246   0.173   0.993 -0.4391 -1.4265 -1.5311
  980SOL    HW3 3693   2.120   0.248   0.957 -0.5710 -0.3453  0.9566
  980SOL    MW4 3694   2.160   0.184   1.000 -0.2280 -0.5579  0.3328
  981SOL     OW 3695   3.547   2.742   3.791 -0.2429 -0.1290  0.0904
  981SOL    HW2 3696   3.566   2.813   3.730 -0.4270  0.6711  0.9432
  981SOL    HW3 3697   3.492   2.681   3.741 -0.1428  0.3648 -0.6264
  981SOL    MW4 3698   3.542   2.743   3.777 -0.2539  0.0417  0.1083
  982SOL     OW 3699   0.825   4.664   0.097 -0.2284 -0.0558 -0.5658
  982SOL    HW2 3700   0.773   4.589   0.125  0.5258 -0.4384 -0.1442
  982SOL    HW3 3701   0.916   4.633   0.103  0.0494  0.5567 -1.3721
  982SOL    MW4 3702   0.830   4.650   0.101 -0.0923 -0.0255 -0.6165
  983SOL     OW 3703   1.094   4.390   1.042  0.1932 -0.2890  0.2673
  983SOL    HW2 3704   1.082   4.297   1.023  0.6916 -0.1811 -0.6299
  983SOL    HW3 3705   1.048   4.436   0.972  1.3377  0.1217 -0.2475
  983SOL    MW4 3706   1.087   4.384   1.031  0.4100 -0.2205  0.0810
  984SOL     OW 3707   0.945   4.812   2.394 -0.3141 -0.0394  0.0980
  984SOL    HW2 3708   0.858   4.785   2.366 -0.4670  0.4777  0.0680
  984SOL    HW3 3709   0.951   4.784   2.485 -0.5945  0.1095  0.1647
  984SOL    MW4 3710   0.934   4.805   2.402 -0.3712  0.0485  0.1029
  985SOL     OW 3711   3.181   2.749   0.354 -0.0757  0.3855  0.1189
  985SOL    HW2 3712   3.112   2.795   0.307 -1.6458 -0.9262  1.0440
  985SOL    HW3 3713   3.222   2.693   0.289 -1.6051 -0.7170  0.0678
  985SOL    MW4 3714   3.178   2.748   0.340 -0.4846  0.0670  0.2342
  986SOL     OW 3715   3.324   5.494   0.764 -0.0571  0.1658  0.9816
  986SOL    HW2 3716   3.351   5.582   0.737  0.6249 -0.8788 -2.2342
  986SOL    HW3 3717   3.251   5.473   0.705  1.7339 -2.4620 -0.4951
  986SOL    MW4 3718   3.318   5.503   0.752  0.2691 -0.3187  0.3625
  987SOL     OW 3719   1.108   1.314   3.101  0.0283  0.2465 -0.6679
  987SOL    HW2 3720   1.126   1.363   3.021 -0.8449  0.9806 -0.4432
  987SOL    HW3 3721   1.022   1.346   3.129  0.1647 -0.2544  0.3708
  987SOL    MW4 3722   1.099   1.325   3.094 -0.0689  0.2773 -0.5012
  988SOL     OW 3723   3.917   6.248   3.730  0.3570 -0.3293  0.4791
  988SOL    HW2 3724   3.858   6.276   3.800  0.3230 -1.2645  0.8369
  988SOL    HW3 3725   3.949   6.162   3.758  1.9865  0.2012  0.3544
  988SOL    MW4 3726   3.914   6.240   3.743  0.5675 -0.3827  0.5098
  989SOL     OW 3727   0.397   2.798   3.834  0.4375 -0.0350 -0.0623
  989SOL    HW2 3728   0.431   2.743   3.905 -0.4608 -0.2954  0.1794
  989SOL    HW3 3729   0.420   2.887   3.860 -1.9306  0.1362  1.8252
  989SOL    MW4 3730   0.405   2.803   3.847  0.0065 -0.0468  0.2186
  990SOL     OW 3731   2.393   4.408   4.599  0.3178 -0.2169  0.5521
  990SOL    HW2 3732   2.337   4.338   4.633 -1.2792  0.2626 -0.9205
  990SOL    HW3 3733   2.418   4.378   4.511 -0.3562  1.0109 -0.0809
  990SOL    MW4 3734   2.389   4.395   4.592  0.0182  0.0084  0.2743
  991SOL     OW 3735   3.165   5.593   0.266 -0.3219  0.3447 -0.6578
  991SOL    HW2 3736   3.101   5.526   0.290 -1.0815  0.2808 -2.6457
  991SOL    HW3 3737   3.241   5.544   0.235  0.3843  0.4284  0.8562
  991SOL    MW4 3738   3.167   5.578   0.265 -0.3289  0.3473 -0.7203
  992SOL     OW 3739   3.341   2.516   2.469  0.0568 -0.0373  0.2624
  992SOL    HW2 3740   3.420   2.528   2.416 -0.5200  0.8375 -0.4275
  992SOL    HW3 3741   3.350   2.428   2.505  2.1118  0.5866  1.4784
  992SOL    MW4 3742   3.353   2.506   2.467  0.2518  0.1605  0.3318
  993SOL     OW 3743   4.988   0.799   4.521 -0.1931  0.1524  0.1019
  993SOL    HW2 3744   4.903   0.831   4.550 -0.3428  0.9350 -1.1397
  993SOL    HW3 3745   5.044   0.876   4.518 -0.4794  0.3412 -2.6515
  993SOL    MW4 3746   4.984   0.813   4.524 -0.2506  0.2806 -0.4252
  994SOL     OW 3747   2.690   1.734   5.506 -0.1730 -0.3751  0.4851
  994SOL    HW2 3748   2.668   1.816   5.462  3.4825  0.2161 -0.5672
  994SOL    HW3 3749   2.657   1.745   5.595 -0.3585  1.9460  0.1897
  994SOL    MW4 3750   2.683   1.746   5.512  0.2848  0.0091  0.3073
  995SOL     OW 3751   1.564   2.619   2.003 -0.3190  0.1779 -0.3584
  995SOL    HW2 3752   1.584   2.702   2.045 -0.8747  0.0155  0.2501
  995SOL    HW3 3753   1.493   2.582   2.056  1.6592 -1.9152  1.0497
  995SOL    MW4 3754   1.557   2.625   2.016 -0.1313 -0.1197 -0.0924
  996SOL     OW 3755   3.416   3.534   4.786  0.4384 -0.1466  0.4084
  996SOL    HW2 3756   3.426   3.623   4.750 -0.4419  0.4171  1.4819
  996SOL    HW3 3757   3.423   3.477   4.710  1.2430  0.8244 -0.2805
  996SOL    MW4 3758   3.418   3.538   4.771  0.4284  0.0559  0.4592
  997SOL     OW 3759   0.429   5.693   1.303 -0.0236  0.0019 -0.4703
  997SOL    HW2 3760   0.492   5.680   1.232 -1.8926  0.9514 -2.4413
  997SOL    HW3 3761   0.420   5.788   1.310 -0.6764 -0.1044  0.2874
  997SOL    MW4 3762   0.436   5.704   1.294 -0.3563  0.1131 -0.6303
  998SOL     OW 3763   0.269   5.686   2.293 -0.1666  0.1798 -0.2744
  998SOL    HW2 3764   0.290   5.745   2.365 -0.9417 -2.1374  2.0363
  998SOL    HW3 3765   0.351   5.639   2.275 -0.1685  0.1876 -0.3021
  998SOL    MW4 3766   0.282   5.687   2.301 -0.2691 -0.1249  0.0268
  999SOL     OW 3767   1.104   3.003   1.885 -0.0477  0.1773  0.1341
  999SOL    HW2 3768   1.142   2.942   1.821 -0.0248 -0.1147  0.4224
  999SOL    HW3 3769   1.108   2.956   1.968 -0.6932  0.2920  0.2354
  999SOL    MW4 3770   1.110   2.989   1.887 -0.1298  0.1539  0.1855
 1000SOL     OW 3771   1.852   2.836   3.822  0.3366 -0.1575  0.0989
 1000SOL    HW2 3772   1.916   2.864   3.888 -0.3103 -0.9449  1.0940
 1000SOL    HW3 3773   1.839   2.743   3.840 -0.6923 -0.1237 -0.4214
 1000SOL    MW4 3774   1.859   2.827   3.833  0.1155 -0.2569  0.1615
 1001SOL     OW 3775   3.698   1.247   1.766 -0.1612  0.3544  0.2181
 1001SOL    HW2 3776   3.692   1.153   1.745 -0.2013  0.2218  0.8175
 1001SOL    HW3 3777   3.694   1.290   1.681  1.1053 -0.2448 -0.1651
 1001SOL    MW4 3778   3.696   1.240   1.752  0.0006  0.2578  0.2466
 1002SOL     OW 3779   3.368   1.990   6.055 -0.1183 -0.7686 -0.0083
 1002SOL    HW2 3780   3.390   1.981   5.963  0.4675  0.2847  0.0085
 1002SOL    HW3 3781   3.345   1.902   6.083  1.5686 -1.4837 -0.6909
 1002SOL    MW4 3782   3.368   1.977   6.047  0.1815 -0.7240 -0.0962
 1003SOL     OW 3783   0.169   1.789   2.643  0.6369  0.3283  0.2438
 1003SOL    HW2 3784   0.187   1.785   2.549  1.2446 -0.4951  0.3803
 1003SOL    HW3 3785   0.116   1.868   2.655  1.0508  0.7566 -0.7073
 1003SOL    MW4 3786   0.164   1.799   2.632  0.7717  0.2761  0.1363
 1004SOL     OW 3787   1.624   3.858   2.249 -0.5336 -0.0186 -0.1312
 1004SOL    HW2 3788   1.682   3.793   2.211 -2.7620 -0.8868 -2.3093
 1004SOL    HW3 3789   1.550   3.807   2.284 -1.1480  1.1761  0.3908
 1004SOL    MW4 3790   1.622   3.843   2.249 -0.9087  0.0244 -0.3497
 1005SOL     OW 3791   6.410   4.501   5.361  0.4737 -0.3509 -0.3499
 1005SOL    HW2 3792   6.485   4.482   5.418  0.1722  0.5807  0.3963
 1005SOL    HW3 3793   6.448   4.548   5.287  0.4628  1.7222  0.8856
 1005SOL    MW4 3794   6.425   4.505   5.359  0.4325  0.0455 -0.0885
 1006SOL     OW 3795   0.729   5.384   0.461  0.4865  0.1468  0.7023
 1006SOL    HW2 3796   0.815   5.347   0.443 -0.1481 -0.9970 -0.0646
 1006SOL    HW3 3797   0.675   5.310   0.486 -0.7072  0.5689 -0.4808
 1006SOL    MW4 3798   0.734   5.370   0.462  0.2453  0.0516  0.4450
 1007SOL     OW 3799   0.932   5.086   1.557 -0.2039 -0.3541  0.0385
 1007SOL    HW2 3800   0.999   5.019   1.544  1.1762  1.2048 -1.3694
 1007SOL    HW3 3801   0.981   5.169   1.558 -2.0278  0.7827 -0.2188
 1007SOL    MW4 3802   0.947   5.088   1.555 -0.2625  0.0016 -0.1812
 1008SOL     OW 3803   3.500   1.514   3.777 -0.2616 -0.2943 -0.0938
 1008SOL    HW2 3804   3.498   1.582   3.710 -0.6857  0.3685  0.5740
 1008SOL    HW3 3805   3.555   1.550   3.846 -2.1441  0.2790  1.1703
 1008SOL    MW4 3806   3.507   1.528   3.777 -0.5659 -0.1312  0.1611
 1009SOL     OW 3807   5.655   4.036   1.202 -0.1467 -0.7687 -0.0720
 1009SOL    HW2 3808   5.689   4.051   1.114 -0.0574  1.3117  0.2688
 1009SOL    HW3 3809   5.598   4.111   1.218  1.0003 -0.2994  2.1928
 1009SOL    MW4 3810   5.652   4.048   1.193  0.0164 -0.4323  0.2718
 1010SOL     OW 3811   4.049   4.014   0.967 -0.0672  0.0853 -0.1383
 1010SOL    HW2 3812   4.049   3.919   0.964  0.9745  0.0783 -0.2847
 1010SOL    HW3 3813   3.994   4.036   1.042  0.4708 -0.6657  0.4942
 1010SOL    MW4 3814   4.042   4.005   0.976  0.1412 -0.0147 -0.0742
 1011SOL     OW 3815   0.734   3.415   3.227 -0.3063  0.2099 -0.4025
 1011SOL    HW2 3816   0.644   3.383   3.225 -0.0324 -0.8545  1.5755
 1011SOL    HW3 3817   0.788   3.336   3.226  0.5569  0.7819 -0.0883
 1011SOL    MW4 3818   0.729   3.400   3.227 -0.1563  0.1449 -0.1001
 1012SOL     OW 3819   3.749   3.753   1.055 -0.1141  0.0356  0.1587
 1012SOL    HW2 3820   3.788   3.830   1.097 -2.9228  1.4384  0.3825
 1012SOL    HW3 3821   3.814   3.727   0.990  1.9910  1.0761  1.7034
 1012SOL    MW4 3822   3.763   3.760   1.052 -0.2069  0.3579  0.3921
 1013SOL     OW 3823   4.524   6.038   5.278 -0.4596  0.1830  0.4105
 1013SOL    HW2 3824   4.613   6.070   5.293  0.4824 -2.6227  1.3980
 1013SOL    HW3 3825   4.475   6.116   5.250  1.9346  2.1016  1.2144
 1013SOL    MW4 3826   4.529   6.053   5.276 -0.0194  0.0660  0.6469
 1014SOL     OW 3827   5.710   5.199   1.648 -0.1056  0.4158  0.3620
 1014SOL    HW2 3828   5.771   5.134   1.613  0.2529  0.8531  0.1613
 1014SOL    HW3 3829   5.766   5.264   1.689 -0.5396 -0.2973  2.1641
 1014SOL    MW4 3830   5.726   5.199   1.649 -0.1155  0.3794  0.5733
 1015SOL     OW 3831   5.214   5.820   5.353  0.0670 -0.2020 -0.1751
 1015SOL    HW2 3832   5.263   5.897   5.323  1.4958 -1.6021 -1.5837
 1015SOL    HW3 3833   5.138   5.857   5.398  2.7651  2.0704  2.9261
 1015SOL    MW4 3834   5.210   5.835   5.355  0.6115 -0.0869  0.0482
 1016SOL     OW 3835   2.816   4.068   6.174 -0.1060 -0.3762  0.6918
 1016SOL    HW2 3836   2.819   4.163   6.157  1.9120 -0.5185 -0.0449
 1016SOL    HW3 3837   2.852   4.028   6.095  0.3800 -1.6676  1.5289
 1016SOL    MW4 3838   2.821   4.076   6.161  0.2244 -0.5654  0.7050
 1017SOL     OW 3839   2.452   3.378   1.043 -0.8861 -0.0905  0.1815
 1017SOL    HW2 3840   2.524   3.372   0.979 -1.5672  2.5023 -0.9892
 1017SOL    HW3 3841   2.373   3.363   0.991 -1.3558  0.0824  0.8399
 1017SOL    MW4 3842   2.451   3.375   1.028 -1.0379  0.2744  0.1139
 1018SOL     OW 3843   2.980   0.992   5.018  0.0317 -0.2428 -0.3128
 1018SOL    HW2 3844   3.072   1.017   5.014  0.3011 -1.0853  0.3121
 1018SOL    HW3 3845   2.960   0.963   4.929  0.4548 -0.3557 -0.3751
 1018SOL    MW4 3846   2.990   0.992   5.006  0.1231 -0.3689 -0.2385
 1019SOL     OW 3847   1.706   3.508   1.301 -0.0783  0.2928  0.1931
 1019SOL    HW2 3848   1.641   3.573   1.327 -1.5651 -1.0511  0.0012
 1019SOL    HW3 3849   1.654   3.431   1.278  1.6184 -0.9605  0.3981
 1019SOL    MW4 3850   1.691   3.507   1.302 -0.0506 -0.0499  0.1948
 1020SOL     OW 3851   3.014   0.310   4.532 -0.3555  0.2333  0.1859
 1020SOL    HW2 3852   2.994   0.299   4.439 -2.3966 -0.5644  0.6567
 1020SOL    HW3 3853   3.050   0.398   4.539 -0.5909  0.4723 -1.3012
 1020SOL    MW4 3854   3.016   0.320   4.521 -0.6559  0.1596  0.0518
 1021SOL     OW 3855   1.771   6.406   2.962 -0.1496  0.2772 -0.7760
 1021SOL    HW2 3856   1.812   6.441   2.883 -0.3996 -0.6266 -1.3188
 1021SOL    HW3 3857   1.680   6.391   2.938 -0.1505 -0.3147 -0.4194
 1021SOL    MW4 3858   1.765   6.409   2.949 -0.1827  0.0799 -0.8006
 1022SOL     OW 3859   1.169   0.973   5.477 -1.0026  0.3843  0.2264
 1022SOL    HW2 3860   1.086   0.928   5.458 -1.8330  1.7082  0.5149
 1022SOL    HW3 3861   1.226   0.905   5.513 -1.9139 -0.5922 -0.1060
 1022SOL    MW4 3862   1.165   0.958   5.479 -1.2324  0.4301  0.2206
 1023SOL     OW 3863   5.839   5.367   3.387  0.0348 -0.0389 -0.0793
 1023SOL    HW2 3864   5.751   5.358   3.352  0.5105 -1.0972 -1.0807
 1023SOL    HW3 3865   5.895   5.325   3.322  1.4129  1.5537  0.0172
 1023SOL    MW4 3866   5.835   5.360   3.374  0.2794  0.0316 -0.1987
 1024SOL     OW 3867   2.750   4.026   4.240 -0.1372 -0.3063  0.7787
 1024SOL    HW2 3868   2.753   3.935   4.209  0.0544 -1.0207  2.7934
 1024SOL    HW3 3869   2.678   4.065   4.191  0.8138 -1.0245 -1.3515
 1024SOL    MW4 3870   2.741   4.019   4.229  0.0135 -0.4953  0.7635
 1025SOL     OW 3871   2.863   2.338   3.646 -0.1057  0.4390 -0.5667
 1025SOL    HW2 3872   2.776   2.353   3.683 -0.4094  0.0345 -1.0976
 1025SOL    HW3 3873   2.907   2.283   3.710  0.9803  3.2921  1.3713
 1025SOL    MW4 3874   2.857   2.333   3.659 -0.0024  0.7621 -0.3810
 1026SOL     OW 3875   2.621   0.009   0.638  0.0469  0.1405  0.0825
 1026SOL    HW2 3876   2.525   0.007   0.640 -0.0124  1.2240 -0.5978
 1026SOL    HW3 3877   2.645  -0.062   0.579 -0.3961  0.3988 -0.4242
 1026SOL    MW4 3878   2.612   0.000   0.630 -0.0193  0.3175 -0.0741
 1027SOL     OW 3879   5.178   4.144   4.595 -0.3874 -0.2210  0.0092
 1027SOL    HW2 3880   5.254   4.202   4.596  1.2959 -2.2655 -1.0985
 1027SOL    HW3 3881   5.138   4.158   4.509 -1.4246  0.9479  0.6389
 1027SOL    MW4 3882   5.183   4.154   4.584 -0.3022 -0.3365 -0.0538
 1028SOL     OW 3883   5.251   4.859   2.796 -0.4761 -0.6201  0.6937
 1028SOL    HW2 3884   5.294   4.842   2.880  2.3770 -1.5398 -0.8049
 1028SOL    HW3 3885   5.301   4.931   2.758 -0.9020 -1.0576 -0.7376
 1028SOL    MW4 3886   5.263   4.866   2.802 -0.1558 -0.7992  0.3071
 1029SOL     OW 3887   3.289   0.737   5.643  0.1506  0.8692  0.1400
 1029SOL    HW2 3888   3.241   0.690   5.710 -1.4727  3.7715  1.1882
 1029SOL    HW3 3889   3.379   0.742   5.676 -0.0247 -0.0392  0.7700
 1029SOL    MW4 3890   3.295   0.732   5.656 -0.0867  1.1323  0.3614
 1030SOL     OW 3891   2.613   4.979   3.692  0.0703  0.5540 -0.3470
 1030SOL    HW2 3892   2.663   5.013   3.618 -0.7317 -0.2422 -1.2908
 1030SOL    HW3 3893   2.556   4.912   3.653  1.9504 -2.3259  1.4495
 1030SOL    MW4 3894   2.612   4.975   3.677  0.2126  0.0690 -0.2345
 1031SOL     OW 3895   0.597   4.702   5.061 -0.1336 -0.3076  0.1006
 1031SOL    HW2 3896   0.625   4.765   5.127 -0.5254 -0.6851  0.6426
 1031SOL    HW3 3897   0.615   4.617   5.101  0.0292 -0.5390 -0.4642
 1031SOL    MW4 3898   0.603   4.699   5.075 -0.1638 -0.3879  0.0976
 1032SOL     OW 3899   6.071   4.654   0.162  0.6945 -0.1710  0.2842
 1032SOL    HW2 3900   6.115   4.673   0.079 -1.2783 -0.2057 -0.8331
 1032SOL    HW3 3901   6.121   4.582   0.200  1.4141 -0.4118 -1.0604
 1032SOL    MW4 3902   6.083   4.647   0.156  0.5292 -0.2073 -0.0406
 1033SOL     OW 3903   1.049   1.583   2.570 -0.0694  0.7080  0.6730
 1033SOL    HW2 3904   0.958   1.612   2.571 -0.3621 -0.1780  1.1880
 1033SOL    HW3 3905   1.099   1.660   2.543 -1.2490  0.4559 -2.8057
 1033SOL    MW4 3906   1.043   1.597   2.567 -0.2637  0.5578  0.2820
 1034SOL     OW 3907   3.923   1.932   0.564  0.2261  0.5974  0.1309
 1034SOL    HW2 3908   4.008   1.888   0.573 -1.5300 -2.7576  2.2579
 1034SOL    HW3 3909   3.882   1.891   0.488  0.6422  2.7460 -1.3666
 1034SOL    MW4 3910   3.929   1.921   0.555  0.0493  0.4382  0.2139
 1035SOL     OW 3911   6.286   4.194   3.409  0.4142 -0.0377  0.5298
 1035SOL    HW2 3912   6.311   4.275   3.364  1.5595  0.3991  1.8621
 1035SOL    HW3 3913   6.241   4.224   3.488  2.0807 -0.6054  1.7539
 1035SOL    MW4 3914   6.284   4.209   3.414  0.7852 -0.0550  0.8671
 1036SOL     OW 3915   6.025   0.887   5.195  0.5150  0.4154  0.4503
 1036SOL    HW2 3916   6.100   0.947   5.205  0.2189  0.7544  0.6978
 1036SOL    HW3 3917   5.948   0.943   5.209  0.2098  0.1010  0.0397
 1036SOL    MW4 3918   6.025   0.902   5.198  0.4356  0.4187  0.4288
 1037SOL     OW 3919   4.899   4.163   3.095  0.2059  0.6948 -0.0656
 1037SOL    HW2 3920   4.879   4.185   3.186  0.0552  0.0855  0.0542
 1037SOL    HW3 3921   4.813   4.151   3.054  0.2873 -1.2546  0.2754
 1037SOL    MW4 3922   4.885   4.165   3.101  0.1968  0.3572 -0.0048
 1038SOL     OW 3923   4.568   3.800   2.703  0.0794 -0.2323 -0.0695
 1038SOL    HW2 3924   4.554   3.710   2.734  0.9899 -0.1241  0.7061
 1038SOL    HW3 3925   4.607   3.789   2.616 -2.4498 -0.5365 -1.2495
 1038SOL    MW4 3926   4.572   3.786   2.696 -0.1341 -0.2582 -0.1229
 1039SOL     OW 3927   5.401   2.637   0.089 -0.2156 -0.3837  0.0708
 1039SOL    HW2 3928   5.479   2.656   0.037 -0.0481  0.0715  0.4894
 1039SOL    HW3 3929   5.330   2.631   0.024 -0.1035  0.7122 -0.1643
 1039SOL    MW4 3930   5.402   2.639   0.074 -0.1787 -0.1791  0.0950
 1040SOL     OW 3931   5.066   1.888   2.721  0.6097 -0.3995 -0.1354
 1040SOL    HW2 3932   5.137   1.888   2.786  1.4771  0.2529 -1.0536
 1040SOL    HW3 3933   5.030   1.976   2.725  0.9053 -0.2460 -0.7812
 1040SOL    MW4 3934   5.071   1.899   2.730  0.7632 -0.2932 -0.3418
 1041SOL     OW 3935   1.423   1.216   1.021  0.1706  0.0876  0.5084
 1041SOL    HW2 3936   1.511   1.179   1.031  0.6418  0.5367 -1.5679
 1041SOL    HW3 3937   1.365   1.142   1.040  1.0504 -0.8954 -0.4473
 1041SOL    MW4 3938   1.427   1.201   1.025  0.3489  0.0171  0.1084
 1042SOL     OW 3939   4.650   3.339   5.165 -0.1923  0.5270  0.1626
 1042SOL    HW2 3940   4.650   3.362   5.072 -0.8789 -0.3139 -0.0599
 1042SOL    HW3 3941   4.739   3.307   5.181 -0.3643 -0.3095 -0.4743
 1042SOL    MW4 3942   4.662   3.338   5.155 -0.3056  0.3057  0.0492
 1043SOL     OW 3943   5.965   5.209   1.003 -0.2442 -0.1972 -0.1856
 1043SOL    HW2 3944   6.041   5.189   0.947 -1.5858 -1.3185 -1.7034
 1043SOL    HW3 3945   5.958   5.133   1.060  0.9561  0.8257  1.4076
 1043SOL    MW4 3946   5.974   5.196   1.003 -0.2629 -0.2102 -0.1757
 1044SOL     OW 3947   0.451   3.824   4.310 -0.0981 -0.0494  0.3942
 1044SOL    HW2 3948   0.388   3.838   4.381 -1.1123  0.8629 -0.6317
 1044SOL    HW3 3949   0.439   3.899   4.252  3.2808  1.1680  1.0629
 1044SOL    MW4 3950   0.441   3.836   4.312  0.2139  0.2316  0.3470
 1045SOL     OW 3951   5.848   6.428   0.637  0.1711 -0.4952  0.2144
 1045SOL    HW2 3952   5.785   6.452   0.569  0.7548  0.3866 -0.0417
 1045SOL    HW3 3953   5.920   6.490   0.625  1.2335 -1.6746  0.3018
 1045SOL    MW4 3954   5.849   6.439   0.627  0.3883 -0.5345  0.1921
 1046SOL     OW 3955   6.244   1.973   5.592 -0.3510  0.4019  0.7179
 1046SOL    HW2 3956   6.327   1.926   5.597 -0.0161  0.7053 -1.1571
 1046SOL    HW3 3957   6.179   1.911   5.622  0.2802 -0.7407 -0.1855
 1046SOL    MW4 3958   6.247   1.959   5.596 -0.2235  0.2912  0.3513
 1047SOL     OW 3959   3.003   1.954   1.414 -0.4883  0.1935  0.3492
 1047SOL    HW2 3960   2.973   1.974   1.502 -1.9071 -1.3735  0.2849
 1047SOL    HW3 3961   3.091   1.992   1.408 -0.7354  1.1070  2.1045
 1047SOL    MW4 3962   3.011   1.961   1.425 -0.7081  0.1073  0.5723
 1048SOL     OW 3963   5.795   2.170   2.441  0.4704 -0.4711  0.4923
 1048SOL    HW2 3964   5.755   2.253   2.417  1.3394 -0.0035  0.6414
 1048SOL    HW3 3965   5.721   2.112   2.457 -0.1424 -0.3063 -1.5290
 1048SOL    MW4 3966   5.780   2.173   2.440  0.5042 -0.3876  0.2453
 1049SOL     OW 3967   5.671   5.455   5.648  0.1789 -0.0206  0.7224
 1049SOL    HW2 3968   5.759   5.475   5.616 -0.8245  0.2637 -2.0578
 1049SOL    HW3 3969   5.613   5.505   5.591 -1.8403 -0.6691  2.1151
 1049SOL    MW4 3970   5.675   5.464   5.637 -0.2199 -0.0686  0.5393
 1050SOL     OW 3971   0.986   2.388   2.569 -0.6645 -0.4306 -0.6418
 1050SOL    HW2 3972   0.945   2.316   2.618 -0.7878 -1.2334 -1.8706
 1050SOL    HW3 3973   1.079   2.366   2.568 -0.0501  1.4668  2.2724
 1050SOL    MW4 3974   0.993   2.375   2.575 -0.5997 -0.2862 -0.4194
 1051SOL     OW 3975   1.299   3.736   1.397 -0.2969 -0.6206  0.3657
 1051SOL    HW2 3976   1.232   3.771   1.456  0.4742 -3.6856  3.3723
 1051SOL    HW3 3977   1.279   3.643   1.389  2.6617 -1.3565  0.1414
 1051SOL    MW4 3978   1.288   3.728   1.404  0.1952 -1.1221  0.7328
 1052SOL     OW 3979   1.593   4.190   3.568  0.1536  0.0314  0.1444
 1052SOL    HW2 3980   1.651   4.164   3.497 -1.9893  0.9372 -2.1086
 1052SOL    HW3 3981   1.564   4.107   3.607  0.2023 -0.5786 -1.0704
 1052SOL    MW4 3982   1.597   4.176   3.564 -0.1227  0.0704 -0.3132
 1053SOL     OW 3983   3.708   1.463   4.715  0.0067 -0.4745  0.1945
 1053SOL    HW2 3984   3.666   1.378   4.725 -0.5649 -0.2643 -0.4094
 1053SOL    HW3 3985   3.639   1.522   4.686  0.6149 -0.0319 -0.4094
 1053SOL    MW4 3986   3.694   1.459   4.713  0.0115 -0.3883  0.0352
 1054SOL     OW 3987   0.481   2.760   1.750 -0.0045  0.7375 -0.0454
 1054SOL    HW2 3988   0.427   2.681   1.760  0.1152  0.7025  0.3031
 1054SOL    HW3 3989   0.432   2.828   1.797 -0.3476  0.9864 -0.7430
 1054SOL    MW4 3990   0.467   2.759   1.757 -0.0340  0.7657 -0.0915
 1055SOL     OW 3991   4.337   0.931   4.023  0.3893 -0.0896 -0.0635
 1055SOL    HW2 3992   4.346   0.966   3.934 -0.5471 -0.8284 -0.4783
 1055SOL    HW3 3993   4.354   0.837   4.013 -1.4167 -0.4841  0.1841
 1055SOL    MW4 3994   4.340   0.923   4.010  0.0275 -0.2391 -0.0855
 1056SOL     OW 3995   4.549   5.530   0.095 -0.5254 -0.7185 -0.3538
 1056SOL    HW2 3996   4.499   5.556   0.172  0.6480  1.2861 -0.1814
 1056SOL    HW3 3997   4.604   5.458   0.125 -1.3931 -1.1835  0.1584
 1056SOL    MW4 3998   4.549   5.524   0.109 -0.4851 -0.5153 -0.2635
 1057SOL     OW 3999   4.805   2.457   0.693  0.1795  0.6098  0.1011
 1057SOL    HW2 4000   4.861   2.498   0.760 -1.6064  1.4244  1.1861
 1057SOL    HW3 4001   4.812   2.515   0.617  2.2652 -0.3423 -0.4782
 1057SOL    MW4 4002   4.813   2.470   0.692  0.2191  0.5917  0.1678
 1058SOL     OW 4003   2.089   4.174   2.327  0.0423 -0.1547  0.4127
 1058SOL    HW2 4004   2.174   4.219   2.335  0.5922 -1.1533  0.3903
 1058SOL    HW3 4005   2.109   4.083   2.349 -0.8417 -0.5856 -0.5402
 1058SOL    MW4 4006   2.103   4.168   2.331 -0.0017 -0.3433  0.2841
 1059SOL     OW 4007   2.761   2.125   6.255 -0.2349  0.4873 -0.1577
 1059SOL    HW2 4008   2.851   2.145   6.279 -0.8812 -0.2188  3.3686
 1059SOL    HW3 4009   2.756   2.030   6.254 -1.1088  0.5114  0.5284
 1059SOL    MW4 4010   2.772   2.115   6.258 -0.4354  0.3973  0.3981
 1060SOL     OW 4011   1.540   5.492   1.565 -0.2296 -0.4205 -0.0191
 1060SOL    HW2 4012   1.600   5.555   1.605  1.2905 -0.1216 -2.5750
 1060SOL    HW3 4013   1.596   5.430   1.520 -1.7867 -2.0103  0.1144
 1060SOL    MW4 4014   1.555   5.492   1.564 -0.2344 -0.5908 -0.3387
 1061SOL     OW 4015   6.428   1.138   4.918 -0.0886  0.0532 -0.0814
 1061SOL    HW2 4016   6.493   1.148   4.988 -0.1834  0.9046 -0.1062
 1061SOL    HW3 4017   6.360   1.202   4.939 -0.0268  0.4530 -1.0397
 1061SOL    MW4 4018   6.428   1.148   4.930 -0.0929  0.2183 -0.2111
 1062SOL     OW 4019   5.636   3.916   0.769 -0.1767 -0.0926 -0.1307
 1062SOL    HW2 4020   5.665   3.993   0.818  2.9301 -0.2220 -1.5804
 1062SOL    HW3 4021   5.557   3.946   0.723  0.2797  1.8342  0.2648
 1062SOL    MW4 4022   5.629   3.930   0.770  0.2934  0.1446 -0.2698
 1063SOL     OW 4023   3.177   2.451   5.172 -0.3881  0.2182  0.6057
 1063SOL    HW2 4024   3.098   2.502   5.190 -1.3325 -1.1002  0.2952
 1063SOL    HW3 4025   3.146   2.371   5.130  1.0547 -0.6850  1.1733
 1063SOL    MW4 4026   3.163   2.447   5.169 -0.3223 -0.0749  0.6396
 1064SOL     OW 4027   5.622   3.176   0.072 -0.0032 -0.7910 -0.2963
 1064SOL    HW2 4028   5.554   3.145   0.132  0.3037  1.0111  1.0924
 1064SOL    HW3 4029   5.679   3.100   0.058 -0.8559 -1.6245  0.6031
 1064SOL    MW4 4030   5.621   3.162   0.078 -0.0752 -0.6632  0.0056
 1065SOL     OW 4031   4.835   4.389   0.555  0.5063  0.4257  0.4779
 1065SOL    HW2 4032   4.755   4.411   0.506  1.1295  2.0573  0.1367
 1065SOL    HW3 4033   4.828   4.439   0.636  0.4388 -0.6948  1.1796
 1065SOL    MW4 4034   4.824   4.398   0.559  0.5796  0.4932  0.5255
 1066SOL     OW 4035   3.111   2.057   4.029  0.8627 -0.0180  0.1902
 1066SOL    HW2 4036   3.190   2.099   3.996 -0.1831  1.8243 -0.1200
 1066SOL    HW3 4037   3.044   2.075   3.963 -0.0099 -0.8620  0.8011
 1066SOL    MW4 4038   3.112   2.065   4.016  0.6096  0.1137  0.2298
 1067SOL     OW 4039   1.441   0.542   2.860 -0.1068 -0.1969  0.3287
 1067SOL    HW2 4040   1.397   0.493   2.929 -1.4404  1.8799  1.0397
 1067SOL    HW3 4041   1.507   0.595   2.906  0.1818 -0.0905 -0.1976
 1067SOL    MW4 4042   1.444   0.543   2.875 -0.2446  0.0911  0.3531
 1068SOL     OW 4043   1.994   4.171   6.087 -0.1585  0.2758  0.1934
 1068SOL    HW2 4044   2.022   4.235   6.152 -0.2111 -0.9059  1.4120
 1068SOL    HW3 4045   2.021   4.086   6.122 -0.7570 -0.4540 -1.0203
 1068SOL    MW4 4046   2.001   4.168   6.100 -0.2444  0.0236  0.1941
 1069SOL     OW 4047   4.174   6.307   3.164 -0.3811  0.0140  0.0445
 1069SOL    HW2 4048   4.120   6.381   3.136 -0.8883 -1.0241 -1.8889
 1069SOL    HW3 4049   4.118   6.256   3.222 -1.1151 -0.4745 -1.0800
 1069SOL    MW4 4050   4.160   6.310   3.168 -0.5449 -0.1874 -0.3590
 1070SOL     OW 4051   3.217   0.601   1.030 -0.2371  0.0243 -0.4044
 1070SOL    HW2 4052   3.295   0.559   0.994  0.4541  0.5141  0.4652
 1070SOL    HW3 4053   3.198   0.673   0.970 -1.4239 -1.4540 -1.9003
 1070SOL    MW4 4054   3.225   0.605   1.018 -0.3025 -0.1061 -0.4870
 1071SOL     OW 4055   0.456   1.120   2.302 -0.3292 -0.3345  0.0120
 1071SOL    HW2 4056   0.415   1.063   2.367  0.0040  0.1262  0.6493
 1071SOL    HW3 4057   0.385   1.144   2.243 -1.0678  0.6622  1.2462
 1071SOL    MW4 4058   0.441   1.116   2.303 -0.3827 -0.1422  0.2589
 1072SOL     OW 4059   4.508   1.413   5.834  1.0301  0.7189 -0.1803
 1072SOL    HW2 4060   4.507   1.411   5.738  1.8131  1.9002 -0.2351
 1072SOL    HW3 4061   4.492   1.505   5.856  2.3129  0.7442  0.7789
 1072SOL    MW4 4062   4.506   1.425   5.824  1.3026  0.8781 -0.0610
 1073SOL     OW 4063   6.127   0.179   2.743  0.0013  0.1768 -0.1847
 1073SOL    HW2 4064   6.093   0.254   2.791 -0.6580 -0.2051 -0.0527
 1073SOL    HW3 4065   6.162   0.121   2.811  0.0412  0.1223 -0.2515
 1073SOL    MW4 4066   6.127   0.181   2.759 -0.0804  0.1192 -0.1761
 1074SOL     OW 4067   3.114   0.135   0.676 -0.3409 -0.2903  0.0388
 1074SOL    HW2 4068   3.125   0.072   0.606 -0.5538  0.3528 -0.5956
 1074SOL    HW3 4069   3.025   0.119   0.709 -1.4325  1.3286 -1.8699
 1074SOL    MW4 4070   3.103   0.125   0.671 -0.5130  0.0081 -0.2967
 1075SOL     OW 4071   5.290   6.382   0.550 -0.3445 -0.0048  0.9175
 1075SOL    HW2 4072   5.373   6.365   0.596  0.5912 -0.4869 -0.8813
 1075SOL    HW3 4073   5.242   6.440   0.609  1.1827  0.1302  2.0913
 1075SOL    MW4 4074   5.294   6.387   0.564 -0.0195 -0.0506  0.8350
 1076SOL     OW 4075   4.690   6.208   1.452 -0.0027  0.5808 -0.5415
 1076SOL    HW2 4076   4.700   6.113   1.444 -1.2203  0.3056  0.7363
 1076SOL    HW3 4077   4.596   6.223   1.439  0.2414  1.6795 -1.1713
 1076SOL    MW4 4078   4.679   6.198   1.449 -0.1312  0.6895 -0.4560
 1077SOL     OW 4079   4.218   1.127   0.829  0.1011 -0.1260 -0.1014
 1077SOL    HW2 4080   4.128   1.132   0.796 -0.4398 -0.9270  1.1958
 1077SOL    HW3 4081   4.225   1.201   0.890  0.1974 -0.2919  0.0899
 1077SOL    MW4 4082   4.207   1.138   0.833  0.0424 -0.2536  0.0950
 1078SOL     OW 4083   1.638   5.215   4.779  0.1136  0.5959  0.0664
 1078SOL    HW2 4084   1.567   5.240   4.839  0.3539  1.5772 -0.0474
 1078SOL    HW3 4085   1.596   5.208   4.694 -0.0819 -0.0707  0.2076
 1078SOL    MW4 4086   1.623   5.217   4.776  0.1195  0.6374  0.0700
 1079SOL     OW 4087   1.754   5.361   2.506 -0.5808 -0.0499  0.4995
 1079SOL    HW2 4088   1.739   5.267   2.502 -1.2610  0.0235  1.1775
 1079SOL    HW3 4089   1.679   5.396   2.554 -0.3210  0.8376  0.2880
 1079SOL    MW4 4090   1.742   5.353   2.512 -0.6363  0.0769  0.5610
 1080SOL     OW 4091   3.416   6.257   3.338 -0.2977  0.2841 -0.5186
 1080SOL    HW2 4092   3.360   6.180   3.326 -1.1452  0.5136  1.5697
 1080SOL    HW3 4093   3.358   6.332   3.321 -0.3743  0.4951  0.5769
 1080SOL    MW4 4094   3.401   6.257   3.334 -0.4196  0.3422 -0.0985
 1081SOL     OW 4095   1.565   4.873   3.427 -0.4057 -0.3191  0.3458
 1081SOL    HW2 4096   1.552   4.802   3.490  0.7006  1.0230  2.1895
 1081SOL    HW3 4097   1.546   4.834   3.342 -0.3840 -2.6566  1.3499
 1081SOL    MW4 4098   1.561   4.859   3.424 -0.2569 -0.4505  0.7215
 1082SOL     OW 4099   3.093   2.950   4.351 -0.2140  0.1467  0.1062
 1082SOL    HW2 4100   3.060   2.947   4.441  1.0269  0.4120  0.6038
 1082SOL    HW3 4101   3.024   2.992   4.301  0.1285  2.5816  1.4822
 1082SOL    MW4 4102   3.080   2.956   4.357 -0.0051  0.5030  0.3534
 1083SOL     OW 4103   5.073   0.321   1.088  0.1513 -0.0955  0.4135
 1083SOL    HW2 4104   5.004   0.314   1.022 -1.9830  1.6337  2.3134
 1083SOL    HW3 4105   5.155   0.321   1.037 -1.2925 -0.2688 -2.0823
 1083SOL    MW4 4106   5.075   0.320   1.072 -0.3208  0.1097  0.3349
 1084SOL     OW 4107   3.938   0.625   4.380  0.6810 -0.1509 -0.5852
 1084SOL    HW2 4108   3.956   0.719   4.380 -1.4691  0.3198 -0.6040
 1084SOL    HW3 4109   4.008   0.587   4.433  0.0830  1.8035  1.7579
 1084SOL    MW4 4110   3.950   0.632   4.387  0.3184  0.1691 -0.2785
 1085SOL     OW 4111   4.817   1.688   5.875 -0.4352 -0.0740 -0.0724
 1085SOL    HW2 4112   4.910   1.691   5.900 -0.4626  1.6954 -0.0206
 1085SOL    HW3 4113   4.774   1.644   5.948  0.4667 -1.8617 -0.5584
 1085SOL    MW4 4114   4.824   1.683   5.888 -0.3198 -0.0764 -0.1297
 1086SOL     OW 4115   5.812   2.979   5.245  0.2805 -0.3779 -0.2681
 1086SOL    HW2 4116   5.812   2.884   5.259 -0.0110 -0.4719 -0.8797
 1086SOL    HW3 4117   5.728   3.007   5.282 -0.7781 -0.7116 -2.2543
 1086SOL    MW4 4118   5.801   2.970   5.252  0.1024 -0.4343 -0.6109
 1087SOL     OW 4119   4.435   5.967   0.818 -0.3898 -0.1784  0.5643
 1087SOL    HW2 4120   4.480   5.888   0.849  0.5921  0.8484  1.9119
 1087SOL    HW3 4121   4.494   6.005   0.753 -0.5080 -0.1755  0.4591
 1087SOL    MW4 4122   4.449   5.962   0.814 -0.2758 -0.0426  0.7282
 1088SOL     OW 4123   2.193   3.346   1.534 -0.3589 -0.4582 -0.3721
 1088SOL    HW2 4124   2.287   3.361   1.529 -0.1649 -1.0707  0.9048
 1088SOL    HW3 4125   2.154   3.433   1.545  0.1193 -0.2771 -0.1226
 1088SOL    MW4 4126   2.200   3.359   1.535 -0.2702 -0.5151 -0.1707
 1089SOL     OW 4127   0.902   2.052   4.061  0.1799  0.2458  0.5588
 1089SOL    HW2 4128   0.871   2.041   3.972 -0.9911  0.0412  0.9724
 1089SOL    HW3 4129   0.977   1.993   4.068 -0.2394 -0.3737 -0.0495
 1089SOL    MW4 4130   0.908   2.043   4.050 -0.0299  0.1371  0.5331
 1090SOL     OW 4131   0.716   3.579   1.224 -0.6810  0.1615 -0.7021
 1090SOL    HW2 4132   0.639   3.621   1.261 -0.5493  1.0249 -1.3445
 1090SOL    HW3 4133   0.784   3.647   1.228 -0.3752 -0.0827 -1.4947
 1090SOL    MW4 4134   0.715   3.594   1.229 -0.6233  0.2432 -0.8915
 1091SOL     OW 4135   1.672   5.144   5.712 -0.2180 -0.5451  0.4672
 1091SOL    HW2 4136   1.734   5.208   5.746 -0.8404 -0.1401  0.8512
 1091SOL    HW3 4137   1.645   5.179   5.627  0.2893 -0.8672  0.1664
 1091SOL    MW4 4138   1.677   5.157   5.705 -0.2332 -0.5342  0.4782
 1092SOL     OW 4139   4.294   3.201   5.008 -0.3782 -0.0315 -0.4906
 1092SOL    HW2 4140   4.310   3.107   5.019 -0.5264  0.0130  0.1362
 1092SOL    HW3 4141   4.204   3.206   4.978 -0.3464 -0.0919 -0.5976
 1092SOL    MW4 4142   4.285   3.189   5.006 -0.3935 -0.0336 -0.4220
 1093SOL     OW 4143   2.857   5.678   3.251 -0.4226  0.7261 -0.2891
 1093SOL    HW2 4144   2.872   5.599   3.198 -2.7764  0.3560 -0.5365
 1093SOL    HW3 4145   2.897   5.749   3.200  0.0798 -0.0460 -0.9996
 1093SOL    MW4 4146   2.864   5.677   3.237 -0.6669  0.5754 -0.4155
 1094SOL     OW 4147   3.015   0.566   0.832 -1.1254 -0.3182  0.2952
 1094SOL    HW2 4148   3.023   0.613   0.915  0.9167  0.6833 -0.4082
 1094SOL    HW3 4149   2.946   0.613   0.784  0.9466  2.1744 -0.4416
 1094SOL    MW4 4150   3.007   0.578   0.836 -0.5826  0.1428  0.1052
 1095SOL     OW 4151   2.767   5.243   5.973 -0.1129 -0.3820  0.0714
 1095SOL    HW2 4152   2.815   5.241   5.891 -0.1773 -1.8786  0.0506
 1095SOL    HW3 4153   2.676   5.256   5.947  0.0614  0.8814  0.0263
 1095SOL    MW4 4154   2.761   5.245   5.959 -0.0984 -0.4128  0.0627
 1096SOL     OW 4155   3.760   3.663   2.854  0.0559 -0.1287 -0.5689
 1096SOL    HW2 4156   3.820   3.593   2.829  0.1464 -0.8899  1.5382
 1096SOL    HW3 4157   3.783   3.736   2.797  2.9181 -0.4483  0.0104
 1096SOL    MW4 4158   3.771   3.663   2.843  0.4454 -0.2713 -0.2145
 1097SOL     OW 4159   1.734   2.975   0.549 -0.3661 -0.0779 -0.4882
 1097SOL    HW2 4160   1.773   2.906   0.497 -0.8109 -0.0013 -0.9352
 1097SOL    HW3 4161   1.801   3.043   0.555 -0.5924  0.2724 -1.6730
 1097SOL    MW4 4162   1.748   2.975   0.543 -0.4546 -0.0216 -0.7035
 1098SOL     OW 4163   2.748   1.295   2.053 -0.5515  0.7050 -0.2572
 1098SOL    HW2 4164   2.711   1.207   2.048 -0.0768  0.5504 -1.4093
 1098SOL    HW3 4165   2.714   1.341   1.976  1.2915  0.6671 -1.1540
 1098SOL    MW4 4166   2.739   1.290   2.042 -0.2457  0.6796 -0.5275
 1099SOL     OW 4167   4.449   4.690   4.464  0.3138 -0.1886 -0.1515
 1099SOL    HW2 4168   4.490   4.647   4.390 -1.5070 -2.4812  0.0478
 1099SOL    HW3 4169   4.520   4.739   4.506  1.7596 -0.2875 -2.3461
 1099SOL    MW4 4170   4.464   4.691   4.460  0.2643 -0.5042 -0.4148
 1100SOL     OW 4171   0.232   1.685   5.996  0.2528  0.4173 -0.0152
 1100SOL    HW2 4172   0.214   1.777   6.018 -0.1269  0.5388 -0.7929
 1100SOL    HW3 4173   0.193   1.673   5.909  1.6871 -0.0501 -0.6219
 1100SOL    MW4 4174   0.224   1.696   5.987  0.3920  0.3717 -0.1979
 1101SOL     OW 4175   0.790   1.092   3.229 -0.0831 -0.6228  0.2850
 1101SOL    HW2 4176   0.726   1.090   3.300  0.3284 -3.5555  0.6961
 1101SOL    HW3 4177   0.756   1.157   3.168 -2.4535 -0.7239  1.3888
 1101SOL    MW4 4178   0.777   1.100   3.230 -0.3415 -1.0231  0.4849
 1102SOL     OW 4179   0.131   1.912   6.113 -0.0807  0.1075 -0.4627
 1102SOL    HW2 4180   0.056   1.951   6.069 -0.3727  0.6038  0.4654
 1102SOL    HW3 4181   0.100   1.891   6.201  1.0897  1.1068  0.2212
 1102SOL    MW4 4182   0.117   1.914   6.119  0.0352  0.3048 -0.2500
 1103SOL     OW 4183   1.123   4.907   1.523  0.3766  0.4547  0.3195
 1103SOL    HW2 4184   1.091   4.818   1.514  1.1394  0.3570 -3.5806
 1103SOL    HW3 4185   1.187   4.903   1.593 -0.4865 -1.7475  1.0685
 1103SOL    MW4 4186   1.127   4.895   1.531  0.3634  0.1512 -0.0962
 1104SOL     OW 4187   6.225   6.229   3.779  0.2060  0.1419  0.3416
 1104SOL    HW2 4188   6.132   6.249   3.771  0.1681 -0.5019 -1.3062
 1104SOL    HW3 4189   6.261   6.251   3.693  1.6933  0.8790  1.1096
 1104SOL    MW4 4190   6.217   6.235   3.766  0.3972  0.1542  0.2255
 1105SOL     OW 4191   1.466   5.395   4.393  0.5315 -0.0324  0.1139
 1105SOL    HW2 4192   1.444   5.388   4.300 -1.4567 -2.2047  0.6444
 1105SOL    HW3 4193   1.398   5.453   4.429  0.6023 -0.1253  0.3995
 1105SOL    MW4 4194   1.454   5.402   4.386  0.2785 -0.3313  0.2216
 1106SOL     OW 4195   5.604   2.595   0.889  0.0754 -0.1401  0.3887
 1106SOL    HW2 4196   5.645   2.567   0.808  2.0637 -0.8157  1.5421
 1106SOL    HW3 4197   5.572   2.684   0.871  2.3334  0.5563 -0.5691
 1106SOL    MW4 4198   5.605   2.603   0.876  0.6357 -0.1374  0.4145
 1107SOL     OW 4199   0.391   1.984   0.030 -0.1854 -0.0316  0.3526
 1107SOL    HW2 4200   0.399   1.901  -0.017  0.4743  0.4356 -0.3795
 1107SOL    HW3 4201   0.350   2.043  -0.033 -0.7117  0.1933  0.8919
 1107SOL    MW4 4202   0.386   1.981   0.015 -0.1678  0.0597  0.3272
 1108SOL     OW 4203   5.425   1.817   3.219  0.6271  1.2680 -0.1860
 1108SOL    HW2 4204   5.482   1.780   3.286  0.4041  0.0692 -0.6385
 1108SOL    HW3 4205   5.396   1.901   3.256 -2.2882 -0.7989  2.8125
 1108SOL    MW4 4206   5.429   1.823   3.233  0.2131  0.8371  0.1499
 1109SOL     OW 4207   5.811   4.357   5.826 -0.4332  0.2452  0.1600
 1109SOL    HW2 4208   5.858   4.358   5.909  0.2380  1.1940 -0.2075
 1109SOL    HW3 4209   5.745   4.425   5.835 -1.9057 -1.1761  0.7265
 1109SOL    MW4 4210   5.809   4.366   5.838 -0.5389  0.1828  0.1862
 1110SOL     OW 4211   5.637   4.964   2.845 -0.0614 -0.1796  0.1333
 1110SOL    HW2 4212   5.696   5.003   2.781 -0.7051  1.2635  0.3701
 1110SOL    HW3 4213   5.654   5.013   2.926 -1.6650  0.3945  0.1580
 1110SOL    MW4 4214   5.647   4.976   2.848 -0.3579  0.0866  0.1678
 1111SOL     OW 4215   5.061   0.467   5.083  0.6896 -0.2626  0.2471
 1111SOL    HW2 4216   5.025   0.425   5.161 -0.1332  0.4640  0.2733
 1111SOL    HW3 4217   4.999   0.538   5.063  0.2692 -1.1177 -1.7131
 1111SOL    MW4 4218   5.048   0.471   5.090  0.5256 -0.2795 -0.0081
 1112SOL     OW 4219   4.596   1.347   0.594  0.2084  0.0078 -0.3181
 1112SOL    HW2 4220   4.511   1.387   0.615  1.1075  0.5376  2.7506
 1112SOL    HW3 4221   4.588   1.257   0.625  0.1711 -0.5358 -1.8253
 1112SOL    MW4 4222   4.583   1.341   0.601  0.3221  0.0060 -0.1121
 1113SOL     OW 4223   3.659   0.424   4.071  0.0944  0.1582  0.1799
 1113SOL    HW2 4224   3.746   0.464   4.080  0.1161  0.0796  0.3077
 1113SOL    HW3 4225   3.625   0.461   3.989  0.7656 -0.7851 -0.5460
 1113SOL    MW4 4226   3.666   0.434   4.061  0.1858  0.0233  0.1010
 1114SOL     OW 4227   6.309   5.021   6.241  0.1103  0.3122 -0.4949
 1114SOL    HW2 4228   6.267   5.106   6.256  2.4636  1.4894 -0.1229
 1114SOL    HW3 4229   6.395   5.043   6.208  1.3788 -1.8867  1.0975
 1114SOL    MW4 4230   6.314   5.035   6.239  0.5881  0.1774 -0.2357
 1115SOL     OW 4231   6.127   5.850   2.974  0.2685  0.0370  0.4782
 1115SOL    HW2 4232   6.181   5.906   2.918  1.5368 -1.5477  0.0568
 1115SOL    HW3 4233   6.140   5.761   2.941 -2.1503 -0.5098  0.7594
 1115SOL    MW4 4234   6.136   5.846   2.963  0.1167 -0.2442  0.4597
 1116SOL     OW 4235   3.964   1.207   0.521  0.5679  0.1418 -0.1000
 1116SOL    HW2 4236   3.959   1.301   0.504  1.9883  0.0192 -1.4196
 1116SOL    HW3 4237   3.873   1.179   0.532 -0.0048  1.3656 -1.4540
 1116SOL    MW4 4238   3.952   1.216   0.520  0.6798  0.2871 -0.4528
 1117SOL     OW 4239   2.858   3.202   3.951 -0.2959  0.1028 -0.2138
 1117SOL    HW2 4240   2.808   3.215   3.871 -0.0947  3.1847  0.0741
 1117SOL    HW3 4241   2.948   3.225   3.928  0.1633 -0.9594  0.4205
 1117SOL    MW4 4242   2.863   3.206   3.937 -0.2088  0.3692 -0.0921
 1118SOL     OW 4243   0.157   2.363   5.109  0.3082 -0.7007 -0.0339
 1118SOL    HW2 4244   0.244   2.402   5.117  0.2684 -0.8007  1.1389
 1118SOL    HW3 4245   0.097   2.438   5.116  0.2932 -0.6667 -0.5277
 1118SOL    MW4 4246   0.160   2.378   5.111  0.3010 -0.7094  0.0557
 1119SOL     OW 4247   3.963   3.964   5.471  0.3259  0.1563  0.2121
 1119SOL    HW2 4248   3.929   3.875   5.475 -1.3435  0.7774  0.7193
 1119SOL    HW3 4249   3.990   3.983   5.562 -1.3606  0.8876  0.5947
 1119SOL    MW4 4250   3.962   3.955   5.484 -0.1169  0.3347  0.3295
 1120SOL     OW 4251   5.864   1.138   5.729  0.1112  0.1751  0.3433
 1120SOL    HW2 4252   5.826   1.211   5.778  0.0865  0.9237 -0.7619
 1120SOL    HW3 4253   5.800   1.067   5.737  0.3421  0.0924  1.8082
 1120SOL    MW4 4254   5.851   1.138   5.736  0.1384  0.2630  0.3907
 1121SOL     OW 4255   6.265   1.209   3.305  0.6609 -0.5050 -0.7850
 1121SOL    HW2 4256   6.327   1.272   3.267  1.1432  0.2887  1.2307
 1121SOL    HW3 4257   6.205   1.262   3.356  0.6338 -1.6201  0.3835
 1121SOL    MW4 4258   6.265   1.224   3.307  0.7210 -0.5474 -0.3649
 1122SOL     OW 4259   3.082   1.274   6.302 -0.4139 -0.0291 -0.3877
 1122SOL    HW2 4260   3.071   1.181   6.283 -0.1155 -0.2271  0.3837
 1122SOL    HW3 4261   3.072   1.281   6.397 -1.6829  0.9001 -0.5533
 1122SOL    MW4 4262   3.079   1.263   6.312 -0.5420  0.0674 -0.3077
 1123SOL     OW 4263   4.465   5.419   2.883  0.3597 -0.4319 -0.2505
 1123SOL    HW2 4264   4.497   5.333   2.910 -1.1489 -1.6861 -2.1760
 1123SOL    HW3 4265   4.458   5.413   2.787 -3.3880  0.4275 -0.1881
 1123SOL    MW4 4266   4.468   5.407   2.874 -0.3338 -0.4840 -0.4963
 1124SOL     OW 4267   1.857   1.110   6.023  0.1653 -0.5014 -0.0223
 1124SOL    HW2 4268   1.884   1.201   6.012  0.5556 -0.7854 -1.8243
 1124SOL    HW3 4269   1.938   1.060   6.012 -0.0101 -1.0693  1.1654
 1124SOL    MW4 4270   1.871   1.115   6.020  0.1937 -0.6138 -0.1033
 1125SOL     OW 4271   4.038   1.918   2.655 -0.2770 -0.0355 -0.2402
 1125SOL    HW2 4272   4.124   1.959   2.649 -0.1045  0.1367  2.2961
 1125SOL    HW3 4273   3.976   1.989   2.638  0.0592  0.1081 -0.8908
 1125SOL    MW4 4274   4.041   1.933   2.652 -0.2099  0.0062  0.0086
 1126SOL     OW 4275   3.498   5.063   5.550  0.2635 -0.5506  0.1685
 1126SOL    HW2 4276   3.464   5.084   5.637  0.8929 -0.1930  0.3335
 1126SOL    HW3 4277   3.423   5.075   5.491  0.1385  0.3800  0.5041
 1126SOL    MW4 4278   3.484   5.067   5.554  0.3301 -0.3807  0.2346
 1127SOL     OW 4279   0.199   5.425   2.145  0.8822  0.0555 -0.6118
 1127SOL    HW2 4280   0.286   5.428   2.185  0.4531 -2.5923  0.7153
 1127SOL    HW3 4281   0.138   5.441   2.217  0.1946 -1.8440 -0.7022
 1127SOL    MW4 4282   0.202   5.427   2.160  0.7349 -0.5444 -0.4486
 1128SOL     OW 4283   5.173   2.233   4.006  0.0377 -0.8853  0.1159
 1128SOL    HW2 4284   5.174   2.328   3.989  0.7149 -0.7690  0.7653
 1128SOL    HW3 4285   5.130   2.225   4.091  0.2436 -1.1417  0.1960
 1128SOL    MW4 4286   5.167   2.245   4.015  0.1542 -0.9038  0.2121
 1129SOL     OW 4287   0.245   2.479   1.216  0.0021 -0.2955  0.1725
 1129SOL    HW2 4288   0.264   2.506   1.306  0.7167 -2.3506  0.6897
 1129SOL    HW3 4289   0.243   2.561   1.167  0.3269  0.8211  1.9178
 1129SOL    MW4 4290   0.247   2.493   1.222  0.1392 -0.4194  0.4710
 1130SOL     OW 4291   4.158   1.036   1.534 -0.0258  0.4234  0.2581
 1130SOL    HW2 4292   4.144   1.128   1.558 -1.7392  0.3732 -0.3585
 1130SOL    HW3 4293   4.203   1.040   1.449 -1.7136  0.7748 -0.6742
 1130SOL    MW4 4294   4.162   1.049   1.526 -0.4745  0.4631  0.0537
 1131SOL     OW 4295   4.646   1.814   3.480 -0.0777  0.8531  0.0636
 1131SOL    HW2 4296   4.662   1.890   3.536  2.0232  1.5162 -1.3031
 1131SOL    HW3 4297   4.695   1.743   3.520 -0.0089  0.8697  0.0093
 1131SOL    MW4 4298   4.654   1.815   3.492  0.2085  0.9427 -0.1239
 1132SOL     OW 4299   1.352   4.676   3.191 -0.1133  0.2695  0.2363
 1132SOL    HW2 4300   1.420   4.622   3.232 -0.2017 -1.1048 -1.3683
 1132SOL    HW3 4301   1.398   4.725   3.123 -0.2760  1.2866  0.8422
 1132SOL    MW4 4302   1.367   4.675   3.188 -0.1464  0.2224  0.1045
 1133SOL     OW 4303   3.954   4.415   3.370  0.2715  0.0371 -0.2547
 1133SOL    HW2 4304   4.045   4.437   3.350  0.7867 -1.0318  0.7861
 1133SOL    HW3 4305   3.916   4.496   3.403  0.1590  1.1162 -2.8412
 1133SOL    MW4 4306   3.961   4.428   3.372  0.3246  0.0384 -0.4586
 1134SOL     OW 4307   4.456   1.570   3.075 -0.7332 -0.4806 -0.3364
 1134SOL    HW2 4308   4.491   1.643   3.125 -1.0591  0.6896 -1.7524
 1134SOL    HW3 4309   4.503   1.572   2.992 -1.5853 -1.1391 -0.8564
 1134SOL    MW4 4310   4.466   1.580   3.071 -0.8886 -0.4131 -0.5918
 1135SOL     OW 4311   1.643   3.234   1.199  0.1772  0.8261  0.1252
 1135SOL    HW2 4312   1.733   3.215   1.223 -0.3083 -1.4177  0.4112
 1135SOL    HW3 4313   1.642   3.229   1.103 -0.1197 -2.0638  0.1879
 1135SOL    MW4 4314   1.655   3.231   1.190  0.0740  0.1487  0.1712
 1136SOL     OW 4315   2.798   2.533   1.233 -0.1426  0.0877 -0.0673
 1136SOL    HW2 4316   2.841   2.613   1.263  0.2772 -0.2006  0.1135
 1136SOL    HW3 4317   2.746   2.560   1.157 -1.2398  0.8331  0.9126
 1136SOL    MW4 4318   2.797   2.547   1.227 -0.2320  0.1480  0.0858
 1137SOL     OW 4319   3.740   0.313   5.738 -0.5049 -0.0062 -0.1868
 1137SOL    HW2 4320   3.739   0.272   5.824  0.6007  0.5552  0.1164
 1137SOL    HW3 4321   3.831   0.338   5.724 -0.9212  1.2227 -0.8886
 1137SOL    MW4 4322   3.752   0.311   5.747 -0.4140  0.2300 -0.2394
 1138SOL     OW 4323   1.725   1.547   2.849  0.0310  0.1153 -0.1126
 1138SOL    HW2 4324   1.631   1.547   2.832  0.2453  0.4087 -1.3648
 1138SOL    HW3 4325   1.740   1.465   2.895 -0.6401 -0.6229 -1.1546
 1138SOL    MW4 4326   1.714   1.536   2.853 -0.0293  0.0566 -0.4153
 1139SOL     OW 4327   4.474   5.192   0.255  0.2160 -0.9234 -0.4819
 1139SOL    HW2 4328   4.503   5.129   0.190  0.7780 -1.8726  0.6447
 1139SOL    HW3 4329   4.542   5.260   0.254  0.7308 -1.4208 -0.2291
 1139SOL    MW4 4330   4.487   5.193   0.247  0.3581 -1.1143 -0.2999
 1140SOL     OW 4331   6.120   2.637   5.757  0.3247  0.2636 -0.0657
 1140SOL    HW2 4332   6.092   2.629   5.848  1.0432  1.4788  0.2763
 1140SOL    HW3 4333   6.074   2.714   5.724 -0.0624 -0.2677 -0.7939
 1140SOL    MW4 4334   6.110   2.646   5.765  0.3684  0.3538 -0.1166
 1141SOL     OW 4335   3.688   1.966   3.867 -0.1876 -0.2131 -0.0809
 1141SOL    HW2 4336   3.673   1.873   3.884 -0.7632 -0.0472  0.3482
 1141SOL    HW3 4337   3.626   2.011   3.924 -0.7306  0.4061 -1.1437
 1141SOL    MW4 4338   3.678   1.960   3.877 -0.3352 -0.1095 -0.1645
 1142SOL     OW 4339   1.716   5.127   5.031  0.2274  0.0271  0.0436
 1142SOL    HW2 4340   1.711   5.162   4.942 -0.5927  3.0660  1.1655
 1142SOL    HW3 4341   1.668   5.044   5.027 -0.1174  0.2833 -2.2563
 1142SOL    MW4 4342   1.709   5.121   5.019  0.0737  0.4618 -0.1118
 1143SOL     OW 4343   2.735   4.806   0.947  0.1875  0.3421  0.3082
 1143SOL    HW2 4344   2.809   4.855   0.984  0.3207  0.5453 -0.2267
 1143SOL    HW3 4345   2.663   4.822   1.008 -0.0866  2.1172 -0.4497
 1143SOL    MW4 4346   2.735   4.814   0.960  0.1689  0.6031  0.1376
 1144SOL     OW 4347   1.877   5.326   4.661 -0.0546  0.3146  0.8356
 1144SOL    HW2 4348   1.910   5.397   4.716 -1.6942 -0.3165  2.7847
 1144SOL    HW3 4349   1.814   5.281   4.717 -1.2466 -0.8720 -1.3419
 1144SOL    MW4 4350   1.873   5.330   4.675 -0.4282  0.0748  0.8054
 1145SOL     OW 4351   1.710   4.199   6.189  0.6192  0.2318 -0.1569
 1145SOL    HW2 4352   1.714   4.187   6.284 -1.3268  0.8971  0.0531
 1145SOL    HW3 4353   1.799   4.179   6.158  0.8846 -1.5935  1.5958
 1145SOL    MW4 4354   1.723   4.195   6.197  0.3975  0.0788  0.1020
 1146SOL     OW 4355   4.011   0.974   2.895 -0.1288  0.1788 -0.3003
 1146SOL    HW2 4356   4.040   0.884   2.907 -3.1711 -0.5600  3.0935
 1146SOL    HW3 4357   3.961   0.973   2.813 -0.5503 -1.3481 -0.0483
 1146SOL    MW4 4358   4.008   0.962   2.886 -0.5858 -0.1201  0.1807
 1147SOL     OW 4359   0.539   6.424   1.929 -0.6341  0.3984  0.2292
 1147SOL    HW2 4360   0.604   6.370   1.973  0.5890 -0.0407 -1.9854
 1147SOL    HW3 4361   0.464   6.367   1.918 -0.9917  0.5355  1.7208
 1147SOL    MW4 4362   0.538   6.410   1.933 -0.5199  0.3585  0.1338
 1148SOL     OW 4363   5.163   3.069   3.007  0.0366 -0.4498 -0.2425
 1148SOL    HW2 4364   5.200   3.018   3.079  0.0163  0.7232  0.6192
 1148SOL    HW3 4365   5.163   3.159   3.039 -1.4020 -0.1108 -1.1192
 1148SOL    MW4 4366   5.168   3.074   3.021 -0.1559 -0.2503 -0.2445
 1149SOL     OW 4367   5.989   5.830   1.721  0.0860  0.4738 -0.8426
 1149SOL    HW2 4368   6.082   5.850   1.715  0.4577 -1.0759 -0.6759
 1149SOL    HW3 4369   5.968   5.786   1.639 -0.3525  0.2200 -0.6002
 1149SOL    MW4 4370   5.998   5.827   1.710  0.0772  0.2358 -0.7886
 1150SOL     OW 4371   3.800   4.958   2.370  0.7231  0.0827 -0.1585
 1150SOL    HW2 4372   3.729   4.946   2.307  0.7503 -0.2848 -0.1215
 1150SOL    HW3 4373   3.821   5.051   2.365 -1.1614  0.6697  1.3345
 1150SOL    MW4 4374   3.793   4.969   2.361  0.4780  0.1117  0.0434
 1151SOL     OW 4375   1.293   6.204   3.204 -0.1801 -0.5632 -0.3847
 1151SOL    HW2 4376   1.217   6.206   3.145  0.4632 -0.8160 -1.2548
 1151SOL    HW3 4377   1.350   6.274   3.171  0.6831 -1.4240 -0.7594
 1151SOL    MW4 4378   1.291   6.213   3.192  0.0187 -0.7101 -0.5489
 1152SOL     OW 4379   1.443   3.310   2.842  0.0039 -0.0689 -0.7837
 1152SOL    HW2 4380   1.427   3.401   2.815  1.8397  0.5196 -0.0231
 1152SOL    HW3 4381   1.409   3.257   2.770 -0.3717  1.2401 -1.6062
 1152SOL    MW4 4382   1.436   3.315   2.829  0.1966  0.1814 -0.7919
 1153SOL     OW 4383   6.366   0.378   5.617 -0.2195  0.6742 -0.0642
 1153SOL    HW2 4384   6.304   0.450   5.605 -0.2038  1.0091  1.6034
 1153SOL    HW3 4385   6.333   0.330   5.693  0.7255 -0.0487 -0.0915
 1153SOL    MW4 4386   6.353   0.381   5.626 -0.0927  0.6230  0.1522
 1154SOL     OW 4387   1.205   6.375   2.917 -0.2093  0.0631  0.0971
 1154SOL    HW2 4388   1.185   6.439   2.985  0.9425 -1.3536  1.8958
 1154SOL    HW3 4389   1.175   6.292   2.954 -0.6948 -0.5976 -1.7052
 1154SOL    MW4 4390   1.198   6.372   2.931 -0.1214 -0.2110  0.0966
 1155SOL     OW 4391   4.607   6.034   0.400 -0.4724 -0.3323  0.1194
 1155SOL    HW2 4392   4.649   5.961   0.355 -1.0451 -2.9723  3.3958
 1155SOL    HW3 4393   4.525   6.048   0.353  0.3451 -0.7032 -1.4807
 1155SOL    MW4 4394   4.602   6.026   0.388 -0.4401 -0.7296  0.3406
 1156SOL     OW 4395   1.506   3.095   3.069  0.1914  0.0197  0.2508
 1156SOL    HW2 4396   1.444   3.077   2.999  2.0247  0.6115 -1.6113
 1156SOL    HW3 4397   1.519   3.189   3.067  1.5156 -0.1440  0.2484
 1156SOL    MW4 4398   1.500   3.105   3.060  0.6080  0.0762  0.0048
 1157SOL     OW 4399   0.123   5.401   2.735 -0.3700 -0.5489  0.0010
 1157SOL    HW2 4400   0.139   5.319   2.687  0.6858 -0.4519  0.1842
 1157SOL    HW3 4401   0.204   5.418   2.782 -1.5170 -0.8985  2.2513
 1157SOL    MW4 4402   0.136   5.392   2.735 -0.3820 -0.5822  0.3220
 1158SOL     OW 4403   3.880   1.405   5.684 -0.1494  0.7534  0.3168
 1158SOL    HW2 4404   3.971   1.435   5.686  0.1381  0.1223 -1.5450
 1158SOL    HW3 4405   3.843   1.448   5.608 -1.6995  1.6862  1.5453
 1158SOL    MW4 4406   3.887   1.414   5.674 -0.3160  0.7932  0.2333
 1159SOL     OW 4407   1.132   1.006   4.668 -0.8829 -0.2183 -0.4124
 1159SOL    HW2 4408   1.184   1.079   4.702  0.5573 -0.7903 -1.3177
 1159SOL    HW3 4409   1.180   0.928   4.693 -0.3838 -0.7082 -2.6721
 1159SOL    MW4 4410   1.145   1.006   4.676 -0.6270 -0.3584 -0.8300
 1160SOL     OW 4411   5.891   4.994   2.177 -0.3905 -0.3315 -0.5100
 1160SOL    HW2 4412   5.839   4.914   2.177 -0.2566 -0.4182 -1.0347
 1160SOL    HW3 4413   5.967   4.972   2.232 -0.4085 -0.5282 -0.5617
 1160SOL    MW4 4414   5.894   4.980   2.184 -0.3752 -0.3689 -0.5861
 1161SOL     OW 4415   2.632   4.562   1.294 -0.7414  0.0447  0.0765
 1161SOL    HW2 4416   2.706   4.582   1.351 -0.3755 -1.2907  0.1096
 1161SOL    HW3 4417   2.590   4.487   1.336 -0.4021 -1.0359 -1.4528
 1161SOL    MW4 4418   2.636   4.555   1.307 -0.6484 -0.2741 -0.1209
 1162SOL     OW 4419   4.017   3.896   4.252 -1.0484  0.3890  0.3187
 1162SOL    HW2 4420   4.031   3.838   4.327 -0.7458 -0.6588 -0.5160
 1162SOL    HW3 4421   3.971   3.971   4.288 -2.1838 -0.7248  1.3115
 1162SOL    MW4 4422   4.013   3.898   4.267 -1.1583  0.1038  0.3396
 1163SOL     OW 4423   2.477   6.080   4.495 -0.4746 -0.1733  0.2292
 1163SOL    HW2 4424   2.463   6.088   4.589 -1.3794 -0.8207  0.1538
 1163SOL    HW3 4425   2.400   6.033   4.462  1.9746 -4.4512 -0.1199
 1163SOL    MW4 4426   2.465   6.075   4.503 -0.2708 -0.8231  0.1732
 1164SOL     OW 4427   5.565   0.722   3.206  0.1305 -0.0609  0.3091
 1164SOL    HW2 4428   5.557   0.672   3.287  0.4736 -0.1340  0.3041
 1164SOL    HW3 4429   5.660   0.727   3.191  0.0557 -1.8326 -1.1597
 1164SOL    MW4 4430   5.577   0.716   3.215  0.1659 -0.3043  0.1146
 1165SOL     OW 4431   1.518   1.857   3.326 -0.3982  0.5958 -0.4071
 1165SOL    HW2 4432   1.523   1.951   3.308 -0.9416  0.6340 -0.3648
 1165SOL    HW3 4433   1.432   1.830   3.294  0.2817 -0.1634 -1.6597
 1165SOL    MW4 4434   1.508   1.866   3.320 -0.3802  0.5007 -0.5668
 1166SOL     OW 4435   4.167   0.714   2.630 -0.1891 -0.1563 -0.2327
 1166SOL    HW2 4436   4.140   0.633   2.587 -0.4867 -0.6568  0.8432
 1166SOL    HW3 4437   4.259   0.723   2.608 -0.0444 -1.0174 -0.0460
 1166SOL    MW4 4438   4.175   0.704   2.622 -0.2093 -0.3359 -0.0661
 1167SOL     OW 4439   1.786   6.312   0.431  0.2629  0.0869 -0.1238
 1167SOL    HW2 4440   1.754   6.399   0.458  2.9168  1.1131 -0.0156
 1167SOL    HW3 4441   1.725   6.251   0.472 -0.6357  1.8439  1.3278
 1167SOL    MW4 4442   1.774   6.316   0.440  0.4945  0.4541  0.0820
 1168SOL     OW 4443   1.433   2.985   3.444  0.1718  0.5424  0.4130
 1168SOL    HW2 4444   1.410   3.051   3.378  1.0693 -0.7167 -1.2430
 1168SOL    HW3 4445   1.351   2.941   3.464 -0.2160  1.3343  0.6140
 1168SOL    MW4 4446   1.419   2.988   3.438  0.2391  0.4808  0.2210
 1169SOL     OW 4447   2.850   6.131   6.255 -0.1465 -0.0832 -0.0535
 1169SOL    HW2 4448   2.843   6.051   6.307 -1.2907 -0.2139 -0.3899
 1169SOL    HW3 4449   2.866   6.200   6.319  0.9778 -0.5821  0.2299
 1169SOL    MW4 4450   2.851   6.130   6.270 -0.1491 -0.1663 -0.0605
 1170SOL     OW 4451   3.481   2.479   5.979 -0.7763 -0.2060  0.6068
 1170SOL    HW2 4452   3.431   2.473   5.898 -3.7399  2.4504  2.0665
 1170SOL    HW3 4453   3.567   2.511   5.952 -1.2326 -0.7209 -1.5876
 1170SOL    MW4 4454   3.486   2.482   5.965 -1.2275  0.0765  0.5099
 1171SOL     OW 4455   3.701   3.900   1.636  0.7385 -0.2877  0.7115
 1171SOL    HW2 4456   3.741   3.814   1.638  0.8731 -0.2987 -1.0723
 1171SOL    HW3 4457   3.769   3.958   1.601  0.5014  0.4663  1.4551
 1171SOL    MW4 4458   3.715   3.897   1.632  0.7249 -0.1896  0.5743
 1172SOL     OW 4459   4.576   3.357   3.746 -0.0830  0.0515 -1.0977
 1172SOL    HW2 4460   4.501   3.311   3.709  0.0782  0.0251 -1.3985
 1172SOL    HW3 4461   4.543   3.397   3.827  0.1219 -1.6797 -0.1244
 1172SOL    MW4 4462   4.562   3.356   3.752 -0.0347 -0.1804 -1.0090
 1173SOL     OW 4463   5.026   4.109   3.666  0.1744 -0.1696 -0.7199
 1173SOL    HW2 4464   4.984   4.023   3.656 -0.2637  0.0120 -0.4946
 1173SOL    HW3 4465   5.119   4.089   3.677 -0.1132 -0.7385  1.0556
 1173SOL    MW4 4466   5.032   4.095   3.666  0.0786 -0.2207 -0.4559
 1174SOL     OW 4467   2.590   4.303   1.677  0.0058 -0.1596 -0.3729
 1174SOL    HW2 4468   2.530   4.320   1.750  0.4821  0.1044 -0.0384
 1174SOL    HW3 4469   2.626   4.216   1.696  0.4942  0.1094 -0.0273
 1174SOL    MW4 4470   2.587   4.294   1.689  0.1331 -0.0893 -0.2831
 1175SOL     OW 4471   3.977   3.149   0.951  0.5194 -0.1650 -0.3227
 1175SOL    HW2 4472   4.021   3.232   0.931  0.7325 -0.2380 -0.1646
 1175SOL    HW3 4473   4.021   3.085   0.894  0.3167 -0.1610 -0.4863
 1175SOL    MW4 4474   3.989   3.151   0.941  0.5208 -0.1741 -0.3234
 1176SOL     OW 4475   3.776   5.754   1.653 -0.0974 -0.1794 -0.4198
 1176SOL    HW2 4476   3.740   5.729   1.737 -1.1695 -0.5592 -0.9795
 1176SOL    HW3 4477   3.864   5.715   1.652  0.0928  0.1864  0.6721
 1176SOL    MW4 4478   3.783   5.745   1.664 -0.2138 -0.1813 -0.3495
 1177SOL     OW 4479   5.928   5.524   0.148  0.3939 -0.1082  0.1932
 1177SOL    HW2 4480   5.884   5.556   0.069 -0.0111 -0.2800  0.3474
 1177SOL    HW3 4481   5.935   5.601   0.204 -1.3133 -0.4314  0.9008
 1177SOL    MW4 4482   5.923   5.539   0.145  0.1152 -0.1735  0.3069
 1178SOL     OW 4483   1.443   5.943   1.562 -0.2323  0.2871  0.1382
 1178SOL    HW2 4484   1.524   5.926   1.515 -0.7095 -1.7707 -0.0136
 1178SOL    HW3 4485   1.378   5.959   1.494 -0.2351  0.6921  0.2288
 1178SOL    MW4 4486   1.445   5.943   1.547 -0.2956  0.0690  0.1301
 1179SOL     OW 4487   3.838   3.173   5.439 -0.0267  0.0989  0.1056
 1179SOL    HW2 4488   3.846   3.141   5.529 -0.1967  0.0788  0.1137
 1179SOL    HW3 4489   3.761   3.230   5.441  0.0022  0.1414 -0.0146
 1179SOL    MW4 4490   3.829   3.176   5.451 -0.0453  0.1019  0.0908
 1180SOL     OW 4491   5.018   2.958   6.275 -0.1242 -0.0027  0.2392
 1180SOL    HW2 4492   5.013   3.017   6.200 -0.5064 -0.8046 -0.3865
 1180SOL    HW3 4493   5.094   2.987   6.324 -0.2557  0.9478 -0.1062
 1180SOL    MW4 4494   5.027   2.970   6.271 -0.1920  0.0169  0.1111
 1181SOL     OW 4495   0.488   4.834   4.078  0.3417  0.5030 -0.4647
 1181SOL    HW2 4496   0.412   4.847   4.022 -0.1266 -0.0214  0.0382
 1181SOL    HW3 4497   0.456   4.853   4.167  1.2512  2.0619 -0.4194
 1181SOL    MW4 4498   0.474   4.838   4.083  0.3999  0.6395 -0.3924
 1182SOL     OW 4499   1.056   0.809   1.166  0.0807 -0.0968 -0.0780
 1182SOL    HW2 4500   1.133   0.773   1.210  0.2911  0.1980 -0.1983
 1182SOL    HW3 4501   0.989   0.811   1.233  0.2761 -0.0492  0.1188
 1182SOL    MW4 4502   1.058   0.804   1.181  0.1342 -0.0517 -0.0679
 1183SOL     OW 4503   3.069   2.396   1.177 -0.0779  0.4260 -0.2917
 1183SOL    HW2 4504   2.993   2.454   1.183 -1.5849 -1.5038  0.3758
 1183SOL    HW3 4505   3.084   2.366   1.267  1.5741  0.8616 -0.3952
 1183SOL    MW4 4506   3.061   2.399   1.190 -0.0587  0.2288 -0.2173
 1184SOL     OW 4507   3.851   2.490   3.731 -0.3466  0.0374 -0.6178
 1184SOL    HW2 4508   3.926   2.456   3.780  1.1235  0.5395 -2.3947
 1184SOL    HW3 4509   3.801   2.412   3.707 -0.6787 -0.2701  0.9490
 1184SOL    MW4 4510   3.854   2.475   3.734 -0.1964  0.0631 -0.6455
 1185SOL     OW 4511   5.517   2.706   5.832 -0.4002 -0.0852  0.0634
 1185SOL    HW2 4512   5.479   2.619   5.820  0.3461 -0.4257  0.1239
 1185SOL    HW3 4513   5.459   2.764   5.782 -0.2602 -0.7731 -0.9355
 1185SOL    MW4 4514   5.504   2.702   5.824 -0.2833 -0.2209 -0.0604
 1186SOL     OW 4515   0.215   1.003   5.822  0.1183  0.1537 -0.1940
 1186SOL    HW2 4516   0.136   1.021   5.772  1.2230  0.1736 -1.9999
 1186SOL    HW3 4517   0.255   1.089   5.836 -0.8915  0.3351  2.0676
 1186SOL    MW4 4518   0.210   1.017   5.817  0.1308  0.1803 -0.1339
 1187SOL     OW 4519   1.230   0.290   1.199  0.0657  0.3484  0.0264
 1187SOL    HW2 4520   1.214   0.361   1.261 -2.6986  0.6454 -0.9006
 1187SOL    HW3 4521   1.228   0.210   1.252 -1.6069  0.6457  0.4566
 1187SOL    MW4 4522   1.227   0.289   1.214 -0.5197  0.4268 -0.0391
 1188SOL     OW 4523   0.371   1.483   0.838 -0.0048 -0.1576  0.7756
 1188SOL    HW2 4524   0.410   1.461   0.753  0.0136 -0.7329  0.9329
 1188SOL    HW3 4525   0.310   1.554   0.818  0.7692  0.4324  0.4498
 1188SOL    MW4 4526   0.368   1.490   0.824  0.0997 -0.1556  0.7534
 1189SOL     OW 4527   5.911   5.775   0.261  0.1293 -0.0756  0.1079
 1189SOL    HW2 4528   5.824   5.794   0.296 -1.4866 -0.9251 -3.0426
 1189SOL    HW3 4529   5.949   5.860   0.243 -0.5943  0.2998  0.3118
 1189SOL    MW4 4530   5.904   5.788   0.263 -0.1794 -0.1381 -0.2808
 1190SOL     OW 4531   2.074   0.891   0.134 -0.3111  0.3597 -0.4578
 1190SOL    HW2 4532   1.995   0.847   0.166 -0.5856  0.6729 -0.7030
 1190SOL    HW3 4533   2.044   0.978   0.108  0.1332  0.5092 -0.4706
 1190SOL    MW4 4534   2.060   0.896   0.135 -0.2887  0.4208 -0.4919
 1191SOL     OW 4535   4.282   3.779   4.240 -0.1390 -0.2660  0.0076
 1191SOL    HW2 4536   4.200   3.821   4.214  1.0348  1.5496 -0.9465
 1191SOL    HW3 4537   4.270   3.760   4.333 -0.5806  2.7446  0.6756
 1191SOL    MW4 4538   4.269   3.782   4.249 -0.0424  0.3708 -0.0302
 1192SOL     OW 4539   0.247   2.275   1.863 -0.1886  0.2159  0.2976
 1192SOL    HW2 4540   0.263   2.275   1.957 -0.6205  0.0201  0.3772
 1192SOL    HW3 4541   0.313   2.214   1.828  0.7163  1.1595  0.3242
 1192SOL    MW4 4542   0.258   2.267   1.871 -0.1262  0.3146  0.3116
 1193SOL     OW 4543   1.934   4.808   3.159  0.3900 -0.3036  0.1708
 1193SOL    HW2 4544   2.009   4.826   3.215  0.5465 -2.0537  0.5942
 1193SOL    HW3 4545   1.970   4.759   3.085  0.0626  1.2930 -1.0960
 1193SOL    MW4 4546   1.948   4.804   3.157  0.3674 -0.3238  0.0595
 1194SOL     OW 4547   0.139   0.538   4.403  0.7193  0.2486 -0.0720
 1194SOL    HW2 4548   0.234   0.525   4.406  0.5274 -1.2068  1.6492
 1194SOL    HW3 4549   0.112   0.499   4.320  1.6064  0.6372 -0.5594
 1194SOL    MW4 4550   0.148   0.531   4.393  0.8110  0.1079  0.0908
 1195SOL     OW 4551   5.282   0.710   4.864 -0.4470  0.0349  0.5010
 1195SOL    HW2 4552   5.232   0.693   4.784  1.5132  2.5837 -1.4374
 1195SOL    HW3 4553   5.230   0.776   4.910 -0.1454  0.8282 -0.2546
 1195SOL    MW4 4554   5.268   0.717   4.859 -0.1485  0.4758  0.1456
 1196SOL     OW 4555   0.137   1.106   3.957 -0.1194  0.0766 -0.3226
 1196SOL    HW2 4556   0.198   1.180   3.960  2.0528 -1.5094 -1.8903
 1196SOL    HW3 4557   0.181   1.037   4.006 -1.2198 -0.7764 -0.5038
 1196SOL    MW4 4558   0.151   1.107   3.964  0.0220 -0.2452 -0.5534
 1197SOL     OW 4559   4.186   3.784   3.718  0.0185  0.4781 -0.8068
 1197SOL    HW2 4560   4.138   3.766   3.798  1.0693  0.3627 -0.1784
 1197SOL    HW3 4561   4.119   3.789   3.649 -0.6112 -3.8460 -0.7736
 1197SOL    MW4 4562   4.171   3.783   3.719  0.0741 -0.1076 -0.7195
 1198SOL     OW 4563   4.896   2.068   1.273 -0.0763  0.2781  0.2782
 1198SOL    HW2 4564   4.920   2.058   1.365  2.0428  1.2336 -0.1019
 1198SOL    HW3 4565   4.821   2.128   1.274 -1.2721 -1.1477  1.4345
 1198SOL    MW4 4566   4.889   2.074   1.286  0.0455  0.2161  0.3806
 1199SOL     OW 4567   0.515   0.956   5.304 -0.3790  0.7620 -0.5169
 1199SOL    HW2 4568   0.431   0.997   5.323 -0.3566 -0.3709  2.6567
 1199SOL    HW3 4569   0.551   0.934   5.390  0.6684 -3.6492 -1.8247
 1199SOL    MW4 4570   0.509   0.958   5.318 -0.2379  0.0305 -0.2707
 1200SOL     OW 4571   3.927   1.225   1.124  0.2630 -0.2724 -0.0970
 1200SOL    HW2 4572   3.869   1.241   1.049  1.5365  0.3544 -0.9856
 1200SOL    HW3 4573   3.869   1.230   1.200 -0.9260 -0.1038 -0.9734
 1200SOL    MW4 4574   3.912   1.228   1.124  0.2742 -0.1675 -0.3298
 1201SOL     OW 4575   6.018   2.586   6.031  0.5175 -0.1366 -0.3112
 1201SOL    HW2 4576   5.940   2.640   6.042  1.4258  1.2035 -0.2991
 1201SOL    HW3 4577   6.060   2.585   6.117  0.0541 -1.6247 -0.0754
 1201SOL    MW4 4578   6.013   2.593   6.043  0.5762 -0.1561 -0.2785
 1202SOL     OW 4579   4.649   0.607   0.298  0.8398  0.6123 -0.1588
 1202SOL    HW2 4580   4.694   0.671   0.243  0.7238 -0.0766 -1.0777
 1202SOL    HW3 4581   4.675   0.629   0.388 -0.3510  2.8750 -0.3007
 1202SOL    MW4 4582   4.658   0.618   0.303  0.6673  0.8200 -0.2988
 1203SOL     OW 4583   1.448   2.158   4.873  0.1627 -0.2597 -0.2843
 1203SOL    HW2 4584   1.514   2.091   4.889  1.7374  1.5958  1.5737
 1203SOL    HW3 4585   1.364   2.112   4.883  1.1360 -2.1680 -0.3592
 1203SOL    MW4 4586   1.445   2.143   4.876  0.4989 -0.2667 -0.0490
 1204SOL     OW 4587   0.156   1.250   6.166 -0.5295 -0.4791  0.5590
 1204SOL    HW2 4588   0.237   1.270   6.119 -1.1168 -1.1840 -0.7998
 1204SOL    HW3 4589   0.100   1.208   6.101 -0.8232 -2.9137  2.2460
 1204SOL    MW4 4590   0.159   1.247   6.151 -0.6457 -0.8933  0.6023
 1205SOL     OW 4591   0.279   0.896   0.145 -0.4243  0.0748  0.1342
 1205SOL    HW2 4592   0.188   0.887   0.120 -0.2465  0.2461 -0.5856
 1205SOL    HW3 4593   0.324   0.823   0.102  0.2185  1.5167 -1.8009
 1205SOL    MW4 4594   0.273   0.885   0.136 -0.3160  0.2877 -0.2161
 1206SOL     OW 4595   5.141   1.788   5.423  0.3486 -0.0860  0.1118
 1206SOL    HW2 4596   5.215   1.836   5.385  1.9138 -2.9707 -0.8602
 1206SOL    HW3 4597   5.137   1.707   5.371 -2.6497 -0.6478  1.0562
 1206SOL    MW4 4598   5.150   1.784   5.411  0.1595 -0.5407  0.1082
 1207SOL     OW 4599   1.689   0.271   6.060 -0.7148 -0.1314 -0.2148
 1207SOL    HW2 4600   1.774   0.286   6.018 -0.7953 -1.4929 -0.9116
 1207SOL    HW3 4601   1.702   0.193   6.114 -1.5310 -0.3981 -0.3873
 1207SOL    MW4 4602   1.702   0.263   6.061 -0.8331 -0.3463 -0.3295
 1208SOL     OW 4603   2.955   6.327   5.847  0.2743  0.5671  0.2351
 1208SOL    HW2 4604   3.012   6.402   5.831  0.2801  0.4508 -0.3023
 1208SOL    HW3 4605   2.977   6.299   5.936  2.3506 -0.6073 -0.5945
 1208SOL    MW4 4606   2.965   6.333   5.857  0.5491  0.3968  0.0547
 1209SOL     OW 4607   4.946   2.730   4.519 -0.3126  0.1092  0.3959
 1209SOL    HW2 4608   4.898   2.651   4.544  0.9543 -0.6134  0.6724
 1209SOL    HW3 4609   4.950   2.726   4.423 -1.9068  0.8725  0.2809
 1209SOL    MW4 4610   4.940   2.719   4.510 -0.3558  0.1146  0.4172
 1210SOL     OW 4611   2.410   1.811   0.250 -0.0916  0.4876 -0.0377
 1210SOL    HW2 4612   2.462   1.767   0.317  0.4501 -0.4576 -1.0338
 1210SOL    HW3 4613   2.443   1.900   0.248  1.3553 -0.0175 -0.4582
 1210SOL    MW4 4614   2.421   1.817   0.259  0.1708  0.2963 -0.2246
 1211SOL     OW 4615   3.613   4.518   1.124 -0.5670  0.3710  0.0807
 1211SOL    HW2 4616   3.554   4.544   1.195 -1.5318  0.4500 -0.7315
 1211SOL    HW3 4617   3.587   4.429   1.102 -0.4474  0.4379 -0.3409
 1211SOL    MW4 4618   3.602   4.510   1.130 -0.6785  0.3903 -0.0820
 1212SOL     OW 4619   0.273   0.499   1.444 -0.4497  0.4650 -0.1225
 1212SOL    HW2 4620   0.183   0.519   1.416 -0.9059 -1.7708 -0.4118
 1212SOL    HW3 4621   0.264   0.464   1.532  0.0659 -0.2095 -0.3256
 1212SOL    MW4 4622   0.260   0.497   1.452 -0.4418  0.0810 -0.1875
 1213SOL     OW 4623   1.820   4.454   1.771  0.4715 -0.1006 -0.5603
 1213SOL    HW2 4624   1.848   4.504   1.694 -0.5815  0.4586 -0.5868
 1213SOL    HW3 4625   1.725   4.459   1.770  0.4166 -0.7473  0.3550
 1213SOL    MW4 4626   1.811   4.461   1.760  0.3254 -0.1122 -0.4430
 1214SOL     OW 4627   4.925   0.531   6.275  0.4844  0.1908  0.3090
 1214SOL    HW2 4628   4.925   0.582   6.194 -0.4727  1.7365  1.2318
 1214SOL    HW3 4629   4.967   0.589   6.339 -0.1555 -0.3943  1.2760
 1214SOL    MW4 4630   4.931   0.545   6.273  0.2737  0.3176  0.5583
 1215SOL     OW 4631   0.554   3.895   2.718 -0.1136  0.6592  0.8322
 1215SOL    HW2 4632   0.493   3.908   2.645 -0.7980 -0.2915  1.2195
 1215SOL    HW3 4633   0.579   3.803   2.712  0.8418  0.8994  1.0313
 1215SOL    MW4 4634   0.549   3.885   2.708 -0.0779  0.5655  0.9096
 1216SOL     OW 4635   4.729   5.540   3.367 -0.1558  0.0237  0.1522
 1216SOL    HW2 4636   4.662   5.477   3.392 -0.7290  0.5121 -0.1223
 1216SOL    HW3 4637   4.686   5.597   3.303  0.6520  0.0876 -0.3453
 1216SOL    MW4 4638   4.714   5.539   3.362 -0.1249  0.0966  0.0503
 1217SOL     OW 4639   5.568   0.995   2.807 -0.2134  0.4751 -0.1553
 1217SOL    HW2 4640   5.514   0.954   2.874  0.7300 -0.1326  0.2371
 1217SOL    HW3 4641   5.507   1.010   2.734 -1.1949  0.9650  0.7458
 1217SOL    MW4 4642   5.553   0.992   2.806 -0.2185  0.4596  0.0154
 1218SOL     OW 4643   4.731   0.874   4.543  0.3830 -0.1042  0.8907
 1218SOL    HW2 4644   4.765   0.950   4.591  1.1426 -0.5950  1.1462
 1218SOL    HW3 4645   4.667   0.835   4.603  1.2435 -0.6479  1.4704
 1218SOL    MW4 4646   4.727   0.879   4.557  0.5967 -0.2407  1.0009
 1219SOL     OW 4647   0.337   1.508   5.369 -0.4147  0.2875  0.0705
 1219SOL    HW2 4648   0.283   1.579   5.335  1.1949  0.7026 -1.8285
 1219SOL    HW3 4649   0.363   1.459   5.291 -0.0507 -1.3459  1.1806
 1219SOL    MW4 4650   0.333   1.511   5.354 -0.1543  0.1268 -0.0336
 1220SOL     OW 4651   2.728   3.213   4.601 -0.4549  0.4812 -0.1010
 1220SOL    HW2 4652   2.820   3.227   4.626 -0.3823 -0.0563 -0.0664
 1220SOL    HW3 4653   2.687   3.299   4.612  0.4720  1.2426 -1.9835
 1220SOL    MW4 4654   2.735   3.226   4.605 -0.3230  0.5107 -0.3448
 1221SOL     OW 4655   5.064   6.275   2.886 -0.2955 -0.0509  0.2750
 1221SOL    HW2 4656   5.023   6.190   2.901 -1.3815  0.5395  0.8158
 1221SOL    HW3 4657   5.138   6.277   2.948 -0.9598 -0.1612  1.0981
 1221SOL    MW4 4658   5.069   6.264   2.896 -0.5264  0.0124  0.4549
 1222SOL     OW 4659   0.123   3.355   3.672  0.0940  0.3035  0.0275
 1222SOL    HW2 4660   0.119   3.260   3.681 -0.4529 -0.0259 -2.7483
 1222SOL    HW3 4661   0.217   3.375   3.670  0.2059 -0.1233  1.0184
 1222SOL    MW4 4662   0.135   3.345   3.673  0.0366  0.2037 -0.2080
 1223SOL     OW 4663   2.238   4.998   2.303 -0.2540  0.3680  0.4805
 1223SOL    HW2 4664   2.145   4.994   2.325 -0.9479 -0.1278 -2.1438
 1223SOL    HW3 4665   2.248   5.082   2.257  0.3939  0.0030 -0.0549
 1223SOL    MW4 4666   2.227   5.009   2.300 -0.2601  0.2544  0.0636
 1224SOL     OW 4667   2.872   5.741   2.373  0.2473  0.2874  0.4780
 1224SOL    HW2 4668   2.868   5.777   2.284  1.6279  1.6021  0.9024
 1224SOL    HW3 4669   2.935   5.669   2.367 -1.9765 -1.7349 -0.2148
 1224SOL    MW4 4670   2.880   5.736   2.360  0.1360  0.1941  0.4426
 1225SOL     OW 4671   4.312   0.638   4.711  0.1765  0.9326  0.4027
 1225SOL    HW2 4672   4.237   0.658   4.766 -0.4051 -2.2579  0.9522
 1225SOL    HW3 4673   4.275   0.607   4.629  0.7466 -1.5476  0.9953
 1225SOL    MW4 4674   4.297   0.637   4.708  0.1750  0.1844  0.5534
 1226SOL     OW 4675   5.555   3.205   5.393  0.5725 -0.0233  0.4033
 1226SOL    HW2 4676   5.467   3.239   5.407 -0.3571 -2.5710  1.2231
 1226SOL    HW3 4677   5.613   3.280   5.408 -1.3564  1.3216  1.3971
 1226SOL    MW4 4678   5.551   3.219   5.396  0.1953 -0.1820  0.6426
 1227SOL     OW 4679   0.191   3.307   1.973  0.1902  0.3753 -0.1482
 1227SOL    HW2 4680   0.113   3.308   2.029 -0.4874  1.0111 -1.0566
 1227SOL    HW3 4681   0.198   3.397   1.940  0.7607  0.0998 -0.8078
 1227SOL    MW4 4682   0.181   3.319   1.976  0.1761  0.4228 -0.3551
 1228SOL     OW 4683   3.339   2.563   1.809  0.1514  0.2464 -0.1735
 1228SOL    HW2 4684   3.259   2.518   1.836  1.1631 -0.8745  1.1252
 1228SOL    HW3 4685   3.319   2.656   1.820 -1.2151  0.0302 -0.6315
 1228SOL    MW4 4686   3.326   2.570   1.814  0.1046  0.0700 -0.0626
 1229SOL     OW 4687   3.441   0.297   3.303  0.6548  0.5946 -0.1627
 1229SOL    HW2 4688   3.380   0.364   3.273  0.3219  0.5796  0.4500
 1229SOL    HW3 4689   3.483   0.265   3.224 -0.2657  0.4791 -0.6237
 1229SOL    MW4 4690   3.438   0.301   3.289  0.4895  0.5774 -0.1427
 1230SOL     OW 4691   4.238   4.703   3.466 -0.0606 -0.3275  0.5772
 1230SOL    HW2 4692   4.203   4.655   3.541 -1.0106 -0.3015  0.1667
 1230SOL    HW3 4693   4.255   4.636   3.399 -0.9086 -0.1622  0.1848
 1230SOL    MW4 4694   4.236   4.688   3.467 -0.2978 -0.3022  0.4713
 1231SOL     OW 4695   1.969   0.133   4.371 -0.1694 -0.7909 -0.2117
 1231SOL    HW2 4696   2.013   0.210   4.405 -1.6744 -0.0146  0.0708
 1231SOL    HW3 4697   1.916   0.165   4.298 -0.2413 -1.6925 -0.5743
 1231SOL    MW4 4698   1.968   0.147   4.366 -0.3775 -0.8074 -0.2223
 1232SOL     OW 4699   4.092   1.626   3.300  0.3572 -0.9539 -0.4541
 1232SOL    HW2 4700   4.126   1.585   3.220  0.8818 -1.8775  0.2127
 1232SOL    HW3 4701   3.999   1.601   3.302  0.3741 -1.0408 -0.7125
 1232SOL    MW4 4702   4.084   1.617   3.289  0.4286 -1.0872 -0.4002
 1233SOL     OW 4703   3.066   1.960   2.274 -0.3665 -0.2220 -0.7233
 1233SOL    HW2 4704   3.036   2.015   2.201  0.0099  2.1886  0.8404
 1233SOL    HW3 4705   3.128   2.015   2.322 -0.0647 -1.9925  1.0460
 1233SOL    MW4 4706   3.070   1.974   2.271 -0.2770 -0.1375 -0.2835
 1234SOL     OW 4707   0.554   3.652   3.613 -0.0052  0.3560 -0.4033
 1234SOL    HW2 4708   0.623   3.693   3.561 -0.9505  0.0077 -2.0045
 1234SOL    HW3 4709   0.505   3.726   3.650 -0.8301  0.7113 -2.1013
 1234SOL    MW4 4710   0.557   3.667   3.611 -0.2388  0.3569 -0.8386
 1235SOL     OW 4711   5.719   2.197   5.164 -0.0316 -0.1240  0.1113
 1235SOL    HW2 4712   5.708   2.179   5.258  1.0918 -1.8491 -0.0419
 1235SOL    HW3 4713   5.797   2.147   5.139  0.8227  1.8324 -1.3665
 1235SOL    MW4 4714   5.728   2.188   5.173  0.2294 -0.0935 -0.1039
 1236SOL     OW 4715   2.754   5.078   0.110  0.1320 -0.6882  0.3535
 1236SOL    HW2 4716   2.827   5.091   0.049 -0.5126  2.6054  0.1089
 1236SOL    HW3 4717   2.788   5.106   0.195 -0.7743  0.7510  0.2626
 1236SOL    MW4 4718   2.768   5.083   0.113 -0.0726 -0.0638  0.3093
 1237SOL     OW 4719   1.148   3.373   4.501 -0.0133  0.0376 -0.2690
 1237SOL    HW2 4720   1.108   3.458   4.481  1.8592  1.5925  2.0248
 1237SOL    HW3 4721   1.107   3.345   4.583  1.5618  0.3354  0.6656
 1237SOL    MW4 4722   1.137   3.381   4.509  0.4416  0.2820  0.1569
 1238SOL     OW 4723   3.876   5.610   3.191 -0.0096 -0.6815 -0.8548
 1238SOL    HW2 4724   3.968   5.626   3.216  0.8101 -4.0793 -1.2545
 1238SOL    HW3 4725   3.842   5.554   3.260 -3.4385  3.9676  1.7806
 1238SOL    MW4 4726   3.884   5.605   3.203 -0.3539 -0.5164 -0.5598
 1239SOL     OW 4727   4.439   3.692   1.798  0.2788  0.0429 -0.1391
 1239SOL    HW2 4728   4.363   3.652   1.754 -0.6062  0.0664  1.3009
 1239SOL    HW3 4729   4.401   3.757   1.857  1.5097  0.7898 -0.1457
 1239SOL    MW4 4730   4.424   3.695   1.800  0.3244  0.1445  0.0500
 1240SOL     OW 4731   0.676   3.131   0.974  0.1667  0.1154  0.5265
 1240SOL    HW2 4732   0.628   3.213   0.980  0.0573  0.0487  0.5594
 1240SOL    HW3 4733   0.768   3.156   0.985  0.1016  0.1861  0.9490
 1240SOL    MW4 4734   0.682   3.145   0.976  0.1437  0.1159  0.5866
 1241SOL     OW 4735   1.669   0.654   3.226 -0.5336  0.2746 -0.0174
 1241SOL    HW2 4736   1.586   0.688   3.256  0.3697  1.1409  1.6214
 1241SOL    HW3 4737   1.661   0.559   3.234 -1.5256  0.3251 -0.3661
 1241SOL    MW4 4738   1.657   0.646   3.231 -0.5453  0.3955  0.1528
 1242SOL     OW 4739   2.042   4.838   5.790  0.3946  0.1015 -0.3831
 1242SOL    HW2 4740   2.070   4.802   5.706  0.4735 -1.3957  0.2623
 1242SOL    HW3 4741   2.013   4.762   5.841 -0.4036  1.0736  0.6595
 1242SOL    MW4 4742   2.042   4.823   5.786  0.2997  0.0323 -0.1604
 1243SOL     OW 4743   1.370   3.601   1.855 -0.4268 -0.6569 -0.0293
 1243SOL    HW2 4744   1.376   3.524   1.798 -1.2493 -0.4199 -0.4457
 1243SOL    HW3 4745   1.460   3.634   1.859 -0.3994 -0.5316 -1.3950
 1243SOL    MW4 4746   1.383   3.595   1.848 -0.5317 -0.6091 -0.2644
 1244SOL     OW 4747   4.865   0.405   2.769 -0.2378 -0.2909  0.0138
 1244SOL    HW2 4748   4.955   0.419   2.739  0.1018 -0.8650  0.7349
 1244SOL    HW3 4749   4.866   0.435   2.860 -0.8933  0.1048 -0.1052
 1244SOL    MW4 4750   4.877   0.411   2.777 -0.2795 -0.3144  0.0932
 1245SOL     OW 4751   3.727   1.318   0.211 -0.5013 -0.1088  0.3975
 1245SOL    HW2 4752   3.735   1.386   0.143  2.0836 -1.0707 -0.3371
 1245SOL    HW3 4753   3.646   1.342   0.257 -1.2728  1.7590 -1.6907
 1245SOL    MW4 4754   3.717   1.330   0.208 -0.2620  0.0107  0.0251
 1246SOL     OW 4755   1.940   3.515   1.146  0.7084  0.4260  0.2133
 1246SOL    HW2 4756   2.000   3.476   1.210  0.4896  1.0194  0.7796
 1246SOL    HW3 4757   1.859   3.529   1.193  0.8953  1.9224  0.1317
 1246SOL    MW4 4758   1.937   3.512   1.160  0.7042  0.7017  0.2772
 1247SOL     OW 4759   1.748   2.058   5.143  0.1560  0.3215  0.3188
 1247SOL    HW2 4760   1.792   2.023   5.066  0.7953 -0.3066  0.9572
 1247SOL    HW3 4761   1.658   2.025   5.137  0.1164  0.5405 -0.3166
 1247SOL    MW4 4762   1.742   2.049   5.132  0.2351  0.2675  0.3192
 1248SOL     OW 4763   0.477   1.762   1.196  0.0624 -0.0995  0.1562
 1248SOL    HW2 4764   0.471   1.667   1.191  1.9835 -0.2752  0.3401
 1248SOL    HW3 4765   0.505   1.790   1.109  0.3360  0.1997  0.3347
 1248SOL    MW4 4766   0.480   1.753   1.184  0.3520 -0.0832  0.2040
 1249SOL     OW 4767   3.423   3.653   0.196 -0.2813  0.4494  0.3429
 1249SOL    HW2 4768   3.345   3.605   0.169  0.1049  0.3871 -0.7036
 1249SOL    HW3 4769   3.414   3.739   0.155  0.0289  0.5679  0.5145
 1249SOL    MW4 4770   3.412   3.658   0.187 -0.1894  0.4568  0.2275
 1250SOL     OW 4771   6.067   3.665   1.754  0.0873  0.4032  0.5038
 1250SOL    HW2 4772   6.125   3.594   1.783 -0.0979  0.4027  0.8750
 1250SOL    HW3 4773   6.042   3.640   1.665 -3.0664 -2.0238  1.8934
 1250SOL    MW4 4774   6.071   3.652   1.746 -0.3532  0.0829  0.7361
 1251SOL     OW 4775   2.322   0.522   1.084 -0.5796  0.3152 -0.2237
 1251SOL    HW2 4776   2.310   0.519   0.989 -2.3884  0.4489 -0.0420
 1251SOL    HW3 4777   2.236   0.497   1.119  0.1467 -0.0366  1.3813
 1251SOL    MW4 4778   2.309   0.518   1.076 -0.7224  0.2864  0.0120
 1252SOL     OW 4779   1.631   1.580   0.525 -0.3021 -0.6521  0.8689
 1252SOL    HW2 4780   1.587   1.557   0.607 -0.0306 -1.0448  0.9115
 1252SOL    HW3 4781   1.603   1.512   0.464 -0.7389 -0.1887  0.5528
 1252SOL    MW4 4782   1.621   1.568   0.528 -0.3239 -0.6427  0.8328
 1253SOL     OW 4783   4.274   0.051   4.435  0.3701  0.0713  0.3747
 1253SOL    HW2 4784   4.181   0.065   4.421 -0.1431 -1.6291  1.6161
 1253SOL    HW3 4785   4.303   0.003   4.358  0.3863  1.1657 -0.3134
 1253SOL    MW4 4786   4.266   0.046   4.423  0.3045 -0.0087  0.4477
 1254SOL     OW 4787   2.882   3.296   0.794 -0.3420  0.3617  0.4534
 1254SOL    HW2 4788   2.791   3.318   0.816 -1.1754 -1.0041 -1.3590
 1254SOL    HW3 4789   2.906   3.360   0.727 -0.9537 -0.8793 -1.0148
 1254SOL    MW4 4790   2.873   3.308   0.788 -0.5327  0.0177  0.0206
 1255SOL     OW 4791   1.984   0.514   1.915 -0.3781 -0.6528 -0.3135
 1255SOL    HW2 4792   1.988   0.607   1.893  1.0238 -0.0073  2.1821
 1255SOL    HW3 4793   1.971   0.512   2.010 -0.1661 -2.9968 -0.2608
 1255SOL    MW4 4794   1.983   0.526   1.925 -0.1652 -0.8769  0.0227
 1256SOL     OW 4795   0.417   2.254   4.514  0.0978 -0.5183 -0.4937
 1256SOL    HW2 4796   0.452   2.290   4.432  0.8004 -0.5030 -0.1949
 1256SOL    HW3 4797   0.324   2.279   4.513  0.4574  0.9562 -0.4943
 1256SOL    MW4 4798   0.409   2.262   4.503  0.2380 -0.3217 -0.4543
 1257SOL     OW 4799   0.714   2.413   3.105  0.0158  0.0455 -0.1178
 1257SOL    HW2 4800   0.699   2.482   3.170  0.4543 -0.0066  0.0398
 1257SOL    HW3 4801   0.626   2.381   3.084 -0.1295  0.0642  0.4450
 1257SOL    MW4 4802   0.700   2.418   3.111  0.0545  0.0411 -0.0228
 1258SOL     OW 4803   6.251   6.138   1.061  0.2805 -0.1287 -0.0286
 1258SOL    HW2 4804   6.345   6.124   1.070  0.3230 -1.0350 -1.3906
 1258SOL    HW3 4805   6.213   6.102   1.141  1.2278  2.6953  1.7956
 1258SOL    MW4 4806   6.258   6.131   1.073  0.4111  0.1243  0.0324
 1259SOL     OW 4807   2.848   1.762   3.957  0.4305  0.3655 -0.1291
 1259SOL    HW2 4808   2.826   1.807   3.875 -0.5569 -0.0451 -0.1082
 1259SOL    HW3 4809   2.847   1.669   3.934 -1.1809  0.1658  0.6203
 1259SOL    MW4 4810   2.845   1.755   3.943  0.0876  0.2850 -0.0275
 1260SOL     OW 4811   5.798   5.317   2.949 -0.8888 -0.4770 -0.2083
 1260SOL    HW2 4812   5.831   5.402   2.979 -2.0231  0.4234 -1.4155
 1260SOL    HW3 4813   5.732   5.339   2.884 -2.3666 -2.2642  0.6212
 1260SOL    MW4 4814   5.794   5.331   2.944 -1.2335 -0.5940 -0.2582
 1261SOL     OW 4815   5.747   3.260   5.930  0.2271 -0.0787  0.4031
 1261SOL    HW2 4816   5.711   3.237   5.844  2.4623  0.1610 -0.6714
 1261SOL    HW3 4817   5.674   3.299   5.977 -1.1172 -0.4121 -1.3073
 1261SOL    MW4 4818   5.733   3.262   5.925  0.3446 -0.0911  0.0356
 1262SOL     OW 4819   6.369   4.898   3.860 -0.6636  0.4070 -0.2320
 1262SOL    HW2 4820   6.309   4.948   3.804 -1.0029 -1.0739 -1.2654
 1262SOL    HW3 4821   6.397   4.825   3.805  3.6143  1.9662 -0.5338
 1262SOL    MW4 4822   6.365   4.895   3.845 -0.1440  0.4173 -0.4082
 1263SOL     OW 4823   0.346   3.395   3.984  0.0767  0.2966  0.3357
 1263SOL    HW2 4824   0.329   3.489   3.993  0.3192  0.5890 -1.8003
 1263SOL    HW3 4825   0.376   3.385   3.894 -0.7001 -1.9541  0.2849
 1263SOL    MW4 4826   0.348   3.406   3.974  0.0062  0.0382  0.0471
 1264SOL     OW 4827   4.253   2.106   0.794  0.1835 -0.2423 -0.1247
 1264SOL    HW2 4828   4.240   2.121   0.700  1.1659  2.2094  0.0484
 1264SOL    HW3 4829   4.284   2.190   0.827  0.9428 -1.3624  2.2114
 1264SOL    MW4 4830   4.256   2.119   0.786  0.4133 -0.0666  0.2064
 1265SOL     OW 4831   5.901   3.221   0.572 -0.1902 -0.0139 -0.0920
 1265SOL    HW2 4832   5.964   3.163   0.530  0.7073  1.1776 -0.4649
 1265SOL    HW3 4833   5.922   3.217   0.665  0.1878  0.0712 -0.1714
 1265SOL    MW4 4834   5.912   3.213   0.579 -0.0219  0.1545 -0.1517
 1266SOL     OW 4835   0.351   5.804   3.548 -0.0330 -0.5889  0.3472
 1266SOL    HW2 4836   0.314   5.863   3.614 -0.6357  0.5649 -0.9663
 1266SOL    HW3 4837   0.430   5.849   3.517  0.7195 -1.5246  0.8712
 1266SOL    MW4 4838   0.356   5.818   3.552 -0.0132 -0.5601  0.2430
 1267SOL     OW 4839   1.865   3.986   3.783  0.3756  0.4026  0.8666
 1267SOL    HW2 4840   1.886   4.029   3.866  2.5167 -1.2724  1.2969
 1267SOL    HW3 4841   1.826   3.902   3.808  1.8746 -0.5165  0.2663
 1267SOL    MW4 4842   1.863   3.981   3.797  0.8559  0.0603  0.8441
 1268SOL     OW 4843   4.369   1.867   3.496 -0.0390  0.4544 -0.4148
 1268SOL    HW2 4844   4.375   1.897   3.587 -2.1912  1.2424 -0.4663
 1268SOL    HW3 4845   4.460   1.853   3.469  0.7103  1.1992  1.5190
 1268SOL    MW4 4846   4.382   1.869   3.504 -0.2241  0.6566 -0.1664
 1269SOL     OW 4847   3.795   0.426   2.522 -0.1317  0.2372 -0.2994
 1269SOL    HW2 4848   3.744   0.460   2.449 -0.5659  0.2247 -0.0028
 1269SOL    HW3 4849   3.797   0.331   2.509 -0.1747  0.2386 -0.3130
 1269SOL    MW4 4850   3.789   0.418   2.511 -0.1946  0.2357 -0.2620
 1270SOL     OW 4851   4.290   0.158   0.642 -0.2838 -0.3664 -0.2324
 1270SOL    HW2 4852   4.254   0.106   0.570 -0.9384  0.2692 -0.3762
 1270SOL    HW3 4853   4.267   0.108   0.721  1.1187 -1.4659 -0.4859
 1270SOL    MW4 4854   4.282   0.144   0.643 -0.1851 -0.4276 -0.2848
 1271SOL     OW 4855   3.803   2.034   4.514 -0.0865  0.0679  0.3476
 1271SOL    HW2 4856   3.749   1.982   4.574 -0.7231  1.6129  1.1847
 1271SOL    HW3 4857   3.744   2.100   4.479  1.1297  1.5875  1.0078
 1271SOL    MW4 4858   3.788   2.036   4.517 -0.0100  0.4723  0.5452
 1272SOL     OW 4859   4.245   3.604   4.977 -0.5778  0.2851  0.0259
 1272SOL    HW2 4860   4.200   3.664   4.918  0.1832 -0.8308 -1.7642
 1272SOL    HW3 4861   4.250   3.522   4.928  0.6030 -0.5175  1.4291
 1272SOL    MW4 4862   4.240   3.601   4.963 -0.3216  0.0319 -0.0252
 1273SOL     OW 4863   4.535   2.886   6.359  0.0337  0.2878  0.2041
 1273SOL    HW2 4864   4.482   2.895   6.438  0.0242 -1.6321  0.4830
 1273SOL    HW3 4865   4.623   2.866   6.391  0.1479  0.0302 -0.2533
 1273SOL    MW4 4866   4.540   2.884   6.374  0.0475  0.0005  0.1806
 1274SOL     OW 4867   3.389   1.898   4.502  0.2849  0.4420  0.2119
 1274SOL    HW2 4868   3.454   1.875   4.437  0.9467  1.6653  0.4092
 1274SOL    HW3 4869   3.309   1.914   4.452  0.1464 -0.9362 -0.0423
 1274SOL    MW4 4870   3.387   1.897   4.487  0.3540  0.4216  0.2044
 1275SOL     OW 4871   4.389   2.875   5.449 -0.3181 -0.2425  0.3738
 1275SOL    HW2 4872   4.393   2.919   5.534  0.4642  2.2043 -0.8400
 1275SOL    HW3 4873   4.416   2.942   5.386 -1.8390 -1.6637 -1.9386
 1275SOL    MW4 4874   4.393   2.890   5.452 -0.4155 -0.1072 -0.0915
 1276SOL     OW 4875   0.301   3.662   3.966 -0.8934  0.1979 -0.2872
 1276SOL    HW2 4876   0.265   3.698   3.885 -1.9754  0.8126  0.4508
 1276SOL    HW3 4877   0.248   3.701   4.036 -0.3569 -0.7673  0.6890
 1276SOL    MW4 4878   0.289   3.672   3.964 -0.9654  0.1517 -0.0610
 1277SOL     OW 4879   6.427   3.697   1.547 -0.1168  0.1733 -0.5501
 1277SOL    HW2 4880   6.339   3.729   1.528  0.9109  2.8245 -1.5105
 1277SOL    HW3 4881   6.432   3.694   1.642 -0.0768  4.2154 -0.2306
 1277SOL    MW4 4882   6.416   3.701   1.557  0.0241  1.0564 -0.6346
 1278SOL     OW 4883   4.115   0.089   0.447 -0.1220  0.0416  0.2307
 1278SOL    HW2 4884   4.034   0.114   0.492 -1.0859 -0.1396 -1.3188
 1278SOL    HW3 4885   4.109  -0.006   0.439  0.2132  0.0375  0.0370
 1278SOL    MW4 4886   4.104   0.079   0.452 -0.2050  0.0172  0.0007
 1279SOL     OW 4887   0.957   1.232   3.695  0.3785  0.3579 -0.1360
 1279SOL    HW2 4888   0.944   1.138   3.711  0.8825  0.5262  1.4118
 1279SOL    HW3 4889   1.021   1.235   3.624  0.2111 -0.4557 -0.3427
 1279SOL    MW4 4890   0.963   1.220   3.688  0.4229  0.2727  0.0410
 1280SOL     OW 4891   0.127   5.777   3.980 -0.3501  0.4955 -0.5104
 1280SOL    HW2 4892   0.192   5.847   3.967 -0.0612  0.2507 -0.3929
 1280SOL    HW3 4893   0.170   5.715   4.039 -0.8892  0.5924 -0.0066
 1280SOL    MW4 4894   0.141   5.778   3.986 -0.3831  0.4760 -0.4284
 1281SOL     OW 4895   0.137   2.340   3.697 -0.5429  0.3979 -0.3518
 1281SOL    HW2 4896   0.175   2.408   3.753  3.0281 -1.4074 -0.2778
 1281SOL    HW3 4897   0.145   2.375   3.608  1.2726  0.1455 -0.3158
 1281SOL    MW4 4898   0.143   2.354   3.692  0.1677  0.1264 -0.3373
 1282SOL     OW 4899   3.360   3.260   2.916  0.3604  0.0073 -0.0018
 1282SOL    HW2 4900   3.282   3.247   2.861  0.8064  0.8323 -0.8684
 1282SOL    HW3 4901   3.411   3.180   2.903 -0.4699 -0.6798  0.8230
 1282SOL    MW4 4902   3.356   3.247   2.907  0.3097  0.0255 -0.0073
 1283SOL     OW 4903   2.771   4.859   5.414 -0.1023 -0.3349  0.5629
 1283SOL    HW2 4904   2.738   4.892   5.498  0.0670 -0.6883  0.7769
 1283SOL    HW3 4905   2.799   4.937   5.366  2.5449 -0.2419  2.0065
 1283SOL    MW4 4906   2.771   4.873   5.419  0.2693 -0.3693  0.7816
 1284SOL     OW 4907   3.613   0.775   5.446  0.9086  0.3186  0.4670
 1284SOL    HW2 4908   3.551   0.702   5.442  0.0850  0.9518  1.4133
 1284SOL    HW3 4909   3.588   0.832   5.373  0.8630  0.2071  0.3950
 1284SOL    MW4 4910   3.602   0.773   5.436  0.7940  0.3875  0.5824
 1285SOL     OW 4911   0.789   0.996   1.687  0.0422  0.1178 -0.1955
 1285SOL    HW2 4912   0.759   1.077   1.647 -0.6530  0.3841  0.8297
 1285SOL    HW3 4913   0.866   0.971   1.637  1.0276  2.0895  0.2715
 1285SOL    MW4 4914   0.795   1.003   1.675  0.0805  0.4131  0.0014
 1286SOL     OW 4915   3.490   3.926   1.803  0.3339 -0.5376  0.9150
 1286SOL    HW2 4916   3.561   3.946   1.742 -1.4939  2.0919 -0.5175
 1286SOL    HW3 4917   3.446   4.009   1.817 -2.3435 -2.0058  1.9189
 1286SOL    MW4 4918   3.494   3.940   1.797 -0.2605 -0.3844  0.8584
 1287SOL     OW 4919   2.724   3.954   2.720  0.3091  0.3667 -0.9481
 1287SOL    HW2 4920   2.749   3.869   2.683 -0.2439  0.3000 -1.1802
 1287SOL    HW3 4921   2.806   3.991   2.753  0.3274 -0.9382  0.5885
 1287SOL    MW4 4922   2.738   3.948   2.720  0.2385  0.1857 -0.7760
 1288SOL     OW 4923   2.137   1.046   5.964  0.1834 -1.0040  0.2262
 1288SOL    HW2 4924   2.192   1.025   6.039 -0.0089 -1.6137  0.2013
 1288SOL    HW3 4925   2.149   1.140   5.951 -1.9436 -0.2471  2.7704
 1288SOL    MW4 4926   2.146   1.056   5.972 -0.1226 -0.9846  0.5586
 1289SOL     OW 4927   0.449   5.711   1.584 -0.2446 -0.5132 -0.1918
 1289SOL    HW2 4928   0.404   5.792   1.607 -0.8474 -0.4093 -1.6010
 1289SOL    HW3 4929   0.460   5.717   1.489 -2.7463 -3.2642 -0.7891
 1289SOL    MW4 4930   0.444   5.723   1.574 -0.6542 -0.8625 -0.4565
 1290SOL     OW 4931   0.515   0.087   0.219 -0.2684 -0.3105  0.1700
 1290SOL    HW2 4932   0.494   0.177   0.195 -0.2038 -0.4047 -0.2503
 1290SOL    HW3 4933   0.448   0.034   0.173 -0.8808 -0.4149  1.1580
 1290SOL    MW4 4934   0.503   0.092   0.209 -0.3407 -0.3367  0.2449
 1291SOL     OW 4935   3.749   2.995   5.007 -0.4676 -0.1653  0.0116
 1291SOL    HW2 4936   3.701   2.999   5.090 -0.7364  0.4126 -0.1611
 1291SOL    HW3 4937   3.698   3.050   4.947  0.3969  0.4507 -0.1832
 1291SOL    MW4 4938   3.736   3.003   5.010 -0.3890 -0.0078 -0.0369
 1292SOL     OW 4939   6.332   3.988   4.669 -0.3540 -0.6520 -0.8292
 1292SOL    HW2 4940   6.387   4.066   4.666  1.0561 -1.6507 -2.3064
 1292SOL    HW3 4941   6.242   4.022   4.661 -0.2023  1.1100  2.9509
 1292SOL    MW4 4942   6.327   4.003   4.668 -0.1479 -0.5513 -0.5254
 1293SOL     OW 4943   4.726   2.661   3.068  0.5604  0.1669  0.1275
 1293SOL    HW2 4944   4.744   2.669   2.974  2.2118  1.3321  0.4944
 1293SOL    HW3 4945   4.657   2.726   3.084  2.0065  1.8043  0.0951
 1293SOL    MW4 4946   4.719   2.671   3.057  0.9691  0.5367  0.1716
 1294SOL     OW 4947   5.138   3.138   1.458 -0.8173 -0.4791 -0.4534
 1294SOL    HW2 4948   5.127   3.087   1.378 -0.6694 -2.1025  0.5170
 1294SOL    HW3 4949   5.051   3.136   1.499 -0.9610  0.5734 -0.6899
 1294SOL    MW4 4950   5.125   3.131   1.453 -0.8167 -0.5544 -0.3566
 1295SOL     OW 4951   4.178   1.361   5.322 -0.1744 -0.2951 -0.0076
 1295SOL    HW2 4952   4.110   1.329   5.382  1.0969 -1.5783  0.8327
 1295SOL    HW3 4953   4.230   1.421   5.375 -0.9070  1.0942 -0.7990
 1295SOL    MW4 4954   4.176   1.365   5.337 -0.1034 -0.2811 -0.0011
 1296SOL     OW 4955   5.662   0.980   4.205  0.4435 -0.6040 -0.4379
 1296SOL    HW2 4956   5.693   0.889   4.202 -0.2878 -0.8947  0.2768
 1296SOL    HW3 4957   5.738   1.033   4.181  0.7774 -1.4239 -1.2329
 1296SOL    MW4 4958   5.676   0.975   4.202  0.3911 -0.7505 -0.4485
 1297SOL     OW 4959   1.988   3.721   0.947  0.3322 -0.0431 -0.4880
 1297SOL    HW2 4960   1.903   3.743   0.909  0.4590  2.1247  0.3501
 1297SOL    HW3 4961   1.968   3.666   1.022 -0.4490  1.1086  0.1877
 1297SOL    MW4 4962   1.974   3.717   0.952  0.2459  0.3949 -0.2882
 1298SOL     OW 4963   5.978   1.766   1.496 -0.1803 -0.5066  0.0585
 1298SOL    HW2 4964   5.890   1.730   1.490 -0.6971  0.7821 -0.4258
 1298SOL    HW3 4965   6.001   1.761   1.589 -2.0723  2.0858  0.7707
 1298SOL    MW4 4966   5.969   1.760   1.507 -0.4981  0.0054  0.0885
 1299SOL     OW 4967   4.216   3.084   3.226  0.8984 -0.7818 -0.1803
 1299SOL    HW2 4968   4.309   3.108   3.229  0.4886  1.1765 -1.4472
 1299SOL    HW3 4969   4.204   3.051   3.137  0.7048 -2.6898  0.5081
 1299SOL    MW4 4970   4.227   3.083   3.214  0.8188 -0.7752 -0.2566
 1300SOL     OW 4971   5.272   1.530   1.675  0.3963 -0.2447 -0.1640
 1300SOL    HW2 4972   5.280   1.445   1.717  0.3775 -0.6342 -0.9395
 1300SOL    HW3 4973   5.363   1.557   1.659  0.4545  0.4572  1.1914
 1300SOL    MW4 4974   5.285   1.523   1.678  0.4015 -0.2035 -0.0875
 1301SOL     OW 4975   5.705   2.857   0.654  0.2655 -0.2801 -0.0112
 1301SOL    HW2 4976   5.693   2.909   0.574  1.3467  0.1162  0.0634
 1301SOL    HW3 4977   5.666   2.911   0.723  3.4130  1.6621  0.4586
 1301SOL    MW4 4978   5.698   2.871   0.653  0.8234  0.0284  0.0606
 1302SOL     OW 4979   4.463   0.428   5.688 -0.3553  0.2820 -0.6663
 1302SOL    HW2 4980   4.415   0.477   5.621 -1.0904  0.7324  0.1648
 1302SOL    HW3 4981   4.408   0.435   5.767  0.0733 -0.9457 -0.2329
 1302SOL    MW4 4982   4.449   0.436   5.690 -0.3957  0.1795 -0.4995
 1303SOL     OW 4983   5.446   2.297   2.494  0.5220 -0.1598 -0.7564
 1303SOL    HW2 4984   5.498   2.217   2.502  2.4404  0.9215 -1.6457
 1303SOL    HW3 4985   5.509   2.368   2.509 -0.8182  1.2200 -1.4094
 1303SOL    MW4 4986   5.461   2.296   2.497  0.5983  0.1649 -0.9599
 1304SOL     OW 4987   5.112   1.249   0.105  0.0452  0.1460  0.0077
 1304SOL    HW2 4988   5.139   1.157   0.112 -2.4027 -0.5977  0.9299
 1304SOL    HW3 4989   5.037   1.256   0.165 -0.6454  2.4127 -1.0257
 1304SOL    MW4 4990   5.106   1.238   0.114 -0.3689  0.3470 -0.0070
 1305SOL     OW 4991   5.726   4.769   2.154 -0.5315  0.1208 -0.0885
 1305SOL    HW2 4992   5.695   4.784   2.243  0.4382  1.1521  0.0994
 1305SOL    HW3 4993   5.660   4.712   2.115 -0.7038 -0.7895  1.4488
 1305SOL    MW4 4994   5.714   4.764   2.160 -0.4263  0.1368  0.1391
 1306SOL     OW 4995   0.209   6.298   4.049 -0.4893  0.2600 -0.3401
 1306SOL    HW2 4996   0.203   6.204   4.033 -0.1416  0.3684 -1.1088
 1306SOL    HW3 4997   0.302   6.316   4.055 -0.5687  0.4541  0.4724
 1306SOL    MW4 4998   0.220   6.288   4.048 -0.4539  0.2999 -0.3343
 1307SOL     OW 4999   1.496   4.008   6.208  0.6365 -0.5352 -0.3606
 1307SOL    HW2 5000   1.544   3.928   6.189  2.6795  0.5889 -0.2566
 1307SOL    HW3 5001   1.543   4.076   6.160 -2.1293  0.3931 -1.9629
 1307SOL    MW4 5002   1.508   4.007   6.199  0.5412 -0.2644 -0.5582
 1308SOL     OW 5003   3.861   3.387   2.003 -0.1593  0.1658  0.3259
 1308SOL    HW2 5004   3.933   3.411   2.062 -0.1303 -1.2076  0.8937
 1308SOL    HW3 5005   3.842   3.467   1.955  0.8710  0.9094  1.0992
 1308SOL    MW4 5006   3.868   3.401   2.005 -0.0195  0.0827  0.5029
 1309SOL     OW 5007   3.726   3.231   0.898  0.1496 -0.1577  0.1999
 1309SOL    HW2 5008   3.722   3.248   0.804 -0.5502 -0.9273  0.0778
 1309SOL    HW3 5009   3.817   3.210   0.915  0.5502  1.2821 -0.0680
 1309SOL    MW4 5010   3.737   3.230   0.888  0.1101 -0.0693  0.1485
 1310SOL     OW 5011   1.900   3.325   6.120 -0.5335 -0.5397  0.4449
 1310SOL    HW2 5012   1.933   3.246   6.078 -1.1582  0.1455 -1.4199
 1310SOL    HW3 5013   1.897   3.390   6.051 -0.1346  1.1197  1.9103
 1310SOL    MW4 5014   1.904   3.323   6.106 -0.5633 -0.2304  0.3922
 1311SOL     OW 5015   4.437   1.843   5.604  0.1928 -0.5026  0.5128
 1311SOL    HW2 5016   4.470   1.933   5.601 -0.2409 -0.3562 -0.2166
 1311SOL    HW3 5017   4.386   1.834   5.523 -0.3946 -1.1593  0.9460
 1311SOL    MW4 5018   4.435   1.854   5.592  0.0581 -0.5699  0.4737
 1312SOL     OW 5019   3.688   4.864   0.199 -0.0788  0.6701 -0.0573
 1312SOL    HW2 5020   3.630   4.893   0.129 -2.0538  0.7764  1.5190
 1312SOL    HW3 5021   3.747   4.802   0.157 -1.7273  0.0937 -1.6810
 1312SOL    MW4 5022   3.688   4.860   0.185 -0.5569  0.6080 -0.0636
 1313SOL     OW 5023   0.298   2.760   3.173 -0.7341 -0.2738  0.1401
 1313SOL    HW2 5024   0.306   2.840   3.225 -1.4155  1.4746 -2.2562
 1313SOL    HW3 5025   0.387   2.723   3.174  0.0742  1.5218 -0.1357
 1313SOL    MW4 5026   0.311   2.766   3.180 -0.7174  0.1938 -0.2124
 1314SOL     OW 5027   0.025   3.735   0.136  0.2506  0.1266  0.6661
 1314SOL    HW2 5028   0.050   3.812   0.086  1.1032 -0.8665 -0.5238
 1314SOL    HW3 5029  -0.066   3.718   0.111  0.7191 -0.4715 -0.7767
 1314SOL    MW4 5030   0.017   3.743   0.126  0.4249 -0.0834  0.3187
 1315SOL     OW 5031   2.025   0.563   5.945  0.4545  0.0143 -0.2810
 1315SOL    HW2 5032   1.978   0.591   6.024  0.6744  2.8514 -1.0539
 1315SOL    HW3 5033   1.995   0.474   5.930  0.1059 -0.4952  2.7730
 1315SOL    MW4 5034   2.015   0.555   5.954  0.4375  0.3214  0.0200
 1316SOL     OW 5035   1.113   5.926   5.601 -0.0581  0.3236 -0.0667
 1316SOL    HW2 5036   1.079   5.872   5.673 -1.0838  1.3560  0.2647
 1316SOL    HW3 5037   1.178   5.871   5.558 -1.4977 -1.4103 -0.1318
 1316SOL    MW4 5038   1.117   5.912   5.605 -0.3834  0.2311 -0.0315
 1317SOL     OW 5039   6.211   3.357   1.444  0.1276 -0.2219 -0.5234
 1317SOL    HW2 5040   6.170   3.365   1.358  0.4349 -2.8511 -1.0153
 1317SOL    HW3 5041   6.302   3.334   1.424 -0.0612 -1.9684  0.4431
 1317SOL    MW4 5042   6.218   3.355   1.430  0.1432 -0.7992 -0.4608
 1318SOL     OW 5043   3.585   0.450   3.797 -0.6789 -0.2186  0.7125
 1318SOL    HW2 5044   3.627   0.532   3.772 -0.8767 -0.8262 -1.9616
 1318SOL    HW3 5045   3.493   0.473   3.810 -0.5244  0.1770  1.1104
 1318SOL    MW4 5046   3.578   0.464   3.795 -0.6846 -0.2466  0.4122
 1319SOL     OW 5047   4.248   2.136   1.235 -0.2774 -0.5645  0.0798
 1319SOL    HW2 5048   4.292   2.219   1.215  2.1679 -1.6466  0.5163
 1319SOL    HW3 5049   4.156   2.158   1.244  0.1466  1.8940 -0.9423
 1319SOL    MW4 5050   4.242   2.149   1.233  0.1011 -0.3829  0.0025
 1320SOL     OW 5051   1.138   2.865   5.406  0.0016 -0.1160 -0.1129
 1320SOL    HW2 5052   1.183   2.834   5.484 -0.3030 -0.2742  0.0034
 1320SOL    HW3 5053   1.187   2.827   5.333 -0.6717 -1.3176  0.0345
 1320SOL    MW4 5054   1.150   2.856   5.407 -0.1274 -0.2954 -0.0781
 1321SOL     OW 5055   3.615   3.954   2.114 -0.5394  0.0191 -0.2621
 1321SOL    HW2 5056   3.671   3.965   2.037  1.2136  0.2769  0.9813
 1321SOL    HW3 5057   3.597   3.860   2.117 -0.8832  0.0477 -1.1393
 1321SOL    MW4 5058   3.620   3.943   2.104 -0.3535  0.0569 -0.2138
 1322SOL     OW 5059   4.133   2.902   5.359 -0.1808  0.9730 -0.2528
 1322SOL    HW2 5060   4.226   2.892   5.381 -0.6931  0.6834  2.0373
 1322SOL    HW3 5061   4.090   2.918   5.443 -2.4968 -1.0004 -0.9651
 1322SOL    MW4 5062   4.140   2.903   5.373 -0.5539  0.6744 -0.0446
 1323SOL     OW 5063   5.847   1.632   4.461 -0.2260  0.3111  0.2373
 1323SOL    HW2 5064   5.777   1.605   4.520 -1.0951  1.7059 -0.1156
 1323SOL    HW3 5065   5.804   1.687   4.396  1.0226  0.2975 -0.6347
 1323SOL    MW4 5066   5.832   1.636   4.460 -0.1760  0.4933  0.0756
 1324SOL     OW 5067   5.908   5.307   6.222 -0.5130 -0.3793  0.1575
 1324SOL    HW2 5068   5.881   5.399   6.221 -2.7787 -0.9815 -0.2454
 1324SOL    HW3 5069   5.898   5.281   6.314  1.0300 -0.0378  0.4595
 1324SOL    MW4 5070   5.903   5.316   6.234 -0.6084 -0.4137  0.1442
 1325SOL     OW 5071   1.019   1.953   0.046 -0.2277 -0.1371  0.0269
 1325SOL    HW2 5072   0.966   2.020   0.002 -0.2456 -1.0428 -1.4343
 1325SOL    HW3 5073   1.101   1.952  -0.004 -0.0238 -0.8192  0.3710
 1325SOL    MW4 5074   1.022   1.962   0.033 -0.2032 -0.3466 -0.1205
 1326SOL     OW 5075   4.701   2.138   4.702  0.5710 -0.3158 -0.1598
 1326SOL    HW2 5076   4.756   2.179   4.769  1.9211 -0.8811 -0.8597
 1326SOL    HW3 5077   4.620   2.116   4.747  0.7313  0.9625  0.8169
 1326SOL    MW4 5078   4.698   2.140   4.717  0.7702 -0.2217 -0.1233
 1327SOL     OW 5079   4.197   1.153   3.601  0.3169 -0.2825  0.2695
 1327SOL    HW2 5080   4.257   1.213   3.556 -0.6548  0.7956  0.3645
 1327SOL    HW3 5081   4.176   1.086   3.535 -0.2257  0.6665 -0.5458
 1327SOL    MW4 5082   4.202   1.152   3.586  0.1171 -0.0150  0.1745
 1328SOL     OW 5083   5.855   5.575   6.290  0.2509 -0.2778  0.2725
 1328SOL    HW2 5084   5.887   5.663   6.273 -1.1859  0.0747 -0.7509
 1328SOL    HW3 5085   5.760   5.584   6.297  0.0799 -1.7248  0.2518
 1328SOL    MW4 5086   5.846   5.588   6.289  0.0388 -0.4222  0.1347
 1329SOL     OW 5087   6.198   5.272   5.736  0.3931 -0.2177 -0.1597
 1329SOL    HW2 5088   6.217   5.179   5.730  1.2405 -0.0203 -0.7307
 1329SOL    HW3 5089   6.151   5.282   5.819 -2.1703 -1.5378 -1.3765
 1329SOL    MW4 5090   6.195   5.261   5.746  0.1667 -0.3658 -0.3956
 1330SOL     OW 5091   1.625   0.726   1.941 -0.0791 -0.3568  0.1297
 1330SOL    HW2 5092   1.568   0.694   1.871  1.0314  1.0043 -1.4819
 1330SOL    HW3 5093   1.600   0.674   2.018 -2.5428 -0.7181 -0.8104
 1330SOL    MW4 5094   1.614   0.715   1.942 -0.2576 -0.2249 -0.2070
 1331SOL     OW 5095   2.573   3.149   1.173  0.0858 -0.0037  0.5726
 1331SOL    HW2 5096   2.515   3.197   1.113  0.1839  2.7317  2.4846
 1331SOL    HW3 5097   2.659   3.190   1.162  0.3200 -0.0991  1.8864
 1331SOL    MW4 5098   2.577   3.161   1.164  0.1296  0.3446  0.9982
 1332SOL     OW 5099   2.560   1.790   5.731  0.1269 -0.1086 -0.4461
 1332SOL    HW2 5100   2.574   1.882   5.711  0.4832  0.2054  1.1367
 1332SOL    HW3 5101   2.465   1.781   5.740  0.0224 -0.0961 -1.3980
 1332SOL    MW4 5102   2.549   1.801   5.730  0.1601 -0.0655 -0.3629
 1333SOL     OW 5103   1.886   0.630   3.953 -0.2408 -0.5943  0.3992
 1333SOL    HW2 5104   1.834   0.568   3.903 -1.0649 -0.3357  0.9202
 1333SOL    HW3 5105   1.954   0.660   3.892 -1.2568 -0.2426 -0.5862
 1333SOL    MW4 5106   1.888   0.626   3.938 -0.4836 -0.5138  0.3379
 1334SOL     OW 5107   2.652   1.218   6.275 -0.0026 -0.0960 -0.8431
 1334SOL    HW2 5108   2.632   1.124   6.269  0.9883 -0.5707  1.6984
 1334SOL    HW3 5109   2.567   1.261   6.270 -0.6405 -1.2694 -0.5648
 1334SOL    MW4 5110   2.638   1.211   6.274  0.0440 -0.3135 -0.4711
 1335SOL     OW 5111   2.870   3.494   0.137 -0.5130  0.4610  0.2920
 1335SOL    HW2 5112   2.959   3.495   0.174 -1.0940 -1.6766  1.9485
 1335SOL    HW3 5113   2.836   3.408   0.159 -2.3027  0.4433 -2.1547
 1335SOL    MW4 5114   2.877   3.483   0.145 -0.8258  0.1767  0.1878
 1336SOL     OW 5115   1.094   3.759   4.174  0.0241  0.9428 -0.1965
 1336SOL    HW2 5116   1.149   3.716   4.108 -0.3010  0.0849  0.0784
 1336SOL    HW3 5117   1.135   3.844   4.187  1.3594  0.2848  0.0878
 1336SOL    MW4 5118   1.107   3.764   4.167  0.1574  0.7428 -0.1227
 1337SOL     OW 5119   0.028   3.709   4.368 -0.1704  0.0183  0.2217
 1337SOL    HW2 5120  -0.029   3.726   4.443 -0.7264 -2.3973  0.4177
 1337SOL    HW3 5121   0.106   3.669   4.405  0.0268 -0.1820 -0.3875
 1337SOL    MW4 5122   0.030   3.706   4.383 -0.2177 -0.3268  0.1672
 1338SOL     OW 5123   2.709   0.574   4.892 -0.3822  0.3975 -0.2357
 1338SOL    HW2 5124   2.792   0.581   4.845 -0.5959  2.0228 -0.4464
 1338SOL    HW3 5125   2.688   0.664   4.916 -1.2852 -0.1712  1.2380
 1338SOL    MW4 5126   2.717   0.587   4.889 -0.5295  0.5369 -0.0691
 1339SOL     OW 5127   1.453   4.570   6.001 -0.1835 -0.2138 -0.4919
 1339SOL    HW2 5128   1.501   4.488   5.987 -1.5658 -1.0720 -0.4505
 1339SOL    HW3 5129   1.487   4.603   6.084  0.9205 -0.3459 -0.8754
 1339SOL    MW4 5130   1.464   4.563   6.011 -0.2202 -0.3445 -0.5370
 1340SOL     OW 5131   2.361   0.975   2.755 -0.6938 -0.1304 -0.2373
 1340SOL    HW2 5132   2.351   0.881   2.748  1.1007 -0.2952 -1.2089
 1340SOL    HW3 5133   2.374   0.991   2.849 -1.2590 -0.7934 -0.0372
 1340SOL    MW4 5134   2.362   0.965   2.767 -0.5316 -0.2396 -0.3391
 1341SOL     OW 5135   4.500   0.894   5.441 -0.2876  0.9020  0.2131
 1341SOL    HW2 5136   4.548   0.884   5.359 -2.1107  0.5701 -0.8652
 1341SOL    HW3 5137   4.530   0.820   5.495  0.8916  1.1022 -0.1285
 1341SOL    MW4 5138   4.510   0.883   5.438 -0.3725  0.8846  0.0257
 1342SOL     OW 5139   5.998   2.183   0.985  0.2433  0.4634 -0.2790
 1342SOL    HW2 5140   5.991   2.110   0.923  1.3016  1.7715 -2.0420
 1342SOL    HW3 5141   6.032   2.143   1.065  0.9008 -0.9614 -1.2257
 1342SOL    MW4 5142   6.002   2.168   0.987  0.4697  0.4480 -0.6365
 1343SOL     OW 5143   5.792   6.072   1.161 -0.2189  0.5675  0.2505
 1343SOL    HW2 5144   5.729   6.105   1.097 -0.0647  0.7350  0.1857
 1343SOL    HW3 5145   5.760   5.984   1.182 -0.1640  0.4325 -0.2049
 1343SOL    MW4 5146   5.780   6.065   1.155 -0.1913  0.5718  0.1819
 1344SOL     OW 5147   0.479   3.712   1.358  0.0445 -0.2827  0.6065
 1344SOL    HW2 5148   0.403   3.763   1.387  0.3342  0.0417  0.8092
 1344SOL    HW3 5149   0.449   3.621   1.360 -0.1986 -0.1988  1.1524
 1344SOL    MW4 5150   0.465   3.706   1.362  0.0506 -0.2288  0.7053
 1345SOL     OW 5151   2.936   2.532   5.953 -0.4303 -0.2629 -0.2398
 1345SOL    HW2 5152   2.979   2.501   6.032 -0.0660 -0.0321 -0.3463
 1345SOL    HW3 5153   2.975   2.618   5.936 -1.9945  0.6328  0.5109
 1345SOL    MW4 5154   2.947   2.539   5.961 -0.5886 -0.1143 -0.1548
 1346SOL     OW 5155   4.228   2.095   0.525 -0.4836  0.5100  0.0431
 1346SOL    HW2 5156   4.143   2.135   0.507 -0.3106  0.5549 -0.6739
 1346SOL    HW3 5157   4.286   2.129   0.458  0.0209  0.2049  0.3184
 1346SOL    MW4 5158   4.224   2.105   0.514 -0.3942  0.4757 -0.0152
 1347SOL     OW 5159   0.299   3.997   5.775 -0.3487 -0.0241  0.0314
 1347SOL    HW2 5160   0.212   4.025   5.747 -0.5121 -0.2315  0.3214
 1347SOL    HW3 5161   0.287   3.968   5.866  0.0027 -0.1477  0.0419
 1347SOL    MW4 5162   0.286   3.997   5.784 -0.3239 -0.0677  0.0710
 1348SOL     OW 5163   2.730   1.050   3.888 -0.1419 -0.3072 -0.3330
 1348SOL    HW2 5164   2.804   1.092   3.845  0.2061  0.2722  0.7706
 1348SOL    HW3 5165   2.657   1.063   3.828  0.1969  0.9659 -0.5045
 1348SOL    MW4 5166   2.730   1.058   3.875 -0.0513 -0.0628 -0.2100
 1349SOL     OW 5167   2.952   3.460   0.548  0.3744  1.1228  0.2849
 1349SOL    HW2 5168   2.884   3.518   0.515  0.4647  0.8071 -0.4821
 1349SOL    HW3 5169   3.032   3.512   0.545  0.3368  1.1784  0.2487
 1349SOL    MW4 5170   2.954   3.475   0.543  0.3814  1.0885  0.1790
 1350SOL     OW 5171   4.538   2.128   6.113 -0.5057  0.8020  0.6188
 1350SOL    HW2 5172   4.491   2.140   6.196 -0.6675  0.7211  0.5397
 1350SOL    HW3 5173   4.578   2.041   6.121 -1.5080  0.2765  0.1374
 1350SOL    MW4 5174   4.537   2.118   6.125 -0.6593  0.7220  0.5449
 1351SOL     OW 5175   5.333   4.608   1.127  0.0572 -0.3427 -0.0316
 1351SOL    HW2 5176   5.424   4.591   1.155  0.6096  0.0901 -1.4802
 1351SOL    HW3 5177   5.283   4.533   1.161  1.0978 -0.9915  0.1268
 1351SOL    MW4 5178   5.339   4.596   1.135  0.2674 -0.3712 -0.2018
 1352SOL     OW 5179   1.362   2.659   4.261 -0.3407 -0.5710 -0.9149
 1352SOL    HW2 5180   1.374   2.754   4.267 -0.3286 -0.5833 -0.7337
 1352SOL    HW3 5181   1.330   2.644   4.172  0.5606 -0.4871 -1.2614
 1352SOL    MW4 5182   1.359   2.669   4.250 -0.2202 -0.5615 -0.9367
 1353SOL     OW 5183   1.723   3.261   2.874 -0.2706 -0.6073  0.8800
 1353SOL    HW2 5184   1.781   3.331   2.844 -0.5750 -0.4316  0.6821
 1353SOL    HW3 5185   1.636   3.303   2.878 -0.5247 -1.0766  0.3706
 1353SOL    MW4 5186   1.719   3.276   2.871 -0.3443 -0.6461  0.7867
 1354SOL     OW 5187   1.060   3.238   4.091  0.1630  0.2013  0.0048
 1354SOL    HW2 5188   1.068   3.177   4.018 -1.7777  0.4979 -0.5074
 1354SOL    HW3 5189   0.983   3.209   4.140 -0.0888  1.5119  0.4462
 1354SOL    MW4 5190   1.051   3.226   4.088 -0.1263  0.4134 -0.0046
 1355SOL     OW 5191   5.729   1.263   5.533  0.2964 -0.0447 -0.2861
 1355SOL    HW2 5192   5.733   1.202   5.459 -0.1566 -0.2364 -0.1552
 1355SOL    HW3 5193   5.786   1.225   5.599  0.7548  0.1601 -0.5619
 1355SOL    MW4 5194   5.737   1.250   5.532  0.2971 -0.0430 -0.3052
 1356SOL     OW 5195   4.173   6.061   0.008 -0.3950 -0.2443 -0.2547
 1356SOL    HW2 5196   4.261   6.074  -0.026 -0.8887 -0.9378 -1.9291
 1356SOL    HW3 5197   4.171   5.969   0.035 -0.9684 -0.6142 -1.4819
 1356SOL    MW4 5198   4.184   6.051   0.007 -0.5358 -0.3846 -0.6375
 1357SOL     OW 5199   2.214   0.362   1.835 -0.2853 -0.0912  0.4209
 1357SOL    HW2 5200   2.136   0.402   1.873  1.9958  2.6928  2.6985
 1357SOL    HW3 5201   2.194   0.354   1.742 -3.1945  0.6212  0.8798
 1357SOL    MW4 5202   2.201   0.366   1.828 -0.3682  0.3701  0.7820
 1358SOL     OW 5203   1.952   5.598   5.653 -0.1148 -0.7097  0.5189
 1358SOL    HW2 5204   1.960   5.594   5.558  3.3338  0.8730  0.6087
 1358SOL    HW3 5205   1.903   5.679   5.670  0.4008 -0.3035  0.0974
 1358SOL    MW4 5206   1.946   5.608   5.643  0.4082 -0.4473  0.4751
 1359SOL     OW 5207   5.468   2.627   3.239  0.0303 -0.1758 -0.0967
 1359SOL    HW2 5208   5.561   2.643   3.219 -0.3959  0.8762 -1.3438
 1359SOL    HW3 5209   5.456   2.669   3.325  0.7021 -0.3425  0.0907
 1359SOL    MW4 5210   5.479   2.635   3.248  0.0627 -0.0590 -0.2365
 1360SOL     OW 5211   3.257   4.191   1.116  0.3529  0.3370 -0.0534
 1360SOL    HW2 5212   3.307   4.190   1.198 -1.3242  1.2328  1.0563
 1360SOL    HW3 5213   3.211   4.275   1.119 -1.1744 -0.4418 -1.0252
 1360SOL    MW4 5214   3.258   4.202   1.127 -0.0699  0.3524 -0.0352
 1361SOL     OW 5215   5.285   6.251   6.395 -0.1787  0.2452 -0.2191
 1361SOL    HW2 5216   5.338   6.328   6.374 -1.7564  1.9015  1.5766
 1361SOL    HW3 5217   5.349   6.183   6.416  1.2499  1.5528 -0.1809
 1361SOL    MW4 5218   5.301   6.252   6.395 -0.1984  0.6363  0.0228
 1362SOL     OW 5219   1.076   6.119   1.185  0.1390  0.0936 -0.1399
 1362SOL    HW2 5220   1.120   6.166   1.114  1.0926 -0.2557  0.2028
 1362SOL    HW3 5221   1.031   6.187   1.236 -2.1770  0.1921 -2.1309
 1362SOL    MW4 5222   1.076   6.134   1.182 -0.0407  0.0605 -0.3574
 1363SOL     OW 5223   6.035   4.703   3.322 -0.3944  0.1127 -0.5456
 1363SOL    HW2 5224   6.016   4.790   3.290  0.0864 -0.2297 -1.8065
 1363SOL    HW3 5225   5.961   4.681   3.378  0.0065  1.7580  0.7269
 1363SOL    MW4 5226   6.023   4.711   3.325 -0.2781  0.2846 -0.5441
 1364SOL     OW 5227   4.734   3.248   4.096  0.6289 -0.0742 -0.0516
 1364SOL    HW2 5228   4.647   3.250   4.136  0.6625 -2.7463  0.3637
 1364SOL    HW3 5229   4.793   3.230   4.169  1.7605  2.7076 -0.1459
 1364SOL    MW4 5230   4.731   3.246   4.111  0.7827 -0.0597 -0.0093
 1365SOL     OW 5231   5.492   4.367   5.670  0.3123 -0.4885  0.0685
 1365SOL    HW2 5232   5.558   4.309   5.633 -0.4394 -2.0839  1.1256
 1365SOL    HW3 5233   5.451   4.316   5.740 -2.6260  0.0913 -1.0709
 1365SOL    MW4 5234   5.495   4.353   5.674 -0.1745 -0.6225  0.0576
 1366SOL     OW 5235   0.263   1.432   3.294 -0.4748  0.4881  0.1194
 1366SOL    HW2 5236   0.303   1.516   3.271 -0.2766  0.6451  0.9888
 1366SOL    HW3 5237   0.225   1.447   3.381 -1.3177 -0.0310 -0.1426
 1366SOL    MW4 5238   0.263   1.445   3.303 -0.5598  0.4404  0.1996
 1367SOL     OW 5239   5.229   4.080   5.416  0.4495  0.4080  0.0057
 1367SOL    HW2 5240   5.248   4.172   5.434 -0.6239  0.5585  0.4971
 1367SOL    HW3 5241   5.138   4.080   5.385  0.1834 -0.5519  0.7208
 1367SOL    MW4 5242   5.219   4.092   5.415  0.2728  0.3012  0.1649
 1368SOL     OW 5243   2.893   0.758   1.906  0.0416  0.1869 -0.7375
 1368SOL    HW2 5244   2.906   0.786   1.997  2.4485 -0.0324 -0.9469
 1368SOL    HW3 5245   2.837   0.681   1.913  0.3197  0.0649  0.6037
 1368SOL    MW4 5246   2.888   0.751   1.919  0.3958  0.1418 -0.5881
 1369SOL     OW 5247   3.945   1.193   1.879 -0.6267 -0.0782  0.3947
 1369SOL    HW2 5248   3.991   1.228   1.803 -0.3774 -0.2133  0.4845
 1369SOL    HW3 5249   3.852   1.197   1.854 -0.5953  0.5183  0.3509
 1369SOL    MW4 5250   3.939   1.199   1.866 -0.5897 -0.0173  0.4008
 1370SOL     OW 5251   2.381   2.497   2.539  0.3228  0.1911 -0.5156
 1370SOL    HW2 5252   2.320   2.471   2.607  0.0127 -0.8714 -1.1837
 1370SOL    HW3 5253   2.467   2.475   2.573  1.0733  5.7740  2.4736
 1370SOL    MW4 5254   2.384   2.491   2.552  0.3809  0.7875 -0.2093
 1371SOL     OW 5255   3.991   0.441   5.371  0.4360 -0.4334  0.1849
 1371SOL    HW2 5256   3.977   0.535   5.356  1.1916 -0.2982  0.2562
 1371SOL    HW3 5257   3.975   0.400   5.287 -1.4627 -0.4464  0.5164
 1371SOL    MW4 5258   3.987   0.448   5.358  0.2852 -0.4173  0.2381
 1372SOL     OW 5259   3.522   2.621   0.277  0.1886 -0.2987 -0.1616
 1372SOL    HW2 5260   3.509   2.648   0.368  1.2982  1.6988 -0.5237
 1372SOL    HW3 5261   3.435   2.602   0.244 -0.3334 -0.0901  1.0534
 1372SOL    MW4 5262   3.509   2.622   0.285  0.2661 -0.0076 -0.0491
 1373SOL     OW 5263   2.024   5.980   1.413 -0.0512 -0.6875 -0.0717
 1373SOL    HW2 5264   2.007   6.074   1.405  0.2973 -0.6612 -0.5042
 1373SOL    HW3 5265   1.942   5.944   1.447  0.0845 -0.1117  0.9041
 1373SOL    MW4 5266   2.011   5.988   1.417  0.0126 -0.6081  0.0000
 1374SOL     OW 5267   4.792   5.797   3.469  0.1480 -0.4392  0.1775
 1374SOL    HW2 5268   4.758   5.713   3.439 -0.7168 -0.7353  1.8526
 1374SOL    HW3 5269   4.722   5.859   3.448 -0.3378 -0.5999  1.2720
 1374SOL    MW4 5270   4.778   5.794   3.462 -0.0302 -0.4995  0.5429
 1375SOL     OW 5271   1.761   5.975   5.353  0.5028 -0.1569  0.4813
 1375SOL    HW2 5272   1.721   5.964   5.440 -1.1505 -1.3701 -0.3660
 1375SOL    HW3 5273   1.849   6.006   5.371  0.3293 -0.7186  2.6215
 1375SOL    MW4 5274   1.767   5.978   5.367  0.2618 -0.3911  0.6519
 1376SOL     OW 5275   0.633   1.083   4.841  0.0253  0.0459  0.2142
 1376SOL    HW2 5276   0.601   1.171   4.863  0.7798  0.2795  0.4153
 1376SOL    HW3 5277   0.701   1.066   4.906  1.4839  0.2568 -1.2083
 1376SOL    MW4 5278   0.637   1.092   4.852  0.3173  0.1046  0.0531
 1377SOL     OW 5279   3.933   2.373   0.748  0.2480 -0.3342  0.2916
 1377SOL    HW2 5280   3.942   2.312   0.676  1.4486  1.5842 -1.3028
 1377SOL    HW3 5281   3.874   2.441   0.715  0.8565  0.6135  1.0767
 1377SOL    MW4 5282   3.927   2.374   0.734  0.4867  0.0440  0.1848
 1378SOL     OW 5283   5.416   4.270   1.455  0.2115 -0.4523 -0.4325
 1378SOL    HW2 5284   5.436   4.348   1.506 -2.0666 -0.1089  0.0578
 1378SOL    HW3 5285   5.462   4.282   1.373  1.3946  0.4986  0.3367
 1378SOL    MW4 5286   5.424   4.282   1.451  0.0670 -0.2815 -0.2663
 1379SOL     OW 5287   1.102   0.849   1.962  0.3241 -0.1753  0.2286
 1379SOL    HW2 5288   1.148   0.928   1.989  0.4231 -0.0332 -0.3348
 1379SOL    HW3 5289   1.010   0.875   1.959  0.2431 -0.3555  0.9901
 1379SOL    MW4 5290   1.096   0.863   1.965  0.3264 -0.1803  0.2548
 1380SOL     OW 5291   5.561   1.932   0.698 -0.0963 -0.1033  0.9201
 1380SOL    HW2 5292   5.468   1.937   0.722 -0.3426  1.1422 -0.1590
 1380SOL    HW3 5293   5.564   1.864   0.631 -0.7358  1.6828 -1.0108
 1380SOL    MW4 5294   5.549   1.924   0.693 -0.2132  0.2967  0.5230
 1381SOL     OW 5295   1.384   5.579   5.204 -0.0990  0.3015  0.5753
 1381SOL    HW2 5296   1.331   5.648   5.163 -0.7128 -1.1646 -1.2696
 1381SOL    HW3 5297   1.320   5.511   5.225  0.6233 -0.0931  1.5409
 1381SOL    MW4 5298   1.368   5.579   5.201 -0.0847  0.0560  0.4593
 1382SOL     OW 5299   5.997   0.674   1.128 -0.1803  0.5005  0.6312
 1382SOL    HW2 5300   6.077   0.725   1.137 -0.9811  1.7962  0.5431
 1382SOL    HW3 5301   5.990   0.625   1.210  1.4875 -0.8197  0.0450
 1382SOL    MW4 5302   6.006   0.674   1.140 -0.0659  0.4973  0.5422
 1383SOL     OW 5303   6.280   0.801   3.773  0.3136 -0.7275  0.2190
 1383SOL    HW2 5304   6.352   0.816   3.833  0.9622 -0.4594 -0.5988
 1383SOL    HW3 5305   6.319   0.811   3.686 -0.6701 -0.7607 -0.2426
 1383SOL    MW4 5306   6.294   0.804   3.769  0.2693 -0.6965  0.0502
 1384SOL     OW 5307   1.866   3.629   3.206  0.0968  0.0016 -0.0821
 1384SOL    HW2 5308   1.805   3.556   3.194 -0.3136  0.4638 -0.8330
 1384SOL    HW3 5309   1.817   3.707   3.181  1.0600  0.3553 -0.9603
 1384SOL    MW4 5310   1.852   3.629   3.201  0.1697  0.1092 -0.2971
 1385SOL     OW 5311   2.868   6.244   5.404 -0.3333  0.5062 -0.2482
 1385SOL    HW2 5312   2.903   6.224   5.317  0.5392  1.0767 -0.0398
 1385SOL    HW3 5313   2.931   6.204   5.465 -1.2580 -0.4204  0.1298
 1385SOL    MW4 5314   2.881   6.236   5.401 -0.3402  0.4592 -0.1708
 1386SOL     OW 5315   5.709   4.133   2.210  0.5245  0.2891  0.0242
 1386SOL    HW2 5316   5.755   4.134   2.127 -0.3161 -2.0225 -0.5395
 1386SOL    HW3 5317   5.778   4.144   2.276  1.8072 -1.8865 -0.8382
 1386SOL    MW4 5318   5.724   4.134   2.208  0.5829 -0.3029 -0.1640
 1387SOL     OW 5319   0.619   5.807   4.790  0.1392 -0.2570  0.1310
 1387SOL    HW2 5320   0.617   5.832   4.697  1.5736 -1.7023 -0.3504
 1387SOL    HW3 5321   0.696   5.851   4.825  0.7811 -1.3339  0.1008
 1387SOL    MW4 5322   0.629   5.816   4.782  0.4132 -0.5898  0.0635
 1388SOL     OW 5323   5.767   0.610   5.848  0.2726 -0.0376 -0.2505
 1388SOL    HW2 5324   5.812   0.526   5.856 -0.3506 -0.8927 -3.7779
 1388SOL    HW3 5325   5.828   0.666   5.799  0.0595  1.0562  0.6865
 1388SOL    MW4 5326   5.781   0.606   5.842  0.1623 -0.0061 -0.5923
 1389SOL     OW 5327   5.716   0.011   5.687  0.4077 -0.6555  0.1831
 1389SOL    HW2 5328   5.780   0.002   5.616  1.6223  1.6530  0.8744
 1389SOL    HW3 5329   5.656   0.079   5.656  0.4497 -0.2339  1.0186
 1389SOL    MW4 5330   5.717   0.019   5.673  0.5735 -0.2953  0.3845
 1390SOL     OW 5331   6.307   1.005   1.281 -1.2153 -0.1269 -0.1547
 1390SOL    HW2 5332   6.245   0.970   1.345 -1.6407 -0.2567 -0.6378
 1390SOL    HW3 5333   6.331   1.091   1.316  0.0944 -0.9852  1.2243
 1390SOL    MW4 5334   6.302   1.012   1.294 -1.0986 -0.2572 -0.0365
 1391SOL     OW 5335   4.690   6.213   3.226 -0.2324  0.0190 -0.5474
 1391SOL    HW2 5336   4.758   6.280   3.230  0.0139 -0.1561 -1.4875
 1391SOL    HW3 5337   4.610   6.258   3.253  0.4077 -0.0249  1.5741
 1391SOL    MW4 5338   4.688   6.227   3.230 -0.1154 -0.0099 -0.3915
 1392SOL     OW 5339   1.910   4.554   0.201 -0.1879 -0.1654 -0.1768
 1392SOL    HW2 5340   1.889   4.621   0.266  0.9893 -0.1005  0.1584
 1392SOL    HW3 5341   1.931   4.476   0.253  1.0735 -0.0231 -0.4612
 1392SOL    MW4 5342   1.910   4.552   0.217  0.1338 -0.1381 -0.1701
 1393SOL     OW 5343   3.846   3.499   5.288 -0.0124  0.4772 -0.0702
 1393SOL    HW2 5344   3.813   3.559   5.354  2.2318 -0.6184  2.2285
 1393SOL    HW3 5345   3.834   3.412   5.327 -0.1226 -0.3501 -1.8587
 1393SOL    MW4 5346   3.840   3.495   5.302  0.2692  0.2235 -0.0029
 1394SOL     OW 5347   3.722   2.987   1.305  1.0059 -0.0500 -0.3563
 1394SOL    HW2 5348   3.814   3.011   1.299  1.7619 -1.5533  3.0164
 1394SOL    HW3 5349   3.675   3.070   1.300  2.4785  0.7543 -2.0398
 1394SOL    MW4 5350   3.728   3.001   1.304  1.2999 -0.1423 -0.1334
 1395SOL     OW 5351   6.216   3.891   5.432 -0.1810  0.1865  0.0752
 1395SOL    HW2 5352   6.134   3.858   5.470 -0.4713  0.9376  0.1091
 1395SOL    HW3 5353   6.201   3.890   5.338 -0.2890  0.4770  0.0889
 1395SOL    MW4 5354   6.203   3.886   5.425 -0.2336  0.3239  0.0815
 1396SOL     OW 5355   3.042   6.172   6.067  0.1157  0.0197 -0.4303
 1396SOL    HW2 5356   2.984   6.147   6.139  0.7203 -0.2189 -0.0124
 1396SOL    HW3 5357   3.022   6.111   5.997 -0.1462 -0.0532 -0.2909
 1396SOL    MW4 5358   3.032   6.161   6.067  0.1609 -0.0214 -0.3567
 1397SOL     OW 5359   2.847   0.355   2.842 -0.0804 -0.0081  0.2596
 1397SOL    HW2 5360   2.877   0.441   2.869 -0.5525  0.4704 -0.6891
 1397SOL    HW3 5361   2.830   0.308   2.923  1.4944  0.3129  0.8099
 1397SOL    MW4 5362   2.849   0.360   2.856  0.0651  0.0974  0.2070
 1398SOL     OW 5363   5.118   3.877   0.410 -0.6948  0.0726  0.7563
 1398SOL    HW2 5364   5.156   3.791   0.390  1.9544  1.0713  1.1567
 1398SOL    HW3 5365   5.136   3.891   0.503  0.3113  1.6683  0.3602
 1398SOL    MW4 5366   5.125   3.867   0.419 -0.2125  0.4149  0.7569
 1399SOL     OW 5367   1.368   0.258   6.096 -0.1146  0.3882 -0.8337
 1399SOL    HW2 5368   1.329   0.340   6.066  1.7953  1.1081 -1.5091
 1399SOL    HW3 5369   1.461   0.265   6.073  0.0577 -2.1318 -1.2708
 1399SOL    MW4 5370   1.375   0.269   6.089  0.1601  0.1507 -0.9805
 1400SOL     OW 5371   5.623   1.486   5.353  0.1374 -0.6896  0.2042
 1400SOL    HW2 5372   5.653   1.422   5.417  0.8844 -0.7179 -0.1615
 1400SOL    HW3 5373   5.700   1.504   5.299 -0.1360  0.2931  0.1148
 1400SOL    MW4 5374   5.637   1.480   5.354  0.1999 -0.5636  0.1442
 1401SOL     OW 5375   4.386   6.395   2.511 -0.6780 -0.1310 -0.5406
 1401SOL    HW2 5376   4.409   6.325   2.572  0.3667  0.1862 -0.5514
 1401SOL    HW3 5377   4.401   6.357   2.424  0.3269  0.2253 -0.5408
 1401SOL    MW4 5378   4.391   6.381   2.507 -0.4076 -0.0422 -0.5421
 1402SOL     OW 5379   5.377   0.925   4.708 -0.2079  0.3311 -0.4613
 1402SOL    HW2 5380   5.361   0.840   4.749 -0.9077  0.6039 -0.1580
 1402SOL    HW3 5381   5.469   0.921   4.681 -0.0375 -0.2601  0.1658
 1402SOL    MW4 5382   5.387   0.913   4.710 -0.2777  0.2891 -0.3386
 1403SOL     OW 5383   4.557   1.140   1.019 -0.0442  0.0611 -0.2565
 1403SOL    HW2 5384   4.510   1.073   0.972  0.3246 -1.4310  1.3761
 1403SOL    HW3 5385   4.649   1.127   0.994 -0.1955  1.4613 -1.6603
 1403SOL    MW4 5386   4.563   1.130   1.010 -0.0155  0.0490 -0.2263
 1404SOL     OW 5387   1.252   2.240   1.216  0.6448  0.4107 -0.0222
 1404SOL    HW2 5388   1.342   2.252   1.246  0.6088  0.9464 -0.1233
 1404SOL    HW3 5389   1.260   2.193   1.133  0.7165 -1.8844  1.1866
 1404SOL    MW4 5390   1.265   2.235   1.209  0.6495  0.1786  0.1239
 1405SOL     OW 5391   2.870   3.675   6.112 -0.1800 -0.2068  0.1779
 1405SOL    HW2 5392   2.848   3.715   6.196 -1.1635  0.2164 -0.2678
 1405SOL    HW3 5393   2.788   3.675   6.063  0.3696 -0.5060 -0.7661
 1405SOL    MW4 5394   2.856   3.680   6.117 -0.2373 -0.1905 -0.0055
 1406SOL     OW 5395   5.827   0.925   2.262 -0.4179  0.5662  0.3860
 1406SOL    HW2 5396   5.831   0.873   2.182  0.2534  3.7614 -1.8695
 1406SOL    HW3 5397   5.911   0.911   2.305 -1.4648 -2.6358  1.7304
 1406SOL    MW4 5398   5.839   0.916   2.257 -0.4674  0.5653  0.2658
 1407SOL     OW 5399   5.418   4.796   2.451 -0.4584  0.0819 -0.4353
 1407SOL    HW2 5400   5.415   4.890   2.467  1.3609  0.1599 -0.3008
 1407SOL    HW3 5401   5.410   4.757   2.538  0.6422  0.2101 -0.2528
 1407SOL    MW4 5402   5.417   4.803   2.465 -0.0731  0.1091 -0.3934
 1408SOL     OW 5403   0.626   3.338   0.691  0.1426  0.0744  0.0054
 1408SOL    HW2 5404   0.633   3.433   0.696 -0.0123  0.3070 -2.5981
 1408SOL    HW3 5405   0.540   3.323   0.650  0.5798 -1.1223 -0.5189
 1408SOL    MW4 5406   0.616   3.348   0.686  0.1799 -0.0528 -0.4073
 1409SOL     OW 5407   5.123   4.509   5.269  0.4628 -0.4054 -0.8975
 1409SOL    HW2 5408   5.100   4.582   5.211  4.7273  1.1555 -1.0033
 1409SOL    HW3 5409   5.040   4.480   5.306 -1.7947  2.3681 -3.3488
 1409SOL    MW4 5410   5.109   4.515   5.267  0.7276  0.1665 -1.2349
 1410SOL     OW 5411   4.010   0.849   2.439  0.8116  0.0082  0.1252
 1410SOL    HW2 5412   4.042   0.792   2.509  0.9216  0.5628  0.5420
 1410SOL    HW3 5413   4.076   0.843   2.371  0.7781 -0.4294  0.1299
 1410SOL    MW4 5414   4.023   0.841   2.440  0.8217  0.0237  0.1808
 1411SOL     OW 5415   1.986   1.585   1.471 -0.7819 -0.4569  0.0302
 1411SOL    HW2 5416   2.026   1.506   1.434 -1.1818 -0.1715 -1.0517
 1411SOL    HW3 5417   2.028   1.596   1.556 -0.4507 -1.6261  0.0302
 1411SOL    MW4 5418   1.997   1.576   1.477 -0.7910 -0.5735 -0.1125
 1412SOL     OW 5419   1.353   2.930   4.364  0.3333  0.3287 -0.9482
 1412SOL    HW2 5420   1.449   2.938   4.360  0.3731  0.1115 -0.4881
 1412SOL    HW3 5421   1.324   2.950   4.275  0.5769  3.2972 -0.4688
 1412SOL    MW4 5422   1.362   2.933   4.351  0.3707  0.6917 -0.8242
 1413SOL     OW 5423   3.568   4.875   3.631 -0.9343 -0.5949  0.4744
 1413SOL    HW2 5424   3.558   4.969   3.647  1.0364 -0.0703 -1.0372
 1413SOL    HW3 5425   3.630   4.869   3.559 -2.0046 -3.0557 -0.3556
 1413SOL    MW4 5426   3.575   4.887   3.624 -0.8155 -0.8503  0.1655
 1414SOL     OW 5427   4.437   2.375   5.963  0.2316  0.8540 -0.6425
 1414SOL    HW2 5428   4.414   2.433   5.890  0.6430 -0.5246 -1.9101
 1414SOL    HW3 5429   4.444   2.289   5.923 -1.2335 -0.2526  1.3459
 1414SOL    MW4 5430   4.435   2.372   5.948  0.0926  0.5261 -0.5474
 1415SOL     OW 5431   4.903   0.534   1.154 -0.0116 -0.1967 -0.7321
 1415SOL    HW2 5432   4.973   0.475   1.127  0.3079 -0.5021  0.6946
 1415SOL    HW3 5433   4.823   0.483   1.143  0.0804 -0.2351 -1.2748
 1415SOL    MW4 5434   4.902   0.520   1.149  0.0427 -0.2420 -0.6155
 1416SOL     OW 5435   3.238   6.056   4.737 -0.3509 -0.0424  0.3276
 1416SOL    HW2 5436   3.272   5.970   4.760 -0.0221 -0.0230 -0.0739
 1416SOL    HW3 5437   3.264   6.114   4.809 -0.3140 -0.2172  0.4529
 1416SOL    MW4 5438   3.246   6.053   4.749 -0.3026 -0.0629  0.2911
 1417SOL     OW 5439   1.666   2.397   4.843  0.3595  0.0323  0.3743
 1417SOL    HW2 5440   1.680   2.358   4.929 -0.2282 -1.1452 -0.0503
 1417SOL    HW3 5441   1.755   2.415   4.810  0.5789  1.0316  1.4372
 1417SOL    MW4 5442   1.680   2.395   4.850  0.3109  0.0088  0.4585
 1418SOL     OW 5443   2.275   1.880   3.880 -0.0045 -0.1037 -0.1790
 1418SOL    HW2 5444   2.249   1.898   3.790 -1.3534 -1.0815 -0.0204
 1418SOL    HW3 5445   2.280   1.966   3.922 -2.8170  0.2358 -0.3242
 1418SOL    MW4 5446   2.272   1.894   3.874 -0.5536 -0.1879 -0.1773
 1419SOL     OW 5447   5.663   5.931   2.644  0.0778  0.1974 -0.1811
 1419SOL    HW2 5448   5.638   6.008   2.593  0.7167  0.4180 -0.1701
 1419SOL    HW3 5449   5.580   5.887   2.663 -0.4026  1.3943  0.6343
 1419SOL    MW4 5450   5.649   5.936   2.640  0.0987  0.3845 -0.0720
 1420SOL     OW 5451   1.916   2.008   0.973 -0.5650  0.3636  0.3449
 1420SOL    HW2 5452   1.982   1.980   0.909  0.0620  1.4392  0.4942
 1420SOL    HW3 5453   1.879   2.088   0.935  0.2966  1.4063  1.6191
 1420SOL    MW4 5454   1.920   2.015   0.959 -0.3686  0.6431  0.5327
 1421SOL     OW 5455   5.364   1.130   0.228  0.1323 -0.4332 -0.1528
 1421SOL    HW2 5456   5.332   1.219   0.245 -3.2838 -1.0769 -2.2083
 1421SOL    HW3 5457   5.419   1.139   0.150  0.2711 -0.0252 -0.0089
 1421SOL    MW4 5458   5.367   1.143   0.220 -0.3001 -0.4643 -0.4050
 1422SOL     OW 5459   3.605   1.184   2.236  0.3792  0.2688 -0.1929
 1422SOL    HW2 5460   3.685   1.176   2.289 -0.0124  0.1782  0.3981
 1422SOL    HW3 5461   3.543   1.228   2.294 -0.1307 -0.0217 -0.5102
 1422SOL    MW4 5462   3.608   1.189   2.251  0.2602  0.2186 -0.1568
 1423SOL     OW 5463   4.645   1.254   3.682 -0.3429  0.4832 -0.0963
 1423SOL    HW2 5464   4.624   1.340   3.645 -0.3404  0.1326 -0.9121
 1423SOL    HW3 5465   4.636   1.193   3.609  0.8191 -0.0576  0.1869
 1423SOL    MW4 5466   4.641   1.257   3.668 -0.1892  0.3656 -0.1665
 1424SOL     OW 5467   6.363   4.298   2.458 -1.1807  0.5217 -0.2883
 1424SOL    HW2 5468   6.306   4.234   2.416 -1.4812 -0.6473  1.7819
 1424SOL    HW3 5469   6.450   4.278   2.425 -1.3651 -0.5569 -0.1278
 1424SOL    MW4 5470   6.367   4.287   2.448 -1.2447  0.2252  0.0060
 1425SOL     OW 5471   5.286   4.112   2.719  0.0625  0.0399  0.1120
 1425SOL    HW2 5472   5.311   4.034   2.670  1.7603  0.2919  0.5088
 1425SOL    HW3 5473   5.209   4.086   2.769 -0.6153 -0.7461 -1.3030
 1425SOL    MW4 5474   5.279   4.099   2.719  0.1971 -0.0305 -0.0224
 1426SOL     OW 5475   1.634   1.061   4.649  0.0645  0.5079 -0.3962
 1426SOL    HW2 5476   1.671   1.114   4.720  0.2639 -0.1425 -0.0106
 1426SOL    HW3 5477   1.708   1.046   4.590  0.2603 -0.1906  0.0135
 1426SOL    MW4 5478   1.649   1.066   4.651  0.1166  0.3299 -0.2912
 1427SOL     OW 5479   0.918   1.964   1.690 -0.3967 -0.2462  0.3075
 1427SOL    HW2 5480   0.976   2.028   1.729  0.5318  0.2537 -1.7794
 1427SOL    HW3 5481   0.971   1.884   1.684 -0.4464 -0.2513 -0.1098
 1427SOL    MW4 5482   0.933   1.962   1.694 -0.2808 -0.1809 -0.0229
 1428SOL     OW 5483   3.028   6.095   1.938  0.5144 -0.5271 -0.0972
 1428SOL    HW2 5484   2.993   6.049   1.861  0.3814  0.6162 -0.7359
 1428SOL    HW3 5485   2.998   6.185   1.928  0.5039 -0.3550  1.3043
 1428SOL    MW4 5486   3.020   6.101   1.926  0.4955 -0.3536  0.0034
 1429SOL     OW 5487   1.662   0.366   2.230 -0.1056 -0.1864 -0.1094
 1429SOL    HW2 5488   1.612   0.446   2.212  0.0067 -0.0840  0.0275
 1429SOL    HW3 5489   1.753   0.395   2.228 -0.0486 -0.3842 -0.4196
 1429SOL    MW4 5490   1.667   0.381   2.227 -0.0833 -0.1990 -0.1323
 1430SOL     OW 5491   0.133   6.034   2.728  0.1489  0.4414 -0.3956
 1430SOL    HW2 5492   0.191   6.108   2.710  2.3839 -0.5750  1.9257
 1430SOL    HW3 5493   0.191   5.966   2.763 -2.1891 -1.4447  0.0950
 1430SOL    MW4 5494   0.148   6.035   2.730  0.1353  0.0585 -0.0246
 1431SOL     OW 5495   1.505   4.184   0.592 -0.2079  0.8735 -0.2258
 1431SOL    HW2 5496   1.412   4.190   0.574  0.2082  1.2887 -2.4748
 1431SOL    HW3 5497   1.527   4.265   0.637 -0.6762  1.4498 -1.0247
 1431SOL    MW4 5498   1.496   4.195   0.596 -0.2148  1.0043 -0.6279
 1432SOL     OW 5499   1.543   1.758   2.205 -0.7177 -0.2368 -0.0024
 1432SOL    HW2 5500   1.452   1.785   2.216 -0.0478  2.6587 -0.8242
 1432SOL    HW3 5501   1.560   1.769   2.112  0.1893 -1.9804 -0.0922
 1432SOL    MW4 5502   1.533   1.763   2.194 -0.5096 -0.0848 -0.1227
 1433SOL     OW 5503   2.514   4.954   5.020  0.6879 -0.5764 -0.1889
 1433SOL    HW2 5504   2.513   4.883   5.084  0.8277  1.5590  2.3687
 1433SOL    HW3 5505   2.607   4.965   4.999  0.7033 -0.9196 -0.3000
 1433SOL    MW4 5506   2.526   4.946   5.026  0.7084 -0.3399  0.1339
 1434SOL     OW 5507   2.032   3.856   3.289 -0.2681  0.0395  0.2506
 1434SOL    HW2 5508   1.977   3.778   3.297 -0.7416  0.3401  0.0007
 1434SOL    HW3 5509   2.121   3.825   3.304 -0.1477 -0.9815 -2.1053
 1434SOL    MW4 5510   2.036   3.841   3.292 -0.3147 -0.0556 -0.0932
 1435SOL     OW 5511   0.305   2.589   0.211  0.0757 -0.5165  0.1724
 1435SOL    HW2 5512   0.273   2.526   0.275  0.0580 -0.7868 -0.0969
 1435SOL    HW3 5513   0.255   2.569   0.131 -0.1388  0.0312  0.1701
 1435SOL    MW4 5514   0.294   2.578   0.209  0.0451 -0.4799  0.1366
 1436SOL     OW 5515   0.232   1.203   5.051  0.2108  0.2380  0.4918
 1436SOL    HW2 5516   0.260   1.193   5.142  1.1188  1.4971  0.3798
 1436SOL    HW3 5517   0.289   1.145   5.002 -0.2685 -0.4305  0.7036
 1436SOL    MW4 5518   0.243   1.194   5.056  0.2674  0.3159  0.5049
 1437SOL     OW 5519   3.696   0.949   4.405  0.1210  0.1183 -0.4276
 1437SOL    HW2 5520   3.617   0.911   4.367 -1.2695  2.0303  0.4471
 1437SOL    HW3 5521   3.700   0.913   4.493 -1.1933  1.8925  0.3995
 1437SOL    MW4 5522   3.686   0.939   4.411 -0.2358  0.6047 -0.2031
 1438SOL     OW 5523   4.722   0.637   2.096  0.2465 -0.1293  0.2801
 1438SOL    HW2 5524   4.736   0.607   2.186  0.6158 -1.2943 -0.1404
 1438SOL    HW3 5525   4.763   0.569   2.042  0.0290  0.5522 -0.7702
 1438SOL    MW4 5526   4.730   0.624   2.101  0.2665 -0.1931  0.0860
 1439SOL     OW 5527   3.185   6.403   0.460  0.2758 -0.0552  0.5243
 1439SOL    HW2 5528   3.132   6.453   0.398 -0.1928 -0.7507  0.3469
 1439SOL    HW3 5529   3.173   6.312   0.432  1.5429 -0.2320  0.4931
 1439SOL    MW4 5530   3.177   6.397   0.448  0.3812 -0.1703  0.4968
 1440SOL     OW 5531   2.616   0.067   4.953 -0.7391  0.4927 -0.0425
 1440SOL    HW2 5532   2.523   0.071   4.929 -0.2867  2.3659 -1.7040
 1440SOL    HW3 5533   2.635   0.152   4.992  0.4450  0.4319 -0.4357
 1440SOL    MW4 5534   2.606   0.078   4.955 -0.5232  0.7318 -0.3136
 1441SOL     OW 5535   6.353   6.034   2.540 -0.5988  0.0669 -0.6771
 1441SOL    HW2 5536   6.322   5.944   2.530  0.2408 -0.3238  0.0529
 1441SOL    HW3 5537   6.436   6.025   2.587 -1.4770  1.3613  1.2536
 1441SOL    MW4 5538   6.360   6.021   2.545 -0.6039  0.1862 -0.3260
 1442SOL     OW 5539   2.874   6.133   0.733  0.6161 -0.4338  0.1235
 1442SOL    HW2 5540   2.794   6.130   0.786  0.0233  0.0828 -0.7128
 1442SOL    HW3 5541   2.924   6.205   0.770 -0.6179  1.1221 -1.1160
 1442SOL    MW4 5542   2.870   6.142   0.745  0.3751 -0.1604 -0.1504
 1443SOL     OW 5543   1.633   6.210   3.376  0.5836 -0.3318 -0.9474
 1443SOL    HW2 5544   1.641   6.305   3.368  0.6215 -0.0808  1.3817
 1443SOL    HW3 5545   1.711   6.184   3.425  0.6136 -1.6025 -1.6345
 1443SOL    MW4 5546   1.644   6.219   3.381  0.5925 -0.4664 -0.7308
 1444SOL     OW 5547   1.322   4.467   2.686  0.0945 -0.3413 -0.9428
 1444SOL    HW2 5548   1.275   4.408   2.745 -0.6489 -1.2859 -2.4273
 1444SOL    HW3 5549   1.272   4.465   2.605  1.3264  0.5885 -1.7610
 1444SOL    MW4 5550   1.309   4.459   2.683  0.1590 -0.3433 -1.2466
 1445SOL     OW 5551   2.859   5.140   4.477 -0.2568  0.6102  0.1308
 1445SOL    HW2 5552   2.776   5.122   4.434 -0.0386  1.5976 -0.7504
 1445SOL    HW3 5553   2.847   5.110   4.567 -0.1184 -3.3535 -0.9556
 1445SOL    MW4 5554   2.847   5.133   4.483 -0.2097  0.2176 -0.1288
 1446SOL     OW 5555   1.371   0.691   0.551  0.3236  0.4990  0.3897
 1446SOL    HW2 5556   1.286   0.652   0.573 -0.7916  2.0848 -0.9090
 1446SOL    HW3 5557   1.434   0.621   0.570 -1.2678 -0.8313  1.1043
 1446SOL    MW4 5558   1.368   0.676   0.557 -0.0335  0.5327  0.3126
 1447SOL     OW 5559   2.195   2.793   1.891 -0.4998  0.1204  0.3850
 1447SOL    HW2 5560   2.222   2.859   1.827  0.6587  0.0355  0.7490
 1447SOL    HW3 5561   2.198   2.710   1.843 -2.8514  0.3717 -0.3316
 1447SOL    MW4 5562   2.199   2.791   1.876 -0.6572  0.1424  0.3385
 1448SOL     OW 5563   3.106   5.994   2.187 -0.5534 -0.2040  0.0115
 1448SOL    HW2 5564   3.114   6.025   2.097 -0.7974  1.9106  0.6612
 1448SOL    HW3 5565   3.196   5.992   2.219 -0.6026  0.9284  0.2726
 1448SOL    MW4 5566   3.119   5.998   2.179 -0.5921  0.2244  0.1317
 1449SOL     OW 5567   1.710   0.460   0.440 -0.2989  0.2169 -0.6010
 1449SOL    HW2 5568   1.677   0.452   0.351  2.2175 -0.6444 -1.5457
 1449SOL    HW3 5569   1.788   0.404   0.442 -0.0683  0.5049  2.0354
 1449SOL    MW4 5570   1.716   0.452   0.429  0.0635  0.1412 -0.3778
 1450SOL     OW 5571   3.239   3.422   5.919  0.2709  0.1445  0.5554
 1450SOL    HW2 5572   3.168   3.412   5.855 -0.4173  0.7949  1.1959
 1450SOL    HW3 5573   3.204   3.482   5.984  1.5606  0.8049  0.6791
 1450SOL    MW4 5574   3.225   3.429   5.919  0.3503  0.3174  0.6563
 1451SOL     OW 5575   1.680   6.139   4.628 -0.4420 -0.5143  0.3892
 1451SOL    HW2 5576   1.646   6.052   4.649  1.7494 -1.1334  1.6592
 1451SOL    HW3 5577   1.675   6.187   4.711 -0.1897  0.0414  0.0851
 1451SOL    MW4 5578   1.675   6.134   4.642 -0.1196 -0.5226  0.5166
 1452SOL     OW 5579   2.626   6.122   0.861 -0.0190 -0.2592 -0.3405
 1452SOL    HW2 5580   2.615   6.048   0.921  1.2604 -1.8581 -1.9777
 1452SOL    HW3 5581   2.539   6.134   0.823 -0.2032 -1.0393 -0.1871
 1452SOL    MW4 5582   2.613   6.113   0.864  0.1255 -0.5731 -0.5362
 1453SOL     OW 5583   4.431   0.868   2.903  0.3128  0.4802  0.1986
 1453SOL    HW2 5584   4.461   0.790   2.950 -2.0176 -0.4792  0.2533
 1453SOL    HW3 5585   4.339   0.878   2.930  0.4173  2.9949 -0.1824
 1453SOL    MW4 5586   4.423   0.859   2.913  0.0191  0.6854  0.1556
 1454SOL     OW 5587   1.941   3.982   0.331 -0.3681  0.1324 -0.5044
 1454SOL    HW2 5588   1.865   3.986   0.390  1.6633  1.3437  2.2619
 1454SOL    HW3 5589   1.975   3.893   0.341 -0.1244  0.2850  0.0780
 1454SOL    MW4 5590   1.935   3.971   0.340 -0.0680  0.3123 -0.0626
 1455SOL     OW 5591   5.554   4.554   5.316  0.3480  0.5375  0.6624
 1455SOL    HW2 5592   5.509   4.569   5.233 -1.0029 -0.4021  1.1815
 1455SOL    HW3 5593   5.632   4.609   5.312  0.5206  0.2108 -1.3779
 1455SOL    MW4 5594   5.558   4.563   5.305  0.1925  0.3704  0.4617
 1456SOL     OW 5595   4.842   5.479   1.309  0.2104 -0.0018  0.9078
 1456SOL    HW2 5596   4.798   5.403   1.347  0.7917 -1.0692 -0.4552
 1456SOL    HW3 5597   4.901   5.509   1.378 -2.9922  1.9077  3.0742
 1456SOL    MW4 5598   4.844   5.473   1.323 -0.1354  0.1093  1.0138
 1457SOL     OW 5599   3.585   6.132   0.082  0.4088 -0.6701 -0.0216
 1457SOL    HW2 5600   3.588   6.107   0.175 -0.1557  0.7217  0.4011
 1457SOL    HW3 5601   3.661   6.088   0.043  0.0456 -2.1357  0.8599
 1457SOL    MW4 5602   3.596   6.123   0.089  0.2864 -0.6798  0.1505
 1458SOL     OW 5603   0.410   5.699   0.658 -0.4601 -0.2445  0.8417
 1458SOL    HW2 5604   0.421   5.793   0.669  0.7444 -0.2162 -0.2734
 1458SOL    HW3 5605   0.486   5.672   0.605 -0.8926 -1.7986  0.9494
 1458SOL    MW4 5606   0.422   5.708   0.652 -0.3583 -0.4458  0.7088
 1459SOL     OW 5607   3.671   2.189   4.997  0.1472  0.1064  0.2083
 1459SOL    HW2 5608   3.591   2.227   4.960 -1.3388 -1.9574  1.1254
 1459SOL    HW3 5609   3.720   2.158   4.921  0.6582  2.2805 -0.4432
 1459SOL    MW4 5610   3.667   2.190   4.982  0.0185  0.1209  0.2433
 1460SOL     OW 5611   4.439   2.613   1.741 -0.1969  0.2030  0.3163
 1460SOL    HW2 5612   4.467   2.606   1.832  0.6529 -1.1567 -0.0206
 1460SOL    HW3 5613   4.372   2.545   1.731  0.3183 -0.2312 -0.2734
 1460SOL    MW4 5614   4.433   2.603   1.752 -0.0168 -0.0337  0.1941
 1461SOL     OW 5615   3.329   5.359   3.770 -0.1006  0.2466 -0.2305
 1461SOL    HW2 5616   3.356   5.345   3.861  0.4122 -2.9062 -0.7418
 1461SOL    HW3 5617   3.240   5.395   3.776  0.4822  1.5277  1.4721
 1461SOL    MW4 5618   3.321   5.362   3.783  0.0440 -0.0004 -0.0733
 1462SOL     OW 5619   3.911   0.391   3.310  0.1755  0.0276  0.2235
 1462SOL    HW2 5620   3.847   0.462   3.316  0.8437  0.6658 -0.0720
 1462SOL    HW3 5621   3.960   0.396   3.392  1.1058  0.7795 -0.3625
 1462SOL    MW4 5622   3.909   0.401   3.322  0.3864  0.2110  0.1072
 1463SOL     OW 5623   6.231   5.194   0.887 -0.5435  0.5630  0.7064
 1463SOL    HW2 5624   6.277   5.150   0.959  1.8094  0.0403 -1.0166
 1463SOL    HW3 5625   6.238   5.133   0.814 -1.9465  1.5440 -0.2816
 1463SOL    MW4 5626   6.238   5.180   0.887 -0.4181  0.6235  0.3487
 1464SOL     OW 5627   3.139   5.382   0.602  0.1095 -0.0610 -0.4852
 1464SOL    HW2 5628   3.190   5.301   0.596 -1.2117 -1.0803  1.1048
 1464SOL    HW3 5629   3.084   5.381   0.524  0.6733 -0.2684 -0.8926
 1464SOL    MW4 5630   3.139   5.371   0.591  0.0096 -0.2229 -0.3292
 1465SOL     OW 5631   1.072   0.883   2.947 -0.6526 -0.4769  0.8556
 1465SOL    HW2 5632   1.131   0.832   2.891 -1.2405 -0.4376  0.1883
 1465SOL    HW3 5633   1.006   0.820   2.976 -2.9476  0.3056 -2.0934
 1465SOL    MW4 5634   1.071   0.868   2.943 -1.0330 -0.3685  0.3784
 1466SOL     OW 5635   1.020   2.040   5.940  0.2392 -0.3989 -0.0910
 1466SOL    HW2 5636   1.051   1.951   5.921  1.1212  0.1451 -1.3199
 1466SOL    HW3 5637   1.095   2.096   5.921  0.3109  0.4941  2.4425
 1466SOL    MW4 5638   1.034   2.036   5.935  0.3650 -0.2093  0.0811
 1467SOL     OW 5639   0.517   2.666   4.049  0.9793  0.1862  0.1614
 1467SOL    HW2 5640   0.535   2.740   4.108  0.5204  0.8103 -0.4649
 1467SOL    HW3 5641   0.601   2.648   4.007  1.2414 -0.0736  0.7895
 1467SOL    MW4 5642   0.531   2.673   4.051  0.9534  0.2343  0.1616
 1468SOL     OW 5643   1.362   4.561   1.557 -0.5453 -0.0290 -0.5333
 1468SOL    HW2 5644   1.327   4.486   1.605 -1.6078  0.2670 -0.8148
 1468SOL    HW3 5645   1.353   4.634   1.617  0.0857 -0.0380 -0.4206
 1468SOL    MW4 5646   1.356   4.561   1.571 -0.6023  0.0089 -0.5555
 1469SOL     OW 5647   5.009   4.912   1.103 -0.6112  0.5637 -0.4968
 1469SOL    HW2 5648   5.082   4.881   1.158 -2.3413 -0.5164  1.3050
 1469SOL    HW3 5649   5.031   4.881   1.015  0.7795 -0.2927  0.1092
 1469SOL    MW4 5650   5.022   4.904   1.099 -0.6560  0.3082 -0.1792
 1470SOL     OW 5651   0.413   4.468   0.937  0.0472 -0.6150  0.3769
 1470SOL    HW2 5652   0.478   4.402   0.913 -0.2252 -0.7254 -0.0684
 1470SOL    HW3 5653   0.363   4.483   0.857 -2.3391 -2.6126  1.3434
 1470SOL    MW4 5654   0.415   4.461   0.924 -0.3036 -0.8931  0.4457
 1471SOL     OW 5655   1.801   0.352   5.388  0.4297 -0.4604  0.0934
 1471SOL    HW2 5656   1.721   0.391   5.351  0.4976 -0.9994 -0.6538
 1471SOL    HW3 5657   1.786   0.257   5.382  0.4040 -0.5706  1.5735
 1471SOL    MW4 5658   1.788   0.344   5.382  0.4352 -0.5460  0.1901
 1472SOL     OW 5659   6.346   4.083   6.161  0.0259  0.3177  0.6789
 1472SOL    HW2 5660   6.355   4.167   6.116  1.2016  0.5925  1.3727
 1472SOL    HW3 5661   6.379   4.100   6.249 -0.2087 -0.7534  0.9892
 1472SOL    MW4 5662   6.352   4.097   6.167  0.1501  0.2126  0.8113
 1473SOL     OW 5663   4.254   1.112   3.029 -0.5968 -0.9034 -0.3418
 1473SOL    HW2 5664   4.305   1.049   3.080 -0.9281  1.0057  2.6250
 1473SOL    HW3 5665   4.176   1.064   3.002 -0.0922 -2.2185  0.4483
 1473SOL    MW4 5666   4.250   1.098   3.032 -0.5739 -0.8250  0.1539
 1474SOL     OW 5667   6.158   0.295   1.568  0.0556  0.0639  0.3616
 1474SOL    HW2 5668   6.137   0.215   1.615  0.8549 -1.1338 -1.2465
 1474SOL    HW3 5669   6.253   0.295   1.561  0.0238  0.8186 -0.2419
 1474SOL    MW4 5670   6.167   0.285   1.574  0.1568  0.0055  0.0698
 1475SOL     OW 5671   0.070   1.303   1.995 -0.0902  0.3255 -0.0573
 1475SOL    HW2 5672   0.143   1.358   1.966  1.1314 -0.0817  2.0477
 1475SOL    HW3 5673   0.001   1.365   2.020  0.1779  0.7777 -0.4254
 1475SOL    MW4 5674   0.070   1.318   1.994  0.1064  0.3314  0.1719
 1476SOL     OW 5675   0.432   5.496   4.598  0.0753 -0.1513 -0.4003
 1476SOL    HW2 5676   0.424   5.400   4.599 -0.8515 -0.0866  0.8310
 1476SOL    HW3 5677   0.471   5.516   4.513 -0.1469 -1.5926 -0.8695
 1476SOL    MW4 5678   0.436   5.486   4.587 -0.0763 -0.3330 -0.2997
 1477SOL     OW 5679   4.233   5.051   0.375  0.4635 -0.5951  0.4768
 1477SOL    HW2 5680   4.288   5.022   0.302  0.9317 -0.3281  0.7193
 1477SOL    HW3 5681   4.182   5.123   0.339  1.4492  0.2346  0.6843
 1477SOL    MW4 5682   4.234   5.056   0.361  0.6553 -0.4504  0.5362
 1478SOL     OW 5683   6.304   6.283   4.049  0.2691 -0.2837  0.2040
 1478SOL    HW2 5684   6.361   6.209   4.071 -0.0367 -0.5960 -0.0573
 1478SOL    HW3 5685   6.273   6.264   3.961 -0.1297 -0.0456  0.2903
 1478SOL    MW4 5686   6.307   6.271   4.041  0.1762 -0.2935  0.1809
 1479SOL     OW 5687   0.246   2.508   4.265  0.0930 -0.3435  0.3800
 1479SOL    HW2 5688   0.280   2.544   4.347 -0.1420 -1.3585  0.9418
 1479SOL    HW3 5689   0.179   2.445   4.293 -0.3709 -0.3088 -0.6143
 1479SOL    MW4 5690   0.241   2.505   4.280  0.0008 -0.4729  0.3229
 1480SOL     OW 5691   0.337   4.925   0.597 -0.4182  0.8223  0.5881
 1480SOL    HW2 5692   0.334   4.969   0.682  1.8202  3.7254 -0.6973
 1480SOL    HW3 5693   0.274   4.973   0.543  1.1004  1.7019 -0.4689
 1480SOL    MW4 5694   0.328   4.937   0.601  0.0775  1.3214  0.2791
 1481SOL     OW 5695   0.072   5.277   0.090 -0.4442 -0.5300 -0.6986
 1481SOL    HW2 5696   0.043   5.186   0.091  0.5927 -0.8784  0.0322
 1481SOL    HW3 5697   0.010   5.323   0.146 -1.0043 -0.7723 -1.1145
 1481SOL    MW4 5698   0.060   5.271   0.098 -0.3813 -0.6080 -0.6571
 1482SOL     OW 5699   2.794   5.007   4.992 -0.0851 -0.5190 -0.1710
 1482SOL    HW2 5700   2.784   5.031   5.084 -2.2078 -1.0774 -0.2145
 1482SOL    HW3 5701   2.823   4.915   4.994  0.8055 -0.2493 -0.0820
 1482SOL    MW4 5702   2.797   4.998   5.004 -0.2476 -0.5571 -0.1650
 1483SOL     OW 5703   4.649   0.113   2.448 -0.3642 -0.5860 -0.2140
 1483SOL    HW2 5704   4.560   0.078   2.450 -0.5955 -0.0804  2.8549
 1483SOL    HW3 5705   4.671   0.129   2.540  2.0441  1.4838 -1.0311
 1483SOL    MW4 5706   4.640   0.110   2.460 -0.0770 -0.2462  0.0831
 1484SOL     OW 5707   1.469   4.036   4.137 -0.4120 -0.3895 -0.5920
 1484SOL    HW2 5708   1.553   4.001   4.107  0.7590  2.1645 -0.4729
 1484SOL    HW3 5709   1.471   4.023   4.232  0.8221  1.5104 -0.3123
 1484SOL    MW4 5710   1.481   4.029   4.146 -0.0946  0.1981 -0.5394
 1485SOL     OW 5711   4.261   4.816   3.987  0.4333  0.0207 -0.0457
 1485SOL    HW2 5712   4.237   4.908   3.997 -0.9118 -0.4587  1.5579
 1485SOL    HW3 5713   4.319   4.815   3.911 -0.7339  1.9740 -1.0441
 1485SOL    MW4 5714   4.265   4.828   3.978  0.1018  0.2151  0.0342
 1486SOL     OW 5715   4.809   6.063   5.339  0.2708  0.1538 -0.2639
 1486SOL    HW2 5716   4.900   6.041   5.359  0.4093  0.2311 -0.7943
 1486SOL    HW3 5717   4.812   6.099   5.250 -0.3079 -0.0641 -0.3749
 1486SOL    MW4 5718   4.821   6.065   5.330  0.2128  0.1353 -0.3485
 1487SOL     OW 5719   3.939   3.450   1.070  0.3958 -0.6216 -0.2015
 1487SOL    HW2 5720   3.857   3.450   1.118 -0.9406 -2.9965 -2.2254
 1487SOL    HW3 5721   3.931   3.522   1.007  0.3389 -0.1949  0.2867
 1487SOL    MW4 5722   3.927   3.459   1.068  0.2120 -0.8786 -0.4041
 1488SOL     OW 5723   4.895   4.188   3.438 -0.1469  0.0961  0.4239
 1488SOL    HW2 5724   4.806   4.168   3.465 -0.3189 -0.5644 -0.5832
 1488SOL    HW3 5725   4.950   4.156   3.510 -0.5359 -2.3826 -0.2787
 1488SOL    MW4 5726   4.891   4.181   3.451 -0.2209 -0.3181  0.1983
 1489SOL     OW 5727   6.016   4.237   0.310 -0.7167 -0.1823 -0.2096
 1489SOL    HW2 5728   6.068   4.318   0.308 -1.3141  0.2158  0.1917
 1489SOL    HW3 5729   6.051   4.185   0.238  0.6229 -0.1591  0.3814
 1489SOL    MW4 5730   6.028   4.241   0.300 -0.6188 -0.1267 -0.0787
 1490SOL     OW 5731   2.183   2.777   3.521 -0.2937  0.3224 -0.0728
 1490SOL    HW2 5732   2.089   2.787   3.537 -0.3074 -1.3090  1.1325
 1490SOL    HW3 5733   2.187   2.716   3.447 -0.2062 -0.5933  0.6689
 1490SOL    MW4 5734   2.171   2.770   3.513 -0.2840 -0.0137  0.1841
 1491SOL     OW 5735   5.068   0.140   5.685 -0.0532 -0.2241  0.2837
 1491SOL    HW2 5736   5.118   0.125   5.765 -2.0325  0.4899  1.7430
 1491SOL    HW3 5737   5.030   0.227   5.696 -0.4432 -0.1366 -1.4062
 1491SOL    MW4 5738   5.069   0.150   5.697 -0.3658 -0.1184  0.2533
 1492SOL     OW 5739   1.016   1.332   0.868  0.2344 -0.0087  0.1750
 1492SOL    HW2 5740   1.016   1.265   0.936  0.9545 -0.0435  0.1491
 1492SOL    HW3 5741   1.099   1.320   0.822  0.1992  0.6506 -0.0790
 1492SOL    MW4 5742   1.027   1.322   0.871  0.3248  0.0737  0.1381
 1493SOL     OW 5743   4.383   2.671   5.090 -0.6444 -0.4173  0.3953
 1493SOL    HW2 5744   4.444   2.682   5.163 -0.5604 -1.2594  0.4704
 1493SOL    HW3 5745   4.312   2.617   5.127 -0.8602 -0.4013  0.0016
 1493SOL    MW4 5746   4.382   2.665   5.105 -0.6618 -0.5263  0.3533
 1494SOL     OW 5747   1.329   4.471   0.463  0.1025  0.0289 -0.8335
 1494SOL    HW2 5748   1.425   4.473   0.456  0.3976  4.0931  1.3742
 1494SOL    HW3 5749   1.312   4.423   0.544  0.2635 -0.4562 -1.0811
 1494SOL    MW4 5750   1.340   4.465   0.472  0.1627  0.5011 -0.5749
 1495SOL     OW 5751   5.408   0.094   0.946 -0.0360 -1.2271 -1.1442
 1495SOL    HW2 5752   5.366   0.178   0.928  0.2664 -0.5877  0.8049
 1495SOL    HW3 5753   5.338   0.029   0.937 -0.3133 -0.7721 -2.5047
 1495SOL    MW4 5754   5.393   0.097   0.943 -0.0327 -1.0827 -1.0666
 1496SOL     OW 5755   6.184   6.328   5.411 -0.2047 -0.2439  0.2677
 1496SOL    HW2 5756   6.210   6.412   5.450  1.0054 -0.0607 -0.8457
 1496SOL    HW3 5757   6.183   6.346   5.317 -0.3497 -1.3725  0.0468
 1496SOL    MW4 5758   6.187   6.342   5.403 -0.0642 -0.3686  0.0916
 1497SOL     OW 5759   0.405   2.513   2.728 -0.3519  0.1404  0.3878
 1497SOL    HW2 5760   0.443   2.577   2.668 -0.0414 -0.9690 -0.6381
 1497SOL    HW3 5761   0.479   2.460   2.757 -0.3961  1.0469  2.2882
 1497SOL    MW4 5762   0.420   2.514   2.724 -0.3168  0.1136  0.5032
 1498SOL     OW 5763   2.696   1.824   3.688 -0.4532  0.6269  0.3809
 1498SOL    HW2 5764   2.639   1.839   3.612  0.6211 -0.1280 -0.6293
 1498SOL    HW3 5765   2.636   1.798   3.758 -1.3350 -0.8518 -0.8378
 1498SOL    MW4 5766   2.681   1.822   3.687 -0.4278  0.3322  0.0868
 1499SOL     OW 5767   4.060   0.208   5.895 -0.2422  0.2670 -0.2586
 1499SOL    HW2 5768   4.077   0.170   5.808 -1.3226 -0.1534 -0.2941
 1499SOL    HW3 5769   4.122   0.164   5.953  0.1090  0.1502 -0.7183
 1499SOL    MW4 5770   4.071   0.197   5.891 -0.3384  0.1961 -0.3239
 1500SOL     OW 5771   0.347   5.471   1.882 -0.0118 -0.2846  0.1854
 1500SOL    HW2 5772   0.293   5.491   1.959 -1.7900 -3.1646 -0.1773
 1500SOL    HW3 5773   0.403   5.398   1.910  0.3320 -0.4246 -0.8315
 1500SOL    MW4 5774   0.347   5.464   1.896 -0.2011 -0.6831  0.0034
 1501SOL     OW 5775   2.963   5.964   4.129  0.2345 -0.1117 -0.2135
 1501SOL    HW2 5776   2.897   6.031   4.111 -2.0127 -1.9721  0.5424
 1501SOL    HW3 5777   2.957   5.950   4.223 -0.3679 -2.2991 -0.5321
 1501SOL    MW4 5778   2.953   5.971   4.139 -0.1415 -0.6458 -0.1558
 1502SOL     OW 5779   3.132   5.631   5.574  0.2400 -0.0798  0.3161
 1502SOL    HW2 5780   3.188   5.559   5.604 -1.6937 -1.9083 -0.2517
 1502SOL    HW3 5781   3.180   5.668   5.500  1.6318 -0.2602  1.0903
 1502SOL    MW4 5782   3.146   5.626   5.568  0.1685 -0.3449  0.3433
 1503SOL     OW 5783   1.579   4.529   2.753 -0.3933  0.1674 -0.2710
 1503SOL    HW2 5784   1.492   4.497   2.728 -0.2950 -1.3564  1.1913
 1503SOL    HW3 5785   1.637   4.456   2.733  0.6784  1.3698 -1.7575
 1503SOL    MW4 5786   1.575   4.515   2.747 -0.2390  0.1250 -0.2742
 1504SOL     OW 5787   0.144   1.455   3.544  0.4597  0.5109  0.1152
 1504SOL    HW2 5788   0.185   1.504   3.615  0.8332  2.4164 -1.3298
 1504SOL    HW3 5789   0.150   1.363   3.571  2.5925  0.9963  1.5187
 1504SOL    MW4 5790   0.150   1.449   3.557  0.7904  0.8263  0.1097
 1505SOL     OW 5791   1.370   1.578   4.005 -0.0765 -0.7349 -0.2833
 1505SOL    HW2 5792   1.443   1.628   4.041 -0.0655 -0.2996 -0.8947
 1505SOL    HW3 5793   1.332   1.636   3.939 -1.6519 -0.5163  0.7617
 1505SOL    MW4 5794   1.375   1.592   4.001 -0.2829 -0.6486 -0.2261
 1506SOL     OW 5795   0.466   1.277   1.072 -0.2107  0.4344 -0.1341
 1506SOL    HW2 5796   0.380   1.271   1.032  0.0705 -0.2811 -0.6451
 1506SOL    HW3 5797   0.500   1.362   1.045 -1.2776  1.3059  1.1477
 1506SOL    MW4 5798   0.459   1.287   1.063 -0.3144  0.4550 -0.0324
 1507SOL     OW 5799   4.209   3.385   1.141 -0.0891 -0.2420 -0.2948
 1507SOL    HW2 5800   4.129   3.437   1.149  0.2311  0.3569 -0.9164
 1507SOL    HW3 5801   4.271   3.429   1.200 -0.7041 -1.7297  1.5707
 1507SOL    MW4 5802   4.207   3.398   1.150 -0.1280 -0.3592 -0.1307
 1508SOL     OW 5803   3.369   4.707   6.377  0.4173 -0.1717  0.0722
 1508SOL    HW2 5804   3.459   4.739   6.379  1.4625 -2.8688  1.5552
 1508SOL    HW3 5805   3.376   4.615   6.351 -2.2775  0.2828 -2.9052
 1508SOL    MW4 5806   3.382   4.699   6.374  0.1996 -0.4676 -0.1250
 1509SOL     OW 5807   4.919   0.465   0.574  0.0108  0.2052 -0.1547
 1509SOL    HW2 5808   4.991   0.492   0.517 -1.6458  1.4559 -1.7652
 1509SOL    HW3 5809   4.866   0.407   0.519  0.4495 -1.8154  1.4456
 1509SOL    MW4 5810   4.922   0.461   0.559 -0.1499  0.1036 -0.1560
 1510SOL     OW 5811   3.591   3.747   5.948  0.0205 -0.8173 -0.3232
 1510SOL    HW2 5812   3.515   3.733   5.892 -0.7514 -0.0090  0.4988
 1510SOL    HW3 5813   3.647   3.671   5.932 -2.9097 -3.8322  2.1923
 1510SOL    MW4 5814   3.588   3.735   5.939 -0.4680 -1.1084  0.1172
 1511SOL     OW 5815   1.561   5.868   4.565 -0.6640 -0.0819 -0.3367
 1511SOL    HW2 5816   1.476   5.892   4.529 -1.0170  1.1660  1.2217
 1511SOL    HW3 5817   1.610   5.833   4.491 -1.6960  1.4418 -1.7859
 1511SOL    MW4 5818   1.556   5.866   4.551 -0.8467  0.2838 -0.3223
 1512SOL     OW 5819   3.286   4.353   5.312  0.1279  0.4138 -0.2737
 1512SOL    HW2 5820   3.283   4.295   5.388  1.4006 -0.1149 -0.5948
 1512SOL    HW3 5821   3.300   4.440   5.348  0.7330  0.1637  0.1157
 1512SOL    MW4 5822   3.288   4.357   5.326  0.3756  0.3110 -0.2647
 1513SOL     OW 5823   4.998   1.659   2.972  0.3005 -0.3163  0.3243
 1513SOL    HW2 5824   5.001   1.586   3.033  2.9903 -0.5905 -0.0364
 1513SOL    HW3 5825   5.015   1.620   2.886 -0.1424  0.5032 -0.1556
 1513SOL    MW4 5826   5.001   1.644   2.968  0.5970 -0.2443  0.2134
 1514SOL     OW 5827   6.354   5.903   2.192 -0.1069 -0.1081  0.0196
 1514SOL    HW2 5828   6.426   5.840   2.186 -0.3806 -0.3008 -2.5155
 1514SOL    HW3 5829   6.277   5.849   2.213 -0.1234 -0.4813 -0.9335
 1514SOL    MW4 5830   6.353   5.887   2.194 -0.1452 -0.1827 -0.4407
 1515SOL     OW 5831   0.988   2.126   1.241  0.3318  0.3250 -0.4146
 1515SOL    HW2 5832   0.980   2.049   1.297  0.1676  0.5136 -0.1802
 1515SOL    HW3 5833   1.081   2.149   1.246  0.8738 -1.2178 -2.2956
 1515SOL    MW4 5834   1.000   2.119   1.249  0.3816  0.1463 -0.6318
 1516SOL     OW 5835   0.084   3.376   6.197 -0.0936  0.1016  0.3944
 1516SOL    HW2 5836   0.025   3.412   6.130 -0.3874 -0.3153  0.4222
 1516SOL    HW3 5837   0.107   3.450   6.252 -1.4583  0.0929  1.0261
 1516SOL    MW4 5838   0.079   3.390   6.195 -0.3125  0.0454  0.4814
 1517SOL     OW 5839   0.487   0.994   1.080 -0.1121 -0.4417  0.3473
 1517SOL    HW2 5840   0.495   1.088   1.060  2.6958 -0.6217  0.2984
 1517SOL    HW3 5841   0.455   0.955   0.999 -0.8045  0.3894  0.2004
 1517SOL    MW4 5842   0.483   1.001   1.067  0.1670 -0.3558  0.3215
 1518SOL     OW 5843   2.338   4.484   6.077 -0.6400 -0.5005 -0.1238
 1518SOL    HW2 5844   2.320   4.568   6.119  0.8099  0.1881 -0.8112
 1518SOL    HW3 5845   2.388   4.435   6.143 -0.0391 -0.1662 -0.3237
 1518SOL    MW4 5846   2.342   4.488   6.091 -0.3695 -0.3656 -0.2409
 1519SOL     OW 5847   0.845   3.964   4.681  0.1905  0.2050 -0.3732
 1519SOL    HW2 5848   0.795   3.975   4.600 -0.6627  2.1198  0.3514
 1519SOL    HW3 5849   0.815   3.880   4.716  1.0548 -0.9883 -2.3183
 1519SOL    MW4 5850   0.834   3.954   4.675  0.1920  0.3002 -0.5342
 1520SOL     OW 5851   3.368   3.165   5.471  0.2646 -0.3986  0.2238
 1520SOL    HW2 5852   3.388   3.079   5.508  3.3030  1.1860  2.7019
 1520SOL    HW3 5853   3.453   3.209   5.465 -1.1470  2.3846 -1.1464
 1520SOL    MW4 5854   3.382   3.159   5.475  0.4792  0.1777  0.3700
 1521SOL     OW 5855   4.511   3.353   1.139  0.1186  0.2170  0.0598
 1521SOL    HW2 5856   4.605   3.349   1.121  0.1860 -0.0818  0.4691
 1521SOL    HW3 5857   4.484   3.262   1.145 -0.4550  0.2804 -1.3328
 1521SOL    MW4 5858   4.520   3.340   1.137  0.0518  0.1860 -0.0699
 1522SOL     OW 5859   0.824   3.997   0.900 -0.6087 -0.4425 -0.2561
 1522SOL    HW2 5860   0.831   4.076   0.846 -0.3039 -1.0559 -1.1295
 1522SOL    HW3 5861   0.738   4.004   0.942 -0.3812  0.5857  0.0693
 1522SOL    MW4 5862   0.813   4.009   0.899 -0.5385 -0.3878 -0.3284
 1523SOL     OW 5863   1.831   4.315   4.647 -0.4642  0.1670 -0.2285
 1523SOL    HW2 5864   1.796   4.381   4.706 -0.8227 -0.0282 -0.2228
 1523SOL    HW3 5865   1.810   4.348   4.559 -0.4609  0.1619 -0.2312
 1523SOL    MW4 5866   1.824   4.328   4.643 -0.5110  0.1405 -0.2281
 1524SOL     OW 5867   0.315   4.193   0.594  0.1916 -0.1658  0.2513
 1524SOL    HW2 5868   0.228   4.175   0.630  0.4304  0.3286  1.1042
 1524SOL    HW3 5869   0.298   4.215   0.502 -0.3673 -2.0657 -0.1363
 1524SOL    MW4 5870   0.301   4.194   0.586  0.1494 -0.3513  0.3127
 1525SOL     OW 5871   6.259   2.890   2.950 -0.3255 -0.3229 -0.1247
 1525SOL    HW2 5872   6.348   2.857   2.943 -0.1681 -0.3545  1.6005
 1525SOL    HW3 5873   6.269   2.982   2.975 -0.7605 -0.3221  0.0664
 1525SOL    MW4 5874   6.272   2.898   2.953 -0.3621 -0.3270  0.1281
 1526SOL     OW 5875   4.593   2.273   5.365  0.0372 -0.0166 -0.1256
 1526SOL    HW2 5876   4.541   2.338   5.413 -0.1926  0.1255 -0.5577
 1526SOL    HW3 5877   4.615   2.207   5.430  2.6174  1.8032  1.0314
 1526SOL    MW4 5878   4.589   2.273   5.380  0.3473  0.2422 -0.0300
 1527SOL     OW 5879   0.042   4.940   5.471 -0.4235  0.0723  0.3654
 1527SOL    HW2 5880   0.021   5.024   5.431 -0.8634 -0.4573 -0.5398
 1527SOL    HW3 5881   0.126   4.915   5.433  0.1316  0.4867  1.2737
 1527SOL    MW4 5882   0.050   4.947   5.461 -0.4083  0.0571  0.3658
 1528SOL     OW 5883   5.548   0.654   5.552 -0.8491 -0.6448 -0.6586
 1528SOL    HW2 5884   5.493   0.632   5.477 -1.4319  0.7841 -0.6922
 1528SOL    HW3 5885   5.594   0.733   5.526  0.8157 -1.4827 -0.3942
 1528SOL    MW4 5886   5.547   0.661   5.539 -0.7063 -0.5668 -0.6281
 1529SOL     OW 5887   5.864   3.149   5.570 -0.2224  0.2960  0.7741
 1529SOL    HW2 5888   5.882   3.148   5.476  1.2300 -0.7529  1.0368
 1529SOL    HW3 5889   5.908   3.227   5.602  0.3729 -0.0319  0.7685
 1529SOL    MW4 5890   5.872   3.159   5.562  0.0478  0.1144  0.8080
 1530SOL     OW 5891   2.104   5.370   2.881 -0.0767 -0.0231  0.0510
 1530SOL    HW2 5892   2.115   5.444   2.941  0.2017  0.9371 -1.1494
 1530SOL    HW3 5893   2.033   5.397   2.822 -1.0634 -1.3799  0.5464
 1530SOL    MW4 5894   2.096   5.383   2.881 -0.1702 -0.0754 -0.0420
 1531SOL     OW 5895   0.029   1.362   3.155 -0.2204  0.1422  0.1646
 1531SOL    HW2 5896   0.013   1.450   3.121  0.2098 -0.3763 -1.4506
 1531SOL    HW3 5897   0.111   1.369   3.203 -0.6325  0.8003  0.7948
 1531SOL    MW4 5898   0.038   1.375   3.157 -0.2180  0.1606  0.0347
 1532SOL     OW 5899   1.554   5.242   2.740  0.0400  0.0825 -0.2292
 1532SOL    HW2 5900   1.583   5.199   2.659 -0.7730 -0.1319 -0.4159
 1532SOL    HW3 5901   1.521   5.170   2.795 -2.4412  0.5103 -1.0106
 1532SOL    MW4 5902   1.553   5.227   2.736 -0.3947  0.1107 -0.3570
 1533SOL     OW 5903   5.141   1.895   1.066 -0.2343  0.1579 -0.1045
 1533SOL    HW2 5904   5.209   1.830   1.047 -0.9686  0.3409 -4.3034
 1533SOL    HW3 5905   5.171   1.938   1.147  2.1972 -2.8023  0.7499
 1533SOL    MW4 5906   5.154   1.892   1.074 -0.0104 -0.2085 -0.5458
 1534SOL     OW 5907   3.171   1.268   1.469 -0.3377 -0.1377 -0.0224
 1534SOL    HW2 5908   3.111   1.342   1.468  1.0569  1.0357 -0.8232
 1534SOL    HW3 5909   3.216   1.273   1.553  0.2066  0.3324 -0.3317
 1534SOL    MW4 5910   3.169   1.278   1.480 -0.0819  0.0791 -0.1689
 1535SOL     OW 5911   2.343   0.076   4.923  0.2106 -1.0251  0.0813
 1535SOL    HW2 5912   2.293   0.013   4.974 -0.1753 -1.9118 -1.3382
 1535SOL    HW3 5913   2.334   0.158   4.971 -3.8001 -0.7683 -0.7944
 1535SOL    MW4 5914   2.335   0.078   4.936 -0.3695 -1.1082 -0.2215
 1536SOL     OW 5915   3.084   1.752   0.386 -0.3014  0.6968  0.1121
 1536SOL    HW2 5916   3.107   1.771   0.477  0.4053 -1.5156  0.4501
 1536SOL    HW3 5917   3.012   1.690   0.392  1.3967 -1.4759 -0.7145
 1536SOL    MW4 5918   3.077   1.746   0.399  0.0159  0.1183  0.0476
 1537SOL     OW 5919   4.495   4.260   0.264 -0.3104  0.1468  0.7090
 1537SOL    HW2 5920   4.583   4.241   0.230 -0.4516 -0.5431  0.6990
 1537SOL    HW3 5921   4.505   4.341   0.313  0.0041  0.9004 -0.5644
 1537SOL    MW4 5922   4.508   4.268   0.266 -0.2875  0.1552  0.5396
 1538SOL     OW 5923   1.457   1.216   4.481 -0.0566 -0.4739  0.0877
 1538SOL    HW2 5924   1.521   1.186   4.546  0.2106  0.2028  0.1518
 1538SOL    HW3 5925   1.463   1.312   4.485 -1.5713 -0.3618  0.5943
 1538SOL    MW4 5926   1.466   1.225   4.490 -0.2212 -0.3698  0.1630
 1539SOL     OW 5927   3.834   4.635   3.514  0.3347 -0.0016  0.9922
 1539SOL    HW2 5928   3.745   4.660   3.487  0.9634  0.2385 -1.0999
 1539SOL    HW3 5929   3.832   4.634   3.609 -2.3584 -1.6495  1.0144
 1539SOL    MW4 5930   3.822   4.638   3.523  0.0623 -0.1873  0.7191
 1540SOL     OW 5931   5.464   3.816   4.744  0.7126 -0.0359  0.2439
 1540SOL    HW2 5932   5.468   3.888   4.807 -0.5226 -1.0547  1.5474
 1540SOL    HW3 5933   5.542   3.828   4.689  0.6261  2.1850  0.4978
 1540SOL    MW4 5934   5.475   3.827   4.745  0.5382  0.1227  0.4494
 1541SOL     OW 5935   2.584   1.018   5.686 -0.5289  0.3172  0.3968
 1541SOL    HW2 5936   2.497   0.994   5.716 -0.3470  0.9219  1.4570
 1541SOL    HW3 5937   2.592   1.112   5.705  0.6433  0.1044  1.0972
 1541SOL    MW4 5938   2.574   1.027   5.693 -0.3502  0.3689  0.6291
 1542SOL     OW 5939   5.867   4.345   3.539 -0.0495  0.1880 -0.3569
 1542SOL    HW2 5940   5.811   4.276   3.574  0.4982 -0.1424 -0.1129
 1542SOL    HW3 5941   5.956   4.310   3.547  0.2144  0.8177 -0.4632
 1542SOL    MW4 5942   5.872   4.331   3.545  0.0576  0.2275 -0.3387
 1543SOL     OW 5943   5.842   6.186   0.293  0.6148  0.2721  0.0840
 1543SOL    HW2 5944   5.892   6.268   0.284  1.0818  0.0925  0.9645
 1543SOL    HW3 5945   5.764   6.211   0.342  0.6496  0.2342  0.1586
 1543SOL    MW4 5946   5.839   6.200   0.298  0.6810  0.2434  0.2100
 1544SOL     OW 5947   2.256   1.360   0.730  0.1805  0.1184  0.1383
 1544SOL    HW2 5948   2.180   1.319   0.772  0.4127 -0.4731 -0.0131
 1544SOL    HW3 5949   2.326   1.355   0.795 -0.1107  1.3596  0.5700
 1544SOL    MW4 5950   2.255   1.354   0.744  0.1727  0.2041  0.1753
 1545SOL     OW 5951   6.336   1.735   3.584 -0.1532  0.7647 -0.2803
 1545SOL    HW2 5952   6.254   1.781   3.564 -1.4259 -1.3725 -0.3296
 1545SOL    HW3 5953   6.310   1.665   3.643  1.4435 -0.6360 -1.1430
 1545SOL    MW4 5954   6.322   1.732   3.589 -0.1104  0.2979 -0.4006
 1546SOL     OW 5955   2.474   5.339   1.689  0.0048 -0.3187 -0.3424
 1546SOL    HW2 5956   2.506   5.264   1.638  1.1616 -0.0349 -0.0678
 1546SOL    HW3 5957   2.552   5.393   1.703  0.0029 -0.9390  2.7152
 1546SOL    MW4 5958   2.489   5.337   1.684  0.1572 -0.3631  0.0972
 1547SOL     OW 5959   1.990   5.192   2.151  0.0269 -0.7500 -0.3830
 1547SOL    HW2 5960   1.933   5.267   2.166 -0.4363 -0.3473 -3.4137
 1547SOL    HW3 5961   2.078   5.224   2.170 -0.2671  0.2634 -0.6728
 1547SOL    MW4 5962   1.994   5.206   2.155 -0.0730 -0.5631 -0.8211
 1548SOL     OW 5963   3.278   5.775   0.004  0.2876 -0.4236  0.4493
 1548SOL    HW2 5964   3.346   5.759   0.070  2.4082  0.8362 -1.3125
 1548SOL    HW3 5965   3.318   5.836  -0.058 -2.3950  0.1824 -0.8413
 1548SOL    MW4 5966   3.292   5.781   0.005  0.2134 -0.1775  0.0466
 1549SOL     OW 5967   4.904   5.610   5.518 -0.0231 -0.0606 -0.3741
 1549SOL    HW2 5968   4.811   5.623   5.537 -0.0988  0.7851 -1.2255
 1549SOL    HW3 5969   4.905   5.542   5.450 -0.1873  1.3373 -1.8411
 1549SOL    MW4 5970   4.892   5.603   5.511 -0.0548  0.2354 -0.6800
 1550SOL     OW 5971   1.040   6.106   3.672  0.0051 -0.3613  0.2930
 1550SOL    HW2 5972   1.102   6.139   3.608  0.0799  0.0044  0.5538
 1550SOL    HW3 5973   1.056   6.011   3.674  0.8481 -0.2187  0.6731
 1550SOL    MW4 5974   1.050   6.098   3.664  0.1262 -0.2942  0.3775
 1551SOL     OW 5975   1.906   6.344   0.687 -0.4852  0.1177  0.0644
 1551SOL    HW2 5976   1.964   6.418   0.668 -1.9909  1.1998 -0.5386
 1551SOL    HW3 5977   1.857   6.330   0.606 -0.8555 -0.9769  0.4552
 1551SOL    MW4 5978   1.907   6.352   0.674 -0.7327  0.1160  0.0364
 1552SOL     OW 5979   2.309   3.846   3.313 -0.1970  0.5975 -0.0979
 1552SOL    HW2 5980   2.300   3.937   3.285  3.4029  1.3094  0.5737
 1552SOL    HW3 5981   2.360   3.851   3.394  2.3344 -2.0665 -1.3662
 1552SOL    MW4 5982   2.314   3.859   3.320  0.6120  0.3399 -0.1767
 1553SOL     OW 5983   0.079   5.794   5.881 -0.3459 -0.3465  0.4364
 1553SOL    HW2 5984   0.162   5.838   5.902  0.7700 -1.9768 -0.3498
 1553SOL    HW3 5985   0.100   5.701   5.884 -2.4348 -0.8498  1.2565
 1553SOL    MW4 5986   0.093   5.788   5.884 -0.4742 -0.6280  0.4409
 1554SOL     OW 5987   1.270   4.661   3.541  0.3253  0.0474 -0.0058
 1554SOL    HW2 5988   1.215   4.709   3.479  0.6622  0.6929  0.1777
 1554SOL    HW3 5989   1.297   4.582   3.494  0.7299  0.6188 -0.7546
 1554SOL    MW4 5990   1.266   4.657   3.526  0.4231  0.2080 -0.0804
 1555SOL     OW 5991   1.074   3.133   3.413  0.4191 -0.2279  0.1524
 1555SOL    HW2 5992   1.165   3.152   3.391  0.5409 -1.0216 -0.0835
 1555SOL    HW3 5993   1.055   3.189   3.488  0.6654  0.9512 -0.6387
 1555SOL    MW4 5994   1.084   3.143   3.420  0.4677 -0.1771  0.0169
 1556SOL     OW 5995   6.238   0.749   5.943  0.4399  0.1511  0.7006
 1556SOL    HW2 5996   6.295   0.748   6.019  1.1887  1.3991  0.1798
 1556SOL    HW3 5997   6.185   0.669   5.952  1.9263 -0.8040  1.4388
 1556SOL    MW4 5998   6.239   0.738   5.954  0.7348  0.1898  0.7293
 1557SOL     OW 5999   3.980   1.301   4.107  0.4717 -0.1680  0.6279
 1557SOL    HW2 6000   3.951   1.262   4.189 -0.0453 -0.3074  0.3873
 1557SOL    HW3 6001   3.986   1.227   4.047  0.1232  0.0265  0.3448
 1557SOL    MW4 6002   3.977   1.286   4.110  0.3575 -0.1607  0.5588
 1558SOL     OW 6003   0.668   3.160   5.959  0.2074  0.4701 -0.0780
 1558SOL    HW2 6004   0.612   3.124   6.028  1.2354 -0.3221  0.3648
 1558SOL    HW3 6005   0.681   3.251   5.984  0.3905  0.2474  0.6552
 1558SOL    MW4 6006   0.662   3.167   5.971  0.3672  0.3362  0.0772
 1559SOL     OW 6007   0.034   6.403   2.429  0.3959  0.1541  0.0939
 1559SOL    HW2 6008  -0.038   6.348   2.398 -0.9564  1.9518 -0.1237
 1559SOL    HW3 6009   0.017   6.416   2.522 -0.6889  2.0943 -0.3191
 1559SOL    MW4 6010   0.022   6.397   2.437  0.0744  0.6473  0.0107
 1560SOL     OW 6011   3.012   0.722   4.077 -0.5523 -0.2130  0.0892
 1560SOL    HW2 6012   2.923   0.755   4.084 -0.1768  0.4691  2.1632
 1560SOL    HW3 6013   3.045   0.757   3.994 -2.8406 -2.2229 -1.8420
 1560SOL    MW4 6014   3.005   0.731   4.067 -0.8046 -0.3882  0.1080
 1561SOL     OW 6015   3.332   5.291   2.899 -0.3939 -0.1640  0.3520
 1561SOL    HW2 6016   3.319   5.293   2.994 -0.4743 -0.6354  0.3545
 1561SOL    HW3 6017   3.290   5.371   2.868 -1.0575 -0.3899  0.6383
 1561SOL    MW4 6018   3.324   5.302   2.908 -0.4920 -0.2560  0.3901
 1562SOL     OW 6019   3.505   6.172   1.887  0.5549  0.6231 -0.5610
 1562SOL    HW2 6020   3.490   6.226   1.965  0.6387  1.7709 -1.3212
 1562SOL    HW3 6021   3.594   6.138   1.897  1.4384  2.6006 -1.1964
 1562SOL    MW4 6022   3.514   6.174   1.899  0.6825  1.0354 -0.7451
 1563SOL     OW 6023   2.963   1.329   4.757  0.2397  0.4571 -0.2667
 1563SOL    HW2 6024   2.971   1.423   4.742  0.4555  0.3315 -0.9589
 1563SOL    HW3 6025   2.995   1.288   4.677  1.8149 -0.2574  0.6800
 1563SOL    MW4 6026   2.968   1.336   4.745  0.4760  0.3463 -0.2332
 1564SOL     OW 6027   5.679   4.109   0.509 -1.0045 -0.5770  0.0680
 1564SOL    HW2 6028   5.721   4.106   0.595 -1.1966  1.3053  0.2804
 1564SOL    HW3 6029   5.701   4.196   0.475  0.3483 -1.7978 -2.4799
 1564SOL    MW4 6030   5.687   4.120   0.516 -0.8514 -0.4897 -0.2401
 1565SOL     OW 6031   2.007   5.022   2.719 -0.4468  0.1897  0.0446
 1565SOL    HW2 6032   1.991   5.098   2.775 -2.4982 -0.9351  1.1032
 1565SOL    HW3 6033   1.976   5.049   2.632 -0.4256  0.8238  0.2283
 1565SOL    MW4 6034   2.001   5.035   2.715 -0.7146  0.1249  0.2085
 1566SOL     OW 6035   0.042   2.301   1.241 -0.0097 -0.6245  0.4667
 1566SOL    HW2 6036  -0.007   2.349   1.308  0.4605 -0.4459  0.6909
 1566SOL    HW3 6037   0.121   2.354   1.228 -0.5799 -0.0747 -1.0018
 1566SOL    MW4 6038   0.046   2.315   1.248 -0.0229 -0.5284  0.3025
 1567SOL     OW 6039   5.685   3.685   4.253 -0.2203  0.3364  0.4102
 1567SOL    HW2 6040   5.765   3.652   4.213  0.0714 -1.0250  1.9759
 1567SOL    HW3 6041   5.616   3.626   4.222  0.1579 -1.3605  2.4930
 1567SOL    MW4 6042   5.686   3.673   4.244 -0.1319 -0.0671  0.8915
 1568SOL     OW 6043   0.238   6.150   3.216  0.4689 -0.4199 -0.1430
 1568SOL    HW2 6044   0.151   6.147   3.175 -0.2692 -0.6532  1.3593
 1568SOL    HW3 6045   0.288   6.210   3.161 -1.1502  1.0200 -0.1269
 1568SOL    MW4 6046   0.233   6.158   3.203  0.1579 -0.2607  0.0573
 1569SOL     OW 6047   4.294   5.489   5.148  0.5917 -0.0827  0.0727
 1569SOL    HW2 6048   4.270   5.570   5.193 -0.3732  0.8919 -2.0802
 1569SOL    HW3 6049   4.355   5.446   5.208  0.3370  1.7207  1.7320
 1569SOL    MW4 6050   4.299   5.494   5.162  0.4308  0.2838  0.0076
 1570SOL     OW 6051   4.295   0.235   1.426 -0.1780  0.0971  0.1514
 1570SOL    HW2 6052   4.303   0.314   1.479 -2.3541  1.1861 -0.9934
 1570SOL    HW3 6053   4.206   0.205   1.442  0.1346 -1.2809 -0.5825
 1570SOL    MW4 6054   4.284   0.242   1.435 -0.4238  0.0590 -0.0965
 1571SOL     OW 6055   4.326   3.118   1.118 -0.1588  0.1982 -0.0935
 1571SOL    HW2 6056   4.287   3.062   1.185  0.7942 -1.1050 -0.5963
 1571SOL    HW3 6057   4.275   3.199   1.122 -2.4589 -1.1578 -0.2438
 1571SOL    MW4 6058   4.314   3.121   1.128 -0.3365 -0.1526 -0.1797
 1572SOL     OW 6059   5.479   0.053   2.755 -0.0655 -0.0392  0.4898
 1572SOL    HW2 6060   5.536  -0.016   2.720 -0.4085  0.9264 -2.2082
 1572SOL    HW3 6061   5.539   0.117   2.793  0.3384 -1.0775  1.6622
 1572SOL    MW4 6062   5.495   0.052   2.755 -0.0574 -0.0488  0.2885
 1573SOL     OW 6063   5.116   1.517   4.718  0.2994  0.4428 -0.5479
 1573SOL    HW2 6064   5.134   1.607   4.693 -1.9362  0.6253 -1.7754
 1573SOL    HW3 6065   5.054   1.523   4.790  1.3629 -0.1288  0.4384
 1573SOL    MW4 6066   5.110   1.529   4.724  0.1448  0.3915 -0.5797
 1574SOL     OW 6067   4.188   2.536   2.048  0.3819  0.0325 -0.0392
 1574SOL    HW2 6068   4.204   2.594   2.122  0.9249  0.1556 -0.2457
 1574SOL    HW3 6069   4.175   2.450   2.088 -0.1100  0.2357  0.2465
 1574SOL    MW4 6070   4.189   2.532   2.063  0.3887  0.0755 -0.0287
 1575SOL     OW 6071   5.381   0.335   2.976 -0.7646  0.6269 -0.0660
 1575SOL    HW2 6072   5.425   0.390   2.911  0.5098 -0.4171 -0.1212
 1575SOL    HW3 6073   5.452   0.289   3.021 -1.7382 -0.1200  0.7474
 1575SOL    MW4 6074   5.396   0.336   2.973 -0.7249  0.3906  0.0340
 1576SOL     OW 6075   3.314   1.612   4.149  0.4382  0.1830  0.4725
 1576SOL    HW2 6076   3.274   1.578   4.229  0.2903 -1.2404 -0.1766
 1576SOL    HW3 6077   3.247   1.668   4.111  0.0499 -0.0985  0.7299
 1576SOL    MW4 6078   3.300   1.615   4.155  0.3674 -0.0419  0.4208
 1577SOL     OW 6079   0.819   3.998   2.495  0.4474 -0.0920 -0.4235
 1577SOL    HW2 6080   0.855   4.065   2.437  0.6437  1.2517  1.1709
 1577SOL    HW3 6081   0.795   3.926   2.436 -0.2582  1.5532 -2.2722
 1577SOL    MW4 6082   0.820   3.998   2.479  0.3802  0.3023 -0.4571
 1578SOL     OW 6083   1.305   1.249   4.700 -0.1057  0.2454  0.3787
 1578SOL    HW2 6084   1.286   1.343   4.699 -0.5624  0.1760  1.2328
 1578SOL    HW3 6085   1.345   1.231   4.614 -1.2256  0.9744 -0.3254
 1578SOL    MW4 6086   1.308   1.259   4.688 -0.3137  0.3324  0.3985
 1579SOL     OW 6087   1.095   5.204   5.064 -0.3437  0.3935 -0.0053
 1579SOL    HW2 6088   1.067   5.238   4.979  0.6135  0.2814 -0.3683
 1579SOL    HW3 6089   1.020   5.151   5.094 -1.0975  1.2732 -0.2847
 1579SOL    MW4 6090   1.081   5.202   5.057 -0.3168  0.4948 -0.0900
 1580SOL     OW 6091   4.837   4.326   1.013  0.0380  0.2180 -0.3209
 1580SOL    HW2 6092   4.930   4.314   0.992  0.4086 -0.1693  1.3563
 1580SOL    HW3 6093   4.804   4.237   1.025 -0.1315  0.4012  0.6644
 1580SOL    MW4 6094   4.845   4.313   1.012  0.0645  0.1910  0.0304
 1581SOL     OW 6095   4.649   0.622   4.913 -0.1228  0.4742  0.4497
 1581SOL    HW2 6096   4.665   0.577   4.830 -0.0131  0.8530  0.2640
 1581SOL    HW3 6097   4.589   0.564   4.960  1.8798 -1.0752  1.2431
 1581SOL    MW4 6098   4.643   0.609   4.908  0.1559  0.3197  0.5299
 1582SOL     OW 6099   5.319   0.541   1.271 -0.1345 -0.0493 -0.2841
 1582SOL    HW2 6100   5.295   0.594   1.195 -1.5055 -1.9278 -1.2428
 1582SOL    HW3 6101   5.412   0.523   1.259 -0.2565 -0.0361 -1.3554
 1582SOL    MW4 6102   5.328   0.546   1.259 -0.3315 -0.2954 -0.5519
 1583SOL     OW 6103   2.774   5.119   3.164 -0.0619  0.4253 -0.0997
 1583SOL    HW2 6104   2.777   5.042   3.107 -1.1739  1.7388 -2.0466
 1583SOL    HW3 6105   2.725   5.091   3.240 -1.0624 -0.6207 -1.0922
 1583SOL    MW4 6106   2.768   5.105   3.166 -0.3407  0.4606 -0.4875
 1584SOL     OW 6107   3.473   0.241   4.072 -0.1155  0.8110  0.3053
 1584SOL    HW2 6108   3.392   0.280   4.105 -1.2114 -0.7117 -0.4446
 1584SOL    HW3 6109   3.538   0.311   4.078 -1.7409  2.4353 -0.0885
 1584SOL    MW4 6110   3.471   0.255   4.077 -0.4745  0.8244  0.1544
 1585SOL     OW 6111   1.432   3.296   5.177  0.0718 -0.0392  0.5017
 1585SOL    HW2 6112   1.402   3.355   5.246 -1.6744 -1.8335  1.3948
 1585SOL    HW3 6113   1.357   3.292   5.116  0.7034 -0.2738 -0.2734
 1585SOL    MW4 6114   1.418   3.303   5.178 -0.0753 -0.3069  0.5173
 1586SOL     OW 6115   2.569   4.563   0.222 -0.2065  0.4617  0.0137
 1586SOL    HW2 6116   2.562   4.645   0.173 -1.3579 -0.0250 -0.6771
 1586SOL    HW3 6117   2.502   4.571   0.291 -0.5700 -0.0311 -0.2767
 1586SOL    MW4 6118   2.559   4.575   0.225 -0.4064  0.3325 -0.1157
 1587SOL     OW 6119   1.621   6.300   5.896  0.0461  0.2005  0.0791
 1587SOL    HW2 6120   1.644   6.341   5.813  0.6127  1.8902  1.0288
 1587SOL    HW3 6121   1.698   6.313   5.952 -1.3718  1.7116  1.7867
 1587SOL    MW4 6122   1.634   6.307   5.892 -0.0663  0.6228  0.4297
 1588SOL     OW 6123   4.656   5.977   4.128 -0.2907 -0.0929 -0.3010
 1588SOL    HW2 6124   4.571   5.938   4.148 -0.6312  0.4559 -0.6658
 1588SOL    HW3 6125   4.685   5.931   4.049 -0.4969  0.0934 -0.4861
 1588SOL    MW4 6126   4.649   5.966   4.120 -0.3628  0.0041 -0.3736
 1589SOL     OW 6127   1.360   6.062   0.454  0.6415  0.0043 -0.5050
 1589SOL    HW2 6128   1.346   6.107   0.371  0.2574 -0.8606 -0.9214
 1589SOL    HW3 6129   1.274   6.024   0.476  0.5420  0.8218  0.6662
 1589SOL    MW4 6130   1.346   6.063   0.446  0.5777 -0.0020 -0.4054
 1590SOL     OW 6131   3.621   6.204   2.753  0.3300 -0.2315 -0.3649
 1590SOL    HW2 6132   3.607   6.280   2.697 -1.8513  0.9421  1.6351
 1590SOL    HW3 6133   3.677   6.236   2.824 -0.5147 -0.4635  0.4317
 1590SOL    MW4 6134   3.627   6.218   2.755 -0.0693 -0.1073  0.0041
 1591SOL     OW 6135   4.020   0.581   2.188  0.8915  0.8105  0.5587
 1591SOL    HW2 6136   3.997   0.548   2.101  0.6043  0.6965  0.6774
 1591SOL    HW3 6137   4.055   0.668   2.173  2.2049  0.2421  0.1718
 1591SOL    MW4 6138   4.022   0.588   2.175  1.0269  0.7205  0.5233
 1592SOL     OW 6139   1.339   0.400   3.099 -0.0410 -0.0752 -0.0330
 1592SOL    HW2 6140   1.420   0.373   3.144  0.2787 -0.6798 -0.9474
 1592SOL    HW3 6141   1.292   0.318   3.086 -0.1655  0.1026 -0.7246
 1592SOL    MW4 6142   1.344   0.385   3.103 -0.0152 -0.1315 -0.2449
 1593SOL     OW 6143   5.189   2.512   3.877  0.3433  0.8186 -0.2693
 1593SOL    HW2 6144   5.150   2.563   3.949 -0.2411 -1.2172  0.9313
 1593SOL    HW3 6145   5.167   2.562   3.798 -1.3828  1.7176  0.7217
 1593SOL    MW4 6146   5.181   2.525   3.876  0.0384  0.6686  0.0199
 1594SOL     OW 6147   5.928   1.124   4.180  0.0714 -0.2497 -0.0453
 1594SOL    HW2 6148   6.015   1.120   4.140  0.8395 -0.7048  1.5721
 1594SOL    HW3 6149   5.920   1.213   4.212  0.0995 -0.3094  0.1301
 1594SOL    MW4 6150   5.938   1.135   4.179  0.1765 -0.3176  0.1912
 1595SOL     OW 6151   3.319   6.247   5.489  0.2435  0.8199  0.0518
 1595SOL    HW2 6152   3.247   6.202   5.532  1.1299 -0.6636  0.0426
 1595SOL    HW3 6153   3.290   6.257   5.398  1.4533 -3.2730 -0.9936
 1595SOL    MW4 6154   3.306   6.243   5.483  0.5201  0.0842 -0.0873
 1596SOL     OW 6155   2.240   5.871   1.986 -0.1365  0.1805 -0.4747
 1596SOL    HW2 6156   2.278   5.795   2.029  0.3559 -0.0807 -1.3416
 1596SOL    HW3 6157   2.315   5.926   1.964 -0.6275  2.2983  2.5719
 1596SOL    MW4 6158   2.255   5.868   1.989 -0.1363  0.4254 -0.1871
 1597SOL     OW 6159   5.545   1.637   1.677  0.0350  0.2094  0.1722
 1597SOL    HW2 6160   5.539   1.666   1.586 -1.0588 -1.1479 -0.2247
 1597SOL    HW3 6161   5.594   1.707   1.721  0.6570  0.8607 -1.4547
 1597SOL    MW4 6162   5.551   1.650   1.671 -0.0272  0.1162 -0.0948
 1598SOL     OW 6163   3.619   3.111   3.248  0.0686  0.5502  0.4090
 1598SOL    HW2 6164   3.568   3.044   3.294 -0.8066  1.9448  1.5551
 1598SOL    HW3 6165   3.709   3.098   3.279 -0.1310  0.0717  0.7987
 1598SOL    MW4 6166   3.624   3.100   3.258 -0.0732  0.6711  0.6117
 1599SOL     OW 6167   3.477   4.980   2.337 -0.5040 -0.0327 -0.2803
 1599SOL    HW2 6168   3.455   4.979   2.430  0.2239  3.6010  0.0702
 1599SOL    HW3 6169   3.393   4.971   2.292 -1.4575  2.2725  0.8793
 1599SOL    MW4 6170   3.463   4.979   2.343 -0.5338  0.7509 -0.0810
 1600SOL     OW 6171   1.886   0.633   6.178  0.2496 -0.6501  0.0809
 1600SOL    HW2 6172   1.807   0.655   6.128 -0.7885  0.2810  2.0042
 1600SOL    HW3 6173   1.856   0.570   6.243  1.3070 -0.9561  0.2786
 1600SOL    MW4 6174   1.871   0.628   6.180  0.2521 -0.5676  0.3607
 1601SOL     OW 6175   1.537   1.199   2.242  0.5334 -0.1707  0.2748
 1601SOL    HW2 6176   1.567   1.141   2.171 -0.1214 -0.6471  0.3857
 1601SOL    HW3 6177   1.605   1.191   2.309  1.7848  1.2144 -0.7772
 1601SOL    MW4 6178   1.550   1.190   2.241  0.6121 -0.0508  0.1506
 1602SOL     OW 6179   4.951   0.867   1.590  0.4371  0.3324  0.5092
 1602SOL    HW2 6180   5.020   0.816   1.548  0.2977  1.1030 -0.7085
 1602SOL    HW3 6181   4.998   0.925   1.650  0.7528  0.0746  0.5162
 1602SOL    MW4 6182   4.966   0.868   1.592  0.4604  0.4000  0.3495
 1603SOL     OW 6183   5.714   2.436   4.861 -0.4641 -0.1613  0.4888
 1603SOL    HW2 6184   5.652   2.507   4.871 -0.7333 -0.1534 -0.9755
 1603SOL    HW3 6185   5.780   2.452   4.928 -0.1511  1.8736 -0.2206
 1603SOL    MW4 6186   5.715   2.447   4.871 -0.4583  0.1082  0.2020
 1604SOL     OW 6187   4.207   6.159   1.769 -0.0188 -0.0033  0.0129
 1604SOL    HW2 6188   4.240   6.248   1.777 -1.6570  0.4998  2.5221
 1604SOL    HW3 6189   4.135   6.165   1.706  0.2777  0.3058 -0.2973
 1604SOL    MW4 6190   4.202   6.172   1.762 -0.1958  0.1039  0.3030
 1605SOL     OW 6191   4.825   3.228   6.275  0.1598 -0.0120  0.3379
 1605SOL    HW2 6192   4.895   3.286   6.246 -1.2866  2.0164  0.7412
 1605SOL    HW3 6193   4.817   3.163   6.206  1.5533  0.4973 -0.3307
 1605SOL    MW4 6194   4.833   3.227   6.262  0.1528  0.3228  0.3029
 1606SOL     OW 6195   2.137   5.102   2.985 -0.5707  0.0082  0.0245
 1606SOL    HW2 6196   2.132   5.188   2.944  1.6942  0.2507  0.1428
 1606SOL    HW3 6197   2.048   5.086   3.018 -0.6018  3.2360  1.9325
 1606SOL    MW4 6198   2.124   5.111   2.984 -0.2760  0.4660  0.2919
 1607SOL     OW 6199   6.206   0.342   6.067 -0.2583 -0.1058 -0.6985
 1607SOL    HW2 6200   6.287   0.349   6.118 -0.8199  1.5518  0.0457
 1607SOL    HW3 6201   6.161   0.266   6.102 -0.7084  1.0789  1.4577
 1607SOL    MW4 6202   6.211   0.333   6.078 -0.3918  0.2692 -0.3158
 1608SOL     OW 6203   1.537   4.643   3.864 -0.3831 -0.2011 -0.0210
 1608SOL    HW2 6204   1.468   4.657   3.929 -0.6466 -1.3461 -0.0427
 1608SOL    HW3 6205   1.595   4.578   3.903 -0.0808 -0.2788 -0.5814
 1608SOL    MW4 6206   1.536   4.637   3.878 -0.3780 -0.3624 -0.0978
 1609SOL     OW 6207   1.056   5.763   1.285 -0.0783 -0.0142  0.5582
 1609SOL    HW2 6208   0.961   5.773   1.289 -0.4937 -0.9995 -2.9214
 1609SOL    HW3 6209   1.070   5.668   1.287  0.5514  0.0030 -1.0445
 1609SOL    MW4 6210   1.046   5.752   1.286 -0.0501 -0.1419 -0.1123
 1610SOL     OW 6211   0.346   4.263   0.334  0.5309  0.1573 -0.5935
 1610SOL    HW2 6212   0.318   4.354   0.328  0.0132  0.1248  0.7639
 1610SOL    HW3 6213   0.276   4.213   0.293  0.8369  0.3593 -1.3793
 1610SOL    MW4 6214   0.333   4.269   0.328  0.5029  0.1796 -0.5181
 1611SOL     OW 6215   1.751   1.284   0.911 -0.3339 -0.2057 -0.4048
 1611SOL    HW2 6216   1.735   1.369   0.953  0.5420 -1.3971  2.6517
 1611SOL    HW3 6217   1.846   1.278   0.906 -0.3846 -1.0609 -0.4363
 1611SOL    MW4 6218   1.761   1.295   0.916 -0.2250 -0.4757 -0.0057
 1612SOL     OW 6219   4.180   0.945   0.231 -0.1188 -0.4637 -0.5455
 1612SOL    HW2 6220   4.140   0.919   0.314 -4.3275  2.8234 -1.2084
 1612SOL    HW3 6221   4.256   0.998   0.256 -0.4490 -0.7338  1.1488
 1612SOL    MW4 6222   4.185   0.949   0.245 -0.7177 -0.0656 -0.4094
 1613SOL     OW 6223   0.510   6.082   2.554 -0.1716  0.5561 -0.3606
 1613SOL    HW2 6224   0.592   6.095   2.602  0.7249 -0.9179 -1.3883
 1613SOL    HW3 6225   0.528   6.116   2.467  0.2757 -1.9830 -1.3495
 1613SOL    MW4 6226   0.524   6.088   2.549  0.0057  0.0266 -0.6267
 1614SOL     OW 6227   6.227   5.712   5.247 -0.2279 -0.3735 -0.2411
 1614SOL    HW2 6228   6.212   5.763   5.326 -2.0880 -1.1832 -0.0128
 1614SOL    HW3 6229   6.321   5.694   5.247 -0.1687 -0.2722  1.7351
 1614SOL    MW4 6230   6.237   5.716   5.257 -0.4655 -0.4670  0.0498
 1615SOL     OW 6231   2.324   5.267   1.902  0.0961  0.5805  0.3285
 1615SOL    HW2 6232   2.257   5.202   1.880  1.3740 -1.1609  1.3141
 1615SOL    HW3 6233   2.380   5.270   1.824  1.1480 -1.0319  0.9675
 1615SOL    MW4 6234   2.322   5.259   1.889  0.4035  0.1380  0.5429
 1616SOL     OW 6235   0.878   1.384   3.950 -0.2481 -0.1903  0.2070
 1616SOL    HW2 6236   0.905   1.342   3.868 -1.0366  0.1249 -0.2244
 1616SOL    HW3 6237   0.875   1.477   3.929 -0.8105 -0.1422  0.4923
 1616SOL    MW4 6238   0.881   1.391   3.937 -0.4264 -0.1424  0.1877
 1617SOL     OW 6239   5.938   2.782   4.909 -0.1532 -0.8171 -0.9318
 1617SOL    HW2 6240   5.849   2.801   4.940 -0.1056  0.2002 -1.3725
 1617SOL    HW3 6241   5.993   2.792   4.987 -0.2604 -0.0835 -0.9430
 1617SOL    MW4 6242   5.934   2.786   4.923 -0.1610 -0.5861 -0.9914
 1618SOL     OW 6243   0.415   0.836   2.116 -0.0817 -0.4726  0.2947
 1618SOL    HW2 6244   0.319   0.840   2.119 -0.1087  0.6799 -0.8074
 1618SOL    HW3 6245   0.442   0.928   2.106  1.2366 -0.5951  2.1056
 1618SOL    MW4 6246   0.406   0.849   2.115  0.0886 -0.3367  0.3882
 1619SOL     OW 6247   6.253   1.037   5.140  0.5154 -0.4652 -0.1299
 1619SOL    HW2 6248   6.239   1.102   5.070  2.7951 -1.7006 -1.8575
 1619SOL    HW3 6249   6.278   1.089   5.216 -0.1926  0.8118 -0.7327
 1619SOL    MW4 6250   6.254   1.053   5.140  0.7228 -0.4597 -0.4374
 1620SOL     OW 6251   3.403   2.162   4.274  0.1019  0.4609 -0.0926
 1620SOL    HW2 6252   3.343   2.235   4.289 -0.0637  0.0871  1.1032
 1620SOL    HW3 6253   3.349   2.084   4.285  0.8467  0.1110  1.3216
 1620SOL    MW4 6254   3.388   2.161   4.277  0.1783  0.3655  0.2518
 1621SOL     OW 6255   2.611   4.431   5.293 -0.5181 -0.4237  0.1209
 1621SOL    HW2 6256   2.651   4.451   5.377 -1.0977  1.8833 -0.0624
 1621SOL    HW3 6257   2.525   4.472   5.297 -0.4900 -0.0839 -1.6181
 1621SOL    MW4 6258   2.605   4.439   5.304 -0.5908 -0.0745 -0.1327
 1622SOL     OW 6259   1.435   2.275   4.300  0.0432  0.3047  0.1201
 1622SOL    HW2 6260   1.394   2.191   4.319 -0.2898  0.5262  0.4020
 1622SOL    HW3 6261   1.516   2.253   4.254 -0.2199 -0.1518 -0.1299
 1622SOL    MW4 6262   1.440   2.261   4.296 -0.0355  0.2737  0.1243
 1623SOL     OW 6263   5.624   3.682   0.636 -0.1852  1.1442 -0.0597
 1623SOL    HW2 6264   5.628   3.766   0.682  0.1666  0.9260  0.3242
 1623SOL    HW3 6265   5.534   3.676   0.604 -0.2857  1.5469  0.1382
 1623SOL    MW4 6266   5.613   3.692   0.638 -0.1521  1.1686  0.0171
 1624SOL     OW 6267   1.975   1.844   4.136 -0.1353  0.4109 -0.1743
 1624SOL    HW2 6268   2.023   1.776   4.089  0.8385  0.7876  0.2512
 1624SOL    HW3 6269   1.936   1.798   4.211  0.3014  0.2661 -0.0312
 1624SOL    MW4 6270   1.977   1.829   4.140  0.0508  0.4415 -0.0993
 1625SOL     OW 6271   2.811   1.292   5.204 -0.8952  0.3242  0.1683
 1625SOL    HW2 6272   2.750   1.308   5.277 -2.0337 -1.1007 -0.4189
 1625SOL    HW3 6273   2.764   1.231   5.148 -0.3393  1.9081 -2.1546
 1625SOL    MW4 6274   2.796   1.286   5.206 -0.9720  0.3451 -0.2157
 1626SOL     OW 6275   1.380   5.432   5.896  0.3496  0.3517 -0.2354
 1626SOL    HW2 6276   1.445   5.480   5.846  1.3793 -0.6280  0.1309
 1626SOL    HW3 6277   1.335   5.500   5.948  2.0057  0.9012  0.5450
 1626SOL    MW4 6278   1.383   5.448   5.897  0.7039  0.2949 -0.0841
 1627SOL     OW 6279   3.259   5.817   0.408  0.0194 -0.0188  0.1496
 1627SOL    HW2 6280   3.227   5.907   0.401 -1.8175 -0.4542  1.9147
 1627SOL    HW3 6281   3.189   5.764   0.370  0.4856 -0.7845  0.3447
 1627SOL    MW4 6282   3.245   5.822   0.402 -0.1615 -0.1773  0.4083
 1628SOL     OW 6283   5.656   3.497   4.957  0.2148  0.0153  0.1399
 1628SOL    HW2 6284   5.591   3.430   4.938 -0.7993  0.9067  0.3591
 1628SOL    HW3 6285   5.696   3.469   5.039  0.9676 -1.1576 -0.6020
 1628SOL    MW4 6286   5.653   3.484   4.965  0.1804 -0.0218  0.0709
 1629SOL     OW 6287   4.948   1.419   3.561 -0.3590 -0.3611  0.3770
 1629SOL    HW2 6288   5.002   1.480   3.509 -1.6831  0.9715  0.4897
 1629SOL    HW3 6289   5.008   1.386   3.628  0.8092 -0.4106 -0.6485
 1629SOL    MW4 6290   4.963   1.423   3.563 -0.3796 -0.1918  0.2566
 1630SOL     OW 6291   5.070   4.529   0.453 -0.3671 -0.3846 -0.2929
 1630SOL    HW2 6292   5.015   4.461   0.492 -1.6507  1.1777  0.7594
 1630SOL    HW3 6293   5.018   4.564   0.381 -1.2848  1.7350  1.2778
 1630SOL    MW4 6294   5.056   4.524   0.449 -0.6575  0.1012  0.0532
 1631SOL     OW 6295   3.763   0.157   1.170  0.2307 -0.0590  0.5209
 1631SOL    HW2 6296   3.682   0.203   1.149  0.5299 -0.4092 -1.5364
 1631SOL    HW3 6297   3.832   0.216   1.141  0.7068 -0.3193  1.0955
 1631SOL    MW4 6298   3.761   0.171   1.164  0.3330 -0.1396  0.3253
 1632SOL     OW 6299   0.346   2.829   4.699  0.2315  0.1017 -0.2701
 1632SOL    HW2 6300   0.284   2.899   4.717  1.5897  1.0486  0.9582
 1632SOL    HW3 6301   0.422   2.874   4.661  0.7225 -0.8492 -0.4488
 1632SOL    MW4 6302   0.348   2.844   4.696  0.4755  0.1012 -0.1316
 1633SOL     OW 6303   3.374   0.020   4.604  0.5307  0.0588  0.1002
 1633SOL    HW2 6304   3.408   0.107   4.585  0.9734 -0.1220  0.0456
 1633SOL    HW3 6305   3.280   0.033   4.617  0.9228  1.0095  2.7536
 1633SOL    MW4 6306   3.366   0.033   4.603  0.6408  0.1604  0.4431
 1634SOL     OW 6307   3.441   4.369   1.847 -0.0073 -0.5696  0.7859
 1634SOL    HW2 6308   3.405   4.303   1.788 -1.8580  0.8982  0.1839
 1634SOL    HW3 6309   3.526   4.391   1.810 -1.3926  0.7979 -1.8198
 1634SOL    MW4 6310   3.447   4.363   1.835 -0.4342 -0.1955  0.3627
 1635SOL     OW 6311   1.128   2.292   0.806  0.0378 -0.3947  0.4034
 1635SOL    HW2 6312   1.151   2.279   0.714 -0.5210 -0.2447  0.2388
 1635SOL    HW3 6313   1.083   2.211   0.830  0.5023 -0.5808  0.6481
 1635SOL    MW4 6314   1.125   2.280   0.797  0.0253 -0.3995  0.4139
 1636SOL     OW 6315   4.383   0.038   2.031 -0.1879  0.4980 -0.0606
 1636SOL    HW2 6316   4.342   0.032   1.945  0.5653 -1.2130 -0.3252
 1636SOL    HW3 6317   4.475   0.055   2.012 -0.2256  1.3633  0.4627
 1636SOL    MW4 6318   4.390   0.040   2.017 -0.0935  0.3864 -0.0265
 1637SOL     OW 6319   4.482   1.962   0.802  0.1407 -0.4661 -0.0010
 1637SOL    HW2 6320   4.535   2.023   0.749 -0.4518  1.0094  1.0370
 1637SOL    HW3 6321   4.399   2.008   0.815 -1.9425 -3.1778 -2.5183
 1637SOL    MW4 6322   4.478   1.976   0.797 -0.2123 -0.6292 -0.1961
 1638SOL     OW 6323   0.444   1.363   3.761 -0.2312 -0.5099  0.2149
 1638SOL    HW2 6324   0.505   1.357   3.834  0.4749  0.9293 -0.2199
 1638SOL    HW3 6325   0.362   1.393   3.800  0.2591  0.6572  0.3714
 1638SOL    MW4 6326   0.441   1.366   3.775 -0.0733 -0.1661  0.1782
 1639SOL     OW 6327   3.025   3.672   5.351 -0.2131 -0.1649  0.1299
 1639SOL    HW2 6328   2.948   3.617   5.338 -0.5060  0.0133  1.0305
 1639SOL    HW3 6329   2.993   3.746   5.404  0.6403 -0.2600  0.7969
 1639SOL    MW4 6330   3.011   3.675   5.356 -0.1392 -0.1539  0.3367
 1640SOL     OW 6331   0.407   5.479   5.468  0.0882 -0.3225  0.8511
 1640SOL    HW2 6332   0.474   5.535   5.507 -1.2220  2.1469 -0.2378
 1640SOL    HW3 6333   0.396   5.513   5.379 -2.9798 -0.2390  1.1699
 1640SOL    MW4 6334   0.415   5.491   5.461 -0.4895  0.0143  0.7495
 1641SOL     OW 6335   4.079   5.498   3.468 -0.1257 -0.3246  0.0556
 1641SOL    HW2 6336   3.996   5.536   3.497 -0.3582 -1.2674  0.6681
 1641SOL    HW3 6337   4.118   5.566   3.412 -0.5590  0.7570  1.0233
 1641SOL    MW4 6338   4.073   5.512   3.464 -0.2135 -0.3063  0.2641
 1642SOL     OW 6339   1.245   4.852   5.389  0.0877 -0.3418 -0.5600
 1642SOL    HW2 6340   1.305   4.887   5.324 -1.3221  1.7076 -0.8508
 1642SOL    HW3 6341   1.277   4.888   5.472  0.2290 -0.6332 -0.4862
 1642SOL    MW4 6342   1.257   4.862   5.392 -0.0796 -0.1099 -0.5886
 1643SOL     OW 6343   0.699   3.774   6.185  0.0502 -0.3775  0.4955
 1643SOL    HW2 6344   0.765   3.758   6.118 -0.3372 -0.6501  0.1672
 1643SOL    HW3 6345   0.616   3.766   6.137 -0.1941  1.8805  0.4647
 1643SOL    MW4 6346   0.696   3.771   6.170 -0.0332 -0.1155  0.4481
 1644SOL     OW 6347   3.106   4.960   5.131 -0.4238 -0.3891 -0.2238
 1644SOL    HW2 6348   3.152   4.974   5.049 -0.6481 -1.9947 -0.6427
 1644SOL    HW3 6349   3.034   4.901   5.109 -0.8097 -0.4132  1.0247
 1644SOL    MW4 6350   3.103   4.954   5.118 -0.5043 -0.6041 -0.1143
 1645SOL     OW 6351   6.084   1.897   4.392  0.2124 -0.1121  0.2762
 1645SOL    HW2 6352   6.003   1.890   4.443  0.7867  1.5805  1.4855
 1645SOL    HW3 6353   6.152   1.918   4.456  1.7088 -1.8140 -0.6773
 1645SOL    MW4 6354   6.082   1.899   4.407  0.4856 -0.1134  0.3099
 1646SOL     OW 6355   3.182   1.833   1.687 -0.1246  0.1621  0.0475
 1646SOL    HW2 6356   3.091   1.803   1.694 -0.0037 -0.3994 -0.5849
 1646SOL    HW3 6357   3.175   1.925   1.662 -0.5742 -0.4016 -2.1585
 1646SOL    MW4 6358   3.169   1.841   1.684 -0.1680  0.0136 -0.3270
 1647SOL     OW 6359   5.800   5.611   2.149 -0.1196  0.0028 -0.0431
 1647SOL    HW2 6360   5.778   5.681   2.211 -0.2622  0.7195 -0.8703
 1647SOL    HW3 6361   5.795   5.654   2.063  1.3560 -0.6309 -0.4719
 1647SOL    MW4 6362   5.796   5.626   2.146  0.0562  0.0138 -0.2088
 1648SOL     OW 6363   4.758   2.825   0.117  0.2077  0.5280 -0.0443
 1648SOL    HW2 6364   4.695   2.805   0.187 -0.8478  1.1142 -0.7980
 1648SOL    HW3 6365   4.776   2.918   0.127  2.7056 -0.0340  1.5221
 1648SOL    MW4 6366   4.752   2.835   0.127  0.3980  0.5312  0.0629
 1649SOL     OW 6367   3.938   2.187   6.225  0.6335 -0.2006  0.2124
 1649SOL    HW2 6368   3.960   2.096   6.247  2.1622  0.3496  1.1302
 1649SOL    HW3 6369   4.003   2.211   6.158 -1.2127 -0.4673 -1.7828
 1649SOL    MW4 6370   3.950   2.178   6.219  0.5916 -0.1632  0.0702
 1650SOL     OW 6371   0.139   2.223   4.666 -0.2067 -0.0109 -0.2920
 1650SOL    HW2 6372   0.078   2.286   4.705 -0.8405 -0.7361 -0.1000
 1650SOL    HW3 6373   0.085   2.147   4.645  0.2942  0.0001 -1.7417
 1650SOL    MW4 6374   0.124   2.221   4.668 -0.2243 -0.1051 -0.4579
 1651SOL     OW 6375   1.915   4.028   0.676 -0.1846 -0.2316  0.1958
 1651SOL    HW2 6376   2.000   3.999   0.644 -0.8986 -1.4001 -0.7382
 1651SOL    HW3 6377   1.878   3.950   0.718 -0.9254  0.1680  0.3015
 1651SOL    MW4 6378   1.921   4.014   0.677 -0.3765 -0.3330  0.0865
 1652SOL     OW 6379   6.301   0.376   5.097 -0.4265  0.5008 -0.3370
 1652SOL    HW2 6380   6.213   0.379   5.061  0.2185  0.3139 -2.0678
 1652SOL    HW3 6381   6.330   0.467   5.099 -1.0206  0.6731  1.2575
 1652SOL    MW4 6382   6.293   0.388   5.092 -0.4197  0.4989 -0.3550
 1653SOL     OW 6383   3.327   5.586   1.646 -0.2739  0.0869 -0.2027
 1653SOL    HW2 6384   3.331   5.500   1.688 -0.3014  0.1447 -0.0819
 1653SOL    HW3 6385   3.415   5.600   1.611 -0.5214 -0.4252 -1.0861
 1653SOL    MW4 6386   3.339   5.576   1.647 -0.3102  0.0269 -0.3033
 1654SOL     OW 6387   0.580   5.622   5.621  0.4663 -0.5337  0.2664
 1654SOL    HW2 6388   0.651   5.686   5.616 -1.2047  1.4881  0.7702
 1654SOL    HW3 6389   0.585   5.588   5.711 -0.1656  0.8431  0.8479
 1654SOL    MW4 6390   0.590   5.626   5.632  0.1625 -0.0853  0.4096
 1655SOL     OW 6391   1.658   5.864   5.020 -0.0956 -0.4076  0.5636
 1655SOL    HW2 6392   1.736   5.919   5.013 -0.4717 -0.0942 -1.8970
 1655SOL    HW3 6393   1.587   5.925   5.043 -0.0357 -0.3159  0.5025
 1655SOL    MW4 6394   1.659   5.879   5.022 -0.1373 -0.3542  0.2309
 1656SOL     OW 6395   4.280   0.033   1.773 -0.2632 -0.0917  0.0521
 1656SOL    HW2 6396   4.201   0.077   1.741 -0.0228  0.1232 -0.2410
 1656SOL    HW3 6397   4.348   0.056   1.710  0.0325 -0.2886  0.2981
 1656SOL    MW4 6398   4.278   0.042   1.760 -0.1924 -0.0893  0.0459
 1657SOL     OW 6399   1.662   1.240   5.351  0.1108  0.0703  0.2944
 1657SOL    HW2 6400   1.582   1.198   5.319 -0.1750 -0.9001  2.1386
 1657SOL    HW3 6401   1.721   1.237   5.277 -0.1865 -2.9339  0.0314
 1657SOL    MW4 6402   1.659   1.234   5.337  0.0338 -0.4541  0.5030
 1658SOL     OW 6403   4.635   5.196   3.213  0.0420  0.6680  0.8385
 1658SOL    HW2 6404   4.607   5.112   3.250 -3.1032 -0.1828 -2.8404
 1658SOL    HW3 6405   4.729   5.186   3.199 -0.2187 -2.2006  0.6442
 1658SOL    MW4 6406   4.644   5.184   3.216 -0.4074  0.1773  0.3275
 1659SOL     OW 6407   6.299   1.947   4.981 -0.3246  0.6257  0.2607
 1659SOL    HW2 6408   6.269   1.991   4.902 -0.6444  0.0624  0.0595
 1659SOL    HW3 6409   6.392   1.931   4.965  0.2530  2.7950  1.0812
 1659SOL    MW4 6410   6.307   1.951   4.968 -0.2906  0.8376  0.3424
 1660SOL     OW 6411   4.245   0.280   1.154 -0.0685  0.3379  0.5978
 1660SOL    HW2 6412   4.272   0.195   1.118 -1.3402  0.4738 -0.8121
 1660SOL    HW3 6413   4.266   0.275   1.247 -2.9038 -2.7841  1.2980
 1660SOL    MW4 6414   4.251   0.268   1.161 -0.6104 -0.0561  0.5041
 1661SOL     OW 6415   3.579   2.590   1.249 -0.2438 -0.4333  0.4289
 1661SOL    HW2 6416   3.493   2.567   1.216  0.9779 -1.4631 -2.3016
 1661SOL    HW3 6417   3.562   2.654   1.319 -3.1515 -0.4077 -0.1953
 1661SOL    MW4 6418   3.566   2.595   1.254 -0.4662 -0.5658 -0.0138
 1662SOL     OW 6419   6.002   1.960   5.424 -0.0318 -0.5207 -0.7778
 1662SOL    HW2 6420   6.087   1.977   5.465  0.1182 -0.7111 -1.0050
 1662SOL    HW3 6421   6.003   1.866   5.405 -0.1580 -0.4618 -1.0847
 1662SOL    MW4 6422   6.013   1.949   5.427 -0.0286 -0.5380 -0.8483
 1663SOL     OW 6423   4.464   6.020   5.840  0.1290 -0.7590 -0.3798
 1663SOL    HW2 6424   4.401   6.082   5.803 -0.3054 -1.6524 -1.1996
 1663SOL    HW3 6425   4.507   5.981   5.763  0.9526 -0.8959  0.1446
 1663SOL    MW4 6426   4.461   6.023   5.825  0.1803 -0.8949 -0.4187
 1664SOL     OW 6427   5.381   0.867   0.952 -0.0658  0.5319 -0.3933
 1664SOL    HW2 6428   5.309   0.929   0.935 -0.5790 -0.2462 -1.1193
 1664SOL    HW3 6429   5.460   0.916   0.928 -0.2827  1.5754  0.8864
 1664SOL    MW4 6430   5.382   0.882   0.946 -0.1621  0.5669 -0.3202
 1665SOL     OW 6431   1.425   1.331   2.466 -0.2353  0.1925  0.1982
 1665SOL    HW2 6432   1.413   1.327   2.561  0.1109  0.7997  0.2713
 1665SOL    HW3 6433   1.470   1.414   2.451 -1.5892  0.8209 -0.6280
 1665SOL    MW4 6434   1.429   1.341   2.477 -0.3683  0.3556  0.0988
 1666SOL     OW 6435   3.035   1.397   0.719  0.2018 -0.0832  0.2478
 1666SOL    HW2 6436   3.041   1.464   0.787  0.2372 -0.3315  0.4946
 1666SOL    HW3 6437   3.102   1.420   0.656  2.2105 -1.4596  1.7362
 1666SOL    MW4 6438   3.045   1.409   0.720  0.4715 -0.2976  0.4767
 1667SOL     OW 6439   6.139   0.793   6.399  0.2558 -0.8282 -0.7095
 1667SOL    HW2 6440   6.113   0.826   6.485 -0.4511 -0.5189 -1.0358
 1667SOL    HW3 6441   6.174   0.869   6.353 -1.4754 -0.4674 -1.5005
 1667SOL    MW4 6442   6.141   0.807   6.404 -0.0659 -0.7398 -0.8569
 1668SOL     OW 6443   6.195   1.243   0.524 -0.1452  0.0743  0.0114
 1668SOL    HW2 6444   6.207   1.230   0.619 -2.9143 -3.0567  0.1079
 1668SOL    HW3 6445   6.248   1.173   0.484  1.6729  1.8729 -0.9251
 1668SOL    MW4 6446   6.204   1.232   0.532 -0.2707 -0.1015 -0.0994
 1669SOL     OW 6447   5.192   1.264   2.719  0.4980 -0.7223 -0.7109
 1669SOL    HW2 6448   5.172   1.171   2.729 -0.3778 -0.6685 -1.6947
 1669SOL    HW3 6449   5.285   1.267   2.699  0.8502 -1.2631  0.7675
 1669SOL    MW4 6450   5.201   1.252   2.718  0.4289 -0.7865 -0.6456
 1670SOL     OW 6451   3.891   0.828   0.752  0.3881 -0.6936  0.5167
 1670SOL    HW2 6452   3.957   0.768   0.786  0.0237 -0.8340  0.9750
 1670SOL    HW3 6453   3.814   0.774   0.738  0.9763 -0.9977 -2.0867
 1670SOL    MW4 6454   3.890   0.813   0.754  0.4176 -0.7522  0.2336
 1671SOL     OW 6455   6.109   2.857   1.483  0.2176 -0.3064 -0.0185
 1671SOL    HW2 6456   6.114   2.926   1.417 -0.2043 -1.7958 -1.6763
 1671SOL    HW3 6457   6.027   2.811   1.464  0.2885 -1.0293  1.2983
 1671SOL    MW4 6458   6.099   2.860   1.472  0.1713 -0.5983 -0.0635
 1672SOL     OW 6459   4.632   6.103   0.676 -0.4630 -0.2061 -0.0216
 1672SOL    HW2 6460   4.591   6.188   0.662 -2.0385 -0.9846 -0.2865
 1672SOL    HW3 6461   4.664   6.077   0.589 -0.4831 -0.1496 -0.0459
 1672SOL    MW4 6462   4.631   6.111   0.662 -0.6735 -0.3014 -0.0598
 1673SOL     OW 6463   4.208   5.122   6.165 -0.1242  0.5150 -0.1347
 1673SOL    HW2 6464   4.176   5.167   6.086  0.5562  0.4830 -0.4344
 1673SOL    HW3 6465   4.216   5.191   6.230  0.8048  0.8211 -0.5578
 1673SOL    MW4 6466   4.205   5.137   6.163  0.0882  0.5512 -0.2301
 1674SOL     OW 6467   6.323   0.829   2.598  0.1586  0.3184 -0.3677
 1674SOL    HW2 6468   6.252   0.885   2.629 -1.7294 -1.9277 -0.3548
 1674SOL    HW3 6469   6.366   0.798   2.678 -2.1024 -2.2231 -0.0119
 1674SOL    MW4 6470   6.320   0.832   2.613 -0.3888 -0.3132 -0.3191
 1675SOL     OW 6471   6.067   0.635   4.899 -0.2812 -0.5797 -0.4155
 1675SOL    HW2 6472   6.108   0.619   4.814 -0.2300 -1.5405 -0.2265
 1675SOL    HW3 6473   6.038   0.548   4.928 -1.9413  0.0006 -0.2851
 1675SOL    MW4 6474   6.069   0.621   4.892 -0.4935 -0.6299 -0.3733
 1676SOL     OW 6475   3.614   3.487   5.688  0.0814  0.0624 -0.2134
 1676SOL    HW2 6476   3.544   3.552   5.685 -0.1451 -0.1819 -0.2675
 1676SOL    HW3 6477   3.586   3.424   5.754  1.1166  0.9346  1.1276
 1676SOL    MW4 6478   3.601   3.487   5.696  0.1881  0.1453 -0.0436
 1677SOL     OW 6479   3.188   4.560   1.790 -0.3564 -0.2463 -0.2612
 1677SOL    HW2 6480   3.280   4.540   1.769  0.8292  3.0336  1.1097
 1677SOL    HW3 6481   3.149   4.584   1.706  0.2772 -0.8300 -0.7412
 1677SOL    MW4 6482   3.195   4.560   1.776 -0.1164  0.1095 -0.1436
 1678SOL     OW 6483   1.333   4.847   2.595  0.3263 -0.2774 -0.1176
 1678SOL    HW2 6484   1.337   4.941   2.576 -0.4205 -0.0003  1.0245
 1678SOL    HW3 6485   1.338   4.806   2.509  1.1042  0.7897 -0.6068
 1678SOL    MW4 6486   1.334   4.854   2.581  0.3304 -0.1000 -0.0314
 1679SOL     OW 6487   5.640   3.216   5.051 -0.0086  0.6501  0.1364
 1679SOL    HW2 6488   5.674   3.127   5.039 -1.9391  0.0733 -1.5850
 1679SOL    HW3 6489   5.712   3.264   5.093  1.3162 -1.5341  0.5011
 1679SOL    MW4 6490   5.654   3.211   5.055 -0.0885  0.2858 -0.0426
 1680SOL     OW 6491   5.211   1.030   5.685  0.0605  0.5821 -0.0091
 1680SOL    HW2 6492   5.195   0.961   5.749  0.3146  2.1695  1.8586
 1680SOL    HW3 6493   5.305   1.026   5.667 -0.1271 -0.3156 -0.8610
 1680SOL    MW4 6494   5.221   1.020   5.691  0.0692  0.6731  0.1249
 1681SOL     OW 6495   0.656   6.274   4.628 -0.8895  0.5425 -0.1271
 1681SOL    HW2 6496   0.740   6.265   4.674 -0.5775  0.8876 -0.6195
 1681SOL    HW3 6497   0.590   6.259   4.696 -0.4342 -1.3379 -0.0511
 1681SOL    MW4 6498   0.658   6.271   4.643 -0.7883  0.3399 -0.1820
 1682SOL     OW 6499   4.492   4.273   5.263  0.2672  0.3556  0.4582
 1682SOL    HW2 6500   4.551   4.207   5.227  0.5022 -0.0048  1.4887
 1682SOL    HW3 6501   4.422   4.280   5.198  0.9763  0.1528 -0.3547
 1682SOL    MW4 6502   4.491   4.265   5.249  0.3918  0.2813  0.4869
 1683SOL     OW 6503   0.250   2.046   0.650  0.3652  0.2097  0.3169
 1683SOL    HW2 6504   0.276   1.969   0.600  0.0046  0.1754  0.1842
 1683SOL    HW3 6505   0.204   2.011   0.726 -0.2702  0.3054 -0.0133
 1683SOL    MW4 6506   0.248   2.031   0.653  0.2338  0.2178  0.2559
 1684SOL     OW 6507   5.083   3.109   1.828  0.6370  0.2042 -0.4221
 1684SOL    HW2 6508   5.038   3.035   1.789  0.2735 -0.1488  0.6197
 1684SOL    HW3 6509   5.176   3.093   1.811  0.7188 -1.3767  1.1584
 1684SOL    MW4 6510   5.089   3.097   1.821  0.5998 -0.0509 -0.0761
 1685SOL     OW 6511   1.297   4.527   2.096  0.4780 -0.0301 -0.1133
 1685SOL    HW2 6512   1.385   4.492   2.108  1.1256  1.4043 -0.4173
 1685SOL    HW3 6513   1.278   4.574   2.177  0.6660  0.9955 -0.6424
 1685SOL    MW4 6514   1.306   4.529   2.108  0.5883  0.2945 -0.2232
 1686SOL     OW 6515   2.832   6.013   2.623  0.3467  0.4927 -0.1863
 1686SOL    HW2 6516   2.838   5.927   2.582  1.5703 -0.3341  1.5761
 1686SOL    HW3 6517   2.914   6.056   2.599  0.3287  0.6439  0.0203
 1686SOL    MW4 6518   2.844   6.007   2.614  0.5057  0.4036  0.0735
 1687SOL     OW 6519   0.672   6.344   0.474  0.4818 -0.2369  0.8906
 1687SOL    HW2 6520   0.675   6.437   0.500  0.7977 -0.2304  0.8337
 1687SOL    HW3 6521   0.693   6.345   0.381  1.0755 -0.4206  1.0214
 1687SOL    MW4 6522   0.675   6.357   0.465  0.6018 -0.2603  0.9004
 1688SOL     OW 6523   4.067   2.282   5.960 -0.1715  0.0954  0.5549
 1688SOL    HW2 6524   3.980   2.268   5.921  0.2234 -2.0445  0.3345
 1688SOL    HW3 6525   4.124   2.220   5.915  2.1632  3.2528 -1.2501
 1688SOL    MW4 6526   4.063   2.272   5.949  0.1887  0.2297  0.2877
 1689SOL     OW 6527   1.718   4.784   4.056  0.4635  0.0082  0.6441
 1689SOL    HW2 6528   1.653   4.737   4.004  1.5834 -0.3339 -0.4897
 1689SOL    HW3 6529   1.795   4.728   4.055  0.9519  0.6413  1.5397
 1689SOL    MW4 6530   1.719   4.771   4.049  0.6757  0.0466  0.6127
 1690SOL     OW 6531   3.662   2.654   1.631 -0.1488  0.5351  0.1038
 1690SOL    HW2 6532   3.745   2.614   1.656 -0.8527 -1.2471 -0.2396
 1690SOL    HW3 6533   3.597   2.585   1.646 -1.2855  1.1663 -1.6157
 1690SOL    MW4 6534   3.664   2.640   1.636 -0.3917  0.3833 -0.1684
 1691SOL     OW 6535   4.767   4.938   4.424 -0.1981  0.0375  0.4090
 1691SOL    HW2 6536   4.684   4.983   4.405  0.1144  1.1506  1.5699
 1691SOL    HW3 6537   4.831   5.008   4.434  0.1307 -0.5497  3.1647
 1691SOL    MW4 6538   4.764   4.953   4.423 -0.1135  0.1069  0.9257
 1692SOL     OW 6539   5.366   0.855   2.262  0.2467  0.5172 -0.1337
 1692SOL    HW2 6540   5.327   0.912   2.196 -0.8665 -0.0992 -0.0264
 1692SOL    HW3 6541   5.297   0.843   2.327  1.3677  1.2385  1.2335
 1692SOL    MW4 6542   5.352   0.861   2.262  0.2477  0.5310  0.0608
 1693SOL     OW 6543   3.084   4.413   1.050 -0.1439 -0.2218  0.0729
 1693SOL    HW2 6544   3.150   4.423   0.981 -0.0115  1.0190  0.3503
 1693SOL    HW3 6545   3.071   4.502   1.084 -1.6301 -0.5113  0.3345
 1693SOL    MW4 6546   3.091   4.426   1.046 -0.3226 -0.0963  0.1440
 1694SOL     OW 6547   0.801   1.062   0.818 -0.3036 -0.2903  0.0772
 1694SOL    HW2 6548   0.748   0.989   0.786 -1.7495  0.5341  0.5333
 1694SOL    HW3 6549   0.806   1.049   0.912  0.3595 -0.3840  0.0345
 1694SOL    MW4 6550   0.795   1.051   0.826 -0.4068 -0.1939  0.1318
 1695SOL     OW 6551   3.694   3.033   2.172 -0.2675 -0.6582 -0.4216
 1695SOL    HW2 6552   3.728   2.973   2.106  1.4804 -0.5966  0.3834
 1695SOL    HW3 6553   3.618   2.986   2.209 -0.1189 -1.5046 -1.1525
 1695SOL    MW4 6554   3.688   3.019   2.168 -0.0173 -0.7617 -0.4118
 1696SOL     OW 6555   2.121   2.828   2.475 -0.0421 -0.2235 -0.2269
 1696SOL    HW2 6556   2.141   2.748   2.426 -0.1808 -1.0527  1.0157
 1696SOL    HW3 6557   2.150   2.899   2.419  1.2817 -1.1968 -0.8168
 1696SOL    MW4 6558   2.127   2.827   2.461  0.1143 -0.4613 -0.1408
 1697SOL     OW 6559   1.021   4.889   6.408 -0.0226  0.7976 -0.4988
 1697SOL    HW2 6560   0.928   4.880   6.430  0.3732  2.0999  2.1379
 1697SOL    HW3 6561   1.030   4.847   6.323 -2.8560 -0.1181 -0.4429
 1697SOL    MW4 6562   1.010   4.882   6.399 -0.3442  0.8486 -0.1435
 1698SOL     OW 6563   4.366   3.221   0.680  0.8165 -0.4105 -0.1220
 1698SOL    HW2 6564   4.385   3.138   0.723 -0.3170 -0.8062 -0.3628
 1698SOL    HW3 6565   4.299   3.200   0.615 -1.2454  1.0970  1.3835
 1698SOL    MW4 6566   4.360   3.207   0.677  0.3949 -0.2638  0.0448
 1699SOL     OW 6567   6.123   4.263   2.820  0.0164 -0.8358 -0.3532
 1699SOL    HW2 6568   6.068   4.244   2.896 -0.0581  0.4865 -0.0424
 1699SOL    HW3 6569   6.080   4.338   2.778  1.8412  0.6229  0.2340
 1699SOL    MW4 6570   6.110   4.270   2.824  0.2473 -0.4689 -0.2348
 1700SOL     OW 6571   5.892   6.369   5.472 -0.0455 -0.4674 -0.3923
 1700SOL    HW2 6572   5.863   6.279   5.488  0.0250 -0.6550 -1.3189
 1700SOL    HW3 6573   5.986   6.366   5.485  0.2914 -1.0453 -2.6062
 1700SOL    MW4 6574   5.900   6.357   5.476  0.0083 -0.5684 -0.8067
 1701SOL     OW 6575   1.450   6.019   2.842 -0.0176 -0.0326 -0.0201
 1701SOL    HW2 6576   1.434   5.925   2.833 -0.7436  0.0643  0.2056
 1701SOL    HW3 6577   1.472   6.031   2.934  0.4965 -0.0354 -0.1385
 1701SOL    MW4 6578   1.451   6.008   2.853 -0.0456 -0.0202 -0.0060
 1702SOL     OW 6579   3.425   3.553   4.068 -0.0682  0.5036 -0.6004
 1702SOL    HW2 6580   3.413   3.637   4.111  0.1807  0.4726 -0.4679
 1702SOL    HW3 6581   3.380   3.562   3.984 -1.2976  0.2740  0.0109
 1702SOL    MW4 6582   3.417   3.565   4.062 -0.1975  0.4692 -0.5022
 1703SOL     OW 6583   0.747   0.898   2.824  0.1700  0.2786  0.0911
 1703SOL    HW2 6584   0.812   0.969   2.823  0.8943 -0.3055  2.0651
 1703SOL    HW3 6585   0.705   0.906   2.909 -0.7063 -0.8314 -0.2267
 1703SOL    MW4 6586   0.750   0.909   2.835  0.1499  0.0551  0.3096
 1704SOL     OW 6587   2.602   0.913   0.317 -0.2389  0.1042  0.0639
 1704SOL    HW2 6588   2.588   0.963   0.397 -2.9803 -0.9630  0.3443
 1704SOL    HW3 6589   2.520   0.921   0.269  0.7453 -0.7075 -1.8512
 1704SOL    MW4 6590   2.589   0.921   0.321 -0.4707 -0.1437 -0.1518
 1705SOL     OW 6591   0.646   1.649   0.360  0.1270 -0.1551  0.4844
 1705SOL    HW2 6592   0.725   1.665   0.412  1.2068 -1.3253 -0.7045
 1705SOL    HW3 6593   0.636   1.729   0.307  2.3271 -1.1048 -1.5314
 1705SOL    MW4 6594   0.655   1.662   0.360  0.5597 -0.4348  0.0616
 1706SOL     OW 6595   1.674   2.470   0.730  0.4749 -0.2115  0.6959
 1706SOL    HW2 6596   1.700   2.498   0.642  2.0560 -0.4692  1.0459
 1706SOL    HW3 6597   1.705   2.540   0.788  0.4417 -0.5675  1.1494
 1706SOL    MW4 6598   1.682   2.483   0.726  0.6791 -0.2925  0.8020
 1707SOL     OW 6599   3.171   2.723   2.014  0.0729 -0.1059  0.3865
 1707SOL    HW2 6600   3.204   2.653   2.070 -1.3032 -0.3618  0.9366
 1707SOL    HW3 6601   3.142   2.790   2.076  1.5325  1.0563 -0.1360
 1707SOL    MW4 6602   3.171   2.722   2.029  0.0839  0.0137  0.3902
 1708SOL     OW 6603   1.188   0.578   6.248 -0.2170 -0.2694  0.0351
 1708SOL    HW2 6604   1.154   0.668   6.246  0.6841  0.0686 -0.7982
 1708SOL    HW3 6605   1.235   0.569   6.166  0.7193 -1.1132  0.6475
 1708SOL    MW4 6606   1.190   0.589   6.237  0.0254 -0.3361  0.0060
 1709SOL     OW 6607   4.471   0.078   4.850 -0.2502  0.1187 -0.1725
 1709SOL    HW2 6608   4.396   0.033   4.811 -0.3207 -0.2178  0.3482
 1709SOL    HW3 6609   4.498   0.022   4.923  0.6723  0.1071 -0.5130
 1709SOL    MW4 6610   4.465   0.065   4.855 -0.1378  0.0728 -0.1487
 1710SOL     OW 6611   5.308   1.649   1.287  0.5017  0.2126  0.6966
 1710SOL    HW2 6612   5.390   1.664   1.334 -0.2949  0.5405  2.0662
 1710SOL    HW3 6613   5.253   1.723   1.312 -0.0938  0.1888 -0.4901
 1710SOL    MW4 6614   5.311   1.661   1.297  0.3180  0.2527  0.7208
 1711SOL     OW 6615   6.434   6.431   5.956  0.3836  0.5867  0.1766
 1711SOL    HW2 6616   6.527   6.420   5.976  0.4147 -0.1607 -0.3042
 1711SOL    HW3 6617   6.405   6.343   5.931  0.0316  1.1717 -1.6147
 1711SOL    MW4 6618   6.442   6.418   5.955  0.3412  0.5652 -0.1232
 1712SOL     OW 6619   2.255   3.897   0.371 -0.0386 -0.3053  0.5661
 1712SOL    HW2 6620   2.328   3.924   0.427 -0.1827  2.3799 -0.3530
 1712SOL    HW3 6621   2.180   3.890   0.430  0.1538  0.8992  0.9884
 1712SOL    MW4 6622   2.255   3.900   0.386 -0.0322  0.2079  0.5006
 1713SOL     OW 6623   5.443   3.523   5.797  0.0346  0.2633  0.7166
 1713SOL    HW2 6624   5.446   3.440   5.844  0.0344  0.6146  1.3546
 1713SOL    HW3 6625   5.399   3.503   5.715  1.0171 -0.5973  0.3800
 1713SOL    MW4 6626   5.438   3.509   5.793  0.1642  0.1961  0.7564
 1714SOL     OW 6627   6.330   1.617   1.391  0.4279 -0.3830  0.3003
 1714SOL    HW2 6628   6.305   1.525   1.400  1.7888 -0.7951  0.0891
 1714SOL    HW3 6629   6.252   1.660   1.356 -0.1678 -1.4855  0.2406
 1714SOL    MW4 6630   6.316   1.611   1.388  0.5289 -0.5828  0.2646
 1715SOL     OW 6631   1.364   0.750   5.082 -0.2377 -0.3545 -0.1758
 1715SOL    HW2 6632   1.437   0.690   5.071 -0.2328 -0.5503  0.7880
 1715SOL    HW3 6633   1.296   0.698   5.125 -0.4995  0.1255  0.0092
 1715SOL    MW4 6634   1.365   0.735   5.086 -0.2716 -0.3170 -0.0242
 1716SOL     OW 6635   4.918   5.004   3.448  0.3513  0.0356  0.2366
 1716SOL    HW2 6636   4.829   4.969   3.443  1.1040 -1.9092 -0.5866
 1716SOL    HW3 6637   4.933   5.042   3.362 -0.1625  1.7672  0.8600
 1716SOL    MW4 6638   4.908   5.004   3.436  0.3828  0.0075  0.2103
 1717SOL     OW 6639   5.903   3.638   5.962 -0.0930 -0.1883 -0.4204
 1717SOL    HW2 6640   5.816   3.600   5.955  0.3898 -1.6337  0.7807
 1717SOL    HW3 6641   5.963   3.566   5.942  0.8786  1.1066 -2.6321
 1717SOL    MW4 6642   5.899   3.624   5.958  0.0989 -0.2082 -0.5537
 1718SOL     OW 6643   5.638   1.401   4.101  0.2168 -0.0659 -0.5165
 1718SOL    HW2 6644   5.567   1.374   4.159  1.0266  1.8782  1.5579
 1718SOL    HW3 6645   5.717   1.394   4.155  1.0819  1.2751 -1.5391
 1718SOL    MW4 6646   5.639   1.397   4.116  0.4378  0.3675 -0.3777
 1719SOL     OW 6647   0.864   3.161   3.215  0.3030  0.2635 -0.3014
 1719SOL    HW2 6648   0.792   3.115   3.257  1.1059 -1.8242 -1.0835
 1719SOL    HW3 6649   0.941   3.140   3.268  1.0112 -0.9337 -1.7257
 1719SOL    MW4 6650   0.865   3.152   3.228  0.5024 -0.1699 -0.5925
 1720SOL     OW 6651   1.413   3.707   2.354 -0.8673  0.4635 -0.1465
 1720SOL    HW2 6652   1.405   3.616   2.384 -0.6489 -0.1675 -1.8925
 1720SOL    HW3 6653   1.350   3.755   2.406 -1.1153 -0.7255  0.6885
 1720SOL    MW4 6654   1.404   3.701   2.365 -0.8712  0.2234 -0.2667
 1721SOL     OW 6655   5.074   4.688   4.620 -0.3570  1.2437  0.2591
 1721SOL    HW2 6656   4.990   4.684   4.574 -0.4171  0.8382  0.3927
 1721SOL    HW3 6657   5.070   4.768   4.672 -0.9951  0.8091  0.8913
 1721SOL    MW4 6658   5.062   4.698   4.621 -0.4491  1.1329  0.3602
 1722SOL     OW 6659   0.359   4.254   5.636  0.0049 -0.2080  0.2375
 1722SOL    HW2 6660   0.328   4.173   5.676 -1.7172  1.0270  1.5257
 1722SOL    HW3 6661   0.441   4.273   5.681  0.8884 -1.6185 -0.6763
 1722SOL    MW4 6662   0.366   4.246   5.647 -0.1057 -0.2311  0.2869
 1723SOL     OW 6663   5.331   4.954   3.747  0.7710 -0.0855 -0.0245
 1723SOL    HW2 6664   5.306   4.998   3.666  2.4712 -1.5509 -1.4427
 1723SOL    HW3 6665   5.257   4.898   3.768  0.7927 -0.6493 -1.3351
 1723SOL    MW4 6666   5.318   4.952   3.739  0.9981 -0.3532 -0.3845
 1724SOL     OW 6667   2.793   4.260   1.262 -0.2089 -0.3884 -0.2253
 1724SOL    HW2 6668   2.705   4.277   1.296  0.3546  0.7026  0.7413
 1724SOL    HW3 6669   2.801   4.316   1.185 -0.5101 -0.8234 -0.5785
 1724SOL    MW4 6670   2.782   4.269   1.256 -0.1743 -0.3018 -0.1444
 1725SOL     OW 6671   0.193   0.316   3.024  0.3745  0.2596  0.7393
 1725SOL    HW2 6672   0.260   0.258   3.060 -0.3644 -0.8698  0.3460
 1725SOL    HW3 6673   0.130   0.326   3.095  0.4807  0.5552  0.7926
 1725SOL    MW4 6674   0.194   0.310   3.038  0.2911  0.1496  0.6944
 1726SOL     OW 6675   5.998   1.988   0.771 -0.5096  0.7654  0.5438
 1726SOL    HW2 6676   6.001   2.072   0.724  2.0229  1.4559  1.7860
 1726SOL    HW3 6677   5.992   1.922   0.702 -0.3671  1.8837 -0.5782
 1726SOL    MW4 6678   5.997   1.991   0.756 -0.1566  1.0041  0.5597
 1727SOL     OW 6679   3.620   2.227   4.430  0.4374  0.4146 -0.6006
 1727SOL    HW2 6680   3.659   2.295   4.375  2.5797 -1.5745 -1.6713
 1727SOL    HW3 6681   3.536   2.208   4.388  0.1714  1.8073 -0.7446
 1727SOL    MW4 6682   3.614   2.234   4.417  0.6850  0.3359 -0.7609
 1728SOL     OW 6683   1.722   0.954   1.822 -0.3935  0.3132  0.0867
 1728SOL    HW2 6684   1.639   0.990   1.790 -0.5873 -0.4143 -0.2535
 1728SOL    HW3 6685   1.697   0.873   1.867  0.0213  0.6515  0.9599
 1728SOL    MW4 6686   1.707   0.948   1.824 -0.3643  0.2618  0.1570
 1729SOL     OW 6687   3.970   3.009   3.519  0.0783 -0.1139 -0.2258
 1729SOL    HW2 6688   3.929   3.008   3.432  0.8272 -1.1529 -0.5997
 1729SOL    HW3 6689   4.064   3.001   3.501  0.1879 -1.1258  0.6871
 1729SOL    MW4 6690   3.977   3.007   3.505  0.1916 -0.3845 -0.1547
 1730SOL     OW 6691   4.739   0.541   2.363  0.2885  0.1152  0.3529
 1730SOL    HW2 6692   4.690   0.460   2.348 -0.5628  0.8794 -1.1958
 1730SOL    HW3 6693   4.730   0.557   2.457 -1.7188 -0.2463  0.2785
 1730SOL    MW4 6694   4.731   0.533   2.374 -0.0887  0.1684  0.1388
 1731SOL     OW 6695   2.788   2.345   5.066  1.0744 -0.3104  0.4201
 1731SOL    HW2 6696   2.755   2.388   5.146  0.6225 -0.7013  0.4452
 1731SOL    HW3 6697   2.758   2.402   4.995 -1.2212 -1.5655  0.3019
 1731SOL    MW4 6698   2.779   2.358   5.067  0.7119 -0.5276  0.4078
 1732SOL     OW 6699   3.582   5.827   2.527  0.2355 -0.9151 -0.3864
 1732SOL    HW2 6700   3.564   5.920   2.521 -2.1000 -1.1478  1.4510
 1732SOL    HW3 6701   3.553   5.790   2.443 -0.2942 -0.1853 -0.5275
 1732SOL    MW4 6702   3.576   5.834   2.515 -0.1425 -0.8496 -0.1626
 1733SOL     OW 6703   3.281   4.404   0.863  0.3397 -0.0534  0.0369
 1733SOL    HW2 6704   3.261   4.484   0.814  0.2244  0.9646  1.6985
 1733SOL    HW3 6705   3.268   4.334   0.799 -3.5597  0.8858 -0.4465
 1733SOL    MW4 6706   3.277   4.405   0.848 -0.1900  0.2048  0.1924
 1734SOL     OW 6707   5.421   3.775   5.182 -0.7770  0.5998  0.1585
 1734SOL    HW2 6708   5.403   3.719   5.106  1.6908  0.9681 -0.7872
 1734SOL    HW3 6709   5.389   3.861   5.156  1.1035  0.9920 -1.0002
 1734SOL    MW4 6710   5.414   3.779   5.168 -0.2033  0.7001 -0.1192
 1735SOL     OW 6711   4.482   1.160   5.293 -1.0449  0.0044  0.0205
 1735SOL    HW2 6712   4.397   1.117   5.284 -0.9837 -0.3773  1.1403
 1735SOL    HW3 6713   4.505   1.149   5.385 -0.2740  1.0441 -0.0334
 1735SOL    MW4 6714   4.474   1.153   5.304 -0.9351  0.0912  0.1611
 1736SOL     OW 6715   2.002   3.470   3.033 -0.0222 -0.1106 -0.1946
 1736SOL    HW2 6716   2.038   3.420   3.106 -0.1384  1.4522  0.9909
 1736SOL    HW3 6717   1.955   3.543   3.075 -1.9557 -0.3699 -1.7583
 1736SOL    MW4 6718   2.000   3.473   3.049 -0.2927  0.0614 -0.2445
 1737SOL     OW 6719   2.288   1.766   5.698  0.2524  0.2251  0.0171
 1737SOL    HW2 6720   2.262   1.857   5.714  3.7572  1.3176  0.4659
 1737SOL    HW3 6721   2.278   1.755   5.603 -1.4634  0.5716  0.1261
 1737SOL    MW4 6722   2.284   1.777   5.688  0.4884  0.4149  0.0907
 1738SOL     OW 6723   3.119   0.802   2.553  0.0339 -0.3166  0.2714
 1738SOL    HW2 6724   3.132   0.788   2.647 -0.5717  1.7532  0.7122
 1738SOL    HW3 6725   3.030   0.837   2.546 -0.6585 -2.2239 -1.3107
 1738SOL    MW4 6726   3.109   0.805   2.565 -0.1374 -0.2952  0.1208
 1739SOL     OW 6727   5.847   0.336   5.796 -0.2422 -0.2532 -0.3731
 1739SOL    HW2 6728   5.793   0.282   5.854  1.1960 -3.9529 -2.1799
 1739SOL    HW3 6729   5.924   0.358   5.848 -0.8169  0.0862  0.3613
 1739SOL    MW4 6730   5.850   0.332   5.811 -0.1283 -0.6966 -0.5146
 1740SOL     OW 6731   5.079   0.609   4.697 -0.1618  0.4330 -0.4212
 1740SOL    HW2 6732   5.115   0.546   4.636  0.9164  1.1961 -0.6023
 1740SOL    HW3 6733   5.045   0.680   4.642  1.7589  1.6254 -0.1753
 1740SOL    MW4 6734   5.079   0.610   4.682  0.2339  0.6910 -0.4126
 1741SOL     OW 6735   3.325   1.736   5.223 -0.3518 -0.3379  0.1312
 1741SOL    HW2 6736   3.320   1.683   5.143 -0.8779 -0.0360 -0.0432
 1741SOL    HW3 6737   3.365   1.678   5.288  0.8854 -0.3088 -0.5791
 1741SOL    MW4 6738   3.330   1.721   5.221 -0.2580 -0.2942  0.0144
 1742SOL     OW 6739   5.909   0.576   2.697  0.0314  0.1691  0.0677
 1742SOL    HW2 6740   5.957   0.626   2.763  3.2970 -0.3371 -1.7177
 1742SOL    HW3 6741   5.824   0.621   2.690  0.7583  2.0912  2.3365
 1742SOL    MW4 6742   5.904   0.589   2.705  0.5582  0.3559  0.1315
 1743SOL     OW 6743   3.976   3.194   5.093  0.0631  0.0663 -0.3086
 1743SOL    HW2 6744   3.915   3.121   5.104 -1.9693  1.7271  0.0646
 1743SOL    HW3 6745   4.014   3.206   5.180 -0.5244  0.2050 -0.0635
 1743SOL    MW4 6746   3.973   3.186   5.106 -0.2825  0.3037 -0.2270
 1744SOL     OW 6747   3.801   0.154   2.495  0.0158 -0.0445 -0.1939
 1744SOL    HW2 6748   3.760   0.141   2.410  1.0617  1.5363 -0.9835
 1744SOL    HW3 6749   3.895   0.139   2.480  0.1610 -0.2124  0.7859
 1744SOL    MW4 6750   3.808   0.150   2.482  0.1730  0.1419 -0.1688
 1745SOL     OW 6751   4.943   0.677   5.499 -0.0972 -0.3539 -0.4999
 1745SOL    HW2 6752   4.929   0.766   5.466  0.7022 -0.1342 -0.2639
 1745SOL    HW3 6753   5.003   0.638   5.437 -0.7490 -0.8657 -0.8154
 1745SOL    MW4 6754   4.949   0.684   5.487 -0.0777 -0.3924 -0.5104
 1746SOL     OW 6755   2.303   5.358   1.268  0.2416 -0.3949 -0.2922
 1746SOL    HW2 6756   2.334   5.304   1.195  2.9079 -0.9484  1.1147
 1746SOL    HW3 6757   2.264   5.295   1.329  0.8470 -0.3844  0.1166
 1746SOL    MW4 6758   2.302   5.342   1.266  0.6732 -0.4665 -0.0526
 1747SOL     OW 6759   2.986   3.874   5.572 -0.1831  0.1495 -0.2548
 1747SOL    HW2 6760   3.035   3.918   5.641 -0.7770  0.0570  0.2395
 1747SOL    HW3 6761   2.952   3.945   5.518  0.1670  0.2281 -0.3737
 1747SOL    MW4 6762   2.988   3.889   5.574 -0.2153  0.1477 -0.2053
 1748SOL     OW 6763   6.241   3.409   0.723 -0.8841  0.4373  0.4461
 1748SOL    HW2 6764   6.238   3.366   0.808  4.1727 -1.4197  0.0127
 1748SOL    HW3 6765   6.213   3.341   0.661  3.2333 -1.2284  0.1313
 1748SOL    MW4 6766   6.237   3.395   0.726  0.3263 -0.0275  0.3474
 1749SOL     OW 6767   3.809   5.156   2.025 -0.0194 -0.4618  0.4803
 1749SOL    HW2 6768   3.781   5.101   2.097 -0.3846  2.0372  2.3913
 1749SOL    HW3 6769   3.761   5.123   1.949 -2.9686 -0.6120  2.2634
 1749SOL    MW4 6770   3.799   5.145   2.024 -0.4567 -0.1519  0.9677
 1750SOL     OW 6771   1.706   3.861   3.202 -0.1225 -0.4039 -0.0718
 1750SOL    HW2 6772   1.649   3.879   3.127  0.2769  2.3403  0.1727
 1750SOL    HW3 6773   1.648   3.822   3.267 -1.3375  0.6937 -0.4622
 1750SOL    MW4 6774   1.691   3.858   3.201 -0.2301  0.1030 -0.0910
 1751SOL     OW 6775   1.550   2.422   2.384  0.8354 -0.0082  0.1973
 1751SOL    HW2 6776   1.556   2.516   2.369  2.0932  0.0505  0.9107
 1751SOL    HW3 6777   1.513   2.414   2.472 -0.1555 -0.2187 -0.2204
 1751SOL    MW4 6778   1.546   2.433   2.394  0.8706 -0.0282  0.2363
 1752SOL     OW 6779   6.270   3.178   5.985 -0.1042  0.0863  0.1719
 1752SOL    HW2 6780   6.350   3.217   5.950 -0.2276  1.6203  1.4402
 1752SOL    HW3 6781   6.222   3.147   5.909  0.1172  2.2999 -0.9463
 1752SOL    MW4 6782   6.274   3.179   5.971 -0.0913  0.5808  0.1917
 1753SOL     OW 6783   5.907   1.631   0.821  0.0615 -0.4412 -0.2266
 1753SOL    HW2 6784   5.928   1.648   0.730 -2.3307 -0.9930 -0.9625
 1753SOL    HW3 6785   5.985   1.657   0.870  0.8762  1.2446 -2.2884
 1753SOL    MW4 6786   5.920   1.637   0.816 -0.1466 -0.2916 -0.5957
 1754SOL     OW 6787   5.258   2.304   1.695  0.4516  0.6559  0.0347
 1754SOL    HW2 6788   5.269   2.355   1.615  0.2744 -0.4470 -0.7055
 1754SOL    HW3 6789   5.347   2.297   1.731  0.4599  1.5834  0.2233
 1754SOL    MW4 6790   5.271   2.310   1.689  0.4293  0.6328 -0.0381
 1755SOL     OW 6791   5.999   1.114   3.063  0.2681  0.2583 -0.0247
 1755SOL    HW2 6792   5.976   1.142   3.152 -0.0230  1.3285 -0.4141
 1755SOL    HW3 6793   5.957   1.029   3.052  0.0347  0.2712  0.7475
 1755SOL    MW4 6794   5.990   1.107   3.073  0.1989  0.4012  0.0258
 1756SOL     OW 6795   1.576   6.376   4.471 -0.0666  0.1159 -0.4047
 1756SOL    HW2 6796   1.662   6.376   4.513  1.0796  1.1622 -2.5623
 1756SOL    HW3 6797   1.595   6.390   4.378 -2.6858  3.3845 -0.6355
 1756SOL    MW4 6798   1.590   6.378   4.464 -0.2609  0.6852 -0.7198
 1757SOL     OW 6799   2.084   5.775   2.847 -0.0429 -0.4380  0.8061
 1757SOL    HW2 6800   2.018   5.791   2.780  1.4108  0.7920 -0.3759
 1757SOL    HW3 6801   2.149   5.719   2.804  0.8120  0.2047  1.2412
 1757SOL    MW4 6802   2.084   5.770   2.833  0.2617 -0.1909  0.7075
 1758SOL     OW 6803   6.376   2.788   4.827 -0.0979 -0.4770 -0.1570
 1758SOL    HW2 6804   6.351   2.877   4.800  1.8573 -0.1097 -0.9522
 1758SOL    HW3 6805   6.319   2.731   4.776 -1.7578  0.3043  0.7705
 1758SOL    MW4 6806   6.365   2.792   4.817 -0.0589 -0.3255 -0.1396
 1759SOL     OW 6807   3.229   4.601   5.455  0.0301  0.1653  0.0308
 1759SOL    HW2 6808   3.317   4.580   5.485 -0.6873 -0.5757  1.7235
 1759SOL    HW3 6809   3.238   4.686   5.412  1.3604  0.6807  1.2409
 1759SOL    MW4 6810   3.242   4.609   5.453  0.1110  0.1356  0.4138
 1760SOL     OW 6811   5.612   4.558   3.315 -0.4508 -0.2597  0.0516
 1760SOL    HW2 6812   5.634   4.592   3.402  3.1581 -1.2293 -0.3003
 1760SOL    HW3 6813   5.648   4.623   3.255  0.7482 -1.5188 -0.6422
 1760SOL    MW4 6814   5.620   4.571   3.319  0.1836 -0.5538 -0.0864
 1761SOL     OW 6815   3.409   5.364   2.012 -0.0022 -0.5782  0.4495
 1761SOL    HW2 6816   3.502   5.383   2.023  0.1822 -2.1009  1.9140
 1761SOL    HW3 6817   3.365   5.431   2.064  0.2460  0.2136 -0.3334
 1761SOL    MW4 6818   3.416   5.375   2.020  0.0549 -0.6746  0.5394
 1762SOL     OW 6819   0.598   4.781   3.107 -0.5123  0.7178 -0.0084
 1762SOL    HW2 6820   0.542   4.717   3.149  0.3423 -1.3905 -1.9028
 1762SOL    HW3 6821   0.551   4.808   3.028  0.3127  0.2799 -0.6748
 1762SOL    MW4 6822   0.585   4.776   3.102 -0.2907  0.3819 -0.3463
 1763SOL     OW 6823   2.654   1.736   3.271  0.0595 -0.6685 -0.1432
 1763SOL    HW2 6824   2.597   1.739   3.347 -0.5114 -2.2211 -0.4721
 1763SOL    HW3 6825   2.639   1.650   3.233  2.9657 -1.3728  0.0223
 1763SOL    MW4 6826   2.645   1.725   3.276  0.3676 -0.9662 -0.1647
 1764SOL     OW 6827   5.869   5.204   5.327  0.3983 -0.4663  0.1323
 1764SOL    HW2 6828   5.942   5.198   5.389  1.4237 -1.3289 -1.1008
 1764SOL    HW3 6829   5.902   5.162   5.247 -1.0184  0.2595 -0.8769
 1764SOL    MW4 6830   5.883   5.198   5.324  0.3467 -0.4843 -0.1636
 1765SOL     OW 6831   5.142   4.443   3.645  0.4858 -0.0372 -0.1472
 1765SOL    HW2 6832   5.225   4.489   3.635  0.9861 -0.9845 -0.3896
 1765SOL    HW3 6833   5.139   4.381   3.572 -0.5797  0.1960 -0.3228
 1765SOL    MW4 6834   5.152   4.441   3.634  0.4112 -0.1314 -0.2023
 1766SOL     OW 6835   5.381   0.270   1.588  0.0356 -0.1189  0.3633
 1766SOL    HW2 6836   5.304   0.244   1.637 -0.1932 -2.8947 -1.2674
 1766SOL    HW3 6837   5.351   0.277   1.497  1.3064  0.6066 -0.0380
 1766SOL    MW4 6838   5.367   0.268   1.582  0.1731 -0.3894  0.0952
 1767SOL     OW 6839   2.030   2.197   2.591  0.4208  0.2884  0.2904
 1767SOL    HW2 6840   1.935   2.182   2.585  0.3779  0.8336 -0.3992
 1767SOL    HW3 6841   2.064   2.175   2.504  0.9957 -0.3423  0.6645
 1767SOL    MW4 6842   2.022   2.192   2.579  0.4910  0.2771  0.2488
 1768SOL     OW 6843   1.426   4.069   1.413 -0.1220  0.6549  0.2543
 1768SOL    HW2 6844   1.354   4.036   1.359 -1.1233  0.0159  1.9211
 1768SOL    HW3 6845   1.502   4.066   1.355 -1.1515  0.0371 -1.1296
 1768SOL    MW4 6846   1.426   4.064   1.398 -0.3899  0.4891  0.2916
 1769SOL     OW 6847   1.340   1.849   5.244  0.3462 -0.0727  0.0792
 1769SOL    HW2 6848   1.262   1.852   5.189 -0.4627 -0.5512  1.1852
 1769SOL    HW3 6849   1.350   1.756   5.265  1.4370 -0.0725 -0.3365
 1769SOL    MW4 6850   1.331   1.837   5.239  0.3834 -0.1358  0.1703
 1770SOL     OW 6851   4.708   3.818   1.903 -0.0967  0.0708  0.1964
 1770SOL    HW2 6852   4.716   3.801   1.809  1.4601 -1.5594  0.5712
 1770SOL    HW3 6853   4.698   3.732   1.943 -0.3672  0.7062  1.5849
 1770SOL    MW4 6854   4.708   3.805   1.896  0.0730 -0.0604  0.4290
 1771SOL     OW 6855   0.140   2.153   5.291 -0.5168  0.0921  0.4041
 1771SOL    HW2 6856   0.143   2.227   5.230 -0.0474  0.7418  1.2033
 1771SOL    HW3 6857   0.221   2.160   5.342  0.9838 -2.5716 -1.3197
 1771SOL    MW4 6858   0.151   2.163   5.290 -0.2569 -0.1736  0.2821
 1772SOL     OW 6859   1.229   3.306   4.969 -0.0765  0.5549  0.1805
 1772SOL    HW2 6860   1.212   3.230   4.912 -0.2039  0.1243  0.7876
 1772SOL    HW3 6861   1.151   3.313   5.023  0.6431  0.0584  1.3157
 1772SOL    MW4 6862   1.217   3.297   4.968  0.0017  0.4326  0.4103
 1773SOL     OW 6863   1.238   3.829   0.494 -0.4436  0.1636 -0.4269
 1773SOL    HW2 6864   1.162   3.789   0.536  0.2773 -0.2779  0.5075
 1773SOL    HW3 6865   1.220   3.824   0.400 -0.9687 -1.1353 -0.2657
 1773SOL    MW4 6866   1.226   3.823   0.487 -0.4177 -0.0660 -0.2824
 1774SOL     OW 6867   5.874   0.965   3.929  0.1667  0.5473 -0.3447
 1774SOL    HW2 6868   5.896   0.981   4.020  0.7203  2.1064 -0.7161
 1774SOL    HW3 6869   5.941   0.905   3.897  1.5590  2.0640 -0.3924
 1774SOL    MW4 6870   5.886   0.959   3.937  0.4234  0.9531 -0.4000
 1775SOL     OW 6871   4.167   4.699   1.498 -0.7816 -0.0574  0.1938
 1775SOL    HW2 6872   4.080   4.671   1.468 -0.0423 -1.9113 -0.3231
 1775SOL    HW3 6873   4.203   4.746   1.423 -0.4565 -1.3230 -0.4727
 1775SOL    MW4 6874   4.160   4.702   1.484 -0.6411 -0.4690  0.0377
 1776SOL     OW 6875   6.307   5.802   0.165 -0.4967  0.5804  0.1071
 1776SOL    HW2 6876   6.391   5.769   0.198  0.1496 -1.9404 -3.4902
 1776SOL    HW3 6877   6.242   5.757   0.218  0.4825 -2.1591 -0.8528
 1776SOL    MW4 6878   6.310   5.792   0.177 -0.2822 -0.1136 -0.4942
 1777SOL     OW 6879   5.466   4.035   0.347  0.2946  0.0063  0.2137
 1777SOL    HW2 6880   5.542   4.071   0.393  0.7768 -0.0746 -0.4971
 1777SOL    HW3 6881   5.464   4.081   0.263  0.2987 -0.8663 -0.2825
 1777SOL    MW4 6882   5.476   4.046   0.342  0.3588 -0.1195  0.0544
 1778SOL     OW 6883   1.518   1.426   0.096 -0.6025 -0.5851  0.4142
 1778SOL    HW2 6884   1.546   1.508   0.055  0.1132  0.1545  2.2670
 1778SOL    HW3 6885   1.440   1.401   0.048 -0.9482  1.2922 -0.1010
 1778SOL    MW4 6886   1.512   1.434   0.084 -0.5537 -0.2398  0.5907
 1779SOL     OW 6887   3.885   2.425   1.028 -0.0117  0.1799 -0.1760
 1779SOL    HW2 6888   3.903   2.398   0.938 -1.6258 -1.9013  0.0757
 1779SOL    HW3 6889   3.838   2.508   1.019  0.9173  0.6330 -1.1645
 1779SOL    MW4 6890   3.881   2.432   1.015 -0.1021 -0.0349 -0.2732
 1780SOL     OW 6891   0.114   0.426   2.201 -0.1707 -0.2484 -0.0563
 1780SOL    HW2 6892   0.090   0.387   2.117  0.6483 -0.0687 -0.3871
 1780SOL    HW3 6893   0.125   0.351   2.260  0.2594 -0.4540 -0.3876
 1780SOL    MW4 6894   0.113   0.411   2.198 -0.0059 -0.2518 -0.1437
 1781SOL     OW 6895   3.773   5.401   0.903  0.1023 -0.4017  0.0693
 1781SOL    HW2 6896   3.747   5.429   0.815 -0.4707 -0.9027  0.0717
 1781SOL    HW3 6897   3.794   5.482   0.949 -0.3527 -0.0762 -0.2914
 1781SOL    MW4 6898   3.772   5.415   0.898 -0.0334 -0.4248  0.0221
 1782SOL     OW 6899   6.068   1.379   5.925  0.4769 -0.0214  0.4079
 1782SOL    HW2 6900   6.081   1.284   5.928  2.0860  0.1112 -0.8084
 1782SOL    HW3 6901   6.135   1.413   5.985  1.6259  0.4319 -1.0857
 1782SOL    MW4 6902   6.079   1.371   5.933  0.8408  0.0559  0.0504
 1783SOL     OW 6903   5.464   0.763   2.949 -0.1999 -0.1502  0.2841
 1783SOL    HW2 6904   5.504   0.685   2.911 -2.7344 -1.5778  0.3788
 1783SOL    HW3 6905   5.481   0.756   3.043  1.0358  0.3385  0.1130
 1783SOL    MW4 6906   5.472   0.752   2.956 -0.3712 -0.2741  0.2740
 1784SOL     OW 6907   4.268   5.203   2.649  0.2038  0.2760  0.3770
 1784SOL    HW2 6908   4.186   5.247   2.672 -0.2991 -0.1534 -0.5244
 1784SOL    HW3 6909   4.327   5.274   2.625 -0.1031  0.5588  0.4456
 1784SOL    MW4 6910   4.265   5.218   2.649  0.0970  0.2567  0.2671
 1785SOL     OW 6911   6.329   0.538   1.687  0.0861  0.3817 -0.0019
 1785SOL    HW2 6912   6.253   0.577   1.730  0.8647  1.7305  0.2115
 1785SOL    HW3 6913   6.396   0.607   1.689  0.2790  0.4072 -3.0862
 1785SOL    MW4 6914   6.328   0.553   1.693  0.2143  0.5630 -0.3807
 1786SOL     OW 6915   1.766   2.531   5.941 -0.3735 -0.0280  0.2610
 1786SOL    HW2 6916   1.857   2.508   5.959 -1.1666 -1.8144  2.6257
 1786SOL    HW3 6917   1.722   2.446   5.935 -2.2355  0.7831  1.5312
 1786SOL    MW4 6918   1.772   2.516   5.943 -0.7238 -0.1567  0.7406
 1787SOL     OW 6919   0.765   1.744   1.447 -0.3162 -0.3170 -0.1514
 1787SOL    HW2 6920   0.735   1.820   1.397  0.3963 -0.8378 -1.4179
 1787SOL    HW3 6921   0.778   1.675   1.381 -1.8869 -1.8675  1.0756
 1787SOL    MW4 6922   0.763   1.745   1.431 -0.4294 -0.5903 -0.1566
 1788SOL     OW 6923   1.490   2.778   6.340  0.4174  0.0071 -0.2639
 1788SOL    HW2 6924   1.493   2.768   6.245  2.6621  0.3797 -0.2882
 1788SOL    HW3 6925   1.398   2.767   6.363 -0.4639  1.6641 -2.6556
 1788SOL    MW4 6926   1.478   2.775   6.331  0.5973  0.2749 -0.5827
 1789SOL     OW 6927   1.410   2.485   0.609 -0.0284 -0.0440 -0.7846
 1789SOL    HW2 6928   1.396   2.399   0.569 -0.4811 -1.0399  1.3644
 1789SOL    HW3 6929   1.487   2.474   0.664 -0.3784  0.7593 -0.1000
 1789SOL    MW4 6930   1.418   2.473   0.611 -0.1343 -0.0694 -0.4108
 1790SOL     OW 6931   1.621   4.878   5.620  0.0271  0.1131  0.0098
 1790SOL    HW2 6932   1.622   4.821   5.697 -1.6167  0.5742  0.4178
 1790SOL    HW3 6933   1.633   4.966   5.656  0.1274  0.2463 -0.3495
 1790SOL    MW4 6934   1.622   4.882   5.635 -0.1766  0.1915  0.0162
 1791SOL     OW 6935   2.566   5.732   2.129  0.2157 -0.0562 -0.2187
 1791SOL    HW2 6936   2.531   5.743   2.041 -1.8681 -0.5073  0.4925
 1791SOL    HW3 6937   2.530   5.649   2.159 -0.9036  1.0745  1.8006
 1791SOL    MW4 6938   2.557   5.723   2.122 -0.2069  0.0335  0.1416
 1792SOL     OW 6939   3.938   5.252   2.645 -0.3677  0.6590 -0.7637
 1792SOL    HW2 6940   3.872   5.316   2.669 -2.4810 -0.9972 -1.7768
 1792SOL    HW3 6941   3.941   5.255   2.549  1.0706  0.7132 -0.7357
 1792SOL    MW4 6942   3.930   5.261   2.636 -0.4568  0.4477 -0.8937
 1793SOL     OW 6943   4.587   1.596   2.319 -0.6063  1.4690 -0.5786
 1793SOL    HW2 6944   4.531   1.596   2.241 -4.7724 -0.1700  2.0540
 1793SOL    HW3 6945   4.555   1.670   2.371  0.0250  0.7827  0.8243
 1793SOL    MW4 6946   4.575   1.606   2.316 -1.0727  1.1622 -0.0462
 1794SOL     OW 6947   5.797   2.455   2.029 -0.3367  0.0369  0.4726
 1794SOL    HW2 6948   5.795   2.365   1.996  0.2723  0.4339 -0.7096
 1794SOL    HW3 6949   5.754   2.506   1.961  0.4513  0.8137  0.5520
 1794SOL    MW4 6950   5.791   2.450   2.016 -0.1524  0.1917  0.3271
 1795SOL     OW 6951   0.788   0.039   3.516 -0.3530  0.1110  0.1254
 1795SOL    HW2 6952   0.780  -0.003   3.602  0.5966  1.3115  0.8284
 1795SOL    HW3 6953   0.808  -0.034   3.456 -0.1113 -0.6258  1.0719
 1795SOL    MW4 6954   0.790   0.024   3.519 -0.1958  0.1722  0.3431
 1796SOL     OW 6955   0.860   3.600   3.404 -0.1182  0.1498 -0.2024
 1796SOL    HW2 6956   0.807   3.673   3.437  0.7849 -0.1125  1.9972
 1796SOL    HW3 6957   0.801   3.553   3.345 -1.5132  1.2770  0.2199
 1796SOL    MW4 6958   0.845   3.603   3.401 -0.1831  0.2639  0.1435
 1797SOL     OW 6959   2.323   2.986   6.089 -0.0277  0.6315  0.3838
 1797SOL    HW2 6960   2.372   3.055   6.135  0.2828 -0.0444  1.0902
 1797SOL    HW3 6961   2.384   2.955   6.021  0.5188 -0.1533  1.2104
 1797SOL    MW4 6962   2.338   2.991   6.086  0.0854  0.4388  0.5861
 1798SOL     OW 6963   0.632   1.234   1.671 -0.1500 -0.5207 -0.1955
 1798SOL    HW2 6964   0.595   1.237   1.759 -0.6182 -0.7677 -0.3828
 1798SOL    HW3 6965   0.567   1.187   1.618  0.6394 -1.3799 -0.4314
 1798SOL    MW4 6966   0.619   1.229   1.675 -0.1076 -0.6666 -0.2514
 1799SOL     OW 6967   0.676   4.974   0.651  0.4307 -0.5968  0.4343
 1799SOL    HW2 6968   0.727   4.952   0.574 -0.0878  0.2146 -0.1602
 1799SOL    HW3 6969   0.719   5.051   0.688  1.1989 -1.5063  1.4780
 1799SOL    MW4 6970   0.688   4.981   0.646  0.4637 -0.6097  0.4936
 1800SOL     OW 6971   3.117   6.092   0.020 -0.4368 -0.2092  0.2687
 1800SOL    HW2 6972   3.155   6.146  -0.049  0.9825  0.2340  1.3350
 1800SOL    HW3 6973   3.117   6.003  -0.016  0.1917  0.0287 -0.3319
 1800SOL    MW4 6974   3.122   6.088   0.006 -0.1666 -0.1194  0.3301
 1801SOL     OW 6975   3.231   5.136   0.401  0.2034 -0.3161  0.4072
 1801SOL    HW2 6976   3.145   5.107   0.370 -0.6771  1.3732  1.1286
 1801SOL    HW3 6977   3.282   5.149   0.321 -1.0722  1.1282 -0.2297
 1801SOL    MW4 6978   3.227   5.134   0.386 -0.0811  0.0973  0.4183
 1802SOL     OW 6979   4.975   5.202   4.792  0.0224 -0.0804 -0.1478
 1802SOL    HW2 6980   4.908   5.210   4.859 -0.6777  0.0058 -0.8352
 1802SOL    HW3 6981   5.009   5.112   4.802  0.9118  0.3775  1.1931
 1802SOL    MW4 6982   4.971   5.191   4.802  0.0474 -0.0087 -0.0616
 1803SOL     OW 6983   0.485   2.997   4.476 -0.5703  0.2353  0.7160
 1803SOL    HW2 6984   0.530   3.075   4.444 -1.1005 -0.0197 -0.7057
 1803SOL    HW3 6985   0.397   3.005   4.441 -0.2979 -1.5871 -0.4910
 1803SOL    MW4 6986   0.480   3.009   4.467 -0.6043 -0.0388  0.3692
 1804SOL     OW 6987   3.014   2.190   6.336  0.1193 -0.4723  0.5239
 1804SOL    HW2 6988   3.019   2.250   6.410 -1.0872 -0.5965  0.7377
 1804SOL    HW3 6989   3.079   2.122   6.356 -0.1577 -0.4791  1.4539
 1804SOL    MW4 6990   3.023   2.189   6.348 -0.0765 -0.4896  0.6748
 1805SOL     OW 6991   5.205   3.693   0.056  0.3477 -0.1238 -0.0086
 1805SOL    HW2 6992   5.112   3.677   0.037  0.6213 -1.4422 -0.3780
 1805SOL    HW3 6993   5.244   3.710  -0.030  0.5168  0.0629  0.1045
 1805SOL    MW4 6994   5.198   3.693   0.042  0.4061 -0.2731 -0.0424
 1806SOL     OW 6995   4.670   3.837   4.396  0.2437 -0.1324  0.4748
 1806SOL    HW2 6996   4.595   3.856   4.452  0.6091 -0.6071  1.1385
 1806SOL    HW3 6997   4.636   3.847   4.307 -0.9331 -1.4478  0.7278
 1806SOL    MW4 6998   4.655   3.841   4.392  0.1367 -0.3686  0.5958
 1807SOL     OW 6999   3.014   3.947   5.071  0.2817 -0.4645 -0.1861
 1807SOL    HW2 7000   3.066   3.869   5.091 -1.0133 -1.2309  0.3626
 1807SOL    HW3 7001   3.057   4.018   5.120  2.6150 -0.3602 -2.2069
 1807SOL    MW4 7002   3.027   3.946   5.080  0.4187 -0.5519 -0.3803
 1808SOL     OW 7003   5.879   4.614   2.924  0.0710 -0.1035 -0.1338
 1808SOL    HW2 7004   5.817   4.645   2.858  1.2678  1.4673 -0.5573
 1808SOL    HW3 7005   5.923   4.693   2.955 -0.6119 -0.7265  2.7791
 1808SOL    MW4 7006   5.876   4.628   2.920  0.1388  0.0216  0.1946
 1809SOL     OW 7007   5.773   2.986   6.376 -0.6125  0.0676  0.2344
 1809SOL    HW2 7008   5.818   2.903   6.361 -0.6494 -0.0300  0.6546
 1809SOL    HW3 7009   5.812   3.047   6.313 -0.9442 -0.3956 -0.4361
 1809SOL    MW4 7010   5.784   2.983   6.366 -0.6611 -0.0064  0.2013
 1810SOL     OW 7011   2.746   5.027   6.152 -0.2389  0.2226 -0.1327
 1810SOL    HW2 7012   2.821   5.016   6.211 -1.3299  1.3586  1.5473
 1810SOL    HW3 7013   2.770   5.101   6.097 -0.6516  1.5225  1.3611
 1810SOL    MW4 7014   2.759   5.035   6.152 -0.4373  0.5440  0.2861
 1811SOL     OW 7015   1.702   1.614   5.219  0.2774  0.3957 -0.3293
 1811SOL    HW2 7016   1.649   1.535   5.226 -0.0319  0.5999 -0.3825
 1811SOL    HW3 7017   1.681   1.664   5.298  0.4095  0.4671 -0.3380
 1811SOL    MW4 7018   1.693   1.610   5.231  0.2540  0.4320 -0.3375
 1812SOL     OW 7019   0.767   2.089   6.083  0.0874 -0.1686 -0.1936
 1812SOL    HW2 7020   0.810   2.093   6.168 -2.2658 -0.9808  1.1213
 1812SOL    HW3 7021   0.830   2.043   6.027  2.0488  1.1507  0.7967
 1812SOL    MW4 7022   0.781   2.083   6.087  0.0357 -0.1017  0.1105
 1813SOL     OW 7023   3.952   4.421   2.771 -0.5297  0.3425 -0.1376
 1813SOL    HW2 7024   3.931   4.503   2.725 -0.5202 -0.1264 -1.0137
 1813SOL    HW3 7025   3.868   4.375   2.774 -0.1576 -0.4625 -1.4265
 1813SOL    MW4 7026   3.938   4.426   2.765 -0.4793  0.1744 -0.4232
 1814SOL     OW 7027   5.504   2.282   1.813 -0.0130 -0.5887  0.6726
 1814SOL    HW2 7028   5.588   2.238   1.827  0.9311  0.8721 -0.1434
 1814SOL    HW3 7029   5.525   2.356   1.756 -1.4309  1.2072  2.3509
 1814SOL    MW4 7030   5.518   2.286   1.807 -0.0755 -0.1590  0.7864
 1815SOL     OW 7031   4.321   4.772   2.320  0.2207 -0.0303 -0.2848
 1815SOL    HW2 7032   4.416   4.776   2.321  0.2782  1.8396 -2.8234
 1815SOL    HW3 7033   4.298   4.718   2.396  3.4226 -4.0944 -1.8458
 1815SOL    MW4 7034   4.330   4.765   2.330  0.6508 -0.3198 -0.8257
 1816SOL     OW 7035   3.640   0.600   1.899 -0.1827 -0.1646  0.3264
 1816SOL    HW2 7036   3.586   0.612   1.977 -0.9032 -0.4472 -0.1073
 1816SOL    HW3 7037   3.579   0.613   1.826  0.0781 -1.6042 -0.1784
 1816SOL    MW4 7038   3.625   0.604   1.899 -0.2434 -0.3918  0.2026
 1817SOL     OW 7039   4.132   0.489   3.959 -0.9522 -0.5556 -0.2494
 1817SOL    HW2 7040   4.194   0.562   3.950 -0.4198 -1.1201 -1.3124
 1817SOL    HW3 7041   4.051   0.530   3.990 -0.1070  0.2252  1.0235
 1817SOL    MW4 7042   4.130   0.504   3.962 -0.7705 -0.5271 -0.2217
 1818SOL     OW 7043   1.537   5.131   4.495  0.5590  0.1910 -0.0378
 1818SOL    HW2 7044   1.521   5.222   4.469 -0.5234  0.1026  0.2826
 1818SOL    HW3 7045   1.456   5.104   4.539  1.0844 -0.7456  0.3822
 1818SOL    MW4 7046   1.525   5.140   4.498  0.4855  0.0558  0.0599
 1819SOL     OW 7047   1.935   0.540   0.215 -0.1718 -0.0451 -0.5134
 1819SOL    HW2 7048   2.023   0.564   0.244 -0.1313 -0.1015 -0.5880
 1819SOL    HW3 7049   1.913   0.462   0.266 -0.1271 -0.1060 -0.5877
 1819SOL    MW4 7050   1.944   0.533   0.226 -0.1606 -0.0606 -0.5331
 1820SOL     OW 7051   2.316   1.058   2.256  0.1374 -0.4353  0.0221
 1820SOL    HW2 7052   2.318   1.034   2.163  0.5386 -1.4600  0.2738
 1820SOL    HW3 7053   2.228   1.033   2.285 -0.1140  0.2212 -0.1548
 1820SOL    MW4 7054   2.305   1.051   2.247  0.1572 -0.4839  0.0320
 1821SOL     OW 7055   2.893   4.610   3.474 -0.1395  0.0724  0.1055
 1821SOL    HW2 7056   2.845   4.622   3.556  0.0332  0.7158  0.1167
 1821SOL    HW3 7057   2.951   4.686   3.469  0.6688 -0.5533 -0.0545
 1821SOL    MW4 7058   2.894   4.622   3.484 -0.0101  0.0747  0.0859
 1822SOL     OW 7059   5.746   6.245   4.067  0.4088 -0.1869 -0.2144
 1822SOL    HW2 7060   5.691   6.216   4.141  0.9230  0.8838  0.6083
 1822SOL    HW3 7061   5.719   6.188   3.994 -2.6132  1.0126 -0.1745
 1822SOL    MW4 7062   5.735   6.233   4.067  0.0779  0.1126 -0.1006
 1823SOL     OW 7063   5.202   5.485   2.411  0.0345  0.6357  0.3904
 1823SOL    HW2 7064   5.188   5.420   2.480 -1.1655  2.2824  1.8061
 1823SOL    HW3 7065   5.187   5.438   2.330 -2.3638 -0.5547  1.4083
 1823SOL    MW4 7066   5.198   5.470   2.410 -0.4403  0.6959  0.7115
 1824SOL     OW 7067   2.463   0.639   3.243  0.1334 -0.3778 -0.6863
 1824SOL    HW2 7068   2.384   0.586   3.254 -0.2580  0.0907 -1.1870
 1824SOL    HW3 7069   2.534   0.575   3.233 -0.0641 -0.8045  0.4745
 1824SOL    MW4 7070   2.462   0.624   3.243  0.0557 -0.3723 -0.5992
 1825SOL     OW 7071   3.685   3.027   4.546 -0.2356 -0.3160 -0.0953
 1825SOL    HW2 7072   3.687   3.123   4.548  0.9653 -0.2620 -1.8017
 1825SOL    HW3 7073   3.657   3.005   4.458 -0.7852 -1.5572  0.3678
 1825SOL    MW4 7074   3.682   3.037   4.535 -0.1497 -0.4727 -0.2594
 1826SOL     OW 7075   0.245   0.876   6.084  0.0416 -0.2067  0.2779
 1826SOL    HW2 7076   0.289   0.940   6.140 -0.8208  2.2339 -1.6582
 1826SOL    HW3 7077   0.251   0.912   5.996 -1.7124 -2.1321 -0.7314
 1826SOL    MW4 7078   0.251   0.889   6.080 -0.3036 -0.1387 -0.1107
 1827SOL     OW 7079   5.405   3.640   4.466 -0.0560 -0.0843 -0.3652
 1827SOL    HW2 7080   5.492   3.680   4.469  1.8348 -3.7565 -0.0460
 1827SOL    HW3 7081   5.347   3.705   4.505  2.6443  2.2917  0.0039
 1827SOL    MW4 7082   5.409   3.654   4.472  0.5498 -0.2553 -0.2744
 1828SOL     OW 7083   2.143   1.967   0.808 -0.0796 -0.5032 -0.6463
 1828SOL    HW2 7084   2.162   1.875   0.789  1.8851 -0.0540 -1.0973
 1828SOL    HW3 7085   2.173   2.014   0.731 -0.8951  0.5514 -0.3440
 1828SOL    MW4 7086   2.149   1.961   0.795  0.0720 -0.3048 -0.6659
 1829SOL     OW 7087   1.460   5.010   5.280  0.3468 -0.2704  0.4829
 1829SOL    HW2 7088   1.506   5.048   5.355 -0.3959 -0.0736  0.8432
 1829SOL    HW3 7089   1.526   4.953   5.239  1.1709  0.6498  0.4931
 1829SOL    MW4 7090   1.475   5.008   5.284  0.3575 -0.1230  0.5318
 1830SOL     OW 7091   2.818   5.154   4.759 -0.0713  0.3548  0.3916
 1830SOL    HW2 7092   2.814   5.091   4.831  0.6847  3.0332  2.9480
 1830SOL    HW3 7093   2.727   5.176   4.740 -0.3240 -1.1388 -0.2916
 1830SOL    MW4 7094   2.805   5.148   4.766 -0.0049  0.5111  0.6388
 1831SOL     OW 7095   4.894   6.101   3.841 -0.0702  0.1767 -0.4135
 1831SOL    HW2 7096   4.927   6.142   3.762 -0.3245  0.0719 -0.5768
 1831SOL    HW3 7097   4.803   6.131   3.847 -0.3196 -0.5173 -0.6442
 1831SOL    MW4 7098   4.886   6.110   3.831 -0.1367  0.0713 -0.4655
 1832SOL     OW 7099   5.710   1.575   3.582 -0.2013 -0.1457 -0.1955
 1832SOL    HW2 7100   5.689   1.489   3.548 -1.5959 -0.1629  0.6498
 1832SOL    HW3 7101   5.701   1.567   3.677  2.1638  0.2822  0.1397
 1832SOL    MW4 7102   5.706   1.563   3.590 -0.0732 -0.0915 -0.0398
 1833SOL     OW 7103   5.769   6.069   3.820 -0.2854  0.0817 -0.1042
 1833SOL    HW2 7104   5.849   6.019   3.836 -0.0457  0.2131 -0.8716
 1833SOL    HW3 7105   5.703   6.003   3.801 -0.5815 -0.0829  1.3562
 1833SOL    MW4 7106   5.771   6.054   3.820 -0.2929  0.0773 -0.0128
 1834SOL     OW 7107   5.032   2.875   0.240  0.5687  0.1149  0.5097
 1834SOL    HW2 7108   5.026   2.971   0.233  0.3578  0.0129 -1.3204
 1834SOL    HW3 7109   4.975   2.843   0.171  2.8531 -1.2846 -0.8613
 1834SOL    MW4 7110   5.024   2.884   0.230  0.8423 -0.0832  0.0874
 1835SOL     OW 7111   0.820   4.879   6.016 -0.5890 -0.6685  0.0618
 1835SOL    HW2 7112   0.787   4.870   6.106  0.3431  0.0280  0.4930
 1835SOL    HW3 7113   0.852   4.969   6.012 -1.4341 -0.3999 -1.2604
 1835SOL    MW4 7114   0.820   4.890   6.028 -0.5775 -0.5412 -0.0557
 1836SOL     OW 7115   4.742   3.293   0.284 -0.3200 -0.1488  0.0970
 1836SOL    HW2 7116   4.726   3.382   0.254  1.7506  0.3325  0.2968
 1836SOL    HW3 7117   4.761   3.303   0.378  0.0595 -0.7758  0.0903
 1836SOL    MW4 7118   4.742   3.306   0.293  0.0033 -0.1681  0.1225
 1837SOL     OW 7119   5.268   4.532   5.930  0.0458 -0.3062 -0.8511
 1837SOL    HW2 7120   5.232   4.446   5.909  0.1816 -0.7286  0.5060
 1837SOL    HW3 7121   5.335   4.547   5.864  1.2637 -2.0720 -0.1097
 1837SOL    MW4 7122   5.272   4.523   5.919  0.2244 -0.5949 -0.5742
 1838SOL     OW 7123   3.516   0.396   0.702  0.1017 -0.2154  0.2484
 1838SOL    HW2 7124   3.451   0.385   0.633 -0.0468 -0.2984  0.4010
 1838SOL    HW3 7125   3.556   0.481   0.683 -1.6859  0.9821  1.4914
 1838SOL    MW4 7126   3.513   0.406   0.690 -0.1538 -0.0684  0.4326
 1839SOL     OW 7127   4.075   0.458   2.512 -0.2391 -0.0792  0.1486
 1839SOL    HW2 7128   3.980   0.450   2.513 -0.2154 -0.6642 -0.8578
 1839SOL    HW3 7129   4.101   0.428   2.425  1.1385 -3.1118  1.4634
 1839SOL    MW4 7130   4.066   0.453   2.501 -0.0542 -0.5565  0.1893
 1840SOL     OW 7131   2.821   5.889   5.994 -0.3679  0.0938 -0.3282
 1840SOL    HW2 7132   2.840   5.810   6.046  2.7081  2.4036  2.5339
 1840SOL    HW3 7133   2.752   5.933   6.043 -0.9708 -0.0430 -1.0428
 1840SOL    MW4 7134   2.815   5.884   6.007 -0.0416  0.3805 -0.0449
 1841SOL     OW 7135   1.754   1.885   2.595  0.4712 -0.1348 -0.2022
 1841SOL    HW2 7136   1.833   1.861   2.548  1.5179  0.5340  1.1537
 1841SOL    HW3 7137   1.743   1.979   2.577  1.5141  0.4103  1.6653
 1841SOL    MW4 7138   1.763   1.894   2.586  0.7469  0.0254  0.2231
 1842SOL     OW 7139   0.072   2.046   2.608  0.4858  0.4317 -0.6163
 1842SOL    HW2 7140   0.151   2.094   2.582  0.3122  0.6548 -0.7312
 1842SOL    HW3 7141   0.001   2.110   2.600  0.3231  0.2909 -0.3120
 1842SOL    MW4 7142   0.073   2.061   2.603  0.4414  0.4426 -0.5913
 1843SOL     OW 7143   5.521   6.385   4.513 -0.1468  0.7454  0.0713
 1843SOL    HW2 7144   5.587   6.454   4.503 -1.2613  1.8288 -0.0403
 1843SOL    HW3 7145   5.522   6.365   4.606 -0.6164  1.7568  0.3081
 1843SOL    MW4 7146   5.530   6.391   4.524 -0.3558  1.0218  0.0878
 1844SOL     OW 7147   4.450   1.403   2.468  0.4678 -0.2574 -0.3439
 1844SOL    HW2 7148   4.484   1.430   2.553 -1.5767 -2.8938  1.4756
 1844SOL    HW3 7149   4.493   1.462   2.405  2.9141  1.0787  2.3421
 1844SOL    MW4 7150   4.460   1.415   2.471  0.5208 -0.4290  0.2506
 1845SOL     OW 7151   2.823   3.594   1.957 -0.3499  0.3727  0.0239
 1845SOL    HW2 7152   2.756   3.536   1.992 -0.6275  0.3511 -0.5394
 1845SOL    HW3 7153   2.849   3.648   2.032  1.7444 -2.1260  1.2305
 1845SOL    MW4 7154   2.818   3.594   1.971 -0.1102  0.0402  0.1088
 1846SOL     OW 7155   6.134   4.478   4.113 -0.6980  0.1403  0.2039
 1846SOL    HW2 7156   6.125   4.384   4.095 -0.3734  0.1322  0.0656
 1846SOL    HW3 7157   6.128   4.519   4.027  0.7765  0.1110  0.0491
 1846SOL    MW4 7158   6.132   4.471   4.099 -0.4606  0.1354  0.1652
 1847SOL     OW 7159   1.671   5.592   4.528  0.1484  0.4024  0.3593
 1847SOL    HW2 7160   1.686   5.506   4.488  2.1849 -0.0271  1.8215
 1847SOL    HW3 7161   1.647   5.649   4.456  2.9764 -0.4726 -1.4284
 1847SOL    MW4 7162   1.670   5.588   4.513  0.7902  0.2303  0.3164
 1848SOL     OW 7163   3.194   2.180   2.442 -0.1660 -0.7325  0.4838
 1848SOL    HW2 7164   3.133   2.253   2.440  2.1828  1.3970 -1.1367
 1848SOL    HW3 7165   3.251   2.198   2.517  0.1727 -1.1247  0.3254
 1848SOL    MW4 7166   3.194   2.192   2.451  0.1886 -0.5033  0.2491
 1849SOL     OW 7167   2.996   0.024   1.243  0.6517  0.0879  0.8429
 1849SOL    HW2 7168   2.908   0.045   1.275  0.1072 -2.5125  1.3037
 1849SOL    HW3 7169   3.054   0.048   1.315  0.1677  0.4716  1.1142
 1849SOL    MW4 7170   2.992   0.030   1.257  0.5160 -0.2046  0.9395
 1850SOL     OW 7171   6.206   1.863   0.299 -0.3048  0.1546  0.5463
 1850SOL    HW2 7172   6.127   1.813   0.280 -1.1225  1.8463 -0.8307
 1850SOL    HW3 7173   6.228   1.906   0.216  1.2226  0.8547  1.2704
 1850SOL    MW4 7174   6.199   1.862   0.286 -0.2111  0.4702  0.4602
 1851SOL     OW 7175   2.898   1.606   1.037 -0.3614 -0.2782 -0.3484
 1851SOL    HW2 7176   2.917   1.663   1.112  0.0956  0.3625 -0.9339
 1851SOL    HW3 7177   2.861   1.527   1.076 -0.6514  0.2623  0.5135
 1851SOL    MW4 7178   2.896   1.603   1.052 -0.3394 -0.1224 -0.3119
 1852SOL     OW 7179   5.181   4.299   3.362 -0.2681  0.0183  0.0113
 1852SOL    HW2 7180   5.175   4.205   3.342  0.2458  0.1664 -0.8956
 1852SOL    HW3 7181   5.190   4.341   3.277  3.1877  0.6042  0.4859
 1852SOL    MW4 7182   5.182   4.292   3.348  0.2556  0.1152 -0.0457
 1853SOL     OW 7183   4.040   0.816   6.016 -0.3113  0.7555  0.1217
 1853SOL    HW2 7184   3.990   0.813   6.097 -1.7552  0.8853 -0.7326
 1853SOL    HW3 7185   3.983   0.774   5.951  0.2620  1.7896 -1.0901
 1853SOL    MW4 7186   4.026   0.810   6.018 -0.4262  0.9091 -0.1509
 1854SOL     OW 7187   0.127   4.828   1.247 -0.0391 -0.2826  0.2082
 1854SOL    HW2 7188   0.161   4.909   1.210 -2.2209  0.5095 -0.1695
 1854SOL    HW3 7189   0.178   4.759   1.204  1.6413  0.8246  0.3097
 1854SOL    MW4 7190   0.139   4.830   1.237 -0.1053 -0.0320  0.1718
 1855SOL     OW 7191   2.241   4.617   5.073 -0.2188  0.0037 -0.3465
 1855SOL    HW2 7192   2.331   4.608   5.044  0.6265  2.0850  1.3736
 1855SOL    HW3 7193   2.215   4.704   5.044 -1.2565 -0.1031  0.2125
 1855SOL    MW4 7194   2.249   4.627   5.065 -0.2442  0.2642 -0.0458
 1856SOL     OW 7195   6.149   5.913   5.752 -0.0619 -0.5533 -0.2039
 1856SOL    HW2 7196   6.138   6.008   5.747  1.4658 -0.3991 -1.7826
 1856SOL    HW3 7197   6.160   5.895   5.845 -3.1296  0.4100  0.4731
 1856SOL    MW4 7198   6.149   5.924   5.763 -0.2651 -0.4058 -0.3229
 1857SOL     OW 7199   0.578   4.702   0.287 -0.0076  0.2433  0.0068
 1857SOL    HW2 7200   0.660   4.726   0.244  0.0048  1.7017  0.7824
 1857SOL    HW3 7201   0.535   4.643   0.225  1.7029 -0.7170 -0.3135
 1857SOL    MW4 7202   0.583   4.697   0.273  0.2197  0.3091  0.0669
 1858SOL     OW 7203   1.212   1.025   1.071  0.1678  0.2583 -0.0653
 1858SOL    HW2 7204   1.150   0.956   1.097  1.7914 -0.9872  0.6805
 1858SOL    HW3 7205   1.216   1.020   0.976  0.1993 -0.6398 -0.0230
 1858SOL    MW4 7206   1.204   1.015   1.062  0.3862 -0.0246  0.0387
 1859SOL     OW 7207   2.440   6.288   3.526 -0.0854  0.4862 -0.0388
 1859SOL    HW2 7208   2.505   6.321   3.464 -1.5043  1.3386 -1.1170
 1859SOL    HW3 7209   2.366   6.348   3.518 -1.4906 -1.1272  0.2955
 1859SOL    MW4 7210   2.439   6.301   3.517 -0.4580  0.3858 -0.1369
 1860SOL     OW 7211   1.477   0.817   4.403  0.2331  0.2715 -0.4448
 1860SOL    HW2 7212   1.417   0.888   4.425  2.6954  1.6093  2.8774
 1860SOL    HW3 7213   1.422   0.739   4.395 -2.1030  1.7383  0.5078
 1860SOL    MW4 7214   1.462   0.816   4.405  0.2498  0.6415  0.1192
 1861SOL     OW 7215   5.562   4.968   5.935  0.2783 -0.1100 -0.5859
 1861SOL    HW2 7216   5.567   4.873   5.937 -0.3330 -0.1582 -1.0167
 1861SOL    HW3 7217   5.584   4.995   6.025 -0.9008 -0.7281 -0.0926
 1861SOL    MW4 7218   5.566   4.959   5.947  0.0421 -0.1979 -0.5777
 1862SOL     OW 7219   0.937   0.597   5.182  0.1413  0.2807  0.1603
 1862SOL    HW2 7220   0.907   0.688   5.172  0.9422  0.6277  0.8446
 1862SOL    HW3 7221   0.856   0.547   5.195 -0.2204  1.1148  1.3365
 1862SOL    MW4 7222   0.922   0.603   5.182  0.1992  0.4365  0.4058
 1863SOL     OW 7223   5.878   3.705   4.888  0.2262  0.1124  0.1365
 1863SOL    HW2 7224   5.963   3.678   4.855 -0.3264  0.2376 -1.4985
 1863SOL    HW3 7225   5.815   3.647   4.843 -0.6620  1.2865 -0.1953
 1863SOL    MW4 7226   5.881   3.694   4.878  0.0361  0.2838 -0.1230
 1864SOL     OW 7227   0.530   0.768   4.818 -0.5501 -0.8201  0.0547
 1864SOL    HW2 7228   0.450   0.748   4.867 -1.7728 -0.0254 -1.5341
 1864SOL    HW3 7229   0.551   0.687   4.772 -0.4577 -1.0148  0.4335
 1864SOL    MW4 7230   0.522   0.755   4.819 -0.6992 -0.7410 -0.1050
 1865SOL     OW 7231   4.568   2.430   0.869 -0.5183 -0.2648  0.1968
 1865SOL    HW2 7232   4.631   2.405   0.936 -2.4782 -1.5798  1.6458
 1865SOL    HW3 7233   4.622   2.456   0.794  1.7946  1.8945  2.4011
 1865SOL    MW4 7234   4.583   2.430   0.868 -0.4717 -0.1534  0.6788
 1866SOL     OW 7235   1.415   0.377   4.923 -0.3363 -0.7090  0.4693
 1866SOL    HW2 7236   1.488   0.358   4.865 -0.2270 -0.5489  0.5523
 1866SOL    HW3 7237   1.344   0.404   4.865  0.0870  0.4611  0.4550
 1866SOL    MW4 7238   1.415   0.378   4.908 -0.2660 -0.5335  0.4784
 1867SOL     OW 7239   0.572   0.843   1.408  0.6042 -0.2244 -0.3444
 1867SOL    HW2 7240   0.482   0.839   1.374  0.8973 -2.6196 -1.0451
 1867SOL    HW3 7241   0.565   0.806   1.497  0.8404 -0.0524 -0.2550
 1867SOL    MW4 7242   0.559   0.837   1.415  0.6740 -0.5177 -0.4251
 1868SOL     OW 7243   4.116   0.911   4.558  0.5593 -0.1350 -0.5388
 1868SOL    HW2 7244   4.087   0.890   4.469  0.6513  0.7980 -0.8069
 1868SOL    HW3 7245   4.066   0.990   4.581  1.1938  0.1475 -0.1137
 1868SOL    MW4 7246   4.105   0.919   4.549  0.6552  0.0254 -0.5181
 1869SOL     OW 7247   3.709   1.124   0.543  0.1323  0.8202  0.1671
 1869SOL    HW2 7248   3.706   1.142   0.637  1.4689 -0.4728  0.4915
 1869SOL    HW3 7249   3.635   1.065   0.527 -0.0634  0.9991  0.4150
 1869SOL    MW4 7250   3.699   1.119   0.553  0.2828  0.6732  0.2426
 1870SOL     OW 7251   1.060   5.330   1.558  0.1522 -0.1035  0.0046
 1870SOL    HW2 7252   1.061   5.382   1.638 -2.4837  0.8990 -0.5040
 1870SOL    HW3 7253   1.078   5.393   1.488 -0.1729 -0.4426 -0.3930
 1870SOL    MW4 7254   1.062   5.345   1.559 -0.2385 -0.0160 -0.1149
 1871SOL     OW 7255   0.904   2.549   6.004  0.0824 -0.8832 -0.3362
 1871SOL    HW2 7256   0.927   2.642   6.005  0.0698 -0.8827  0.5115
 1871SOL    HW3 7257   0.904   2.525   5.911  0.2139 -0.0706 -0.5505
 1871SOL    MW4 7258   0.907   2.558   5.992  0.0981 -0.7759 -0.2526
 1872SOL     OW 7259   6.332   6.234   3.518 -0.1319 -0.1096  0.3157
 1872SOL    HW2 7260   6.324   6.184   3.436  1.2916 -0.2854  0.2679
 1872SOL    HW3 7261   6.423   6.263   3.520 -0.3115  0.4338  1.5401
 1872SOL    MW4 7262   6.343   6.231   3.507  0.0322 -0.0611  0.4710
 1873SOL     OW 7263   1.559   1.143   1.417 -0.2317  0.1898 -0.0975
 1873SOL    HW2 7264   1.641   1.102   1.390 -1.6425 -2.8802 -0.1835
 1873SOL    HW3 7265   1.569   1.160   1.511  1.1098  1.6200 -0.4636
 1873SOL    MW4 7266   1.571   1.140   1.426 -0.2408 -0.0265 -0.1572
 1874SOL     OW 7267   4.863   1.871   2.543  0.0852 -0.1522 -0.0579
 1874SOL    HW2 7268   4.889   1.805   2.479  0.5245 -0.0624  0.0228
 1874SOL    HW3 7269   4.942   1.885   2.596  0.4944  1.5283 -1.0181
 1874SOL    MW4 7270   4.877   1.864   2.542  0.1971  0.0814 -0.1739
 1875SOL     OW 7271   6.351   0.648   2.166  0.1936  0.2282 -0.0556
 1875SOL    HW2 7272   6.408   0.572   2.149 -0.3793 -0.3946  0.7451
 1875SOL    HW3 7273   6.404   0.723   2.141  1.7676 -0.2608  1.5941
 1875SOL    MW4 7274   6.366   0.648   2.160  0.3257  0.0815  0.2677
 1876SOL     OW 7275   4.705   0.386   3.879  0.0105 -0.4548 -0.3421
 1876SOL    HW2 7276   4.767   0.386   3.952  0.7291 -0.0989 -0.9285
 1876SOL    HW3 7277   4.665   0.473   3.883 -1.1271 -1.0042  0.5761
 1876SOL    MW4 7278   4.708   0.398   3.889 -0.0448 -0.4803 -0.2983
 1877SOL     OW 7279   3.660   5.513   4.754 -1.1611 -0.6385  0.0170
 1877SOL    HW2 7280   3.695   5.426   4.734 -1.5119 -1.0555  1.1538
 1877SOL    HW3 7281   3.584   5.496   4.810 -2.1243  0.3449 -0.9641
 1877SOL    MW4 7282   3.655   5.499   4.759 -1.3344 -0.5638  0.0375
 1878SOL     OW 7283   3.906   4.830   5.388 -0.3238 -0.0607  0.7358
 1878SOL    HW2 7284   3.955   4.859   5.311  0.5237 -1.4047  0.7504
 1878SOL    HW3 7285   3.821   4.874   5.379  0.6598  1.8644  0.4304
 1878SOL    MW4 7286   3.901   4.840   5.377 -0.0822  0.0160  0.6974
 1879SOL     OW 7287   3.956   1.119   3.899  0.1477  0.2928 -0.5201
 1879SOL    HW2 7288   4.012   1.188   3.863  1.6499 -0.7052 -0.1449
 1879SOL    HW3 7289   3.872   1.132   3.854  1.1837  0.6846 -2.4720
 1879SOL    MW4 7290   3.952   1.130   3.888  0.4826  0.2128 -0.7281
 1880SOL     OW 7291   1.993   2.787   3.150  0.3881  0.1516  0.0877
 1880SOL    HW2 7292   2.075   2.746   3.180  0.2617  0.6320  1.1459
 1880SOL    HW3 7293   1.991   2.770   3.056  0.9430 -1.2100  0.2890
 1880SOL    MW4 7294   2.004   2.779   3.142  0.4446  0.0354  0.2539
 1881SOL     OW 7295   4.215   4.642   6.030 -0.3087 -0.1446 -0.1746
 1881SOL    HW2 7296   4.246   4.704   6.096  0.9219 -1.4360  0.5272
 1881SOL    HW3 7297   4.288   4.580   6.019 -0.2907  0.2426 -3.0812
 1881SOL    MW4 7298   4.229   4.642   6.037 -0.1440 -0.2639 -0.4655
 1882SOL     OW 7299   0.226   4.954   0.113 -0.1168 -0.2728 -0.6242
 1882SOL    HW2 7300   0.272   4.948   0.197 -0.8565  1.4447 -0.0658
 1882SOL    HW3 7301   0.221   4.863   0.082  0.3716 -0.9042  1.0640
 1882SOL    MW4 7302   0.231   4.941   0.120 -0.1499 -0.1295 -0.3278
 1883SOL     OW 7303   0.731   3.264   0.340 -0.0569 -0.3722 -0.7713
 1883SOL    HW2 7304   0.653   3.209   0.330  1.4646 -2.9629  0.5621
 1883SOL    HW3 7305   0.780   3.253   0.259 -0.2004 -0.2418 -0.8749
 1883SOL    MW4 7306   0.727   3.255   0.328  0.1249 -0.6968 -0.6090
 1884SOL     OW 7307   5.153   5.295   4.192  0.0456 -0.0776  0.8236
 1884SOL    HW2 7308   5.092   5.314   4.121  2.1288 -1.1086 -1.3565
 1884SOL    HW3 7309   5.233   5.344   4.169  0.0133  1.6543  3.8366
 1884SOL    MW4 7310   5.156   5.304   4.180  0.3162  0.0149  0.9335
 1885SOL     OW 7311   2.838   0.154   1.626  0.2833  0.4690 -0.5446
 1885SOL    HW2 7312   2.909   0.193   1.675 -1.7888  1.3455  2.0091
 1885SOL    HW3 7313   2.793   0.228   1.584  0.2332  0.0478 -1.2605
 1885SOL    MW4 7314   2.841   0.169   1.627  0.0033  0.5291 -0.3021
 1886SOL     OW 7315   1.690   0.653   1.212 -0.0834 -0.1088 -0.9030
 1886SOL    HW2 7316   1.729   0.575   1.251 -0.7421 -0.4435 -0.8937
 1886SOL    HW3 7317   1.626   0.619   1.149 -1.3658  0.3804  0.0779
 1886SOL    MW4 7318   1.687   0.638   1.209 -0.3395 -0.0884 -0.7724
 1887SOL     OW 7319   2.676   2.343   4.374  0.0058 -0.3618  0.4257
 1887SOL    HW2 7320   2.746   2.373   4.432  0.0990  0.7682 -0.2584
 1887SOL    HW3 7321   2.596   2.380   4.411  0.1296  0.8217 -0.4621
 1887SOL    MW4 7322   2.674   2.352   4.386  0.0344 -0.0566  0.2183
 1888SOL     OW 7323   0.063   2.950   3.918  0.8364  0.4354 -0.1608
 1888SOL    HW2 7324  -0.023   2.935   3.880  0.8131  0.9004 -0.2941
 1888SOL    HW3 7325   0.107   2.865   3.912  1.0173  0.6183 -1.6786
 1888SOL    MW4 7326   0.058   2.937   3.912  0.8572  0.5209 -0.3786
 1889SOL     OW 7327   4.024   5.851   2.722  0.5197 -0.5682 -0.6973
 1889SOL    HW2 7328   3.997   5.940   2.699  1.8116  0.4510  1.4195
 1889SOL    HW3 7329   3.942   5.804   2.735 -0.2581  1.0854  0.7726
 1889SOL    MW4 7330   4.009   5.857   2.721  0.5876 -0.2156 -0.2241
 1890SOL     OW 7331   1.209   0.839   3.244  0.6132 -0.1886 -0.3204
 1890SOL    HW2 7332   1.168   0.915   3.285  1.2168  0.3664 -0.7357
 1890SOL    HW3 7333   1.258   0.797   3.314 -0.2800 -0.6101  0.0769
 1890SOL    MW4 7334   1.210   0.843   3.258  0.5750 -0.1710 -0.3228
 1891SOL     OW 7335   1.031   4.124   0.302 -0.4165 -0.2910 -0.0396
 1891SOL    HW2 7336   0.959   4.071   0.267 -0.6092 -0.0057 -0.0756
 1891SOL    HW3 7337   1.008   4.136   0.394  0.6493 -1.9957  0.5065
 1891SOL    MW4 7338   1.018   4.118   0.310 -0.3013 -0.4783  0.0277
 1892SOL     OW 7339   6.274   5.511   3.888 -0.5758  0.4243  0.4012
 1892SOL    HW2 7340   6.361   5.540   3.860 -0.2713 -0.2254  0.6521
 1892SOL    HW3 7341   6.259   5.556   3.971 -0.6054  0.7633  0.2135
 1892SOL    MW4 7342   6.284   5.521   3.895 -0.5395  0.3833  0.4096
 1893SOL     OW 7343   5.279   1.353   1.272  0.0805 -0.0613  0.4708
 1893SOL    HW2 7344   5.187   1.364   1.251  0.8020  2.3896 -2.0678
 1893SOL    HW3 7345   5.305   1.437   1.310  1.6330 -0.0086 -0.6250
 1893SOL    MW4 7346   5.271   1.365   1.275  0.3805  0.2690 -0.0087
 1894SOL     OW 7347   2.840   2.705   4.953 -0.3846  0.4228 -0.3961
 1894SOL    HW2 7348   2.800   2.788   4.927  0.7716  1.9990  2.4820
 1894SOL    HW3 7349   2.914   2.695   4.894 -0.2919  1.6788 -0.5257
 1894SOL    MW4 7350   2.844   2.715   4.942 -0.2198  0.7965 -0.0335
 1895SOL     OW 7351   2.655   3.466   4.918 -0.0400  0.6353 -0.2562
 1895SOL    HW2 7352   2.620   3.474   4.830  0.9636  0.7644 -0.6560
 1895SOL    HW3 7353   2.669   3.557   4.947 -1.3264  0.6345  0.4509
 1895SOL    MW4 7354   2.652   3.479   4.910 -0.0773  0.6522 -0.2157
 1896SOL     OW 7355   6.146   2.398   1.661  0.5768  0.0757 -0.2313
 1896SOL    HW2 7356   6.107   2.485   1.667  1.1950  0.8258 -4.0764
 1896SOL    HW3 7357   6.239   2.415   1.648  1.0544 -1.3245  1.1080
 1896SOL    MW4 7358   6.153   2.412   1.660  0.7214 -0.0101 -0.5619
 1897SOL     OW 7359   3.121   6.035   0.487 -0.1326 -0.1421 -0.3694
 1897SOL    HW2 7360   3.162   6.072   0.565 -0.5702 -0.9419  0.2604
 1897SOL    HW3 7361   3.040   6.085   0.476  0.4712  0.7337 -0.9993
 1897SOL    MW4 7362   3.116   6.047   0.496 -0.1106 -0.1321 -0.3694
 1898SOL     OW 7363   4.587   0.109   6.076  0.4794 -0.3846 -0.2909
 1898SOL    HW2 7364   4.647   0.133   6.006  1.3940  4.0694  1.6837
 1898SOL    HW3 7365   4.614   0.020   6.102  2.4993 -0.6942 -3.0424
 1898SOL    MW4 7366   4.598   0.100   6.070  0.8666  0.1622 -0.3934
 1899SOL     OW 7367   4.789   2.233   1.913  0.1238  0.2029  0.8595
 1899SOL    HW2 7368   4.875   2.203   1.881  0.1825  0.1832  1.0379
 1899SOL    HW3 7369   4.741   2.152   1.931  0.0889  0.2143  0.8174
 1899SOL    MW4 7370   4.794   2.218   1.911  0.1270  0.2018  0.8775
 1900SOL     OW 7371   3.269   0.072   3.274  0.0348 -0.5717 -0.3228
 1900SOL    HW2 7372   3.325   0.150   3.272 -0.2963 -0.3419 -0.5949
 1900SOL    HW3 7373   3.206   0.089   3.344 -1.1904  0.2107 -1.5658
 1900SOL    MW4 7374   3.268   0.085   3.283 -0.1705 -0.4382 -0.5227
 1901SOL     OW 7375   4.177   5.549   0.474 -0.1962 -0.3364  0.4749
 1901SOL    HW2 7376   4.112   5.561   0.543  0.0693 -0.5772  0.7727
 1901SOL    HW3 7377   4.248   5.499   0.516  0.2705  0.0926  0.2131
 1901SOL    MW4 7378   4.178   5.544   0.489 -0.0996 -0.3115  0.4796
 1902SOL     OW 7379   3.963   4.250   0.497  0.0753  0.1402 -0.3615
 1902SOL    HW2 7380   3.971   4.173   0.553 -0.0966 -0.7095 -1.4703
 1902SOL    HW3 7381   3.987   4.323   0.553 -0.6084 -0.6222  0.9625
 1902SOL    MW4 7382   3.967   4.249   0.512 -0.0376 -0.0725 -0.3331
 1903SOL     OW 7383   1.437   2.729   0.800 -0.3733  0.0113  0.4167
 1903SOL    HW2 7384   1.518   2.778   0.788 -0.9530  0.8048 -0.5058
 1903SOL    HW3 7385   1.437   2.665   0.729 -1.3859  1.2509 -0.7653
 1903SOL    MW4 7386   1.448   2.727   0.789 -0.5834  0.2795  0.1390
 1904SOL     OW 7387   0.448   0.128   6.111 -0.0568  0.0277 -0.2112
 1904SOL    HW2 7388   0.481   0.111   6.023  1.1662 -0.4349  0.3082
 1904SOL    HW3 7389   0.498   0.069   6.167 -1.6248 -0.5304  0.6778
 1904SOL    MW4 7390   0.459   0.118   6.107 -0.1023 -0.1069 -0.0254
 1905SOL     OW 7391   1.896   5.925   1.105 -0.0914  0.1171  0.4159
 1905SOL    HW2 7392   1.836   5.860   1.070  0.7425  0.0249 -0.8984
 1905SOL    HW3 7393   1.844   5.973   1.170 -0.9244 -1.3667  0.8916
 1905SOL    MW4 7394   1.881   5.923   1.109 -0.0913 -0.0908  0.3052
 1906SOL     OW 7395   5.227   2.588   2.680  0.1018  0.1757 -0.3899
 1906SOL    HW2 7396   5.184   2.523   2.624  0.5632  0.1574 -0.7311
 1906SOL    HW3 7397   5.174   2.589   2.760  0.1187 -0.6628 -0.3570
 1906SOL    MW4 7398   5.214   2.579   2.683  0.1649  0.0627 -0.4306
 1907SOL     OW 7399   0.410   0.078   2.970 -0.6416  0.2382  0.1455
 1907SOL    HW2 7400   0.440   0.077   2.879 -0.2902  1.2143  0.2301
 1907SOL    HW3 7401   0.455   0.004   3.011 -1.8174 -1.0138 -0.7614
 1907SOL    MW4 7402   0.420   0.068   2.964 -0.7504  0.2018  0.0370
 1908SOL     OW 7403   1.837   2.512   2.709 -0.5035  0.1359  0.2748
 1908SOL    HW2 7404   1.878   2.504   2.622  1.8559 -0.2190  1.3453
 1908SOL    HW3 7405   1.744   2.524   2.690 -0.3778 -1.9146 -2.2721
 1908SOL    MW4 7406   1.830   2.512   2.695 -0.1756 -0.1815  0.0800
 1909SOL     OW 7407   0.590   2.727   3.451 -0.5597  0.1140 -0.4302
 1909SOL    HW2 7408   0.604   2.633   3.445  0.0361  0.0207  1.6104
 1909SOL    HW3 7409   0.496   2.737   3.465 -0.2266 -0.5339  3.1831
 1909SOL    MW4 7410   0.579   2.716   3.452 -0.4372  0.0162  0.3157
 1910SOL     OW 7411   5.814   0.468   5.323  0.1399 -0.4935 -0.3548
 1910SOL    HW2 7412   5.766   0.424   5.394 -0.5022  0.8375  0.0673
 1910SOL    HW3 7413   5.905   0.445   5.337 -0.1611 -1.5563 -0.0619
 1910SOL    MW4 7414   5.819   0.459   5.334  0.0155 -0.4581 -0.2604
 1911SOL     OW 7415   2.742   5.632   2.728 -0.1902  0.7879 -0.1305
 1911SOL    HW2 7416   2.706   5.548   2.755 -0.0902  0.5548 -0.6987
 1911SOL    HW3 7417   2.712   5.643   2.638  1.1733  0.5566 -0.6445
 1911SOL    MW4 7418   2.733   5.622   2.719  0.0029  0.7266 -0.2733
 1912SOL     OW 7419   5.812   2.305   3.923  0.6474 -0.4565 -0.1225
 1912SOL    HW2 7420   5.871   2.380   3.930 -0.6769  0.5541  0.7058
 1912SOL    HW3 7421   5.858   2.244   3.865  2.4079  0.3511  0.3599
 1912SOL    MW4 7422   5.826   2.307   3.916  0.7050 -0.2166  0.0504
 1913SOL     OW 7423   3.292   3.759   6.088  0.0379 -0.5733  0.2287
 1913SOL    HW2 7424   3.275   3.824   6.020  0.9945  0.4557  0.9471
 1913SOL    HW3 7425   3.209   3.713   6.098 -0.0893 -0.8589 -1.7296
 1913SOL    MW4 7426   3.279   3.761   6.081  0.1473 -0.4753  0.0651
 1914SOL     OW 7427   4.488   4.363   4.293  0.1237 -0.5516  0.0109
 1914SOL    HW2 7428   4.479   4.299   4.223 -1.8562  0.1208 -0.4200
 1914SOL    HW3 7429   4.401   4.402   4.302  1.3584  2.5611 -0.1929
 1914SOL    MW4 7430   4.475   4.360   4.285  0.0254 -0.0522 -0.0728
 1915SOL     OW 7431   1.642   5.778   3.112 -0.5534  0.0847  0.2820
 1915SOL    HW2 7432   1.579   5.728   3.060 -0.7777  0.1889  0.4485
 1915SOL    HW3 7433   1.604   5.866   3.117 -2.2299 -0.6563  3.3131
 1915SOL    MW4 7434   1.628   5.783   3.106 -0.8042  0.0007  0.7039
 1916SOL     OW 7435   6.225   2.233   6.152  0.3030 -0.1295  0.0634
 1916SOL    HW2 7436   6.281   2.219   6.229  2.2348  1.4443 -0.9699
 1916SOL    HW3 7437   6.279   2.284   6.092 -1.0598 -1.4815 -2.4733
 1916SOL    MW4 7438   6.240   2.238   6.154  0.3781 -0.1003 -0.4076
 1917SOL     OW 7439   2.150   1.900   3.591  0.0922 -0.0081  0.4469
 1917SOL    HW2 7440   2.140   1.939   3.504 -2.2063  0.9834  1.0713
 1917SOL    HW3 7441   2.067   1.918   3.634  0.3910 -2.3041  2.1505
 1917SOL    MW4 7442   2.138   1.908   3.585 -0.1717 -0.1802  0.7540
 1918SOL     OW 7443   1.566   2.025   2.323  1.3471 -0.5573 -0.0957
 1918SOL    HW2 7444   1.494   2.050   2.266 -0.1121 -0.2622  1.7735
 1918SOL    HW3 7445   1.603   1.947   2.283 -0.5908 -1.2355 -0.6707
 1918SOL    MW4 7446   1.562   2.018   2.310  0.8989 -0.6078  0.0751
 1919SOL     OW 7447   4.491   4.790   4.176  0.2084 -0.1352 -0.1504
 1919SOL    HW2 7448   4.414   4.815   4.124  0.3935  0.0094 -0.3589
 1919SOL    HW3 7449   4.515   4.870   4.222  1.4740  0.4210 -1.6714
 1919SOL    MW4 7450   4.484   4.804   4.175  0.3998 -0.0427 -0.3786
 1920SOL     OW 7451   1.469   0.799   4.092  0.4579 -0.3084  0.3255
 1920SOL    HW2 7452   1.419   0.874   4.061  0.3034 -0.0155  1.2543
 1920SOL    HW3 7453   1.494   0.822   4.182  3.3244  0.0801 -0.4801
 1920SOL    MW4 7454   1.466   0.812   4.100  0.8157 -0.2185  0.3418
 1921SOL     OW 7455   1.096   2.240   1.541 -0.2690 -0.0734 -0.6554
 1921SOL    HW2 7456   1.166   2.185   1.505 -1.4210 -1.7271 -0.4976
 1921SOL    HW3 7457   1.015   2.193   1.518 -1.1448 -0.9752  3.4381
 1921SOL    MW4 7458   1.094   2.226   1.534 -0.5365 -0.4105 -0.0945
 1922SOL     OW 7459   3.545   1.414   6.133  0.1281 -0.3107  0.3434
 1922SOL    HW2 7460   3.481   1.381   6.196 -0.0062 -0.1006  0.3159
 1922SOL    HW3 7461   3.537   1.509   6.137  0.1627 -0.2933  0.0554
 1922SOL    MW4 7462   3.535   1.422   6.142  0.1149 -0.2807  0.3018
 1923SOL     OW 7463   3.653   2.621   2.621 -0.0321 -0.7091  0.4106
 1923SOL    HW2 7464   3.592   2.671   2.568  1.1211  0.8060  0.4353
 1923SOL    HW3 7465   3.701   2.567   2.558 -0.8350 -1.3107  0.3053
 1923SOL    MW4 7466   3.651   2.621   2.606  0.0141 -0.5886  0.4000
 1924SOL     OW 7467   5.680   0.602   2.387  0.1013 -0.4830  0.3025
 1924SOL    HW2 7468   5.672   0.673   2.450  1.2573 -0.2187  0.1697
 1924SOL    HW3 7469   5.664   0.643   2.302  1.3467 -0.2443  0.1701
 1924SOL    MW4 7470   5.676   0.617   2.384  0.4182 -0.4167  0.2675
 1925SOL     OW 7471   5.382   5.465   4.192 -0.0022 -0.3166  0.5724
 1925SOL    HW2 7472   5.341   5.429   4.271  0.5654 -0.0064  1.0175
 1925SOL    HW3 7473   5.461   5.412   4.180  0.4171  0.2507  0.7688
 1925SOL    MW4 7474   5.387   5.453   4.201  0.1280 -0.2008  0.6570
 1926SOL     OW 7475   3.222   4.628   4.517  0.1418 -0.6155 -0.1421
 1926SOL    HW2 7476   3.261   4.572   4.584  2.7151  0.8736 -0.2972
 1926SOL    HW3 7477   3.234   4.580   4.436  2.3732  0.0794 -0.2801
 1926SOL    MW4 7478   3.229   4.614   4.515  0.7757 -0.3274 -0.1808
 1927SOL     OW 7479   2.644   0.487   0.746 -0.1510 -0.0699  0.3966
 1927SOL    HW2 7480   2.666   0.430   0.820  1.2305 -1.0120 -0.7030
 1927SOL    HW3 7481   2.722   0.487   0.691 -1.0015  0.9578 -0.8716
 1927SOL    MW4 7482   2.657   0.480   0.749 -0.0809 -0.0586  0.0842
 1928SOL     OW 7483   2.075   4.236   4.167  0.1625 -0.2731 -0.5629
 1928SOL    HW2 7484   2.090   4.163   4.227 -0.9525 -0.2353 -0.2098
 1928SOL    HW3 7485   2.134   4.305   4.198 -2.3893  0.8057  2.4302
 1928SOL    MW4 7486   2.085   4.235   4.179 -0.3213 -0.1258 -0.1214
 1929SOL     OW 7487   5.893   4.816   5.464  0.1432  0.1392 -0.8411
 1929SOL    HW2 7488   5.969   4.851   5.417 -0.0570 -2.5084 -3.4329
 1929SOL    HW3 7489   5.907   4.721   5.464 -1.9848 -0.2535  0.8532
 1929SOL    MW4 7490   5.905   4.808   5.458 -0.1640 -0.2619 -0.9595
 1930SOL     OW 7491   2.306   3.555   5.951  0.3725 -0.0819 -0.1384
 1930SOL    HW2 7492   2.228   3.504   5.928 -0.0064  0.0013  0.9149
 1930SOL    HW3 7493   2.365   3.542   5.877 -0.4858 -0.4614 -0.7816
 1930SOL    MW4 7494   2.303   3.546   5.938  0.2093 -0.1210 -0.0843
 1931SOL     OW 7495   1.825   4.392   4.998  0.0099  0.2482 -0.9543
 1931SOL    HW2 7496   1.851   4.312   5.044  0.9210 -0.6722 -2.9543
 1931SOL    HW3 7497   1.908   4.431   4.970 -0.4883  1.1701 -1.1677
 1931SOL    MW4 7498   1.839   4.387   5.001  0.0644  0.2484 -1.2464
 1932SOL     OW 7499   0.360   5.974   0.657 -0.3073  0.4011 -0.0545
 1932SOL    HW2 7500   0.435   6.031   0.640  0.0907 -0.1406 -0.1357
 1932SOL    HW3 7501   0.352   5.973   0.752  0.5141 -0.4494  0.0195
 1932SOL    MW4 7502   0.369   5.981   0.667 -0.1464  0.2174 -0.0554
 1933SOL     OW 7503   6.416   6.180   3.087  0.2742 -0.1905  0.2320
 1933SOL    HW2 7504   6.395   6.122   3.014  1.2046 -1.1220  0.6762
 1933SOL    HW3 7505   6.468   6.250   3.049 -0.9746  0.4729 -0.3355
 1933SOL    MW4 7506   6.420   6.181   3.073  0.2322 -0.2259  0.2157
 1934SOL     OW 7507   5.910   1.675   2.604  0.5194  0.1156  0.1296
 1934SOL    HW2 7508   5.965   1.693   2.527  0.7817 -1.0125  0.0315
 1934SOL    HW3 7509   5.822   1.701   2.576  0.3659 -1.5211 -1.0749
 1934SOL    MW4 7510   5.906   1.681   2.590  0.5338 -0.2492 -0.0422
 1935SOL     OW 7511   3.102   4.592   2.846 -0.0682 -0.4643 -0.4459
 1935SOL    HW2 7512   3.045   4.666   2.824  1.5932  1.3710  1.0638
 1935SOL    HW3 7513   3.147   4.573   2.764  0.1992  0.8831 -0.6420
 1935SOL    MW4 7514   3.100   4.599   2.832  0.1863 -0.0444 -0.2726
 1936SOL     OW 7515   3.057   5.427   1.070 -0.2107  0.3119  0.4760
 1936SOL    HW2 7516   3.024   5.516   1.083  1.1462  0.9962 -0.4987
 1936SOL    HW3 7517   3.017   5.398   0.988 -0.6552  0.0084  0.7950
 1936SOL    MW4 7518   3.048   5.435   1.060 -0.0903  0.3622  0.3895
 1937SOL     OW 7519   4.099   6.388   6.224 -0.3250 -0.6494  0.5640
 1937SOL    HW2 7520   4.090   6.477   6.257 -2.8891 -0.3743 -0.5854
 1937SOL    HW3 7521   4.083   6.396   6.130  1.6605 -2.0616  0.0535
 1937SOL    MW4 7522   4.095   6.401   6.216 -0.4013 -0.7994  0.3450
 1938SOL     OW 7523   2.356   1.336   2.182 -0.1392  0.8336  0.6844
 1938SOL    HW2 7524   2.326   1.343   2.272  0.6707  2.1531  0.8880
 1938SOL    HW3 7525   2.360   1.242   2.165  0.2539  0.5427  2.2251
 1938SOL    MW4 7526   2.353   1.325   2.191  0.0195  0.9693  0.9145
 1939SOL     OW 7527   0.406   5.972   1.355 -0.3673 -0.0235  0.0123
 1939SOL    HW2 7528   0.410   6.003   1.445  0.4834  0.3204 -0.1400
 1939SOL    HW3 7529   0.360   6.042   1.308 -2.6515 -1.0846  0.5282
 1939SOL    MW4 7530   0.400   5.985   1.361 -0.5564 -0.1181  0.0603
 1940SOL     OW 7531   1.623   5.112   2.488 -0.1460 -0.0934 -0.2682
 1940SOL    HW2 7532   1.531   5.090   2.473  0.1364 -1.6305  0.1456
 1940SOL    HW3 7533   1.657   5.042   2.543  0.3981  2.2744  2.7011
 1940SOL    MW4 7534   1.616   5.100   2.493 -0.0369  0.0162  0.1782
 1941SOL     OW 7535   4.559   0.174   5.638  0.3295  0.2231 -0.3994
 1941SOL    HW2 7536   4.485   0.117   5.658  0.9011 -1.4108 -2.5437
 1941SOL    HW3 7537   4.531   0.261   5.666 -1.4753 -0.7078  0.8859
 1941SOL    MW4 7538   4.546   0.178   5.644  0.1668 -0.1153 -0.5127
 1942SOL     OW 7539   5.481   4.611   2.210 -0.5530  0.0096  0.1536
 1942SOL    HW2 7540   5.510   4.520   2.223 -0.4517  0.0740  0.3877
 1942SOL    HW3 7541   5.418   4.626   2.281  1.3258  0.9372  1.7349
 1942SOL    MW4 7542   5.477   4.601   2.221 -0.2917  0.1405  0.3931
 1943SOL     OW 7543   3.314   3.396   2.509  0.1906  0.8115 -0.5663
 1943SOL    HW2 7544   3.221   3.401   2.484  0.2157  1.3607 -0.5566
 1943SOL    HW3 7545   3.356   3.356   2.433 -0.1539 -0.1015 -0.2963
 1943SOL    MW4 7546   3.307   3.391   2.495  0.1485  0.7635 -0.5294
 1944SOL     OW 7547   1.136   5.140   5.429 -0.4883  0.2217  0.6301
 1944SOL    HW2 7548   1.162   5.061   5.383  0.8227  1.6655 -1.2791
 1944SOL    HW3 7549   1.052   5.165   5.389  0.6823  1.5141 -1.2283
 1944SOL    MW4 7550   1.128   5.133   5.417 -0.1609  0.5827  0.1330
 1945SOL     OW 7551   1.291   1.654   0.661  0.6417 -0.0800 -0.0064
 1945SOL    HW2 7552   1.372   1.603   0.660  0.5146 -0.3458  1.0515
 1945SOL    HW3 7553   1.224   1.592   0.632  0.7949  0.1153 -0.7993
 1945SOL    MW4 7554   1.293   1.639   0.657  0.6451 -0.0893  0.0286
 1946SOL     OW 7555   3.488   0.193   1.283 -0.1414 -0.7922  0.4171
 1946SOL    HW2 7556   3.439   0.244   1.348  1.2402 -0.9945  1.6823
 1946SOL    HW3 7557   3.545   0.136   1.335  0.3825 -1.5998 -0.9811
 1946SOL    MW4 7558   3.489   0.193   1.299  0.1100 -0.9255  0.3996
 1947SOL     OW 7559   1.007   2.304   6.122  0.2297  0.1697  0.4447
 1947SOL    HW2 7560   0.987   2.237   6.057  0.7723 -1.3147  1.7541
 1947SOL    HW3 7561   0.963   2.383   6.089  0.0088 -0.6629 -1.4020
 1947SOL    MW4 7562   0.999   2.306   6.109  0.2722 -0.1360  0.3738
 1948SOL     OW 7563   2.421   2.416   5.403 -0.9169  0.4593  0.1315
 1948SOL    HW2 7564   2.467   2.358   5.464  0.2884  1.7490  0.4931
 1948SOL    HW3 7565   2.416   2.500   5.448 -1.1052  1.1042 -1.0551
 1948SOL    MW4 7566   2.427   2.419   5.417 -0.7827  0.7146  0.0227
 1949SOL     OW 7567   1.477   6.079   6.270 -0.2938 -0.1371 -0.1456
 1949SOL    HW2 7568   1.533   6.133   6.327 -0.3280 -1.5855  1.3006
 1949SOL    HW3 7569   1.536   6.050   6.200  0.1983  0.1998  0.1223
 1949SOL    MW4 7570   1.492   6.083   6.268 -0.2334 -0.2838  0.0805
 1950SOL     OW 7571   4.089   4.682   3.760  0.2349  0.2636 -0.0451
 1950SOL    HW2 7572   3.996   4.672   3.779 -0.1807  2.5666 -0.6487
 1950SOL    HW3 7573   4.122   4.736   3.832  0.7268  0.8537 -0.6983
 1950SOL    MW4 7574   4.081   4.688   3.772  0.2450  0.6453 -0.2109
 1951SOL     OW 7575   5.792   0.627   1.533 -0.2020 -0.0419  0.1509
 1951SOL    HW2 7576   5.731   0.693   1.502 -0.0418 -0.3271 -0.8145
 1951SOL    HW3 7577   5.798   0.641   1.627 -0.3230  1.1796 -0.0141
 1951SOL    MW4 7578   5.785   0.637   1.541 -0.1968  0.0816  0.0018
 1952SOL     OW 7579   1.519   4.118   2.609  0.3186 -0.0157  0.6514
 1952SOL    HW2 7580   1.446   4.122   2.671 -0.1966  1.3323 -0.0108
 1952SOL    HW3 7581   1.570   4.042   2.637 -2.1057 -1.8995  0.2532
 1952SOL    MW4 7582   1.516   4.108   2.621 -0.0692 -0.0864  0.5115
 1953SOL     OW 7583   4.818   1.357   5.283 -0.0721 -0.0958 -0.0722
 1953SOL    HW2 7584   4.897   1.337   5.232 -0.0912 -2.6568  0.7306
 1953SOL    HW3 7585   4.797   1.448   5.261  1.0461 -0.4374 -3.0600
 1953SOL    MW4 7586   4.825   1.366   5.273  0.0729 -0.4788 -0.3605
 1954SOL     OW 7587   0.878   5.637   5.451 -0.1376 -0.1433  0.6327
 1954SOL    HW2 7588   0.837   5.719   5.480 -1.0704 -1.0754  2.0989
 1954SOL    HW3 7589   0.964   5.663   5.420 -1.2168  1.6921 -1.1087
 1954SOL    MW4 7590   0.884   5.651   5.451 -0.4030 -0.0242  0.5964
 1955SOL     OW 7591   1.888   0.467   3.307 -0.2319 -0.1283  0.0326
 1955SOL    HW2 7592   1.906   0.527   3.380 -0.9451 -0.0087  0.1150
 1955SOL    HW3 7593   1.894   0.380   3.346 -1.4523 -0.0441  0.4404
 1955SOL    MW4 7594   1.891   0.463   3.322 -0.4870 -0.1014  0.0973
 1956SOL     OW 7595   0.949   0.285   5.397 -0.4198 -0.3918 -0.5395
 1956SOL    HW2 7596   0.951   0.364   5.344  0.5684 -0.3607 -0.4732
 1956SOL    HW3 7597   0.953   0.213   5.334 -1.1406 -0.3943 -0.5910
 1956SOL    MW4 7598   0.950   0.286   5.382 -0.3845 -0.3881 -0.5375
 1957SOL     OW 7599   2.147   5.923   0.989  0.4174  0.3316  0.0047
 1957SOL    HW2 7600   2.057   5.917   1.022  0.2936  0.3780 -0.3193
 1957SOL    HW3 7601   2.140   5.978   0.912  0.6990  0.1934 -0.1203
 1957SOL    MW4 7602   2.134   5.929   0.983  0.4382  0.3195 -0.0545
 1958SOL     OW 7603   4.906   3.767   0.831 -0.4618  0.2939 -0.2774
 1958SOL    HW2 7604   4.823   3.735   0.867 -1.9146  0.4701 -3.1841
 1958SOL    HW3 7605   4.892   3.861   0.817  0.4666  0.4543 -0.1830
 1958SOL    MW4 7606   4.893   3.775   0.834 -0.5310  0.3383 -0.6484
 1959SOL     OW 7607   2.321   0.952   5.752 -0.3466  0.2786 -0.4690
 1959SOL    HW2 7608   2.257   0.991   5.693  1.3017  1.1656 -1.7646
 1959SOL    HW3 7609   2.295   0.983   5.839  0.1018  3.2882 -1.2868
 1959SOL    MW4 7610   2.309   0.961   5.756 -0.0700  0.7927 -0.7478
 1960SOL     OW 7611   1.719   1.261   4.827 -0.1386  0.1983  0.2450
 1960SOL    HW2 7612   1.786   1.305   4.880 -1.0141  2.5339 -0.4660
 1960SOL    HW3 7613   1.640   1.265   4.881 -0.3957  0.1267 -0.1272
 1960SOL    MW4 7614   1.718   1.267   4.841 -0.2880  0.4970  0.1021
 1961SOL     OW 7615   4.273   4.921   4.434  0.4175 -0.6041 -0.5461
 1961SOL    HW2 7616   4.188   4.893   4.400  1.3803 -0.9651 -2.8030
 1961SOL    HW3 7617   4.327   4.843   4.431  1.1644 -0.1104 -0.2408
 1961SOL    MW4 7618   4.269   4.907   4.429  0.6431 -0.5866 -0.8036
 1962SOL     OW 7619   3.027   1.975   5.993  0.2172  0.4092  0.0014
 1962SOL    HW2 7620   2.975   1.898   6.017  2.1512 -1.9692 -2.7283
 1962SOL    HW3 7621   3.118   1.946   6.001  1.0023  2.0983 -1.9082
 1962SOL    MW4 7622   3.032   1.961   5.997  0.5759  0.3183 -0.6107
 1963SOL     OW 7623   1.516   3.944   3.641 -0.0285 -0.0337  0.0083
 1963SOL    HW2 7624   1.450   3.919   3.577  1.0299 -0.8698 -0.7896
 1963SOL    HW3 7625   1.473   3.932   3.726 -1.1185  0.1174 -0.5173
 1963SOL    MW4 7626   1.502   3.939   3.644 -0.0327 -0.1241 -0.1663
 1964SOL     OW 7627   1.694   0.153   2.414 -0.1400  0.5534  0.2693
 1964SOL    HW2 7628   1.690   0.232   2.359  0.0675  1.3021  1.2997
 1964SOL    HW3 7629   1.632   0.170   2.484 -0.6586 -0.5448  0.1027
 1964SOL    MW4 7630   1.685   0.166   2.416 -0.1811  0.5073  0.3833
 1965SOL     OW 7631   6.275   2.849   0.917  0.1776  0.2577 -0.1041
 1965SOL    HW2 7632   6.293   2.908   0.990 -0.1695  0.8728 -0.5014
 1965SOL    HW3 7633   6.349   2.788   0.916 -0.2227 -0.2698  1.2519
 1965SOL    MW4 7634   6.288   2.849   0.926  0.0790  0.2693  0.0224
 1966SOL     OW 7635   4.349   1.351   4.741  0.3404 -0.2206 -0.4054
 1966SOL    HW2 7636   4.327   1.437   4.777  0.3786  0.1922 -1.3476
 1966SOL    HW3 7637   4.278   1.294   4.770  0.8980 -0.1548  1.1984
 1966SOL    MW4 7638   4.337   1.355   4.749  0.4190 -0.1575 -0.3181
 1967SOL     OW 7639   0.956   2.764   1.674  0.1633 -0.7214 -0.3625
 1967SOL    HW2 7640   1.010   2.743   1.750  0.2925 -1.8939 -0.7575
 1967SOL    HW3 7641   0.996   2.716   1.602 -1.0156 -1.0775 -0.8083
 1967SOL    MW4 7642   0.968   2.755   1.674  0.0248 -0.9231 -0.4734
 1968SOL     OW 7643   3.891   6.024   5.285 -0.6445 -0.0087  0.3330
 1968SOL    HW2 7644   3.803   6.061   5.298 -0.7164 -0.6612  1.9983
 1968SOL    HW3 7645   3.880   5.931   5.303  0.9338  0.3379  3.8057
 1968SOL    MW4 7646   3.878   6.016   5.289 -0.4458 -0.0491  1.0109
 1969SOL     OW 7647   6.245   0.696   5.351 -0.5082  0.3977  0.0542
 1969SOL    HW2 7648   6.233   0.676   5.258  1.9150  1.4055 -0.5545
 1969SOL    HW3 7649   6.256   0.791   5.354  2.3723  0.1246  0.9166
 1969SOL    MW4 7650   6.244   0.706   5.339  0.1916  0.4946  0.0877
 1970SOL     OW 7651   4.376   0.505   6.200 -0.5413  0.6064  0.6019
 1970SOL    HW2 7652   4.420   0.439   6.253  0.6278  0.5051 -0.4528
 1970SOL    HW3 7653   4.433   0.582   6.205 -0.2490  0.4947 -0.7393
 1970SOL    MW4 7654   4.389   0.507   6.208 -0.3485  0.5783  0.2858
 1971SOL     OW 7655   5.607   3.819   0.152 -0.2791 -0.0020  0.1445
 1971SOL    HW2 7656   5.580   3.729   0.133 -1.8977  0.1360  1.5601
 1971SOL    HW3 7657   5.526   3.863   0.177  0.5999  1.6862  0.1286
 1971SOL    MW4 7658   5.593   3.813   0.153 -0.3767  0.2389  0.3292
 1972SOL     OW 7659   1.378   6.417   5.362  0.6936 -0.3744  0.2170
 1972SOL    HW2 7660   1.402   6.373   5.281 -1.6845 -1.0959 -0.1613
 1972SOL    HW3 7661   1.284   6.406   5.369  0.3647  2.3421  1.5369
 1972SOL    MW4 7662   1.369   6.410   5.352  0.3365 -0.1112  0.3412
 1973SOL     OW 7663   0.599   2.474   4.583 -0.5185  0.9981  0.9896
 1973SOL    HW2 7664   0.527   2.499   4.524  1.0526  2.4896 -0.4272
 1973SOL    HW3 7665   0.556   2.432   4.657 -2.9040  2.3637  0.4955
 1973SOL    MW4 7666   0.583   2.472   4.585 -0.6260  1.3750  0.7375
 1974SOL     OW 7667   5.180   5.250   5.090  0.7522 -0.2281  0.1809
 1974SOL    HW2 7668   5.182   5.288   5.003  0.9164  1.0224  0.7047
 1974SOL    HW3 7669   5.139   5.165   5.079 -0.2334  0.3764 -0.9370
 1974SOL    MW4 7670   5.175   5.244   5.077  0.6438  0.0167  0.1025
 1975SOL     OW 7671   4.562   5.060   4.957  0.7221  0.0398  0.0561
 1975SOL    HW2 7672   4.646   5.016   4.945  0.6362  0.2267 -1.5415
 1975SOL    HW3 7673   4.498   4.997   4.924  0.3929  0.4743 -0.1389
 1975SOL    MW4 7674   4.565   5.046   4.951  0.6673  0.1218 -0.1804
 1976SOL     OW 7675   2.259   5.265   2.188  0.3682  0.6244  0.0903
 1976SOL    HW2 7676   2.288   5.299   2.103  0.5093 -1.6673 -0.8579
 1976SOL    HW3 7677   2.293   5.328   2.252  0.7628  2.1071 -1.4953
 1976SOL    MW4 7678   2.268   5.278   2.185  0.4389  0.5177 -0.2440
 1977SOL     OW 7679   2.582   1.597   1.196  0.4999  0.2241  0.5989
 1977SOL    HW2 7680   2.564   1.584   1.289  1.6454 -1.6431  0.6139
 1977SOL    HW3 7681   2.503   1.565   1.152  1.0339 -1.5565  0.8718
 1977SOL    MW4 7682   2.569   1.591   1.203  0.7215 -0.2571  0.6369
 1978SOL     OW 7683   0.912   1.343   1.666 -0.4473 -0.5121  0.0461
 1978SOL    HW2 7684   0.914   1.372   1.758 -0.5199 -1.1464  0.2498
 1978SOL    HW3 7685   0.820   1.324   1.649 -0.9092  2.1516 -0.9829
 1978SOL    MW4 7686   0.900   1.345   1.676 -0.5178 -0.2443 -0.0628
 1979SOL     OW 7687   2.025   2.296   5.063  0.3162  0.0469 -0.6678
 1979SOL    HW2 7688   2.099   2.236   5.055  0.1393 -0.4660  1.0881
 1979SOL    HW3 7689   2.063   2.381   5.083  0.5124  0.3272 -2.1041
 1979SOL    MW4 7690   2.040   2.299   5.064  0.3188  0.0162 -0.6256
 1980SOL     OW 7691   2.149   1.550   4.951 -0.2433 -0.8780 -0.0093
 1980SOL    HW2 7692   2.223   1.497   4.980  0.4077 -1.6552 -2.7928
 1980SOL    HW3 7693   2.073   1.511   4.994  0.8828  0.0607  3.0745
 1980SOL    MW4 7694   2.149   1.538   4.960 -0.0089 -0.8567  0.0303
 1981SOL     OW 7695   5.137   4.405   2.687  0.4266 -0.2419 -0.0527
 1981SOL    HW2 7696   5.216   4.360   2.719  0.9470  0.3768 -0.4508
 1981SOL    HW3 7697   5.169   4.489   2.654 -0.5067  0.3492  0.5064
 1981SOL    MW4 7698   5.152   4.410   2.687  0.3721 -0.0823 -0.0315
 1982SOL     OW 7699   2.124   4.447   5.480  0.1353 -0.6017 -0.0515
 1982SOL    HW2 7700   2.065   4.504   5.430  1.0133  0.0657 -0.3570
 1982SOL    HW3 7701   2.084   4.442   5.567 -1.0728 -1.2603 -0.6240
 1982SOL    MW4 7702   2.111   4.454   5.485  0.0917 -0.6005 -0.1673
 1983SOL     OW 7703   1.022   1.888   2.595 -0.0118 -0.0075  0.2366
 1983SOL    HW2 7704   1.025   1.975   2.557 -1.2935  0.1846  0.5085
 1983SOL    HW3 7705   1.113   1.861   2.603  0.4697  1.7914  1.2618
 1983SOL    MW4 7706   1.034   1.896   2.591 -0.1174  0.2552  0.4077
 1984SOL     OW 7707   6.099   1.183   1.795  0.5458 -0.0189 -0.3341
 1984SOL    HW2 7708   6.122   1.090   1.800  0.3391 -0.1009 -0.8295
 1984SOL    HW3 7709   6.066   1.195   1.706 -0.6618  0.2462  0.1316
 1984SOL    MW4 7710   6.098   1.172   1.784  0.3592  0.0052 -0.3380
 1985SOL     OW 7711   2.907   1.245   3.493 -0.3884 -0.1661  0.0202
 1985SOL    HW2 7712   2.868   1.186   3.428 -0.1415  0.3062 -0.5594
 1985SOL    HW3 7713   2.933   1.187   3.565 -0.6770 -0.6920 -0.2935
 1985SOL    MW4 7714   2.905   1.229   3.494 -0.3939 -0.1732 -0.0977
 1986SOL     OW 7715   5.830   3.470   4.043  0.4097 -0.8607  0.0193
 1986SOL    HW2 7716   5.923   3.461   4.023  0.5791 -1.8050  1.0955
 1986SOL    HW3 7717   5.807   3.387   4.085 -0.4386  0.1166  1.5651
 1986SOL    MW4 7718   5.839   3.457   4.046  0.3202 -0.8564  0.3653
 1987SOL     OW 7719   1.892   0.215   3.718 -0.1219  0.0061 -0.0430
 1987SOL    HW2 7720   1.902   0.156   3.793  0.2838  1.9325  1.4854
 1987SOL    HW3 7721   1.979   0.250   3.702  0.2406 -1.7972 -2.7597
 1987SOL    MW4 7722   1.905   0.212   3.726 -0.0206  0.0224 -0.1998
 1988SOL     OW 7723   4.493   5.376   3.387  0.0937 -0.9000  0.0391
 1988SOL    HW2 7724   4.401   5.377   3.359  0.0028  1.3832  0.2850
 1988SOL    HW3 7725   4.541   5.348   3.309 -0.6100  0.2885 -0.8538
 1988SOL    MW4 7726   4.487   5.372   3.373 -0.0112 -0.4420 -0.0463
 1989SOL     OW 7727   3.285   4.859   1.561  0.0432  0.2476 -0.8690
 1989SOL    HW2 7728   3.378   4.862   1.541  0.4170 -0.7151  0.5946
 1989SOL    HW3 7729   3.264   4.948   1.591  0.1605  0.8325 -2.4506
 1989SOL    MW4 7730   3.294   4.871   1.562  0.1080  0.1978 -0.8846
 1990SOL     OW 7731   3.205   6.298   5.241 -0.4237  0.1141 -0.1668
 1990SOL    HW2 7732   3.116   6.266   5.252 -0.4267  0.0165 -0.4786
 1990SOL    HW3 7733   3.234   6.262   5.157 -0.5251  1.1299 -0.6602
 1990SOL    MW4 7734   3.198   6.289   5.231 -0.4374  0.2353 -0.2730
 1991SOL     OW 7735   0.176   2.833   5.783  0.4672 -0.2040  0.3847
 1991SOL    HW2 7736   0.082   2.852   5.789  0.3704 -0.4070 -0.3534
 1991SOL    HW3 7737   0.217   2.895   5.843 -0.1724 -0.4149  1.0572
 1991SOL    MW4 7738   0.169   2.843   5.791  0.3700 -0.2586  0.3761
 1992SOL     OW 7739   5.541   4.937   3.349  0.5165  0.0333 -0.0280
 1992SOL    HW2 7740   5.621   4.899   3.312  0.5196  0.1949 -0.1884
 1992SOL    HW3 7741   5.541   4.907   3.440  1.5432  1.2310  0.4079
 1992SOL    MW4 7742   5.552   4.928   3.356  0.6524  0.2126  0.0084
 1993SOL     OW 7743   4.058   0.920   0.513 -0.6819 -0.2693  0.3048
 1993SOL    HW2 7744   4.020   1.008   0.523  1.4115  0.8068 -0.5375
 1993SOL    HW3 7745   4.010   0.866   0.576 -1.2912  1.7175  1.6572
 1993SOL    MW4 7746   4.046   0.925   0.522 -0.4861  0.1348  0.3721
 1994SOL     OW 7747   0.364   5.738   5.975  0.2045 -0.4780 -0.2082
 1994SOL    HW2 7748   0.357   5.787   6.057 -0.1750 -1.2063  0.2024
 1994SOL    HW3 7749   0.405   5.799   5.914 -0.5899  0.4897  0.1930
 1994SOL    MW4 7750   0.368   5.753   5.978  0.0496 -0.4464 -0.1011
 1995SOL     OW 7751   5.027   2.164   1.824 -0.3099  0.2570  0.4422
 1995SOL    HW2 7752   5.041   2.072   1.848 -0.1538 -0.4280 -1.9902
 1995SOL    HW3 7753   5.112   2.206   1.837 -0.3529  0.0423  1.4569
 1995SOL    MW4 7754   5.040   2.157   1.829 -0.2950  0.1383  0.2552
 1996SOL     OW 7755   1.717   4.938   2.679 -0.4294  0.2291  0.0603
 1996SOL    HW2 7756   1.769   4.976   2.750 -0.4969 -0.2124  0.3516
 1996SOL    HW3 7757   1.677   4.860   2.717 -3.3784  1.8626  0.6329
 1996SOL    MW4 7758   1.719   4.932   2.693 -0.8274  0.3864  0.1743
 1997SOL     OW 7759   3.680   4.984   5.357 -0.1031  0.1166 -0.0741
 1997SOL    HW2 7760   3.643   4.997   5.270  0.1428  2.4649  0.0934
 1997SOL    HW3 7761   3.605   4.988   5.416 -0.1863 -0.7660 -0.1059
 1997SOL    MW4 7762   3.665   4.986   5.354 -0.0817  0.3100 -0.0562
 1998SOL     OW 7763   0.425   0.688   0.017  0.2442 -0.0452  0.4364
 1998SOL    HW2 7764   0.384   0.610   0.056 -1.6772  0.9929  0.6001
 1998SOL    HW3 7765   0.411   0.678  -0.077 -1.1838  0.7025  0.5486
 1998SOL    MW4 7766   0.418   0.676   0.010 -0.1977  0.1904  0.4728
 1999SOL     OW 7767   0.923   1.135   4.299  0.0760 -0.8655 -0.3163
 1999SOL    HW2 7768   0.841   1.118   4.346 -0.0566 -0.0749 -0.2507
 1999SOL    HW3 7769   0.916   1.084   4.219 -0.5367 -0.7118 -0.3672
 1999SOL    MW4 7770   0.911   1.126   4.295 -0.0223 -0.7409 -0.3144
 2000SOL     OW 7771   0.233   2.581   4.903 -0.2700  0.3346 -0.1790
 2000SOL    HW2 7772   0.228   2.636   4.825  0.6347  0.9693  0.1996
 2000SOL    HW3 7773   0.142   2.574   4.933 -0.4647  1.1416 -0.5570
 2000SOL    MW4 7774   0.220   2.587   4.897 -0.1763  0.5248 -0.1790
 2001SOL     OW 7775   3.455   0.485   2.505  0.5124  0.0561  0.6523
 2001SOL    HW2 7776   3.453   0.567   2.553 -0.1745 -1.2498  3.0103
 2001SOL    HW3 7777   3.399   0.426   2.556 -1.1981 -1.1627 -2.3512
 2001SOL    MW4 7778   3.447   0.488   2.518  0.1961 -0.2770  0.5671
 2002SOL     OW 7779   2.406   5.040   3.889  0.4607 -0.1064 -0.8034
 2002SOL    HW2 7780   2.437   5.093   3.815  2.0260 -1.6240 -1.3057
 2002SOL    HW3 7781   2.484   4.994   3.919  0.0496  0.9906  2.3318
 2002SOL    MW4 7782   2.420   5.041   3.883  0.6130 -0.1619 -0.4560
 2003SOL     OW 7783   5.984   5.970   2.424 -0.0097  0.1257 -0.1788
 2003SOL    HW2 7784   5.997   5.944   2.515 -2.6439  0.1158  0.2970
 2003SOL    HW3 7785   6.031   5.905   2.373  1.5344  0.1443  1.1533
 2003SOL    MW4 7786   5.992   5.958   2.429 -0.1536  0.1269  0.0598
 2004SOL     OW 7787   1.994   0.689   2.383  0.0570  0.4755  0.8719
 2004SOL    HW2 7788   2.087   0.703   2.363  0.1362 -0.4630  0.4962
 2004SOL    HW3 7789   1.994   0.612   2.440 -0.5316  0.1289  0.4056
 2004SOL    MW4 7790   2.006   0.681   2.388 -0.0102  0.3060  0.7608
 2005SOL     OW 7791   0.118   5.967   1.071 -0.2103 -0.5283  0.1106
 2005SOL    HW2 7792   0.191   6.029   1.076 -2.2090  2.0658 -0.2984
 2005SOL    HW3 7793   0.102   5.942   1.162  1.7961 -2.0324  0.1145
 2005SOL    MW4 7794   0.125   5.972   1.084 -0.2093 -0.3845  0.0572
 2006SOL     OW 7795   1.810   5.860   0.031 -0.0561 -0.5908  0.5072
 2006SOL    HW2 7796   1.746   5.802   0.072 -1.7474 -0.4734 -1.7922
 2006SOL    HW3 7797   1.817   5.829  -0.059  0.3097  1.6789 -0.3195
 2006SOL    MW4 7798   1.802   5.848   0.025 -0.2310 -0.2759  0.0947
 2007SOL     OW 7799   1.723   2.991   3.278  0.4084 -0.0260  0.0190
 2007SOL    HW2 7800   1.636   3.015   3.247  0.2188 -1.4732 -0.6722
 2007SOL    HW3 7801   1.778   2.992   3.200  0.9423  0.5767  0.3985
 2007SOL    MW4 7802   1.719   2.994   3.264  0.4539 -0.1374 -0.0221
 2008SOL     OW 7803   1.160   2.379   3.161  0.0690 -0.6963  0.4791
 2008SOL    HW2 7804   1.092   2.415   3.103  1.2934 -0.8425 -1.1133
 2008SOL    HW3 7805   1.212   2.455   3.187 -0.6650 -0.5864  1.6897
 2008SOL    MW4 7806   1.158   2.394   3.157  0.1337 -0.7011  0.4287
 2009SOL     OW 7807   4.055   4.816   2.566  0.0265  0.0180  0.4696
 2009SOL    HW2 7808   4.085   4.895   2.520 -3.6035 -0.4117 -3.1789
 2009SOL    HW3 7809   4.017   4.849   2.647 -0.9688  2.0228 -0.7449
 2009SOL    MW4 7810   4.054   4.831   2.571 -0.5838  0.2258 -0.1720
 2010SOL     OW 7811   5.400   4.623   5.092 -0.2753 -0.2076 -0.2192
 2010SOL    HW2 7812   5.435   4.651   5.008  0.8395  0.4519  0.4296
 2010SOL    HW3 7813   5.310   4.654   5.093 -0.0595  0.4624 -0.8648
 2010SOL    MW4 7814   5.393   4.631   5.081 -0.0998 -0.0322 -0.2188
 2011SOL     OW 7815   4.861   2.349   2.848 -0.4037  0.5105 -0.8180
 2011SOL    HW2 7816   4.863   2.417   2.782  0.1703 -0.7097 -2.1133
 2011SOL    HW3 7817   4.768   2.333   2.865 -0.6788 -0.8206 -3.1738
 2011SOL    MW4 7818   4.849   2.356   2.842 -0.3642  0.1739 -1.2997
 2012SOL     OW 7819   5.543   0.318   6.336  0.5217  0.1571 -0.1062
 2012SOL    HW2 7820   5.612   0.356   6.282 -0.8555  1.5451 -0.9770
 2012SOL    HW3 7821   5.489   0.392   6.363 -1.4561 -0.9691 -0.6734
 2012SOL    MW4 7822   5.545   0.333   6.332  0.0791  0.1917 -0.2960
 2013SOL     OW 7823   5.317   6.346   5.674  0.5181 -0.2087  0.4250
 2013SOL    HW2 7824   5.328   6.419   5.613 -0.3321 -0.3525  0.0861
 2013SOL    HW3 7825   5.371   6.369   5.749  0.7690  0.4595  0.0474
 2013SOL    MW4 7826   5.326   6.358   5.676  0.4390 -0.1395  0.3304
 2014SOL     OW 7827   6.440   5.973   5.676  0.7387 -0.4450 -0.0663
 2014SOL    HW2 7828   6.360   5.948   5.629 -0.7476 -0.1355  2.1162
 2014SOL    HW3 7829   6.458   5.898   5.733  0.0496  0.7509  1.8120
 2014SOL    MW4 7830   6.432   5.960   5.677  0.4517 -0.2464  0.4695
 2015SOL     OW 7831   0.126   1.027   6.325 -0.0787 -0.2066  0.6396
 2015SOL    HW2 7832   0.135   0.958   6.260  1.0573  0.3214  0.2145
 2015SOL    HW3 7833   0.135   1.108   6.275 -0.4160  0.2368  1.2819
 2015SOL    MW4 7834   0.128   1.029   6.310  0.0267 -0.0784  0.6683
 2016SOL     OW 7835   0.357   6.224   4.359  0.4035 -0.6159  0.3857
 2016SOL    HW2 7836   0.452   6.216   4.371  0.1517 -2.0964  1.7807
 2016SOL    HW3 7837   0.328   6.281   4.430  0.5355  2.4286 -1.8115
 2016SOL    MW4 7838   0.366   6.230   4.370  0.3877 -0.4096  0.2799
 2017SOL     OW 7839   3.443   2.894   0.790  0.4580 -0.2612  0.2456
 2017SOL    HW2 7840   3.366   2.890   0.733  0.1383  1.2386  0.5276
 2017SOL    HW3 7841   3.429   2.824   0.855  0.0384 -0.9175 -0.5359
 2017SOL    MW4 7842   3.431   2.884   0.791  0.3604 -0.1499  0.1797
 2018SOL     OW 7843   3.935   3.932   0.040 -0.5994  0.6288  0.1165
 2018SOL    HW2 7844   3.984   3.973  -0.032  1.9042 -0.2694  1.1922
 2018SOL    HW3 7845   3.959   3.983   0.117 -0.6922 -0.3616  0.8130
 2018SOL    MW4 7846   3.945   3.944   0.040 -0.2813  0.3796  0.3503
 2019SOL     OW 7847   1.104   4.559   3.068  0.7435  0.3361 -0.2126
 2019SOL    HW2 7848   1.149   4.579   2.986  0.0352 -1.6258 -1.1316
 2019SOL    HW3 7849   1.172   4.565   3.135  1.9045 -0.4130 -1.2821
 2019SOL    MW4 7850   1.119   4.562   3.066  0.8032 -0.0216 -0.4750
 2020SOL     OW 7851   1.862   3.317   4.394  0.1592 -0.0281 -0.4766
 2020SOL    HW2 7852   1.805   3.384   4.358  0.6374  0.7505  0.1776
 2020SOL    HW3 7853   1.805   3.242   4.411 -0.8841  1.0413  1.0344
 2020SOL    MW4 7854   1.847   3.316   4.392  0.0846  0.2157 -0.1909
 2021SOL     OW 7855   0.155   5.624   3.379 -0.1834  0.1097  0.0202
 2021SOL    HW2 7856   0.244   5.658   3.378 -1.3807  3.6270  0.2533
 2021SOL    HW3 7857   0.117   5.659   3.460 -1.6513 -1.7948  0.2357
 2021SOL    MW4 7858   0.161   5.633   3.390 -0.5351  0.3225  0.0794
 2022SOL     OW 7859   0.296   5.242   0.288 -0.4902  0.2261  0.7056
 2022SOL    HW2 7860   0.319   5.334   0.299  0.1933  0.3107 -1.0734
 2022SOL    HW3 7861   0.233   5.242   0.216 -0.8263 -0.6624  0.9890
 2022SOL    MW4 7862   0.290   5.254   0.280 -0.4443  0.1200  0.5083
 2023SOL     OW 7863   2.379   3.214   5.494  0.4418 -0.0614  0.4168
 2023SOL    HW2 7864   2.334   3.151   5.550  2.4422 -0.5642  1.5829
 2023SOL    HW3 7865   2.450   3.163   5.454  0.9870  1.0355 -0.0490
 2023SOL    MW4 7866   2.383   3.199   5.496  0.7776  0.0170  0.5092
 2024SOL     OW 7867   4.903   0.896   5.879 -0.7318  0.1129  0.2521
 2024SOL    HW2 7868   4.927   0.971   5.825 -1.8651  0.7351  0.5857
 2024SOL    HW3 7869   4.954   0.823   5.843 -1.1957  0.5819 -1.4320
 2024SOL    MW4 7870   4.913   0.896   5.867 -0.9426  0.2569  0.0740
 2025SOL     OW 7871   5.116   2.558   5.302  0.2171 -0.0002  0.9164
 2025SOL    HW2 7872   5.113   2.463   5.287  0.7294 -0.1201  1.5212
 2025SOL    HW3 7873   5.097   2.568   5.395 -0.0307  0.5070  0.8137
 2025SOL    MW4 7874   5.113   2.546   5.313  0.2520  0.0509  0.9827
 2026SOL     OW 7875   2.247   6.076   4.083 -0.4215 -0.3704  0.8153
 2026SOL    HW2 7876   2.211   6.165   4.090 -0.3475 -0.3836  1.4382
 2026SOL    HW3 7877   2.171   6.019   4.073 -0.5738 -0.3747  1.8794
 2026SOL    MW4 7878   2.232   6.081   4.083 -0.4319 -0.3727  1.0379
 2027SOL     OW 7879   1.733   3.499   1.601  0.0655  0.0017  0.0634
 2027SOL    HW2 7880   1.718   3.515   1.507  0.8254 -0.6046 -0.1768
 2027SOL    HW3 7881   1.757   3.406   1.605 -0.3215 -0.0671  0.9139
 2027SOL    MW4 7882   1.734   3.489   1.589  0.1147 -0.0874  0.1439
 2028SOL     OW 7883   3.879   4.611   2.595 -0.1168  0.4659 -0.1204
 2028SOL    HW2 7884   3.801   4.665   2.582 -0.1024  0.3426 -0.7728
 2028SOL    HW3 7885   3.952   4.672   2.585 -0.1059  0.3719 -0.6636
 2028SOL    MW4 7886   3.879   4.626   2.592 -0.1135  0.4372 -0.2782
 2029SOL     OW 7887   5.139   3.993   2.127  0.5273 -0.0461  0.3059
 2029SOL    HW2 7888   5.181   3.909   2.111 -0.3396 -0.4470  0.0608
 2029SOL    HW3 7889   5.151   4.008   2.221  1.7526  0.1639  0.1306
 2029SOL    MW4 7890   5.146   3.984   2.137  0.5746 -0.0713  0.2504
 2030SOL     OW 7891   1.859   0.364   1.605 -0.3651  0.1459 -0.3543
 2030SOL    HW2 7892   1.814   0.357   1.521  0.8343  2.3218 -1.2603
 2030SOL    HW3 7893   1.789   0.373   1.670 -1.2949 -1.1307 -1.1284
 2030SOL    MW4 7894   1.844   0.364   1.603 -0.3296  0.2645 -0.5760
 2031SOL     OW 7895   5.943   2.879   5.771 -0.1336 -0.4495  0.5073
 2031SOL    HW2 7896   5.868   2.882   5.711  1.3163 -0.1210 -1.3625
 2031SOL    HW3 7897   5.903   2.870   5.857 -2.2910 -1.9694 -0.5441
 2031SOL    MW4 7898   5.928   2.878   5.774 -0.2270 -0.6067  0.1218
 2032SOL     OW 7899   5.674   4.316   5.248  0.1244 -0.3810  0.6143
 2032SOL    HW2 7900   5.688   4.266   5.329 -1.3863 -1.3980  0.2729
 2032SOL    HW3 7901   5.615   4.387   5.274  0.0203 -0.4266  0.5008
 2032SOL    MW4 7902   5.668   4.319   5.262 -0.0886 -0.5212  0.5543
 2033SOL     OW 7903   5.665   3.047   3.954 -0.0157 -0.4330 -0.0408
 2033SOL    HW2 7904   5.583   3.076   3.914  1.3580 -0.1909 -2.9087
 2033SOL    HW3 7905   5.694   3.120   4.008 -1.3881 -0.3231  0.5730
 2033SOL    MW4 7906   5.658   3.060   3.956 -0.0155 -0.3866 -0.3382
 2034SOL     OW 7907   4.471   4.153   5.769 -0.5597  0.3455 -1.1548
 2034SOL    HW2 7908   4.507   4.106   5.844  1.6537 -0.6658 -2.7582
 2034SOL    HW3 7909   4.433   4.232   5.806 -0.5860 -0.6715  1.1429
 2034SOL    MW4 7910   4.470   4.157   5.784 -0.2712  0.0779 -1.0632
 2035SOL     OW 7911   5.187   5.968   2.798  0.0244  0.1219 -0.0848
 2035SOL    HW2 7912   5.189   5.942   2.891 -0.7253  0.9896  0.1931
 2035SOL    HW3 7913   5.101   5.940   2.767 -0.4940  1.5179  0.0166
 2035SOL    MW4 7914   5.176   5.961   2.807 -0.1429  0.4206 -0.0348
 2036SOL     OW 7915   3.227   4.901   2.187  0.4471  0.2802 -0.2007
 2036SOL    HW2 7916   3.138   4.868   2.175  0.2351  1.0231 -0.7491
 2036SOL    HW3 7917   3.248   4.944   2.105  1.6945 -0.7267 -0.4464
 2036SOL    MW4 7918   3.218   4.902   2.175  0.5837  0.2453 -0.3055
 2037SOL     OW 7919   4.659   4.546   5.450 -0.5163 -0.1244  0.4663
 2037SOL    HW2 7920   4.609   4.477   5.493 -1.6382  0.3518 -0.0509
 2037SOL    HW3 7921   4.682   4.607   5.520  1.4548 -1.5258  1.1466
 2037SOL    MW4 7922   4.656   4.545   5.464 -0.4043 -0.2465  0.4878
 2038SOL     OW 7923   5.855   3.945   2.791  0.4098  0.3042 -0.4310
 2038SOL    HW2 7924   5.844   3.968   2.884 -1.4882  1.2482 -0.8449
 2038SOL    HW3 7925   5.923   4.005   2.760  0.9189  0.1207  0.2867
 2038SOL    MW4 7926   5.863   3.956   2.799  0.2266  0.4046 -0.3909
 2039SOL     OW 7927   5.594   2.244   0.911  0.3902  0.3686  0.1307
 2039SOL    HW2 7928   5.635   2.312   0.964  0.7617 -0.9828  1.6594
 2039SOL    HW3 7929   5.645   2.165   0.930  0.1472 -0.3093 -1.8040
 2039SOL    MW4 7930   5.606   2.243   0.921  0.4071  0.1008  0.0771
 2040SOL     OW 7931   4.539   4.619   2.866 -0.4178 -0.5765  0.3065
 2040SOL    HW2 7932   4.543   4.531   2.904  0.0583 -0.5697  0.2830
 2040SOL    HW3 7933   4.446   4.637   2.856 -0.5358 -0.8090  0.9441
 2040SOL    MW4 7934   4.527   4.610   2.870 -0.3706 -0.6063  0.3875
 2041SOL     OW 7935   1.571   2.719   4.591  0.5652 -0.1507 -0.0741
 2041SOL    HW2 7936   1.524   2.636   4.583 -0.2659  0.3672 -0.8091
 2041SOL    HW3 7937   1.623   2.710   4.670  1.4331 -1.8354 -0.7819
 2041SOL    MW4 7938   1.572   2.707   4.600  0.5701 -0.3047 -0.2645
 2042SOL     OW 7939   0.729   1.590   2.606 -0.2342 -0.0012 -0.7043
 2042SOL    HW2 7940   0.744   1.599   2.700  0.0547 -0.1021 -0.7406
 2042SOL    HW3 7941   0.708   1.679   2.577 -1.7247 -0.1900 -0.3098
 2042SOL    MW4 7942   0.728   1.603   2.614 -0.3927 -0.0394 -0.6571
 2043SOL     OW 7943   1.836   2.571   3.252 -0.5490 -0.3682  0.3424
 2043SOL    HW2 7944   1.894   2.641   3.223  0.1710  0.1418  2.7401
 2043SOL    HW3 7945   1.775   2.614   3.313 -1.7184 -1.3868 -0.0627
 2043SOL    MW4 7946   1.835   2.586   3.256 -0.6083 -0.4353  0.6053
 2044SOL     OW 7947   0.643   4.285   3.373 -0.6273 -0.1955  0.1527
 2044SOL    HW2 7948   0.646   4.350   3.302 -0.2115 -0.7310 -0.3317
 2044SOL    HW3 7949   0.668   4.334   3.451  0.6103  0.0320 -0.3649
 2044SOL    MW4 7950   0.647   4.300   3.374 -0.4091 -0.2361  0.0205
 2045SOL     OW 7951   6.403   2.212   0.305 -0.7449  0.4091  0.5644
 2045SOL    HW2 7952   6.421   2.127   0.264 -2.0723  0.1419  0.4908
 2045SOL    HW3 7953   6.397   2.273   0.232 -0.0912  0.5237  0.5970
 2045SOL    MW4 7954   6.405   2.209   0.290 -0.8338  0.3890  0.5590
 2046SOL     OW 7955   2.801   4.297   0.553 -0.2367  0.1821 -0.0061
 2046SOL    HW2 7956   2.794   4.377   0.606 -0.5130 -0.7663  1.4378
 2046SOL    HW3 7957   2.802   4.226   0.617 -1.0432 -1.0416 -1.3059
 2046SOL    MW4 7958   2.801   4.298   0.569 -0.3796 -0.1045  0.0129
 2047SOL     OW 7959   2.773   5.341   5.302  0.6054 -0.2238  0.0175
 2047SOL    HW2 7960   2.836   5.406   5.334 -0.5471 -0.0286  2.0476
 2047SOL    HW3 7961   2.749   5.372   5.215  0.9099  1.4708  0.4960
 2047SOL    MW4 7962   2.778   5.354   5.295  0.4935  0.0256  0.3485
 2048SOL     OW 7963   0.478   1.632   1.887 -0.1062  0.1714 -0.1793
 2048SOL    HW2 7964   0.439   1.716   1.909 -0.7663  0.2750 -1.6233
 2048SOL    HW3 7965   0.541   1.652   1.818 -0.0252 -0.4723 -0.2998
 2048SOL    MW4 7966   0.481   1.646   1.881 -0.1826  0.1001 -0.3858
 2049SOL     OW 7967   5.594   5.677   6.284 -0.4840  0.0557 -0.8299
 2049SOL    HW2 7968   5.587   5.742   6.354  0.2388  0.5772 -1.2353
 2049SOL    HW3 7969   5.524   5.614   6.304 -0.3177  0.2100  0.3347
 2049SOL    MW4 7970   5.584   5.677   6.296 -0.3667  0.1449 -0.7297
 2050SOL     OW 7971   1.415   3.691   6.139 -0.7875  0.0732  0.3266
 2050SOL    HW2 7972   1.490   3.716   6.087 -2.0188  0.3716 -1.3783
 2050SOL    HW3 7973   1.447   3.619   6.194  1.0099  0.9447  0.4933
 2050SOL    MW4 7974   1.429   3.685   6.140 -0.7128  0.2276  0.1236
 2051SOL     OW 7975   5.522   0.610   4.030  0.2204  0.2892 -0.4641
 2051SOL    HW2 7976   5.472   0.606   4.112  0.3628  1.9251 -0.2618
 2051SOL    HW3 7977   5.469   0.561   3.967 -0.0358 -0.7379  0.5205
 2051SOL    MW4 7978   5.508   0.603   4.033  0.2054  0.3695 -0.3075
 2052SOL     OW 7979   5.353   0.306   0.366  0.4127  0.3429 -0.2347
 2052SOL    HW2 7980   5.275   0.359   0.378  0.1061 -0.2921  0.6637
 2052SOL    HW3 7981   5.324   0.233   0.310  0.1004 -0.4136  0.8839
 2052SOL    MW4 7982   5.339   0.303   0.360  0.3310  0.1593  0.0314
 2053SOL     OW 7983   3.194   5.179   1.394  0.0815  0.4755 -0.1049
 2053SOL    HW2 7984   3.205   5.274   1.394  0.5478  0.4263 -0.1294
 2053SOL    HW3 7985   3.238   5.150   1.474  2.1631  0.0635 -1.3229
 2053SOL    MW4 7986   3.201   5.188   1.405  0.4176  0.4147 -0.2689
 2054SOL     OW 7987   4.774   1.495   4.052 -0.2899  0.1281  0.0028
 2054SOL    HW2 7988   4.743   1.554   4.121 -1.7536 -1.2936  0.6120
 2054SOL    HW3 7989   4.711   1.506   3.981 -0.3957 -0.4724  0.0002
 2054SOL    MW4 7990   4.762   1.504   4.052 -0.4970 -0.1387  0.0828
 2055SOL     OW 7991   3.723   5.151   3.019 -0.1583 -0.5568  0.4907
 2055SOL    HW2 7992   3.707   5.108   2.935  1.1165 -1.9535  0.9068
 2055SOL    HW3 7993   3.811   5.188   3.010 -0.3220 -0.0502  0.9441
 2055SOL    MW4 7994   3.733   5.150   3.007 -0.0117 -0.6742  0.6054
 2056SOL     OW 7995   0.848   6.366   3.031 -0.4234  0.4844  0.3627
 2056SOL    HW2 7996   0.830   6.372   2.938 -1.6705  0.1595  0.5700
 2056SOL    HW3 7997   0.794   6.434   3.071  0.2873  0.7841  0.8327
 2056SOL    MW4 7998   0.839   6.376   3.024 -0.4942  0.4811  0.4521
 2057SOL     OW 7999   1.001   4.675   4.659  0.4033 -0.2302 -0.2567
 2057SOL    HW2 8000   1.007   4.769   4.644 -1.4909  0.6397  3.4598
 2057SOL    HW3 8001   1.080   4.653   4.709  0.2863 -0.3998 -0.1447
 2057SOL    MW4 8002   1.012   4.684   4.664  0.1380 -0.1378  0.2484
 2058SOL     OW 8003   0.427   2.894   2.289  0.2485 -0.0342  0.0273
 2058SOL    HW2 8004   0.499   2.945   2.252 -0.6427  1.4034  0.1873
 2058SOL    HW3 8005   0.389   2.951   2.356 -1.1613 -0.6519 -0.2023
 2058SOL    MW4 8006   0.431   2.908   2.293 -0.0551  0.0740  0.0181
 2059SOL     OW 8007   5.754   4.349   2.610 -0.4396 -0.3192  0.5424
 2059SOL    HW2 8008   5.678   4.310   2.568 -0.6580  0.3726  0.2697
 2059SOL    HW3 8009   5.746   4.325   2.703 -1.5444  0.5681  0.7013
 2059SOL    MW4 8010   5.743   4.341   2.617 -0.6142 -0.1109  0.5274
 2060SOL     OW 8011   4.744   5.970   2.088  0.7569 -0.6779 -0.2410
 2060SOL    HW2 8012   4.825   6.019   2.073  0.5774 -0.9428 -2.4001
 2060SOL    HW3 8013   4.760   5.884   2.049  0.8207 -2.2186  2.8893
 2060SOL    MW4 8014   4.757   5.965   2.081  0.7416 -0.9162 -0.1129
 2061SOL     OW 8015   0.017   2.647   1.821  0.2794 -0.0488 -0.0765
 2061SOL    HW2 8016   0.008   2.711   1.750  0.3526  0.9631  0.8035
 2061SOL    HW3 8017  -0.031   2.687   1.894 -1.9213 -2.1719 -0.2380
 2061SOL    MW4 8018   0.009   2.661   1.821 -0.0013 -0.1954  0.0183
 2062SOL     OW 8019   3.599   5.656   6.195 -0.0086 -0.1877  0.0055
 2062SOL    HW2 8020   3.604   5.639   6.289  0.8828 -3.1030 -0.4695
 2062SOL    HW3 8021   3.506   5.651   6.174 -0.1453 -0.1976  0.6121
 2062SOL    MW4 8022   3.588   5.653   6.205  0.0910 -0.5736  0.0229
 2063SOL     OW 8023   3.450   2.904   2.307 -0.5507  0.2351  0.1576
 2063SOL    HW2 8024   3.436   2.830   2.249 -0.0397 -0.7040  1.1888
 2063SOL    HW3 8025   3.380   2.966   2.285 -0.3699 -0.0907 -1.4133
 2063SOL    MW4 8026   3.439   2.903   2.297 -0.4594  0.0682  0.0864
 2064SOL     OW 8027   4.982   4.728   3.539 -0.1213 -0.4661  0.3874
 2064SOL    HW2 8028   5.076   4.737   3.524  0.2462 -2.4896  1.1109
 2064SOL    HW3 8029   4.945   4.813   3.516  1.9005  0.4162  0.2281
 2064SOL    MW4 8030   4.990   4.740   3.534  0.1939 -0.6167  0.4619
 2065SOL     OW 8031   0.129   0.050   6.381 -0.4935  0.1513  0.1853
 2065SOL    HW2 8032   0.071   0.058   6.457 -0.5011 -0.1419  0.2103
 2065SOL    HW3 8033   0.190  -0.020   6.405 -0.5741 -0.0287 -0.1290
 2065SOL    MW4 8034   0.129   0.042   6.394 -0.5051  0.0889  0.1471
 2066SOL     OW 8035   2.449   0.450   1.674 -0.6401  0.0658 -0.0394
 2066SOL    HW2 8036   2.389   0.448   1.748  0.5618  1.0396  1.0192
 2066SOL    HW3 8037   2.503   0.372   1.685 -1.9373 -1.0379 -1.2288
 2066SOL    MW4 8038   2.448   0.440   1.686 -0.6527  0.0486 -0.0567
 2067SOL     OW 8039   2.715   1.674   2.645  0.2754  0.1265  0.0463
 2067SOL    HW2 8040   2.652   1.658   2.575  0.4495 -0.0314 -0.0713
 2067SOL    HW3 8041   2.665   1.725   2.710  0.1612  0.4140 -0.2625
 2067SOL    MW4 8042   2.700   1.679   2.644  0.2833  0.1436 -0.0099
 2068SOL     OW 8043   1.013   2.877   4.421  0.2468  0.2479 -0.0074
 2068SOL    HW2 8044   1.108   2.867   4.410  0.6944  1.0501  2.5125
 2068SOL    HW3 8045   0.980   2.787   4.424  0.8945 -0.0442 -0.8847
 2068SOL    MW4 8046   1.022   2.864   4.420  0.3913  0.3152  0.2094
 2069SOL     OW 8047   0.749   6.420   2.784  0.1424  0.4554  0.6795
 2069SOL    HW2 8048   0.813   6.417   2.713 -0.8026  1.9953 -0.2909
 2069SOL    HW3 8049   0.694   6.495   2.763 -1.3515 -0.2159  2.0443
 2069SOL    MW4 8050   0.750   6.430   2.772 -0.1794  0.5700  0.7315
 2070SOL     OW 8051   4.928   2.876   1.343 -0.0006 -0.0715 -0.2990
 2070SOL    HW2 8052   4.840   2.865   1.379  0.2638 -0.0582  0.3653
 2070SOL    HW3 8053   4.916   2.931   1.266 -0.6515 -0.5680 -0.5653
 2070SOL    MW4 8054   4.915   2.882   1.338 -0.0516 -0.1352 -0.2465
 2071SOL     OW 8055   3.305   1.312   4.325 -0.4051  0.1885 -0.0523
 2071SOL    HW2 8056   3.394   1.325   4.293 -0.1349 -0.4484  0.4148
 2071SOL    HW3 8057   3.279   1.226   4.292 -0.6799  0.1804  0.1740
 2071SOL    MW4 8058   3.313   1.303   4.317 -0.4057  0.1034  0.0392
 2072SOL     OW 8059   3.225   4.245   0.622  0.0927 -0.3876  0.3033
 2072SOL    HW2 8060   3.210   4.327   0.575 -0.3234 -0.2103  0.7345
 2072SOL    HW3 8061   3.152   4.189   0.595 -0.3330 -0.1680  0.9950
 2072SOL    MW4 8062   3.213   4.248   0.612 -0.0184 -0.3352  0.4515
 2073SOL     OW 8063   2.679   6.218   2.055  0.1447 -0.2580  0.3606
 2073SOL    HW2 8064   2.646   6.300   2.092  0.6860 -0.1148  0.5264
 2073SOL    HW3 8065   2.686   6.159   2.130  2.1815  0.3334  0.6842
 2073SOL    MW4 8066   2.675   6.221   2.070  0.4849 -0.1611  0.4252
 2074SOL     OW 8067   0.854   1.133   6.262 -0.0562 -0.3599  0.8995
 2074SOL    HW2 8068   0.842   1.138   6.167 -0.3411 -0.2968  0.9364
 2074SOL    HW3 8069   0.931   1.185   6.280 -1.7888  2.3377  1.0632
 2074SOL    MW4 8070   0.862   1.140   6.252 -0.3224  0.0044  0.9260
 2075SOL     OW 8071   4.058   2.429   3.892 -0.4017 -0.3583 -0.0427
 2075SOL    HW2 8072   4.111   2.362   3.847 -0.6816 -1.7043  1.5180
 2075SOL    HW3 8073   4.040   2.391   3.978 -0.3714  1.8613  1.0185
 2075SOL    MW4 8074   4.063   2.415   3.897 -0.4346 -0.2430  0.3032
 2076SOL     OW 8075   0.989   4.701   1.215  0.3879  0.5773 -0.8486
 2076SOL    HW2 8076   0.921   4.744   1.267 -0.4741  0.8816 -2.1922
 2076SOL    HW3 8077   0.967   4.608   1.220 -0.2698  0.6904 -1.4449
 2076SOL    MW4 8078   0.977   4.694   1.223  0.1874  0.6324 -1.1046
 2077SOL     OW 8079   5.994   5.080   2.796  0.2962 -0.4247  0.2550
 2077SOL    HW2 8080   6.025   5.169   2.813 -2.2614  0.4936  0.6993
 2077SOL    HW3 8081   5.913   5.093   2.746  1.1715 -2.6403 -1.9161
 2077SOL    MW4 8082   5.987   5.093   2.792  0.0743 -0.5959  0.0272
 2078SOL     OW 8083   4.676   4.792   2.695 -0.3298 -0.2652 -0.0957
 2078SOL    HW2 8084   4.751   4.735   2.676 -0.5102 -0.0953 -1.4245
 2078SOL    HW3 8085   4.632   4.750   2.768  1.5290  0.0759  1.3136
 2078SOL    MW4 8086   4.680   4.779   2.702 -0.1084 -0.1978 -0.0851
 2079SOL     OW 8087   0.414   5.187   2.932 -0.2825  0.3223 -0.3200
 2079SOL    HW2 8088   0.325   5.215   2.950 -0.8561 -1.5864  0.0241
 2079SOL    HW3 8089   0.467   5.233   2.997 -1.1525  0.6591  0.1646
 2079SOL    MW4 8090   0.409   5.197   2.943 -0.4729  0.1149 -0.2107
 2080SOL     OW 8091   4.007   2.324   5.514  0.0504  0.2614  0.0838
 2080SOL    HW2 8092   4.039   2.385   5.581  2.1716  0.8510 -1.3770
 2080SOL    HW3 8093   4.052   2.242   5.532 -0.1633  0.1205 -0.0177
 2080SOL    MW4 8094   4.017   2.322   5.525  0.3021  0.3206 -0.1223
 2081SOL     OW 8095   4.623   5.195   5.801  0.5056  0.2678 -0.3668
 2081SOL    HW2 8096   4.698   5.157   5.847  0.1389  0.7623  0.6669
 2081SOL    HW3 8097   4.662   5.253   5.735  1.0346 -0.5125 -0.7661
 2081SOL    MW4 8098   4.638   5.198   5.798  0.5270  0.2301 -0.2831
 2082SOL     OW 8099   4.505   3.922   1.505  0.2882 -0.3875 -0.3868
 2082SOL    HW2 8100   4.564   3.878   1.566  0.8711 -1.5828 -1.7693
 2082SOL    HW3 8101   4.495   3.862   1.432  0.3019  1.3454 -1.9000
 2082SOL    MW4 8102   4.511   3.909   1.504  0.3669 -0.3166 -0.7689
 2083SOL     OW 8103   2.850   0.123   0.778 -0.2692  0.2672  0.0718
 2083SOL    HW2 8104   2.809   0.204   0.809 -0.1045  0.6462 -0.6819
 2083SOL    HW3 8105   2.781   0.077   0.730  0.2155  1.0284 -1.4233
 2083SOL    MW4 8106   2.835   0.128   0.776 -0.1835  0.4176 -0.2249
 2084SOL     OW 8107   1.693   0.125   0.508 -0.1746  0.0621 -0.2115
 2084SOL    HW2 8108   1.625   0.095   0.569 -0.1115 -1.9172 -1.0442
 2084SOL    HW3 8109   1.644   0.161   0.434 -0.2766  0.6524  0.1385
 2084SOL    MW4 8110   1.677   0.126   0.507 -0.1797 -0.1211 -0.2752
 2085SOL     OW 8111   1.165   4.174   2.343 -0.0767 -0.4104 -0.4596
 2085SOL    HW2 8112   1.070   4.181   2.352  0.0531  1.8636 -0.1627
 2085SOL    HW3 8113   1.183   4.203   2.253  0.2612 -2.2046 -1.0034
 2085SOL    MW4 8114   1.155   4.179   2.332 -0.0150 -0.3471 -0.4922
 2086SOL     OW 8115   2.233   5.730   4.882 -0.7832 -0.3762  0.1057
 2086SOL    HW2 8116   2.182   5.679   4.945 -1.1219 -0.5518 -0.3051
 2086SOL    HW3 8117   2.314   5.681   4.870  0.4659  0.9857  2.3950
 2086SOL    MW4 8118   2.237   5.717   4.888 -0.6631 -0.2197  0.3536
 2087SOL     OW 8119   2.298   3.030   3.948 -0.0272 -0.0656 -0.3601
 2087SOL    HW2 8120   2.368   3.045   4.011  1.4078 -1.3920 -1.5437
 2087SOL    HW3 8121   2.326   3.076   3.869 -0.0409 -1.2831 -1.1046
 2087SOL    MW4 8122   2.311   3.038   3.946  0.1603 -0.4013 -0.6145
 2088SOL     OW 8123   6.409   0.786   6.145  0.4392  0.4990  0.1171
 2088SOL    HW2 8124   6.484   0.833   6.109  0.8685  1.4061  2.0764
 2088SOL    HW3 8125   6.445   0.705   6.182  0.1817  0.1215 -0.4456
 2088SOL    MW4 8126   6.423   0.782   6.145  0.4619  0.5689  0.3013
 2089SOL     OW 8127   0.637   1.740   1.676 -0.1998  0.0606 -0.4980
 2089SOL    HW2 8128   0.647   1.833   1.695  1.4003  0.0531 -1.1736
 2089SOL    HW3 8129   0.682   1.727   1.592 -0.2315 -1.3390 -0.3253
 2089SOL    MW4 8130   0.645   1.751   1.668  0.0071 -0.1251 -0.5643
 2090SOL     OW 8131   5.986   0.401   6.371 -0.2779 -0.5621 -0.1863
 2090SOL    HW2 8132   6.033   0.321   6.393 -0.7980 -0.7305  0.3235
 2090SOL    HW3 8133   5.988   0.453   6.451 -1.5425 -0.8566  0.0469
 2090SOL    MW4 8134   5.993   0.397   6.384 -0.5134 -0.6232 -0.0883
 2091SOL     OW 8135   0.345   2.422   2.417 -0.3413  0.6804 -0.0484
 2091SOL    HW2 8136   0.429   2.424   2.462 -0.2536 -1.5322 -0.0198
 2091SOL    HW3 8137   0.363   2.460   2.331  0.4927  0.9621  0.2381
 2091SOL    MW4 8138   0.358   2.428   2.411 -0.2197  0.4256 -0.0068
 2092SOL     OW 8139   1.177   2.911   6.129  0.0992 -0.5467  0.4753
 2092SOL    HW2 8140   1.256   2.923   6.078  1.7938  0.2899  3.0791
 2092SOL    HW3 8141   1.152   3.000   6.156 -1.2751 -0.8730  0.3343
 2092SOL    MW4 8142   1.184   2.925   6.126  0.1415 -0.4794  0.8003
 2093SOL     OW 8143   3.836   1.799   2.843  0.2607 -0.4111 -0.3508
 2093SOL    HW2 8144   3.760   1.838   2.800  0.4298 -0.4155 -0.6608
 2093SOL    HW3 8145   3.910   1.821   2.786  0.5933  0.1501  0.2837
 2093SOL    MW4 8146   3.836   1.807   2.829  0.3269 -0.3376 -0.3080
 2094SOL     OW 8147   5.201   3.323   3.140 -0.1531  0.4528  0.4062
 2094SOL    HW2 8148   5.123   3.377   3.151  0.5923  1.6276  0.1144
 2094SOL    HW3 8149   5.275   3.383   3.156  0.7663  0.1522 -2.1624
 2094SOL    MW4 8150   5.201   3.338   3.144  0.0665  0.5681  0.0288
 2095SOL     OW 8151   1.586   3.201   1.656 -0.3615 -0.9241 -0.5930
 2095SOL    HW2 8152   1.529   3.142   1.606 -0.1983 -3.0181  1.5168
 2095SOL    HW3 8153   1.605   3.152   1.737  0.6184  1.6485  0.8234
 2095SOL    MW4 8154   1.581   3.186   1.660 -0.2107 -0.8610 -0.1277
 2096SOL     OW 8155   4.730   4.215   1.513 -0.0406  0.6385 -0.1976
 2096SOL    HW2 8156   4.794   4.278   1.478  0.9761 -0.1418  0.1883
 2096SOL    HW3 8157   4.701   4.255   1.595 -0.5156  1.2864 -0.6733
 2096SOL    MW4 8158   4.735   4.229   1.519  0.0309  0.6210 -0.2095
 2097SOL     OW 8159   5.441   0.178   1.219 -0.5482  0.4541  0.7002
 2097SOL    HW2 8160   5.474   0.175   1.130 -1.9426 -0.1692  0.1624
 2097SOL    HW3 8161   5.508   0.134   1.271 -1.2893 -2.6093 -0.6539
 2097SOL    MW4 8162   5.454   0.172   1.214 -0.8299 -0.0323  0.4506
 2098SOL     OW 8163   0.074   3.102   4.836 -0.2205  0.1315 -0.0931
 2098SOL    HW2 8164   0.073   3.129   4.745 -1.6965 -0.3962 -0.2606
 2098SOL    HW3 8165   0.012   3.161   4.880  0.0188 -0.0089  0.4446
 2098SOL    MW4 8166   0.066   3.113   4.830 -0.3837  0.0434 -0.0442
 2099SOL     OW 8167   2.039   0.998   1.502  0.5866  0.1038 -0.6246
 2099SOL    HW2 8168   2.120   1.037   1.468  1.7905 -1.1067  0.6783
 2099SOL    HW3 8169   2.042   0.907   1.471 -1.4046  0.5628 -2.3677
 2099SOL    MW4 8170   2.050   0.991   1.493  0.4827  0.0046 -0.6827
 2100SOL     OW 8171   2.606   5.813   4.900  0.3961 -0.0550 -0.3467
 2100SOL    HW2 8172   2.663   5.823   4.824  0.1031  2.6033 -0.3095
 2100SOL    HW3 8173   2.666   5.805   4.974  0.7913  1.7941 -0.4125
 2100SOL    MW4 8174   2.621   5.814   4.900  0.4096  0.5397 -0.3505
 2101SOL     OW 8175   2.436   2.100   1.985 -0.1844  0.0514  0.0203
 2101SOL    HW2 8176   2.468   2.024   2.034 -0.2013 -0.0531 -0.1306
 2101SOL    HW3 8177   2.348   2.115   2.019 -0.0302  0.2470  0.3300
 2101SOL    MW4 8178   2.429   2.092   1.996 -0.1662  0.0634  0.0412
 2102SOL     OW 8179   0.980   5.082   3.645  0.0829  0.3237 -0.2353
 2102SOL    HW2 8180   0.900   5.096   3.595 -0.5719 -0.7634  0.4619
 2102SOL    HW3 8181   0.999   5.167   3.684 -0.7654  0.5878 -0.3751
 2102SOL    MW4 8182   0.972   5.095   3.644 -0.1154  0.2151 -0.1618
 2103SOL     OW 8183   5.148   1.789   3.271 -0.5551 -0.3463 -0.3156
 2103SOL    HW2 8184   5.243   1.793   3.263 -0.7076  1.1862 -2.4059
 2103SOL    HW3 8185   5.129   1.837   3.351  0.3553  2.4281 -1.6067
 2103SOL    MW4 8186   5.158   1.796   3.280 -0.4551  0.2220 -0.7618
 2104SOL     OW 8187   5.812   2.280   5.536 -0.1113  0.2074  0.0012
 2104SOL    HW2 8188   5.864   2.275   5.616 -0.7070 -1.0971  0.3248
 2104SOL    HW3 8189   5.745   2.345   5.555  0.7418  1.1415 -0.0583
 2104SOL    MW4 8190   5.810   2.288   5.549 -0.0773  0.1585  0.0361
 2105SOL     OW 8191   4.643   3.799   2.446  0.2617  0.6877  0.3484
 2105SOL    HW2 8192   4.735   3.787   2.421  0.3632 -1.0169  1.3542
 2105SOL    HW3 8193   4.633   3.893   2.455  1.7753  0.9488 -0.3006
 2105SOL    MW4 8194   4.654   3.810   2.444  0.4748  0.4973  0.3955
 2106SOL     OW 8195   3.212   5.074   3.949 -0.1280  0.4296 -0.3698
 2106SOL    HW2 8196   3.240   5.161   3.979 -0.7301  0.7389 -0.6779
 2106SOL    HW3 8197   3.146   5.093   3.882  0.0487 -0.2657 -0.7429
 2106SOL    MW4 8198   3.207   5.088   3.944 -0.1842  0.3787 -0.4597
 2107SOL     OW 8199   5.815   3.945   1.419  0.4709 -0.2973 -0.0821
 2107SOL    HW2 8200   5.853   3.876   1.364 -1.4077 -1.4791  0.0095
 2107SOL    HW3 8201   5.761   3.997   1.359  0.1923 -0.2175  0.2305
 2107SOL    MW4 8202   5.813   3.943   1.404  0.1863 -0.4427 -0.0288
 2108SOL     OW 8203   1.434   0.773   5.794  0.4522  0.4046  0.1075
 2108SOL    HW2 8204   1.464   0.842   5.853 -0.4567 -0.3570  1.5075
 2108SOL    HW3 8205   1.340   0.786   5.787  0.3749 -0.2653 -0.1698
 2108SOL    MW4 8206   1.426   0.783   5.801  0.3221  0.2157  0.2557
 2109SOL     OW 8207   4.322   1.055   6.390  0.2054 -0.6733  0.5260
 2109SOL    HW2 8208   4.242   1.023   6.433 -0.7578  0.3911 -0.3731
 2109SOL    HW3 8209   4.319   1.016   6.303  1.0069 -1.0997  0.6782
 2109SOL    MW4 8210   4.311   1.046   6.384  0.1841 -0.5891  0.4275
 2110SOL     OW 8211   0.024   5.477   2.367  0.4184  0.0849 -0.7946
 2110SOL    HW2 8212  -0.005   5.406   2.425  0.7836  0.2687 -0.3846
 2110SOL    HW3 8213   0.070   5.538   2.425  0.7632  0.2842 -1.2773
 2110SOL    MW4 8214   0.026   5.476   2.383  0.5121  0.1354 -0.8042
 2111SOL     OW 8215   1.829   6.027   1.757  0.2808  0.0964 -0.1896
 2111SOL    HW2 8216   1.887   6.087   1.804  1.0382 -1.0858  0.4402
 2111SOL    HW3 8217   1.865   5.940   1.775 -1.1561 -0.6041 -0.5506
 2111SOL    MW4 8218   1.841   6.024   1.766  0.1912 -0.1520 -0.1541
 2112SOL     OW 8219   5.180   2.826   5.917  0.0109 -0.1432  0.4827
 2112SOL    HW2 8220   5.203   2.738   5.946 -0.9367 -0.5062  0.1979
 2112SOL    HW3 8221   5.209   2.829   5.825  0.0857 -0.1433  0.5066
 2112SOL    MW4 8222   5.187   2.815   5.908 -0.1042 -0.1911  0.4483
 2113SOL     OW 8223   1.804   0.776   0.177 -0.1746  0.2954 -0.3568
 2113SOL    HW2 8224   1.756   0.783   0.095 -0.8136 -0.6955 -0.0906
 2113SOL    HW3 8225   1.849   0.692   0.172  1.3732  1.0958 -0.4950
 2113SOL    MW4 8226   1.804   0.766   0.166 -0.0547  0.2703 -0.3399
 2114SOL     OW 8227   3.988   4.795   6.192 -0.0952  0.6614 -0.3269
 2114SOL    HW2 8228   3.942   4.879   6.197 -1.9065 -0.2070 -1.3780
 2114SOL    HW3 8229   3.949   4.751   6.117 -0.3184 -1.7747  1.1060
 2114SOL    MW4 8230   3.977   4.800   6.183 -0.3636  0.2254 -0.2765
 2115SOL     OW 8231   0.884   2.635   0.604  0.1063  0.0647  0.4760
 2115SOL    HW2 8232   0.798   2.593   0.617 -0.1743  0.7145  0.7336
 2115SOL    HW3 8233   0.932   2.616   0.685  0.1216 -0.0944  0.4302
 2115SOL    MW4 8234   0.879   2.627   0.616  0.0713  0.1294  0.5040
 2116SOL     OW 8235   4.914   3.722   4.395 -0.4578  0.6498 -0.0536
 2116SOL    HW2 8236   4.938   3.718   4.488 -0.6087 -0.1117 -0.0346
 2116SOL    HW3 8237   4.824   3.756   4.395 -0.3696  0.8816  0.0659
 2116SOL    MW4 8238   4.905   3.726   4.408 -0.4660  0.5799 -0.0353
 2117SOL     OW 8239   4.153   5.296   4.459  0.0741 -0.0894  0.6132
 2117SOL    HW2 8240   4.090   5.321   4.391  1.2776  0.7207 -0.2610
 2117SOL    HW3 8241   4.111   5.226   4.507 -2.0750  1.3622  0.9626
 2117SOL    MW4 8242   4.139   5.290   4.456 -0.0507  0.2090  0.5440
 2118SOL     OW 8243   4.247   5.430   3.774  0.4279 -0.8689  0.0292
 2118SOL    HW2 8244   4.246   5.386   3.859  1.8018 -2.7611 -0.8720
 2118SOL    HW3 8245   4.227   5.361   3.711  2.8008 -0.2982 -1.4607
 2118SOL    MW4 8246   4.244   5.415   3.777  0.9223 -1.0433 -0.2863
 2119SOL     OW 8247   3.416   6.125   0.576  0.5938  0.6797 -0.3867
 2119SOL    HW2 8248   3.411   6.129   0.671  2.1371 -0.1417 -0.2460
 2119SOL    HW3 8249   3.442   6.213   0.550  1.6916  0.5142  0.0929
 2119SOL    MW4 8250   3.419   6.137   0.585  0.9423  0.5495 -0.3049
 2120SOL     OW 8251   3.309   6.252   1.498 -0.2043  0.1484  0.0610
 2120SOL    HW2 8252   3.270   6.196   1.431  0.3153 -0.0463 -0.0780
 2120SOL    HW3 8253   3.403   6.251   1.480 -0.0363 -0.0354  0.8828
 2120SOL    MW4 8254   3.316   6.244   1.487 -0.1136  0.0984  0.1511
 2121SOL     OW 8255   1.993   0.058   5.108 -0.3118 -0.2221 -0.2589
 2121SOL    HW2 8256   2.043  -0.013   5.148 -0.3118 -1.1974 -1.9035
 2121SOL    HW3 8257   1.912   0.062   5.160  0.4362 -0.2027  0.9489
 2121SOL    MW4 8258   1.989   0.049   5.120 -0.2131 -0.3482 -0.3166
 2122SOL     OW 8259   1.793   5.877   0.392  0.0071 -0.4257  0.0163
 2122SOL    HW2 8260   1.741   5.854   0.469 -0.0979  0.9491  0.3896
 2122SOL    HW3 8261   1.814   5.793   0.351 -0.8818 -1.1157  0.9194
 2122SOL    MW4 8262   1.789   5.863   0.397 -0.1240 -0.3354  0.1847
 2123SOL     OW 8263   3.835   0.478   3.595  0.6564  0.0124 -0.2716
 2123SOL    HW2 8264   3.751   0.479   3.550  1.2330  0.9525 -1.3862
 2123SOL    HW3 8265   3.852   0.385   3.611  0.0440 -0.2988 -1.2979
 2123SOL    MW4 8266   3.826   0.466   3.591  0.6517  0.0953 -0.5541
 2124SOL     OW 8267   3.869   1.092   2.360 -0.3569  0.1429  0.3736
 2124SOL    HW2 8268   3.848   0.999   2.352  0.5586  0.0587 -1.2210
 2124SOL    HW3 8269   3.958   1.100   2.328 -1.2200  1.9139 -1.8262
 2124SOL    MW4 8270   3.878   1.081   2.355 -0.3500  0.3654 -0.1270
 2125SOL     OW 8271   1.933   1.670   0.131 -0.0396  0.0896 -0.3856
 2125SOL    HW2 8272   1.924   1.603   0.064  0.8576  0.0013 -0.4338
 2125SOL    HW3 8273   1.960   1.622   0.209 -2.2642  0.0208  0.4199
 2125SOL    MW4 8274   1.935   1.655   0.132 -0.2147  0.0689 -0.2857
 2126SOL     OW 8275   4.653   2.099   1.666 -0.2480 -0.3414  0.7823
 2126SOL    HW2 8276   4.631   2.078   1.575  1.0859 -0.3187  0.4331
 2126SOL    HW3 8277   4.693   2.019   1.700 -0.6785 -0.3282  1.3369
 2126SOL    MW4 8278   4.656   2.086   1.659 -0.1288 -0.3367  0.8094
 2127SOL     OW 8279   4.320   0.022   5.713 -0.0802  0.0174  0.1378
 2127SOL    HW2 8280   4.251   0.053   5.654  0.2637  0.6296  0.0454
 2127SOL    HW3 8281   4.316   0.080   5.788  0.6160  0.3353 -0.0626
 2127SOL    MW4 8282   4.311   0.033   5.715  0.0570  0.1401  0.0992
 2128SOL     OW 8283   0.593   1.156   0.590 -0.0068  0.5253 -0.6295
 2128SOL    HW2 8284   0.538   1.078   0.578 -0.1463  0.3108  1.0871
 2128SOL    HW3 8285   0.638   1.141   0.673  0.1066  2.1918 -0.3538
 2128SOL    MW4 8286   0.591   1.144   0.599 -0.0102  0.7169 -0.3666
 2129SOL     OW 8287   2.704   1.612   4.797  0.3902 -0.1339  0.5882
 2129SOL    HW2 8288   2.715   1.589   4.889  1.4310 -0.7777  0.3164
 2129SOL    HW3 8289   2.792   1.639   4.769 -0.1870  1.3411  0.1199
 2129SOL    MW4 8290   2.717   1.613   4.806  0.4514 -0.0242  0.4906
 2130SOL     OW 8291   0.450   5.221   4.618 -0.4380  0.2326 -0.2266
 2130SOL    HW2 8292   0.520   5.198   4.679 -0.4530  1.7469  0.4093
 2130SOL    HW3 8293   0.370   5.214   4.670 -0.4334  1.7325  0.0333
 2130SOL    MW4 8294   0.449   5.217   4.633 -0.4393  0.6303 -0.1084
 2131SOL     OW 8295   3.927   2.851   3.739 -0.4721  0.3058  0.0411
 2131SOL    HW2 8296   4.004   2.795   3.749 -2.5293 -2.8455 -0.6433
 2131SOL    HW3 8297   3.951   2.913   3.670  0.7999 -1.8588 -1.5578
 2131SOL    MW4 8298   3.940   2.852   3.731 -0.5757 -0.3956 -0.2602
 2132SOL     OW 8299   3.091   0.258   5.309  0.0043 -0.6108  0.8244
 2132SOL    HW2 8300   3.048   0.240   5.393 -1.0061  0.8481  0.6567
 2132SOL    HW3 8301   3.133   0.343   5.321 -1.3286  0.2954 -0.5440
 2132SOL    MW4 8302   3.091   0.266   5.322 -0.3048 -0.2987  0.6217
 2133SOL     OW 8303   5.607   0.109   3.788  0.2468 -0.3056  0.1094
 2133SOL    HW2 8304   5.651   0.063   3.717 -1.1460 -1.2633 -0.1831
 2133SOL    HW3 8305   5.540   0.163   3.745  1.7538  1.9662  0.4611
 2133SOL    MW4 8306   5.604   0.110   3.773  0.2619 -0.1322  0.1172
 2134SOL     OW 8307   5.952   3.993   6.417 -0.3121 -0.0911  0.1439
 2134SOL    HW2 8308   5.999   4.010   6.335 -1.4611  0.8392 -0.3531
 2134SOL    HW3 8309   5.883   4.059   6.420 -0.4499 -0.2505  1.7614
 2134SOL    MW4 8310   5.949   4.004   6.407 -0.4819  0.0106  0.2918
 2135SOL     OW 8311   3.282   2.926   3.688  0.1848  0.0469  0.1244
 2135SOL    HW2 8312   3.240   2.853   3.642  2.7806  0.5211 -3.3712
 2135SOL    HW3 8313   3.231   3.003   3.661 -0.6382 -0.0574  1.2922
 2135SOL    MW4 8314   3.270   2.927   3.678  0.4187  0.0957 -0.1827
 2136SOL     OW 8315   4.229   5.985   3.618 -0.0797  0.3827 -0.2150
 2136SOL    HW2 8316   4.214   5.892   3.639 -0.8622  0.6150  0.2973
 2136SOL    HW3 8317   4.217   5.990   3.523 -1.4339  0.2017 -0.0657
 2136SOL    MW4 8318   4.225   5.973   3.608 -0.3616  0.3895 -0.1277
 2137SOL     OW 8319   4.360   6.166   0.275 -0.0698 -0.2290 -0.2890
 2137SOL    HW2 8320   4.313   6.230   0.222  0.0703 -0.4265 -0.6575
 2137SOL    HW3 8321   4.307   6.086   0.269  0.2181 -0.4045 -0.5694
 2137SOL    MW4 8322   4.347   6.164   0.268 -0.0134 -0.2782 -0.3746
 2138SOL     OW 8323   4.941   5.380   4.369 -0.0926  0.5191 -0.0538
 2138SOL    HW2 8324   4.914   5.470   4.389 -1.5531  0.4845 -1.5890
 2138SOL    HW3 8325   5.019   5.390   4.314  0.0432  0.8263  0.1901
 2138SOL    MW4 8326   4.947   5.393   4.365 -0.2674  0.5551 -0.2242
 2139SOL     OW 8327   1.373   1.087   0.350  0.2814  0.0218 -0.2864
 2139SOL    HW2 8328   1.386   1.092   0.445 -0.6570  0.6472 -0.1775
 2139SOL    HW3 8329   1.347   0.996   0.334 -0.5656  0.1680  0.2030
 2139SOL    MW4 8330   1.371   1.076   0.361  0.0458  0.1236 -0.2075
 2140SOL     OW 8331   2.231   1.401   2.713  0.7633  0.0264 -0.1772
 2140SOL    HW2 8332   2.318   1.362   2.719  0.8118  0.2680  0.7056
 2140SOL    HW3 8333   2.215   1.439   2.799 -0.1889  0.0468 -0.3513
 2140SOL    MW4 8334   2.240   1.401   2.725  0.6441  0.0609 -0.0837
 2141SOL     OW 8335   3.996   6.261   1.970  0.3798  0.3384  0.7149
 2141SOL    HW2 8336   4.061   6.233   1.905 -0.4071 -1.0163  0.4847
 2141SOL    HW3 8337   3.944   6.327   1.923 -1.0284 -1.5814 -0.5397
 2141SOL    MW4 8338   3.998   6.266   1.955  0.0902 -0.0936  0.5190
 2142SOL     OW 8339   6.030   0.533   5.986 -0.2204 -0.0626  0.3039
 2142SOL    HW2 8340   5.948   0.548   6.034 -0.0393  2.2345  0.0184
 2142SOL    HW3 8341   6.081   0.476   6.044 -1.0553  0.4880  1.6333
 2142SOL    MW4 8342   6.026   0.527   6.000 -0.3067  0.3131  0.4416
 2143SOL     OW 8343   0.612   3.960   5.168  0.0211 -0.0734  0.2340
 2143SOL    HW2 8344   0.529   3.943   5.212  0.8566 -0.8431  1.5679
 2143SOL    HW3 8345   0.651   4.031   5.218 -0.6062  1.5882 -1.5018
 2143SOL    MW4 8346   0.606   3.967   5.180  0.0486  0.0443  0.1810
 2144SOL     OW 8347   5.468   4.901   6.330 -0.3787 -1.0298  0.3560
 2144SOL    HW2 8348   5.408   4.937   6.396 -0.2453 -0.8961  0.4064
 2144SOL    HW3 8349   5.411   4.860   6.266 -0.7129  1.3141 -0.9719
 2144SOL    MW4 8350   5.453   4.901   6.330 -0.4052 -0.7029  0.1874
 2145SOL     OW 8351   1.058   1.476   6.135  0.0291 -0.6623 -0.3526
 2145SOL    HW2 8352   1.026   1.468   6.045 -0.8577 -2.9253  0.0835
 2145SOL    HW3 8353   1.058   1.570   6.153 -1.1028 -0.2548 -2.2540
 2145SOL    MW4 8354   1.053   1.487   6.126 -0.2372 -0.9071 -0.5459
 2146SOL     OW 8355   3.928   1.102   0.176 -0.2243  0.1384  0.1538
 2146SOL    HW2 8356   3.862   1.172   0.174 -1.6020 -1.1152 -0.9981
 2146SOL    HW3 8357   3.917   1.062   0.262 -0.4519  0.4017  0.2510
 2146SOL    MW4 8358   3.918   1.106   0.187 -0.4361  0.0078  0.0146
 2147SOL     OW 8359   2.027   2.179   6.103 -0.5442  0.1464 -0.3433
 2147SOL    HW2 8360   1.945   2.163   6.149 -1.1133  0.7139 -1.1288
 2147SOL    HW3 8361   2.079   2.231   6.164 -1.1463  0.5936 -0.2016
 2147SOL    MW4 8362   2.023   2.184   6.117 -0.6987  0.2803 -0.4282
 2148SOL     OW 8363   6.313   3.470   3.885 -0.2550 -0.4285  0.2206
 2148SOL    HW2 8364   6.319   3.457   3.790 -2.0810  1.2472 -0.1992
 2148SOL    HW3 8365   6.344   3.559   3.899 -1.6662 -0.0092  0.9045
 2148SOL    MW4 8366   6.318   3.480   3.874 -0.6821 -0.1521  0.2555
 2149SOL     OW 8367   2.143   2.041   0.082 -0.0224 -0.1654 -0.0093
 2149SOL    HW2 8368   2.085   2.107   0.043  1.5384  1.1146 -0.2506
 2149SOL    HW3 8369   2.230   2.064   0.050  0.8124 -1.2314  1.4125
 2149SOL    MW4 8370   2.147   2.053   0.072  0.2937 -0.1371  0.1464
 2150SOL     OW 8371   4.793   2.284   6.374  0.2598  0.9902  0.0724
 2150SOL    HW2 8372   4.855   2.217   6.347  0.8755  1.1226  1.1094
 2150SOL    HW3 8373   4.777   2.335   6.295  2.2560  1.5685 -0.0097
 2150SOL    MW4 8374   4.799   2.282   6.360  0.6044  1.0839  0.1984
 2151SOL     OW 8375   0.784   4.560   5.513  0.3793 -0.0332  0.0274
 2151SOL    HW2 8376   0.846   4.578   5.584  0.3541 -2.0214  0.6042
 2151SOL    HW3 8377   0.808   4.473   5.481 -0.7023  0.1090 -1.2511
 2151SOL    MW4 8378   0.795   4.551   5.518  0.2333 -0.2767 -0.0652
 2152SOL     OW 8379   2.511   4.327   1.410 -0.3024  0.0642  0.1714
 2152SOL    HW2 8380   2.542   4.335   1.501  0.8785  0.1675 -0.2215
 2152SOL    HW3 8381   2.453   4.251   1.411 -2.2608  1.4742  1.5110
 2152SOL    MW4 8382   2.507   4.318   1.422 -0.4050  0.2638  0.2963
 2153SOL     OW 8383   0.983   1.659   3.304  0.0574 -0.6996  0.2759
 2153SOL    HW2 8384   0.962   1.616   3.387 -0.1709  2.4116  1.9838
 2153SOL    HW3 8385   1.049   1.724   3.326 -0.8279  1.0186 -1.7060
 2153SOL    MW4 8386   0.989   1.662   3.318 -0.0895 -0.0624  0.2397
 2154SOL     OW 8387   4.932   5.101   3.757 -0.2209  0.1800 -0.3709
 2154SOL    HW2 8388   4.962   5.015   3.787  1.7478  0.9950  0.1372
 2154SOL    HW3 8389   4.837   5.098   3.768 -0.1050 -1.5910  0.5216
 2154SOL    MW4 8390   4.923   5.089   3.762  0.0541  0.0539 -0.1861
 2155SOL     OW 8391   1.883   3.791   6.351  0.3709 -0.0705  0.0663
 2155SOL    HW2 8392   1.953   3.745   6.396  0.2739 -0.0167  0.2737
 2155SOL    HW3 8393   1.803   3.756   6.389  0.2230 -1.2261 -1.2080
 2155SOL    MW4 8394   1.882   3.780   6.362  0.3386 -0.2158 -0.0745
 2156SOL     OW 8395   5.144   6.228   3.338 -0.3489 -0.2560  0.0670
 2156SOL    HW2 8396   5.193   6.223   3.255 -1.8071  1.8101 -0.9998
 2156SOL    HW3 8397   5.090   6.149   3.338 -0.9660  0.1262 -1.4190
 2156SOL    MW4 8398   5.144   6.217   3.327 -0.6227  0.0670 -0.2698
 2157SOL     OW 8399   3.372   4.087   2.161 -0.0336  0.0669 -0.1375
 2157SOL    HW2 8400   3.454   4.041   2.146 -0.2592 -0.6412  0.7012
 2157SOL    HW3 8401   3.385   4.173   2.122  0.7897 -0.3380 -0.7843
 2157SOL    MW4 8402   3.384   4.092   2.154  0.0452 -0.0799 -0.1122
 2158SOL     OW 8403   4.083   5.073   0.118  0.4166 -0.3997  0.3309
 2158SOL    HW2 8404   4.147   5.003   0.103  2.2694  1.7250 -3.0995
 2158SOL    HW3 8405   4.124   5.151   0.080 -2.9985  1.7896  0.7277
 2158SOL    MW4 8406   4.097   5.074   0.111  0.2104  0.1694 -0.0693
 2159SOL     OW 8407   6.362   2.379   3.268  0.3053 -0.6531  0.2084
 2159SOL    HW2 8408   6.331   2.341   3.186 -0.0752 -1.0332  0.5218
 2159SOL    HW3 8409   6.395   2.466   3.244 -2.9158  0.7013  0.1402
 2159SOL    MW4 8410   6.363   2.386   3.254 -0.1699 -0.5245  0.2408
 2160SOL     OW 8411   4.901   1.231   1.372 -0.1243 -0.2752 -0.7630
 2160SOL    HW2 8412   4.945   1.223   1.457 -1.7252 -0.4382  0.0872
 2160SOL    HW3 8413   4.891   1.140   1.342 -0.4282 -0.2786 -0.6549
 2160SOL    MW4 8414   4.905   1.218   1.379 -0.3756 -0.2971 -0.6366
 2161SOL     OW 8415   5.984   1.223   1.528 -0.2851  0.2215  0.5944
 2161SOL    HW2 8416   5.913   1.281   1.555 -0.1129  0.7873 -0.1250
 2161SOL    HW3 8417   5.949   1.135   1.537 -2.1918  0.5015 -2.5627
 2161SOL    MW4 8418   5.970   1.219   1.532 -0.5139  0.3331  0.0829
 2162SOL     OW 8419   3.268   5.329   4.375  0.8646  0.2081  0.4384
 2162SOL    HW2 8420   3.285   5.420   4.401  0.7191  0.9858 -1.9279
 2162SOL    HW3 8421   3.335   5.310   4.310 -0.3328 -0.6477 -0.6004
 2162SOL    MW4 8422   3.279   5.339   4.370  0.6874  0.1978 -0.0109
 2163SOL     OW 8423   1.085   1.096   3.266 -0.1662 -0.0264 -0.2697
 2163SOL    HW2 8424   1.111   1.157   3.197 -1.4778 -0.6436 -1.3536
 2163SOL    HW3 8425   0.990   1.093   3.262 -0.3203  0.2946  1.9398
 2163SOL    MW4 8426   1.076   1.104   3.257 -0.3596 -0.0655 -0.1212
 2164SOL     OW 8427   3.493   2.883   3.379 -0.3786  0.0957  0.2335
 2164SOL    HW2 8428   3.523   2.831   3.304 -0.2159  1.4776 -0.7063
 2164SOL    HW3 8429   3.557   2.864   3.448 -0.0586 -0.5795 -0.2343
 2164SOL    MW4 8430   3.505   2.873   3.378 -0.3149  0.1889  0.0478
 2165SOL     OW 8431   5.296   5.516   3.038 -0.3255  0.3341  0.1293
 2165SOL    HW2 8432   5.216   5.550   2.996  0.0394  0.1746 -0.7185
 2165SOL    HW3 8433   5.367   5.566   2.997  0.1462 -0.8245 -0.4945
 2165SOL    MW4 8434   5.295   5.527   3.027 -0.2151  0.1602 -0.0649
 2166SOL     OW 8435   4.098   0.749   1.389  0.6825 -0.1105 -0.2574
 2166SOL    HW2 8436   4.129   0.840   1.389  0.7901 -0.1328 -1.2194
 2166SOL    HW3 8437   4.083   0.729   1.296 -1.2423 -0.4239  0.0702
 2166SOL    MW4 8438   4.100   0.759   1.377  0.4428 -0.1548 -0.3411
 2167SOL     OW 8439   4.316   3.378   3.153 -0.2874  0.5313  0.6174
 2167SOL    HW2 8440   4.378   3.407   3.220  1.3921  0.2971 -0.7579
 2167SOL    HW3 8441   4.305   3.284   3.169  1.6658  0.0541 -0.5627
 2167SOL    MW4 8442   4.323   3.369   3.164  0.1919  0.4375  0.2802
 2168SOL     OW 8443   1.064   0.276   0.443  0.4513 -0.3580  0.2721
 2168SOL    HW2 8444   1.059   0.336   0.368  2.8315 -1.7544 -1.1127
 2168SOL    HW3 8445   1.143   0.303   0.490  0.3305 -1.0383  0.8815
 2168SOL    MW4 8446   1.074   0.288   0.439  0.7494 -0.6320  0.1698
 2169SOL     OW 8447   4.972   0.559   0.171  0.0688  0.5670  0.6182
 2169SOL    HW2 8448   4.958   0.651   0.192 -0.8850  0.4982  0.3592
 2169SOL    HW3 8449   4.885   0.527   0.144  0.2624 -0.5404  1.2165
 2169SOL    MW4 8450   4.958   0.567   0.170 -0.0315  0.4118  0.6629
 2170SOL     OW 8451   3.038   1.715   5.733 -0.5094 -0.0405 -0.5918
 2170SOL    HW2 8452   3.007   1.725   5.823  0.4346  1.4943 -0.4010
 2170SOL    HW3 8453   2.988   1.642   5.698 -0.8671 -0.6890  1.1919
 2170SOL    MW4 8454   3.028   1.707   5.740 -0.4321  0.0764 -0.3313
 2171SOL     OW 8455   6.099   2.067   1.209  0.5640  0.4698 -0.1444
 2171SOL    HW2 8456   6.171   2.099   1.155 -0.6076 -0.6928 -2.5551
 2171SOL    HW3 8457   6.118   1.975   1.223 -0.5670  0.0544 -1.1332
 2171SOL    MW4 8458   6.111   2.059   1.204  0.2602  0.2616 -0.5929
 2172SOL     OW 8459   4.350   2.479   0.211 -0.4686 -0.5420  0.6955
 2172SOL    HW2 8460   4.318   2.393   0.184  0.3034 -0.4759 -0.5303
 2172SOL    HW3 8461   4.401   2.510   0.136 -0.4963  0.8661  1.2225
 2172SOL    MW4 8462   4.352   2.472   0.198 -0.3704 -0.3475  0.6033
 2173SOL     OW 8463   0.477   5.346   3.741 -0.0285  0.6449  0.3709
 2173SOL    HW2 8464   0.431   5.290   3.678  1.7141  0.3195 -0.6758
 2173SOL    HW3 8465   0.458   5.307   3.826 -1.7396  0.5913  0.0160
 2173SOL    MW4 8466   0.468   5.334   3.744 -0.0243  0.5949  0.1860
 2174SOL     OW 8467   6.184   2.575   5.314  0.5522 -0.4836 -0.2048
 2174SOL    HW2 8468   6.157   2.503   5.371  0.7119 -0.2594  0.1631
 2174SOL    HW3 8469   6.280   2.572   5.317  0.5657  0.1749  0.3796
 2174SOL    MW4 8470   6.193   2.565   5.322  0.5750 -0.3672 -0.0792
 2175SOL     OW 8471   4.548   4.034   3.227 -0.5146  0.0900 -0.5800
 2175SOL    HW2 8472   4.454   4.020   3.242 -0.4615  1.6712  1.6358
 2175SOL    HW3 8473   4.591   3.975   3.289 -0.0323 -0.0980 -1.0834
 2175SOL    MW4 8474   4.541   4.024   3.237 -0.4440  0.2738 -0.3541
 2176SOL     OW 8475   4.563   2.884   3.147 -0.5268  0.4338 -0.8435
 2176SOL    HW2 8476   4.562   2.882   3.242 -0.8635 -0.7996 -0.8550
 2176SOL    HW3 8477   4.597   2.971   3.125  1.4423  0.0538  0.4020
 2176SOL    MW4 8478   4.568   2.895   3.156 -0.3114  0.2209 -0.6807
 2177SOL     OW 8479   0.992   3.456   3.606  0.1989 -0.2612  0.1574
 2177SOL    HW2 8480   1.000   3.497   3.692  1.2076  0.9067 -0.4684
 2177SOL    HW3 8481   0.928   3.511   3.560 -0.0690 -0.6708  0.0400
 2177SOL    MW4 8482   0.984   3.469   3.611  0.2966 -0.1612  0.0593
 2178SOL     OW 8483   3.103   5.241   5.839 -0.1401  0.0164 -0.8319
 2178SOL    HW2 8484   3.187   5.264   5.800 -0.4909  0.8518 -1.1049
 2178SOL    HW3 8485   3.102   5.287   5.923 -0.6793  0.6772 -1.2020
 2178SOL    MW4 8486   3.114   5.250   5.845 -0.2576  0.2138 -0.9168
 2179SOL     OW 8487   2.104   4.611   3.010  0.1509  0.6881  0.2406
 2179SOL    HW2 8488   2.142   4.636   3.094 -0.1477 -1.8922  1.2455
 2179SOL    HW3 8489   2.032   4.552   3.033  0.3696 -0.4731 -1.8118
 2179SOL    MW4 8490   2.099   4.607   3.024  0.1404  0.1945  0.1024
 2180SOL     OW 8491   4.253   4.049   1.228  0.3279  0.1146 -0.1375
 2180SOL    HW2 8492   4.210   4.116   1.281  0.0733 -0.2962  0.1839
 2180SOL    HW3 8493   4.284   4.096   1.150  1.2347  0.8426  0.6512
 2180SOL    MW4 8494   4.251   4.064   1.224  0.4139  0.1565  0.0090
 2181SOL     OW 8495   4.413   2.330   2.370 -0.3381  0.1536  0.0499
 2181SOL    HW2 8496   4.441   2.307   2.282 -1.3303  0.7009 -0.4309
 2181SOL    HW3 8497   4.325   2.294   2.378 -0.8108  1.3051  0.2981
 2181SOL    MW4 8498   4.405   2.322   2.360 -0.5314  0.3777  0.0192
 2182SOL     OW 8499   0.889   2.484   5.403 -0.3207  0.3531  0.6174
 2182SOL    HW2 8500   0.895   2.465   5.309  0.3322 -1.0236  0.9206
 2182SOL    HW3 8501   0.874   2.579   5.407  0.9473  0.6482 -0.8516
 2182SOL    MW4 8502   0.888   2.494   5.391 -0.0673  0.2104  0.4636
 2183SOL     OW 8503   2.531   2.107   1.718 -0.1173 -0.1593 -0.1011
 2183SOL    HW2 8504   2.447   2.100   1.673  0.2377  0.0836 -0.8107
 2183SOL    HW3 8505   2.508   2.111   1.811 -0.8275 -1.2036 -0.2192
 2183SOL    MW4 8506   2.517   2.107   1.724 -0.1642 -0.2651 -0.2103
 2184SOL     OW 8507   0.114   2.789   0.503 -0.9177  0.1236  0.1698
 2184SOL    HW2 8508   0.057   2.866   0.511 -0.4505  0.4608  0.3643
 2184SOL    HW3 8509   0.137   2.768   0.594  0.4413  0.9032  0.0354
 2184SOL    MW4 8510   0.110   2.796   0.516 -0.6767  0.2709  0.1778
 2185SOL     OW 8511   4.192   5.719   5.742  0.0076  0.1855  0.3586
 2185SOL    HW2 8512   4.227   5.791   5.690 -3.9969  1.0092 -1.6064
 2185SOL    HW3 8513   4.131   5.674   5.684 -1.9632 -1.2240  3.2440
 2185SOL    MW4 8514   4.189   5.722   5.728 -0.7808  0.1082  0.4800
 2186SOL     OW 8515   1.062   4.689   0.357  0.0852 -0.1942  0.5562
 2186SOL    HW2 8516   1.083   4.600   0.329  1.6532 -0.0336  1.0781
 2186SOL    HW3 8517   1.099   4.745   0.288 -0.8764  0.0678  0.2377
 2186SOL    MW4 8518   1.070   4.685   0.344  0.1652 -0.1385  0.5831
 2187SOL     OW 8519   1.209   2.450   5.676  0.7245 -0.0186  0.2465
 2187SOL    HW2 8520   1.292   2.448   5.628  0.3457 -1.3076 -0.3812
 2187SOL    HW3 8521   1.229   2.410   5.760  0.4516 -1.6559 -0.4280
 2187SOL    MW4 8522   1.223   2.445   5.680  0.6385 -0.4047  0.0747
 2188SOL     OW 8523   0.197   2.503   0.926  0.3447  0.3109 -0.4086
 2188SOL    HW2 8524   0.291   2.485   0.935  0.4600  1.5889  1.2305
 2188SOL    HW3 8525   0.160   2.419   0.898  1.6040 -0.9990  1.5835
 2188SOL    MW4 8526   0.204   2.489   0.923  0.5261  0.3066  0.0705
 2189SOL     OW 8527   5.321   5.407   5.523  0.2010 -0.0956  0.7795
 2189SOL    HW2 8528   5.268   5.337   5.562  1.0366 -0.1598  1.8435
 2189SOL    HW3 8529   5.275   5.430   5.442 -0.5863 -1.2345  0.8846
 2189SOL    MW4 8530   5.308   5.401   5.518  0.2074 -0.2543  0.9337
 2190SOL     OW 8531   6.349   3.099   0.811 -0.1496 -0.0150 -0.1673
 2190SOL    HW2 8532   6.320   3.010   0.831 -3.0436  0.8312 -0.0712
 2190SOL    HW3 8533   6.302   3.154   0.874 -0.7203  1.7841 -2.0378
 2190SOL    MW4 8534   6.339   3.094   0.822 -0.6067  0.3340 -0.4014
 2191SOL     OW 8535   6.055   4.151   0.580  0.6788  0.1306  0.1029
 2191SOL    HW2 8536   5.970   4.161   0.623  0.2269  1.5659 -1.0598
 2191SOL    HW3 8537   6.038   4.173   0.489  1.7651 -2.1168 -0.7224
 2191SOL    MW4 8538   6.041   4.155   0.574  0.7625  0.0234 -0.1594
 2192SOL     OW 8539   5.324   3.424   1.602  0.4792 -0.0107 -0.0961
 2192SOL    HW2 8540   5.326   3.504   1.655  1.0640 -1.3761  2.0357
 2192SOL    HW3 8541   5.415   3.408   1.579  0.4630 -0.5035  0.1744
 2192SOL    MW4 8542   5.336   3.433   1.606  0.5542 -0.2559  0.2208
 2193SOL     OW 8543   1.968   0.675   4.399 -0.5816 -0.1771 -0.0461
 2193SOL    HW2 8544   1.939   0.751   4.450 -1.1126 -0.3063 -0.1435
 2193SOL    HW3 8545   1.964   0.705   4.308 -0.4452 -0.2083 -0.0616
 2193SOL    MW4 8546   1.963   0.689   4.394 -0.6337 -0.1983 -0.0610
 2194SOL     OW 8547   5.944   3.286   3.591 -0.2535  0.2776 -0.5151
 2194SOL    HW2 8548   5.881   3.272   3.521 -0.7291  1.9366 -0.4450
 2194SOL    HW3 8549   5.915   3.227   3.661 -2.2349  1.5916 -0.1737
 2194SOL    MW4 8550   5.932   3.276   3.591 -0.5777  0.6698 -0.4608
 2195SOL     OW 8551   4.037   6.105   0.943 -0.3769 -0.3631  0.3837
 2195SOL    HW2 8552   4.062   6.142   0.859  0.5709  1.6063  1.4848
 2195SOL    HW3 8553   3.976   6.168   0.981 -2.4427 -2.2051  0.3668
 2195SOL    MW4 8554   4.032   6.118   0.937 -0.5244 -0.3463  0.5268
 2196SOL     OW 8555   5.303   4.294   2.342 -0.0386  0.3392 -0.3325
 2196SOL    HW2 8556   5.368   4.305   2.273  1.0702  1.7450  0.8909
 2196SOL    HW3 8557   5.255   4.377   2.344  0.4317  0.5951  1.0621
 2196SOL    MW4 8558   5.305   4.306   2.333  0.1697  0.5584  0.0129
 2197SOL     OW 8559   5.918   1.634   2.174  0.4564  0.1216 -0.0826
 2197SOL    HW2 8560   5.986   1.594   2.228 -1.6971 -1.5692  1.5665
 2197SOL    HW3 8561   5.937   1.603   2.085  2.8380  1.2131 -0.0250
 2197SOL    MW4 8562   5.929   1.624   2.169  0.4865  0.0425  0.1426
 2198SOL     OW 8563   4.122   2.448   5.731  0.2922 -0.0143  0.4030
 2198SOL    HW2 8564   4.069   2.528   5.735 -0.3743 -0.4240 -0.2540
 2198SOL    HW3 8565   4.084   2.391   5.798  0.2773 -0.0870  0.3315
 2198SOL    MW4 8566   4.110   2.451   5.741  0.2023 -0.0779  0.3069
 2199SOL     OW 8567   2.173   1.681   2.383 -0.6199 -0.3894 -0.4050
 2199SOL    HW2 8568   2.138   1.680   2.294 -1.2390  2.5154 -0.2922
 2199SOL    HW3 8569   2.138   1.761   2.422  2.0406  0.0142  1.4521
 2199SOL    MW4 8570   2.164   1.691   2.376 -0.3506  0.0471 -0.1451
 2200SOL     OW 8571   1.630   5.665   2.611 -0.5684  0.7250  0.3509
 2200SOL    HW2 8572   1.716   5.704   2.621  0.7304 -1.9329  0.2958
 2200SOL    HW3 8573   1.615   5.664   2.517 -0.8788  1.5806  0.3837
 2200SOL    MW4 8574   1.639   5.670   2.600 -0.4380  0.4872  0.3480
 2201SOL     OW 8575   2.890   3.031   4.171  0.1939 -0.0766 -0.5616
 2201SOL    HW2 8576   2.806   3.030   4.217  1.4892  1.6042  2.1040
 2201SOL    HW3 8577   2.868   3.057   4.082 -2.2458 -1.3878 -0.4407
 2201SOL    MW4 8578   2.876   3.034   4.166  0.0429 -0.0278 -0.1939
 2202SOL     OW 8579   5.848   1.951   2.847  0.1795  0.3774  0.0696
 2202SOL    HW2 8580   5.861   1.868   2.893 -0.6666  0.1954  0.0100
 2202SOL    HW3 8581   5.769   1.988   2.887  0.7774  1.3602  0.3792
 2202SOL    MW4 8582   5.839   1.945   2.858  0.1468  0.4830  0.1026
 2203SOL     OW 8583   1.601   4.489   3.255  0.0627 -0.8799 -0.2577
 2203SOL    HW2 8584   1.573   4.405   3.219  0.7149 -1.4305  0.4792
 2203SOL    HW3 8585   1.675   4.515   3.201  1.1004 -1.7508  0.7108
 2203SOL    MW4 8586   1.607   4.481   3.243  0.2857 -1.0675 -0.0327
 2204SOL     OW 8587   5.764   5.155   4.888 -0.0216  0.0124  0.4340
 2204SOL    HW2 8588   5.710   5.212   4.942  1.8975  2.2952  0.1298
 2204SOL    HW3 8589   5.831   5.213   4.851  0.9708 -2.1321 -1.4113
 2204SOL    MW4 8590   5.766   5.170   4.890  0.3625  0.0307  0.1504
 2205SOL     OW 8591   4.575   0.277   3.167 -0.0105 -0.5397  0.2277
 2205SOL    HW2 8592   4.656   0.311   3.130  0.4532 -2.6868 -0.9034
 2205SOL    HW3 8593   4.602   0.229   3.245 -0.8080  2.5638  2.6212
 2205SOL    MW4 8594   4.589   0.275   3.172 -0.0546 -0.4135  0.3942
 2206SOL     OW 8595   3.129   1.623   2.992  0.1222 -0.6330  0.2053
 2206SOL    HW2 8596   3.075   1.663   2.923  1.9586  1.0581 -0.3216
 2206SOL    HW3 8597   3.124   1.529   2.974  1.0230 -0.2170 -2.6450
 2206SOL    MW4 8598   3.121   1.616   2.980  0.4834 -0.3550 -0.2403
 2207SOL     OW 8599   1.845   2.241   4.438  0.0286 -0.0031 -0.0388
 2207SOL    HW2 8600   1.878   2.160   4.476  1.0018  1.1941  1.8188
 2207SOL    HW3 8601   1.755   2.248   4.471  0.2762  0.1545  0.6141
 2207SOL    MW4 8602   1.837   2.231   4.447  0.1897  0.1756  0.2924
 2208SOL     OW 8603   2.363   5.545   1.547 -0.0366 -0.2546  0.1882
 2208SOL    HW2 8604   2.412   5.474   1.587 -0.2563 -1.4034 -1.4624
 2208SOL    HW3 8605   2.272   5.517   1.550 -0.2588  0.4870  0.5531
 2208SOL    MW4 8606   2.357   5.532   1.552 -0.0949 -0.3083  0.0186
 2209SOL     OW 8607   5.640   6.094   5.818 -0.1265 -0.3777 -0.3074
 2209SOL    HW2 8608   5.639   5.999   5.823  1.0151 -0.3352  2.6649
 2209SOL    HW3 8609   5.690   6.114   5.739  0.9452 -2.2489 -0.1544
 2209SOL    MW4 8610   5.646   6.084   5.808  0.1655 -0.6189  0.1049
 2210SOL     OW 8611   4.554   1.022   1.261  0.1291  0.0968  0.8853
 2210SOL    HW2 8612   4.563   1.058   1.173  0.1836  0.3502  0.9924
 2210SOL    HW3 8613   4.639   0.984   1.280 -0.6050 -2.2356 -0.1492
 2210SOL    MW4 8614   4.566   1.022   1.252  0.0394 -0.1775  0.7630
 2211SOL     OW 8615   3.694   0.868   2.372 -0.4791  0.1743 -0.1618
 2211SOL    HW2 8616   3.650   0.873   2.288 -1.7213  0.2987  0.4712
 2211SOL    HW3 8617   3.661   0.944   2.421  0.0367 -0.0302  0.5244
 2211SOL    MW4 8618   3.684   0.879   2.368 -0.5750  0.1637  0.0123
 2212SOL     OW 8619   5.176   1.047   0.563 -0.1595 -0.4363 -1.0917
 2212SOL    HW2 8620   5.116   0.972   0.556 -1.6079  0.7212 -1.7327
 2212SOL    HW3 8621   5.123   1.122   0.535  0.6784  1.1324  1.2750
 2212SOL    MW4 8622   5.161   1.047   0.558 -0.2401 -0.0766 -0.8640
 2213SOL     OW 8623   6.082   6.185   4.568  0.0565  0.2394  0.2860
 2213SOL    HW2 8624   6.155   6.139   4.527 -1.8075 -0.9096 -1.9590
 2213SOL    HW3 8625   6.107   6.277   4.565  1.9620 -0.2101  0.8544
 2213SOL    MW4 8626   6.095   6.191   4.562  0.0620  0.0285  0.0648
 2214SOL     OW 8627   6.080   4.320   4.467  0.2123 -0.2993  0.2870
 2214SOL    HW2 8628   6.064   4.269   4.546 -0.2130 -1.5361 -0.5753
 2214SOL    HW3 8629   6.171   4.301   4.444  0.1768 -0.3572  0.1925
 2214SOL    MW4 8630   6.090   4.311   4.474  0.1515 -0.4702  0.1608
 2215SOL     OW 8631   1.281   1.292   0.797  0.3309 -0.0115  0.1989
 2215SOL    HW2 8632   1.316   1.380   0.784  1.2438 -0.5770 -1.4366
 2215SOL    HW3 8633   1.343   1.250   0.857  0.5040  0.0988  0.0965
 2215SOL    MW4 8634   1.294   1.298   0.803  0.4742 -0.0716 -0.0304
 2216SOL     OW 8635   5.642   2.488   2.584  0.5890  0.2870  0.1712
 2216SOL    HW2 8636   5.677   2.525   2.665  3.2992 -1.3161 -0.1455
 2216SOL    HW3 8637   5.718   2.478   2.527 -1.4117  2.7981 -3.2916
 2216SOL    MW4 8638   5.656   2.491   2.587  0.6826  0.4068 -0.3274
 2217SOL     OW 8639   1.996   5.863   4.365  0.3622  0.4423 -0.5871
 2217SOL    HW2 8640   2.013   5.781   4.412  1.2164  1.0376  0.1816
 2217SOL    HW3 8641   1.974   5.925   4.434 -0.9284  0.7115 -1.2303
 2217SOL    MW4 8642   1.996   5.860   4.381  0.3046  0.5564 -0.5706
 2218SOL     OW 8643   0.746   2.080   4.310  0.9258  0.5045 -0.1818
 2218SOL    HW2 8644   0.683   2.010   4.289  0.1873  1.9111 -3.2521
 2218SOL    HW3 8645   0.799   2.088   4.231  1.4854  2.8905  0.3644
 2218SOL    MW4 8646   0.744   2.072   4.296  0.9022  1.0049 -0.5148
 2219SOL     OW 8647   2.367   2.491   1.001  0.0617 -0.3810 -0.4142
 2219SOL    HW2 8648   2.373   2.409   0.952 -2.6229 -1.4259  0.7802
 2219SOL    HW3 8649   2.308   2.471   1.074  0.3527  2.2836  0.6808
 2219SOL    MW4 8650   2.360   2.478   1.004 -0.2541 -0.1673 -0.1122
 2220SOL     OW 8651   1.193   4.017   4.184 -0.1927 -0.5500 -0.1298
 2220SOL    HW2 8652   1.208   4.034   4.277  0.0987 -1.8399  0.0737
 2220SOL    HW3 8653   1.281   4.020   4.144 -0.3013 -0.1365 -0.3479
 2220SOL    MW4 8654   1.207   4.020   4.191 -0.1686 -0.6657 -0.1317
 2221SOL     OW 8655   1.599   1.776   4.089  0.3744  0.5537 -0.6570
 2221SOL    HW2 8656   1.608   1.727   4.171  0.7546  2.4805  0.5404
 2221SOL    HW3 8657   1.662   1.736   4.029  0.7390 -0.3401  0.3025
 2221SOL    MW4 8658   1.608   1.764   4.092  0.4726  0.6900 -0.3724
 2222SOL     OW 8659   4.222   5.598   2.435 -0.0735  0.0911 -0.3694
 2222SOL    HW2 8660   4.285   5.632   2.498 -1.1294  0.4207  0.5375
 2222SOL    HW3 8661   4.259   5.514   2.407  0.0067 -0.4813  1.3383
 2222SOL    MW4 8662   4.235   5.592   2.440 -0.2022  0.0590 -0.0244
 2223SOL     OW 8663   3.129   2.385   6.145 -0.8175  0.5641 -0.3533
 2223SOL    HW2 8664   3.088   2.325   6.207  1.4374  0.3990  1.0656
 2223SOL    HW3 8665   3.160   2.329   6.074  0.4455  0.1573  0.5088
 2223SOL    MW4 8666   3.128   2.370   6.144 -0.3533  0.4887 -0.0524
 2224SOL     OW 8667   0.720   0.464   5.246  1.0843  0.0003 -0.1850
 2224SOL    HW2 8668   0.698   0.423   5.329 -0.2825 -0.7211 -0.8694
 2224SOL    HW3 8669   0.671   0.546   5.245  1.3796  0.1812 -0.1395
 2224SOL    MW4 8670   0.711   0.469   5.257  0.9429 -0.0710 -0.2693
 2225SOL     OW 8671   4.681   2.956   0.723  0.2899 -1.0210  0.0254
 2225SOL    HW2 8672   4.603   2.968   0.778 -0.1689  0.5338 -0.9212
 2225SOL    HW3 8673   4.662   2.879   0.671  0.0828 -1.6084  0.9464
 2225SOL    MW4 8674   4.668   2.948   0.724  0.2021 -0.8933  0.0221
 2226SOL     OW 8675   6.350   0.109   0.135  0.2155  0.8503 -0.0973
 2226SOL    HW2 8676   6.320   0.084   0.223  0.8560 -0.3928 -0.2134
 2226SOL    HW3 8677   6.272   0.103   0.080  0.4106 -1.4015 -0.2046
 2226SOL    MW4 8678   6.336   0.105   0.139  0.3258  0.3892 -0.1268
 2227SOL     OW 8679   1.564   3.628   3.703 -0.2768  0.4059  0.4781
 2227SOL    HW2 8680   1.655   3.611   3.678 -0.9138  0.5072 -2.1904
 2227SOL    HW3 8681   1.531   3.542   3.730  0.3455  0.1885  0.5677
 2227SOL    MW4 8682   1.571   3.614   3.703 -0.2788  0.3906  0.1378
 2228SOL     OW 8683   4.272   1.343   3.172  0.3933 -0.3325 -0.0828
 2228SOL    HW2 8684   4.352   1.391   3.152  0.1163  0.0125 -0.3897
 2228SOL    HW3 8685   4.275   1.265   3.117  1.4180 -1.2959  1.2822
 2228SOL    MW4 8686   4.283   1.339   3.162  0.4919 -0.4141  0.0568
 2229SOL     OW 8687   1.965   5.963   5.966 -0.5445 -0.2377  0.0429
 2229SOL    HW2 8688   1.995   5.877   5.995 -1.7736 -0.2528  1.3988
 2229SOL    HW3 8689   2.042   6.019   5.976 -0.0889 -0.9046  0.4168
 2229SOL    MW4 8690   1.979   5.959   5.971 -0.6466 -0.3277  0.2711
 2230SOL     OW 8691   0.631   6.159   1.278 -0.4619  0.1392  0.1582
 2230SOL    HW2 8692   0.621   6.173   1.184  0.8488 -2.2387 -0.4165
 2230SOL    HW3 8693   0.586   6.076   1.295  0.6865 -0.2957  1.2850
 2230SOL    MW4 8694   0.624   6.150   1.268 -0.1374 -0.2320  0.2310
 2231SOL     OW 8695   4.084   0.454   3.096  0.8769 -0.0619  0.1015
 2231SOL    HW2 8696   4.022   0.407   3.041  0.2959  1.8821 -1.0052
 2231SOL    HW3 8697   4.048   0.447   3.185 -0.4744  0.2936 -0.3919
 2231SOL    MW4 8698   4.071   0.447   3.100  0.6220  0.2415 -0.1096
 2232SOL     OW 8699   3.637   0.424   1.171  0.0763  0.0313  0.0412
 2232SOL    HW2 8700   3.614   0.507   1.212 -1.2217  0.0739 -0.7253
 2232SOL    HW3 8701   3.577   0.360   1.210  0.3165 -0.3451 -0.1968
 2232SOL    MW4 8702   3.626   0.427   1.182 -0.0633 -0.0128 -0.0913
 2233SOL     OW 8703   3.654   1.902   3.386 -0.1237 -0.4680 -0.0388
 2233SOL    HW2 8704   3.679   1.823   3.338  1.7225  0.6001 -0.9363
 2233SOL    HW3 8705   3.614   1.958   3.320  2.4422  1.0186 -0.4396
 2233SOL    MW4 8706   3.652   1.899   3.371  0.4584 -0.1309 -0.2101
 2234SOL     OW 8707   1.571   0.147   3.574  0.4185  0.2160 -0.3104
 2234SOL    HW2 8708   1.478   0.124   3.585  0.7241 -0.4671  1.1588
 2234SOL    HW3 8709   1.605   0.148   3.663  2.3870 -2.0052 -0.9501
 2234SOL    MW4 8710   1.563   0.144   3.587  0.7185 -0.1672 -0.2009
 2235SOL     OW 8711   1.421   0.632   6.056 -0.5074  0.4944  0.0792
 2235SOL    HW2 8712   1.487   0.583   6.104 -0.5462  1.9384  1.7196
 2235SOL    HW3 8713   1.456   0.639   5.967 -0.1476 -1.7510 -0.0234
 2235SOL    MW4 8714   1.434   0.626   6.051 -0.4651  0.3886  0.2821
 2236SOL     OW 8715   3.568   1.001   4.036  0.8291 -0.1552  0.5968
 2236SOL    HW2 8716   3.596   1.040   3.954  0.7768 -0.5938  0.3701
 2236SOL    HW3 8717   3.642   0.949   4.066  0.4775 -0.8398  0.2941
 2236SOL    MW4 8718   3.581   1.000   4.029  0.7758 -0.3034  0.5269
 2237SOL     OW 8719   2.545   1.553   2.089  0.1572 -0.1777  0.2237
 2237SOL    HW2 8720   2.474   1.502   2.129  1.7672 -2.7325  0.0258
 2237SOL    HW3 8721   2.555   1.516   2.002  0.8519  1.0715 -0.2511
 2237SOL    MW4 8722   2.537   1.541   2.083  0.4613 -0.3500  0.1350
 2238SOL     OW 8723   2.562   0.968   3.574 -0.1387  0.2505  0.3476
 2238SOL    HW2 8724   2.512   0.946   3.495  0.0939 -1.1830  0.5775
 2238SOL    HW3 8725   2.649   0.933   3.558  0.1547  0.7111  0.9049
 2238SOL    MW4 8726   2.567   0.960   3.561 -0.0693  0.1221  0.4515
 2239SOL     OW 8727   0.225   0.151   5.405 -0.4656  0.1009 -0.0376
 2239SOL    HW2 8728   0.248   0.219   5.468 -1.6834  0.8428 -0.3617
 2239SOL    HW3 8729   0.208   0.199   5.323  0.1876 -0.7504 -0.6865
 2239SOL    MW4 8730   0.226   0.166   5.402 -0.5401  0.0865 -0.1660
 2240SOL     OW 8731   6.253   2.957   3.782 -1.1114  0.1721 -0.0919
 2240SOL    HW2 8732   6.241   3.009   3.702 -0.3162 -0.0427 -0.3624
 2240SOL    HW3 8733   6.218   2.870   3.759  0.6688 -0.4099 -0.8287
 2240SOL    MW4 8734   6.247   2.952   3.768 -0.7716  0.0670 -0.2248
 2241SOL     OW 8735   5.910   0.853   6.234  0.1445  0.2478 -0.2202
 2241SOL    HW2 8736   5.831   0.799   6.223 -0.3024  0.6361  0.9416
 2241SOL    HW3 8737   5.965   0.804   6.294  0.1090  0.6929  0.1805
 2241SOL    MW4 8738   5.907   0.840   6.240  0.0808  0.3578 -0.0140
 2242SOL     OW 8739   4.272   4.369   5.830 -0.1642 -0.6924  0.2487
 2242SOL    HW2 8740   4.193   4.333   5.791 -0.6824  1.3704 -0.7525
 2242SOL    HW3 8741   4.254   4.369   5.924 -1.1079 -0.7958  0.0758
 2242SOL    MW4 8742   4.259   4.364   5.837 -0.3571 -0.4339  0.0938
 2243SOL     OW 8743   5.778   0.467   4.603  0.3649 -0.0721 -0.0529
 2243SOL    HW2 8744   5.692   0.424   4.608  0.3862 -0.0652  0.3440
 2243SOL    HW3 8745   5.775   0.534   4.671  0.7242 -0.1354  0.0242
 2243SOL    MW4 8746   5.766   0.470   4.613  0.4152 -0.0795  0.0096
 2244SOL     OW 8747   5.610   1.179   3.679  0.2390  0.2495  0.5648
 2244SOL    HW2 8748   5.531   1.206   3.724 -0.8451  1.9039 -2.1121
 2244SOL    HW3 8749   5.607   1.083   3.681 -2.0209  0.2633  0.2273
 2244SOL    MW4 8750   5.599   1.170   3.685 -0.2022  0.4696  0.1671
 2245SOL     OW 8751   5.035   2.341   0.998  0.3808 -0.0209 -0.3403
 2245SOL    HW2 8752   5.061   2.323   1.089 -0.5945  0.2340 -0.0049
 2245SOL    HW3 8753   5.021   2.255   0.959  1.5808 -0.1649 -0.4974
 2245SOL    MW4 8754   5.037   2.328   1.005  0.4105 -0.0063 -0.3168
 2246SOL     OW 8755   6.271   3.596   2.065  0.1928 -0.0307  0.4801
 2246SOL    HW2 8756   6.286   3.553   2.149  1.4615  0.5591  0.5873
 2246SOL    HW3 8757   6.221   3.675   2.086  0.5439  0.1377  0.7058
 2246SOL    MW4 8758   6.267   3.601   2.079  0.4066  0.0693  0.5240
 2247SOL     OW 8759   2.661   4.016   1.634 -0.2570 -0.8872  0.1816
 2247SOL    HW2 8760   2.587   4.022   1.696  0.4492  4.0833  0.9572
 2247SOL    HW3 8761   2.736   3.997   1.689  0.0544  1.6032  0.7716
 2247SOL    MW4 8762   2.661   4.015   1.650 -0.1228  0.0971  0.3617
 2248SOL     OW 8763   1.458   3.054   2.096  0.1878 -0.3390 -0.2028
 2248SOL    HW2 8764   1.485   3.040   2.005  0.3338  0.4733 -0.2921
 2248SOL    HW3 8765   1.452   3.149   2.105  0.7508 -0.3828  0.8017
 2248SOL    MW4 8766   1.461   3.065   2.085  0.2814 -0.2376 -0.0820
 2249SOL     OW 8767   2.130   1.868   2.821 -0.1124  0.6458  0.2856
 2249SOL    HW2 8768   2.183   1.798   2.785  1.9172 -0.8987  5.3278
 2249SOL    HW3 8769   2.187   1.945   2.817  1.6963 -0.3765  3.1470
 2249SOL    MW4 8770   2.145   1.869   2.816  0.3940  0.3071  1.3284
 2250SOL     OW 8771   2.089   0.966   5.263  0.1547  0.0052  0.8662
 2250SOL    HW2 8772   2.062   0.908   5.191  1.2723  0.4477  0.0651
 2250SOL    HW3 8773   2.175   0.934   5.290  1.0285  1.5483  0.0633
 2250SOL    MW4 8774   2.097   0.954   5.257  0.4174  0.2671  0.6545
 2251SOL     OW 8775   1.873   6.121   3.014  0.1872  0.1882  0.3163
 2251SOL    HW2 8776   1.862   6.215   3.026 -0.7709  0.0828  0.3122
 2251SOL    HW3 8777   1.882   6.086   3.102  1.8982  0.4207  0.2702
 2251SOL    MW4 8778   1.873   6.129   3.027  0.2866  0.2050  0.3097
 2252SOL     OW 8779   0.638   1.979   1.005 -0.1423 -0.2698  0.1860
 2252SOL    HW2 8780   0.627   2.074   0.995 -0.4740 -0.3376 -0.0907
 2252SOL    HW3 8781   0.730   1.963   0.983  0.4035  0.2188  1.9261
 2252SOL    MW4 8782   0.649   1.990   1.001 -0.1141 -0.2143  0.3791
 2253SOL     OW 8783   5.743   3.921   3.448 -0.4486  0.3193  0.0488
 2253SOL    HW2 8784   5.713   3.861   3.379  1.2575 -0.2603 -0.2352
 2253SOL    HW3 8785   5.707   4.006   3.422 -1.4352 -0.2417 -0.5013
 2253SOL    MW4 8786   5.734   3.925   3.435 -0.3537  0.1688 -0.0613
 2254SOL     OW 8787   3.205   0.334   3.583  0.2724  0.1908  0.0861
 2254SOL    HW2 8788   3.162   0.289   3.656 -0.3353 -1.9659 -1.5103
 2254SOL    HW3 8789   3.297   0.307   3.590  0.9748  2.6880  1.9347
 2254SOL    MW4 8790   3.212   0.325   3.594  0.2849  0.2358  0.1193
 2255SOL     OW 8791   3.705   5.914   6.117  0.4284  0.0763  0.0082
 2255SOL    HW2 8792   3.793   5.924   6.153 -0.1637 -0.6091  1.7831
 2255SOL    HW3 8793   3.682   5.823   6.136 -0.7985  0.3503 -0.0712
 2255SOL    MW4 8794   3.714   5.903   6.124  0.1884  0.0220  0.2319
 2256SOL     OW 8795   2.484   4.064   2.648 -0.7853  0.0246  0.0283
 2256SOL    HW2 8796   2.422   3.995   2.672 -0.7632 -0.3317 -0.9066
 2256SOL    HW3 8797   2.570   4.024   2.660 -0.7763 -0.2227 -0.8046
 2256SOL    MW4 8798   2.487   4.050   2.653 -0.7812 -0.0550 -0.2049
 2257SOL     OW 8799   0.533   2.494   1.978 -0.4622 -0.4928  0.3200
 2257SOL    HW2 8800   0.452   2.509   1.930 -0.3997 -1.3096 -0.0460
 2257SOL    HW3 8801   0.524   2.407   2.016 -1.3070  0.7926  3.3960
 2257SOL    MW4 8802   0.521   2.485   1.977 -0.5654 -0.4310  0.6775
 2258SOL     OW 8803   4.980   3.252   2.178  0.1446 -0.1090  0.0184
 2258SOL    HW2 8804   5.033   3.299   2.113 -0.1156  0.9359  0.5296
 2258SOL    HW3 8805   4.980   3.161   2.148 -1.2339  0.5713 -2.3054
 2258SOL    MW4 8806   4.987   3.246   2.165 -0.0716  0.1186 -0.2207
 2259SOL     OW 8807   2.708   2.610   6.305  0.0886 -0.1326  0.4259
 2259SOL    HW2 8808   2.695   2.588   6.212 -0.7455 -0.6012  0.6422
 2259SOL    HW3 8809   2.664   2.694   6.316 -0.1920 -0.2893  0.4966
 2259SOL    MW4 8810   2.701   2.618   6.294 -0.0585 -0.2151  0.4637
 2260SOL     OW 8811   5.387   4.505   4.769 -0.5591  0.0310  0.2407
 2260SOL    HW2 8812   5.468   4.476   4.812  0.2095 -2.1746 -2.3638
 2260SOL    HW3 8813   5.387   4.600   4.779  0.1304 -0.2118  3.8888
 2260SOL    MW4 8814   5.398   4.514   4.776 -0.3667 -0.2921  0.3784
 2261SOL     OW 8815   1.448   0.396   4.632 -0.2475 -0.1110 -0.4657
 2261SOL    HW2 8816   1.355   0.414   4.618 -0.3866 -1.4001 -1.4125
 2261SOL    HW3 8817   1.454   0.300   4.634  1.0653 -0.0484 -0.5213
 2261SOL    MW4 8818   1.436   0.386   4.630 -0.0927 -0.2728 -0.5979
 2262SOL     OW 8819   4.620   5.276   4.003 -0.0817 -0.0612 -0.3647
 2262SOL    HW2 8820   4.678   5.339   3.959  0.6906 -1.5908 -1.6380
 2262SOL    HW3 8821   4.651   5.275   4.093  0.7907  0.3761 -0.6419
 2262SOL    MW4 8822   4.632   5.284   4.009  0.1353 -0.2053 -0.5693
 2263SOL     OW 8823   1.016   1.279   5.605 -0.5475 -0.2276  0.1408
 2263SOL    HW2 8824   1.086   1.215   5.591 -0.3117  0.1747 -0.5912
 2263SOL    HW3 8825   0.942   1.227   5.639  0.4467 -0.4805  2.0322
 2263SOL    MW4 8826   1.015   1.264   5.607 -0.3852 -0.2079  0.2937
 2264SOL     OW 8827   5.955   4.951   5.708  0.1520 -0.6295 -0.4440
 2264SOL    HW2 8828   5.886   5.011   5.736  1.4708  0.0847  1.4295
 2264SOL    HW3 8829   5.919   4.909   5.630 -1.5260  1.2718 -0.7817
 2264SOL    MW4 8830   5.941   4.953   5.702  0.1046 -0.2844 -0.2414
 2265SOL     OW 8831   1.044   5.348   3.760 -0.5503  0.1123 -0.0707
 2265SOL    HW2 8832   1.022   5.434   3.724 -0.6406  0.1936  0.1833
 2265SOL    HW3 8833   1.121   5.364   3.814 -0.3686 -0.0252 -0.2877
 2265SOL    MW4 8834   1.051   5.362   3.762 -0.5382  0.1049 -0.0658
 2266SOL     OW 8835   3.641   5.758   0.664 -0.0825  0.7177  0.1845
 2266SOL    HW2 8836   3.630   5.685   0.603 -0.7778  0.4288  0.6412
 2266SOL    HW3 8837   3.552   5.781   0.690  0.2375 -0.3294  2.4477
 2266SOL    MW4 8838   3.628   5.751   0.659 -0.1320  0.5415  0.5434
 2267SOL     OW 8839   0.040   0.272   4.533 -0.5107  0.0422  0.2046
 2267SOL    HW2 8840   0.065   0.277   4.625 -0.7456  0.2385  0.2593
 2267SOL    HW3 8841   0.067   0.356   4.496 -1.5407  0.4671  0.3820
 2267SOL    MW4 8842   0.046   0.284   4.540 -0.6776  0.1242  0.2352
 2268SOL     OW 8843   5.026   0.523   2.370 -0.3502 -0.3375  0.0702
 2268SOL    HW2 8844   5.039   0.616   2.387  2.4059 -0.8059  1.0484
 2268SOL    HW3 8845   4.931   0.513   2.366 -0.7532  2.8745 -2.5238
 2268SOL    MW4 8846   5.015   0.534   2.372 -0.0397  0.0245 -0.1430
 2269SOL     OW 8847   2.538   2.959   3.598 -0.4099  0.2480 -0.0743
 2269SOL    HW2 8848   2.588   3.020   3.653 -0.3943 -1.1840  1.5660
 2269SOL    HW3 8849   2.555   2.989   3.508  0.3473  2.0624  0.6241
 2269SOL    MW4 8850   2.547   2.971   3.593 -0.3080  0.2985  0.2342
 2270SOL     OW 8851   5.491   6.424   3.501  0.1850  0.5013 -0.1328
 2270SOL    HW2 8852   5.408   6.458   3.468 -0.7420 -1.0596  0.4894
 2270SOL    HW3 8853   5.522   6.366   3.432 -0.0548 -0.1547  0.3063
 2270SOL    MW4 8854   5.484   6.421   3.487  0.0311  0.2088  0.0072
 2271SOL     OW 8855   2.934   4.714   4.178 -0.6477 -0.2890  0.4679
 2271SOL    HW2 8856   2.986   4.792   4.158 -0.3572 -1.3491 -3.6821
 2271SOL    HW3 8857   2.998   4.652   4.216  0.1049 -0.0063 -0.3210
 2271SOL    MW4 8858   2.950   4.716   4.181 -0.5100 -0.3915 -0.1837
 2272SOL     OW 8859   4.734   6.281   5.548  0.2332 -0.7072  0.0938
 2272SOL    HW2 8860   4.776   6.262   5.631  0.3579  0.5965  0.3344
 2272SOL    HW3 8861   4.754   6.205   5.493  0.8022 -1.2130  0.9936
 2272SOL    MW4 8862   4.742   6.268   5.551  0.3247 -0.6019  0.2442
 2273SOL     OW 8863   0.378   2.026   6.128 -0.1714  0.4893  0.4058
 2273SOL    HW2 8864   0.413   2.004   6.041  1.8511 -0.8793  1.4760
 2273SOL    HW3 8865   0.295   1.979   6.132 -0.9770  1.6691 -1.2508
 2273SOL    MW4 8866   0.372   2.017   6.117 -0.0109  0.4644  0.3284
 2274SOL     OW 8867   3.146   0.109   5.754 -0.2473 -0.2041 -0.1696
 2274SOL    HW2 8868   3.225   0.081   5.709 -0.0342  0.3635 -0.1634
 2274SOL    HW3 8869   3.170   0.193   5.793  0.0481 -1.3230  2.2598
 2274SOL    MW4 8870   3.160   0.117   5.753 -0.1802 -0.2768  0.1518
 2275SOL     OW 8871   2.672   1.401   4.599 -0.0611 -0.2397 -0.0259
 2275SOL    HW2 8872   2.687   1.317   4.642 -0.8216  0.7978  2.5138
 2275SOL    HW3 8873   2.668   1.464   4.672  0.2475  1.9632 -1.8038
 2275SOL    MW4 8874   2.673   1.398   4.614 -0.1207  0.1878  0.0746
 2276SOL     OW 8875   2.727   3.158   1.961 -0.5284  0.1613  0.1823
 2276SOL    HW2 8876   2.789   3.131   1.894 -0.1576 -0.8700  0.9152
 2276SOL    HW3 8877   2.641   3.136   1.924 -0.2394 -2.2186  0.7798
 2276SOL    MW4 8878   2.724   3.151   1.948 -0.4414 -0.2888  0.3579
 2277SOL     OW 8879   3.330   0.026   1.138  1.1647  0.1478  0.4445
 2277SOL    HW2 8880   3.265   0.072   1.085  1.5461  0.2644  0.0757
 2277SOL    HW3 8881   3.381   0.097   1.178  0.7348  0.0693  1.1618
 2277SOL    MW4 8882   3.328   0.042   1.137  1.1583  0.1528  0.4904
 2278SOL     OW 8883   2.812   1.469   4.186  0.0061  0.0061 -0.0827
 2278SOL    HW2 8884   2.834   1.498   4.275 -0.7826 -1.4146  0.6178
 2278SOL    HW3 8885   2.724   1.503   4.170  0.5824  1.1974 -0.7715
 2278SOL    MW4 8886   2.803   1.477   4.196 -0.0219 -0.0242 -0.0812
 2279SOL     OW 8887   0.433   2.195   3.728 -0.1620 -0.1940  0.1795
 2279SOL    HW2 8888   0.398   2.124   3.782  1.2212  1.2028  3.0927
 2279SOL    HW3 8889   0.358   2.251   3.711 -0.3914  0.0640  1.8995
 2279SOL    MW4 8890   0.419   2.193   3.733 -0.0098  0.0244  0.7908
 2280SOL     OW 8891   5.956   4.772   0.380  0.4939  0.1179  0.2089
 2280SOL    HW2 8892   5.874   4.730   0.405 -0.1111  1.5300  0.6892
 2280SOL    HW3 8893   5.995   4.713   0.316 -0.5615 -0.9028  0.4814
 2280SOL    MW4 8894   5.950   4.759   0.375  0.2749  0.1695  0.3082
 2281SOL     OW 8895   6.107   2.913   6.059 -0.0616 -0.1928 -0.2417
 2281SOL    HW2 8896   6.142   2.987   6.109  0.6943 -0.7879  0.1337
 2281SOL    HW3 8897   6.177   2.890   5.998 -0.7808  0.1990 -1.2420
 2281SOL    MW4 8898   6.121   2.920   6.057 -0.0567 -0.2196 -0.3242
 2282SOL     OW 8899   1.842   1.366   0.624 -0.0345 -0.0030 -0.3141
 2282SOL    HW2 8900   1.767   1.310   0.638  0.0410  0.0586  0.3759
 2282SOL    HW3 8901   1.817   1.423   0.551 -0.3982 -0.4187 -0.5142
 2282SOL    MW4 8902   1.829   1.366   0.616 -0.0725 -0.0498 -0.2494
 2283SOL     OW 8903   4.580   3.638   6.233  0.5361  0.2678  0.1946
 2283SOL    HW2 8904   4.620   3.560   6.271  0.7301  1.2378  2.0840
 2283SOL    HW3 8905   4.487   3.617   6.228  0.4904  0.1482  1.3524
 2283SOL    MW4 8906   4.573   3.625   6.238  0.5556  0.3800  0.5967
 2284SOL     OW 8907   0.367   6.340   1.418 -0.0531  0.0871  0.1279
 2284SOL    HW2 8908   0.427   6.339   1.492 -0.1078  0.1749  0.1737
 2284SOL    HW3 8909   0.281   6.358   1.457 -0.0772  0.1613  0.0397
 2284SOL    MW4 8910   0.363   6.342   1.433 -0.0635  0.1085  0.1223
 2285SOL     OW 8911   0.945   5.782   4.177 -0.2345 -0.2715  0.4062
 2285SOL    HW2 8912   0.861   5.763   4.219 -1.9619  1.7438 -1.8712
 2285SOL    HW3 8913   0.926   5.785   4.084  2.6961 -1.0295 -0.3360
 2285SOL    MW4 8914   0.931   5.780   4.171 -0.0758 -0.1056  0.0078
 2286SOL     OW 8915   5.512   4.053   4.902  0.5599  0.3294 -0.0294
 2286SOL    HW2 8916   5.584   3.993   4.923 -0.6317 -1.2392 -0.2680
 2286SOL    HW3 8917   5.465   4.065   4.984 -0.5374 -0.9322 -0.4431
 2286SOL    MW4 8918   5.516   4.047   4.916  0.2579 -0.0440 -0.1155
 2287SOL     OW 8919   2.534   5.654   5.183 -0.6101  0.0590  0.3951
 2287SOL    HW2 8920   2.605   5.607   5.140 -1.7401  0.0380 -1.5707
 2287SOL    HW3 8921   2.575   5.696   5.259  0.9562 -1.9375  0.7368
 2287SOL    MW4 8922   2.549   5.654   5.188 -0.5525 -0.2072  0.1808
 2288SOL     OW 8923   5.745   4.041   5.383  0.1625 -0.7783 -0.3620
 2288SOL    HW2 8924   5.823   4.030   5.437  0.2178  0.8616 -0.0820
 2288SOL    HW3 8925   5.719   3.951   5.360 -0.4240 -1.6448  3.1747
 2288SOL    MW4 8926   5.752   4.027   5.387  0.0924 -0.6762  0.1416
 2289SOL     OW 8927   4.200   0.415   0.836  0.5048 -0.6870  0.0546
 2289SOL    HW2 8928   4.240   0.340   0.880 -0.3763 -0.2613  1.6453
 2289SOL    HW3 8929   4.214   0.398   0.743  2.3680 -1.6553  0.4543
 2289SOL    MW4 8930   4.207   0.403   0.830  0.6343 -0.7586  0.3172
 2290SOL     OW 8931   5.992   3.094   1.096  0.3193 -0.6098 -0.1055
 2290SOL    HW2 8932   5.972   3.003   1.072 -2.9154 -0.5923  1.8774
 2290SOL    HW3 8933   6.035   3.088   1.181  2.0381 -0.2752 -0.9022
 2290SOL    MW4 8934   5.995   3.081   1.104  0.1193 -0.5633  0.0510
 2291SOL     OW 8935   3.865   2.085   1.139  0.4124  0.6749  0.2090
 2291SOL    HW2 8936   3.792   2.127   1.092 -1.4059  0.1953  2.3992
 2291SOL    HW3 8937   3.920   2.048   1.070 -2.7406 -1.0829 -1.5978
 2291SOL    MW4 8938   3.862   2.086   1.124 -0.2435  0.3797  0.2596
 2292SOL     OW 8939   3.205   2.376   4.311  0.0306 -1.0579 -0.1427
 2292SOL    HW2 8940   3.163   2.415   4.234 -0.4730  0.5851  0.9058
 2292SOL    HW3 8941   3.255   2.448   4.350 -0.6884 -1.5158  1.7266
 2292SOL    MW4 8942   3.206   2.391   4.306 -0.1307 -0.9015  0.2423
 2293SOL     OW 8943   0.413   0.169   4.662 -0.0830 -0.2472 -0.2612
 2293SOL    HW2 8944   0.449   0.144   4.747 -1.0069  0.1209  0.2607
 2293SOL    HW3 8945   0.357   0.096   4.637  0.2797 -0.4038 -0.6000
 2293SOL    MW4 8946   0.410   0.156   4.670 -0.1570 -0.2193 -0.2370
 2294SOL     OW 8947   2.978   4.099   6.390 -0.3637  0.6124  0.3673
 2294SOL    HW2 8948   3.057   4.053   6.360  0.2692  2.0412 -0.2685
 2294SOL    HW3 8949   2.916   4.090   6.317 -0.6436 -0.1326  0.6873
 2294SOL    MW4 8950   2.980   4.092   6.376 -0.3172  0.7026  0.3257
 2295SOL     OW 8951   2.213   2.532   1.759 -0.5167  0.0311 -0.1920
 2295SOL    HW2 8952   2.296   2.485   1.770  0.1633  1.2172 -0.0900
 2295SOL    HW3 8953   2.220   2.572   1.673 -1.3644 -0.5731 -0.5487
 2295SOL    MW4 8954   2.225   2.531   1.749 -0.5388  0.1078 -0.2256
 2296SOL     OW 8955   4.423   2.568   3.205  0.6061 -0.0858 -0.1836
 2296SOL    HW2 8956   4.486   2.500   3.227  0.5814 -0.4826 -1.2850
 2296SOL    HW3 8957   4.353   2.557   3.269 -0.0169 -1.9493 -1.1132
 2296SOL    MW4 8958   4.422   2.558   3.217  0.5206 -0.3840 -0.4516
 2297SOL     OW 8959   0.185   0.971   3.208  0.0019 -0.3805 -0.2083
 2297SOL    HW2 8960   0.234   0.893   3.233 -1.5942 -0.7190  2.1767
 2297SOL    HW3 8961   0.206   1.035   3.276  0.0364  0.7419 -1.2518
 2297SOL    MW4 8962   0.194   0.969   3.220 -0.2042 -0.2771 -0.0313
 2298SOL     OW 8963   2.726   4.683   4.386 -0.5308  0.4900  0.1795
 2298SOL    HW2 8964   2.653   4.718   4.335 -0.6853  0.5681  0.4562
 2298SOL    HW3 8965   2.802   4.691   4.327 -0.8803 -0.2964 -0.3971
 2298SOL    MW4 8966   2.727   4.688   4.371 -0.5973  0.3965  0.1400
 2299SOL     OW 8967   3.779   2.133   0.747 -0.4398  0.0681 -0.3679
 2299SOL    HW2 8968   3.699   2.162   0.702  0.1163  1.2799 -0.6028
 2299SOL    HW3 8969   3.825   2.080   0.681 -0.7264 -0.0935 -0.4443
 2299SOL    MW4 8970   3.774   2.130   0.732 -0.4043  0.2067 -0.4090
 2300SOL     OW 8971   5.098   5.635   4.906  0.1735 -0.1849  0.0922
 2300SOL    HW2 8972   5.067   5.724   4.890  0.8837  0.1270  0.4277
 2300SOL    HW3 8973   5.159   5.644   4.978 -0.5497 -1.1038  0.8395
 2300SOL    MW4 8974   5.102   5.648   4.913  0.1718 -0.2650  0.2351
 2301SOL     OW 8975   1.524   3.383   5.629 -0.4020 -0.2847  0.0720
 2301SOL    HW2 8976   1.606   3.379   5.579  1.1057  2.3618  2.0375
 2301SOL    HW3 8977   1.457   3.403   5.564  0.8935 -0.2274 -1.3070
 2301SOL    MW4 8978   1.526   3.385   5.614 -0.0322  0.0721  0.1494
 2302SOL     OW 8979   2.677   3.236   0.531 -0.2611  0.3359  0.3324
 2302SOL    HW2 8980   2.701   3.303   0.596 -0.2185  0.0583  0.6070
 2302SOL    HW3 8981   2.698   3.153   0.574 -0.8308  0.1242  0.2043
 2302SOL    MW4 8982   2.683   3.234   0.545 -0.3306  0.2713  0.3517
 2303SOL     OW 8983   2.679   2.254   1.105 -0.0144 -0.2327 -0.1771
 2303SOL    HW2 8984   2.585   2.239   1.119  0.2628 -1.8320  0.0660
 2303SOL    HW3 8985   2.720   2.225   1.186  0.7586 -0.1395 -0.5325
 2303SOL    MW4 8986   2.672   2.248   1.118  0.1241 -0.4314 -0.1919
 2304SOL     OW 8987   5.132   4.682   5.063 -0.1867 -0.6176 -0.0950
 2304SOL    HW2 8988   5.132   4.775   5.040 -0.2417 -0.6603 -0.2716
 2304SOL    HW3 8989   5.115   4.637   4.980  0.7199 -0.8266 -0.1826
 2304SOL    MW4 8990   5.130   4.688   5.049 -0.0744 -0.6508 -0.1299
 2305SOL     OW 8991   5.467   0.787   0.060  0.0703  0.0543  0.5824
 2305SOL    HW2 8992   5.463   0.758  -0.031  0.6318  1.9865 -0.1143
 2305SOL    HW3 8993   5.515   0.870   0.056 -1.7815  1.3002  2.3423
 2305SOL    MW4 8994   5.473   0.794   0.047 -0.0999  0.4736  0.7227
 2306SOL     OW 8995   1.254   0.063   3.684  0.3650  0.1231 -0.4718
 2306SOL    HW2 8996   1.255   0.103   3.771 -0.8858 -2.1628  0.6950
 2306SOL    HW3 8997   1.183   0.108   3.638  0.3941  0.6971  0.0283
 2306SOL    MW4 8998   1.245   0.074   3.689  0.2038 -0.1028 -0.2518
 2307SOL     OW 8999   3.343   5.593   6.098 -0.0749 -0.1276 -0.2118
 2307SOL    HW2 9000   3.292   5.540   6.036 -0.0007 -0.8083  0.2989
 2307SOL    HW3 9001   3.303   5.575   6.183  1.0798 -0.7729  0.2155
 2307SOL    MW4 9002   3.331   5.583   6.101  0.0872 -0.3025 -0.0880
 2308SOL     OW 9003   1.813   4.285   3.697 -0.4126 -0.4015  0.8420
 2308SOL    HW2 9004   1.869   4.230   3.752  1.6892 -0.9833 -1.6865
 2308SOL    HW3 9005   1.752   4.224   3.656 -0.2057 -0.3691  0.4860
 2308SOL    MW4 9006   1.812   4.270   3.699 -0.1080 -0.4740  0.4614
 2309SOL     OW 9007   3.574   5.103   4.655  0.1352 -0.1813  0.4280
 2309SOL    HW2 9008   3.594   5.034   4.592 -0.1104  1.6175 -1.7638
 2309SOL    HW3 9009   3.485   5.130   4.632  0.9446  2.1922 -0.1540
 2309SOL    MW4 9010   3.565   5.097   4.644  0.2096  0.3691  0.0620
 2310SOL     OW 9011   4.579   1.257   0.320 -0.5219  0.3091  0.2491
 2310SOL    HW2 9012   4.571   1.353   0.324 -0.2664  0.3258  0.3872
 2310SOL    HW3 9013   4.584   1.230   0.412 -1.0003  0.1248  0.2247
 2310SOL    MW4 9014   4.579   1.266   0.333 -0.5513  0.2870  0.2641
 2311SOL     OW 9015   4.020   3.982   5.732 -0.3212  0.4965 -0.1681
 2311SOL    HW2 9016   3.931   3.948   5.741 -1.0030  2.1996 -0.1278
 2311SOL    HW3 9017   4.075   3.904   5.728 -1.6848 -0.5849  1.0806
 2311SOL    MW4 9018   4.015   3.967   5.733 -0.5910  0.5785  0.0020
 2312SOL     OW 9019   6.231   1.413   6.164  0.2066  0.0448  0.2578
 2312SOL    HW2 9020   6.321   1.441   6.148  0.6342 -1.1389  0.5249
 2312SOL    HW3 9021   6.235   1.365   6.247 -0.7174  0.1764  0.3900
 2312SOL    MW4 9022   6.244   1.410   6.173  0.1411 -0.0940  0.3105
 2313SOL     OW 9023   3.950   4.324   0.052  0.3890 -0.5844 -0.1478
 2313SOL    HW2 9024   3.970   4.408   0.011  0.6564 -1.4955 -1.9767
 2313SOL    HW3 9025   4.018   4.313   0.119 -1.8169  2.3285  2.8972
 2313SOL    MW4 9026   3.962   4.333   0.056  0.1332 -0.3203  0.0126
 2314SOL     OW 9027   1.728   3.041   2.290 -0.3582  0.0227 -0.3795
 2314SOL    HW2 9028   1.647   3.039   2.341 -0.4053 -1.7132 -0.4817
 2314SOL    HW3 9029   1.775   3.118   2.324 -1.1045 -0.1599  1.1563
 2314SOL    MW4 9030   1.723   3.051   2.301 -0.4629 -0.2304 -0.1904
 2315SOL     OW 9031   3.100   0.468   4.942  0.1810  0.1051  0.2810
 2315SOL    HW2 9032   3.150   0.427   4.872  1.1051 -0.3893  1.1923
 2315SOL    HW3 9033   3.068   0.394   4.995 -0.5197  0.4668  0.3813
 2315SOL    MW4 9034   3.102   0.453   4.940  0.2105  0.0876  0.4144
 2316SOL     OW 9035   0.984   3.277   4.695 -0.0317  0.2303  0.5257
 2316SOL    HW2 9036   0.918   3.218   4.659  0.5982 -0.1698  0.0107
 2316SOL    HW3 9037   1.017   3.231   4.773  1.4363 -0.7629 -0.6396
 2316SOL    MW4 9038   0.979   3.263   4.701  0.2451  0.0465  0.3040
 2317SOL     OW 9039   5.741   1.563   3.867  0.2432 -0.4063 -0.6901
 2317SOL    HW2 9040   5.798   1.492   3.895  0.6512 -0.3093 -1.2684
 2317SOL    HW3 9041   5.654   1.538   3.899  0.2927 -1.3939 -1.2806
 2317SOL    MW4 9042   5.737   1.550   3.875  0.3035 -0.5238 -0.8443
 2318SOL     OW 9043   3.464   4.692   1.792 -0.3657 -0.1636  0.0641
 2318SOL    HW2 9044   3.503   4.672   1.877 -1.7247 -0.5622  0.6177
 2318SOL    HW3 9045   3.417   4.775   1.807  1.2399  0.9886 -0.9280
 2318SOL    MW4 9046   3.463   4.701   1.805 -0.3331 -0.0642  0.0062
 2319SOL     OW 9047   0.960   0.056   6.200  0.6311 -0.2801 -0.0280
 2319SOL    HW2 9048   0.966   0.135   6.147  1.8455 -0.6159 -0.4291
 2319SOL    HW3 9049   1.041   0.008   6.180  0.0391 -1.4905  0.4068
 2319SOL    MW4 9050   0.972   0.060   6.191  0.7132 -0.4841 -0.0236
 2320SOL     OW 9051   2.162   6.145   5.727 -0.1840  0.0588 -0.2150
 2320SOL    HW2 9052   2.205   6.184   5.651 -1.8871 -0.3842 -1.4592
 2320SOL    HW3 9053   2.145   6.055   5.701  0.1660 -0.4088  1.1226
 2320SOL    MW4 9054   2.165   6.138   5.713 -0.3625 -0.0613 -0.2027
 2321SOL     OW 9055   3.649   5.182   4.074  0.8730  0.3215 -0.0084
 2321SOL    HW2 9056   3.648   5.100   4.024  0.6602  0.5189 -0.3212
 2321SOL    HW3 9057   3.702   5.161   4.152 -1.2634 -0.8882  1.2144
 2321SOL    MW4 9058   3.656   5.168   4.078  0.5630  0.1879  0.1117
 2322SOL     OW 9059   6.234   3.680   0.514  0.0075  0.4356  0.3025
 2322SOL    HW2 9060   6.201   3.650   0.599  0.6576  1.6878  1.0375
 2322SOL    HW3 9061   6.162   3.732   0.478 -1.3999 -2.4042 -1.3010
 2322SOL    MW4 9062   6.220   3.683   0.521 -0.0924  0.2261  0.1879
 2323SOL     OW 9063   5.714   3.409   5.473  0.6727 -0.4810  0.2702
 2323SOL    HW2 9064   5.674   3.481   5.522  0.3128  0.7510 -1.6897
 2323SOL    HW3 9065   5.800   3.397   5.512 -0.8016 -1.9724  3.4363
 2323SOL    MW4 9066   5.720   3.417   5.485  0.4307 -0.5153  0.4294
 2324SOL     OW 9067   5.498   6.287   2.276  0.1156 -0.2967  0.5196
 2324SOL    HW2 9068   5.475   6.379   2.289  0.1822  0.2382 -2.3585
 2324SOL    HW3 9069   5.593   6.288   2.261 -0.2156 -0.4110 -1.9716
 2324SOL    MW4 9070   5.508   6.299   2.276  0.0807 -0.2412 -0.1888
 2325SOL     OW 9071   2.308   5.566   0.621  0.1909  0.6749  0.3670
 2325SOL    HW2 9072   2.309   5.545   0.715 -1.4015 -1.5059 -0.0043
 2325SOL    HW3 9073   2.220   5.601   0.605  0.2241  0.4381 -0.3823
 2325SOL    MW4 9074   2.296   5.568   0.631 -0.0149  0.3559  0.2191
 2326SOL     OW 9075   2.229   5.128   3.468  0.1672 -0.9242 -0.1104
 2326SOL    HW2 9076   2.140   5.146   3.496  0.6805 -0.2519  1.2070
 2326SOL    HW3 9077   2.224   5.044   3.423 -1.1568 -0.7927 -0.2404
 2326SOL    MW4 9078   2.217   5.120   3.466  0.0602 -0.8182  0.0462
 2327SOL     OW 9079   0.674   2.499   1.678  0.3609  0.4854 -0.5738
 2327SOL    HW2 9080   0.744   2.447   1.716  0.4513  0.4180 -0.8343
 2327SOL    HW3 9081   0.666   2.468   1.588  0.6039  1.1091 -0.8146
 2327SOL    MW4 9082   0.682   2.488   1.671  0.4049  0.5588 -0.6399
 2328SOL     OW 9083   5.476   0.180   5.609 -0.2085  0.0694 -0.5945
 2328SOL    HW2 9084   5.486   0.237   5.533  0.1398  0.4423 -0.2752
 2328SOL    HW3 9085   5.463   0.240   5.683 -1.1392 -0.3071 -0.4383
 2328SOL    MW4 9086   5.476   0.196   5.609 -0.2853  0.0689 -0.5317
 2329SOL     OW 9087   2.830   3.629   2.368  0.0165  0.9855  0.0241
 2329SOL    HW2 9088   2.918   3.593   2.366 -0.0593  0.8128 -0.2069
 2329SOL    HW3 9089   2.817   3.666   2.280 -0.9818 -1.0085 -0.7387
 2329SOL    MW4 9090   2.840   3.629   2.356 -0.1252  0.6997 -0.1070
 2330SOL     OW 9091   5.537   1.074   6.397  0.4765 -0.2640 -0.4783
 2330SOL    HW2 9092   5.542   1.169   6.386  0.0866 -0.1276  0.3904
 2330SOL    HW3 9093   5.483   1.044   6.325 -2.3699  0.6091  1.0964
 2330SOL    MW4 9094   5.531   1.083   6.386  0.0495 -0.1308 -0.1559
 2331SOL     OW 9095   4.045   4.078   0.255 -0.0379  0.2744 -0.3279
 2331SOL    HW2 9096   3.985   4.110   0.323  0.5095 -0.6827  0.6378
 2331SOL    HW3 9097   4.110   4.148   0.246  1.1272 -0.4571  1.7271
 2331SOL    MW4 9098   4.046   4.092   0.263  0.1880  0.0516  0.0706
 2332SOL     OW 9099   4.822   0.960   1.338 -0.5313 -0.6023  0.5547
 2332SOL    HW2 9100   4.833   0.897   1.267 -0.1467  0.3692 -0.2744
 2332SOL    HW3 9101   4.870   0.922   1.412  1.4379 -0.3397 -0.5341
 2332SOL    MW4 9102   4.830   0.947   1.338 -0.2207 -0.4394  0.3016
 2333SOL     OW 9103   6.204   6.234   2.683 -0.6123 -0.6826 -0.4435
 2333SOL    HW2 9104   6.211   6.164   2.618 -1.3333  0.8701 -2.2761
 2333SOL    HW3 9105   6.289   6.279   2.680 -0.5613 -0.7517 -0.1214
 2333SOL    MW4 9106   6.217   6.231   2.674 -0.7007 -0.4868 -0.6428
 2334SOL     OW 9107   3.241   3.048   5.056 -0.3049 -0.9506  0.6663
 2334SOL    HW2 9108   3.279   2.986   4.994  0.8909 -1.5079  1.9021
 2334SOL    HW3 9109   3.308   3.116   5.066 -1.1577 -0.0045  0.1493
 2334SOL    MW4 9110   3.255   3.049   5.049 -0.2597 -0.8993  0.7611
 2335SOL     OW 9111   3.312   1.594   0.346 -0.3208 -0.0267  0.3677
 2335SOL    HW2 9112   3.251   1.667   0.354  0.5655  0.9639 -1.4496
 2335SOL    HW3 9113   3.309   1.570   0.253  1.9893  0.0248  0.2227
 2335SOL    MW4 9114   3.303   1.600   0.335  0.1009  0.1108  0.1088
 2336SOL     OW 9115   1.679   2.882   0.165 -0.1248 -0.2021 -0.0259
 2336SOL    HW2 9116   1.667   2.915   0.076 -3.5503  3.4897  1.4680
 2336SOL    HW3 9117   1.619   2.809   0.172 -0.3019 -0.1166 -0.5843
 2336SOL    MW4 9118   1.670   2.877   0.154 -0.6001  0.2962  0.0976
 2337SOL     OW 9119   2.206   3.012   1.370 -0.1441  0.3528 -0.3237
 2337SOL    HW2 9120   2.300   3.023   1.385 -0.0223 -0.2817 -0.6139
 2337SOL    HW3 9121   2.168   3.008   1.457  0.4299 -2.2567 -0.1168
 2337SOL    MW4 9122   2.214   3.013   1.383 -0.0523 -0.0752 -0.3347
 2338SOL     OW 9123   6.272   4.984   3.115  0.3870 -0.3872 -0.1163
 2338SOL    HW2 9124   6.279   5.071   3.075 -0.1227  1.2149  3.0392
 2338SOL    HW3 9125   6.186   4.952   3.089  0.3336  0.2805 -0.7933
 2338SOL    MW4 9126   6.262   4.991   3.106  0.3127 -0.0877  0.2107
 2339SOL     OW 9127   6.373   5.207   1.391  0.0989  0.2075  0.6604
 2339SOL    HW2 9128   6.311   5.150   1.436 -0.0172 -0.1451  0.0658
 2339SOL    HW3 9129   6.453   5.201   1.443  0.1124 -0.5634  0.5678
 2339SOL    MW4 9130   6.375   5.198   1.404  0.0854  0.0593  0.5697
 2340SOL     OW 9131   0.344   2.791   3.567  0.8165 -0.2462  0.6417
 2340SOL    HW2 9132   0.298   2.875   3.561  0.4631 -0.3469  1.7392
 2340SOL    HW3 9133   0.364   2.781   3.660  0.6634 -1.4804  0.5568
 2340SOL    MW4 9134   0.340   2.800   3.579  0.7497 -0.4223  0.7753
 2341SOL     OW 9135   6.268   4.791   1.332  0.0791 -0.8089  0.0892
 2341SOL    HW2 9136   6.237   4.778   1.242  1.0717 -0.6332 -0.2912
 2341SOL    HW3 9137   6.359   4.818   1.322 -0.0823  0.1973  1.1127
 2341SOL    MW4 9138   6.276   4.793   1.318  0.1888 -0.6530  0.1741
 2342SOL     OW 9139   2.399   3.276   4.893  0.4652  0.4641 -0.0750
 2342SOL    HW2 9140   2.334   3.318   4.835 -0.5957  1.1340  1.5274
 2342SOL    HW3 9141   2.449   3.349   4.929  1.0213  0.0624 -0.0290
 2342SOL    MW4 9142   2.397   3.291   4.890  0.3986  0.4995  0.1425
 2343SOL     OW 9143   1.431   0.194   1.008 -0.8920 -0.0849 -0.5141
 2343SOL    HW2 9144   1.385   0.238   1.080  1.0534 -0.8156  1.2775
 2343SOL    HW3 9145   1.466   0.265   0.955 -1.2015  0.4866  0.0342
 2343SOL    MW4 9146   1.429   0.209   1.011 -0.6762 -0.1059 -0.2054
 2344SOL     OW 9147   4.410   5.536   1.640 -0.0744  0.2777  0.4223
 2344SOL    HW2 9148   4.364   5.568   1.562  1.2493 -2.6688 -1.7438
 2344SOL    HW3 9149   4.360   5.460   1.667  0.6696  0.0442  1.1604
 2344SOL    MW4 9150   4.397   5.530   1.633  0.1984 -0.1419  0.2339
 2345SOL     OW 9151   4.935   3.648   0.095  0.4844 -0.3714 -0.4628
 2345SOL    HW2 9152   4.932   3.678   0.185  4.1943  2.5002 -1.0316
 2345SOL    HW3 9153   4.979   3.563   0.099  1.1926  0.0234  0.4512
 2345SOL    MW4 9154   4.940   3.641   0.107  1.0673  0.0596 -0.4173
 2346SOL     OW 9155   5.279   3.642   1.786 -0.2874  0.7546 -0.3076
 2346SOL    HW2 9156   5.326   3.716   1.746 -0.2278  1.0250  0.2560
 2346SOL    HW3 9157   5.187   3.669   1.787 -0.1152  1.3763  1.0650
 2346SOL    MW4 9158   5.273   3.655   1.781 -0.2568  0.8723 -0.0521
 2347SOL     OW 9159   0.639   0.424   1.145 -0.1099 -0.1128  0.2448
 2347SOL    HW2 9160   0.586   0.426   1.224 -3.4193 -1.7660 -1.6915
 2347SOL    HW3 9161   0.658   0.516   1.126  1.4812  0.3031  3.2218
 2347SOL    MW4 9162   0.634   0.436   1.153 -0.3366 -0.2761  0.3821
 2348SOL     OW 9163   3.569   4.920   6.386 -0.0968  0.5712  0.5186
 2348SOL    HW2 9164   3.494   4.976   6.367 -0.5462 -0.0317  0.4691
 2348SOL    HW3 9165   3.645   4.969   6.353 -0.0076  2.7556  3.5664
 2348SOL    MW4 9166   3.569   4.934   6.379 -0.1443  0.7799  0.9142
 2349SOL     OW 9167   5.956   4.095   5.048  0.3308  0.2020 -0.6006
 2349SOL    HW2 9168   5.875   4.046   5.037  0.4764  0.0538 -1.0311
 2349SOL    HW3 9169   5.929   4.177   5.091  0.3997 -1.2320  2.4726
 2349SOL    MW4 9170   5.942   4.099   5.052  0.3591 -0.0067 -0.2519
 2350SOL     OW 9171   0.849   4.061   6.108  0.3044  0.1262 -0.3143
 2350SOL    HW2 9172   0.777   4.083   6.167 -0.5704  0.4370 -1.4453
 2350SOL    HW3 9173   0.845   4.128   6.040  1.5500  0.0274 -0.5030
 2350SOL    MW4 9174   0.839   4.073   6.106  0.3533  0.1542 -0.4884
 2351SOL     OW 9175   4.311   4.093   4.157 -0.8994 -0.0543  0.0101
 2351SOL    HW2 9176   4.300   4.180   4.120  1.8350  0.1684 -0.4841
 2351SOL    HW3 9177   4.297   4.033   4.084 -1.4187  0.0365  0.0325
 2351SOL    MW4 9178   4.308   4.096   4.143 -0.6072 -0.0129 -0.0522
 2352SOL     OW 9179   0.362   6.071   2.080 -0.1560 -0.1017  0.0045
 2352SOL    HW2 9180   0.376   5.981   2.050 -2.5029 -0.1450 -1.2308
 2352SOL    HW3 9181   0.287   6.065   2.139 -0.6751  1.1007 -0.5074
 2352SOL    MW4 9182   0.354   6.058   2.083 -0.5341  0.0512 -0.2261
 2353SOL     OW 9183   3.066   1.408   3.350  0.3449 -0.1401  0.2185
 2353SOL    HW2 9184   3.047   1.500   3.367 -2.2311 -0.0423 -2.3961
 2353SOL    HW3 9185   3.006   1.359   3.406 -0.1184 -0.1376 -0.2702
 2353SOL    MW4 9186   3.056   1.414   3.360 -0.0561 -0.1268 -0.1910
 2354SOL     OW 9187   4.866   1.235   0.275 -0.4437 -0.0315 -0.1775
 2354SOL    HW2 9188   4.777   1.229   0.310 -0.5390  1.4377 -0.1115
 2354SOL    HW3 9189   4.917   1.274   0.346  0.6113 -2.2094  0.3299
 2354SOL    MW4 9190   4.861   1.240   0.289 -0.3171 -0.1250 -0.1019
 2355SOL     OW 9191   4.932   4.284   5.683  0.1057 -0.2724  0.0890
 2355SOL    HW2 9192   4.858   4.223   5.674 -1.2246  1.3490 -0.3564
 2355SOL    HW3 9193   4.897   4.358   5.732  1.0955  1.0575 -1.1360
 2355SOL    MW4 9194   4.918   4.285   5.688  0.0607  0.1170 -0.1314
 2356SOL     OW 9195   5.585   4.038   4.192  0.1398  0.0770  0.3123
 2356SOL    HW2 9196   5.643   4.010   4.263 -0.8188  0.8723  1.4451
 2356SOL    HW3 9197   5.514   3.973   4.192  0.4891 -0.3100 -0.3817
 2356SOL    MW4 9198   5.583   4.026   4.201  0.0594  0.1309  0.3702
 2357SOL     OW 9199   0.233   2.291   2.768  0.5833 -0.3712  0.0820
 2357SOL    HW2 9200   0.270   2.379   2.764 -1.0224  0.2973 -1.3641
 2357SOL    HW3 9201   0.222   2.274   2.861  1.9911  0.4666  0.4322
 2357SOL    MW4 9202   0.236   2.301   2.779  0.5572 -0.1725 -0.0626
 2358SOL     OW 9203   3.089   3.878   2.707  0.2094  0.4056  0.3867
 2358SOL    HW2 9204   3.017   3.817   2.689 -0.5227  0.2014  3.3558
 2358SOL    HW3 9205   3.158   3.853   2.646 -0.7558 -2.1999  0.2370
 2358SOL    MW4 9206   3.088   3.867   2.697 -0.0146  0.0349  0.7587
 2359SOL     OW 9207   2.270   2.300   0.239  0.4921  0.2210 -0.8685
 2359SOL    HW2 9208   2.334   2.229   0.248 -0.3456 -0.5249 -0.6443
 2359SOL    HW3 9209   2.323   2.379   0.231  1.4456 -0.4021 -0.8944
 2359SOL    MW4 9210   2.285   2.301   0.239  0.5074  0.0403 -0.8423
 2360SOL     OW 9211   0.429   4.904   4.348 -0.1744 -0.0995 -0.0477
 2360SOL    HW2 9212   0.334   4.893   4.360 -0.3084  1.3862  0.4528
 2360SOL    HW3 9213   0.465   4.900   4.437  0.1460  0.0975 -0.1681
 2360SOL    MW4 9214   0.421   4.902   4.361 -0.1498  0.1225  0.0025
 2361SOL     OW 9215   5.886   5.502   3.874 -0.1144  0.2774  0.3977
 2361SOL    HW2 9216   5.900   5.533   3.963  2.4063 -0.6916  0.4181
 2361SOL    HW3 9217   5.792   5.490   3.867 -0.2993 -0.4995  3.2317
 2361SOL    MW4 9218   5.876   5.505   3.885  0.1938  0.0470  0.7743
 2362SOL     OW 9219   3.052   5.976   5.872  0.0591  0.2776  0.0577
 2362SOL    HW2 9220   3.103   5.914   5.925 -0.0112 -0.2936 -0.5309
 2362SOL    HW3 9221   2.961   5.949   5.886  0.0513  0.0136 -0.4849
 2362SOL    MW4 9222   3.047   5.964   5.881  0.0488  0.1674 -0.0915
 2363SOL     OW 9223   1.427   3.521   4.404 -0.6339  0.1328 -0.4525
 2363SOL    HW2 9224   1.397   3.590   4.345 -1.4412  0.6336  0.5036
 2363SOL    HW3 9225   1.351   3.463   4.414 -1.1902  1.1325  1.5979
 2363SOL    MW4 9226   1.413   3.522   4.398 -0.8138  0.3307 -0.0559
 2364SOL     OW 9227   4.914   2.771   5.959 -0.5810  0.0299 -0.0390
 2364SOL    HW2 9228   5.005   2.773   5.928 -1.3709  1.6082 -2.6247
 2364SOL    HW3 9229   4.904   2.850   6.011 -0.4023 -0.3345  0.5591
 2364SOL    MW4 9230   4.925   2.782   5.961 -0.6616  0.1901 -0.3012
 2365SOL     OW 9231   0.301   2.437   5.346 -0.7376 -0.1530 -0.4606
 2365SOL    HW2 9232   0.334   2.355   5.381 -1.4259  0.5312  1.9892
 2365SOL    HW3 9233   0.359   2.504   5.383  0.0513  0.4935 -2.7253
 2365SOL    MW4 9234   0.313   2.435   5.356 -0.7243  0.0225 -0.4362
 2366SOL     OW 9235   0.217   1.364   5.581  0.7186 -0.3314 -0.1343
 2366SOL    HW2 9236   0.262   1.408   5.509  0.4609  0.6157  0.2748
 2366SOL    HW3 9237   0.284   1.350   5.647  1.0825 -1.6934 -0.7476
 2366SOL    MW4 9238   0.232   1.368   5.580  0.7326 -0.3862 -0.1613
 2367SOL     OW 9239   5.765   1.389   1.145 -0.0286 -0.0979  0.1158
 2367SOL    HW2 9240   5.803   1.377   1.059 -0.9430  1.7353 -0.5938
 2367SOL    HW3 9241   5.670   1.384   1.131 -0.2290  1.2496  0.8009
 2367SOL    MW4 9242   5.757   1.386   1.132 -0.1757  0.3217  0.1126
 2368SOL     OW 9243   5.582   0.406   1.887 -0.3094 -0.2741 -0.3002
 2368SOL    HW2 9244   5.527   0.448   1.820 -1.6731 -0.1754  0.8420
 2368SOL    HW3 9245   5.653   0.366   1.837 -0.9571  0.3039 -1.7572
 2368SOL    MW4 9246   5.584   0.407   1.871 -0.5748 -0.1848 -0.3417
 2369SOL     OW 9247   1.552   2.193   1.654  0.6739  0.0234 -0.4832
 2369SOL    HW2 9248   1.633   2.238   1.630  0.6578  0.3280  0.0119
 2369SOL    HW3 9249   1.566   2.165   1.745  0.2412  0.0370 -0.4093
 2369SOL    MW4 9250   1.565   2.195   1.663  0.6147  0.0654 -0.4081
 2370SOL     OW 9251   2.645   5.333   2.711  0.0281  0.4619 -0.2727
 2370SOL    HW2 9252   2.551   5.339   2.725 -0.1227  1.0253 -1.4561
 2370SOL    HW3 9253   2.659   5.369   2.624  1.4493  1.2901  0.2546
 2370SOL    MW4 9254   2.635   5.339   2.701  0.1957  0.6455 -0.3593
 2371SOL     OW 9255   2.494   2.019   4.451  0.1513 -0.1368 -0.5048
 2371SOL    HW2 9256   2.449   1.947   4.496  2.9873 -2.9274 -1.7045
 2371SOL    HW3 9257   2.549   2.059   4.518 -0.6079  0.2089 -0.0740
 2371SOL    MW4 9258   2.495   2.015   4.466  0.4253 -0.4594 -0.6063
 2372SOL     OW 9259   1.128   3.904   1.525 -0.0905 -0.3135  0.2482
 2372SOL    HW2 9260   1.172   3.985   1.497  1.7591 -1.7760 -1.3489
 2372SOL    HW3 9261   1.051   3.898   1.469 -2.0794  1.8046  2.4600
 2372SOL    MW4 9262   1.124   3.914   1.514 -0.1089 -0.2270  0.3293
 2373SOL     OW 9263   5.143   0.288   2.529 -0.4110  0.2265 -0.0517
 2373SOL    HW2 9264   5.107   0.363   2.482 -0.4593  1.0984  1.2980
 2373SOL    HW3 9265   5.094   0.213   2.496 -4.1033  1.3913  2.1641
 2373SOL    MW4 9266   5.132   0.288   2.519 -0.9045  0.4952  0.4187
 2374SOL     OW 9267   3.537   0.398   2.260  0.3293  0.1251  0.0995
 2374SOL    HW2 9268   3.505   0.437   2.342 -2.2452  2.7316 -1.9125
 2374SOL    HW3 9269   3.606   0.458   2.231 -0.3133  0.5241 -0.6570
 2374SOL    MW4 9270   3.542   0.411   2.267 -0.0951  0.5216 -0.2658
 2375SOL     OW 9271   2.465   2.249   0.865  0.0878  0.1618  0.7332
 2375SOL    HW2 9272   2.526   2.308   0.822 -1.3854  1.0302 -0.2461
 2375SOL    HW3 9273   2.488   2.162   0.833  0.8453  0.4642  0.4416
 2375SOL    MW4 9274   2.476   2.245   0.855 -0.0066  0.3163  0.5655
 2376SOL     OW 9275   3.816   4.053   4.360 -0.4047  0.2732 -0.1034
 2376SOL    HW2 9276   3.759   3.976   4.352 -1.1770  0.5521  1.9411
 2376SOL    HW3 9277   3.773   4.107   4.427  0.6319  2.0321 -0.8077
 2376SOL    MW4 9278   3.803   4.050   4.368 -0.3699  0.5420  0.0734
 2377SOL     OW 9279   4.045   0.514   5.974  0.9046 -0.2011 -0.4939
 2377SOL    HW2 9280   4.029   0.421   5.960 -0.5204 -0.1058  0.3319
 2377SOL    HW3 9281   4.028   0.527   6.068 -1.4348  1.3461 -1.0551
 2377SOL    MW4 9282   4.041   0.504   5.985  0.4080  0.0156 -0.4590
 2378SOL     OW 9283   4.123   4.686   4.874  0.2200  0.7561  0.3285
 2378SOL    HW2 9284   4.138   4.653   4.785  0.0278  1.5335 -0.0071
 2378SOL    HW3 9285   4.076   4.616   4.918 -1.1115  0.9667 -0.6850
 2378SOL    MW4 9286   4.119   4.673   4.868  0.0190  0.8864  0.1505
 2379SOL     OW 9287   3.072   3.299   2.141 -0.1618 -0.3419  0.1467
 2379SOL    HW2 9288   3.092   3.375   2.197  1.4689 -0.2023 -0.5668
 2379SOL    HW3 9289   3.058   3.336   2.054  0.5512 -0.8349 -0.1867
 2379SOL    MW4 9290   3.073   3.314   2.137  0.1474 -0.3885  0.0086
 2380SOL     OW 9291   5.052   4.516   3.981 -0.6279  0.0364  0.3241
 2380SOL    HW2 9292   5.081   4.441   4.032  0.1940 -0.8568 -1.3603
 2380SOL    HW3 9293   5.004   4.571   4.043  0.5906 -0.8211  2.0940
 2380SOL    MW4 9294   5.050   4.513   3.996 -0.3587 -0.1946  0.3354
 2381SOL     OW 9295   2.003   2.629   0.151 -0.2609  0.6275  0.2279
 2381SOL    HW2 9296   2.033   2.542   0.176 -0.2351  0.3381 -0.7836
 2381SOL    HW3 9297   2.075   2.666   0.099 -0.8578  0.6752 -0.5855
 2381SOL    MW4 9298   2.017   2.623   0.148 -0.3363  0.5956 -0.0129
 2382SOL     OW 9299   0.413   5.857   4.231  0.9118  0.1272  1.0885
 2382SOL    HW2 9300   0.342   5.896   4.283  0.5133 -1.0279  1.4293
 2382SOL    HW3 9301   0.463   5.933   4.199 -0.3805  0.9613  0.9617
 2382SOL    MW4 9302   0.410   5.872   4.234  0.6887  0.0848  1.1167
 2383SOL     OW 9303   0.284   3.902   6.047 -0.0999  0.0437  0.0485
 2383SOL    HW2 9304   0.311   3.959   6.118 -0.1457 -0.7423  0.7026
 2383SOL    HW3 9305   0.353   3.836   6.040  0.0095  0.2294 -0.7746
 2383SOL    MW4 9306   0.296   3.901   6.055 -0.0915 -0.0355  0.0262
 2384SOL     OW 9307   3.617   3.982   0.922  0.0638  0.2937 -0.0076
 2384SOL    HW2 9308   3.556   3.920   0.962 -1.7963  2.1911  0.3101
 2384SOL    HW3 9309   3.689   3.988   0.985 -0.2880 -0.6701  0.5072
 2384SOL    MW4 9310   3.618   3.975   0.936 -0.2281  0.4169  0.1022
 2385SOL     OW 9311   2.424   5.218   3.680 -0.4302 -0.6556 -0.1846
 2385SOL    HW2 9312   2.359   5.286   3.696  0.8805  0.9686 -1.3591
 2385SOL    HW3 9313   2.403   5.184   3.594  0.3317 -0.0103 -0.6399
 2385SOL    MW4 9314   2.413   5.222   3.671 -0.1568 -0.3562 -0.3996
 2386SOL     OW 9315   2.881   4.679   1.423 -0.2181  0.3925  0.1891
 2386SOL    HW2 9316   2.858   4.761   1.467 -0.1561  0.9295 -0.7399
 2386SOL    HW3 9317   2.853   4.610   1.483 -1.3097  1.0834  0.5013
 2386SOL    MW4 9318   2.874   4.681   1.437 -0.3540  0.5545  0.1077
 2387SOL     OW 9319   3.015   2.810   5.373  0.2047 -0.0848  0.1092
 2387SOL    HW2 9320   3.074   2.775   5.439 -2.1886 -2.2018  1.2924
 2387SOL    HW3 9321   2.957   2.869   5.421 -0.0405  0.2561 -0.5910
 2387SOL    MW4 9322   3.015   2.814   5.388 -0.1434 -0.3191  0.1729
 2388SOL     OW 9323   1.556   3.642   2.881 -1.1026  0.1924 -0.3519
 2388SOL    HW2 9324   1.570   3.577   2.950  1.6383  1.5615  0.5404
 2388SOL    HW3 9325   1.632   3.632   2.823 -1.4884  1.4937 -1.1206
 2388SOL    MW4 9326   1.568   3.632   2.882 -0.7919  0.5448 -0.3356
 2389SOL     OW 9327   3.140   2.690   3.112  0.5542  0.2430  0.0836
 2389SOL    HW2 9328   3.185   2.623   3.162  1.5914  0.9627  0.1411
 2389SOL    HW3 9329   3.172   2.773   3.148 -0.7607  0.7816  0.0700
 2389SOL    MW4 9330   3.150   2.693   3.123  0.5176  0.4090  0.0894
 2390SOL     OW 9331   2.203   1.885   1.485 -0.4720  0.2634 -0.2684
 2390SOL    HW2 9332   2.122   1.856   1.527  0.1627  0.7507  1.3862
 2390SOL    HW3 9333   2.272   1.836   1.530  0.2458  0.8017 -0.7530
 2390SOL    MW4 9334   2.201   1.875   1.496 -0.2936  0.3987 -0.1140
 2391SOL     OW 9335   0.197   5.456   1.632  0.0316  0.4272 -0.4051
 2391SOL    HW2 9336   0.178   5.366   1.609  0.2560  0.6908 -1.6882
 2391SOL    HW3 9337   0.257   5.450   1.707 -0.0207 -0.4722 -0.4318
 2391SOL    MW4 9338   0.202   5.444   1.639  0.0543  0.3433 -0.5779
 2392SOL     OW 9339   0.663   4.853   1.850 -0.1765 -0.5234 -0.2133
 2392SOL    HW2 9340   0.569   4.869   1.858 -0.4420 -0.7496 -2.3710
 2392SOL    HW3 9341   0.677   4.769   1.893 -0.9151 -0.3999  0.2901
 2392SOL    MW4 9342   0.652   4.844   1.857 -0.3089 -0.5370 -0.4316
 2393SOL     OW 9343   2.656   0.609   6.009  0.4087 -0.3995  0.5164
 2393SOL    HW2 9344   2.581   0.592   6.066 -0.1152  2.5690  0.8983
 2393SOL    HW3 9345   2.623   0.591   5.921 -1.0004  1.3710  0.6262
 2393SOL    MW4 9346   2.642   0.604   6.005  0.1537  0.2257  0.5812
 2394SOL     OW 9347   3.215   5.171   2.457  0.2971  0.2008  0.3091
 2394SOL    HW2 9348   3.266   5.128   2.525  0.6310 -1.5344 -0.9632
 2394SOL    HW3 9349   3.279   5.212   2.400  0.2637 -0.9702 -0.6253
 2394SOL    MW4 9350   3.230   5.171   2.458  0.3368 -0.1826  0.0180
 2395SOL     OW 9351   5.433   4.209   0.958  0.2128  0.2038 -0.0487
 2395SOL    HW2 9352   5.417   4.269   0.885  0.7350 -0.6182 -0.8658
 2395SOL    HW3 9353   5.522   4.177   0.943  0.2670 -0.0976  0.8701
 2395SOL    MW4 9354   5.443   4.212   0.946  0.2889  0.0556 -0.0353
 2396SOL     OW 9355   2.782   4.857   3.019 -0.4235  0.1625 -0.0043
 2396SOL    HW2 9356   2.701   4.841   2.970 -1.5722  3.0222  0.7529
 2396SOL    HW3 9357   2.849   4.866   2.951 -1.6253  2.0915 -1.0482
 2396SOL    MW4 9358   2.780   4.856   3.003 -0.7337  0.7943 -0.0422
 2397SOL     OW 9359   1.687   2.263   5.956 -0.5222 -0.0633 -0.4404
 2397SOL    HW2 9360   1.625   2.238   6.025 -0.5983 -0.6622 -0.7246
 2397SOL    HW3 9361   1.708   2.181   5.911  0.1789  0.1941 -0.5970
 2397SOL    MW4 9362   1.682   2.249   5.959 -0.4397 -0.1083 -0.4985
 2398SOL     OW 9363   0.804   1.041   4.621 -0.3634 -0.4409 -0.1853
 2398SOL    HW2 9364   0.760   1.056   4.705  0.1476 -2.1083  0.4353
 2398SOL    HW3 9365   0.850   1.122   4.602 -0.0414 -0.2108  1.4466
 2398SOL    MW4 9366   0.804   1.053   4.630 -0.2535 -0.6306  0.1119
 2399SOL     OW 9367   6.209   4.614   4.584  0.3357  1.2241  0.0200
 2399SOL    HW2 9368   6.258   4.532   4.596 -0.6295  0.7149  0.5535
 2399SOL    HW3 9369   6.275   4.682   4.593  1.1322  0.5154 -0.2798
 2399SOL    MW4 9370   6.224   4.612   4.587  0.3134  1.0634  0.0508
 2400SOL     OW 9371   6.169   5.287   4.579  0.1396  0.2773 -0.2129
 2400SOL    HW2 9372   6.097   5.263   4.521 -1.5151  0.5198  1.6498
 2400SOL    HW3 9373   6.235   5.219   4.565 -1.7752 -1.8124  0.3210
 2400SOL    MW4 9374   6.169   5.275   4.570 -0.3314  0.0336  0.1033
 2401SOL     OW 9375   1.787   5.701   2.074  0.0733  0.5369  0.0079
 2401SOL    HW2 9376   1.776   5.791   2.043  0.3011  1.0063  1.2140
 2401SOL    HW3 9377   1.874   5.699   2.112  0.7364 -0.6830 -1.4754
 2401SOL    MW4 9378   1.797   5.712   2.075  0.1908  0.4379 -0.0287
 2402SOL     OW 9379   6.397   2.583   4.996  0.0856 -0.0879 -0.1445
 2402SOL    HW2 9380   6.310   2.561   5.030 -0.6965  0.2844 -1.8273
 2402SOL    HW3 9381   6.386   2.668   4.955  1.9546  1.3748  2.1040
 2402SOL    MW4 9382   6.384   2.591   4.995  0.2290  0.1542 -0.0699
 2403SOL     OW 9383   3.031   5.376   0.035  0.0636  1.1099 -0.1221
 2403SOL    HW2 9384   2.963   5.410   0.093 -0.4214  1.0110 -0.6186
 2403SOL    HW3 9385   2.983   5.321  -0.028  1.0169 -3.0256  2.3409
 2403SOL    MW4 9386   3.015   5.373   0.034  0.1254  0.5512  0.1373
 2404SOL     OW 9387   1.988   4.602   5.303 -0.3616 -0.1659 -0.2461
 2404SOL    HW2 9388   1.938   4.567   5.230 -0.2545 -2.0045  0.5131
 2404SOL    HW3 9389   1.932   4.671   5.340 -0.2865  0.9989 -2.1805
 2404SOL    MW4 9390   1.974   4.607   5.299 -0.3376 -0.2548 -0.4012
 2405SOL     OW 9391   6.071   4.158   4.689 -0.1395 -0.3910 -0.0238
 2405SOL    HW2 9392   6.056   4.226   4.756  0.1481 -1.4722  1.1674
 2405SOL    HW3 9393   5.992   4.105   4.691  0.0573 -0.6916 -0.2451
 2405SOL    MW4 9394   6.059   4.160   4.698 -0.0756 -0.5733  0.1041
 2406SOL     OW 9395   3.987   2.077   0.202 -0.3673 -0.3902 -0.3248
 2406SOL    HW2 9396   3.910   2.103   0.252  0.3433 -1.1745  1.2526
 2406SOL    HW3 9397   3.968   1.988   0.173 -0.3772 -0.2987 -0.5973
 2406SOL    MW4 9398   3.975   2.069   0.205 -0.2748 -0.4816 -0.1526
 2407SOL     OW 9399   4.777   6.304   2.741 -0.0037 -0.3652  0.6468
 2407SOL    HW2 9400   4.791   6.396   2.762  2.0320 -0.7654  1.2625
 2407SOL    HW3 9401   4.687   6.300   2.709 -0.3987  1.6890  1.3624
 2407SOL    MW4 9402   4.767   6.316   2.739  0.2128 -0.1470  0.8225
 2408SOL     OW 9403   4.508   4.372   3.345  0.4566 -0.0953  0.5464
 2408SOL    HW2 9404   4.547   4.459   3.330 -0.0899 -0.0478 -0.6359
 2408SOL    HW3 9405   4.559   4.336   3.418  1.0733  0.9820  0.6709
 2408SOL    MW4 9406   4.520   4.379   3.353  0.4659  0.0531  0.4068
 2409SOL     OW 9407   5.803   4.570   4.077  0.9444  0.0780  0.3447
 2409SOL    HW2 9408   5.737   4.557   4.145 -0.9469  1.3495 -1.1236
 2409SOL    HW3 9409   5.836   4.483   4.057 -0.1943 -0.5730  1.2326
 2409SOL    MW4 9410   5.799   4.557   4.083  0.5446  0.1599  0.2681
 2410SOL     OW 9411   5.255   5.751   0.362  0.0161 -0.2339 -0.1944
 2410SOL    HW2 9412   5.180   5.810   0.360  0.1338 -0.0585  0.2449
 2410SOL    HW3 9413   5.287   5.757   0.453  0.5180 -0.3527 -0.3597
 2410SOL    MW4 9414   5.250   5.760   0.374  0.0979 -0.2264 -0.1582
 2411SOL     OW 9415   1.705   3.726   4.315  0.4483 -0.2064  0.5411
 2411SOL    HW2 9416   1.795   3.707   4.341 -0.4512 -1.1526  3.2351
 2411SOL    HW3 9417   1.672   3.644   4.279  0.5392  0.0590 -0.1718
 2411SOL    MW4 9418   1.712   3.713   4.314  0.3416 -0.2962  0.8025
 2412SOL     OW 9419   1.948   0.063   5.676 -0.1686  0.0197  0.5138
 2412SOL    HW2 9420   1.910   0.150   5.689 -2.3735 -0.7906 -0.1807
 2412SOL    HW3 9421   1.964   0.030   5.765  1.4842  1.3945  0.7909
 2412SOL    MW4 9422   1.945   0.070   5.690 -0.2414  0.0942  0.4587
 2413SOL     OW 9423   5.211   1.103   3.254 -0.3156 -0.1615 -0.3365
 2413SOL    HW2 9424   5.261   1.139   3.181 -0.1606  2.2221  0.8380
 2413SOL    HW3 9425   5.257   1.022   3.278  1.2778  0.4838 -1.0924
 2413SOL    MW4 9426   5.224   1.097   3.248 -0.0849  0.2381 -0.2813
 2414SOL     OW 9427   0.965   5.220   4.576  0.3227 -0.6051  0.2439
 2414SOL    HW2 9428   1.031   5.283   4.547 -1.0829  1.3389  1.0225
 2414SOL    HW3 9429   0.912   5.203   4.499 -2.0934  2.8790  0.9198
 2414SOL    MW4 9430   0.967   5.226   4.562 -0.1815  0.1111  0.4358
 2415SOL     OW 9431   5.971   2.029   2.616  0.1944 -0.9214  0.2186
 2415SOL    HW2 9432   5.900   2.066   2.564  0.4128  2.7114  2.1834
 2415SOL    HW3 9433   5.930   1.999   2.697  0.7919  1.5580  1.5317
 2415SOL    MW4 9434   5.957   2.030   2.620  0.3020 -0.1149  0.6511
 2416SOL     OW 9435   2.088   4.232   5.298  0.8093 -0.0769 -0.0251
 2416SOL    HW2 9436   2.120   4.309   5.344  1.3559 -0.1864 -0.2164
 2416SOL    HW3 9437   2.165   4.176   5.287  0.1646 -1.3685  1.4925
 2416SOL    MW4 9438   2.103   4.235   5.303  0.7964 -0.2618  0.1499
 2417SOL     OW 9439   2.318   3.831   2.966 -0.4610  0.1226  0.0927
 2417SOL    HW2 9440   2.228   3.851   2.991 -1.2743  1.6246 -3.3817
 2417SOL    HW3 9441   2.310   3.776   2.889  1.4695  1.8783 -1.4934
 2417SOL    MW4 9442   2.305   3.827   2.959 -0.3136  0.5524 -0.5750
 2418SOL     OW 9443   3.296   1.144   5.394  0.2676  0.3990 -0.1749
 2418SOL    HW2 9444   3.221   1.204   5.392 -0.3161 -0.3281 -1.0545
 2418SOL    HW3 9445   3.270   1.077   5.458 -0.3570 -0.4708 -1.2964
 2418SOL    MW4 9446   3.282   1.143   5.402  0.1082  0.1883 -0.4389
 2419SOL     OW 9447   4.330   3.751   3.128 -0.2654  0.5371  0.5616
 2419SOL    HW2 9448   4.416   3.716   3.153 -0.0474  0.4433 -0.3127
 2419SOL    HW3 9449   4.348   3.808   3.054 -1.3165 -1.9504 -1.7561
 2419SOL    MW4 9450   4.344   3.754   3.122 -0.3753  0.1965  0.1405
 2420SOL     OW 9451   4.964   3.439   4.662  0.4448 -0.7958 -0.5642
 2420SOL    HW2 9452   5.004   3.521   4.634  2.1683 -0.8749  1.3950
 2420SOL    HW3 9453   4.872   3.448   4.639  0.8211  1.1255 -1.5567
 2420SOL    MW4 9454   4.957   3.451   4.655  0.7218 -0.5527 -0.4367
 2421SOL     OW 9455   0.955   3.898   2.130  0.2898  0.2585  0.4175
 2421SOL    HW2 9456   0.867   3.885   2.094 -0.5125 -1.0844  2.6793
 2421SOL    HW3 9457   1.003   3.944   2.061 -2.0595  0.6659 -1.0283
 2421SOL    MW4 9458   0.950   3.902   2.116 -0.1260  0.1351  0.5252
 2422SOL     OW 9459   0.776   3.410   2.931 -0.0793  0.5735 -0.2921
 2422SOL    HW2 9460   0.730   3.326   2.919 -0.6926  1.1826 -2.8817
 2422SOL    HW3 9461   0.742   3.444   3.014 -2.3531 -0.2268 -0.8114
 2422SOL    MW4 9462   0.765   3.403   2.940 -0.4602  0.5483 -0.7022
 2423SOL     OW 9463   3.856   4.600   1.686 -0.2416 -0.1353 -0.0827
 2423SOL    HW2 9464   3.871   4.619   1.593  1.1815 -0.8204 -0.0163
 2423SOL    HW3 9465   3.854   4.686   1.727 -0.8802  0.1778 -0.7382
 2423SOL    MW4 9466   3.858   4.614   1.679 -0.1381 -0.1844 -0.1604
 2424SOL     OW 9467   4.009   2.497   1.263 -0.1943  0.0701  0.2878
 2424SOL    HW2 9468   4.024   2.591   1.259  1.4769 -0.0768  1.8063
 2424SOL    HW3 9469   3.972   2.475   1.177  0.5285  1.9054 -0.5545
 2424SOL    MW4 9470   4.006   2.506   1.251  0.1216  0.2928  0.3770
 2425SOL     OW 9471   1.972   5.546   4.810  0.1149 -0.3172  0.0112
 2425SOL    HW2 9472   1.940   5.541   4.901  1.2971  1.3056  0.5703
 2425SOL    HW3 9473   1.954   5.637   4.784  0.3462 -0.5977 -1.1753
 2425SOL    MW4 9474   1.965   5.558   4.819  0.3014 -0.1401 -0.0716
 2426SOL     OW 9475   6.132   5.365   1.618  0.8566 -0.1366  0.1858
 2426SOL    HW2 9476   6.135   5.316   1.535  2.0819 -0.1649  0.2277
 2426SOL    HW3 9477   6.143   5.457   1.592 -2.0521  0.2754  0.0481
 2426SOL    MW4 9478   6.134   5.371   1.603  0.6345 -0.0859  0.1732
 2427SOL     OW 9479   2.018   5.083   4.626  0.0231 -0.2752  0.2002
 2427SOL    HW2 9480   1.993   5.171   4.653  1.1082  0.2722 -0.4978
 2427SOL    HW3 9481   2.034   5.036   4.708 -0.3672  0.2299  0.5666
 2427SOL    MW4 9482   2.017   5.088   4.641  0.1148 -0.1363  0.1565
 2428SOL     OW 9483   0.884   5.031   1.832  0.3290 -0.0207  0.0641
 2428SOL    HW2 9484   0.904   5.052   1.741  1.1151  0.8452  0.4204
 2428SOL    HW3 9485   0.822   4.959   1.826 -0.3456  0.6246 -1.1636
 2428SOL    MW4 9486   0.879   5.024   1.819  0.3437  0.1787 -0.0509
 2429SOL     OW 9487   2.691   0.909   1.662 -0.6442  0.5440 -0.9080
 2429SOL    HW2 9488   2.711   0.900   1.755 -2.0780  2.0299 -0.4073
 2429SOL    HW3 9489   2.728   0.994   1.638 -2.0993  1.1441 -1.1346
 2429SOL    MW4 9490   2.699   0.919   1.671 -1.0254  0.8192 -0.8718
 2430SOL     OW 9491   4.278   3.923   0.234 -0.2469 -0.5566  0.1452
 2430SOL    HW2 9492   4.189   3.955   0.248 -0.3466 -1.0239  0.6127
 2430SOL    HW3 9493   4.328   3.960   0.307  0.5085  1.7407 -1.4118
 2430SOL    MW4 9494   4.273   3.932   0.246 -0.1604 -0.3151  0.0014
 2431SOL     OW 9495   5.696   4.644   1.410 -0.3384 -0.0140  0.2240
 2431SOL    HW2 9496   5.644   4.712   1.452 -3.1549 -2.0905  0.4167
 2431SOL    HW3 9497   5.724   4.587   1.481  0.0806 -0.2752 -0.1418
 2431SOL    MW4 9498   5.693   4.646   1.425 -0.6547 -0.3224  0.2011
 2432SOL     OW 9499   5.056   2.528   5.810 -0.3661 -0.1826  0.2594
 2432SOL    HW2 9500   4.967   2.510   5.841 -0.5433 -2.0465 -1.1866
 2432SOL    HW3 9501   5.088   2.445   5.776  0.6642  1.1322 -2.3192
 2432SOL    MW4 9502   5.048   2.515   5.810 -0.2536 -0.2551 -0.2716
 2433SOL     OW 9503   5.821   0.702   0.052 -0.1337  0.3176  0.2431
 2433SOL    HW2 9504   5.764   0.669  -0.018  1.4085  0.2628 -1.0632
 2433SOL    HW3 9505   5.811   0.797   0.048 -0.1546  0.3070  0.0174
 2433SOL    MW4 9506   5.812   0.710   0.042  0.0670  0.3090  0.0410
 2434SOL     OW 9507   1.781   4.065   1.845 -0.1455  0.3578 -0.0123
 2434SOL    HW2 9508   1.798   3.971   1.833  1.5134  0.6483 -0.1232
 2434SOL    HW3 9509   1.692   4.077   1.813  0.9784 -0.4560 -3.9748
 2434SOL    MW4 9510   1.772   4.054   1.839  0.2217  0.2887 -0.5497
 2435SOL     OW 9511   0.207   5.182   1.508  0.5260  0.2357  0.0860
 2435SOL    HW2 9512   0.233   5.149   1.594  0.2352  1.4114  0.6441
 2435SOL    HW3 9513   0.290   5.207   1.467  0.8425 -1.8382 -0.6714
 2435SOL    MW4 9514   0.221   5.181   1.514  0.5294  0.1172  0.0597
 2436SOL     OW 9515   0.125   1.939   1.153 -0.2949  0.2335 -0.4059
 2436SOL    HW2 9516   0.108   1.844   1.148 -0.5781  0.3185 -1.2033
 2436SOL    HW3 9517   0.099   1.963   1.242 -1.7713 -0.1482 -0.7119
 2436SOL    MW4 9518   0.119   1.929   1.164 -0.5270  0.1944 -0.5515
 2437SOL     OW 9519   0.111   2.657   2.204  0.2302  0.3371 -0.2896
 2437SOL    HW2 9520   0.204   2.632   2.202 -0.0692 -0.9689  0.5693
 2437SOL    HW3 9521   0.069   2.593   2.146 -0.2619  0.3183  0.0864
 2437SOL    MW4 9522   0.118   2.645   2.196  0.1257  0.1623 -0.1267
 2438SOL     OW 9523   0.591   3.652   0.281  0.1423 -0.0664  0.3647
 2438SOL    HW2 9524   0.655   3.609   0.338 -2.0245  0.1967  3.2465
 2438SOL    HW3 9525   0.578   3.738   0.320 -1.6781  0.0085 -0.3171
 2438SOL    MW4 9526   0.598   3.658   0.294 -0.3837 -0.0218  0.6550
 2439SOL     OW 9527   5.012   5.451   1.021  0.0134 -0.5740  0.0592
 2439SOL    HW2 9528   4.964   5.386   1.073  1.1368 -0.5895  1.1253
 2439SOL    HW3 9529   4.979   5.535   1.051 -1.9782 -0.5742 -1.8373
 2439SOL    MW4 9530   5.001   5.453   1.032 -0.1011 -0.5761 -0.0504
 2440SOL     OW 9531   0.648   0.874   0.693 -0.9485  0.0426  0.0218
 2440SOL    HW2 9532   0.710   0.863   0.621 -0.2617 -2.2323  0.8563
 2440SOL    HW3 9533   0.655   0.793   0.743 -3.2943  0.4745  1.2031
 2440SOL    MW4 9534   0.657   0.862   0.690 -1.1674 -0.2005  0.2878
 2441SOL     OW 9535   0.795   2.809   2.627  0.4260 -0.6100 -0.0766
 2441SOL    HW2 9536   0.855   2.871   2.585  0.4910 -0.8901 -0.4100
 2441SOL    HW3 9537   0.853   2.742   2.664  0.3664 -0.3700  0.4505
 2441SOL    MW4 9538   0.811   2.808   2.626  0.4267 -0.6153 -0.0511
 2442SOL     OW 9539   2.890   0.114   3.562 -0.1397  0.0377  0.6117
 2442SOL    HW2 9540   2.973   0.067   3.559 -0.0575  0.2211 -1.7390
 2442SOL    HW3 9541   2.906   0.187   3.623  0.7763 -1.0027  1.6591
 2442SOL    MW4 9542   2.903   0.118   3.570 -0.0080 -0.0754  0.4398
 2443SOL     OW 9543   5.290   1.336   2.177  0.2558 -0.0687 -0.2338
 2443SOL    HW2 9544   5.271   1.355   2.269  0.9644 -2.1719  0.4192
 2443SOL    HW3 9545   5.227   1.388   2.128 -1.4614 -0.3677  1.5213
 2443SOL    MW4 9546   5.280   1.345   2.183  0.1227 -0.3857  0.0839
 2444SOL     OW 9547   4.641   4.221   2.681 -0.2649  0.0220 -0.5975
 2444SOL    HW2 9548   4.617   4.169   2.758 -2.0687  1.7383  0.0847
 2444SOL    HW3 9549   4.735   4.207   2.671 -0.2670 -1.4512  0.9699
 2444SOL    MW4 9550   4.650   4.212   2.690 -0.5032  0.0541 -0.3007
 2445SOL     OW 9551   4.484   1.314   6.408  0.6664 -0.4268  0.6726
 2445SOL    HW2 9552   4.407   1.365   6.432 -0.0862 -1.6787  1.0220
 2445SOL    HW3 9553   4.450   1.225   6.392  2.1921 -1.3226  2.1197
 2445SOL    MW4 9554   4.469   1.309   6.409  0.7684 -0.7102  0.9096
 2446SOL     OW 9555   5.786   1.590   5.171  0.2963  0.0260 -0.0752
 2446SOL    HW2 9556   5.748   1.677   5.179  1.5480  0.9607 -3.0482
 2446SOL    HW3 9557   5.772   1.565   5.080  1.5490 -2.1261  0.2289
 2446SOL    MW4 9558   5.779   1.598   5.160  0.6267 -0.1346 -0.4274
 2447SOL     OW 9559   1.716   2.849   2.097 -0.6915  0.5575 -0.0203
 2447SOL    HW2 9560   1.720   2.933   2.142 -1.1902  1.4270 -1.5275
 2447SOL    HW3 9561   1.807   2.832   2.070 -0.2701 -0.2770  1.7637
 2447SOL    MW4 9562   1.729   2.858   2.099 -0.7017  0.5621  0.0162
 2448SOL     OW 9563   3.116   3.339   6.328  0.4577  0.5765  0.1328
 2448SOL    HW2 9564   3.080   3.306   6.410  0.3497  1.4666  0.4552
 2448SOL    HW3 9565   3.204   3.368   6.351  1.4237 -1.5580 -0.6418
 2448SOL    MW4 9566   3.123   3.339   6.342  0.5709  0.4123  0.0731
 2449SOL     OW 9567   2.800   0.601   1.679 -0.0685  0.0397 -0.0182
 2449SOL    HW2 9568   2.751   0.671   1.635 -0.0194  1.0878  1.4806
 2449SOL    HW3 9569   2.892   0.623   1.664 -0.0551  0.2373  0.3218
 2449SOL    MW4 9570   2.806   0.613   1.671 -0.0603  0.2041  0.2244
 2450SOL     OW 9571   3.654   5.084   1.780  0.0509 -0.2914 -0.2512
 2450SOL    HW2 9572   3.670   4.995   1.810  1.0070  0.1926  0.7380
 2450SOL    HW3 9573   3.710   5.095   1.703 -1.3036 -1.0507 -1.4079
 2450SOL    MW4 9574   3.663   5.074   1.774 -0.0017 -0.3277 -0.2733
 2451SOL     OW 9575   5.941   4.954   3.270 -0.3314 -0.1248 -0.0144
 2451SOL    HW2 9576   5.898   4.983   3.351  2.8282  1.2507  1.3386
 2451SOL    HW3 9577   5.980   5.034   3.234  0.0174 -1.0650 -1.8549
 2451SOL    MW4 9578   5.940   4.969   3.276  0.1315 -0.0674 -0.0787
 2452SOL     OW 9579   4.539   5.853   5.630 -0.1434 -0.5574 -0.4488
 2452SOL    HW2 9580   4.492   5.854   5.547 -0.0447 -0.8019 -0.5062
 2452SOL    HW3 9581   4.568   5.763   5.641 -1.8436 -1.0250  0.7832
 2452SOL    MW4 9582   4.536   5.841   5.621 -0.3547 -0.6513 -0.2938
 2453SOL     OW 9583   2.301   2.871   5.091  0.7273  0.2623 -0.2974
 2453SOL    HW2 9584   2.259   2.947   5.050 -0.0586  0.3873  0.6975
 2453SOL    HW3 9585   2.257   2.863   5.176  0.0442 -1.9573 -0.8097
 2453SOL    MW4 9586   2.290   2.880   5.097  0.5335 -0.0140 -0.2337
 2454SOL     OW 9587   1.821   6.201   3.645 -0.4387  0.1141 -0.1684
 2454SOL    HW2 9588   1.895   6.217   3.587 -0.9591 -0.9750 -1.1669
 2454SOL    HW3 9589   1.820   6.107   3.658 -2.8493 -0.1985 -1.8828
 2454SOL    MW4 9590   1.831   6.191   3.639 -0.8254 -0.0708 -0.5263
 2455SOL     OW 9591   4.755   4.470   0.133 -0.0950 -0.5190 -0.4611
 2455SOL    HW2 9592   4.750   4.375   0.141 -1.0863 -0.5135 -0.9583
 2455SOL    HW3 9593   4.812   4.485   0.057 -0.6611 -0.7377 -0.9355
 2455SOL    MW4 9594   4.762   4.460   0.124 -0.3005 -0.5471 -0.5893
 2456SOL     OW 9595   3.605   6.337   4.495 -0.7113  0.5194  0.0137
 2456SOL    HW2 9596   3.590   6.373   4.408 -2.1859 -0.1033 -0.0257
 2456SOL    HW3 9597   3.528   6.364   4.546  0.3175  1.2174  1.2549
 2456SOL    MW4 9598   3.593   6.345   4.490 -0.7701  0.5294  0.1723
 2457SOL     OW 9599   1.256   2.453   3.814  0.0500 -0.0552  0.1521
 2457SOL    HW2 9600   1.298   2.500   3.742 -0.8532 -0.4188 -0.6318
 2457SOL    HW3 9601   1.246   2.363   3.782  1.6058 -0.7734  1.5679
 2457SOL    MW4 9602   1.260   2.447   3.800  0.1361 -0.1979  0.2354
 2458SOL     OW 9603   6.360   1.631   3.052  0.0188  0.8920  0.4194
 2458SOL    HW2 9604   6.274   1.670   3.063 -0.5401 -0.0060 -0.5708
 2458SOL    HW3 9605   6.396   1.674   2.974 -0.7704 -0.7995 -0.9273
 2458SOL    MW4 9606   6.354   1.642   3.043 -0.1591  0.5503  0.1111
 2459SOL     OW 9607   0.949   6.355   1.787  0.4289  0.2548 -0.3674
 2459SOL    HW2 9608   0.921   6.439   1.823  0.4080  0.0031  0.2033
 2459SOL    HW3 9609   0.914   6.289   1.847 -1.9109 -0.3426 -2.2660
 2459SOL    MW4 9610   0.941   6.357   1.799  0.1175  0.1427 -0.5426
 2460SOL     OW 9611   2.686   2.481   4.826  0.4185 -0.3447 -0.2650
 2460SOL    HW2 9612   2.701   2.575   4.821 -0.1187 -0.2546 -0.2035
 2460SOL    HW3 9613   2.597   2.472   4.858 -0.1511 -0.8561 -1.8671
 2460SOL    MW4 9614   2.676   2.492   4.829  0.2725 -0.4003 -0.4683
 2461SOL     OW 9615   1.002   4.197   4.108 -0.6046 -0.6968 -0.2108
 2461SOL    HW2 9616   1.079   4.145   4.129  0.1096  0.3960 -0.0438
 2461SOL    HW3 9617   0.947   4.139   4.055 -0.5252 -2.0916  1.1803
 2461SOL    MW4 9618   1.005   4.182   4.104 -0.4999 -0.7366 -0.0052
 2462SOL     OW 9619   4.239   1.823   5.367  0.2475 -0.4243  0.2248
 2462SOL    HW2 9620   4.263   1.859   5.282 -0.0960  1.2917  0.8191
 2462SOL    HW3 9621   4.145   1.811   5.362  0.4979 -2.5667 -0.4133
 2462SOL    MW4 9622   4.230   1.826   5.355  0.2352 -0.4805  0.2190
 2463SOL     OW 9623   3.811   1.790   3.129  0.5628 -0.1233 -0.0796
 2463SOL    HW2 9624   3.867   1.776   3.053  0.1881 -0.2638 -0.3317
 2463SOL    HW3 9625   3.872   1.812   3.200  0.9533 -0.5039 -0.2932
 2463SOL    MW4 9626   3.826   1.791   3.129  0.5649 -0.1921 -0.1410
 2464SOL     OW 9627   2.732   3.936   4.487 -0.0360 -0.4914 -0.0596
 2464SOL    HW2 9628   2.757   3.846   4.468  0.2349 -0.1706 -1.3396
 2464SOL    HW3 9629   2.737   3.980   4.402  2.1870  1.3109  0.9043
 2464SOL    MW4 9630   2.736   3.930   4.473  0.2931 -0.2113 -0.1013
 2465SOL     OW 9631   1.764   0.450   3.779  0.6426 -0.3379  0.3718
 2465SOL    HW2 9632   1.795   0.363   3.754 -0.9532 -0.6472 -0.6728
 2465SOL    HW3 9633   1.691   0.434   3.838  0.5866  0.3147  0.4953
 2465SOL    MW4 9634   1.759   0.437   3.783  0.4247 -0.2926  0.2503
 2466SOL     OW 9635   0.977   5.152   2.599  0.6175 -0.5801 -0.2165
 2466SOL    HW2 9636   0.987   5.247   2.604  0.1824 -0.5987  1.8768
 2466SOL    HW3 9637   0.993   5.131   2.506 -0.6160  1.6581 -1.0095
 2466SOL    MW4 9638   0.981   5.162   2.587  0.3974 -0.2872 -0.0450
 2467SOL     OW 9639   5.579   6.421   6.129 -0.0548  0.5692 -0.7210
 2467SOL    HW2 9640   5.542   6.411   6.042  0.8590 -0.2813 -1.0272
 2467SOL    HW3 9641   5.510   6.463   6.180 -0.5348  1.2208 -1.8904
 2467SOL    MW4 9642   5.565   6.425   6.124  0.0024  0.5430 -0.9157
 2468SOL     OW 9643   3.639   6.124   5.341 -0.6474 -0.0905  0.6767
 2468SOL    HW2 9644   3.654   6.218   5.351  0.1267 -0.1975  0.5137
 2468SOL    HW3 9645   3.589   6.100   5.419 -0.7773  0.4367  0.7607
 2468SOL    MW4 9646   3.634   6.133   5.353 -0.5624 -0.0350  0.6663
 2469SOL     OW 9647   4.182   5.058   5.427  0.2885 -1.0727  0.0888
 2469SOL    HW2 9648   4.222   5.007   5.497  0.7754 -0.1138  0.5220
 2469SOL    HW3 9649   4.212   5.015   5.346 -0.0824 -2.0353  0.4443
 2469SOL    MW4 9650   4.192   5.046   5.425  0.3038 -1.0732  0.1928
 2470SOL     OW 9651   1.419   5.445   3.469  0.1630  0.5025  0.4560
 2470SOL    HW2 9652   1.327   5.433   3.445 -0.3991  0.9778  2.1912
 2470SOL    HW3 9653   1.448   5.519   3.416 -0.5538  0.5364  0.0986
 2470SOL    MW4 9654   1.411   5.453   3.459 -0.0057  0.5697  0.6378
 2471SOL     OW 9655   4.498   4.625   5.003 -0.3361  0.0707  0.6709
 2471SOL    HW2 9656   4.572   4.570   5.027 -1.0859 -0.8701  0.8788
 2471SOL    HW3 9657   4.490   4.614   4.908 -0.5129 -0.2271  0.7180
 2471SOL    MW4 9658   4.507   4.616   4.994 -0.4583 -0.0927  0.7045
 2472SOL     OW 9659   0.660   6.097   5.029 -0.0358  0.0257  0.1735
 2472SOL    HW2 9660   0.599   6.147   4.974  0.5545  0.7062  0.1202
 2472SOL    HW3 9661   0.721   6.057   4.967 -1.6639 -2.4620  0.0411
 2472SOL    MW4 9662   0.660   6.098   5.014 -0.1727 -0.2127  0.1490
 2473SOL     OW 9663   5.628   2.867   1.853  0.3298 -0.5571 -0.1575
 2473SOL    HW2 9664   5.539   2.853   1.885  0.5556  2.5592  2.2635
 2473SOL    HW3 9665   5.616   2.909   1.767 -0.5844  0.4256  0.4241
 2473SOL    MW4 9666   5.614   2.871   1.846  0.2390 -0.0163  0.2387
 2474SOL     OW 9667   2.583   5.578   5.905  0.3953 -0.1761  0.0058
 2474SOL    HW2 9668   2.630   5.657   5.879 -0.1879 -0.1381 -0.9564
 2474SOL    HW3 9669   2.494   5.608   5.926  0.1957 -0.5578 -0.2797
 2474SOL    MW4 9670   2.577   5.592   5.904  0.2920 -0.2214 -0.1589
 2475SOL     OW 9671   2.540   0.499   2.210 -0.4270 -0.1947 -0.3953
 2475SOL    HW2 9672   2.566   0.423   2.262 -3.1599 -1.4203 -0.6461
 2475SOL    HW3 9673   2.536   0.466   2.120 -2.2885 -0.0270 -0.4172
 2475SOL    MW4 9674   2.543   0.484   2.205 -1.0332 -0.3343 -0.4312
 2476SOL     OW 9675   1.089   5.043   2.838 -0.2931  0.1859  0.1871
 2476SOL    HW2 9676   1.034   5.065   2.763 -0.4122 -0.5203  0.0582
 2476SOL    HW3 9677   1.084   5.120   2.894 -0.8395  0.4143 -0.1563
 2476SOL    MW4 9678   1.081   5.056   2.835 -0.3809  0.1228  0.1248
 2477SOL     OW 9679   1.658   5.558   3.866  0.2284 -0.3629  0.2965
 2477SOL    HW2 9680   1.753   5.566   3.855  0.3412  0.0734  1.4550
 2477SOL    HW3 9681   1.639   5.605   3.947 -0.9809 -0.4605  0.0895
 2477SOL    MW4 9682   1.668   5.565   3.875  0.0837 -0.3182  0.4221
 2478SOL     OW 9683   2.579   3.504   4.011 -0.2076 -0.1381  0.0475
 2478SOL    HW2 9684   2.492   3.517   3.974 -0.3457  1.7291  0.8966
 2478SOL    HW3 9685   2.602   3.589   4.048  1.5569 -0.8706  0.7519
 2478SOL    MW4 9686   2.571   3.517   4.011  0.0070  0.0116  0.2524
 2479SOL     OW 9687   4.660   5.413   0.778  0.0663 -0.1222 -0.4035
 2479SOL    HW2 9688   4.713   5.489   0.798  0.6825 -0.4750 -0.6715
 2479SOL    HW3 9689   4.654   5.365   0.861  1.0596 -0.6230 -0.6071
 2479SOL    MW4 9690   4.666   5.416   0.792  0.2786 -0.2348 -0.4657
 2480SOL     OW 9691   4.317   6.344   4.694  0.1115  0.1591  0.0177
 2480SOL    HW2 9692   4.290   6.387   4.613 -1.2252 -1.4967 -0.4875
 2480SOL    HW3 9693   4.259   6.267   4.701  1.8332 -1.1071  1.2601
 2480SOL    MW4 9694   4.306   6.340   4.684  0.1623 -0.2264  0.1150
 2481SOL     OW 9695   3.747   6.174   3.528 -0.2894 -0.2442  0.1767
 2481SOL    HW2 9696   3.670   6.144   3.576  0.0327  1.4649  1.8726
 2481SOL    HW3 9697   3.809   6.200   3.596  0.9852  0.3881 -1.1693
 2481SOL    MW4 9698   3.745   6.173   3.543 -0.0787  0.0647  0.2229
 2482SOL     OW 9699   5.246   3.300   2.539 -0.0488  0.7166 -0.0958
 2482SOL    HW2 9700   5.322   3.278   2.485 -0.4330 -0.3518 -0.2343
 2482SOL    HW3 9701   5.189   3.350   2.480 -0.0852  0.2953 -0.4245
 2482SOL    MW4 9702   5.248   3.304   2.524 -0.1043  0.5201 -0.1575
 2483SOL     OW 9703   5.183   1.524   3.994 -0.0147  0.1854  0.1000
 2483SOL    HW2 9704   5.150   1.435   4.008 -1.3208  0.6623  0.1568
 2483SOL    HW3 9705   5.105   1.579   3.993  0.7472  1.2931 -0.3288
 2483SOL    MW4 9706   5.168   1.520   3.996 -0.0865  0.3945  0.0509
 2484SOL     OW 9707   0.682   4.678   2.269 -0.1629  0.5116  0.2254
 2484SOL    HW2 9708   0.679   4.649   2.178  0.2381  0.8417  0.1017
 2484SOL    HW3 9709   0.671   4.597   2.320  3.3551 -0.3671 -0.0897
 2484SOL    MW4 9710   0.680   4.663   2.264  0.3542  0.4392  0.1675
 2485SOL     OW 9711   4.666   3.664   0.948  0.4427 -0.2387  0.5733
 2485SOL    HW2 9712   4.686   3.617   1.029 -0.3584 -1.2648  0.1934
 2485SOL    HW3 9713   4.593   3.615   0.909  0.4821  0.5376 -0.5118
 2485SOL    MW4 9714   4.659   3.651   0.954  0.3422 -0.2716  0.3800
 2486SOL     OW 9715   1.000   5.423   2.591 -0.1089  0.3082 -0.2553
 2486SOL    HW2 9716   1.034   5.437   2.503  0.8732  0.9618  0.2096
 2486SOL    HW3 9717   1.078   5.420   2.646 -0.5705 -1.9314  0.3770
 2486SOL    MW4 9718   1.015   5.424   2.587 -0.0402  0.0989 -0.1105
 2487SOL     OW 9719   2.133   4.889   6.320 -0.6649  0.1970  1.0076
 2487SOL    HW2 9720   2.220   4.852   6.308 -1.1182 -0.3059 -1.1953
 2487SOL    HW3 9721   2.145   4.960   6.383  0.9874 -0.9873  2.1073
 2487SOL    MW4 9722   2.146   4.893   6.327 -0.5067 -0.0256  0.8621
 2488SOL     OW 9723   0.759   4.980   6.408 -0.1341  0.4062  0.0464
 2488SOL    HW2 9724   0.817   5.029   6.351  1.2893 -1.3264 -0.0845
 2488SOL    HW3 9725   0.688   4.950   6.351 -0.1729  0.9806 -0.2058
 2488SOL    MW4 9726   0.757   4.982   6.393  0.0486  0.2534 -0.0042
 2489SOL     OW 9727   5.489   6.222   4.979 -0.2792 -0.4669 -0.2563
 2489SOL    HW2 9728   5.580   6.242   5.004 -0.4669  1.1549 -0.7213
 2489SOL    HW3 9729   5.436   6.274   5.038 -0.8300  0.2033 -1.3069
 2489SOL    MW4 9730   5.494   6.231   4.990 -0.3766 -0.1645 -0.4563
 2490SOL     OW 9731   2.981   6.119   3.561  0.1900  0.7128  0.5724
 2490SOL    HW2 9732   2.990   6.141   3.654 -0.3699 -1.2491  1.1375
 2490SOL    HW3 9733   2.896   6.074   3.555  0.7352 -0.2233 -0.6553
 2490SOL    MW4 9734   2.971   6.116   3.573  0.1881  0.3304  0.4850
 2491SOL     OW 9735   2.767   2.048   2.645 -0.3434 -0.1922  0.1810
 2491SOL    HW2 9736   2.843   2.059   2.702  0.6369  0.4931 -1.1789
 2491SOL    HW3 9737   2.698   2.013   2.702 -0.3126  2.9785  2.4816
 2491SOL    MW4 9738   2.768   2.045   2.660 -0.2100  0.3166  0.3051
 2492SOL     OW 9739   4.578   1.636   0.124  0.6477  0.0054  0.3628
 2492SOL    HW2 9740   4.649   1.573   0.109  0.4741 -0.2259  0.4931
 2492SOL    HW3 9741   4.524   1.594   0.191 -0.1316 -0.2619 -0.4123
 2492SOL    MW4 9742   4.580   1.622   0.131  0.5220 -0.0604  0.2777
 2493SOL     OW 9743   3.886   2.119   3.020  0.1866 -0.1045 -0.0671
 2493SOL    HW2 9744   3.979   2.111   3.042  0.0655 -0.6459  0.2491
 2493SOL    HW3 9745   3.882   2.197   2.964  0.8827 -0.2937 -0.3941
 2493SOL    MW4 9746   3.898   2.128   3.016  0.2625 -0.2009 -0.0685
 2494SOL     OW 9747   2.526   1.829   2.054 -0.2939 -0.1890  0.0873
 2494SOL    HW2 9748   2.539   1.735   2.066  0.9619  0.2006  2.2439
 2494SOL    HW3 9749   2.611   1.868   2.075 -1.4723  1.5981  1.9681
 2494SOL    MW4 9750   2.539   1.822   2.058 -0.2837  0.0982  0.6200
 2495SOL     OW 9751   6.360   0.614   0.342  0.4766  0.1793  0.0320
 2495SOL    HW2 9752   6.367   0.541   0.280  0.7001  0.6964 -0.5559
 2495SOL    HW3 9753   6.375   0.692   0.289 -0.9178  0.7502  0.4215
 2495SOL    MW4 9754   6.363   0.614   0.327  0.3221  0.3229  0.0058
 2496SOL     OW 9755   0.838   3.710   4.791 -0.2120  0.8902  0.2895
 2496SOL    HW2 9756   0.822   3.652   4.716 -0.8928  1.0704  0.2851
 2496SOL    HW3 9757   0.928   3.691   4.818 -0.6111 -0.5877  0.6484
 2496SOL    MW4 9758   0.848   3.700   4.785 -0.3545  0.7190  0.3363
 2497SOL     OW 9759   6.355   1.611   2.561  0.2270 -0.0628  0.0180
 2497SOL    HW2 9760   6.436   1.656   2.583 -1.2375  2.5444  0.5617
 2497SOL    HW3 9761   6.327   1.570   2.643  0.6083 -0.3390  0.0124
 2497SOL    MW4 9762   6.362   1.611   2.575  0.0841  0.2447  0.0890
 2498SOL     OW 9763   4.849   0.947   4.945 -0.0309 -0.0318 -0.3425
 2498SOL    HW2 9764   4.841   0.989   4.860  0.3209  1.0274  0.1224
 2498SOL    HW3 9765   4.866   0.855   4.926 -0.6960  0.0520 -1.3960
 2498SOL    MW4 9766   4.850   0.940   4.932 -0.0722  0.1190 -0.4202
 2499SOL     OW 9767   5.771   2.007   1.592 -0.4638  0.0051  0.3014
 2499SOL    HW2 9768   5.852   2.047   1.562 -0.6619  0.9601  1.0089
 2499SOL    HW3 9769   5.702   2.066   1.562 -0.8336 -0.2928  0.5496
 2499SOL    MW4 9770   5.773   2.020   1.584 -0.5387  0.0918  0.4275
 2500SOL     OW 9771   3.948   5.363   1.707 -0.3923 -0.3637  0.0046
 2500SOL    HW2 9772   3.990   5.363   1.793  2.6933 -2.2145 -1.3566
 2500SOL    HW3 9773   3.993   5.432   1.659  0.1268 -1.4327 -1.0693
 2500SOL    MW4 9774   3.960   5.372   1.712  0.0833 -0.7489 -0.3167
 2501SOL     OW 9775   1.192   1.511   1.006  0.0686  0.3652 -0.2449
 2501SOL    HW2 9776   1.166   1.603   1.005  0.7533  0.6277  1.8244
 2501SOL    HW3 9777   1.119   1.465   0.963 -1.3042  1.6511  0.6204
 2501SOL    MW4 9778   1.179   1.517   1.001 -0.0222  0.5695  0.1423
 2502SOL     OW 9779   5.834   1.848   0.448 -0.1101  0.4250 -0.0033
 2502SOL    HW2 9780   5.869   1.825   0.363  1.5149 -0.9297  0.9706
 2502SOL    HW3 9781   5.771   1.778   0.468 -1.0669  1.1516 -0.3889
 2502SOL    MW4 9782   5.830   1.835   0.440 -0.0219  0.3421  0.0743
 2503SOL     OW 9783   2.656   3.487   2.712  0.1812 -0.1608 -0.0470
 2503SOL    HW2 9784   2.594   3.427   2.670 -1.2998  1.4828 -0.3347
 2503SOL    HW3 9785   2.621   3.500   2.800  0.5234  0.2552  0.0310
 2503SOL    MW4 9786   2.643   3.481   2.718  0.0309  0.1109 -0.0747
 2504SOL     OW 9787   5.112   4.496   4.838 -0.1320 -0.1072  0.5135
 2504SOL    HW2 9788   5.085   4.557   4.769 -1.1313  1.8489  2.4978
 2504SOL    HW3 9789   5.206   4.487   4.826 -0.1978  0.6608 -0.7481
 2504SOL    MW4 9790   5.121   4.503   4.827 -0.2725  0.2522  0.6088
 2505SOL     OW 9791   1.864   1.723   4.348  0.0317  0.2558 -0.1154
 2505SOL    HW2 9792   1.921   1.671   4.405  0.8814 -0.6118 -1.6820
 2505SOL    HW3 9793   1.779   1.681   4.353  0.1278  0.1261  0.4368
 2505SOL    MW4 9794   1.861   1.711   4.356  0.1564  0.1242 -0.2492
 2506SOL     OW 9795   6.171   4.548   4.971 -0.0083  0.2642 -0.2001
 2506SOL    HW2 9796   6.105   4.512   4.911 -1.8009  0.8397  1.3124
 2506SOL    HW3 9797   6.125   4.619   5.016  0.4851 -1.4409  3.3476
 2506SOL    MW4 9798   6.156   4.553   4.969 -0.1797  0.1152  0.4675
 2507SOL     OW 9799   0.345   6.361   5.277  0.2293  0.0025 -0.3900
 2507SOL    HW2 9800   0.344   6.298   5.349 -0.4781  0.2922 -0.1364
 2507SOL    HW3 9801   0.309   6.441   5.315  0.0923  0.2352 -1.0041
 2507SOL    MW4 9802   0.340   6.363   5.291  0.1179  0.0714 -0.4376
 2508SOL     OW 9803   2.306   0.099   2.741 -0.7502  0.1062 -0.4514
 2508SOL    HW2 9804   2.348   0.018   2.769 -1.6469 -0.1381  0.2211
 2508SOL    HW3 9805   2.253   0.074   2.665  0.0152  0.3431 -1.0771
 2508SOL    MW4 9806   2.304   0.085   2.735 -0.7675  0.1052 -0.4452
 2509SOL     OW 9807   4.422   0.937   0.889  0.3374  0.2540 -0.4356
 2509SOL    HW2 9808   4.342   0.946   0.836 -1.0369  1.4497  1.6896
 2509SOL    HW3 9809   4.425   0.843   0.910 -2.0436  0.5287  1.5633
 2509SOL    MW4 9810   4.412   0.925   0.884 -0.1581  0.4480  0.1085
 2510SOL     OW 9811   1.729   4.403   3.937 -0.1858  0.2709 -0.0422
 2510SOL    HW2 9812   1.754   4.362   3.854  2.7494  1.2061  0.2285
 2510SOL    HW3 9813   1.759   4.342   4.004 -2.0540 -0.2329  0.3693
 2510SOL    MW4 9814   1.737   4.390   3.935 -0.0450  0.3278  0.0478
 2511SOL     OW 9815   3.958   4.884   4.959 -0.0176  0.3644  0.4119
 2511SOL    HW2 9816   3.896   4.825   5.003  0.1868 -0.4679 -0.3910
 2511SOL    HW3 9817   4.037   4.831   4.947 -0.2145  0.4339 -1.3465
 2511SOL    MW4 9818   3.960   4.869   4.963 -0.0166  0.2638  0.0740
 2512SOL     OW 9819   3.006   2.362   4.033 -0.1832 -0.1319 -0.1210
 2512SOL    HW2 9820   3.006   2.269   4.053 -2.3762 -0.8354 -2.7513
 2512SOL    HW3 9821   3.057   2.369   3.952  2.9484  1.5860  1.8120
 2512SOL    MW4 9822   3.013   2.351   4.025 -0.0593  0.0019 -0.2130
 2513SOL     OW 9823   0.447   2.236   0.431 -0.3698  0.2291  0.3141
 2513SOL    HW2 9824   0.516   2.258   0.494  1.0348 -2.2907 -0.2131
 2513SOL    HW3 9825   0.425   2.145   0.451 -1.0793 -0.1056 -1.7711
 2513SOL    MW4 9826   0.453   2.227   0.442 -0.2781 -0.1475 -0.0305
 2514SOL     OW 9827   6.224   0.651   3.061 -0.0253  0.4296 -0.2118
 2514SOL    HW2 9828   6.314   0.645   3.092 -0.3029  0.7448  0.6843
 2514SOL    HW3 9829   6.186   0.565   3.080 -0.0829  0.4959 -0.0193
 2514SOL    MW4 9830   6.231   0.639   3.068 -0.0695  0.4799 -0.0682
 2515SOL     OW 9831   3.908   0.569   4.096 -0.1750 -0.0318  0.0333
 2515SOL    HW2 9832   3.918   0.570   4.191 -0.7024 -2.1596  0.1534
 2515SOL    HW3 9833   3.844   0.638   4.078  0.9937  1.3832  1.0390
 2515SOL    MW4 9834   3.901   0.578   4.106 -0.0904 -0.1259  0.1818
 2516SOL     OW 9835   5.108   6.118   0.845  0.4977  0.1682  0.3152
 2516SOL    HW2 9836   5.134   6.062   0.918  0.2282  0.0802  0.3427
 2516SOL    HW3 9837   5.013   6.115   0.845  0.4571 -2.4413 -2.0251
 2516SOL    MW4 9838   5.099   6.110   0.854  0.4568 -0.1877  0.0101
 2517SOL     OW 9839   5.038   3.013   3.542  0.3325 -0.4798 -0.5944
 2517SOL    HW2 9840   5.009   3.083   3.601  0.6160 -2.0295  1.5050
 2517SOL    HW3 9841   5.051   3.056   3.458  0.3831  1.9544  0.5853
 2517SOL    MW4 9842   5.036   3.028   3.539  0.3766 -0.3631 -0.1618
 2518SOL     OW 9843   5.356   1.950   5.368 -0.0514 -0.0477 -0.3772
 2518SOL    HW2 9844   5.390   1.979   5.283 -0.1733 -1.8836 -1.0818
 2518SOL    HW3 9845   5.419   1.885   5.398 -1.1795 -1.0545 -0.1275
 2518SOL    MW4 9846   5.369   1.946   5.360 -0.2164 -0.4228 -0.4372
 2519SOL     OW 9847   5.330   5.410   3.877  0.8890 -0.6658  0.3706
 2519SOL    HW2 9848   5.313   5.474   3.945 -0.4723 -1.4538  0.8164
 2519SOL    HW3 9849   5.419   5.428   3.848  1.0403  0.4780  1.4862
 2519SOL    MW4 9850   5.340   5.421   3.882  0.7293 -0.6188  0.5766
 2520SOL     OW 9851   1.837   3.674   2.101  0.4221 -0.1734 -0.9382
 2520SOL    HW2 9852   1.784   3.595   2.091  1.6575 -1.5267  2.0334
 2520SOL    HW3 9853   1.915   3.657   2.048  0.1535 -0.3851 -1.2723
 2520SOL    MW4 9854   1.840   3.661   2.093  0.5496 -0.3799 -0.5903
 2521SOL     OW 9855   1.861   5.392   4.374  0.1146  0.0376 -0.6929
 2521SOL    HW2 9856   1.897   5.476   4.403 -0.9877  0.6858 -1.1454
 2521SOL    HW3 9857   1.861   5.338   4.453  1.1102  0.3637 -0.4636
 2521SOL    MW4 9858   1.866   5.396   4.388  0.1005  0.1662 -0.7223
 2522SOL     OW 9859   5.189   2.880   4.585  0.1612  0.4412 -0.1479
 2522SOL    HW2 9860   5.158   2.914   4.669  0.2520  0.6070 -0.1791
 2522SOL    HW3 9861   5.110   2.855   4.538  0.1037  0.4388 -0.0502
 2522SOL    MW4 9862   5.175   2.881   4.590  0.1656  0.4628 -0.1391
 2523SOL     OW 9863   2.035   2.709   1.570  0.0195 -0.1403 -0.1855
 2523SOL    HW2 9864   1.959   2.692   1.515  0.1466  0.1102 -0.4369
 2523SOL    HW3 9865   2.111   2.699   1.512  0.1715 -0.2348  0.0261
 2523SOL    MW4 9866   2.035   2.705   1.555  0.0563 -0.1197 -0.1908
 2524SOL     OW 9867   3.848   3.714   5.448 -0.1924  0.0245 -0.1888
 2524SOL    HW2 9868   3.765   3.732   5.492 -0.5794  0.6671 -1.1425
 2524SOL    HW3 9869   3.893   3.652   5.506 -1.5159 -0.6861  0.1242
 2524SOL    MW4 9870   3.843   3.708   5.462 -0.4181  0.0156 -0.2733
 2525SOL     OW 9871   5.609   2.100   5.410  0.4418  0.4115  0.1145
 2525SOL    HW2 9872   5.652   2.161   5.469  0.6319  0.2542  0.1389
 2525SOL    HW3 9873   5.524   2.082   5.451  0.9112 -0.3539  0.7660
 2525SOL    MW4 9874   5.603   2.106   5.423  0.5288  0.2898  0.2037
 2526SOL     OW 9875   1.364   0.346   2.364 -0.3524 -0.3846  0.4277
 2526SOL    HW2 9876   1.371   0.256   2.333  0.2489 -0.0223 -0.5393
 2526SOL    HW3 9877   1.455   0.378   2.368 -0.5514  0.1610  0.8174
 2526SOL    MW4 9878   1.377   0.338   2.360 -0.2993 -0.2648  0.3515
 2527SOL     OW 9879   4.688   5.258   4.280 -0.0738  0.3414 -0.5418
 2527SOL    HW2 9880   4.617   5.299   4.330 -1.1948 -0.5576 -1.3543
 2527SOL    HW3 9881   4.768   5.297   4.316 -0.9830  1.6032  0.1899
 2527SOL    MW4 9882   4.689   5.269   4.291 -0.3417  0.3892 -0.5524
 2528SOL     OW 9883   4.294   5.002   2.861  0.1743  0.4984  0.3326
 2528SOL    HW2 9884   4.298   5.057   2.783 -0.1964 -0.2063 -0.1995
 2528SOL    HW3 9885   4.218   5.035   2.910 -0.2000  0.2973 -0.1090
 2528SOL    MW4 9886   4.284   5.014   2.857  0.0760  0.3789  0.2042
 2529SOL     OW 9887   2.244   1.307   5.489 -0.0703  0.3678 -0.1281
 2529SOL    HW2 9888   2.251   1.361   5.567  0.6154  0.1645 -0.0400
 2529SOL    HW3 9889   2.212   1.366   5.421  1.4167  1.0910 -0.2322
 2529SOL    MW4 9890   2.241   1.322   5.490  0.2164  0.4364 -0.1302
 2530SOL     OW 9891   0.556   3.385   5.502 -0.2336 -0.1783 -0.1150
 2530SOL    HW2 9892   0.588   3.303   5.466 -1.8527 -1.1880  0.6318
 2530SOL    HW3 9893   0.500   3.421   5.433  0.1934  0.1337 -0.3033
 2530SOL    MW4 9894   0.552   3.379   5.488 -0.3909 -0.2703 -0.0413
 2531SOL     OW 9895   5.636   4.166   1.766  0.1325 -0.4265  0.6727
 2531SOL    HW2 9896   5.696   4.134   1.833  1.0251 -1.6222 -0.6245
 2531SOL    HW3 9897   5.575   4.093   1.752  0.4716 -0.5224 -0.3725
 2531SOL    MW4 9898   5.636   4.152   1.773  0.2950 -0.5969  0.3637
 2532SOL     OW 9899   3.210   1.867   5.598  0.0621 -0.5454 -0.6484
 2532SOL    HW2 9900   3.155   1.796   5.632  0.6768 -0.0083  1.7060
 2532SOL    HW3 9901   3.155   1.946   5.606 -0.3649 -0.6087 -2.5690
 2532SOL    MW4 9902   3.195   1.868   5.604  0.0868 -0.4829 -0.5912
 2533SOL     OW 9903   2.916   4.761   5.053 -0.4003  0.6330  0.2157
 2533SOL    HW2 9904   2.933   4.748   4.960  0.7444 -0.7209  0.5748
 2533SOL    HW3 9905   2.842   4.704   5.072  0.1773 -0.0961  0.3621
 2533SOL    MW4 9906   2.909   4.752   5.043 -0.1731  0.3582  0.2824
 2534SOL     OW 9907   6.098   1.566   4.109  0.0483 -0.3925 -0.2885
 2534SOL    HW2 9908   6.111   1.505   4.037 -0.5007 -2.8139  1.5279
 2534SOL    HW3 9909   6.171   1.549   4.168 -0.1352  0.7274  0.2794
 2534SOL    MW4 9910   6.109   1.556   4.107 -0.0484 -0.5642  0.0261
 2535SOL     OW 9911   0.695   0.429   3.015  0.0008  0.1431 -0.0123
 2535SOL    HW2 9912   0.705   0.516   2.976 -1.6160 -1.0220 -3.4143
 2535SOL    HW3 9913   0.616   0.435   3.069 -0.4682  0.6258 -0.7433
 2535SOL    MW4 9914   0.686   0.441   3.017 -0.2744  0.0531 -0.5576
 2536SOL     OW 9915   6.224   3.086   5.477 -0.2261  0.5055 -0.4360
 2536SOL    HW2 9916   6.217   3.154   5.410  0.0487  0.6864 -0.2855
 2536SOL    HW3 9917   6.152   3.025   5.458  0.9203 -0.4109 -1.9561
 2536SOL    MW4 9918   6.213   3.087   5.466 -0.0386  0.4085 -0.6167
 2537SOL     OW 9919   2.539   1.771   3.906 -0.3054 -0.1811  0.1336
 2537SOL    HW2 9920   2.559   1.855   3.947  0.0231  0.2511 -0.8820
 2537SOL    HW3 9921   2.451   1.783   3.870  0.0573  0.0138 -0.7093
 2537SOL    MW4 9922   2.530   1.784   3.906 -0.2142 -0.0983 -0.1116
 2538SOL     OW 9923   2.580   2.424   1.371  0.1113  0.2363  0.4326
 2538SOL    HW2 9924   2.649   2.464   1.319 -0.0928  0.6842  0.5003
 2538SOL    HW3 9925   2.536   2.364   1.311 -0.2205  0.8666  0.0363
 2538SOL    MW4 9926   2.583   2.421   1.357  0.0406  0.3786  0.3892
 2539SOL     OW 9927   1.231   5.629   5.687 -0.0427  0.0220  0.7028
 2539SOL    HW2 9928   1.311   5.679   5.704 -1.0966  1.8194  0.6607
 2539SOL    HW3 9929   1.171   5.655   5.758 -0.6651 -1.1388  0.6329
 2539SOL    MW4 9930   1.233   5.639   5.699 -0.2638  0.1060  0.6880
 2540SOL     OW 9931   5.071   1.456   2.051  0.0143 -0.4382  0.6006
 2540SOL    HW2 9932   4.976   1.446   2.052  0.0396 -0.7341  0.2519
 2540SOL    HW3 9933   5.086   1.549   2.035 -0.2138 -0.6403 -0.9520
 2540SOL    MW4 9934   5.061   1.467   2.049 -0.0125 -0.5039  0.3498
 2541SOL     OW 9935   5.239   4.462   1.748  0.1245  0.6046  0.1847
 2541SOL    HW2 9936   5.213   4.494   1.662 -0.6083 -0.3896  0.0128
 2541SOL    HW3 9937   5.332   4.444   1.741  0.0399  0.3910 -0.4568
 2541SOL    MW4 9938   5.248   4.464   1.736  0.0166  0.4453  0.0773
 2542SOL     OW 9939   5.493   5.239   6.319  0.2772 -0.0358 -0.4345
 2542SOL    HW2 9940   5.478   5.323   6.276 -0.1511 -0.1137 -0.4420
 2542SOL    HW3 9941   5.562   5.197   6.267  1.8966  1.1062  0.6669
 2542SOL    MW4 9942   5.500   5.245   6.307  0.4344  0.1046 -0.2902
 2543SOL     OW 9943   5.324   3.692   3.015  0.2367 -0.2697 -0.4464
 2543SOL    HW2 9944   5.229   3.691   3.011  0.0849 -0.4594  1.8191
 2543SOL    HW3 9945   5.351   3.604   2.987 -0.1245  0.1279 -2.1951
 2543SOL    MW4 9946   5.315   3.680   3.011  0.1690 -0.2423 -0.3782
 2544SOL     OW 9947   0.973   5.601   3.654 -0.0785  0.2082 -0.2526
 2544SOL    HW2 9948   0.922   5.625   3.577 -1.1091  0.9527  0.6440
 2544SOL    HW3 9949   1.049   5.660   3.651 -1.0986  1.5890  0.3320
 2544SOL    MW4 9950   0.977   5.612   3.643 -0.3491  0.4886 -0.0572
 2545SOL     OW 9951   4.440   2.840   4.245  0.6318  0.0691  0.1622
 2545SOL    HW2 9952   4.485   2.771   4.196  0.9613 -0.9135  1.7600
 2545SOL    HW3 9953   4.384   2.793   4.306 -1.3433  1.2695 -0.6451
 2545SOL    MW4 9954   4.439   2.825   4.246  0.4147  0.0978  0.2665
 2546SOL     OW 9955   0.592   2.206   0.115 -0.2052 -0.1564 -0.0742
 2546SOL    HW2 9956   0.569   2.238   0.202  1.8695 -1.3284  0.9810
 2546SOL    HW3 9957   0.513   2.161   0.085 -0.8708  0.0072  1.3352
 2546SOL    MW4 9958   0.579   2.204   0.123 -0.0193 -0.2895  0.2510
 2547SOL     OW 9959   5.535   1.043   5.235  0.2717 -0.2200 -0.0573
 2547SOL    HW2 9960   5.481   0.965   5.223  0.8635 -0.9079  1.4861
 2547SOL    HW3 9961   5.509   1.101   5.163 -0.2928 -1.7609 -1.1684
 2547SOL    MW4 9962   5.525   1.040   5.224  0.2753 -0.5141 -0.0003
 2548SOL     OW 9963   6.405   1.492   2.321 -0.0596 -0.6317  0.3768
 2548SOL    HW2 9964   6.384   1.527   2.408 -1.5204 -2.6606  0.9211
 2548SOL    HW3 9965   6.451   1.410   2.339 -1.8550 -1.9510 -0.6570
 2548SOL    MW4 9966   6.408   1.486   2.335 -0.4892 -1.0735  0.3122
 2549SOL     OW 9967   5.428   1.722   4.505 -0.3387 -0.5473 -0.0152
 2549SOL    HW2 9968   5.498   1.674   4.549  0.4883  0.2166 -0.4535
 2549SOL    HW3 9969   5.465   1.810   4.491 -0.4501 -0.8148 -2.4297
 2549SOL    MW4 9970   5.442   1.728   4.509 -0.2443 -0.4818 -0.3916
 2550SOL     OW 9971   1.646   2.782   5.487  0.3875  0.1604  0.5238
 2550SOL    HW2 9972   1.633   2.699   5.534 -0.3815  0.5259  0.9752
 2550SOL    HW3 9973   1.603   2.847   5.542  1.5962  0.9785  0.5339
 2550SOL    MW4 9974   1.639   2.780   5.501  0.4455  0.3166  0.5847
 2551SOL     OW 9975   2.014   0.783   0.893  0.0836 -0.0882  0.0220
 2551SOL    HW2 9976   2.012   0.797   0.987 -0.3253  0.2274 -0.0321
 2551SOL    HW3 9977   2.106   0.769   0.872  0.0426 -1.4913  0.6623
 2551SOL    MW4 9978   2.025   0.783   0.902  0.0242 -0.2317  0.0993
 2552SOL     OW 9979   1.292   1.952   1.876 -0.2032  0.1262 -0.4573
 2552SOL    HW2 9980   1.329   1.900   1.804 -0.0565  0.5270 -0.6774
 2552SOL    HW3 9981   1.208   1.910   1.896 -0.0606 -0.2283 -0.5894
 2552SOL    MW4 9982   1.286   1.940   1.869 -0.1650  0.1323 -0.5038
 2553SOL     OW 9983   1.362   4.129   5.568 -0.3569  0.1373 -0.3259
 2553SOL    HW2 9984   1.447   4.173   5.571  0.1573 -0.8587  0.5594
 2553SOL    HW3 9985   1.319   4.158   5.648 -0.5560  0.0558 -0.4051
 2553SOL    MW4 9986   1.368   4.139   5.579 -0.3153 -0.0049 -0.2196
 2554SOL     OW 9987   2.995   0.889   4.750  0.3605  0.3412  0.0181
 2554SOL    HW2 9988   3.064   0.955   4.748 -0.6776  1.4470 -1.4559
 2554SOL    HW3 9989   2.929   0.922   4.689  0.0354 -2.3608 -1.1887
 2554SOL    MW4 9990   2.995   0.902   4.742  0.1807  0.1306 -0.3356
 2555SOL     OW 9991   3.349   4.659   2.260  0.0268  0.2882  0.7190
 2555SOL    HW2 9992   3.298   4.733   2.227 -2.3352 -1.4035  0.3155
 2555SOL    HW3 9993   3.396   4.694   2.335 -0.8158  2.2582  0.3903
 2555SOL    MW4 9994   3.348   4.673   2.265 -0.3960  0.3249  0.6224
 2556SOL     OW 9995   1.648   4.759   2.882 -0.4792  0.2541  0.4183
 2556SOL    HW2 9996   1.743   4.758   2.893 -0.5478 -0.7679  1.0176
 2556SOL    HW3 9997   1.627   4.674   2.844 -1.0487  0.9079 -0.7673
 2556SOL    MW4 9998   1.658   4.748   2.879 -0.5634  0.2055  0.3410
 2557SOL     OW 9999   5.346   2.097   1.228  0.1823 -0.2858  0.1053
 2557SOL    HW210000   5.303   2.182   1.231 -0.7786 -0.7899  1.2177
 2557SOL    HW310001   5.406   2.097   1.302  3.0026  0.8007 -1.9834
 2557SOL    MW410002   5.349   2.108   1.238  0.4276 -0.2090 -0.0235
 2558SOL     OW10003   6.322   0.017   6.224 -0.0758 -0.4237  0.5380
 2558SOL    HW210004   6.407   0.020   6.268 -0.5406  0.2250  1.3947
 2558SOL    HW310005   6.344   0.024   6.131  0.6590  2.8649  0.8606
 2558SOL    MW410006   6.336   0.018   6.217 -0.0402  0.0958  0.6936
 2559SOL     OW10007   2.605   6.164   5.723 -0.1380 -0.0053 -0.9303
 2559SOL    HW210008   2.638   6.251   5.746  1.0571  0.3339 -3.5462
 2559SOL    HW310009   2.552   6.137   5.798  1.2500  2.0290  0.8860
 2559SOL    MW410010   2.602   6.172   5.736  0.2028  0.3079 -1.0358
 2560SOL     OW10011   2.751   0.468   0.226 -0.1552 -0.5745  0.4342
 2560SOL    HW210012   2.681   0.417   0.186 -0.5271 -0.9276  1.4904
 2560SOL    HW310013   2.829   0.449   0.173 -0.5838 -1.1776  0.0090
 2560SOL    MW410014   2.752   0.459   0.214 -0.2608 -0.7007  0.5175
 2561SOL     OW10015   1.327   4.907   5.646 -0.3977  0.1206 -0.2342
 2561SOL    HW210016   1.328   4.991   5.691  0.0834 -0.7015  1.3421
 2561SOL    HW310017   1.419   4.891   5.624 -0.0760 -1.1808  1.8346
 2561SOL    MW410018   1.339   4.916   5.649 -0.2918 -0.1596  0.2467
 2562SOL     OW10019   2.268   4.800   4.738  0.1888 -0.1706 -0.2479
 2562SOL    HW210020   2.205   4.735   4.706 -1.7034  1.2907  0.3541
 2562SOL    HW310021   2.301   4.842   4.659 -0.7567  0.0876 -0.5187
 2562SOL    MW410022   2.264   4.797   4.724 -0.1856  0.0563 -0.2042
 2563SOL     OW10023   1.250   1.767   2.503  0.3049 -0.4263 -0.6233
 2563SOL    HW210024   1.339   1.731   2.509 -0.2363 -1.6548  0.8939
 2563SOL    HW310025   1.236   1.782   2.410  0.7325 -3.9194 -1.3896
 2563SOL    MW410026   1.260   1.764   2.492  0.2899 -1.0493 -0.5242
 2564SOL     OW10027   4.729   2.389   5.642  0.3437  0.2240 -0.2829
 2564SOL    HW210028   4.797   2.323   5.629  1.4554  1.4179 -0.6778
 2564SOL    HW310029   4.652   2.353   5.598  0.6399 -1.2205  0.3014
 2564SOL    MW410030   4.728   2.375   5.635  0.5295  0.1909 -0.2579
 2565SOL     OW10031   3.383   4.106   4.994  0.5446 -0.2843  0.1623
 2565SOL    HW210032   3.450   4.173   5.007  1.6532 -1.2428 -0.4720
 2565SOL    HW310033   3.331   4.139   4.921 -1.0926  1.5013  1.9721
 2565SOL    MW410034   3.385   4.119   4.986  0.4748 -0.1752  0.3174
 2566SOL     OW10035   0.894   1.390   1.959  0.0469  1.0725  0.3753
 2566SOL    HW210036   0.885   1.312   2.014  1.7085  0.5087 -0.0985
 2566SOL    HW310037   0.868   1.463   2.017  0.9042  0.4113  1.6482
 2566SOL    MW410038   0.889   1.390   1.974  0.3792  0.9109  0.4807
 2567SOL     OW10039   1.861   1.439   5.476 -0.7368  0.3200 -0.2652
 2567SOL    HW210040   1.766   1.450   5.467 -0.9924 -0.1202  1.4688
 2567SOL    HW310041   1.871   1.386   5.555  0.8544 -2.2815 -2.0454
 2567SOL    MW410042   1.850   1.433   5.485 -0.5606 -0.0813 -0.2713
 2568SOL     OW10043   0.132   4.103   0.244  0.2490 -1.0522  0.0370
 2568SOL    HW210044   0.073   4.094   0.319  0.9225 -1.4574  0.5269
 2568SOL    HW310045   0.192   4.029   0.251  2.5181  0.7498  1.1079
 2568SOL    MW410046   0.132   4.092   0.255  0.6373 -0.8679  0.2429
 2569SOL     OW10047   1.459   6.236   5.561 -0.0037  0.1434 -0.3459
 2569SOL    HW210048   1.513   6.302   5.604 -0.9414 -0.0021  1.1562
 2569SOL    HW310049   1.433   6.275   5.478  0.3659  1.1963  0.0269
 2569SOL    MW410050   1.463   6.250   5.556 -0.0787  0.2631 -0.0986
 2570SOL     OW10051   3.799   5.014   5.938 -0.4359 -0.0532  0.2251
 2570SOL    HW210052   3.808   5.094   5.886  0.4140 -0.0384  0.3740
 2570SOL    HW310053   3.881   4.967   5.923 -0.9872 -0.9678  0.0273
 2570SOL    MW410054   3.811   5.019   5.930 -0.3965 -0.1719  0.2186
 2571SOL     OW10055   3.539   5.564   3.978  0.1624 -0.3754  0.4780
 2571SOL    HW210056   3.565   5.514   3.900  1.3250  2.3636 -1.0237
 2571SOL    HW310057   3.446   5.583   3.964  0.7726  1.6617 -1.2788
 2571SOL    MW410058   3.530   5.560   3.966  0.3963  0.2548  0.0480
 2572SOL     OW10059   5.993   5.981   4.157 -0.2490  0.7924  0.2569
 2572SOL    HW210060   6.012   5.967   4.065  0.7067 -0.3227  0.5898
 2572SOL    HW310061   5.903   5.951   4.168  0.2998 -1.0675  0.0525
 2572SOL    MW410062   5.983   5.975   4.147 -0.0505  0.3999  0.2738
 2573SOL     OW10063   2.094   2.067   3.351 -0.5848 -0.0333  0.4074
 2573SOL    HW210064   2.121   2.033   3.266  2.2489 -1.2753  1.6864
 2573SOL    HW310065   2.074   2.160   3.335  2.3575  0.4354 -1.2287
 2573SOL    MW410066   2.095   2.075   3.338  0.1773 -0.1353  0.3603
 2574SOL     OW10067   3.578   5.930   0.926 -0.4646  0.1331  0.6167
 2574SOL    HW210068   3.640   5.866   0.893  0.2190  0.7923  0.5915
 2574SOL    HW310069   3.529   5.884   0.994 -1.7545 -1.1829 -1.1238
 2574SOL    MW410070   3.580   5.916   0.931 -0.5446  0.0465  0.3837
 2575SOL     OW10071   1.532   3.685   5.330  0.8940 -0.0132  0.3863
 2575SOL    HW210072   1.493   3.764   5.366  0.4059 -0.6017  1.1984
 2575SOL    HW310073   1.528   3.697   5.235  0.9834  0.9993  0.5060
 2575SOL    MW410074   1.526   3.697   5.322  0.8414  0.0428  0.5092
 2576SOL     OW10075   3.269   4.502   0.508 -0.1267 -0.1440  0.5391
 2576SOL    HW210076   3.334   4.571   0.518  0.2209 -0.6286  1.8223
 2576SOL    HW310077   3.294   4.457   0.428  0.5828  0.2324  0.5447
 2576SOL    MW410078   3.281   4.505   0.499  0.0127 -0.1583  0.7091
 2577SOL     OW10079   1.345   3.264   5.823 -0.1303 -0.6725  0.3316
 2577SOL    HW210080   1.308   3.319   5.892  0.7725  0.0269  0.2731
 2577SOL    HW310081   1.399   3.323   5.772 -1.5093 -0.9758 -1.5582
 2577SOL    MW410082   1.347   3.279   5.826 -0.1931 -0.6202  0.0746
 2578SOL     OW10083   1.226   4.022   6.105 -0.3420 -0.2717  0.3491
 2578SOL    HW210084   1.311   4.013   6.148 -1.0404 -1.2164  1.6032
 2578SOL    HW310085   1.226   3.955   6.037  0.1698  0.1857 -0.1094
 2578SOL    MW410086   1.237   4.012   6.102 -0.3666 -0.3360  0.4540
 2579SOL     OW10087   3.802   3.990   1.896 -0.2875 -0.5155 -0.5354
 2579SOL    HW210088   3.864   3.973   1.967 -1.2385 -1.1538  0.1768
 2579SOL    HW310089   3.802   3.909   1.844 -0.1722 -0.3369 -0.8169
 2579SOL    MW410090   3.810   3.977   1.899 -0.3978 -0.5762 -0.4786
 2580SOL     OW10091   6.011   3.203   0.086  0.1833 -0.1310 -0.3231
 2580SOL    HW210092   6.034   3.140   0.019  2.1060  0.2870 -0.1332
 2580SOL    HW310093   6.087   3.261   0.091 -0.3546  0.4954  1.4526
 2580SOL    MW410094   6.024   3.203   0.078  0.3660  0.0068 -0.0638
 2581SOL     OW10095   3.152   3.520   0.243 -0.3507  0.4211 -0.3057
 2581SOL    HW210096   3.128   3.608   0.271 -1.9622  0.3250 -1.2671
 2581SOL    HW310097   3.185   3.478   0.323  1.0352  2.0459  0.0404
 2581SOL    MW410098   3.154   3.526   0.257 -0.3804  0.6228 -0.3869
 2582SOL     OW10099   1.025   1.212   1.119  0.1699 -0.2331  0.3894
 2582SOL    HW210100   1.098   1.151   1.107  0.5629  0.3102 -0.0507
 2582SOL    HW310101   1.063   1.285   1.169  0.3429  0.7474 -1.0844
 2582SOL    MW410102   1.040   1.214   1.124  0.2446 -0.0320  0.1369
 2583SOL     OW10103   2.117   0.870   3.177 -0.2494  0.0525  0.6287
 2583SOL    HW210104   2.092   0.810   3.107 -0.3911 -0.2490  0.9324
 2583SOL    HW310105   2.039   0.877   3.232  0.0510 -0.1894  1.0893
 2583SOL    MW410106   2.104   0.863   3.175 -0.2285 -0.0192  0.7295
 2584SOL     OW10107   1.638   3.836   4.966 -0.3728  0.2685  0.0423
 2584SOL    HW210108   1.710   3.804   5.021  1.9590 -1.1292 -3.4660
 2584SOL    HW310109   1.559   3.811   5.013  1.2402  1.7225  4.0604
 2584SOL    MW410110   1.637   3.829   4.980  0.1477  0.2759  0.1096
 2585SOL     OW10111   5.182   4.409   3.099  0.1186 -0.0655 -0.2464
 2585SOL    HW210112   5.091   4.433   3.079  0.3314  1.4788  0.4940
 2585SOL    HW310113   5.221   4.489   3.135  1.4583 -1.0104  0.5156
 2585SOL    MW410114   5.175   4.423   3.101  0.3234  0.0136 -0.0482
 2586SOL     OW10115   1.867   2.010   2.263 -0.2729 -0.0123 -0.1443
 2586SOL    HW210116   1.804   2.065   2.309 -1.0414  0.5998 -1.8164
 2586SOL    HW310117   1.843   1.921   2.287 -1.4592  0.2369 -0.3279
 2586SOL    MW410118   1.855   2.006   2.272 -0.5308  0.1014 -0.3891
 2587SOL     OW10119   0.594   5.899   4.535  0.5858 -0.1083 -0.3738
 2587SOL    HW210120   0.506   5.930   4.557  0.3630  0.0918 -1.4548
 2587SOL    HW310121   0.580   5.811   4.498  0.8100  0.0021 -0.7297
 2587SOL    MW410122   0.581   5.891   4.533  0.5860 -0.0674 -0.5634
 2588SOL     OW10123   0.165   1.487   5.095  0.5507 -0.1346  0.0377
 2588SOL    HW210124   0.190   1.401   5.062  0.9153  0.4231 -1.2206
 2588SOL    HW310125   0.069   1.483   5.102  0.4934 -0.3862 -0.7970
 2588SOL    MW410126   0.155   1.476   5.091  0.5912 -0.0942 -0.2384
 2589SOL     OW10127   1.508   6.343   6.173 -0.0569 -0.6335  0.4495
 2589SOL    HW210128   1.514   6.322   6.080  1.3974 -1.1830  0.6389
 2589SOL    HW310129   1.506   6.258   6.217  2.2959 -0.4766  1.0357
 2589SOL    MW410130   1.509   6.329   6.167  0.4454 -0.6853  0.5519
 2590SOL     OW10131   3.231   4.869   0.531  0.0876 -0.1071  0.4251
 2590SOL    HW210132   3.138   4.880   0.514 -0.1655 -1.0490  1.1605
 2590SOL    HW310133   3.270   4.953   0.505 -0.7407 -0.2144 -1.2983
 2590SOL    MW410134   3.224   4.882   0.526 -0.0551 -0.2455  0.2947
 2591SOL     OW10135   5.437   1.574   3.868 -0.2713  0.1763 -0.1860
 2591SOL    HW210136   5.402   1.595   3.781 -0.2999  2.6975  0.3858
 2591SOL    HW310137   5.359   1.560   3.922 -0.2549 -1.1366 -0.4649
 2591SOL    MW410138   5.422   1.575   3.864 -0.2729  0.3357 -0.1473
 2592SOL     OW10139   1.690   5.532   3.577  0.0149  0.0807 -0.3246
 2592SOL    HW210140   1.650   5.612   3.611 -1.2865 -0.2665 -0.9635
 2592SOL    HW310141   1.616   5.472   3.563  0.6978 -0.4178 -2.0449
 2592SOL    MW410142   1.675   5.534   3.580 -0.0667 -0.0309 -0.6359
 2593SOL     OW10143   4.370   4.297   4.754 -0.3859  0.0108  0.0954
 2593SOL    HW210144   4.429   4.275   4.682 -0.0675 -0.1948  0.4152
 2593SOL    HW310145   4.283   4.292   4.716 -0.1531  2.3812 -0.9653
 2593SOL    MW410146   4.367   4.294   4.739 -0.3132  0.2964 -0.0023
 2594SOL     OW10147   2.606   3.337   0.801  0.1780 -0.0195 -0.6826
 2594SOL    HW210148   2.546   3.396   0.755  0.4324 -0.9849 -2.3191
 2594SOL    HW310149   2.551   3.262   0.825  0.4540 -0.3710 -1.1275
 2594SOL    MW410150   2.591   3.335   0.798  0.2480 -0.1933 -0.9572
 2595SOL     OW10151   3.879   5.283   6.349 -0.4102  0.2015  0.1094
 2595SOL    HW210152   3.950   5.316   6.404  0.3084  0.4838 -0.9487
 2595SOL    HW310153   3.885   5.336   6.269 -0.5847 -1.0538 -0.7571
 2595SOL    MW410154   3.889   5.294   6.346 -0.3384  0.0731 -0.1445
 2596SOL     OW10155   6.050   0.555   4.052 -0.4326 -0.0238  0.0592
 2596SOL    HW210156   6.063   0.645   4.084 -0.0812  1.0184 -2.7402
 2596SOL    HW310157   6.135   0.529   4.019 -0.8395 -0.8904 -0.3289
 2596SOL    MW410158   6.063   0.564   4.052 -0.4399 -0.0006 -0.3613
 2597SOL     OW10159   2.261   5.926   4.420 -0.4823 -0.1885 -0.2052
 2597SOL    HW210160   2.289   5.834   4.426 -1.2820 -0.3865  0.7422
 2597SOL    HW310161   2.174   5.922   4.381  0.1218  0.3058 -1.6513
 2597SOL    MW410162   2.254   5.913   4.416 -0.5081 -0.1494 -0.2710
 2598SOL     OW10163   6.038   2.521   4.796  0.2698  0.2312 -0.7441
 2598SOL    HW210164   6.055   2.511   4.889  0.2973 -0.6823 -0.8475
 2598SOL    HW310165   5.976   2.595   4.791 -1.1438 -0.8473  0.1296
 2598SOL    MW410166   6.032   2.530   4.807  0.0869 -0.0316 -0.6425
 2599SOL     OW10167   0.395   3.316   0.515  0.6053  0.1463  0.4015
 2599SOL    HW210168   0.302   3.309   0.536 -0.2248  1.3584 -2.3936
 2599SOL    HW310169   0.418   3.230   0.479  0.8922 -0.4834  1.9985
 2599SOL    MW410170   0.386   3.304   0.513  0.5336  0.2232  0.2434
 2600SOL     OW10171   0.753   5.199   5.947  0.0215  0.1410  0.0157
 2600SOL    HW210172   0.720   5.122   5.902  0.5642 -0.3755  0.4812
 2600SOL    HW310173   0.778   5.259   5.877 -0.0628 -0.2560 -0.3564
 2600SOL    MW410174   0.752   5.197   5.932  0.0820  0.0205  0.0281
 2601SOL     OW10175   5.489   5.613   0.548  0.1151 -0.3054  0.1098
 2601SOL    HW210176   5.545   5.604   0.625 -0.5732  1.2262  0.8277
 2601SOL    HW310177   5.400   5.603   0.581 -0.1675 -0.0204 -0.5352
 2601SOL    MW410178   5.485   5.611   0.563 -0.0130 -0.0657  0.1194
 2602SOL     OW10179   0.560   4.688   5.639 -0.5069  0.2791 -0.1159
 2602SOL    HW210180   0.627   4.649   5.582  0.0487  1.1186 -0.0413
 2602SOL    HW310181   0.479   4.678   5.589 -0.0796  0.6988 -0.9205
 2602SOL    MW410182   0.558   4.681   5.625 -0.3772  0.4452 -0.2122
 2603SOL     OW10183   6.215   0.069   3.017  0.0343 -0.2756 -0.7800
 2603SOL    HW210184   6.150   0.000   3.032 -2.4884  2.2848  1.3379
 2603SOL    HW310185   6.283   0.053   3.082 -1.4255  0.1087  0.9205
 2603SOL    MW410186   6.216   0.058   3.028 -0.4912  0.1129 -0.2762
 2604SOL     OW10187   3.382   5.911   4.132  0.2907 -0.4465 -0.0245
 2604SOL    HW210188   3.356   5.955   4.051 -0.4216  0.9028  0.8981
 2604SOL    HW310189   3.467   5.873   4.112  1.4856  2.2829 -0.6098
 2604SOL    MW410190   3.390   5.912   4.118  0.3544  0.0916  0.0200
 2605SOL     OW10191   3.898   3.494   5.617  0.0978  0.1059 -0.6816
 2605SOL    HW210192   3.812   3.490   5.658  0.3383 -1.1593 -0.2493
 2605SOL    HW310193   3.960   3.486   5.690  0.5334 -2.0976 -1.1934
 2605SOL    MW410194   3.895   3.492   5.632  0.1870 -0.3517 -0.6921
 2606SOL     OW10195   2.220   3.244   1.785  0.3005  0.1234  0.4158
 2606SOL    HW210196   2.221   3.283   1.698 -0.0102 -0.9644 -0.0842
 2606SOL    HW310197   2.166   3.304   1.837 -1.5847 -0.4736 -0.7581
 2606SOL    MW410198   2.213   3.257   1.780  0.0108 -0.0989  0.1949
 2607SOL     OW10199   6.209   3.490   5.181  0.0275 -0.3578  0.2157
 2607SOL    HW210200   6.216   3.540   5.100  2.7916 -0.1130  0.5228
 2607SOL    HW310201   6.224   3.399   5.154  2.0856 -0.1548  0.5226
 2607SOL    MW410202   6.212   3.485   5.166  0.6637 -0.2987  0.2967
 2608SOL     OW10203   2.652   3.395   2.064  0.1190 -0.7969  0.0647
 2608SOL    HW210204   2.655   3.383   2.159  1.1442  0.1242  0.1716
 2608SOL    HW310205   2.687   3.313   2.029 -0.9371 -1.4225  0.4477
 2608SOL    MW410206   2.657   3.383   2.072  0.1149 -0.7580  0.1293
 2609SOL     OW10207   5.120   1.019   3.629 -0.3964  0.0449  0.4346
 2609SOL    HW210208   5.135   1.108   3.661  0.6871  0.3991 -0.9712
 2609SOL    HW310209   5.152   0.963   3.700  1.0838  0.8099  0.4133
 2609SOL    MW410210   5.126   1.023   3.643 -0.0581  0.1926  0.2463
 2610SOL     OW10211   4.103   1.383   3.768  0.0548  0.1775  0.3743
 2610SOL    HW210212   4.107   1.313   3.702  0.0678 -0.4033  0.9733
 2610SOL    HW310213   4.192   1.390   3.802  0.0170  0.3614  0.4343
 2610SOL    MW410214   4.115   1.374   3.764  0.0516  0.1251  0.4613
 2611SOL     OW10215   1.287   4.819   6.054  0.5532 -0.1175  0.0978
 2611SOL    HW210216   1.202   4.779   6.072  0.6049 -0.8621 -1.1880
 2611SOL    HW310217   1.311   4.786   5.967  1.2409  1.6364 -0.4273
 2611SOL    MW410218   1.279   4.809   6.045  0.6508  0.0157 -0.1411
 2612SOL     OW10219   1.315   3.123   0.460 -0.2076  0.1229 -0.3705
 2612SOL    HW210220   1.394   3.111   0.407 -0.0328 -0.2751 -0.0311
 2612SOL    HW310221   1.345   3.173   0.536 -0.5338  1.0219 -0.8176
 2612SOL    MW410222   1.329   3.128   0.463 -0.2276  0.1890 -0.3847
 2613SOL     OW10223   1.706   1.760   1.333 -0.5192  0.9621  0.5744
 2613SOL    HW210224   1.647   1.685   1.339  0.8760 -0.2413 -0.2871
 2613SOL    HW310225   1.676   1.819   1.402 -2.0897 -0.0582  0.8077
 2613SOL    MW410226   1.694   1.758   1.343 -0.5423  0.6687  0.4915
 2614SOL     OW10227   1.519   6.433   0.711 -0.6701 -0.0812  0.4562
 2614SOL    HW210228   1.574   6.470   0.779 -1.3725 -0.8013  1.4501
 2614SOL    HW310229   1.536   6.339   0.715 -2.2732 -0.3783  1.1086
 2614SOL    MW410230   1.528   6.425   0.720 -0.9743 -0.2154  0.6734
 2615SOL     OW10231   5.310   1.576   5.588 -0.2321 -0.1720 -0.2516
 2615SOL    HW210232   5.370   1.644   5.556  1.0111 -0.9812  0.2741
 2615SOL    HW310233   5.366   1.500   5.604 -1.2972 -0.7467  0.9227
 2615SOL    MW410234   5.325   1.575   5.586 -0.2086 -0.3546 -0.0273
 2616SOL     OW10235   2.869   2.469   4.579  0.4320  0.0215  0.1916
 2616SOL    HW210236   2.957   2.432   4.584  0.1331 -1.0148 -1.3270
 2616SOL    HW310237   2.821   2.427   4.650  0.2367 -2.2959 -1.1736
 2616SOL    MW410238   2.874   2.458   4.589  0.3668 -0.4210 -0.1889
 2617SOL     OW10239   1.052   2.266   3.422  0.2242  0.4033  0.1416
 2617SOL    HW210240   1.066   2.303   3.335  0.1165  0.5296  0.1779
 2617SOL    HW310241   1.139   2.246   3.454  0.3981  1.9251  0.6978
 2617SOL    MW410242   1.065   2.268   3.414  0.2329  0.6207  0.2197
 2618SOL     OW10243   4.441   3.228   4.193 -0.3621 -0.0830 -0.2033
 2618SOL    HW210244   4.389   3.162   4.148 -0.1838  0.4906 -1.2759
 2618SOL    HW310245   4.465   3.187   4.276  0.2996 -1.6304 -1.1199
 2618SOL    MW410246   4.438   3.214   4.198 -0.2513 -0.2115 -0.4658
 2619SOL     OW10247   3.554   4.143   4.056  0.5396 -0.1986  0.0482
 2619SOL    HW210248   3.483   4.139   4.120 -0.1169 -2.0288 -0.7175
 2619SOL    HW310249   3.590   4.054   4.054  3.7743  0.9408  1.3526
 2619SOL    MW410250   3.550   4.130   4.064  0.8798 -0.2897  0.1193
 2620SOL     OW10251   2.794   4.506   4.812  0.2222 -0.4314 -0.6165
 2620SOL    HW210252   2.699   4.500   4.799  0.1329  1.4735 -1.2562
 2620SOL    HW310253   2.806   4.492   4.905 -1.0370  1.7886 -0.0363
 2620SOL    MW410254   2.783   4.504   4.822  0.0443  0.1129 -0.6243
 2621SOL     OW10255   0.776   0.793   5.004  0.2364 -0.3035 -0.5834
 2621SOL    HW210256   0.848   0.830   4.952  0.8682 -0.9807 -0.2008
 2621SOL    HW310257   0.711   0.767   4.940  1.0976 -1.3244 -1.0616
 2621SOL    MW410258   0.777   0.795   4.989  0.4334 -0.5276 -0.5960
 2622SOL     OW10259   2.578   5.360   2.415 -0.2331 -0.1164  0.7020
 2622SOL    HW210260   2.572   5.265   2.416 -1.4932 -0.0736 -0.3107
 2622SOL    HW310261   2.660   5.378   2.368  0.4093 -0.6836  1.5756
 2622SOL    MW410262   2.588   5.350   2.409 -0.3146 -0.1856  0.6837
 2623SOL     OW10263   2.451   3.922   0.554 -0.1751  0.3365  0.0867
 2623SOL    HW210264   2.478   3.842   0.509 -0.7132 -0.1085  0.5360
 2623SOL    HW310265   2.530   3.975   0.558 -0.1076  0.3731 -1.3254
 2623SOL    MW410266   2.465   3.918   0.549 -0.2372  0.2826 -0.0403
 2624SOL     OW10267   0.619   2.211   4.040 -0.5432  0.1800 -0.1248
 2624SOL    HW210268   0.654   2.178   3.957 -0.4419  1.0745 -0.4531
 2624SOL    HW310269   0.672   2.289   4.059  0.3773 -0.8011  1.5140
 2624SOL    MW410270   0.631   2.217   4.031 -0.4084  0.1685  0.0481
 2625SOL     OW10271   2.892   6.318   1.874  0.6743 -0.5162 -0.2340
 2625SOL    HW210272   2.897   6.408   1.905  0.8647  0.6198 -3.2208
 2625SOL    HW310273   2.814   6.282   1.915  0.5611  1.0016  0.9587
 2625SOL    MW410274   2.883   6.325   1.884  0.6845 -0.1661 -0.4707
 2626SOL     OW10275   5.131   3.748   2.685  0.8465 -0.3646 -0.3061
 2626SOL    HW210276   5.110   3.744   2.778  0.2449  0.6605 -0.3803
 2626SOL    HW310277   5.071   3.814   2.650  2.4010  0.7122 -1.0338
 2626SOL    MW410278   5.120   3.756   2.693  0.9722 -0.0873 -0.4119
 2627SOL     OW10279   2.478   0.685   0.044  0.2290  0.7167  0.0078
 2627SOL    HW210280   2.456   0.680  -0.049 -0.9590  1.0516  0.2536
 2627SOL    HW310281   2.454   0.774   0.069  1.6255  1.0036  0.3837
 2627SOL    MW410282   2.472   0.696   0.035  0.2565  0.7988  0.0899
 2628SOL     OW10283   4.032   5.779   4.978 -0.0199  0.2531  0.2197
 2628SOL    HW210284   4.103   5.769   4.915 -0.1102  0.8584  0.0169
 2628SOL    HW310285   3.969   5.710   4.954  1.0222 -1.0618  1.1423
 2628SOL    MW410286   4.033   5.769   4.967  0.1057  0.1595  0.3147
 2629SOL     OW10287   5.898   2.605   2.358 -0.5444  0.4736  0.2932
 2629SOL    HW210288   5.914   2.646   2.443 -1.1931  1.0037  0.1686
 2629SOL    HW310289   5.983   2.607   2.314 -0.2894  0.5382  0.7780
 2629SOL    MW410290   5.911   2.610   2.364 -0.5963  0.5521  0.3408
 2630SOL     OW10291   2.606   5.509   6.189 -0.1411  0.1620  0.7545
 2630SOL    HW210292   2.606   5.533   6.096 -1.5393  1.2195  1.0072
 2630SOL    HW310293   2.582   5.416   6.190  0.3316  0.0216  0.0472
 2630SOL    MW410294   2.603   5.500   6.177 -0.2632  0.2830  0.6945
 2631SOL     OW10295   0.338   2.040   3.221 -0.3383  0.1010  0.0642
 2631SOL    HW210296   0.393   2.051   3.143 -0.8379 -0.0859 -0.3192
 2631SOL    HW310297   0.399   2.046   3.294  0.5642 -2.1991 -0.4203
 2631SOL    MW410298   0.353   2.042   3.220 -0.2851 -0.2271 -0.0503
 2632SOL     OW10299   5.186   6.171   5.518 -0.0376  0.0678  0.1239
 2632SOL    HW210300   5.223   6.235   5.578  1.4891 -2.3333  1.9225
 2632SOL    HW310301   5.258   6.150   5.459  0.1062 -1.3377  0.7695
 2632SOL    MW410302   5.200   6.177   5.518  0.1828 -0.4345  0.4463
 2633SOL     OW10303   0.444   3.062   3.960  0.0769  0.4112  0.3661
 2633SOL    HW210304   0.526   3.100   3.992  0.7358 -0.2234 -0.5371
 2633SOL    HW310305   0.391   3.049   4.039  1.3274 -0.3296  1.1149
 2633SOL    MW410306   0.448   3.066   3.975  0.3288  0.2297  0.3457
 2634SOL     OW10307   1.712   5.230   0.468  0.1061 -0.1176 -0.6898
 2634SOL    HW210308   1.679   5.247   0.557  0.9023 -1.7122 -0.0470
 2634SOL    HW310309   1.804   5.254   0.472  0.3769 -1.1116 -0.7835
 2634SOL    MW410310   1.720   5.236   0.480  0.2469 -0.4592 -0.6173
 2635SOL     OW10311   5.359   2.427   0.860 -0.6738 -0.3414  0.4083
 2635SOL    HW210312   5.442   2.379   0.857 -1.0489 -1.0786  1.5651
 2635SOL    HW310313   5.324   2.410   0.947 -1.8884  0.2455  0.0542
 2635SOL    MW410314   5.366   2.419   0.871 -0.8836 -0.3612  0.5142
 2636SOL     OW10315   3.115   1.340   2.950  0.0767  0.2355  0.4601
 2636SOL    HW210316   3.195   1.321   3.000  0.7102  0.6490 -0.3757
 2636SOL    HW310317   3.044   1.331   3.014  0.9351  1.5021  1.6457
 2636SOL    MW410318   3.116   1.337   2.965  0.2735  0.4572  0.5063
 2637SOL     OW10319   3.989   5.221   0.944  0.3681 -0.1684  0.0463
 2637SOL    HW210320   3.951   5.143   0.904 -0.8631  0.5649 -0.2692
 2637SOL    HW310321   3.919   5.286   0.941  0.5456  0.2385  2.5157
 2637SOL    MW410322   3.974   5.220   0.938  0.2291 -0.0180  0.3305
 2638SOL     OW10323   1.400   6.164   4.433 -0.0106 -0.3506 -0.2236
 2638SOL    HW210324   1.442   6.240   4.473 -1.8591 -0.6283  2.4545
 2638SOL    HW310325   1.317   6.198   4.399  0.6704 -0.5404 -2.2302
 2638SOL    MW410326   1.395   6.179   4.434 -0.1646 -0.4123 -0.1350
 2639SOL     OW10327   3.477   6.347   2.982  0.5367 -0.1349 -0.4518
 2639SOL    HW210328   3.455   6.289   2.909  1.0532 -1.1201  0.1556
 2639SOL    HW310329   3.484   6.433   2.942  0.3818 -0.5832 -1.4923
 2639SOL    MW410330   3.475   6.350   2.967  0.5844 -0.3241 -0.5089
 2640SOL     OW10331   2.538   5.871   1.010  0.0909 -0.5684 -0.0950
 2640SOL    HW210332   2.631   5.855   1.025 -0.1323 -0.8509  1.0071
 2640SOL    HW310333   2.518   5.821   0.931  0.7051 -1.0682  0.0603
 2640SOL    MW410334   2.548   5.863   1.001  0.1425 -0.6716  0.0709
 2641SOL     OW10335   5.283   3.291   0.418 -0.4838  0.3859  0.5868
 2641SOL    HW210336   5.278   3.248   0.503 -1.2756 -0.1351  0.2884
 2641SOL    HW310337   5.363   3.344   0.422  0.7970 -1.4701  0.8172
 2641SOL    MW410338   5.293   3.292   0.430 -0.4193  0.0723  0.5778
 2642SOL     OW10339   4.069   4.249   5.700 -0.3341  0.4723  0.4043
 2642SOL    HW210340   4.055   4.159   5.729 -0.2699  0.1557 -0.5058
 2642SOL    HW310341   3.987   4.294   5.720 -0.5482  0.0817  0.4092
 2642SOL    MW410342   4.056   4.243   5.706 -0.3539  0.3790  0.2849
 2643SOL     OW10343   5.298   4.330   5.130  0.5790 -0.0965 -0.3486
 2643SOL    HW210344   5.341   4.406   5.089 -0.9301  1.2019  0.3751
 2643SOL    HW310345   5.215   4.364   5.163  0.5522 -1.7135  1.4294
 2643SOL    MW410346   5.293   4.345   5.129  0.3764 -0.1386 -0.0185
 2644SOL     OW10347   3.114   3.272   2.757 -0.2201  0.1156 -0.3950
 2644SOL    HW210348   3.153   3.359   2.747  1.5520 -0.0348  3.5922
 2644SOL    HW310349   3.019   3.287   2.753  0.0752  1.9529 -1.2852
 2644SOL    MW410350   3.107   3.285   2.755  0.0527  0.3382  0.0136
 2645SOL     OW10351   2.521   5.182   4.832 -0.0207 -0.2212  0.4424
 2645SOL    HW210352   2.482   5.238   4.900 -1.5160  0.7261 -1.1257
 2645SOL    HW310353   2.512   5.093   4.866 -2.0835  0.1169  0.8880
 2645SOL    MW410354   2.515   5.178   4.846 -0.4901 -0.0516  0.2943
 2646SOL     OW10355   1.016   0.623   0.957  0.0093  0.0311 -0.8770
 2646SOL    HW210356   1.036   0.694   1.017  0.4977 -1.0022  0.2271
 2646SOL    HW310357   1.096   0.613   0.905 -0.2963  0.7105 -1.4870
 2646SOL    MW410358   1.029   0.631   0.958  0.0334 -0.0156 -0.8118
 2647SOL     OW10359   2.683   0.200   4.152  0.8090  0.9753 -0.3717
 2647SOL    HW210360   2.596   0.202   4.192  1.3307  1.4490  0.7921
 2647SOL    HW310361   2.667   0.187   4.059 -0.5151  1.2766 -0.1991
 2647SOL    MW410362   2.670   0.199   4.145  0.7031  1.0776 -0.1954
 2648SOL     OW10363   1.255   1.513   5.600  0.1155  0.3516  0.2702
 2648SOL    HW210364   1.250   1.418   5.610 -0.5907  0.0632 -2.1906
 2648SOL    HW310365   1.165   1.540   5.584 -0.0222  1.7859  2.8493
 2648SOL    MW410366   1.243   1.504   5.600  0.0042  0.5028  0.2858
 2649SOL     OW10367   3.395   3.619   0.847  0.1638 -0.3737  0.4604
 2649SOL    HW210368   3.311   3.574   0.839 -0.3883  0.7685 -0.5599
 2649SOL    HW310369   3.460   3.551   0.833 -0.6149 -0.5200 -4.2973
 2649SOL    MW410370   3.392   3.604   0.844 -0.0118 -0.2423 -0.3020
 2650SOL     OW10371   4.747   4.806   1.107 -0.0668 -0.0007  0.0847
 2650SOL    HW210372   4.684   4.879   1.103  0.6040  0.5993  0.2139
 2650SOL    HW310373   4.828   4.847   1.136  0.3427 -0.7986  0.0773
 2650SOL    MW410374   4.749   4.821   1.110  0.0757 -0.0268  0.1008
 2651SOL     OW10375   5.404   5.018   1.120  0.4725  0.3704 -0.0468
 2651SOL    HW210376   5.350   4.960   1.174  1.4239 -1.8357 -1.3381
 2651SOL    HW310377   5.341   5.067   1.067 -0.3373 -0.8728 -0.2676
 2651SOL    MW410378   5.389   5.017   1.121  0.4911 -0.0847 -0.2463
 2652SOL     OW10379   1.014   2.159   1.886  0.5902  0.3673  0.0800
 2652SOL    HW210380   1.097   2.202   1.909  0.6510 -0.5335  1.7274
 2652SOL    HW310381   0.949   2.203   1.941  0.1870  0.1961 -0.2589
 2652SOL    MW410382   1.016   2.171   1.897  0.5450  0.2258  0.2526
 2653SOL     OW10383   3.691   3.426   4.773 -0.0265 -0.3233 -0.7769
 2653SOL    HW210384   3.762   3.434   4.835 -1.0286 -2.8669  0.8457
 2653SOL    HW310385   3.623   3.486   4.805 -0.1534 -0.8950  0.0475
 2653SOL    MW410386   3.691   3.435   4.785 -0.1755 -0.7343 -0.4541
 2654SOL     OW10387   1.692   5.704   1.685 -0.8171  0.0466 -0.3546
 2654SOL    HW210388   1.723   5.650   1.757 -0.7182  1.3206  0.5882
 2654SOL    HW310389   1.615   5.749   1.720 -0.5289  0.9980 -0.8865
 2654SOL    MW410390   1.686   5.703   1.699 -0.7660  0.3402 -0.3004
 2655SOL     OW10391   0.345   0.964   2.517  0.4605 -0.0995  0.3505
 2655SOL    HW210392   0.410   0.916   2.568  2.8302  1.4534 -1.0046
 2655SOL    HW310393   0.326   1.042   2.571  2.4223  1.1793 -0.7015
 2655SOL    MW410394   0.351   0.968   2.531  1.0320  0.2741  0.0329
 2656SOL     OW10395   0.700   3.713   3.018  0.7213 -0.4766 -0.2361
 2656SOL    HW210396   0.791   3.705   3.049  0.6590 -1.1586 -0.2317
 2656SOL    HW310397   0.705   3.694   2.925  0.3870 -1.8055  0.0091
 2656SOL    MW410398   0.713   3.710   3.010  0.6689 -0.7419 -0.2032
 2657SOL     OW10399   2.012   4.563   2.618 -0.2123 -0.5950 -0.6470
 2657SOL    HW210400   1.955   4.606   2.682 -0.1464 -1.2340 -0.1498
 2657SOL    HW310401   2.101   4.581   2.648 -0.1907 -1.4628 -0.1701
 2657SOL    MW410402   2.016   4.571   2.631 -0.2008 -0.7938 -0.5185
 2658SOL     OW10403   5.861   3.526   3.081 -0.3600 -0.4605 -0.2928
 2658SOL    HW210404   5.796   3.584   3.043  0.1252  0.5098  0.3184
 2658SOL    HW310405   5.937   3.581   3.095  0.2107 -1.3128  0.0606
 2658SOL    MW410406   5.862   3.541   3.078 -0.2207 -0.4449 -0.1655
 2659SOL     OW10407   5.061   5.632   2.881  0.9375  0.2868  0.1106
 2659SOL    HW210408   4.999   5.563   2.859  2.0829 -1.2790  1.5760
 2659SOL    HW310409   5.032   5.708   2.830 -1.7477 -0.5639  0.2513
 2659SOL    MW410410   5.049   5.633   2.871  0.7344 -0.0320  0.3225
 2660SOL     OW10411   0.243   0.280   6.322  0.0161  0.1582  0.1767
 2660SOL    HW210412   0.211   0.196   6.354  0.8175  0.3592  1.6310
 2660SOL    HW310413   0.337   0.266   6.306 -0.0558  0.4992 -0.5787
 2660SOL    MW410414   0.251   0.267   6.324  0.1123  0.2297  0.2689
 2661SOL     OW10415   4.559   2.657   5.330 -0.0512  0.5501 -0.1566
 2661SOL    HW210416   4.504   2.721   5.376  1.4175  3.1260 -1.7282
 2661SOL    HW310417   4.637   2.648   5.385  0.1130  0.8013 -0.3442
 2661SOL    MW410418   4.562   2.664   5.343  0.1643  0.9231 -0.3887
 2662SOL     OW10419   4.948   3.944   6.226 -0.2667  0.3652 -0.4326
 2662SOL    HW210420   4.875   4.003   6.207  0.9007  1.6450 -1.1569
 2662SOL    HW310421   4.984   3.976   6.309 -1.7184 -1.5291  1.0057
 2662SOL    MW410422   4.943   3.956   6.234 -0.3042  0.2841 -0.3384
 2663SOL     OW10423   0.603   4.995   5.085 -0.2890  0.1012 -0.0383
 2663SOL    HW210424   0.520   4.960   5.051 -0.9710  3.1258 -1.8555
 2663SOL    HW310425   0.640   5.044   5.012  0.1489  3.7531  2.3971
 2663SOL    MW410426   0.597   4.997   5.071 -0.3212  0.9821  0.0432
 2664SOL     OW10427   5.405   2.597   5.291 -0.2236  0.6495  0.0698
 2664SOL    HW210428   5.443   2.531   5.349  0.5887 -0.0881 -1.2462
 2664SOL    HW310429   5.314   2.570   5.281  0.0303 -0.1319 -0.2399
 2664SOL    MW410430   5.398   2.585   5.298 -0.0829  0.4491 -0.1447
 2665SOL     OW10431   5.153   0.263   4.277  0.3351 -0.1805 -0.0579
 2665SOL    HW210432   5.200   0.184   4.303  0.1308 -0.3997 -0.3484
 2665SOL    HW310433   5.164   0.323   4.351  0.2721 -0.5749  0.2742
 2665SOL    MW410434   5.160   0.260   4.291  0.2998 -0.2615 -0.0524
 2666SOL     OW10435   1.730   3.767   3.886 -0.6135  0.2309  0.2742
 2666SOL    HW210436   1.782   3.687   3.899 -0.2393  0.4228 -0.0285
 2666SOL    HW310437   1.656   3.738   3.832 -0.2374  0.1797 -0.2177
 2666SOL    MW410438   1.727   3.752   3.880 -0.5145  0.2495  0.1694
 2667SOL     OW10439   4.797   5.082   0.502  0.3538  0.5085 -0.1818
 2667SOL    HW210440   4.745   5.014   0.458  0.9816 -0.0019 -0.1563
 2667SOL    HW310441   4.739   5.157   0.508 -0.8111 -0.4484  0.9506
 2667SOL    MW410442   4.783   5.083   0.497  0.2829  0.3149 -0.0290
 2668SOL     OW10443   2.292   1.594   4.329  0.4349  1.0847  0.9619
 2668SOL    HW210444   2.361   1.531   4.349 -0.3671  0.4095  1.6684
 2668SOL    HW310445   2.303   1.663   4.395  0.3736  0.9311  1.1321
 2668SOL    MW410446   2.303   1.595   4.341  0.3210  0.9754  1.0776
 2669SOL     OW10447   4.760   1.865   1.791  0.5291 -0.2822 -0.0059
 2669SOL    HW210448   4.702   1.835   1.861  0.1429 -0.8860 -0.5657
 2669SOL    HW310449   4.848   1.860   1.828  0.1266  2.4986  1.5223
 2669SOL    MW410450   4.764   1.860   1.805  0.4250  0.0051  0.1218
 2670SOL     OW10451   0.926   0.645   2.598 -0.1594 -0.2869  0.6249
 2670SOL    HW210452   0.935   0.558   2.559  2.1394 -0.3940  1.2746
 2670SOL    HW310453   0.899   0.628   2.688  1.7837 -0.4537  1.2093
 2670SOL    MW410454   0.923   0.631   2.605  0.4003 -0.3230  0.7877
 2671SOL     OW10455   2.444   0.016   2.308  0.3290 -0.0975  0.1756
 2671SOL    HW210456   2.409  -0.022   2.227  1.2297 -2.6704  0.8850
 2671SOL    HW310457   2.370   0.016   2.369 -0.1607  1.1520 -0.3939
 2671SOL    MW410458   2.430   0.011   2.306  0.3832 -0.2721  0.1941
 2672SOL     OW10459   5.490   1.107   4.021  0.1365 -0.0491  0.1467
 2672SOL    HW210460   5.549   1.063   4.082 -0.3329  1.5564  1.8615
 2672SOL    HW310461   5.409   1.118   4.070 -1.2657 -1.2241 -1.7863
 2672SOL    MW410462   5.487   1.102   4.036 -0.1104  0.0077  0.1179
 2673SOL     OW10463   4.341   1.141   2.155  0.0783 -0.0800 -0.0963
 2673SOL    HW210464   4.289   1.111   2.080  0.7569 -1.1220 -0.1667
 2673SOL    HW310465   4.279   1.143   2.228  0.2351 -2.9417  0.2232
 2673SOL    MW410466   4.326   1.137   2.154  0.1885 -0.5950 -0.0635
 2674SOL     OW10467   2.240   4.705   2.683 -0.3367  0.7677  0.1878
 2674SOL    HW210468   2.229   4.784   2.736  1.6315  0.9210  0.4284
 2674SOL    HW310469   2.325   4.715   2.641  0.0109 -1.2882  0.3023
 2674SOL    MW410470   2.250   4.716   2.684 -0.0312  0.5167  0.2346
 2675SOL     OW10471   4.781   4.872   4.912  0.6435 -0.1815  0.0850
 2675SOL    HW210472   4.837   4.873   4.835 -0.0665  0.8985 -0.4276
 2675SOL    HW310473   4.776   4.779   4.936  1.3848 -0.4600 -0.7675
 2675SOL    MW410474   4.788   4.860   4.905  0.6476 -0.0757 -0.0951
 2676SOL     OW10475   2.393   0.481   5.296 -0.6418  0.1879  0.2072
 2676SOL    HW210476   2.354   0.540   5.360 -0.2474  0.3816  0.2741
 2676SOL    HW310477   2.485   0.475   5.322 -0.6211 -0.2441  0.0423
 2676SOL    MW410478   2.400   0.488   5.308 -0.5870  0.1565  0.1943
 2677SOL     OW10479   6.234   0.623   5.624  0.2232  0.2641  0.3017
 2677SOL    HW210480   6.300   0.684   5.659  0.1626 -0.1986  1.2543
 2677SOL    HW310481   6.223   0.650   5.533  0.2316  1.6497  0.6860
 2677SOL    MW410482   6.242   0.634   5.617  0.2163  0.3859  0.4781
 2678SOL     OW10483   1.581   1.472   5.483 -1.1126 -0.1241 -0.1354
 2678SOL    HW210484   1.520   1.527   5.432  0.9653  0.3195 -2.3571
 2678SOL    HW310485   1.599   1.397   5.426  0.0574 -0.4726  0.6531
 2678SOL    MW410486   1.575   1.470   5.468 -0.6841 -0.1115 -0.3245
 2679SOL     OW10487   1.994   5.808   1.834  0.7796  0.2604  0.4084
 2679SOL    HW210488   2.075   5.838   1.876  0.7129  0.0216  0.7084
 2679SOL    HW310489   2.024   5.758   1.758  1.0369 -2.2383  2.0408
 2679SOL    MW410490   2.009   5.806   1.829  0.8047 -0.1008  0.6634
 2680SOL     OW10491   2.934   1.702   5.974 -0.4852 -0.2476 -0.7021
 2680SOL    HW210492   2.973   1.630   6.024  0.8150  0.2261 -0.9829
 2680SOL    HW310493   2.850   1.719   6.017 -0.1678 -0.9811  0.2478
 2680SOL    MW410494   2.928   1.695   5.986 -0.2718 -0.2819 -0.6138
 2681SOL     OW10495   0.833   2.264   0.676  0.0430  0.3335  0.0503
 2681SOL    HW210496   0.779   2.189   0.649  0.1049  0.2718  0.0973
 2681SOL    HW310497   0.779   2.340   0.656 -0.5474  0.2318  1.2025
 2681SOL    MW410498   0.819   2.264   0.670 -0.0267  0.3119  0.2085
 2682SOL     OW10499   1.815   6.249   4.897  0.0282 -0.0322 -0.0689
 2682SOL    HW210500   1.817   6.167   4.947 -1.3587 -0.8626 -1.2915
 2682SOL    HW310501   1.903   6.257   4.860  0.1562 -1.0377 -0.0147
 2682SOL    MW410502   1.827   6.239   4.899 -0.1379 -0.2744 -0.2231
 2683SOL     OW10503   1.696   3.914   4.591  0.4809 -0.1325  0.5432
 2683SOL    HW210504   1.605   3.927   4.615  0.5618 -0.0335  0.8012
 2683SOL    HW310505   1.714   3.822   4.611  0.6380  0.0300  1.1696
 2683SOL    MW410506   1.687   3.904   4.597  0.5123 -0.0980  0.6599
 2684SOL     OW10507   2.534   4.628   1.961 -0.4706  0.4181 -0.0694
 2684SOL    HW210508   2.469   4.562   1.939 -0.1260 -0.4606  1.3758
 2684SOL    HW310509   2.563   4.663   1.877 -1.9167 -0.0257 -0.7873
 2684SOL    MW410510   2.530   4.624   1.947 -0.6160  0.2436  0.0266
 2685SOL     OW10511   5.437   5.504   0.176  0.0792  0.1455 -0.1484
 2685SOL    HW210512   5.401   5.573   0.231  0.4271 -0.1462  0.4565
 2685SOL    HW310513   5.388   5.425   0.202 -0.0408  0.0830 -0.5535
 2685SOL    MW410514   5.426   5.502   0.187  0.1093  0.0988 -0.1220
 2686SOL     OW10515   3.388   0.290   4.498  0.3202 -0.2695 -0.4192
 2686SOL    HW210516   3.425   0.378   4.502  0.1690 -0.2331  0.4790
 2686SOL    HW310517   3.313   0.293   4.557 -1.0158 -0.4109 -2.0609
 2686SOL    MW410518   3.383   0.302   4.506  0.1240 -0.2833 -0.5173
 2687SOL     OW10519   3.592   6.384   6.422 -0.2669 -0.1889  0.5593
 2687SOL    HW210520   3.568   6.301   6.463 -0.3611 -0.5804 -0.2670
 2687SOL    HW310521   3.679   6.369   6.385  0.2063  0.4504  1.4046
 2687SOL    MW410522   3.600   6.371   6.422 -0.2169 -0.1562  0.5618
 2688SOL     OW10523   5.689   6.294   2.629  0.0622  0.0159 -0.0683
 2688SOL    HW210524   5.716   6.359   2.564 -0.6038  1.2332  0.8464
 2688SOL    HW310525   5.643   6.227   2.577  3.5137 -1.4744 -1.4979
 2688SOL    MW410526   5.686   6.294   2.613  0.4297 -0.0202 -0.1362
 2689SOL     OW10527   3.699   5.703   1.252 -0.2214 -0.3485 -0.2886
 2689SOL    HW210528   3.628   5.640   1.245 -1.5652  1.2975 -2.8509
 2689SOL    HW310529   3.750   5.690   1.172  2.0006 -0.9295  1.1076
 2689SOL    MW410530   3.697   5.693   1.241 -0.1055 -0.2080 -0.4424
 2690SOL     OW10531   5.894   5.379   1.757 -0.2956 -0.2956  0.5775
 2690SOL    HW210532   5.978   5.383   1.710 -2.0065 -0.4187 -2.8138
 2690SOL    HW310533   5.902   5.304   1.815  2.5499  0.8171  1.8260
 2690SOL    MW410534   5.906   5.370   1.759 -0.1459 -0.1651  0.2948
 2691SOL     OW10535   5.148   6.316   4.800  0.2991 -0.2909  0.1797
 2691SOL    HW210536   5.119   6.323   4.709 -0.0039  2.5285  0.4116
 2691SOL    HW310537   5.128   6.225   4.824 -0.0704 -0.9722 -2.3878
 2691SOL    MW410538   5.141   6.305   4.791  0.2104 -0.0088 -0.1285
 2692SOL     OW10539   6.197   5.499   0.054  0.0814  0.5019  0.2487
 2692SOL    HW210540   6.110   5.488   0.091  1.3117  0.4877  3.4448
 2692SOL    HW310541   6.193   5.583   0.009 -1.9053 -0.1364 -0.9005
 2692SOL    MW410542   6.185   5.508   0.053 -0.0184  0.4158  0.5188
 2693SOL     OW10543   0.098   4.699   6.058 -0.5043 -0.0558 -0.3621
 2693SOL    HW210544   0.172   4.652   6.019 -1.3705 -0.7343 -1.1977
 2693SOL    HW310545   0.078   4.768   5.995 -0.0248  0.7082  0.2931
 2693SOL    MW410546   0.105   4.702   6.045 -0.5553 -0.0445 -0.3859
 2694SOL     OW10547   0.610   3.332   4.683 -0.5431 -0.7234 -0.2120
 2694SOL    HW210548   0.668   3.271   4.637 -0.0983  1.6314 -3.1332
 2694SOL    HW310549   0.528   3.328   4.633 -0.3877  1.2143 -0.7005
 2694SOL    MW410550   0.607   3.323   4.670 -0.4639 -0.1571 -0.6618
 2695SOL     OW10551   4.263   4.401   4.473  0.1776 -0.0447 -0.1710
 2695SOL    HW210552   4.210   4.332   4.434  0.6446 -1.2673  1.2452
 2695SOL    HW310553   4.207   4.440   4.539  0.9584 -1.3207  1.3096
 2695SOL    MW410554   4.249   4.397   4.476  0.3423 -0.3744  0.2112
 2696SOL     OW10555   6.006   4.124   5.505 -0.0169  0.5301 -0.4786
 2696SOL    HW210556   6.017   4.042   5.554  0.2596  2.4990  3.1228
 2696SOL    HW310557   6.095   4.153   5.486 -0.0406  0.8695 -0.0861
 2696SOL    MW410558   6.019   4.117   5.509  0.0165  0.8347  0.0484
 2697SOL     OW10559   4.945   2.386   4.413  0.2128 -0.5072 -0.0284
 2697SOL    HW210560   5.026   2.432   4.392 -0.3372  0.4884 -0.0132
 2697SOL    HW310561   4.953   2.366   4.507  0.3323 -0.1930  0.0298
 2697SOL    MW410562   4.957   2.389   4.423  0.1560 -0.3344 -0.0187
 2698SOL     OW10563   1.380   5.686   0.496  0.0897  0.2743 -0.1630
 2698SOL    HW210564   1.322   5.625   0.450  1.1077 -0.9170  0.0504
 2698SOL    HW310565   1.417   5.742   0.428 -1.4131  1.1463 -0.2781
 2698SOL    MW410566   1.378   5.685   0.481  0.0258  0.2321 -0.1500
 2699SOL     OW10567   3.664   3.889   4.062  0.7487 -0.3840 -0.3226
 2699SOL    HW210568   3.754   3.876   4.033  0.2504 -1.5548 -1.4400
 2699SOL    HW310569   3.656   3.835   4.140  0.7408 -1.1295 -0.8246
 2699SOL    MW410570   3.675   3.881   4.068  0.6819 -0.6368 -0.5362
 2700SOL     OW10571   6.159   1.254   6.373 -0.2721 -0.4537  0.7633
 2700SOL    HW210572   6.232   1.204   6.409 -0.2179 -2.0168 -1.3911
 2700SOL    HW310573   6.132   1.206   6.295  0.4332  3.3168 -2.1053
 2700SOL    MW410574   6.165   1.241   6.368 -0.1719 -0.1624  0.1006
 2701SOL     OW10575   3.749   1.421   1.020 -0.0995 -0.1320 -0.6433
 2701SOL    HW210576   3.679   1.391   1.078  0.3044 -0.6310 -0.4093
 2701SOL    HW310577   3.796   1.487   1.070  0.1191 -0.4108 -0.4784
 2701SOL    MW410578   3.746   1.426   1.034 -0.0173 -0.2346 -0.5907
 2702SOL     OW10579   2.866   1.075   1.022 -0.0760  0.1323  0.0861
 2702SOL    HW210580   2.842   1.168   1.026 -0.8114 -0.0271 -0.5198
 2702SOL    HW310581   2.786   1.030   0.996 -0.0970 -0.8460  1.7365
 2702SOL    MW410582   2.852   1.082   1.019 -0.1758 -0.0178  0.2239
 2703SOL     OW10583   4.228   2.032   3.323  0.1826 -0.6052 -0.8552
 2703SOL    HW210584   4.277   1.973   3.380 -0.1473 -1.7510 -1.7333
 2703SOL    HW310585   4.198   2.101   3.382  0.6611 -1.2452  0.1782
 2703SOL    MW410586   4.231   2.033   3.338  0.2022 -0.8408 -0.8347
 2704SOL     OW10587   6.352   0.063   2.114 -0.2855 -0.0526  0.4221
 2704SOL    HW210588   6.317   0.138   2.164 -0.2253  0.8394 -0.8247
 2704SOL    HW310589   6.437   0.045   2.155 -1.7688 -1.8034  3.0498
 2704SOL    MW410590   6.358   0.071   2.126 -0.4733 -0.1659  0.6043
 2705SOL     OW10591   6.042   1.725   1.792 -0.2603 -0.3186  0.4759
 2705SOL    HW210592   6.125   1.724   1.841 -0.7248  0.8565  1.3565
 2705SOL    HW310593   5.990   1.654   1.831 -0.3070  0.0646  1.1269
 2705SOL    MW410594   6.046   1.716   1.804 -0.3277 -0.1130  0.6780
 2706SOL     OW10595   2.500   0.776   2.392  0.1193 -0.4023 -0.0011
 2706SOL    HW210596   2.590   0.746   2.375 -0.0753 -0.7543 -0.4405
 2706SOL    HW310597   2.489   0.852   2.334 -0.0087 -0.6229 -0.2679
 2706SOL    MW410598   2.511   0.782   2.382  0.0767 -0.4778 -0.0943
 2707SOL     OW10599   3.301   3.924   5.860  0.2557  0.4456  0.4674
 2707SOL    HW210600   3.227   3.973   5.825  0.8563  0.0785 -1.4509
 2707SOL    HW310601   3.360   3.991   5.894 -0.7099  0.7629  1.5805
 2707SOL    MW410602   3.299   3.939   5.860  0.2076  0.4390  0.3612
 2708SOL     OW10603   5.222   3.152   1.144 -0.7842 -0.3165  0.8540
 2708SOL    HW210604   5.226   3.206   1.065 -2.7680 -1.8910 -0.4383
 2708SOL    HW310605   5.298   3.179   1.196  0.0413  1.4662 -1.1291
 2708SOL    MW410606   5.233   3.162   1.141 -0.9370 -0.2890  0.4218
 2709SOL     OW10607   5.819   6.380   1.198  0.0361 -0.2105  0.6568
 2709SOL    HW210608   5.903   6.376   1.244  1.2847  0.8437 -1.3886
 2709SOL    HW310609   5.797   6.289   1.179  0.8005 -0.4869  1.0641
 2709SOL    MW410610   5.827   6.368   1.202  0.3017 -0.1079  0.4407
 2710SOL     OW10611   5.267   1.678   1.914  0.2636 -0.1139  0.1163
 2710SOL    HW210612   5.269   1.625   1.835  0.6250  0.2104 -0.0931
 2710SOL    HW310613   5.313   1.626   1.980 -1.4478 -1.1107  0.5792
 2710SOL    MW410614   5.273   1.664   1.912  0.0855 -0.2026  0.1498
 2711SOL     OW10615   0.933   1.536   3.537 -0.7714 -0.0503 -0.1478
 2711SOL    HW210616   0.908   1.449   3.566  0.6316  0.3290  2.5138
 2711SOL    HW310617   1.029   1.536   3.538 -0.7221  1.9046  1.3561
 2711SOL    MW410618   0.942   1.525   3.541 -0.5798  0.2576  0.4018
 2712SOL     OW10619   1.080   0.694   5.960 -0.2214 -0.4171 -0.5311
 2712SOL    HW210620   1.079   0.754   6.035 -2.5570  1.5894 -1.9768
 2712SOL    HW310621   1.117   0.746   5.888 -2.2586 -0.6304 -1.8226
 2712SOL    MW410622   1.085   0.709   5.960 -0.7983 -0.1805 -0.8922
 2713SOL     OW10623   0.168   2.002   0.175  0.2292  0.1563 -0.0814
 2713SOL    HW210624   0.108   1.962   0.113  0.2571 -0.3941  0.2396
 2713SOL    HW310625   0.254   1.999   0.132  0.4780 -1.3715  0.4799
 2713SOL    MW410626   0.171   1.997   0.161  0.2657 -0.1179  0.0350
 2714SOL     OW10627   1.860   2.770   0.329 -0.9147 -0.6333 -0.1087
 2714SOL    HW210628   1.925   2.720   0.281 -0.3960  0.1335 -0.2096
 2714SOL    HW310629   1.807   2.813   0.262 -1.0078 -0.5981 -0.0139
 2714SOL    MW410630   1.861   2.769   0.314 -0.8585 -0.5275 -0.1095
 2715SOL     OW10631   5.502   1.048   4.929 -0.0507 -0.3797  0.1175
 2715SOL    HW210632   5.547   0.964   4.936 -0.7876 -1.1354 -2.9504
 2715SOL    HW310633   5.433   1.034   4.865 -0.4852  2.4653 -0.1912
 2715SOL    MW410634   5.499   1.035   4.922 -0.2053 -0.1040 -0.3280
 2716SOL     OW10635   2.251   0.492   1.416 -0.3784 -0.3298 -0.1821
 2716SOL    HW210636   2.205   0.438   1.480 -0.8254  1.5864  1.2164
 2716SOL    HW310637   2.336   0.509   1.456 -1.1022  1.8975  0.5829
 2716SOL    MW410638   2.256   0.487   1.430 -0.5329  0.2169  0.1033
 2717SOL     OW10639   6.116   4.577   2.491  0.2306  0.1102  0.4395
 2717SOL    HW210640   6.113   4.507   2.426  2.1001  0.0657  0.3611
 2717SOL    HW310641   6.048   4.554   2.554 -1.7239  0.2121 -1.4838
 2717SOL    MW410642   6.107   4.565   2.491  0.2194  0.1178  0.1754
 2718SOL     OW10643   2.663   0.407   5.320 -0.7088  0.3649 -0.0853
 2718SOL    HW210644   2.705   0.493   5.319 -0.5946  0.3080 -0.5775
 2718SOL    HW310645   2.681   0.371   5.233  0.7616 -0.8925  0.6997
 2718SOL    MW410646   2.671   0.414   5.308 -0.4997  0.1915 -0.0467
 2719SOL     OW10647   0.235   1.450   1.807 -0.0957 -0.9745  0.1009
 2719SOL    HW210648   0.177   1.516   1.770  0.9730 -0.4915 -0.7563
 2719SOL    HW310649   0.313   1.499   1.835 -0.0983 -1.6028  1.2704
 2719SOL    MW410650   0.238   1.465   1.806  0.0450 -0.9937  0.1421
 2720SOL     OW10651   3.739   0.596   5.636  0.2275  0.3244  0.4251
 2720SOL    HW210652   3.755   0.640   5.553 -1.2271  1.0539  0.5135
 2720SOL    HW310653   3.726   0.504   5.612 -0.6894  0.6091 -0.2232
 2720SOL    MW410654   3.740   0.590   5.622 -0.0854  0.4582  0.3512
 2721SOL     OW10655   1.073   2.389   0.040 -0.2170  0.2484 -0.4726
 2721SOL    HW210656   1.017   2.359   0.112 -0.4200 -1.4700 -1.2908
 2721SOL    HW310657   1.025   2.461   0.000 -0.0661  1.2814  1.1453
 2721SOL    MW410658   1.059   2.394   0.044 -0.2239  0.1580 -0.3671
 2722SOL     OW10659   5.291   2.199   3.066  0.2422  0.5156  0.5212
 2722SOL    HW210660   5.221   2.141   3.094  0.8251  0.1661  1.2961
 2722SOL    HW310661   5.317   2.246   3.145 -0.8553  2.5604 -0.2650
 2722SOL    MW410662   5.285   2.198   3.080  0.1743  0.7393  0.5197
 2723SOL     OW10663   1.347   0.395   5.781 -0.0872 -0.2709 -0.1057
 2723SOL    HW210664   1.438   0.366   5.796 -0.0800 -0.4331 -0.4397
 2723SOL    HW310665   1.316   0.338   5.711 -0.8796 -1.1073  0.8868
 2723SOL    MW410666   1.355   0.383   5.774 -0.1908 -0.4026 -0.0188
 2724SOL     OW10667   0.721   1.041   5.130  0.0540  0.3673 -0.0441
 2724SOL    HW210668   0.636   1.018   5.168  0.9765 -1.8935  0.8183
 2724SOL    HW310669   0.748   0.961   5.083  0.6943  1.7972 -2.2876
 2724SOL    MW410670   0.713   1.027   5.129  0.2602  0.2576 -0.2263
 2725SOL     OW10671   5.978   4.238   3.069  0.0974  0.1108  0.5389
 2725SOL    HW210672   6.005   4.164   3.123  0.0850 -0.5433 -0.3319
 2725SOL    HW310673   5.918   4.288   3.125 -2.4133 -2.2233  0.1493
 2725SOL    MW410674   5.973   4.235   3.084 -0.2355 -0.2835  0.3726
 2726SOL     OW10675   5.389   6.367   5.208  0.2682  0.2209  0.2312
 2726SOL    HW210676   5.309   6.407   5.174  0.0480 -0.3919  0.0164
 2726SOL    HW310677   5.426   6.433   5.267  0.5562  1.2117 -1.0399
 2726SOL    MW410678   5.383   6.381   5.212  0.2771  0.2708  0.0352
 2727SOL     OW10679   5.070   0.014   5.457 -0.5912  0.0948  0.0775
 2727SOL    HW210680   5.091  -0.078   5.468  2.1555  0.3657 -1.8963
 2727SOL    HW310681   5.082   0.052   5.544  0.9564 -0.9924  0.3779
 2727SOL    MW410682   5.075   0.007   5.470 -0.0246 -0.0129 -0.1433
 2728SOL     OW10683   6.048   6.332   1.369  0.1849 -0.1443 -0.3455
 2728SOL    HW210684   6.047   6.296   1.458 -2.2162  0.2801 -0.1489
 2728SOL    HW310685   6.138   6.364   1.358  0.8077 -1.0726  1.5578
 2728SOL    MW410686   6.060   6.332   1.379 -0.0497 -0.2108 -0.0684
 2729SOL     OW10687   4.182   2.227   1.715 -0.4441 -0.1221 -0.4345
 2729SOL    HW210688   4.254   2.234   1.777 -0.1775  1.5776 -0.8844
 2729SOL    HW310689   4.218   2.177   1.642 -0.5429 -1.4989  0.4156
 2729SOL    MW410690   4.196   2.221   1.713 -0.4219 -0.0795 -0.3817
 2730SOL     OW10691   0.991   4.020   3.422 -0.0146  0.6263 -0.4238
 2730SOL    HW210692   1.079   4.047   3.447 -0.4625  0.9522  0.8707
 2730SOL    HW310693   0.943   4.102   3.410 -0.8875  0.4679  1.7027
 2730SOL    MW410694   0.996   4.034   3.423 -0.1889  0.6484  0.0276
 2731SOL     OW10695   6.435   0.716   2.817  0.6400  0.4339 -0.3503
 2731SOL    HW210696   6.394   0.654   2.877 -0.2976 -0.6000 -1.9827
 2731SOL    HW310697   6.479   0.661   2.752  1.8289  1.5188 -0.5088
 2731SOL    MW410698   6.435   0.701   2.816  0.6732  0.4407 -0.5866
 2732SOL     OW10699   2.775   2.222   1.752  0.3102 -0.5242 -0.6110
 2732SOL    HW210700   2.777   2.260   1.840  1.7662 -0.2176 -0.7564
 2732SOL    HW310701   2.682   2.210   1.734 -0.1444  1.6008  0.0293
 2732SOL    MW410702   2.763   2.225   1.761  0.4423 -0.2033 -0.5457
 2733SOL     OW10703   0.035   4.909   1.982 -0.4576  0.7190  0.1761
 2733SOL    HW210704  -0.054   4.930   2.010 -0.9045  1.5305 -1.6461
 2733SOL    HW310705   0.083   4.992   1.991 -1.0804  1.5628 -2.8925
 2733SOL    MW410706   0.030   4.923   1.987 -0.5987  0.9374 -0.4692
 2734SOL     OW10707   4.107   4.584   2.978  0.4348  0.5966  0.0336
 2734SOL    HW210708   4.174   4.516   2.985 -0.1133 -0.0042 -0.4603
 2734SOL    HW310709   4.024   4.537   2.976  0.1250  1.0592 -2.6211
 2734SOL    MW410710   4.105   4.569   2.979  0.3216  0.5784 -0.3818
 2735SOL     OW10711   1.343   5.370   5.538  0.5494  0.0373 -0.7848
 2735SOL    HW210712   1.289   5.434   5.584 -0.9053 -1.4785 -0.2797
 2735SOL    HW310713   1.352   5.297   5.599  1.3526 -0.6507 -1.6848
 2735SOL    MW410714   1.337   5.368   5.552  0.4634 -0.2534 -0.8369
 2736SOL     OW10715   5.715   5.296   4.407 -0.4382 -0.0230  0.1314
 2736SOL    HW210716   5.659   5.360   4.452  0.4411 -0.5462  2.0994
 2736SOL    HW310717   5.670   5.279   4.324 -1.4493  2.0246  0.1914
 2736SOL    MW410718   5.702   5.302   4.402 -0.4556  0.1781  0.3990
 2737SOL     OW10719   5.586   0.478   4.300  0.4241  0.8196  0.5418
 2737SOL    HW210720   5.679   0.468   4.280  0.2433  2.1583 -1.3013
 2737SOL    HW310721   5.542   0.415   4.243  0.1783  0.2807  1.3145
 2737SOL    MW410722   5.593   0.469   4.290  0.3679  0.9251  0.4006
 2738SOL     OW10723   6.158   0.177   1.918  0.2953 -0.4998  0.7557
 2738SOL    HW210724   6.161   0.113   1.847 -1.9159 -0.5822  0.6635
 2738SOL    HW310725   6.200   0.134   1.991 -0.3466 -1.7114  0.4267
 2738SOL    MW410726   6.164   0.163   1.918 -0.0811 -0.6706  0.7002
 2739SOL     OW10727   2.476   6.160   4.768 -0.5454  0.1550  0.1021
 2739SOL    HW210728   2.529   6.135   4.844 -1.2425 -1.6224  0.0410
 2739SOL    HW310729   2.526   6.230   4.726  0.8493 -0.2351  1.0554
 2739SOL    MW410730   2.490   6.166   4.773 -0.4534 -0.1310  0.2198
 2740SOL     OW10731   1.668   4.100   1.264 -0.0933  0.0454  0.0624
 2740SOL    HW210732   1.756   4.121   1.296  0.8914 -0.9483 -1.8252
 2740SOL    HW310733   1.643   4.176   1.212  0.3788 -0.3251 -0.7377
 2740SOL    MW410734   1.676   4.113   1.261  0.0989 -0.1346 -0.2922
 2741SOL     OW10735   0.563   1.832   0.716  0.7320 -0.1407  0.0408
 2741SOL    HW210736   0.586   1.916   0.676 -1.2706  0.6054  0.3548
 2741SOL    HW310737   0.497   1.853   0.782 -1.1144 -2.1125 -1.0327
 2741SOL    MW410738   0.558   1.846   0.719  0.2242 -0.3025 -0.0594
 2742SOL     OW10739   3.727   1.665   3.889 -0.4898  0.1128  0.4583
 2742SOL    HW210740   3.754   1.607   3.818  1.1014 -0.0755  1.1824
 2742SOL    HW310741   3.795   1.656   3.955  0.3975  3.5542  0.1988
 2742SOL    MW410742   3.739   1.656   3.888 -0.1628  0.5420  0.5196
 2743SOL     OW10743   2.829   2.018   1.009  0.0781  0.4945 -0.4886
 2743SOL    HW210744   2.791   2.096   1.050  0.7424  0.4393  0.2703
 2743SOL    HW310745   2.845   2.044   0.918 -2.0953  0.3806 -0.9434
 2743SOL    MW410746   2.826   2.032   1.002 -0.1210  0.4722 -0.4485
 2744SOL     OW10747   0.379   0.700   4.258 -0.3234 -0.0578  0.3562
 2744SOL    HW210748   0.464   0.686   4.299 -0.6452 -0.3034  0.9458
 2744SOL    HW310749   0.390   0.780   4.207  0.4588 -0.4464 -0.1117
 2744SOL    MW410750   0.391   0.709   4.256 -0.2627 -0.1415  0.3722
 2745SOL     OW10751   5.646   1.858   4.899  0.7939  0.1549 -0.1702
 2745SOL    HW210752   5.732   1.897   4.886  0.1742  2.4222  1.7783
 2745SOL    HW310753   5.589   1.903   4.837  0.9274 -1.2619 -1.3793
 2745SOL    MW410754   5.650   1.869   4.889  0.7297  0.2671 -0.0727
 2746SOL     OW10755   4.147   1.102   4.326  0.2810 -0.2256  0.4520
 2746SOL    HW210756   4.159   1.177   4.384 -1.3146  1.8223 -1.6759
 2746SOL    HW310757   4.060   1.069   4.348  0.1545 -0.1766  0.0229
 2746SOL    MW410758   4.137   1.108   4.337  0.0538  0.0511  0.1146
 2747SOL     OW10759   2.871   4.436   1.917  0.1877 -0.2185 -0.1035
 2747SOL    HW210760   2.791   4.410   1.962  0.3326 -0.9632 -0.2650
 2747SOL    HW310761   2.862   4.530   1.904 -0.6477 -0.2935 -0.0886
 2747SOL    MW410762   2.859   4.445   1.921  0.0966 -0.3266 -0.1228
 2748SOL     OW10763   2.587   6.344   1.041  0.0836 -0.2650  0.4967
 2748SOL    HW210764   2.596   6.282   0.969  1.3510  0.0641  0.3399
 2748SOL    HW310765   2.522   6.305   1.099  0.2740 -1.3378  0.0050
 2748SOL    MW410766   2.580   6.331   1.039  0.2760 -0.3631  0.4111
 2749SOL     OW10767   6.274   5.450   4.364  0.8018 -0.1118  0.1373
 2749SOL    HW210768   6.217   5.526   4.355  0.9797  0.2609  1.7705
 2749SOL    HW310769   6.240   5.403   4.440 -0.0332 -2.3679 -1.5351
 2749SOL    MW410770   6.262   5.454   4.373  0.7151 -0.3603  0.1321
 2750SOL     OW10771   3.319   5.068   5.339 -0.1685  0.3023  0.2669
 2750SOL    HW210772   3.277   5.022   5.266  1.0186  0.9079 -0.8425
 2750SOL    HW310773   3.254   5.133   5.367 -0.8500 -0.3046  0.1245
 2750SOL    MW410774   3.305   5.071   5.333 -0.1018  0.3021  0.1018
 2751SOL     OW10775   4.889   3.593   1.496 -0.2308  0.4176  0.1997
 2751SOL    HW210776   4.936   3.510   1.502  0.3257  0.7507  0.5722
 2751SOL    HW310777   4.957   3.658   1.479 -0.6225  0.8397  0.2143
 2751SOL    MW410778   4.904   3.591   1.495 -0.2091  0.5172  0.2508
 2752SOL     OW10779   2.072   0.282   6.239  0.0195  0.5893  0.1105
 2752SOL    HW210780   2.012   0.314   6.306 -0.1365  0.0520  0.2312
 2752SOL    HW310781   2.079   0.188   6.255  1.8188  0.7996  0.8391
 2752SOL    MW410782   2.065   0.274   6.250  0.2363  0.5462  0.2226
 2753SOL     OW10783   4.465   0.254   3.962  0.1954  0.5491 -0.5621
 2753SOL    HW210784   4.546   0.297   3.934  1.6607 -2.1993 -0.8250
 2753SOL    HW310785   4.478   0.239   4.056 -0.2729  0.5803 -0.4899
 2753SOL    MW410786   4.478   0.258   3.971  0.3269  0.1906 -0.5872
 2754SOL     OW10787   2.822   5.809   3.769  0.4835 -0.3163  0.3417
 2754SOL    HW210788   2.889   5.744   3.748  0.7399 -0.6022  1.8575
 2754SOL    HW310789   2.798   5.789   3.860 -1.2820  0.1231  0.0032
 2754SOL    MW410790   2.828   5.798   3.779  0.2844 -0.2960  0.4970
 2755SOL     OW10791   3.697   2.862   5.333 -0.1263 -0.3794  0.0101
 2755SOL    HW210792   3.609   2.895   5.316  0.2324  0.6300  0.0386
 2755SOL    HW310793   3.751   2.941   5.340  0.6985 -0.9690  0.4442
 2755SOL    MW410794   3.692   2.877   5.332  0.0299 -0.3240  0.0712
 2756SOL     OW10795   3.389   5.121   6.253  0.6762 -0.3357 -0.4585
 2756SOL    HW210796   3.334   5.043   6.253  0.6302 -0.3078 -0.7842
 2756SOL    HW310797   3.448   5.109   6.178  1.3284 -0.5146  0.0791
 2756SOL    MW410798   3.390   5.109   6.243  0.7562 -0.3556 -0.4305
 2757SOL     OW10799   0.422   1.732   6.326 -0.7560  0.4356 -0.3363
 2757SOL    HW210800   0.513   1.715   6.351 -0.0614  0.2501 -2.6982
 2757SOL    HW310801   0.373   1.660   6.365  0.0713  0.5840  1.0539
 2757SOL    MW410802   0.428   1.720   6.334 -0.5552  0.4307 -0.4645
 2758SOL     OW10803   5.747   2.595   4.362  0.2938 -0.6021 -0.1350
 2758SOL    HW210804   5.801   2.672   4.344 -0.5535  0.0086 -0.1905
 2758SOL    HW310805   5.732   2.597   4.456 -3.2248  1.8512 -0.5234
 2758SOL    MW410806   5.752   2.605   4.372 -0.2822 -0.1979 -0.1936
 2759SOL     OW10807   3.178   4.397   5.821 -0.6683  0.7039 -0.4218
 2759SOL    HW210808   3.121   4.395   5.898 -0.5471 -0.6188 -0.3579
 2759SOL    HW310809   3.261   4.431   5.855 -0.9227  1.0989 -0.1828
 2759SOL    MW410810   3.181   4.402   5.836 -0.6859  0.5815 -0.3819
 2760SOL     OW10811   3.415   5.333   1.744 -0.0148 -0.1425 -0.2436
 2760SOL    HW210812   3.494   5.280   1.736  0.0244 -0.4897  1.7967
 2760SOL    HW310813   3.400   5.340   1.839 -1.6630  1.0588 -0.5359
 2760SOL    MW410814   3.423   5.327   1.756 -0.2271 -0.0298 -0.0129
 2761SOL     OW10815   0.354   4.646   4.561  0.0058  0.0119  0.7128
 2761SOL    HW210816   0.411   4.575   4.592 -0.0823  0.5927  2.3253
 2761SOL    HW310817   0.412   4.707   4.516  0.2619 -0.5325  0.2954
 2761SOL    MW410818   0.369   4.644   4.559  0.0280  0.0167  0.8704
 2762SOL     OW10819   0.052   1.848   6.385  0.4691 -0.5891 -0.2956
 2762SOL    HW210820   0.051   1.753   6.385  0.0987 -0.5875  0.8155
 2762SOL    HW310821  -0.039   1.874   6.373  0.1596 -0.3976  2.1233
 2762SOL    MW410822   0.040   1.839   6.383  0.3794 -0.5636  0.1701
 2763SOL     OW10823   3.793   3.290   6.022 -0.0802 -0.3550  0.0851
 2763SOL    HW210824   3.797   3.272   6.116 -0.2065  0.3494  0.2266
 2763SOL    HW310825   3.703   3.270   5.998 -0.3150  0.3837  0.3116
 2763SOL    MW410826   3.782   3.285   6.032 -0.1279 -0.1646  0.1336
 2764SOL     OW10827   2.652   6.116   4.982  0.2484 -0.3819  0.0251
 2764SOL    HW210828   2.625   6.026   4.999 -0.2017 -0.2307  0.1099
 2764SOL    HW310829   2.616   6.167   5.054  0.7072 -0.1646  0.1080
 2764SOL    MW410830   2.644   6.111   4.993  0.2495 -0.3333  0.0472
 2765SOL     OW10831   4.606   5.316   1.437  0.4099  0.8342 -0.4535
 2765SOL    HW210832   4.559   5.395   1.413 -1.2082  0.5485  1.4994
 2765SOL    HW310833   4.621   5.325   1.532  0.6192 -0.9729 -0.2785
 2765SOL    MW410834   4.602   5.327   1.447  0.2240  0.5581 -0.1728
 2766SOL     OW10835   1.520   6.015   3.130 -0.1424  0.3357  0.0245
 2766SOL    HW210836   1.555   6.057   3.209 -1.2131 -1.6136  1.6126
 2766SOL    HW310837   1.448   5.962   3.161 -1.3006  0.3198 -2.4635
 2766SOL    MW410838   1.515   6.014   3.144 -0.4365  0.0764 -0.0942
 2767SOL     OW10839   1.204   4.116   0.855  0.0967 -0.1511 -0.6191
 2767SOL    HW210840   1.170   4.034   0.892 -0.0444 -0.3187 -1.1147
 2767SOL    HW310841   1.246   4.089   0.773  2.9747 -0.2418  0.7604
 2767SOL    MW410842   1.205   4.101   0.849  0.4578 -0.1852 -0.5025
 2768SOL     OW10843   0.568   6.101   5.479 -0.4055  0.7336 -0.5195
 2768SOL    HW210844   0.573   6.094   5.383 -1.2929  0.6986 -0.5739
 2768SOL    HW310845   0.485   6.059   5.501 -0.7184  1.6933  0.1672
 2768SOL    MW410846   0.557   6.094   5.469 -0.5639  0.8556 -0.4361
 2769SOL     OW10847   5.245   1.009   1.327  0.4665 -0.2730  0.0416
 2769SOL    HW210848   5.239   1.067   1.403 -1.3545 -0.1960 -0.1123
 2769SOL    HW310849   5.337   1.010   1.303  0.7742  1.1074  1.1575
 2769SOL    MW410850   5.256   1.017   1.334  0.2668 -0.0807  0.1685
 2770SOL     OW10851   4.697   2.472   2.187 -0.0025 -0.3471  0.2124
 2770SOL    HW210852   4.720   2.456   2.278 -0.1772 -0.0486  0.3101
 2770SOL    HW310853   4.775   2.447   2.138 -0.4610 -2.0993  0.2914
 2770SOL    MW410854   4.710   2.466   2.192 -0.0861 -0.5389  0.2357
 2771SOL     OW10855   5.878   5.026   5.094  0.0871 -0.2704 -0.2688
 2771SOL    HW210856   5.843   5.066   5.014 -1.0312 -1.6562 -0.5152
 2771SOL    HW310857   5.800   4.993   5.140  0.5818  1.3149  1.9009
 2771SOL    MW410858   5.863   5.027   5.090  0.0048 -0.2441 -0.0151
 2772SOL     OW10859   5.463   0.506   0.111  0.4217 -0.0495 -0.2818
 2772SOL    HW210860   5.470   0.601   0.111 -0.3868  0.0128 -0.2407
 2772SOL    HW310861   5.513   0.478   0.189 -1.0656  0.4834  0.9133
 2772SOL    MW410862   5.471   0.514   0.122  0.1188  0.0290 -0.1187
 2773SOL     OW10863   3.567   1.907   0.911 -0.4682  0.3017  0.4196
 2773SOL    HW210864   3.633   1.854   0.866  0.0634 -0.2617  1.8325
 2773SOL    HW310865   3.561   1.870   0.999 -2.1137  0.8460  0.5632
 2773SOL    MW410866   3.575   1.895   0.917 -0.6151  0.2992  0.6250
 2774SOL     OW10867   4.398   0.434   2.153  0.3251  0.1724 -0.5958
 2774SOL    HW210868   4.401   0.524   2.183  0.0333  0.3838 -1.1931
 2774SOL    HW310869   4.476   0.393   2.192  0.2976  0.5993 -0.0867
 2774SOL    MW410870   4.409   0.440   2.162  0.2830  0.2566 -0.6074
 2775SOL     OW10871   0.504   2.521   5.727 -0.1541 -0.6742 -0.2263
 2775SOL    HW210872   0.564   2.455   5.762 -0.9197 -0.6294  1.2533
 2775SOL    HW310873   0.534   2.604   5.765 -1.9749 -0.8439  1.7613
 2775SOL    MW410874   0.516   2.524   5.736 -0.4953 -0.6907  0.2312
 2776SOL     OW10875   0.974   2.661   5.093  0.3060 -0.3257 -0.0068
 2776SOL    HW210876   0.919   2.585   5.107  0.3270 -0.5489 -1.0266
 2776SOL    HW310877   1.063   2.627   5.093  0.3562 -0.1921  0.2379
 2776SOL    MW410878   0.978   2.647   5.095  0.3154 -0.3375 -0.1090
 2777SOL     OW10879   2.716   0.874   6.028  0.1555  0.1996 -0.0349
 2777SOL    HW210880   2.773   0.884   5.952  0.3366 -1.8404 -0.2220
 2777SOL    HW310881   2.683   0.785   6.022 -0.7777  0.3838  1.6476
 2777SOL    MW410882   2.719   0.864   6.017  0.0562 -0.0452  0.1624
 2778SOL     OW10883   4.479   2.463   2.905 -0.6029  0.5407  0.2064
 2778SOL    HW210884   4.453   2.520   2.978  0.9113 -0.6600  1.7634
 2778SOL    HW310885   4.399   2.416   2.882 -1.4820  2.0770 -0.0175
 2778SOL    MW410886   4.465   2.465   2.912 -0.5191  0.5850  0.3823
 2779SOL     OW10887   2.213   3.839   6.007 -0.0926  0.1648 -0.1419
 2779SOL    HW210888   2.187   3.876   5.923  0.3435  0.3053 -0.2171
 2779SOL    HW310889   2.210   3.744   5.994 -0.3967  0.1812 -0.1985
 2779SOL    MW410890   2.209   3.831   5.994 -0.0752  0.1855 -0.1593
 2780SOL     OW10891   5.488   1.010   5.673 -0.3123  0.2719  0.0697
 2780SOL    HW210892   5.539   0.966   5.606 -1.2151 -0.0728 -0.4054
 2780SOL    HW310893   5.526   0.979   5.756 -0.6427 -1.0864 -0.2519
 2780SOL    MW410894   5.500   1.000   5.675 -0.4750  0.0472 -0.0354
 2781SOL     OW10895   0.634   1.142   4.430 -0.4293 -0.3444  0.2227
 2781SOL    HW210896   0.545   1.154   4.462 -0.1999 -0.8116  1.0546
 2781SOL    HW310897   0.674   1.079   4.490  0.2733 -0.6167 -0.4964
 2781SOL    MW410898   0.628   1.135   4.442 -0.3063 -0.4420  0.2376
 2782SOL     OW10899   3.346   2.076   0.368  0.4609  0.4579  0.0485
 2782SOL    HW210900   3.384   2.140   0.308  0.9872 -0.0488 -0.1737
 2782SOL    HW310901   3.421   2.041   0.416  0.1697  0.0727  0.2250
 2782SOL    MW410902   3.361   2.080   0.366  0.4919  0.3402  0.0425
 2783SOL     OW10903   0.332   5.796   4.865 -0.0063 -0.5391  0.1695
 2783SOL    HW210904   0.420   5.786   4.830 -0.5283 -1.6887 -0.8980
 2783SOL    HW310905   0.338   5.869   4.926  1.5319 -0.1870 -0.3695
 2783SOL    MW410906   0.344   5.804   4.869  0.1278 -0.6443 -0.0425
 2784SOL     OW10907   4.093   4.622   4.599 -0.5524 -0.3041  0.1235
 2784SOL    HW210908   4.022   4.558   4.591 -0.5201 -0.4175  0.6965
 2784SOL    HW310909   4.098   4.663   4.512 -0.7493 -0.8905 -0.1732
 2784SOL    MW410910   4.085   4.619   4.586 -0.5741 -0.3964  0.1600
 2785SOL     OW10911   0.358   0.105   2.550  0.0299 -0.0337 -0.3294
 2785SOL    HW210912   0.284   0.164   2.537 -1.2109 -0.5275  3.3398
 2785SOL    HW310913   0.428   0.160   2.584  1.0622  0.2262 -2.6831
 2785SOL    MW410914   0.357   0.120   2.553  0.0024 -0.0645 -0.1558
 2786SOL     OW10915   0.157   4.233   5.013 -0.0775  0.3807 -0.1785
 2786SOL    HW210916   0.193   4.224   5.102  2.0404 -1.5994 -1.1283
 2786SOL    HW310917   0.062   4.232   5.026  0.1320  1.9122  2.1650
 2786SOL    MW410918   0.150   4.231   5.027  0.2296  0.3215  0.0054
 2787SOL     OW10919   6.142   3.069   5.759 -0.2705  0.0904  0.0936
 2787SOL    HW210920   6.062   3.017   5.753 -0.3743  0.3467 -0.9943
 2787SOL    HW310921   6.163   3.091   5.668  0.6405  0.6256  0.4198
 2787SOL    MW410922   6.134   3.065   5.746 -0.1640  0.1948 -0.0069
 2788SOL     OW10923   2.218   5.371   4.544  0.2791  0.5429 -0.2411
 2788SOL    HW210924   2.214   5.303   4.476 -0.1577 -0.4823  0.7787
 2788SOL    HW310925   2.266   5.443   4.503  2.2532 -1.0140 -0.8179
 2788SOL    MW410926   2.224   5.371   4.529  0.4819  0.2022 -0.1826
 2789SOL     OW10927   3.672   4.557   0.606 -0.1058  0.2613 -0.1186
 2789SOL    HW210928   3.595   4.608   0.580  0.8212  1.9549  0.2781
 2789SOL    HW310929   3.673   4.562   0.701  0.1789 -0.2380 -0.0928
 2789SOL    MW410930   3.662   4.565   0.615  0.0541  0.4189 -0.0629
 2790SOL     OW10931   5.632   0.259   6.000  0.0224 -0.3116 -0.1468
 2790SOL    HW210932   5.548   0.279   5.957 -0.0678 -2.3821 -1.0317
 2790SOL    HW310933   5.614   0.182   6.054  0.9117  0.4028  1.2476
 2790SOL    MW410934   5.618   0.252   6.002  0.1278 -0.4905 -0.0796
 2791SOL     OW10935   0.368   1.001   0.594 -0.0375  0.0958  0.5587
 2791SOL    HW210936   0.376   0.938   0.523  2.1787  1.2622 -0.3429
 2791SOL    HW310937   0.408   0.958   0.669  1.5767  0.4165 -0.0828
 2791SOL    MW410938   0.374   0.987   0.595  0.4679  0.2920  0.3551
 2792SOL     OW10939   2.664   2.253   6.029 -0.0245  0.2186 -0.4922
 2792SOL    HW210940   2.575   2.224   6.009 -1.2815  3.5162 -0.2412
 2792SOL    HW310941   2.685   2.209   6.111 -1.9033  0.2135  0.0370
 2792SOL    MW410942   2.655   2.243   6.037 -0.4382  0.6530 -0.3893
 2793SOL     OW10943   2.888   5.289   3.558  0.2238 -0.2561 -0.4242
 2793SOL    HW210944   2.924   5.360   3.505  0.3982  1.0639  1.3583
 2793SOL    HW310945   2.811   5.327   3.600 -0.8035 -1.7422 -0.8872
 2793SOL    MW410946   2.883   5.303   3.557  0.1112 -0.2780 -0.2501
 2794SOL     OW10947   4.636   4.150   2.952  1.6781  0.1677 -0.3652
 2794SOL    HW210948   4.606   4.237   2.980 -0.3447  0.0074 -1.8054
 2794SOL    HW310949   4.588   4.089   3.007  1.7017 -0.0621 -0.5977
 2794SOL    MW410950   4.626   4.153   2.963  1.4143  0.1162 -0.5859
 2795SOL     OW10951   5.799   0.170   0.966 -0.3604  0.1532  0.2821
 2795SOL    HW210952   5.792   0.253   1.013 -0.0709 -0.0503  0.6961
 2795SOL    HW310953   5.797   0.104   1.035 -2.3205 -0.2961 -0.1550
 2795SOL    MW410954   5.798   0.172   0.981 -0.5808  0.0671  0.2790
 2796SOL     OW10955   3.804   0.195   3.929  0.5971 -0.5415 -0.1746
 2796SOL    HW210956   3.839   0.227   4.012 -0.1984 -1.4245  0.5191
 2796SOL    HW310957   3.717   0.234   3.923  0.9001  0.0462 -0.9258
 2796SOL    MW410958   3.797   0.204   3.939  0.5322 -0.5805 -0.1822
 2797SOL     OW10959   4.484   3.245   5.718  0.0614 -0.2763  0.2543
 2797SOL    HW210960   4.409   3.246   5.658 -1.7691 -0.9928  2.3954
 2797SOL    HW310961   4.459   3.304   5.788  2.7364  1.6073 -0.2572
 2797SOL    MW410962   4.471   3.253   5.719  0.1728 -0.1223  0.4693
 2798SOL     OW10963   5.280   5.695   0.985  0.9771 -0.2400  0.4541
 2798SOL    HW210964   5.368   5.729   1.005  1.8124 -1.0230 -1.5911
 2798SOL    HW310965   5.296   5.609   0.947 -0.7148 -0.5113  0.2866
 2798SOL    MW410966   5.294   5.688   0.983  0.8641 -0.3791  0.1621
 2799SOL     OW10967   4.703   0.118   0.156 -0.0419  0.9564  0.4422
 2799SOL    HW210968   4.652   0.078   0.085  2.2692 -1.3628 -0.0775
 2799SOL    HW310969   4.682   0.211   0.152 -1.4459  0.6144 -2.0124
 2799SOL    MW410970   4.694   0.125   0.146  0.0778  0.6053  0.0498
 2800SOL     OW10971   2.753   2.975   2.160  0.1026  0.0273 -0.1200
 2800SOL    HW210972   2.829   2.928   2.126 -0.0853  0.8586 -1.7393
 2800SOL    HW310973   2.735   3.043   2.096 -1.8725  0.0146  0.3512
 2800SOL    MW410974   2.761   2.978   2.147 -0.1828  0.1353 -0.2714
 2801SOL     OW10975   3.788   1.504   2.781  0.0633  0.2490 -0.6710
 2801SOL    HW210976   3.779   1.598   2.799  0.1101  0.1494 -0.1154
 2801SOL    HW310977   3.738   1.490   2.701  0.4070  0.8290 -0.9943
 2801SOL    MW410978   3.781   1.515   2.773  0.1148  0.3124 -0.6404
 2802SOL     OW10979   2.490   1.253   3.644 -0.1635 -0.7529  0.0237
 2802SOL    HW210980   2.494   1.158   3.653 -0.5269 -0.8062 -0.3769
 2802SOL    HW310981   2.401   1.276   3.670  0.2509 -0.4029  1.1818
 2802SOL    MW410982   2.479   1.243   3.649 -0.1568 -0.7137  0.1236
 2803SOL     OW10983   4.634   1.383   4.826 -0.5819  0.6437 -0.6843
 2803SOL    HW210984   4.605   1.322   4.759  2.1409  0.3027 -1.6507
 2803SOL    HW310985   4.583   1.359   4.903 -0.0954 -2.4526 -1.1895
 2803SOL    MW410986   4.623   1.372   4.827 -0.1585  0.1902 -0.8785
 2804SOL     OW10987   2.030   5.900   2.483  0.1066 -0.5717  0.3146
 2804SOL    HW210988   2.095   5.847   2.437  0.6903 -0.9924  1.5766
 2804SOL    HW310989   2.010   5.972   2.423 -0.4678 -2.0091 -1.3141
 2804SOL    MW410990   2.036   5.903   2.469  0.1078 -0.8168  0.2662
 2805SOL     OW10991   2.171   4.734   5.571  0.5005  0.0589  0.1624
 2805SOL    HW210992   2.175   4.641   5.553  0.3332 -0.0969  0.8961
 2805SOL    HW310993   2.209   4.776   5.494 -0.0455 -0.5812 -0.4584
 2805SOL    MW410994   2.177   4.727   5.559  0.4064 -0.0462  0.1773
 2806SOL     OW10995   0.148   5.059   6.139 -0.1696 -0.0348 -0.1596
 2806SOL    HW210996   0.134   5.016   6.055 -0.1118 -0.8417  0.2328
 2806SOL    HW310997   0.213   5.004   6.184 -1.9135 -0.9889  1.3688
 2806SOL    MW410998   0.155   5.046   6.134 -0.3921 -0.2671  0.0938
 2807SOL     OW10999   6.241   1.885   4.625 -0.5815 -0.3206  0.8685
 2807SOL    HW211000   6.212   1.964   4.672  0.3343 -1.0577  2.7493
 2807SOL    HW311001   6.220   1.813   4.684 -2.0949 -1.6267 -1.1390
 2807SOL    MW411002   6.234   1.886   4.639 -0.6603 -0.5902  0.8518
 2808SOL     OW11003   4.289   4.390   3.039  0.1395  0.0954  0.4921
 2808SOL    HW211004   4.255   4.303   3.060  0.2022 -0.2302 -0.6537
 2808SOL    HW311005   4.384   4.379   3.035  0.0671 -0.2856 -1.5560
 2808SOL    MW411006   4.297   4.377   3.041  0.1382  0.0022  0.0707
 2809SOL     OW11007   0.079   4.132   5.656  0.5516 -0.1095  0.0110
 2809SOL    HW211008   0.096   4.217   5.696 -0.7283  0.2217 -0.1373
 2809SOL    HW311009   0.003   4.145   5.600 -1.0870 -1.8223  1.6663
 2809SOL    MW411010   0.071   4.145   5.654  0.1665 -0.2918  0.2098
 2810SOL     OW11011   5.774   3.209   1.251 -0.0974 -0.5992  0.3571
 2810SOL    HW211012   5.834   3.158   1.197  0.5570 -2.2144  2.4832
 2810SOL    HW311013   5.690   3.163   1.243  0.1862 -1.3113  1.2599
 2810SOL    MW411014   5.771   3.196   1.243  0.0264 -0.9062  0.7567
 2811SOL     OW11015   1.132   1.248   0.336  0.2257  0.1050  0.2811
 2811SOL    HW211016   1.086   1.211   0.412  0.5707  0.1449  0.5088
 2811SOL    HW311017   1.212   1.195   0.329  0.9701  1.1184  0.9096
 2811SOL    MW411018   1.136   1.236   0.346  0.3694  0.2439  0.3940
 2812SOL     OW11019   5.160   1.023   5.394 -0.2698 -0.9797  0.6082
 2812SOL    HW211020   5.174   1.015   5.488  0.9486  1.0218  0.6485
 2812SOL    HW311021   5.067   1.005   5.381 -0.6293 -0.4436  2.2940
 2812SOL    MW411022   5.150   1.019   5.404 -0.1565 -0.6449  0.8359
 2813SOL     OW11023   5.863   2.071   3.258  0.1514  1.1260  0.0338
 2813SOL    HW211024   5.790   2.010   3.248 -0.5151  1.8693  0.2260
 2813SOL    HW311025   5.930   2.022   3.305 -0.0950  0.3327 -0.4161
 2813SOL    MW411026   5.862   2.057   3.263  0.0310  1.1194 -0.0002
 2814SOL     OW11027   4.006   1.493   6.365 -0.0935  0.3178  0.0155
 2814SOL    HW211028   4.014   1.417   6.308 -2.5512  0.0447 -0.0679
 2814SOL    HW311029   4.096   1.514   6.390  0.7074 -2.1483 -0.5546
 2814SOL    MW411030   4.019   1.486   6.361 -0.3121 -0.0436 -0.0707
 2815SOL     OW11031   1.663   3.026   5.326  0.0902  0.2889 -0.3834
 2815SOL    HW211032   1.684   3.022   5.419 -0.3588 -0.6976 -0.3085
 2815SOL    HW311033   1.574   3.061   5.323 -0.1259 -0.2540 -0.4001
 2815SOL    MW411034   1.654   3.030   5.338  0.0024  0.0871 -0.3757
 2816SOL     OW11035   1.630   4.649   2.508 -0.1061 -0.5867 -0.2487
 2816SOL    HW211036   1.683   4.576   2.476  1.4179 -0.6046  2.0582
 2816SOL    HW311037   1.603   4.622   2.596 -0.9317  0.9406 -0.0011
 2816SOL    MW411038   1.634   4.636   2.515 -0.0140 -0.3876  0.0884
 2817SOL     OW11039   1.171   0.485   4.556 -0.1012 -0.2148  0.2041
 2817SOL    HW211040   1.106   0.535   4.604  0.5578  0.6956  0.1922
 2817SOL    HW311041   1.122   0.441   4.487 -0.6563  0.7438 -0.0301
 2817SOL    MW411042   1.156   0.486   4.553 -0.0875  0.0318  0.1717
 2818SOL     OW11043   1.881   5.357   5.769 -0.0482 -0.1030 -0.2940
 2818SOL    HW211044   1.886   5.433   5.711 -1.5488 -0.5607 -1.0833
 2818SOL    HW311045   1.872   5.393   5.857  3.4874  0.6267 -0.0681
 2818SOL    MW411046   1.881   5.372   5.773  0.2203 -0.0671 -0.3683
 2819SOL     OW11047   4.863   3.864   5.831  0.2016  0.4573 -0.1273
 2819SOL    HW211048   4.905   3.825   5.754 -0.7081 -0.1960 -0.3142
 2819SOL    HW311049   4.839   3.953   5.803  0.4039  0.4247 -0.4045
 2819SOL    MW411050   4.865   3.871   5.817  0.1083  0.3668 -0.1885
 2820SOL     OW11051   3.895   6.186   0.684 -0.2315  0.4838 -0.0713
 2820SOL    HW211052   3.844   6.120   0.638  0.9748 -0.1724 -0.5162
 2820SOL    HW311053   3.839   6.264   0.684 -0.3658  0.4703 -2.5424
 2820SOL    MW411054   3.881   6.188   0.678 -0.0900  0.3955 -0.4561
 2821SOL     OW11055   3.193   2.336   3.555  0.2952  0.2117  0.1923
 2821SOL    HW211056   3.168   2.378   3.638  0.8237 -0.1075  0.5202
 2821SOL    HW311057   3.274   2.290   3.575 -0.1616 -0.8184 -0.1986
 2821SOL    MW411058   3.200   2.335   3.569  0.3047  0.0336  0.1840
 2822SOL     OW11059   1.397   5.701   4.371 -0.1810  0.3685 -0.6082
 2822SOL    HW211060   1.432   5.651   4.298 -1.3419  1.0809 -1.6883
 2822SOL    HW311061   1.335   5.642   4.414  0.2538  0.0661 -0.3871
 2822SOL    MW411062   1.393   5.687   4.367 -0.2768  0.4226 -0.7216
 2823SOL     OW11063   6.150   2.011   3.278  0.0730 -0.2120  0.6173
 2823SOL    HW211064   6.211   1.937   3.275  0.6337  0.2517  0.4339
 2823SOL    HW311065   6.205   2.088   3.267 -0.4884  0.2512  0.9911
 2823SOL    MW411066   6.165   2.011   3.276  0.0729 -0.0897  0.6424
 2824SOL     OW11067   5.451   1.597   5.171  0.5209  0.2816 -0.5750
 2824SOL    HW211068   5.498   1.541   5.232  0.0384 -0.6021 -0.9829
 2824SOL    HW311069   5.491   1.578   5.086  2.0108  2.3957 -0.4067
 2824SOL    MW411070   5.462   1.587   5.168  0.6538  0.4440 -0.6066
 2825SOL     OW11071   1.956   5.324   1.345 -0.6082  0.4192 -0.4907
 2825SOL    HW211072   1.888   5.322   1.413 -1.2315 -0.1344 -1.1248
 2825SOL    HW311073   1.915   5.368   1.271 -0.2633  0.1196 -0.8630
 2825SOL    MW411074   1.942   5.329   1.344 -0.6449  0.3066 -0.6234
 2826SOL     OW11075   5.384   1.917   1.822  0.5967 -0.0680 -0.8570
 2826SOL    HW211076   5.477   1.896   1.815  0.3874 -1.3431 -0.0688
 2826SOL    HW311077   5.344   1.838   1.857 -0.1938  1.7362  2.7817
 2826SOL    MW411078   5.391   1.904   1.826  0.4648  0.0018 -0.2729
 2827SOL     OW11079   3.635   1.996   2.984 -0.3078  0.0643  0.1167
 2827SOL    HW211080   3.712   2.052   2.997  0.3464 -1.0533  1.2556
 2827SOL    HW311081   3.669   1.907   2.992 -1.6012 -0.4600 -0.0923
 2827SOL    MW411082   3.650   1.992   2.987 -0.3921 -0.1523  0.2394
 2828SOL     OW11083   3.481   6.282   2.147  0.2731  0.1610 -0.0204
 2828SOL    HW211084   3.564   6.254   2.186 -0.3579 -2.0113 -0.0778
 2828SOL    HW311085   3.449   6.351   2.205  2.3516  1.4461 -0.3191
 2828SOL    MW411086   3.487   6.288   2.160  0.4641  0.0440 -0.0674
 2829SOL     OW11087   1.851   5.813   2.664 -0.7976 -0.0219 -0.2796
 2829SOL    HW211088   1.919   5.836   2.601 -0.1451 -0.0105  0.4152
 2829SOL    HW311089   1.809   5.897   2.685 -0.2283  0.1638  0.1794
 2829SOL    MW411090   1.855   5.827   2.659 -0.6364  0.0041 -0.1274
 2830SOL     OW11091   4.778   3.030   6.064  0.1941  0.0467 -0.1491
 2830SOL    HW211092   4.685   3.039   6.043  0.4698  2.5017 -0.5921
 2830SOL    HW311093   4.824   3.069   5.989  1.6397 -1.4687 -0.1317
 2830SOL    MW411094   4.772   3.036   6.051  0.4212  0.1707 -0.2053
 2831SOL     OW11095   5.172   3.711   3.289 -0.3044 -0.0851 -0.2806
 2831SOL    HW211096   5.210   3.685   3.204  0.6219  0.9641 -0.2136
 2831SOL    HW311097   5.104   3.774   3.267 -0.4637 -0.2577 -0.2800
 2831SOL    MW411098   5.168   3.716   3.275 -0.2032  0.0305 -0.2717
 2832SOL     OW11099   4.320   1.992   5.156  0.4528 -0.0351 -0.6423
 2832SOL    HW211100   4.242   2.046   5.142  0.8421  0.4806 -0.8382
 2832SOL    HW311101   4.394   2.053   5.149  0.9019 -0.5983 -0.9024
 2832SOL    MW411102   4.320   2.007   5.153  0.5634 -0.0414 -0.7025
 2833SOL     OW11103   5.509   0.523   2.770 -0.1499 -0.0495 -0.1228
 2833SOL    HW211104   5.587   0.469   2.782  0.8559  1.0959 -1.2406
 2833SOL    HW311105   5.483   0.508   2.680  0.4465  1.6645 -0.6203
 2833SOL    MW411106   5.516   0.514   2.760  0.0615  0.3277 -0.3359
 2834SOL     OW11107   1.220   2.740   5.638  0.2671  0.7271 -0.1336
 2834SOL    HW211108   1.196   2.779   5.721 -1.8484 -0.1886 -0.2445
 2834SOL    HW311109   1.211   2.645   5.652  1.3199  0.4720 -0.9958
 2834SOL    MW411110   1.215   2.732   5.651  0.1269  0.5726 -0.2620
 2835SOL     OW11111   2.693   0.414   6.332 -0.0312 -0.8284 -0.1921
 2835SOL    HW211112   2.720   0.506   6.332  0.7131 -1.0162 -1.9506
 2835SOL    HW311113   2.599   0.417   6.346  0.0329  0.1785  0.1363
 2835SOL    MW411114   2.684   0.427   6.334  0.0754 -0.7203 -0.3808
 2836SOL     OW11115   3.215   1.573   4.391  0.2930 -0.0910 -0.6068
 2836SOL    HW211116   3.242   1.483   4.375 -0.3204 -0.2370 -0.8795
 2836SOL    HW311117   3.119   1.569   4.396  0.2514  0.5605 -0.7057
 2836SOL    MW411118   3.206   1.561   4.390  0.2066 -0.0243 -0.6558
 2837SOL     OW11119   4.881   4.528   3.757  0.7436 -0.3407  0.6779
 2837SOL    HW211120   4.936   4.548   3.833  1.8987  1.4180 -0.5329
 2837SOL    HW311121   4.940   4.537   3.683 -1.0800  1.1788 -0.6689
 2837SOL    MW411122   4.896   4.532   3.757  0.6554  0.0918  0.3404
 2838SOL     OW11123   4.343   5.643   0.265  0.0443  0.2798  0.0982
 2838SOL    HW211124   4.415   5.649   0.327 -0.3175  0.9311  0.4687
 2838SOL    HW311125   4.268   5.617   0.318  0.4226 -2.5424 -0.6215
 2838SOL    MW411126   4.343   5.641   0.280  0.0465 -0.0066  0.0521
 2839SOL     OW11127   0.721   2.605   3.855 -0.2455  0.1547  0.1604
 2839SOL    HW211128   0.651   2.550   3.819 -1.3997 -0.7724  3.4121
 2839SOL    HW311129   0.794   2.545   3.867 -0.7543 -0.2160  1.6418
 2839SOL    MW411130   0.721   2.590   3.852 -0.4649 -0.0165  0.7849
 2840SOL     OW11131   1.014   4.499   6.208  0.0712  0.1682  0.0175
 2840SOL    HW211132   1.013   4.484   6.302  0.0865  0.4381  0.0624
 2840SOL    HW311133   1.061   4.425   6.171 -0.6391 -0.3617  0.1453
 2840SOL    MW411134   1.020   4.488   6.215 -0.0205  0.1339  0.0403
 2841SOL     OW11135   2.046   0.189   2.236  0.3143  0.0607  0.7131
 2841SOL    HW211136   1.992   0.133   2.180  0.2158  1.1539 -0.3139
 2841SOL    HW311137   2.022   0.163   2.325 -1.4720  0.0991  0.2819
 2841SOL    MW411138   2.036   0.178   2.240  0.0656  0.2100  0.5207
 2842SOL     OW11139   6.432   3.759   3.329  0.0901  0.2089 -0.3597
 2842SOL    HW211140   6.365   3.714   3.381  0.0212  0.0254 -0.6090
 2842SOL    HW311141   6.444   3.843   3.373  0.0890  0.0218  0.0029
 2842SOL    MW411142   6.425   3.764   3.342  0.0809  0.1600 -0.3448
 2843SOL     OW11143   4.305   6.209   0.561  0.2327  0.2685  0.0192
 2843SOL    HW211144   4.283   6.117   0.577  0.6263  0.1001 -0.3853
 2843SOL    HW311145   4.306   6.218   0.466  0.0059  0.7405  0.0567
 2843SOL    MW411146   4.302   6.198   0.551  0.2547  0.3086 -0.0292
 2844SOL     OW11147   1.881   2.406   5.519 -0.2223  0.3664  0.4674
 2844SOL    HW211148   1.868   2.455   5.438  0.7278  1.5899  1.0247
 2844SOL    HW311149   1.935   2.331   5.492 -2.4226 -0.9494 -0.5468
 2844SOL    MW411150   1.887   2.402   5.505 -0.3872  0.3542  0.4071
 2845SOL     OW11151   1.023   0.844   0.240  0.0838 -0.0326  0.1988
 2845SOL    HW211152   1.055   0.899   0.168  0.4726 -2.3810 -1.5401
 2845SOL    HW311153   1.100   0.828   0.295  0.0814  0.6774  0.4245
 2845SOL    MW411154   1.037   0.850   0.238  0.1348 -0.2488 -0.0008
 2846SOL     OW11155   3.194   6.411   3.019 -0.1744 -0.0004  0.0774
 2846SOL    HW211156   3.197   6.428   3.113  1.0818  0.9097 -0.0937
 2846SOL    HW311157   3.286   6.415   2.992 -0.4889 -0.6136 -1.1259
 2846SOL    MW411158   3.207   6.414   3.028 -0.0502  0.0387 -0.1039
 2847SOL     OW11159   4.989   1.408   1.181 -0.0072  0.1101 -0.3696
 2847SOL    HW211160   4.933   1.478   1.215  0.2182  0.3846 -0.5594
 2847SOL    HW311161   4.976   1.335   1.242  0.6135  0.6925  0.4922
 2847SOL    MW411162   4.980   1.408   1.194  0.1044  0.2232 -0.2810
 2848SOL     OW11163   0.775   5.274   1.866  0.2252 -0.0034  0.3270
 2848SOL    HW211164   0.769   5.306   1.776 -2.3064  0.9255  0.7361
 2848SOL    HW311165   0.802   5.183   1.857 -0.8850 -0.2153 -1.4831
 2848SOL    MW411166   0.778   5.266   1.853 -0.2553  0.0912  0.1421
 2849SOL     OW11167   3.166   0.056   4.872  0.2276 -0.1758  0.5026
 2849SOL    HW211168   3.130  -0.001   4.803 -0.3048  0.2964  0.3820
 2849SOL    HW311169   3.257   0.026   4.882  0.0628 -0.8139  0.1991
 2849SOL    MW411170   3.173   0.044   4.864  0.1356 -0.1977  0.4467
 2850SOL     OW11171   4.844   1.772   0.637  0.4513  0.4493  0.2764
 2850SOL    HW211172   4.835   1.769   0.732 -0.2394  0.7098  0.2216
 2850SOL    HW311173   4.905   1.845   0.621 -0.6700  1.4603  0.4500
 2850SOL    MW411174   4.851   1.781   0.648  0.2122  0.6171  0.2920
 2851SOL     OW11175   5.758   6.354   2.241  0.5592  0.0216 -0.1635
 2851SOL    HW211176   5.783   6.430   2.293 -1.6320  2.0064 -1.8038
 2851SOL    HW311177   5.783   6.377   2.151  0.8160 -1.6931 -0.5751
 2851SOL    MW411178   5.765   6.367   2.236  0.3040  0.0573 -0.4342
 2852SOL     OW11179   5.989   5.286   5.923 -0.3116  0.7505 -0.1226
 2852SOL    HW211180   5.916   5.249   5.874 -0.8864 -1.1561  2.0050
 2852SOL    HW311181   5.974   5.257   6.013  1.1864  3.2649  1.0461
 2852SOL    MW411182   5.977   5.278   5.929 -0.1898  0.8307  0.3123
 2853SOL     OW11183   5.707   1.454   2.736 -0.2798 -0.1729  0.8478
 2853SOL    HW211184   5.742   1.373   2.772 -0.9985  0.0242  2.0627
 2853SOL    HW311185   5.760   1.472   2.658  0.0281 -1.6779  0.6925
 2853SOL    MW411186   5.719   1.446   2.731 -0.3340 -0.3455  0.9876
 2854SOL     OW11187   3.608   4.489   4.191  0.4551  0.1487 -0.2682
 2854SOL    HW211188   3.513   4.494   4.175  0.3741  1.1001  0.4583
 2854SOL    HW311189   3.643   4.454   4.109 -0.3566  1.3072 -1.1441
 2854SOL    MW411190   3.600   4.485   4.178  0.3373  0.4271 -0.2879
 2855SOL     OW11191   5.107   5.357   3.723 -0.1197  0.0989 -0.0230
 2855SOL    HW211192   5.185   5.366   3.777  1.6955 -0.3911 -2.3819
 2855SOL    HW311193   5.075   5.268   3.741  0.0182  0.2002  0.7485
 2855SOL    MW411194   5.113   5.346   3.732  0.1380  0.0476 -0.2324
 2856SOL     OW11195   0.515   1.090   3.715  0.3434  0.1502  0.0018
 2856SOL    HW211196   0.587   1.063   3.772 -0.2005  0.4388  0.8492
 2856SOL    HW311197   0.508   1.184   3.728  0.1796  0.2121 -0.5139
 2856SOL    MW411198   0.524   1.099   3.724  0.2500  0.1965  0.0456
 2857SOL     OW11199   6.394   0.628   0.622  0.1389 -0.1597 -0.5025
 2857SOL    HW211200   6.307   0.628   0.663  0.3053  1.9641 -0.0098
 2857SOL    HW311201   6.376   0.617   0.529 -0.7747  1.0556 -0.5108
 2857SOL    MW411202   6.380   0.627   0.615  0.0403  0.2808 -0.4386
 2858SOL     OW11203   3.748   1.413   5.260 -0.1122 -0.3693 -0.3289
 2858SOL    HW211204   3.683   1.440   5.196  0.5144 -0.3841 -0.9795
 2858SOL    HW311205   3.832   1.437   5.222  0.1915  1.8886  1.5323
 2858SOL    MW411206   3.751   1.420   5.247  0.0105 -0.0734 -0.1692
 2859SOL     OW11207   2.834   1.297   0.115 -0.1859  0.1430 -0.1690
 2859SOL    HW211208   2.754   1.258   0.081  0.8551 -0.9103 -1.5275
 2859SOL    HW311209   2.852   1.372   0.058  0.3501 -0.2665 -0.5503
 2859SOL    MW411210   2.826   1.302   0.103  0.0222 -0.0500 -0.3985
 2860SOL     OW11211   4.059   6.136   5.486 -0.0631  0.3269 -0.2531
 2860SOL    HW211212   4.089   6.212   5.436 -1.3735  0.4580 -0.9051
 2860SOL    HW311213   3.997   6.092   5.427  0.9660 -1.4826 -0.0395
 2860SOL    MW411214   4.055   6.140   5.472 -0.1002  0.1054 -0.3109
 2861SOL     OW11215   1.444   1.583   2.820  0.2954  0.3070 -0.4691
 2861SOL    HW211216   1.406   1.496   2.819  1.9173 -0.4606  0.2564
 2861SOL    HW311217   1.426   1.617   2.907 -1.3819  1.2350 -1.1311
 2861SOL    MW411218   1.437   1.576   2.831  0.2881  0.3282 -0.4607
 2862SOL     OW11219   6.433   2.957   6.114  0.0240 -0.4551  0.1454
 2862SOL    HW211220   6.386   3.021   6.061 -0.1647  0.5322  1.4580
 2862SOL    HW311221   6.524   2.988   6.114  0.5553 -1.8293 -1.5904
 2862SOL    MW411222   6.439   2.970   6.107  0.0692 -0.5062  0.0896
 2863SOL     OW11223   2.428   2.122   5.979 -0.0027  0.2596 -0.0522
 2863SOL    HW211224   2.364   2.082   5.920  1.5452 -3.3889  0.4650
 2863SOL    HW311225   2.451   2.052   6.041  2.4989  2.2175  1.4448
 2863SOL    MW411226   2.423   2.108   5.980  0.5316  0.0366  0.2135
 2864SOL     OW11227   5.672   2.740   5.598 -0.2708 -0.6252 -0.1578
 2864SOL    HW211228   5.637   2.819   5.558  0.1662 -0.2192  0.2505
 2864SOL    HW311229   5.654   2.750   5.691  3.4069  0.9803  0.5281
 2864SOL    MW411230   5.665   2.751   5.605  0.2721 -0.3598 -0.0134
 2865SOL     OW11231   6.255   1.624   4.728 -0.1227  0.7225 -0.1926
 2865SOL    HW211232   6.344   1.587   4.735 -0.3870  0.0357 -0.3437
 2865SOL    HW311233   6.217   1.609   4.815 -0.8426 -1.0189 -0.7612
 2865SOL    MW411234   6.262   1.617   4.741 -0.2525  0.4021 -0.2876
 2866SOL     OW11235   3.574   0.225   5.180 -0.1120 -0.0496 -0.0519
 2866SOL    HW211236   3.629   0.154   5.145 -0.1010 -0.3321  0.5310
 2866SOL    HW311237   3.494   0.182   5.208  0.1627  0.0566  0.9342
 2866SOL    MW411238   3.571   0.210   5.179 -0.0743 -0.0728  0.1551
 2867SOL     OW11239   0.135   0.252   2.423 -0.1108  0.1207  0.4936
 2867SOL    HW211240   0.073   0.282   2.490 -2.1466  0.0719 -1.2368
 2867SOL    HW311241   0.104   0.165   2.399 -0.6046  0.8440 -1.7398
 2867SOL    MW411242   0.123   0.245   2.429 -0.4445  0.2097 -0.0294
 2868SOL     OW11243   5.530   4.225   0.143  0.1695 -0.7682  0.1894
 2868SOL    HW211244   5.625   4.218   0.141  0.2802  0.4934 -1.7083
 2868SOL    HW311245   5.512   4.295   0.207  0.6439  0.1751 -0.6866
 2868SOL    MW411246   5.540   4.233   0.151  0.2467 -0.4773 -0.1766
 2869SOL     OW11247   1.897   4.848   1.583 -0.0122  0.3718  0.0260
 2869SOL    HW211248   1.989   4.831   1.603 -0.8635 -1.7685  2.7088
 2869SOL    HW311249   1.878   4.933   1.624  0.5077  0.3463  0.3206
 2869SOL    MW411250   1.907   4.857   1.591 -0.0559  0.0861  0.4189
 2870SOL     OW11251   2.164   4.301   1.510  0.5859  0.7681  0.3317
 2870SOL    HW211252   2.115   4.362   1.454 -0.4473 -0.9048 -0.6817
 2870SOL    HW311253   2.101   4.276   1.577  0.6036 -0.0550  0.0521
 2870SOL    MW411254   2.149   4.306   1.511  0.4520  0.4387  0.1611
 2871SOL     OW11255   3.617   3.343   5.433  0.0689  0.2884  0.5086
 2871SOL    HW211256   3.635   3.408   5.500  3.9394  0.7711 -0.7257
 2871SOL    HW311257   3.568   3.390   5.366  1.7614  1.7040  0.1891
 2871SOL    MW411258   3.613   3.357   5.433  0.8029  0.5388  0.3036
 2872SOL     OW11259   3.929   1.465   0.386 -0.3318 -0.1950  0.2678
 2872SOL    HW211260   3.993   1.441   0.319  1.5528 -0.8525  2.1910
 2872SOL    HW311261   3.851   1.412   0.366  1.0755 -2.2779  0.0238
 2872SOL    MW411262   3.927   1.455   0.375  0.1025 -0.5566  0.4893
 2873SOL     OW11263   2.500   0.999   4.133 -0.0119  0.0288  0.7435
 2873SOL    HW211264   2.422   1.035   4.175 -0.3059  1.4361 -0.8848
 2873SOL    HW311265   2.572   1.053   4.165 -0.2316  1.0801 -0.4668
 2873SOL    MW411266   2.499   1.010   4.143 -0.0797  0.3532  0.3690
 2874SOL     OW11267   1.625   2.541   1.190 -0.2266 -0.4695 -0.2349
 2874SOL    HW211268   1.598   2.529   1.281 -2.1326 -0.2030 -0.7071
 2874SOL    HW311269   1.643   2.452   1.158 -1.1698 -0.7474 -0.0323
 2874SOL    MW411270   1.624   2.528   1.198 -0.6026 -0.4710 -0.2705
 2875SOL     OW11271   1.917   5.782   3.077  0.0409 -0.1907  0.0853
 2875SOL    HW211272   1.941   5.791   2.985 -0.7540 -0.1495 -0.1232
 2875SOL    HW311273   1.822   5.774   3.076  0.1276 -1.5247  0.7985
 2875SOL    MW411274   1.908   5.782   3.065 -0.0526 -0.3613  0.1519
 2876SOL     OW11275   1.091   1.766   1.920  0.0353  0.6534 -0.3378
 2876SOL    HW211276   1.001   1.772   1.951 -0.2013  0.5085 -0.9775
 2876SOL    HW311277   1.124   1.684   1.957  0.1947  1.1178  0.5983
 2876SOL    MW411278   1.084   1.756   1.929  0.0251  0.6956 -0.2987
 2877SOL     OW11279   0.995   1.762   6.154  0.0343  0.1062  0.1488
 2877SOL    HW211280   1.043   1.760   6.072 -0.4586  1.0870 -0.1750
 2877SOL    HW311281   0.905   1.784   6.130  0.1673  1.8455  1.0387
 2877SOL    MW411282   0.990   1.765   6.140 -0.0132  0.4651  0.2235
 2878SOL     OW11283   0.667   0.158   3.127 -0.1090 -0.7461 -0.6302
 2878SOL    HW211284   0.719   0.219   3.074  0.2611 -0.9844 -0.5460
 2878SOL    HW311285   0.578   0.165   3.091 -0.0726 -0.1481 -0.6078
 2878SOL    MW411286   0.662   0.167   3.115 -0.0553 -0.6986 -0.6161
 2879SOL     OW11287   1.974   2.908   2.007  0.0797  0.6359 -0.4243
 2879SOL    HW211288   1.968   2.995   1.966  0.9653  0.7620 -0.3070
 2879SOL    HW311289   2.038   2.861   1.954 -0.2659  0.1125 -0.3785
 2879SOL    MW411290   1.982   2.913   1.995  0.1509  0.5835 -0.4028
 2880SOL     OW11291   4.143   1.941   4.140 -0.4884 -0.0758 -0.0891
 2880SOL    HW211292   4.220   1.963   4.193 -0.1945  0.3285 -0.6759
 2880SOL    HW311293   4.083   1.897   4.202  0.4709 -0.9904  0.2138
 2880SOL    MW411294   4.145   1.938   4.155 -0.3230 -0.1431 -0.1266
 2881SOL     OW11295   2.317   5.437   4.051  0.0829  0.0913  0.5223
 2881SOL    HW211296   2.259   5.378   4.100  0.4198 -0.2629  0.5025
 2881SOL    HW311297   2.292   5.424   3.960 -2.3314  2.6403  0.6822
 2881SOL    MW411298   2.306   5.427   4.046 -0.1912  0.3809  0.5408
 2882SOL     OW11299   0.317   3.154   2.184  0.2644 -0.3027 -0.4975
 2882SOL    HW211300   0.280   3.197   2.107  0.4889 -0.4682 -0.6986
 2882SOL    HW311301   0.296   3.061   2.172 -0.3160 -0.2393 -0.0125
 2882SOL    MW411302   0.309   3.148   2.172  0.2174 -0.3162 -0.4601
 2883SOL     OW11303   0.942   5.732   1.603 -0.1475 -0.4444 -0.1390
 2883SOL    HW211304   1.032   5.706   1.585  0.8377  2.1806  0.5061
 2883SOL    HW311305   0.901   5.741   1.517  0.8055  0.1859 -0.5358
 2883SOL    MW411306   0.948   5.730   1.589  0.1082 -0.0149 -0.1062
 2884SOL     OW11307   0.946   3.656   0.174 -0.3633  0.6148 -0.0745
 2884SOL    HW211308   1.035   3.670   0.208 -1.0312  1.2144  1.5495
 2884SOL    HW311309   0.955   3.665   0.080  1.6095 -1.1274 -0.1375
 2884SOL    MW411310   0.959   3.659   0.166 -0.1912  0.4640  0.1315
 2885SOL     OW11311   3.784   0.764   3.069 -0.0295  0.0451  0.2169
 2885SOL    HW211312   3.752   0.830   3.007 -0.5573  0.0722  0.5156
 2885SOL    HW311313   3.825   0.697   3.014  0.2431  0.4763 -0.1063
 2885SOL    MW411314   3.785   0.764   3.054 -0.0632  0.1056  0.2136
 2886SOL     OW11315   3.294   4.251   1.620 -0.1443 -0.3858  0.1329
 2886SOL    HW211316   3.206   4.244   1.657 -0.4882 -1.3290 -0.8271
 2886SOL    HW311317   3.282   4.302   1.540  0.4235  0.6734  0.6908
 2886SOL    MW411318   3.281   4.257   1.615 -0.1148 -0.3705  0.0799
 2887SOL     OW11319   5.474   1.488   4.913 -0.0494  0.3232  0.3402
 2887SOL    HW211320   5.533   1.417   4.938  0.1889  0.6070  0.6092
 2887SOL    HW311321   5.415   1.450   4.849 -0.0506 -0.1673  0.6282
 2887SOL    MW411322   5.474   1.474   4.908 -0.0181  0.2959  0.4137
 2888SOL     OW11323   0.814   3.158   4.958 -0.1291  0.6211 -0.0270
 2888SOL    HW211324   0.777   3.151   4.870  0.3067 -1.9025 -0.0846
 2888SOL    HW311325   0.882   3.092   4.961 -1.8532 -1.2544  2.9911
 2888SOL    MW411326   0.818   3.149   4.947 -0.2991  0.0407  0.3636
 2889SOL     OW11327   2.195   4.110   3.723  0.2710  0.4131  0.1105
 2889SOL    HW211328   2.227   4.189   3.681 -0.1572 -0.0373 -1.1218
 2889SOL    HW311329   2.129   4.075   3.662  0.8855 -1.2159  0.3090
 2889SOL    MW411330   2.190   4.116   3.709  0.2956  0.1387 -0.0259
 2890SOL     OW11331   5.704   3.239   3.464 -0.0331  0.1355  0.4391
 2890SOL    HW211332   5.681   3.288   3.385  0.2418  0.0710  0.3161
 2890SOL    HW311333   5.698   3.147   3.437 -0.6245  0.0963  0.6907
 2890SOL    MW411334   5.700   3.233   3.450 -0.0749  0.1218  0.4561
 2891SOL     OW11335   1.906   4.936   4.354 -0.2564 -0.0761 -0.4000
 2891SOL    HW211336   1.933   4.947   4.445 -1.4205 -1.4831  0.1592
 2891SOL    HW311337   1.988   4.931   4.305  0.4024  2.5637  0.2607
 2891SOL    MW411338   1.920   4.937   4.359 -0.3230  0.0865 -0.2390
 2892SOL     OW11339   2.749   4.276   3.107  0.3228 -0.1065  0.1009
 2892SOL    HW211340   2.803   4.351   3.082 -0.2879 -0.2488 -1.8457
 2892SOL    HW311341   2.712   4.245   3.024  0.2415 -2.3169  0.9007
 2892SOL    MW411342   2.752   4.281   3.092  0.2315 -0.4169 -0.0504
 2893SOL     OW11343   4.509   3.656   5.049 -0.3574 -0.8568  0.3715
 2893SOL    HW211344   4.420   3.633   5.022  0.0038 -1.1744 -0.5818
 2893SOL    HW311345   4.565   3.608   4.989  0.4473  0.3219  0.1530
 2893SOL    MW411346   4.504   3.647   5.037 -0.2036 -0.7432  0.2169
 2894SOL     OW11347   6.063   2.504   1.332  0.1063 -0.4464  0.2908
 2894SOL    HW211348   6.014   2.440   1.282  0.9317 -1.0181  0.1922
 2894SOL    HW311349   6.102   2.561   1.266 -1.1657  0.5909  0.3958
 2894SOL    MW411350   6.062   2.503   1.317  0.0474 -0.3850  0.2916
 2895SOL     OW11351   0.649   0.096   4.536  0.1945 -0.3879 -0.2454
 2895SOL    HW211352   0.561   0.125   4.560 -0.0153 -2.1078  1.2630
 2895SOL    HW311353   0.660   0.013   4.582  2.6572 -0.1610 -0.3150
 2895SOL    MW411354   0.639   0.089   4.545  0.4917 -0.5849 -0.0556
 2896SOL     OW11355   1.454   4.478   5.682  0.6170  0.1241 -0.2883
 2896SOL    HW211356   1.490   4.486   5.770 -0.5225 -0.9053  0.3016
 2896SOL    HW311357   1.505   4.407   5.642 -1.6939 -2.5680  1.1473
 2896SOL    MW411358   1.465   4.470   5.688  0.1617 -0.3669 -0.0211
 2897SOL     OW11359   5.292   4.183   1.964  0.4913 -0.2770 -0.8549
 2897SOL    HW211360   5.259   4.169   1.875  0.3218 -0.8433 -0.7092
 2897SOL    HW311361   5.264   4.105   2.012 -0.2200  0.4577 -0.0645
 2897SOL    MW411362   5.284   4.171   1.959  0.3751 -0.2548 -0.7314
 2898SOL     OW11363   2.590   5.214   0.413  0.4149 -0.1928 -0.1269
 2898SOL    HW211364   2.531   5.183   0.483 -0.3662  0.8236 -0.3159
 2898SOL    HW311365   2.597   5.308   0.427  1.7502 -0.2505 -0.3185
 2898SOL    MW411366   2.583   5.222   0.424  0.4880 -0.0663 -0.1771
 2899SOL     OW11367   3.969   5.198   2.374 -0.8838  0.4952  0.1313
 2899SOL    HW211368   4.055   5.157   2.388 -1.0534  0.4216  1.0265
 2899SOL    HW311369   3.986   5.268   2.311 -0.1203  0.6119  0.4540
 2899SOL    MW411370   3.983   5.202   2.368 -0.8054  0.5009  0.2920
 2900SOL     OW11371   3.384   0.065   5.605 -0.2538  0.5147  0.5637
 2900SOL    HW211372   3.464   0.102   5.568 -0.0965  0.4868  0.8751
 2900SOL    HW311373   3.374  -0.019   5.561 -0.5557  0.8730 -0.0726
 2900SOL    MW411374   3.393   0.059   5.594 -0.2729  0.5583  0.5208
 2901SOL     OW11375   2.850   3.300   2.684  0.2527 -0.3764  0.1455
 2901SOL    HW211376   2.777   3.360   2.694 -0.5993 -1.6512  2.1504
 2901SOL    HW311377   2.811   3.221   2.646  0.8468 -0.6094  0.0068
 2901SOL    MW411378   2.835   3.297   2.680  0.2187 -0.5753  0.3917
 2902SOL     OW11379   0.056   5.591   0.667 -0.4539 -0.6271  0.0229
 2902SOL    HW211380   0.127   5.549   0.618 -0.9350 -0.3162 -0.9618
 2902SOL    HW311381   0.069   5.685   0.651  0.4530 -0.3803  1.9815
 2902SOL    MW411382   0.067   5.598   0.658 -0.3977 -0.5535  0.1514
 2903SOL     OW11383   4.530   0.398   5.064  0.1622 -0.4694  0.2307
 2903SOL    HW211384   4.479   0.353   4.997  0.1302  0.0285 -0.0842
 2903SOL    HW311385   4.591   0.331   5.097  0.1580 -0.7217 -0.2712
 2903SOL    MW411386   4.531   0.383   5.060  0.1574 -0.4370  0.1229
 2904SOL     OW11387   1.329   3.327   3.904  0.3446  0.4848 -0.3103
 2904SOL    HW211388   1.396   3.313   3.971 -1.4107 -0.4182  1.3428
 2904SOL    HW311389   1.282   3.244   3.901 -2.2423  1.8369  0.3756
 2904SOL    MW411390   1.332   3.314   3.913 -0.2283  0.5441 -0.0017
 2905SOL     OW11391   1.400   6.344   4.004 -0.0647  0.0453  0.3176
 2905SOL    HW211392   1.381   6.254   3.977 -1.0978  0.0663  0.9449
 2905SOL    HW311393   1.465   6.334   4.073  1.1962 -0.1041 -0.8454
 2905SOL    MW411394   1.406   6.330   4.009 -0.0347  0.0283  0.2469
 2906SOL     OW11395   5.654   6.347   3.008 -0.2570 -0.3360  0.0142
 2906SOL    HW211396   5.591   6.400   3.058  0.2045  1.1581 -0.8999
 2906SOL    HW311397   5.726   6.331   3.068  0.1614  1.1960 -0.0216
 2906SOL    MW411398   5.655   6.352   3.022 -0.1409  0.0632 -0.1111
 2907SOL     OW11399   5.948   1.983   5.877  0.5925  0.1601 -0.2210
 2907SOL    HW211400   5.945   2.056   5.815 -0.4427  1.2725  1.0723
 2907SOL    HW311401   6.039   1.982   5.908  0.5221  1.1643  0.0363
 2907SOL    MW411402   5.960   1.992   5.873  0.4466  0.4394 -0.0164
 2908SOL     OW11403   2.587   3.607   1.397 -0.2077  0.2258 -0.5798
 2908SOL    HW211404   2.618   3.653   1.475  0.1802 -0.2859 -0.4265
 2908SOL    HW311405   2.667   3.580   1.352 -0.3791 -1.9405  0.2976
 2908SOL    MW411406   2.602   3.610   1.401 -0.1792 -0.1275 -0.4438
 2909SOL     OW11407   4.275   2.037   1.512  0.1301  0.1120  0.0974
 2909SOL    HW211408   4.242   2.053   1.424  0.5314 -2.5704 -0.6410
 2909SOL    HW311409   4.214   1.972   1.548  3.4267 -3.8986 -0.7744
 2909SOL    MW411410   4.263   2.030   1.505  0.6180 -0.7711 -0.1151
 2910SOL     OW11411   2.571   3.639   3.553 -0.1934  0.5001  0.5367
 2910SOL    HW211412   2.586   3.555   3.597  0.0299 -0.2583 -0.9202
 2910SOL    HW311413   2.648   3.692   3.576 -1.6883  1.4770  3.8976
 2910SOL    MW411414   2.583   3.635   3.562 -0.3612  0.5289  0.7879
 2911SOL     OW11415   2.481   2.915   0.691  0.3230  0.2320 -0.6752
 2911SOL    HW211416   2.417   2.858   0.733 -0.7173  2.2216  0.5963
 2911SOL    HW311417   2.440   2.942   0.609 -0.4499  1.3672  0.0589
 2911SOL    MW411418   2.467   2.911   0.686  0.0838  0.6443 -0.4106
 2912SOL     OW11419   4.461   5.616   0.709  0.6288 -0.3715 -0.1001
 2912SOL    HW211420   4.539   5.574   0.745  1.3395  1.1865  0.2704
 2912SOL    HW311421   4.479   5.624   0.615  1.2873  0.6489  0.0864
 2912SOL    MW411422   4.474   5.612   0.701  0.8094 -0.0313 -0.0266
 2913SOL     OW11423   3.019   2.791   5.833  0.3872 -0.0778 -0.5086
 2913SOL    HW211424   2.967   2.742   5.769  0.4123 -2.7944  1.3730
 2913SOL    HW311425   2.954   2.836   5.887  0.2890  0.6529 -1.2095
 2913SOL    MW411426   3.004   2.791   5.831  0.3775 -0.3398 -0.3528
 2914SOL     OW11427   4.340   5.732   4.879 -0.5124  0.1828 -0.3839
 2914SOL    HW211428   4.354   5.637   4.881 -0.2612  0.2236  0.2542
 2914SOL    HW311429   4.393   5.765   4.952 -0.9756  0.7629 -0.3043
 2914SOL    MW411430   4.349   5.724   4.889 -0.5403  0.2647 -0.2892
 2915SOL     OW11431   1.059   3.710   0.682  0.4040 -0.0549  0.9253
 2915SOL    HW211432   1.097   3.738   0.765  1.0081  0.9148  0.3485
 2915SOL    HW311433   0.973   3.752   0.680  0.4111 -0.0345  1.0363
 2915SOL    MW411434   1.053   3.720   0.693  0.4847  0.0758  0.8639
 2916SOL     OW11435   1.242   4.259   2.098 -1.0740  0.3189  0.4339
 2916SOL    HW211436   1.219   4.214   2.017 -1.1992  0.3026  0.4771
 2916SOL    HW311437   1.243   4.352   2.075 -1.7877  0.3647  0.5708
 2916SOL    MW411438   1.239   4.265   2.085 -1.1847  0.3228  0.4576
 2917SOL     OW11439   4.156   3.277   4.024 -0.2853 -0.5335  0.3752
 2917SOL    HW211440   4.178   3.192   4.064 -0.8589 -0.2004  1.4130
 2917SOL    HW311441   4.164   3.340   4.095 -0.3664  0.2196 -0.2711
 2917SOL    MW411442   4.160   3.274   4.038 -0.3717 -0.3902  0.4269
 2918SOL     OW11443   4.294   1.616   2.792 -0.4804 -0.5003  0.2907
 2918SOL    HW211444   4.243   1.574   2.861  0.0415 -1.3721  0.1607
 2918SOL    HW311445   4.233   1.678   2.751 -0.9756 -0.4265  1.1175
 2918SOL    MW411446   4.279   1.619   2.795 -0.4769 -0.6056  0.3826
 2919SOL     OW11447   5.266   4.354   5.484  0.0590 -0.1215 -0.0158
 2919SOL    HW211448   5.260   4.428   5.424 -0.4137  0.2729  0.5080
 2919SOL    HW311449   5.351   4.365   5.527  0.8113 -0.9047 -1.2337
 2919SOL    MW411450   5.276   4.365   5.481  0.0959 -0.1728 -0.1074
 2920SOL     OW11451   6.032   0.966   4.919  0.4006 -0.8984  0.0686
 2920SOL    HW211452   5.999   1.055   4.930  1.5876 -0.3058 -0.9377
 2920SOL    HW311453   6.016   0.924   5.004 -0.7811  0.0497  0.3465
 2920SOL    MW411454   6.025   0.972   4.932  0.4013 -0.6952 -0.0275
 2921SOL     OW11455   5.364   1.450   5.902 -0.8392 -0.6103  0.0429
 2921SOL    HW211456   5.404   1.389   5.840  2.8816  1.7388 -0.2280
 2921SOL    HW311457   5.392   1.419   5.988 -0.3742 -0.2459  0.0266
 2921SOL    MW411458   5.373   1.438   5.905 -0.2869 -0.2523  0.0050
 2922SOL     OW11459   5.048   3.706   2.950  0.1044 -0.8608  0.1591
 2922SOL    HW211460   4.957   3.737   2.942 -0.4390 -2.5687 -0.8343
 2922SOL    HW311461   5.040   3.611   2.959  1.8398 -1.1803 -1.2397
 2922SOL    MW411462   5.035   3.698   2.950  0.2616 -1.1283 -0.1565
 2923SOL     OW11463   5.033   0.567   3.076  0.0021  0.4158 -0.0754
 2923SOL    HW211464   5.080   0.603   3.001 -0.7865  1.2316 -0.2063
 2923SOL    HW311465   5.094   0.506   3.116  0.9414  0.9926 -0.5824
 2923SOL    MW411466   5.047   0.564   3.072  0.0220  0.5996 -0.1595
 2924SOL     OW11467   0.215   3.685   3.506  0.3057  0.1221  0.0029
 2924SOL    HW211468   0.180   3.706   3.419  2.9892 -0.6854 -1.3817
 2924SOL    HW311469   0.160   3.613   3.537 -1.0739  0.8200 -0.7301
 2924SOL    MW411470   0.203   3.678   3.499  0.4777  0.1077 -0.2765
 2925SOL     OW11471   2.988   3.764   2.117  0.3597  0.1050 -0.3498
 2925SOL    HW211472   2.931   3.841   2.116  1.3770  0.9041 -2.0871
 2925SOL    HW311473   3.063   3.791   2.170 -0.0758 -0.3314  0.5002
 2925SOL    MW411474   2.990   3.778   2.124  0.4364  0.1528 -0.4669
 2926SOL     OW11475   1.262   4.540   4.346  0.1291 -0.0460 -0.4619
 2926SOL    HW211476   1.190   4.500   4.393  0.0117 -0.2495 -0.8098
 2926SOL    HW311477   1.242   4.524   4.253  0.6384 -0.1409 -0.5592
 2926SOL    MW411478   1.250   4.533   4.340  0.1808 -0.0854 -0.5207
 2927SOL     OW11479   2.709   1.469   6.027  0.1025  0.2624  0.0691
 2927SOL    HW211480   2.802   1.450   6.030  0.4682  1.9535  0.0240
 2927SOL    HW311481   2.678   1.451   6.115  0.4565 -0.2987  0.0860
 2927SOL    MW411482   2.717   1.464   6.039  0.1975  0.4115  0.0654
 2928SOL     OW11483   0.705   5.359   1.605 -0.4113 -0.3548  0.3018
 2928SOL    HW211484   0.683   5.442   1.647 -1.2182 -0.5395  0.2550
 2928SOL    HW311485   0.727   5.383   1.515  2.6953  0.2228  1.1117
 2928SOL    MW411486   0.705   5.373   1.599 -0.1079 -0.3029  0.4025
 2929SOL     OW11487   5.410   2.965   5.787  0.1065 -0.0387  0.4359
 2929SOL    HW211488   5.392   2.995   5.876  2.6531 -0.3687  1.1570
 2929SOL    HW311489   5.483   3.020   5.757  1.2149 -1.7958 -0.2921
 2929SOL    MW411490   5.417   2.976   5.795  0.5887 -0.3140  0.4350
 2930SOL     OW11491   5.616   3.142   3.053 -0.2042  0.3248  0.1377
 2930SOL    HW211492   5.572   3.125   2.970  0.7964 -0.3520 -0.2701
 2930SOL    HW311493   5.702   3.101   3.044  1.3953  3.4118  0.0741
 2930SOL    MW411494   5.621   3.134   3.041  0.1389  0.6428  0.0755
 2931SOL     OW11495   4.208   2.686   2.277  0.4274 -0.5196 -0.0491
 2931SOL    HW211496   4.295   2.684   2.317 -0.4637 -0.8003  2.0491
 2931SOL    HW311497   4.148   2.679   2.352 -1.3710 -2.6291 -1.5742
 2931SOL    MW411498   4.211   2.685   2.292  0.0726 -0.8350  0.0265
 2932SOL     OW11499   3.009   3.528   5.756  0.0460 -0.3556  0.1526
 2932SOL    HW211500   2.955   3.477   5.696  1.4145  1.2581 -2.6839
 2932SOL    HW311501   2.952   3.600   5.783 -0.1318 -0.2537 -0.4695
 2932SOL    MW411502   2.994   3.531   5.751  0.2031 -0.1293 -0.3037
 2933SOL     OW11503   6.266   1.925   1.511 -0.1486 -0.2498 -0.5801
 2933SOL    HW211504   6.180   1.940   1.472 -0.8684  0.5575  1.2342
 2933SOL    HW311505   6.283   1.832   1.498 -2.7560 -1.1586  1.7863
 2933SOL    MW411506   6.257   1.915   1.504 -0.5876 -0.2632 -0.0285
 2934SOL     OW11507   4.907   2.841   1.006  0.0352  0.4089 -0.5353
 2934SOL    HW211508   4.843   2.782   1.045 -0.4829  1.2128 -0.1562
 2934SOL    HW311509   4.944   2.791   0.933  2.0244 -1.6872  1.7075
 2934SOL    MW411510   4.904   2.827   1.002  0.2293  0.2384 -0.1894
 2935SOL     OW11511   3.479   2.715   2.116 -0.1510 -0.1479 -0.3466
 2935SOL    HW211512   3.569   2.736   2.091  1.3075 -2.8698  2.0565
 2935SOL    HW311513   3.476   2.620   2.119 -3.1751 -0.1488 -0.4312
 2935SOL    MW411514   3.491   2.705   2.113 -0.3575 -0.5072 -0.0407
 2936SOL     OW11515   0.884   0.299   1.610  0.2542 -0.5861  0.0379
 2936SOL    HW211516   0.875   0.349   1.529  0.9158  1.9962  1.4409
 2936SOL    HW311517   0.879   0.208   1.583 -0.6164  0.1972 -2.7535
 2936SOL    MW411518   0.882   0.294   1.596  0.2266 -0.1421 -0.1453
 2937SOL     OW11519   3.367   2.151   6.392 -0.0791 -0.0661  0.1700
 2937SOL    HW211520   3.389   2.213   6.462  0.5548 -1.1016  0.9189
 2937SOL    HW311521   3.407   2.188   6.313 -0.0522  0.6735  0.5152
 2937SOL    MW411522   3.375   2.164   6.391  0.0080 -0.1051  0.3144
 2938SOL     OW11523   4.165   0.732   2.925  0.2217  0.0646  0.1869
 2938SOL    HW211524   4.090   0.674   2.935 -0.1608  0.2356 -1.4113
 2938SOL    HW311525   4.197   0.714   2.837  0.6581  1.6188  0.0053
 2938SOL    MW411526   4.159   0.722   2.915  0.2288  0.2922 -0.0479
 2939SOL     OW11527   0.259   4.105   3.754  0.6750  0.4591  0.1750
 2939SOL    HW211528   0.321   4.134   3.686  0.4048  2.1907  0.6156
 2939SOL    HW311529   0.271   4.168   3.825 -1.4687  0.7320  0.3359
 2939SOL    MW411530   0.269   4.117   3.754  0.3565  0.7236  0.2543
 2940SOL     OW11531   3.369   3.825   4.227 -0.7093 -0.3827 -0.0080
 2940SOL    HW211532   3.380   3.800   4.319  1.2336  1.6857  0.4090
 2940SOL    HW311533   3.276   3.846   4.220 -1.0278 -1.2201  1.3036
 2940SOL    MW411534   3.358   3.825   4.238 -0.4950 -0.2203  0.2200
 2941SOL     OW11535   1.349   4.906   4.610 -0.7993 -0.1138  0.1846
 2941SOL    HW211536   1.407   4.843   4.568 -0.8383  1.2576 -2.0900
 2941SOL    HW311537   1.361   4.890   4.704 -0.5076 -3.1625 -0.2558
 2941SOL    MW411538   1.358   4.895   4.617 -0.7660 -0.3351 -0.1737
 2942SOL     OW11539   5.213   5.093   3.524  0.0809 -0.0208  0.3760
 2942SOL    HW211540   5.209   5.184   3.495  2.4375 -0.8896 -3.3910
 2942SOL    HW311541   5.137   5.051   3.484  0.2051 -0.1082  0.2281
 2942SOL    MW411542   5.203   5.100   3.515  0.4082 -0.1469 -0.1405
 2943SOL     OW11543   1.815   1.020   1.335 -0.0549  0.1399 -0.1417
 2943SOL    HW211544   1.887   1.039   1.394 -0.1207 -0.7006  0.2239
 2943SOL    HW311545   1.759   0.958   1.383 -0.7317  0.3548 -0.6265
 2943SOL    MW411546   1.817   1.014   1.349 -0.1529  0.0574 -0.1574
 2944SOL     OW11547   4.048   2.626   6.065 -0.3800 -0.1788  0.5019
 2944SOL    HW211548   4.121   2.564   6.072  0.1888  0.3297 -0.6912
 2944SOL    HW311549   4.076   2.702   6.116 -1.1418 -0.9091  2.0946
 2944SOL    MW411550   4.061   2.627   6.073 -0.4055 -0.2081  0.5546
 2945SOL     OW11551   4.003   0.040   3.494 -0.4836 -0.4408 -0.5013
 2945SOL    HW211552   3.938   0.086   3.547 -0.0299 -1.6418  1.1632
 2945SOL    HW311553   4.072   0.105   3.479  0.0670 -0.4627  1.6524
 2945SOL    MW411554   4.003   0.055   3.499 -0.3511 -0.6021  0.0025
 2946SOL     OW11555   6.337   1.781   4.288  0.3700  0.0253  0.4585
 2946SOL    HW211556   6.335   1.686   4.298 -3.0492 -0.2453 -1.2958
 2946SOL    HW311557   6.251   1.810   4.318  1.1955  2.5800  0.6521
 2946SOL    MW411558   6.325   1.773   4.294  0.0278  0.3267  0.2526
 2947SOL     OW11559   6.101   1.498   4.533  0.1777  0.0050 -0.0860
 2947SOL    HW211560   6.020   1.548   4.529  0.4728  0.5369  0.3930
 2947SOL    HW311561   6.155   1.545   4.596  0.1909 -1.3327  0.9496
 2947SOL    MW411562   6.098   1.511   4.541  0.2183 -0.1013  0.1138
 2948SOL     OW11563   1.466   4.831   2.135  0.1688 -0.5388 -0.0751
 2948SOL    HW211564   1.513   4.906   2.171 -1.6443  0.1267  1.0543
 2948SOL    HW311565   1.535   4.774   2.100  1.6100  1.5946 -0.9530
 2948SOL    MW411566   1.481   4.833   2.135  0.1198 -0.1695 -0.0419
 2949SOL     OW11567   1.851   5.117   6.116 -0.5151  1.0291  0.1449
 2949SOL    HW211568   1.841   5.071   6.199 -1.3809 -1.5991 -1.2899
 2949SOL    HW311569   1.943   5.107   6.092 -1.1362 -2.5418 -1.3818
 2949SOL    MW411570   1.861   5.110   6.124 -0.7113  0.2112 -0.2458
 2950SOL     OW11571   2.442   2.854   5.852  0.7069 -0.1849 -0.0428
 2950SOL    HW211572   2.520   2.903   5.825  1.3404 -0.3744  1.3484
 2950SOL    HW311573   2.460   2.764   5.825 -0.0318  0.1409 -1.7253
 2950SOL    MW411574   2.455   2.849   5.845  0.6930 -0.1670 -0.0812
 2951SOL     OW11575   3.327   1.421   3.948  0.0149  0.2130 -0.6618
 2951SOL    HW211576   3.395   1.460   3.893  1.0786 -0.2964  0.2535
 2951SOL    HW311577   3.319   1.482   4.022  0.4762 -0.4243 -0.0749
 2951SOL    MW411578   3.335   1.434   3.951  0.2161  0.0617 -0.4636
 2952SOL     OW11579   4.482   6.267   2.727 -0.0226  0.2578  0.5390
 2952SOL    HW211580   4.474   6.325   2.802 -2.7588  1.8377 -0.8105
 2952SOL    HW311581   4.419   6.197   2.744  1.5582 -1.0886  1.0620
 2952SOL    MW411582   4.473   6.265   2.739 -0.1750  0.2886  0.4300
 2953SOL     OW11583   3.629   0.513   2.989 -0.2924 -0.1888 -0.6485
 2953SOL    HW211584   3.544   0.557   2.982 -0.1957 -0.2469 -3.2429
 2953SOL    HW311585   3.687   0.579   3.027 -1.5793 -0.3981  1.9233
 2953SOL    MW411586   3.625   0.528   2.993 -0.4494 -0.2241 -0.6515
 2954SOL     OW11587   3.478   5.959   2.791 -0.3126 -0.8100 -0.1492
 2954SOL    HW211588   3.527   6.036   2.764 -2.0264  0.2556 -0.3820
 2954SOL    HW311589   3.522   5.929   2.870  1.5861 -0.8181 -1.1420
 2954SOL    MW411590   3.490   5.965   2.798 -0.2882 -0.6705 -0.3109
 2955SOL     OW11591   4.082   1.241   2.695 -0.0333 -0.1140 -0.3516
 2955SOL    HW211592   4.050   1.278   2.777  0.5016 -0.4705  0.0339
 2955SOL    HW311593   4.138   1.168   2.723 -1.9250 -1.9524 -1.0823
 2955SOL    MW411594   4.086   1.236   2.710 -0.2123 -0.4036 -0.3971
 2956SOL     OW11595   3.357   2.993   0.352 -0.6802  0.0299  0.1788
 2956SOL    HW211596   3.293   2.922   0.353 -1.7973  1.0063  1.2796
 2956SOL    HW311597   3.363   3.019   0.259 -1.2350 -0.6378 -0.0461
 2956SOL    MW411598   3.349   2.987   0.340 -0.9008  0.0706  0.2944
 2957SOL     OW11599   1.291   5.903   0.882  0.2929 -0.3164 -0.4916
 2957SOL    HW211600   1.285   5.999   0.879  1.3583 -0.2527 -1.4480
 2957SOL    HW311601   1.206   5.874   0.915 -0.0082  0.9582 -0.0938
 2957SOL    MW411602   1.279   5.912   0.886  0.3938 -0.1398 -0.5653
 2958SOL     OW11603   5.170   6.007   1.079 -0.3123 -0.1909  0.5315
 2958SOL    HW211604   5.230   6.048   1.142  2.8233 -0.4644 -2.0151
 2958SOL    HW311605   5.149   5.923   1.119  0.4500  0.1832  1.8158
 2958SOL    MW411606   5.176   6.002   1.093  0.2020 -0.1776  0.3649
 2959SOL     OW11607   3.508   4.103   2.881  0.0169 -0.4370 -0.5858
 2959SOL    HW211608   3.582   4.122   2.823  0.4898  2.5997  0.8504
 2959SOL    HW311609   3.431   4.107   2.823  0.7193 -1.1725 -1.6256
 2959SOL    MW411610   3.507   4.106   2.865  0.1720 -0.1333 -0.5335
 2960SOL     OW11611   6.133   1.577   2.350 -0.0157 -0.0126  0.1715
 2960SOL    HW211612   6.169   1.660   2.382  0.3561  0.2221 -0.8109
 2960SOL    HW311613   6.208   1.531   2.312 -0.4679 -0.1841 -0.5423
 2960SOL    MW411614   6.148   1.582   2.349 -0.0263 -0.0043 -0.0523
 2961SOL     OW11615   3.316   4.240   0.274  0.2305  0.1437  0.5331
 2961SOL    HW211616   3.316   4.148   0.302 -0.6910 -0.8233 -2.3236
 2961SOL    HW311617   3.408   4.259   0.253  0.4957  0.0477  1.5689
 2961SOL    MW411618   3.328   4.230   0.275  0.1439  0.0034  0.2928
 2962SOL     OW11619   3.784   1.661   4.220  0.0581  0.4333  0.2516
 2962SOL    HW211620   3.843   1.723   4.262  0.8410 -0.7143  0.9341
 2962SOL    HW311621   3.838   1.583   4.206 -1.0662 -0.3451  0.0742
 2962SOL    MW411622   3.799   1.659   4.223  0.0130  0.1792  0.3182
 2963SOL     OW11623   4.018   4.539   6.314 -0.0058 -0.1028  0.2623
 2963SOL    HW211624   3.993   4.615   6.262 -0.2732 -0.6421 -0.4157
 2963SOL    HW311625   4.103   4.561   6.351 -0.2127  0.6321  0.3032
 2963SOL    MW411626   4.026   4.552   6.312 -0.0684 -0.0770  0.1782
 2964SOL     OW11627   0.596   2.421   3.482  0.6620 -0.6630  0.6964
 2964SOL    HW211628   0.536   2.369   3.427  0.0746 -0.8186  1.4688
 2964SOL    HW311629   0.559   2.415   3.570  0.1836  1.6486  0.7080
 2964SOL    MW411630   0.583   2.413   3.486  0.5214 -0.3785  0.7999
 2965SOL     OW11631   0.878   1.391   0.383 -0.4489 -0.0199 -0.4799
 2965SOL    HW211632   0.836   1.306   0.368 -0.5731  0.3701 -2.7250
 2965SOL    HW311633   0.821   1.435   0.445 -1.2877 -0.9623 -0.5539
 2965SOL    MW411634   0.865   1.386   0.389 -0.5760 -0.0928 -0.7859
 2966SOL     OW11635   5.593   2.491   1.651  0.3088 -0.3005 -0.2564
 2966SOL    HW211636   5.652   2.463   1.581  1.3144  1.6242 -0.2313
 2966SOL    HW311637   5.651   2.516   1.723 -0.6159  0.0548  0.3822
 2966SOL    MW411638   5.608   2.491   1.651  0.3195  0.0003 -0.1688
 2967SOL     OW11639   1.714   1.359   0.346 -0.0529  0.5001 -0.3848
 2967SOL    HW211640   1.669   1.357   0.261 -2.2133 -0.7878  0.7000
 2967SOL    HW311641   1.719   1.268   0.373  0.0400  0.9310  1.1357
 2967SOL    MW411642   1.709   1.347   0.338 -0.3257  0.3870 -0.0411
 2968SOL     OW11643   1.979   3.933   2.182  0.0336 -0.2645  0.2582
 2968SOL    HW211644   1.921   3.864   2.149  0.1950 -0.0951 -0.3904
 2968SOL    HW311645   1.922   4.009   2.190  0.0232 -0.2710  0.2464
 2968SOL    MW411646   1.964   3.934   2.179  0.0535 -0.2430  0.1711
 2969SOL     OW11647   5.167   0.725   6.065  0.4997  0.4070 -0.0400
 2969SOL    HW211648   5.141   0.775   6.143 -3.0165 -0.4153 -0.5418
 2969SOL    HW311649   5.178   0.636   6.097  0.6215  0.3559 -0.2262
 2969SOL    MW411650   5.165   0.720   6.079  0.0518  0.2918 -0.1307
 2970SOL     OW11651   0.669   3.194   4.351  0.0045 -0.2140 -1.1005
 2970SOL    HW211652   0.604   3.245   4.304 -1.1493 -1.6514 -1.1524
 2970SOL    HW311653   0.706   3.135   4.286  0.4342 -0.2850 -0.7984
 2970SOL    MW411654   0.665   3.193   4.336 -0.0910 -0.4130 -1.0675
 2971SOL     OW11655   1.917   1.136   1.747 -0.6949 -0.3254 -0.3207
 2971SOL    HW211656   1.964   1.099   1.672  1.4201 -1.4781  1.4091
 2971SOL    HW311657   1.845   1.075   1.762 -1.8814  0.5695 -2.0507
 2971SOL    MW411658   1.914   1.123   1.739 -0.5724 -0.3594 -0.3207
 2972SOL     OW11659   2.290   6.044   1.568  0.2047  0.4519  0.0827
 2972SOL    HW211660   2.210   6.032   1.517  0.4169 -0.6679 -0.0012
 2972SOL    HW311661   2.283   6.134   1.601 -0.8107  0.5682 -0.3917
 2972SOL    MW411662   2.278   6.055   1.566  0.0987  0.3195  0.0091
 2973SOL     OW11663   1.727   0.070   6.251 -0.8703 -0.7347 -0.1697
 2973SOL    HW211664   1.776   0.006   6.200 -1.4162 -1.5360  0.2956
 2973SOL    HW311665   1.637   0.038   6.251 -1.1511  0.0184  0.0953
 2973SOL    MW411666   1.721   0.058   6.244 -0.9793 -0.7410 -0.0733
 2974SOL     OW11667   1.020   4.087   5.079  0.2726 -0.6174  0.1556
 2974SOL    HW211668   1.080   4.120   5.012  0.5013 -0.0885  0.6058
 2974SOL    HW311669   1.054   4.000   5.100 -1.4166 -2.0191 -2.3664
 2974SOL    MW411670   1.033   4.080   5.073  0.0799 -0.7325 -0.1178
 2975SOL     OW11671   1.351   4.560   5.404 -0.3618  0.4372 -0.3331
 2975SOL    HW211672   1.388   4.561   5.493 -0.3290 -1.1477 -0.3021
 2975SOL    HW311673   1.307   4.645   5.396 -0.0364  0.7744  1.0521
 2975SOL    MW411674   1.350   4.572   5.415 -0.3145  0.2726 -0.1462
 2976SOL     OW11675   4.400   4.665   0.310 -0.5660 -0.1309  0.7168
 2976SOL    HW211676   4.319   4.618   0.292 -0.6629  0.6236 -0.9954
 2976SOL    HW311677   4.376   4.731   0.375 -1.1421 -0.4018  0.7777
 2976SOL    MW411678   4.386   4.667   0.316 -0.6548 -0.0671  0.4989
 2977SOL     OW11679   0.461   1.960   5.865 -1.0295  0.2489 -0.4803
 2977SOL    HW211680   0.423   2.043   5.840 -1.2878  0.5897  0.9416
 2977SOL    HW311681   0.553   1.967   5.841 -1.0876  0.8756 -0.5276
 2977SOL    MW411682   0.468   1.972   5.859 -1.0712  0.3766 -0.2990
 2978SOL     OW11683   1.896   2.823   5.383 -0.3013  0.1548  0.2149
 2978SOL    HW211684   1.803   2.804   5.395 -0.2052 -1.6233 -1.3764
 2978SOL    HW311685   1.898   2.894   5.319 -0.5647  0.0865  0.1285
 2978SOL    MW411686   1.884   2.829   5.376 -0.3234 -0.0888 -0.0064
 2979SOL     OW11687   2.312   0.016   1.391 -0.3774 -0.6191 -0.6309
 2979SOL    HW211688   2.293   0.000   1.484 -1.7031 -1.1559 -0.9753
 2979SOL    HW311689   2.396   0.062   1.392 -1.6468  1.9625  1.0400
 2979SOL    MW411690   2.320   0.020   1.404 -0.7198 -0.3493 -0.4559
 2980SOL     OW11691   5.407   1.293   3.822  0.1487  0.4497 -0.0740
 2980SOL    HW211692   5.438   1.256   3.904 -0.1770 -0.9931 -0.5797
 2980SOL    HW311693   5.417   1.388   3.833 -0.5859  0.3345  1.8890
 2980SOL    MW411694   5.413   1.301   3.834  0.0088  0.2441  0.1182
 2981SOL     OW11695   2.058   1.924   1.862 -0.4651 -0.1449  0.0039
 2981SOL    HW211696   2.022   1.866   1.795  0.1782 -0.4278 -0.1033
 2981SOL    HW311697   1.983   1.949   1.915 -1.0500  0.3481 -1.0253
 2981SOL    MW411698   2.044   1.920   1.860 -0.4574 -0.1172 -0.1460
 2982SOL     OW11699   0.223   3.026   0.908  0.2932 -0.2217 -0.2364
 2982SOL    HW211700   0.277   3.005   0.984  0.4708 -0.6029 -0.4665
 2982SOL    HW311701   0.149   3.076   0.944 -0.5436 -1.8824  0.4441
 2982SOL    MW411702   0.220   3.030   0.923  0.2062 -0.4911 -0.1770
 2983SOL     OW11703   5.688   3.694   1.840  0.8434 -0.3982 -0.4701
 2983SOL    HW211704   5.632   3.617   1.830 -0.9098  0.8784 -0.9283
 2983SOL    HW311705   5.659   3.755   1.772  0.6384  1.5317  1.2332
 2983SOL    MW411706   5.677   3.692   1.830  0.5851  0.0249 -0.3058
 2984SOL     OW11707   1.558   2.004   1.201 -0.4291 -0.0697 -0.1238
 2984SOL    HW211708   1.479   1.996   1.254 -0.2912  0.3388  0.1465
 2984SOL    HW311709   1.615   1.934   1.232 -1.4776 -1.7564 -1.7520
 2984SOL    MW411710   1.555   1.994   1.212 -0.5492 -0.2383 -0.3030
 2985SOL     OW11711   5.927   4.858   6.215  0.7562  0.0386  0.8519
 2985SOL    HW211712   5.922   4.826   6.126 -2.6654  0.6857  0.6760
 2985SOL    HW311713   6.021   4.862   6.234  1.5307 -2.3472 -1.8256
 2985SOL    MW411714   5.939   4.855   6.206  0.4070 -0.1908  0.4754
 2986SOL     OW11715   0.560   4.270   4.996 -0.3110 -0.4101  0.5436
 2986SOL    HW211716   0.600   4.342   5.045 -0.9051 -0.5763  1.2957
 2986SOL    HW311717   0.633   4.217   4.966  0.0576 -0.4489  1.4933
 2986SOL    MW411718   0.575   4.272   4.998 -0.3407 -0.4371  0.7681
 2987SOL     OW11719   1.509   5.085   2.992 -0.5123 -0.1194  0.0201
 2987SOL    HW211720   1.448   5.017   2.963  0.4304 -2.0243  2.1607
 2987SOL    HW311721   1.568   5.039   3.052  0.5798  2.5056  1.0747
 2987SOL    MW411722   1.509   5.070   2.996 -0.2438 -0.0244  0.4417
 2988SOL     OW11723   0.074   4.450   2.040 -0.3001  0.5310 -0.2915
 2988SOL    HW211724   0.071   4.528   2.095 -1.1875  0.2756  0.0452
 2988SOL    HW311725  -0.007   4.454   1.989  0.2360  0.4605 -1.1550
 2988SOL    MW411726   0.063   4.460   2.041 -0.3465  0.4880 -0.3610
 2989SOL     OW11727   0.668   0.033   4.256 -0.4393  0.3586  0.0173
 2989SOL    HW211728   0.681   0.006   4.347 -0.7207 -0.3064 -0.1319
 2989SOL    HW311729   0.743   0.089   4.237  1.1052 -1.6342 -0.1433
 2989SOL    MW411730   0.680   0.037   4.265 -0.2727  0.0079 -0.0236
 2990SOL     OW11731   1.653   2.906   0.812  0.3220  0.0257 -0.3728
 2990SOL    HW211732   1.643   2.985   0.865 -0.4671 -0.3270  0.0188
 2990SOL    HW311733   1.687   2.938   0.728  1.0537  0.6509  0.1415
 2990SOL    MW411734   1.656   2.921   0.808  0.3145  0.0617 -0.2533
 2991SOL     OW11735   0.855   1.551   1.253  0.5367 -0.1162 -0.3522
 2991SOL    HW211736   0.927   1.491   1.275  0.9197 -0.3102 -1.9608
 2991SOL    HW311737   0.778   1.495   1.249  0.7081 -0.3303 -0.8094
 2991SOL    MW411738   0.855   1.536   1.255  0.6098 -0.1701 -0.6247
 2992SOL     OW11739   4.256   5.218   1.036  0.0557  0.7011  0.5133
 2992SOL    HW211740   4.161   5.223   1.023  0.1925 -0.7367 -1.3973
 2992SOL    HW311741   4.266   5.183   1.124 -1.1988  0.6326  0.6498
 2992SOL    MW411742   4.245   5.214   1.046 -0.0917  0.5023  0.2792
 2993SOL     OW11743   4.089   3.232   5.355  0.0679  0.1736 -0.2572
 2993SOL    HW211744   4.162   3.171   5.352 -0.0319  0.0905 -1.0064
 2993SOL    HW311745   4.020   3.186   5.403  0.3336  0.0754  0.0332
 2993SOL    MW411746   4.089   3.218   5.361  0.0898  0.1497 -0.3177
 2994SOL     OW11747   0.418   1.085   1.551 -0.2769 -0.2726 -0.2021
 2994SOL    HW211748   0.432   0.991   1.561 -2.5215 -0.5238  1.4658
 2994SOL    HW311749   0.409   1.098   1.457 -4.7946 -2.6978 -0.3670
 2994SOL    MW411750   0.418   1.074   1.540 -1.1691 -0.6257 -0.0038
 2995SOL     OW11751   3.406   0.895   0.998 -0.1053 -0.0894 -0.8183
 2995SOL    HW211752   3.373   0.877   0.911  1.0655 -0.7371 -1.1556
 2995SOL    HW311753   3.344   0.853   1.058 -1.4463  1.1781 -1.2651
 2995SOL    MW411754   3.394   0.887   0.995 -0.1278 -0.0076 -0.9218
 2996SOL     OW11755   2.505   3.452   6.358 -0.0153 -0.2030 -0.1082
 2996SOL    HW211756   2.586   3.495   6.331  0.2591 -0.2566  0.6078
 2996SOL    HW311757   2.435   3.503   6.317  0.3379  0.4894  0.1429
 2996SOL    MW411758   2.506   3.465   6.349  0.0675 -0.1187  0.0194
 2997SOL     OW11759   5.057   1.896   4.391  0.1115 -0.1271 -0.6118
 2997SOL    HW211760   5.115   1.944   4.331  1.6138 -0.8837  0.1635
 2997SOL    HW311761   5.059   1.806   4.359  0.4021 -0.4064  0.1552
 2997SOL    MW411762   5.065   1.890   4.379  0.3480 -0.2638 -0.4083
 2998SOL     OW11763   1.719   3.899   1.567  0.4772 -0.1429 -0.1282
 2998SOL    HW211764   1.702   3.994   1.574 -2.8967 -0.6187  0.0309
 2998SOL    HW311765   1.647   3.866   1.514 -1.9230 -3.3384  4.4278
 2998SOL    MW411766   1.707   3.907   1.561 -0.2846 -0.6273  0.4939
 2999SOL     OW11767   4.216   1.686   0.215  0.4395  0.3243  0.1190
 2999SOL    HW211768   4.142   1.744   0.199  0.1470 -0.3570 -1.1414
 2999SOL    HW311769   4.274   1.736   0.272 -0.4757  1.2872  0.2281
 2999SOL    MW411770   4.214   1.700   0.220  0.2802  0.3615 -0.0329
 3000SOL     OW11771   3.154   6.030   3.952 -0.9559 -0.1767  0.5349
 3000SOL    HW211772   3.098   5.996   4.022 -1.1259  0.3115  0.6372
 3000SOL    HW311773   3.099   6.091   3.904 -0.2710  0.9742  1.1649
 3000SOL    MW411774   3.140   6.034   3.955 -0.8879  0.0395  0.6315
 3001SOL     OW11775   5.819   4.643   3.495  0.2864  0.2429  0.0613
 3001SOL    HW211776   5.834   4.553   3.525 -0.7646  0.0607  0.0656
 3001SOL    HW311777   5.845   4.698   3.569  1.9300  0.0154 -0.3011
 3001SOL    MW411778   5.824   4.638   3.509  0.3646  0.1889  0.0141
 3002SOL     OW11779   3.366   4.700   3.637 -0.6897 -0.5091  0.0051
 3002SOL    HW211780   3.318   4.737   3.711 -1.9265  1.9739 -1.8998
 3002SOL    HW311781   3.435   4.763   3.619 -1.9676  0.2949 -2.4699
 3002SOL    MW411782   3.369   4.713   3.644 -1.0215 -0.0754 -0.5728
 3003SOL     OW11783   2.650   2.277   2.014  0.0104  0.0123 -0.1918
 3003SOL    HW211784   2.576   2.216   2.009  0.3228 -0.2630 -1.9149
 3003SOL    HW311785   2.628   2.335   2.087 -0.2011 -2.2603  1.6568
 3003SOL    MW411786   2.638   2.277   2.023  0.0237 -0.3238 -0.1752
 3004SOL     OW11787   3.578   4.851   5.857  0.2986  0.2705  0.1060
 3004SOL    HW211788   3.587   4.802   5.775  1.8260 -0.5406  0.7110
 3004SOL    HW311789   3.659   4.902   5.863 -1.2043  2.8838 -0.4568
 3004SOL    MW411790   3.590   4.851   5.847  0.3019  0.5082  0.1116
 3005SOL     OW11791   0.248   4.096   3.349  0.3792  0.1092  0.6250
 3005SOL    HW211792   0.279   4.142   3.428 -2.1315  0.5807  1.4371
 3005SOL    HW311793   0.300   4.016   3.346  1.7207  0.8852  1.7683
 3005SOL    MW411794   0.259   4.091   3.359  0.2250  0.2738  0.8830
 3006SOL     OW11795   0.468   5.952   5.812 -0.2997  0.2871 -0.3525
 3006SOL    HW211796   0.432   5.919   5.730 -1.7521 -1.3045  0.8508
 3006SOL    HW311797   0.391   5.981   5.862  0.2550 -0.9881  1.3495
 3006SOL    MW411798   0.453   5.951   5.808 -0.4182 -0.0911  0.0308
 3007SOL     OW11799   0.155   2.877   4.452  0.4193 -0.4325 -0.0076
 3007SOL    HW211800   0.178   2.881   4.360  0.6076 -0.1331  0.0511
 3007SOL    HW311801   0.069   2.835   4.454  0.1976  0.0025 -0.3540
 3007SOL    MW411802   0.146   2.872   4.440  0.4149 -0.3356 -0.0456
 3008SOL     OW11803   0.078   3.470   0.643  0.0373 -0.0427  0.4103
 3008SOL    HW211804   0.121   3.532   0.702 -0.3487  2.4671 -1.7760
 3008SOL    HW311805  -0.011   3.461   0.679  0.4101 -0.1488  1.3295
 3008SOL    MW411806   0.072   3.477   0.656  0.0356  0.2744  0.2431
 3009SOL     OW11807   3.943   1.418   1.481 -0.4611  0.1102  0.2789
 3009SOL    HW211808   3.984   1.459   1.404 -0.5374 -1.2507 -0.5171
 3009SOL    HW311809   3.884   1.485   1.515 -0.2883  0.8132 -0.7434
 3009SOL    MW411810   3.941   1.433   1.475 -0.4484  0.0234  0.0390
 3010SOL     OW11811   2.921   0.352   4.248 -0.0292 -0.1770 -0.0587
 3010SOL    HW211812   2.876   0.436   4.240  1.1866  0.4418 -0.5394
 3010SOL    HW311813   2.850   0.287   4.239 -1.0136  0.7711  0.5703
 3010SOL    MW411814   2.906   0.354   4.245  0.0013  0.0298 -0.0391
 3011SOL     OW11815   5.798   3.875   0.359  0.0716 -0.2584 -0.2005
 3011SOL    HW211816   5.752   3.941   0.411  0.6075 -0.3059  0.3508
 3011SOL    HW311817   5.728   3.824   0.318 -0.4179 -1.0317  1.5039
 3011SOL    MW411818   5.783   3.877   0.360  0.0777 -0.3667  0.0971
 3012SOL     OW11819   5.979   2.315   3.580  0.2770  0.0846  0.0251
 3012SOL    HW211820   5.939   2.234   3.614 -1.9023  1.7070  1.5884
 3012SOL    HW311821   5.941   2.385   3.632  0.8660  2.3144 -2.3083
 3012SOL    MW411822   5.969   2.313   3.591  0.0672  0.5928 -0.0765
 3013SOL     OW11823   0.847   3.943   0.166 -0.6331 -0.3277  0.2751
 3013SOL    HW211824   0.877   3.852   0.163 -0.6881 -0.3909  1.2098
 3013SOL    HW311825   0.884   3.983   0.088  1.6536 -0.4793  1.1986
 3013SOL    MW411826   0.856   3.936   0.156 -0.3387 -0.3561  0.5203
 3014SOL     OW11827   4.673   2.064   3.601  0.1311 -0.9490  0.2881
 3014SOL    HW211828   4.699   2.061   3.693  2.7479  1.6885 -0.1697
 3014SOL    HW311829   4.600   2.126   3.598 -0.2542 -1.3880  0.6443
 3014SOL    MW411830   4.667   2.072   3.612  0.4255 -0.6590  0.2747
 3015SOL     OW11831   6.232   3.648   1.054  0.8309 -0.3454 -0.2938
 3015SOL    HW211832   6.203   3.649   0.962 -1.0959 -0.9356  0.2590
 3015SOL    HW311833   6.165   3.597   1.099  2.2480 -0.8733  1.3097
 3015SOL    MW411834   6.219   3.641   1.048  0.7637 -0.4929 -0.0093
 3016SOL     OW11835   3.255   3.094   2.276 -0.0748  0.0476 -0.7197
 3016SOL    HW211836   3.329   3.154   2.273  0.7187 -0.9396 -2.3836
 3016SOL    HW311837   3.217   3.107   2.363  1.9851  0.6601  0.1622
 3016SOL    MW411838   3.260   3.103   2.287  0.3017 -0.0019 -0.8229
 3017SOL     OW11839   2.750   2.696   1.948 -0.4105  0.1869  0.0025
 3017SOL    HW211840   2.671   2.732   1.990 -1.5550  1.0167 -2.6768
 3017SOL    HW311841   2.720   2.616   1.905 -0.3692  1.4930 -2.6547
 3017SOL    MW411842   2.735   2.690   1.948 -0.5561  0.4687 -0.7016
 3018SOL     OW11843   1.598   6.055   4.247  0.4139 -0.4899  0.3082
 3018SOL    HW211844   1.672   6.104   4.212  1.4127 -1.8908  0.3672
 3018SOL    HW311845   1.554   6.117   4.306  0.5735  0.8757 -0.9534
 3018SOL    MW411846   1.602   6.070   4.250  0.5668 -0.4946  0.1495
 3019SOL     OW11847   0.329   1.480   0.046  0.2229 -0.4092 -0.1478
 3019SOL    HW211848   0.336   1.384   0.044  2.3608 -0.3077 -1.6193
 3019SOL    HW311849   0.383   1.506   0.120 -0.1665 -0.3365  0.1094
 3019SOL    MW411850   0.337   1.471   0.055  0.4536 -0.3862 -0.3080
 3020SOL     OW11851   2.105   0.972   2.392  0.0298 -0.4835 -0.4586
 3020SOL    HW211852   2.064   0.901   2.442  0.1544  0.0106  0.3789
 3020SOL    HW311853   2.142   1.030   2.459 -1.9391  1.5188 -0.9757
 3020SOL    MW411854   2.104   0.970   2.408 -0.2135 -0.1541 -0.4163
 3021SOL     OW11855   5.558   5.849   4.021  0.0119 -0.5892  0.0025
 3021SOL    HW211856   5.516   5.933   4.039 -1.8778 -1.3418 -0.6317
 3021SOL    HW311857   5.501   5.785   4.065  0.2802 -1.6874 -1.2097
 3021SOL    MW411858   5.545   5.852   4.029 -0.2021 -0.8334 -0.2411
 3022SOL     OW11859   5.132   1.179   6.099 -0.1098 -0.6029  0.2117
 3022SOL    HW211860   5.147   1.248   6.164  0.5136  0.0154 -0.5558
 3022SOL    HW311861   5.038   1.160   6.104 -0.3901  0.6712  0.0902
 3022SOL    MW411862   5.122   1.186   6.108 -0.0645 -0.3532  0.0944
 3023SOL     OW11863   6.000   0.213   1.354 -0.9247 -0.1161  0.3548
 3023SOL    HW211864   6.047   0.244   1.432 -1.6802  0.7556  0.4857
 3023SOL    HW311865   6.006   0.118   1.359 -0.5575 -0.0625  1.2278
 3023SOL    MW411866   6.007   0.205   1.365 -0.9759  0.0060  0.4872
 3024SOL     OW11867   5.408   3.227   1.836  0.1426 -0.3734  0.2833
 3024SOL    HW211868   5.337   3.289   1.821 -0.6449 -0.8366  1.8406
 3024SOL    HW311869   5.484   3.281   1.858 -0.4160  0.0734  1.1615
 3024SOL    MW411870   5.409   3.242   1.837 -0.0350 -0.3755  0.6047
 3025SOL     OW11871   2.091   5.115   1.890 -0.0006  0.6286  0.4186
 3025SOL    HW211872   2.029   5.122   1.818 -1.7046 -4.9826  0.8603
 3025SOL    HW311873   2.041   5.144   1.967 -1.1784 -1.1396  0.3684
 3025SOL    MW411874   2.076   5.120   1.891 -0.3808 -0.3450  0.4703
 3026SOL     OW11875   3.472   0.183   3.659  0.7960 -0.5247  0.1148
 3026SOL    HW211876   3.510   0.103   3.622 -0.3078 -0.9276 -0.2050
 3026SOL    HW311877   3.436   0.155   3.743 -0.6841 -0.6901 -0.5344
 3026SOL    MW411878   3.472   0.169   3.665  0.4551 -0.5997 -0.0131
 3027SOL     OW11879   4.725   1.737   5.443  0.7008 -0.0345  0.0018
 3027SOL    HW211880   4.676   1.735   5.360  0.3037 -0.5450  0.2437
 3027SOL    HW311881   4.665   1.776   5.505  0.9436  0.2029  0.0880
 3027SOL    MW411882   4.711   1.742   5.440  0.6805 -0.0705  0.0451
 3028SOL     OW11883   0.099   4.399   5.805 -0.5437 -0.3116 -0.4053
 3028SOL    HW211884   0.057   4.369   5.886 -0.7064  0.9033 -0.0196
 3028SOL    HW311885   0.033   4.455   5.763 -0.1651 -0.2913 -0.9807
 3028SOL    MW411886   0.085   4.402   5.810 -0.5152 -0.1486 -0.4303
 3029SOL     OW11887   1.339   2.111   5.607  0.1740  0.0800  0.4948
 3029SOL    HW211888   1.386   2.193   5.590 -1.7512  0.8936 -1.3248
 3029SOL    HW311889   1.319   2.114   5.701 -0.7656  2.2389  0.2744
 3029SOL    MW411890   1.342   2.122   5.618 -0.2040  0.4722  0.2257
 3030SOL     OW11891   3.706   3.709   4.283 -0.3919 -0.1313  0.2409
 3030SOL    HW211892   3.797   3.683   4.267 -0.7991 -0.3444 -2.2356
 3030SOL    HW311893   3.659   3.626   4.296 -0.3065 -0.0454  1.1312
 3030SOL    MW411894   3.712   3.695   4.282 -0.4344 -0.1481  0.0316
 3031SOL     OW11895   4.282   5.965   2.515 -0.1071  0.1624 -0.1868
 3031SOL    HW211896   4.198   5.962   2.469 -1.7058 -1.3210  2.5215
 3031SOL    HW311897   4.262   6.012   2.596  1.5877 -0.5652  0.6925
 3031SOL    MW411898   4.268   5.971   2.520 -0.0944 -0.1293  0.2866
 3032SOL     OW11899   3.780   3.650   2.012 -0.1391 -0.4422  0.0281
 3032SOL    HW211900   3.775   3.651   2.107  0.3794 -0.0982  0.0554
 3032SOL    HW311901   3.690   3.632   1.983 -0.7840  1.7100  0.5364
 3032SOL    MW411902   3.767   3.648   2.021 -0.1557 -0.1128  0.0988
 3033SOL     OW11903   2.376   0.385   2.859 -0.0261 -0.0307  0.1649
 3033SOL    HW211904   2.391   0.292   2.846 -1.1684 -0.2087  0.0228
 3033SOL    HW311905   2.301   0.406   2.803  0.0019  0.8925  0.4518
 3033SOL    MW411906   2.368   0.376   2.850 -0.1731  0.0676  0.1840
 3034SOL     OW11907   1.828   0.495   3.003  0.3078  0.4115 -0.1588
 3034SOL    HW211908   1.816   0.529   3.092  2.8064 -1.2156  0.9334
 3034SOL    HW311909   1.777   0.414   3.001  1.4991 -0.3938  0.4265
 3034SOL    MW411910   1.820   0.489   3.015  0.7946  0.0906  0.0625
 3035SOL     OW11911   4.166   0.612   5.701 -0.6957 -0.2515 -0.2777
 3035SOL    HW211912   4.163   0.663   5.782  0.6704  1.1142 -1.0300
 3035SOL    HW311913   4.159   0.678   5.631 -0.6755 -1.2788 -1.2761
 3035SOL    MW411914   4.165   0.628   5.702 -0.5128 -0.2068 -0.5087
 3036SOL     OW11915   2.378   0.930   0.116  0.1337  0.1290  0.0826
 3036SOL    HW211916   2.370   0.989   0.041  0.8401 -0.7111 -0.6777
 3036SOL    HW311917   2.294   0.939   0.162 -0.9553 -0.4582 -1.6490
 3036SOL    MW411918   2.366   0.939   0.112  0.0832 -0.0593 -0.2462
 3037SOL     OW11919   0.508   0.518   4.636 -0.3187  0.6686  0.5796
 3037SOL    HW211920   0.469   0.453   4.578 -1.0466  1.1980  0.4687
 3037SOL    HW311921   0.483   0.490   4.724 -0.2333  0.5379  0.5626
 3037SOL    MW411922   0.500   0.506   4.640 -0.4035  0.7212  0.5627
 3038SOL     OW11923   1.279   5.085   1.368 -0.0790  0.1568  0.4069
 3038SOL    HW211924   1.317   5.022   1.308 -2.5605 -0.0115 -1.1165
 3038SOL    HW311925   1.249   5.033   1.442 -0.9476 -0.3096 -0.2533
 3038SOL    MW411926   1.280   5.070   1.370 -0.5210  0.0730  0.1188
 3039SOL     OW11927   0.648   1.530   0.667  0.5899  0.4413 -0.1871
 3039SOL    HW211928   0.581   1.470   0.634  1.1564 -0.0898 -0.3836
 3039SOL    HW311929   0.603   1.615   0.673  0.3859  0.5200 -2.0888
 3039SOL    MW411930   0.633   1.533   0.663  0.6377  0.3817 -0.4639
 3040SOL     OW11931   3.514   3.541   2.662  0.5285 -0.3840 -0.3605
 3040SOL    HW211932   3.566   3.490   2.724  0.0238  0.4562  0.7919
 3040SOL    HW311933   3.464   3.476   2.613  0.5609 -1.0363  0.4646
 3040SOL    MW411934   3.514   3.526   2.663  0.4662 -0.3592 -0.0996
 3041SOL     OW11935   1.569   4.302   2.368 -0.2048  0.7143  0.0785
 3041SOL    HW211936   1.520   4.263   2.440 -0.6355 -0.8533 -1.0037
 3041SOL    HW311937   1.660   4.302   2.398 -0.2647 -0.6914  0.3305
 3041SOL    MW411938   1.575   4.297   2.381 -0.2696  0.3220 -0.0310
 3042SOL     OW11939   1.480   2.281   1.349 -0.2850  0.5862  0.3876
 3042SOL    HW211940   1.455   2.358   1.400  0.4730  0.2373  1.2985
 3042SOL    HW311941   1.458   2.207   1.404  0.4445  0.1969  0.1603
 3042SOL    MW411942   1.474   2.281   1.363 -0.0887  0.4888  0.4778
 3043SOL     OW11943   2.858   4.016   4.820 -0.0967  0.2073  0.3743
 3043SOL    HW211944   2.906   3.987   4.898  0.8059  1.0771  0.1673
 3043SOL    HW311945   2.879   4.110   4.813 -0.1175  0.1254 -0.9456
 3043SOL    MW411946   2.867   4.025   4.829  0.0196  0.3112  0.1728
 3044SOL     OW11947   5.597   3.985   5.644  0.4610  0.1547 -0.2337
 3044SOL    HW211948   5.616   4.032   5.562  1.0588 -0.3933 -0.4148
 3044SOL    HW311949   5.504   4.001   5.659  0.6284  1.3500 -0.3243
 3044SOL    MW411950   5.587   3.994   5.635  0.5619  0.2401 -0.2696
 3045SOL     OW11951   3.305   3.708   3.275 -0.4275  0.4804  0.6198
 3045SOL    HW211952   3.360   3.770   3.228  0.7980 -1.3002 -0.3958
 3045SOL    HW311953   3.358   3.679   3.350  0.2135 -1.4355 -0.5044
 3045SOL    MW411954   3.319   3.712   3.279 -0.1813 -0.0073  0.3375
 3046SOL     OW11955   4.336   2.592   5.804 -0.3319  0.4302  0.1469
 3046SOL    HW211956   4.260   2.540   5.779 -0.4097  0.9006 -0.5985
 3046SOL    HW311957   4.308   2.683   5.795  0.6885  0.6364 -1.3784
 3046SOL    MW411958   4.322   2.597   5.800 -0.2075  0.5195 -0.1527
 3047SOL     OW11959   1.307   6.342   1.994  0.1763  0.2818  0.3510
 3047SOL    HW211960   1.280   6.356   1.903 -2.1556  1.9487  1.1795
 3047SOL    HW311961   1.337   6.428   2.024  0.0170 -0.0125  1.4008
 3047SOL    MW411962   1.307   6.355   1.986 -0.1524  0.4629  0.5988
 3048SOL     OW11963   6.039   1.899   2.211 -0.6384  0.4003 -0.3825
 3048SOL    HW211964   6.004   1.818   2.177  1.2699 -0.2128 -1.0190
 3048SOL    HW311965   6.093   1.934   2.140  2.0010 -0.0013  1.2802
 3048SOL    MW411966   6.042   1.893   2.198 -0.0383  0.2664 -0.2471
 3049SOL     OW11967   2.927   3.367   1.376  0.2593 -0.1564  0.4438
 3049SOL    HW211968   3.021   3.353   1.388 -0.0244 -1.7606  1.0725
 3049SOL    HW311969   2.891   3.365   1.465 -0.2679  1.4674  0.2982
 3049SOL    MW411970   2.935   3.364   1.389  0.1523 -0.1538  0.5075
 3050SOL     OW11971   5.973   2.321   6.045 -0.9443  0.5637 -0.4715
 3050SOL    HW211972   6.053   2.282   6.080 -2.4094 -1.0600  1.2727
 3050SOL    HW311973   5.993   2.414   6.037  1.5651  0.0101 -1.5076
 3050SOL    MW411974   5.986   2.328   6.049 -0.8066  0.2765 -0.3781
 3051SOL     OW11975   2.290   4.148   4.360  0.4931 -0.4233 -0.5895
 3051SOL    HW211976   2.267   4.109   4.444 -2.4604 -0.4908 -1.3222
 3051SOL    HW311977   2.296   4.074   4.300 -2.0496 -0.1253 -1.3302
 3051SOL    MW411978   2.288   4.133   4.363 -0.2320 -0.3929 -0.7839
 3052SOL     OW11979   0.160   1.703   5.275 -0.0154  0.1272  0.5407
 3052SOL    HW211980   0.177   1.787   5.234 -1.1679  0.4803  0.7515
 3052SOL    HW311981   0.142   1.644   5.202 -1.1454  0.5387  0.4669
 3052SOL    MW411982   0.160   1.706   5.260 -0.3165  0.2281  0.5588
 3053SOL     OW11983   4.936   1.948   5.340 -0.2002  0.0487 -0.6024
 3053SOL    HW211984   4.866   1.884   5.349 -0.3801  0.3987  0.7965
 3053SOL    HW311985   5.016   1.898   5.357 -0.2493 -0.0414 -0.6364
 3053SOL    MW411986   4.938   1.933   5.344 -0.2304  0.0830 -0.4223
 3054SOL     OW11987   4.044   3.004   5.617  0.0206  0.2002 -0.1985
 3054SOL    HW211988   3.959   2.965   5.638 -0.0285  0.2883 -0.2321
 3054SOL    HW311989   4.103   2.972   5.684 -0.5331  1.9509  1.2012
 3054SOL    MW411990   4.041   2.995   5.628 -0.0589  0.4428 -0.0182
 3055SOL     OW11991   6.179   5.595   2.859 -0.3897 -0.4228 -0.5156
 3055SOL    HW211992   6.142   5.507   2.853 -0.7725 -0.3326  0.3261
 3055SOL    HW311993   6.260   5.583   2.909  0.6837 -0.5988 -2.2283
 3055SOL    MW411994   6.185   5.582   2.865 -0.2986 -0.4341 -0.6305
 3056SOL     OW11995   1.623   3.226   5.913  0.5313 -0.2786 -0.1313
 3056SOL    HW211996   1.535   3.202   5.883  0.0734 -1.4545  1.9455
 3056SOL    HW311997   1.647   3.156   5.973  2.9892 -0.0590 -0.7501
 3056SOL    MW411998   1.615   3.213   5.917  0.7952 -0.4048  0.0611
 3057SOL     OW11999   6.140   3.374   1.933 -0.1077 -0.2223  0.0447
 3057SOL    HW212000   6.177   3.440   1.993 -3.2502  1.9931 -0.2059
 3057SOL    HW312001   6.082   3.321   1.988  0.0992 -0.8402 -0.3258
 3057SOL    MW412002   6.138   3.376   1.948 -0.4950 -0.0115 -0.0372
 3058SOL     OW12003   3.797   1.718   2.457 -0.7056  0.2210 -0.4592
 3058SOL    HW212004   3.733   1.650   2.476  0.3466 -1.4734 -2.5571
 3058SOL    HW312005   3.876   1.690   2.504 -0.2791 -0.0231 -1.2987
 3058SOL    MW412006   3.799   1.705   2.466 -0.5105 -0.0348 -0.8468
 3059SOL     OW12007   3.619   0.901   3.511  0.2442 -0.0223  0.3852
 3059SOL    HW212008   3.588   0.949   3.435 -0.9399  1.1591  1.5504
 3059SOL    HW312009   3.681   0.961   3.553  1.9920 -1.2283 -0.3777
 3059SOL    MW412010   3.623   0.915   3.507  0.3186 -0.0256  0.4383
 3060SOL     OW12011   5.992   2.058   5.158  0.2869 -0.3507 -0.2183
 3060SOL    HW212012   6.086   2.066   5.143  0.4529 -0.9757  0.4740
 3060SOL    HW312013   5.984   2.035   5.250 -0.5738  0.2288 -0.1408
 3060SOL    MW412014   6.003   2.056   5.168  0.1953 -0.3567 -0.1167
 3061SOL     OW12015   0.370   1.191   4.510  0.0671  0.1101  0.2424
 3061SOL    HW212016   0.320   1.212   4.590 -0.4576 -0.5392  0.0914
 3061SOL    HW312017   0.333   1.108   4.480 -0.1379  0.6366 -1.0035
 3061SOL    MW412018   0.359   1.183   4.517 -0.0292  0.0939  0.0581
 3062SOL     OW12019   3.227   6.367   1.997 -0.1282  0.3811  0.3327
 3062SOL    HW212020   3.279   6.301   2.043 -1.7209 -0.0799  1.5866
 3062SOL    HW312021   3.218   6.333   1.908 -0.2237 -0.6964  0.7374
 3062SOL    MW412022   3.232   6.354   1.992 -0.3509  0.1781  0.5515
 3063SOL     OW12023   3.762   3.281   0.307 -0.6093  0.2771 -0.0899
 3063SOL    HW212024   3.686   3.326   0.270 -0.8843  0.6631  0.9129
 3063SOL    HW312025   3.738   3.189   0.308 -1.5849  0.5248  1.3772
 3063SOL    MW412026   3.749   3.275   0.302 -0.7743  0.3607  0.2360
 3064SOL     OW12027   4.102   0.123   3.095  0.2831  0.2906 -0.2408
 3064SOL    HW212028   4.155   0.143   3.018 -0.2482  1.7243 -0.2660
 3064SOL    HW312029   4.019   0.169   3.080 -0.6885 -1.2139  0.1830
 3064SOL    MW412030   4.098   0.131   3.083  0.0848  0.2813 -0.1882
 3065SOL     OW12031   2.550   3.701   4.390  0.3773  0.0454  0.9556
 3065SOL    HW212032   2.458   3.717   4.412  0.0629  1.1599 -0.9447
 3065SOL    HW312033   2.574   3.624   4.442 -1.9189 -0.8718  0.7881
 3065SOL    MW412034   2.541   3.693   4.400  0.0329  0.0715  0.6828
 3066SOL     OW12035   1.473   3.427   3.420  0.5691 -0.5225 -0.2769
 3066SOL    HW212036   1.391   3.449   3.465  0.9886  0.4119  0.0413
 3066SOL    HW312037   1.528   3.389   3.489  0.8315 -0.0606 -0.2312
 3066SOL    MW412038   1.470   3.425   3.435  0.6591 -0.3383 -0.2289
 3067SOL     OW12039   1.252   0.727   2.768  0.0358 -0.5590 -0.1455
 3067SOL    HW212040   1.319   0.663   2.793 -1.3687 -1.5828  1.2322
 3067SOL    HW312041   1.224   0.699   2.680 -0.7821 -2.1063  0.5581
 3067SOL    MW412042   1.257   0.715   2.760 -0.2574 -0.8982  0.1291
 3068SOL     OW12043   3.891   0.215   0.133 -0.1190  0.4221 -0.9310
 3068SOL    HW212044   3.796   0.218   0.117  0.0781 -0.8282 -2.6238
 3068SOL    HW312045   3.904   0.133   0.180  0.0169  1.1637  0.3610
 3068SOL    MW412046   3.880   0.205   0.137 -0.0751  0.3550 -0.9839
 3069SOL     OW12047   0.548   4.979   3.774 -0.3466 -0.7322  0.0761
 3069SOL    HW212048   0.479   5.037   3.806 -0.9002 -1.8098  0.8806
 3069SOL    HW312049   0.619   4.987   3.838 -0.2032 -0.5319 -0.1069
 3069SOL    MW412050   0.548   4.988   3.786 -0.4007 -0.8479  0.1581
 3070SOL     OW12051   3.186   0.539   1.414  0.2948  0.1190  0.6656
 3070SOL    HW212052   3.159   0.585   1.493  0.0720  1.3592 -0.1058
 3070SOL    HW312053   3.241   0.602   1.367 -0.4643 -0.1792 -0.6883
 3070SOL    MW412054   3.190   0.553   1.418  0.1653  0.2433  0.3852
 3071SOL     OW12055   3.244   2.968   5.793  0.0423 -0.0092  0.1117
 3071SOL    HW212056   3.186   2.900   5.827 -1.5595  0.7152 -1.0418
 3071SOL    HW312057   3.295   2.996   5.869  0.6314 -2.3276  0.6579
 3071SOL    MW412058   3.243   2.962   5.808 -0.0913 -0.2195  0.0316
 3072SOL     OW12059   0.374   0.361   5.960  0.1109 -0.1442 -0.3932
 3072SOL    HW212060   0.384   0.284   6.015 -0.0771  0.6647  0.8183
 3072SOL    HW312061   0.318   0.333   5.888 -4.9426  0.1438  2.9385
 3072SOL    MW412062   0.368   0.347   5.958 -0.5806  0.0005  0.2062
 3073SOL     OW12063   0.159   6.093   2.284 -0.2201  0.2149 -0.0190
 3073SOL    HW212064   0.073   6.051   2.285 -0.7384  1.2681  0.3112
 3073SOL    HW312065   0.211   6.042   2.346 -0.4793 -0.6534 -0.4911
 3073SOL    MW412066   0.154   6.080   2.292 -0.3227  0.2393 -0.0378
 3074SOL     OW12067   4.800   2.878   1.959 -0.3096 -0.5064 -0.2473
 3074SOL    HW212068   4.723   2.917   2.001  0.6802 -0.2260  1.3990
 3074SOL    HW312069   4.790   2.784   1.971  0.2212 -0.4044  1.1571
 3074SOL    MW412070   4.789   2.871   1.966 -0.1089 -0.4560  0.1552
 3075SOL     OW12071   5.426   0.486   2.488  0.0612 -0.0590  0.6399
 3075SOL    HW212072   5.408   0.392   2.481  0.3126 -0.0663 -0.0387
 3075SOL    HW312073   5.512   0.497   2.447 -0.1038  0.5084  0.4305
 3075SOL    MW412074   5.435   0.475   2.482  0.0726  0.0149  0.5228
 3076SOL     OW12075   0.765   0.958   1.089  0.0978  0.2410  0.1311
 3076SOL    HW212076   0.671   0.977   1.088  0.1112  0.4459  1.0751
 3076SOL    HW312077   0.801   1.020   1.153  0.9278  0.3868 -0.4589
 3076SOL    MW412078   0.758   0.969   1.098  0.2091  0.2873  0.1778
 3077SOL     OW12079   5.897   5.534   4.843 -0.0898  0.2901  0.1772
 3077SOL    HW212080   5.932   5.592   4.775 -0.9572 -1.6602 -2.0678
 3077SOL    HW312081   5.937   5.449   4.824 -2.3654 -0.9041  0.4670
 3077SOL    MW412082   5.907   5.530   4.831 -0.5045 -0.1247 -0.0808
 3078SOL     OW12083   5.133   5.942   6.410  0.1286 -0.1593  0.1738
 3078SOL    HW212084   5.068   5.910   6.472 -0.6823  0.7652 -0.1506
 3078SOL    HW312085   5.210   5.963   6.463  0.8533 -2.9259  0.3393
 3078SOL    MW412086   5.135   5.941   6.425  0.1172 -0.4024  0.1528
 3079SOL     OW12087   0.449   4.242   0.052  0.5938 -0.0119  0.2758
 3079SOL    HW212088   0.498   4.187   0.113  2.0616  0.8966 -0.0313
 3079SOL    HW312089   0.394   4.181   0.003  2.1507 -1.2319 -0.0531
 3079SOL    MW412090   0.448   4.227   0.054  0.9929 -0.0530  0.1919
 3080SOL     OW12091   6.291   0.211   5.827  0.4383 -0.2325  0.0751
 3080SOL    HW212092   6.259   0.260   5.903 -2.8800 -2.0827  0.0751
 3080SOL    HW312093   6.341   0.139   5.865 -0.1197 -0.4227  0.4642
 3080SOL    MW412094   6.293   0.208   5.842 -0.0731 -0.5017  0.1264
 3081SOL     OW12095   2.900   0.673   4.456 -0.3984 -0.5500  0.2395
 3081SOL    HW212096   2.934   0.669   4.545 -0.8230  0.5511  0.4679
 3081SOL    HW312097   2.974   0.647   4.401  0.1117 -0.4274  0.8574
 3081SOL    MW412098   2.914   0.669   4.461 -0.3871 -0.3885  0.3512
 3082SOL     OW12099   6.162   4.691   1.727  0.1334 -0.3538  0.0887
 3082SOL    HW212100   6.082   4.728   1.765  1.2393  1.3154  0.9436
 3082SOL    HW312101   6.144   4.685   1.633 -1.1812 -0.5791  0.3329
 3082SOL    MW412102   6.149   4.695   1.720  0.1058 -0.1633  0.2337
 3083SOL     OW12103   4.216   1.255   1.327 -0.5654 -0.4321 -0.1018
 3083SOL    HW212104   4.237   1.175   1.280  1.0330  0.6616 -1.3666
 3083SOL    HW312105   4.300   1.289   1.358 -1.3609  0.0060  1.7268
 3083SOL    MW412106   4.230   1.249   1.325 -0.4595 -0.2300 -0.0274
 3084SOL     OW12107   2.744   4.660   3.211  0.5209  0.3930 -0.2382
 3084SOL    HW212108   2.793   4.670   3.292 -0.3960  1.6332  0.1971
 3084SOL    HW312109   2.792   4.712   3.147  1.3723 -0.7696 -0.5835
 3084SOL    MW412110   2.757   4.668   3.213  0.5122  0.4032 -0.2263
 3085SOL     OW12111   3.602   0.197   0.133 -0.4146 -0.4226 -0.1181
 3085SOL    HW212112   3.517   0.242   0.138  0.1441  0.8037 -1.0813
 3085SOL    HW312113   3.581   0.110   0.099 -1.4706 -0.7661  1.3397
 3085SOL    MW412114   3.588   0.192   0.129 -0.4802 -0.3061 -0.0528
 3086SOL     OW12115   3.084   4.422   4.959 -0.4221 -0.3667  0.0160
 3086SOL    HW212116   3.174   4.453   4.956  0.2326 -2.0455  1.1189
 3086SOL    HW312117   3.072   4.375   4.877 -0.3043 -0.1732 -0.1140
 3086SOL    MW412118   3.094   4.420   4.948 -0.3202 -0.5627  0.1443
 3087SOL     OW12119   4.428   3.494   4.017  0.0907 -0.4196  0.1773
 3087SOL    HW212120   4.391   3.412   4.050 -1.3274 -0.2024 -0.8070
 3087SOL    HW312121   4.470   3.533   4.094 -2.8927 -0.0396  1.7808
 3087SOL    MW412122   4.429   3.488   4.032 -0.4900 -0.3408  0.2590
 3088SOL     OW12123   2.860   5.408   4.540 -0.4002 -0.1713 -0.2308
 3088SOL    HW212124   2.867   5.313   4.530 -0.8863 -0.1037 -1.4786
 3088SOL    HW312125   2.927   5.443   4.481 -0.6885  0.2595 -0.3088
 3088SOL    MW412126   2.870   5.400   4.531 -0.5024 -0.1056 -0.4057
 3089SOL     OW12127   1.591   2.204   4.574 -0.2405 -0.0666 -0.1475
 3089SOL    HW212128   1.658   2.176   4.636 -2.7739 -1.4460  2.1536
 3089SOL    HW312129   1.565   2.124   4.529 -2.2625 -0.1186  1.0326
 3089SOL    MW412130   1.597   2.190   4.576 -0.8415 -0.2554  0.3118
 3090SOL     OW12131   2.152   2.188   1.825  0.3916 -0.4404  0.0405
 3090SOL    HW212132   2.216   2.177   1.754 -0.0038 -0.8923 -0.2553
 3090SOL    HW312133   2.126   2.099   1.848 -1.7602 -0.2479 -1.3590
 3090SOL    MW412134   2.157   2.175   1.819  0.0555 -0.4747 -0.1832
 3091SOL     OW12135   4.538   0.867   0.056  0.5878 -0.1566  0.6093
 3091SOL    HW212136   4.475   0.935   0.035 -0.7672 -1.2392  1.0168
 3091SOL    HW312137   4.615   0.915   0.088 -0.2028  1.1774  0.5848
 3091SOL    MW412138   4.540   0.882   0.058  0.3047 -0.1234  0.6598
 3092SOL     OW12139   6.137   0.153   6.386  0.4133  0.0843 -0.8159
 3092SOL    HW212140   6.199   0.111   6.328 -0.3709 -0.7325 -1.0840
 3092SOL    HW312141   6.060   0.095   6.386 -0.0614  0.6797  0.0841
 3092SOL    MW412142   6.135   0.140   6.379  0.2472  0.0551 -0.7326
 3093SOL     OW12143   2.320   5.162   5.148  0.1365 -0.4987  0.0378
 3093SOL    HW212144   2.340   5.234   5.207  0.5412 -0.4987 -0.0928
 3093SOL    HW312145   2.405   5.137   5.111 -0.2647  0.4164 -1.5875
 3093SOL    MW412146   2.334   5.168   5.151  0.1370 -0.3779 -0.1939
 3094SOL     OW12147   1.535   0.491   0.646 -0.1746 -0.4512 -0.0332
 3094SOL    HW212148   1.569   0.445   0.723 -0.4847 -1.4402 -0.4745
 3094SOL    HW312149   1.602   0.479   0.579  0.7396  1.5644  0.4372
 3094SOL    MW412150   1.548   0.483   0.647 -0.0949 -0.3158 -0.0293
 3095SOL     OW12151   5.289   2.799   1.102  0.1976 -0.3951  0.3982
 3095SOL    HW212152   5.227   2.741   1.147  1.4358 -1.5673  0.6924
 3095SOL    HW312153   5.322   2.857   1.171  0.6414 -0.8965  0.6270
 3095SOL    MW412154   5.285   2.799   1.117  0.4195 -0.6159  0.4672
 3096SOL     OW12155   1.060   6.025   0.429 -0.0149  0.2451 -0.7135
 3096SOL    HW212156   1.011   6.095   0.471 -1.6785  0.0691 -2.2511
 3096SOL    HW312157   1.087   5.968   0.501 -2.0815  0.3631  0.2203
 3096SOL    MW412158   1.057   6.026   0.444 -0.5070  0.2374 -0.7932
 3097SOL     OW12159   5.891   1.763   4.736  0.2889 -0.3012 -0.3990
 3097SOL    HW212160   5.900   1.845   4.783 -1.0436 -1.8258  2.7877
 3097SOL    HW312161   5.846   1.786   4.655  1.2730  2.2370 -0.3245
 3097SOL    MW412162   5.887   1.777   4.731  0.2429 -0.1675  0.0313
 3098SOL     OW12163   1.857   3.776   2.536 -0.3315  0.1065 -0.1076
 3098SOL    HW212164   1.865   3.712   2.607  0.7871  0.0007 -0.3074
 3098SOL    HW312165   1.857   3.722   2.456  0.8408  0.3424 -0.2880
 3098SOL    MW412166   1.858   3.760   2.535 -0.0292  0.1237 -0.1578
 3099SOL     OW12167   4.233   0.265   4.125 -0.1223  0.0918  0.5805
 3099SOL    HW212168   4.260   0.246   4.036 -0.0480  1.6810  0.2420
 3099SOL    HW312169   4.228   0.361   4.129  1.5368  0.1625  2.7605
 3099SOL    MW412170   4.236   0.275   4.114  0.1064  0.3108  0.8235
 3100SOL     OW12171   1.819   4.926   2.086  0.2305 -0.5589  0.5411
 3100SOL    HW212172   1.882   4.914   2.157 -1.6704  1.0671  2.6304
 3100SOL    HW312173   1.765   5.000   2.113 -1.0663 -0.3166 -2.2988
 3100SOL    MW412174   1.820   4.934   2.099 -0.1914 -0.3124  0.4421
 3101SOL     OW12175   2.676   2.548   6.040 -0.0273 -0.3704 -0.9040
 3101SOL    HW212176   2.772   2.545   6.032  0.1969 -0.4696  1.1429
 3101SOL    HW312177   2.649   2.456   6.039 -0.1655 -0.3326 -1.8106
 3101SOL    MW412178   2.685   2.535   6.039 -0.0160 -0.3785 -0.7536
 3102SOL     OW12179   5.176   2.719   6.303 -0.1340  0.3680 -0.0803
 3102SOL    HW212180   5.114   2.781   6.340 -1.3872 -0.6174 -0.4752
 3102SOL    HW312181   5.166   2.729   6.208 -1.0182 -1.0464 -0.1594
 3102SOL    MW412182   5.167   2.729   6.295 -0.4160  0.0514 -0.1429
 3103SOL     OW12183   0.857   3.239   0.099 -0.6267 -0.2526  0.0519
 3103SOL    HW212184   0.787   3.231   0.035  0.8391 -1.4341 -1.4840
 3103SOL    HW312185   0.883   3.149   0.119  1.3130  0.1346 -0.4423
 3103SOL    MW412186   0.852   3.226   0.094 -0.1774 -0.3574 -0.2160
 3104SOL     OW12187   4.416   4.367   2.304 -0.6371 -0.2996  0.1819
 3104SOL    HW212188   4.367   4.285   2.294  0.1804 -0.6920 -0.8132
 3104SOL    HW312189   4.370   4.430   2.249  0.6842 -1.0210 -1.8696
 3104SOL    MW412190   4.403   4.364   2.295 -0.3549 -0.4465 -0.2201
 3105SOL     OW12191   4.214   4.359   2.691 -0.1246  0.4653 -0.1072
 3105SOL    HW212192   4.239   4.443   2.652  1.0309 -0.2979 -1.0929
 3105SOL    HW312193   4.132   4.377   2.737  0.5363  2.3197  0.4229
 3105SOL    MW412194   4.206   4.373   2.692  0.1151  0.6092 -0.1673
 3106SOL     OW12195   4.432   1.437   1.371 -0.1624 -0.6440 -0.0390
 3106SOL    HW212196   4.501   1.372   1.387  0.2172 -0.3738 -0.5433
 3106SOL    HW312197   4.432   1.449   1.276  0.3760  0.7290  0.1009
 3106SOL    MW412198   4.441   1.430   1.360 -0.0413 -0.4272 -0.0871
 3107SOL     OW12199   5.133   4.925   3.266 -0.7264 -0.1141  0.4979
 3107SOL    HW212200   5.195   4.970   3.208 -1.4122  0.0056 -0.1552
 3107SOL    HW312201   5.088   4.863   3.208 -1.0842 -0.3326  1.0101
 3107SOL    MW412202   5.136   4.923   3.250 -0.8641 -0.1272  0.4793
 3108SOL     OW12203   0.337   2.266   1.063  0.0954 -0.3388  0.4490
 3108SOL    HW212204   0.321   2.197   1.127 -0.5332  0.2862  0.9860
 3108SOL    HW312205   0.335   2.347   1.114 -0.4229  0.1719 -0.3580
 3108SOL    MW412206   0.335   2.268   1.078 -0.0559 -0.1889  0.4134
 3109SOL     OW12207   4.263   4.124   2.326  0.1827  0.1123  0.3669
 3109SOL    HW212208   4.247   4.033   2.352 -1.8091  0.8962  2.0678
 3109SOL    HW312209   4.190   4.173   2.362  2.0127  2.6673  0.8356
 3109SOL    MW412210   4.251   4.118   2.334  0.1613  0.5528  0.6532
 3110SOL     OW12211   0.226   5.674   4.612 -0.0437  0.4882  0.2989
 3110SOL    HW212212   0.296   5.609   4.609 -1.8041 -1.5390  0.8566
 3110SOL    HW312213   0.249   5.731   4.685  1.4433  0.3874 -0.0697
 3110SOL    MW412214   0.238   5.673   4.622 -0.0797  0.2075  0.3239
 3111SOL     OW12215   1.719   0.301   4.868  0.0281 -0.3717  0.2330
 3111SOL    HW212216   1.723   0.288   4.774 -0.4822 -0.2631  0.1904
 3111SOL    HW312217   1.750   0.390   4.882  0.4523 -0.5128  0.2072
 3111SOL    MW412218   1.723   0.311   4.858  0.0167 -0.3760  0.2240
 3112SOL     OW12219   2.088   1.482   5.326 -0.5732  0.3631 -0.4394
 3112SOL    HW212220   2.111   1.415   5.261  1.4166  1.1658 -0.6321
 3112SOL    HW312221   2.005   1.452   5.362 -0.3851 -1.5348 -1.4307
 3112SOL    MW412222   2.080   1.469   5.322 -0.2859  0.2186 -0.5956
 3113SOL     OW12223   4.630   3.475   4.887  0.3989  0.2409 -0.8638
 3113SOL    HW212224   4.684   3.515   4.819 -0.3328  0.5783 -1.2621
 3113SOL    HW312225   4.554   3.441   4.840 -0.3405  0.8839 -0.1642
 3113SOL    MW412226   4.627   3.476   4.872  0.2048  0.3703 -0.8240
 3114SOL     OW12227   5.507   6.224   3.305 -0.0268 -0.1574 -0.3982
 3114SOL    HW212228   5.476   6.159   3.368  0.1203 -0.7017 -0.8739
 3114SOL    HW312229   5.443   6.221   3.234 -1.1944  1.7353  0.5022
 3114SOL    MW412230   5.494   6.215   3.304 -0.1615  0.0205 -0.3422
 3115SOL     OW12231   2.040   6.279   2.758  0.4552 -0.0814 -0.1480
 3115SOL    HW212232   2.095   6.207   2.728 -0.0182 -0.2956 -0.5115
 3115SOL    HW312233   1.966   6.280   2.698  0.6411  0.9547 -0.3788
 3115SOL    MW412234   2.038   6.270   2.746  0.4172  0.0271 -0.2264
 3116SOL     OW12235   2.727   2.888   3.938  0.1872 -0.0021 -0.2738
 3116SOL    HW212236   2.769   2.835   4.005 -0.5704 -0.7815 -0.4049
 3116SOL    HW312237   2.674   2.827   3.888  0.2178  0.6851 -1.1686
 3116SOL    MW412238   2.726   2.873   3.940  0.0913 -0.0142 -0.4092
 3117SOL     OW12239   0.624   1.535   0.996  0.0416  0.1964  0.2513
 3117SOL    HW212240   0.552   1.540   0.932 -1.1748 -0.5835  1.4944
 3117SOL    HW312241   0.703   1.547   0.944 -0.8108 -1.7468 -1.6635
 3117SOL    MW412242   0.625   1.537   0.981 -0.2313 -0.1628  0.1627
 3118SOL     OW12243   5.752   1.233   2.885  0.3707  0.1254  0.3670
 3118SOL    HW212244   5.733   1.155   2.833 -1.8249 -0.0017  1.2169
 3118SOL    HW312245   5.841   1.219   2.918  1.0316 -0.7364 -1.6324
 3118SOL    MW412246   5.761   1.221   2.883  0.1682 -0.0051  0.2153
 3119SOL     OW12247   2.837   4.000   1.109 -0.0710  0.3309 -0.3544
 3119SOL    HW212248   2.845   3.983   1.015 -1.1988 -0.3411 -0.3463
 3119SOL    HW312249   2.827   4.096   1.115  1.2267  0.5107 -0.8082
 3119SOL    MW412250   2.837   4.011   1.097 -0.0486  0.2660 -0.4132
 3120SOL     OW12251   4.447   4.041   0.430 -0.4733  0.5751  0.0350
 3120SOL    HW212252   4.496   4.108   0.383  0.5424  0.3974  0.8022
 3120SOL    HW312253   4.400   4.089   0.499 -0.7411  0.6468 -0.1964
 3120SOL    MW412254   4.447   4.056   0.433 -0.3746  0.5611  0.1057
 3121SOL     OW12255   2.718   2.501   5.292  0.6708  0.1249  0.2265
 3121SOL    HW212256   2.646   2.563   5.279  0.1300 -0.9168 -2.2204
 3121SOL    HW312257   2.796   2.549   5.262  0.3257 -0.2026 -1.2185
 3121SOL    MW412258   2.719   2.516   5.287  0.5539 -0.0558 -0.2870
 3122SOL     OW12259   2.346   3.437   2.096  0.8118 -0.0270 -0.2278
 3122SOL    HW212260   2.442   3.443   2.091  0.8849 -1.6821 -1.8269
 3122SOL    HW312261   2.329   3.347   2.125 -0.2812  0.7037  1.5590
 3122SOL    MW412262   2.357   3.426   2.099  0.6772 -0.1490 -0.2030
 3123SOL     OW12263   1.696   1.836   0.142  0.2857  0.8955 -0.1722
 3123SOL    HW212264   1.760   1.765   0.153 -0.5534 -0.0601 -1.1834
 3123SOL    HW312265   1.620   1.807   0.194  0.6905  2.0958  1.1521
 3123SOL    MW412266   1.694   1.823   0.151  0.2284  0.9278 -0.1309
 3124SOL     OW12267   1.608   2.504   1.485  0.4433  0.4489  0.6475
 3124SOL    HW212268   1.675   2.438   1.506 -0.6417 -0.3439  1.8175
 3124SOL    HW312269   1.566   2.522   1.569 -1.1960  0.4793 -0.1368
 3124SOL    MW412270   1.611   2.497   1.499  0.0839  0.3483  0.6984
 3125SOL     OW12271   0.069   5.868   5.184 -0.7332 -0.5686 -0.3621
 3125SOL    HW212272   0.154   5.897   5.218 -0.6721  1.0419 -1.8002
 3125SOL    HW312273   0.084   5.777   5.158 -0.3153 -1.3013  2.1819
 3125SOL    MW412274   0.082   5.859   5.185 -0.6700 -0.4528 -0.2162
 3126SOL     OW12275   0.932   1.149   2.104 -0.1065  0.2234  0.3986
 3126SOL    HW212276   0.923   1.119   2.195  0.3958  0.6580  0.5991
 3126SOL    HW312277   0.910   1.072   2.052 -1.2589  0.2175  0.8723
 3126SOL    MW412278   0.928   1.135   2.109 -0.1922  0.2800  0.4876
 3127SOL     OW12279   3.803   5.717   2.705  0.8444 -0.1315 -0.1791
 3127SOL    HW212280   3.756   5.634   2.721  2.5577 -1.2096 -0.4746
 3127SOL    HW312281   3.755   5.758   2.633 -1.4759  0.3503  1.5141
 3127SOL    MW412282   3.790   5.711   2.698  0.7643 -0.2102  0.0053
 3128SOL     OW12283   4.877   0.623   6.015 -0.5006 -0.0726  0.4184
 3128SOL    HW212284   4.856   0.551   5.955 -1.5832  0.5050  0.0757
 3128SOL    HW312285   4.958   0.661   5.979  0.0572 -1.0653  0.5777
 3128SOL    MW412286   4.885   0.618   6.002 -0.5699 -0.1274  0.3942
 3129SOL     OW12287   2.311   0.538   5.958 -0.1040 -0.4053  0.2366
 3129SOL    HW212288   2.335   0.595   5.885 -0.7020 -1.2972 -0.6816
 3129SOL    HW312289   2.216   0.543   5.963 -0.1126 -0.8224  0.5640
 3129SOL    MW412290   2.302   0.546   5.949 -0.1840 -0.5780  0.1586
 3130SOL     OW12291   4.703   2.417   1.690 -0.0888  0.4977 -0.4243
 3130SOL    HW212292   4.634   2.466   1.734  0.9920  0.4976  1.3809
 3130SOL    HW312293   4.730   2.351   1.754  2.1147  1.0180 -0.7410
 3130SOL    MW412294   4.698   2.415   1.704  0.3445  0.5663 -0.2279
 3131SOL     OW12295   2.856   5.887   2.140  0.1972  0.2758  0.3432
 3131SOL    HW212296   2.789   5.947   2.172  1.4057  1.1758  1.2669
 3131SOL    HW312297   2.939   5.927   2.165  1.1318 -0.4488 -1.3964
 3131SOL    MW412298   2.858   5.900   2.148  0.4799  0.2990  0.2356
 3132SOL     OW12299   4.019   5.935   1.326 -0.4559  0.1910  0.3091
 3132SOL    HW212300   4.038   5.849   1.364  1.4666  0.1009 -0.7728
 3132SOL    HW312301   4.052   5.930   1.237  0.8612  2.4496  0.5890
 3132SOL    MW412302   4.026   5.923   1.319 -0.0285  0.4771  0.2033
 3133SOL     OW12303   1.620   4.471   0.463 -0.3312  0.1341 -0.4142
 3133SOL    HW212304   1.661   4.445   0.545  0.6200  0.4603 -0.7772
 3133SOL    HW312305   1.663   4.416   0.397 -1.1232 -0.1641 -0.6968
 3133SOL    MW412306   1.631   4.460   0.465 -0.3102  0.1378 -0.4994
 3134SOL     OW12307   3.365   2.475   1.115 -0.1102 -0.3368  0.2363
 3134SOL    HW212308   3.400   2.386   1.103 -1.6549 -0.7071 -2.2002
 3134SOL    HW312309   3.280   2.461   1.156 -1.1442 -0.2015 -1.7445
 3134SOL    MW412310   3.359   2.461   1.119 -0.4504 -0.3678 -0.3465
 3135SOL     OW12311   1.036   5.170   5.680 -0.4721  0.3725 -0.3784
 3135SOL    HW212312   1.103   5.166   5.612 -1.2312 -0.9983 -1.0749
 3135SOL    HW312313   0.995   5.084   5.679 -2.2707  1.1854  0.0180
 3135SOL    MW412314   1.040   5.158   5.671 -0.8096  0.2989 -0.4180
 3136SOL     OW12315   5.058   2.650   1.198 -0.2130  0.2315  0.4960
 3136SOL    HW212316   5.018   2.691   1.121  0.9377  1.2221  0.3961
 3136SOL    HW312317   5.043   2.712   1.269 -0.5754 -0.3098  0.8948
 3136SOL    MW412318   5.051   2.663   1.197 -0.1090  0.2907  0.5354
 3137SOL     OW12319   3.444   0.271   6.276 -0.3165 -0.0807 -0.2221
 3137SOL    HW212320   3.532   0.243   6.300 -0.2579 -0.1914 -0.5592
 3137SOL    HW312321   3.400   0.190   6.249 -0.3540  0.0542 -0.5672
 3137SOL    MW412322   3.449   0.257   6.275 -0.3137 -0.0775 -0.3121
 3138SOL     OW12323   0.330   0.451   2.801  0.0998 -0.5129  0.1448
 3138SOL    HW212324   0.283   0.412   2.876 -0.1269 -2.7218 -1.0552
 3138SOL    HW312325   0.262   0.495   2.751 -0.1463 -0.9168  0.1129
 3138SOL    MW412326   0.315   0.451   2.805  0.0374 -0.8577 -0.0177
 3139SOL     OW12327   1.967   5.329   3.695 -0.0534 -0.2589 -0.2604
 3139SOL    HW212328   1.937   5.273   3.623 -0.3766  1.0761 -1.2295
 3139SOL    HW312329   1.892   5.385   3.714  0.8062  1.0505 -0.5772
 3139SOL    MW412330   1.953   5.329   3.688  0.0174  0.0900 -0.4301
 3140SOL     OW12331   5.416   4.779   4.815  0.4717  0.4431 -0.2206
 3140SOL    HW212332   5.500   4.825   4.822  1.0971 -0.6394 -0.3968
 3140SOL    HW312333   5.350   4.849   4.815  1.3157  1.2616  0.7974
 3140SOL    MW412334   5.418   4.794   4.816  0.6655  0.4083 -0.1096
 3141SOL     OW12335   2.472   4.387   0.595  0.4235  0.6154  0.0190
 3141SOL    HW212336   2.445   4.365   0.506  0.8263  2.2003 -0.5254
 3141SOL    HW312337   2.457   4.307   0.645  1.8695 -0.9212 -1.8270
 3141SOL    MW412338   2.467   4.374   0.590  0.6674  0.6218 -0.2964
 3142SOL     OW12339   0.564   5.592   3.658  0.1070 -0.0796 -0.1771
 3142SOL    HW212340   0.519   5.658   3.606  0.3499  1.2044  1.1949
 3142SOL    HW312341   0.503   5.518   3.659 -0.4270  0.3198 -1.2362
 3142SOL    MW412342   0.550   5.591   3.651  0.0686  0.1425 -0.1358
 3143SOL     OW12343   0.113   6.127   4.589 -0.5638 -0.5523  0.0840
 3143SOL    HW212344   0.055   6.124   4.665 -0.9279 -0.5747 -0.1905
 3143SOL    HW312345   0.054   6.135   4.514 -0.2694 -1.4677 -0.2705
 3143SOL    MW412346   0.097   6.127   4.589 -0.5730 -0.6761  0.0010
 3144SOL     OW12347   3.525   3.074   5.225 -0.6767 -0.4332 -0.9719
 3144SOL    HW212348   3.459   3.011   5.254 -0.3063 -0.2038  0.4196
 3144SOL    HW312349   3.484   3.160   5.237 -1.5973 -0.3398 -3.8742
 3144SOL    MW412350   3.511   3.077   5.230 -0.7493 -0.3906 -1.1713
 3145SOL     OW12351   6.055   0.205   5.622 -0.3330  0.7548  0.2482
 3145SOL    HW212352   6.115   0.162   5.683  1.7897  2.1137 -0.7705
 3145SOL    HW312353   5.972   0.210   5.669  0.6484 -0.1337  2.1862
 3145SOL    MW412354   6.052   0.200   5.636  0.0765  0.8169  0.3695
 3146SOL     OW12355   1.964   0.767   1.168  0.0280  0.3654 -0.9428
 3146SOL    HW212356   1.991   0.675   1.170 -0.1556  0.2928 -1.7329
 3146SOL    HW312357   1.869   0.765   1.160  0.0918  0.6101 -1.9437
 3146SOL    MW412358   1.955   0.755   1.167  0.0122  0.3881 -1.1791
 3147SOL     OW12359   3.239   0.362   5.864 -0.0127 -0.1367  0.0049
 3147SOL    HW212360   3.329   0.376   5.893 -0.3362 -0.3159  1.1291
 3147SOL    HW312361   3.188   0.355   5.945 -1.3953  2.1016 -0.5732
 3147SOL    MW412362   3.244   0.363   5.878 -0.2378  0.1350  0.0770
 3148SOL     OW12363   3.656   1.213   2.913 -0.2926  0.5190  0.0383
 3148SOL    HW212364   3.597   1.245   2.845  1.3345  1.9317 -0.7945
 3148SOL    HW312365   3.643   1.274   2.987 -0.7536  0.0854  0.3170
 3148SOL    MW412366   3.646   1.226   2.914 -0.1388  0.6482 -0.0348
 3149SOL     OW12367   6.249   3.230   1.722  0.0595 -0.2084 -0.4827
 3149SOL    HW212368   6.183   3.238   1.653  0.1798 -0.7551 -0.6717
 3149SOL    HW312369   6.212   3.276   1.797 -1.1052 -1.5763 -0.1815
 3149SOL    MW412370   6.236   3.237   1.723 -0.0783 -0.4610 -0.4679
 3150SOL     OW12371   5.241   3.210   4.912  0.3045  0.1508  0.1703
 3150SOL    HW212372   5.311   3.265   4.875  0.8861 -0.1081  0.8684
 3150SOL    HW312373   5.174   3.272   4.938  0.0253  0.3661 -1.0024
 3150SOL    MW412374   5.242   3.225   4.910  0.3444  0.1450  0.1077
 3151SOL     OW12375   6.098   3.100   1.347 -0.4274 -0.0007  0.0524
 3151SOL    HW212376   6.184   3.140   1.361 -0.1858 -0.5039  0.0420
 3151SOL    HW312377   6.041   3.141   1.412  0.2151 -0.8641  1.2219
 3151SOL    MW412378   6.102   3.110   1.358 -0.3107 -0.1810  0.2053
 3152SOL     OW12379   2.691   6.410   3.715  0.2195  0.2502 -0.1559
 3152SOL    HW212380   2.746   6.434   3.641 -0.1636 -1.6376 -1.1089
 3152SOL    HW312381   2.664   6.320   3.697  1.8737 -1.1070  3.3686
 3152SOL    MW412382   2.694   6.401   3.703  0.3872 -0.1779  0.1834
 3153SOL     OW12383   4.898   4.367   5.396 -0.1869  0.0261 -0.3814
 3153SOL    HW212384   4.817   4.417   5.407  0.1766  0.5310  0.0506
 3153SOL    HW312385   4.928   4.350   5.485 -0.6042 -1.4840 -0.4941
 3153SOL    MW412386   4.891   4.371   5.409 -0.1940 -0.1065 -0.3393
 3154SOL     OW12387   2.311   1.986   1.023 -0.3132  0.3763 -0.0037
 3154SOL    HW212388   2.272   1.931   1.090  1.2740  1.8086  2.2125
 3154SOL    HW312389   2.255   1.974   0.946 -0.8168 -3.1975  0.7458
 3154SOL    MW412390   2.299   1.977   1.022 -0.1703  0.0937  0.3876
 3155SOL     OW12391   4.444   5.342   5.357  0.3986 -0.5055 -0.1254
 3155SOL    HW212392   4.477   5.258   5.389  0.5346  0.0892  1.3786
 3155SOL    HW312393   4.411   5.386   5.435 -1.0823  0.2290 -1.1177
 3155SOL    MW412394   4.444   5.337   5.372  0.2212 -0.3302 -0.0579
 3156SOL     OW12395   3.199   3.598   5.565  0.3491 -0.2031 -0.4070
 3156SOL    HW212396   3.135   3.591   5.637  1.0779  1.1712  0.4386
 3156SOL    HW312397   3.152   3.645   5.496  0.5368  1.2341  0.3968
 3156SOL    MW412398   3.184   3.603   5.566  0.4700  0.1679 -0.1894
 3157SOL     OW12399   4.981   3.453   4.265 -0.4728  0.1476  0.4706
 3157SOL    HW212400   5.076   3.468   4.265 -0.4166 -0.1934 -0.1295
 3157SOL    HW312401   4.946   3.523   4.321  0.2887 -0.7346  2.1163
 3157SOL    MW412402   4.989   3.464   4.273 -0.3649 -0.0138  0.6085
 3158SOL     OW12403   4.135   5.327   5.395 -0.0453 -0.1862 -0.0499
 3158SOL    HW212404   4.218   5.365   5.423  0.0018 -0.2685 -0.0784
 3158SOL    HW312405   4.149   5.232   5.400  0.3280 -0.2232 -1.4112
 3158SOL    MW412406   4.148   5.319   5.400  0.0102 -0.2020 -0.2333
 3159SOL     OW12407   1.758   3.296   5.455 -0.1248  0.3472  0.1196
 3159SOL    HW212408   1.828   3.259   5.509  1.7402 -0.5444 -2.6811
 3159SOL    HW312409   1.797   3.375   5.416 -0.3240 -0.5333 -2.0154
 3159SOL    MW412410   1.772   3.302   5.457  0.0950  0.1134 -0.5316
 3160SOL     OW12411   0.312   1.182   0.038 -0.0134 -0.5681 -0.1888
 3160SOL    HW212412   0.359   1.161   0.119 -0.9435 -0.4908  0.3957
 3160SOL    HW312413   0.257   1.106   0.021 -0.2350 -0.3591 -0.4297
 3160SOL    MW412414   0.311   1.169   0.047 -0.1653 -0.5303 -0.1434
 3161SOL     OW12415   5.111   2.019   0.180 -0.2372  0.4577 -0.2450
 3161SOL    HW212416   5.179   2.059   0.234 -0.2474 -1.8654  1.6591
 3161SOL    HW312417   5.038   2.006   0.241 -0.4258 -1.8353 -0.9006
 3161SOL    MW412418   5.110   2.023   0.195 -0.2634 -0.1513 -0.0802
 3162SOL     OW12419   2.546   1.925   2.797 -0.4692 -0.3841  0.0082
 3162SOL    HW212420   2.523   1.905   2.888 -0.2667 -0.4629  0.0418
 3162SOL    HW312421   2.472   1.977   2.765 -0.4705 -0.2270  0.2640
 3162SOL    MW412422   2.533   1.930   2.805 -0.4427 -0.3738  0.0464
 3163SOL     OW12423   1.208   1.905   6.255  0.0995  0.0165  0.0617
 3163SOL    HW212424   1.249   1.831   6.299  0.3782  0.1136 -0.0379
 3163SOL    HW312425   1.121   1.873   6.231 -0.4596  0.2927  1.6328
 3163SOL    MW412426   1.202   1.891   6.258  0.0625  0.0658  0.2558
 3164SOL     OW12427   3.775   5.968   0.571 -0.3050 -0.2053  0.4028
 3164SOL    HW212428   3.717   5.991   0.498 -1.2587  1.0845  1.5211
 3164SOL    HW312429   3.731   5.894   0.613  0.4454 -1.2060 -0.5301
 3164SOL    MW412430   3.761   5.961   0.567 -0.3318 -0.1672  0.4273
 3165SOL     OW12431   2.652   3.128   5.344  0.1433  0.2121 -0.0624
 3165SOL    HW212432   2.680   3.079   5.266  0.0686  0.6039 -0.3362
 3165SOL    HW312433   2.661   3.220   5.320 -0.3970  0.3395  0.2048
 3165SOL    MW412434   2.657   3.134   5.331  0.0622  0.2806 -0.0633
 3166SOL     OW12435   0.963   1.731   1.030 -0.3751 -0.5239  0.3992
 3166SOL    HW212436   0.954   1.696   1.118 -1.4058 -0.5686  0.2868
 3166SOL    HW312437   0.905   1.678   0.976 -0.0517 -0.2472 -0.2399
 3166SOL    MW412438   0.954   1.720   1.035 -0.4684 -0.4933  0.3000
 3167SOL     OW12439   0.068   6.346   1.792  0.6850 -0.2217  0.3836
 3167SOL    HW212440  -0.013   6.320   1.837  0.5316  1.1795  0.9463
 3167SOL    HW312441   0.138   6.309   1.845  0.4608  0.0412  0.8636
 3167SOL    MW412442   0.066   6.337   1.805  0.6352 -0.0021  0.5211
 3168SOL     OW12443   2.782   4.657   0.393  0.1419 -0.2405 -0.2440
 3168SOL    HW212444   2.858   4.602   0.372 -0.8974 -1.6814 -0.4053
 3168SOL    HW312445   2.711   4.621   0.340 -0.8782  0.4894  0.5838
 3168SOL    MW412446   2.783   4.645   0.383 -0.1298 -0.3343 -0.1560
 3169SOL     OW12447   4.789   2.257   6.075 -0.3572 -0.3352 -0.1001
 3169SOL    HW212448   4.834   2.187   6.028 -0.0005 -0.0713 -0.1567
 3169SOL    HW312449   4.720   2.212   6.124 -0.4625 -0.6597 -0.5438
 3169SOL    MW412450   4.786   2.242   6.076 -0.3240 -0.3432 -0.1661
 3170SOL     OW12451   2.598   4.881   4.011 -0.3253  0.1653  0.4119
 3170SOL    HW212452   2.605   4.797   3.966 -2.3521  0.8799 -1.4610
 3170SOL    HW312453   2.681   4.925   3.993 -0.4331 -0.2494 -1.2839
 3170SOL    MW412454   2.610   4.876   4.003 -0.6069  0.2049 -0.0590
 3171SOL     OW12455   1.983   3.713   0.356  0.1938 -0.3518  0.2163
 3171SOL    HW212456   1.895   3.675   0.353 -0.3946  0.9713 -0.0270
 3171SOL    HW312457   2.023   3.686   0.273  0.2152 -1.3976  0.5610
 3171SOL    MW412458   1.977   3.705   0.344  0.1190 -0.3152  0.2297
 3172SOL     OW12459   5.972   1.957   6.417 -0.1513  0.3466 -0.1083
 3172SOL    HW212460   5.908   1.957   6.345 -2.3312 -2.3166  1.6240
 3172SOL    HW312461   5.970   2.047   6.450  0.8885  1.6442 -3.2264
 3172SOL    MW412462   5.963   1.969   6.412 -0.3017  0.1665 -0.2911
 3173SOL     OW12463   0.217   1.192   2.918 -0.1929 -0.2754 -0.1072
 3173SOL    HW212464   0.202   1.278   2.956  1.2481 -0.4603  0.9396
 3173SOL    HW312465   0.137   1.143   2.940 -0.7777  0.5988 -0.2076
 3173SOL    MW412466   0.204   1.197   2.926 -0.0799 -0.1844  0.0176
 3174SOL     OW12467   3.537   1.749   0.315  0.2009 -0.5961 -0.0598
 3174SOL    HW212468   3.471   1.683   0.336  1.0801 -1.3880  0.2614
 3174SOL    HW312469   3.509   1.785   0.231 -2.0083  0.8556  1.1683
 3174SOL    MW412470   3.525   1.745   0.307  0.0254 -0.5090  0.1446
 3175SOL     OW12471   3.538   2.518   2.855 -0.4761 -0.5135  0.2781
 3175SOL    HW212472   3.445   2.540   2.849 -0.6961 -1.6486 -0.7606
 3175SOL    HW312473   3.579   2.569   2.785 -0.1710  0.5781  1.2174
 3175SOL    MW412474   3.531   2.528   2.845 -0.4649 -0.5192  0.2650
 3176SOL     OW12475   4.886   4.820   3.106 -0.4703 -0.4501  0.1126
 3176SOL    HW212476   4.791   4.807   3.107 -0.3564 -1.2774  0.5433
 3176SOL    HW312477   4.904   4.860   3.020 -1.3696  1.0964  0.5992
 3176SOL    MW412478   4.876   4.824   3.095 -0.5739 -0.3552  0.2337
 3177SOL     OW12479   4.671   1.498   3.290  0.3044  0.6429 -0.4861
 3177SOL    HW212480   4.755   1.486   3.245 -0.0227  0.4055 -1.0388
 3177SOL    HW312481   4.656   1.416   3.336  1.6763  1.5930  1.8732
 3177SOL    MW412482   4.680   1.486   3.290  0.4423  0.7370 -0.2478
 3178SOL     OW12483   5.773   3.641   3.778  0.7956 -0.2155 -0.3893
 3178SOL    HW212484   5.726   3.559   3.798  0.0158  0.3856  0.3479
 3178SOL    HW312485   5.855   3.633   3.827  0.1237  0.0143  0.8244
 3178SOL    MW412486   5.778   3.629   3.787  0.6041 -0.1059 -0.1319
 3179SOL     OW12487   5.911   4.238   2.416  0.2068  0.1148  0.8422
 3179SOL    HW212488   5.857   4.289   2.476  0.9698  0.6588  1.0721
 3179SOL    HW312489   5.938   4.161   2.467 -0.8308 -0.4671  0.5381
 3179SOL    MW412490   5.907   4.235   2.431  0.1705  0.1098  0.8324
 3180SOL     OW12491   1.612   5.230   0.094  0.1278 -0.2618  0.1466
 3180SOL    HW212492   1.544   5.219   0.027  1.1341 -0.0640 -0.9504
 3180SOL    HW312493   1.640   5.141   0.114 -2.5400 -0.6640  2.9617
 3180SOL    MW412494   1.606   5.217   0.088 -0.0914 -0.2888  0.3733
 3181SOL     OW12495   0.348   1.579   4.883  0.1228 -0.5779 -0.0280
 3181SOL    HW212496   0.328   1.569   4.976 -0.8930 -1.7165 -0.3361
 3181SOL    HW312497   0.423   1.638   4.880  1.0277 -1.5764  1.5969
 3181SOL    MW412498   0.355   1.585   4.895  0.1082 -0.8599  0.1457
 3182SOL     OW12499   1.186   5.485   2.372 -0.0340  0.0513  0.2119
 3182SOL    HW212500   1.133   5.563   2.384 -2.5926 -1.5793  0.2577
 3182SOL    HW312501   1.172   5.459   2.282  3.1801  1.1482 -0.7670
 3182SOL    MW412502   1.177   5.492   2.362  0.0525 -0.0191  0.0888
 3183SOL     OW12503   4.751   5.178   0.003 -0.5800  0.3229 -0.4748
 3183SOL    HW212504   4.715   5.207  -0.080  0.0640 -0.1421 -0.9272
 3183SOL    HW312505   4.834   5.135  -0.020 -1.0118 -0.9742  0.2486
 3183SOL    MW412506   4.757   5.176  -0.011 -0.5520  0.0904 -0.4390
 3184SOL     OW12507   5.544   5.294   4.989 -0.3536  0.2404 -0.2766
 3184SOL    HW212508   5.488   5.247   5.051 -0.8258 -0.0690 -0.9262
 3184SOL    HW312509   5.517   5.385   4.997  0.7052  0.4661  1.1387
 3184SOL    MW412510   5.533   5.300   4.999 -0.2762  0.2294 -0.1756
 3185SOL     OW12511   4.652   0.676   6.301 -0.3686 -0.1417  0.1094
 3185SOL    HW212512   4.697   0.604   6.345  2.9546  1.3006 -0.6603
 3185SOL    HW312513   4.631   0.738   6.371  1.1971  0.2928  0.2336
 3185SOL    MW412514   4.655   0.675   6.316  0.2765  0.1060  0.0243
 3186SOL     OW12515   2.498   0.240   0.084  0.7491  0.3496  0.0443
 3186SOL    HW212516   2.529   0.201   0.166  0.8658  0.5163  0.0788
 3186SOL    HW312517   2.520   0.176   0.017 -0.8048 -0.5468  0.3392
 3186SOL    MW412518   2.505   0.226   0.086  0.5595  0.2533  0.0878
 3187SOL     OW12519   0.814   2.819   0.122  0.2021 -0.4907 -0.0716
 3187SOL    HW212520   0.754   2.811   0.195 -0.4564  0.7347 -0.4587
 3187SOL    HW312521   0.862   2.900   0.138  1.3499 -1.1452 -0.0725
 3187SOL    MW412522   0.813   2.829   0.133  0.2667 -0.4154 -0.1228
 3188SOL     OW12523   1.815   6.165   0.176 -0.1563 -0.4469 -0.3728
 3188SOL    HW212524   1.836   6.208   0.260  0.4358 -1.2304 -0.1135
 3188SOL    HW312525   1.877   6.094   0.169  1.0044  0.6763 -2.3586
 3188SOL    MW412526   1.826   6.161   0.186  0.0749 -0.4021 -0.6006
 3189SOL     OW12527   6.181   4.566   3.129  0.8084 -0.0451 -0.0510
 3189SOL    HW212528   6.133   4.623   3.189  0.5692 -0.9978  0.6877
 3189SOL    HW312529   6.119   4.495   3.110  0.9689  0.1279 -1.2443
 3189SOL    MW412530   6.166   4.564   3.135  0.7980 -0.1480 -0.1110
 3190SOL     OW12531   3.581   3.365   0.530 -0.0095 -0.2088  0.1089
 3190SOL    HW212532   3.667   3.373   0.491  0.1366 -0.1650  0.4332
 3190SOL    HW312533   3.577   3.275   0.563 -0.0456 -0.1775  0.1915
 3190SOL    MW412534   3.592   3.354   0.529  0.0050 -0.1989  0.1626
 3191SOL     OW12535   5.079   0.742   5.731 -0.9227 -0.0320 -0.2293
 3191SOL    HW212536   5.039   0.731   5.645  0.9501  0.5161 -1.2370
 3191SOL    HW312537   5.155   0.684   5.729 -0.0248  1.0815  0.4629
 3191SOL    MW412538   5.084   0.733   5.719 -0.5572  0.1872 -0.2710
 3192SOL     OW12539   6.243   5.815   4.324  0.6294  0.4257  0.1097
 3192SOL    HW212540   6.313   5.865   4.282 -1.0026  1.9629 -0.9320
 3192SOL    HW312541   6.176   5.881   4.344 -0.2958 -0.8949  1.6031
 3192SOL    MW412542   6.244   5.830   4.321  0.2920  0.4543  0.1693
 3193SOL     OW12543   3.372   1.133   4.566  0.3706  0.0217 -0.1248
 3193SOL    HW212544   3.384   1.060   4.504 -0.7361 -0.9035  0.6913
 3193SOL    HW312545   3.320   1.197   4.518 -1.4957 -1.1983  0.1381
 3193SOL    MW412546   3.367   1.132   4.551 -0.0217 -0.2613  0.0176
 3194SOL     OW12547   3.135   5.210   5.531 -0.3358 -0.2132  0.4707
 3194SOL    HW212548   3.183   5.274   5.583  1.2858  0.0660 -1.2331
 3194SOL    HW312549   3.088   5.262   5.466  0.2848 -0.6593 -0.3683
 3194SOL    MW412550   3.135   5.225   5.529 -0.0399 -0.2352  0.1352
 3195SOL     OW12551   0.094   0.102   4.957  0.4997  0.3175  0.0055
 3195SOL    HW212552   0.141   0.020   4.972  0.4122  0.3084  0.2262
 3195SOL    HW312553   0.123   0.160   5.027 -3.2678 -1.1264  3.1721
 3195SOL    MW412554   0.104   0.099   4.968 -0.0089  0.1258  0.4524
 3196SOL     OW12555   0.711   5.433   1.355  0.8190 -0.3519  0.3298
 3196SOL    HW212556   0.649   5.503   1.372  0.5817 -0.2193 -0.9598
 3196SOL    HW312557   0.663   5.372   1.299  2.1028  0.2200 -1.4750
 3196SOL    MW412558   0.697   5.434   1.350  0.9570 -0.2590 -0.0785
 3197SOL     OW12559   0.533   0.371   0.166  0.2285  0.0324 -0.2389
 3197SOL    HW212560   0.564   0.373   0.076  1.1317  0.4606  0.0712
 3197SOL    HW312561   0.441   0.398   0.160 -0.1119 -1.2660 -1.1730
 3197SOL    MW412562   0.525   0.375   0.153  0.3027 -0.0824 -0.3212
 3198SOL     OW12563   3.183   1.396   0.475 -0.1377 -0.3277 -0.5183
 3198SOL    HW212564   3.213   1.469   0.421  1.3890 -0.8542 -0.4029
 3198SOL    HW312565   3.192   1.319   0.419 -1.8955 -0.4526 -0.6962
 3198SOL    MW412566   3.188   1.395   0.461 -0.1682 -0.4136 -0.5265
 3199SOL     OW12567   4.540   6.374   0.635 -0.3636 -0.2408 -0.3271
 3199SOL    HW212568   4.596   6.377   0.558  1.9650 -1.2195  1.2194
 3199SOL    HW312569   4.459   6.418   0.608  1.0694  1.1213 -2.7211
 3199SOL    MW412570   4.537   6.381   0.622  0.1327 -0.1903 -0.4389
 3200SOL     OW12571   0.704   5.708   2.867 -0.1605  0.0828 -0.8839
 3200SOL    HW212572   0.749   5.630   2.833  1.0893  0.4550 -0.1633
 3200SOL    HW312573   0.658   5.744   2.791 -0.6440 -1.2566 -1.2658
 3200SOL    MW412574   0.704   5.702   2.853 -0.0594 -0.0448 -0.8392
 3201SOL     OW12575   2.210   2.366   2.710  0.1602  0.0104 -0.1431
 3201SOL    HW212576   2.161   2.434   2.756  0.4536 -0.4317  0.8642
 3201SOL    HW312577   2.143   2.315   2.664 -0.0459  1.0580 -1.0595
 3201SOL    MW412578   2.194   2.368   2.710  0.1717  0.0903 -0.1311
 3202SOL     OW12579   5.880   4.284   4.016  0.3601 -0.1777  0.1947
 3202SOL    HW212580   5.798   4.250   3.981  0.0551  0.0392  0.6921
 3202SOL    HW312581   5.887   4.246   4.104 -0.8729  2.3557  1.5100
 3202SOL    MW412582   5.870   4.275   4.023  0.1572  0.1851  0.4338
 3203SOL     OW12583   4.090   6.215   3.413  0.5292 -0.2816 -0.0143
 3203SOL    HW212584   4.067   6.304   3.440 -2.7770 -0.6270 -1.3198
 3203SOL    HW312585   4.070   6.160   3.489 -0.3217 -0.2377 -0.1999
 3203SOL    MW412586   4.085   6.220   3.427 -0.0193 -0.3214 -0.2110
 3204SOL     OW12587   2.846   0.731   0.660  0.4191 -0.1541 -0.0901
 3204SOL    HW212588   2.902   0.808   0.667 -0.7826  0.7839 -0.3177
 3204SOL    HW312589   2.832   0.719   0.566  1.4278 -1.2979 -0.1139
 3204SOL    MW412590   2.851   0.740   0.648  0.3937 -0.1812 -0.1233
 3205SOL     OW12591   1.059   4.210   4.659 -0.3082  0.3529  0.8983
 3205SOL    HW212592   1.042   4.288   4.607 -0.3043 -0.1647  0.0951
 3205SOL    HW312593   0.987   4.151   4.638  2.6056 -2.2552 -3.2653
 3205SOL    MW412594   1.047   4.212   4.649  0.0768 -0.0595  0.2430
 3206SOL     OW12595   5.299   4.729   6.169  0.3892  0.0536  0.0418
 3206SOL    HW212596   5.286   4.686   6.084  1.1916  2.0589 -1.1784
 3206SOL    HW312597   5.368   4.679   6.211  2.1657  0.7780 -1.8620
 3206SOL    MW412598   5.306   4.717   6.163  0.7295  0.4138 -0.3704
 3207SOL     OW12599   5.345   6.287   0.279 -0.2745  0.0559 -0.0678
 3207SOL    HW212600   5.343   6.363   0.220  0.8048  0.9689  1.0237
 3207SOL    HW312601   5.306   6.320   0.361  1.4803 -0.1200  0.8812
 3207SOL    MW412602   5.339   6.302   0.282  0.0994  0.1532  0.2015
 3208SOL     OW12603   0.648   3.067   0.707  0.0496  0.5812 -0.0901
 3208SOL    HW212604   0.640   3.160   0.685  1.8909  0.8736  0.2661
 3208SOL    HW312605   0.638   3.064   0.802 -1.2106  0.2320 -0.2213
 3208SOL    MW412606   0.646   3.079   0.716  0.1263  0.5738 -0.0604
 3209SOL     OW12607   1.289   6.183   5.944  0.6539  0.3928 -0.8610
 3209SOL    HW212608   1.230   6.173   5.869  1.6716  0.7870 -1.7313
 3209SOL    HW312609   1.238   6.150   6.019  0.1072 -1.2822 -1.9260
 3209SOL    MW412610   1.274   6.177   5.944  0.7161  0.2238 -1.1163
 3210SOL     OW12611   0.841   2.419   5.104 -0.0831 -0.2126 -0.1615
 3210SOL    HW212612   0.853   2.324   5.107 -0.7505 -0.8882 -6.0132
 3210SOL    HW312613   0.747   2.431   5.122 -0.2723 -0.8743 -0.6469
 3210SOL    MW412614   0.830   2.408   5.107 -0.1961 -0.3891 -0.9976
 3211SOL     OW12615   0.036   5.273   3.551  0.6710 -0.8879 -0.1910
 3211SOL    HW212616   0.039   5.257   3.645  0.9524 -0.6069 -0.1521
 3211SOL    HW312617  -0.053   5.304   3.535  0.7384 -0.5742  0.0393
 3211SOL    MW412618   0.025   5.275   3.561  0.7170 -0.8094 -0.1555
 3212SOL     OW12619   2.586   5.824   3.355 -0.6057 -0.1612 -0.6442
 3212SOL    HW212620   2.659   5.763   3.342  0.2909  1.0690 -1.5940
 3212SOL    HW312621   2.616   5.884   3.423 -0.8323  0.1909 -0.8520
 3212SOL    MW412622   2.600   5.824   3.362 -0.5173  0.0476 -0.7970
 3213SOL     OW12623   1.864   6.302   6.098 -0.3952  0.3087  0.5983
 3213SOL    HW212624   1.833   6.223   6.142 -0.4127  0.1913  0.3744
 3213SOL    HW312625   1.947   6.321   6.142 -0.6089  0.4232  0.9562
 3213SOL    MW412626   1.871   6.294   6.110 -0.4257  0.3084  0.6160
 3214SOL     OW12627   5.717   4.236   4.603  0.1119 -0.3748 -0.9342
 3214SOL    HW212628   5.651   4.242   4.672  0.6557  1.2577 -0.5165
 3214SOL    HW312629   5.755   4.148   4.613  1.6647  0.5166  2.2678
 3214SOL    MW412630   5.713   4.225   4.613  0.3885 -0.0418 -0.4566
 3215SOL     OW12631   4.311   3.624   6.214 -0.2884  0.1776  0.5821
 3215SOL    HW212632   4.244   3.556   6.202 -0.6078  0.8217 -1.8170
 3215SOL    HW312633   4.291   3.662   6.299 -1.6499 -1.0937  0.8751
 3215SOL    MW412634   4.299   3.620   6.223 -0.5101  0.0949  0.3042
 3216SOL     OW12635   2.484   1.041   6.025 -0.6715 -0.0134  0.0742
 3216SOL    HW212636   2.561   0.986   6.010 -1.2780 -0.6406 -0.8115
 3216SOL    HW312637   2.441   1.002   6.101  0.2774  0.8064  1.0757
 3216SOL    MW412638   2.489   1.029   6.033 -0.6263  0.0120  0.0895
 3217SOL     OW12639   1.813   1.173   4.272 -0.2609 -0.3275 -0.2362
 3217SOL    HW212640   1.836   1.220   4.352 -0.4054  0.0475 -0.4166
 3217SOL    HW312641   1.770   1.093   4.303 -0.0192 -0.3403  0.0686
 3217SOL    MW412642   1.810   1.168   4.287 -0.2481 -0.2797 -0.2198
 3218SOL     OW12643   5.268   1.829   5.062  0.2279 -0.9607 -0.4927
 3218SOL    HW212644   5.341   1.768   5.070  1.7191  0.5988 -1.5624
 3218SOL    HW312645   5.308   1.916   5.070 -1.5017 -0.0477 -1.1872
 3218SOL    MW412646   5.283   1.832   5.064  0.1964 -0.6345 -0.7254
 3219SOL     OW12647   4.562   0.639   3.002 -0.1509 -0.4763 -0.0236
 3219SOL    HW212648   4.503   0.567   2.975 -0.9152  0.5467 -1.2105
 3219SOL    HW312649   4.534   0.661   3.090 -0.3554 -1.1893  0.0977
 3219SOL    MW412650   4.550   0.632   3.010 -0.2787 -0.4354 -0.1642
 3220SOL     OW12651   6.388   6.065   1.542 -0.2776 -0.2085  0.0303
 3220SOL    HW212652   6.436   6.000   1.491  0.5423  0.6319 -0.3101
 3220SOL    HW312653   6.379   6.140   1.483 -1.1745  0.0076  0.4255
 3220SOL    MW412654   6.393   6.066   1.528 -0.2877 -0.0691  0.0375
 3221SOL     OW12655   3.011   1.165   0.293 -0.2027 -0.2769 -0.2861
 3221SOL    HW212656   2.987   1.161   0.385 -0.2286 -1.6636 -0.3358
 3221SOL    HW312657   2.948   1.226   0.254  0.9276  1.7683  0.9195
 3221SOL    MW412658   3.000   1.172   0.300 -0.0570 -0.1900 -0.1336
 3222SOL     OW12659   5.475   2.399   1.315  0.1953  0.0814 -0.0962
 3222SOL    HW212660   5.481   2.464   1.244 -0.7708  1.5231  1.0966
 3222SOL    HW312661   5.385   2.405   1.346  0.7684 -0.0616  1.6753
 3222SOL    MW412662   5.464   2.409   1.310  0.1435  0.2528  0.2949
 3223SOL     OW12663   0.923   6.259   0.554 -0.1130  0.8420  0.0980
 3223SOL    HW212664   0.833   6.276   0.529 -0.5825 -0.8349  0.4928
 3223SOL    HW312665   0.916   6.210   0.636  0.9164 -2.5755 -1.6634
 3223SOL    MW412666   0.910   6.254   0.561 -0.0391  0.1699 -0.0823
 3224SOL     OW12667   6.073   0.845   3.180  0.1547  0.7936 -0.2010
 3224SOL    HW212668   6.118   0.773   3.136 -1.3659 -0.1966 -0.2137
 3224SOL    HW312669   6.139   0.914   3.188  0.5912  0.9778 -3.7937
 3224SOL    MW412670   6.087   0.845   3.176  0.0116  0.6873 -0.6767
 3225SOL     OW12671   4.898   6.205   0.495  0.5059  0.0093  0.2174
 3225SOL    HW212672   4.988   6.183   0.520  0.1066 -1.2112  0.6491
 3225SOL    HW312673   4.895   6.188   0.401  0.7393  0.1388  0.1840
 3225SOL    MW412674   4.909   6.200   0.486  0.4840 -0.1347  0.2699
 3226SOL     OW12675   2.447   0.571   6.202  0.3333 -0.1930 -0.3726
 3226SOL    HW212676   2.389   0.593   6.130  3.3523  2.2608 -2.3100
 3226SOL    HW312677   2.442   0.475   6.209 -1.8351 -0.2874 -2.2042
 3226SOL    MW412678   2.439   0.561   6.194  0.4455  0.1183 -0.8699
 3227SOL     OW12679   1.594   1.457   4.594  0.1582 -0.4461 -0.2820
 3227SOL    HW212680   1.599   1.510   4.673  0.5689  0.1701 -0.7177
 3227SOL    HW312681   1.680   1.415   4.587 -0.7483 -2.7699  1.1291
 3227SOL    MW412682   1.606   1.458   4.603  0.0928 -0.6714 -0.1533
 3228SOL     OW12683   2.575   1.259   0.693 -0.1708 -0.3250 -0.0009
 3228SOL    HW212684   2.558   1.270   0.787  0.3221 -0.0439  0.0600
 3228SOL    HW312685   2.634   1.331   0.671 -0.5465 -0.1878 -0.6018
 3228SOL    MW412686   2.580   1.270   0.703 -0.1553 -0.2698 -0.0721
 3229SOL     OW12687   0.828   2.365   1.227  0.5225 -0.3230  0.1575
 3229SOL    HW212688   0.860   2.281   1.261  1.6347  0.3776  0.9185
 3229SOL    HW312689   0.819   2.350   1.133  1.0644 -1.1999  0.2259
 3229SOL    MW412690   0.831   2.352   1.219  0.7407 -0.3463  0.2670
 3230SOL     OW12691   2.420   2.392   3.307 -0.1155 -0.1311  0.9096
 3230SOL    HW212692   2.507   2.363   3.282 -0.6718 -0.4269 -0.8127
 3230SOL    HW312693   2.420   2.390   3.403  1.5792 -0.6245  0.9205
 3230SOL    MW412694   2.431   2.388   3.316  0.0347 -0.2352  0.6838
 3231SOL     OW12695   1.924   1.925   5.335 -0.3908 -0.4961  0.1163
 3231SOL    HW212696   1.952   1.848   5.285 -1.4225 -0.9148  0.1494
 3231SOL    HW312697   1.856   1.965   5.279 -0.0716  0.2203  0.2363
 3231SOL    MW412698   1.919   1.920   5.321 -0.4848 -0.4568  0.1365
 3232SOL     OW12699   3.072   0.686   1.627  0.2309 -0.0194 -0.2206
 3232SOL    HW212700   3.119   0.764   1.599  0.9839 -0.9492 -1.6890
 3232SOL    HW312701   3.140   0.627   1.661 -0.0239 -0.8355 -1.0751
 3232SOL    MW412702   3.087   0.688   1.628  0.2966 -0.2498 -0.5271
 3233SOL     OW12703   3.749   2.662   1.051 -0.2270  0.5454 -0.1335
 3233SOL    HW212704   3.698   2.637   1.128  0.6070  0.4834  0.4139
 3233SOL    HW312705   3.717   2.750   1.030  0.1846  0.9577  0.8707
 3233SOL    MW412706   3.738   2.671   1.059 -0.0626  0.5916  0.0712
 3234SOL     OW12707   0.332   5.832   6.241  0.8096  0.3911  0.0344
 3234SOL    HW212708   0.375   5.878   6.314  0.8190 -1.0192  0.9457
 3234SOL    HW312709   0.251   5.798   6.279  0.8918 -0.5010 -0.5744
 3234SOL    MW412710   0.327   5.834   6.256  0.8217  0.0874  0.0743
 3235SOL     OW12711   1.071   3.970   3.804  0.1459 -0.0483  0.4369
 3235SOL    HW212712   1.069   4.021   3.723  1.8464 -0.5068  0.0575
 3235SOL    HW312713   0.991   3.994   3.850 -0.5151  0.7449 -1.0606
 3235SOL    MW412714   1.060   3.980   3.799  0.2831 -0.0041  0.1893
 3236SOL     OW12715   4.893   0.511   4.072  0.4927  0.2813 -0.0836
 3236SOL    HW212716   4.880   0.603   4.048 -1.5097 -0.1822 -0.9866
 3236SOL    HW312717   4.898   0.512   4.168  3.1395  1.5681 -0.1475
 3236SOL    MW412718   4.892   0.523   4.082  0.5777  0.3899 -0.2112
 3237SOL     OW12719   1.127   3.829   0.954  0.0352  0.2627 -0.1098
 3237SOL    HW212720   1.065   3.819   1.027  0.0819  0.2646 -0.0696
 3237SOL    HW312721   1.213   3.811   0.993 -0.1129 -1.6443 -0.5783
 3237SOL    MW412722   1.130   3.825   0.969  0.0219  0.0113 -0.1663
 3238SOL     OW12723   2.019   1.306   3.701  0.4551 -0.1349  0.3493
 3238SOL    HW212724   2.063   1.222   3.689 -0.1311 -0.4340  0.2345
 3238SOL    HW312725   1.945   1.286   3.759 -0.0411  0.1801 -0.1698
 3238SOL    MW412726   2.015   1.293   3.707  0.3123 -0.1328  0.2657
 3239SOL     OW12727   6.251   3.158   3.570 -0.0433 -0.5813 -0.1909
 3239SOL    HW212728   6.264   3.132   3.479  0.1567 -0.9994 -0.0436
 3239SOL    HW312729   6.160   3.189   3.573  0.0960 -0.1281 -0.6317
 3239SOL    MW412730   6.241   3.159   3.558  0.0015 -0.5767 -0.2296
 3240SOL     OW12731   2.228   6.025   1.231  0.2666 -0.0083 -0.3452
 3240SOL    HW212732   2.137   6.032   1.262 -0.1233 -1.7800 -0.9946
 3240SOL    HW312733   2.222   5.982   1.146  1.8074 -1.4994  0.2522
 3240SOL    MW412734   2.215   6.021   1.224  0.4185 -0.4388 -0.3521
 3241SOL     OW12735   1.485   3.181   4.211  0.1654 -0.8681  0.5174
 3241SOL    HW212736   1.392   3.174   4.234 -0.0606 -1.9252 -0.6039
 3241SOL    HW312737   1.502   3.104   4.157  1.7876 -0.8596  0.9703
 3241SOL    MW412738   1.475   3.170   4.207  0.3496 -1.0064  0.4292
 3242SOL     OW12739   4.871   5.448   1.612  0.5863  0.3202 -0.0296
 3242SOL    HW212740   4.941   5.427   1.675 -0.4384  1.8331  1.7363
 3242SOL    HW312741   4.808   5.377   1.621 -1.1249  1.9788  3.2398
 3242SOL    MW412742   4.872   5.436   1.622  0.2253  0.7386  0.6347
 3243SOL     OW12743   5.897   2.545   3.728  0.0547  0.1077  0.3732
 3243SOL    HW212744   5.877   2.595   3.649 -0.6854 -1.9163 -0.7922
 3243SOL    HW312745   5.835   2.578   3.794  0.2138  1.3440 -0.0780
 3243SOL    MW412746   5.886   2.556   3.727 -0.0219  0.0038  0.1599
 3244SOL     OW12747   0.966   4.705   2.644  0.3748 -0.0781 -0.1441
 3244SOL    HW212748   1.047   4.693   2.694  0.8957  1.4568 -0.5550
 3244SOL    HW312749   0.907   4.751   2.704  0.6941  0.9908 -0.6255
 3244SOL    MW412750   0.969   4.710   2.659  0.4856  0.2655 -0.2618
 3245SOL     OW12751   5.359   5.939   6.243  0.0088 -0.3951 -0.8353
 3245SOL    HW212752   5.419   5.994   6.293 -1.8989  1.5330 -0.5077
 3245SOL    HW312753   5.292   5.913   6.306 -0.1067 -1.5911 -1.4262
 3245SOL    MW412754   5.358   5.943   6.258 -0.2581 -0.2986 -0.8701
 3246SOL     OW12755   0.957   0.388   2.499  0.0295  0.9848  0.1458
 3246SOL    HW212756   0.872   0.363   2.464 -0.0390 -0.1334  1.0692
 3246SOL    HW312757   1.009   0.411   2.422 -1.3135  2.4497 -0.3757
 3246SOL    MW412758   0.953   0.388   2.484 -0.1567  1.0305  0.1989
 3247SOL     OW12759   0.927   2.390   3.829 -0.2878  0.0530  0.1776
 3247SOL    HW212760   0.907   2.412   3.738  0.1345 -0.2352  0.0090
 3247SOL    HW312761   1.022   2.398   3.835 -0.3341  0.2715  0.6479
 3247SOL    MW412762   0.937   2.394   3.818 -0.2382  0.0438  0.2174
 3248SOL     OW12763   5.576   0.641   5.243  0.1095  0.2707 -0.1147
 3248SOL    HW212764   5.523   0.563   5.230 -0.5949  0.8860 -1.0929
 3248SOL    HW312765   5.656   0.609   5.284  0.5435 -1.2380 -1.9564
 3248SOL    MW412766   5.580   0.627   5.246  0.0738  0.1528 -0.4867
 3249SOL     OW12767   0.493   3.151   5.142  0.3289  0.0777  0.4903
 3249SOL    HW212768   0.523   3.209   5.072  0.0516 -0.7216 -0.3057
 3249SOL    HW312769   0.420   3.103   5.104 -1.3870  1.2801  2.0678
 3249SOL    MW412770   0.487   3.152   5.128  0.0659  0.1309  0.5934
 3250SOL     OW12771   1.098   5.350   6.203  0.3302 -0.2241  0.4416
 3250SOL    HW212772   1.123   5.335   6.111 -0.6346 -0.5296  0.2119
 3250SOL    HW312773   1.035   5.422   6.198 -0.1535 -0.6227  0.8048
 3250SOL    MW412774   1.093   5.357   6.190  0.1391 -0.3170  0.4592
 3251SOL     OW12775   0.843   0.238   1.215 -0.0489 -0.2770 -0.4696
 3251SOL    HW212776   0.765   0.282   1.180  0.3935  1.8534  1.0298
 3251SOL    HW312777   0.915   0.270   1.160  0.3218  1.2676  0.8281
 3251SOL    MW412778   0.842   0.248   1.203  0.0584  0.2079 -0.1005
 3252SOL     OW12779   6.343   3.763   3.940  0.4945  0.0234  0.5971
 3252SOL    HW212780   6.360   3.843   3.890 -1.9755  0.3685  0.2217
 3252SOL    HW312781   6.364   3.788   4.030 -2.1783  1.8619  0.8361
 3252SOL    MW412782   6.348   3.777   3.945 -0.1840  0.3115  0.5791
 3253SOL     OW12783   6.016   5.236   3.777 -0.0491  0.3212  0.1501
 3253SOL    HW212784   6.049   5.224   3.867  1.9309 -0.0412 -0.5781
 3253SOL    HW312785   5.933   5.283   3.789  0.2353  0.4363  2.1587
 3253SOL    MW412786   6.009   5.241   3.791  0.2496  0.2886  0.3190
 3254SOL     OW12787   0.203   1.346   1.316 -0.1577  0.5402  0.1388
 3254SOL    HW212788   0.221   1.254   1.298 -1.1912  0.4213 -0.3373
 3254SOL    HW312789   0.269   1.371   1.381  1.0734 -0.1276 -0.8144
 3254SOL    MW412790   0.215   1.337   1.323 -0.1316  0.4364 -0.0498
 3255SOL     OW12791   0.985   6.421   4.547 -0.2819  0.3507  0.1824
 3255SOL    HW212792   0.954   6.383   4.629  2.1613 -1.6369  0.3216
 3255SOL    HW312793   0.974   6.352   4.482 -0.7994  1.3692 -0.8452
 3255SOL    MW412794   0.980   6.407   4.549 -0.0278  0.2228  0.0652
 3256SOL     OW12795   3.175   4.739   6.019  0.1126 -0.2181  0.0032
 3256SOL    HW212796   3.090   4.711   6.054 -0.4406 -1.0827 -1.9044
 3256SOL    HW312797   3.154   4.814   5.964  0.4648 -0.8395 -1.0027
 3256SOL    MW412798   3.161   4.745   6.017  0.0861 -0.4142 -0.3812
 3257SOL     OW12799   1.833   3.227   1.540  0.2392  0.3970 -0.1395
 3257SOL    HW212800   1.750   3.222   1.586 -0.0561 -1.6467 -0.7978
 3257SOL    HW312801   1.891   3.167   1.587  0.7416  0.3147 -0.8338
 3257SOL    MW412802   1.830   3.218   1.552  0.2665  0.1165 -0.3179
 3258SOL     OW12803   5.033   3.383   4.947  0.1472  0.1125  0.2027
 3258SOL    HW212804   5.057   3.469   4.982  0.8651 -0.2921  0.7498
 3258SOL    HW312805   5.001   3.400   4.859  0.9393  0.8652  0.0535
 3258SOL    MW412806   5.032   3.396   4.940  0.3465  0.1584  0.2552
 3259SOL     OW12807   0.089   5.700   2.553  0.4739 -0.2269 -0.2467
 3259SOL    HW212808   0.120   5.643   2.623  0.4524 -0.1146 -0.1458
 3259SOL    HW312809  -0.004   5.714   2.573  0.7849  0.9238  0.4745
 3259SOL    MW412810   0.081   5.694   2.565  0.5121 -0.0602 -0.1383
 3260SOL     OW12811   3.945   5.490   6.088 -0.3910  0.3721 -0.3593
 3260SOL    HW212812   3.990   5.438   6.022  2.2756  0.9267  0.8963
 3260SOL    HW312813   3.947   5.579   6.055  0.6437  0.5970  0.2695
 3260SOL    MW412814   3.951   5.495   6.075  0.0973  0.4750 -0.1107
 3261SOL     OW12815   0.582   5.373   0.219  0.1658  0.1193 -0.1099
 3261SOL    HW212816   0.647   5.336   0.159  0.1431  1.9474 -1.3190
 3261SOL    HW312817   0.630   5.387   0.301  1.1212  0.7586 -0.7615
 3261SOL    MW412818   0.597   5.370   0.222  0.2889  0.4448 -0.3554
 3262SOL     OW12819   5.571   3.079   4.802 -0.1310 -0.4611 -0.1898
 3262SOL    HW212820   5.598   3.010   4.863  1.1645 -0.5572 -0.8442
 3262SOL    HW312821   5.536   3.032   4.726  1.7075 -0.4772 -1.0809
 3262SOL    MW412822   5.570   3.064   4.800  0.2825 -0.4759 -0.3937
 3263SOL     OW12823   1.137   1.768   1.644 -0.6629 -0.4607  0.0686
 3263SOL    HW212824   1.139   1.676   1.615 -0.9894 -0.1455 -0.9907
 3263SOL    HW312825   1.147   1.763   1.739  0.3003 -1.5473 -0.0658
 3263SOL    MW412826   1.139   1.755   1.652 -0.5789 -0.5625 -0.0889
 3264SOL     OW12827   0.929   3.165   0.483  0.1223 -0.2853 -0.2723
 3264SOL    HW212828   0.900   3.077   0.507  0.3685 -0.1638  0.4824
 3264SOL    HW312829   0.854   3.202   0.435 -0.5170 -0.4098  0.5997
 3264SOL    MW412830   0.915   3.158   0.480  0.0705 -0.2857 -0.0577
 3265SOL     OW12831   4.370   2.991   2.352 -0.1667 -0.1096  0.1816
 3265SOL    HW212832   4.418   3.058   2.400 -0.8550  0.3002  0.3168
 3265SOL    HW312833   4.437   2.944   2.302  0.3251  0.6987  0.0594
 3265SOL    MW412834   4.385   2.993   2.351 -0.1926  0.0511  0.1833
 3266SOL     OW12835   1.525   0.815   4.731  0.4921  0.0768 -0.2091
 3266SOL    HW212836   1.582   0.744   4.701 -0.4245 -1.2082  0.9679
 3266SOL    HW312837   1.549   0.889   4.676  2.1815 -0.8569 -0.8141
 3266SOL    MW412838   1.536   0.815   4.719  0.5941 -0.2160 -0.1336
 3267SOL     OW12839   3.078   1.754   0.853  0.6336 -0.5995 -0.0644
 3267SOL    HW212840   3.016   1.800   0.797  1.3952 -1.3439 -1.5942
 3267SOL    HW312841   3.023   1.700   0.911 -0.1662 -0.5685 -0.7795
 3267SOL    MW412842   3.062   1.753   0.854  0.6285 -0.6936 -0.3606
 3268SOL     OW12843   4.293   1.901   3.883 -0.1976  0.0888  0.1039
 3268SOL    HW212844   4.234   1.920   3.956 -0.8568  0.6056 -0.5470
 3268SOL    HW312845   4.246   1.836   3.831  0.4140 -0.5250  0.3080
 3268SOL    MW412846   4.279   1.895   3.886 -0.2039  0.0760  0.0449
 3269SOL     OW12847   5.452   1.275   0.744  0.1886 -0.1450  0.7178
 3269SOL    HW212848   5.430   1.249   0.655 -0.6204  1.6374  0.3610
 3269SOL    HW312849   5.380   1.332   0.772  0.1430 -1.0869  2.7287
 3269SOL    MW412850   5.440   1.279   0.736  0.0758 -0.0341  0.9361
 3270SOL     OW12851   3.448   4.700   6.070  0.4647  0.1555 -1.4610
 3270SOL    HW212852   3.355   4.720   6.061  0.3250  0.8523  0.8530
 3270SOL    HW312853   3.493   4.764   6.015 -0.3202  2.1907  0.1366
 3270SOL    MW412854   3.442   4.711   6.062  0.3427  0.5160 -0.9449
 3271SOL     OW12855   0.821   2.170   1.474  0.6893  0.5584 -0.4785
 3271SOL    HW212856   0.783   2.252   1.506  1.1936  0.8536 -0.6151
 3271SOL    HW312857   0.810   2.108   1.546  0.9936  0.9625 -0.0772
 3271SOL    MW412858   0.815   2.173   1.488  0.7960  0.6507 -0.4436
 3272SOL     OW12859   1.253   0.041   6.337 -0.2512  0.0949 -0.2129
 3272SOL    HW212860   1.256   0.033   6.242 -0.6234  1.7006 -0.3943
 3272SOL    HW312861   1.211   0.125   6.353  0.6954  0.3260  1.3484
 3272SOL    MW412862   1.248   0.051   6.327 -0.1754  0.3372 -0.0308
 3273SOL     OW12863   6.287   2.490   0.185 -0.1988  0.4108 -0.2186
 3273SOL    HW212864   6.193   2.488   0.168 -0.3754 -1.1394  0.8273
 3273SOL    HW312865   6.296   2.537   0.268 -0.6127 -3.8473  2.5064
 3273SOL    MW412866   6.276   2.496   0.194 -0.2767 -0.3555  0.2789
 3274SOL     OW12867   4.777   2.546   4.652 -0.0804  0.6283  0.0434
 3274SOL    HW212868   4.828   2.470   4.680  1.8232  2.0354  0.5762
 3274SOL    HW312869   4.781   2.606   4.726 -1.8795  1.1387 -0.2174
 3274SOL    MW412870   4.784   2.544   4.666 -0.0666  0.8813  0.0793
 3275SOL     OW12871   2.748   1.857   6.297 -0.8746  0.1046  0.0603
 3275SOL    HW212872   2.832   1.862   6.342 -0.2313  0.7120 -1.1358
 3275SOL    HW312873   2.725   1.764   6.300 -0.8415  0.1212  1.5612
 3275SOL    MW412874   2.756   1.845   6.303 -0.7853  0.1869  0.1005
 3276SOL     OW12875   5.410   5.484   3.462 -0.2945  0.5167  0.0158
 3276SOL    HW212876   5.387   5.546   3.392 -1.1994  0.8853  0.6186
 3276SOL    HW312877   5.499   5.507   3.485 -1.4405  3.5092  2.0939
 3276SOL    MW412878   5.418   5.495   3.456 -0.5651  0.9602  0.3695
 3277SOL     OW12879   4.623   3.598   4.206  0.8182  0.5389  0.5409
 3277SOL    HW212880   4.597   3.682   4.169  2.6488  0.8205 -0.2188
 3277SOL    HW312881   4.674   3.556   4.137 -2.1074 -2.4078 -0.1271
 3277SOL    MW412882   4.626   3.604   4.192  0.6737  0.1873  0.3526
 3278SOL     OW12883   2.853   2.537   3.061 -0.7695  0.4803 -0.0757
 3278SOL    HW212884   2.782   2.601   3.063  0.1688  1.6238 -1.5900
 3278SOL    HW312885   2.913   2.566   3.130 -1.2824  0.0668  0.5585
 3278SOL    MW412886   2.852   2.549   3.071 -0.7134  0.5766 -0.1918
 3279SOL     OW12887   4.691   3.307   4.580 -0.2028 -0.5767  0.4549
 3279SOL    HW212888   4.726   3.271   4.499  1.6971  0.5652  0.6951
 3279SOL    HW312889   4.718   3.244   4.647  1.4050  0.2354  0.6216
 3279SOL    MW412890   4.699   3.294   4.578  0.2600 -0.3189  0.5086
 3280SOL     OW12891   5.402   4.671   0.844  0.7032 -0.6336 -0.5448
 3280SOL    HW212892   5.432   4.762   0.843  0.4000 -0.5360 -1.7244
 3280SOL    HW312893   5.379   4.655   0.936  0.5501  0.5446 -0.3570
 3280SOL    MW412894   5.403   4.681   0.856  0.6430 -0.4653 -0.6756
 3281SOL     OW12895   1.105   1.429   1.278 -0.2517 -0.0524 -0.1015
 3281SOL    HW212896   1.167   1.468   1.216 -0.1795 -1.6486 -1.0951
 3281SOL    HW312897   1.108   1.486   1.355  1.2468  0.7921 -0.7491
 3281SOL    MW412898   1.113   1.441   1.280 -0.0445 -0.1516 -0.3180
 3282SOL     OW12899   0.032   2.394   5.642 -0.2015 -0.0897  0.4373
 3282SOL    HW212900   0.068   2.306   5.652  0.9721  0.2030 -0.8330
 3282SOL    HW312901   0.088   2.450   5.696 -0.6170 -0.0500  0.8285
 3282SOL    MW412902   0.044   2.390   5.650 -0.1015 -0.0458  0.3213
 3283SOL     OW12903   0.542   5.665   4.382 -0.4600 -0.3923 -0.7014
 3283SOL    HW212904   0.611   5.626   4.329  2.5038  2.6063  0.5696
 3283SOL    HW312905   0.491   5.717   4.320  0.9724  0.5524 -1.1243
 3283SOL    MW412906   0.544   5.667   4.367  0.1200  0.1280 -0.5895
 3284SOL     OW12907   3.372   5.565   4.916  0.2894 -0.0789  0.9316
 3284SOL    HW212908   3.367   5.654   4.952 -0.8232 -0.6949  2.4118
 3284SOL    HW312909   3.347   5.508   4.989 -1.8908 -1.4429 -0.7314
 3284SOL    MW412910   3.368   5.569   4.930 -0.1451 -0.3401  0.9075
 3285SOL     OW12911   0.365   3.979   5.280  0.7604 -0.1335 -0.0542
 3285SOL    HW212912   0.274   4.009   5.283  1.4653  2.3261 -0.3369
 3285SOL    HW312913   0.383   3.950   5.369  0.0413  0.5905  0.3466
 3285SOL    MW412914   0.356   3.979   5.292  0.7585  0.2866 -0.0386
 3286SOL     OW12915   3.947   5.590   1.329 -0.2787  0.8235 -0.4897
 3286SOL    HW212916   3.948   5.499   1.298 -1.0882  0.3308  0.8524
 3286SOL    HW312917   3.858   5.620   1.314 -0.4606  0.8481  0.5524
 3286SOL    MW412918   3.936   5.582   1.323 -0.4095  0.7618 -0.1751
 3287SOL     OW12919   1.755   4.491   6.129  0.5224  0.3925  0.9049
 3287SOL    HW212920   1.784   4.436   6.201 -0.1014  1.5545  2.0837
 3287SOL    HW312921   1.720   4.569   6.171 -0.2073  0.9435 -0.6454
 3287SOL    MW412922   1.754   4.494   6.144  0.3439  0.6185  0.8559
 3288SOL     OW12923   3.320   2.840   4.892  0.8719  0.1934 -0.6643
 3288SOL    HW212924   3.324   2.766   4.953  0.1404  0.9866  0.3895
 3288SOL    HW312925   3.410   2.850   4.861  0.8144 -1.7110 -1.5598
 3288SOL    MW412926   3.332   2.832   4.896  0.7678  0.0468 -0.6434
 3289SOL     OW12927   4.144   3.394   6.145  0.2818  0.6095 -0.1533
 3289SOL    HW212928   4.080   3.330   6.178 -0.0661  0.6264 -0.7835
 3289SOL    HW312929   4.228   3.350   6.152 -0.2475 -1.5015 -4.0900
 3289SOL    MW412930   4.147   3.380   6.150  0.1661  0.3332 -0.7558
 3290SOL     OW12931   5.955   4.846   1.843 -0.4285 -0.3789  0.3245
 3290SOL    HW212932   5.904   4.775   1.882 -0.5772 -0.4051  0.0884
 3290SOL    HW312933   5.998   4.889   1.917 -1.0587 -0.1411  0.5559
 3290SOL    MW412934   5.954   4.842   1.858 -0.5313 -0.3510  0.3239
 3291SOL     OW12935   0.244   4.869   3.940  0.4701 -0.8669  0.3190
 3291SOL    HW212936   0.183   4.802   3.971 -1.6657  1.3168  1.1758
 3291SOL    HW312937   0.236   4.868   3.845  0.4065 -1.7263  0.3256
 3291SOL    MW412938   0.235   4.860   3.932  0.1799 -0.6922  0.4329
 3292SOL     OW12939   4.078   6.051   3.836  0.0419  0.1331  0.3068
 3292SOL    HW212940   4.136   6.014   3.769  0.9428 -0.1750  1.2260
 3292SOL    HW312941   4.130   6.048   3.917 -0.9465  0.6790  0.9836
 3292SOL    MW412942   4.092   6.046   3.838  0.0304  0.1645  0.5174
 3293SOL     OW12943   1.249   0.246   5.575 -0.5105 -0.0674 -0.6227
 3293SOL    HW212944   1.245   0.264   5.481  1.4189  0.9095 -0.5481
 3293SOL    HW312945   1.191   0.170   5.586  0.2074 -1.0383 -2.8075
 3293SOL    MW412946   1.240   0.238   5.564 -0.1613 -0.0666 -0.9011
 3294SOL     OW12947   5.542   0.735   4.972  0.0529  0.1011  0.7403
 3294SOL    HW212948   5.558   0.704   5.061 -0.8803  0.3525  1.0077
 3294SOL    HW312949   5.457   0.697   4.948  0.7663 -0.8307 -0.4519
 3294SOL    MW412950   5.533   0.726   4.980  0.0239  0.0113  0.6183
 3295SOL     OW12951   0.760   1.098   5.446  0.1681 -0.2770  0.0189
 3295SOL    HW212952   0.804   1.149   5.378 -2.5300 -0.4779 -2.0108
 3295SOL    HW312953   0.673   1.137   5.453 -0.1144 -1.1740  2.4002
 3295SOL    MW412954   0.754   1.110   5.438 -0.2251 -0.4218  0.0653
 3296SOL     OW12955   0.935   2.632   6.369 -0.1786  0.2096  0.1342
 3296SOL    HW212956   1.027   2.658   6.366 -0.1012  0.1664  1.6082
 3296SOL    HW312957   0.895   2.690   6.434 -1.1566  0.1020 -0.3506
 3296SOL    MW412958   0.942   2.643   6.377 -0.2974  0.1897  0.2647
 3297SOL     OW12959   0.339   1.696   4.202 -0.4990 -0.3951  0.5116
 3297SOL    HW212960   0.382   1.623   4.246 -0.4741  0.0126  1.1619
 3297SOL    HW312961   0.410   1.756   4.180 -0.7255  0.2768  1.5806
 3297SOL    MW412962   0.354   1.694   4.205 -0.5256 -0.2526  0.7384
 3298SOL     OW12963   2.084   1.306   0.499 -0.5050 -0.2268  0.2760
 3298SOL    HW212964   1.992   1.315   0.525 -0.6524 -1.0744  0.0580
 3298SOL    HW312965   2.133   1.329   0.578 -0.9317 -1.4992  0.9275
 3298SOL    MW412966   2.078   1.311   0.513 -0.5807 -0.5065  0.3332
 3299SOL     OW12967   0.925   2.192   2.813 -0.3970 -0.4491 -0.0114
 3299SOL    HW212968   1.016   2.171   2.833 -0.2873  0.9090  1.0461
 3299SOL    HW312969   0.882   2.107   2.805  0.5828 -1.1135  1.3551
 3299SOL    MW412970   0.931   2.178   2.815 -0.2533 -0.3576  0.3084
 3300SOL     OW12971   2.781   1.010   2.877 -0.2023  0.2055  0.0852
 3300SOL    HW212972   2.877   1.004   2.872 -0.2862 -0.8238 -0.4972
 3300SOL    HW312973   2.760   0.982   2.966  0.0013 -0.1767  0.0156
 3300SOL    MW412974   2.791   1.006   2.888 -0.1865  0.0192 -0.0008
 3301SOL     OW12975   0.167   3.178   0.636 -0.5247  0.4522 -0.1715
 3301SOL    HW212976   0.225   3.108   0.667  0.1774  0.8298 -0.6111
 3301SOL    HW312977   0.099   3.184   0.703 -0.3648 -0.3737  0.0767
 3301SOL    MW412978   0.166   3.169   0.649 -0.4110  0.3930 -0.1967
 3302SOL     OW12979   4.411   6.315   5.333  0.1733  0.4070  0.1604
 3302SOL    HW212980   4.439   6.406   5.322 -0.5272  0.7046  0.7116
 3302SOL    HW312981   4.418   6.299   5.427 -2.8938  1.0286  0.6224
 3302SOL    MW412982   4.415   6.325   5.344 -0.3238  0.5283  0.2941
 3303SOL     OW12983   3.303   4.409   0.063 -0.5558 -0.5347 -0.0682
 3303SOL    HW212984   3.213   4.431   0.038 -0.9271 -2.1030 -0.2135
 3303SOL    HW312985   3.294   4.332   0.119  0.6770 -0.4345  0.3003
 3303SOL    MW412986   3.290   4.402   0.067 -0.4421 -0.7284 -0.0387
 3304SOL     OW12987   0.413   4.446   4.800  0.6063  0.2252  0.3190
 3304SOL    HW212988   0.337   4.464   4.856  1.2851  2.4540  0.6114
 3304SOL    HW312989   0.479   4.413   4.861  0.2295 -0.7651  0.2188
 3304SOL    MW412990   0.411   4.444   4.816  0.6461  0.3886  0.3444
 3305SOL     OW12991   3.065   2.983   1.311 -0.4377  0.2542  0.6085
 3305SOL    HW212992   3.022   3.014   1.391 -1.5988 -1.1168  0.5476
 3305SOL    HW312993   3.072   3.061   1.256 -1.1710  0.8792  1.3674
 3305SOL    MW412994   3.060   2.997   1.315 -0.6876  0.1558  0.7006
 3306SOL     OW12995   0.652   5.189   2.824 -0.6602 -0.3639  0.4237
 3306SOL    HW212996   0.562   5.207   2.849 -0.3098  2.1539  0.0812
 3306SOL    HW312997   0.704   5.218   2.898 -0.0863 -1.4201  0.4519
 3306SOL    MW412998   0.647   5.195   2.837 -0.5383 -0.1710  0.3822
 3307SOL     OW12999   3.928   1.280   5.038 -0.7821 -0.0003  0.2663
 3307SOL    HW213000   3.877   1.214   4.991  1.8677  0.3317 -3.5380
 3307SOL    HW313001   3.937   1.352   4.975  0.9986  1.6285  2.2371
 3307SOL    MW413002   3.922   1.281   5.023 -0.1976  0.2584  0.0244
 3308SOL     OW13003   1.117   5.569   4.177 -0.0820 -0.1415  0.1353
 3308SOL    HW213004   1.058   5.496   4.196 -0.0981  0.1336  1.2297
 3308SOL    HW313005   1.066   5.647   4.196 -0.0841  0.1758 -1.0910
 3308SOL    MW413006   1.103   5.570   4.182 -0.0844 -0.0633  0.1179
 3309SOL     OW13007   3.567   1.241   4.751 -0.0549 -0.2292 -0.1970
 3309SOL    HW213008   3.616   1.174   4.799  2.0148  0.3329 -1.3942
 3309SOL    HW313009   3.517   1.192   4.685  1.9030 -0.6130 -1.4594
 3309SOL    MW413010   3.567   1.226   4.749  0.4765 -0.2057 -0.5215
 3310SOL     OW13011   0.074   3.317   4.032  0.4335  0.1272  0.1131
 3310SOL    HW213012   0.034   3.369   3.962 -0.0514  2.3932  1.9575
 3310SOL    HW313013   0.169   3.330   4.019  0.6123 -2.4964 -2.2184
 3310SOL    MW413014   0.082   3.325   4.021  0.3931  0.0800  0.0488
 3311SOL     OW13015   0.264   0.420   1.720 -0.4847  0.3150 -0.5587
 3311SOL    HW213016   0.288   0.453   1.806  0.5171 -0.5201 -0.4980
 3311SOL    HW313017   0.222   0.335   1.738 -1.0515  0.5302 -0.8446
 3311SOL    MW413018   0.261   0.413   1.734 -0.4273  0.2332 -0.5884
 3312SOL     OW13019   5.976   3.671   0.237 -0.2578  0.1719  0.0249
 3312SOL    HW213020   5.948   3.715   0.317  3.1999  1.0417  0.9442
 3312SOL    HW313021   5.983   3.579   0.262 -1.8552 -0.0180 -0.1522
 3312SOL    MW413022   5.973   3.665   0.251 -0.0123  0.2616  0.1228
 3313SOL     OW13023   5.597   3.249   0.860 -0.2957 -0.2703 -0.0490
 3313SOL    HW213024   5.543   3.319   0.897  0.7801  0.6009 -0.1037
 3313SOL    HW313025   5.592   3.263   0.765  0.3822  0.0916 -0.0361
 3313SOL    MW413026   5.589   3.260   0.852 -0.0643 -0.1076 -0.0545
 3314SOL     OW13027   3.705   2.294   3.614  0.4398  0.4322  0.4640
 3314SOL    HW213028   3.612   2.289   3.635  0.4204  1.8530  0.8399
 3314SOL    HW313029   3.728   2.206   3.583 -1.2288  0.2946 -0.5020
 3314SOL    MW413030   3.696   2.282   3.613  0.2171  0.6015  0.3862
 3315SOL     OW13031   3.615   6.416   3.530  0.3465 -0.4464  0.9531
 3315SOL    HW213032   3.555   6.374   3.468 -1.2924  1.5267  1.1021
 3315SOL    HW313033   3.676   6.347   3.555  0.2034 -1.6874 -1.7659
 3315SOL    MW413034   3.615   6.401   3.525  0.1114 -0.3498  0.6140
 3316SOL     OW13035   5.924   3.064   4.382  0.5562  0.2736 -0.1935
 3316SOL    HW213036   6.018   3.058   4.398  0.1978  0.9556  2.6376
 3316SOL    HW313037   5.893   3.132   4.442 -1.5617  1.1114 -2.0795
 3316SOL    MW413038   5.932   3.072   4.392  0.2295  0.4741 -0.0688
 3317SOL     OW13039   4.156   5.363   2.883 -0.1477  0.2267  0.4454
 3317SOL    HW213040   4.250   5.367   2.902 -0.0160 -2.2096  0.6133
 3317SOL    HW313041   4.141   5.439   2.825  1.8545  0.8134  0.5923
 3317SOL    MW413042   4.167   5.374   2.878  0.1338 -0.0173  0.4870
 3318SOL     OW13043   3.717   2.393   3.001  0.2856  0.1338  0.1409
 3318SOL    HW213044   3.645   2.433   2.952 -0.5707 -0.9061  0.5045
 3318SOL    HW313045   3.683   2.380   3.089 -0.0543 -2.6676 -0.2907
 3318SOL    MW413046   3.703   2.396   3.006  0.1278 -0.3730  0.1320
 3319SOL     OW13047   0.188   6.031   3.679 -0.1787 -0.1658  0.3345
 3319SOL    HW213048   0.189   6.077   3.596  0.8340  0.4453  0.6681
 3319SOL    HW313049   0.095   6.019   3.699 -0.4336  0.3945 -0.4864
 3319SOL    MW413050   0.175   6.035   3.671 -0.0787 -0.0113  0.2702
 3320SOL     OW13051   2.052   2.739   4.254  0.5753 -0.0090 -0.4590
 3320SOL    HW213052   2.041   2.653   4.214  1.2050 -0.4306  0.2306
 3320SOL    HW313053   2.015   2.729   4.342 -1.3158  1.0588 -1.0775
 3320SOL    MW413054   2.045   2.727   4.261  0.4088  0.0763 -0.4496
 3321SOL     OW13055   5.413   2.266   0.023 -0.4933  0.1468 -0.1007
 3321SOL    HW213056   5.431   2.183  -0.021 -0.8787  1.0700 -2.1388
 3321SOL    HW313057   5.318   2.267   0.034 -0.4952  0.3297 -0.1289
 3321SOL    MW413058   5.403   2.255   0.018 -0.5444  0.2927 -0.3733
 3322SOL     OW13059   1.511   0.516   4.044  0.4536 -0.2873 -0.0522
 3322SOL    HW213060   1.484   0.607   4.034  1.9944  0.0356 -1.5703
 3322SOL    HW313061   1.568   0.515   4.120 -0.1371 -0.1345  0.3984
 3322SOL    MW413062   1.515   0.528   4.053  0.5789 -0.2246 -0.1930
 3323SOL     OW13063   1.815   1.723   2.319  0.3233  0.3903  0.3775
 3323SOL    HW213064   1.870   1.675   2.258  0.6947 -0.7688  1.5847
 3323SOL    HW313065   1.726   1.708   2.287  0.5432  0.2643 -0.1908
 3323SOL    MW413066   1.810   1.715   2.306  0.4013  0.2207  0.4618
 3324SOL     OW13067   2.233   4.824   3.587 -0.4196 -0.5425  0.3287
 3324SOL    HW213068   2.225   4.806   3.680 -1.9462 -0.6666  0.1915
 3324SOL    HW313069   2.146   4.806   3.551  0.1123 -0.3976 -1.1017
 3324SOL    MW413070   2.221   4.819   3.594 -0.5509 -0.5398  0.1219
 3325SOL     OW13071   4.206   3.439   1.924  0.2393  0.2666  0.6192
 3325SOL    HW213072   4.200   3.477   1.836 -1.6651  2.9039  1.7550
 3325SOL    HW313073   4.196   3.514   1.983  1.0917 -1.4636  3.1286
 3325SOL    MW413074   4.204   3.454   1.920  0.1005  0.3863  1.1002
 3326SOL     OW13075   0.715   5.444   2.694  0.0050 -0.0824  0.1234
 3326SOL    HW213076   0.695   5.354   2.720 -1.3794  0.1491 -0.0564
 3326SOL    HW313077   0.799   5.437   2.648  1.4732 -0.7900  2.7456
 3326SOL    MW413078   0.724   5.431   2.691  0.0160 -0.1452  0.4456
 3327SOL     OW13079   4.973   2.320   4.692  0.4134 -0.0920  0.7364
 3327SOL    HW213080   4.978   2.351   4.782 -0.5148  1.0210  0.4153
 3327SOL    HW313081   5.039   2.250   4.687  1.1903  0.5300  1.9887
 3327SOL    MW413082   4.982   2.315   4.703  0.3934  0.1369  0.8592
 3328SOL     OW13083   1.223   5.742   5.042  0.4074  0.3289 -0.2832
 3328SOL    HW213084   1.202   5.817   5.097  0.2103  1.0816 -1.3522
 3328SOL    HW313085   1.239   5.779   4.955  1.0044 -0.7935 -0.6812
 3328SOL    MW413086   1.222   5.757   5.038  0.4602  0.2801 -0.4768
 3329SOL     OW13087   0.282   4.846   5.724 -0.0564 -0.0473  0.3789
 3329SOL    HW213088   0.298   4.918   5.662 -0.5614  0.4413  0.8028
 3329SOL    HW313089   0.281   4.767   5.670 -0.5015  0.3741 -0.2408
 3329SOL    MW413090   0.284   4.845   5.709 -0.1818  0.0728  0.3531
 3330SOL     OW13091   3.006   0.201   0.391 -0.1760 -0.4441 -0.6629
 3330SOL    HW213092   3.010   0.222   0.484 -0.3507 -0.8138 -0.5683
 3330SOL    HW313093   3.053   0.272   0.348 -1.0229  0.3051 -0.3854
 3330SOL    MW413094   3.012   0.213   0.398 -0.3108 -0.3940 -0.6138
 3331SOL     OW13095   6.427   0.072   3.195  0.4293  0.2050 -0.1171
 3331SOL    HW213096   6.429   0.167   3.207  0.5227  0.2507 -0.4959
 3331SOL    HW313097   6.408   0.037   3.283  1.0756  0.5363  0.1603
 3331SOL    MW413098   6.424   0.080   3.208  0.5269  0.2548 -0.1305
 3332SOL     OW13099   1.391   1.294   3.955  0.0336 -0.7486 -0.4278
 3332SOL    HW213100   1.448   1.240   4.010  0.8204  0.9674  0.5280
 3332SOL    HW313101   1.387   1.378   4.000 -0.1962  0.3793 -2.4370
 3332SOL    MW413102   1.398   1.298   3.968  0.1071 -0.3734 -0.5668
 3333SOL     OW13103   6.019   2.492   0.124 -0.0573  0.0865 -0.2793
 3333SOL    HW213104   5.968   2.547   0.183  1.8704  2.4073 -0.6127
 3333SOL    HW313105   5.979   2.504   0.038 -1.4815 -1.5124  0.1084
 3333SOL    MW413106   6.007   2.501   0.121  0.0091  0.1818 -0.2722
 3334SOL     OW13107   5.432   2.313   4.844  0.3033  0.0960  0.0336
 3334SOL    HW213108   5.440   2.344   4.754 -0.1256  0.1720  0.0195
 3334SOL    HW313109   5.492   2.369   4.893  2.7167 -1.7908 -0.6105
 3334SOL    MW413110   5.441   2.324   4.839  0.5651 -0.1429 -0.0533
 3335SOL     OW13111   3.214   1.043   4.790 -0.2309  0.0190  0.0930
 3335SOL    HW213112   3.258   1.069   4.709 -1.5118  1.3541 -0.2327
 3335SOL    HW313113   3.251   1.101   4.856  0.0878 -0.3777  0.2628
 3335SOL    MW413114   3.225   1.054   4.788 -0.3578  0.1428  0.0724
 3336SOL     OW13115   2.242   6.320   1.644 -0.4914  0.1235 -0.2220
 3336SOL    HW213116   2.317   6.356   1.692 -0.3975 -0.9540  0.4669
 3336SOL    HW313117   2.166   6.366   1.680 -0.3562 -0.2313  0.5260
 3336SOL    MW413118   2.242   6.331   1.655 -0.4612 -0.0654 -0.0324
 3337SOL     OW13119   3.309   5.839   1.573 -0.6366 -0.4389  0.3062
 3337SOL    HW213120   3.314   5.750   1.608 -0.2792 -0.7059 -0.4042
 3337SOL    HW313121   3.314   5.895   1.650 -0.4608 -1.0249  0.7314
 3337SOL    MW413122   3.310   5.834   1.588 -0.5662 -0.5515  0.2685
 3338SOL     OW13123   5.776   0.469   4.039  0.2600  0.1103 -0.2615
 3338SOL    HW213124   5.857   0.501   4.079  0.6419  0.1183 -1.0315
 3338SOL    HW313125   5.723   0.548   4.027 -0.3574 -0.0248  1.2933
 3338SOL    MW413126   5.779   0.484   4.043  0.2289  0.0936 -0.1580
 3339SOL     OW13127   3.671   0.565   4.378  0.0234 -0.1302  0.3901
 3339SOL    HW213128   3.672   0.471   4.362 -0.7058  0.2900 -3.0031
 3339SOL    HW313129   3.763   0.591   4.380  0.3182 -1.0627  3.3248
 3339SOL    MW413130   3.683   0.556   4.376 -0.0339 -0.1978  0.3296
 3340SOL     OW13131   3.967   5.977   6.205  0.3889 -0.3871  0.4482
 3340SOL    HW213132   4.043   5.921   6.192 -0.1606 -1.4208  1.5223
 3340SOL    HW313133   3.997   6.046   6.264  1.2567  0.9098 -1.4178
 3340SOL    MW413134   3.981   5.979   6.211  0.4309 -0.3524  0.3437
 3341SOL     OW13135   2.764   3.640   0.456  0.1341  0.1139 -0.0229
 3341SOL    HW213136   2.753   3.678   0.543  0.8886  1.0955 -0.3282
 3341SOL    HW313137   2.748   3.713   0.396 -0.9231 -0.6817 -0.7383
 3341SOL    MW413138   2.761   3.655   0.460  0.0941  0.1384 -0.1576
 3342SOL     OW13139   0.436   5.783   2.010  0.3361  0.2434 -0.2379
 3342SOL    HW213140   0.496   5.713   2.034 -1.1598 -1.1384 -0.3333
 3342SOL    HW313141   0.404   5.758   1.923  0.0075  1.2131 -0.4079
 3342SOL    MW413142   0.439   5.771   2.002  0.0954  0.1890 -0.2729
 3343SOL     OW13143   4.518   0.285   6.317 -0.2328 -0.5537  0.1405
 3343SOL    HW213144   4.443   0.234   6.349  0.1877 -0.9773  0.4476
 3343SOL    HW313145   4.552   0.234   6.244  0.3011 -0.8135  0.5642
 3343SOL    MW413146   4.512   0.272   6.312 -0.1069 -0.6438  0.2369
 3344SOL     OW13147   5.008   4.039   0.818  0.3493 -0.6762 -0.1219
 3344SOL    HW213148   5.061   3.966   0.786  0.3814 -1.3197  1.3171
 3344SOL    HW313149   4.979   4.084   0.738  1.3144 -1.5472 -0.9982
 3344SOL    MW413150   5.011   4.035   0.803  0.4809 -0.8760 -0.0476
 3345SOL     OW13151   1.620   5.291   3.807 -0.1203 -0.0892 -0.2071
 3345SOL    HW213152   1.635   5.250   3.892 -1.9172 -1.5957 -0.5401
 3345SOL    HW313153   1.641   5.383   3.820  1.0116 -0.5404  1.4614
 3345SOL    MW413154   1.625   5.298   3.820 -0.2081 -0.3475 -0.0309
 3346SOL     OW13155   3.645   1.008   2.632 -0.2628  0.3007  0.1833
 3346SOL    HW213156   3.621   0.978   2.719 -2.2160  0.3060 -0.2983
 3346SOL    HW313157   3.738   1.028   2.638 -0.4062  0.5599  2.3190
 3346SOL    MW413158   3.654   1.007   2.644 -0.5394  0.3356  0.4015
 3347SOL     OW13159   5.371   1.090   3.014  0.5557 -0.0049 -0.2536
 3347SOL    HW213160   5.455   1.085   3.060  0.7018 -0.2610 -0.5524
 3347SOL    HW313161   5.387   1.149   2.941  0.6584 -0.5922 -0.7082
 3347SOL    MW413162   5.384   1.097   3.011  0.5885 -0.1161 -0.3530
 3348SOL     OW13163   5.595   5.881   2.139  0.4501  0.5468  0.2321
 3348SOL    HW213164   5.612   5.967   2.101  0.4857  0.5450  0.2438
 3348SOL    HW313165   5.658   5.873   2.211  0.0797  0.7430  0.5870
 3348SOL    MW413166   5.605   5.892   2.144  0.4059  0.5725  0.2805
 3349SOL     OW13167   0.132   1.881   4.906  0.2186 -0.4291  0.5487
 3349SOL    HW213168   0.171   1.794   4.902 -1.3628 -1.1481 -0.5375
 3349SOL    HW313169   0.119   1.906   4.815 -0.3947  0.4427  0.8551
 3349SOL    MW413170   0.135   1.873   4.894 -0.0709 -0.4089  0.4458
 3350SOL     OW13171   4.097   5.052   4.059 -0.0178  0.8843 -0.4531
 3350SOL    HW213172   4.035   5.090   4.121  0.5085  0.3000  0.4528
 3350SOL    HW313173   4.074   5.092   3.975 -1.4013  0.9312 -0.0825
 3350SOL    MW413174   4.086   5.062   4.056 -0.1309  0.8134 -0.2847
 3351SOL     OW13175   6.419   5.664   1.637 -0.0514  0.1748  0.0629
 3351SOL    HW213176   6.440   5.597   1.702  0.3332  0.5878  0.3789
 3351SOL    HW313177   6.382   5.736   1.688  0.1424  0.4561 -0.1886
 3351SOL    MW413178   6.417   5.665   1.652  0.0249  0.2664  0.0714
 3352SOL     OW13179   1.200   3.707   3.707 -0.0555 -0.2170  0.5642
 3352SOL    HW213180   1.138   3.771   3.740 -0.0661  0.1897 -0.2180
 3352SOL    HW313181   1.269   3.704   3.773 -0.2439  0.3173  0.7883
 3352SOL    MW413182   1.201   3.715   3.720 -0.0817 -0.0928  0.4905
 3353SOL     OW13183   2.314   5.599   3.636 -0.4223  0.7884 -0.8510
 3353SOL    HW213184   2.316   5.630   3.545 -0.0596  2.3763 -0.3351
 3353SOL    HW313185   2.407   5.597   3.662 -0.4404 -0.6545 -0.8125
 3353SOL    MW413186   2.327   5.603   3.627 -0.3768  0.8075 -0.7778
 3354SOL     OW13187   4.563   2.634   2.659  0.4774 -0.0625  0.2168
 3354SOL    HW213188   4.519   2.709   2.699 -2.7360 -1.0752 -1.0239
 3354SOL    HW313189   4.552   2.563   2.723 -0.3127 -0.4692 -0.3478
 3354SOL    MW413190   4.556   2.634   2.673 -0.0508 -0.2498 -0.0214
 3355SOL     OW13191   0.534   0.369   1.410  0.1352 -1.1978  0.0035
 3355SOL    HW213192   0.533   0.277   1.386 -1.8673 -1.0104 -0.8817
 3355SOL    HW313193   0.442   0.396   1.405  0.6068  0.7377  0.6823
 3355SOL    MW413194   0.521   0.361   1.407 -0.0668 -0.9178 -0.0237
 3356SOL     OW13195   2.954   5.926   4.396 -0.2880  0.3026  0.1113
 3356SOL    HW213196   2.859   5.917   4.390 -0.4671  1.7407  0.2981
 3356SOL    HW313197   2.982   5.857   4.455 -0.9501 -1.4627 -1.5367
 3356SOL    MW413198   2.945   5.916   4.403 -0.3990  0.2594 -0.0815
 3357SOL     OW13199   4.952   3.102   1.151 -0.0570  0.8380  0.0499
 3357SOL    HW213200   5.044   3.129   1.160  0.2935 -0.1732 -0.4052
 3357SOL    HW313201   4.953   3.037   1.082 -0.6291 -1.4464  2.0642
 3357SOL    MW413202   4.964   3.097   1.143 -0.0862  0.4032  0.2556
 3358SOL     OW13203   2.394   6.191   5.549  0.1403 -0.2507 -0.2757
 3358SOL    HW213204   2.401   6.118   5.487  0.2416 -1.5999  1.2807
 3358SOL    HW313205   2.477   6.188   5.598 -0.0784  0.5884  0.1511
 3358SOL    MW413206   2.406   6.181   5.547  0.1248 -0.3180 -0.0140
 3359SOL     OW13207   4.162   5.326   5.950  0.6580 -0.2833  0.1992
 3359SOL    HW213208   4.148   5.272   5.872  1.0876  1.0367 -0.8382
 3359SOL    HW313209   4.257   5.336   5.956  0.5905  2.9308 -1.5916
 3359SOL    MW413210   4.172   5.320   5.940  0.7058  0.3149 -0.1740
 3360SOL     OW13211   0.145   5.046   4.164  0.0795  0.1722 -0.3215
 3360SOL    HW213212   0.151   5.127   4.214  0.0534 -0.0158 -0.0115
 3360SOL    HW313213   0.052   5.041   4.138 -0.1152 -0.1986  0.4108
 3360SOL    MW413214   0.133   5.056   4.167  0.0504  0.0985 -0.1840
 3361SOL     OW13215   4.632   5.003   1.675 -0.1332  1.0305 -0.1297
 3361SOL    HW213216   4.675   4.935   1.625  1.0147  1.2255  0.5673
 3361SOL    HW313217   4.698   5.034   1.737 -0.8172  2.3334  0.0011
 3361SOL    MW413218   4.646   4.998   1.677 -0.0720  1.2281 -0.0205
 3362SOL     OW13219   2.806   2.835   1.696 -0.7559  0.1299  0.0028
 3362SOL    HW213220   2.770   2.794   1.775 -0.6760 -0.0214 -0.0376
 3362SOL    HW313221   2.856   2.765   1.654  2.0680  1.0272  1.5596
 3362SOL    MW413222   2.808   2.820   1.701 -0.3728  0.2283  0.2028
 3363SOL     OW13223   2.455   3.903   3.562  0.4520  0.1848  0.3507
 3363SOL    HW213224   2.402   3.913   3.641 -0.7495  0.7250 -0.4976
 3363SOL    HW313225   2.504   3.822   3.577  0.0712  0.1503  1.5416
 3363SOL    MW413226   2.455   3.893   3.574  0.2432  0.2515  0.3959
 3364SOL     OW13227   2.891   1.189   5.800 -0.2593  0.3892  0.5177
 3364SOL    HW213228   2.913   1.100   5.772  0.1958  0.5100  0.4850
 3364SOL    HW313229   2.872   1.182   5.893  0.8830  0.4467  0.7662
 3364SOL    MW413230   2.891   1.176   5.808 -0.0485  0.4127  0.5461
 3365SOL     OW13231   5.421   5.094   5.526 -0.2059  0.5080 -0.1640
 3365SOL    HW213232   5.503   5.142   5.533  0.4112 -0.4607 -0.5771
 3365SOL    HW313233   5.443   5.004   5.550 -1.1243  0.2203 -0.3556
 3365SOL    MW413234   5.434   5.089   5.530 -0.2457  0.3422 -0.2438
 3366SOL     OW13235   4.695   4.686   5.673 -0.0241 -0.4108 -0.4389
 3366SOL    HW213236   4.743   4.626   5.730 -0.0273 -1.2711 -1.3076
 3366SOL    HW313237   4.626   4.721   5.728 -0.2266 -1.4728  0.0132
 3366SOL    MW413238   4.692   4.683   5.688 -0.0513 -0.6644 -0.4939
 3367SOL     OW13239   4.561   5.625   0.441  0.2358 -0.2795  0.3867
 3367SOL    HW213240   4.617   5.550   0.460 -0.5248 -0.8745  0.3042
 3367SOL    HW313241   4.621   5.700   0.441  1.6610 -1.2465 -2.8096
 3367SOL    MW413242   4.577   5.625   0.443  0.3235 -0.4856 -0.0459
 3368SOL     OW13243   6.376   1.150   6.012  0.1653  0.1760  0.4690
 3368SOL    HW213244   6.318   1.223   6.035  0.7903  0.3297  1.6461
 3368SOL    HW313245   6.343   1.119   5.928 -0.8703  1.0285  0.5342
 3368SOL    MW413246   6.364   1.156   6.004  0.1111  0.3087  0.6329
 3369SOL     OW13247   4.056   5.102   2.965 -1.0062 -0.1550  0.2109
 3369SOL    HW213248   4.052   5.176   2.904  1.4102  0.9324  1.2173
 3369SOL    HW313249   4.023   5.027   2.915 -1.8771  1.2463 -1.4171
 3369SOL    MW413250   4.051   5.102   2.950 -0.8023  0.1734  0.1289
 3370SOL     OW13251   1.229   4.103   0.579 -0.2953 -0.2823 -0.4323
 3370SOL    HW213252   1.237   4.016   0.540 -1.2717  0.8872 -3.4841
 3370SOL    HW313253   1.135   4.117   0.587 -0.1607 -0.2750  2.1400
 3370SOL    MW413254   1.218   4.094   0.575 -0.4064 -0.1271 -0.4956
 3371SOL     OW13255   4.920   5.804   0.102  0.4032 -0.4420  0.0375
 3371SOL    HW213256   4.893   5.858   0.176 -0.3175 -0.4388 -0.2198
 3371SOL    HW313257   4.948   5.721   0.140  1.9683  0.2440  0.4858
 3371SOL    MW413258   4.920   5.800   0.117  0.5146 -0.3510  0.0627
 3372SOL     OW13259   3.814   2.235   5.872  0.0115 -0.4278  0.4062
 3372SOL    HW213260   3.798   2.179   5.795  0.0549  0.6932 -0.4493
 3372SOL    HW313261   3.763   2.194   5.942 -2.8595  0.3974 -1.0646
 3372SOL    MW413262   3.805   2.222   5.871 -0.3616 -0.1710  0.0993
 3373SOL     OW13263   5.810   5.832   0.935  0.4662  0.4605  0.1554
 3373SOL    HW213264   5.885   5.780   0.965 -0.5528 -2.5503 -2.0660
 3373SOL    HW313265   5.808   5.818   0.840 -1.6730  2.2149 -0.1247
 3373SOL    MW413266   5.820   5.823   0.926  0.0495  0.2947 -0.1747
 3374SOL     OW13267   6.143   2.413   0.874 -0.6016  0.9157  0.0068
 3374SOL    HW213268   6.082   2.346   0.908  0.3952  0.7551  1.5982
 3374SOL    HW313269   6.164   2.467   0.950  2.0682  0.3106 -0.1916
 3374SOL    MW413270   6.138   2.411   0.889 -0.1178  0.8147  0.1906
 3375SOL     OW13271   0.320   1.811   0.512  0.1236 -0.5209 -0.6520
 3375SOL    HW213272   0.412   1.825   0.533 -0.5511  0.7017  1.8875
 3375SOL    HW313273   0.289   1.752   0.581 -1.1376 -0.4009 -1.0968
 3375SOL    MW413274   0.328   1.805   0.524 -0.1318 -0.3437 -0.3756
 3376SOL     OW13275   1.341   1.233   5.579 -0.1002  0.1639 -0.2894
 3376SOL    HW213276   1.406   1.299   5.553 -1.8906  2.0039 -0.3210
 3376SOL    HW313277   1.359   1.158   5.522 -0.1370  1.8927 -2.7491
 3376SOL    MW413278   1.352   1.232   5.568 -0.3413  0.6348 -0.6181
 3377SOL     OW13279   5.547   1.710   1.399  0.2228 -0.2401  0.2370
 3377SOL    HW213280   5.624   1.655   1.390  0.6727  0.2130  1.1959
 3377SOL    HW313281   5.572   1.794   1.360 -0.8609 -1.0192 -2.3277
 3377SOL    MW413282   5.560   1.714   1.393  0.1392 -0.2831  0.0252
 3378SOL     OW13283   1.226   5.528   4.512  0.0313 -0.0916 -0.1606
 3378SOL    HW213284   1.272   5.572   4.583 -0.0300 -0.7903  0.3313
 3378SOL    HW313285   1.133   5.541   4.533 -0.0070 -1.3656  0.6159
 3378SOL    MW413286   1.220   5.535   4.524  0.0182 -0.3519  0.0068
 3379SOL     OW13287   3.469   5.538   3.573 -0.0386  0.1570 -0.4643
 3379SOL    HW213288   3.427   5.511   3.655  0.3580 -0.1396 -0.3510
 3379SOL    HW313289   3.491   5.630   3.586  1.1826 -0.2034  0.2865
 3379SOL    MW413290   3.467   5.547   3.586  0.1749  0.0703 -0.3503
 3380SOL     OW13291   0.798   0.108   0.257 -0.2103  0.2072 -0.1548
 3380SOL    HW213292   0.710   0.101   0.220  0.6666 -0.8362 -2.1987
 3380SOL    HW313293   0.854   0.134   0.184  1.6362 -2.0521  0.3126
 3380SOL    MW413294   0.794   0.110   0.242  0.1490 -0.2286 -0.3628
 3381SOL     OW13295   5.263   1.076   2.089  0.4669  0.2862 -0.3099
 3381SOL    HW213296   5.278   1.159   2.134  0.3439  0.3300 -0.3487
 3381SOL    HW313297   5.167   1.068   2.085  0.4325 -1.0060  1.8290
 3381SOL    MW413298   5.252   1.086   2.094  0.4462  0.1215 -0.0328
 3382SOL     OW13299   5.671   4.193   3.367 -0.1108 -0.4196 -0.0176
 3382SOL    HW213300   5.751   4.245   3.360  1.0727 -1.6953  2.5695
 3382SOL    HW313301   5.611   4.249   3.417  0.5522 -0.8244  1.2806
 3382SOL    MW413302   5.674   4.207   3.373  0.1328 -0.6413  0.4950
 3383SOL     OW13303   0.693   1.627   6.339 -0.1505 -0.0952  0.2946
 3383SOL    HW213304   0.735   1.659   6.418 -0.1190  0.1436  0.1816
 3383SOL    HW313305   0.713   1.692   6.272  1.3791 -1.1804 -0.3769
 3383SOL    MW413306   0.701   1.640   6.340  0.0554 -0.2069  0.1911
 3384SOL     OW13307   0.077   0.677   3.130  0.8960  0.4370 -0.1647
 3384SOL    HW213308   0.102   0.636   3.213  0.4180  0.7562  0.1466
 3384SOL    HW313309   0.156   0.674   3.076  0.7377 -1.3779 -0.3595
 3384SOL    MW413310   0.091   0.671   3.134  0.8121  0.2396 -0.1493
 3385SOL     OW13311   4.287   1.873   1.153 -0.8135  0.7705  0.7488
 3385SOL    HW213312   4.212   1.835   1.108 -1.7875  1.8347  1.4174
 3385SOL    HW313313   4.264   1.965   1.166  1.8242  1.9365 -1.6300
 3385SOL    MW413314   4.274   1.880   1.149 -0.5940  1.0648  0.5232
 3386SOL     OW13315   4.795   5.057   5.300 -0.0579  0.0147  0.3386
 3386SOL    HW213316   4.849   5.010   5.237 -0.8857 -0.3574 -0.0960
 3386SOL    HW313317   4.857   5.083   5.369  0.6972 -0.2951 -0.2076
 3386SOL    MW413318   4.810   5.055   5.301 -0.0675 -0.0753  0.2092
 3387SOL     OW13319   4.783   0.889   6.132 -0.2947  0.0556 -0.0957
 3387SOL    HW213320   4.783   0.799   6.167  1.5359 -0.7428 -1.9348
 3387SOL    HW313321   4.795   0.878   6.038 -0.5055  2.2474 -0.4261
 3387SOL    MW413322   4.785   0.876   6.124 -0.0810  0.2395 -0.3819
 3388SOL     OW13323   4.230   0.792   5.485  0.2495 -0.1952  0.1726
 3388SOL    HW213324   4.316   0.814   5.450  1.0417 -2.4529  0.5104
 3388SOL    HW313325   4.173   0.863   5.457  2.1675  1.2335 -0.2686
 3388SOL    MW413326   4.234   0.804   5.477  0.6071 -0.3046  0.1589
 3389SOL     OW13327   2.291   2.928   4.672 -0.1665  0.4398  0.5344
 3389SOL    HW213328   2.208   2.883   4.691 -1.0127  1.2272 -1.1116
 3389SOL    HW313329   2.288   3.006   4.727  0.1619 -0.2323  1.5370
 3389SOL    MW413330   2.280   2.932   4.682 -0.2348  0.4550  0.4495
 3390SOL     OW13331   1.560   4.649   3.580  0.5967 -0.5720 -0.2342
 3390SOL    HW213332   1.509   4.573   3.554  1.0054 -0.9173 -0.0351
 3390SOL    HW313333   1.540   4.661   3.673  1.4834 -1.1875  0.0393
 3390SOL    MW413334   1.551   4.641   3.589  0.7676 -0.6987 -0.1718
 3391SOL     OW13335   1.314   4.986   3.382  0.2004 -0.2427  0.1950
 3391SOL    HW213336   1.406   4.962   3.400 -0.0390 -0.3421  1.4060
 3391SOL    HW313337   1.320   5.055   3.316  1.1551 -0.2731  0.2256
 3391SOL    MW413338   1.327   4.992   3.376  0.2948 -0.2598  0.3588
 3392SOL     OW13339   4.316   0.118   0.028 -0.3967 -0.1665  0.2447
 3392SOL    HW213340   4.269   0.036   0.041 -2.0278  0.7128  0.0600
 3392SOL    HW313341   4.301   0.168   0.108  1.8484 -0.5845  1.0136
 3392SOL    MW413342   4.308   0.114   0.040 -0.3157 -0.1056  0.3218
 3393SOL     OW13343   3.871   5.011   3.639  0.4357  0.2063  0.5998
 3393SOL    HW213344   3.924   4.961   3.577 -1.5269  0.0650 -1.1084
 3393SOL    HW313345   3.843   5.088   3.589 -2.3623 -0.6130  0.7214
 3393SOL    MW413346   3.874   5.014   3.624 -0.1924  0.0796  0.3905
 3394SOL     OW13347   2.309   3.397   2.903 -0.1110  0.2628 -0.2174
 3394SOL    HW213348   2.248   3.452   2.854 -0.6321  0.4343  0.6147
 3394SOL    HW313349   2.304   3.312   2.859  0.8700  0.9020 -1.6581
 3394SOL    MW413350   2.300   3.393   2.891 -0.0503  0.3697 -0.2977
 3395SOL     OW13351   4.085   0.253   2.685 -0.2657  0.0886  0.2208
 3395SOL    HW213352   4.067   0.178   2.628  0.0602 -0.5628  0.9572
 3395SOL    HW313353   4.077   0.329   2.628 -0.6491 -0.5040 -0.5298
 3395SOL    MW413354   4.081   0.253   2.670 -0.2733 -0.0756  0.2190
 3396SOL     OW13355   6.259   0.948   4.782  0.1463 -0.0979 -0.1494
 3396SOL    HW213356   6.313   1.017   4.820  1.7902 -1.1583 -0.4494
 3396SOL    HW313357   6.176   0.954   4.829  0.2679  1.9723 -0.0828
 3396SOL    MW413358   6.255   0.958   4.793  0.3792  0.0353 -0.1801
 3397SOL     OW13359   5.660   1.528   3.174  0.1982  0.3779 -0.1292
 3397SOL    HW213360   5.614   1.563   3.098  1.5458  0.9703 -0.7009
 3397SOL    HW313361   5.753   1.529   3.149  0.5991 -0.1298  1.2371
 3397SOL    MW413362   5.666   1.533   3.160  0.4289  0.3891 -0.0244
 3398SOL     OW13363   4.454   5.824   3.860  0.3685  0.8128  0.1961
 3398SOL    HW213364   4.536   5.804   3.814  1.6015  1.8966  1.8095
 3398SOL    HW313365   4.456   5.919   3.872 -1.2295  0.8814  0.1203
 3398SOL    MW413366   4.465   5.834   3.855  0.3203  0.9649  0.3990
 3399SOL     OW13367   0.130   0.512   5.946 -0.1291  0.3768  0.3466
 3399SOL    HW213368   0.069   0.457   5.996 -0.7511  0.4700 -0.2923
 3399SOL    HW313369   0.217   0.480   5.971 -0.4376  0.0772  1.0858
 3399SOL    MW413370   0.133   0.501   5.956 -0.2519  0.3496  0.3598
 3400SOL     OW13371   3.073   0.878   0.618  0.7409  0.7083  0.0781
 3400SOL    HW213372   3.139   0.901   0.684 -1.3561  1.1291  2.1822
 3400SOL    HW313373   3.121   0.830   0.551  3.1422  0.8928  1.5563
 3400SOL    MW413374   3.088   0.875   0.618  0.7811  0.7882  0.5507
 3401SOL     OW13375   3.578   4.681   2.090 -0.1812 -0.3074 -0.5342
 3401SOL    HW213376   3.630   4.604   2.114  1.6406  1.2350  0.7756
 3401SOL    HW313377   3.504   4.680   2.151  1.8333  0.9219  2.1587
 3401SOL    MW413378   3.575   4.671   2.101  0.3250  0.0583 -0.0061
 3402SOL     OW13379   1.050   0.822   6.226  0.2901 -0.3425  0.5369
 3402SOL    HW213380   0.972   0.770   6.249 -1.7119  2.0525 -0.3015
 3402SOL    HW313381   1.057   0.886   6.298 -0.1148  1.0372 -0.5972
 3402SOL    MW413382   1.040   0.824   6.239 -0.0275  0.1555  0.2766
 3403SOL     OW13383   1.264   6.296   1.064 -0.7550  0.4522 -0.2122
 3403SOL    HW213384   1.192   6.358   1.049  0.1006  1.2436 -1.2656
 3403SOL    HW313385   1.266   6.243   0.985 -1.3938 -0.8727  0.6317
 3403SOL    MW413386   1.254   6.297   1.051 -0.7264  0.3818 -0.2398
 3404SOL     OW13387   0.763   6.006   3.957 -0.4094  0.4944  0.0346
 3404SOL    HW213388   0.782   6.094   3.992  0.1866  0.3635  0.0585
 3404SOL    HW313389   0.849   5.969   3.938 -0.7094  1.0799 -2.9319
 3404SOL    MW413390   0.777   6.013   3.959 -0.3703  0.5544 -0.3536
 3405SOL     OW13391   1.806   3.619   3.587  0.4261  0.1321  0.2431
 3405SOL    HW213392   1.799   3.709   3.555  0.6790  0.1526  0.2440
 3405SOL    HW313393   1.900   3.606   3.602  0.3404  0.0232  0.6958
 3405SOL    MW413394   1.818   3.629   3.585  0.4482  0.1204  0.3029
 3406SOL     OW13395   0.673   1.484   3.329 -0.6542 -0.0615  0.4967
 3406SOL    HW213396   0.604   1.445   3.274 -0.7321 -0.4629  0.8753
 3406SOL    HW313397   0.632   1.496   3.414  0.4214 -2.5770  1.4626
 3406SOL    MW413398   0.658   1.480   3.333 -0.5225 -0.4464  0.6741
 3407SOL     OW13399   3.191   0.691   2.288 -0.4649 -0.5746  0.5495
 3407SOL    HW213400   3.146   0.689   2.372 -0.2374 -1.5143  0.6545
 3407SOL    HW313401   3.241   0.773   2.290  1.0904 -1.4779  2.1566
 3407SOL    MW413402   3.192   0.702   2.299 -0.2296 -0.8178  0.7754
 3408SOL     OW13403   2.338   2.389   6.034  0.4367  0.0734 -0.5019
 3408SOL    HW213404   2.301   2.407   6.121  0.4633  2.0969 -0.8518
 3408SOL    HW313405   2.361   2.296   6.037 -2.4618 -0.7514  0.5538
 3408SOL    MW413406   2.336   2.379   6.046  0.0578  0.2315 -0.4088
 3409SOL     OW13407   6.201   1.864   0.885  0.1762  0.2209 -0.0942
 3409SOL    HW213408   6.192   1.909   0.969  1.6657  0.8198 -0.2221
 3409SOL    HW313409   6.131   1.902   0.831 -1.1226 -0.5376  0.9919
 3409SOL    MW413410   6.190   1.875   0.889  0.2014  0.1998  0.0322
 3410SOL     OW13411   2.742   5.948   1.880 -0.2143  0.2036  0.1825
 3410SOL    HW213412   2.795   5.921   1.955 -0.8146  0.5940  0.7639
 3410SOL    HW313413   2.694   5.870   1.855  0.5915 -0.1432 -0.3258
 3410SOL    MW413414   2.743   5.934   1.887 -0.1872  0.2094  0.1922
 3411SOL     OW13415   1.392   5.574   2.138  0.4265  0.2483 -0.5035
 3411SOL    HW213416   1.324   5.518   2.176 -2.4385  2.8638 -1.3806
 3411SOL    HW313417   1.406   5.643   2.203  1.0388  0.6092 -1.0082
 3411SOL    MW413418   1.385   5.576   2.152  0.1293  0.6410 -0.6858
 3412SOL     OW13419   4.273   3.415   2.737  0.1562  0.1936  0.7049
 3412SOL    HW213420   4.217   3.358   2.790  0.0996 -0.1677  0.2639
 3412SOL    HW313421   4.262   3.382   2.648  0.0468  0.9611  0.4284
 3412SOL    MW413422   4.264   3.403   2.733  0.1343  0.2472  0.6102
 3413SOL     OW13423   4.234   4.665   1.879 -0.1364 -0.2838  0.3023
 3413SOL    HW213424   4.168   4.726   1.911 -1.1100  0.6611 -3.0939
 3413SOL    HW313425   4.298   4.721   1.834  0.4506 -1.5507 -0.4960
 3413SOL    MW413426   4.234   4.680   1.877 -0.1874 -0.3263 -0.2511
 3414SOL     OW13427   0.958   6.264   5.038  0.5346 -0.0806  0.6155
 3414SOL    HW213428   0.906   6.229   5.110  0.8884 -1.7223  0.1219
 3414SOL    HW313429   1.047   6.270   5.074  0.1567  2.1770  1.2807
 3414SOL    MW413430   0.963   6.260   5.052  0.5314  0.0007  0.6381
 3415SOL     OW13431   5.980   2.638   1.717  0.1743 -0.3475 -0.7292
 3415SOL    HW213432   5.977   2.730   1.690  2.3251 -1.0592 -3.9605
 3415SOL    HW313433   5.996   2.642   1.811 -0.8009  2.5435 -0.5661
 3415SOL    MW413434   5.982   2.651   1.726  0.3294 -0.0600 -1.1340
 3416SOL     OW13435   4.032   0.993   6.363  0.1107 -0.1921  0.4404
 3416SOL    HW213436   3.993   1.005   6.450  0.8974  0.1972  0.7434
 3416SOL    HW313437   4.026   1.079   6.322  0.2414 -0.2393  0.3227
 3416SOL    MW413438   4.026   1.006   6.369  0.2318 -0.1470  0.4649
 3417SOL     OW13439   2.453   5.115   0.628  0.4816 -0.3598 -0.4798
 3417SOL    HW213440   2.376   5.122   0.684  1.1944 -1.0519  0.6090
 3417SOL    HW313441   2.479   5.023   0.634  0.8208 -0.3596 -1.6319
 3417SOL    MW413442   2.446   5.103   0.636  0.6204 -0.4511 -0.4882
 3418SOL     OW13443   3.784   2.439   4.965 -0.6546 -0.0574  0.1821
 3418SOL    HW213444   3.747   2.355   4.992  2.3345 -0.9680  1.8572
 3418SOL    HW313445   3.766   2.498   5.038 -0.3014 -0.0382  0.2553
 3418SOL    MW413446   3.776   2.436   4.978 -0.2136 -0.1750  0.4128
 3419SOL     OW13447   0.250   1.756   2.943  0.4573 -0.2743  0.0063
 3419SOL    HW213448   0.232   1.662   2.954 -0.5651 -0.2341 -1.1297
 3419SOL    HW313449   0.176   1.789   2.892  2.1680  0.5864 -2.0773
 3419SOL    MW413450   0.238   1.748   2.938  0.5481 -0.1555 -0.4185
 3420SOL     OW13451   0.316   4.903   5.056 -0.0875  0.2463 -0.1278
 3420SOL    HW213452   0.323   4.837   4.987 -0.9763 -1.9428  1.7538
 3420SOL    HW313453   0.350   4.860   5.134 -1.6880  1.6281  1.4277
 3420SOL    MW413454   0.322   4.889   5.057 -0.4159  0.1398  0.3257
 3421SOL     OW13455   2.313   1.117   1.442 -0.1102 -0.2716 -0.1343
 3421SOL    HW213456   2.346   1.070   1.518  1.5658 -0.8833 -1.1883
 3421SOL    HW313457   2.316   1.053   1.371 -2.9027 -0.1269 -0.5001
 3421SOL    MW413458   2.318   1.103   1.443 -0.2575 -0.3332 -0.3216
 3422SOL     OW13459   5.495   2.916   4.583  0.5276  0.0166 -0.3822
 3422SOL    HW213460   5.503   2.971   4.505 -0.0500  0.5434 -0.0805
 3422SOL    HW313461   5.403   2.889   4.585  1.0043 -1.7682 -1.0486
 3422SOL    MW413462   5.484   2.920   4.573  0.5143 -0.1494 -0.4303
 3423SOL     OW13463   6.235   0.921   1.757 -0.2226 -0.2892 -0.0457
 3423SOL    HW213464   6.164   0.872   1.799 -0.6127  1.0252  0.9126
 3423SOL    HW313465   6.293   0.945   1.830  0.5526 -0.3019 -0.6503
 3423SOL    MW413466   6.233   0.918   1.772 -0.1718 -0.1175  0.0010
 3424SOL     OW13467   3.658   4.955   2.128  0.7942 -0.2330 -0.4813
 3424SOL    HW213468   3.657   4.859   2.119  0.7080 -0.3132  0.3405
 3424SOL    HW313469   3.575   4.976   2.170  1.2856  0.0934  0.3511
 3424SOL    MW413470   3.647   4.945   2.132  0.8477 -0.2005 -0.2630
 3425SOL     OW13471   5.020   6.041   1.364  0.3502 -0.7034 -0.2607
 3425SOL    HW213472   4.955   5.971   1.376 -1.9266  1.5773  2.2693
 3425SOL    HW313473   5.102   5.995   1.346 -1.3039 -3.9093 -0.3770
 3425SOL    MW413474   5.022   6.025   1.363 -0.1684 -0.8255  0.0578
 3426SOL     OW13475   5.979   1.695   5.349 -0.2863 -0.1923 -0.1852
 3426SOL    HW213476   5.972   1.647   5.432 -1.0332 -1.3416 -0.8807
 3426SOL    HW313477   5.914   1.654   5.292  2.1234 -1.3978 -2.2785
 3426SOL    MW413478   5.969   1.683   5.352 -0.0669 -0.5030 -0.5532
 3427SOL     OW13479   4.063   3.715   3.214  0.6646  0.5894 -0.2060
 3427SOL    HW213480   4.067   3.651   3.285 -2.4963  0.8528  0.3313
 3427SOL    HW313481   4.154   3.743   3.202  1.5318 -0.7454  2.5214
 3427SOL    MW413482   4.076   3.710   3.222  0.3619  0.4480  0.2248
 3428SOL     OW13483   5.072   1.405   5.620 -0.0344 -0.1491 -0.4269
 3428SOL    HW213484   5.141   1.472   5.616  0.0082 -0.1256  0.6267
 3428SOL    HW313485   4.990   1.455   5.623 -0.0152 -0.1489  0.0894
 3428SOL    MW413486   5.070   1.420   5.620 -0.0262 -0.1460 -0.2198
 3429SOL     OW13487   5.810   1.020   2.610  0.3428 -0.4098 -0.0686
 3429SOL    HW213488   5.797   1.102   2.562  1.1539 -0.1212  0.1830
 3429SOL    HW313489   5.903   1.020   2.633  0.0182 -0.6236  1.3395
 3429SOL    MW413490   5.821   1.031   2.607  0.4070 -0.3999  0.1504
 3430SOL     OW13491   4.419   3.976   4.491  0.6902 -0.2447 -0.0905
 3430SOL    HW213492   4.333   3.974   4.531  0.9948 -2.3145  0.5846
 3430SOL    HW313493   4.403   3.998   4.399 -0.9217 -3.1655 -0.6429
 3430SOL    MW413494   4.406   3.978   4.484  0.5177 -0.9031 -0.0743
 3431SOL     OW13495   2.289   0.776   3.792 -0.4705  0.2178  0.2419
 3431SOL    HW213496   2.273   0.869   3.779 -0.4508 -0.1052 -2.7868
 3431SOL    HW313497   2.247   0.734   3.718  0.4045 -2.1208  0.9811
 3431SOL    MW413498   2.281   0.783   3.781 -0.3525 -0.1333 -0.0602
 3432SOL     OW13499   2.839   2.270   3.071  0.2794  0.0769 -0.5268
 3432SOL    HW213500   2.836   2.363   3.090  1.0785  0.5176 -2.3108
 3432SOL    HW313501   2.884   2.264   2.986 -0.6998 -1.8393 -0.9789
 3432SOL    MW413502   2.845   2.281   3.062  0.2557 -0.1178 -0.8218
 3433SOL     OW13503   2.558   4.099   5.914 -0.2695  0.0262  0.2173
 3433SOL    HW213504   2.490   4.138   5.858 -1.0740  2.0347  2.3997
 3433SOL    HW313505   2.526   4.113   6.003  2.5435  0.1447  1.3128
 3433SOL    MW413506   2.544   4.106   5.919 -0.0045  0.3068  0.6497
 3434SOL     OW13507   0.865   5.174   6.209 -0.3146  0.0789 -0.0810
 3434SOL    HW213508   0.840   5.189   6.118 -2.7015  0.8977  0.6485
 3434SOL    HW313509   0.951   5.214   6.217 -1.4885  3.1080 -1.1704
 3434SOL    MW413510   0.873   5.181   6.198 -0.7844  0.5866 -0.1285
 3435SOL     OW13511   0.579   4.548   4.341  0.3006  0.3115  0.1372
 3435SOL    HW213512   0.488   4.566   4.317  0.1901 -0.0141  0.2998
 3435SOL    HW313513   0.610   4.630   4.380  0.4349  0.7905 -0.9523
 3435SOL    MW413514   0.571   4.561   4.343  0.3038  0.3317  0.0149
 3436SOL     OW13515   2.649   1.741   6.021 -0.4454  0.7921 -0.5101
 3436SOL    HW213516   2.642   1.646   6.008  2.1501  0.3519  0.5341
 3436SOL    HW313517   2.616   1.780   5.940 -0.8144 -1.0433 -1.2844
 3436SOL    MW413518   2.644   1.734   6.009 -0.1516  0.4919 -0.4745
 3437SOL     OW13519   4.943   1.344   5.912  0.5623  0.0573 -0.5238
 3437SOL    HW213520   4.977   1.411   5.853  0.5694  0.2197 -0.3352
 3437SOL    HW313521   5.020   1.308   5.955  0.5083  0.3375 -0.1902
 3437SOL    MW413522   4.957   1.348   5.910  0.5561  0.1157 -0.4549
 3438SOL     OW13523   1.318   0.984   2.693  0.1687 -0.2043  0.1145
 3438SOL    HW213524   1.286   0.894   2.698 -1.9384  0.5606  2.3490
 3438SOL    HW313525   1.262   1.026   2.627  2.2444 -0.8171 -2.1954
 3438SOL    MW413526   1.306   0.977   2.685  0.1646 -0.1843  0.1046
 3439SOL     OW13527   5.618   3.679   3.048 -0.1433  0.5182 -0.1346
 3439SOL    HW213528   5.587   3.719   2.967 -0.5653  0.0659 -0.2036
 3439SOL    HW313529   5.540   3.639   3.086  0.1750  0.1761  0.1685
 3439SOL    MW413530   5.604   3.679   3.042 -0.1570  0.4134 -0.1037
 3440SOL     OW13531   0.434   5.130   0.031  0.2031 -0.0868 -0.1301
 3440SOL    HW213532   0.347   5.091   0.043 -0.0157  0.2270 -0.6480
 3440SOL    HW313533   0.478   5.071  -0.031  1.0521 -1.2850  1.5482
 3440SOL    MW413534   0.428   5.117   0.024  0.2862 -0.2035  0.0230
 3441SOL     OW13535   1.099   0.171   2.254 -0.0624  0.1018 -0.6168
 3441SOL    HW213536   1.038   0.153   2.182  0.5573  3.9057 -2.3807
 3441SOL    HW313537   1.086   0.265   2.272  2.1808  0.0159  1.9861
 3441SOL    MW413538   1.089   0.181   2.247  0.3153  0.5923 -0.5061
 3442SOL     OW13539   6.005   4.396   4.831 -1.0834 -0.0245  0.0932
 3442SOL    HW213540   5.950   4.436   4.763 -2.9352 -3.4421 -0.7095
 3442SOL    HW313541   5.949   4.393   4.908 -0.4394  0.2637  0.5781
 3442SOL    MW413542   5.990   4.401   4.832 -1.2427 -0.4374  0.0513
 3443SOL     OW13543   5.141   0.495   0.393 -0.3416 -0.0922 -0.1384
 3443SOL    HW213544   5.071   0.520   0.333 -0.7241 -0.2420  0.2429
 3443SOL    HW313545   5.184   0.577   0.417 -0.1605 -0.0372 -0.6460
 3443SOL    MW413546   5.138   0.509   0.388 -0.3682 -0.1047 -0.1551
 3444SOL     OW13547   5.182   5.346   3.453 -0.1384  0.7798 -0.8331
 3444SOL    HW213548   5.263   5.396   3.450 -1.5967  3.2928 -1.7493
 3444SOL    HW313549   5.146   5.363   3.540  0.5187 -0.7801 -0.2191
 3444SOL    MW413550   5.188   5.355   3.464 -0.2441  0.9055 -0.8729
 3445SOL     OW13551   2.792   0.365   5.980 -0.2187  0.5960  0.6375
 3445SOL    HW213552   2.721   0.425   6.002 -0.8524  0.3418 -0.6085
 3445SOL    HW313553   2.794   0.364   5.884  0.7334 -0.2591  0.6452
 3445SOL    MW413554   2.783   0.373   5.970 -0.1767  0.4496  0.4741
 3446SOL     OW13555   0.810   2.647   4.381 -0.6607  0.5137 -0.0694
 3446SOL    HW213556   0.850   2.617   4.299 -0.4117  1.3483 -0.2683
 3446SOL    HW313557   0.811   2.570   4.438  2.8324  0.8435  0.5475
 3446SOL    MW413558   0.816   2.633   4.378 -0.1670  0.6673 -0.0143
 3447SOL     OW13559   4.400   0.844   5.062  0.5028 -0.6978 -0.6851
 3447SOL    HW213560   4.480   0.888   5.089 -1.7730  2.4972  1.6312
 3447SOL    HW313561   4.387   0.775   5.126  0.2908  0.2913  0.3666
 3447SOL    MW413562   4.409   0.841   5.074  0.1745 -0.1457 -0.2408
 3448SOL     OW13563   1.410   5.102   0.759 -0.3978  0.0412 -0.3590
 3448SOL    HW213564   1.353   5.179   0.749  0.7659  1.2695  1.6973
 3448SOL    HW313565   1.479   5.132   0.818  0.0789 -2.6389  0.5441
 3448SOL    MW413566   1.412   5.116   0.765 -0.1814 -0.1504  0.0314
 3449SOL     OW13567   2.919   5.004   2.551 -0.1230  0.3712 -0.2778
 3449SOL    HW213568   2.940   5.074   2.612 -0.1360  0.0440  0.1057
 3449SOL    HW313569   2.824   5.006   2.545 -0.2406 -0.5247  0.8451
 3449SOL    MW413570   2.909   5.014   2.558 -0.1403  0.2099 -0.0791
 3450SOL     OW13571   1.222   6.186   4.824 -0.8971 -0.1661 -0.4321
 3450SOL    HW213572   1.201   6.277   4.803 -1.3100 -0.1624 -0.0348
 3450SOL    HW313573   1.244   6.188   4.917  1.6734 -0.0404 -0.9717
 3450SOL    MW413574   1.222   6.198   4.834 -0.6125 -0.1491 -0.4508
 3451SOL     OW13575   6.280   0.438   1.192  0.3012 -0.3214 -0.1119
 3451SOL    HW213576   6.272   0.436   1.097 -0.7084 -0.9668 -0.0258
 3451SOL    HW313577   6.325   0.357   1.214  0.7343 -0.0665 -0.0538
 3451SOL    MW413578   6.285   0.427   1.183  0.2252 -0.3729 -0.0929
 3452SOL     OW13579   4.727   2.346   0.348  0.4604  0.6753 -0.5560
 3452SOL    HW213580   4.795   2.287   0.315  0.2974  0.5359 -0.6520
 3452SOL    HW313581   4.709   2.405   0.275  1.2367  1.4084 -0.1647
 3452SOL    MW413582   4.734   2.346   0.334  0.5413  0.7536 -0.5171
 3453SOL     OW13583   1.664   6.319   2.320  0.6729  0.0102 -0.5974
 3453SOL    HW213584   1.653   6.411   2.345  1.0930  0.0108 -0.4152
 3453SOL    HW313585   1.575   6.290   2.299  0.0250 -0.3751  2.2863
 3453SOL    MW413586   1.651   6.327   2.321  0.6428 -0.0406 -0.1929
 3454SOL     OW13587   6.093   3.418   1.191 -0.1310 -0.5164 -0.3146
 3454SOL    HW213588   5.999   3.436   1.185  0.3196  2.7842  0.4073
 3454SOL    HW313589   6.115   3.375   1.108 -2.3990 -2.4667 -0.0122
 3454SOL    MW413590   6.084   3.415   1.179 -0.3708 -0.3382 -0.1794
 3455SOL     OW13591   5.655   1.720   2.497 -0.1894 -0.2699  0.2315
 3455SOL    HW213592   5.565   1.704   2.526  0.0227  0.3961  1.3112
 3455SOL    HW313593   5.680   1.640   2.451 -0.8315 -1.0579  1.2121
 3455SOL    MW413594   5.646   1.707   2.495 -0.2461 -0.2860  0.5033
 3456SOL     OW13595   1.333   1.731   5.872 -0.1929  0.3758 -0.4917
 3456SOL    HW213596   1.386   1.653   5.887  0.6761  1.0837  0.2441
 3456SOL    HW313597   1.381   1.780   5.804 -0.2101  0.7397 -0.2437
 3456SOL    MW413598   1.347   1.727   5.865 -0.0805  0.5172 -0.3619
 3457SOL     OW13599   5.299   3.673   1.033  0.3112 -0.2070  0.6101
 3457SOL    HW213600   5.363   3.744   1.030 -1.1755  1.1760 -0.1847
 3457SOL    HW313601   5.266   3.673   1.123  0.9043 -0.4497  0.8299
 3457SOL    MW413602   5.303   3.682   1.044  0.1933 -0.0565  0.5342
 3458SOL     OW13603   4.036   6.168   4.511  0.3009  0.4229 -0.2077
 3458SOL    HW213604   4.061   6.169   4.603  1.3820 -1.5368 -0.4102
 3458SOL    HW313605   3.977   6.092   4.503 -0.4619  1.0679 -0.9887
 3458SOL    MW413606   4.031   6.158   4.522  0.3429  0.2494 -0.3375
 3459SOL     OW13607   2.605   2.049   5.685  0.0502 -0.7952 -0.2633
 3459SOL    HW213608   2.687   2.093   5.708  1.2094 -1.7393 -2.3077
 3459SOL    HW313609   2.539   2.117   5.692  0.8299 -0.2203  2.2760
 3459SOL    MW413610   2.607   2.064   5.689  0.3060 -0.8439 -0.1980
 3460SOL     OW13611   2.559   1.991   5.400  0.1429  0.0324  0.2946
 3460SOL    HW213612   2.546   2.033   5.484 -0.9007  0.9029 -0.2783
 3460SOL    HW313613   2.612   2.052   5.349 -0.1748  0.0294 -0.0527
 3460SOL    MW413614   2.564   2.004   5.404 -0.0367  0.1469  0.1732
 3461SOL     OW13615   2.809   3.073   0.149 -0.1609  0.0174  0.2270
 3461SOL    HW213616   2.746   3.136   0.183 -0.8726  0.0556 -1.1046
 3461SOL    HW313617   2.802   3.081   0.054  0.0623 -1.7444  0.0291
 3461SOL    MW413618   2.800   3.082   0.141 -0.2253 -0.2100  0.0252
 3462SOL     OW13619   0.270   2.168   4.912  0.3603 -0.6760  0.2176
 3462SOL    HW213620   0.274   2.246   4.967  0.0791  0.1030 -0.8512
 3462SOL    HW313621   0.230   2.197   4.830 -1.0424 -2.2205  0.2945
 3462SOL    MW413622   0.265   2.182   4.909  0.1382 -0.7770  0.0867
 3463SOL     OW13623   2.504   6.368   2.873  0.2983 -0.0209 -0.1011
 3463SOL    HW213624   2.574   6.384   2.810  0.9743 -2.1292  0.0308
 3463SOL    HW313625   2.516   6.277   2.900 -2.1093 -0.2473  0.4405
 3463SOL    MW413626   2.515   6.358   2.868  0.0699 -0.3289 -0.0122
 3464SOL     OW13627   3.352   0.868   3.070  0.8912 -0.6061  0.1461
 3464SOL    HW213628   3.310   0.921   3.003  0.5299 -0.4020  0.5322
 3464SOL    HW313629   3.280   0.835   3.124  1.2668  0.4615  1.3374
 3464SOL    MW413630   3.337   0.871   3.068  0.8931 -0.4383  0.3542
 3465SOL     OW13631   5.379   5.662   3.667  0.3365  0.4611  0.4116
 3465SOL    HW213632   5.357   5.585   3.614 -0.0855  0.6706  0.2733
 3465SOL    HW313633   5.321   5.731   3.634  0.9559  0.9320  0.3022
 3465SOL    MW413634   5.368   5.661   3.656  0.3626  0.5508  0.3789
 3466SOL     OW13635   0.615   2.285   5.919  0.0673  0.0213  0.2985
 3466SOL    HW213636   0.634   2.370   5.958 -3.4889  0.0311  2.5645
 3466SOL    HW313637   0.664   2.222   5.973  0.1654  0.4525  0.7178
 3466SOL    MW413638   0.624   2.288   5.931 -0.3889  0.0795  0.6528
 3467SOL     OW13639   2.074   3.859   4.503  0.4774 -0.3848 -0.0438
 3467SOL    HW213640   2.148   3.818   4.457  1.5491  1.2555  0.1409
 3467SOL    HW313641   2.042   3.925   4.441  1.6557  1.5488  1.3021
 3467SOL    MW413642   2.079   3.862   4.489  0.7743  0.0868  0.1581
 3468SOL     OW13643   2.652   2.622   0.310  0.4760 -0.6276  0.0988
 3468SOL    HW213644   2.621   2.602   0.399  1.9935  0.9363  1.0544
 3468SOL    HW313645   2.652   2.718   0.306  1.3345 -0.6537 -1.2602
 3468SOL    MW413646   2.648   2.632   0.321  0.7895 -0.4247  0.0456
 3469SOL     OW13647   1.931   4.960   0.748  1.0085 -0.0800 -0.1963
 3469SOL    HW213648   1.900   4.997   0.831  1.5855  1.7493 -0.7433
 3469SOL    HW313649   2.013   4.916   0.770  0.0946 -1.5095  0.5453
 3469SOL    MW413650   1.938   4.959   0.762  0.9640 -0.0272 -0.1706
 3470SOL     OW13651   6.211   5.431   5.315  0.0380 -0.4721 -0.0698
 3470SOL    HW213652   6.237   5.416   5.224 -0.3762 -0.1296 -0.2438
 3470SOL    HW313653   6.184   5.523   5.318 -0.4933 -0.6360  0.2734
 3470SOL    MW413654   6.211   5.441   5.303 -0.0868 -0.4486 -0.0475
 3471SOL     OW13655   1.251   3.845   1.780 -0.0767  0.2642 -0.0367
 3471SOL    HW213656   1.201   3.843   1.699  1.8386 -0.0407 -1.2639
 3471SOL    HW313657   1.263   3.753   1.803  0.8651  0.2981 -0.3704
 3471SOL    MW413658   1.246   3.833   1.772  0.3002  0.2284 -0.2427
 3472SOL     OW13659   5.287   0.324   4.655  0.3598  0.4252  1.1661
 3472SOL    HW213660   5.220   0.383   4.623 -0.0498 -0.4137  0.4503
 3472SOL    HW313661   5.242   0.241   4.669  1.1790 -0.0619  0.9966
 3472SOL    MW413662   5.273   0.321   4.653  0.4138  0.2503  1.0493
 3473SOL     OW13663   4.111   4.166   4.363  0.5832 -0.1460 -0.0558
 3473SOL    HW213664   4.157   4.116   4.296 -1.4375 -0.7498 -1.0801
 3473SOL    HW313665   4.040   4.210   4.316  0.8988  1.8822  1.2074
 3473SOL    MW413666   4.107   4.165   4.348  0.3582  0.0420 -0.0243
 3474SOL     OW13667   0.120   6.428   1.540 -0.0659  0.4374  0.0842
 3474SOL    HW213668   0.098   6.519   1.562 -2.1832 -0.0020  0.0496
 3474SOL    HW313669   0.121   6.383   1.624 -1.2320  0.1075 -0.0511
 3474SOL    MW413670   0.117   6.434   1.554 -0.4991  0.3359  0.0618
 3475SOL     OW13671   4.450   0.496   2.677 -0.1253  0.4902 -0.0034
 3475SOL    HW213672   4.443   0.408   2.638  0.4167  0.4748 -0.0740
 3475SOL    HW313673   4.415   0.486   2.765  1.1483 -0.1101  0.4550
 3475SOL    MW413674   4.444   0.483   2.683  0.1142  0.4089  0.0477
 3476SOL     OW13675   1.106   5.221   1.208 -0.0957 -0.6207  0.1015
 3476SOL    HW213676   1.167   5.184   1.271 -0.0575 -0.0705  0.3960
 3476SOL    HW313677   1.152   5.215   1.124 -0.2107 -1.4984  0.0966
 3476SOL    MW413678   1.120   5.215   1.205 -0.1058 -0.6639  0.1397
 3477SOL     OW13679   4.697   3.942   5.331 -0.0276  0.1468  0.1454
 3477SOL    HW213680   4.626   3.966   5.391 -0.6430 -1.8788  0.2980
 3477SOL    HW313681   4.688   3.848   5.320  0.2916  0.3883 -2.8754
 3477SOL    MW413682   4.686   3.933   5.338 -0.0666 -0.0886 -0.2330
 3478SOL     OW13683   5.877   1.281   2.544 -0.1064  0.1125 -0.2970
 3478SOL    HW213684   5.852   1.335   2.469  1.1076  1.5952  0.3044
 3478SOL    HW313685   5.924   1.341   2.602  0.0591 -1.2820  1.0845
 3478SOL    MW413686   5.880   1.296   2.541  0.0756  0.1242 -0.0353
 3479SOL     OW13687   0.709   2.171   2.351 -0.0518  0.5818 -0.5709
 3479SOL    HW213688   0.644   2.104   2.374 -0.4272  1.5154  1.2627
 3479SOL    HW313689   0.697   2.239   2.417  2.3304  1.1051 -0.5965
 3479SOL    MW413690   0.699   2.171   2.363  0.2130  0.7740 -0.3324
 3480SOL     OW13691   5.178   0.510   4.431  0.6700  0.6152  0.6600
 3480SOL    HW213692   5.101   0.541   4.384  0.3964 -0.7227  0.1628
 3480SOL    HW313693   5.252   0.554   4.390  0.6724 -2.0646 -2.6202
 3480SOL    MW413694   5.177   0.520   4.420  0.6342  0.0851  0.1617
 3481SOL     OW13695   0.028   1.563   0.632 -0.1095 -0.3308 -0.0887
 3481SOL    HW213696  -0.056   1.567   0.679 -0.1983  0.1975 -0.2877
 3481SOL    HW313697   0.014   1.617   0.554  0.6206  0.2830  0.1996
 3481SOL    MW413698   0.015   1.571   0.628 -0.0249 -0.1801 -0.0769
 3482SOL     OW13699   3.849   5.265   5.816 -0.0820  0.2578 -0.2254
 3482SOL    HW213700   3.935   5.257   5.774  0.8031  0.6726  1.4283
 3482SOL    HW313701   3.834   5.359   5.822  0.3094  0.2377  1.3262
 3482SOL    MW413702   3.859   5.276   5.811  0.0865  0.3098  0.1975
 3483SOL     OW13703   5.561   1.341   6.409  0.1378 -0.1758  0.1037
 3483SOL    HW213704   5.633   1.404   6.408 -0.4324  0.5013  0.9011
 3483SOL    HW313705   5.502   1.371   6.340  0.0014  0.0171  0.3009
 3483SOL    MW413706   5.563   1.353   6.400  0.0446 -0.0610  0.2349
 3484SOL     OW13707   4.488   3.215   2.502  0.5571  0.4957 -0.2370
 3484SOL    HW213708   4.553   3.277   2.468 -1.1321  3.0299  0.8633
 3484SOL    HW313709   4.509   3.208   2.595 -0.4357  1.0095  0.0397
 3484SOL    MW413710   4.499   3.223   2.510  0.2032  0.8979 -0.0553
 3485SOL     OW13711   0.352   1.904   5.612 -0.3523  0.1175 -0.2807
 3485SOL    HW213712   0.422   1.850   5.574 -1.7359 -2.1662  0.2514
 3485SOL    HW313713   0.376   1.912   5.704  0.3498  1.2857 -0.5484
 3485SOL    MW413714   0.365   1.898   5.619 -0.4422 -0.0296 -0.2458
 3486SOL     OW13715   4.289   5.064   4.663 -0.2239 -0.5207  0.1776
 3486SOL    HW213716   4.368   5.117   4.647  0.1772 -0.7595  1.2968
 3486SOL    HW313717   4.266   5.029   4.577  0.6740 -0.1447 -0.2283
 3486SOL    MW413718   4.296   5.067   4.649 -0.0526 -0.5026  0.2717
 3487SOL     OW13719   3.485   2.182   1.212  0.2018 -0.0747  0.4168
 3487SOL    HW213720   3.552   2.188   1.144 -0.0470  0.6181  0.2179
 3487SOL    HW313721   3.515   2.241   1.281 -0.1083  0.1119  0.3995
 3487SOL    MW413722   3.497   2.190   1.212  0.1281  0.0413  0.3882
 3488SOL     OW13723   0.489   2.092   4.750  0.3697 -0.4850  0.0273
 3488SOL    HW213724   0.463   2.161   4.689  0.4388 -1.1887 -0.8184
 3488SOL    HW313725   0.431   2.104   4.826  0.1133  0.2494 -0.2728
 3488SOL    MW413726   0.478   2.102   4.752  0.3450 -0.4810 -0.1239
 3489SOL     OW13727   0.635   2.479   0.576  0.1920 -0.5386 -0.7867
 3489SOL    HW213728   0.638   2.485   0.480  1.8890  0.4859 -0.7144
 3489SOL    HW313729   0.560   2.534   0.601  1.4352  1.5681 -1.4304
 3489SOL    MW413730   0.625   2.487   0.567  0.5799 -0.1255 -0.8621
 3490SOL     OW13731   2.491   5.184   4.551  0.2607  0.4555  0.2382
 3490SOL    HW213732   2.499   5.188   4.646 -1.4927  0.8267  0.3999
 3490SOL    HW313733   2.397   5.178   4.535  0.5809 -0.8580 -1.4385
 3490SOL    MW413734   2.479   5.184   4.561  0.0716  0.3311  0.0383
 3491SOL     OW13735   5.595   1.992   2.461  0.2656 -0.4735 -0.1166
 3491SOL    HW213736   5.528   1.984   2.530  0.2680  0.6290  0.0200
 3491SOL    HW313737   5.632   1.904   2.455  1.1748 -0.3314  2.2119
 3491SOL    MW413738   5.591   1.979   2.469  0.3859 -0.3093  0.2087
 3492SOL     OW13739   1.950   3.134   1.813 -0.2644 -0.3538  0.0024
 3492SOL    HW213740   2.038   3.166   1.799 -0.7927  1.1932  0.0559
 3492SOL    HW313741   1.925   3.169   1.899 -0.6580 -1.4477  0.3640
 3492SOL    MW413742   1.958   3.143   1.823 -0.3861 -0.2940  0.0571
 3493SOL     OW13743   6.271   6.278   1.944 -0.6410  0.3134  0.1896
 3493SOL    HW213744   6.176   6.268   1.941 -0.7139  0.4557  1.5888
 3493SOL    HW313745   6.286   6.345   2.010  0.4796 -0.3781  0.6561
 3493SOL    MW413746   6.261   6.285   1.952 -0.5028  0.2409  0.4357
 3494SOL     OW13747   3.041   5.924   5.350  0.0484 -0.0972  0.4734
 3494SOL    HW213748   2.985   5.970   5.412 -0.0394  0.6368 -0.1418
 3494SOL    HW313749   3.117   5.896   5.403  0.0071  0.5684  0.9002
 3494SOL    MW413750   3.044   5.926   5.365  0.0314  0.0874  0.4485
 3495SOL     OW13751   4.197   6.157   1.264 -0.1112  0.1511 -0.0607
 3495SOL    HW213752   4.245   6.135   1.184 -0.2959 -1.7300  0.2922
 3495SOL    HW313753   4.192   6.074   1.312 -1.8999  0.7512  0.8823
 3495SOL    MW413754   4.203   6.143   1.260 -0.3716 -0.0179  0.1103
 3496SOL     OW13755   2.159   0.223   1.296  0.5885 -0.0407  0.1736
 3496SOL    HW213756   2.142   0.214   1.202  0.9213  0.7707  0.0329
 3496SOL    HW313757   2.220   0.152   1.316 -0.6451 -1.1701  0.0992
 3496SOL    MW413758   2.164   0.212   1.286  0.4696 -0.0826  0.1453
 3497SOL     OW13759   2.345   6.279   1.177  0.0591  0.1348  0.3508
 3497SOL    HW213760   2.338   6.326   1.260 -0.0097  0.3811  0.2065
 3497SOL    HW313761   2.315   6.191   1.197 -1.9663  0.7233  0.1097
 3497SOL    MW413762   2.340   6.274   1.191 -0.2172  0.2450  0.2999
 3498SOL     OW13763   0.155   4.768   2.384 -0.5476  0.1674  0.4911
 3498SOL    HW213764   0.200   4.701   2.436 -0.8291 -0.2644  0.1821
 3498SOL    HW313765   0.106   4.719   2.319 -3.5300  0.4113  2.3511
 3498SOL    MW413766   0.155   4.753   2.383 -0.9783  0.1426  0.6957
 3499SOL     OW13767   4.094   0.016   3.777  0.8054  0.0142  0.2714
 3499SOL    HW213768   4.158   0.001   3.707  0.6485  0.2068  0.0844
 3499SOL    HW313769   4.021  -0.042   3.755  0.2522  0.9294 -0.3829
 3499SOL    MW413770   4.093   0.006   3.765  0.7117  0.1604  0.1604
 3500SOL     OW13771   4.350   5.688   5.984 -0.2355 -0.2113  0.3789
 3500SOL    HW213772   4.328   5.603   6.023 -0.5869  0.3359  1.4101
 3500SOL    HW313773   4.298   5.692   5.904 -1.5049 -0.2761  1.1689
 3500SOL    MW413774   4.340   5.677   5.979 -0.4494 -0.1476  0.6192
 3501SOL     OW13775   3.404   2.192   2.947  0.1585 -0.0203  0.0133
 3501SOL    HW213776   3.374   2.105   2.919  0.5583  0.4081 -1.8113
 3501SOL    HW313777   3.494   2.198   2.916 -0.1095  1.3376 -0.5335
 3501SOL    MW413778   3.412   2.181   2.939  0.1759  0.2153 -0.2996
 3502SOL     OW13779   5.557   2.932   5.419 -0.2148  0.3155  0.2641
 3502SOL    HW213780   5.475   2.885   5.400 -0.0951 -0.3038  1.2482
 3502SOL    HW313781   5.530   3.024   5.426 -0.6474  0.2546 -0.4761
 3502SOL    MW413782   5.543   2.938   5.417 -0.2561  0.2258  0.2963
 3503SOL     OW13783   5.258   4.645   2.629 -0.8231  0.1979 -0.0193
 3503SOL    HW213784   5.240   4.722   2.683 -0.9010  0.4359 -0.3812
 3503SOL    HW313785   5.328   4.599   2.676 -0.2075  0.9166 -0.1970
 3503SOL    MW413786   5.265   4.649   2.642 -0.7522  0.3241 -0.0905
 3504SOL     OW13787   1.451   3.286   6.168 -0.2640  0.2255 -0.1213
 3504SOL    HW213788   1.364   3.246   6.171  0.0583 -0.6796 -1.6937
 3504SOL    HW313789   1.483   3.267   6.080  1.0745  1.5362  0.0448
 3504SOL    MW413790   1.444   3.279   6.157 -0.0449  0.2790 -0.3068
 3505SOL     OW13791   2.644   4.730   1.705  0.1582 -0.2944  0.2545
 3505SOL    HW213792   2.598   4.747   1.623 -0.0558 -0.8276  0.2661
 3505SOL    HW313793   2.716   4.794   1.705  0.2571 -0.4004 -0.4169
 3505SOL    MW413794   2.647   4.741   1.695  0.1430 -0.3787  0.1675
 3506SOL     OW13795   3.144   4.924   4.175 -0.5076 -0.4162 -0.6667
 3506SOL    HW213796   3.168   4.974   4.097 -1.5104  0.6468 -0.3313
 3506SOL    HW313797   3.131   4.990   4.243 -1.1352 -1.1936 -0.0029
 3506SOL    MW413798   3.145   4.939   4.173 -0.7227 -0.3785 -0.5349
 3507SOL     OW13799   3.694   4.400   1.779  0.0135  0.5684  0.4850
 3507SOL    HW213800   3.740   4.385   1.861 -0.7582 -1.1060  0.6429
 3507SOL    HW313801   3.741   4.473   1.739 -0.3173  2.2181  2.9166
 3507SOL    MW413802   3.706   4.408   1.784 -0.1319  0.5652  0.8266
 3508SOL     OW13803   5.241   5.040   1.563  0.2100 -0.7402 -0.3342
 3508SOL    HW213804   5.233   5.082   1.478  1.1872 -1.0691 -0.6049
 3508SOL    HW313805   5.326   5.069   1.596  0.0382 -0.9722  0.3294
 3508SOL    MW413806   5.251   5.049   1.556  0.3162 -0.8142 -0.2824
 3509SOL     OW13807   1.161   3.363   6.016 -0.7080  0.1874  0.2643
 3509SOL    HW213808   1.185   3.455   6.008 -0.7396  0.1131 -0.8660
 3509SOL    HW313809   1.078   3.355   5.968  0.8731 -1.0058 -2.5705
 3509SOL    MW413810   1.153   3.374   6.008 -0.5036  0.0202 -0.2588
 3510SOL     OW13811   6.210   0.224   2.276 -0.0775  0.5013 -0.4268
 3510SOL    HW213812   6.207   0.314   2.309  0.3513  1.0771 -1.8772
 3510SOL    HW313813   6.189   0.170   2.352 -0.1304  1.8105  0.5257
 3510SOL    MW413814   6.207   0.229   2.290 -0.0279  0.7500 -0.4925
 3511SOL     OW13815   6.130   6.182   5.695 -0.4894  0.1815  0.4454
 3511SOL    HW213816   6.205   6.236   5.670  0.5029 -1.1679  0.3936
 3511SOL    HW313817   6.074   6.240   5.746  1.6671  0.6691  2.4215
 3511SOL    MW413818   6.133   6.197   5.698 -0.0740  0.0678  0.6993
 3512SOL     OW13819   3.021   3.059   0.839  0.2597  0.4833  0.4997
 3512SOL    HW213820   2.985   3.148   0.841 -1.9813 -0.2967 -0.9192
 3512SOL    HW313821   2.981   3.019   0.761  4.6163 -0.4435 -1.5769
 3512SOL    MW413822   3.011   3.065   0.829  0.5388  0.2581  0.0385
 3513SOL     OW13823   6.379   3.228   2.574 -0.1585 -0.0627  0.1958
 3513SOL    HW213824   6.428   3.287   2.517 -0.3075 -1.1568 -1.1002
 3513SOL    HW313825   6.315   3.285   2.618  0.1912  0.8590 -0.4504
 3513SOL    MW413826   6.377   3.243   2.573 -0.1320 -0.0855 -0.0604
 3514SOL     OW13827   0.909   6.293   2.593  0.1030 -1.0961 -0.6638
 3514SOL    HW213828   0.879   6.341   2.516 -0.6668  1.3929  1.0718
 3514SOL    HW313829   0.994   6.331   2.614  0.0051 -1.2729  0.1034
 3514SOL    MW413830   0.916   6.304   2.585 -0.0115 -0.7911 -0.3336
 3515SOL     OW13831   4.965   5.701   3.186  0.0517 -0.0429 -0.0644
 3515SOL    HW213832   4.969   5.611   3.220 -0.2214 -0.4462 -1.0683
 3515SOL    HW313833   4.893   5.700   3.123 -0.3365  1.0420  0.3372
 3515SOL    MW413834   4.956   5.689   3.183 -0.0356  0.0470 -0.1439
 3516SOL     OW13835   4.004   2.010   0.906  0.3036 -0.5068 -0.4471
 3516SOL    HW213836   4.087   2.040   0.869  0.0884  0.4768 -0.1642
 3516SOL    HW313837   3.938   2.037   0.842  0.1189 -0.4962 -0.2539
 3516SOL    MW413838   4.006   2.017   0.892  0.2508 -0.3756 -0.3842
 3517SOL     OW13839   1.812   2.104   0.484 -0.6230 -0.2475  0.1849
 3517SOL    HW213840   1.887   2.064   0.439  0.6993  1.7520  0.4537
 3517SOL    HW313841   1.767   2.031   0.526  1.2867 -1.5097  0.1583
 3517SOL    MW413842   1.816   2.089   0.484 -0.1966 -0.1502  0.2169
 3518SOL     OW13843   1.705   4.540   4.771 -0.0475 -0.1781  0.2237
 3518SOL    HW213844   1.737   4.494   4.849 -1.1210 -1.2199  0.0699
 3518SOL    HW313845   1.624   4.496   4.748 -0.1295  0.5847 -1.0706
 3518SOL    MW413846   1.699   4.528   4.778 -0.2000 -0.2149  0.0326
 3519SOL     OW13847   5.080   2.989   4.821 -0.3782 -0.1621 -0.2605
 3519SOL    HW213848   5.120   3.065   4.863 -2.1374  0.4266  0.4476
 3519SOL    HW313849   5.086   2.920   4.887 -1.1557  0.1389  0.1421
 3519SOL    MW413850   5.086   2.990   4.835 -0.7129 -0.0447 -0.1140
 3520SOL     OW13851   4.575   4.475   0.435  0.8747  0.2459  0.5622
 3520SOL    HW213852   4.525   4.543   0.390  1.6023  1.1280  1.0522
 3520SOL    HW313853   4.537   4.471   0.523  1.1651  0.3639  0.6914
 3520SOL    MW413854   4.563   4.483   0.441  1.0090  0.3778  0.6439
 3521SOL     OW13855   4.706   1.630   1.650  0.8773  0.8537  0.2793
 3521SOL    HW213856   4.749   1.703   1.694  3.2475  1.2803 -2.4063
 3521SOL    HW313857   4.771   1.560   1.652 -0.8193 -0.7549  1.5754
 3521SOL    MW413858   4.720   1.630   1.656  0.9662  0.6977  0.0960
 3522SOL     OW13859   0.980   5.594   3.073  0.0567 -0.2225 -0.6832
 3522SOL    HW213860   0.987   5.621   3.165 -1.6240 -0.2918 -0.5142
 3522SOL    HW313861   0.992   5.499   3.075 -0.5638 -0.3009 -0.4490
 3522SOL    MW413862   0.983   5.585   3.086 -0.2469 -0.2420 -0.6300
 3523SOL     OW13863   3.348   4.047   3.844  0.3725  0.1696  0.3903
 3523SOL    HW213864   3.278   4.036   3.779  0.4665 -0.7123  0.4201
 3523SOL    HW313865   3.410   3.977   3.824  0.6703  0.2222  1.0951
 3523SOL    MW413866   3.347   4.036   3.833  0.4242  0.0602  0.4872
 3524SOL     OW13867   2.494   4.710   2.593  0.0681  0.8252 -0.3129
 3524SOL    HW213868   2.529   4.796   2.570  0.2136  0.9920  0.5285
 3524SOL    HW313869   2.509   4.702   2.687 -1.9597  0.8195  0.0523
 3524SOL    MW413870   2.501   4.720   2.602 -0.1802  0.8465 -0.1537
 3525SOL     OW13871   0.306   1.169   3.363 -0.4279 -0.0008 -0.4396
 3525SOL    HW213872   0.313   1.262   3.342  0.9482  0.0806  0.2704
 3525SOL    HW313873   0.242   1.166   3.435  1.7411  0.8147  1.6772
 3525SOL    MW413874   0.298   1.181   3.370  0.0398  0.1175 -0.0667
 3526SOL     OW13875   0.837   5.149   1.252  0.2424 -0.3490 -0.2077
 3526SOL    HW213876   0.861   5.114   1.337  0.3042  0.7652  0.2367
 3526SOL    HW313877   0.918   5.183   1.215  0.0816 -0.1930 -0.4219
 3526SOL    MW413878   0.851   5.149   1.258  0.2293 -0.1814 -0.1773
 3527SOL     OW13879   4.187   2.840   3.924 -0.1296 -0.2305 -0.4887
 3527SOL    HW213880   4.198   2.908   3.990  0.5752 -0.6859 -0.1307
 3527SOL    HW313881   4.163   2.762   3.974 -0.6923 -0.3162 -0.8788
 3527SOL    MW413882   4.185   2.839   3.939 -0.1109 -0.3019 -0.4929
 3528SOL     OW13883   4.877   4.912   5.639 -0.2916  0.0929  0.3437
 3528SOL    HW213884   4.803   4.852   5.637 -0.6653  0.5364  0.5573
 3528SOL    HW313885   4.944   4.871   5.585 -0.5716 -0.4718  0.4237
 3528SOL    MW413886   4.876   4.899   5.632 -0.3778  0.0769  0.3825
 3529SOL     OW13887   1.611   4.817   3.147 -0.0137  0.1660  0.0385
 3529SOL    HW213888   1.613   4.802   3.052 -0.5520  0.5448 -0.0341
 3529SOL    HW313889   1.700   4.797   3.176 -0.0570 -0.7276 -0.4260
 3529SOL    MW413890   1.623   4.813   3.138 -0.0905  0.0981 -0.0324
 3530SOL     OW13891   1.580   3.744   1.386  0.7235 -0.0503  0.0025
 3530SOL    HW213892   1.484   3.744   1.388  0.7301  0.1330  0.9311
 3530SOL    HW313893   1.603   3.779   1.300 -0.0421 -0.0652 -0.2157
 3530SOL    MW413894   1.570   3.748   1.375  0.6233 -0.0281  0.0962
 3531SOL     OW13895   3.430   2.210   3.639 -0.1444 -0.2950  0.3196
 3531SOL    HW213896   3.437   2.129   3.588 -1.5727 -0.2981  0.0863
 3531SOL    HW313897   3.382   2.184   3.718 -2.3911  0.6549 -0.6483
 3531SOL    MW413898   3.425   2.196   3.643 -0.6293 -0.1701  0.1611
 3532SOL     OW13899   6.021   4.847   2.964 -0.1911 -0.0280  0.5717
 3532SOL    HW213900   6.104   4.814   2.930  1.0770  2.2526  1.2323
 3532SOL    HW313901   5.989   4.906   2.895  0.0112  1.0026  1.3456
 3532SOL    MW413902   6.028   4.851   2.950  0.0029  0.4088  0.7609
 3533SOL     OW13903   3.566   2.450   5.604  0.3101  0.2916  0.1139
 3533SOL    HW213904   3.503   2.397   5.652  1.5208  0.2289  1.6892
 3533SOL    HW313905   3.609   2.388   5.545  0.4117 -0.0925  0.5913
 3533SOL    MW413906   3.563   2.435   5.602  0.4832  0.2327  0.3847
 3534SOL     OW13907   5.611   2.035   3.507 -0.1580 -0.4164  0.4506
 3534SOL    HW213908   5.601   2.065   3.597 -0.4648  0.0286  0.2735
 3534SOL    HW313909   5.659   2.104   3.463 -2.8332  0.9984 -0.5234
 3534SOL    MW413910   5.616   2.048   3.513 -0.5514 -0.1710  0.2987
 3535SOL     OW13911   1.597   0.489   6.194  0.5973  0.1936 -0.0268
 3535SOL    HW213912   1.636   0.406   6.168 -1.3758 -0.9228  0.4162
 3535SOL    HW313913   1.540   0.467   6.268 -1.0858  1.6645 -0.8148
 3535SOL    MW413914   1.595   0.476   6.200  0.1149  0.2404 -0.0723
 3536SOL     OW13915   1.955   2.389   1.793  0.7040 -0.1049  0.0801
 3536SOL    HW213916   2.007   2.309   1.787  1.8390  0.4166  1.9054
 3536SOL    HW313917   2.020   2.460   1.786  0.1643  0.5756  1.5159
 3536SOL    MW413918   1.971   2.388   1.791  0.7826  0.0537  0.5104
 3537SOL     OW13919   2.712   0.529   3.112  0.5625 -0.2082  0.0540
 3537SOL    HW213920   2.680   0.532   3.022  1.4399 -0.2538 -0.2693
 3537SOL    HW313921   2.724   0.436   3.130  0.9344 -0.1710  0.0113
 3537SOL    MW413922   2.709   0.517   3.102  0.7274 -0.2093  0.0057
 3538SOL     OW13923   6.371   3.243   1.217  0.0963 -0.5888 -0.3492
 3538SOL    HW213924   6.444   3.282   1.169 -0.6729  1.5333  0.0528
 3538SOL    HW313925   6.407   3.223   1.304  0.4305 -0.4014 -0.4444
 3538SOL    MW413926   6.385   3.246   1.222  0.0389 -0.2841 -0.3087
 3539SOL     OW13927   4.813   0.026   1.403  0.2917  0.1614 -0.4673
 3539SOL    HW213928   4.903   0.015   1.372 -0.3763 -0.0518 -2.5203
 3539SOL    HW313929   4.768  -0.054   1.377 -0.4670  0.1743  0.7092
 3539SOL    MW413930   4.819   0.014   1.395  0.1035  0.1350 -0.5830
 3540SOL     OW13931   1.620   5.079   2.205 -1.1458  0.0764  0.1988
 3540SOL    HW213932   1.596   5.171   2.199  1.0605  0.7058  0.1346
 3540SOL    HW313933   1.635   5.064   2.299  1.4188  0.6678 -0.0447
 3540SOL    MW413934   1.619   5.089   2.217 -0.5163  0.2375  0.1582
 3541SOL     OW13935   4.998   1.583   1.570 -0.2864 -0.5330 -0.4811
 3541SOL    HW213936   5.089   1.593   1.542  0.0822 -0.6326  0.6382
 3541SOL    HW313937   4.948   1.584   1.488  0.8095 -1.5681 -1.2112
 3541SOL    MW413938   5.003   1.584   1.556 -0.0932 -0.6827 -0.4298
 3542SOL     OW13939   3.113   3.554   6.130 -0.0181 -0.5549 -0.3424
 3542SOL    HW213940   3.106   3.491   6.202 -2.4032 -1.7896 -1.5123
 3542SOL    HW313941   3.026   3.594   6.125  0.2419 -0.1155 -2.1692
 3542SOL    MW413942   3.100   3.551   6.139 -0.2985 -0.6598 -0.7378
 3543SOL     OW13943   2.766   0.884   4.373  0.2985  0.3253  0.7442
 3543SOL    HW213944   2.810   0.807   4.410  2.0536  1.5495  1.3418
 3543SOL    HW313945   2.770   0.870   4.278  0.9031 -0.1747  0.8327
 3543SOL    MW413946   2.772   0.872   4.365  0.6098  0.4209  0.8347
 3544SOL     OW13947   6.381   1.280   4.543 -0.1276 -0.0391  0.1568
 3544SOL    HW213948   6.452   1.294   4.481  0.0692 -2.4393 -0.2295
 3544SOL    HW313949   6.380   1.360   4.596  0.4151  1.6154 -2.1744
 3544SOL    MW413950   6.390   1.293   4.542 -0.0300 -0.1375 -0.2018
 3545SOL     OW13951   4.452   4.523   3.650  0.2214 -0.5811  0.2780
 3545SOL    HW213952   4.446   4.619   3.653 -1.3195 -0.6432  0.1714
 3545SOL    HW313953   4.479   4.498   3.738 -1.9168 -0.1523  1.1102
 3545SOL    MW413954   4.455   4.533   3.662 -0.2640 -0.5327  0.3737
 3546SOL     OW13955   2.444   5.421   5.007  0.5876  0.6558 -0.2049
 3546SOL    HW213956   2.441   5.474   5.087  1.5509  1.2431 -0.5494
 3546SOL    HW313957   2.352   5.411   4.982  0.3252  1.1977  0.4920
 3546SOL    MW413958   2.431   5.426   5.014  0.6801  0.8048 -0.1584
 3547SOL     OW13959   0.349   1.567   2.735 -0.3442 -0.3078  0.3484
 3547SOL    HW213960   0.384   1.539   2.651 -0.3555 -1.4035  0.6882
 3547SOL    HW313961   0.295   1.643   2.715 -1.6148 -1.4892 -0.8560
 3547SOL    MW413962   0.347   1.573   2.722 -0.5133 -0.6083  0.2343
 3548SOL     OW13963   6.043   4.075   2.647 -0.5108  0.1360  0.0921
 3548SOL    HW213964   6.083   4.151   2.688 -0.2113 -0.1477  0.3362
 3548SOL    HW313965   6.115   4.012   2.639 -1.2288 -1.0259  2.0489
 3548SOL    MW413966   6.058   4.076   2.651 -0.5660 -0.0547  0.3825
 3549SOL     OW13967   5.712   1.712   5.973 -0.1771 -0.2081 -0.9296
 3549SOL    HW213968   5.703   1.632   6.025 -0.4486 -0.3215 -1.1477
 3549SOL    HW313969   5.738   1.681   5.886  0.3312 -0.0160 -0.8465
 3549SOL    MW413970   5.714   1.697   5.968 -0.1459 -0.1977 -0.9474
 3550SOL     OW13971   0.698   3.997   2.984 -0.0617 -0.8780 -0.4856
 3550SOL    HW213972   0.680   4.025   3.073 -1.4812 -1.4945 -0.5585
 3550SOL    HW313973   0.706   3.902   2.989  1.9757 -0.7794 -0.6982
 3550SOL    MW413974   0.697   3.988   2.996  0.0198 -0.9463 -0.5233
 3551SOL     OW13975   2.362   2.730   4.266  0.7146 -0.5990 -0.1241
 3551SOL    HW213976   2.353   2.700   4.176  0.0173  1.8059 -0.9389
 3551SOL    HW313977   2.455   2.751   4.274  0.1778  3.3004 -1.8602
 3551SOL    MW413978   2.373   2.729   4.255  0.5517  0.2328 -0.4607
 3552SOL     OW13979   1.337   1.308   1.684 -0.4747  0.3272 -0.1572
 3552SOL    HW213980   1.294   1.239   1.632  1.0900 -0.9524  0.1631
 3552SOL    HW313981   1.281   1.318   1.761 -0.8209 -0.4944 -0.2843
 3552SOL    MW413982   1.324   1.300   1.687 -0.3140  0.0500 -0.1317
 3553SOL     OW13983   1.266   1.711   3.796 -0.1004  0.1035 -0.2353
 3553SOL    HW213984   1.341   1.705   3.736  1.1730  1.1819  1.1775
 3553SOL    HW313985   1.231   1.799   3.782 -0.4051  0.0094 -0.0750
 3553SOL    MW413986   1.272   1.722   3.786  0.0274  0.2333 -0.0277
 3554SOL     OW13987   1.953   5.667   1.560 -0.1922  0.0635 -0.1278
 3554SOL    HW213988   1.874   5.671   1.615 -0.6724 -1.2716 -0.6635
 3554SOL    HW313989   1.929   5.715   1.481 -0.3011  0.0696 -0.0915
 3554SOL    MW413990   1.939   5.674   1.557 -0.2700 -0.1118 -0.1937
 3555SOL     OW13991   4.141   4.374   5.473 -0.2207 -0.3003  0.1261
 3555SOL    HW213992   4.066   4.396   5.417 -1.1854 -0.6859  1.2207
 3555SOL    HW313993   4.110   4.299   5.525  1.5593 -1.6337 -0.6638
 3555SOL    MW413994   4.127   4.367   5.473 -0.1131 -0.5271  0.1663
 3556SOL     OW13995   0.767   5.436   3.297  0.4575  1.0172 -0.6644
 3556SOL    HW213996   0.694   5.378   3.318  2.0678 -0.4375  1.3820
 3556SOL    HW313997   0.735   5.523   3.319 -1.1026  0.5882 -1.1122
 3556SOL    MW413998   0.754   5.439   3.303  0.4641  0.7687 -0.4535
 3557SOL     OW13999   2.160   3.766   4.964 -0.7235 -0.2844 -0.2094
 3557SOL    HW214000   2.152   3.725   4.878 -1.7270 -2.0286  0.6505
 3557SOL    HW314001   2.103   3.844   4.959 -1.5742 -0.9266 -0.8228
 3557SOL    MW414002   2.151   3.771   4.952 -0.9682 -0.5993 -0.1769
 3558SOL     OW14003   4.818   3.553   2.594 -0.1553 -0.0135 -0.1433
 3558SOL    HW214004   4.903   3.515   2.612 -0.8835 -1.9073 -0.4637
 3558SOL    HW314005   4.772   3.552   2.678 -0.3375 -0.2837 -0.2438
 3558SOL    MW414006   4.823   3.548   2.607 -0.2754 -0.2990 -0.1988
 3559SOL     OW14007   3.842   0.530   0.914 -0.0530  0.0458 -0.4971
 3559SOL    HW214008   3.784   0.483   0.974 -0.9628  0.2743 -1.1697
 3559SOL    HW314009   3.897   0.584   0.971  0.7546 -1.5090  0.2622
 3559SOL    MW414010   3.842   0.531   0.929 -0.0665 -0.1292 -0.4856
 3560SOL     OW14011   1.957   5.315   4.030  0.0268 -0.0300 -0.3015
 3560SOL    HW214012   1.883   5.363   4.065  0.9554  2.1763 -1.1982
 3560SOL    HW314013   2.016   5.303   4.104 -0.1882  0.2488 -0.0859
 3560SOL    MW414014   1.955   5.319   4.044  0.1210  0.2979 -0.3914
 3561SOL     OW14015   1.253   5.690   1.942 -0.6137  0.0722 -0.2425
 3561SOL    HW214016   1.173   5.709   1.991 -1.2076 -1.4381 -0.5685
 3561SOL    HW314017   1.302   5.630   1.998  0.6985  1.5944  0.3056
 3561SOL    MW414018   1.249   5.684   1.956 -0.5190  0.0738 -0.2132
 3562SOL     OW14019   5.414   3.500   3.229 -0.1395 -0.5132 -0.4344
 3562SOL    HW214020   5.492   3.445   3.225  0.9621  1.0783 -1.9701
 3562SOL    HW314021   5.442   3.579   3.276 -0.9269 -0.0709 -0.6780
 3562SOL    MW414022   5.428   3.503   3.235 -0.0981 -0.2448 -0.6691
 3563SOL     OW14023   5.399   4.568   3.616  0.1418  0.4130 -0.5102
 3563SOL    HW214024   5.384   4.647   3.565  0.2541 -0.4871 -1.9960
 3563SOL    HW314025   5.427   4.599   3.702 -1.3769  2.0033 -0.5465
 3563SOL    MW414026   5.401   4.582   3.621 -0.0438  0.5041 -0.7110
 3564SOL     OW14027   5.032   2.388   3.283  0.0504  0.4850 -0.2109
 3564SOL    HW214028   5.050   2.392   3.189 -1.9727  2.0765 -0.5975
 3564SOL    HW314029   4.965   2.320   3.293  1.1601 -0.5811  0.2987
 3564SOL    MW414030   5.026   2.379   3.272 -0.0701  0.5543 -0.1946
 3565SOL     OW14031   4.178   3.676   2.785 -0.1402 -0.1592  0.4069
 3565SOL    HW214032   4.171   3.656   2.879 -0.9029  1.7412  0.8087
 3565SOL    HW314033   4.201   3.593   2.744 -0.3589 -1.1601  2.2165
 3565SOL    MW414034   4.180   3.663   2.792 -0.2697 -0.0405  0.6987
 3566SOL     OW14035   5.493   4.095   3.692 -0.4842  0.3747  0.5932
 3566SOL    HW214036   5.480   4.167   3.630 -0.0082 -0.6084 -0.6791
 3566SOL    HW314037   5.586   4.073   3.684 -0.8047 -0.9210  0.3749
 3566SOL    MW414038   5.504   4.102   3.683 -0.4637  0.0740  0.3965
 3567SOL     OW14039   4.501   1.696   5.914  0.0944 -0.1088 -0.8953
 3567SOL    HW214040   4.461   1.751   5.847 -1.8885  1.2527  1.2653
 3567SOL    HW314041   4.556   1.756   5.965 -1.8881 -0.0629  1.3366
 3567SOL    MW414042   4.503   1.711   5.912 -0.4288  0.0769 -0.3158
 3568SOL     OW14043   1.358   2.493   4.846 -0.2102  0.4908  0.6015
 3568SOL    HW214044   1.324   2.583   4.851  0.4550  0.7828  0.0793
 3568SOL    HW314045   1.325   2.450   4.925 -0.2210  1.3002  1.0472
 3568SOL    MW414046   1.349   2.499   4.857 -0.1239  0.6361  0.5914
 3569SOL     OW14047   1.122   6.283   2.185  0.1034 -0.1816  0.3634
 3569SOL    HW214048   1.062   6.357   2.199 -0.5933 -0.9307  1.4163
 3569SOL    HW314049   1.171   6.308   2.106 -2.3010  0.0047 -1.1788
 3569SOL    MW414050   1.121   6.296   2.176 -0.3058 -0.2558  0.2989
 3570SOL     OW14051   6.369   2.933   5.163 -0.0170 -0.1439 -0.2934
 3570SOL    HW214052   6.414   2.922   5.079 -1.4024 -0.6655 -1.0064
 3570SOL    HW314053   6.414   2.874   5.223  0.1786 -0.7597 -1.0270
 3570SOL    MW414054   6.381   2.924   5.159 -0.1740 -0.2940 -0.4842
 3571SOL     OW14055   0.913   5.817   4.521  0.9795  0.0214  0.3751
 3571SOL    HW214056   0.936   5.872   4.595 -1.2719  0.7240  0.6203
 3571SOL    HW314057   0.824   5.842   4.499 -0.0191 -3.1844  0.1971
 3571SOL    MW414058   0.904   5.827   4.528  0.5507 -0.3089  0.3840
 3572SOL     OW14059   5.162   3.587   0.381  0.2475 -0.0274 -0.5132
 3572SOL    HW214060   5.091   3.578   0.445 -0.2929  1.8590 -0.7915
 3572SOL    HW314061   5.141   3.521   0.314 -1.2000  0.3941 -0.5257
 3572SOL    MW414062   5.150   3.577   0.381 -0.0148  0.2771 -0.5516
 3573SOL     OW14063   2.476   5.224   5.929  0.0226 -0.5207 -0.1377
 3573SOL    HW214064   2.439   5.157   5.986 -1.5862  0.4370 -0.0129
 3573SOL    HW314065   2.400   5.269   5.891  0.9906 -0.9865 -2.9141
 3573SOL    MW414066   2.461   5.221   5.931 -0.0620 -0.4558 -0.4876
 3574SOL     OW14067   1.469   0.429   3.489  0.0898  0.4523 -0.8171
 3574SOL    HW214068   1.495   0.352   3.541  0.6934 -0.2206 -2.0482
 3574SOL    HW314069   1.378   0.413   3.466 -0.1962  0.7808  0.0643
 3574SOL    MW414070   1.461   0.416   3.493  0.1317  0.4069 -0.8632
 3575SOL     OW14071   2.455   0.734   4.203 -0.6254 -0.3538 -0.1184
 3575SOL    HW214072   2.475   0.825   4.180  0.2724 -0.9398 -1.8096
 3575SOL    HW314073   2.376   0.740   4.258 -0.2227  1.4690  0.3350
 3575SOL    MW414074   2.447   0.747   4.207 -0.4538 -0.1906 -0.2817
 3576SOL     OW14075   0.108   0.618   6.324 -0.1949  0.5413 -0.2244
 3576SOL    HW214076   0.196   0.608   6.286  0.5195 -1.6967  1.7698
 3576SOL    HW314077   0.122   0.609   6.418 -2.6553 -0.6349  0.0820
 3576SOL    MW414078   0.122   0.616   6.331 -0.4253  0.0908  0.0791
 3577SOL     OW14079   3.263   1.756   0.661 -0.1024 -0.1315 -0.3094
 3577SOL    HW214080   3.211   1.743   0.740 -0.8750  1.1407 -0.5786
 3577SOL    HW314081   3.306   1.672   0.646 -0.3055 -0.5252  1.1968
 3577SOL    MW414082   3.262   1.743   0.670 -0.2311 -0.0156 -0.1462
 3578SOL     OW14083   3.295   1.135   0.425 -0.7583  0.1470 -0.2450
 3578SOL    HW214084   3.288   1.162   0.516  2.2052  1.1156 -0.1985
 3578SOL    HW314085   3.349   1.056   0.427  1.5419  1.5738 -1.2155
 3578SOL    MW414086   3.301   1.128   0.437 -0.0638  0.4631 -0.3669
 3579SOL     OW14087   3.284   1.134   2.114 -1.2252  0.1578 -0.3404
 3579SOL    HW214088   3.232   1.214   2.119 -1.5863 -0.1027  0.3330
 3579SOL    HW314089   3.374   1.164   2.100 -1.3669  0.6812 -0.1469
 3579SOL    MW414090   3.289   1.149   2.113 -1.2915  0.1925 -0.2260
 3580SOL     OW14091   3.640   1.824   5.765 -0.3603  0.7442  0.0195
 3580SOL    HW214092   3.729   1.859   5.777  0.2094 -0.5331 -0.2771
 3580SOL    HW314093   3.631   1.816   5.670 -0.1904 -0.5786  0.1032
 3580SOL    MW414094   3.651   1.828   5.754 -0.2627  0.4012 -0.0086
 3581SOL     OW14095   5.690   0.682   6.179 -0.3292  0.5473  0.4740
 3581SOL    HW214096   5.597   0.703   6.179 -0.3284  0.5459  0.8506
 3581SOL    HW314097   5.694   0.587   6.167 -0.3211  0.7806 -1.8135
 3581SOL    MW414098   5.678   0.673   6.177 -0.3280  0.5779  0.2219
 3582SOL     OW14099   5.938   0.229   2.192  0.2477  0.2891  0.2324
 3582SOL    HW214100   6.026   0.227   2.228  0.3735 -0.9264 -0.1115
 3582SOL    HW314101   5.884   0.265   2.262  1.0247  1.2078  0.3831
 3582SOL    MW414102   5.942   0.234   2.206  0.3668  0.2499  0.2069
 3583SOL     OW14103   1.477   4.677   4.480  0.1425  0.9110 -0.4865
 3583SOL    HW214104   1.417   4.626   4.425  1.2165 -1.8070  0.6851
 3583SOL    HW314105   1.560   4.676   4.433  0.8632 -0.7888  0.6839
 3583SOL    MW414106   1.480   4.670   4.467  0.3793  0.3281 -0.1775
 3584SOL     OW14107   5.837   5.744   0.675 -0.5554 -0.5149  0.4510
 3584SOL    HW214108   5.909   5.682   0.662  1.0783  1.1337  1.2431
 3584SOL    HW314109   5.851   5.812   0.609 -2.5863 -1.1353 -0.7024
 3584SOL    MW414110   5.848   5.745   0.665 -0.6078 -0.3792  0.4034
 3585SOL     OW14111   1.320   3.867   3.485 -0.3041  0.0765  0.1897
 3585SOL    HW214112   1.377   3.800   3.447 -0.6313 -0.4746  0.6389
 3585SOL    HW314113   1.265   3.818   3.547  0.5760  1.0132  1.7724
 3585SOL    MW414114   1.321   3.852   3.488 -0.2312  0.1274  0.4578
 3586SOL     OW14115   3.069   4.968   0.190  0.1527 -0.4884 -0.0316
 3586SOL    HW214116   2.983   4.929   0.206 -0.4071  0.2921 -1.0500
 3586SOL    HW314117   3.127   4.893   0.178 -0.7366 -1.0385 -1.1037
 3586SOL    MW414118   3.065   4.953   0.191 -0.0385 -0.4580 -0.3074
 3587SOL     OW14119   1.583   2.355   3.011  0.1228 -0.5976 -0.1108
 3587SOL    HW214120   1.606   2.448   2.999  0.7725 -0.6409  0.6928
 3587SOL    HW314121   1.645   2.324   3.077 -0.5078 -1.4485  0.0890
 3587SOL    MW414122   1.594   2.363   3.018  0.1253 -0.7156  0.0216
 3588SOL     OW14123   0.600   1.271   1.946  0.3602  0.2809  0.4119
 3588SOL    HW214124   0.574   1.351   1.991  2.2421  0.4173  1.3315
 3588SOL    HW314125   0.692   1.284   1.924  0.2742 -0.9921 -0.8739
 3588SOL    MW414126   0.609   1.283   1.949  0.5971  0.1309  0.3636
 3589SOL     OW14127   5.954   0.237   4.713 -0.4256 -0.4185  0.1641
 3589SOL    HW214128   5.911   0.308   4.665 -0.6441 -0.1250  0.7793
 3589SOL    HW314129   5.886   0.204   4.772 -0.0745 -0.5680  0.4854
 3589SOL    MW414130   5.939   0.242   4.714 -0.4081 -0.3995  0.2876
 3590SOL     OW14131   0.515   4.929   5.856 -0.0150 -0.1125  0.1432
 3590SOL    HW214132   0.437   4.882   5.827  0.0646  0.4768 -1.0995
 3590SOL    HW314133   0.579   4.860   5.877 -0.1698 -0.5782 -0.8606
 3590SOL    MW414134   0.513   4.914   5.855 -0.0250 -0.0962 -0.1532
 3591SOL     OW14135   2.432   3.295   0.136  0.8953 -0.4026 -0.4161
 3591SOL    HW214136   2.454   3.356   0.065 -1.8056 -0.4336 -1.4331
 3591SOL    HW314137   2.386   3.349   0.200 -0.1604 -1.0372 -0.6035
 3591SOL    MW414138   2.429   3.310   0.135  0.3997 -0.4904 -0.5750
 3592SOL     OW14139   3.466   5.133   4.919 -0.1264  0.4645 -0.3909
 3592SOL    HW214140   3.377   5.100   4.913  0.3239 -0.6491 -1.0408
 3592SOL    HW314141   3.508   5.108   4.837  0.7871  0.9887 -0.1065
 3592SOL    MW414142   3.460   5.126   4.908  0.0535  0.3867 -0.4391
 3593SOL     OW14143   5.902   2.844   2.028  0.4958  1.0197 -0.0035
 3593SOL    HW214144   5.947   2.922   2.060 -1.8341  1.7297  1.8761
 3593SOL    HW314145   5.827   2.834   2.087  0.5663 -2.5674 -0.2851
 3593SOL    MW414146   5.898   2.853   2.040  0.1977  0.6401  0.2073
 3594SOL     OW14147   0.586   5.804   2.654  0.1175 -0.0207 -0.2090
 3594SOL    HW214148   0.590   5.883   2.600  3.4168  0.3801  0.3856
 3594SOL    HW314149   0.545   5.739   2.597  0.4752  1.2232 -2.0132
 3594SOL    MW414150   0.581   5.806   2.639  0.6000  0.1963 -0.3686
 3595SOL     OW14151   4.916   5.856   2.434 -0.6218 -0.9904  0.3559
 3595SOL    HW214152   4.873   5.928   2.480 -0.1017 -0.9447  0.7868
 3595SOL    HW314153   4.950   5.895   2.353 -0.4485 -0.7762  0.5311
 3595SOL    MW414154   4.915   5.870   2.429 -0.5303 -0.9561  0.4359
 3596SOL     OW14155   1.726   2.034   5.747 -0.3484  0.0188 -0.0431
 3596SOL    HW214156   1.812   2.060   5.778  0.0127  0.2717 -1.2352
 3596SOL    HW314157   1.701   2.102   5.684 -1.4701  0.0119  0.3639
 3596SOL    MW414158   1.734   2.047   5.743 -0.4487  0.0513 -0.1467
 3597SOL     OW14159   4.868   0.905   5.352 -0.2350  0.2482  0.0479
 3597SOL    HW214160   4.819   0.974   5.397 -1.1971 -0.2725 -0.1808
 3597SOL    HW314161   4.848   0.917   5.260  0.3533  0.2429 -0.0845
 3597SOL    MW414162   4.859   0.916   5.346 -0.2843  0.1788  0.0003
 3598SOL     OW14163   5.203   1.287   5.384 -0.3176 -0.5361 -0.7543
 3598SOL    HW214164   5.181   1.194   5.384  1.3411 -0.9916  0.9757
 3598SOL    HW314165   5.161   1.321   5.463 -0.2888  0.0274 -0.9788
 3598SOL    MW414166   5.195   1.279   5.395 -0.0949 -0.5219 -0.5556
 3599SOL     OW14167   3.472   0.136   2.823  0.5267 -0.1340 -0.0052
 3599SOL    HW214168   3.513   0.086   2.753  1.4306 -0.4337  0.7230
 3599SOL    HW314169   3.543   0.185   2.864  0.4157 -1.5155  1.9942
 3599SOL    MW414170   3.487   0.136   2.819  0.6313 -0.3558  0.3547
 3600SOL     OW14171   3.871   6.303   5.642 -0.5326 -0.0193  0.7505
 3600SOL    HW214172   3.932   6.232   5.622 -1.4408 -0.5608 -0.1751
 3600SOL    HW314173   3.819   6.313   5.563 -0.8864  1.2218  1.1221
 3600SOL    MW414174   3.872   6.295   5.629 -0.6991  0.0730  0.6774
 3601SOL     OW14175   4.721   5.689   2.023  0.0559  0.2697  0.0453
 3601SOL    HW214176   4.796   5.638   1.993  0.0245 -0.8481  1.7085
 3601SOL    HW314177   4.654   5.676   1.957  0.7488 -0.1208 -0.5970
 3601SOL    MW414178   4.722   5.681   2.011  0.1432  0.0707  0.1800
 3602SOL     OW14179   0.551   5.287   6.104  0.0466  0.1162 -0.2143
 3602SOL    HW214180   0.574   5.340   6.180  0.3539  0.7797 -0.7643
 3602SOL    HW314181   0.633   5.276   6.057 -0.2502  0.1982 -0.7569
 3602SOL    MW414182   0.565   5.292   6.108  0.0480  0.2146 -0.3584
 3603SOL     OW14183   1.215   3.019   5.797  0.5235 -0.0992 -0.0168
 3603SOL    HW214184   1.239   3.111   5.784  1.5393 -0.2353  0.7636
 3603SOL    HW314185   1.128   3.023   5.837 -0.0502  0.4656 -1.2796
 3603SOL    MW414186   1.206   3.032   5.801  0.5818 -0.0426 -0.0805
 3604SOL     OW14187   3.146   4.962   5.857  0.2484  0.7319 -0.1633
 3604SOL    HW214188   3.119   5.053   5.873  0.8325  0.8316  0.3024
 3604SOL    HW314189   3.089   4.932   5.786 -0.8222  1.0397  0.5497
 3604SOL    MW414190   3.135   4.970   5.850  0.1842  0.7857 -0.0078
 3605SOL     OW14191   4.985   0.220   3.410 -0.9366  0.2492 -0.5035
 3605SOL    HW214192   5.011   0.281   3.479  0.1818 -1.8102  1.0134
 3605SOL    HW314193   5.025   0.255   3.330 -0.0109  1.2915  0.3941
 3605SOL    MW414194   4.994   0.233   3.408 -0.6669  0.1150 -0.1850
 3606SOL     OW14195   1.363   5.026   3.660 -0.0483 -0.2278  0.2967
 3606SOL    HW214196   1.316   5.000   3.581 -0.3051  1.1782 -0.0388
 3606SOL    HW314197   1.434   5.083   3.629  0.0471  0.0826  1.0541
 3606SOL    MW414198   1.366   5.030   3.646 -0.0696 -0.0013  0.3524
 3607SOL     OW14199   6.142   4.247   5.895 -0.3207  0.1329  0.6722
 3607SOL    HW214200   6.095   4.292   5.965 -0.4498  1.7149 -0.3804
 3607SOL    HW314201   6.103   4.281   5.814  0.7678 -0.5941 -0.1962
 3607SOL    MW414202   6.130   4.257   5.894 -0.1941  0.2457  0.4188
 3608SOL     OW14203   5.421   0.862   3.394  0.0331  0.0447 -0.1162
 3608SOL    HW214204   5.480   0.922   3.440  0.0950  2.1886 -2.7546
 3608SOL    HW314205   5.473   0.828   3.322 -0.8392 -1.1233 -0.2266
 3608SOL    MW414206   5.435   0.865   3.391 -0.0738  0.1735 -0.4789
 3609SOL     OW14207   4.265   5.189   3.572  0.1241  0.5285  0.0282
 3609SOL    HW214208   4.306   5.109   3.538 -0.7731  0.3560 -0.6751
 3609SOL    HW314209   4.242   5.239   3.494 -0.2443  1.0139  0.4432
 3609SOL    MW414210   4.268   5.185   3.557 -0.0429  0.5698 -0.0098
 3610SOL     OW14211   3.872   5.657   0.410  0.5621  0.8810  0.6090
 3610SOL    HW214212   3.817   5.586   0.376  1.8228 -0.1366  0.5860
 3610SOL    HW314213   3.889   5.632   0.501  1.0296  1.1496  0.5975
 3610SOL    MW414214   3.867   5.644   0.417  0.7901  0.7822  0.6045
 3611SOL     OW14215   2.063   3.053   0.648 -0.3752  0.4685  0.3622
 3611SOL    HW214216   2.051   3.069   0.741  0.9124 -1.1427  0.8447
 3611SOL    HW314217   2.040   2.961   0.636 -0.3938  0.6216 -0.8871
 3611SOL    MW414218   2.058   3.043   0.659 -0.2077  0.2761  0.2610
 3612SOL     OW14219   0.342   3.352   6.128  0.5442  0.5696 -0.0203
 3612SOL    HW214220   0.338   3.370   6.034 -1.5857  0.8366  0.0811
 3612SOL    HW314221   0.251   3.350   6.156  0.9910 -2.3616  1.5504
 3612SOL    MW414222   0.330   3.354   6.119  0.3222  0.2181  0.2003
 3613SOL     OW14223   2.204   1.758   0.414 -0.5693 -0.0853 -0.3851
 3613SOL    HW214224   2.274   1.775   0.351 -1.7717 -0.6598 -1.9451
 3613SOL    HW314225   2.241   1.694   0.475  1.1201  1.5680  0.4759
 3613SOL    MW414226   2.218   1.752   0.414 -0.5050  0.0570 -0.4773
 3614SOL     OW14227   3.758   0.209   2.034 -0.0506  0.4636 -0.0940
 3614SOL    HW214228   3.776   0.155   1.957  0.4449  1.6459 -0.8329
 3614SOL    HW314229   3.790   0.297   2.010 -2.6776  1.6089  0.2591
 3614SOL    MW414230   3.764   0.214   2.021 -0.3318  0.7707 -0.1449
 3615SOL     OW14231   3.796   4.626   3.817  0.5105 -0.4281  1.1090
 3615SOL    HW214232   3.708   4.592   3.832  0.6033 -0.4211  1.6973
 3615SOL    HW314233   3.830   4.644   3.905  0.5630  0.9377  0.8406
 3615SOL    MW414234   3.789   4.624   3.831  0.5297 -0.2470  1.1512
 3616SOL     OW14235   0.281   4.069   6.271 -0.1046  0.1715  1.1877
 3616SOL    HW214236   0.189   4.044   6.283  0.1157 -0.4325  1.6854
 3616SOL    HW314237   0.330   4.003   6.320  0.6805 -0.5129 -0.4200
 3616SOL    MW414238   0.275   4.057   6.279  0.0281  0.0015  1.0412
 3617SOL     OW14239   2.560   1.562   4.096 -0.2852 -0.1177 -0.1007
 3617SOL    HW214240   2.547   1.620   4.021 -0.5140 -0.8107 -0.6069
 3617SOL    HW314241   2.477   1.515   4.104 -0.2153 -0.1475  0.5101
 3617SOL    MW414242   2.547   1.564   4.087 -0.3061 -0.2131 -0.0869
 3618SOL     OW14243   5.593   5.262   4.157 -0.0974  0.0970 -0.3179
 3618SOL    HW214244   5.682   5.265   4.120  0.1200  0.1899  0.2023
 3618SOL    HW314245   5.568   5.170   4.151 -0.7897  0.3694 -2.3624
 3618SOL    MW414246   5.601   5.250   4.151 -0.1601  0.1452 -0.5190
 3619SOL     OW14247   3.753   2.517   5.884  0.1552 -0.0318  0.1130
 3619SOL    HW214248   3.766   2.423   5.870 -0.9653 -0.2476  0.3931
 3619SOL    HW314249   3.767   2.530   5.977  0.8070  0.1741 -0.0115
 3619SOL    MW414250   3.756   2.506   5.894  0.0934 -0.0331  0.1335
 3620SOL     OW14251   3.170   2.634   5.521  0.4304  0.0989  0.2301
 3620SOL    HW214252   3.215   2.658   5.602  2.3132 -2.2560  0.0105
 3620SOL    HW314253   3.082   2.608   5.549  0.8997 -0.2512  1.4631
 3620SOL    MW414254   3.165   2.634   5.536  0.7407 -0.2580  0.3638
 3621SOL     OW14255   1.029   5.500   0.138 -0.0101 -0.1159 -0.1266
 3621SOL    HW214256   1.049   5.563   0.068  1.0761 -0.4510 -0.1226
 3621SOL    HW314257   0.933   5.496   0.139 -0.0649 -1.2244 -2.6118
 3621SOL    MW414258   1.019   5.508   0.129  0.1260 -0.3064 -0.4539
 3622SOL     OW14259   2.471   6.379   1.763  0.0433  0.0179  0.1477
 3622SOL    HW214260   2.460   6.378   1.858  1.8513  0.7220  0.4212
 3622SOL    HW314261   2.534   6.309   1.745 -1.6477 -1.3335 -0.7939
 3622SOL    MW414262   2.478   6.370   1.773  0.0587 -0.0675  0.0596
 3623SOL     OW14263   5.715   1.846   3.214 -0.1744  0.0433 -0.6131
 3623SOL    HW214264   5.625   1.862   3.186  0.5452  2.0843 -2.0618
 3623SOL    HW314265   5.754   1.798   3.141  0.2841  0.5166 -0.6882
 3623SOL    MW414266   5.708   1.842   3.201 -0.0189  0.3751 -0.8141
 3624SOL     OW14267   5.366   5.842   1.418 -0.7473  0.2429  0.1287
 3624SOL    HW214268   5.288   5.788   1.432 -0.5753  0.2069  0.9643
 3624SOL    HW314269   5.423   5.788   1.363 -0.5671 -0.4454  0.9746
 3624SOL    MW414270   5.363   5.828   1.413 -0.7008  0.1473  0.3506
 3625SOL     OW14271   1.191   1.210   3.530 -0.3310 -0.0915 -0.1872
 3625SOL    HW214272   1.269   1.156   3.544 -0.6672 -0.3782  0.6529
 3625SOL    HW314273   1.132   1.155   3.478 -0.4034 -0.2851  0.0971
 3625SOL    MW414274   1.194   1.196   3.525 -0.3849 -0.1548 -0.0389
 3626SOL     OW14275   5.814   1.515   0.006  0.2668  0.3357 -0.2458
 3626SOL    HW214276   5.848   1.472   0.085 -1.3902  0.0809  0.3781
 3626SOL    HW314277   5.769   1.593   0.039 -0.3103  0.3116 -0.9405
 3626SOL    MW414278   5.812   1.520   0.021 -0.0279  0.2989 -0.2551
 3627SOL     OW14279   4.622   0.084   3.378 -0.3107 -0.7049 -0.4207
 3627SOL    HW214280   4.702   0.060   3.331 -0.3116 -0.0936 -0.7444
 3627SOL    HW314281   4.652   0.113   3.464 -0.2354 -1.0032 -0.3450
 3627SOL    MW414282   4.636   0.085   3.383 -0.3009 -0.6636 -0.4535
 3628SOL     OW14283   6.029   2.165   1.811  0.0432 -0.2876 -0.4113
 3628SOL    HW214284   6.029   2.093   1.748 -0.0300  0.9516 -1.8850
 3628SOL    HW314285   6.072   2.237   1.765  1.1093  0.3071  1.4121
 3628SOL    MW414286   6.035   2.165   1.796  0.1742 -0.0457 -0.3652
 3629SOL     OW14287   5.178   5.465   2.690 -0.8550  0.2604  0.3369
 3629SOL    HW214288   5.129   5.394   2.731 -1.4090  0.9864  0.9497
 3629SOL    HW314289   5.168   5.539   2.750 -1.4432  1.2632 -0.9678
 3629SOL    MW414290   5.170   5.465   2.703 -1.0057  0.4885  0.2456
 3630SOL     OW14291   0.102   2.037   3.094  0.0258  0.3138 -0.3992
 3630SOL    HW214292   0.034   2.013   3.157  0.1822 -3.9103 -1.5358
 3630SOL    HW314293   0.183   2.041   3.145 -0.5731  2.2694  0.4507
 3630SOL    MW414294   0.104   2.034   3.109 -0.0326  0.0145 -0.4371
 3631SOL     OW14295   6.399   4.805   0.422 -0.1060  0.1114  0.6236
 3631SOL    HW214296   6.434   4.888   0.391 -0.1193  0.9714  2.6956
 3631SOL    HW314297   6.473   4.764   0.469 -0.3648 -0.6195  0.4129
 3631SOL    MW414298   6.414   4.810   0.424 -0.1419  0.1284  0.8692
 3632SOL     OW14299   6.211   5.405   3.201 -0.4694 -0.0675 -0.2341
 3632SOL    HW214300   6.298   5.378   3.230 -0.4575 -0.8687 -0.9897
 3632SOL    HW314301   6.193   5.485   3.251  1.0304  0.5662 -0.6550
 3632SOL    MW414302   6.220   5.412   3.212 -0.2700 -0.0896 -0.3894
 3633SOL     OW14303   3.291   2.720   6.050  0.2333  0.2883 -0.2305
 3633SOL    HW214304   3.284   2.754   6.139 -2.0040 -0.9189  0.1364
 3633SOL    HW314305   3.341   2.639   6.059 -0.0927  0.1053 -0.0284
 3633SOL    MW414306   3.296   2.714   6.063 -0.1049  0.1048 -0.1555
 3634SOL     OW14307   4.648   4.326   6.034  0.1129  0.5456 -0.8308
 3634SOL    HW214308   4.730   4.360   6.069 -0.4097 -0.0400  1.1069
 3634SOL    HW314309   4.596   4.404   6.013 -1.0085  1.1814  3.3896
 3634SOL    MW414310   4.652   4.341   6.036 -0.1040  0.5522 -0.0183
 3635SOL     OW14311   3.174   3.395   4.872  0.0322 -0.4094 -0.0563
 3635SOL    HW214312   3.247   3.446   4.837  0.6624  0.6011  2.5140
 3635SOL    HW314313   3.112   3.460   4.904  0.6747 -1.1028  2.9608
 3635SOL    MW414314   3.175   3.410   4.872  0.2001 -0.3676  0.6809
 3636SOL     OW14315   5.177   5.214   5.612  0.1627 -0.0279  0.0625
 3636SOL    HW214316   5.253   5.156   5.607  0.2293  0.0429  0.2613
 3636SOL    HW314317   5.155   5.217   5.705 -0.6689 -0.8051 -0.0958
 3636SOL    MW414318   5.184   5.206   5.623  0.0618 -0.1211  0.0678
 3637SOL     OW14319   0.301   1.072   1.294  0.0399 -0.5983 -0.2171
 3637SOL    HW214320   0.357   1.039   1.224 -1.3865  1.9286 -2.7666
 3637SOL    HW314321   0.239   1.002   1.311  0.1586 -1.1378 -1.8411
 3637SOL    MW414322   0.300   1.059   1.287 -0.1326 -0.3361 -0.7678
 3638SOL     OW14323   0.248   3.605   4.502  0.3450 -0.4324  0.1213
 3638SOL    HW214324   0.243   3.663   4.577 -0.3257 -0.1519 -0.1323
 3638SOL    HW314325   0.340   3.607   4.475  0.3702  0.3208  0.2606
 3638SOL    MW414326   0.259   3.613   4.508  0.2599 -0.2960  0.1063
 3639SOL     OW14327   4.809   1.267   2.433  0.0122 -0.2692 -0.0641
 3639SOL    HW214328   4.733   1.250   2.488 -0.1255  1.6595  0.4001
 3639SOL    HW314329   4.779   1.247   2.344 -0.5159 -1.0813  0.2883
 3639SOL    MW414330   4.795   1.262   2.428 -0.0756 -0.1219  0.0436
 3640SOL     OW14331   2.580   1.307   5.374  0.5859  0.1217  0.1832
 3640SOL    HW214332   2.527   1.345   5.444 -0.5064 -0.7415 -0.1450
 3640SOL    HW314333   2.566   1.365   5.299  2.2326  1.3921  0.7931
 3640SOL    MW414334   2.571   1.320   5.373  0.6590  0.1754  0.2204
 3641SOL     OW14335   6.212   0.331   4.602  0.2442 -0.5095 -0.5970
 3641SOL    HW214336   6.301   0.298   4.586  0.6094  0.1206  0.1029
 3641SOL    HW314337   6.179   0.274   4.672  0.0705 -0.7798 -0.8959
 3641SOL    MW414338   6.220   0.319   4.609  0.2694 -0.4621 -0.5441
 3642SOL     OW14339   4.057   2.716   3.413  0.4603 -0.0604  0.2773
 3642SOL    HW214340   4.115   2.642   3.391 -0.0165  0.0878 -1.6056
 3642SOL    HW314341   3.969   2.679   3.408  0.0367  1.0608 -3.0347
 3642SOL    MW414342   4.053   2.701   3.409  0.3415  0.1071 -0.4081
 3643SOL     OW14343   3.792   0.845   1.212  0.0328  0.4652 -0.1392
 3643SOL    HW214344   3.824   0.885   1.293  1.1878  0.8313 -0.7516
 3643SOL    HW314345   3.859   0.782   1.188 -1.4476 -1.4182  0.4453
 3643SOL    MW414346   3.805   0.842   1.219 -0.0102  0.2650 -0.1429
 3644SOL     OW14347   2.321   4.154   5.779  0.2162 -0.4128 -0.1128
 3644SOL    HW214348   2.260   4.081   5.765  1.1724 -1.5395  1.2010
 3644SOL    HW314349   2.272   4.217   5.831  0.0122 -1.1262  0.5895
 3644SOL    MW414350   2.307   4.152   5.784  0.3154 -0.6556  0.1532
 3645SOL     OW14351   5.365   5.827   5.582  0.4684  0.3308 -0.1901
 3645SOL    HW214352   5.337   5.786   5.500  1.3460 -1.7551  0.4929
 3645SOL    HW314353   5.287   5.872   5.614 -0.5955 -0.8608 -0.9803
 3645SOL    MW414354   5.351   5.827   5.575  0.4438 -0.1016 -0.2043
 3646SOL     OW14355   3.365   5.212   0.105  0.1109 -0.0416  0.6340
 3646SOL    HW214356   3.310   5.205   0.027  0.2200 -1.6713  0.6640
 3646SOL    HW314357   3.455   5.205   0.072  0.1315 -1.9867  0.9590
 3646SOL    MW414358   3.370   5.210   0.090  0.1280 -0.5132  0.6808
 3647SOL     OW14359   3.950   1.765   5.322  0.4713 -0.5764 -0.0619
 3647SOL    HW214360   3.987   1.686   5.283  0.4366  0.0276 -1.3862
 3647SOL    HW314361   3.883   1.734   5.383 -1.2391 -1.5668 -2.3003
 3647SOL    MW414362   3.946   1.751   5.325  0.2410 -0.6274 -0.5320
 3648SOL     OW14363   2.923   1.270   1.772  0.0899 -0.0734  0.5057
 3648SOL    HW214364   2.973   1.191   1.755 -0.9906 -0.5105 -0.7825
 3648SOL    HW314365   2.881   1.254   1.857 -2.1924 -2.0518 -0.8781
 3648SOL    MW414366   2.924   1.258   1.781 -0.3538 -0.3921  0.1532
 3649SOL     OW14367   6.365   5.108   4.474 -0.7101  1.1587 -0.5896
 3649SOL    HW214368   6.420   5.157   4.412  0.2960 -0.1155 -0.7576
 3649SOL    HW314369   6.313   5.050   4.418 -0.1456  0.3456 -0.2911
 3649SOL    MW414370   6.365   5.107   4.458 -0.5029  0.8833 -0.5724
 3650SOL     OW14371   1.805   1.586   1.854  0.0673 -0.5921  0.1391
 3650SOL    HW214372   1.899   1.597   1.842  0.2693  0.4973  2.3272
 3650SOL    HW314373   1.796   1.540   1.938 -1.3467 -1.1487 -0.2792
 3650SOL    MW414374   1.816   1.581   1.863 -0.0926 -0.5218  0.3726
 3651SOL     OW14375   4.005   6.354   1.221  0.2202  0.1429  0.0766
 3651SOL    HW214376   3.974   6.320   1.137  0.5024 -0.9769  0.4094
 3651SOL    HW314377   4.078   6.297   1.244  0.6181  0.9047  0.7331
 3651SOL    MW414378   4.010   6.342   1.213  0.3100  0.0957  0.2071
 3652SOL     OW14379   3.172   3.170   3.156 -0.0587  0.5547 -0.1841
 3652SOL    HW214380   3.100   3.117   3.123  0.5899 -1.3801  1.3148
 3652SOL    HW314381   3.238   3.167   3.086 -0.2787 -0.1278 -0.3692
 3652SOL    MW414382   3.171   3.163   3.143 -0.0021  0.2094 -0.0108
 3653SOL     OW14383   1.426   2.961   1.120 -0.2311  0.9030  0.1780
 3653SOL    HW214384   1.415   2.869   1.096  1.1342  0.7172  0.1812
 3653SOL    HW314385   1.484   2.959   1.197  0.2968  1.7941 -0.1801
 3653SOL    MW414386   1.432   2.949   1.127  0.0187  0.9960  0.1312
 3654SOL     OW14387   3.459   4.585   1.374  0.3513  0.0539  0.2011
 3654SOL    HW214388   3.385   4.643   1.361  0.5558  0.2685 -0.0270
 3654SOL    HW314389   3.512   4.627   1.442  0.5225  0.1604  0.0042
 3654SOL    MW414390   3.456   4.598   1.381  0.4009  0.0963  0.1450
 3655SOL     OW14391   4.318   2.699   4.447 -0.4296  0.0572 -0.1209
 3655SOL    HW214392   4.393   2.648   4.475  0.1697  1.4946  1.0390
 3655SOL    HW314393   4.265   2.709   4.527 -0.7734  0.7946 -0.4297
 3655SOL    MW414394   4.321   2.694   4.462 -0.3959  0.3441 -0.0086
 3656SOL     OW14395   4.711   5.142   1.249 -0.4831 -0.2570  0.2595
 3656SOL    HW214396   4.663   5.204   1.304  0.6165  1.8196 -0.9593
 3656SOL    HW314397   4.646   5.108   1.188 -0.7109  1.5168 -0.5389
 3656SOL    MW414398   4.696   5.146   1.248 -0.3681  0.2510 -0.0066
 3657SOL     OW14399   6.383   1.656   0.363 -0.6196  0.0610 -0.4231
 3657SOL    HW214400   6.465   1.683   0.321  0.7306  1.5601  2.8000
 3657SOL    HW314401   6.324   1.731   0.350  0.5051  1.4709  1.8917
 3657SOL    MW414402   6.386   1.670   0.356 -0.2931  0.4448  0.3076
 3658SOL     OW14403   0.484   2.040   3.477 -0.1009  0.0257 -0.3578
 3658SOL    HW214404   0.467   1.949   3.501 -0.4348  0.3293  0.5930
 3658SOL    HW314405   0.459   2.090   3.554 -0.6272  0.9873 -1.1344
 3658SOL    MW414406   0.478   2.034   3.490 -0.2144  0.1926 -0.3348
 3659SOL     OW14407   5.998   2.495   4.037 -0.4392 -0.5529  0.1336
 3659SOL    HW214408   5.983   2.483   4.131  2.5960  0.3677  0.8434
 3659SOL    HW314409   5.974   2.587   4.021 -1.8255 -0.9587 -0.2384
 3659SOL    MW414410   5.993   2.506   4.048 -0.2216 -0.4850  0.1781
 3660SOL     OW14411   2.417   3.125   0.859 -0.3017  0.2255 -0.2706
 3660SOL    HW214412   2.460   3.047   0.823  1.3425 -0.2084  2.3667
 3660SOL    HW314413   2.355   3.151   0.791  0.4776 -2.2101 -2.0828
 3660SOL    MW414414   2.415   3.118   0.845  0.0181 -0.1531 -0.1617
 3661SOL     OW14415   1.288   0.691   1.275 -0.2027 -0.1903  0.3274
 3661SOL    HW214416   1.322   0.766   1.325  1.3333 -0.9956  0.5495
 3661SOL    HW314417   1.330   0.699   1.189 -2.4012  0.8746 -0.7277
 3661SOL    MW414418   1.298   0.702   1.270 -0.2901 -0.1560  0.2175
 3662SOL     OW14419   2.657   3.328   5.998  0.0048  0.5122 -0.0304
 3662SOL    HW214420   2.658   3.420   6.025 -1.8546  0.5869 -0.1408
 3662SOL    HW314421   2.654   3.331   5.902  1.7789  0.2822 -0.1326
 3662SOL    MW414422   2.657   3.340   5.989 -0.0065  0.4917 -0.0585
 3663SOL     OW14423   0.319   3.823   3.715  0.0055 -0.2124  0.7932
 3663SOL    HW214424   0.265   3.778   3.649  0.0139 -0.8879  1.2333
 3663SOL    HW314425   0.302   3.916   3.701 -0.6969 -0.3895  0.4287
 3663SOL    MW414426   0.309   3.829   3.705 -0.0860 -0.3248  0.8032
 3664SOL     OW14427   2.834   3.709   2.644  0.0397  0.2999 -0.2575
 3664SOL    HW214428   2.847   3.678   2.554 -0.7629 -1.8108  0.3000
 3664SOL    HW314429   2.765   3.653   2.679 -2.3427  3.4550  0.5598
 3664SOL    MW414430   2.827   3.698   2.637 -0.3805  0.4377 -0.0761
 3665SOL     OW14431   1.101   3.000   0.963 -0.1276 -0.6126  0.3810
 3665SOL    HW214432   1.111   2.953   1.046  1.7812 -0.9068  0.0341
 3665SOL    HW314433   1.107   2.931   0.897  0.5751 -0.1284 -0.0673
 3665SOL    MW414434   1.103   2.984   0.965  0.2170 -0.5875  0.2761
 3666SOL     OW14435   4.313   3.137   2.119  0.1126 -0.3462  0.2073
 3666SOL    HW214436   4.325   3.073   2.190  0.8531 -0.1134  0.3011
 3666SOL    HW314437   4.394   3.188   2.119  0.1255 -0.3462 -0.8096
 3666SOL    MW414438   4.325   3.135   2.129  0.2120 -0.3155  0.0855
 3667SOL     OW14439   4.078   3.214   5.946  0.3775  0.0010  0.1996
 3667SOL    HW214440   4.112   3.289   5.995  0.1347  2.6340 -3.2100
 3667SOL    HW314441   3.983   3.218   5.959  0.4991 -0.8599  1.4325
 3667SOL    MW414442   4.070   3.224   5.954  0.3615  0.2348 -0.0876
 3668SOL     OW14443   5.803   2.676   5.253  0.0202  0.2178  0.2327
 3668SOL    HW214444   5.819   2.601   5.196  0.2523 -0.8523  1.6421
 3668SOL    HW314445   5.841   2.651   5.338 -1.4589  1.1901  1.2447
 3668SOL    MW414446   5.810   2.663   5.257 -0.1443  0.2049  0.5521
 3669SOL     OW14447   0.791   5.694   5.187 -0.3954 -0.5785 -0.0639
 3669SOL    HW214448   0.814   5.636   5.260 -1.1061 -1.4782 -0.5349
 3669SOL    HW314449   0.850   5.667   5.116 -0.5256 -0.5182 -0.1946
 3669SOL    MW414450   0.802   5.683   5.188 -0.5064 -0.6892 -0.1433
 3670SOL     OW14451   6.314   2.451   1.434 -0.4372 -0.0289 -0.1462
 3670SOL    HW214452   6.353   2.538   1.446 -1.2576  0.2005  0.9747
 3670SOL    HW314453   6.231   2.467   1.391 -0.7073 -0.2272  0.2916
 3670SOL    MW414454   6.308   2.464   1.430 -0.5811 -0.0248  0.0594
 3671SOL     OW14455   4.323   4.469   1.573  0.1073 -0.1256  0.4463
 3671SOL    HW214456   4.349   4.449   1.482 -0.1362  0.9837  0.1188
 3671SOL    HW314457   4.263   4.543   1.565 -0.9791 -0.8736  1.4224
 3671SOL    MW414458   4.319   4.476   1.560 -0.0682 -0.0780  0.5319
 3672SOL     OW14459   0.604   5.721   0.884  0.2048 -0.0786  0.2886
 3672SOL    HW214460   0.681   5.777   0.894  0.4781  0.1280 -2.2920
 3672SOL    HW314461   0.634   5.648   0.829 -1.5073  0.2297 -1.1609
 3672SOL    MW414462   0.618   5.719   0.878  0.0149 -0.0107 -0.2431
 3673SOL     OW14463   3.133   2.310   4.574 -0.0471 -0.1236 -0.0001
 3673SOL    HW214464   3.146   2.346   4.486 -0.3053  1.5839  0.6085
 3673SOL    HW314465   3.208   2.252   4.588 -0.1108 -0.5788 -1.4012
 3673SOL    MW414466   3.144   2.307   4.564 -0.0896  0.0416 -0.1046
 3674SOL     OW14467   6.319   2.170   1.045  0.1795 -0.2286  0.2720
 3674SOL    HW214468   6.361   2.210   1.121 -1.8406 -0.0170  1.3468
 3674SOL    HW314469   6.371   2.200   0.971  1.3654  0.7360  1.4265
 3674SOL    MW414470   6.332   2.179   1.046  0.0694 -0.0734  0.5661
 3675SOL     OW14471   0.576   0.886   5.568 -0.0006  0.1856  0.5355
 3675SOL    HW214472   0.636   0.816   5.592  0.2756  0.0994 -0.3571
 3675SOL    HW314473   0.489   0.851   5.588  0.2469  0.6894  2.7892
 3675SOL    MW414474   0.572   0.872   5.574  0.0685  0.2407  0.7151
 3676SOL     OW14475   3.873   2.273   2.084  0.0244  0.9568 -0.3120
 3676SOL    HW214476   3.960   2.283   2.122  0.5882  1.7634 -1.7318
 3676SOL    HW314477   3.886   2.285   1.990 -1.2181 -1.4858 -0.8836
 3676SOL    MW414478   3.886   2.276   2.077 -0.0652  0.7409 -0.5748
 3677SOL     OW14479   4.654   1.848   3.163 -0.9706  0.0405 -0.0204
 3677SOL    HW214480   4.644   1.827   3.256  0.6745 -0.4852  0.0570
 3677SOL    HW314481   4.691   1.769   3.124  2.2311  1.5760 -0.3303
 3677SOL    MW414482   4.657   1.835   3.170 -0.3312  0.1738 -0.0511
 3678SOL     OW14483   6.362   2.268   2.747 -0.3966  0.3248 -0.0908
 3678SOL    HW214484   6.353   2.362   2.734  0.4889  0.4009 -0.2784
 3678SOL    HW314485   6.457   2.254   2.751 -0.4287 -0.7746 -1.8393
 3678SOL    MW414486   6.374   2.279   2.745 -0.2840  0.1898 -0.3463
 3679SOL     OW14487   4.410   4.401   0.998  0.0226  0.2383 -0.2241
 3679SOL    HW214488   4.363   4.317   1.003  0.7846 -0.2453 -0.8994
 3679SOL    HW314489   4.342   4.465   0.979 -0.6678 -0.1195  0.9668
 3679SOL    MW414490   4.395   4.398   0.996  0.0320  0.1273 -0.1561
 3680SOL     OW14491   2.476   0.325   0.532 -0.1993 -0.4182  0.1559
 3680SOL    HW214492   2.551   0.351   0.584 -0.0988 -0.1160 -0.1341
 3680SOL    HW314493   2.509   0.256   0.474 -0.3610 -0.8996  0.6284
 3680SOL    MW414494   2.490   0.319   0.531 -0.2074 -0.4418  0.1800
 3681SOL     OW14495   0.356   4.982   5.473  0.1132  0.8518  0.4852
 3681SOL    HW214496   0.441   4.991   5.516  1.0044  0.2914 -1.0984
 3681SOL    HW314497   0.341   5.068   5.433  1.1030  0.2668 -1.2409
 3681SOL    MW414498   0.365   4.995   5.474  0.3614  0.7007  0.0486
 3682SOL     OW14499   1.274   5.895   4.809 -0.3511 -0.1497 -0.1607
 3682SOL    HW214500   1.286   5.903   4.715  0.6656 -0.8027 -0.1069
 3682SOL    HW314501   1.252   5.983   4.839 -0.4137  0.1100 -0.9702
 3682SOL    MW414502   1.273   5.907   4.801 -0.2252 -0.2016 -0.2604
 3683SOL     OW14503   6.089   4.409   5.627 -0.5591  0.2407 -0.4051
 3683SOL    HW214504   6.108   4.348   5.556  0.9816  0.7765 -0.4945
 3683SOL    HW314505   6.023   4.468   5.592 -2.0039 -1.2524 -0.3564
 3683SOL    MW414506   6.083   4.409   5.613 -0.5465  0.1144 -0.4105
 3684SOL     OW14507   1.221   3.505   3.505  0.4783  0.5078 -1.3312
 3684SOL    HW214508   1.235   3.573   3.571  2.4331 -0.6219 -0.4926
 3684SOL    HW314509   1.141   3.460   3.533  1.6510 -0.4198  0.7682
 3684SOL    MW414510   1.212   3.508   3.517  0.8909  0.2363 -0.9436
 3685SOL     OW14511   1.241   4.617   3.805 -0.0255  0.1094  0.1136
 3685SOL    HW214512   1.151   4.643   3.787  0.4078  0.9491 -0.9282
 3685SOL    HW314513   1.286   4.624   3.721  0.9634 -0.5226  0.5649
 3685SOL    MW414514   1.235   4.621   3.792  0.1621  0.1368  0.0357
 3686SOL     OW14515   4.772   0.134   5.857 -0.2410 -0.1663 -0.0527
 3686SOL    HW214516   4.707   0.132   5.787 -0.7892 -0.2282  0.4456
 3686SOL    HW314517   4.847   0.088   5.822 -0.1688  0.6028 -0.9328
 3686SOL    MW414518   4.773   0.128   5.843 -0.3038 -0.0730 -0.1031
 3687SOL     OW14519   0.159   5.245   3.027 -0.2171 -0.3147  0.0405
 3687SOL    HW214520   0.209   5.181   3.078  1.1626 -0.2372 -1.1626
 3687SOL    HW314521   0.132   5.311   3.091 -0.9731 -1.6667  1.1526
 3687SOL    MW414522   0.162   5.245   3.042 -0.1348 -0.4829  0.0285
 3688SOL     OW14523   4.486   3.805   4.774 -0.0301 -0.2592  0.3156
 3688SOL    HW214524   4.510   3.788   4.865  0.3560 -1.1916  0.0493
 3688SOL    HW314525   4.560   3.854   4.738 -0.2211  0.1854  0.5211
 3688SOL    MW414526   4.499   3.810   4.781 -0.0044 -0.3235  0.3076
 3689SOL     OW14527   6.037   3.187   4.991 -0.1638 -0.4940 -0.0660
 3689SOL    HW214528   6.024   3.104   4.944  0.2656 -2.1661  2.5393
 3689SOL    HW314529   6.076   3.161   5.075  0.3674  2.4159  0.6904
 3689SOL    MW414530   6.040   3.173   4.996 -0.0370 -0.3307  0.3775
 3690SOL     OW14531   4.715   3.621   4.656  0.3085 -0.2139 -0.1874
 3690SOL    HW214532   4.734   3.710   4.627 -1.2659  0.0521 -0.4952
 3690SOL    HW314533   4.626   3.603   4.624 -0.5119 -0.8590  2.2290
 3690SOL    MW414534   4.706   3.630   4.648 -0.0075 -0.2639  0.0908
 3691SOL     OW14535   3.018   6.184   0.254 -0.7136  0.0799 -0.0027
 3691SOL    HW214536   2.947   6.120   0.260 -1.4361  0.8381 -0.1837
 3691SOL    HW314537   3.081   6.145   0.194 -0.9862 -0.6103  0.1575
 3691SOL    MW414538   3.017   6.171   0.247 -0.8449  0.0888 -0.0054
 3692SOL     OW14539   3.574   3.000   4.291 -0.4463 -0.0337  0.1944
 3692SOL    HW214540   3.600   3.071   4.232 -2.7629 -1.4956 -2.9305
 3692SOL    HW314541   3.491   3.030   4.329 -0.7439 -0.4821 -0.0898
 3692SOL    MW414542   3.566   3.013   4.288 -0.7912 -0.2858 -0.2554
 3693SOL     OW14543   2.474   3.668   1.066 -0.2636 -0.3502 -0.0865
 3693SOL    HW214544   2.565   3.669   1.036 -0.2377 -0.4258 -0.0122
 3693SOL    HW314545   2.459   3.577   1.092  0.2941  0.0637  1.8640
 3693SOL    MW414546   2.484   3.656   1.066 -0.1866 -0.3056  0.1806
 3694SOL     OW14547   2.390   4.316   2.666 -0.0048 -0.1826  0.2410
 3694SOL    HW214548   2.304   4.319   2.623  1.7565  1.2608 -3.6326
 3694SOL    HW314549   2.424   4.229   2.644  1.4418  1.0103 -2.8902
 3694SOL    MW414550   2.383   4.305   2.657  0.4184  0.1652 -0.6832
 3695SOL     OW14551   3.540   2.284   0.628  0.0873 -0.4466  0.0334
 3695SOL    HW214552   3.473   2.318   0.687  0.8682  2.3895 -0.5619
 3695SOL    HW314553   3.501   2.292   0.541  0.0849 -1.7471 -0.1097
 3695SOL    MW414554   3.526   2.290   0.624  0.1900 -0.2440 -0.0640
 3696SOL     OW14555   2.172   3.021   3.161  0.1811  0.0354 -0.1180
 3696SOL    HW214556   2.131   2.992   3.079  1.6127 -4.2893  0.4674
 3696SOL    HW314557   2.109   2.997   3.229  0.7797 -0.3429  0.3107
 3696SOL    MW414558   2.159   3.014   3.159  0.4490 -0.5851  0.0158
 3697SOL     OW14559   6.419   6.428   2.714 -0.0514 -0.0925 -0.7388
 3697SOL    HW214560   6.372   6.511   2.707  1.1302  0.5505 -1.2694
 3697SOL    HW314561   6.462   6.431   2.799  2.8583  1.4403 -2.1468
 3697SOL    MW414562   6.418   6.439   2.724  0.4884  0.1946 -0.9946
 3698SOL     OW14563   0.111   6.233   0.602  0.3918  0.0713  0.5878
 3698SOL    HW214564   0.148   6.211   0.517  2.0713  0.8969  1.0526
 3698SOL    HW314565   0.113   6.329   0.605  0.9735  0.0496  1.7872
 3698SOL    MW414566   0.116   6.243   0.591  0.6901  0.1773  0.8074
 3699SOL     OW14567   3.486   0.711   2.659 -0.1205 -0.2429  0.0608
 3699SOL    HW214568   3.464   0.716   2.752 -0.3817 -0.5606  0.0150
 3699SOL    HW314569   3.478   0.801   2.628  0.6020 -0.0186  0.4884
 3699SOL    MW414570   3.482   0.724   2.667 -0.0597 -0.2552  0.1112
 3700SOL     OW14571   3.282   1.456   2.188 -0.5236 -0.2963  0.3298
 3700SOL    HW214572   3.252   1.544   2.212 -1.3073 -0.3020 -0.5402
 3700SOL    HW314573   3.278   1.455   2.092  1.4763 -0.6046  0.2212
 3700SOL    MW414574   3.277   1.467   2.178 -0.3632 -0.3377  0.2007
 3701SOL     OW14575   0.892   2.373   4.818 -0.0239 -0.0309 -0.0918
 3701SOL    HW214576   0.891   2.376   4.914  1.5932 -0.6071 -0.0330
 3701SOL    HW314577   0.938   2.292   4.797 -3.3814 -1.7816 -1.4008
 3701SOL    MW414578   0.898   2.363   4.828 -0.2535 -0.3379 -0.2567
 3702SOL     OW14579   3.121   0.221   6.318 -0.1396  0.4111 -0.3858
 3702SOL    HW214580   3.131   0.141   6.267  2.0353 -0.2879  0.9917
 3702SOL    HW314581   3.035   0.212   6.360  0.2233 -1.4173  0.0523
 3702SOL    MW414582   3.111   0.209   6.317  0.1952  0.0777 -0.1463
 3703SOL     OW14583   6.246   4.109   2.286  0.0147 -0.5778  0.7009
 3703SOL    HW214584   6.308   4.045   2.251 -0.1564 -0.1989 -0.3112
 3703SOL    HW314585   6.161   4.067   2.280 -0.0358 -0.4477  0.5127
 3703SOL    MW414586   6.243   4.095   2.281 -0.0145 -0.5106  0.5425
 3704SOL     OW14587   1.863   0.680   0.554 -0.4411  0.8054 -0.3210
 3704SOL    HW214588   1.808   0.625   0.498  0.3898  0.6145 -0.9742
 3704SOL    HW314589   1.861   0.637   0.639 -1.4122  0.8860 -0.2931
 3704SOL    MW414590   1.855   0.667   0.558 -0.4596  0.7909 -0.4035
 3705SOL     OW14591   0.735   1.945   5.777  0.1335  0.0050 -0.4066
 3705SOL    HW214592   0.773   2.032   5.780  1.3845 -0.5032 -0.7069
 3705SOL    HW314593   0.734   1.922   5.684  0.7442 -0.6682 -0.2620
 3705SOL    MW414594   0.740   1.953   5.765  0.3791 -0.1509 -0.4272
 3706SOL     OW14595   6.415   6.131   5.925 -0.1089  0.8514  0.7228
 3706SOL    HW214596   6.325   6.109   5.948 -0.5213  0.2514 -1.2757
 3706SOL    HW314597   6.422   6.108   5.833  1.7830  1.9155  0.5627
 3706SOL    MW414598   6.404   6.125   5.916  0.0863  0.9126  0.4380
 3707SOL     OW14599   4.866   3.785   0.338  0.2547  0.1118 -0.4722
 3707SOL    HW214600   4.948   3.823   0.371 -0.6088  2.2498 -0.6588
 3707SOL    HW314601   4.821   3.754   0.417  0.5095  0.4014 -0.2105
 3707SOL    MW414602   4.871   3.786   0.353  0.1744  0.4321 -0.4623
 3708SOL     OW14603   3.746   0.583   2.289 -0.9174  0.0060  1.0511
 3708SOL    HW214604   3.837   0.576   2.261 -1.1691  0.4520  0.0864
 3708SOL    HW314605   3.737   0.674   2.318 -0.9741 -0.1218  1.4313
 3708SOL    MW414606   3.757   0.594   2.289 -0.9581  0.0480  0.9740
 3709SOL     OW14607   2.218   4.832   3.874 -0.6042  0.0264  0.2548
 3709SOL    HW214608   2.137   4.875   3.903 -0.7450  0.6794 -1.0077
 3709SOL    HW314609   2.282   4.903   3.868  0.3881 -0.6276  2.1839
 3709SOL    MW414610   2.216   4.847   3.877 -0.4918  0.0262  0.3428
 3710SOL     OW14611   0.185   5.447   6.306  0.3106  0.3582 -0.1946
 3710SOL    HW214612   0.218   5.403   6.228 -0.1804 -0.4650  0.0451
 3710SOL    HW314613   0.152   5.376   6.361 -1.3465  1.0965 -0.1840
 3710SOL    MW414614   0.185   5.432   6.303  0.0272  0.3470 -0.1616
 3711SOL     OW14615   6.313   6.041   2.859  0.0085  0.0070 -0.4313
 3711SOL    HW214616   6.397   6.018   2.820 -0.6783 -0.0871 -1.8950
 3711SOL    HW314617   6.272   6.102   2.797 -2.2819 -2.2170 -1.2739
 3711SOL    MW414618   6.318   6.046   2.846 -0.3843 -0.2988 -0.7356
 3712SOL     OW14619   3.277   1.530   0.080  0.3276 -0.3154 -0.6664
 3712SOL    HW214620   3.359   1.524   0.032  0.9465 -0.0293  0.3336
 3712SOL    HW314621   3.246   1.440   0.086  1.4643 -0.6524  0.4682
 3712SOL    MW414622   3.283   1.518   0.074  0.5592 -0.3221 -0.3848
 3713SOL     OW14623   4.407   6.140   1.054 -0.2868  0.3913 -0.6187
 3713SOL    HW214624   4.461   6.071   1.093 -2.1100 -0.8338 -0.1543
 3713SOL    HW314625   4.396   6.113   0.963 -1.6535 -0.4166 -0.2480
 3713SOL    MW414626   4.413   6.127   1.047 -0.7077  0.1231 -0.5085
 3714SOL     OW14627   2.265   5.559   0.153  0.3033 -0.4522 -0.1838
 3714SOL    HW214628   2.303   5.570   0.066 -0.2493 -1.5462 -0.5876
 3714SOL    HW314629   2.277   5.466   0.172 -1.1613 -0.5958  0.1487
 3714SOL    MW414630   2.271   5.548   0.144  0.0371 -0.6155 -0.1932
 3715SOL     OW14631   0.587   2.980   5.760  0.1520  0.2308  0.3275
 3715SOL    HW214632   0.612   3.047   5.823 -0.7601  2.0537 -1.1669
 3715SOL    HW314633   0.510   2.938   5.799 -0.5314  1.4719  0.3466
 3715SOL    MW414634   0.580   2.983   5.774 -0.0585  0.6350  0.1328
 3716SOL     OW14635   4.319   0.431   5.927  0.4561 -0.2028  0.2960
 3716SOL    HW214636   4.360   0.471   6.003  0.1192  0.1060  0.3183
 3716SOL    HW314637   4.235   0.476   5.918  0.3389 -0.4796 -0.0472
 3716SOL    MW414638   4.313   0.442   5.936  0.3962 -0.1985  0.2536
 3717SOL     OW14639   5.018   4.719   1.417  0.5004 -0.1586  0.5620
 3717SOL    HW214640   4.948   4.777   1.445  0.9327  0.2557  0.7933
 3717SOL    HW314641   4.981   4.631   1.424 -0.3920  0.1134 -0.4462
 3717SOL    MW414642   5.004   4.715   1.422  0.4397 -0.0680  0.4595
 3718SOL     OW14643   1.963   0.359   5.626 -0.0900 -0.4949 -0.3254
 3718SOL    HW214644   1.893   0.366   5.561  0.3976  1.3983 -0.6917
 3718SOL    HW314645   2.042   0.345   5.575  0.4246  1.8250 -0.2834
 3718SOL    MW414646   1.964   0.358   5.611  0.0422  0.0610 -0.3682
 3719SOL     OW14647   3.505   3.331   3.520  0.6054 -0.1017  0.0376
 3719SOL    HW214648   3.595   3.319   3.490  0.0422 -1.2736 -1.2898
 3719SOL    HW314649   3.484   3.250   3.566  0.0314 -0.0827 -0.1851
 3719SOL    MW414650   3.514   3.319   3.522  0.4553 -0.2538 -0.1670
 3720SOL     OW14651   6.346   1.129   0.107 -0.1298 -0.3552 -0.3447
 3720SOL    HW214652   6.421   1.102   0.054 -0.1024  1.5915 -1.4095
 3720SOL    HW314653   6.377   1.207   0.153 -0.6715 -1.1056  1.3476
 3720SOL    MW414654   6.360   1.136   0.106 -0.1977 -0.1974 -0.2619
 3721SOL     OW14655   2.149   3.127   0.318 -0.1731  0.3504  0.0286
 3721SOL    HW214656   2.163   3.082   0.235 -3.0576  2.3658 -1.7713
 3721SOL    HW314657   2.233   3.124   0.362  0.8346 -3.0178 -1.7949
 3721SOL    MW414658   2.162   3.121   0.313 -0.4207  0.1719 -0.4495
 3722SOL     OW14659   3.666   0.079   1.467 -0.0519  0.0023 -0.2047
 3722SOL    HW214660   3.609   0.042   1.534 -1.2246 -1.2019 -1.7648
 3722SOL    HW314661   3.724   0.006   1.442  0.3963  0.4399 -0.4762
 3722SOL    MW414662   3.666   0.064   1.472 -0.1475 -0.0989 -0.4463
 3723SOL     OW14663   3.791   1.678   0.009  0.1527  0.1958  0.1420
 3723SOL    HW214664   3.861   1.617  -0.015 -0.5902 -1.0787  1.1130
 3723SOL    HW314665   3.777   1.730  -0.070  0.3313 -1.3562 -0.9572
 3723SOL    MW414666   3.799   1.677  -0.005  0.0783 -0.1771  0.1250
 3724SOL     OW14667   3.266   6.155   2.832  0.0226  0.3631 -0.1420
 3724SOL    HW214668   3.310   6.071   2.828  0.6972  0.5320  2.1863
 3724SOL    HW314669   3.205   6.154   2.758  0.5708 -1.8201 -0.6335
 3724SOL    MW414670   3.263   6.144   2.822  0.1839  0.0973  0.1003
 3725SOL     OW14671   5.897   1.364   0.290  0.3944 -0.7263 -0.2549
 3725SOL    HW214672   5.944   1.281   0.280  1.1927 -0.4223  0.8274
 3725SOL    HW314673   5.957   1.420   0.338  0.2967  0.8678 -1.9010
 3725SOL    MW414674   5.911   1.360   0.295  0.4868 -0.4759 -0.3293
 3726SOL     OW14675   3.253   0.300   4.240  0.1273 -0.5738 -0.7596
 3726SOL    HW214676   3.282   0.265   4.324 -0.7695 -0.2028 -0.2884
 3726SOL    HW314677   3.202   0.230   4.201 -0.6542 -0.2468 -0.3506
 3726SOL    MW414678   3.250   0.286   4.246 -0.0941 -0.4817 -0.6435
 3727SOL     OW14679   4.145   2.102   3.073 -0.0529  0.0075  0.3308
 3727SOL    HW214680   4.162   2.026   3.017 -1.7457 -0.9747  1.0686
 3727SOL    HW314681   4.186   2.080   3.156  1.5221  0.9979 -0.1341
 3727SOL    MW414682   4.153   2.089   3.076 -0.0684  0.0086  0.3668
 3728SOL     OW14683   2.517   0.186   1.392  0.0313  0.1884 -0.1349
 3728SOL    HW214684   2.563   0.234   1.461 -0.3421 -0.7584  0.8031
 3728SOL    HW314685   2.587   0.144   1.341  0.2600 -0.9950  1.0944
 3728SOL    MW414686   2.532   0.187   1.394  0.0122 -0.0927  0.1510
 3729SOL     OW14687   4.108   4.009   1.804  0.1231  0.0837 -0.4794
 3729SOL    HW214688   4.049   3.945   1.843 -1.4875  2.6553  1.6454
 3729SOL    HW314689   4.175   4.024   1.871  0.3723  0.7000 -0.8542
 3729SOL    MW414690   4.109   4.003   1.818 -0.0565  0.5043 -0.2485
 3730SOL     OW14691   0.755   0.662   0.857 -0.6152  0.5132 -0.5229
 3730SOL    HW214692   0.708   0.691   0.934 -1.2336 -1.2966 -0.1757
 3730SOL    HW314693   0.847   0.675   0.879 -0.7858  0.0544  0.5048
 3730SOL    MW414694   0.761   0.667   0.870 -0.7193  0.2139 -0.3415
 3731SOL     OW14695   2.178   4.320   5.934 -0.1993 -0.2102 -0.5744
 3731SOL    HW214696   2.227   4.379   5.991  0.8052  0.0692 -1.6904
 3731SOL    HW314697   2.115   4.278   5.992  0.1623  0.7525  0.5541
 3731SOL    MW414698   2.176   4.322   5.949 -0.0190 -0.0463 -0.5728
 3732SOL     OW14699   4.005   0.143   4.441 -0.9414  0.0978 -0.3063
 3732SOL    HW214700   3.957   0.072   4.483 -1.3584  0.1749 -0.6512
 3732SOL    HW314701   4.044   0.192   4.514  1.2734 -1.7957 -0.1062
 3732SOL    MW414702   4.004   0.140   4.456 -0.7042 -0.1419 -0.3254
 3733SOL     OW14703   2.788   3.703   5.007  0.0397 -0.0277 -0.0465
 3733SOL    HW214704   2.873   3.684   4.967  0.1291  0.1502  0.0536
 3733SOL    HW314705   2.809   3.727   5.097 -0.0652  0.5222 -0.1626
 3733SOL    MW414706   2.802   3.704   5.013  0.0376  0.0683 -0.0486
 3734SOL     OW14707   5.889   1.137   6.228 -0.2456  0.2076 -0.4510
 3734SOL    HW214708   5.803   1.157   6.191 -0.5127 -0.0539  0.0170
 3734SOL    HW314709   5.887   1.042   6.241 -0.4041  0.3725  0.8379
 3734SOL    MW414710   5.878   1.127   6.225 -0.3018  0.1949 -0.2192
 3735SOL     OW14711   3.645   5.808   4.094 -0.1795 -0.1839  0.4853
 3735SOL    HW214712   3.634   5.729   4.041 -0.3641  0.5329 -0.5796
 3735SOL    HW314713   3.718   5.787   4.152  0.9062 -0.5430 -0.9458
 3735SOL    MW414714   3.653   5.794   4.094 -0.0606 -0.1367  0.1560
 3736SOL     OW14715   4.536   4.142   1.313  0.5482  0.0600 -0.3023
 3736SOL    HW214716   4.601   4.153   1.382  0.8906 -0.0174 -0.6098
 3736SOL    HW314717   4.470   4.084   1.352  0.7045  0.0665 -0.0197
 3736SOL    MW414718   4.536   4.135   1.327  0.6140  0.0506 -0.3056
 3737SOL     OW14719   5.192   6.053   3.895 -0.0886  0.2333  0.0398
 3737SOL    HW214720   5.100   6.079   3.909  0.6930  3.3529  0.2300
 3737SOL    HW314721   5.200   6.046   3.800 -0.5237 -0.1175  0.0239
 3737SOL    MW414722   5.181   6.056   3.885 -0.0429  0.5986  0.0628
 3738SOL     OW14723   5.922   5.868   6.004 -0.2944  0.2244  0.4441
 3738SOL    HW214724   5.944   5.782   5.967  2.1215  1.3853 -1.0631
 3738SOL    HW314725   5.826   5.869   6.006 -0.4043 -2.2072 -0.1868
 3738SOL    MW414726   5.912   5.857   5.999  0.0098  0.0567  0.1620
 3739SOL     OW14727   5.100   5.103   3.029 -0.6787  0.3228  0.1266
 3739SOL    HW214728   5.078   5.051   2.951 -0.4034 -1.0746  0.9519
 3739SOL    HW314729   5.196   5.102   3.032 -0.6934 -1.3477  1.5528
 3739SOL    MW414730   5.110   5.096   3.019 -0.6443 -0.0820  0.4236
 3740SOL     OW14731   6.133   0.684   0.727  0.3202  0.1167  0.1901
 3740SOL    HW214732   6.050   0.660   0.766  0.8709  0.5170  1.6753
 3740SOL    HW314733   6.111   0.712   0.638 -0.9932 -0.6455  0.2516
 3740SOL    MW414734   6.119   0.685   0.721  0.2195  0.0690  0.3942
 3741SOL     OW14735   0.812   5.252   2.340  0.0544 -0.2885 -0.6527
 3741SOL    HW214736   0.884   5.193   2.318  0.4306  0.0576 -0.3688
 3741SOL    HW314737   0.741   5.227   2.281  0.3705 -0.7091 -0.8565
 3741SOL    MW414738   0.812   5.241   2.330  0.1457 -0.2983 -0.6421
 3742SOL     OW14739   0.638   1.920   2.099  0.2907 -0.6649 -0.0455
 3742SOL    HW214740   0.577   1.924   2.172  0.7745 -2.5410  0.5081
 3742SOL    HW314741   0.722   1.948   2.136  0.1349  0.3799 -0.4257
 3742SOL    MW414742   0.641   1.924   2.113  0.3340 -0.7746 -0.0226
 3743SOL     OW14743   3.755   4.927   1.386 -0.2993 -0.6274  0.3937
 3743SOL    HW214744   3.689   4.890   1.327 -0.5779 -0.2958  0.4948
 3743SOL    HW314745   3.776   5.012   1.347 -0.5150 -0.3885  0.7944
 3743SOL    MW414746   3.749   4.933   1.373 -0.3645 -0.5521  0.4599
 3744SOL     OW14747   1.439   1.470   2.183 -0.0676 -0.0643 -0.2363
 3744SOL    HW214748   1.448   1.381   2.217  1.4737  0.3269  0.4838
 3744SOL    HW314749   1.485   1.525   2.248 -1.4512  1.3268 -0.3768
 3744SOL    MW414750   1.446   1.466   2.196 -0.0468  0.1708 -0.1598
 3745SOL     OW14751   3.725   3.295   4.532  0.5355  0.6502 -0.1316
 3745SOL    HW214752   3.685   3.348   4.463  0.7094 -0.7460 -1.3676
 3745SOL    HW314753   3.729   3.352   4.608  0.6528  2.3706 -1.3761
 3745SOL    MW414754   3.721   3.309   4.533  0.5740  0.6930 -0.4589
 3746SOL     OW14755   4.199   2.055   5.519 -0.3836 -0.2210  0.4318
 3746SOL    HW214756   4.240   2.111   5.453  0.6463 -2.1313 -0.6195
 3746SOL    HW314757   4.227   1.967   5.497 -1.2166 -1.0926  2.5825
 3746SOL    MW414758   4.208   2.051   5.507 -0.3577 -0.5880  0.5769
 3747SOL     OW14759   1.299   4.979   1.951 -0.1474 -0.1769 -0.3161
 3747SOL    HW214760   1.358   5.053   1.938  0.1379 -0.0471  1.4966
 3747SOL    HW314761   1.350   4.915   1.999 -0.1967 -1.8819 -2.4001
 3747SOL    MW414762   1.313   4.980   1.955 -0.1163 -0.3848 -0.3519
 3748SOL     OW14763   6.044   0.790   2.888  0.9410  0.1475  0.0087
 3748SOL    HW214764   5.978   0.804   2.956 -2.1711 -1.9412 -2.2770
 3748SOL    HW314765   6.118   0.750   2.933 -0.3137  0.3257  2.3703
 3748SOL    MW414766   6.045   0.787   2.903  0.3648 -0.1046  0.0187
 3749SOL     OW14767   5.336   5.550   5.791  0.9416  0.3692 -0.2557
 3749SOL    HW214768   5.344   5.507   5.705 -0.3807 -2.0140  0.7306
 3749SOL    HW314769   5.259   5.608   5.781  1.4142  0.9062 -0.9457
 3749SOL    MW414770   5.327   5.552   5.778  0.8295  0.1256 -0.2166
 3750SOL     OW14771   0.246   1.967   5.140  0.4771  0.3089 -0.1305
 3750SOL    HW214772   0.211   1.981   5.052 -0.4468 -1.6990 -0.1541
 3750SOL    HW314773   0.199   2.030   5.195 -0.3925  0.2428 -0.7774
 3750SOL    MW414774   0.235   1.977   5.136  0.2405  0.0353 -0.2190
 3751SOL     OW14775   4.508   3.695   3.521 -0.4419 -0.3181 -0.0166
 3751SOL    HW214776   4.502   3.688   3.616  1.5456 -2.3119  0.0607
 3751SOL    HW314777   4.565   3.622   3.495  3.2197  2.8734 -2.1913
 3751SOL    MW414778   4.515   3.685   3.530  0.3034 -0.1601 -0.2933
 3752SOL     OW14779   1.564   0.356   3.237 -0.1736 -0.1335  0.0077
 3752SOL    HW214780   1.591   0.265   3.252  0.5954  0.2954  1.3413
 3752SOL    HW314781   1.537   0.388   3.323  1.2496  1.4274 -0.0657
 3752SOL    MW414782   1.564   0.348   3.250  0.1157  0.1290  0.1740
 3753SOL     OW14783   3.514   0.910   0.540 -0.2094  0.2133 -0.5564
 3753SOL    HW214784   3.561   0.863   0.609 -0.0211  0.8449 -0.2435
 3753SOL    HW314785   3.503   0.845   0.470  1.1118  0.0290 -0.6333
 3753SOL    MW414786   3.519   0.895   0.540 -0.0103  0.2723 -0.5253
 3754SOL     OW14787   4.884   4.712   1.772 -0.1953 -0.1474 -0.0844
 3754SOL    HW214788   4.809   4.733   1.717 -0.7196  0.2677  0.7566
 3754SOL    HW314789   4.867   4.759   1.854  0.9567 -0.0957  0.1410
 3754SOL    MW414790   4.872   4.721   1.776 -0.1125 -0.0858  0.0563
 3755SOL     OW14791   4.882   0.056   4.505  1.2181 -0.2193 -0.1923
 3755SOL    HW214792   4.866   0.116   4.432 -0.0500 -0.8063 -0.4259
 3755SOL    HW314793   4.926   0.110   4.571 -1.7138  1.6206  0.4795
 3755SOL    MW414794   4.886   0.071   4.504  0.6639 -0.0540 -0.1345
 3756SOL     OW14795   5.593   3.312   1.520 -0.6684 -0.1948 -0.0849
 3756SOL    HW214796   5.632   3.229   1.546 -0.1337  1.1135  4.0575
 3756SOL    HW314797   5.665   3.375   1.524 -1.7790  1.0888  0.8586
 3756SOL    MW414798   5.607   3.309   1.524 -0.7444  0.1471  0.5861
 3757SOL     OW14799   1.205   5.976   1.378 -0.3011  0.3762 -0.0812
 3757SOL    HW214800   1.161   6.042   1.323 -1.2376 -0.7239 -0.7126
 3757SOL    HW314801   1.160   5.894   1.356  0.9870 -0.5118  0.5157
 3757SOL    MW414802   1.193   5.974   1.368 -0.2547  0.1139 -0.0858
 3758SOL     OW14803   3.926   3.463   2.818  0.0196 -0.3239  0.1662
 3758SOL    HW214804   3.960   3.493   2.734 -0.0775 -0.4152  0.0946
 3758SOL    HW314805   3.991   3.492   2.882 -0.6288  1.0303  0.2294
 3758SOL    MW414806   3.939   3.471   2.816 -0.0788 -0.1573  0.1651
 3759SOL     OW14807   0.737   5.519   0.735  0.1628  0.2725 -0.3286
 3759SOL    HW214808   0.804   5.581   0.706 -0.4254  0.7591 -0.6547
 3759SOL    HW314809   0.731   5.454   0.664  0.8079 -0.1968  0.0315
 3759SOL    MW414810   0.745   5.518   0.722  0.1703  0.2748 -0.3241
 3760SOL     OW14811   4.495   3.441   1.418  0.0035  0.1163 -0.4091
 3760SOL    HW214812   4.538   3.402   1.342 -1.1694 -0.0573 -0.9947
 3760SOL    HW314813   4.474   3.530   1.390  1.1640  0.6528  0.3455
 3760SOL    MW414814   4.498   3.448   1.405  0.0019  0.1642 -0.3868
 3761SOL     OW14815   1.950   2.800   5.822 -0.4856 -0.1803 -0.3725
 3761SOL    HW214816   1.979   2.790   5.913 -0.1027  0.2306 -0.4455
 3761SOL    HW314817   1.980   2.721   5.778  1.0716  0.4973 -0.5856
 3761SOL    MW414818   1.958   2.789   5.828 -0.2296 -0.0367 -0.4103
 3762SOL     OW14819   2.650   5.175   1.024  0.1859  0.0359  0.0579
 3762SOL    HW214820   2.677   5.173   0.932 -0.8385 -1.3539 -0.2495
 3762SOL    HW314821   2.632   5.267   1.042 -0.1093  0.2668 -1.2897
 3762SOL    MW414822   2.651   5.186   1.014  0.0118 -0.1170 -0.1605
 3763SOL     OW14823   0.045   1.178   5.461  0.4016  0.2264  0.5817
 3763SOL    HW214824  -0.033   1.226   5.433  1.0682 -0.5681 -3.2493
 3763SOL    HW314825   0.093   1.241   5.515  0.3312  3.3646 -2.6043
 3763SOL    MW414826   0.041   1.193   5.464  0.4802  0.5356 -0.3441
 3764SOL     OW14827   6.223   2.027   2.773  0.2631 -0.0208 -0.4533
 3764SOL    HW214828   6.303   2.079   2.769  0.3192  0.0179  0.6789
 3764SOL    HW314829   6.167   2.064   2.705  1.3250 -0.2795 -1.5011
 3764SOL    MW414830   6.226   2.039   2.764  0.4106 -0.0498 -0.4422
 3765SOL     OW14831   0.254   2.959   0.130 -0.1332 -0.4603  0.0308
 3765SOL    HW214832   0.195   3.027   0.162  0.3372  0.1836 -0.4332
 3765SOL    HW314833   0.310   2.939   0.205 -0.1441 -0.1889  0.1135
 3765SOL    MW414834   0.254   2.965   0.144 -0.0726 -0.3395 -0.0195
 3766SOL     OW14835   3.216   4.918   6.261  1.2475 -0.0535 -0.3246
 3766SOL    HW214836   3.276   4.854   6.300  1.4236  0.1168 -0.3129
 3766SOL    HW314837   3.166   4.867   6.197 -0.3760 -0.7721  1.4232
 3766SOL    MW414838   3.217   4.902   6.257  1.0565 -0.1258 -0.0924
 3767SOL     OW14839   1.606   1.214   0.683 -0.8949  0.1615  0.4580
 3767SOL    HW214840   1.633   1.248   0.768 -2.8428 -0.8846  1.5888
 3767SOL    HW314841   1.656   1.133   0.672 -0.5963  0.3306  0.5858
 3767SOL    MW414842   1.616   1.207   0.692 -1.1125  0.0458  0.6241
 3768SOL     OW14843   0.219   5.118   1.780  1.0238  0.0280 -0.5478
 3768SOL    HW214844   0.131   5.093   1.752  1.2467  0.7111 -1.9249
 3768SOL    HW314845   0.204   5.172   1.858  0.1784  0.5513 -1.0528
 3768SOL    MW414846   0.205   5.122   1.787  0.9417  0.1872 -0.7961
 3769SOL     OW14847   5.370   0.469   3.842  0.3032  0.1342  0.7402
 3769SOL    HW214848   5.286   0.442   3.879 -0.3787  2.2636  0.9067
 3769SOL    HW314849   5.347   0.543   3.784  2.1135  1.1231  1.2217
 3769SOL    MW414850   5.356   0.476   3.839  0.4521  0.5456  0.8257
 3770SOL     OW14851   2.516   3.177   2.949  0.1822 -0.5282 -0.4084
 3770SOL    HW214852   2.477   3.243   3.006 -1.4248 -1.8808  0.1499
 3770SOL    HW314853   2.492   3.094   2.989  1.6050 -1.4866 -1.4350
 3770SOL    MW414854   2.508   3.175   2.961  0.1579 -0.8331 -0.4702
 3771SOL     OW14855   4.741   1.171   2.186 -0.1524  0.2086 -0.0818
 3771SOL    HW214856   4.683   1.095   2.184 -1.7129  1.3418 -2.6053
 3771SOL    HW314857   4.829   1.135   2.172 -0.2831 -1.4185  2.6058
 3771SOL    MW414858   4.745   1.156   2.184 -0.3755  0.1434 -0.0601
 3772SOL     OW14859   5.970   4.400   6.065 -0.6752 -0.3225  0.1492
 3772SOL    HW214860   5.991   4.480   6.113 -1.8065 -0.2483  0.5593
 3772SOL    HW314861   5.996   4.329   6.124 -0.1545 -0.2598  0.0010
 3772SOL    MW414862   5.976   4.401   6.079 -0.7558 -0.3044  0.1838
 3773SOL     OW14863   5.167   0.826   4.075 -0.8562  0.1230  0.1929
 3773SOL    HW214864   5.140   0.887   4.144 -2.6958 -1.4608  0.9598
 3773SOL    HW314865   5.232   0.770   4.117 -1.1433 -0.1276  0.3051
 3773SOL    MW414866   5.172   0.827   4.090 -1.1368 -0.1190  0.3089
 3774SOL     OW14867   5.705   4.484   6.213 -0.0586 -0.4352 -0.1612
 3774SOL    HW214868   5.689   4.392   6.232  1.7586 -1.0430 -1.2632
 3774SOL    HW314869   5.793   4.500   6.248 -0.7719  1.2126  0.9888
 3774SOL    MW414870   5.715   4.474   6.220  0.0871 -0.2980 -0.1549
 3775SOL     OW14871   6.149   2.448   5.072 -0.5091 -0.3657  0.2803
 3775SOL    HW214872   6.189   2.368   5.107  0.7537  0.6033  1.1505
 3775SOL    HW314873   6.151   2.509   5.145 -3.1363 -0.0594  0.1938
 3775SOL    MW414874   6.154   2.445   5.086 -0.6891 -0.1974  0.3837
 3776SOL     OW14875   4.491   2.268   3.518 -0.4572  0.4712  0.3697
 3776SOL    HW214876   4.541   2.268   3.436 -0.2573  0.8497  0.4890
 3776SOL    HW314877   4.402   2.292   3.491 -1.0501 -1.9434 -0.1023
 3776SOL    MW414878   4.486   2.271   3.503 -0.5090  0.2026  0.3232
 3777SOL     OW14879   4.243   1.002   2.567  0.2212  0.1155 -0.2969
 3777SOL    HW214880   4.193   0.935   2.614 -1.0707  1.9191  1.0196
 3777SOL    HW314881   4.334   0.982   2.588 -0.2092 -0.4119  1.2473
 3777SOL    MW414882   4.248   0.990   2.576 -0.0061  0.2839  0.0805
 3778SOL     OW14883   5.232   2.868   3.663  0.2075  0.6462 -0.7325
 3778SOL    HW214884   5.170   2.924   3.618  1.3350  1.5086 -1.2698
 3778SOL    HW314885   5.302   2.927   3.691 -0.2901  0.1070  1.9036
 3778SOL    MW414886   5.233   2.883   3.661  0.2906  0.6889 -0.4556
 3779SOL     OW14887   5.153   0.613   1.680  0.3073 -0.0772 -0.1577
 3779SOL    HW214888   5.130   0.652   1.596  2.0396 -0.0368 -0.6592
 3779SOL    HW314889   5.125   0.521   1.673 -3.9107  0.8760  1.0800
 3779SOL    MW414890   5.146   0.606   1.668 -0.0207  0.0539 -0.0606
 3780SOL     OW14891   5.680   2.287   6.095 -0.3651  0.1760 -0.3172
 3780SOL    HW214892   5.770   2.314   6.116 -1.1615  1.9530  1.0537
 3780SOL    HW314893   5.691   2.210   6.038  2.0009 -0.3076  0.6727
 3780SOL    MW414894   5.693   2.280   6.090 -0.1580  0.3466 -0.0057
 3781SOL     OW14895   2.601   1.847   1.062  0.1391 -0.3976  0.3786
 3781SOL    HW214896   2.627   1.770   1.113  0.2691  0.5553  1.8088
 3781SOL    HW314897   2.676   1.906   1.068 -1.0978  1.1456  2.0532
 3781SOL    MW414898   2.614   1.845   1.070 -0.0069 -0.0683  0.7882
 3782SOL     OW14899   1.038   3.477   0.523  0.2262  0.1583 -0.0771
 3782SOL    HW214900   0.998   3.406   0.573 -2.7855  0.5522 -1.6702
 3782SOL    HW314901   1.055   3.546   0.587 -0.3783 -0.5818  0.9040
 3782SOL    MW414902   1.035   3.477   0.538 -0.2509  0.1126 -0.1578
 3783SOL     OW14903   4.610   4.938   0.121 -0.1296 -0.5989 -0.4262
 3783SOL    HW214904   4.687   4.995   0.126  0.1277 -0.9550 -0.2668
 3783SOL    HW314905   4.621   4.877   0.194  0.0413 -1.4057 -1.1183
 3783SOL    MW414906   4.622   4.938   0.131 -0.0731 -0.7523 -0.4965
 3784SOL     OW14907   3.552   1.660   3.110 -0.2480  0.1156 -0.1117
 3784SOL    HW214908   3.634   1.710   3.111 -0.4370  0.5073 -1.5470
 3784SOL    HW314909   3.513   1.676   3.197  0.8261  0.5376  0.3095
 3784SOL    MW414910   3.557   1.669   3.122 -0.1312  0.2230 -0.2455
 3785SOL     OW14911   2.855   2.214   0.263 -0.3307 -0.1230 -0.6001
 3785SOL    HW214912   2.906   2.133   0.263  1.3964  0.9093  0.0486
 3785SOL    HW314913   2.775   2.192   0.215 -0.3108 -2.4350  0.3022
 3785SOL    MW414914   2.851   2.200   0.257 -0.1002 -0.2918 -0.3955
 3786SOL     OW14915   2.181   4.537   3.859  0.1959  0.5643 -0.3859
 3786SOL    HW214916   2.197   4.627   3.888  0.5068 -0.2195  2.0512
 3786SOL    HW314917   2.109   4.506   3.913  1.3582 -1.2570  0.2115
 3786SOL    MW414918   2.174   4.545   3.870  0.3903  0.2206  0.0145
 3787SOL     OW14919   0.066   1.510   6.165 -0.4816  0.6391 -0.4539
 3787SOL    HW214920   0.121   1.432   6.165 -1.4229 -0.2443  3.5230
 3787SOL    HW314921   0.119   1.576   6.120  1.8692 -1.3159 -0.7743
 3787SOL    MW414922   0.080   1.509   6.159 -0.2957  0.2646  0.0285
 3788SOL     OW14923   4.542   0.801   4.724 -0.0766 -0.0342  0.1604
 3788SOL    HW214924   4.472   0.738   4.706 -1.2626  1.4801 -0.8026
 3788SOL    HW314925   4.582   0.770   4.805 -0.8108 -1.8372 -0.1077
 3788SOL    MW414926   4.538   0.789   4.732 -0.3299 -0.0723 -0.0021
 3789SOL     OW14927   1.116   3.822   5.579  0.0088 -0.5721 -0.3293
 3789SOL    HW214928   1.056   3.832   5.505  1.7794  1.2524 -1.6380
 3789SOL    HW314929   1.072   3.867   5.652 -0.8592 -0.5670 -0.8508
 3789SOL    MW414930   1.102   3.829   5.579  0.1279 -0.3307 -0.5708
 3790SOL     OW14931   5.234   0.177   1.802 -0.1844 -0.9285 -0.2864
 3790SOL    HW214932   5.277   0.148   1.883 -0.3908 -1.2222 -0.2828
 3790SOL    HW314933   5.169   0.241   1.832  0.7433  0.0830 -0.3570
 3790SOL    MW414934   5.231   0.182   1.817 -0.0893 -0.8338 -0.2952
 3791SOL     OW14935   2.101   2.175   1.152 -0.3703  0.4401 -0.4115
 3791SOL    HW214936   2.074   2.261   1.120 -1.7489 -0.1404 -0.9077
 3791SOL    HW314937   2.061   2.113   1.091  0.2338 -0.5731  0.1859
 3791SOL    MW414938   2.092   2.178   1.140 -0.4725  0.2298 -0.3981
 3792SOL     OW14939   3.344   3.116   4.717  0.4630  0.1932  0.1617
 3792SOL    HW214940   3.372   3.035   4.673 -2.6216 -0.0932 -1.5408
 3792SOL    HW314941   3.269   3.090   4.770 -0.5733  1.8690 -0.4033
 3792SOL    MW414942   3.338   3.101   4.718 -0.0807  0.3765 -0.1375
 3793SOL     OW14943   4.599   1.288   6.064 -0.0379  0.2953 -0.3163
 3793SOL    HW214944   4.574   1.321   5.978 -0.7845 -0.2523 -0.3213
 3793SOL    HW314945   4.564   1.199   6.066  0.5005  0.0918  0.3223
 3793SOL    MW414946   4.591   1.280   6.053 -0.0654  0.1962 -0.2327
 3794SOL     OW14947   3.044   0.987   6.311  0.1917 -0.0622 -0.1396
 3794SOL    HW214948   2.948   0.989   6.311  0.1821  2.4321  1.4431
 3794SOL    HW314949   3.067   0.958   6.399  0.9999 -2.7533 -1.1152
 3794SOL    MW414950   3.034   0.983   6.323  0.2971 -0.0881 -0.0595
 3795SOL     OW14951   2.846   2.973   5.512  0.5132 -0.3670 -0.3196
 3795SOL    HW214952   2.913   3.017   5.563  0.6146 -0.9125  0.0229
 3795SOL    HW314953   2.817   3.039   5.449  2.6439 -0.6619 -1.7147
 3795SOL    MW414954   2.851   2.988   5.510  0.8077 -0.4779 -0.4585
 3796SOL     OW14955   1.316   4.834   1.680  0.1113 -0.2920 -0.3116
 3796SOL    HW214956   1.282   4.843   1.769 -3.4571  1.8684 -1.6535
 3796SOL    HW314957   1.395   4.889   1.679  0.1321 -0.2200  1.4641
 3796SOL    MW414958   1.322   4.843   1.692 -0.3568  0.0025 -0.2543
 3797SOL     OW14959   3.234   2.906   3.246 -0.0175  0.2776  0.1545
 3797SOL    HW214960   3.313   2.906   3.300  0.6200  1.4305 -0.7159
 3797SOL    HW314961   3.219   2.999   3.227 -0.1531 -0.1006 -1.7246
 3797SOL    MW414962   3.242   2.919   3.251  0.0487  0.3798 -0.2082
 3798SOL     OW14963   4.271   5.992   5.569 -0.2595  0.1688  0.0798
 3798SOL    HW214964   4.204   6.033   5.515 -0.5924 -1.1516 -0.5573
 3798SOL    HW314965   4.342   6.056   5.573 -1.5780  1.6641  0.9026
 3798SOL    MW414966   4.272   6.006   5.563 -0.4774  0.1919  0.1043
 3799SOL     OW14967   0.214   1.706   0.283  0.0350 -0.0606 -0.1729
 3799SOL    HW214968   0.194   1.766   0.212 -0.5535 -0.0535 -0.0063
 3799SOL    HW314969   0.237   1.762   0.357  1.8451 -0.0745 -0.6726
 3799SOL    MW414970   0.214   1.721   0.284  0.1962 -0.0615 -0.2169
 3800SOL     OW14971   0.656   0.264   3.395  0.3293 -0.1570  0.5516
 3800SOL    HW214972   0.665   0.228   3.306 -2.2022 -1.3352  0.6773
 3800SOL    HW314973   0.694   0.196   3.451 -1.1780 -1.0596  0.5418
 3800SOL    MW414974   0.662   0.250   3.390 -0.2035 -0.4316  0.5669
 3801SOL     OW14975   3.598   1.826   5.500  0.3375  0.7521 -0.5229
 3801SOL    HW214976   3.595   1.874   5.417 -0.2204 -1.4105 -1.8420
 3801SOL    HW314977   3.611   1.734   5.474  1.8978  0.2150  1.8879
 3801SOL    MW414978   3.599   1.820   5.485  0.4698  0.3959 -0.3788
 3802SOL     OW14979   6.000   6.250   1.976  0.0265  0.0075 -0.5505
 3802SOL    HW214980   5.959   6.180   1.925  2.2843 -0.6381 -1.6200
 3802SOL    HW314981   5.982   6.227   2.067 -1.3321 -0.6126 -0.9543
 3802SOL    MW414982   5.993   6.238   1.982  0.1451 -0.1595 -0.7449
 3803SOL     OW14983   2.966   5.148   1.191 -0.2258  0.1799 -0.2845
 3803SOL    HW214984   3.039   5.156   1.252  0.7291 -0.9891 -1.2311
 3803SOL    HW314985   2.980   5.218   1.127  0.8074 -0.8158 -1.1833
 3803SOL    MW414986   2.977   5.158   1.190  0.0365 -0.1057 -0.5280
 3804SOL     OW14987   1.794   0.299   1.095  0.0398 -0.1438 -0.1058
 3804SOL    HW214988   1.739   0.313   1.018 -1.4021  1.5442  1.1633
 3804SOL    HW314989   1.811   0.205   1.095 -0.8731 -0.3522 -1.8515
 3804SOL    MW414990   1.789   0.288   1.085 -0.2709  0.0514 -0.1687
 3805SOL     OW14991   1.659   0.091   3.318  0.1918 -0.4993 -0.1123
 3805SOL    HW214992   1.647   0.132   3.404 -0.2190  0.7985 -0.7653
 3805SOL    HW314993   1.751   0.104   3.297 -0.0655  0.7266 -0.5972
 3805SOL    MW414994   1.669   0.098   3.327  0.1036 -0.1663 -0.2624
 3806SOL     OW14995   0.788   1.301   2.546 -0.0398 -0.4154  0.0173
 3806SOL    HW214996   0.713   1.288   2.603  0.5503 -0.7089  0.7402
 3806SOL    HW314997   0.786   1.395   2.526 -0.8132 -0.4868 -0.2941
 3806SOL    MW414998   0.778   1.312   2.551 -0.0640 -0.4636  0.0716
 3807SOL     OW14999   2.466   5.283   6.290 -0.3403  0.4389 -0.1213
 3807SOL    HW215000   2.520   5.288   6.369 -0.5181 -0.6986  0.1031
 3807SOL    HW315001   2.444   5.190   6.283  0.6129  0.3273 -2.1591
 3807SOL    MW415002   2.470   5.271   6.299 -0.2380  0.2741 -0.3605
 3808SOL     OW15003   2.458   5.602   4.811  0.2804 -0.1205 -0.0374
 3808SOL    HW215004   2.457   5.540   4.884 -0.0951  1.0743  1.0036
 3808SOL    HW315005   2.514   5.673   4.841  0.5399  0.1560 -1.1323
 3808SOL    MW415006   2.465   5.603   4.825  0.2651  0.0736 -0.0445
 3809SOL     OW15007   2.062   2.025   0.349 -0.2160 -0.2945  0.6600
 3809SOL    HW215008   2.084   2.037   0.257 -0.4379 -1.4364  0.4436
 3809SOL    HW315009   2.079   1.932   0.366 -4.4996 -1.3092  0.5208
 3809SOL    MW415010   2.067   2.014   0.339 -0.8105 -0.5790  0.6131
 3810SOL     OW15011   4.149   1.469   5.653  0.0030  0.3546 -1.0734
 3810SOL    HW215012   4.217   1.466   5.586 -1.2219  1.2218 -2.4046
 3810SOL    HW315013   4.185   1.417   5.725  2.2413  1.1365 -1.5431
 3810SOL    MW415014   4.163   1.462   5.654  0.1367  0.5722 -1.3110
 3811SOL     OW15015   0.971   2.828   5.972  0.4063 -0.2130  0.3600
 3811SOL    HW215016   0.968   2.906   5.917  2.1188 -0.8197 -0.6768
 3811SOL    HW315017   1.054   2.834   6.019  1.3654 -2.1362 -0.9461
 3811SOL    MW415018   0.981   2.839   5.971  0.7588 -0.5468  0.0509
 3812SOL     OW15019   4.604   2.285   2.588 -0.4977 -0.4417 -0.1225
 3812SOL    HW215020   4.693   2.303   2.559  0.0051 -0.7982  1.1348
 3812SOL    HW315021   4.553   2.281   2.507  1.3033 -4.0658 -1.2893
 3812SOL    MW415022   4.609   2.287   2.574 -0.1937 -0.9669 -0.1106
 3813SOL     OW15023   2.121   6.028   2.969 -0.1095 -0.2218  0.2319
 3813SOL    HW215024   2.035   6.066   2.987 -0.5337 -0.6056 -0.8989
 3813SOL    HW315025   2.104   5.961   2.903  1.1562  0.1565 -0.5022
 3813SOL    MW415026   2.107   6.024   2.963  0.0015 -0.2225 -0.0141
 3814SOL     OW15027   3.431   5.330   5.899  0.0398 -0.0756 -0.5396
 3814SOL    HW215028   3.429   5.234   5.905 -0.8869 -0.0070  0.5428
 3814SOL    HW315029   3.507   5.355   5.952 -0.5847 -0.1509  0.4110
 3814SOL    MW415030   3.441   5.320   5.907 -0.1649 -0.0765 -0.2714
 3815SOL     OW15031   1.512   4.325   1.176 -0.0558  0.3355 -0.1322
 3815SOL    HW215032   1.516   4.388   1.104 -0.1099 -0.4067 -0.8016
 3815SOL    HW315033   1.445   4.360   1.235 -0.0295  0.9413 -0.4590
 3815SOL    MW415034   1.503   4.338   1.175 -0.0595  0.3175 -0.2637
 3816SOL     OW15035   6.306   4.574   5.733 -0.0965 -0.2125  0.2593
 3816SOL    HW215036   6.231   4.522   5.705 -0.8452  0.8962  0.1260
 3816SOL    HW315037   6.309   4.646   5.670  1.2684 -0.3956  0.0929
 3816SOL    MW415038   6.296   4.577   5.721 -0.0152 -0.0904  0.2198
 3817SOL     OW15039   2.783   4.061   2.009 -0.5895 -0.1371 -0.0901
 3817SOL    HW215040   2.857   4.079   2.068 -0.9505 -0.5213  0.4869
 3817SOL    HW315041   2.819   4.072   1.921 -0.4208  2.0030  0.2003
 3817SOL    MW415042   2.797   4.065   2.005 -0.6149  0.0946  0.0244
 3818SOL     OW15043   4.322   0.309   4.378  0.5213  0.3492 -0.9833
 3818SOL    HW215044   4.304   0.297   4.285 -1.6860 -1.6220 -0.3849
 3818SOL    HW315045   4.322   0.221   4.414  3.2705  0.8719  0.6542
 3818SOL    MW415046   4.320   0.296   4.371  0.5928  0.1581 -0.6883
 3819SOL     OW15047   5.808   5.180   2.373  0.0979  0.4630  0.1722
 3819SOL    HW215048   5.735   5.234   2.341 -1.1793 -0.9032  0.6474
 3819SOL    HW315049   5.833   5.127   2.297  1.7591  2.0459 -0.4739
 3819SOL    MW415050   5.802   5.180   2.358  0.1486  0.4916  0.1496
 3820SOL     OW15051   5.098   4.189   6.111 -0.4958  0.6546  0.7961
 3820SOL    HW215052   5.191   4.170   6.116 -0.5601  0.2259  0.3465
 3820SOL    HW315053   5.061   4.119   6.058 -1.0998  0.7366  1.0972
 3820SOL    MW415054   5.105   4.177   6.105 -0.5840  0.6089  0.7765
 3821SOL     OW15055   4.641   4.093   4.232  0.1710 -0.2332 -0.2426
 3821SOL    HW215056   4.707   4.094   4.163 -0.8433 -1.4566 -1.2686
 3821SOL    HW315057   4.689   4.065   4.311  0.9944 -0.5101 -0.8298
 3821SOL    MW415058   4.656   4.089   4.234  0.1458 -0.4312 -0.4555
 3822SOL     OW15059   5.903   1.490   3.034 -0.1676  0.0626  0.4941
 3822SOL    HW215060   5.946   1.474   2.950  2.0991  0.5140  1.4769
 3822SOL    HW315061   5.946   1.430   3.095 -2.5608 -1.0821  1.1662
 3822SOL    MW415062   5.915   1.480   3.031 -0.1843 -0.0289  0.7124
 3823SOL     OW15063   2.891   3.152   5.941  0.0221 -0.4635  0.1050
 3823SOL    HW215064   2.845   3.225   5.982  0.2492 -0.6644  0.7289
 3823SOL    HW315065   2.951   3.120   6.008 -0.1043 -1.2551 -0.1380
 3823SOL    MW415066   2.893   3.157   5.955  0.0354 -0.5944  0.1552
 3824SOL     OW15067   5.019   0.648   0.861  0.2589 -0.3522 -0.3960
 3824SOL    HW215068   5.058   0.655   0.948  0.8176  0.1410 -0.6805
 3824SOL    HW315069   4.984   0.559   0.858 -0.0773 -0.2568  0.4597
 3824SOL    MW415070   5.020   0.638   0.872  0.2882 -0.2746 -0.3207
 3825SOL     OW15071   6.249   1.118   3.689 -0.2183  0.2374 -0.3424
 3825SOL    HW215072   6.247   1.024   3.672  0.6715  0.4979 -2.1736
 3825SOL    HW315073   6.199   1.156   3.618  1.0854  1.2444 -0.7680
 3825SOL    MW415074   6.242   1.110   3.677  0.0711  0.4047 -0.6402
 3826SOL     OW15075   6.312   4.171   5.000 -0.0228  0.2155  0.7101
 3826SOL    HW215076   6.258   4.101   4.964 -0.4522  0.9216 -0.0830
 3826SOL    HW315077   6.309   4.240   4.933  0.4425  0.9618  1.4331
 3826SOL    MW415078   6.305   4.171   4.986 -0.0181  0.4071  0.7008
 3827SOL     OW15079   4.197   2.985   6.046 -0.2662 -0.4883  0.0234
 3827SOL    HW215080   4.236   3.023   6.125  1.0167  0.6679 -1.1199
 3827SOL    HW315081   4.171   3.060   5.993 -0.2035 -1.2275 -1.0955
 3827SOL    MW415082   4.199   3.000   6.050 -0.0887 -0.4333 -0.2751
 3828SOL     OW15083   4.256   5.904   0.316  0.0509 -0.2203  0.0426
 3828SOL    HW215084   4.302   5.829   0.279 -0.0659 -0.3762  0.2117
 3828SOL    HW315085   4.299   5.918   0.401 -0.4206 -0.5673  0.3453
 3828SOL    MW415086   4.268   5.896   0.323 -0.0268 -0.2867  0.1048
 3829SOL     OW15087   2.756   2.920   5.143 -0.4033  0.2160 -0.1101
 3829SOL    HW215088   2.845   2.956   5.137 -0.0360 -0.7970 -1.1871
 3829SOL    HW315089   2.725   2.917   5.052 -0.5787 -1.7244 -0.0399
 3829SOL    MW415090   2.764   2.924   5.130 -0.3780 -0.1737 -0.2429
 3830SOL     OW15091   3.874   3.062   3.917  0.5715  0.4408 -0.1047
 3830SOL    HW215092   3.910   3.040   4.003 -2.8935 -2.7368  0.7959
 3830SOL    HW315093   3.897   2.987   3.862 -2.2232 -0.5084 -0.1505
 3830SOL    MW415094   3.882   3.049   3.921 -0.2544 -0.1037  0.0081
 3831SOL     OW15095   5.535   1.841   3.889  0.1835  0.3976 -0.3150
 3831SOL    HW215096   5.454   1.875   3.851 -0.2361 -0.0081  0.1945
 3831SOL    HW315097   5.515   1.749   3.907  0.9714  0.1264 -0.7741
 3831SOL    MW415098   5.521   1.833   3.887  0.2321  0.3083 -0.3083
 3832SOL     OW15099   0.216   0.327   0.547 -0.1795 -0.3971  0.4177
 3832SOL    HW215100   0.238   0.385   0.619  1.6980  0.4928 -0.8078
 3832SOL    HW315101   0.296   0.277   0.530 -0.4031 -0.2313 -1.3422
 3832SOL    MW415102   0.229   0.328   0.554  0.0387 -0.2578  0.0238
 3833SOL     OW15103   3.735   4.741   5.038  0.1942 -0.0001 -0.2222
 3833SOL    HW215104   3.694   4.711   4.957 -0.7027  0.5394  0.0167
 3833SOL    HW315105   3.709   4.677   5.104  1.2263 -0.6437 -0.4135
 3833SOL    MW415106   3.727   4.728   5.036  0.2121 -0.0138 -0.2159
 3834SOL     OW15107   1.860   4.158   5.147  0.5786 -0.5758  0.1857
 3834SOL    HW215108   1.787   4.126   5.200  0.4708 -1.1927 -0.3247
 3834SOL    HW315109   1.932   4.169   5.209  0.7747 -2.3232  0.2946
 3834SOL    MW415110   1.860   4.156   5.163  0.5903 -0.8877  0.1327
 3835SOL     OW15111   5.544   0.909   3.679  0.3474  0.4203  0.4669
 3835SOL    HW215112   5.453   0.895   3.707 -0.1775 -0.9906 -1.6815
 3835SOL    HW315113   5.596   0.856   3.740 -0.5150 -0.7216  0.2497
 3835SOL    MW415114   5.539   0.900   3.691  0.1644  0.0835  0.1548
 3836SOL     OW15115   0.905   5.484   1.996 -0.1203 -0.1450 -0.1272
 3836SOL    HW215116   0.850   5.416   1.956  0.6834 -1.3911  0.8044
 3836SOL    HW315117   0.880   5.565   1.951 -0.9914 -1.0790 -1.3912
 3836SOL    MW415118   0.895   5.486   1.985 -0.1292 -0.4327 -0.1710
 3837SOL     OW15119   5.918   2.673   5.511  0.0445  0.1816 -0.1209
 3837SOL    HW215120   5.939   2.601   5.571  0.1801 -1.1959 -1.7647
 3837SOL    HW315121   5.826   2.692   5.528  0.0597 -0.2416  0.4764
 3837SOL    MW415122   5.909   2.666   5.522  0.0644 -0.0560 -0.2590
 3838SOL     OW15123   0.297   1.259   4.134  0.2636  0.2614  0.2876
 3838SOL    HW215124   0.349   1.336   4.112  0.3242  0.2892  0.5262
 3838SOL    HW315125   0.362   1.191   4.153  0.2183 -0.2703 -1.3559
 3838SOL    MW415126   0.313   1.260   4.134  0.2656  0.1949  0.1022
 3839SOL     OW15127   4.129   2.044   4.740  0.3320  0.4545 -0.2438
 3839SOL    HW215128   4.042   2.007   4.756  0.3931  1.6120  3.7160
 3839SOL    HW315129   4.111   2.125   4.691 -0.5186 -0.4943 -1.5919
 3839SOL    MW415130   4.115   2.050   4.735  0.2278  0.4820  0.1008
 3840SOL     OW15131   3.235   5.954   0.827  0.6138  0.0524 -0.0210
 3840SOL    HW215132   3.238   5.948   0.923 -1.2953  2.4852  0.3129
 3840SOL    HW315133   3.209   6.045   0.810 -0.6966 -0.7360 -2.7891
 3840SOL    MW415134   3.232   5.965   0.837  0.1890  0.2694 -0.3422
 3841SOL     OW15135   3.420   6.433   4.954 -0.0921 -0.6830  0.5769
 3841SOL    HW215136   3.438   6.513   5.004  2.0187 -1.2736  0.8608
 3841SOL    HW315137   3.504   6.407   4.918 -0.7879 -2.5751  0.1548
 3841SOL    MW415138   3.433   6.440   4.956  0.0946 -1.0106  0.5587
 3842SOL     OW15139   4.820   2.751   6.289  0.2113 -0.1193 -0.2960
 3842SOL    HW215140   4.806   2.741   6.384  1.7384 -1.2483 -0.1518
 3842SOL    HW315141   4.872   2.832   6.281 -1.3245  0.9014 -0.3473
 3842SOL    MW415142   4.825   2.761   6.301  0.2102 -0.1336 -0.2837
 3843SOL     OW15143   4.777   2.473   5.908  0.2320 -0.5379  0.3862
 3843SOL    HW215144   4.778   2.384   5.944  0.3276 -0.3656  0.8258
 3843SOL    HW315145   4.742   2.464   5.820  0.0925 -0.9914  0.4877
 3843SOL    MW415146   4.773   2.460   5.901  0.2262 -0.5750  0.4576
 3844SOL     OW15147   3.858   3.852   2.620  0.5807  0.4786  0.2392
 3844SOL    HW215148   3.944   3.864   2.659  0.0227  2.1241  1.0730
 3844SOL    HW315149   3.846   3.929   2.564  0.2735 -0.5176 -1.0879
 3844SOL    MW415150   3.867   3.864   2.618  0.4665  0.5642  0.1741
 3845SOL     OW15151   2.917   6.347   0.984  0.3500  0.3918 -0.2675
 3845SOL    HW215152   2.864   6.413   0.939 -0.1662  0.1691 -0.0000
 3845SOL    HW315153   2.952   6.394   1.060 -1.2700 -0.0070  0.7917
 3845SOL    MW415154   2.914   6.362   0.988  0.0681  0.3098 -0.0924
 3846SOL     OW15155   4.510   5.253   4.620 -0.2474 -0.0279 -0.0672
 3846SOL    HW215156   4.479   5.335   4.659 -0.0477 -0.7328  1.6418
 3846SOL    HW315157   4.605   5.265   4.611 -0.4197  0.5396 -1.4087
 3846SOL    MW415158   4.518   5.266   4.624 -0.2438 -0.0461 -0.0187
 3847SOL     OW15159   3.694   1.999   2.051 -0.4318 -0.3673 -0.0556
 3847SOL    HW215160   3.787   2.013   2.037 -0.1169 -1.6546  0.6615
 3847SOL    HW315161   3.686   1.908   2.078 -2.1849 -1.0735 -2.5711
 3847SOL    MW415162   3.705   1.989   2.053 -0.6215 -0.6303 -0.2928
 3848SOL     OW15163   1.062   4.526   0.052 -0.2596 -0.3170 -0.8340
 3848SOL    HW215164   1.073   4.466   0.126 -0.4261  1.7310  0.9383
 3848SOL    HW315165   1.151   4.547   0.025 -0.1804 -0.2782 -0.5443
 3848SOL    MW415166   1.075   4.521   0.058 -0.2711 -0.0417 -0.5620
 3849SOL     OW15167   3.359   2.743   1.044 -0.4869  0.0951  0.3492
 3849SOL    HW215168   3.393   2.658   1.017 -0.4904  0.2585 -0.1770
 3849SOL    HW315169   3.311   2.725   1.125  0.1413 -0.2778  0.6453
 3849SOL    MW415170   3.357   2.730   1.051 -0.4044  0.0675  0.3188
 3850SOL     OW15171   5.783   4.456   2.267 -0.3338  0.2302 -0.9522
 3850SOL    HW215172   5.743   4.537   2.298 -0.8432 -0.6917  0.9781
 3850SOL    HW315173   5.870   4.457   2.307 -0.0887  0.1195 -1.4750
 3850SOL    MW415174   5.789   4.467   2.276 -0.3687  0.0940 -0.7665
 3851SOL     OW15175   4.383   3.244   0.053  0.4186 -0.1405  0.1457
 3851SOL    HW215176   4.329   3.314   0.090 -0.4018 -1.0917  0.8212
 3851SOL    HW315177   4.458   3.288   0.014 -1.1227  1.2882 -1.3303
 3851SOL    MW415178   4.386   3.259   0.053  0.1070 -0.0775  0.0401
 3852SOL     OW15179   2.336   5.289   0.196  0.0534  0.2040  0.0359
 3852SOL    HW215180   2.429   5.289   0.175  0.1279 -2.0788  0.1620
 3852SOL    HW315181   2.333   5.283   0.292 -0.2546  1.7039  0.1416
 3852SOL    MW415182   2.348   5.288   0.206  0.0226  0.1007  0.0665
 3853SOL     OW15183   4.381   0.244   2.566 -0.0830 -0.0900  0.2809
 3853SOL    HW215184   4.361   0.156   2.532  0.3815 -0.4695  0.9726
 3853SOL    HW315185   4.301   0.294   2.550 -0.5104 -0.7559  0.2808
 3853SOL    MW415186   4.368   0.239   2.559 -0.0781 -0.2279  0.3722
 3854SOL     OW15187   4.630   0.935   5.806 -0.0341 -0.5746 -0.0097
 3854SOL    HW215188   4.581   0.941   5.888  0.4838  2.4209  0.1907
 3854SOL    HW315189   4.721   0.925   5.834  0.0614 -0.3185 -0.2292
 3854SOL    MW415190   4.635   0.935   5.821  0.0468 -0.1456 -0.0122
 3855SOL     OW15191   2.517   1.957   3.070  0.3579  0.2359  0.3065
 3855SOL    HW215192   2.548   1.902   3.142 -2.2576 -1.5861  0.1715
 3855SOL    HW315193   2.442   2.005   3.105 -0.2295  0.2141 -0.8593
 3855SOL    MW415194   2.511   1.956   3.084 -0.0647 -0.0074  0.1349
 3856SOL     OW15195   1.896   1.987   3.732 -0.5400  0.7829 -0.0707
 3856SOL    HW215196   1.860   2.064   3.687 -3.4096 -0.6665 -0.4185
 3856SOL    HW315197   1.864   1.994   3.822 -1.5678 -0.4191 -0.3230
 3856SOL    MW415198   1.887   1.998   3.738 -1.0542  0.4330 -0.1498
 3857SOL     OW15199   2.911   1.146   1.284  0.0849  0.3127  0.3807
 3857SOL    HW215200   2.968   1.082   1.328  0.9518  1.3121  0.7574
 3857SOL    HW315201   2.917   1.123   1.192  0.4402 -0.1184  0.5065
 3857SOL    MW415202   2.920   1.134   1.278  0.2461  0.3877  0.4470
 3858SOL     OW15203   0.120   5.624   4.357  0.3520  0.1548  0.1002
 3858SOL    HW215204   0.025   5.620   4.367  0.4442 -1.0969  0.6032
 3858SOL    HW315205   0.151   5.659   4.440  0.3937 -0.4208  0.3323
 3858SOL    MW415206   0.112   5.628   4.369  0.3696 -0.0863  0.1972
 3859SOL     OW15207   2.175   5.083   0.091 -0.2127  0.0172 -0.2912
 3859SOL    HW215208   2.245   5.146   0.106 -0.4010  0.0842  0.3037
 3859SOL    HW315209   2.099   5.118   0.137 -0.2537 -0.7593  0.2494
 3859SOL    MW415210   2.174   5.096   0.099 -0.2429 -0.0764 -0.1414
 3860SOL     OW15211   4.434   3.689   3.819 -0.0029 -0.5058 -0.0371
 3860SOL    HW215212   4.345   3.724   3.810 -0.4602 -1.5133  0.4079
 3860SOL    HW315213   4.426   3.621   3.886  1.0581 -0.7736 -0.1748
 3860SOL    MW415214   4.421   3.685   3.827  0.0768 -0.6741  0.0034
 3861SOL     OW15215   1.620   5.659   4.815 -0.3795  0.0041 -0.4377
 3861SOL    HW215216   1.653   5.656   4.725 -0.8944  0.0350 -0.6286
 3861SOL    HW315217   1.666   5.732   4.855 -1.3059  0.9908 -1.1401
 3861SOL    MW415218   1.630   5.668   4.808 -0.5696  0.1384 -0.5555
 3862SOL     OW15219   0.314   0.818   5.650  0.4269 -0.0127 -0.3350
 3862SOL    HW215220   0.281   0.892   5.700  0.9425 -0.0220  0.0256
 3862SOL    HW315221   0.238   0.761   5.638  0.5683 -0.7163  1.7057
 3862SOL    MW415222   0.300   0.820   5.655  0.5136 -0.1067 -0.0182
 3863SOL     OW15223   2.453   1.243   4.868 -0.7880 -0.2805  0.1582
 3863SOL    HW215224   2.429   1.218   4.779 -0.0909 -0.3371 -0.0141
 3863SOL    HW315225   2.548   1.247   4.868 -0.8118  0.7198  0.6261
 3863SOL    MW415226   2.462   1.241   4.856 -0.6992 -0.1560  0.1972
 3864SOL     OW15227   5.209   4.328   0.287  0.2286  0.1606  0.1130
 3864SOL    HW215228   5.187   4.345   0.195  1.7530  0.1149 -0.2902
 3864SOL    HW315229   5.167   4.399   0.335  0.6979  1.0908 -0.8016
 3864SOL    MW415230   5.201   4.340   0.281  0.4916  0.2773 -0.0609
 3865SOL     OW15231   2.345   4.544   5.325 -0.3505 -0.0451 -0.0061
 3865SOL    HW215232   2.286   4.593   5.268 -1.6260 -1.6358 -0.1163
 3865SOL    HW315233   2.289   4.510   5.394  0.9512  0.7243  1.4905
 3865SOL    MW415234   2.330   4.546   5.327 -0.3470 -0.1535  0.1768
 3866SOL     OW15235   1.478   4.209   4.474  0.3096  0.4631  0.1428
 3866SOL    HW215236   1.551   4.193   4.414 -0.2711 -1.1099 -0.1776
 3866SOL    HW315237   1.517   4.202   4.561  0.4191 -1.2351 -0.0044
 3866SOL    MW415238   1.493   4.206   4.478  0.2474  0.0315  0.0811
 3867SOL     OW15239   1.546   3.978   0.781 -0.6179 -0.4723 -0.5782
 3867SOL    HW215240   1.506   4.024   0.854  0.5533 -1.1810  0.5475
 3867SOL    HW315241   1.523   4.031   0.704 -2.3030 -0.0064  0.2120
 3867SOL    MW415242   1.538   3.991   0.780 -0.6857 -0.5043 -0.3254
 3868SOL     OW15243   1.144   5.835   3.601 -0.7542  0.8759  0.2965
 3868SOL    HW215244   1.147   5.890   3.523 -1.7873 -2.1128 -2.0792
 3868SOL    HW315245   1.230   5.793   3.605 -1.3560 -0.4899 -0.5093
 3868SOL    MW415246   1.156   5.837   3.592 -0.9699  0.3014 -0.1233
 3869SOL     OW15247   2.868   2.491   2.708 -0.3075 -0.1563  0.4358
 3869SOL    HW215248   2.905   2.575   2.735 -2.2202  0.7518  0.4472
 3869SOL    HW315249   2.918   2.426   2.757 -0.5268  1.1459  2.5625
 3869SOL    MW415250   2.879   2.494   2.718 -0.5888  0.1353  0.7179
 3870SOL     OW15251   0.577   5.137   4.267 -0.3523 -0.1183 -1.0467
 3870SOL    HW215252   0.658   5.116   4.312  0.1319  0.1968 -1.7454
 3870SOL    HW315253   0.513   5.075   4.301 -0.2563  0.7061  0.7720
 3870SOL    MW415254   0.579   5.126   4.277 -0.2758  0.0320 -0.8989
 3871SOL     OW15255   0.423   0.843   3.355  0.2157 -0.0938  0.2830
 3871SOL    HW215256   0.471   0.920   3.386 -0.1253  1.3923 -2.5891
 3871SOL    HW315257   0.491   0.779   3.333  0.7971  0.9936 -1.2272
 3871SOL    MW415258   0.438   0.845   3.356  0.2474  0.2457 -0.2952
 3872SOL     OW15259   3.625   4.521   5.722 -0.1400  0.8969 -0.2261
 3872SOL    HW215260   3.579   4.487   5.646 -1.3006  0.8952  0.4641
 3872SOL    HW315261   3.695   4.457   5.738 -0.5174  0.3629 -0.6637
 3872SOL    MW415262   3.628   4.508   5.714 -0.3429  0.8262 -0.1928
 3873SOL     OW15263   4.030   2.748   4.747  0.3263  0.0074  0.0342
 3873SOL    HW215264   4.006   2.767   4.837  0.9307  0.5997  0.0805
 3873SOL    HW315265   4.114   2.792   4.735  0.2122  0.0001 -0.8441
 3873SOL    MW415266   4.038   2.756   4.757  0.3910  0.0846 -0.0756
 3874SOL     OW15267   0.273   5.333   1.146 -0.5911 -0.2891  0.4693
 3874SOL    HW215268   0.226   5.387   1.083 -2.8188 -1.0424  1.3893
 3874SOL    HW315269   0.270   5.382   1.228  0.1747 -0.3987  0.5750
 3874SOL    MW415270   0.267   5.346   1.149 -0.7840 -0.4030  0.6047
 3875SOL     OW15271   3.434   2.049   2.333 -0.6901  0.5380  0.3072
 3875SOL    HW215272   3.370   2.112   2.365 -1.2936  0.4589 -0.6958
 3875SOL    HW315273   3.510   2.101   2.310 -1.5121  1.0486 -1.3739
 3875SOL    MW415274   3.435   2.064   2.334 -0.8781  0.5950 -0.0469
 3876SOL     OW15275   1.948   2.266   0.005  0.1859 -0.3275 -0.9687
 3876SOL    HW215276   1.967   2.299   0.093  1.4981 -1.6339 -0.7288
 3876SOL    HW315277   1.853   2.261   0.002  0.1255 -0.8258  0.6063
 3876SOL    MW415278   1.938   2.270   0.016  0.3511 -0.5656 -0.7293
 3877SOL     OW15279   1.578   3.228   4.640 -0.4897 -0.0250 -0.5274
 3877SOL    HW215280   1.577   3.189   4.727 -0.4075  0.3595 -0.3516
 3877SOL    HW315281   1.565   3.321   4.655 -0.3302  0.0643 -0.9165
 3877SOL    MW415282   1.576   3.235   4.653 -0.4578  0.0375 -0.5555
 3878SOL     OW15283   0.075   2.977   2.618  0.3272  0.0080  0.4501
 3878SOL    HW215284   0.004   2.932   2.572 -0.7737  0.8989  1.1847
 3878SOL    HW315285   0.050   3.070   2.614  0.7092  0.1990  1.9519
 3878SOL    MW415286   0.062   2.983   2.611  0.2324  0.1508  0.7451
 3879SOL     OW15287   0.598   1.483   5.656  0.1957  0.3669 -0.3814
 3879SOL    HW215288   0.654   1.406   5.647  0.5067  0.5259  0.1638
 3879SOL    HW315289   0.645   1.540   5.717 -1.1651 -0.0582  1.1170
 3879SOL    MW415290   0.612   1.480   5.663  0.0572  0.3318 -0.1118
 3880SOL     OW15291   4.106   2.577   1.532  0.3464  0.0413  0.2692
 3880SOL    HW215292   4.120   2.507   1.469 -0.1518  0.0461  0.1420
 3880SOL    HW315293   4.185   2.630   1.528  0.3107  0.0550 -0.3718
 3880SOL    MW415294   4.118   2.575   1.524  0.2760  0.0438  0.1678
 3881SOL     OW15295   5.807   4.967   4.246  0.0029 -0.2034 -0.0308
 3881SOL    HW215296   5.821   4.925   4.330  1.4409  0.1340 -0.0888
 3881SOL    HW315297   5.713   4.985   4.244 -0.1610 -0.8533  1.1863
 3881SOL    MW415298   5.796   4.964   4.256  0.1710 -0.2446  0.1221
 3882SOL     OW15299   4.854   6.236   5.794 -0.7491  0.8578 -0.4030
 3882SOL    HW215300   4.944   6.211   5.811 -1.2416 -1.1352 -0.4303
 3882SOL    HW315301   4.820   6.264   5.879  0.0450  2.3157 -0.5251
 3882SOL    MW415302   4.861   6.236   5.807 -0.7093  0.7872 -0.4227
 3883SOL     OW15303   2.271   4.897   0.289 -0.5099 -0.0773  0.7639
 3883SOL    HW215304   2.233   4.962   0.230  0.9433  2.7119  2.6494
 3883SOL    HW315305   2.217   4.901   0.368  0.5152  0.0409  1.4902
 3883SOL    MW415306   2.259   4.906   0.292 -0.1829  0.3063  1.1085
 3884SOL     OW15307   5.047   1.532   0.940 -0.3728  0.1867 -0.2256
 3884SOL    HW215308   4.987   1.606   0.934 -1.2134 -0.4777 -0.1376
 3884SOL    HW315309   5.048   1.509   1.033  1.5559  1.4207  0.1160
 3884SOL    MW415310   5.040   1.539   0.951 -0.2292  0.2619 -0.1689
 3885SOL     OW15311   2.507   2.388   4.013  0.0642  0.1858 -0.2714
 3885SOL    HW215312   2.450   2.464   4.013  0.1453  0.3147  1.9295
 3885SOL    HW315313   2.581   2.413   4.068 -0.7394 -1.9583  2.0581
 3885SOL    MW415314   2.509   2.401   4.021 -0.0312 -0.0801  0.3263
 3886SOL     OW15315   0.304   0.758   1.858 -0.0560  0.0249 -0.3281
 3886SOL    HW215316   0.373   0.750   1.793 -0.8666 -0.2116 -1.1887
 3886SOL    HW315317   0.346   0.799   1.934  0.3553  2.6597 -1.8702
 3886SOL    MW415318   0.318   0.762   1.860 -0.1087  0.3414 -0.6451
 3887SOL     OW15319   1.361   6.419   2.507 -0.1241 -0.6279  0.7966
 3887SOL    HW215320   1.285   6.428   2.565  0.5175  0.8741  1.4695
 3887SOL    HW315321   1.407   6.342   2.539  0.3627  0.3137  2.5091
 3887SOL    MW415322   1.357   6.410   2.519  0.0248 -0.3055  1.1113
 3888SOL     OW15323   5.304   2.176   0.325  0.4484  0.2100 -0.4040
 3888SOL    HW215324   5.324   2.267   0.306 -1.1730  0.3309 -1.7020
 3888SOL    HW315325   5.265   2.178   0.413  2.3713  0.4374  0.5065
 3888SOL    MW415326   5.302   2.188   0.334  0.4882  0.2559 -0.4551
 3889SOL     OW15327   4.663   2.196   0.714 -0.0482 -0.3149  0.8430
 3889SOL    HW215328   4.725   2.269   0.718  0.5738 -0.8545  1.4558
 3889SOL    HW315329   4.702   2.135   0.652 -1.1681  0.3857 -0.6037
 3889SOL    MW415330   4.676   2.197   0.706 -0.1139 -0.2936  0.7330
 3890SOL     OW15331   6.226   4.682   2.864  0.7809  0.2345 -0.4854
 3890SOL    HW215332   6.240   4.639   2.948  1.5289 -0.1212 -0.7766
 3890SOL    HW315333   6.299   4.652   2.810  0.5505  0.7998 -1.1243
 3890SOL    MW415334   6.238   4.672   2.868  0.8492  0.2622 -0.6081
 3891SOL     OW15335   5.549   5.158   1.291 -0.2271  0.6778  0.3217
 3891SOL    HW215336   5.467   5.118   1.263 -1.2462  1.8966  1.4156
 3891SOL    HW315337   5.592   5.091   1.345 -0.7174  0.2027  0.1256
 3891SOL    MW415338   5.544   5.144   1.295 -0.4262  0.7759  0.4402
 3892SOL     OW15339   1.569   2.126   3.284 -0.1580 -0.1457 -0.2202
 3892SOL    HW215340   1.636   2.126   3.216 -0.8467  0.5997 -0.9179
 3892SOL    HW315341   1.489   2.152   3.239 -0.2924  2.1603  1.2005
 3892SOL    MW415342   1.567   2.129   3.269 -0.2666  0.2569 -0.1248
 3893SOL     OW15343   3.640   3.494   0.788  0.1003 -0.4909  0.1723
 3893SOL    HW215344   3.624   3.453   0.703  1.8619 -0.4494 -0.2096
 3893SOL    HW315345   3.669   3.422   0.844  0.4440 -0.2492  0.3047
 3893SOL    MW415346   3.641   3.479   0.784  0.3781 -0.4535  0.1394
 3894SOL     OW15347   5.885   1.740   4.012  0.0993 -0.2027 -0.0159
 3894SOL    HW215348   5.937   1.682   4.066 -0.2807  0.9528  1.6668
 3894SOL    HW315349   5.826   1.682   3.963  1.1159 -1.3319  0.0694
 3894SOL    MW415350   5.884   1.725   4.012  0.1833 -0.1992  0.2174
 3895SOL     OW15351   2.081   5.346   5.421  0.5353 -0.2851 -0.3603
 3895SOL    HW215352   2.028   5.331   5.343 -1.8529  0.2968  1.0281
 3895SOL    HW315353   2.133   5.267   5.430  1.1836 -0.2028 -2.7137
 3895SOL    MW415354   2.081   5.334   5.412  0.3057 -0.1975 -0.4876
 3896SOL     OW15355   5.098   3.883   1.768  0.2989 -0.6489  0.3529
 3896SOL    HW215356   5.077   3.966   1.811  3.4212 -0.1118  1.0288
 3896SOL    HW315357   5.036   3.821   1.807 -1.2473  1.0489  0.7833
 3896SOL    MW415358   5.087   3.886   1.779  0.5069 -0.3540  0.4988
 3897SOL     OW15359   1.922   4.708   2.840 -0.1610 -0.0313 -0.4288
 3897SOL    HW215360   1.980   4.663   2.901  0.4896  0.7725 -0.4422
 3897SOL    HW315361   1.978   4.770   2.794 -0.5030 -1.0669 -2.3380
 3897SOL    MW415362   1.937   4.710   2.842 -0.1203 -0.0619 -0.6824
 3898SOL     OW15363   2.190   0.335   4.225 -0.1126 -0.1042  0.3812
 3898SOL    HW215364   2.220   0.339   4.134 -2.6865  1.0380 -0.4896
 3898SOL    HW315365   2.218   0.418   4.263  0.4916 -0.3565  0.5075
 3898SOL    MW415366   2.198   0.346   4.218 -0.3725  0.0132  0.2829
 3899SOL     OW15367   3.210   2.732   1.268  0.0522 -0.3858 -0.1097
 3899SOL    HW215368   3.218   2.698   1.357 -0.3408  0.6909  0.3529
 3899SOL    HW315369   3.172   2.820   1.279  0.1211 -0.1868 -1.3264
 3899SOL    MW415370   3.206   2.739   1.281  0.0094 -0.2175 -0.2092
 3900SOL     OW15371   4.095   3.059   4.381 -0.8198  0.6916 -0.4407
 3900SOL    HW215372   4.050   3.001   4.443 -1.4652  0.5570 -1.0132
 3900SOL    HW315373   4.165   3.100   4.432  0.1290 -1.1291 -0.1865
 3900SOL    MW415374   4.098   3.057   4.396 -0.7798  0.4336 -0.4827
 3901SOL     OW15375   4.367   2.370   1.164  0.2352  0.3220 -0.6819
 3901SOL    HW215376   4.453   2.331   1.152  0.5007  0.5059  0.5408
 3901SOL    HW315377   4.329   2.372   1.076  0.5763 -1.8191 -0.9169
 3901SOL    MW415378   4.373   2.365   1.151  0.3152  0.0637 -0.5516
 3902SOL     OW15379   2.481   4.260   4.909  0.2930 -0.3416 -0.2438
 3902SOL    HW215380   2.522   4.227   4.829 -0.4507  0.2848 -0.8975
 3902SOL    HW315381   2.396   4.215   4.911 -0.1848  0.5403 -0.4510
 3902SOL    MW415382   2.475   4.250   4.898  0.1319 -0.1426 -0.3574
 3903SOL     OW15383   4.448   5.945   1.428 -0.0222 -0.4316  0.3061
 3903SOL    HW215384   4.421   6.037   1.436  0.7821 -0.1387 -0.2124
 3903SOL    HW315385   4.444   5.927   1.334 -1.1198 -1.2321  0.4993
 3903SOL    MW415386   4.444   5.955   1.417 -0.0609 -0.4986  0.2632
 3904SOL     OW15387   5.913   2.004   4.907  0.2843 -1.3324  0.4026
 3904SOL    HW215388   5.946   2.027   4.993 -0.5915  0.9016  0.2043
 3904SOL    HW315389   5.923   2.084   4.855  0.5072 -2.5203 -1.5005
 3904SOL    MW415390   5.919   2.018   4.911  0.1982 -1.1944  0.1253
 3905SOL     OW15391   3.053   1.010   1.479  0.5184 -0.0362 -0.4353
 3905SOL    HW215392   3.119   0.969   1.425 -1.3765  0.2392 -3.1570
 3905SOL    HW315393   3.081   1.101   1.487  1.1878 -0.2504 -0.2834
 3905SOL    MW415394   3.065   1.017   1.473  0.3567 -0.0282 -0.7744
 3906SOL     OW15395   2.429   1.379   6.234 -0.2508  0.0640  0.8229
 3906SOL    HW215396   2.483   1.456   6.254 -0.7471 -0.1539  3.2933
 3906SOL    HW315397   2.344   1.415   6.209  0.1234  0.3247 -0.1454
 3906SOL    MW415398   2.425   1.394   6.233 -0.2669  0.0697  1.0211
 3907SOL     OW15399   4.900   4.531   3.106  0.4726  0.2612 -0.4499
 3907SOL    HW215400   4.911   4.510   3.199 -0.2109  1.5914 -0.0382
 3907SOL    HW315401   4.932   4.621   3.098  4.1107 -1.0093 -2.2948
 3907SOL    MW415402   4.906   4.540   3.117  0.8624  0.2691 -0.6390
 3908SOL     OW15403   2.135   3.913   5.731  0.3762 -0.2077 -0.1914
 3908SOL    HW215404   2.168   3.851   5.666  0.3236 -2.4405  1.7646
 3908SOL    HW315405   2.086   3.978   5.680 -0.0568 -2.0855 -2.3181
 3908SOL    MW415406   2.133   3.913   5.716  0.3122 -0.7501 -0.2139
 3909SOL     OW15407   6.373   3.448   4.428 -0.0767  0.5807  0.0679
 3909SOL    HW215408   6.452   3.405   4.395 -1.4475 -1.7770 -0.3314
 3909SOL    HW315409   6.392   3.542   4.420  2.1749  0.0913 -1.1789
 3909SOL    MW415410   6.386   3.455   4.423  0.0395  0.2051 -0.1493
 3910SOL     OW15411   3.636   1.509   2.532  0.0483 -0.1354  0.2893
 3910SOL    HW215412   3.606   1.455   2.459  1.3437  0.8781 -1.0797
 3910SOL    HW315413   3.557   1.534   2.578 -0.6390 -2.5268  0.5203
 3910SOL    MW415414   3.622   1.505   2.528  0.1286 -0.3172  0.1392
 3911SOL     OW15415   5.802   2.360   1.106  0.0456 -0.3997 -0.1894
 3911SOL    HW215416   5.775   2.282   1.156 -0.0886 -0.4102 -0.2776
 3911SOL    HW315417   5.854   2.326   1.034 -0.2141 -0.4275 -0.3653
 3911SOL    MW415418   5.805   2.345   1.103 -0.0064 -0.4047 -0.2242
 3912SOL     OW15419   1.398   5.167   5.745 -0.2518 -0.1089 -0.1460
 3912SOL    HW215420   1.362   5.138   5.829 -0.2202  1.0941  0.2997
 3912SOL    HW315421   1.493   5.162   5.757 -0.2462  0.2746 -0.0355
 3912SOL    MW415422   1.405   5.162   5.758 -0.2469  0.1004 -0.0726
 3913SOL     OW15423   1.024   0.630   1.618  0.5056  0.1631 -1.0234
 3913SOL    HW215424   0.938   0.634   1.575 -0.9782  0.1509  1.7465
 3913SOL    HW315425   1.006   0.596   1.706  3.4890 -0.6594 -0.6008
 3913SOL    MW415426   1.010   0.626   1.624  0.7035  0.0530 -0.6022
 3914SOL     OW15427   4.841   2.886   0.431 -0.1544  0.0743 -0.5127
 3914SOL    HW215428   4.909   2.888   0.364 -0.2386  0.3607 -0.5917
 3914SOL    HW315429   4.804   2.798   0.425  2.0878 -1.1010  1.4370
 3914SOL    MW415430   4.845   2.875   0.421  0.1304 -0.0430 -0.2659
 3915SOL     OW15431   3.974   0.739   4.708 -0.8358  0.4252  0.1144
 3915SOL    HW215432   4.015   0.717   4.791  1.4338 -1.6035 -1.4398
 3915SOL    HW315433   4.036   0.798   4.665 -2.0858  1.6343 -0.1100
 3915SOL    MW415434   3.987   0.744   4.714 -0.7013  0.3170 -0.1203
 3916SOL     OW15435   0.292   6.303   1.954 -0.2563  0.2595 -0.0309
 3916SOL    HW215436   0.320   6.214   1.975  0.5566  0.4096 -0.4429
 3916SOL    HW315437   0.255   6.336   2.035  0.3460 -0.1171  0.4068
 3916SOL    MW415438   0.291   6.296   1.967 -0.0695  0.2296 -0.0275
 3917SOL     OW15439   2.227   0.034   4.667 -0.0098 -0.6905  0.0047
 3917SOL    HW215440   2.283   0.042   4.744 -0.8443 -0.7580  0.6267
 3917SOL    HW315441   2.223   0.122   4.631  0.2197 -0.6179  0.1516
 3917SOL    MW415442   2.234   0.047   4.672 -0.0896 -0.6898  0.1061
 3918SOL     OW15443   4.350   3.060   1.829  1.1841 -0.1793  0.4179
 3918SOL    HW215444   4.367   3.106   1.912 -0.0823 -0.3982  0.8179
 3918SOL    HW315445   4.350   3.130   1.763  0.9580  0.1779  0.7860
 3918SOL    MW415446   4.352   3.076   1.831  0.9872 -0.1611  0.5192
 3919SOL     OW15447   5.586   3.682   3.368 -0.0510 -0.1001  0.4305
 3919SOL    HW215448   5.581   3.689   3.463 -0.4898 -0.9431  0.4759
 3919SOL    HW315449   5.658   3.621   3.352 -1.1424 -1.3904  0.2924
 3919SOL    MW415450   5.595   3.675   3.378 -0.2529 -0.3816  0.4183
 3920SOL     OW15451   2.226   4.638   3.265  0.6692 -0.4930  0.4659
 3920SOL    HW215452   2.314   4.617   3.233 -0.2041  0.1835 -2.7236
 3920SOL    HW315453   2.189   4.553   3.289  1.2263 -1.1680 -0.9592
 3920SOL    MW415454   2.233   4.624   3.264  0.6275 -0.4928 -0.1430
 3921SOL     OW15455   6.313   5.692   4.567  0.2573  0.2192  0.1486
 3921SOL    HW215456   6.278   5.731   4.486 -0.3830 -0.3248  0.1521
 3921SOL    HW315457   6.306   5.762   4.632  0.7575  0.6540 -0.2608
 3921SOL    MW415458   6.307   5.706   4.565  0.2388  0.2048  0.0951
 3922SOL     OW15459   6.120   4.586   1.436  0.0642 -0.1167 -0.2961
 3922SOL    HW215460   6.189   4.636   1.392  2.7965 -1.9912  1.5557
 3922SOL    HW315461   6.107   4.509   1.381  0.7530 -0.6059  0.2042
 3922SOL    MW415462   6.127   4.583   1.423  0.5156 -0.4285  0.0143
 3923SOL     OW15463   2.696   0.991   1.961  0.2275  0.1960  0.0690
 3923SOL    HW215464   2.649   0.993   2.044 -0.9428  0.4851 -0.5727
 3923SOL    HW315465   2.747   0.910   1.964 -0.3569 -0.1612  0.7737
 3923SOL    MW415466   2.696   0.981   1.972 -0.0040  0.1870  0.0773
 3924SOL     OW15467   4.544   2.648   4.047 -0.2039 -0.2071 -0.0182
 3924SOL    HW215468   4.601   2.657   3.971  0.3623 -2.2622  0.1202
 3924SOL    HW315469   4.459   2.623   4.011 -0.1341 -0.4370 -0.0241
 3924SOL    MW415470   4.541   2.646   4.032 -0.1200 -0.5086 -0.0007
 3925SOL     OW15471   5.896   1.436   4.252 -0.1161  0.4669 -0.3136
 3925SOL    HW215472   5.882   1.490   4.330  2.2297 -1.5046  1.6315
 3925SOL    HW315473   5.960   1.486   4.200  1.1600  0.1760  0.9102
 3925SOL    MW415474   5.903   1.450   4.255  0.3617  0.1684  0.1045
 3926SOL     OW15475   5.651   5.556   0.757  0.3556  0.5205 -0.2451
 3926SOL    HW215476   5.720   5.621   0.744  1.1586 -0.0110  1.1220
 3926SOL    HW315477   5.697   5.472   0.753 -0.0021  0.1818  1.5975
 3926SOL    MW415478   5.666   5.553   0.755  0.4143  0.4057  0.1784
 3927SOL     OW15479   5.879   2.537   6.305  0.2192  0.3785  0.6799
 3927SOL    HW215480   5.870   2.632   6.292  0.9318  0.5680  1.4453
 3927SOL    HW315481   5.791   2.507   6.324 -0.1654  0.7388 -0.4601
 3927SOL    MW415482   5.867   2.546   6.306  0.2625  0.4510  0.6305
 3928SOL     OW15483   1.210   2.800   3.487  0.0571 -0.0210 -0.3571
 3928SOL    HW215484   1.210   2.743   3.410 -1.0360  0.0184 -0.4044
 3928SOL    HW315485   1.123   2.840   3.486 -0.1446 -0.3799  1.1486
 3928SOL    MW415486   1.199   2.798   3.477 -0.1137 -0.0631 -0.1647
 3929SOL     OW15487   2.527   1.564   1.475 -0.0402  0.5252 -0.1186
 3929SOL    HW215488   2.440   1.529   1.493 -0.8690  2.6564  0.2903
 3929SOL    HW315489   2.529   1.648   1.521  2.1178  0.6810 -0.4013
 3929SOL    MW415490   2.516   1.570   1.484  0.1351  0.8270 -0.1019
 3930SOL     OW15491   3.963   2.911   6.176 -0.3075  0.1311  0.1548
 3930SOL    HW215492   4.046   2.928   6.130  0.2006  0.5614  1.1935
 3930SOL    HW315493   3.990   2.872   6.259 -1.1679  0.0779  0.4103
 3930SOL    MW415494   3.978   2.908   6.181 -0.3540  0.1808  0.3255
 3931SOL     OW15495   6.024   3.424   4.760  0.3290  0.0423  0.1131
 3931SOL    HW215496   6.064   3.475   4.830  0.5126 -0.4244  0.3487
 3931SOL    HW315497   5.972   3.358   4.805 -1.0228  0.8643 -0.1744
 3931SOL    MW415498   6.022   3.422   4.775  0.1749  0.0892  0.1062
 3932SOL     OW15499   4.604   2.390   3.296  0.6294  0.1331  0.3590
 3932SOL    HW215500   4.669   2.459   3.309  0.9012  0.3710 -1.9086
 3932SOL    HW315501   4.644   2.332   3.231 -1.2922  0.1377 -0.8945
 3932SOL    MW415502   4.618   2.391   3.289  0.4118  0.1651 -0.1056
 3933SOL     OW15503   4.489   2.602   6.418  0.5752  0.4605  0.1015
 3933SOL    HW215504   4.502   2.697   6.413  0.1508  0.8040  3.3399
 3933SOL    HW315505   4.557   2.572   6.478 -0.9294 -0.8138  1.2564
 3933SOL    MW415506   4.499   2.611   6.426  0.3207  0.3377  0.6811
 3934SOL     OW15507   1.913   1.059   2.935 -0.1103 -0.1467  0.1343
 3934SOL    HW215508   1.981   1.114   2.974 -0.6442  0.6201 -0.0073
 3934SOL    HW315509   1.859   1.031   3.009  0.5400 -1.0349  0.2918
 3934SOL    MW415510   1.915   1.062   2.950 -0.0949 -0.1627  0.1364
 3935SOL     OW15511   4.962   0.825   0.273  0.0673  0.2684 -0.4410
 3935SOL    HW215512   4.888   0.877   0.242  0.1471  1.2342  0.9079
 3935SOL    HW315513   5.039   0.873   0.242  0.1349  0.7621  0.4487
 3935SOL    MW415514   4.963   0.838   0.265  0.0868  0.4610 -0.1456
 3936SOL     OW15515   3.275   0.227   2.015  0.3877 -0.1858  0.1407
 3936SOL    HW215516   3.245   0.136   2.020 -1.0648  0.3077  1.3272
 3936SOL    HW315517   3.360   0.222   1.973 -0.4822 -1.9001 -1.5714
 3936SOL    MW415518   3.282   0.214   2.010  0.0813 -0.3469  0.0713
 3937SOL     OW15519   5.270   4.571   1.500 -1.0998 -0.2310 -0.3718
 3937SOL    HW215520   5.341   4.635   1.511 -1.3199 -0.3301  2.1643
 3937SOL    HW315521   5.192   4.625   1.489 -1.0789 -0.0581  0.2716
 3937SOL    MW415522   5.269   4.587   1.500 -1.1261 -0.2212  0.0477
 3938SOL     OW15523   0.183   6.061   0.384  0.7367 -0.8480  0.2915
 3938SOL    HW215524   0.139   6.107   0.313  0.8068  0.3656  1.0047
 3938SOL    HW315525   0.120   5.995   0.413 -1.0938  1.4137  1.8719
 3938SOL    MW415526   0.169   6.058   0.379  0.5045 -0.3895  0.5941
 3939SOL     OW15527   3.486   2.373   5.202 -0.2897 -0.0870  0.0147
 3939SOL    HW215528   3.581   2.387   5.196 -0.1149 -0.8091  0.9986
 3939SOL    HW315529   3.452   2.454   5.239  0.0426 -0.1148  0.3865
 3939SOL    MW415530   3.494   2.386   5.206 -0.2228 -0.1859  0.1935
 3940SOL     OW15531   2.471   5.911   2.333  0.0391 -0.0297 -0.3441
 3940SOL    HW215532   2.426   5.991   2.303  1.0355  0.3282 -0.9061
 3940SOL    HW315533   2.493   5.865   2.252 -1.4769 -1.4381 -0.0045
 3940SOL    MW415534   2.468   5.916   2.318 -0.0295 -0.1683 -0.3734
 3941SOL     OW15535   4.552   4.356   1.956 -0.1995 -0.3357 -0.7938
 3941SOL    HW215536   4.472   4.304   1.947 -0.7369  0.4731 -0.8155
 3941SOL    HW315537   4.618   4.307   1.908 -0.2031 -1.9724  0.7604
 3941SOL    MW415538   4.550   4.343   1.949 -0.2709 -0.4449 -0.5916
 3942SOL     OW15539   2.472   2.318   4.948  0.3240 -0.0685 -0.1521
 3942SOL    HW215540   2.400   2.264   4.981 -0.4069  0.3628 -0.9814
 3942SOL    HW315541   2.548   2.261   4.949  0.0583 -0.4313  1.0866
 3942SOL    MW415542   2.472   2.303   4.953  0.1925 -0.0594 -0.0981
 3943SOL     OW15543   3.194   0.736   0.381 -0.0923 -0.6063  0.0543
 3943SOL    HW215544   3.143   0.697   0.310  0.2369  1.3591 -1.3473
 3943SOL    HW315545   3.284   0.710   0.363 -0.0554 -0.4390  0.0026
 3943SOL    MW415546   3.199   0.727   0.370 -0.0440 -0.3250 -0.1374
 3944SOL     OW15547   5.452   2.517   3.978  0.0221  0.4972 -0.2435
 3944SOL    HW215548   5.462   2.424   3.996 -0.6156  0.3411 -0.6684
 3944SOL    HW315549   5.391   2.521   3.905  0.7182  1.2098 -0.8078
 3944SOL    MW415550   5.445   2.505   3.971  0.0298  0.5706 -0.3740
 3945SOL     OW15551   2.248   2.522   5.163 -0.0708 -0.6619  0.1128
 3945SOL    HW215552   2.319   2.470   5.200  0.8133  1.1080  1.0736
 3945SOL    HW315553   2.243   2.599   5.220 -1.5693  0.1074 -0.9953
 3945SOL    MW415554   2.257   2.526   5.175 -0.1518 -0.3269  0.0934
 3946SOL     OW15555   4.187   3.842   2.358 -0.4257  0.1689 -0.2005
 3946SOL    HW215556   4.178   3.820   2.451 -2.9925 -0.9849 -0.6237
 3946SOL    HW315557   4.272   3.807   2.332 -0.5327 -1.2777  1.2707
 3946SOL    MW415558   4.197   3.835   2.367 -0.7784 -0.1742 -0.0622
 3947SOL     OW15559   3.362   0.329   1.454  0.3139  0.1604 -0.2241
 3947SOL    HW215560   3.301   0.254   1.456  1.3997 -0.7316  1.9093
 3947SOL    HW315561   3.305   0.406   1.449 -0.9172 -0.7207 -0.2117
 3947SOL    MW415562   3.346   0.329   1.453  0.2947 -0.0736  0.0590
 3948SOL     OW15563   3.257   3.930   5.414 -0.6771  0.3739 -0.1020
 3948SOL    HW215564   3.311   3.860   5.376 -2.5442 -0.9027 -0.5276
 3948SOL    HW315565   3.256   3.998   5.347 -0.8095 -0.2273 -0.7198
 3948SOL    MW415566   3.264   3.930   5.400 -0.9409  0.1261 -0.2396
 3949SOL     OW15567   4.830   6.409   2.234 -0.0531  0.3175 -0.1702
 3949SOL    HW215568   4.765   6.339   2.248  0.0271  0.4993  1.2139
 3949SOL    HW315569   4.845   6.445   2.321  1.4843  0.6728 -0.5679
 3949SOL    MW415570   4.823   6.404   2.247  0.1603  0.3883 -0.0401
 3950SOL     OW15571   0.158   4.702   2.877 -0.6522  0.2082  0.0040
 3950SOL    HW215572   0.168   4.776   2.937 -0.8455 -0.8690  1.4175
 3950SOL    HW315573   0.196   4.628   2.924  0.0215 -0.5181 -1.5958
 3950SOL    MW415574   0.165   4.702   2.891 -0.5888 -0.0297 -0.0206
 3951SOL     OW15575   2.937   2.006   2.862  0.3049  0.5500 -0.3891
 3951SOL    HW215576   2.976   1.942   2.801 -0.6243  0.2386 -0.6766
 3951SOL    HW315577   2.899   1.952   2.932  0.6904  0.8675  0.0678
 3951SOL    MW415578   2.937   1.990   2.863  0.2332  0.5508 -0.3667
 3952SOL     OW15579   4.859   2.780   3.533 -0.5994 -0.5148 -0.1621
 3952SOL    HW215580   4.936   2.837   3.533  0.8431 -2.2335  2.5332
 3952SOL    HW315581   4.866   2.730   3.452  0.0071  0.7234 -0.8955
 3952SOL    MW415582   4.870   2.781   3.523 -0.3291 -0.5782  0.0968
 3953SOL     OW15583   0.811   1.765   3.660  0.2576  0.1966  0.2110
 3953SOL    HW215584   0.852   1.688   3.621  0.6477 -0.2145  1.3775
 3953SOL    HW315585   0.812   1.831   3.591 -0.4155 -0.9445 -0.9387
 3953SOL    MW415586   0.816   1.764   3.646  0.2203 -0.0082  0.2132
 3954SOL     OW15587   5.754   5.621   2.572 -0.1955  0.2816 -0.3805
 3954SOL    HW215588   5.801   5.638   2.654 -0.5299 -1.4709  0.2071
 3954SOL    HW315589   5.775   5.696   2.517  2.8483 -0.1385  0.0297
 3954SOL    MW415590   5.763   5.633   2.576  0.1620 -0.0050 -0.2488
 3955SOL     OW15591   4.603   6.240   4.331  0.3482  0.4045 -0.3048
 3955SOL    HW215592   4.675   6.192   4.371  1.2175  2.0521  0.1718
 3955SOL    HW315593   4.537   6.173   4.313  1.6185 -0.9960  0.0817
 3955SOL    MW415594   4.604   6.225   4.334  0.6305  0.4371 -0.1909
 3956SOL     OW15595   5.640   6.003   0.528  0.6126 -0.3875 -0.2274
 3956SOL    HW215596   5.735   6.003   0.519  0.5054  0.3638 -1.5063
 3956SOL    HW315597   5.614   6.093   0.510 -0.4376 -0.8284 -1.0121
 3956SOL    MW415598   5.649   6.015   0.525  0.4599 -0.3466 -0.4997
 3957SOL     OW15599   1.438   2.099   5.316 -0.2009 -0.2443 -0.4239
 3957SOL    HW215600   1.414   2.010   5.289 -1.2548 -0.2251  0.3949
 3957SOL    HW315601   1.398   2.109   5.403  0.7922  0.6625 -0.0593
 3957SOL    MW415602   1.429   2.088   5.324 -0.2090 -0.1221 -0.2677
 3958SOL     OW15603   1.442   1.493   5.915 -0.1913  0.3990  0.6034
 3958SOL    HW215604   1.489   1.456   5.990  0.5234 -1.4637 -0.7010
 3958SOL    HW315605   1.510   1.509   5.849 -1.1550 -0.9783 -0.7869
 3958SOL    MW415606   1.457   1.490   5.916 -0.2241 -0.0284  0.2479
 3959SOL     OW15607   2.779   4.565   5.490 -0.6415 -0.6747  0.1402
 3959SOL    HW215608   2.853   4.524   5.445 -0.0282  0.7246 -0.1786
 3959SOL    HW315609   2.782   4.657   5.463 -2.5615 -0.5952  0.0704
 3959SOL    MW415610   2.789   4.572   5.481 -0.8139 -0.4796  0.0889
 3960SOL     OW15611   2.152   4.344   3.307  0.2741  0.1296  0.3948
 3960SOL    HW215612   2.192   4.350   3.394 -0.4288  1.3829  0.6568
 3960SOL    HW315613   2.058   4.349   3.324  0.0830 -0.5342 -0.3826
 3960SOL    MW415614   2.145   4.345   3.321  0.1561  0.2074  0.3268
 3961SOL     OW15615   2.447   3.793   3.880 -0.1774 -0.2825 -0.0341
 3961SOL    HW215616   2.408   3.706   3.872  0.6651 -0.7701  0.9649
 3961SOL    HW315617   2.374   3.851   3.903 -0.2164 -1.3553  2.9072
 3961SOL    MW415618   2.432   3.789   3.882 -0.0714 -0.4884  0.4857
 3962SOL     OW15619   5.683   0.897   5.480 -0.2432 -0.1754 -0.2447
 3962SOL    HW215620   5.767   0.863   5.450 -1.1709 -1.7733 -1.1758
 3962SOL    HW315621   5.638   0.924   5.399 -1.3640 -1.1695  0.0097
 3962SOL    MW415622   5.688   0.896   5.465 -0.5135 -0.5174 -0.3340
 3963SOL     OW15623   0.895   4.955   4.818  0.0200 -0.2624 -0.8234
 3963SOL    HW215624   0.867   4.864   4.815 -1.1214  0.0290  0.0795
 3963SOL    HW315625   0.972   4.959   4.761  1.1954 -2.1415  0.5189
 3963SOL    MW415626   0.901   4.944   4.810  0.0245 -0.4719 -0.5272
 3964SOL     OW15627   1.753   2.514   3.621 -0.1484 -0.0023  0.0036
 3964SOL    HW215628   1.798   2.591   3.588 -1.4742  2.0992  2.7190
 3964SOL    HW315629   1.823   2.456   3.651  0.8389  0.8346 -0.6283
 3964SOL    MW415630   1.768   2.516   3.620 -0.1930  0.3854  0.2785
 3965SOL     OW15631   6.367   1.475   2.806  0.6915  0.1129 -0.5722
 3965SOL    HW215632   6.323   1.392   2.787 -0.4083  0.8580 -1.5062
 3965SOL    HW315633   6.332   1.502   2.891  1.5104 -0.6539  0.0184
 3965SOL    MW415634   6.356   1.468   2.815  0.6544  0.1100 -0.6175
 3966SOL     OW15635   0.298   1.162   1.793  0.3430  0.1655  0.3807
 3966SOL    HW215636   0.317   1.117   1.710  2.0696 -0.8821  1.2935
 3966SOL    HW315637   0.298   1.255   1.770  0.3320 -0.1167 -0.8712
 3966SOL    MW415638   0.301   1.168   1.779  0.5694 -0.0100  0.3359
 3967SOL     OW15639   4.236   5.877   2.141  0.3702  0.9149  0.2303
 3967SOL    HW215640   4.205   5.792   2.112  0.5377  0.5396  1.1475
 3967SOL    HW315641   4.259   5.922   2.059 -0.1716  0.2745 -0.2924
 3967SOL    MW415642   4.235   5.872   2.126  0.3208  0.7809  0.2824
 3968SOL     OW15643   3.256   3.659   2.444  0.4890 -0.6789  0.2718
 3968SOL    HW215644   3.304   3.722   2.497 -2.5184  1.9994  0.1292
 3968SOL    HW315645   3.262   3.577   2.492  1.7866  0.5217  2.2772
 3968SOL    MW415646   3.263   3.657   2.457  0.2634 -0.1671  0.5175
 3969SOL     OW15647   4.668   5.086   3.785  0.4051 -0.3472  0.2703
 3969SOL    HW215648   4.626   5.102   3.700  0.6554  0.7669  0.3375
 3969SOL    HW315649   4.632   5.154   3.842  0.8228 -0.6097  0.8477
 3969SOL    MW415650   4.657   5.097   3.781  0.4932 -0.2348  0.3554
 3970SOL     OW15651   5.785   3.488   6.238 -0.2255  0.6355 -0.3493
 3970SOL    HW215652   5.809   3.563   6.293  1.7944  0.7393 -1.3046
 3970SOL    HW315653   5.750   3.527   6.158 -1.2833  0.4932  0.0165
 3970SOL    MW415654   5.783   3.503   6.235 -0.0985  0.6304 -0.4271
 3971SOL     OW15655   3.795   0.340   1.415  0.1788 -0.5423 -0.5952
 3971SOL    HW215656   3.763   0.348   1.325  0.6042  0.3144 -0.6804
 3971SOL    HW315657   3.759   0.257   1.446 -2.9598  0.7564 -0.3629
 3971SOL    MW415658   3.786   0.330   1.407 -0.1792 -0.2579 -0.5758
 3972SOL     OW15659   4.120   1.520   3.020  0.1324 -0.1881 -0.2160
 3972SOL    HW215660   4.180   1.464   3.069  0.1019  0.5805  0.7411
 3972SOL    HW315661   4.054   1.460   2.986  0.8890 -0.9122 -0.4321
 3972SOL    MW415662   4.119   1.505   3.022  0.2282 -0.1822 -0.1182
 3973SOL     OW15663   3.168   2.450   3.301 -0.3201  0.0530  0.0563
 3973SOL    HW215664   3.197   2.421   3.387  0.7852  0.7089 -0.0840
 3973SOL    HW315665   3.185   2.375   3.244 -1.8242 -0.6967  0.5186
 3973SOL    MW415666   3.174   2.436   3.305 -0.3727  0.0407  0.0988
 3974SOL     OW15667   0.949   4.889   3.020 -0.0975 -0.4393 -0.5960
 3974SOL    HW215668   1.014   4.826   3.051 -0.6033 -0.9896 -0.6363
 3974SOL    HW315669   0.996   4.942   2.955  0.0148 -1.5363 -1.4298
 3974SOL    MW415670   0.964   4.888   3.015 -0.1494 -0.6567 -0.7113
 3975SOL     OW15671   5.808   3.805   2.067 -0.1001  0.3014  0.2562
 3975SOL    HW215672   5.751   3.768   1.999 -1.8708  2.3343  0.5507
 3975SOL    HW315673   5.886   3.834   2.020  0.1465 -1.2495 -0.3691
 3975SOL    MW415674   5.811   3.804   2.051 -0.3012  0.3650  0.2125
 3976SOL     OW15675   3.815   1.371   6.074  0.0876 -0.0224  0.1359
 3976SOL    HW215676   3.735   1.408   6.113 -0.1690  0.3075 -0.6780
 3976SOL    HW315677   3.846   1.440   6.015  0.2025 -0.6890 -0.5917
 3976SOL    MW415678   3.808   1.385   6.072  0.0689 -0.0668 -0.0675
 3977SOL     OW15679   6.252   0.514   6.359 -0.5702 -0.6770  0.4374
 3977SOL    HW215680   6.160   0.491   6.345 -0.0958 -2.6371  0.1628
 3977SOL    HW315681   6.254   0.609   6.362 -2.2361 -0.4621 -2.2518
 3977SOL    MW415682   6.240   0.523   6.357 -0.7274 -0.9073  0.0463
 3978SOL     OW15683   2.345   6.312   6.312  0.4035 -0.0903 -0.4313
 3978SOL    HW215684   2.419   6.251   6.314  1.1897  0.8402  1.9202
 3978SOL    HW315685   2.385   6.398   6.321 -0.9607  0.4287  1.0900
 3978SOL    MW415686   2.360   6.315   6.313  0.3273  0.1009  0.0797
 3979SOL     OW15687   3.052   0.952   2.904 -0.5996 -0.0459 -0.3858
 3979SOL    HW215688   3.065   0.867   2.864 -0.2473 -1.5055  2.5361
 3979SOL    HW315689   3.129   1.003   2.879  1.4099 -2.1056  1.2423
 3979SOL    MW415690   3.064   0.948   2.896 -0.2880 -0.5102  0.2145
 3980SOL     OW15691   1.463   4.057   2.098 -0.5364 -0.2769 -0.8366
 3980SOL    HW215692   1.379   4.085   2.135 -0.2506 -0.3138 -0.1420
 3980SOL    HW315693   1.481   3.973   2.142  1.2458  1.0688  1.2307
 3980SOL    MW415694   1.454   4.049   2.109 -0.2635 -0.1042 -0.4722
 3981SOL     OW15695   5.545   3.376   6.337 -0.1120  0.1186 -0.1313
 3981SOL    HW215696   5.568   3.310   6.402  0.5220 -1.9113 -2.2708
 3981SOL    HW315697   5.628   3.418   6.313 -0.1756  0.1123 -0.3721
 3981SOL    MW415698   5.559   3.373   6.342 -0.0368 -0.1501 -0.4454
 3982SOL     OW15699   0.195   3.692   1.313  0.2299  0.0416  0.5594
 3982SOL    HW215700   0.216   3.784   1.298  2.4516 -0.3997  0.6677
 3982SOL    HW315701   0.119   3.694   1.372 -2.7921  1.7650 -2.9969
 3982SOL    MW415702   0.188   3.704   1.319  0.1243  0.2108  0.1045
 3983SOL     OW15703   5.237   5.199   1.314  0.0249  0.0129  0.4354
 3983SOL    HW215704   5.154   5.188   1.269  0.8000 -3.1398 -0.5082
 3983SOL    HW315705   5.288   5.255   1.257 -0.5289 -0.3214 -0.4022
 3983SOL    MW415706   5.233   5.205   1.301  0.0541 -0.4471  0.2004
 3984SOL     OW15707   4.136   5.705   5.237  0.0861 -0.3452  0.0631
 3984SOL    HW215708   4.059   5.649   5.245  0.0004 -0.1741  0.4806
 3984SOL    HW315709   4.131   5.741   5.149 -1.4573  1.3313  0.7915
 3984SOL    MW415710   4.125   5.702   5.226 -0.1288 -0.1014  0.2143
 3985SOL     OW15711   6.152   5.663   2.006 -0.6624 -0.2276 -0.1282
 3985SOL    HW215712   6.241   5.632   1.989 -0.8390 -1.0484  0.4148
 3985SOL    HW315713   6.099   5.584   2.011 -1.6499  0.2857 -1.5656
 3985SOL    MW415714   6.157   5.649   2.004 -0.8160 -0.2681 -0.2462
 3986SOL     OW15715   0.871   2.444   3.563  0.5510 -0.1627 -0.2783
 3986SOL    HW215716   0.918   2.390   3.500 -1.0411 -0.7472 -1.0079
 3986SOL    HW315717   0.779   2.426   3.547  0.0664 -0.1164  2.0459
 3986SOL    MW415718   0.865   2.435   3.553  0.2770 -0.2337 -0.0679
 3987SOL     OW15719   0.674   1.965   1.297 -0.4372  0.2080  0.7389
 3987SOL    HW215720   0.678   1.959   1.202  1.8241 -1.5712  0.8687
 3987SOL    HW315721   0.706   2.053   1.317 -1.8646  0.9755 -0.1099
 3987SOL    MW415722   0.679   1.976   1.287 -0.3272  0.0745  0.6441
 3988SOL     OW15723   5.652   4.930   4.736  0.5181 -0.4698 -0.5118
 3988SOL    HW215724   5.685   4.997   4.796  0.4339 -0.0075 -0.9834
 3988SOL    HW315725   5.726   4.870   4.725  1.1425  0.4414 -1.3901
 3988SOL    MW415726   5.666   4.931   4.743  0.5894 -0.2886 -0.6899
 3989SOL     OW15727   3.715   1.136   5.927  0.8124 -0.5697  0.9567
 3989SOL    HW215728   3.672   1.088   5.997 -0.9746 -0.0084  0.3075
 3989SOL    HW315729   3.744   1.218   5.968  0.8308 -0.7526  1.3109
 3989SOL    MW415730   3.713   1.141   5.941  0.5790 -0.5198  0.9177
 3990SOL     OW15731   1.249   2.282   2.515 -0.5818  0.1903 -0.2009
 3990SOL    HW215732   1.277   2.191   2.512 -3.0771 -0.6697  0.6040
 3990SOL    HW315733   1.323   2.328   2.554  0.4551 -1.5970  0.0630
 3990SOL    MW415734   1.263   2.276   2.520 -0.7742 -0.1590 -0.0599
 3991SOL     OW15735   0.239   5.770   1.792  1.2383 -0.0145 -0.1079
 3991SOL    HW215736   0.231   5.728   1.706  2.3503  0.1560 -0.3037
 3991SOL    HW315737   0.208   5.859   1.778  0.4398 -0.2747 -0.0758
 3991SOL    MW415738   0.234   5.776   1.779  1.2797 -0.0264 -0.1295
 3992SOL     OW15739   0.944   2.604   2.736 -0.0711 -0.2411 -0.2283
 3992SOL    HW215740   0.944   2.565   2.824 -0.7005 -1.7413 -0.8572
 3992SOL    HW315741   0.957   2.530   2.677 -0.2555  0.6585 -1.4306
 3992SOL    MW415742   0.945   2.589   2.740 -0.1785 -0.3203 -0.4699
 3993SOL     OW15743   5.028   4.119   0.333 -1.0354  0.6367  0.5567
 3993SOL    HW215744   5.065   4.033   0.353 -1.3271  0.9702  2.7905
 3993SOL    HW315745   5.105   4.176   0.322 -0.8303  0.4903  1.1550
 3993SOL    MW415746   5.043   4.115   0.334 -1.0468  0.6614  0.9303
 3994SOL     OW15747   5.488   4.628   3.892  0.3390 -0.5641 -0.3153
 3994SOL    HW215748   5.405   4.665   3.920 -0.5623 -4.2177  2.6679
 3994SOL    HW315749   5.554   4.672   3.946 -0.4032 -1.3140  1.2861
 3994SOL    MW415750   5.486   4.638   3.903  0.1221 -1.1451  0.2896
 3995SOL     OW15751   0.016   0.381   6.198 -0.1705 -0.1763 -0.0992
 3995SOL    HW215752   0.005   0.446   6.267 -0.5007 -0.4654  0.1247
 3995SOL    HW315753   0.103   0.344   6.213 -0.2085 -0.1796  0.1118
 3995SOL    MW415754   0.026   0.385   6.209 -0.2191 -0.2149 -0.0418
 3996SOL     OW15755   3.163   1.717   3.295  0.0195  0.3714 -0.1992
 3996SOL    HW215756   3.165   1.662   3.217 -0.4875 -0.9681  0.6942
 3996SOL    HW315757   3.070   1.729   3.314  0.1197  1.6275 -0.4170
 3996SOL    MW415758   3.151   1.712   3.287 -0.0342  0.3604 -0.1101
 3997SOL     OW15759   0.831   3.345   1.273 -0.2179 -0.0389 -0.5716
 3997SOL    HW215760   0.804   3.431   1.242 -0.2720 -0.0719 -0.6158
 3997SOL    HW315761   0.860   3.299   1.195  0.3176  0.1236 -0.4762
 3997SOL    MW415762   0.832   3.350   1.259 -0.1544 -0.0218 -0.5648
 3998SOL     OW15763   2.258   1.384   1.515 -0.5470 -0.0222  0.1408
 3998SOL    HW215764   2.242   1.303   1.467 -0.6195  0.1416 -0.1139
 3998SOL    HW315765   2.222   1.368   1.602 -1.4057  0.0649 -0.1901
 3998SOL    MW415766   2.252   1.371   1.520 -0.6699  0.0109  0.0635
 3999SOL     OW15767   0.873   0.303   3.736  0.3589  0.1166  0.0319
 3999SOL    HW215768   0.894   0.396   3.728  0.4671  0.0326 -0.7335
 3999SOL    HW315769   0.778   0.299   3.721  0.2240  0.1862  0.8270
 3999SOL    MW415770   0.863   0.315   3.733  0.3554  0.1147  0.0358
 4000SOL     OW15771   5.147   2.537   4.334  0.1047  0.4362  0.2192
 4000SOL    HW215772   5.235   2.575   4.332 -0.1396  0.9842 -0.3485
 4000SOL    HW315773   5.100   2.581   4.263 -1.0785  1.2635  1.4668
 4000SOL    MW415774   5.152   2.548   4.325 -0.0836  0.6177  0.3089
 4001SOL     OW15775   1.624   5.788   0.659 -0.0446  0.1927  0.0133
 4001SOL    HW215776   1.643   5.870   0.704 -0.1965  0.3388 -0.1873
 4001SOL    HW315777   1.529   5.787   0.652  0.0322  0.6956 -1.2785
 4001SOL    MW415778   1.614   5.799   0.664 -0.0545  0.2783 -0.1836
 4002SOL     OW15779   3.804   5.947   3.934 -0.1735 -0.0340 -0.6410
 4002SOL    HW215780   3.737   5.907   3.990 -1.5210  2.1912 -0.5823
 4002SOL    HW315781   3.872   5.880   3.928 -0.7003 -0.9876  2.3352
 4002SOL    MW415782   3.804   5.933   3.941 -0.4208  0.1338 -0.2406
 4003SOL     OW15783   3.241   0.298   4.751 -0.1798 -0.6388  0.1041
 4003SOL    HW215784   3.328   0.326   4.779  0.6865 -2.2788 -0.7618
 4003SOL    HW315785   3.238   0.205   4.775 -1.2202 -0.8986 -0.9403
 4003SOL    MW415786   3.252   0.289   4.758 -0.2028 -0.8894 -0.1479
 4004SOL     OW15787   0.379   1.940   3.835  0.8989 -0.0359 -0.2246
 4004SOL    HW215788   0.430   1.875   3.786 -2.7958 -2.2888 -1.4540
 4004SOL    HW315789   0.328   1.889   3.898  0.7242  2.1696  1.5687
 4004SOL    MW415790   0.379   1.925   3.837  0.3884 -0.0422 -0.1502
 4005SOL     OW15791   3.748   5.312   5.309 -0.1646 -0.6119  0.2008
 4005SOL    HW215792   3.733   5.290   5.401  1.8631  0.4782  0.8739
 4005SOL    HW315793   3.786   5.233   5.271 -1.7573 -1.3332  0.0631
 4005SOL    MW415794   3.751   5.299   5.316 -0.1072 -0.5632  0.2714
 4006SOL     OW15795   2.779   5.785   4.026  0.3962 -0.3244 -0.2666
 4006SOL    HW215796   2.836   5.849   4.068  1.2044 -0.2115 -1.4638
 4006SOL    HW315797   2.785   5.707   4.080 -0.9570  0.7227  1.4743
 4006SOL    MW415798   2.788   5.783   4.038  0.3243 -0.1714 -0.1949
 4007SOL     OW15799   2.174   1.457   6.163 -0.6395  0.0535 -0.3568
 4007SOL    HW215800   2.193   1.551   6.160  1.2900 -0.1563  1.9246
 4007SOL    HW315801   2.096   1.450   6.217 -0.1272  0.3232  0.4420
 4007SOL    MW415802   2.166   1.469   6.170 -0.3173  0.0614  0.0496
 4008SOL     OW15803   1.630   1.413   3.806 -0.3145  0.1343  0.1719
 4008SOL    HW215804   1.698   1.346   3.804  0.0111  0.4516 -2.0047
 4008SOL    HW315805   1.558   1.373   3.855  0.6381 -0.9896  0.7148
 4008SOL    MW415806   1.630   1.399   3.812 -0.1458  0.0279 -0.0436
 4009SOL     OW15807   6.276   0.440   3.651  0.2148 -0.2008  0.4054
 4009SOL    HW215808   6.270   0.438   3.746  0.4473 -1.4370  0.4134
 4009SOL    HW315809   6.186   0.437   3.621  0.1195  0.6373  0.5730
 4009SOL    MW415810   6.263   0.440   3.660  0.2329 -0.2533  0.4285
 4010SOL     OW15811   5.876   3.960   4.660 -0.2463 -0.3825 -0.0207
 4010SOL    HW215812   5.910   3.871   4.667 -1.8030 -0.9520  0.8444
 4010SOL    HW315813   5.829   3.961   4.577 -0.8740 -0.6120  0.3284
 4010SOL    MW415814   5.874   3.948   4.650 -0.5345 -0.4879  0.1395
 4011SOL     OW15815   2.812   0.445   3.523  0.4434  0.7535  0.2897
 4011SOL    HW215816   2.749   0.388   3.479  1.2912  0.2120 -0.2418
 4011SOL    HW315817   2.758   0.508   3.570 -0.5009  1.0260 -1.1052
 4011SOL    MW415818   2.796   0.446   3.524  0.4307  0.7180  0.0355
 4012SOL     OW15819   3.658   5.336   3.836  0.3737 -0.0387 -0.1934
 4012SOL    HW215820   3.742   5.360   3.797 -0.0728 -2.2170 -2.8324
 4012SOL    HW315821   3.680   5.280   3.910  1.3430 -1.7372 -1.6858
 4012SOL    MW415822   3.672   5.332   3.840  0.4427 -0.5502 -0.7385
 4013SOL     OW15823   0.390   0.399   4.386 -0.1532 -0.2272 -0.1429
 4013SOL    HW215824   0.331   0.325   4.397 -0.3276  0.0625  0.9940
 4013SOL    HW315825   0.453   0.370   4.320  1.4387 -2.4602  2.1681
 4013SOL    MW415826   0.390   0.386   4.378  0.0338 -0.4836  0.3120
 4014SOL     OW15827   1.698   0.605   4.565 -0.2481 -0.4193 -0.1615
 4014SOL    HW215828   1.659   0.518   4.553  0.8751 -0.9254 -0.2590
 4014SOL    HW315829   1.712   0.637   4.476  0.0537 -0.4640 -0.1288
 4014SOL    MW415830   1.694   0.598   4.552 -0.0601 -0.4920 -0.1701
 4015SOL     OW15831   2.896   2.261   5.432 -0.6052  0.4949 -0.2282
 4015SOL    HW215832   2.842   2.312   5.492 -1.0344  1.6199 -1.5325
 4015SOL    HW315833   2.833   2.214   5.377 -0.2368  0.6938 -0.8248
 4015SOL    MW415834   2.881   2.261   5.433 -0.6132  0.6696 -0.4790
 4016SOL     OW15835   5.101   6.395   1.471 -0.3235  0.1049  0.6375
 4016SOL    HW215836   5.150   6.315   1.491 -0.5963 -0.2534 -0.0706
 4016SOL    HW315837   5.121   6.413   1.379 -0.2857  0.8415  0.7867
 4016SOL    MW415838   5.110   6.386   1.461 -0.3545  0.1548  0.5638
 4017SOL     OW15839   4.969   5.605   6.177  0.5046  0.0681  0.6214
 4017SOL    HW215840   4.885   5.632   6.215  0.8479  0.5709  1.0418
 4017SOL    HW315841   5.010   5.687   6.149  0.5057 -0.2490 -0.3319
 4017SOL    MW415842   4.964   5.620   6.179  0.5500  0.0926  0.5511
 4018SOL     OW15843   4.345   1.866   4.484  0.2755  0.3771  0.1489
 4018SOL    HW215844   4.358   1.817   4.403 -1.0492 -1.0799  0.7764
 4018SOL    HW315845   4.399   1.821   4.549 -0.6074 -0.0124  0.6303
 4018SOL    MW415846   4.354   1.854   4.482 -0.0158  0.1335  0.2952
 4019SOL     OW15847   1.694   6.309   3.866 -0.1134  0.2364  0.4776
 4019SOL    HW215848   1.730   6.294   3.778 -0.7239  0.4291  0.1881
 4019SOL    HW315849   1.628   6.240   3.877  0.8313 -0.5755  1.3011
 4019SOL    MW415850   1.690   6.298   3.856 -0.0693  0.1547  0.5480
 4020SOL     OW15851   3.903   3.697   2.289 -0.3174  0.1570 -0.7770
 4020SOL    HW215852   3.863   3.780   2.316  0.7725  0.5323 -0.2488
 4020SOL    HW315853   3.885   3.637   2.362 -2.9002 -0.7371 -2.0246
 4020SOL    MW415854   3.895   3.700   2.302 -0.5143  0.0886 -0.8719
 4021SOL     OW15855   4.793   4.387   4.462  0.0462 -0.3104  0.3549
 4021SOL    HW215856   4.799   4.480   4.445  0.0763 -0.4898 -0.6827
 4021SOL    HW315857   4.703   4.364   4.441  0.5450 -0.8614 -1.3133
 4021SOL    MW415858   4.782   4.396   4.457  0.1160 -0.4068 -0.0021
 4022SOL     OW15859   0.972   2.126   0.964 -0.1188  0.0750  0.1388
 4022SOL    HW215860   0.924   2.209   0.961 -0.7452 -0.2931 -0.0161
 4022SOL    HW315861   0.977   2.105   1.057 -1.4698 -0.5838  0.0733
 4022SOL    MW415862   0.966   2.134   0.976 -0.3797 -0.0605  0.1097
 4023SOL     OW15863   1.241   2.759   5.184 -0.4112 -0.1088 -0.4690
 4023SOL    HW215864   1.331   2.725   5.181  0.1098  0.9999  1.0458
 4023SOL    HW315865   1.225   2.793   5.096  0.0144 -1.8257 -1.2423
 4023SOL    MW415866   1.251   2.759   5.172 -0.2863 -0.1890 -0.3711
 4024SOL     OW15867   0.026   2.640   3.199 -0.1919 -0.9097 -0.6377
 4024SOL    HW215868   0.104   2.693   3.186  0.5416 -1.4337  1.2552
 4024SOL    HW315869  -0.036   2.698   3.243  0.1414 -1.2525  0.2929
 4024SOL    MW415870   0.028   2.654   3.203 -0.0511 -1.0240 -0.2652
 4025SOL     OW15871   6.083   5.357   2.771  0.0496 -0.2819  0.0278
 4025SOL    HW215872   6.013   5.364   2.706  0.5791 -0.6977 -0.5968
 4025SOL    HW315873   6.164   5.371   2.721  0.4997 -1.1194  0.4955
 4025SOL    MW415874   6.084   5.360   2.756  0.1789 -0.4473  0.0071
 4026SOL     OW15875   0.366   0.869   0.844 -0.8145  0.3485 -0.4418
 4026SOL    HW215876   0.297   0.823   0.893 -0.6575 -1.1043 -1.5411
 4026SOL    HW315877   0.411   0.800   0.796  0.4057  1.4928 -0.9758
 4026SOL    MW415878   0.363   0.854   0.844 -0.6328  0.3078 -0.6573
 4027SOL     OW15879   4.333   3.468   5.911  0.0386 -0.1233 -0.2478
 4027SOL    HW215880   4.385   3.419   5.975 -2.6002  0.2698  2.4362
 4027SOL    HW315881   4.357   3.559   5.925 -0.1876 -0.0828 -0.0999
 4027SOL    MW415882   4.343   3.474   5.922 -0.3394 -0.0661  0.1258
 4028SOL     OW15883   0.958   4.323   2.853 -0.6115  0.1100 -0.6426
 4028SOL    HW215884   0.963   4.354   2.763  0.4526  0.7269 -0.3863
 4028SOL    HW315885   0.969   4.401   2.907  0.9865 -0.5158  0.0080
 4028SOL    MW415886   0.960   4.337   2.848 -0.2602  0.1088 -0.5230
 4029SOL     OW15887   1.208   2.185   3.756  0.2656  0.2212 -0.3029
 4029SOL    HW215888   1.262   2.167   3.679  0.6075  0.5021 -0.1305
 4029SOL    HW315889   1.134   2.124   3.749 -0.5365  1.2949 -1.6711
 4029SOL    MW415890   1.205   2.174   3.745  0.2049  0.3999 -0.4607
 4030SOL     OW15891   1.174   4.365   0.255 -0.2604 -0.1456 -0.0624
 4030SOL    HW215892   1.099   4.315   0.286 -1.0230  0.9616 -0.0638
 4030SOL    HW315893   1.216   4.398   0.335  0.6315 -1.3065 -0.0303
 4030SOL    MW415894   1.170   4.363   0.269 -0.2433 -0.1527 -0.0584
 4031SOL     OW15895   5.154   2.292   6.166  0.2015 -0.1950 -0.0213
 4031SOL    HW215896   5.215   2.282   6.093 -0.4902  2.1653 -0.9874
 4031SOL    HW315897   5.101   2.212   6.164 -0.2821  0.1095 -2.5963
 4031SOL    MW415898   5.155   2.280   6.156  0.0465  0.1566 -0.4885
 4032SOL     OW15899   3.077   3.765   0.358 -0.0428  0.7037 -0.0640
 4032SOL    HW215900   3.031   3.727   0.432  0.4519 -0.8619 -0.5088
 4032SOL    HW315901   3.023   3.838   0.330 -1.0779  0.2895  0.8127
 4032SOL    MW415902   3.064   3.769   0.364 -0.1141  0.4425 -0.0070
 4033SOL     OW15903   0.083   1.636   5.727  0.1485 -0.0812 -0.4729
 4033SOL    HW215904   0.107   1.683   5.647 -1.3776 -1.3301 -1.7297
 4033SOL    HW315905   0.083   1.544   5.701  0.3519 -0.5886  1.1970
 4033SOL    MW415906   0.086   1.630   5.713 -0.0260 -0.3129 -0.4184
 4034SOL     OW15907   5.426   1.136   0.494 -0.4569  0.3715 -0.6556
 4034SOL    HW215908   5.345   1.097   0.526 -0.4261 -0.2293 -1.2785
 4034SOL    HW315909   5.417   1.135   0.399  0.6308 -0.5136 -0.7758
 4034SOL    MW415910   5.414   1.131   0.486 -0.3093  0.1755 -0.7536
 4035SOL     OW15911   1.464   3.606   5.794 -0.4517  0.6612  0.4244
 4035SOL    HW215912   1.372   3.601   5.769 -0.5244  1.9426  0.3863
 4035SOL    HW315913   1.509   3.548   5.733 -0.9778  1.6001 -0.8869
 4035SOL    MW415914   1.458   3.598   5.783 -0.5307  0.9541  0.2464
 4036SOL     OW15915   0.436   1.408   1.465  0.2803 -0.0872 -0.0252
 4036SOL    HW215916   0.474   1.376   1.547  0.2758  0.0036  0.0126
 4036SOL    HW315917   0.385   1.485   1.491 -1.6241 -1.3590  0.2558
 4036SOL    MW415918   0.434   1.414   1.479  0.0284 -0.2430  0.0168
 4037SOL     OW15919   6.375   5.128   4.891 -0.4534  0.1693 -0.1361
 4037SOL    HW215920   6.418   5.148   4.974 -0.3925  0.5660 -0.2648
 4037SOL    HW315921   6.418   5.048   4.860 -2.0978 -1.4052  1.3964
 4037SOL    MW415922   6.386   5.120   4.898 -0.6623  0.0139  0.0491
 4038SOL     OW15923   1.883   0.975   3.353 -0.0173 -0.5078 -0.5281
 4038SOL    HW215924   1.943   1.046   3.328  0.7040 -0.9808 -0.1701
 4038SOL    HW315925   1.816   0.975   3.284  0.2766  0.1633 -0.8231
 4038SOL    MW415926   1.882   0.985   3.341  0.1166 -0.4816 -0.5198
 4039SOL     OW15927   2.843   0.739   3.197  0.1398  0.0113 -0.1776
 4039SOL    HW215928   2.836   0.724   3.291 -1.8370  1.3825 -0.0516
 4039SOL    HW315929   2.813   0.657   3.158  0.3353 -0.3330  0.3765
 4039SOL    MW415930   2.838   0.726   3.204 -0.0952  0.1468 -0.0878
 4040SOL     OW15931   5.051   1.965   0.650 -0.3913  0.4304 -0.4229
 4040SOL    HW215932   5.027   2.042   0.599 -0.8745  1.1768  0.8833
 4040SOL    HW315933   5.032   1.990   0.741 -0.9678 -1.3800 -0.0137
 4040SOL    MW415934   5.045   1.979   0.655 -0.5311  0.2900 -0.1966
 4041SOL     OW15935   0.658   0.898   3.091  0.1336  0.2444  0.1631
 4041SOL    HW215936   0.713   0.954   3.146 -1.0595  1.2828  0.3480
 4041SOL    HW315937   0.569   0.929   3.107 -0.4896 -1.1940 -0.3549
 4041SOL    MW415938   0.653   0.909   3.101 -0.1060  0.1916  0.1192
 4042SOL     OW15939   1.531   3.824   0.396 -0.2205  0.1201  0.2651
 4042SOL    HW215940   1.581   3.903   0.417  0.2513 -0.4073  1.2197
 4042SOL    HW315941   1.440   3.848   0.408 -0.0496  0.3800  1.0935
 4042SOL    MW415942   1.526   3.837   0.400 -0.1357  0.0848  0.5003
 4043SOL     OW15943   4.356   3.240   5.441 -1.2592 -0.3048 -0.6922
 4043SOL    HW215944   4.280   3.273   5.489 -0.9764 -0.4936 -0.1048
 4043SOL    HW315945   4.365   3.300   5.366 -0.7379  0.9888  0.3658
 4043SOL    MW415946   4.347   3.252   5.437 -1.1531 -0.1591 -0.4751
 4044SOL     OW15947   2.199   4.079   0.653  0.0749  0.3694  0.0585
 4044SOL    HW215948   2.294   4.066   0.658  0.1570  0.7641 -0.4084
 4044SOL    HW315949   2.184   4.159   0.703  0.1852  1.1351 -1.0862
 4044SOL    MW415950   2.210   4.088   0.660  0.1003  0.5225 -0.1541
 4045SOL     OW15951   5.329   2.043   2.071  0.0298 -0.1048  0.0673
 4045SOL    HW215952   5.373   1.972   2.116 -0.7906 -0.7450 -0.1247
 4045SOL    HW315953   5.320   2.012   1.980  0.3494  0.5586 -0.1994
 4045SOL    MW415954   5.333   2.030   2.065 -0.0363 -0.1017  0.0068
 4046SOL     OW15955   4.537   5.027   2.117 -0.1146 -0.0802  0.2992
 4046SOL    HW215956   4.543   5.094   2.185 -0.7013 -2.1235  2.4930
 4046SOL    HW315957   4.615   5.040   2.063 -0.6788  2.9119 -0.0094
 4046SOL    MW415958   4.548   5.038   2.118 -0.2665  0.0450  0.5479
 4047SOL     OW15959   4.275   5.818   2.921  0.0099  0.7302 -0.9320
 4047SOL    HW215960   4.182   5.833   2.908 -0.9065 -1.7873  1.8174
 4047SOL    HW315961   4.304   5.893   2.973 -0.5347  1.3230 -1.4598
 4047SOL    MW415962   4.267   5.830   2.926 -0.1828  0.4762 -0.6389
 4048SOL     OW15963   2.517   4.302   4.381 -0.3055 -0.0064  0.6214
 4048SOL    HW215964   2.456   4.229   4.393 -0.1096 -0.4471 -0.8695
 4048SOL    HW315965   2.477   4.355   4.312  1.9527 -1.4599 -1.9697
 4048SOL    MW415966   2.503   4.299   4.373  0.0183 -0.2563  0.0829
 4049SOL     OW15967   5.802   0.910   3.003 -0.0129 -0.1855  0.5554
 4049SOL    HW215968   5.744   0.941   3.073 -0.2305 -0.0406  0.3145
 4049SOL    HW315969   5.751   0.923   2.923  0.1850 -0.4719  0.3824
 4049SOL    MW415970   5.788   0.916   3.001 -0.0155 -0.2041  0.5008
 4050SOL     OW15971   2.216   4.867   0.732 -0.3747 -0.3603  0.0821
 4050SOL    HW215972   2.257   4.948   0.764 -1.5621 -0.1421  1.1176
 4050SOL    HW315973   2.289   4.806   0.722  0.5447  0.7860 -0.6499
 4050SOL    MW415974   2.231   4.870   0.735 -0.4100 -0.1803  0.1221
 4051SOL     OW15975   5.265   1.968   5.829 -1.0564 -0.7347 -0.3075
 4051SOL    HW215976   5.343   1.914   5.842 -1.0846 -0.3038  2.1846
 4051SOL    HW315977   5.200   1.909   5.791  0.2090 -1.2943 -1.6701
 4051SOL    MW415978   5.266   1.953   5.826 -0.8932 -0.7517 -0.1584
 4052SOL     OW15979   0.022   1.045   0.878 -0.3086 -0.4768  0.3664
 4052SOL    HW215980   0.043   1.006   0.792 -1.6333 -1.0083  0.2680
 4052SOL    HW315981   0.054   0.981   0.941 -1.8450 -1.4545  0.2110
 4052SOL    MW415982   0.029   1.031   0.875 -0.6861 -0.6759  0.3329
 4053SOL     OW15983   0.771   5.559   4.266  0.1841  0.6348  0.4803
 4053SOL    HW215984   0.852   5.534   4.311  0.8546  1.9829  0.0913
 4053SOL    HW315985   0.760   5.494   4.197  0.6395  0.1270  0.8770
 4053SOL    MW415986   0.780   5.547   4.263  0.3326  0.7456  0.4813
 4054SOL     OW15987   3.629   0.495   0.420 -0.4904 -0.5244 -0.4915
 4054SOL    HW215988   3.610   0.413   0.465  0.1971 -0.0712  0.6703
 4054SOL    HW315989   3.716   0.482   0.382  0.8425  0.5313  1.9687
 4054SOL    MW415990   3.638   0.483   0.420 -0.2238 -0.3253 -0.0136
 4055SOL     OW15991   4.096   1.745   1.011 -0.1784  0.2170 -0.1238
 4055SOL    HW215992   4.122   1.678   0.948 -1.3304  0.5733 -1.0120
 4055SOL    HW315993   4.068   1.819   0.958 -0.4281  0.8283  0.8284
 4055SOL    MW415994   4.096   1.746   0.996 -0.3633  0.3447 -0.1153
 4056SOL     OW15995   5.753   0.093   4.177  0.2916 -0.0415 -0.8153
 4056SOL    HW215996   5.685   0.140   4.131 -0.5605 -1.4762 -1.0820
 4056SOL    HW315997   5.741   0.002   4.151  1.3411 -0.5367  0.3340
 4056SOL    MW415998   5.743   0.087   4.168  0.3176 -0.2961 -0.6989
 4057SOL     OW15999   2.331   0.478   0.797  0.2689  0.2423 -0.1961
 4057SOL    HW216000   2.252   0.522   0.766 -2.2350 -3.5101  0.2565
 4057SOL    HW316001   2.390   0.480   0.721 -0.1320  3.0916 -0.5582
 4057SOL    MW416002   2.328   0.484   0.783 -0.1144  0.1232 -0.1842
 4058SOL     OW16003   2.566   0.636   3.587  0.3077 -0.1385  0.0155
 4058SOL    HW216004   2.630   0.682   3.532  0.1103  0.4541  0.2763
 4058SOL    HW316005   2.542   0.700   3.654 -0.6117 -0.3370 -0.1209
 4058SOL    MW416006   2.572   0.651   3.589  0.1604 -0.0865  0.0319
 4059SOL     OW16007   3.989   1.534   5.205 -0.3336 -0.0822  0.3493
 4059SOL    HW216008   3.995   1.518   5.111  0.0925 -0.3651  0.4221
 4059SOL    HW316009   4.054   1.475   5.243 -0.9182 -0.4084  0.8663
 4059SOL    MW416010   3.999   1.524   5.197 -0.3545 -0.1626  0.4271
 4060SOL     OW16011   0.116   5.505   5.920  0.1803 -0.1276 -0.2032
 4060SOL    HW216012   0.046   5.486   5.983  0.6798  1.3065  0.8343
 4060SOL    HW316013   0.186   5.444   5.942 -0.6806 -1.5457 -1.2205
 4060SOL    MW416014   0.116   5.495   5.932  0.1326 -0.1255 -0.2005
 4061SOL     OW16015   3.688   5.251   5.560  1.1146  0.9002  0.0432
 4061SOL    HW216016   3.744   5.235   5.636  0.5468  0.0764  0.3176
 4061SOL    HW316017   3.634   5.172   5.555 -0.3571  1.8687  0.0954
 4061SOL    MW416018   3.688   5.238   5.570  0.8455  0.9193  0.0863
 4062SOL     OW16019   0.516   1.918   4.181  0.4606 -0.1591  0.3316
 4062SOL    HW216020   0.544   1.985   4.119  0.1262 -0.9269 -0.6696
 4062SOL    HW316021   0.509   1.964   4.265  1.9970  0.6556  0.0519
 4062SOL    MW416022   0.519   1.933   4.184  0.6192 -0.1529  0.1626
 4063SOL     OW16023   3.844   3.992   1.187 -0.2029  0.2743 -0.3761
 4063SOL    HW216024   3.880   3.957   1.269 -1.8320  0.4792  0.4776
 4063SOL    HW316025   3.823   4.083   1.208  0.1710  0.5807 -1.3047
 4063SOL    MW416026   3.846   3.999   1.201 -0.3685  0.3418 -0.3860
 4064SOL     OW16027   1.029   5.333   0.554  0.0615  0.1860  0.1143
 4064SOL    HW216028   1.094   5.330   0.483 -0.4935  0.2189 -0.4019
 4064SOL    HW316029   0.978   5.253   0.543  0.2294 -0.0072  0.7290
 4064SOL    MW416030   1.031   5.322   0.543  0.0104  0.1649  0.1273
 4065SOL     OW16031   2.631   2.621   1.012 -0.1153 -0.0171  0.2465
 4065SOL    HW216032   2.547   2.574   1.017  0.0075 -0.1005  1.9167
 4065SOL    HW316033   2.611   2.710   1.041 -0.0097  0.5584 -1.3430
 4065SOL    MW416034   2.617   2.626   1.016 -0.0852  0.0478  0.2572
 4066SOL     OW16035   2.360   0.117   0.707  0.4211 -0.1287  0.0436
 4066SOL    HW216036   2.407   0.191   0.667  1.3624 -1.7151 -1.9399
 4066SOL    HW316037   2.401   0.106   0.793  0.7158  1.1998  0.1034
 4066SOL    MW416038   2.372   0.126   0.713  0.5842 -0.1627 -0.2102
 4067SOL     OW16039   2.953   5.789   1.314  0.4214 -0.1306 -0.4923
 4067SOL    HW216040   2.948   5.704   1.358  1.6466  0.2329  0.4072
 4067SOL    HW316041   2.863   5.820   1.309  0.2176 -0.2766  1.6030
 4067SOL    MW416042   2.941   5.782   1.319  0.5562 -0.1019 -0.0972
 4068SOL     OW16043   5.324   2.697   1.612  0.1113 -0.1805  0.3003
 4068SOL    HW216044   5.294   2.769   1.668  0.6161  0.3162 -0.0572
 4068SOL    HW316045   5.407   2.728   1.576  0.5417 -1.1209  0.4715
 4068SOL    MW416046   5.331   2.711   1.615  0.2347 -0.2390  0.2757
 4069SOL     OW16047   5.030   1.756   4.913  0.1826 -0.7684  0.1570
 4069SOL    HW216048   5.118   1.788   4.933 -0.5027  0.9821  0.5141
 4069SOL    HW316049   5.010   1.792   4.827 -1.1010  0.9628  1.1087
 4069SOL    MW416050   5.039   1.765   4.904 -0.0771 -0.3090  0.3297
 4070SOL     OW16051   4.623   6.364   0.381  0.4887 -0.3446 -0.1203
 4070SOL    HW216052   4.683   6.292   0.362  0.4834 -0.4504  0.2580
 4070SOL    HW316053   4.645   6.431   0.316  0.7584 -0.5328 -0.2253
 4070SOL    MW416054   4.634   6.363   0.370  0.5236 -0.3834 -0.0843
 4071SOL     OW16055   6.382   4.882   5.166  0.4302  0.6656 -0.9641
 4071SOL    HW216056   6.441   4.956   5.152  0.2872  1.0096  0.2243
 4071SOL    HW316057   6.310   4.917   5.218  1.2566 -0.6944  1.2028
 4071SOL    MW416058   6.380   4.896   5.171  0.5203  0.5315 -0.5214
 4072SOL     OW16059   5.229   4.840   1.246 -0.1013 -0.0995 -0.0498
 4072SOL    HW216060   5.284   4.766   1.221 -0.2449 -0.3970  0.5142
 4072SOL    HW316061   5.177   4.809   1.320 -0.0661  0.5983  0.2826
 4072SOL    MW416062   5.230   4.826   1.252 -0.1156 -0.0467  0.0685
 4073SOL     OW16063   3.799   0.013   1.813 -0.4328  0.3165  0.2531
 4073SOL    HW216064   3.707   0.004   1.785  0.0200 -1.9571 -0.7510
 4073SOL    HW316065   3.843   0.052   1.739 -0.5161  1.0985  0.6100
 4073SOL    MW416066   3.792   0.017   1.800 -0.3841  0.1197  0.1677
 4074SOL     OW16067   2.883   0.660   2.798  0.5499 -0.7793 -0.5630
 4074SOL    HW216068   2.875   0.627   2.708 -1.0927 -1.0827 -0.3512
 4074SOL    HW316069   2.792   0.665   2.829  1.0022  0.5212  0.6551
 4074SOL    MW416070   2.870   0.657   2.790  0.3929 -0.6477 -0.3744
 4075SOL     OW16071   3.822   2.228   1.541  0.3034 -0.1271  0.2541
 4075SOL    HW216072   3.884   2.206   1.471  0.3161  1.0347 -0.1281
 4075SOL    HW316073   3.759   2.287   1.499  0.5175  0.8729  1.2927
 4075SOL    MW416074   3.822   2.233   1.526  0.3333  0.1581  0.3407
 4076SOL     OW16075   0.215   1.229   4.748  0.1908  0.8527  0.7348
 4076SOL    HW216076   0.293   1.198   4.793  0.8089  2.1778  0.6275
 4076SOL    HW316077   0.143   1.185   4.793  1.0550 -2.4551 -0.8377
 4076SOL    MW416078   0.216   1.219   4.760  0.3864  0.5911  0.5132
 4077SOL     OW16079   1.832   0.919   5.049  0.4511 -0.2696  0.3397
 4077SOL    HW216080   1.744   0.926   5.013 -0.1253 -1.5200  1.4374
 4077SOL    HW316081   1.822   0.868   5.130  2.3601 -1.7159 -0.2457
 4077SOL    MW416082   1.819   0.913   5.055  0.6269 -0.6254  0.4073
 4078SOL     OW16083   3.537   5.390   4.210 -0.1516 -0.3384  0.3172
 4078SOL    HW216084   3.588   5.322   4.166 -0.1536 -0.1656  0.0510
 4078SOL    HW316085   3.542   5.466   4.152  0.0652 -0.0285  0.7389
 4078SOL    MW416086   3.544   5.391   4.197 -0.1233 -0.2747  0.3377
 4079SOL     OW16087   4.951   5.073   2.282  0.3622  0.5899  0.0402
 4079SOL    HW216088   4.919   5.162   2.269 -1.1321  0.2643  1.1367
 4079SOL    HW316089   4.990   5.074   2.370  0.8045  0.2751 -0.1458
 4079SOL    MW416090   4.952   5.085   2.292  0.2234  0.5054  0.1604
 4080SOL     OW16091   1.952   0.181   2.513  0.4755  0.1028 -0.3182
 4080SOL    HW216092   1.858   0.179   2.496  0.0163  1.4165  1.7342
 4080SOL    HW316093   1.960   0.166   2.607  2.3522 -0.3034 -0.4996
 4080SOL    MW416094   1.941   0.179   2.523  0.6625  0.2226 -0.0713
 4081SOL     OW16095   3.810   0.818   1.955 -0.4171 -0.0075 -0.0211
 4081SOL    HW216096   3.777   0.734   1.923 -2.7395  1.5264 -2.0278
 4081SOL    HW316097   3.901   0.820   1.925 -0.4743 -1.5729 -0.4018
 4081SOL    MW416098   3.818   0.807   1.947 -0.7310 -0.0117 -0.3361
 4082SOL     OW16099   0.716   0.322   2.412 -0.3143  0.5334  0.0162
 4082SOL    HW216100   0.706   0.246   2.356  0.2634  1.5488 -1.5188
 4082SOL    HW316101   0.651   0.384   2.382 -0.4491  0.8579  0.9234
 4082SOL    MW416102   0.706   0.320   2.401 -0.2559  0.7102 -0.0666
 4083SOL     OW16103   1.432   6.407   1.561 -0.3676 -0.2212 -0.4454
 4083SOL    HW216104   1.354   6.418   1.615 -0.3996 -1.3838 -0.2388
 4083SOL    HW316105   1.497   6.367   1.619 -0.3776 -1.4253 -1.2362
 4083SOL    MW416106   1.431   6.403   1.575 -0.3732 -0.5335 -0.5225
 4084SOL     OW16107   0.945   6.188   4.375 -0.0111  0.4573  0.7308
 4084SOL    HW216108   1.001   6.114   4.353 -0.5886 -0.0903  1.0598
 4084SOL    HW316109   0.903   6.212   4.292 -2.2985 -1.7010  1.1214
 4084SOL    MW416110   0.947   6.182   4.361 -0.3891  0.1003  0.8257
 4085SOL     OW16111   3.575   3.077   5.859  0.1377  0.4120  0.4956
 4085SOL    HW216112   3.514   3.149   5.874 -1.4892 -0.8234  0.0441
 4085SOL    HW316113   3.554   3.012   5.926 -1.5633 -1.5620 -1.7430
 4085SOL    MW416114   3.564   3.078   5.870 -0.3014 -0.0115  0.1407
 4086SOL     OW16115   1.802   1.506   3.574  0.3191  0.0594  0.0858
 4086SOL    HW216116   1.816   1.585   3.522  1.7705 -1.0738 -1.3317
 4086SOL    HW316117   1.758   1.446   3.515 -2.7076  0.4131  1.7729
 4086SOL    MW416118   1.798   1.509   3.559  0.1113 -0.0434  0.1214
 4087SOL     OW16119   2.167   3.367   6.318 -0.0063 -0.4438  0.4360
 4087SOL    HW216120   2.103   3.360   6.248  0.3452 -3.6249  0.2884
 4087SOL    HW316121   2.122   3.336   6.396  0.0371  1.7347  1.4207
 4087SOL    MW416122   2.153   3.362   6.319  0.0458 -0.5761  0.5465
 4088SOL     OW16123   4.102   4.233   1.665  0.5150 -0.1684  0.5434
 4088SOL    HW216124   4.114   4.158   1.723 -0.9300 -0.5224  0.4366
 4088SOL    HW316125   4.109   4.309   1.723 -1.7224 -0.5320  1.4350
 4088SOL    MW416126   4.104   4.233   1.681  0.0292 -0.2631  0.6469
 4089SOL     OW16127   1.423   1.984   2.767  0.0442  0.4629 -0.5904
 4089SOL    HW216128   1.429   1.996   2.672  0.6284 -0.6148 -0.7043
 4089SOL    HW316129   1.483   2.049   2.803  1.2207 -0.3172 -1.0635
 4089SOL    MW416130   1.432   1.994   2.759  0.2765  0.2178 -0.6679
 4090SOL     OW16131   1.079   1.858   3.491  0.2383 -0.3148 -0.0003
 4090SOL    HW216132   1.058   1.926   3.427 -0.7575  0.1180  0.7583
 4090SOL    HW316133   1.173   1.845   3.482  0.4292  1.0889 -0.2455
 4090SOL    MW416134   1.088   1.866   3.482  0.1321 -0.0725  0.0674
 4091SOL     OW16135   5.587   5.664   1.000 -0.5602 -0.1013 -0.2021
 4091SOL    HW216136   5.598   5.620   0.916  3.5330 -0.2835  0.1911
 4091SOL    HW316137   5.649   5.737   0.997 -0.6384  0.1934  2.4256
 4091SOL    MW416138   5.597   5.668   0.989 -0.0304 -0.0865  0.1965
 4092SOL     OW16139   2.568   4.885   3.299 -0.2607  0.1621 -0.0850
 4092SOL    HW216140   2.615   4.811   3.260  2.2104  2.8122 -2.6597
 4092SOL    HW316141   2.485   4.888   3.252  0.7583  0.5210 -1.9886
 4092SOL    MW416142   2.563   4.876   3.288  0.1998  0.5591 -0.6759
 4093SOL     OW16143   3.901   2.658   5.697  0.4583 -0.2003 -0.7204
 4093SOL    HW216144   3.848   2.598   5.750  1.5897 -1.3850 -0.8882
 4093SOL    HW316145   3.857   2.743   5.705 -0.0027 -0.5856  1.2436
 4093SOL    MW416146   3.888   2.661   5.705  0.5467 -0.4074 -0.4834
 4094SOL     OW16147   4.895   0.365   5.276  1.2353 -0.4271 -0.0376
 4094SOL    HW216148   4.965   0.309   5.309 -0.5909 -2.4606  0.5869
 4094SOL    HW316149   4.849   0.395   5.354  1.3865  0.9181 -0.4379
 4094SOL    MW416150   4.898   0.362   5.290  1.0143 -0.5179 -0.0080
 4095SOL     OW16151   3.417   3.809   1.042  0.6015 -0.2297  0.0209
 4095SOL    HW216152   3.440   3.765   1.124  0.3227  1.3450  0.9637
 4095SOL    HW316153   3.407   3.737   0.979 -0.3039 -1.5641  1.6112
 4095SOL    MW416154   3.419   3.793   1.045  0.4452 -0.1980  0.3551
 4096SOL     OW16155   0.078   6.294   1.114 -0.1791 -0.1043 -0.2433
 4096SOL    HW216156   0.094   6.347   1.036  0.7532 -2.6005 -1.8276
 4096SOL    HW316157   0.164   6.260   1.139 -0.7057 -0.6430  0.9162
 4096SOL    MW416158   0.091   6.297   1.107 -0.1256 -0.5047 -0.2993
 4097SOL     OW16159   3.328   0.956   2.488 -0.7041 -0.0233  0.2196
 4097SOL    HW216160   3.253   0.904   2.514 -0.2239 -0.7883  0.0963
 4097SOL    HW316161   3.358   0.916   2.406  0.3519 -0.2682  0.7119
 4097SOL    MW416162   3.322   0.944   2.481 -0.5014 -0.1565  0.2683
 4098SOL     OW16163   2.564   0.754   0.800  0.1653  0.1829  0.0833
 4098SOL    HW216164   2.630   0.791   0.743 -1.8253  0.2990 -2.3327
 4098SOL    HW316165   2.577   0.659   0.794 -0.6296  0.1501 -1.4020
 4098SOL    MW416166   2.574   0.746   0.792 -0.2023  0.1939 -0.4314
 4099SOL     OW16167   4.176   3.444   3.788  0.1301  0.1651  0.0823
 4099SOL    HW216168   4.162   3.366   3.842 -0.6720  0.9326  1.0350
 4099SOL    HW316169   4.227   3.413   3.713 -0.8002 -1.4170  0.0614
 4099SOL    MW416170   4.181   3.430   3.785 -0.0985  0.0576  0.2052
 4100SOL     OW16171   0.066   0.921   0.624  0.0617 -0.4067 -0.1351
 4100SOL    HW216172   0.159   0.942   0.617 -0.0640  0.2990  0.2686
 4100SOL    HW316173   0.063   0.825   0.624  0.6995 -0.4353 -1.1597
 4100SOL    MW416174   0.078   0.911   0.623  0.1293 -0.3173 -0.2170
 4101SOL     OW16175   6.052   0.348   4.994 -0.2493 -0.4145  0.0110
 4101SOL    HW216176   6.010   0.277   5.042 -0.1098 -1.7591 -1.7390
 4101SOL    HW316177   6.067   0.312   4.906  0.8069  1.4284 -0.6253
 4101SOL    MW416178   6.048   0.334   4.989 -0.0915 -0.3487 -0.3038
 4102SOL     OW16179   1.062   5.781   0.983  0.4116 -0.0878  0.0522
 4102SOL    HW216180   1.054   5.686   0.973 -0.9989 -0.1307  1.3599
 4102SOL    HW316181   1.074   5.794   1.077  3.4916  0.8972 -0.3475
 4102SOL    MW416182   1.063   5.770   0.994  0.6319  0.0365  0.1720
 4103SOL     OW16183   5.125   2.900   5.597  0.9608 -0.6396  0.2637
 4103SOL    HW216184   5.059   2.950   5.646  0.1397 -1.8556  0.4561
 4103SOL    HW316185   5.154   2.959   5.527 -0.8909 -0.3261 -0.2867
 4103SOL    MW416186   5.120   2.914   5.594  0.6082 -0.7587  0.2165
 4104SOL     OW16187   1.217   1.047   1.590 -0.1733  0.5138  0.5397
 4104SOL    HW216188   1.215   0.964   1.638  1.5600 -0.9780 -1.7621
 4104SOL    HW316189   1.279   1.032   1.519  0.3837  3.9020  0.1614
 4104SOL    MW416190   1.225   1.034   1.587  0.1289  0.7640  0.1861
 4105SOL     OW16191   3.884   1.011   1.480 -0.2818  0.1389 -0.5369
 4105SOL    HW216192   3.841   1.084   1.436  0.3355 -0.8536 -2.9383
 4105SOL    HW316193   3.975   1.038   1.489 -0.2709  0.0799 -0.4688
 4105SOL    MW416194   3.890   1.024   1.475 -0.1989  0.0002 -0.8448
 4106SOL     OW16195   3.141   2.680   4.547 -0.1406  0.2449  0.3724
 4106SOL    HW216196   3.124   2.663   4.454 -1.7528  1.5645  0.3711
 4106SOL    HW316197   3.223   2.729   4.548  0.9628 -1.4874 -0.1433
 4106SOL    MW416198   3.150   2.684   4.535 -0.2077  0.1905  0.3042
 4107SOL     OW16199   5.652   4.952   5.234  1.0595  1.1195 -0.3279
 4107SOL    HW216200   5.587   5.011   5.272 -1.4758 -2.1922  1.0970
 4107SOL    HW316201   5.698   4.915   5.310  1.0489 -0.2198 -0.9333
 4107SOL    MW416202   5.650   4.955   5.249  0.7236  0.5058 -0.2198
 4108SOL     OW16203   3.430   5.996   5.190  0.2993  0.0815  0.7130
 4108SOL    HW216204   3.496   5.968   5.127 -0.2873 -2.2425  1.0573
 4108SOL    HW316205   3.480   6.034   5.262  1.1419 -0.0143  0.1882
 4108SOL    MW416206   3.445   5.997   5.191  0.3331 -0.2378  0.6892
 4109SOL     OW16207   6.302   5.516   5.717  0.3160 -0.4094 -0.0486
 4109SOL    HW216208   6.260   5.430   5.725 -1.1369  0.3366  0.6530
 4109SOL    HW316209   6.384   5.507   5.765 -0.0847 -1.2493  0.5104
 4109SOL    MW416210   6.307   5.503   5.724  0.0714 -0.4218  0.1177
 4110SOL     OW16211   2.642   2.140   4.651  0.5002 -0.3631 -0.4644
 4110SOL    HW216212   2.738   2.138   4.649  0.5409 -2.3230  0.9016
 4110SOL    HW316213   2.619   2.117   4.741 -1.2751  1.3513 -0.4166
 4110SOL    MW416214   2.652   2.137   4.663  0.2714 -0.3955 -0.2779
 4111SOL     OW16215   3.102   3.840   4.161  0.7335 -0.3336 -0.6645
 4111SOL    HW216216   3.076   3.751   4.184  0.1459 -0.3890 -1.5019
 4111SOL    HW316217   3.069   3.853   4.072  1.1884  0.5709 -0.7171
 4111SOL    MW416218   3.094   3.830   4.152  0.7160 -0.2216 -0.7820
 4112SOL     OW16219   3.051   0.358   6.083  0.5714 -0.2380  0.0828
 4112SOL    HW216220   3.073   0.297   6.153 -1.9795 -0.0286  1.1585
 4112SOL    HW316221   2.958   0.343   6.065  0.9810  0.0673 -2.9528
 4112SOL    MW416222   3.042   0.348   6.090  0.2889 -0.1701 -0.1758
 4113SOL     OW16223   2.220   3.316   3.994  0.1740 -0.1153 -0.0195
 4113SOL    HW216224   2.209   3.249   3.926  2.7502  2.3237 -3.2045
 4113SOL    HW316225   2.268   3.272   4.064 -0.0898 -2.0826 -1.0006
 4113SOL    MW416226   2.225   3.302   3.994  0.4791 -0.0531 -0.5692
 4114SOL     OW16227   0.825   3.716   2.705 -0.0015  0.3124  0.2114
 4114SOL    HW216228   0.870   3.796   2.729 -1.6588  1.1654  0.5990
 4114SOL    HW316229   0.827   3.715   2.609  1.4267 -0.0525  0.2174
 4114SOL    MW416230   0.831   3.726   2.695 -0.0318  0.3768  0.2633
 4115SOL     OW16231   1.945   6.211   1.943 -0.1816  0.1146  0.2844
 4115SOL    HW216232   1.941   6.306   1.930 -0.3974  0.1717  0.7527
 4115SOL    HW316233   1.887   6.195   2.017 -2.3718 -0.7328 -1.5021
 4115SOL    MW416234   1.937   6.222   1.951 -0.4990  0.0103  0.1105
 4116SOL     OW16235   4.233   1.851   2.976 -0.3580 -0.3711 -0.0324
 4116SOL    HW216236   4.234   1.784   2.908 -2.0757 -0.0577 -0.3874
 4116SOL    HW316237   4.175   1.816   3.044 -3.4261  1.7476 -1.3442
 4116SOL    MW416238   4.226   1.838   2.976 -0.9895 -0.0502 -0.2523
 4117SOL     OW16239   6.284   1.770   6.090 -0.1815 -0.0644  0.6430
 4117SOL    HW216240   6.243   1.742   6.172 -0.7533 -1.0967  0.0221
 4117SOL    HW316241   6.246   1.856   6.073 -0.0323  0.1773  1.4639
 4117SOL    MW416242   6.274   1.777   6.098 -0.2372 -0.1687  0.6694
 4118SOL     OW16243   1.483   3.869   5.752  0.4709 -0.3985  0.5176
 4118SOL    HW216244   1.453   3.883   5.662  0.0172  2.3526  1.0255
 4118SOL    HW316245   1.469   3.775   5.767  1.0102 -1.0432 -2.3991
 4118SOL    MW416246   1.477   3.858   5.742  0.4822 -0.1206  0.1998
 4119SOL     OW16247   5.156   1.715   6.193  0.0040 -0.3792 -0.0552
 4119SOL    HW216248   5.251   1.709   6.187 -0.0911 -2.0522 -0.3892
 4119SOL    HW316249   5.140   1.759   6.276  1.0628 -0.9069  0.4524
 4119SOL    MW416250   5.167   1.720   6.203  0.1312 -0.6696 -0.0323
 4120SOL     OW16251   6.392   2.156   3.409  0.1026 -0.1638  0.0948
 4120SOL    HW216252   6.402   2.224   3.342  0.5569 -0.1148  0.2090
 4120SOL    HW316253   6.365   2.203   3.488  2.5210  0.2069  0.7829
 4120SOL    MW416254   6.390   2.171   3.411  0.4816 -0.1084  0.2007
 4121SOL     OW16255   2.193   4.952   1.240  0.1499  0.3908  0.2489
 4121SOL    HW216256   2.242   4.989   1.314 -0.8461  0.1420  1.0687
 4121SOL    HW316257   2.106   4.991   1.249  0.4766  1.7543 -1.8596
 4121SOL    MW416258   2.188   4.962   1.251  0.0616  0.5379  0.0789
 4122SOL     OW16259   5.768   0.413   6.207 -0.2763 -0.7629  0.4609
 4122SOL    HW216260   5.789   0.344   6.145 -0.1133 -0.8666  0.6285
 4122SOL    HW316261   5.840   0.410   6.271 -0.8272 -1.1660  1.0848
 4122SOL    MW416262   5.781   0.404   6.208 -0.3275 -0.8298  0.5654
 4123SOL     OW16263   1.944   0.454   2.184  0.4526 -0.1579  0.4944
 4123SOL    HW216264   1.991   0.380   2.221  0.5557 -0.7549 -0.7884
 4123SOL    HW316265   1.954   0.524   2.249  1.8698 -0.7209  0.9069
 4123SOL    MW416266   1.952   0.454   2.197  0.6532 -0.3110  0.3795
 4124SOL     OW16267   0.595   4.337   0.443 -0.0083  0.3765 -0.0757
 4124SOL    HW216268   0.515   4.295   0.412 -0.3936 -0.4073  1.8049
 4124SOL    HW316269   0.634   4.272   0.503 -1.2283  2.9315  3.9243
 4124SOL    MW416270   0.590   4.323   0.447 -0.2201  0.6102  0.7002
 4125SOL     OW16271   2.292   5.457   5.303 -0.0422 -0.1237  0.0050
 4125SOL    HW216272   2.341   5.506   5.368 -1.5146 -1.1245  1.9664
 4125SOL    HW316273   2.215   5.424   5.350 -0.5116 -1.9825 -1.9005
 4125SOL    MW416274   2.288   5.459   5.317 -0.2984 -0.5010  0.0124
 4126SOL     OW16275   3.135   5.157   2.030 -0.0494 -0.4525 -0.3677
 4126SOL    HW216276   3.087   5.168   1.948 -0.7712  1.4313  0.2450
 4126SOL    HW316277   3.220   5.121   2.003 -0.0891  0.5508 -2.0170
 4126SOL    MW416278   3.140   5.154   2.015 -0.1499 -0.0716 -0.5045
 4127SOL     OW16279   6.333   4.521   2.612  0.2994  0.1560  0.5584
 4127SOL    HW216280   6.367   4.454   2.553 -0.9237 -0.2711  0.3031
 4127SOL    HW316281   6.246   4.541   2.577  0.4410  1.4975  0.9433
 4127SOL    MW416282   6.326   4.515   2.600  0.1567  0.2766  0.5755
 4128SOL     OW16283   2.734   5.197   3.959  0.5048 -0.0408  0.2386
 4128SOL    HW216284   2.805   5.236   4.010 -0.3047  0.4124  1.0255
 4128SOL    HW316285   2.654   5.227   4.001 -0.1698 -0.3318 -0.8036
 4128SOL    MW416286   2.733   5.206   3.971  0.3090 -0.0194  0.2050
 4129SOL     OW16287   2.412   4.669   0.706  0.2163  0.2489  0.6663
 4129SOL    HW216288   2.451   4.627   0.783 -0.9354 -0.0305  1.1073
 4129SOL    HW316289   2.395   4.597   0.645 -0.6844  0.2202  0.9499
 4129SOL    MW416290   2.415   4.654   0.708 -0.0545  0.2083  0.7619
 4130SOL     OW16291   6.081   3.922   3.720 -0.0308  0.3686  0.0769
 4130SOL    HW216292   6.079   3.888   3.631 -0.4464  1.3550 -0.3002
 4130SOL    HW316293   6.172   3.947   3.735  0.2616 -0.8066  0.3297
 4130SOL    MW416294   6.093   3.921   3.710 -0.0470  0.3437  0.0605
 4131SOL     OW16295   5.780   2.817   6.030 -0.4077 -0.4426  0.4916
 4131SOL    HW216296   5.798   2.886   6.095 -1.6253 -1.1693  1.6400
 4131SOL    HW316297   5.707   2.768   6.067 -0.2650 -1.6981 -0.8316
 4131SOL    MW416298   5.773   2.820   6.044 -0.5495 -0.7041  0.4685
 4132SOL     OW16299   1.247   1.496   3.548 -0.0813  0.3972  0.0792
 4132SOL    HW216300   1.335   1.528   3.567 -0.2106  0.4461  0.5975
 4132SOL    HW316301   1.243   1.410   3.589 -1.0205  1.3168  2.0111
 4132SOL    MW416302   1.258   1.489   3.556 -0.2223  0.5250  0.4025
 4133SOL     OW16303   4.084   5.192   1.934  0.2039  1.3727  0.1576
 4133SOL    HW216304   3.999   5.161   1.965 -1.0652  2.8228 -1.6317
 4133SOL    HW316305   4.141   5.115   1.936 -2.1255 -0.5505 -1.9316
 4133SOL    MW416306   4.080   5.178   1.938 -0.2709  1.3103 -0.3541
 4134SOL     OW16307   4.485   0.090   1.154 -1.3064 -0.4616 -0.0556
 4134SOL    HW216308   4.483   0.156   1.085  0.2821  0.1045  0.4068
 4134SOL    HW316309   4.557   0.032   1.131 -0.0774  0.3080  1.5844
 4134SOL    MW416310   4.494   0.091   1.142 -0.9346 -0.2854  0.2218
 4135SOL     OW16311   5.859   4.122   1.925 -0.2347  0.3943 -0.0101
 4135SOL    HW216312   5.914   4.043   1.915  0.1045  0.5096  0.8964
 4135SOL    HW316313   5.898   4.185   1.864 -0.3026 -0.0272 -0.4977
 4135SOL    MW416314   5.871   4.120   1.916 -0.1989  0.3539  0.0452
 4136SOL     OW16315   2.031   4.081   3.474 -0.1095 -0.3515  0.5735
 4136SOL    HW216316   2.002   4.168   3.446  1.7641  0.5775  1.3444
 4136SOL    HW316317   2.035   4.030   3.394 -2.6393 -0.2251  0.2771
 4136SOL    MW416318   2.027   4.086   3.460 -0.1961 -0.2123  0.6361
 4137SOL     OW16319   4.364   1.345   3.464  0.2535  0.0505  0.0741
 4137SOL    HW216320   4.351   1.333   3.370 -0.2627 -0.6428  0.2233
 4137SOL    HW316321   4.339   1.435   3.481 -0.0850  0.0468 -0.3827
 4137SOL    MW416322   4.359   1.355   3.454  0.1407 -0.0414  0.0335
 4138SOL     OW16323   2.849   4.280   3.828  0.7621  0.0667 -0.3690
 4138SOL    HW216324   2.907   4.289   3.904 -1.4130  1.7566  1.2339
 4138SOL    HW316325   2.851   4.367   3.787  0.0785 -0.1204 -0.8093
 4138SOL    MW416326   2.857   4.293   3.832  0.3849  0.2650 -0.2156
 4139SOL     OW16327   3.505   6.086   5.580  0.3503 -0.4381  0.0112
 4139SOL    HW216328   3.437   6.143   5.545 -2.4861 -2.2981  2.1118
 4139SOL    HW316329   3.521   6.120   5.668  1.1088 -0.9077  0.0593
 4139SOL    MW416330   3.498   6.098   5.587  0.0761 -0.7455  0.2947
 4140SOL     OW16331   3.715   4.520   6.418 -0.1349  0.1967  0.2919
 4140SOL    HW216332   3.723   4.501   6.325  1.4440 -1.7119  0.7362
 4140SOL    HW316333   3.797   4.564   6.440 -0.3123  0.2495  0.8617
 4140SOL    MW416334   3.727   4.524   6.409  0.0500 -0.0481  0.4257
 4141SOL     OW16335   4.809   5.262   5.019 -0.2247  0.7691 -0.1698
 4141SOL    HW216336   4.854   5.237   5.099 -0.2256  0.4851 -0.2570
 4141SOL    HW316337   4.736   5.317   5.049 -0.0182  0.9550 -0.0054
 4141SOL    MW416338   4.805   5.266   5.034 -0.1976  0.7561 -0.1596
 4142SOL     OW16339   0.509   1.637   6.040  0.3218 -0.2499 -0.0001
 4142SOL    HW216340   0.498   1.627   6.135 -3.4495  2.7082  0.1312
 4142SOL    HW316341   0.427   1.678   6.011  2.0468  0.6679 -4.2929
 4142SOL    MW416342   0.496   1.641   6.049  0.0518  0.2615 -0.5491
 4143SOL     OW16343   6.347   1.688   4.002  0.1666 -0.2624  0.1412
 4143SOL    HW216344   6.269   1.707   3.951 -0.2305 -1.0515  0.4443
 4143SOL    HW316345   6.336   1.738   4.083  0.6054  0.6634 -0.3460
 4143SOL    MW416346   6.336   1.697   4.006  0.1721 -0.2443  0.1169
 4144SOL     OW16347   5.031   0.351   1.593  0.0212 -0.2069 -0.5700
 4144SOL    HW216348   5.079   0.311   1.520  1.7407  0.6639  0.0387
 4144SOL    HW316349   5.000   0.277   1.645  0.9036 -0.7925 -0.8608
 4144SOL    MW416350   5.033   0.336   1.590  0.3645 -0.1692 -0.5280
 4145SOL     OW16351   5.354   4.160   6.140 -0.9472 -0.6199 -0.3176
 4145SOL    HW216352   5.426   4.169   6.078  0.4282  4.0657  1.4878
 4145SOL    HW316353   5.382   4.091   6.200  0.2480 -1.4252 -1.7350
 4145SOL    MW416354   5.367   4.152   6.140 -0.6080 -0.1079 -0.2664
 4146SOL     OW16355   4.487   4.560   0.694 -0.5121  0.3329 -0.1360
 4146SOL    HW216356   4.526   4.483   0.737 -0.2164 -1.0531 -2.6546
 4146SOL    HW316357   4.535   4.634   0.729  2.3847 -1.0562 -0.8627
 4146SOL    MW416358   4.499   4.559   0.704 -0.0909 -0.0333 -0.5642
 4147SOL     OW16359   1.373   3.881   4.635  0.3544  0.2540  0.7528
 4147SOL    HW216360   1.328   3.836   4.706  0.6819  0.2660  0.9716
 4147SOL    HW316361   1.402   3.963   4.674  0.4513  0.3032  0.5773
 4147SOL    MW416362   1.371   3.886   4.650  0.4104  0.2621  0.7585
 4148SOL     OW16363   0.081   4.641   3.987  0.1443  0.3592  0.8036
 4148SOL    HW216364   0.158   4.586   3.973 -1.2256 -1.2228 -0.9744
 4148SOL    HW316365   0.053   4.620   4.076  1.1599  0.1900  1.1023
 4148SOL    MW416366   0.087   4.631   3.997  0.0975  0.1282  0.6084
 4149SOL     OW16367   5.782   6.412   3.610 -0.3638 -0.6094 -0.1653
 4149SOL    HW216368   5.781   6.334   3.554  0.2421  0.3801 -1.6388
 4149SOL    HW316369   5.835   6.387   3.685 -1.8121 -2.2229  0.3830
 4149SOL    MW416370   5.789   6.398   3.612 -0.4749 -0.6917 -0.2874
 4150SOL     OW16371   2.034   3.428   1.890 -0.5416  0.3412 -0.1027
 4150SOL    HW216372   1.989   3.375   1.955 -0.0760  0.0852  0.0098
 4150SOL    HW316373   2.062   3.506   1.937  1.2678 -0.5881  0.4249
 4150SOL    MW416374   2.032   3.431   1.905 -0.2414  0.1848 -0.0182
 4151SOL     OW16375   4.357   3.752   5.961  0.0560  0.4828  0.3106
 4151SOL    HW216376   4.451   3.764   5.949  0.0905  0.0268  0.1356
 4151SOL    HW316377   4.347   3.735   6.055  0.3909 -1.6426  0.0085
 4151SOL    MW416378   4.368   3.751   5.972  0.1047  0.1422  0.2476
 4152SOL     OW16379   3.246   4.756   1.259  0.0032  0.4094 -0.5343
 4152SOL    HW216380   3.211   4.815   1.326  0.1008 -0.5084  0.3553
 4152SOL    HW316381   3.169   4.724   1.213 -0.1473  0.2793 -0.1976
 4152SOL    MW416382   3.231   4.759   1.262 -0.0038  0.2712 -0.3725
 4153SOL     OW16383   0.786   2.070   0.375 -0.0044 -0.4636  0.1648
 4153SOL    HW216384   0.829   2.045   0.457  0.2316  1.5734  0.7027
 4153SOL    HW316385   0.846   2.131   0.333 -0.3712 -1.0423 -1.3030
 4153SOL    MW416386   0.800   2.075   0.380 -0.0216 -0.2712  0.0421
 4154SOL     OW16387   0.925   0.482   4.910 -0.0099  0.4216 -0.1426
 4154SOL    HW216388   0.915   0.520   4.997  0.2546  0.0142  0.0681
 4154SOL    HW316389   0.931   0.558   4.852  1.0637  0.7201  0.3349
 4154SOL    MW416390   0.925   0.497   4.914  0.1667  0.4072 -0.0518
 4155SOL     OW16391   1.451   2.965   2.354  0.1166 -0.3733 -0.1626
 4155SOL    HW216392   1.453   2.987   2.261 -2.2192  0.8034 -0.0049
 4155SOL    HW316393   1.466   2.870   2.356  2.7652 -0.0826 -1.4666
 4155SOL    MW416394   1.453   2.955   2.342  0.1578 -0.1797 -0.3138
 4156SOL     OW16395   6.195   5.358   3.585  0.0937 -0.3064 -0.2437
 4156SOL    HW216396   6.143   5.311   3.650  1.4619  0.6821  1.6570
 4156SOL    HW316397   6.178   5.451   3.604 -0.4201  0.0216 -2.1343
 4156SOL    MW416398   6.186   5.364   3.596  0.2064 -0.1327 -0.2424
 4157SOL     OW16399   5.064   5.652   5.753 -0.0251  0.1907  0.1120
 4157SOL    HW216400   5.061   5.747   5.769  0.0409  0.1483  0.3780
 4157SOL    HW316401   5.010   5.639   5.675 -0.9342  0.3136  0.7046
 4157SOL    MW416402   5.057   5.663   5.745 -0.1363  0.2013  0.2252
 4158SOL     OW16403   5.534   3.002   2.541 -0.2132  0.4217  0.3685
 4158SOL    HW216404   5.455   2.958   2.510 -1.6491  3.9679 -1.6461
 4158SOL    HW316405   5.595   2.997   2.467  0.1438  0.5895  0.6475
 4158SOL    MW416406   5.532   2.996   2.527 -0.3555  0.9117  0.1395
 4159SOL     OW16407   4.232   2.926   3.474  0.5805 -0.7513 -0.4833
 4159SOL    HW216408   4.243   2.963   3.387 -0.6236  0.5748 -0.1020
 4159SOL    HW316409   4.181   2.846   3.460  0.0216 -0.3178 -0.9723
 4159SOL    MW416410   4.227   2.920   3.461  0.3479 -0.5191 -0.4975
 4160SOL     OW16411   5.749   0.097   2.823  0.0396  0.1886 -0.1760
 4160SOL    HW216412   5.721   0.035   2.890 -0.3095  0.7791  0.2357
 4160SOL    HW316413   5.813   0.049   2.770  0.8168 -0.0787  0.9863
 4160SOL    MW416414   5.754   0.082   2.825  0.0961  0.2313  0.0316
 4161SOL     OW16415   4.727   1.874   0.097 -0.0711 -0.4443 -0.3358
 4161SOL    HW216416   4.661   1.942   0.080  1.0746  0.8709  0.3136
 4161SOL    HW316417   4.676   1.794   0.107 -1.5455  0.4568 -0.3061
 4161SOL    MW416418   4.711   1.872   0.096 -0.1145 -0.1519 -0.2462
 4162SOL     OW16419   3.587   6.243   1.152 -0.1483  0.1063  0.2678
 4162SOL    HW216420   3.630   6.319   1.191 -0.8684  0.3706  0.5773
 4162SOL    HW316421   3.642   6.169   1.177  1.7331  0.7192 -1.8164
 4162SOL    MW416422   3.600   6.243   1.161  0.0049  0.2220  0.0337
 4163SOL     OW16423   5.966   5.503   4.402  0.1445 -0.4458  0.0333
 4163SOL    HW216424   5.937   5.415   4.428  0.7887 -0.4559  0.7671
 4163SOL    HW316425   5.956   5.555   4.482  1.5846 -0.3187  0.1481
 4163SOL    MW416426   5.960   5.498   4.416  0.4195 -0.4304  0.1453
 4164SOL     OW16427   0.475   2.111   5.139 -0.2298  0.3477 -0.1809
 4164SOL    HW216428   0.477   2.197   5.097  0.2074  0.0974 -0.6881
 4164SOL    HW316429   0.390   2.074   5.113  0.3162 -0.0818 -1.4420
 4164SOL    MW416430   0.464   2.118   5.130 -0.1001  0.2580 -0.4142
 4165SOL     OW16431   5.309   3.937   0.133  0.4786 -0.2374 -0.3682
 4165SOL    HW216432   5.308   3.945   0.228 -0.0963 -1.5159 -0.2411
 4165SOL    HW316433   5.271   3.851   0.116  1.7041 -0.5561 -1.7054
 4165SOL    MW416434   5.304   3.927   0.143  0.5645 -0.4481 -0.5279
 4166SOL     OW16435   2.119   4.918   4.180  0.5287  0.1539 -0.5274
 4166SOL    HW216436   2.204   4.963   4.187  0.8540 -0.3744 -1.0188
 4166SOL    HW316437   2.079   4.956   4.102  1.1194 -0.9052 -1.3744
 4166SOL    MW416438   2.125   4.929   4.171  0.6496 -0.0556 -0.7040
 4167SOL     OW16439   4.859   2.561   2.642 -0.2540  0.0882 -0.2413
 4167SOL    HW216440   4.776   2.590   2.605  0.6162  1.6470 -1.1271
 4167SOL    HW316441   4.915   2.546   2.566  0.4340 -0.4182  0.3491
 4167SOL    MW416442   4.856   2.563   2.627 -0.0484  0.2271 -0.2803
 4168SOL     OW16443   5.657   3.741   4.532  0.0461  0.1351  0.2810
 4168SOL    HW216444   5.667   3.723   4.439 -0.1340 -0.3500  0.3542
 4168SOL    HW316445   5.695   3.665   4.576  0.6377  0.6197  0.6142
 4168SOL    MW416446   5.663   3.729   4.525  0.1004  0.1350  0.3346
 4169SOL     OW16447   4.713   5.714   1.203 -0.4021 -0.1318  0.3458
 4169SOL    HW216448   4.752   5.630   1.227 -0.7035  0.0761  1.6573
 4169SOL    HW316449   4.710   5.763   1.286 -2.8738  0.0749  0.1988
 4169SOL    MW416450   4.718   5.710   1.217 -0.7680 -0.0771  0.4995
 4170SOL     OW16451   4.263   1.618   3.511 -0.4772 -0.2610  0.4158
 4170SOL    HW216452   4.187   1.616   3.452 -1.6517  0.0770  1.8643
 4170SOL    HW316453   4.301   1.705   3.497 -1.4065  0.2473  0.9205
 4170SOL    MW416454   4.258   1.629   3.501 -0.7548 -0.1493  0.6735
 4171SOL     OW16455   5.027   3.434   1.135 -0.2502  0.5595 -0.6404
 4171SOL    HW216456   4.940   3.396   1.146 -0.4367  0.3683 -2.3942
 4171SOL    HW316457   5.076   3.405   1.212 -1.9714  1.4734  0.8823
 4171SOL    MW416458   5.022   3.425   1.146 -0.5019  0.6549 -0.6709
 4172SOL     OW16459   6.426   2.347   0.818 -0.2418  0.0196  0.1578
 4172SOL    HW216460   6.434   2.350   0.723 -2.1915  1.5839 -0.0171
 4172SOL    HW316461   6.334   2.368   0.835  0.1390  0.1076  2.3984
 4172SOL    MW416462   6.415   2.350   0.808 -0.4488  0.2376  0.4304
 4173SOL     OW16463   1.790   1.762   3.411  0.0754  0.0461  0.1956
 4173SOL    HW216464   1.775   1.786   3.502  1.1033  2.2876 -0.1647
 4173SOL    HW316465   1.716   1.798   3.363  0.6824  0.9424 -0.1088
 4173SOL    MW416466   1.778   1.770   3.416  0.2911  0.4601  0.1079
 4174SOL     OW16467   3.945   3.906   1.435 -0.3045 -0.2248 -0.4606
 4174SOL    HW216468   3.927   3.837   1.499  0.4671 -0.3882 -0.4102
 4174SOL    HW316469   4.041   3.911   1.432 -0.3432  1.4666  0.1961
 4174SOL    MW416470   3.956   3.898   1.443 -0.2078 -0.0232 -0.3673
 4175SOL     OW16471   2.608   4.124   3.849  0.1349 -0.4645  0.1851
 4175SOL    HW216472   2.693   4.163   3.831 -0.1377 -0.4298 -1.0903
 4175SOL    HW316473   2.558   4.134   3.768 -2.0002  1.7812  1.6393
 4175SOL    MW416474   2.612   4.130   3.836 -0.1828 -0.1636  0.2087
 4176SOL     OW16475   6.240   6.035   5.415 -0.1348  0.2547  0.0794
 4176SOL    HW216476   6.151   6.004   5.432 -0.5286  1.3022  0.0044
 4176SOL    HW316477   6.239   6.127   5.440  0.2359  0.9454 -2.1642
 4176SOL    MW416478   6.228   6.043   5.420 -0.1378  0.4840 -0.2265
 4177SOL     OW16479   1.255   4.969   0.938 -0.3033  0.4021 -0.3536
 4177SOL    HW216480   1.313   4.951   1.012  0.2343 -1.9101 -1.2735
 4177SOL    HW316481   1.306   5.024   0.879 -0.2386  1.0645  0.2995
 4177SOL    MW416482   1.269   4.974   0.940 -0.2239  0.1844 -0.3888
 4178SOL     OW16483   2.058   6.354   5.883  0.3567  0.0566 -0.3248
 4178SOL    HW216484   2.095   6.284   5.829  1.0265 -1.0321  1.4167
 4178SOL    HW316485   1.991   6.309   5.936  0.3838  0.8543  0.4047
 4178SOL    MW416486   2.054   6.339   5.883  0.4486  0.0182  0.0012
 4179SOL     OW16487   4.752   3.238   5.829 -0.3723 -0.5754  0.3711
 4179SOL    HW216488   4.662   3.225   5.800 -0.3287 -0.0467 -0.0124
 4179SOL    HW316489   4.777   3.324   5.794  0.7432 -1.3056 -0.7233
 4179SOL    MW416490   4.744   3.248   5.821 -0.2194 -0.6020  0.1761
 4180SOL     OW16491   2.093   4.663   6.109  0.5088  0.5283  0.1349
 4180SOL    HW216492   2.083   4.733   6.174  0.2463  1.5732 -0.9772
 4180SOL    HW316493   2.033   4.688   6.039 -0.4715 -1.4458  0.1997
 4180SOL    MW416494   2.083   4.676   6.108  0.3448  0.4057 -0.0033
 4181SOL     OW16495   3.144   6.430   3.590  0.6788 -0.1025  0.0790
 4181SOL    HW216496   3.165   6.336   3.594 -1.4524 -0.6022  1.1419
 4181SOL    HW316497   3.214   6.473   3.639  1.7234 -1.1130 -0.4785
 4181SOL    MW416498   3.156   6.423   3.597  0.5354 -0.3017  0.1456
 4182SOL     OW16499   2.120   2.341   3.012 -0.0382  0.1077  0.4254
 4182SOL    HW216500   2.134   2.435   2.997 -0.1999  0.1657  0.6356
 4182SOL    HW316501   2.054   2.316   2.948  1.2558 -0.2433 -0.8175
 4182SOL    MW416502   2.113   2.350   3.002  0.1112  0.0691  0.2892
 4183SOL     OW16503   5.273   1.951   4.234  0.1425 -0.0302  0.2262
 4183SOL    HW216504   5.236   1.936   4.147  2.2637  1.3973 -1.0269
 4183SOL    HW316505   5.356   1.904   4.233  1.1582  1.6623  0.6658
 4183SOL    MW416506   5.279   1.943   4.222  0.5563  0.3814  0.1189
 4184SOL     OW16507   5.650   5.871   6.012 -0.2953 -0.2660 -0.1675
 4184SOL    HW216508   5.668   5.782   5.980  1.8019  0.3097 -0.7437
 4184SOL    HW316509   5.629   5.858   6.105  1.2944 -1.2874  0.0957
 4184SOL    MW416510   5.650   5.857   6.020  0.1912 -0.3248 -0.2088
 4185SOL     OW16511   2.777   6.133   4.062 -0.4396 -0.1176  0.3474
 4185SOL    HW216512   2.690   6.107   4.031 -1.1572  1.7366  0.6814
 4185SOL    HW316513   2.761   6.210   4.117  1.4643  0.6318 -0.0594
 4185SOL    MW416514   2.764   6.140   4.065 -0.2831  0.2259  0.3378
 4186SOL     OW16515   0.770   4.254   0.784  0.0886 -0.4775 -0.3124
 4186SOL    HW216516   0.700   4.263   0.848  1.1109 -0.8096  0.8834
 4186SOL    HW316517   0.813   4.339   0.781 -1.4410  0.3032 -2.4008
 4186SOL    MW416518   0.767   4.266   0.792  0.0217 -0.4183 -0.4302
 4187SOL     OW16519   1.532   4.424   1.809  0.2662 -0.5335 -0.3338
 4187SOL    HW216520   1.527   4.405   1.903  1.8186 -1.0173 -0.3255
 4187SOL    HW316521   1.453   4.384   1.773 -1.7231  1.8454  1.0495
 4187SOL    MW416522   1.521   4.416   1.817  0.2086 -0.2834 -0.1502
 4188SOL     OW16523   3.884   1.531   0.778  0.2244 -0.1728 -0.3331
 4188SOL    HW216524   3.841   1.476   0.843 -2.6312 -0.7344 -2.4854
 4188SOL    HW316525   3.833   1.517   0.698  2.6149  1.6272 -2.3192
 4188SOL    MW416526   3.872   1.522   0.776  0.1630 -0.0094 -0.8791
 4189SOL     OW16527   5.785   4.520   0.089 -0.1299 -0.6202 -0.0136
 4189SOL    HW216528   5.717   4.584   0.068  0.8544 -0.0554 -1.6562
 4189SOL    HW316529   5.867   4.562   0.064  0.7229 -1.7819  0.7033
 4189SOL    MW416530   5.787   4.534   0.083  0.1125 -0.6990 -0.1357
 4190SOL     OW16531   5.631   2.379   0.396 -0.3779 -0.4386  0.1588
 4190SOL    HW216532   5.671   2.295   0.417  0.0804 -0.4773 -0.8288
 4190SOL    HW316533   5.627   2.425   0.480 -0.1306 -1.2292  0.6119
 4190SOL    MW416534   5.636   2.374   0.410 -0.2848 -0.5480  0.0883
 4191SOL     OW16535   4.604   4.272   3.602  0.1685  0.0661  0.2772
 4191SOL    HW216536   4.595   4.366   3.616 -1.8882 -0.1545  0.7310
 4191SOL    HW316537   4.668   4.243   3.667  1.4313  1.2280 -0.3878
 4191SOL    MW416538   4.611   4.280   3.612  0.0638  0.1903  0.2494
 4192SOL     OW16539   2.602   3.665   5.726 -0.4441  0.2375  0.0367
 4192SOL    HW216540   2.561   3.724   5.789  0.2600 -0.5263  1.2552
 4192SOL    HW316541   2.531   3.639   5.668 -1.2549  0.4930  0.8852
 4192SOL    MW416542   2.587   3.669   5.727 -0.4582  0.1704  0.3094
 4193SOL     OW16543   5.641   4.379   4.899 -0.8252  0.0511 -0.5820
 4193SOL    HW216544   5.636   4.348   4.990  1.1930  1.0668 -0.0657
 4193SOL    HW316545   5.648   4.474   4.906 -2.0494  0.2863 -1.9134
 4193SOL    MW416546   5.641   4.387   4.912 -0.7204  0.2161 -0.6896
 4194SOL     OW16547   5.270   1.820   0.732  0.1438  0.1510 -0.2710
 4194SOL    HW216548   5.215   1.888   0.694 -0.7313  0.3509  1.2870
 4194SOL    HW316549   5.245   1.816   0.824  1.1421 -1.3377 -0.0129
 4194SOL    MW416550   5.260   1.828   0.739  0.1601 -0.0191 -0.0314
 4195SOL     OW16551   6.338   2.414   5.981 -0.4011 -0.6044  0.7505
 4195SOL    HW216552   6.302   2.399   5.894  2.9423 -1.5267 -0.6593
 4195SOL    HW316553   6.357   2.508   5.983 -0.3883 -0.6006  0.4348
 4195SOL    MW416554   6.336   2.425   5.970  0.0417 -0.7256  0.5229
 4196SOL     OW16555   1.885   4.637   5.914 -0.2138 -0.3432  0.1911
 4196SOL    HW216556   1.855   4.551   5.944  0.2155 -0.9855 -1.1210
 4196SOL    HW316557   1.805   4.687   5.901 -0.4206  0.3237  3.2034
 4196SOL    MW416558   1.870   4.632   5.916 -0.1844 -0.3399  0.4154
 4197SOL     OW16559   4.805   0.977   3.889  0.7572  0.2943  0.0284
 4197SOL    HW216560   4.730   1.018   3.932  0.8807 -0.6884  1.2255
 4197SOL    HW316561   4.833   0.909   3.949  1.9713 -0.0482 -0.8857
 4197SOL    MW416562   4.799   0.973   3.903  0.9337  0.1194  0.0658
 4198SOL     OW16563   2.109   0.758   5.073 -0.0791  0.0858 -0.0270
 4198SOL    HW216564   2.089   0.672   5.110  1.5627  0.4870  1.9782
 4198SOL    HW316565   2.200   0.751   5.042 -0.3918  0.7098 -1.1698
 4198SOL    MW416566   2.119   0.746   5.074  0.0963  0.2211  0.0868
 4199SOL     OW16567   0.991   0.075   0.620 -0.3288 -0.4764 -0.2321
 4199SOL    HW216568   0.967  -0.011   0.585 -0.3301 -0.0520 -1.2977
 4199SOL    HW316569   1.000   0.131   0.543 -1.1504  0.7017  0.4944
 4199SOL    MW416570   0.989   0.071   0.606 -0.4374 -0.2650 -0.2769
 4200SOL     OW16571   6.146   5.001   3.695  0.6714  0.0406  0.0474
 4200SOL    HW216572   6.090   5.077   3.712 -0.3609 -0.2501 -1.7523
 4200SOL    HW316573   6.144   4.991   3.600  1.9277 -1.4055  0.1313
 4200SOL    MW416574   6.138   5.010   3.685  0.7010 -0.1886 -0.1790
 4201SOL     OW16575   3.017   3.309   5.158  0.4712  0.6105  0.6457
 4201SOL    HW216576   3.015   3.214   5.168 -0.0613  0.5792  0.2555
 4201SOL    HW316577   3.093   3.337   5.210 -1.4374  0.3702  3.7578
 4201SOL    MW416578   3.027   3.300   5.166  0.1491  0.5747  1.0049
 4202SOL     OW16579   5.973   3.763   4.292 -0.2500  0.8849  0.4855
 4202SOL    HW216580   6.044   3.828   4.283  0.9139  0.3092  3.9484
 4202SOL    HW316581   6.012   3.681   4.262 -0.9027  1.2418 -1.5015
 4202SOL    MW416582   5.988   3.761   4.287 -0.1825  0.8560  0.6802
 4203SOL     OW16583   1.226   3.192   4.306 -0.0909 -0.1264 -0.2882
 4203SOL    HW216584   1.154   3.209   4.245 -0.2811  2.3537  0.5396
 4203SOL    HW316585   1.205   3.245   4.384  2.7570  0.9484 -0.1450
 4203SOL    MW416586   1.214   3.201   4.309  0.2597  0.3426 -0.1601
 4204SOL     OW16587   3.744   6.380   5.401  0.2262  0.0757 -0.6279
 4204SOL    HW216588   3.762   6.391   5.307  1.8080  0.8941 -0.2567
 4204SOL    HW316589   3.696   6.459   5.425  1.5718  0.8405 -0.3585
 4204SOL    MW416590   3.740   6.392   5.392  0.6124  0.2846 -0.5434
 4205SOL     OW16591   4.845   4.182   4.071  0.3164 -0.7809  0.0986
 4205SOL    HW216592   4.810   4.237   4.001 -0.1615 -1.7301 -0.4347
 4205SOL    HW316593   4.918   4.232   4.107  0.6157 -0.2941 -1.1217
 4205SOL    MW416594   4.850   4.196   4.066  0.2928 -0.8419 -0.1328
 4206SOL     OW16595   2.342   3.926   4.173  0.4306  0.1447 -0.0857
 4206SOL    HW216596   2.286   3.928   4.095 -1.1294 -1.8954  0.8983
 4206SOL    HW316597   2.416   3.983   4.150 -0.9417  1.2010 -2.2728
 4206SOL    MW416598   2.345   3.934   4.159  0.0437  0.0149 -0.2445
 4207SOL     OW16599   2.078   3.799   0.608  0.3355 -0.4209  0.6580
 4207SOL    HW216600   2.094   3.721   0.663 -1.5080 -0.8427  0.6883
 4207SOL    HW316601   2.048   3.763   0.524  0.6342  0.2558  0.2558
 4207SOL    MW416602   2.076   3.784   0.604  0.1317 -0.3873  0.6089
 4208SOL     OW16603   3.360   1.280   1.687 -0.3955 -0.1679  0.4347
 4208SOL    HW216604   3.381   1.201   1.737  0.2881  0.2110  0.7626
 4208SOL    HW316605   3.336   1.345   1.753  0.1538  0.2281  0.2548
 4208SOL    MW416606   3.359   1.278   1.702 -0.2328 -0.0657  0.4542
 4209SOL     OW16607   5.699   6.000   1.573 -0.5153  0.1118 -0.2311
 4209SOL    HW216608   5.615   5.959   1.593  0.3532 -1.9522 -0.5905
 4209SOL    HW316609   5.725   5.962   1.489  1.1551  0.0643  0.2653
 4209SOL    MW416610   5.692   5.990   1.565 -0.1803 -0.1668 -0.2130
 4210SOL     OW16611   4.005   4.878   3.338 -0.1854 -0.0998  0.1618
 4210SOL    HW216612   4.053   4.812   3.388 -0.2845 -1.2910 -1.2308
 4210SOL    HW316613   3.925   4.833   3.310 -0.2982  0.6377 -0.7344
 4210SOL    MW416614   4.001   4.863   3.341 -0.2133 -0.1597 -0.1402
 4211SOL     OW16615   6.158   4.604   3.622 -0.2594  0.1841 -0.0282
 4211SOL    HW216616   6.130   4.627   3.711  0.5508 -0.9767  0.5581
 4211SOL    HW316617   6.240   4.651   3.610 -0.8673  1.1296 -0.5580
 4211SOL    MW416618   6.165   4.613   3.632 -0.2327  0.1557 -0.0207
 4212SOL     OW16619   0.058   3.960   2.952 -0.0265  0.2162 -0.3646
 4212SOL    HW216620   0.048   3.971   2.858  1.7385  4.2944 -0.2729
 4212SOL    HW316621   0.136   3.906   2.963  0.5495  0.8466 -1.2766
 4212SOL    MW416622   0.067   3.954   2.941  0.2824  0.8374 -0.4728
 4213SOL     OW16623   2.069   0.011   6.281  0.3101  0.2943 -0.3955
 4213SOL    HW216624   2.159  -0.021   6.287 -0.1412 -1.6372 -2.6067
 4213SOL    HW316625   2.029  -0.012   6.365  1.1942 -1.2005 -0.3629
 4213SOL    MW416626   2.075   0.004   6.293  0.3672 -0.1577 -0.6829
 4214SOL     OW16627   2.101   3.880   5.375  0.1025 -0.7723 -0.2035
 4214SOL    HW216628   2.159   3.945   5.335  0.6230 -0.3545  1.1913
 4214SOL    HW316629   2.125   3.797   5.332  0.5109 -0.3069 -0.8895
 4214SOL    MW416630   2.112   3.877   5.364  0.2250 -0.6558 -0.1100
 4215SOL     OW16631   1.114   2.679   0.447 -0.1090  0.5925 -0.2242
 4215SOL    HW216632   1.147   2.590   0.449 -0.0321  0.5911 -1.0831
 4215SOL    HW316633   1.028   2.675   0.490 -0.2917  0.0314 -0.6430
 4215SOL    MW416634   1.107   2.667   0.453 -0.1230  0.5183 -0.3928
 4216SOL     OW16635   4.837   5.465   2.829  0.0089 -0.4249 -0.3917
 4216SOL    HW216636   4.764   5.481   2.768 -1.5615 -3.2090  0.5390
 4216SOL    HW316637   4.799   5.479   2.915  1.2876  0.3367  0.0682
 4216SOL    MW416638   4.822   5.469   2.832 -0.0296 -0.6918 -0.2082
 4217SOL     OW16639   2.377   4.392   4.154 -0.3089  0.2055 -0.3546
 4217SOL    HW216640   2.452   4.401   4.095 -1.1067  0.5034 -1.3372
 4217SOL    HW316641   2.319   4.464   4.131 -0.4970  0.5398  1.0409
 4217SOL    MW416642   2.379   4.403   4.144 -0.4390  0.2889 -0.3001
 4218SOL     OW16643   4.886   4.117   0.581  0.0990  0.1201 -0.6630
 4218SOL    HW216644   4.864   4.210   0.581  4.0656  1.2298  0.4289
 4218SOL    HW316645   4.951   4.108   0.511 -3.0444 -2.8271 -3.5931
 4218SOL    MW416646   4.892   4.128   0.571  0.2076 -0.1223 -0.9055
 4219SOL     OW16647   0.123   2.586   2.505  0.0838  0.8059 -0.0715
 4219SOL    HW216648   0.198   2.530   2.485 -0.7514 -0.4863  0.2916
 4219SOL    HW316649   0.105   2.632   2.424  1.7469  1.7432  0.0513
 4219SOL    MW416650   0.131   2.585   2.492  0.1930  0.7591 -0.0074
 4220SOL     OW16651   4.438   2.130   0.308  0.1368 -0.3500  0.4260
 4220SOL    HW216652   4.499   2.145   0.236  0.8925 -0.9949  0.9156
 4220SOL    HW316653   4.460   2.197   0.372  1.9147 -1.9386  1.5877
 4220SOL    MW416654   4.449   2.141   0.307  0.4711 -0.6447  0.6439
 4221SOL     OW16655   0.253   0.225   3.585 -0.6033 -0.1660  0.0118
 4221SOL    HW216656   0.291   0.137   3.582 -1.0039 -0.3974  1.2682
 4221SOL    HW316657   0.162   0.213   3.557 -0.4115  0.0185 -0.7296
 4221SOL    MW416658   0.246   0.212   3.581 -0.6308 -0.1722  0.0797
 4222SOL     OW16659   2.807   6.363   4.772  0.1074 -0.3867 -0.2797
 4222SOL    HW216660   2.759   6.430   4.820 -0.0765 -0.6978 -0.0245
 4222SOL    HW316661   2.856   6.316   4.840 -1.1106 -1.6317 -0.2034
 4222SOL    MW416662   2.807   6.365   4.787 -0.0775 -0.5920 -0.2360
 4223SOL     OW16663   3.762   1.527   2.022  0.5107 -0.1509 -0.1289
 4223SOL    HW216664   3.723   1.462   1.964  0.1743  0.7635 -0.9394
 4223SOL    HW316665   3.826   1.572   1.968  0.5510  0.3823  0.3527
 4223SOL    MW416666   3.765   1.524   2.007  0.4716  0.0401 -0.1723
 4224SOL     OW16667   4.646   2.987   3.628  0.0452  0.2439 -0.0332
 4224SOL    HW216668   4.566   2.963   3.673 -0.2808  1.5374  0.1191
 4224SOL    HW316669   4.667   2.911   3.574 -0.9453 -0.3391  0.3795
 4224SOL    MW416670   4.638   2.974   3.627 -0.1285  0.3377  0.0414
 4225SOL     OW16671   4.213   3.406   4.276  0.1954  0.1662 -0.4055
 4225SOL    HW216672   4.179   3.397   4.365 -0.7517 -0.0417 -0.7671
 4225SOL    HW316673   4.287   3.346   4.272 -1.0299 -1.4256 -0.3521
 4225SOL    MW416674   4.218   3.397   4.287 -0.0912 -0.0713 -0.4462
 4226SOL     OW16675   4.992   3.268   3.690  0.1002 -0.0867  0.2011
 4226SOL    HW216676   4.945   3.213   3.752  0.7266  0.0776  0.8371
 4226SOL    HW316677   5.007   3.350   3.738 -0.2546  0.4044 -0.5044
 4226SOL    MW416678   4.988   3.272   3.705  0.1361 -0.0003  0.1919
 4227SOL     OW16679   6.074   1.607   1.067 -0.1555  0.2551 -0.8062
 4227SOL    HW216680   6.055   1.522   1.105 -1.6462  1.2038  0.7002
 4227SOL    HW316681   6.134   1.588   0.995  0.4397 -1.9295  0.1811
 4227SOL    MW416682   6.080   1.593   1.062 -0.2736  0.0921 -0.4772
 4228SOL     OW16683   1.326   2.358   1.703  0.2895  0.1430  0.8608
 4228SOL    HW216684   1.251   2.322   1.654 -0.2817 -1.1662  2.6093
 4228SOL    HW316685   1.397   2.297   1.686 -0.1950 -0.9147  2.4123
 4228SOL    MW416686   1.325   2.346   1.694  0.1502 -0.1692  1.2962
 4229SOL     OW16687   6.028   3.364   6.169 -0.0526 -0.1078 -0.2749
 4229SOL    HW216688   6.029   3.370   6.074  0.2047  0.9026 -0.2195
 4229SOL    HW316689   5.935   3.372   6.192 -0.1438 -0.6412 -0.4536
 4229SOL    MW416690   6.016   3.366   6.160 -0.0307 -0.0448 -0.2911
 4230SOL     OW16691   5.925   5.557   3.073 -0.1348  0.1723  0.1976
 4230SOL    HW216692   5.897   5.622   3.138  0.1714  1.4077 -0.8726
 4230SOL    HW316693   5.994   5.507   3.117 -0.0830  0.8350  0.8941
 4230SOL    MW416694   5.930   5.559   3.088 -0.0876  0.4227  0.1483
 4231SOL     OW16695   1.738   2.696   4.812  0.9186 -0.3528 -0.0624
 4231SOL    HW216696   1.700   2.609   4.826  0.5861 -0.2786 -0.4786
 4231SOL    HW316697   1.693   2.752   4.875 -0.0686 -0.1585 -0.9103
 4231SOL    MW416698   1.727   2.692   4.822  0.7445 -0.3173 -0.2292
 4232SOL     OW16699   3.533   4.532   0.875 -0.3237  0.1331  0.6184
 4232SOL    HW216700   3.544   4.519   0.969  0.0338 -1.0344  0.4326
 4232SOL    HW316701   3.462   4.472   0.851 -0.8848  0.9266  0.2507
 4232SOL    MW416702   3.525   4.522   0.884 -0.3506  0.0838  0.5454
 4233SOL     OW16703   0.277   6.022   3.962 -0.7335  0.4781 -0.2203
 4233SOL    HW216704   0.361   5.977   3.948 -0.9335  0.1923 -0.5135
 4233SOL    HW316705   0.256   6.060   3.877 -1.4117 -0.3302 -0.4231
 4233SOL    MW416706   0.285   6.021   3.949 -0.8494  0.3337 -0.2857
 4234SOL     OW16707   2.625   2.690   3.789 -0.1325  0.4686 -0.4933
 4234SOL    HW216708   2.537   2.712   3.822  0.5384  0.1521  1.6573
 4234SOL    HW316709   2.611   2.672   3.696 -2.1928  1.3027 -0.4112
 4234SOL    MW416710   2.611   2.691   3.781 -0.3158  0.5368 -0.1987
 4235SOL     OW16711   4.469   5.337   1.912 -0.8124  0.2779  0.2454
 4235SOL    HW216712   4.531   5.294   1.971 -0.7811 -1.6752 -1.0986
 4235SOL    HW316713   4.436   5.411   1.962  2.0662  1.0224  1.2880
 4235SOL    MW416714   4.473   5.341   1.926 -0.4285  0.1184  0.2056
 4236SOL     OW16715   3.971   4.958   0.744 -0.1664 -0.6399  0.2584
 4236SOL    HW216716   3.912   4.955   0.819 -3.2001 -1.2948 -1.9768
 4236SOL    HW316717   4.053   4.922   0.777 -0.8757  0.4739  3.5944
 4236SOL    MW416718   3.974   4.953   0.758 -0.6603 -0.5794  0.4036
 4237SOL     OW16719   3.471   2.040   3.208 -0.2548  0.4776 -0.9398
 4237SOL    HW216720   3.525   2.036   3.128 -0.1499  1.0104 -0.9062
 4237SOL    HW316721   3.386   2.005   3.182 -0.4293  1.2627 -1.4780
 4237SOL    MW416722   3.467   2.035   3.194 -0.2640  0.6515 -1.0064
 4238SOL     OW16723   2.314   4.698   1.505 -0.1623  0.1538 -0.1695
 4238SOL    HW216724   2.256   4.769   1.533  0.7503  1.0191 -0.4426
 4238SOL    HW316725   2.306   4.632   1.574  0.3747  1.3036  1.0254
 4238SOL    MW416726   2.305   4.698   1.518  0.0289  0.4197 -0.0479
 4239SOL     OW16727   5.926   2.100   3.734 -0.0960  0.2153  0.4249
 4239SOL    HW216728   6.017   2.068   3.733  0.1364  0.8764  0.0559
 4239SOL    HW316729   5.873   2.020   3.725  0.3588 -0.4214  2.7358
 4239SOL    MW416730   5.931   2.085   3.733 -0.0053  0.2185  0.6811
 4240SOL     OW16731   2.283   5.577   1.993  0.0260 -0.3113 -0.1596
 4240SOL    HW216732   2.354   5.591   1.930  0.3512 -1.1937  0.0025
 4240SOL    HW316733   2.327   5.545   2.072 -0.6812 -2.3597 -0.5583
 4240SOL    MW416734   2.299   5.575   1.995 -0.0244 -0.6980 -0.1909
 4241SOL     OW16735   3.115   2.300   5.837  0.0170 -0.0501 -0.5235
 4241SOL    HW216736   3.070   2.216   5.824 -1.9233  0.6051  1.3661
 4241SOL    HW316737   3.049   2.356   5.878  1.7898  1.8649 -0.1469
 4241SOL    MW416738   3.100   2.296   5.841 -0.0051  0.2890 -0.2245
 4242SOL     OW16739   2.486   3.830   4.654  0.2689  0.7041  0.4945
 4242SOL    HW216740   2.546   3.859   4.585  0.0344  2.4640  0.9851
 4242SOL    HW316741   2.525   3.863   4.735 -1.4994  2.2086  0.8002
 4242SOL    MW416742   2.499   3.838   4.656  0.0047  1.1348  0.5995
 4243SOL     OW16743   6.150   3.021   4.027  0.7160  0.3939  0.7997
 4243SOL    HW216744   6.117   3.110   4.017 -0.6847 -0.2357 -0.6290
 4243SOL    HW316745   6.188   2.999   3.941  0.4240 -0.6203  0.9148
 4243SOL    MW416746   6.151   3.030   4.014  0.4927  0.1770  0.6264
 4244SOL     OW16747   4.215   2.742   6.283  0.1033 -0.7430 -0.4519
 4244SOL    HW216748   4.196   2.649   6.292  1.4532 -0.9384  0.7369
 4244SOL    HW316749   4.252   2.767   6.367  2.2106  0.2516 -1.5965
 4244SOL    MW416750   4.217   2.733   6.295  0.5595 -0.6375 -0.4461
 4245SOL     OW16751   0.363   2.949   1.133 -0.0446  0.1363  0.9994
 4245SOL    HW216752   0.366   3.025   1.192 -1.3614  0.1213  1.1037
 4245SOL    HW316753   0.455   2.929   1.117  0.3435  0.7650  2.2545
 4245SOL    MW416754   0.376   2.956   1.139 -0.1671  0.2173  1.1787
 4246SOL     OW16755   0.057   4.479   3.525  0.0925 -0.4271 -0.0650
 4246SOL    HW216756   0.046   4.394   3.568 -1.0070  0.2288  1.0435
 4246SOL    HW316757   0.023   4.466   3.437  0.5235 -1.2893 -0.1150
 4246SOL    MW416758   0.051   4.466   3.519  0.0043 -0.4543  0.0746
 4247SOL     OW16759   3.339   2.283   2.658 -0.9435 -0.3714 -0.4156
 4247SOL    HW216760   3.427   2.250   2.678 -1.3239 -1.5221 -0.5409
 4247SOL    HW316761   3.299   2.297   2.743 -0.3376  1.0849 -0.3357
 4247SOL    MW416762   3.346   2.280   2.672 -0.9137 -0.3311 -0.4216
 4248SOL     OW16763   3.539   2.576   0.858 -0.0936  0.1743  0.1575
 4248SOL    HW216764   3.596   2.590   0.934 -1.7942  0.7164  1.3727
 4248SOL    HW316765   3.510   2.485   0.867  0.6455 -0.1547 -0.5561
 4248SOL    MW416766   3.543   2.566   0.869 -0.2205  0.2024  0.2237
 4249SOL     OW16767   6.423   6.122   5.096 -0.4511 -0.5316  0.0957
 4249SOL    HW216768   6.333   6.127   5.128  0.1105  0.0965  1.6670
 4249SOL    HW316769   6.451   6.033   5.116  0.2102  0.1220  2.3903
 4249SOL    MW416770   6.415   6.111   5.102 -0.2897 -0.3625  0.6058
 4250SOL     OW16771   2.121   3.897   2.562 -0.5494  0.1207  0.4544
 4250SOL    HW216772   2.113   3.973   2.620  1.4006  1.7816 -1.3063
 4250SOL    HW316773   2.030   3.869   2.547 -1.3671  2.3849  0.7885
 4250SOL    MW416774   2.108   3.903   2.568 -0.4000  0.6386  0.2662
 4251SOL     OW16775   5.351   0.351   3.334  0.3931  1.0341 -0.3626
 4251SOL    HW216776   5.439   0.316   3.352 -0.1814  0.6900  2.1554
 4251SOL    HW316777   5.353   0.440   3.369 -1.2107 -0.1483  3.3267
 4251SOL    MW416778   5.363   0.358   3.341  0.1057  0.8327  0.4564
 4252SOL     OW16779   2.712   3.831   3.837  0.3045  0.5079  0.4809
 4252SOL    HW216780   2.697   3.910   3.786  1.2064  0.5212  0.2157
 4252SOL    HW316781   2.626   3.809   3.873  0.0278  1.5510  0.4869
 4252SOL    MW416782   2.699   3.838   3.835  0.3869  0.6473  0.4467
 4253SOL     OW16783   4.127   0.580   6.292 -0.4502  0.0097 -0.0275
 4253SOL    HW216784   4.216   0.553   6.268 -0.0350  0.9091  0.4616
 4253SOL    HW316785   4.129   0.587   6.387 -1.0163  0.1620 -0.0240
 4253SOL    MW416786   4.139   0.577   6.301 -0.4701  0.1485  0.0375
 4254SOL     OW16787   3.188   3.891   1.751  0.2870  0.4985  0.2284
 4254SOL    HW216788   3.213   3.854   1.666 -0.9647  1.9105 -0.8088
 4254SOL    HW316789   3.201   3.819   1.813 -0.4015 -1.1414 -1.4237
 4254SOL    MW416790   3.193   3.876   1.748  0.0310  0.4684 -0.1264
 4255SOL     OW16791   0.614   0.688   4.452 -0.3175 -0.1425 -0.4090
 4255SOL    HW216792   0.585   0.776   4.476  1.3363 -0.1256  2.0049
 4255SOL    HW316793   0.580   0.632   4.522  2.0325 -0.6924  0.3835
 4255SOL    MW416794   0.606   0.693   4.465  0.2108 -0.2128  0.0140
 4256SOL     OW16795   1.094   0.446   2.260  0.1253 -0.0926  0.1501
 4256SOL    HW216796   1.075   0.539   2.265 -0.1591 -0.2118  1.8606
 4256SOL    HW316797   1.188   0.439   2.278 -0.1627 -0.2285  1.7614
 4256SOL    MW416798   1.104   0.457   2.263  0.0498 -0.1263  0.5884
 4257SOL     OW16799   3.621   1.376   3.148 -0.3431  0.3573 -0.2280
 4257SOL    HW216800   3.630   1.471   3.159 -1.0473  0.2662  1.2014
 4257SOL    HW316801   3.642   1.339   3.233  1.8449 -0.9505 -1.2305
 4257SOL    MW416802   3.625   1.384   3.160 -0.1473  0.1728 -0.1717
 4258SOL     OW16803   2.851   5.056   5.252  0.1000  0.4800  0.1727
 4258SOL    HW216804   2.830   5.147   5.274 -0.9804  0.0840  0.8463
 4258SOL    HW316805   2.946   5.056   5.237  0.5795  1.2570  2.6935
 4258SOL    MW416806   2.861   5.068   5.253  0.0207  0.5303  0.5942
 4259SOL     OW16807   1.992   2.857   1.288  0.2239 -0.0173  0.1616
 4259SOL    HW216808   2.055   2.902   1.344  0.1898  0.0087  0.1785
 4259SOL    HW316809   1.926   2.923   1.268  1.1064  0.4767 -1.2895
 4259SOL    MW416810   1.992   2.872   1.292  0.3358  0.0513 -0.0276
 4260SOL     OW16811   4.906   5.195   5.524  0.2994  0.3887  0.0650
 4260SOL    HW216812   4.865   5.129   5.579 -1.2383 -0.2172 -1.6781
 4260SOL    HW316813   4.998   5.193   5.549 -0.2099 -0.3107  2.0907
 4260SOL    MW416814   4.913   5.186   5.534  0.0293  0.2165  0.1023
 4261SOL     OW16815   2.904   6.342   0.034 -0.4830  0.1291  0.3221
 4261SOL    HW216816   2.935   6.289   0.108  1.1678  0.8471  0.1891
 4261SOL    HW316817   2.880   6.426   0.074 -1.1350 -0.0165  0.2479
 4261SOL    MW416818   2.905   6.346   0.049 -0.3512  0.2046  0.2948
 4262SOL     OW16819   4.429   6.325   3.264 -0.4556 -0.2294 -0.2257
 4262SOL    HW216820   4.335   6.340   3.273 -0.2607  0.5229  0.5864
 4262SOL    HW316821   4.470   6.391   3.319  0.5477 -0.7748 -0.2931
 4262SOL    MW416822   4.422   6.336   3.272 -0.2975 -0.2021 -0.1274
 4263SOL     OW16823   1.998   0.826   5.838  0.1734  0.1827 -0.1801
 4263SOL    HW216824   2.023   0.915   5.863 -1.3722  0.3952  0.7742
 4263SOL    HW316825   2.024   0.772   5.913 -0.5186  0.1359  0.0393
 4263SOL    MW416826   2.004   0.831   5.851 -0.1218  0.2045 -0.0252
 4264SOL     OW16827   5.787   1.843   1.256  0.0091  0.4684  0.3881
 4264SOL    HW216828   5.731   1.821   1.182 -1.5950  0.0159  1.6771
 4264SOL    HW316829   5.812   1.758   1.293 -0.1799  0.6971  1.0590
 4264SOL    MW416830   5.783   1.829   1.251 -0.2274  0.4389  0.6467
 4265SOL     OW16831   5.169   1.545   5.267  0.3177  0.2383  0.6376
 4265SOL    HW216832   5.193   1.470   5.322 -0.0239  0.2912  0.8594
 4265SOL    HW316833   5.253   1.580   5.237  0.4433 -1.4710 -1.1633
 4265SOL    MW416834   5.184   1.540   5.271  0.2892  0.0197  0.4293
 4266SOL     OW16835   0.949   2.884   3.464  0.1458  0.1214 -0.1622
 4266SOL    HW216836   0.979   2.972   3.441 -0.1974  0.1215 -0.6309
 4266SOL    HW316837   0.887   2.898   3.536  0.7488  0.1805  0.3512
 4266SOL    MW416838   0.945   2.897   3.471  0.1801  0.1292 -0.1563
 4267SOL     OW16839   3.189   1.695   2.558 -0.2416 -0.2315  0.2177
 4267SOL    HW216840   3.148   1.674   2.474 -1.0808 -1.2482  0.8579
 4267SOL    HW316841   3.226   1.612   2.588  1.2000  0.3971  0.2652
 4267SOL    MW416842   3.188   1.681   2.551 -0.1621 -0.2827  0.3084
 4268SOL     OW16843   0.953   0.294   6.058  0.0803 -0.1550 -0.6411
 4268SOL    HW216844   1.037   0.334   6.034  0.5243  0.4623  1.7653
 4268SOL    HW316845   0.933   0.236   5.984  1.2705  1.6681 -2.5217
 4268SOL    MW416846   0.962   0.292   6.045  0.2959  0.1670 -0.5717
 4269SOL     OW16847   0.537   1.529   3.555  0.4913 -0.2276 -0.2812
 4269SOL    HW216848   0.471   1.592   3.526 -0.2181 -0.7550  0.1498
 4269SOL    HW316849   0.489   1.468   3.611  1.2467 -0.9125 -0.3568
 4269SOL    MW416850   0.522   1.529   3.558  0.4974 -0.3875 -0.2343
 4270SOL     OW16851   1.851   1.989   2.824 -0.0337 -0.4959  0.3993
 4270SOL    HW216852   1.936   1.957   2.855  0.8085  1.2154 -0.0284
 4270SOL    HW316853   1.836   1.941   2.742  0.0922 -1.4386  0.9134
 4270SOL    MW416854   1.860   1.978   2.817  0.0940 -0.3945  0.4107
 4271SOL     OW16855   5.979   0.722   5.686  0.5256  0.2604 -0.3317
 4271SOL    HW216856   5.952   0.723   5.594  1.7789 -0.7005 -0.7499
 4271SOL    HW316857   6.064   0.678   5.685 -0.1882 -1.3357  1.4802
 4271SOL    MW416858   5.987   0.716   5.674  0.5968 -0.0770 -0.1478
 4272SOL     OW16859   2.403   2.727   5.529  0.3095 -0.1390  0.6271
 4272SOL    HW216860   2.370   2.803   5.578  1.3681 -0.0584  1.2610
 4272SOL    HW316861   2.448   2.765   5.454  0.3563 -0.1606  0.6445
 4272SOL    MW416862   2.405   2.742   5.526  0.4553 -0.1312  0.7130
 4273SOL     OW16863   2.939   0.603   5.591  0.8536 -0.1204 -0.0589
 4273SOL    HW216864   3.001   0.608   5.664 -0.2439  1.0057  0.8359
 4273SOL    HW316865   2.950   0.686   5.545  0.0271  0.0798  0.0940
 4273SOL    MW416866   2.949   0.615   5.594  0.5998  0.0546  0.0793
 4274SOL     OW16867   3.754   4.141   0.148  0.0434  0.0743  0.0084
 4274SOL    HW216868   3.690   4.207   0.174  1.5715  1.1115  1.3665
 4274SOL    HW316869   3.813   4.186   0.087 -0.0948 -0.6608 -0.6938
 4274SOL    MW416870   3.754   4.155   0.143  0.2267  0.1141  0.0949
 4275SOL     OW16871   5.038   3.167   0.310 -0.7775 -0.2344 -0.1662
 4275SOL    HW216872   5.122   3.196   0.345 -0.6704  1.1571 -1.4859
 4275SOL    HW316873   4.977   3.178   0.383 -0.5077  2.2998 -0.2449
 4275SOL    MW416874   5.041   3.172   0.325 -0.7278  0.2836 -0.3507
 4276SOL     OW16875   1.002   4.064   3.022 -0.0714  0.1007  0.4017
 4276SOL    HW216876   0.990   4.104   2.936 -0.3287  1.3939  1.0228
 4276SOL    HW316877   0.922   4.014   3.037 -0.8221  1.3434  0.6498
 4276SOL    MW416878   0.990   4.062   3.013 -0.2044  0.4353  0.5164
 4277SOL     OW16879   3.631   1.041   1.049  0.7036  0.5015 -0.0785
 4277SOL    HW216880   3.557   0.981   1.044  0.1943  1.1681 -0.5916
 4277SOL    HW316881   3.698   0.993   1.098  0.2720 -0.4502 -0.4147
 4277SOL    MW416882   3.630   1.027   1.055  0.5795  0.4639 -0.1905
 4278SOL     OW16883   1.298   5.181   3.154 -0.0440  0.1402  0.2442
 4278SOL    HW216884   1.367   5.153   3.094  0.6961 -0.2114  1.2538
 4278SOL    HW316885   1.318   5.273   3.172  1.0495 -0.3598  1.7110
 4278SOL    MW416886   1.309   5.189   3.148  0.1980  0.0278  0.5709
 4279SOL     OW16887   0.953   5.667   0.640 -0.3263  0.3870  0.2109
 4279SOL    HW216888   1.025   5.731   0.643  0.5675 -0.6025  0.7378
 4279SOL    HW316889   0.991   5.591   0.595 -2.0004  0.9428 -2.3348
 4279SOL    MW416890   0.968   5.665   0.635 -0.4293  0.3298 -0.0555
 4280SOL     OW16891   6.160   3.956   4.306 -0.5299  0.2051 -0.3912
 4280SOL    HW216892   6.248   3.948   4.270 -0.0703  1.5773  0.3312
 4280SOL    HW316893   6.168   4.026   4.372 -1.2007 -2.4380  2.7607
 4280SOL    MW416894   6.173   3.964   4.310 -0.5578  0.0374  0.1200
 4281SOL     OW16895   0.718   3.084   3.754  0.4675  0.3474 -0.2553
 4281SOL    HW216896   0.711   2.995   3.721  0.6188  0.4920 -0.6863
 4281SOL    HW316897   0.636   3.126   3.728  1.4786  1.1080 -2.4518
 4281SOL    MW416898   0.706   3.078   3.746  0.6208  0.4668 -0.6019
 4282SOL     OW16899   1.580   2.235   2.756  0.1389  0.3876 -0.4490
 4282SOL    HW216900   1.607   2.270   2.841  1.8975 -2.0470  0.0902
 4282SOL    HW316901   1.540   2.310   2.711  0.3404  2.0670  1.9905
 4282SOL    MW416902   1.578   2.250   2.761  0.3975  0.2879 -0.0560
 4283SOL     OW16903   3.415   3.137   1.494  0.2176 -0.0171  0.1764
 4283SOL    HW216904   3.480   3.163   1.559  0.2867 -0.6046  0.3560
 4283SOL    HW316905   3.346   3.094   1.546  0.0352 -0.0465 -0.0873
 4283SOL    MW416906   3.414   3.135   1.510  0.2026 -0.0985  0.1653
 4284SOL     OW16907   0.920   6.094   0.767  0.0880  0.4904 -0.2053
 4284SOL    HW216908   0.873   6.134   0.840 -0.3364 -0.8097  0.2627
 4284SOL    HW316909   0.865   6.021   0.740  0.3330  0.8372 -1.7239
 4284SOL    MW416910   0.907   6.090   0.773  0.0644  0.3646 -0.3439
 4285SOL     OW16911   0.748   5.622   2.439 -0.3232 -0.3982 -0.4818
 4285SOL    HW216912   0.813   5.569   2.391  1.6869  1.5390 -0.0672
 4285SOL    HW316913   0.797   5.658   2.513 -1.6655  1.7538 -0.5597
 4285SOL    MW416914   0.763   5.619   2.442 -0.2351  0.1413 -0.4374
 4286SOL     OW16915   5.606   3.956   2.407 -0.0950 -0.4185  0.0604
 4286SOL    HW216916   5.625   4.012   2.332 -0.9428  0.6048  0.5860
 4286SOL    HW316917   5.516   3.979   2.432  0.6865  0.3812  2.3283
 4286SOL    MW416918   5.596   3.966   2.400 -0.1037 -0.1780  0.4290
 4287SOL     OW16919   4.030   1.282   3.322 -0.3744 -0.0959 -0.3521
 4287SOL    HW216920   4.121   1.279   3.292 -0.0199  1.0913  0.5098
 4287SOL    HW316921   3.984   1.219   3.267  0.4631  1.1545 -2.6050
 4287SOL    MW416922   4.036   1.274   3.311 -0.2171  0.2257 -0.5357
 4288SOL     OW16923   0.427   0.047   2.286 -0.3360  0.0445 -0.3926
 4288SOL    HW216924   0.414   0.123   2.229 -0.9175  1.3335  1.3656
 4288SOL    HW316925   0.408   0.080   2.374  2.0308 -1.4561  0.7738
 4288SOL    MW416926   0.423   0.062   2.290 -0.1005  0.0166 -0.0067
 4289SOL     OW16927   0.512   5.058   1.160  0.4943  0.6483  0.4293
 4289SOL    HW216928   0.566   5.061   1.239  1.9810  0.9638 -0.5623
 4289SOL    HW316929   0.553   4.991   1.105 -0.4073  0.5649 -0.1662
 4289SOL    MW416930   0.525   5.050   1.163  0.5715  0.6789  0.2199
 4290SOL     OW16931   4.252   1.855   4.904 -0.2711 -0.8580 -0.3185
 4290SOL    HW216932   4.214   1.920   4.844 -0.1623 -1.3985 -0.9865
 4290SOL    HW316933   4.275   1.905   4.982  1.4643  0.2616 -1.4860
 4290SOL    MW416934   4.250   1.870   4.907 -0.0277 -0.7816 -0.5607
 4291SOL     OW16935   5.888   5.178   0.061 -0.2049 -0.5425  0.6147
 4291SOL    HW216936   5.928   5.092   0.071  1.8187  0.1067 -1.0596
 4291SOL    HW316937   5.928   5.230   0.131  0.0596 -0.5023  0.4372
 4291SOL    MW416938   5.899   5.174   0.072  0.0970 -0.4515  0.3704
 4292SOL     OW16939   5.487   3.353   6.039  0.0504  0.2920 -0.1641
 4292SOL    HW216940   5.496   3.365   6.134 -0.4878  0.9858 -0.1891
 4292SOL    HW316941   5.441   3.270   6.030 -0.0869  0.3245  0.1994
 4292SOL    MW416942   5.482   3.344   6.050 -0.0387  0.3878 -0.1194
 4293SOL     OW16943   2.670   4.780   6.396 -0.0343 -0.5564  0.1599
 4293SOL    HW216944   2.626   4.859   6.428  0.0586 -0.5012  0.1521
 4293SOL    HW316945   2.713   4.808   6.315 -0.5094 -0.7663 -0.1675
 4293SOL    MW416946   2.670   4.794   6.389 -0.0848 -0.5769  0.1156
 4294SOL     OW16947   5.785   3.867   4.000 -0.2503  0.3546 -0.4991
 4294SOL    HW216948   5.758   3.783   3.963  0.3065  0.0287 -0.1751
 4294SOL    HW316949   5.721   3.884   4.070  0.1260 -0.2192 -0.0003
 4294SOL    MW416950   5.773   3.858   4.005 -0.1272  0.2359 -0.3906
 4295SOL     OW16951   4.274   4.607   5.723  0.2378 -0.4433  0.1173
 4295SOL    HW216952   4.272   4.591   5.629 -0.8071  0.3773 -0.0174
 4295SOL    HW316953   4.288   4.520   5.762  0.6351 -0.7947 -0.7752
 4295SOL    MW416954   4.276   4.593   5.716  0.1523 -0.3814 -0.0183
 4296SOL     OW16955   3.265   5.769   5.112  0.0707  0.2250  0.6172
 4296SOL    HW216956   3.326   5.836   5.142  0.2350  0.6099 -0.5198
 4296SOL    HW316957   3.194   5.818   5.071 -0.2460 -0.2749  0.5551
 4296SOL    MW416958   3.264   5.784   5.111  0.0506  0.2099  0.4590
 4297SOL     OW16959   0.571   0.463   5.780 -0.2943 -0.7044  0.0118
 4297SOL    HW216960   0.656   0.429   5.807 -0.5820 -0.8009  0.8173
 4297SOL    HW316961   0.511   0.437   5.850 -1.0065 -0.7162 -0.5855
 4297SOL    MW416962   0.574   0.455   5.793 -0.4262 -0.7187  0.0393
 4298SOL     OW16963   4.373   0.367   4.826  0.2156 -0.8820  0.3051
 4298SOL    HW216964   4.431   0.324   4.763  0.3242 -1.1502  0.5837
 4298SOL    HW316965   4.352   0.451   4.785 -0.2857 -1.3428 -0.4083
 4298SOL    MW416966   4.378   0.373   4.812  0.1638 -0.9782  0.2477
 4299SOL     OW16967   2.580   2.402   2.270 -0.1777 -0.0881  0.5068
 4299SOL    HW216968   2.651   2.460   2.299  0.8730 -0.9510 -0.2673
 4299SOL    HW316969   2.577   2.334   2.337 -1.5893  0.9403  1.5580
 4299SOL    MW416970   2.589   2.401   2.283 -0.2253 -0.0663  0.5433
 4300SOL     OW16971   6.180   1.356   5.652 -0.2570 -0.0748  0.5168
 4300SOL    HW216972   6.142   1.435   5.614  1.1868  0.2216 -0.4040
 4300SOL    HW316973   6.155   1.359   5.744 -2.4244  0.0813 -0.0130
 4300SOL    MW416974   6.172   1.367   5.659 -0.3525 -0.0151  0.3254
 4301SOL     OW16975   3.884   1.637   1.154  0.1289  0.2746 -0.1639
 4301SOL    HW216976   3.941   1.579   1.205 -0.6822  0.9577  1.5975
 4301SOL    HW316977   3.945   1.691   1.103  1.0130  0.0542  0.6169
 4301SOL    MW416978   3.900   1.636   1.154  0.1385  0.3357  0.1715
 4302SOL     OW16979   0.939   5.952   3.198 -0.6867  0.0173  0.1824
 4302SOL    HW216980   0.848   5.922   3.196 -0.8471  0.5002 -0.0045
 4302SOL    HW316981   0.937   6.036   3.152 -0.1858  0.1440  0.3866
 4302SOL    MW416982   0.926   5.959   3.191 -0.6417  0.0977  0.1847
 4303SOL     OW16983   4.214   6.098   2.745  0.3837  0.1326 -0.1670
 4303SOL    HW216984   4.157   6.161   2.702 -0.2092 -0.6202 -0.5101
 4303SOL    HW316985   4.172   6.082   2.830  0.7029  0.4338  0.0497
 4303SOL    MW416986   4.201   6.104   2.751  0.3476  0.0730 -0.1837
 4304SOL     OW16987   4.477   3.397   0.498 -0.5834  0.4139 -0.2153
 4304SOL    HW216988   4.446   3.331   0.560  0.7301 -0.9277 -0.9254
 4304SOL    HW316989   4.571   3.403   0.516 -0.1405 -0.1011 -2.1346
 4304SOL    MW416990   4.486   3.389   0.509 -0.3517  0.1689 -0.5622
 4305SOL     OW16991   0.417   5.120   3.998  0.8162 -0.3888  0.0829
 4305SOL    HW216992   0.348   5.060   4.025  0.8361  0.4255  2.0450
 4305SOL    HW316993   0.492   5.097   4.053  0.7821  1.5080  0.9809
 4305SOL    MW416994   0.418   5.109   4.009  0.8143 -0.0311  0.4603
 4306SOL     OW16995   1.464   0.883   6.161 -0.4332 -0.4475  0.0421
 4306SOL    HW216996   1.505   0.929   6.088  0.6650 -0.5419  0.5755
 4306SOL    HW316997   1.464   0.791   6.134  1.2017 -0.6680  0.6801
 4306SOL    MW416998   1.470   0.877   6.148 -0.0726 -0.4890  0.1966
 4307SOL     OW16999   5.867   1.704   3.395 -0.2157 -0.1360 -0.0878
 4307SOL    HW217000   5.810   1.655   3.453  0.0286 -0.9691 -0.5280
 4307SOL    HW317001   5.808   1.749   3.335 -0.4694  0.8329  0.8813
 4307SOL    MW417002   5.852   1.703   3.394 -0.2169 -0.1181 -0.0180
 4308SOL     OW17003   3.291   2.581   0.137 -0.1521  0.2287 -0.0220
 4308SOL    HW217004   3.318   2.555   0.049  0.2731 -1.3287  0.5372
 4308SOL    HW317005   3.249   2.503   0.173  1.3321  0.1961  1.8114
 4308SOL    MW417006   3.289   2.567   0.130  0.0998  0.0189  0.2937
 4309SOL     OW17007   6.114   2.820   0.266 -0.2905  0.0995  0.4702
 4309SOL    HW217008   6.183   2.770   0.311  1.7030  2.0171 -0.3065
 4309SOL    HW317009   6.121   2.794   0.175 -1.6150 -0.7383  0.5712
 4309SOL    MW417010   6.124   2.810   0.260 -0.2022  0.2419  0.3811
 4310SOL     OW17011   0.386   5.555   0.200  0.6524  0.0689  0.0745
 4310SOL    HW217012   0.465   5.502   0.211  0.4087 -0.7206 -1.6299
 4310SOL    HW317013   0.343   5.551   0.285  1.2139 -1.5440  0.3206
 4310SOL    MW417014   0.391   5.547   0.212  0.6943 -0.2481 -0.1179
 4311SOL     OW17015   0.439   1.035   6.227  0.0004  0.6405  0.7253
 4311SOL    HW217016   0.484   1.106   6.181  1.5560 -1.2011 -0.7345
 4311SOL    HW317017   0.408   1.076   6.308  1.9284  2.6848  0.5355
 4311SOL    MW417018   0.441   1.050   6.232  0.4600  0.6672  0.5076
 4312SOL     OW17019   2.476   4.736   1.128 -0.1725  0.0811 -0.4088
 4312SOL    HW217020   2.411   4.715   1.196  0.0055 -0.3155 -0.3598
 4312SOL    HW317021   2.544   4.670   1.139  0.7112  1.0655  0.1505
 4312SOL    MW417022   2.476   4.724   1.138 -0.0324  0.1587 -0.3286
 4313SOL     OW17023   0.780   0.655   4.008  0.4869 -0.0295  0.6167
 4313SOL    HW217024   0.822   0.608   4.080 -0.5099 -0.9646  0.5988
 4313SOL    HW317025   0.711   0.596   3.977  1.3231  0.0493 -1.5624
 4313SOL    MW417026   0.776   0.641   4.013  0.4657 -0.1425  0.3269
 4314SOL     OW17027   2.897   6.296   3.349  0.4204  0.2110  0.4312
 4314SOL    HW217028   2.907   6.246   3.268 -1.3160 -0.0778  0.3631
 4314SOL    HW317029   2.945   6.245   3.414 -0.0440 -0.7484  0.0426
 4314SOL    MW417030   2.905   6.283   3.347  0.1300  0.0463  0.3709
 4315SOL     OW17031   3.319   5.639   2.453 -0.2575  0.3938 -0.7455
 4315SOL    HW217032   3.375   5.608   2.524  0.2093  2.0377 -0.3453
 4315SOL    HW317033   3.380   5.655   2.381 -0.1092  2.5536 -0.1889
 4315SOL    MW417034   3.335   5.637   2.453 -0.1763  0.8956 -0.6192
 4316SOL     OW17035   4.438   5.343   4.354  0.0081  0.6063 -0.4129
 4316SOL    HW217036   4.416   5.321   4.444  0.8613  2.3909  0.2714
 4316SOL    HW317037   4.353   5.340   4.308 -0.2298 -1.7925  0.0447
 4316SOL    MW417038   4.424   5.340   4.360  0.0893  0.5253 -0.2622
 4317SOL     OW17039   3.970   0.349   1.108 -0.0373  0.2067 -0.1099
 4317SOL    HW217040   4.046   0.300   1.140 -0.0147  0.8469  0.8306
 4317SOL    HW317041   4.000   0.388   1.026  0.3510 -0.2972 -0.2144
 4317SOL    MW417042   3.984   0.348   1.101  0.0169  0.2247  0.0004
 4318SOL     OW17043   0.963   0.381   3.163 -0.0123 -0.1877 -0.1044
 4318SOL    HW217044   0.881   0.390   3.114  1.1010  1.0383 -1.8359
 4318SOL    HW317045   1.005   0.467   3.155  1.7903 -1.0025  0.1145
 4318SOL    MW417046   0.958   0.394   3.156  0.3724 -0.1334 -0.3040
 4319SOL     OW17047   6.371   5.480   6.144 -0.2569 -0.0740  0.5452
 4319SOL    HW217048   6.300   5.438   6.192  0.0510 -1.4423 -0.1558
 4319SOL    HW317049   6.442   5.486   6.208 -0.2977 -0.6338  0.6471
 4319SOL    MW417050   6.371   5.475   6.159 -0.2216 -0.3284  0.4662
 4320SOL     OW17051   3.222   3.070   1.687  0.3564 -0.4207 -0.3885
 4320SOL    HW217052   3.244   2.977   1.675  1.7192 -0.0750 -0.7325
 4320SOL    HW317053   3.247   3.089   1.778 -1.2086 -0.7086  0.1307
 4320SOL    MW417054   3.228   3.060   1.697  0.3297 -0.4130 -0.3654
 4321SOL     OW17055   2.514   5.159   3.039  0.3045  0.5105  0.1343
 4321SOL    HW217056   2.459   5.222   3.083  0.5159 -0.6742  2.2231
 4321SOL    HW317057   2.586   5.142   3.100  0.9723 -0.7346 -0.9240
 4321SOL    MW417058   2.517   5.165   3.053  0.4205  0.1899  0.2703
 4322SOL     OW17059   0.480   3.156   3.395  0.4567 -0.4191 -0.2802
 4322SOL    HW217060   0.416   3.086   3.382  1.0525 -1.0523  0.1913
 4322SOL    HW317061   0.490   3.163   3.490  0.3223  0.3886 -0.3143
 4322SOL    MW417062   0.473   3.148   3.406  0.5176 -0.3960 -0.2225
 4323SOL     OW17063   6.209   2.359   5.744  0.7007  1.0383  0.0808
 4323SOL    HW217064   6.155   2.426   5.702 -0.1869 -0.2626 -0.9143
 4323SOL    HW317065   6.295   2.369   5.703 -0.3473 -0.7603 -2.8892
 4323SOL    MW417066   6.214   2.369   5.733  0.4453  0.6294 -0.4423
 4324SOL     OW17067   3.816   3.963   2.306 -0.7192 -0.2735 -0.2565
 4324SOL    HW217068   3.740   3.977   2.250 -0.7938  0.3353 -0.0151
 4324SOL    HW317069   3.890   3.996   2.255 -1.1708  3.6014  1.2392
 4324SOL    MW417070   3.816   3.969   2.292 -0.7886  0.3180 -0.0273
 4325SOL     OW17071   2.012   6.077   5.432  0.0924 -0.4262 -0.2943
 4325SOL    HW217072   2.026   6.170   5.447  0.3653 -0.6562  0.9931
 4325SOL    HW317073   2.062   6.034   5.501 -1.9535 -1.4556  0.6335
 4325SOL    MW417074   2.020   6.084   5.443 -0.1415 -0.5923 -0.0021
 4326SOL     OW17075   3.390   3.909   0.072 -0.2621  0.3847  0.0249
 4326SOL    HW217076   3.480   3.933   0.050  0.3976 -0.9199  1.1225
 4326SOL    HW317077   3.340   3.926  -0.008  1.4232 -1.2107 -1.4660
 4326SOL    MW417078   3.395   3.914   0.059  0.0473  0.0020 -0.0270
 4327SOL     OW17079   5.657   1.396   0.410 -0.2364 -0.5274 -0.4747
 4327SOL    HW217080   5.678   1.336   0.482  0.7341  1.4246  0.9632
 4327SOL    HW317081   5.730   1.387   0.349  1.1429  0.8346  0.8941
 4327SOL    MW417082   5.669   1.387   0.411  0.0737 -0.0902 -0.1044
 4328SOL     OW17083   2.918   5.751   0.469 -0.0418  0.4045 -0.3637
 4328SOL    HW217084   2.964   5.793   0.541 -0.9513  0.6015  0.1167
 4328SOL    HW317085   2.902   5.821   0.406 -1.5618  0.8235  0.4386
 4328SOL    MW417086   2.922   5.766   0.470 -0.3624  0.4858 -0.1945
 4329SOL     OW17087   6.244   3.379   0.145  0.6312  0.0031  0.1995
 4329SOL    HW217088   6.228   3.469   0.115 -2.8564 -0.5264 -0.0204
 4329SOL    HW317089   6.248   3.385   0.240 -0.3806  0.3614  0.2370
 4329SOL    MW417090   6.242   3.392   0.153  0.0376 -0.0195  0.1755
 4330SOL     OW17091   4.395   1.626   5.172  0.1461 -0.2400 -0.7443
 4330SOL    HW217092   4.478   1.674   5.170  0.2917 -0.3234  1.1821
 4330SOL    HW317093   4.340   1.670   5.108  0.9702  1.1886 -0.5031
 4330SOL    MW417094   4.399   1.638   5.164  0.2740 -0.0625 -0.4583
 4331SOL     OW17095   5.615   5.601   5.901  0.1138  0.3368 -0.3014
 4331SOL    HW217096   5.554   5.545   5.947 -1.2022  0.0625 -2.2625
 4331SOL    HW317097   5.636   5.554   5.821  0.2975  1.8859 -1.2081
 4331SOL    MW417098   5.610   5.588   5.897 -0.0356  0.5050 -0.6798
 4332SOL     OW17099   1.796   3.549   2.770  0.2371 -0.1561  0.2915
 4332SOL    HW217100   1.772   3.524   2.681  0.9894  2.6522 -0.8152
 4332SOL    HW317101   1.888   3.522   2.778  0.1579 -0.4461  0.2304
 4332SOL    MW417102   1.805   3.542   2.759  0.3259  0.1762  0.1374
 4333SOL     OW17103   4.749   5.083   0.880 -0.0986  0.3304  0.2710
 4333SOL    HW217104   4.703   5.048   0.804 -0.3610  0.3780  0.4084
 4333SOL    HW317105   4.835   5.108   0.846 -1.0133  2.6262 -0.5576
 4333SOL    MW417106   4.754   5.081   0.865 -0.2539  0.6396  0.1798
 4334SOL     OW17107   4.363   5.022   5.928  0.5916 -0.1629  0.4656
 4334SOL    HW217108   4.312   5.024   6.009  1.9002 -2.4642  1.4296
 4334SOL    HW317109   4.403   5.109   5.924 -0.7059  0.5282  1.4431
 4334SOL    MW417110   4.361   5.034   5.939  0.5931 -0.3754  0.7217
 4335SOL     OW17111   2.177   6.145   6.105 -0.7210 -0.1700  0.3624
 4335SOL    HW217112   2.197   6.207   6.176  1.1128 -0.8830  0.5074
 4335SOL    HW317113   2.257   6.143   6.052 -1.0957 -1.7093 -0.1682
 4335SOL    MW417114   2.190   6.153   6.107 -0.5285 -0.4672  0.3115
 4336SOL     OW17115   4.515   2.298   0.500 -0.7533 -0.0323 -0.0217
 4336SOL    HW217116   4.544   2.263   0.583 -0.3038 -2.2277 -1.0387
 4336SOL    HW317117   4.595   2.328   0.457 -0.4906 -2.0039 -1.0000
 4336SOL    MW417118   4.529   2.298   0.505 -0.6594 -0.5821 -0.2849
 4337SOL     OW17119   0.920   4.972   5.084  0.0102 -0.3527  0.7641
 4337SOL    HW217120   0.833   4.980   5.124  0.0301 -2.9145  1.4868
 4337SOL    HW317121   0.902   4.969   4.990 -0.6832 -0.5783  0.8950
 4337SOL    MW417122   0.906   4.972   5.077 -0.0787 -0.7204  0.8767
 4338SOL     OW17123   4.157   1.295   5.884  0.3902 -0.5462 -0.0460
 4338SOL    HW217124   4.213   1.291   5.962 -0.6212  0.7920  0.8060
 4338SOL    HW317125   4.074   1.256   5.913 -0.0207  0.0440 -0.4055
 4338SOL    MW417126   4.153   1.290   5.898  0.2026 -0.2918  0.0189
 4339SOL     OW17127   3.862   1.579   3.633 -0.1670 -0.2880  0.1957
 4339SOL    HW217128   3.870   1.485   3.648 -2.5368 -0.1984  2.7288
 4339SOL    HW317129   3.937   1.617   3.679  0.9783 -0.8894 -1.1067
 4339SOL    MW417130   3.873   1.572   3.641 -0.3285 -0.3555  0.3580
 4340SOL     OW17131   5.686   4.703   2.427 -0.8004 -0.0387 -0.5980
 4340SOL    HW217132   5.713   4.695   2.519 -0.1118  1.2058 -0.6634
 4340SOL    HW317133   5.593   4.726   2.432 -1.0483 -1.0891 -0.2532
 4340SOL    MW417134   5.677   4.705   2.440 -0.7423 -0.0131 -0.5611
 4341SOL     OW17135   3.749   2.536   2.088 -0.0781  0.4705 -0.0707
 4341SOL    HW217136   3.794   2.451   2.088 -1.0645 -0.0688  0.2537
 4341SOL    HW317137   3.818   2.599   2.067  0.7461 -0.3674  0.0162
 4341SOL    MW417138   3.764   2.533   2.085 -0.0995  0.2888 -0.0165
 4342SOL     OW17139   6.188   5.203   1.860 -0.2903  0.0117 -0.2438
 4342SOL    HW217140   6.180   5.268   1.790  0.5357  1.6068  1.0819
 4342SOL    HW317141   6.246   5.136   1.824  1.0465  1.3719 -0.7131
 4342SOL    MW417142   6.195   5.202   1.846 -0.0050  0.4016 -0.1308
 4343SOL     OW17143   1.379   1.175   6.126 -0.1122 -0.3948  0.1849
 4343SOL    HW217144   1.465   1.210   6.104 -0.7062  0.0917 -1.5507
 4343SOL    HW317145   1.354   1.220   6.207  0.5705  0.6590 -0.1788
 4343SOL    MW417146   1.387   1.185   6.134 -0.1005 -0.1916 -0.0921
 4344SOL     OW17147   3.924   3.875   3.961 -0.0695  0.4577 -0.0243
 4344SOL    HW217148   3.973   3.866   4.043 -0.0388 -0.2537 -0.1141
 4344SOL    HW317149   3.946   3.963   3.930 -1.3114  1.3538  1.5118
 4344SOL    MW417150   3.933   3.886   3.968 -0.2293  0.4820  0.1665
 4345SOL     OW17151   3.261   4.807   3.866  0.0851  0.2955 -0.3000
 4345SOL    HW217152   3.260   4.903   3.870  1.8154  0.3820 -1.2307
 4345SOL    HW317153   3.168   4.782   3.866 -0.4039  1.8543  1.7702
 4345SOL    MW417154   3.249   4.816   3.867  0.2488  0.5126 -0.1497
 4346SOL     OW17155   4.783   5.279   4.584  0.2212  0.2774  0.7851
 4346SOL    HW217156   4.845   5.321   4.523 -0.9072  2.0088  0.7435
 4346SOL    HW317157   4.837   5.254   4.659  1.1142  1.0489  0.4311
 4346SOL    MW417158   4.799   5.281   4.586  0.1902  0.6076  0.7329
 4347SOL     OW17159   4.746   5.699   0.820 -0.1406  0.3870  0.0245
 4347SOL    HW217160   4.781   5.753   0.891 -0.5364  1.0052 -0.2355
 4347SOL    HW317161   4.781   5.739   0.741  1.0981 -0.8878 -0.1073
 4347SOL    MW417162   4.755   5.711   0.819 -0.0294  0.3004 -0.0272
 4348SOL     OW17163   1.880   2.436   4.628  0.2602  0.3111  0.2473
 4348SOL    HW217164   1.887   2.372   4.557 -0.2010 -1.2089  1.5086
 4348SOL    HW317165   1.843   2.514   4.587 -3.5088 -1.6747 -0.6014
 4348SOL    MW417166   1.876   2.437   4.613 -0.2979 -0.1514  0.3018
 4349SOL     OW17167   3.359   2.641   5.098  0.4075  0.2152  0.1984
 4349SOL    HW217168   3.329   2.712   5.155 -0.2646  0.0437  0.0751
 4349SOL    HW317169   3.300   2.569   5.118 -0.0542  0.2552 -0.9453
 4349SOL    MW417170   3.347   2.641   5.108  0.2579  0.1979  0.0312
 4350SOL     OW17171   1.862   4.788   5.085 -0.6201  0.0047  0.3562
 4350SOL    HW217172   1.907   4.826   5.009 -0.9038 -0.5328 -0.0946
 4350SOL    HW317173   1.885   4.845   5.158 -0.0863  0.3542 -0.0758
 4350SOL    MW417174   1.871   4.800   5.084 -0.5871 -0.0201  0.2397
 4351SOL     OW17175   3.179   0.533   6.367  0.3021 -0.4038  0.0870
 4351SOL    HW217176   3.245   0.476   6.407  0.1844 -0.9158 -0.4269
 4351SOL    HW317177   3.129   0.474   6.310  0.2987  0.2602 -0.6009
 4351SOL    MW417178   3.181   0.518   6.365  0.2861 -0.3837 -0.0715
 4352SOL     OW17179   3.703   4.698   4.757  0.2888 -0.2176  0.1830
 4352SOL    HW217180   3.783   4.729   4.714 -0.3818 -0.2389 -1.1179
 4352SOL    HW317181   3.678   4.619   4.709 -1.5211  0.8001 -0.6592
 4352SOL    MW417182   3.710   4.692   4.745 -0.0385 -0.0862 -0.0997
 4353SOL     OW17183   5.221   4.901   5.692 -0.2430 -0.2804 -0.2057
 4353SOL    HW217184   5.311   4.894   5.662 -0.2030  3.1573 -1.3064
 4353SOL    HW317185   5.169   4.910   5.612 -0.8821  2.6227  0.4051
 4353SOL    MW417186   5.226   4.902   5.678 -0.3220  0.5562 -0.2703
 4354SOL     OW17187   3.616   5.153   6.105  0.0993  0.0387  0.1387
 4354SOL    HW217188   3.679   5.117   6.042  0.3645 -3.0142  1.9130
 4354SOL    HW317189   3.638   5.246   6.111  2.8039 -0.4026 -1.1828
 4354SOL    MW417190   3.628   5.160   6.098  0.4911 -0.4223  0.1984
 4355SOL     OW17191   2.616   3.877   6.151 -0.0025  0.1053  0.0644
 4355SOL    HW217192   2.537   3.888   6.204 -1.5009 -1.0223 -1.8295
 4355SOL    HW317193   2.662   3.960   6.159 -1.6860  1.0190  0.7286
 4355SOL    MW417194   2.612   3.889   6.159 -0.4223  0.0770 -0.0978
 4356SOL     OW17195   2.081   4.569   0.712  0.4301 -0.4013  0.5963
 4356SOL    HW217196   1.988   4.583   0.691  0.7643  0.9009 -0.0823
 4356SOL    HW317197   2.089   4.596   0.803  0.3096  0.2832  0.4040
 4356SOL    MW417198   2.069   4.574   0.721  0.4583 -0.1392  0.4814
 4357SOL     OW17199   2.703   2.445   5.560 -0.3078 -0.7433 -0.0781
 4357SOL    HW217200   2.658   2.511   5.611  1.6974  0.2071  0.5751
 4357SOL    HW317201   2.697   2.476   5.469 -0.4236 -0.3003  0.0822
 4357SOL    MW417202   2.696   2.458   5.554 -0.0585 -0.5595  0.0293
 4358SOL     OW17203   1.979   2.818   6.102  0.1911 -0.1806  0.2751
 4358SOL    HW217204   2.049   2.773   6.148  0.8678  0.1866 -0.3892
 4358SOL    HW317205   2.003   2.911   6.106 -0.6208  0.0224  0.6608
 4358SOL    MW417206   1.991   2.825   6.109  0.1733 -0.1054  0.2383
 4359SOL     OW17207   3.002   3.882   3.900  0.6933 -0.3586 -0.7364
 4359SOL    HW217208   2.909   3.879   3.877  0.8727 -0.5368 -1.4648
 4359SOL    HW317209   3.032   3.967   3.868  0.5404  0.1587  0.4699
 4359SOL    MW417210   2.994   3.893   3.892  0.6968 -0.3139 -0.6734
 4360SOL     OW17211   0.246   2.988   1.710  0.0710 -0.1070 -0.4029
 4360SOL    HW217212   0.275   2.987   1.801 -0.9209  0.1199 -0.0747
 4360SOL    HW317213   0.177   3.054   1.707  0.5294  0.3625 -1.4680
 4360SOL    MW417214   0.241   2.997   1.721  0.0006 -0.0151 -0.5001
 4361SOL     OW17215   4.779   2.419   4.125 -0.9273 -0.0893  0.5330
 4361SOL    HW217216   4.689   2.387   4.125 -1.1727  0.5375  1.7731
 4361SOL    HW317217   4.791   2.456   4.212  0.4787  0.0006  0.3237
 4361SOL    MW417218   4.769   2.420   4.136 -0.7741  0.0053  0.6690
 4362SOL     OW17219   2.615   0.546   2.839 -0.2528  0.0206  0.1047
 4362SOL    HW217220   2.583   0.612   2.778  0.3447 -1.3472 -1.7558
 4362SOL    HW317221   2.546   0.480   2.842 -0.1862 -0.0306  0.7706
 4362SOL    MW417222   2.602   0.546   2.831 -0.1652 -0.1666 -0.0529
 4363SOL     OW17223   0.344   3.268   4.591 -0.1589 -0.0261  0.1383
 4363SOL    HW217224   0.333   3.336   4.525  0.5142  0.4856  0.5375
 4363SOL    HW317225   0.265   3.213   4.583 -1.0903  1.2366  0.3193
 4363SOL    MW417226   0.332   3.269   4.581 -0.1930  0.2080  0.2149
 4364SOL     OW17227   1.114   5.455   1.813 -0.1620 -0.5848 -0.2175
 4364SOL    HW217228   1.044   5.467   1.877  1.4939  1.2139  1.4074
 4364SOL    HW317229   1.164   5.537   1.817  0.0177 -0.3736 -3.9111
 4364SOL    MW417230   1.111   5.468   1.822  0.0802 -0.3196 -0.4905
 4365SOL     OW17231   2.085   5.726   3.669  0.3398 -0.1686  0.1390
 4365SOL    HW217232   2.035   5.667   3.726  1.2888 -1.4402 -0.3084
 4365SOL    HW317233   2.173   5.689   3.666  0.6090  0.4974 -1.2693
 4365SOL    MW417234   2.090   5.714   3.676  0.5005 -0.2485 -0.1058
 4366SOL     OW17235   4.309   0.409   1.633  0.3951  0.6863  0.5900
 4366SOL    HW217236   4.341   0.489   1.591  1.3888  1.9656  3.5254
 4366SOL    HW317237   4.355   0.406   1.717 -0.1890 -2.6108  0.9257
 4366SOL    MW417238   4.319   0.419   1.638  0.4491  0.4201  1.0216
 4367SOL     OW17239   2.751   0.676   6.408 -0.1905  0.5812 -0.0362
 4367SOL    HW217240   2.797   0.709   6.485  0.1331 -0.8818  0.4250
 4367SOL    HW317241   2.664   0.651   6.441 -0.3963  0.8575 -0.3569
 4367SOL    MW417242   2.745   0.677   6.422 -0.1749  0.4247 -0.0176
 4368SOL     OW17243   4.301   0.631   3.492  0.1963  0.3098  0.1137
 4368SOL    HW217244   4.230   0.569   3.477  0.0732  0.8099 -1.5978
 4368SOL    HW317245   4.330   0.656   3.404  2.3456  0.3018  0.7500
 4368SOL    MW417246   4.296   0.626   3.478  0.4636  0.3747 -0.0281
 4369SOL     OW17247   3.136   3.233   3.901  0.0337 -0.6981 -0.4311
 4369SOL    HW217248   3.142   3.190   3.816  0.1032 -0.3346 -0.6098
 4369SOL    HW317249   3.110   3.323   3.881 -1.6880 -1.0497  0.0265
 4369SOL    MW417250   3.133   3.239   3.887 -0.1843 -0.6966 -0.3943
 4370SOL     OW17251   2.812   3.443   6.283  0.0134  0.4769 -0.5344
 4370SOL    HW217252   2.862   3.469   6.361  1.7434 -1.9179 -0.7532
 4370SOL    HW317253   2.848   3.497   6.213  2.5783 -1.3265 -0.7272
 4370SOL    MW417254   2.823   3.453   6.284  0.5800 -0.0770 -0.5887
 4371SOL     OW17255   0.469   1.821   4.987 -0.4599  0.2356  0.3686
 4371SOL    HW217256   0.432   1.904   5.017 -1.5542 -0.9567  2.6262
 4371SOL    HW317257   0.554   1.844   4.950 -1.1410  2.4530  0.0594
 4371SOL    MW417258   0.475   1.835   4.986 -0.6942  0.3708  0.6257
 4372SOL     OW17259   1.820   5.922   3.664 -0.0025  0.6549 -0.2682
 4372SOL    HW217260   1.756   5.855   3.687  0.0446  1.1628  1.4443
 4372SOL    HW317261   1.905   5.879   3.674  0.1446  1.4600  2.9397
 4372SOL    MW417262   1.823   5.908   3.668  0.0231  0.8281  0.3810
 4373SOL     OW17263   0.894   2.014   4.585  0.0392 -0.1633  0.1611
 4373SOL    HW217264   0.832   1.944   4.606  0.0072 -0.6481 -1.4133
 4373SOL    HW317265   0.843   2.077   4.534 -0.2345  1.6549  2.4718
 4373SOL    MW417266   0.879   2.013   4.581 -0.0011  0.0126  0.2582
 4374SOL     OW17267   4.000   3.029   1.202  0.1048 -0.2988 -0.4485
 4374SOL    HW217268   3.978   3.086   1.128  0.2021 -2.2107 -2.0329
 4374SOL    HW317269   4.007   2.942   1.164  2.7114 -1.0023  1.3761
 4374SOL    MW417270   3.998   3.025   1.187  0.4616 -0.6439 -0.4168
 4375SOL     OW17271   3.439   0.629   2.068 -0.2593  0.2126 -0.1626
 4375SOL    HW217272   3.437   0.600   2.159  1.7761  1.7132  0.4384
 4375SOL    HW317273   3.348   0.621   2.039 -0.7497 -1.4593  1.5853
 4375SOL    MW417274   3.427   0.624   2.076 -0.0554  0.1900  0.1473
 4376SOL     OW17275   0.697   5.120   3.583 -0.2991 -0.1100 -0.1931
 4376SOL    HW217276   0.627   5.087   3.640  0.1182 -0.1280  0.3175
 4376SOL    HW317277   0.653   5.181   3.524 -0.5623  0.7764  0.8758
 4376SOL    MW417278   0.682   5.124   3.583 -0.2788  0.0046  0.0153
 4377SOL     OW17279   1.310   4.920   2.919 -0.4496  0.1395 -0.4667
 4377SOL    HW217280   1.226   4.958   2.892 -1.2572  0.0623  1.7914
 4377SOL    HW317281   1.302   4.827   2.897 -1.2374  0.0035  0.3355
 4377SOL    MW417282   1.298   4.913   2.912 -0.6601  0.1114 -0.0629
 4378SOL     OW17283   2.310   1.729   2.664 -0.4448 -0.2785 -0.0707
 4378SOL    HW217284   2.306   1.807   2.610 -1.9847 -0.3996 -0.1822
 4378SOL    HW317285   2.315   1.657   2.601  1.5124 -0.2972  0.0336
 4378SOL    MW417286   2.310   1.730   2.649 -0.3898 -0.2970 -0.0716
 4379SOL     OW17287   5.978   5.819   6.273 -0.1603  0.3695 -0.0465
 4379SOL    HW217288   5.954   5.826   6.180 -0.3221 -0.5397 -0.0902
 4379SOL    HW317289   5.960   5.905   6.309 -0.7474  0.5404 -0.7172
 4379SOL    MW417290   5.972   5.831   6.265 -0.2591  0.2721 -0.1407
 4380SOL     OW17291   2.031   5.630   4.500 -0.2140  0.1291  0.0638
 4380SOL    HW217292   2.125   5.635   4.484 -0.0704  1.0554  1.1160
 4380SOL    HW317293   2.023   5.622   4.595 -1.2296  1.0663  0.0715
 4380SOL    MW417294   2.043   5.629   4.510 -0.3291  0.3750  0.2036
 4381SOL     OW17295   3.240   0.300   2.283 -0.0711 -0.0028  0.4231
 4381SOL    HW217296   3.231   0.298   2.188 -2.4000 -1.7528  0.5952
 4381SOL    HW317297   3.325   0.340   2.298  0.5812 -0.1174 -2.4031
 4381SOL    MW417298   3.250   0.305   2.273 -0.2923 -0.2488  0.0729
 4382SOL     OW17299   3.511   3.398   3.209  0.1095 -0.0311 -0.2534
 4382SOL    HW217300   3.529   3.313   3.248 -2.6033  0.5923  2.7801
 4382SOL    HW317301   3.570   3.459   3.254  0.0530  0.0974 -0.3489
 4382SOL    MW417302   3.521   3.395   3.220 -0.2558  0.0681  0.1342
 4383SOL     OW17303   0.095   2.091   4.055 -0.2671 -0.1313 -0.0098
 4383SOL    HW217304   0.005   2.106   4.027 -0.7818 -0.6696  1.2606
 4383SOL    HW317305   0.109   1.997   4.039 -0.4027 -0.3393  0.9869
 4383SOL    MW417306   0.085   2.080   4.049 -0.3529 -0.2298  0.2893
 4384SOL     OW17307   1.265   4.301   5.390  0.2257 -0.2086  0.1110
 4384SOL    HW217308   1.316   4.257   5.458 -1.6933  0.2034  1.9000
 4384SOL    HW317309   1.293   4.393   5.395  0.2914 -0.2293  0.1307
 4384SOL    MW417310   1.276   4.307   5.399 -0.0188 -0.1570  0.3496
 4385SOL     OW17311   2.279   0.658   2.265 -0.1140  0.4729 -0.2212
 4385SOL    HW217312   2.363   0.696   2.291  0.6983 -1.2053 -0.3022
 4385SOL    HW317313   2.280   0.570   2.302 -1.3267  0.0054 -1.2312
 4385SOL    MW417314   2.290   0.652   2.273 -0.1669  0.1898 -0.3652
 4386SOL     OW17315   1.241   3.279   1.101  0.4316 -0.1114  0.0202
 4386SOL    HW217316   1.305   3.241   1.041  0.6182 -0.3640  0.3759
 4386SOL    HW317317   1.180   3.326   1.044 -0.3401 -1.7030 -0.5310
 4386SOL    MW417318   1.242   3.280   1.085  0.3544 -0.3547 -0.0056
 4387SOL     OW17319   4.065   5.204   0.641 -0.0794  0.0869 -0.2513
 4387SOL    HW217320   4.030   5.123   0.676  0.2419  0.6496  1.4637
 4387SOL    HW317321   4.101   5.250   0.717  0.4921  1.4603 -1.3013
 4387SOL    MW417322   4.065   5.200   0.655  0.0384  0.3423 -0.1636
 4388SOL     OW17323   1.643   2.187   3.725  0.1667 -0.2786  0.1810
 4388SOL    HW217324   1.640   2.254   3.793 -1.5591  0.1816 -0.3072
 4388SOL    HW317325   1.613   2.231   3.646 -1.6698 -1.7587 -0.0050
 4388SOL    MW417326   1.639   2.201   3.724 -0.3033 -0.4132  0.0921
 4389SOL     OW17327   2.850   0.524   2.503  0.2909  0.2630  0.3861
 4389SOL    HW217328   2.943   0.526   2.480 -0.1832  0.2039 -1.7245
 4389SOL    HW317329   2.837   0.438   2.545  1.5059  1.0111  2.4264
 4389SOL    MW417330   2.860   0.513   2.506  0.3887  0.3539  0.3768
 4390SOL     OW17331   3.787   5.840   5.532  0.2872 -0.4447  0.2357
 4390SOL    HW217332   3.701   5.802   5.512  0.3338 -0.9997  1.0359
 4390SOL    HW317333   3.775   5.880   5.619  0.8789 -0.6689  0.4220
 4390SOL    MW417334   3.774   5.841   5.541  0.3714 -0.5475  0.3659
 4391SOL     OW17335   1.306   4.177   3.462 -0.2886  0.0746 -0.3178
 4391SOL    HW217336   1.301   4.128   3.380 -0.5713  0.7210 -0.6993
 4391SOL    HW317337   1.398   4.172   3.487 -0.5953 -2.0330  0.5364
 4391SOL    MW417338   1.317   4.170   3.454 -0.3664 -0.1182 -0.2554
 4392SOL     OW17339   5.550   3.778   2.184  0.1015 -0.2612  0.1765
 4392SOL    HW217340   5.556   3.793   2.278 -0.4962  0.4684  0.1089
 4392SOL    HW317341   5.626   3.825   2.148 -0.3123  0.4446  0.2014
 4392SOL    MW417342   5.561   3.786   2.192 -0.0319 -0.0718  0.1708
 4393SOL     OW17343   2.324   1.437   4.038 -0.0534  0.1260  0.9129
 4393SOL    HW217344   2.263   1.511   4.032 -0.1502 -0.0351 -0.4116
 4393SOL    HW317345   2.323   1.398   3.950  0.8883 -0.7399  1.2664
 4393SOL    MW417346   2.316   1.441   4.026  0.0581 -0.0095  0.7848
 4394SOL     OW17347   1.938   6.067   4.588 -0.3420  0.0473  0.6465
 4394SOL    HW217348   1.991   6.121   4.646  0.0911 -0.8566  1.0957
 4394SOL    HW317349   1.850   6.105   4.595  0.4185  2.4930 -1.2147
 4394SOL    MW417350   1.933   6.079   4.596 -0.1845  0.2508  0.4602
 4395SOL     OW17351   3.168   5.622   3.045  0.4929 -0.1225 -0.0831
 4395SOL    HW217352   3.196   5.608   2.955  0.3584 -1.8343  0.0994
 4395SOL    HW317353   3.104   5.553   3.061 -1.1195  1.4837  0.6695
 4395SOL    MW417354   3.163   5.611   3.035  0.2625 -0.1364  0.0403
 4396SOL     OW17355   0.186   1.278   0.954  0.1015  0.0779  0.2639
 4396SOL    HW217356   0.133   1.201   0.934 -1.0891  0.9363  0.0063
 4396SOL    HW317357   0.207   1.316   0.868  1.1209 -0.2213  0.3628
 4396SOL    MW417358   0.182   1.273   0.940  0.0789  0.1517  0.2429
 4397SOL     OW17359   3.687   3.856   0.682  0.5144  0.5427 -0.2793
 4397SOL    HW217360   3.672   3.923   0.749  0.1244  0.8384 -0.6569
 4397SOL    HW317361   3.703   3.776   0.731 -0.1062  0.6839  0.1696
 4397SOL    MW417362   3.687   3.854   0.697  0.3811  0.6003 -0.2699
 4398SOL     OW17363   4.980   2.150   2.701 -0.3238  0.2504  0.1270
 4398SOL    HW217364   4.927   2.191   2.770  0.8350 -1.2531  2.0185
 4398SOL    HW317365   5.059   2.204   2.697 -0.3333  0.2592  0.0574
 4398SOL    MW417366   4.983   2.163   2.710 -0.1721  0.0532  0.3673
 4399SOL     OW17367   0.966   0.553   4.202  0.7881 -0.8567  0.0454
 4399SOL    HW217368   1.037   0.616   4.212 -0.1027  0.1810  0.0307
 4399SOL    HW317369   0.974   0.522   4.112  0.2363  0.5330 -0.5185
 4399SOL    MW417370   0.976   0.557   4.191  0.5978 -0.5365 -0.0310
 4400SOL     OW17371   6.037   4.006   1.581 -0.5703  0.0479  0.5700
 4400SOL    HW217372   5.962   3.984   1.527  1.1407 -2.3478 -1.0364
 4400SOL    HW317373   6.009   3.988   1.671 -1.4390 -2.4777 -0.1393
 4400SOL    MW417374   6.024   4.001   1.586 -0.4592 -0.6014  0.2645
 4401SOL     OW17375   1.383   2.574   3.204 -0.2521 -0.6658 -0.1101
 4401SOL    HW217376   1.321   2.631   3.159 -1.6741 -2.8144 -1.0207
 4401SOL    HW317377   1.459   2.570   3.145 -0.1128  0.2743 -0.0121
 4401SOL    MW417378   1.385   2.581   3.190 -0.4214 -0.8252 -0.2173
 4402SOL     OW17379   3.079   5.273   4.831  0.4958 -0.0626  0.0920
 4402SOL    HW217380   3.001   5.221   4.812  0.6493 -0.8898  1.5839
 4402SOL    HW317381   3.054   5.326   4.907  1.0373  0.4907 -0.1069
 4402SOL    MW417382   3.065   5.273   4.839  0.5875 -0.0987  0.2626
 4403SOL     OW17383   0.394   3.428   3.691 -0.1362  0.3089 -0.8111
 4403SOL    HW217384   0.416   3.508   3.642 -0.1074  1.0671  0.3858
 4403SOL    HW317385   0.478   3.385   3.706  0.1217  1.1587  0.3381
 4403SOL    MW417386   0.408   3.433   3.687 -0.0983  0.5210 -0.5016
 4404SOL     OW17387   1.523   0.589   2.161  0.4793 -0.0699  0.0956
 4404SOL    HW217388   1.433   0.565   2.142  0.5103  0.2256 -0.4416
 4404SOL    HW317389   1.518   0.680   2.191  0.4493 -0.4738  1.3810
 4404SOL    MW417390   1.511   0.598   2.163  0.4794 -0.0842  0.1943
 4405SOL     OW17391   4.075   1.958   6.288 -0.5196  0.2492 -0.1215
 4405SOL    HW217392   4.073   1.912   6.205 -0.0161  0.8592 -0.4843
 4405SOL    HW317393   4.165   1.947   6.320 -0.0855  1.7923 -0.7085
 4405SOL    MW417394   4.087   1.951   6.281 -0.3959  0.5333 -0.2468
 4406SOL     OW17395   6.033   2.205   4.478 -0.7655  0.3484 -0.1326
 4406SOL    HW217396   6.006   2.274   4.418 -1.2195  0.7841  0.5571
 4406SOL    HW317397   6.022   2.243   4.565  0.4541 -0.0623  0.2246
 4406SOL    MW417398   6.028   2.219   4.482 -0.6645  0.3517  0.0055
 4407SOL     OW17399   0.766   3.844   3.451 -0.1031  0.0212  0.6596
 4407SOL    HW217400   0.849   3.891   3.464 -0.0024 -0.7359  3.3234
 4407SOL    HW317401   0.724   3.891   3.379  2.4755  0.5999 -0.6170
 4407SOL    MW417402   0.771   3.857   3.443  0.2504 -0.0023  0.8426
 4408SOL     OW17403   2.816   5.607   0.729  0.4492  0.5908  0.1013
 4408SOL    HW217404   2.882   5.675   0.718  0.2961  0.7103 -0.1016
 4408SOL    HW317405   2.861   5.535   0.773  0.8221  0.4995 -0.4246
 4408SOL    MW417406   2.830   5.606   0.733  0.4782  0.5945  0.0052
 4409SOL     OW17407   3.806   0.205   3.647 -0.2484  0.3524  0.0769
 4409SOL    HW217408   3.717   0.183   3.619 -0.6671  0.7542  1.0569
 4409SOL    HW317409   3.807   0.185   3.740  1.1104 -0.9156 -0.1782
 4409SOL    MW417410   3.794   0.199   3.655 -0.1243  0.2381  0.1725
 4410SOL     OW17411   2.653   4.910   5.670 -0.6906  0.4145  0.6882
 4410SOL    HW217412   2.590   4.981   5.657  0.2760  1.0239 -1.0570
 4410SOL    HW317413   2.608   4.832   5.638 -0.2223  1.0399 -1.6608
 4410SOL    MW417414   2.638   4.909   5.664 -0.5013  0.5774  0.1480
 4411SOL     OW17415   1.823   5.473   6.024  0.0535  0.7023 -0.2437
 4411SOL    HW217416   1.880   5.455   6.099 -1.0838  0.3734  0.5642
 4411SOL    HW317417   1.775   5.552   6.050 -1.7828 -0.5256  0.2543
 4411SOL    MW417418   1.824   5.481   6.038 -0.3388  0.4969 -0.0714
 4412SOL     OW17419   5.525   6.121   2.497 -0.5661 -0.3649  0.1869
 4412SOL    HW217420   5.509   6.180   2.423  0.2281 -0.0335  0.2734
 4412SOL    HW317421   5.456   6.143   2.561 -0.0010  0.7954  0.4100
 4412SOL    MW417422   5.513   6.132   2.496 -0.3867 -0.1681  0.2277
 4413SOL     OW17423   3.832   0.384   6.171  0.3213 -0.1347 -0.3150
 4413SOL    HW217424   3.886   0.365   6.248 -0.6819 -0.1454  0.3962
 4413SOL    HW317425   3.835   0.304   6.119 -0.0318 -0.5803  0.3416
 4413SOL    MW417426   3.840   0.371   6.174  0.1424 -0.1949 -0.1345
 4414SOL     OW17427   2.315   2.779   1.235 -0.2657 -0.0665  0.4505
 4414SOL    HW217428   2.297   2.862   1.279  1.0515  0.6353 -0.2762
 4414SOL    HW317429   2.396   2.795   1.187 -0.3231 -1.5938 -0.1920
 4414SOL    MW417430   2.323   2.792   1.234 -0.0995 -0.1754  0.2698
 4415SOL     OW17431   5.175   5.796   4.269 -0.3813  0.1224 -0.2432
 4415SOL    HW217432   5.261   5.828   4.296 -0.7612 -0.0939  1.3207
 4415SOL    HW317433   5.136   5.869   4.221  0.2284  0.6442  0.0458
 4415SOL    MW417434   5.181   5.810   4.266 -0.3510  0.1627  0.0013
 4416SOL     OW17435   5.088   2.472   4.888 -0.6045 -0.7233  0.1559
 4416SOL    HW217436   5.101   2.559   4.925 -1.8046 -0.8105  0.8612
 4416SOL    HW317437   5.135   2.413   4.947 -0.6692 -0.6420  0.2909
 4416SOL    MW417438   5.096   2.476   4.901 -0.7714 -0.7241  0.2668
 4417SOL     OW17439   3.362   4.470   4.725 -0.3348  0.0099  0.4771
 4417SOL    HW217440   3.332   4.380   4.741  1.7207 -0.6915  0.7013
 4417SOL    HW317441   3.360   4.512   4.811 -0.8400  0.0464  0.4521
 4417SOL    MW417442   3.358   4.464   4.738 -0.1303 -0.0778  0.5034
 4418SOL     OW17443   3.184   3.191   1.171 -0.1150  0.6042  0.2092
 4418SOL    HW217444   3.238   3.117   1.143 -0.3143  0.0868  1.1428
 4418SOL    HW317445   3.194   3.193   1.267 -3.3399 -0.8278  0.7034
 4418SOL    MW417446   3.193   3.182   1.180 -0.5668  0.3470  0.3976
 4419SOL     OW17447   1.437   4.085   1.018  0.6507  0.3885 -0.1497
 4419SOL    HW217448   1.464   4.164   1.065 -1.0965  0.5431  0.6427
 4419SOL    HW317449   1.353   4.108   0.978 -0.5222 -1.4134  1.1068
 4419SOL    MW417450   1.430   4.099   1.019  0.2654  0.1712  0.1206
 4420SOL     OW17451   1.019   1.518   5.401  0.2385 -0.2931  0.4302
 4420SOL    HW217452   0.965   1.579   5.452 -1.3507  0.1173 -1.6352
 4420SOL    HW317453   1.020   1.438   5.454 -0.5664  0.3957  1.5456
 4420SOL    MW417454   1.012   1.515   5.415 -0.0774 -0.1481  0.3049
 4421SOL     OW17455   0.116   5.805   3.056  0.0740  0.3630  0.4526
 4421SOL    HW217456   0.023   5.825   3.067  0.0258  0.0378  0.6626
 4421SOL    HW317457   0.155   5.828   3.140 -0.1831 -1.5126  1.1270
 4421SOL    MW417458   0.109   5.811   3.069  0.0337  0.0726  0.5693
 4422SOL     OW17459   2.397   1.733   6.404 -0.3415  0.0746 -0.0582
 4422SOL    HW217460   2.405   1.804   6.341  3.2283  1.1434  1.3893
 4422SOL    HW317461   2.381   1.777   6.487 -1.9803 -1.1400  0.3239
 4422SOL    MW417462   2.396   1.748   6.407 -0.0867  0.0554  0.1832
 4423SOL     OW17463   1.999   3.358   0.106  0.1718 -0.1266  0.2096
 4423SOL    HW217464   1.995   3.344   0.200 -0.9318 -1.2811  0.0214
 4423SOL    HW317465   1.915   3.325   0.073  0.8293 -0.4293 -1.2526
 4423SOL    MW417466   1.987   3.352   0.114  0.1129 -0.3189 -0.0082
 4424SOL     OW17467   3.873   5.787   4.279 -0.5102 -0.1994  0.2944
 4424SOL    HW217468   3.882   5.738   4.361  0.7780 -0.1938  0.1885
 4424SOL    HW317469   3.862   5.878   4.307 -0.2229 -0.2177  0.4803
 4424SOL    MW417470   3.873   5.793   4.294 -0.3023 -0.2010  0.3050
 4425SOL     OW17471   3.349   4.580   2.981  0.2277 -0.2968  0.2393
 4425SOL    HW217472   3.267   4.593   2.933  0.5648  0.1198 -0.2392
 4425SOL    HW317473   3.408   4.540   2.917  0.1296 -1.4629  0.8461
 4425SOL    MW417474   3.346   4.576   2.966  0.2592 -0.3957  0.2562
 4426SOL     OW17475   5.081   2.738   3.217 -0.2710  0.1493  0.4691
 4426SOL    HW217476   5.129   2.701   3.291  0.6966  0.1038 -0.1608
 4426SOL    HW317477   5.134   2.714   3.141 -1.5751 -0.3639 -0.3058
 4426SOL    MW417478   5.094   2.730   3.217 -0.3154  0.0756  0.2838
 4427SOL     OW17479   6.062   6.203   1.600  0.2145 -0.0787  0.1487
 4427SOL    HW217480   6.148   6.163   1.614 -0.3887 -1.2054  0.7684
 4427SOL    HW317481   6.013   6.184   1.680  0.3497  3.2747  1.2160
 4427SOL    MW417482   6.067   6.196   1.613  0.1528  0.2151  0.3713
 4428SOL     OW17483   1.593   1.630   5.708 -0.5089 -0.3536 -0.1515
 4428SOL    HW217484   1.568   1.719   5.682  1.7951  0.6820  0.9035
 4428SOL    HW317485   1.601   1.583   5.625  0.0955  0.9801 -0.8899
 4428SOL    MW417486   1.591   1.636   5.694 -0.1251 -0.0410 -0.1097
 4429SOL     OW17487   4.957   3.591   3.531  0.0491  1.0170 -0.1970
 4429SOL    HW217488   5.043   3.552   3.515 -1.0476 -1.6132 -0.2196
 4429SOL    HW317489   4.954   3.602   3.626  0.2798  0.8124 -0.1647
 4429SOL    MW417490   4.968   3.587   3.542 -0.0651  0.6430 -0.1957
 4430SOL     OW17491   0.954   4.631   5.719  0.3917  0.0144 -0.0328
 4430SOL    HW217492   0.923   4.636   5.810  1.9498  2.7502  0.4713
 4430SOL    HW317493   1.049   4.630   5.727  0.5504 -1.6099 -1.6526
 4430SOL    MW417494   0.962   4.632   5.732  0.6182  0.1611 -0.1800
 4431SOL     OW17495   4.453   0.058   1.547  0.0700  0.1130  0.7641
 4431SOL    HW217496   4.399   0.113   1.490 -0.7268 -1.3077  0.0747
 4431SOL    HW317497   4.540   0.059   1.507 -0.4481 -0.7563 -0.4572
 4431SOL    MW417498   4.457   0.065   1.534 -0.1035 -0.1891  0.5120
 4432SOL     OW17499   2.957   1.686   4.724  0.2201  0.3553 -0.1673
 4432SOL    HW217500   3.033   1.700   4.781  0.3412 -1.6221  0.2474
 4432SOL    HW317501   2.965   1.752   4.655  0.2270  2.6575  1.8913
 4432SOL    MW417502   2.968   1.697   4.722  0.2370  0.3981  0.1590
 4433SOL     OW17503   1.252   4.677   1.307  0.0578  0.0421  0.1252
 4433SOL    HW217504   1.160   4.703   1.314  0.8959  3.2882  0.6929
 4433SOL    HW317505   1.279   4.660   1.397 -0.5132 -3.5168 -0.2302
 4433SOL    MW417506   1.244   4.678   1.320  0.0930  0.0008  0.1532
 4434SOL     OW17507   5.143   3.783   1.497 -0.2998 -0.2443 -0.7727
 4434SOL    HW217508   5.110   3.838   1.425  0.0626  2.2394  0.8393
 4434SOL    HW317509   5.111   3.825   1.576  1.8587 -1.0894  0.6436
 4434SOL    MW417510   5.135   3.796   1.498  0.0328 -0.0281 -0.3732
 4435SOL     OW17511   3.785   0.158   5.984 -0.7709  0.1169 -0.4594
 4435SOL    HW217512   3.764   0.111   6.065 -1.0874  1.5894  0.3433
 4435SOL    HW317513   3.875   0.133   5.965 -0.3079  0.6024  0.9820
 4435SOL    MW417514   3.794   0.148   5.992 -0.7515  0.3752 -0.1633
 4436SOL     OW17515   4.322   2.634   3.701  0.4880  0.0477  0.4816
 4436SOL    HW217516   4.320   2.730   3.697  0.4836  0.0748  0.9863
 4436SOL    HW317517   4.414   2.612   3.713  0.3418  0.0660  1.7597
 4436SOL    MW417518   4.334   2.644   3.702  0.4682  0.0537  0.7168
 4437SOL     OW17519   1.539   2.436   5.302 -0.1951 -0.2784  0.0720
 4437SOL    HW217520   1.521   2.522   5.264  0.5702 -0.6009 -1.0791
 4437SOL    HW317521   1.590   2.391   5.235  1.4063 -0.8055  1.5738
 4437SOL    MW417522   1.544   2.442   5.288  0.1171 -0.3905  0.1182
 4438SOL     OW17523   4.958   1.321   1.619  0.3631 -0.0901 -0.9642
 4438SOL    HW217524   4.958   1.415   1.639 -0.5270 -0.1270 -0.7252
 4438SOL    HW317525   4.928   1.280   1.700  0.8835 -0.5994 -1.0240
 4438SOL    MW417526   4.954   1.328   1.632  0.3143 -0.1622 -0.9406
 4439SOL     OW17527   6.115   0.599   1.477  0.8122  0.1015 -0.3464
 4439SOL    HW217528   6.160   0.515   1.474 -0.1933 -0.4336 -1.3734
 4439SOL    HW317529   6.023   0.578   1.460  0.1307  1.1546  1.5851
 4439SOL    MW417530   6.109   0.585   1.475  0.5896  0.1698 -0.2270
 4440SOL     OW17531   0.477   3.302   3.174  0.1314 -0.2850 -0.1744
 4440SOL    HW217532   0.416   3.375   3.186  0.3648 -0.0413 -0.4845
 4440SOL    HW317533   0.465   3.248   3.253  0.1403  0.2175  0.1718
 4440SOL    MW417534   0.468   3.304   3.186  0.1634 -0.1865 -0.1696
 4441SOL     OW17535   3.318   4.911   3.333 -0.0072 -0.0410 -0.9650
 4441SOL    HW217536   3.301   4.923   3.240  0.6080 -0.3302 -1.1184
 4441SOL    HW317537   3.362   4.826   3.339 -1.7055 -0.9166 -0.2064
 4441SOL    MW417538   3.322   4.902   3.322 -0.1501 -0.1947 -0.8851
 4442SOL     OW17539   3.982   5.925   0.292  0.3126 -0.2360 -0.1697
 4442SOL    HW217540   3.932   5.875   0.355 -0.0368 -1.2326 -1.2097
 4442SOL    HW317541   4.073   5.901   0.309  0.3082  0.2613  0.5918
 4442SOL    MW417542   3.987   5.916   0.302  0.2659 -0.3019 -0.2065
 4443SOL     OW17543   0.527   2.761   2.603 -0.7945 -0.2660  0.3010
 4443SOL    HW217544   0.618   2.779   2.579 -0.9320 -1.5039 -1.2917
 4443SOL    HW317545   0.482   2.844   2.589 -0.1576 -0.0001 -0.2402
 4443SOL    MW417546   0.533   2.774   2.598 -0.7286 -0.3943  0.0195
 4444SOL     OW17547   4.581   4.394   3.050  0.1311 -0.0323  0.0557
 4444SOL    HW217548   4.565   4.380   3.144  1.1565 -2.4896 -0.0629
 4444SOL    HW317549   4.672   4.424   3.047  0.3318 -0.6575 -0.1828
 4444SOL    MW417550   4.591   4.396   3.062  0.2929 -0.4390  0.0086
 4445SOL     OW17551   3.199   6.300   1.731 -0.1812  0.1539  0.1719
 4445SOL    HW217552   3.239   6.301   1.645 -0.0406  0.6613  0.2409
 4445SOL    HW317553   3.105   6.302   1.714 -0.1715  2.5540  0.0234
 4445SOL    MW417554   3.192   6.300   1.718 -0.1613  0.5375  0.1614
 4446SOL     OW17555   5.301   3.218   5.731 -0.1510 -0.2793 -0.2387
 4446SOL    HW217556   5.303   3.245   5.640  0.0730 -0.5805 -0.3233
 4446SOL    HW317557   5.334   3.128   5.731 -1.2580 -0.6974 -0.0126
 4446SOL    MW417558   5.306   3.210   5.719 -0.2675 -0.3742 -0.2200
 4447SOL     OW17559   2.296   5.702   4.104 -0.4208  0.1710  0.1930
 4447SOL    HW217560   2.312   5.736   4.016 -0.3228  1.2834  0.6258
 4447SOL    HW317561   2.305   5.607   4.095  1.3309  0.3705 -0.6606
 4447SOL    MW417562   2.300   5.694   4.091 -0.1768  0.3441  0.1375
 4448SOL     OW17563   1.045   4.421   4.474 -0.4360 -0.5800  0.0997
 4448SOL    HW217564   1.020   4.487   4.539 -1.3342  0.4956 -1.2714
 4448SOL    HW317565   0.961   4.381   4.449 -0.0744 -1.1102 -0.2650
 4448SOL    MW417566   1.030   4.424   4.479 -0.5068 -0.5080 -0.1293
 4449SOL     OW17567   3.240   4.834   1.867  0.0116 -0.3560  0.2294
 4449SOL    HW217568   3.223   4.740   1.861 -0.1759 -0.2467 -1.6393
 4449SOL    HW317569   3.177   4.874   1.807 -0.3023  1.0420  1.4149
 4449SOL    MW417570   3.229   4.827   1.858 -0.0546 -0.1571  0.1393
 4450SOL     OW17571   0.798   5.881   1.018  0.0705  0.4448  0.0533
 4450SOL    HW217572   0.787   5.976   1.022 -2.6150  0.2460 -0.5535
 4450SOL    HW317573   0.891   5.868   0.999  0.1807  3.0152 -1.6811
 4450SOL    MW417574   0.808   5.892   1.016 -0.2693  0.7577 -0.2556
 4451SOL     OW17575   3.146   2.215   0.941 -0.0791  0.0677  1.0477
 4451SOL    HW217576   3.122   2.145   1.001 -0.0429 -0.2931  0.6434
 4451SOL    HW317577   3.112   2.295   0.982 -1.3630 -0.3461  0.8267
 4451SOL    MW417578   3.139   2.216   0.954 -0.2437 -0.0345  0.9652
 4452SOL     OW17579   0.157   3.400   0.203 -0.4187 -0.3652 -0.0690
 4452SOL    HW217580   0.175   3.463   0.133 -1.0184  0.8664  0.8307
 4452SOL    HW317581   0.075   3.431   0.242 -1.8594 -2.9143 -0.8775
 4452SOL    MW417582   0.149   3.413   0.199 -0.6879 -0.5391 -0.0569
 4453SOL     OW17583   2.017   1.952   4.997 -0.3957 -0.0301 -0.3572
 4453SOL    HW217584   2.066   1.906   5.065 -1.0720  2.0763  1.7076
 4453SOL    HW317585   1.992   1.883   4.935  1.3714 -1.8509  0.8067
 4453SOL    MW417586   2.020   1.937   4.998 -0.2518  0.0076  0.0688
 4454SOL     OW17587   1.744   0.400   1.347 -0.3772 -0.0625  0.3576
 4454SOL    HW217588   1.743   0.375   1.255 -0.4783  1.5284 -0.1100
 4454SOL    HW317589   1.652   0.413   1.369 -0.3257 -0.0448  0.5595
 4454SOL    MW417590   1.732   0.398   1.338 -0.3837  0.1497  0.3225
 4455SOL     OW17591   0.844   6.166   1.018 -0.1612  0.3481 -0.0898
 4455SOL    HW217592   0.911   6.150   1.084 -0.6821  0.7976  0.5623
 4455SOL    HW317593   0.797   6.244   1.049 -0.1082  0.8622 -1.2363
 4455SOL    MW417594   0.847   6.174   1.031 -0.2230  0.4752 -0.1550
 4456SOL     OW17595   4.528   0.237   0.889  0.0227 -0.1971 -0.4713
 4456SOL    HW217596   4.611   0.193   0.868 -0.1131  0.2050 -1.9456
 4456SOL    HW317597   4.542   0.328   0.864 -0.5258  0.1017  0.2689
 4456SOL    MW417598   4.541   0.243   0.883 -0.0676 -0.1046 -0.5682
 4457SOL     OW17599   0.465   1.918   2.863  0.1074  0.4675 -0.0471
 4457SOL    HW217600   0.530   1.929   2.932 -0.8981  1.2128  0.8046
 4457SOL    HW317601   0.418   1.839   2.887 -0.1050  0.6084 -0.0038
 4457SOL    MW417602   0.468   1.909   2.875 -0.0533  0.5845  0.0710
 4458SOL     OW17603   0.866   0.227   6.424  0.1955 -0.6168  0.1846
 4458SOL    HW217604   0.885   0.175   6.346 -0.4450 -0.8295  0.1661
 4458SOL    HW317605   0.771   0.235   6.425  0.3056  0.8963 -0.0313
 4458SOL    MW417606   0.856   0.221   6.414  0.1255 -0.4452  0.1537
 4459SOL     OW17607   3.462   5.970   6.310  0.3060 -0.0028 -0.0571
 4459SOL    HW217608   3.431   6.035   6.246  2.3883 -0.5628 -1.7592
 4459SOL    HW317609   3.467   6.018   6.392 -0.2898  1.3924 -0.7920
 4459SOL    MW417610   3.459   5.985   6.312  0.5022  0.1074 -0.3786
 4460SOL     OW17611   2.314   2.748   0.894  0.1444 -0.6187  0.0902
 4460SOL    HW217612   2.315   2.671   0.950 -0.0778  0.1543  1.1925
 4460SOL    HW317613   2.252   2.808   0.936  1.7115  0.9156  0.3328
 4460SOL    MW417614   2.306   2.746   0.907  0.3219 -0.3143  0.2677
 4461SOL     OW17615   6.413   4.737   3.596 -0.2987  0.5774  0.3737
 4461SOL    HW217616   6.393   4.753   3.504 -3.1466 -1.4553  0.5160
 4461SOL    HW317617   6.469   4.658   3.595  0.8756  1.3813  0.3775
 4461SOL    MW417618   6.418   4.728   3.584 -0.5195  0.4153  0.3930
 4462SOL     OW17619   2.711   6.097   2.302 -0.1054  0.5776  0.2723
 4462SOL    HW217620   2.730   6.167   2.365  1.3868 -0.6464  1.2212
 4462SOL    HW317621   2.652   6.038   2.349  1.0123 -0.3421  0.5390
 4462SOL    MW417622   2.705   6.099   2.317  0.2390  0.2948  0.4327
 4463SOL     OW17623   6.200   5.862   0.706 -0.8013  0.0214  0.0655
 4463SOL    HW217624   6.286   5.897   0.731  0.7498 -2.8746 -0.7211
 4463SOL    HW317625   6.138   5.911   0.760  1.4116  1.5900  1.3714
 4463SOL    MW417626   6.203   5.873   0.717 -0.3047 -0.1537  0.1340
 4464SOL     OW17627   2.944   5.328   4.105 -0.1832  0.0348  0.4182
 4464SOL    HW217628   2.974   5.340   4.015 -0.2127  1.1345  0.5396
 4464SOL    HW317629   3.007   5.267   4.144  0.5875  0.5593  0.0233
 4464SOL    MW417630   2.956   5.322   4.098 -0.0854  0.2491  0.3821
 4465SOL     OW17631   4.790   3.122   4.797 -0.0623  0.2136  0.5067
 4465SOL    HW217632   4.731   3.078   4.859 -0.5847 -0.4809 -0.4620
 4465SOL    HW317633   4.877   3.089   4.820 -0.1208  0.6541  1.4403
 4465SOL    MW417634   4.794   3.112   4.808 -0.1390  0.1801  0.5021
 4466SOL     OW17635   0.300   4.472   1.860  0.1688  0.4900  0.0254
 4466SOL    HW217636   0.240   4.484   1.933  0.6836  0.2448  0.4928
 4466SOL    HW317637   0.308   4.560   1.821  0.9243  0.9116  1.0790
 4466SOL    MW417638   0.293   4.485   1.864  0.3364  0.5133  0.2261
 4467SOL     OW17639   4.911   5.557   0.262  0.0116  0.3187 -0.1220
 4467SOL    HW217640   4.887   5.533   0.352 -1.3501 -0.9924 -0.7904
 4467SOL    HW317641   4.980   5.495   0.238  0.7611  1.0170  0.1759
 4467SOL    MW417642   4.917   5.546   0.271 -0.0692  0.2378 -0.1709
 4468SOL     OW17643   2.259   3.359   5.280 -0.0404  0.5685  0.4792
 4468SOL    HW217644   2.182   3.312   5.249  0.1818 -0.1437  0.9757
 4468SOL    HW317645   2.297   3.302   5.347  1.4070  0.4767 -0.3694
 4468SOL    MW417646   2.254   3.345   5.284  0.1799  0.4624  0.4327
 4469SOL     OW17647   4.092   6.241   2.253  0.0277  0.8323  0.2684
 4469SOL    HW217648   4.186   6.256   2.250  0.3467 -1.1100 -0.5186
 4469SOL    HW317649   4.064   6.240   2.161 -0.1039 -2.0458  0.2413
 4469SOL    MW417650   4.100   6.243   2.240  0.0524  0.1963  0.1610
 4470SOL     OW17651   0.632   4.011   6.313  0.0526  0.5192 -0.4200
 4470SOL    HW217652   0.665   3.925   6.286  1.0327  1.2605 -1.6814
 4470SOL    HW317653   0.549   3.992   6.355  1.0319 -1.2112  0.8695
 4470SOL    MW417654   0.626   3.997   6.315  0.3111  0.3887 -0.4163
 4471SOL     OW17655   1.118   3.335   0.024 -0.3905 -0.7734  0.4594
 4471SOL    HW217656   1.022   3.332   0.031 -0.5529 -1.0058 -1.3404
 4471SOL    HW317657   1.149   3.330   0.114 -2.1009  0.5616  1.1800
 4471SOL    MW417658   1.109   3.334   0.036 -0.6376 -0.6280  0.3170
 4472SOL     OW17659   4.360   5.362   2.322  0.1200 -0.3871 -0.1060
 4472SOL    HW217660   4.428   5.389   2.260 -0.6101  1.5505 -0.1456
 4472SOL    HW317661   4.398   5.288   2.369  2.1367  0.4365 -0.3355
 4472SOL    MW417662   4.374   5.356   2.320  0.2897 -0.0228 -0.1415
 4473SOL     OW17663   1.855   4.475   1.104 -0.5765  0.3452 -0.0213
 4473SOL    HW217664   1.908   4.482   1.183  2.3071 -0.1196 -1.7781
 4473SOL    HW317665   1.837   4.381   1.094 -2.2668  0.5357  0.8092
 4473SOL    MW417666   1.859   4.464   1.113 -0.4191  0.3091 -0.1435
 4474SOL     OW17667   2.690   3.303   0.256 -0.2634  0.5863 -0.4722
 4474SOL    HW217668   2.696   3.267   0.345  0.0754  0.6332 -0.4739
 4474SOL    HW317669   2.596   3.319   0.243 -0.2059  1.8015  0.3643
 4474SOL    MW417670   2.678   3.300   0.266 -0.2111  0.7528 -0.3620
 4475SOL     OW17671   6.030   0.539   0.180  0.0761  0.2833  0.1184
 4475SOL    HW217672   6.103   0.595   0.207 -1.1912  0.5549  3.5530
 4475SOL    HW317673   5.965   0.600   0.146  0.6261  0.2792 -0.9651
 4475SOL    MW417674   6.031   0.554   0.179 -0.0185  0.3186  0.4286
 4476SOL     OW17675   1.841   5.058   3.084  0.4347 -0.1659  0.4352
 4476SOL    HW217676   1.793   5.097   3.158 -0.0476  0.5192 -0.2257
 4476SOL    HW317677   1.874   4.975   3.118  0.4679  0.2695  1.5184
 4476SOL    MW417678   1.839   5.052   3.099  0.3755 -0.0181  0.4909
 4477SOL     OW17679   4.229   4.946   5.693  0.1887 -0.4127  0.2664
 4477SOL    HW217680   4.260   4.973   5.779  1.0882  0.1278 -0.2044
 4477SOL    HW317681   4.298   4.888   5.660 -0.6833 -1.5333  0.3558
 4477SOL    MW417682   4.242   4.942   5.700  0.1924 -0.4892  0.2161
 4478SOL     OW17683   0.981   0.036   5.860 -0.1134  0.4400 -0.2797
 4478SOL    HW217684   1.036   0.032   5.782  1.4263  1.8103  0.6909
 4478SOL    HW317685   1.038   0.011   5.932 -1.5385 -0.8962  0.4657
 4478SOL    MW417686   0.996   0.032   5.859 -0.0983  0.4445 -0.0533
 4479SOL     OW17687   2.989   4.480   5.334 -0.2542  0.0437 -0.3101
 4479SOL    HW217688   2.976   4.415   5.265  0.4262 -1.1787  0.6489
 4479SOL    HW317689   3.078   4.513   5.320  0.0929 -0.6036  0.2534
 4479SOL    MW417690   2.999   4.476   5.323 -0.1186 -0.2030 -0.1093
 4480SOL     OW17691   5.948   2.250   5.770 -0.4257  0.0067  0.9017
 4480SOL    HW217692   6.042   2.235   5.761 -0.6928 -0.9674 -0.5297
 4480SOL    HW317693   5.939   2.301   5.851  1.3851  0.7089  0.6914
 4480SOL    MW417694   5.959   2.255   5.780 -0.2220 -0.0292  0.6851
 4481SOL     OW17695   1.402   3.490   1.259 -0.7040 -0.5847  0.1746
 4481SOL    HW217696   1.341   3.475   1.331 -0.6541 -0.0935  0.3231
 4481SOL    HW317697   1.391   3.414   1.202  0.1275 -1.5850  1.2947
 4481SOL    MW417698   1.392   3.478   1.261 -0.5877 -0.6518  0.3420
 4482SOL     OW17699   5.676   5.547   3.527  0.2752  0.2606 -0.1529
 4482SOL    HW217700   5.746   5.492   3.492 -1.1461 -0.3830 -2.1665
 4482SOL    HW317701   5.720   5.628   3.554  2.4576 -1.7550  3.0058
 4482SOL    MW417702   5.691   5.551   3.526  0.3756 -0.0902 -0.0018
 4483SOL     OW17703   3.670   5.671   1.897  0.4188 -0.0859 -0.1095
 4483SOL    HW217704   3.609   5.734   1.935  1.8424  0.9467  0.5553
 4483SOL    HW317705   3.641   5.586   1.929 -1.1749  0.2724 -0.5382
 4483SOL    MW417706   3.659   5.668   1.906  0.3964  0.0976 -0.0783
 4484SOL     OW17707   0.654   0.184   0.491 -0.0443 -0.0034 -0.3002
 4484SOL    HW217708   0.659   0.253   0.557  0.8169 -0.1117 -0.2472
 4484SOL    HW317709   0.725   0.202   0.431  1.3888 -1.8555  0.7247
 4484SOL    MW417710   0.664   0.196   0.492  0.2584 -0.2620 -0.1580
 4485SOL     OW17711   1.754   2.513   0.122  0.3772 -0.3006  0.5539
 4485SOL    HW217712   1.717   2.510   0.210 -1.9142  3.2246 -0.0822
 4485SOL    HW317713   1.839   2.555   0.133  0.4852 -0.6621  1.1583
 4485SOL    MW417714   1.760   2.518   0.135  0.0892  0.1169  0.5498
 4486SOL     OW17715   2.804   4.860   5.900  0.2338 -0.1363  0.0771
 4486SOL    HW217716   2.782   4.904   5.818 -0.9380 -0.4108  0.2273
 4486SOL    HW317717   2.779   4.922   5.968  1.8953  0.4026  0.2445
 4486SOL    MW417718   2.798   4.874   5.898  0.2985 -0.1014  0.1190
 4487SOL     OW17719   5.475   5.464   2.543  0.1033  0.4379  0.3483
 4487SOL    HW217720   5.381   5.472   2.554 -0.0103 -0.8481  0.4995
 4487SOL    HW317721   5.506   5.554   2.534 -0.9167  0.9972  1.9977
 4487SOL    MW417722   5.467   5.477   2.543 -0.0462  0.3420  0.5859
 4488SOL     OW17723   5.910   5.626   4.137 -0.8228 -0.2089 -0.1471
 4488SOL    HW217724   5.866   5.705   4.168  0.4474  1.1546 -1.6203
 4488SOL    HW317725   5.913   5.569   4.214 -1.4970  1.3020  1.0640
 4488SOL    MW417726   5.905   5.629   4.152 -0.7441  0.1703 -0.1817
 4489SOL     OW17727   3.224   5.844   6.039 -0.1852  0.4205  0.2379
 4489SOL    HW217728   3.294   5.899   6.005  0.0464 -0.9495 -1.6638
 4489SOL    HW317729   3.269   5.770   6.079 -0.5243  0.8451  1.4466
 4489SOL    MW417730   3.239   5.842   6.040 -0.1994  0.2958  0.1465
 4490SOL     OW17731   6.069   0.735   4.464 -0.0088  0.1180  0.2581
 4490SOL    HW217732   6.131   0.702   4.530  0.2594 -1.3867 -0.7020
 4490SOL    HW317733   6.030   0.657   4.426 -0.3909  0.9578 -1.1702
 4490SOL    MW417734   6.072   0.721   4.468 -0.0238  0.0303 -0.0570
 4491SOL     OW17735   4.772   1.599   4.616 -0.4094  0.2172  0.1937
 4491SOL    HW217736   4.807   1.555   4.539 -0.2195 -0.3225  0.5831
 4491SOL    HW317737   4.828   1.676   4.627 -0.6797  0.5083 -0.4280
 4491SOL    MW417738   4.784   1.604   4.608 -0.4200  0.1844  0.1631
 4492SOL     OW17739   5.025   5.077   6.349  0.5452 -0.2142  0.6658
 4492SOL    HW217740   5.059   5.075   6.260  1.2784  1.8705  0.8432
 4492SOL    HW317741   5.100   5.103   6.403 -0.8053  2.8012  1.2851
 4492SOL    MW417742   5.039   5.080   6.345  0.4637  0.4587  0.7709
 4493SOL     OW17743   2.871   4.604   2.538  0.1529 -0.3790  0.6784
 4493SOL    HW217744   2.813   4.577   2.610  0.8681 -0.3520  1.2736
 4493SOL    HW317745   2.909   4.522   2.506 -1.5580 -0.6156 -0.9252
 4493SOL    MW417746   2.868   4.590   2.543  0.0215 -0.4067  0.5453
 4494SOL     OW17747   3.776   3.271   3.771  0.5087  0.0611 -0.3352
 4494SOL    HW217748   3.763   3.322   3.851 -1.4111  0.7125 -1.0159
 4494SOL    HW317749   3.822   3.193   3.800  0.8976  0.8210  1.2126
 4494SOL    MW417750   3.780   3.268   3.786  0.3067  0.2473 -0.2208
 4495SOL     OW17751   4.859   4.602   2.657 -0.0571  0.2530  0.0103
 4495SOL    HW217752   4.893   4.527   2.706  0.0805  1.1327  1.3128
 4495SOL    HW317753   4.840   4.567   2.570  2.7088 -0.6503 -0.3325
 4495SOL    MW417754   4.861   4.587   2.652  0.3260  0.2499  0.1369
 4496SOL     OW17755   3.490   1.300   5.876 -0.3361 -0.7129 -0.2723
 4496SOL    HW217756   3.503   1.363   5.948  0.3148 -0.9344 -0.1887
 4496SOL    HW317757   3.545   1.225   5.900 -1.1610 -1.3515 -0.3392
 4496SOL    MW417758   3.499   1.299   5.889 -0.3590 -0.8264 -0.2701
 4497SOL     OW17759   0.458   4.934   4.623 -0.1007 -0.4837  1.0814
 4497SOL    HW217760   0.486   5.022   4.650  0.3643 -0.1176 -0.4299
 4497SOL    HW317761   0.463   4.881   4.702  1.5750  0.4023  1.6275
 4497SOL    MW417762   0.463   4.939   4.637  0.1817 -0.3185  0.9540
 4498SOL     OW17763   5.544   0.771   0.416  0.0662  0.4121  0.1479
 4498SOL    HW217764   5.622   0.818   0.386 -0.7389  1.3555 -0.5551
 4498SOL    HW317765   5.525   0.808   0.502  1.0428 -0.6445  0.8382
 4498SOL    MW417766   5.552   0.782   0.424  0.0888  0.3972  0.1463
 4499SOL     OW17767   3.927   2.284   1.807 -0.1423  0.0148  0.4909
 4499SOL    HW217768   3.878   2.259   1.728  0.2770  0.9111 -0.0697
 4499SOL    HW317769   4.018   2.288   1.777 -0.0654  1.0850  0.8347
 4499SOL    MW417770   3.933   2.281   1.793 -0.0768  0.2743  0.4623
 4500SOL     OW17771   1.379   1.036   0.648  0.1657  0.5653 -0.7656
 4500SOL    HW217772   1.396   1.115   0.698  0.5937  1.1691 -1.8322
 4500SOL    HW317773   1.466   1.004   0.623 -0.0531  0.6382 -1.6524
 4500SOL    MW417774   1.393   1.042   0.651  0.1933  0.6546 -1.0233
 4501SOL     OW17775   5.668   5.900   2.987  0.7467  0.3235 -0.0456
 4501SOL    HW217776   5.756   5.936   2.997  0.4544  1.2453 -0.6566
 4501SOL    HW317777   5.615   5.974   2.957 -0.0672 -0.4084 -0.4625
 4501SOL    MW417778   5.673   5.914   2.984  0.6008  0.3486 -0.1812
 4502SOL     OW17779   3.418   0.586   4.494  0.1272 -0.4115 -0.4443
 4502SOL    HW217780   3.440   0.602   4.586  1.0586 -2.4497 -0.2603
 4502SOL    HW317781   3.502   0.583   4.449 -0.1584 -1.6633 -0.9384
 4502SOL    MW417782   3.432   0.587   4.500  0.2124 -0.8456 -0.4852
 4503SOL     OW17783   5.045   4.165   1.356 -0.1760  0.6662  0.0461
 4503SOL    HW217784   4.978   4.112   1.399 -0.2875  0.5091 -0.3205
 4503SOL    HW317785   5.075   4.111   1.282 -0.6433  1.3167 -0.6251
 4503SOL    MW417786   5.040   4.151   1.352 -0.2524  0.7313 -0.0908
 4504SOL     OW17787   5.083   5.373   6.313  0.0404 -0.0546 -0.3886
 4504SOL    HW217788   5.052   5.296   6.265 -0.9492  0.4907 -0.6396
 4504SOL    HW317789   5.069   5.446   6.252  2.1808  0.1874 -0.6784
 4504SOL    MW417790   5.077   5.373   6.298  0.1923  0.0493 -0.4599
 4505SOL     OW17791   5.100   1.000   2.731  0.0049 -0.2478 -0.3720
 4505SOL    HW217792   5.047   1.047   2.795 -0.2148  0.3163 -0.9573
 4505SOL    HW317793   5.050   1.005   2.650  1.1490  0.6932 -1.0447
 4505SOL    MW417794   5.087   1.007   2.729  0.1269 -0.0492 -0.5380
 4506SOL     OW17795   4.588   6.131   3.824 -0.2616  0.0305 -0.1731
 4506SOL    HW217796   4.630   6.053   3.787 -0.4779 -0.5279  0.7112
 4506SOL    HW317797   4.532   6.164   3.754  2.2867  1.3519 -1.7303
 4506SOL    MW417798   4.586   6.125   3.810  0.0461  0.1312 -0.2619
 4507SOL     OW17799   1.370   3.453   5.416  0.2594  0.5079  0.0255
 4507SOL    HW217800   1.280   3.468   5.387  0.5154  0.3722 -0.8620
 4507SOL    HW317801   1.416   3.534   5.395  0.9648 -0.3652 -2.0822
 4507SOL    MW417802   1.364   3.466   5.409  0.3862  0.3748 -0.3696
 4508SOL     OW17803   0.649   2.524   6.078 -0.2738 -0.6036 -0.2259
 4508SOL    HW217804   0.606   2.597   6.034 -1.1295 -0.8138  0.2336
 4508SOL    HW317805   0.742   2.546   6.076 -0.6293  1.5064  1.6451
 4508SOL    MW417806   0.656   2.536   6.072 -0.4336 -0.3529  0.0816
 4509SOL     OW17807   1.414   0.998   2.405  0.7078  0.2391  0.0650
 4509SOL    HW217808   1.422   1.092   2.388  1.2053  0.2568  0.3916
 4509SOL    HW317809   1.441   0.956   2.323  1.4196  0.3598  0.2375
 4509SOL    MW417810   1.419   1.005   2.392  0.8674  0.2574  0.1308
 4510SOL     OW17811   0.925   4.734   0.730  0.6169  0.4768 -0.2026
 4510SOL    HW217812   0.973   4.772   0.805  0.9588  0.1136 -0.2290
 4510SOL    HW317813   0.834   4.734   0.758  0.8465 -0.5477  0.6237
 4510SOL    MW417814   0.920   4.739   0.744  0.6923  0.2937 -0.0970
 4511SOL     OW17815   4.481   5.385   2.615  0.2911  0.0211  0.2363
 4511SOL    HW217816   4.505   5.446   2.545 -0.6739 -0.1387 -0.2537
 4511SOL    HW317817   4.530   5.305   2.596  1.7683  0.7024  1.0270
 4511SOL    MW417818   4.490   5.383   2.603  0.3587  0.0899  0.2760
 4512SOL     OW17819   3.271   5.379   5.198  0.4951 -1.0835 -0.0678
 4512SOL    HW217820   3.295   5.462   5.239 -1.7682 -0.1217 -0.5317
 4512SOL    HW317821   3.353   5.344   5.165  1.5632  0.8337  0.4089
 4512SOL    MW417822   3.285   5.385   5.199  0.3374 -0.7037 -0.0661
 4513SOL     OW17823   5.194   4.033   2.397  0.1278 -0.3741 -0.4301
 4513SOL    HW217824   5.258   3.982   2.447  1.1131  0.8417 -0.3848
 4513SOL    HW317825   5.232   4.121   2.394 -1.1612  0.1748 -1.1295
 4513SOL    MW417826   5.208   4.038   2.403  0.0877 -0.1413 -0.5164
 4514SOL     OW17827   2.850   4.046   3.546 -0.3317 -0.1008  0.2067
 4514SOL    HW217828   2.784   4.109   3.576 -0.8178 -0.4337 -0.1517
 4514SOL    HW317829   2.885   4.084   3.466 -0.1876  0.0080  0.3213
 4514SOL    MW417830   2.846   4.059   3.539 -0.3768 -0.1304  0.1746
 4515SOL     OW17831   5.752   5.462   5.268 -0.2751  0.4747 -0.6066
 4515SOL    HW217832   5.785   5.372   5.270 -1.1926  0.1103 -1.3688
 4515SOL    HW317833   5.808   5.507   5.204 -1.3707 -0.2144 -2.1071
 4515SOL    MW417834   5.764   5.456   5.260 -0.5407  0.3357 -0.9051
 4516SOL     OW17835   3.401   2.540   4.416  0.1743  0.6426 -0.4882
 4516SOL    HW217836   3.424   2.476   4.484 -3.4927  0.6550  1.0211
 4516SOL    HW317837   3.402   2.624   4.461  0.7401  1.0870 -1.3175
 4516SOL    MW417838   3.404   2.542   4.431 -0.2349  0.7029 -0.3985
 4517SOL     OW17839   1.680   1.274   6.352 -0.0408 -0.0110  0.3690
 4517SOL    HW217840   1.709   1.190   6.387  3.2424  1.5652  1.8389
 4517SOL    HW317841   1.635   1.316   6.426  0.5483  0.4797  0.4574
 4517SOL    MW417842   1.678   1.268   6.366  0.4701  0.2617  0.5746
 4518SOL     OW17843   3.651   4.783   3.363 -0.1138  0.4135  0.3618
 4518SOL    HW217844   3.611   4.868   3.347 -1.4956 -0.6127 -2.2146
 4518SOL    HW317845   3.580   4.720   3.348  1.1254 -1.2608  1.1838
 4518SOL    MW417846   3.636   4.786   3.359 -0.1326  0.0572  0.1303
 4519SOL     OW17847   4.753   5.473   3.083 -0.3550 -0.7282  0.1243
 4519SOL    HW217848   4.672   5.431   3.110 -0.1759 -0.5087  1.0383
 4519SOL    HW317849   4.821   5.427   3.133 -0.1062  0.2723  0.7345
 4519SOL    MW417850   4.751   5.461   3.093 -0.2985 -0.5673  0.3254
 4520SOL     OW17851   1.229   0.030   4.791 -0.4642 -0.1796  0.3924
 4520SOL    HW217852   1.199   0.120   4.790  1.1448  0.4028 -0.0164
 4520SOL    HW317853   1.312   0.033   4.742  0.7382 -1.4613  2.2500
 4520SOL    MW417854   1.236   0.042   4.784 -0.0933 -0.2719  0.5836
 4521SOL     OW17855   6.173   1.540   3.715  0.3568  0.0132 -0.0284
 4521SOL    HW217856   6.143   1.613   3.769  0.6774  0.1170  0.0123
 4521SOL    HW317857   6.198   1.472   3.778  0.6678  0.1098 -0.0448
 4521SOL    MW417858   6.172   1.541   3.730  0.4402  0.0397 -0.0252
 4522SOL     OW17859   4.056   5.655   4.118 -0.4841 -0.3862  0.1511
 4522SOL    HW217860   4.023   5.664   4.029  2.1513  2.4664 -0.7189
 4522SOL    HW317861   3.994   5.705   4.171  0.7236  2.6559 -1.0545
 4522SOL    MW417862   4.044   5.663   4.113  0.0229  0.3916 -0.1227
 4523SOL     OW17863   0.227   6.293   5.047 -0.0755  0.0251 -0.1445
 4523SOL    HW217864   0.156   6.237   5.079  0.6870 -0.2912  1.0641
 4523SOL    HW317865   0.277   6.314   5.125  1.8935 -0.8002 -1.1268
 4523SOL    MW417866   0.224   6.289   5.061  0.2849 -0.1256 -0.1146
 4524SOL     OW17867   2.267   3.726   4.349 -0.5766 -0.3157 -0.3134
 4524SOL    HW217868   2.317   3.753   4.271 -1.2576  2.3944  0.0838
 4524SOL    HW317869   2.262   3.631   4.342  0.5479 -0.2805 -2.8607
 4524SOL    MW417870   2.273   3.717   4.337 -0.5181  0.0465 -0.5971
 4525SOL     OW17871   2.104   1.962   4.689 -0.1078  0.0093 -0.4684
 4525SOL    HW217872   2.191   1.958   4.729 -0.6768 -0.7370  0.7467
 4525SOL    HW317873   2.063   2.038   4.731 -0.6550 -0.6928  0.3157
 4525SOL    MW417874   2.110   1.972   4.700 -0.2551 -0.1818 -0.2047
 4526SOL     OW17875   1.840   4.157   5.723  0.2121 -0.3686 -0.8780
 4526SOL    HW217876   1.884   4.240   5.739 -0.2402 -0.3479  0.3542
 4526SOL    HW317877   1.883   4.122   5.645  1.2121  0.4643 -0.7255
 4526SOL    MW417878   1.852   4.163   5.715  0.2844 -0.2559 -0.6953
 4527SOL     OW17879   3.129   1.118   0.887  0.1095 -0.5964  0.7115
 4527SOL    HW217880   3.131   1.213   0.875  0.6663 -0.8801 -1.9122
 4527SOL    HW317881   3.037   1.099   0.905 -0.1614  0.3304  0.3914
 4527SOL    MW417882   3.117   1.128   0.888  0.1473 -0.5115  0.3231
 4528SOL     OW17883   4.826   3.391   1.753  0.2708 -0.3118  0.0563
 4528SOL    HW217884   4.743   3.428   1.725  0.1791 -1.0031 -0.5894
 4528SOL    HW317885   4.810   3.360   1.842 -0.3683 -1.0814 -0.3196
 4528SOL    MW417886   4.813   3.392   1.761  0.1744 -0.5046 -0.0785
 4529SOL     OW17887   3.312   0.350   0.515  0.6529  0.4397  0.2731
 4529SOL    HW217888   3.269   0.266   0.535 -1.1663  1.8983  3.1106
 4529SOL    HW317889   3.297   0.363   0.421 -0.0223 -1.8285  0.0026
 4529SOL    MW417890   3.305   0.340   0.505  0.3238  0.3329  0.6118
 4530SOL     OW17891   0.466   3.682   2.499 -0.3383  0.0952 -0.5182
 4530SOL    HW217892   0.486   3.752   2.437 -2.2192  0.9097 -0.2921
 4530SOL    HW317893   0.443   3.607   2.444 -2.3977  0.9317 -0.8854
 4530SOL    MW417894   0.465   3.681   2.484 -0.8582  0.3130 -0.5368
 4531SOL     OW17895   3.113   6.025   1.451  0.2052 -0.0581 -0.6101
 4531SOL    HW217896   3.195   5.990   1.486 -0.0528  1.2543  1.4530
 4531SOL    HW317897   3.077   5.953   1.399  0.9902 -1.9202  1.2730
 4531SOL    MW417898   3.119   6.011   1.449  0.2748 -0.1306 -0.0894
 4532SOL     OW17899   2.241   0.321   0.146 -0.1842 -0.1094 -0.3042
 4532SOL    HW217900   2.230   0.414   0.122 -0.9385 -0.6775 -2.3906
 4532SOL    HW317901   2.332   0.302   0.123  0.0918  0.2020  0.5068
 4532SOL    MW417902   2.252   0.331   0.140 -0.2473 -0.1433 -0.4725
 4533SOL     OW17903   5.632   3.858   1.621  0.0672  0.5217  0.2196
 4533SOL    HW217904   5.597   3.788   1.567  1.4600  0.1903 -0.2954
 4533SOL    HW317905   5.692   3.905   1.563  0.9720  0.6591  1.2481
 4533SOL    MW417906   5.635   3.855   1.606  0.3703  0.4961  0.2874
 4534SOL     OW17907   2.876   2.382   0.884 -0.4211 -0.5828  0.0629
 4534SOL    HW217908   2.904   2.301   0.840 -1.0315  0.5570 -2.6147
 4534SOL    HW317909   2.827   2.351   0.960  1.0387 -2.6830  0.2622
 4534SOL    MW417910   2.874   2.367   0.888 -0.3090 -0.7095 -0.2641
 4535SOL     OW17911   0.665   4.946   1.573 -0.0903 -0.7770  0.4241
 4535SOL    HW217912   0.732   5.013   1.565  1.6918 -2.3848  1.0628
 4535SOL    HW317913   0.670   4.918   1.665 -2.7350  0.0928  0.9217
 4535SOL    MW417914   0.674   4.951   1.584 -0.2041 -0.8743  0.5740
 4536SOL     OW17915   2.569   0.097   3.098  0.4255 -0.3357 -0.0930
 4536SOL    HW217916   2.573   0.040   3.174 -0.7280  1.1225  1.1221
 4536SOL    HW317917   2.532   0.042   3.029 -1.2112 -0.9274  1.1914
 4536SOL    MW417918   2.564   0.082   3.099  0.0574 -0.2213  0.2368
 4537SOL     OW17919   1.813   1.448   1.133  0.1011 -0.1735 -0.3267
 4537SOL    HW217920   1.725   1.485   1.135 -0.4693 -1.2243 -2.3287
 4537SOL    HW317921   1.870   1.524   1.122 -0.5947  0.4811  0.4234
 4537SOL    MW417922   1.809   1.463   1.132 -0.0660 -0.2258 -0.4919
 4538SOL     OW17923   1.339   2.833   0.459 -0.0232  0.4511  0.3766
 4538SOL    HW217924   1.254   2.790   0.468 -0.3061  1.0476  0.6221
 4538SOL    HW317925   1.322   2.925   0.482  0.3802  0.8952 -0.9904
 4538SOL    MW417926   1.326   2.840   0.464 -0.0073  0.5884  0.2286
 4539SOL     OW17927   3.228   4.904   1.019 -0.2544  0.4470  0.1539
 4539SOL    HW217928   3.248   4.864   1.103  1.0707 -1.7936 -1.1402
 4539SOL    HW317929   3.264   4.993   1.025  0.1934  0.1875  1.7582
 4539SOL    MW417930   3.235   4.911   1.031 -0.0205  0.1171  0.1948
 4540SOL     OW17931   3.993   5.134   3.227  0.8075 -0.7497 -0.3398
 4540SOL    HW217932   4.005   5.117   3.133  1.1820 -0.0487 -0.4286
 4540SOL    HW317933   3.988   5.047   3.267  0.9084 -1.0553 -0.9789
 4540SOL    MW417934   3.994   5.120   3.220  0.8702 -0.6975 -0.4359
 4541SOL     OW17935   0.956   2.119   2.463 -0.1652  0.2596  0.0282
 4541SOL    HW217936   1.003   2.162   2.392 -0.2556  1.7257  0.8231
 4541SOL    HW317937   0.864   2.129   2.440 -0.1883  0.5077  0.2390
 4541SOL    MW417938   0.950   2.126   2.450 -0.1802  0.4858  0.1609
 4542SOL     OW17939   2.732   2.752   0.767 -0.3609 -0.1881  0.0474
 4542SOL    HW217940   2.680   2.707   0.834  0.9184  2.1124  2.8506
 4542SOL    HW317941   2.667   2.795   0.711 -1.4850 -2.4311 -0.4597
 4542SOL    MW417942   2.716   2.752   0.769 -0.3404 -0.1805  0.3503
 4543SOL     OW17943   0.896   4.182   2.296  0.2125 -0.2627 -0.2258
 4543SOL    HW217944   0.914   4.144   2.211  3.2836  0.9365 -0.2302
 4543SOL    HW317945   0.865   4.271   2.277 -1.0002 -0.6432 -0.0981
 4543SOL    MW417946   0.894   4.189   2.283  0.4577 -0.1547 -0.2095
 4544SOL     OW17947   2.182   5.666   0.989  0.5785  0.4268  0.7063
 4544SOL    HW217948   2.189   5.644   1.082 -1.2460 -0.8016  0.6080
 4544SOL    HW317949   2.165   5.760   0.988  0.6604  0.4591  1.6212
 4544SOL    MW417950   2.181   5.675   1.001  0.3486  0.2690  0.8140
 4545SOL     OW17951   1.935   0.320   0.457 -0.4219  0.2561 -0.1998
 4545SOL    HW217952   2.026   0.349   0.468 -0.7922  1.2601  0.3733
 4545SOL    HW317953   1.934   0.232   0.494  0.2978  0.2649 -0.1299
 4545SOL    MW417954   1.947   0.312   0.463 -0.3758  0.3897 -0.1150
 4546SOL     OW17955   3.906   4.333   4.251 -0.2609  0.2485 -0.3289
 4546SOL    HW217956   3.921   4.350   4.158  0.3392 -1.8928 -0.6853
 4546SOL    HW317957   3.843   4.260   4.253 -2.1150  1.7934  1.0183
 4546SOL    MW417958   3.900   4.325   4.239 -0.4264  0.1698 -0.1982
 4547SOL     OW17959   4.579   4.658   1.976 -0.5237  0.4461  0.5801
 4547SOL    HW217960   4.603   4.566   1.967  2.2761  1.1906 -0.5406
 4547SOL    HW317961   4.544   4.665   2.065  2.7011 -1.1002  2.1369
 4547SOL    MW417962   4.578   4.647   1.987  0.2712  0.3403  0.6377
 4548SOL     OW17963   4.168   0.927   3.417 -0.4896 -0.2429 -0.6347
 4548SOL    HW217964   4.175   0.875   3.497  1.5713 -1.9481 -1.8246
 4548SOL    HW317965   4.081   0.908   3.383 -0.7850 -0.7310  0.3657
 4548SOL    MW417966   4.158   0.918   3.423 -0.2566 -0.5323 -0.6597
 4549SOL     OW17967   0.697   2.097   5.301  0.1691  0.0185  0.2209
 4549SOL    HW217968   0.617   2.097   5.249  1.6161  0.5764 -2.1596
 4549SOL    HW317969   0.686   2.170   5.362 -1.4404 -0.4411  0.5248
 4549SOL    MW417970   0.685   2.107   5.302  0.1476  0.0314 -0.0531
 4550SOL     OW17971   3.999   2.206   1.322  0.0033 -0.1913  0.3982
 4550SOL    HW217972   4.007   2.301   1.311  2.1188 -0.3285  0.1632
 4550SOL    HW317973   3.940   2.178   1.252 -0.5961  0.9303  0.4359
 4550SOL    MW417974   3.993   2.215   1.311  0.2033 -0.0614  0.3722
 4551SOL     OW17975   2.489   1.232   1.676  0.2286  0.2443  0.2961
 4551SOL    HW217976   2.451   1.239   1.588  0.1925  1.6762  0.4039
 4551SOL    HW317977   2.580   1.204   1.660 -0.7616 -3.3183  0.0486
 4551SOL    MW417978   2.496   1.229   1.662  0.0932 -0.0368  0.2777
 4552SOL     OW17979   2.585   3.278   5.727 -0.4978 -0.0139  0.0844
 4552SOL    HW217980   2.530   3.353   5.705  1.0094  0.7662 -1.1617
 4552SOL    HW317981   2.668   3.295   5.684  0.3908 -1.6828  1.0362
 4552SOL    MW417982   2.588   3.290   5.718 -0.1817 -0.1312  0.0456
 4553SOL     OW17983   6.115   5.173   5.060  0.5944 -0.1045 -0.1264
 4553SOL    HW217984   6.183   5.115   5.027  0.6040 -1.4958  2.0907
 4553SOL    HW317985   6.039   5.115   5.073  0.4133  0.4536  1.5619
 4553SOL    MW417986   6.114   5.158   5.058  0.5718 -0.2144  0.3888
 4554SOL     OW17987   3.477   0.376   5.992 -0.1509  0.5662 -0.2875
 4554SOL    HW217988   3.555   0.422   6.023  0.8231 -0.6356 -0.8890
 4554SOL    HW317989   3.447   0.326   6.068 -0.0736  0.6939 -0.1737
 4554SOL    MW417990   3.483   0.375   6.006 -0.0122  0.4245 -0.3519
 4555SOL     OW17991   5.612   3.743   2.779 -0.2663 -0.1083 -0.2757
 4555SOL    HW217992   5.700   3.780   2.778  0.5614 -1.9329 -1.9128
 4555SOL    HW317993   5.618   3.666   2.722 -2.5165 -1.2159  0.8534
 4555SOL    MW417994   5.625   3.738   2.772 -0.4540 -0.4952 -0.3427
 4556SOL     OW17995   5.558   0.289   4.673  0.0670 -0.3812  0.9064
 4556SOL    HW217996   5.590   0.233   4.603  0.7456  0.2038  0.7371
 4556SOL    HW317997   5.471   0.317   4.644  0.5303  0.2321  0.0718
 4556SOL    MW417998   5.551   0.286   4.660  0.2177 -0.2231  0.7739
 4557SOL     OW17999   4.466   4.959   3.206  0.2717  0.7589  0.5868
 4557SOL    HW218000   4.380   4.925   3.183  0.0595  0.3266  1.9558
 4557SOL    HW318001   4.527   4.903   3.156 -0.2222  1.3032 -0.6697
 4557SOL    MW418002   4.463   4.947   3.196  0.1785  0.7737  0.6016
 4558SOL     OW18003   6.212   3.765   2.342 -0.0685 -0.3922  0.3521
 4558SOL    HW218004   6.127   3.734   2.310  0.8576 -2.3807 -0.3394
 4558SOL    HW318005   6.246   3.820   2.270 -0.8193  0.5744  0.7141
 4558SOL    MW418006   6.205   3.768   2.328 -0.0454 -0.5270  0.3086
 4559SOL     OW18007   1.453   2.473   4.538 -0.1000  0.0081 -0.0250
 4559SOL    HW218008   1.358   2.486   4.538 -0.2959 -1.3076  0.0190
 4559SOL    HW318009   1.473   2.444   4.450 -0.3380 -3.3968  0.8914
 4559SOL    MW418010   1.443   2.471   4.527 -0.1572 -0.6148  0.1017
 4560SOL     OW18011   1.650   3.626   1.834  0.0766  1.1726 -0.2127
 4560SOL    HW218012   1.674   3.573   1.758  1.1015  0.5856  0.5154
 4560SOL    HW318013   1.730   3.672   1.858 -0.2649  1.4159  0.4765
 4560SOL    MW418014   1.663   3.625   1.827  0.1667  1.1273 -0.0257
 4561SOL     OW18015   4.437   5.517   1.322 -0.1389 -0.6755  0.2837
 4561SOL    HW218016   4.364   5.577   1.307  0.0331 -0.3230  0.8373
 4561SOL    HW318017   4.450   5.474   1.237 -0.9001 -0.6512  0.1462
 4561SOL    MW418018   4.429   5.519   1.309 -0.2166 -0.6258  0.3386
 4562SOL     OW18019   6.061   0.822   4.184 -0.0569 -0.2188  0.0491
 4562SOL    HW218020   6.062   0.830   4.279 -1.6389 -1.5274  0.2306
 4562SOL    HW318021   6.148   0.851   4.156  0.8867 -0.9781  2.0072
 4562SOL    MW418022   6.073   0.827   4.193 -0.1412 -0.4916  0.3314
 4563SOL     OW18023   1.019   5.138   0.103 -0.1934  0.2136  0.4726
 4563SOL    HW218024   1.104   5.178   0.085  0.5019 -0.5314  1.9254
 4563SOL    HW318025   1.023   5.054   0.056 -0.4161  0.4857 -0.0381
 4563SOL    MW418026   1.031   5.132   0.094 -0.1311  0.1512  0.5969
 4564SOL     OW18027   1.171   2.861   0.189  0.5062  0.8043  0.1299
 4564SOL    HW218028   1.109   2.796   0.223 -1.1439  0.3897 -3.2528
 4564SOL    HW318029   1.251   2.847   0.241  0.1255 -3.7127 -0.0635
 4564SOL    MW418030   1.174   2.850   0.200  0.2382  0.1537 -0.3419
 4565SOL     OW18031   4.386   6.296   2.254  0.3459  0.1893  0.1861
 4565SOL    HW218032   4.382   6.350   2.175  2.0048 -1.6476 -1.2674
 4565SOL    HW318033   4.474   6.258   2.252  0.2319 -0.3365  2.6617
 4565SOL    MW418034   4.397   6.298   2.243  0.5497 -0.1224  0.3209
 4566SOL     OW18035   4.043   6.031   5.814 -0.0218  0.9643 -0.6652
 4566SOL    HW218036   4.114   6.036   5.751  0.6724  2.4148  0.1680
 4566SOL    HW318037   4.087   6.021   5.899 -0.9110 -0.4365 -0.3343
 4566SOL    MW418038   4.058   6.030   5.817 -0.0475  0.9709 -0.5116
 4567SOL     OW18039   4.151   3.341   0.851 -0.2256  0.1236 -0.0209
 4567SOL    HW218040   4.180   3.376   0.936  1.0554  1.2808 -0.8934
 4567SOL    HW318041   4.231   3.306   0.811 -0.6382  0.4303 -1.1419
 4567SOL    MW418042   4.166   3.341   0.857 -0.1110  0.3168 -0.2839
 4568SOL     OW18043   4.388   3.910   5.148  0.2937  0.2378 -0.1024
 4568SOL    HW218044   4.437   3.846   5.095 -1.4609  0.1136 -1.6870
 4568SOL    HW318045   4.357   3.859   5.224 -0.5406 -0.6911 -1.0204
 4568SOL    MW418046   4.390   3.895   5.151 -0.0479  0.0989 -0.4326
 4569SOL     OW18047   0.879   1.249   5.258  0.0777  1.0324  1.0420
 4569SOL    HW218048   0.835   1.198   5.190  0.1303  0.7114  1.2430
 4569SOL    HW318049   0.850   1.339   5.244 -0.1098  0.9270  0.7532
 4569SOL    MW418050   0.869   1.254   5.247  0.0599  0.9762  1.0304
 4570SOL     OW18051   3.372   5.134   0.919 -0.6262 -0.2584 -0.0120
 4570SOL    HW218052   3.349   5.224   0.942  0.3287 -0.4935  2.0919
 4570SOL    HW318053   3.370   5.132   0.823  1.4495  2.6176 -0.2494
 4570SOL    MW418054   3.369   5.146   0.909 -0.2263  0.0901  0.2343
 4571SOL     OW18055   1.579   5.221   5.473 -0.5338  0.1757 -0.0800
 4571SOL    HW218056   1.623   5.272   5.405  0.5048 -1.9048 -1.0716
 4571SOL    HW318057   1.490   5.256   5.476 -0.3672  0.8781 -1.9242
 4571SOL    MW418058   1.573   5.232   5.464 -0.3748 -0.0061 -0.4541
 4572SOL     OW18059   2.857   1.490   3.921  0.3111 -0.1533  0.0367
 4572SOL    HW218060   2.778   1.454   3.880  0.6266 -1.7260  0.7456
 4572SOL    HW318061   2.843   1.477   4.015  2.2337 -2.3388  0.1117
 4572SOL    MW418062   2.845   1.484   3.928  0.6064 -0.6491  0.1401
 4573SOL     OW18063   0.229   1.691   0.742  0.0830 -0.0173  0.5583
 4573SOL    HW218064   0.156   1.646   0.701  0.5427 -0.5150  0.2672
 4573SOL    HW318065   0.190   1.766   0.788 -0.7672 -1.0608  1.5692
 4573SOL    MW418066   0.214   1.695   0.742  0.0315 -0.2206  0.6533
 4574SOL     OW18067   4.125   2.918   2.468 -0.2739  0.0383  0.4002
 4574SOL    HW218068   4.205   2.890   2.424 -0.1303 -0.6339  1.0664
 4574SOL    HW318069   4.098   2.997   2.421  0.2803 -0.2337 -0.4061
 4574SOL    MW418070   4.132   2.924   2.456 -0.1818 -0.0862  0.3817
 4575SOL     OW18071   1.599   0.926   2.667  0.3949 -0.1868  0.2746
 4575SOL    HW218072   1.634   0.908   2.580  0.8255  2.4844 -0.1976
 4575SOL    HW318073   1.505   0.934   2.653  0.3644 -0.5745  0.2333
 4575SOL    MW418074   1.592   0.925   2.654  0.4477  0.1145  0.2069
 4576SOL     OW18075   5.771   1.484   2.364  0.3389 -0.4841  0.0125
 4576SOL    HW218076   5.699   1.426   2.340 -0.3380  0.5892 -0.6286
 4576SOL    HW318077   5.805   1.517   2.280  0.7958 -0.0524  0.3569
 4576SOL    MW418078   5.766   1.481   2.349  0.3099 -0.2856 -0.0266
 4577SOL     OW18079   1.359   3.867   3.904  0.3441 -0.0967 -0.2437
 4577SOL    HW218080   1.389   3.921   3.977  2.4943  0.8547 -1.7153
 4577SOL    HW318081   1.272   3.900   3.884 -0.8207 -1.1923  2.5768
 4577SOL    MW418082   1.352   3.879   3.911  0.4741 -0.1158 -0.0658
 4578SOL     OW18083   3.919   1.012   2.638 -0.0391 -0.5063 -0.4388
 4578SOL    HW218084   3.966   1.094   2.622 -1.5665  0.5001 -0.0692
 4578SOL    HW318085   3.936   0.959   2.560  2.5554 -0.6605  0.1678
 4578SOL    MW418086   3.927   1.016   2.626  0.1017 -0.3939 -0.3100
 4579SOL     OW18087   5.143   5.998   3.621  0.0551  0.2675 -0.1441
 4579SOL    HW218088   5.121   5.908   3.596  0.7932  0.2612 -0.7901
 4579SOL    HW318089   5.073   6.051   3.582 -1.2982 -0.1419  1.5876
 4579SOL    MW418090   5.131   5.993   3.612 -0.0260  0.2127 -0.0009
 4580SOL     OW18091   6.352   1.814   3.295  0.6326 -0.0088 -0.0697
 4580SOL    HW218092   6.367   1.782   3.384 -0.4858  0.2317  0.2164
 4580SOL    HW318093   6.376   1.740   3.238  0.0059 -0.6626  0.4973
 4580SOL    MW418094   6.357   1.800   3.299  0.4024 -0.0633  0.0429
 4581SOL     OW18095   1.602   0.693   5.480  0.1303 -0.3797  0.0020
 4581SOL    HW218096   1.563   0.776   5.508  0.4434 -0.2330  0.0162
 4581SOL    HW318097   1.636   0.655   5.561  1.4411  0.2595 -0.2163
 4581SOL    MW418098   1.601   0.699   5.495  0.3445 -0.2760 -0.0249
 4582SOL     OW18099   6.211   1.006   6.236  0.2532 -0.1466  0.5201
 4582SOL    HW218100   6.287   0.955   6.207  0.1623  0.6693 -1.3383
 4582SOL    HW318101   6.170   1.036   6.154 -0.2761  2.0334  1.4971
 4582SOL    MW418102   6.215   1.003   6.221  0.1714  0.2487  0.4038
 4583SOL     OW18103   1.966   0.278   5.968  0.1150  0.3992  0.1453
 4583SOL    HW218104   2.008   0.303   6.051  0.1848  1.4020 -0.1761
 4583SOL    HW318105   2.037   0.241   5.916 -0.0831 -0.9523  0.8017
 4583SOL    MW418106   1.981   0.277   5.972  0.0980  0.3532  0.1895
 4584SOL     OW18107   2.961   6.065   4.631  0.2244 -0.1757  0.0830
 4584SOL    HW218108   3.054   6.044   4.646  0.4627 -0.2155 -1.3153
 4584SOL    HW318109   2.939   6.018   4.551 -0.5465  1.1997 -0.5330
 4584SOL    MW418110   2.971   6.056   4.623  0.1541  0.0006 -0.1828
 4585SOL     OW18111   3.796   3.570   5.957  0.2034  0.5555 -0.1767
 4585SOL    HW218112   3.882   3.581   5.916 -0.5116  0.2238 -1.8563
 4585SOL    HW318113   3.792   3.477   5.980 -0.3417  0.1429 -1.7496
 4585SOL    MW418114   3.807   3.559   5.955  0.0372  0.4573 -0.6058
 4586SOL     OW18115   1.942   4.720   1.923 -0.2132 -0.5296  0.1964
 4586SOL    HW218116   1.897   4.658   1.866 -0.6786  0.4757 -0.5751
 4586SOL    HW318117   1.876   4.787   1.942  0.2292 -0.3368  1.1103
 4586SOL    MW418118   1.927   4.721   1.918 -0.2162 -0.3715  0.2152
 4587SOL     OW18119   0.150   0.187   1.863  0.3198 -0.3029  0.6179
 4587SOL    HW218120   0.079   0.242   1.897  0.3090 -1.0793  1.9253
 4587SOL    HW318121   0.107   0.105   1.839  0.7040 -0.5961  0.9329
 4587SOL    MW418122   0.135   0.184   1.864  0.3691 -0.4440  0.8320
 4588SOL     OW18123   2.056   3.847   3.639 -0.7460 -0.0939  0.3635
 4588SOL    HW218124   1.988   3.890   3.691 -1.8224 -0.6362 -0.5822
 4588SOL    HW318125   2.059   3.897   3.558 -0.0281 -0.0951  0.3835
 4588SOL    MW418126   2.048   3.859   3.635 -0.7933 -0.1656  0.2413
 4589SOL     OW18127   3.317   0.327   5.569 -0.8106 -0.0581 -0.4355
 4589SOL    HW218128   3.285   0.339   5.658 -0.6328  0.3128 -0.4233
 4589SOL    HW318129   3.362   0.242   5.571 -0.3982  0.1688 -0.0584
 4589SOL    MW418130   3.319   0.317   5.581 -0.7328  0.0208 -0.3841
 4590SOL     OW18131   2.337   3.147   2.181  0.2701  0.0164  0.4181
 4590SOL    HW218132   2.384   3.100   2.111 -0.3133  0.1546 -0.0808
 4590SOL    HW318133   2.376   3.114   2.262  0.7713 -0.3582  0.0363
 4590SOL    MW418134   2.349   3.136   2.182  0.2592 -0.0148  0.3019
 4591SOL     OW18135   3.481   1.348   0.376  0.4508 -0.2827  0.1060
 4591SOL    HW218136   3.408   1.292   0.402 -0.5886  0.4052 -1.2318
 4591SOL    HW318137   3.441   1.432   0.354  1.9354  0.8747  1.6350
 4591SOL    MW418138   3.466   1.351   0.376  0.5095 -0.0393  0.1312
 4592SOL     OW18139   6.383   3.043   0.466 -0.6357 -0.2766  0.0725
 4592SOL    HW218140   6.409   3.085   0.384 -1.0616  0.8578  0.5029
 4592SOL    HW318141   6.434   3.087   0.533 -1.6595  0.0879  0.6197
 4592SOL    MW418142   6.393   3.054   0.464 -0.8270 -0.0788  0.2015
 4593SOL     OW18143   1.775   3.812   0.778  0.1930  0.2333 -0.2217
 4593SOL    HW218144   1.738   3.741   0.725 -0.1821 -0.8292  1.4001
 4593SOL    HW318145   1.701   3.870   0.794 -0.2838 -0.6781  1.0647
 4593SOL    MW418146   1.760   3.810   0.773  0.0806 -0.0271  0.1620
 4594SOL     OW18147   4.006   3.070   1.674 -0.1743  0.3172 -0.3053
 4594SOL    HW218148   4.065   3.048   1.746  0.5255 -0.7434 -1.1642
 4594SOL    HW318149   3.940   3.001   1.674 -0.3586  0.4914 -0.4745
 4594SOL    MW418150   4.005   3.058   1.684 -0.1063  0.2003 -0.4409
 4595SOL     OW18151   0.188   3.606   5.061 -0.0894 -0.5144  0.0171
 4595SOL    HW218152   0.190   3.510   5.059  0.6229 -0.5014 -0.2354
 4595SOL    HW318153   0.264   3.630   5.113  0.5176 -0.0631 -1.0466
 4595SOL    MW418154   0.198   3.596   5.067  0.0847 -0.4532 -0.1566
 4596SOL     OW18155   2.199   4.601   1.999  0.2121 -0.2643 -0.3927
 4596SOL    HW218156   2.245   4.685   1.990  1.4799 -0.7783  0.9173
 4596SOL    HW318157   2.110   4.619   1.968  0.3619  1.6622  0.1390
 4596SOL    MW418158   2.193   4.615   1.994  0.3991 -0.0779 -0.1497
 4597SOL     OW18159   4.909   4.475   3.376 -0.0598  0.0761 -0.3545
 4597SOL    HW218160   4.965   4.531   3.430  0.1295 -1.1559  0.8006
 4597SOL    HW318161   4.906   4.392   3.424 -1.5603 -0.4106 -1.2276
 4597SOL    MW418162   4.916   4.471   3.390 -0.2328 -0.1507 -0.3173
 4598SOL     OW18163   5.230   4.256   3.862 -0.0716  0.4836  0.7079
 4598SOL    HW218164   5.218   4.299   3.777  3.2314 -0.9476 -0.6200
 4598SOL    HW318165   5.299   4.306   3.905  1.1174 -1.1492  0.7817
 4598SOL    MW418166   5.237   4.269   3.857  0.5211  0.0793  0.5424
 4599SOL     OW18167   5.364   3.971   3.146  0.0988 -0.0970  0.0038
 4599SOL    HW218168   5.439   4.028   3.132 -0.7092  0.6678 -1.4972
 4599SOL    HW318169   5.395   3.884   3.120  0.1098  0.4544 -2.0677
 4599SOL    MW418170   5.378   3.967   3.140 -0.0063  0.0766 -0.4675
 4600SOL     OW18171   4.084   6.119   3.008  0.4346  0.0063 -0.3323
 4600SOL    HW218172   4.140   6.175   3.061 -0.8351  0.8962  0.1186
 4600SOL    HW318173   4.037   6.065   3.071 -0.7497  0.7578 -0.5214
 4600SOL    MW418174   4.085   6.120   3.023  0.1109  0.2228 -0.2977
 4601SOL     OW18175   1.944   4.046   0.060 -0.6549  0.4820  0.1671
 4601SOL    HW218176   1.964   4.025   0.151  1.0748 -0.6197 -0.4243
 4601SOL    HW318177   1.922   3.962   0.020 -1.2779  0.9389 -0.4831
 4601SOL    MW418178   1.943   4.033   0.067 -0.5089  0.3969  0.0033
 4602SOL     OW18179   4.392   5.756   4.297  0.2069  0.5403 -0.0127
 4602SOL    HW218180   4.316   5.717   4.341 -0.1542  0.0381 -1.0506
 4602SOL    HW318181   4.394   5.714   4.211  2.5507 -0.5796  0.5174
 4602SOL    MW418182   4.382   5.745   4.292  0.4685  0.3263 -0.0797
 4603SOL     OW18183   2.063   1.402   4.224  0.1917  0.6508 -0.6705
 4603SOL    HW218184   2.058   1.329   4.286 -0.5793 -1.1599 -2.7525
 4603SOL    HW318185   2.157   1.419   4.214  0.4339 -0.7609 -0.9298
 4603SOL    MW418186   2.075   1.395   4.231  0.1219  0.2256 -0.9794
 4604SOL     OW18187   1.004   2.553   0.840 -0.0316 -0.0174 -0.4621
 4604SOL    HW218188   1.037   2.595   0.920 -1.3641 -1.3694  0.8771
 4604SOL    HW318189   1.070   2.487   0.818  1.5514  1.9524 -1.9696
 4604SOL    MW418190   1.017   2.550   0.848  0.0015  0.0641 -0.4843
 4605SOL     OW18191   3.232   4.690   0.806 -0.2768 -0.5914 -0.2934
 4605SOL    HW218192   3.220   4.748   0.881 -0.0760 -1.2212  0.2384
 4605SOL    HW318193   3.224   4.747   0.730  0.6971  0.2807  0.2315
 4605SOL    MW418194   3.230   4.705   0.806 -0.1218 -0.5594 -0.1540
 4606SOL     OW18195   1.713   1.458   2.096 -0.0417  0.4030  0.5242
 4606SOL    HW218196   1.741   1.367   2.106 -0.2213  0.1102 -1.2592
 4606SOL    HW318197   1.618   1.455   2.108  0.0534  0.5075  1.3258
 4606SOL    MW418198   1.704   1.445   2.099 -0.0528  0.3781  0.3946
 4607SOL     OW18199   6.405   6.039   4.163 -0.2404 -0.4615 -0.5423
 4607SOL    HW218200   6.498   6.022   4.178  0.0482  1.9391  0.7806
 4607SOL    HW318201   6.381   5.977   4.093  2.3770 -0.9844 -1.0966
 4607SOL    MW418202   6.414   6.029   4.156  0.1430 -0.2138 -0.4409
 4608SOL     OW18203   2.528   2.209   0.493 -0.2747 -0.2773 -0.4422
 4608SOL    HW218204   2.526   2.294   0.537  1.5192 -1.1735  1.5382
 4608SOL    HW318205   2.446   2.167   0.518 -0.5073  0.3039 -0.2175
 4608SOL    MW418206   2.517   2.214   0.502 -0.0687 -0.3188 -0.1513
 4609SOL     OW18207   4.573   6.434   4.554  0.0133  0.3348  0.2062
 4609SOL    HW218208   4.666   6.456   4.545  0.9470 -2.5849  1.5937
 4609SOL    HW318209   4.550   6.389   4.473 -0.0362  0.5656  0.0917
 4609SOL    MW418210   4.582   6.431   4.542  0.1299 -0.0200  0.3742
 4610SOL     OW18211   2.595   3.029   3.324  0.3296 -0.6211 -0.0305
 4610SOL    HW218212   2.521   2.997   3.273  0.3721 -0.4638 -0.1909
 4610SOL    HW318213   2.586   3.124   3.323 -1.0136 -0.6568  2.2405
 4610SOL    MW418214   2.584   3.037   3.317  0.1580 -0.6051  0.2479
 4611SOL     OW18215   4.383   0.548   0.595 -0.4515  0.6563  0.1227
 4611SOL    HW218216   4.415   0.636   0.577 -0.5179  0.4497 -1.0494
 4611SOL    HW318217   4.458   0.491   0.579 -0.4938  0.4649  0.5820
 4611SOL    MW418218   4.397   0.552   0.591 -0.4658  0.6038  0.0286
 4612SOL     OW18219   2.055   3.487   2.773 -0.2159 -0.1219  0.0959
 4612SOL    HW218220   2.067   3.394   2.755  0.6487 -0.1345  0.6855
 4612SOL    HW318221   2.045   3.492   2.868  2.0892  0.5977  0.3545
 4612SOL    MW418222   2.055   3.476   2.783  0.2023 -0.0287  0.2078
 4613SOL     OW18223   4.749   0.962   0.210 -0.1415 -0.1446  0.0248
 4613SOL    HW218224   4.773   1.015   0.286 -2.4615  0.3402  0.5125
 4613SOL    HW318225   4.753   1.022   0.136 -1.5094  0.4485  0.3854
 4613SOL    MW418226   4.752   0.977   0.210 -0.6281 -0.0024  0.1367
 4614SOL     OW18227   5.669   0.383   5.554  0.0618 -0.3042  0.0506
 4614SOL    HW218228   5.642   0.472   5.575  1.0887 -0.0692  0.4027
 4614SOL    HW318229   5.724   0.356   5.627  1.1460 -0.6071 -0.8373
 4614SOL    MW418230   5.673   0.391   5.566  0.3403 -0.3132 -0.0201
 4615SOL     OW18231   1.635   4.989   4.291 -0.2460  0.2593  0.1729
 4615SOL    HW218232   1.729   4.971   4.293 -0.4304 -0.7630  0.5515
 4615SOL    HW318233   1.618   5.036   4.373  0.1200  1.5024 -0.4509
 4615SOL    MW418234   1.645   4.993   4.302 -0.2220  0.2885  0.1405
 4616SOL     OW18235   2.076   3.429   5.865  1.0078  0.4869  1.0563
 4616SOL    HW218236   1.988   3.467   5.854  1.1494  0.6799  0.5359
 4616SOL    HW318237   2.063   3.335   5.856  0.8042  0.4884  1.3240
 4616SOL    MW418238   2.062   3.422   5.862  0.9997  0.5126  1.0229
 4617SOL     OW18239   4.714   5.771   2.981 -0.0436 -0.1134 -0.0180
 4617SOL    HW218240   4.696   5.744   2.890  1.2153  0.7459 -0.5478
 4617SOL    HW318241   4.709   5.867   2.979  2.7122  0.0940  0.1627
 4617SOL    MW418242   4.711   5.780   2.968  0.4861  0.0273 -0.0640
 4618SOL     OW18243   1.628   0.159   3.874 -0.5673  0.0839  0.0822
 4618SOL    HW218244   1.692   0.167   3.944 -1.5969  2.2116  0.8648
 4618SOL    HW318245   1.616   0.064   3.863  1.2844 -0.3330  1.1747
 4618SOL    MW418246   1.635   0.147   3.882 -0.4588  0.3097  0.3296
 4619SOL     OW18247   2.090   1.158   3.319 -0.0155 -0.1018 -0.4134
 4619SOL    HW218248   2.180   1.146   3.351 -0.3574 -0.4995  0.4071
 4619SOL    HW318249   2.100   1.165   3.224  0.7726 -1.3609 -0.4485
 4619SOL    MW418250   2.104   1.158   3.310  0.0434 -0.3204 -0.3098
 4620SOL     OW18251   2.007   0.567   5.264 -0.6018 -0.6018  0.0630
 4620SOL    HW218252   2.050   0.612   5.337 -0.9998  0.8646 -0.5863
 4620SOL    HW318253   1.940   0.513   5.306 -0.2206 -0.4948  0.8409
 4620SOL    MW418254   2.004   0.566   5.279 -0.6040 -0.3942  0.0799
 4621SOL     OW18255   1.467   1.568   1.620  0.3126 -0.1690  0.8326
 4621SOL    HW218256   1.548   1.528   1.589  0.3410 -0.9476  1.8564
 4621SOL    HW318257   1.420   1.497   1.663 -1.0037  0.2311  0.1183
 4621SOL    MW418258   1.471   1.554   1.621  0.1427 -0.2189  0.8734
 4622SOL     OW18259   1.302   1.335   6.337  0.1586 -0.5125  0.1254
 4622SOL    HW218260   1.299   1.419   6.292  1.7764 -0.4844 -0.0051
 4622SOL    HW318261   1.210   1.309   6.348 -0.3165  0.2676 -1.6843
 4622SOL    MW418262   1.289   1.342   6.332  0.3094 -0.4059 -0.1306
 4623SOL     OW18263   3.862   1.362   4.522  1.2895 -0.0961  0.6104
 4623SOL    HW218264   3.806   1.412   4.582  1.4316 -0.0227  0.6825
 4623SOL    HW318265   3.927   1.426   4.492  1.1199 -0.0891  0.2502
 4623SOL    MW418266   3.863   1.377   4.526  1.2859 -0.0855  0.5724
 4624SOL     OW18267   4.050   5.295   0.376 -0.1216  0.2758 -0.1025
 4624SOL    HW218268   4.094   5.379   0.388 -0.5125  0.6107 -0.9732
 4624SOL    HW318269   4.038   5.262   0.465  0.1914  1.0547  0.2405
 4624SOL    MW418270   4.054   5.301   0.389 -0.1319  0.4228 -0.1721
 4625SOL     OW18271   4.620   2.248   3.023 -0.9171  0.2360 -0.5050
 4625SOL    HW218272   4.573   2.326   2.993 -1.6923 -0.5004 -1.2614
 4625SOL    HW318273   4.560   2.176   3.004  0.0138 -0.5992 -0.3073
 4625SOL    MW418274   4.606   2.249   3.017 -0.8965  0.0287 -0.5787
 4626SOL     OW18275   4.838   1.703   0.899 -0.1590  0.2015 -0.0373
 4626SOL    HW218276   4.817   1.759   0.974 -0.3745  0.2551 -0.1389
 4626SOL    HW318277   4.759   1.650   0.886  0.4229 -0.8871  0.7423
 4626SOL    MW418278   4.825   1.703   0.907 -0.1107  0.0649  0.0521
 4627SOL     OW18279   2.008   4.401   5.728 -0.1914 -1.0711  0.5814
 4627SOL    HW218280   1.949   4.461   5.774  2.3776  0.6347  1.9637
 4627SOL    HW318281   2.075   4.378   5.793  1.6708 -1.4045 -1.3089
 4627SOL    MW418282   2.009   4.406   5.742  0.3933 -0.8900  0.5144
 4628SOL     OW18283   4.079   4.158   4.730  0.4197  0.1498 -0.1090
 4628SOL    HW218284   4.077   4.112   4.814  0.4557 -1.7413 -1.0906
 4628SOL    HW318285   4.104   4.091   4.666  0.4731  1.5491 -1.6366
 4628SOL    MW418286   4.082   4.143   4.733  0.4315  0.0849 -0.4401
 4629SOL     OW18287   1.356   1.098   5.818 -0.4197  0.4868 -0.2276
 4629SOL    HW218288   1.294   1.167   5.843 -0.4441  0.4593 -0.2131
 4629SOL    HW318289   1.374   1.115   5.725 -1.3692 -0.2206 -0.5530
 4629SOL    MW418290   1.350   1.110   5.809 -0.5482  0.3898 -0.2686
 4630SOL     OW18291   3.094   5.371   2.611  0.0609  0.3182 -0.0094
 4630SOL    HW218292   3.151   5.305   2.572  0.0301 -0.3974  1.1075
 4630SOL    HW318293   3.154   5.434   2.650  0.0881  0.2673  0.0312
 4630SOL    MW418294   3.110   5.371   2.611  0.0604  0.2171  0.1433
 4631SOL     OW18295   1.575   0.262   4.382 -0.1473  0.0971  0.0833
 4631SOL    HW218296   1.500   0.205   4.395  0.5118 -0.9411 -0.5636
 4631SOL    HW318297   1.622   0.261   4.466  0.4794 -1.2493 -0.2580
 4631SOL    MW418298   1.571   0.255   4.395  0.0223 -0.2175 -0.0471
 4632SOL     OW18299   4.234   4.278   0.163 -0.3302 -0.6061 -0.1725
 4632SOL    HW218300   4.321   4.263   0.202 -0.6919 -2.0435  0.1047
 4632SOL    HW318301   4.247   4.265   0.069 -0.1949 -0.5557 -0.1614
 4632SOL    MW418302   4.247   4.274   0.156 -0.3600 -0.7891 -0.1344
 4633SOL     OW18303   3.944   1.321   2.960 -0.3251 -0.0499 -0.0006
 4633SOL    HW218304   3.877   1.372   2.914  0.6240  0.0621 -1.2969
 4633SOL    HW318305   3.894   1.260   3.015 -1.4772  0.7262 -0.1628
 4633SOL    MW418306   3.928   1.319   2.962 -0.3519  0.0672 -0.1930
 4634SOL     OW18307   3.137   0.613   5.815  0.7504  0.6321 -0.7854
 4634SOL    HW218308   3.072   0.633   5.882 -0.1021 -0.5744 -1.2149
 4634SOL    HW318309   3.168   0.525   5.836  1.1876  0.6229 -1.4174
 4634SOL    MW418310   3.132   0.604   5.827  0.6956  0.4717 -0.9255
 4635SOL     OW18311   6.377   4.184   2.731 -0.2191 -0.2535 -0.2869
 4635SOL    HW218312   6.402   4.190   2.639  1.5559  1.5894  0.2194
 4635SOL    HW318313   6.288   4.219   2.734 -0.1090  0.1461 -1.2420
 4635SOL    MW418314   6.368   4.190   2.719  0.0296  0.0424 -0.3461
 4636SOL     OW18315   4.080   3.656   4.435 -0.1824 -0.3847  0.1226
 4636SOL    HW218316   4.095   3.567   4.401 -1.1669 -0.3256 -0.5108
 4636SOL    HW318317   4.154   3.672   4.494  0.2193 -1.4728 -0.0600
 4636SOL    MW418318   4.092   3.646   4.438 -0.2593 -0.5204  0.0149
 4637SOL     OW18319   0.281   5.902   2.484 -0.0489  0.2570 -0.0589
 4637SOL    HW218320   0.338   5.928   2.557  0.2214 -1.2187  0.2813
 4637SOL    HW318321   0.216   5.845   2.524  0.0589 -0.5076 -0.9491
 4637SOL    MW418322   0.280   5.898   2.499  0.0010 -0.0386 -0.1315
 4638SOL     OW18323   1.129   1.997   0.655 -0.7100  0.0680 -0.2635
 4638SOL    HW218324   1.162   1.950   0.731  0.2494 -0.9640 -1.2780
 4638SOL    HW318325   1.186   1.969   0.583 -2.4304 -0.0441 -1.6419
 4638SOL    MW418326   1.141   1.987   0.656 -0.8104 -0.0829 -0.5792
 4639SOL     OW18327   3.187   3.688   1.929  0.1875  0.4345 -0.8027
 4639SOL    HW218328   3.170   3.603   1.889  0.9897  0.6254 -1.5935
 4639SOL    HW318329   3.114   3.702   1.988  1.3432 -2.0217  1.4338
 4639SOL    MW418330   3.175   3.679   1.931  0.4459  0.1357 -0.6119
 4640SOL     OW18331   3.993   1.560   2.589 -0.4574  0.3024 -0.3901
 4640SOL    HW218332   3.956   1.530   2.672  0.1563  0.5148 -0.0417
 4640SOL    HW318333   3.956   1.499   2.524 -2.0156  0.9561 -0.1662
 4640SOL    MW418334   3.983   1.548   2.591 -0.5820  0.4167 -0.3146
 4641SOL     OW18335   0.020   3.990   3.475 -0.6765 -0.2282  0.7056
 4641SOL    HW218336   0.099   4.003   3.423 -1.8670 -1.5803 -1.5584
 4641SOL    HW318337  -0.030   4.071   3.463 -0.8183 -0.4236 -0.0424
 4641SOL    MW418338   0.024   4.002   3.467 -0.8522 -0.4324  0.3082
 4642SOL     OW18339   4.644   5.291   0.527 -0.1246 -0.8329 -0.4860
 4642SOL    HW218340   4.552   5.279   0.504 -0.3210 -0.2441 -0.0352
 4642SOL    HW318341   4.642   5.330   0.614  0.5763 -1.7871 -0.0367
 4642SOL    MW418342   4.632   5.295   0.535 -0.0581 -0.8811 -0.3672
 4643SOL     OW18343   4.739   0.191   5.148 -0.3368 -0.4976 -0.3116
 4643SOL    HW218344   4.674   0.146   5.203 -0.2844 -1.1441 -0.7701
 4643SOL    HW318345   4.787   0.247   5.209 -1.4670  0.1723  0.0030
 4643SOL    MW418346   4.737   0.193   5.163 -0.4790 -0.4945 -0.3306
 4644SOL     OW18347   5.479   1.554   2.062  0.4684  0.6605  0.2820
 4644SOL    HW218348   5.458   1.498   2.137  1.0848 -0.1771 -0.1593
 4644SOL    HW318349   5.529   1.498   2.003 -0.7821  1.0343 -1.1882
 4644SOL    MW418350   5.483   1.539   2.064  0.3847  0.5993  0.0298
 4645SOL     OW18351   5.693   4.201   6.242 -0.2261 -0.4306  0.1669
 4645SOL    HW218352   5.749   4.132   6.206 -0.6771 -0.6683 -0.0872
 4645SOL    HW318353   5.636   4.156   6.304 -0.3708 -0.2489  0.1665
 4645SOL    MW418354   5.693   4.186   6.245 -0.3047 -0.4380  0.1333
 4646SOL     OW18355   6.302   2.817   2.474 -0.0361  0.2261 -0.3085
 4646SOL    HW218356   6.251   2.785   2.549 -1.4505 -1.9319 -2.0464
 4646SOL    HW318357   6.279   2.757   2.403  2.5386  1.1542 -2.0576
 4646SOL    MW418358   6.292   2.805   2.475  0.1170  0.0638 -0.7686
 4647SOL     OW18359   4.303   0.459   5.451 -0.6760 -0.1010 -0.3960
 4647SOL    HW218360   4.254   0.384   5.420  0.1202 -0.2610 -1.2898
 4647SOL    HW318361   4.250   0.494   5.523  0.7437 -3.8095  2.8195
 4647SOL    MW418362   4.289   0.454   5.457 -0.3837 -0.6114 -0.0896
 4648SOL     OW18363   3.147   4.843   2.483  0.1039  0.4742 -0.3148
 4648SOL    HW218364   3.183   4.900   2.415  1.3495 -1.2639 -1.1774
 4648SOL    HW318365   3.063   4.883   2.506  0.5002  2.1044 -1.5517
 4648SOL    MW418366   3.141   4.856   2.477  0.3205  0.4600 -0.5918
 4649SOL     OW18367   0.804   6.122   3.504 -0.2744  0.1076 -0.0449
 4649SOL    HW218368   0.872   6.117   3.570 -0.3711 -0.0448  0.0436
 4649SOL    HW318369   0.722   6.127   3.554 -0.3923 -0.6321 -0.1537
 4649SOL    MW418370   0.802   6.122   3.519 -0.3027 -0.0101 -0.0476
 4650SOL     OW18371   2.766   5.025   2.243  0.3594  0.4006 -1.2611
 4650SOL    HW218372   2.783   4.937   2.278 -2.5055 -0.1327 -0.9852
 4650SOL    HW318373   2.834   5.080   2.283  0.4522 -1.1609  0.9552
 4650SOL    MW418374   2.777   5.020   2.253 -0.0063  0.1242 -0.9323
 4651SOL     OW18375   5.867   3.526   2.738  0.3194  0.4161  0.3531
 4651SOL    HW218376   5.835   3.548   2.650  1.3487  1.3241  0.1806
 4651SOL    HW318377   5.938   3.588   2.753  0.3514  0.0689  1.7171
 4651SOL    MW418378   5.872   3.537   2.728  0.4595  0.4901  0.5103
 4652SOL     OW18379   1.646   1.802   1.920  0.7460  0.5542 -0.3225
 4652SOL    HW218380   1.710   1.733   1.902  0.8130 -0.6755  3.6789
 4652SOL    HW318381   1.700   1.878   1.942  0.7645  0.4422  0.0173
 4652SOL    MW418382   1.662   1.803   1.920  0.7573  0.3772  0.2503
 4653SOL     OW18383   5.053   3.383   6.194  0.1433 -0.0653 -0.0875
 4653SOL    HW218384   5.089   3.379   6.105  0.6105  1.4414 -0.0039
 4653SOL    HW318385   5.124   3.350   6.249  0.0544 -0.4994 -0.2325
 4653SOL    MW418386   5.067   3.378   6.189  0.1932  0.0763 -0.0956
 4654SOL     OW18387   4.913   4.390   6.103 -0.2683 -0.2821  0.3716
 4654SOL    HW218388   4.981   4.326   6.124 -0.0959 -0.3201 -0.2778
 4654SOL    HW318389   4.911   4.449   6.179  0.8198  0.0032  0.1929
 4654SOL    MW418390   4.922   4.389   6.116 -0.1020 -0.2495  0.2623
 4655SOL     OW18391   6.245   1.603   0.824 -0.0573 -0.1411  0.2374
 4655SOL    HW218392   6.316   1.600   0.888  1.9440  0.3550 -1.8179
 4655SOL    HW318393   6.219   1.695   0.822  0.5131  0.0205 -0.2564
 4655SOL    MW418394   6.251   1.614   0.832  0.2820 -0.0543 -0.0989
 4656SOL     OW18395   0.892   0.462   1.835 -0.5450 -0.2680 -0.3295
 4656SOL    HW218396   0.859   0.413   1.759 -0.4145  0.4449 -0.8574
 4656SOL    HW318397   0.825   0.527   1.852 -1.4179 -1.5319  1.2991
 4656SOL    MW418398   0.879   0.464   1.827 -0.6429 -0.3407 -0.1842
 4657SOL     OW18399   2.054   6.228   3.483 -0.3881  0.3057  0.3130
 4657SOL    HW218400   2.019   6.256   3.398 -0.9919  0.2161  0.5300
 4657SOL    HW318401   2.091   6.141   3.466  1.9613  1.3829 -0.4843
 4657SOL    MW418402   2.054   6.220   3.469 -0.1578  0.4360  0.2365
 4658SOL     OW18403   1.717   1.787   5.454  0.3126 -0.5384 -0.1961
 4658SOL    HW218404   1.786   1.850   5.435  2.1686 -2.6216 -0.6834
 4658SOL    HW318405   1.656   1.835   5.511  2.3262  1.2776  0.5573
 4658SOL    MW418406   1.718   1.802   5.459  0.8231 -0.5737 -0.1610
 4659SOL     OW18407   2.206   0.020   3.559 -0.2727 -0.1703 -0.1725
 4659SOL    HW218408   2.156  -0.057   3.530 -0.0057 -0.5562  0.3593
 4659SOL    HW318409   2.222   0.003   3.652  0.7958 -0.0271 -0.3215
 4659SOL    MW418410   2.201   0.007   3.568 -0.0965 -0.2024 -0.1220
 4660SOL     OW18411   6.340   4.532   6.186 -0.8466 -0.0802 -0.2619
 4660SOL    HW218412   6.414   4.591   6.169 -0.9885 -0.2831 -1.6660
 4660SOL    HW318413   6.369   4.479   6.260  1.0714 -1.1888 -1.7280
 4660SOL    MW418414   6.354   4.533   6.194 -0.6123 -0.2532 -0.6406
 4661SOL     OW18415   2.940   2.630   0.439 -0.3136 -0.0477 -0.4577
 4661SOL    HW218416   3.021   2.652   0.393 -0.3314  0.9898 -0.0384
 4661SOL    HW318417   2.916   2.711   0.484  0.5778 -1.3478  2.6901
 4661SOL    MW418418   2.947   2.644   0.439 -0.1983 -0.0824  0.0129
 4662SOL     OW18419   4.906   1.788   6.299  0.0808 -0.2805  0.0990
 4662SOL    HW218420   4.906   1.693   6.306  1.6480 -0.1975  2.2262
 4662SOL    HW318421   4.840   1.817   6.363  2.1014  0.0957  2.1157
 4662SOL    MW418422   4.897   1.780   6.309  0.5542 -0.2199  0.6457
 4663SOL     OW18423   4.709   3.963   4.676 -0.3806  0.0541  0.0384
 4663SOL    HW218424   4.786   3.925   4.719 -1.1000 -0.0636  1.2594
 4663SOL    HW318425   4.683   4.035   4.733 -0.4807  0.8604 -0.9929
 4663SOL    MW418426   4.716   3.967   4.689 -0.4888  0.1450  0.0634
 4664SOL     OW18427   4.749   1.399   2.792 -0.4664 -0.0497  0.1761
 4664SOL    HW218428   4.709   1.382   2.877 -2.6695 -0.5171 -0.8966
 4664SOL    HW318429   4.687   1.457   2.747  1.6688  2.0120 -0.3619
 4664SOL    MW418430   4.736   1.405   2.797 -0.4754  0.1606 -0.0364
 4665SOL     OW18431   2.730   5.982   3.550 -0.0546 -0.2501  0.2223
 4665SOL    HW218432   2.782   5.937   3.616  1.7566 -0.6902 -1.3992
 4665SOL    HW318433   2.673   6.040   3.599 -0.5669 -2.3506  2.2653
 4665SOL    MW418434   2.729   5.983   3.565  0.1168 -0.5853  0.2779
 4666SOL     OW18435   6.276   4.151   5.450 -0.1709 -0.7635 -0.4030
 4666SOL    HW218436   6.254   4.058   5.438 -0.7438 -0.6129 -0.5306
 4666SOL    HW318437   6.252   4.192   5.367 -2.4480 -0.0353  0.5416
 4666SOL    MW418438   6.270   4.144   5.437 -0.5469 -0.6475 -0.2952
 4667SOL     OW18439   0.577   2.776   4.331 -0.0790  0.1817  0.2462
 4667SOL    HW218440   0.565   2.865   4.364  0.3771 -0.4257  2.1686
 4667SOL    HW318441   0.664   2.751   4.360 -0.7626 -1.4115  1.0133
 4667SOL    MW418442   0.587   2.784   4.339 -0.1090 -0.1086  0.6011
 4668SOL     OW18443   3.994   3.946   5.204 -0.0247  0.4125  0.3922
 4668SOL    HW218444   3.991   3.947   5.299 -3.4488 -1.5525  0.4577
 4668SOL    HW318445   4.000   3.853   5.181 -1.7638  0.6315 -1.2333
 4668SOL    MW418446   3.995   3.934   5.213 -0.7059  0.1821  0.1864
 4669SOL     OW18447   0.800   4.419   0.287  0.3578 -0.1880  0.0284
 4669SOL    HW218448   0.845   4.457   0.363  0.3736  0.7309 -0.4286
 4669SOL    HW318449   0.715   4.392   0.320  0.1477  0.7348  0.2536
 4669SOL    MW418450   0.795   4.420   0.301  0.3322  0.0550 -0.0022
 4670SOL     OW18451   2.997   4.273   1.707  0.0665 -0.0690  0.2663
 4670SOL    HW218452   2.953   4.352   1.738 -0.9972 -1.2764  2.0207
 4670SOL    HW318453   2.999   4.283   1.612  0.9380  2.5328  0.4674
 4670SOL    MW418454   2.991   4.285   1.699  0.0411  0.1150  0.5243
 4671SOL     OW18455   2.349   3.812   2.674  0.2813 -0.3689 -0.3417
 4671SOL    HW218456   2.387   3.763   2.602  0.8651  2.2609 -1.9632
 4671SOL    HW318457   2.256   3.820   2.652 -0.1531 -2.0028  0.7398
 4671SOL    MW418458   2.342   3.807   2.662  0.3010 -0.2375 -0.4129
 4672SOL     OW18459   1.901   2.636   1.133 -0.8084  0.3098  0.2667
 4672SOL    HW218460   1.927   2.710   1.188 -0.7237 -1.2241  2.3766
 4672SOL    HW318461   1.819   2.605   1.172  0.0955 -1.8206  0.5739
 4672SOL    MW418462   1.893   2.642   1.145 -0.6779 -0.1737  0.5856
 4673SOL     OW18463   3.003   1.997   5.100 -0.0761 -0.2237  0.2870
 4673SOL    HW218464   3.044   1.966   5.180 -0.9486 -0.9250  0.4788
 4673SOL    HW318465   3.044   2.082   5.083  1.4750 -0.9031  0.4252
 4673SOL    MW418466   3.014   2.004   5.108  0.0134 -0.4058  0.3305
 4674SOL     OW18467   2.968   2.795   2.894  0.5644 -0.3252  0.4118
 4674SOL    HW218468   3.054   2.832   2.876 -0.1438  1.0140 -0.4047
 4674SOL    HW318469   2.982   2.736   2.968  1.9097  1.0416  1.3203
 4674SOL    MW418470   2.981   2.792   2.902  0.6484  0.0318  0.4239
 4675SOL     OW18471   5.929   4.771   5.957 -0.3660  0.5471  0.2090
 4675SOL    HW218472   6.006   4.716   5.968 -0.0407  1.0407  0.4364
 4675SOL    HW318473   5.937   4.807   5.868 -1.4266 -1.0431 -0.5874
 4675SOL    MW418474   5.940   4.769   5.946 -0.4630  0.4024  0.1339
 4676SOL     OW18475   1.016   0.353   1.019  0.5028  0.3025 -0.7097
 4676SOL    HW218476   1.098   0.332   1.062  1.1361  1.5080 -1.2665
 4676SOL    HW318477   1.023   0.446   0.998 -0.7479  0.2864 -1.3196
 4676SOL    MW418478   1.028   0.363   1.022  0.4213  0.4594 -0.8637
 4677SOL     OW18479   3.944   0.937   5.286  0.0703 -0.3047  0.0953
 4677SOL    HW218480   4.029   0.980   5.279  0.4265 -1.1644 -1.1806
 4677SOL    HW318481   3.940   0.906   5.377  1.1588 -0.3157  0.1477
 4677SOL    MW418482   3.955   0.938   5.297  0.2609 -0.4195 -0.0661
 4678SOL     OW18483   1.253   0.780   4.765  0.1741  0.1056 -0.0010
 4678SOL    HW218484   1.257   0.800   4.859  0.3782  1.8555 -0.3664
 4678SOL    HW318485   1.344   0.765   4.740  0.4501  2.2650 -0.4370
 4678SOL    MW418486   1.265   0.780   4.774  0.2375  0.6214 -0.1068
 4679SOL     OW18487   5.048   1.764   2.144  0.0405 -0.0292 -0.2524
 4679SOL    HW218488   5.050   1.858   2.162  0.9665  0.0281 -0.5779
 4679SOL    HW318489   4.970   1.732   2.190 -0.4498  0.9401 -0.3715
 4679SOL    MW418490   5.038   1.772   2.152  0.0980  0.1062 -0.3111
 4680SOL     OW18491   0.227   6.328   5.753  0.0399  0.3052  0.1907
 4680SOL    HW218492   0.232   6.291   5.841 -0.1077 -0.6952 -0.2106
 4680SOL    HW318493   0.318   6.331   5.723  0.1432  1.1347  0.5653
 4680SOL    MW418494   0.240   6.324   5.760  0.0340  0.2827  0.1872
 4681SOL     OW18495   2.926   5.370   0.814  0.0671  0.5406  0.1834
 4681SOL    HW218496   2.998   5.371   0.751  1.2478  1.0501  1.4709
 4681SOL    HW318497   2.858   5.317   0.772  1.3274 -0.2663 -0.9372
 4681SOL    MW418498   2.926   5.363   0.800  0.3891  0.5014  0.2054
 4682SOL     OW18499   4.988   4.323   5.062  0.3269 -0.1895  0.4922
 4682SOL    HW218500   5.004   4.394   5.001 -1.2707  1.3095  1.7192
 4682SOL    HW318501   5.004   4.243   5.012  1.9006  1.0044 -1.0002
 4682SOL    MW418502   4.992   4.322   5.048  0.3237  0.1658  0.4572
 4683SOL     OW18503   0.066   1.930   0.855  0.3301 -0.2612  0.0499
 4683SOL    HW218504   0.073   1.927   0.950  1.3615 -0.5351 -0.0250
 4683SOL    HW318505  -0.028   1.927   0.838  0.0494  1.4638  1.1011
 4683SOL    MW418506   0.055   1.929   0.865  0.4292 -0.0697  0.1787
 4684SOL     OW18507   3.449   1.232   2.703  0.4186 -0.2475  0.1805
 4684SOL    HW218508   3.502   1.188   2.636  0.5537  0.9060 -0.4937
 4684SOL    HW318509   3.363   1.242   2.663  0.6680  1.0060 -0.0901
 4684SOL    MW418510   3.445   1.227   2.689  0.4693  0.0701  0.0558
 4685SOL     OW18511   4.278   2.545   3.432  0.0956  0.3120  0.4189
 4685SOL    HW218512   4.243   2.456   3.429  0.8834  0.0090 -0.2071
 4685SOL    HW318513   4.276   2.569   3.524  0.0022 -0.4127  0.6065
 4685SOL    MW418514   4.273   2.536   3.444  0.1872  0.1764  0.3611
 4686SOL     OW18515   2.510   1.791   5.211  0.1314 -0.2278 -0.1197
 4686SOL    HW218516   2.573   1.828   5.150 -0.7108  0.8754 -0.3567
 4686SOL    HW318517   2.516   1.847   5.289  0.7585 -1.2469  0.5857
 4686SOL    MW418518   2.519   1.804   5.214  0.1030 -0.2167 -0.0579
 4687SOL     OW18519   6.201   2.715   2.713 -0.4098 -0.2559  0.3962
 4687SOL    HW218520   6.273   2.658   2.740 -0.1320  0.2909  0.8195
 4687SOL    HW318521   6.195   2.781   2.782  0.4300  1.2732 -0.9360
 4687SOL    MW418522   6.210   2.716   2.726 -0.2623  0.0180  0.2763
 4688SOL     OW18523   0.192   6.123   5.511 -0.2208 -0.4088 -0.4120
 4688SOL    HW218524   0.216   6.196   5.569 -0.3194 -0.4515 -0.3182
 4688SOL    HW318525   0.122   6.078   5.557  0.6294 -1.2615  0.0918
 4688SOL    MW418526   0.186   6.127   5.525 -0.1216 -0.5270 -0.3331
 4689SOL     OW18527   2.484   5.468   2.167  0.6582  0.6186 -0.1325
 4689SOL    HW218528   2.527   5.450   2.251  0.6358  0.1798 -0.2121
 4689SOL    HW318529   2.520   5.403   2.107  0.8344  1.0724 -0.5191
 4689SOL    MW418530   2.494   5.457   2.170  0.6785  0.6206 -0.1940
 4690SOL     OW18531   6.384   5.032   0.079 -0.0911  0.1072 -0.1177
 4690SOL    HW218532   6.465   4.980   0.078  0.0626  0.3524 -0.5114
 4690SOL    HW318533   6.349   5.024  -0.009  0.0543  0.8562 -0.2484
 4690SOL    MW418534   6.390   5.024   0.067 -0.0517  0.2384 -0.1869
 4691SOL     OW18535   2.385   2.366   4.629 -0.5025  0.1597 -0.3466
 4691SOL    HW218536   2.441   2.318   4.688 -0.0309  1.6602  0.4764
 4691SOL    HW318537   2.298   2.362   4.669 -1.1112 -2.2796 -1.6912
 4691SOL    MW418538   2.381   2.359   4.642 -0.5206  0.0359 -0.4154
 4692SOL     OW18539   1.507   6.156   2.557 -0.1864 -0.0687  0.0541
 4692SOL    HW218540   1.516   6.120   2.646 -3.3473 -1.4232 -0.0392
 4692SOL    HW318541   1.554   6.093   2.502  0.9634  0.2541  0.6193
 4692SOL    MW418542   1.515   6.143   2.562 -0.4518 -0.2048  0.1163
 4693SOL     OW18543   1.242   1.816   4.838  0.5178  0.1600  0.1971
 4693SOL    HW218544   1.262   1.846   4.750 -1.9441 -0.6406 -0.7081
 4693SOL    HW318545   1.225   1.896   4.888  2.0826  0.6251  0.0373
 4693SOL    MW418546   1.243   1.830   4.833  0.3995  0.1157  0.0566
 4694SOL     OW18547   4.297   6.360   4.162  0.6820 -0.4870 -0.4485
 4694SOL    HW218548   4.364   6.358   4.094 -0.6611  0.9658 -1.9005
 4694SOL    HW318549   4.216   6.382   4.116 -0.8697 -2.2645  1.2251
 4694SOL    MW418550   4.295   6.363   4.147  0.3000 -0.5299 -0.4193
 4695SOL     OW18551   1.851   5.152   0.957 -0.1690 -0.1445  0.5366
 4695SOL    HW218552   1.882   5.146   1.047 -1.9405 -0.4472  1.1639
 4695SOL    HW318553   1.756   5.147   0.964 -0.4533  1.5952 -1.2105
 4695SOL    MW418554   1.842   5.151   0.970 -0.4402  0.0451  0.3888
 4696SOL     OW18555   5.794   3.222   4.168 -0.0460 -0.1942  0.6121
 4696SOL    HW218556   5.742   3.280   4.224 -1.1334 -2.0567  1.6665
 4696SOL    HW318557   5.837   3.162   4.230  2.7461  0.7448 -0.3044
 4696SOL    MW418558   5.793   3.222   4.184  0.1789 -0.3160  0.6303
 4697SOL     OW18559   6.259   5.727   5.561  0.5006 -0.5853  0.1715
 4697SOL    HW218560   6.213   5.780   5.627 -0.0033 -1.1334  0.2687
 4697SOL    HW318561   6.278   5.645   5.606  0.1414 -0.9694 -0.3727
 4697SOL    MW418562   6.255   5.723   5.576  0.3867 -0.7083  0.1125
 4698SOL     OW18563   2.281   4.018   4.618 -0.3564 -0.1893  0.3470
 4698SOL    HW218564   2.355   3.957   4.624 -0.8247 -1.2470 -2.7461
 4698SOL    HW318565   2.209   3.966   4.583 -1.3440  1.7069 -0.6051
 4698SOL    MW418566   2.282   4.003   4.614 -0.5485 -0.0786 -0.1867
 4699SOL     OW18567   3.964   3.677   0.900 -0.0051  0.6949  0.0770
 4699SOL    HW218568   4.059   3.678   0.898  0.0151  2.4450 -1.6861
 4699SOL    HW318569   3.939   3.621   0.826 -0.4519 -2.0791  2.1749
 4699SOL    MW418570   3.973   3.670   0.890 -0.0614  0.5598  0.1211
 4700SOL     OW18571   1.716   4.051   0.490 -0.3680 -0.0830 -0.2840
 4700SOL    HW218572   1.782   4.041   0.558  0.1937  0.8606 -0.6733
 4700SOL    HW318573   1.644   4.097   0.534 -0.7194 -0.9815  0.1015
 4700SOL    MW418574   1.715   4.056   0.505 -0.3403 -0.0770 -0.2845
 4701SOL     OW18575   6.131   1.856   2.480 -0.1636 -0.5060  0.2067
 4701SOL    HW218576   6.077   1.915   2.533 -0.8533 -1.1072  0.1945
 4701SOL    HW318577   6.110   1.880   2.389  1.9306  1.3582  0.1343
 4701SOL    MW418578   6.121   1.867   2.475  0.0217 -0.3394  0.1955
 4702SOL     OW18579   2.286   0.207   2.070  0.3442  0.4351  0.1894
 4702SOL    HW218580   2.267   0.274   2.005 -2.4217  0.1643  0.6035
 4702SOL    HW318581   2.208   0.203   2.124  1.3184 -1.5661  1.5882
 4702SOL    MW418582   2.273   0.215   2.069  0.1078  0.1353  0.4286
 4703SOL     OW18583   1.227   0.034   0.374  0.5503  0.6902  0.3463
 4703SOL    HW218584   1.169   0.103   0.405 -1.4483 -0.2094 -1.1110
 4703SOL    HW318585   1.248  -0.017   0.452  0.3716  1.7459  1.0989
 4703SOL    MW418586   1.222   0.036   0.388  0.2630  0.7108  0.2533
 4704SOL     OW18587   5.609   1.609   0.802 -0.0388  0.1645 -0.0672
 4704SOL    HW218588   5.584   1.600   0.710  0.1548  1.0229 -0.2122
 4704SOL    HW318589   5.703   1.630   0.799 -0.0892  0.4532  0.3087
 4704SOL    MW418590   5.618   1.611   0.790 -0.0200  0.3158 -0.0367
 4705SOL     OW18591   4.848   5.862   1.006  0.2324  0.1747  0.6371
 4705SOL    HW218592   4.925   5.813   1.033 -0.7324 -0.9643  1.4346
 4705SOL    HW318593   4.781   5.841   1.071 -0.6653  1.4047  0.1706
 4705SOL    MW418594   4.849   5.853   1.018 -0.0133  0.1867  0.6808
 4706SOL     OW18595   1.528   1.479   0.770 -0.2711 -0.0021  0.2330
 4706SOL    HW218596   1.567   1.395   0.746 -0.1408 -0.2535  1.2820
 4706SOL    HW318597   1.565   1.499   0.855  1.0993  2.0413 -0.7685
 4706SOL    MW418598   1.538   1.470   0.778 -0.0731  0.2344  0.2393
 4707SOL     OW18599   3.343   1.462   1.402 -0.3914  0.0172  0.5948
 4707SOL    HW218600   3.360   1.436   1.312 -0.3925  0.0745  0.5787
 4707SOL    HW318601   3.287   1.392   1.437 -0.9914  0.3692  0.3365
 4707SOL    MW418602   3.338   1.449   1.395 -0.4707  0.0712  0.5586
 4708SOL     OW18603   2.903   2.109   0.759 -0.0683  0.3812 -0.1971
 4708SOL    HW218604   2.856   2.119   0.677  0.0931  0.4138 -0.2856
 4708SOL    HW318605   2.988   2.074   0.734  0.2012  0.9607 -0.1056
 4708SOL    MW418606   2.908   2.106   0.745 -0.0115  0.4619 -0.1967
 4709SOL     OW18607   3.593   1.995   0.453 -0.2791  0.2134  0.7198
 4709SOL    HW218608   3.572   1.910   0.416 -3.2843  1.6645 -1.3884
 4709SOL    HW318609   3.551   1.996   0.539 -2.0454  0.2118 -0.1088
 4709SOL    MW418610   3.585   1.984   0.459 -0.9087  0.4047  0.3323
 4710SOL     OW18611   4.751   6.076   2.970 -0.1021 -0.4337 -0.2341
 4710SOL    HW218612   4.727   6.147   2.911 -1.1880 -1.2230 -0.7869
 4710SOL    HW318613   4.746   6.114   3.057 -2.1371 -0.2034 -0.4205
 4710SOL    MW418614   4.748   6.090   2.973 -0.5139 -0.5074 -0.3316
 4711SOL     OW18615   0.158   1.303   0.644  0.5135 -0.0991  0.4880
 4711SOL    HW218616   0.252   1.306   0.632  0.4087 -0.8869 -0.7115
 4711SOL    HW318617   0.128   1.393   0.628  0.8625 -0.2473 -1.1696
 4711SOL    MW418618   0.166   1.315   0.641  0.5457 -0.2226  0.1111
 4712SOL     OW18619   2.779   2.910   5.955  0.4112  0.3696  0.5466
 4712SOL    HW218620   2.800   2.999   5.983 -2.6486  0.6442  2.4249
 4712SOL    HW318621   2.736   2.921   5.870  1.8802  0.3997 -0.2345
 4712SOL    MW418622   2.776   2.923   5.947  0.2014  0.4098  0.6914
 4713SOL     OW18623   5.288   4.988   4.582 -0.3853  0.6935 -0.0487
 4713SOL    HW218624   5.292   5.000   4.487  2.5178 -2.9325 -0.6273
 4713SOL    HW318625   5.346   5.056   4.617 -1.6772  2.2265 -0.7781
 4713SOL    MW418626   5.296   4.999   4.574 -0.1727  0.4173 -0.2213
 4714SOL     OW18627   3.614   3.384   2.876  0.4664  0.6608 -0.5302
 4714SOL    HW218628   3.640   3.468   2.913  2.6149  0.1422 -0.7691
 4714SOL    HW318629   3.541   3.355   2.931  0.5886  2.0348  0.3961
 4714SOL    MW418630   3.607   3.391   2.888  0.7660  0.7737 -0.4395
 4715SOL     OW18631   1.775   0.832   5.300  0.3622  0.0298 -0.1139
 4715SOL    HW218632   1.813   0.879   5.375  0.1200 -0.7310  0.5006
 4715SOL    HW318633   1.708   0.775   5.339 -0.1155 -0.0116 -0.9710
 4715SOL    MW418634   1.771   0.831   5.315  0.2672 -0.0760 -0.1459
 4716SOL     OW18635   2.460   2.081   0.263  0.1307  0.0722 -0.4867
 4716SOL    HW218636   2.496   2.121   0.342 -0.0234  1.5194 -1.1155
 4716SOL    HW318637   2.530   2.088   0.198 -0.4628  0.8547 -1.0703
 4716SOL    MW418638   2.474   2.087   0.265  0.0321  0.3664 -0.6466
 4717SOL     OW18639   2.287   6.113   2.335  0.0519  0.1002  0.0681
 4717SOL    HW218640   2.226   6.158   2.276 -1.3834 -1.6548  0.1102
 4717SOL    HW318641   2.245   6.117   2.420 -0.2285 -1.4220  0.0400
 4717SOL    MW418642   2.273   6.119   2.338 -0.1745 -0.3322  0.0699
 4718SOL     OW18643   4.964   3.067   0.845  0.3024 -0.1707 -0.4946
 4718SOL    HW218644   4.886   3.012   0.837  0.6217 -0.8384  0.6920
 4718SOL    HW318645   5.033   3.006   0.870  0.3606  0.8975  2.4165
 4718SOL    MW418646   4.963   3.052   0.847  0.3522 -0.1178  0.0460
 4719SOL     OW18647   4.409   4.395   1.303 -0.3216 -0.1513  0.6119
 4719SOL    HW218648   4.465   4.317   1.306 -0.3213 -0.1448  0.8004
 4719SOL    HW318649   4.399   4.414   1.210 -1.5772 -1.2794  0.4855
 4719SOL    MW418650   4.415   4.387   1.291 -0.4872 -0.2993  0.6201
 4720SOL     OW18651   0.507   5.903   3.856 -0.6725 -0.0038  0.6389
 4720SOL    HW218652   0.510   5.808   3.867  1.0880  0.0887  1.2626
 4720SOL    HW318653   0.598   5.931   3.865 -0.9634  1.6085 -0.8903
 4720SOL    MW418654   0.519   5.894   3.859 -0.4786  0.2211  0.5194
 4721SOL     OW18655   5.736   0.382   5.050  0.1757  0.3129  0.3802
 4721SOL    HW218656   5.776   0.395   5.136 -0.6396  1.9167  0.5406
 4721SOL    HW318657   5.758   0.461   5.001 -3.8299  1.9612  0.9158
 4721SOL    MW418658   5.744   0.394   5.055 -0.4603  0.7419  0.4720
 4722SOL     OW18659   0.918   5.958   5.213 -0.0507 -0.0809  0.1316
 4722SOL    HW218660   0.844   6.018   5.214  0.4993  0.7069 -1.8522
 4722SOL    HW318661   0.878   5.871   5.211 -0.9074  0.2989  0.1361
 4722SOL    MW418662   0.903   5.954   5.213 -0.0912  0.0731 -0.1296
 4723SOL     OW18663   4.345   4.267   6.338 -0.2741  0.0825 -0.3059
 4723SOL    HW218664   4.421   4.320   6.362 -0.4612  0.0513  0.3936
 4723SOL    HW318665   4.309   4.310   6.260  0.5075  0.0446 -0.6938
 4723SOL    MW418666   4.350   4.280   6.331 -0.1957  0.0734 -0.2648
 4724SOL     OW18667   1.727   2.330   5.114 -0.2158 -0.3388 -0.3693
 4724SOL    HW218668   1.745   2.237   5.126 -0.2399 -0.4044 -0.8246
 4724SOL    HW318669   1.808   2.374   5.139 -0.9776 -0.2877  2.3256
 4724SOL    MW418670   1.740   2.324   5.119 -0.3194 -0.3407 -0.0738
 4725SOL     OW18671   2.362   1.241   3.387  0.0895 -0.1317 -0.0378
 4725SOL    HW218672   2.351   1.335   3.372 -0.5861  0.0386  1.3696
 4725SOL    HW318673   2.427   1.236   3.457 -1.3050 -0.6094  1.2777
 4725SOL    MW418674   2.369   1.253   3.394 -0.1836 -0.1722  0.3214
 4726SOL     OW18675   4.415   0.718   2.205 -0.0466 -0.2809  0.4706
 4726SOL    HW218676   4.495   0.754   2.166 -0.4682 -1.0977 -1.2283
 4726SOL    HW318677   4.427   0.732   2.299  1.1142  1.5703  0.1193
 4726SOL    MW418678   4.427   0.725   2.213  0.0509 -0.1444  0.2001
 4727SOL     OW18679   1.581   6.215   0.054 -0.1765 -0.0660  0.1052
 4727SOL    HW218680   1.507   6.173   0.098  0.0580 -0.0542  0.5159
 4727SOL    HW318681   1.658   6.178   0.096  0.0685 -0.5810 -0.7873
 4727SOL    MW418682   1.581   6.205   0.065 -0.1132 -0.1324  0.0416
 4728SOL     OW18683   1.749   3.895   3.504 -0.5153  0.4279 -0.1795
 4728SOL    HW218684   1.671   3.915   3.555 -0.8252  1.5628 -1.0649
 4728SOL    HW318685   1.814   3.958   3.534 -0.3862  0.4385 -0.4783
 4728SOL    MW418686   1.748   3.906   3.515 -0.5391  0.5790 -0.3357
 4729SOL     OW18687   5.146   3.374   1.938 -0.6955  0.2365  0.3578
 4729SOL    HW218688   5.125   3.301   1.881 -0.2682  0.1637  0.2906
 4729SOL    HW318689   5.145   3.451   1.881  2.8529 -0.1829 -0.5007
 4729SOL    MW418690   5.143   3.374   1.923 -0.1710  0.1716  0.2357
 4730SOL     OW18691   4.553   6.026   2.442 -0.0637  0.6590  0.1397
 4730SOL    HW218692   4.566   5.949   2.387 -0.2288  1.0591 -0.4727
 4730SOL    HW318693   4.464   6.015   2.478  0.3317  0.0140  0.9656
 4730SOL    MW418694   4.543   6.015   2.440 -0.0333  0.6267  0.1679
 4731SOL     OW18695   4.258   4.890   5.232 -0.0070  0.7331  0.5967
 4731SOL    HW218696   4.350   4.894   5.206 -0.6661  0.4287 -2.0892
 4731SOL    HW318697   4.243   4.799   5.255  0.3016  0.7435  0.8469
 4731SOL    MW418698   4.268   4.879   5.231 -0.0532  0.6943  0.2754
 4732SOL     OW18699   2.097   2.999   2.895 -0.2124 -0.4570  0.0380
 4732SOL    HW218700   2.168   2.958   2.845  0.4321 -0.3415  0.8475
 4732SOL    HW318701   2.070   3.074   2.841 -0.8088 -1.3988 -1.0338
 4732SOL    MW418702   2.103   3.003   2.881 -0.2061 -0.5660  0.0034
 4733SOL     OW18703   2.097   2.990   2.265 -1.1227  0.6826 -0.0361
 4733SOL    HW218704   2.163   3.043   2.221 -2.4216  1.5393 -1.0322
 4733SOL    HW318705   2.045   2.954   2.193 -0.2940 -1.9920  0.5984
 4733SOL    MW418706   2.099   2.992   2.250 -1.1847  0.4427 -0.0838
 4734SOL     OW18707   2.131   4.761   1.728 -0.4435  0.5350 -0.1116
 4734SOL    HW218708   2.181   4.680   1.742  0.2640  0.9532 -0.1621
 4734SOL    HW318709   2.073   4.767   1.804  1.2303  1.2347  1.1507
 4734SOL    MW418710   2.130   4.751   1.739 -0.1293  0.6825  0.0483
 4735SOL     OW18711   1.011   1.122   0.553  0.3068  0.2540 -0.5965
 4735SOL    HW218712   0.955   1.051   0.519 -0.8672  0.3255  1.0796
 4735SOL    HW318713   0.960   1.161   0.624  1.5273  1.8879 -0.5673
 4735SOL    MW418714   0.997   1.118   0.558  0.3130  0.4790 -0.3715
 4736SOL     OW18715   3.433   4.167   5.929 -0.2258 -0.0650 -0.5451
 4736SOL    HW218716   3.437   4.262   5.919 -2.0041  0.1011  0.1599
 4736SOL    HW318717   3.518   4.144   5.967 -0.4248  1.4426  0.8983
 4736SOL    MW418718   3.445   4.176   5.932 -0.4867  0.1558 -0.2617
 4737SOL     OW18719   2.604   1.696   4.396  0.5477 -0.2227  0.2501
 4737SOL    HW218720   2.650   1.768   4.353 -0.3888 -0.3112 -0.9800
 4737SOL    HW318721   2.570   1.644   4.324 -0.5791 -0.7268  1.1158
 4737SOL    MW418722   2.605   1.699   4.381  0.2755 -0.3009  0.2020
 4738SOL     OW18723   4.836   5.767   5.299  0.2081  0.9757 -0.3234
 4738SOL    HW218724   4.790   5.850   5.313  2.1083  1.7708  1.5801
 4738SOL    HW318725   4.850   5.731   5.386  0.5851 -0.7392 -1.0384
 4738SOL    MW418726   4.832   5.773   5.312  0.5085  0.8544 -0.1666
 4739SOL     OW18727   3.588   0.977   2.043 -0.6137  0.7278 -0.3792
 4739SOL    HW218728   3.668   0.926   2.030 -1.3089 -0.5644  0.2433
 4739SOL    HW318729   3.615   1.049   2.100 -0.2665 -0.8473  1.5519
 4739SOL    MW418730   3.602   0.980   2.049 -0.6596  0.3495 -0.0423
 4740SOL     OW18731   5.529   5.469   2.087 -0.1946  0.1230  0.1487
 4740SOL    HW218732   5.614   5.512   2.099  0.1030  0.6126 -2.8713
 4740SOL    HW318733   5.465   5.539   2.094 -0.2208  0.0308  0.8683
 4740SOL    MW418734   5.532   5.484   2.090 -0.1588  0.1754 -0.1548
 4741SOL     OW18735   0.023   0.702   1.042  0.2565  0.1772 -0.0783
 4741SOL    HW218736   0.050   0.679   1.131  0.7444  0.3932 -0.1724
 4741SOL    HW318737  -0.059   0.751   1.054 -0.0400 -0.3757  0.2078
 4741SOL    MW418738   0.015   0.706   1.055  0.2817  0.1328 -0.0530
 4742SOL     OW18739   0.494   3.570   1.048 -0.1191  0.0426  0.2736
 4742SOL    HW218740   0.585   3.583   1.077  0.1126 -0.9226  0.0203
 4742SOL    HW318741   0.479   3.640   0.984  0.9005 -0.5689 -0.6786
 4742SOL    MW418742   0.504   3.581   1.043  0.0460 -0.1654  0.1146
 4743SOL     OW18743   1.905   6.007   5.010  0.1920  0.1330 -0.6954
 4743SOL    HW218744   1.942   5.940   4.952 -0.0795 -1.1921  0.5976
 4743SOL    HW318745   1.976   6.027   5.071  0.0714  0.5886 -0.7047
 4743SOL    MW418746   1.920   6.000   5.010  0.1403  0.0183 -0.5261
 4744SOL     OW18747   3.672   4.952   4.438  0.1276 -0.0222 -0.1988
 4744SOL    HW218748   3.766   4.943   4.453 -0.1802 -0.6099  1.7427
 4744SOL    HW318749   3.652   4.888   4.369  1.2678  0.7690 -1.3012
 4744SOL    MW418750   3.682   4.942   4.431  0.2374  0.0046 -0.0881
 4745SOL     OW18751   2.646   6.109   0.252 -0.7160  0.2181  0.3844
 4745SOL    HW218752   2.649   6.137   0.343 -0.6772  0.4844  0.3029
 4745SOL    HW318753   2.557   6.130   0.223 -1.4591 -1.9001  0.9912
 4745SOL    MW418754   2.635   6.116   0.260 -0.8090 -0.0262  0.4537
 4746SOL     OW18755   3.856   4.868   1.786 -0.1066  0.5756 -0.1558
 4746SOL    HW218756   3.900   4.839   1.866  1.4305 -0.5542 -1.3465
 4746SOL    HW318757   3.928   4.894   1.728 -1.0681 -0.2297 -1.7605
 4746SOL    MW418758   3.872   4.867   1.789 -0.0307  0.3203 -0.5246
 4747SOL     OW18759   3.532   1.636   0.676  0.2782  0.0696 -0.7324
 4747SOL    HW218760   3.595   1.702   0.704 -2.0575  1.1725  2.5639
 4747SOL    HW318761   3.526   1.575   0.750 -3.1102  0.6035 -0.3716
 4747SOL    MW418762   3.539   1.637   0.690 -0.4771  0.2856 -0.2499
 4748SOL     OW18763   2.067   1.621   1.784  0.3118  0.1118 -0.7402
 4748SOL    HW218764   2.069   1.530   1.755  0.4122  0.1167 -0.7498
 4748SOL    HW318765   2.124   1.624   1.861 -1.1202 -0.2124  0.3818
 4748SOL    MW418766   2.075   1.610   1.791  0.1361  0.0697 -0.5934
 4749SOL     OW18767   5.484   4.025   6.346  0.1854 -0.1291 -0.3700
 4749SOL    HW218768   5.536   3.945   6.338  0.3710  0.0849 -1.5973
 4749SOL    HW318769   5.429   4.011   6.423  1.8052 -0.4906  0.7574
 4749SOL    MW418770   5.483   4.012   6.355  0.4236 -0.1486 -0.3832
 4750SOL     OW18771   5.530   3.872   6.078  0.0943  0.2543  0.8448
 4750SOL    HW218772   5.608   3.926   6.066 -0.4997  1.0380  0.3789
 4750SOL    HW318773   5.470   3.901   6.009 -0.4988 -0.5304  1.0183
 4750SOL    MW418774   5.532   3.883   6.068 -0.0623  0.2542  0.8062
 4751SOL     OW18775   0.439   3.298   1.000 -0.8029 -0.0771  0.2326
 4751SOL    HW218776   0.451   3.389   1.026 -0.7282 -0.4479  1.5905
 4751SOL    HW318777   0.412   3.254   1.080  0.3744 -1.4781 -0.1042
 4751SOL    MW418778   0.437   3.304   1.014 -0.6377 -0.3109  0.3673
 4752SOL     OW18779   5.708   5.026   3.131  0.0583  0.0681 -0.4941
 4752SOL    HW218780   5.698   5.118   3.156 -1.7477 -0.3825  0.5616
 4752SOL    HW318781   5.792   5.000   3.170 -0.5225  0.6492  1.2044
 4752SOL    MW418782   5.718   5.035   3.139 -0.2566  0.0854 -0.1307
 4753SOL     OW18783   3.196   5.277   6.139 -0.3987  0.2031  0.1154
 4753SOL    HW218784   3.216   5.360   6.182  2.2398 -0.1817 -0.1965
 4753SOL    HW318785   3.272   5.222   6.158 -1.5363 -1.7494 -0.7028
 4753SOL    MW418786   3.208   5.281   6.147 -0.2007 -0.1053 -0.0337
 4754SOL     OW18787   1.347   1.951   4.583 -0.4077 -0.4699  0.5112
 4754SOL    HW218788   1.404   1.882   4.550  1.8907  1.1188  0.9767
 4754SOL    HW318789   1.264   1.938   4.536  1.1508 -1.2420 -2.2316
 4754SOL    MW418790   1.343   1.940   4.573  0.1011 -0.3622  0.2108
 4755SOL     OW18791   1.220   0.810   1.719 -0.0965 -0.2310  0.2427
 4755SOL    HW218792   1.170   0.836   1.796 -1.9744  1.0531 -1.3212
 4755SOL    HW318793   1.157   0.761   1.666  1.2918 -1.4909 -0.3155
 4755SOL    MW418794   1.205   0.807   1.722 -0.1611 -0.2278 -0.0373
 4756SOL     OW18795   1.805   6.070   6.207  0.0557 -0.1332 -0.4553
 4756SOL    HW218796   1.816   6.026   6.291  0.8036  0.6535 -0.1179
 4756SOL    HW318797   1.835   6.007   6.142  0.8858 -0.2242 -0.0010
 4756SOL    MW418798   1.810   6.056   6.209  0.2639 -0.0414 -0.3508
 4757SOL     OW18799   0.837   5.224   3.975  0.0908 -0.0672 -0.5516
 4757SOL    HW218800   0.883   5.274   3.907  2.9327 -2.2137 -0.3835
 4757SOL    HW318801   0.819   5.139   3.935 -0.9075 -0.3556  0.4486
 4757SOL    MW418802   0.841   5.219   3.961  0.3341 -0.3884 -0.3975
 4758SOL     OW18803   4.342   1.545   5.445  0.2212  0.5212  0.6635
 4758SOL    HW218804   4.418   1.486   5.441  1.0328  1.5240  0.6215
 4758SOL    HW318805   4.335   1.580   5.356  0.8445  1.7871  1.0943
 4758SOL    MW418806   4.351   1.542   5.433  0.4105  0.8205  0.7148
 4759SOL     OW18807   4.265   1.467   0.073  0.1804 -0.9224 -0.2698
 4759SOL    HW218808   4.261   1.547   0.125 -1.3984 -1.0347 -0.1650
 4759SOL    HW318809   4.204   1.407   0.116 -3.3764 -0.1223 -3.6107
 4759SOL    MW418810   4.257   1.470   0.086 -0.4972 -0.8317 -0.6968
 4760SOL     OW18811   4.329   5.505   5.555 -0.2271  0.4726  0.4784
 4760SOL    HW218812   4.298   5.532   5.641  0.2726  0.0555  0.8015
 4760SOL    HW318813   4.329   5.585   5.503 -1.6418  0.5202  0.5168
 4760SOL    MW418814   4.325   5.519   5.560 -0.3478  0.4238  0.5261
 4761SOL     OW18815   3.723   2.954   1.712 -0.4165 -0.0532 -0.0437
 4761SOL    HW218816   3.643   2.982   1.757  0.4715  0.6594  1.1603
 4761SOL    HW318817   3.703   2.866   1.681 -1.5075 -0.0777  0.6419
 4761SOL    MW418818   3.710   2.946   1.714 -0.4433  0.0376  0.2056
 4762SOL     OW18819   2.472   4.754   4.294 -0.1965  0.0142 -0.1035
 4762SOL    HW218820   2.407   4.689   4.269  0.3336 -0.5388 -0.0590
 4762SOL    HW318821   2.497   4.796   4.212 -1.0748  0.6866 -0.0469
 4762SOL    MW418822   2.467   4.751   4.280 -0.2425  0.0300 -0.0902
 4763SOL     OW18823   4.696   0.716   3.447  0.7844  0.9608  0.5499
 4763SOL    HW218824   4.779   0.688   3.407  0.0977 -0.8332  0.2867
 4763SOL    HW318825   4.664   0.638   3.492 -0.7794  1.6214  0.6341
 4763SOL    MW418826   4.703   0.702   3.448  0.4874  0.8113  0.5263
 4764SOL     OW18827   2.615   6.043   2.805 -0.2978 -0.1878  0.3119
 4764SOL    HW218828   2.673   6.035   2.729 -1.4684 -0.8575 -0.5458
 4764SOL    HW318829   2.644   5.975   2.866  0.3851  0.0830  0.2912
 4764SOL    MW418830   2.626   6.033   2.803 -0.3622 -0.2405  0.1960
 4765SOL     OW18831   0.266   4.396   5.409 -0.0565  0.4220 -0.6830
 4765SOL    HW218832   0.293   4.353   5.490  0.7210  2.4344  0.1774
 4765SOL    HW318833   0.315   4.350   5.341  2.7428  1.4792  0.4542
 4765SOL    MW418834   0.276   4.384   5.411  0.4154  0.8270 -0.4194
 4766SOL     OW18835   0.730   4.792   1.331  0.5287  0.9775  0.2991
 4766SOL    HW218836   0.666   4.725   1.355  1.4187 -0.4119 -0.9828
 4766SOL    HW318837   0.733   4.851   1.406 -1.0003  0.1277  1.0720
 4766SOL    MW418838   0.722   4.791   1.344  0.4444  0.6820  0.2319
 4767SOL     OW18839   2.700   3.185   3.720  0.1840 -0.4778  0.0288
 4767SOL    HW218840   2.636   3.243   3.678  0.1303 -1.1561 -0.8631
 4767SOL    HW318841   2.775   3.184   3.660  1.4547  1.0331  1.5004
 4767SOL    MW418842   2.701   3.192   3.706  0.3446 -0.3680  0.1053
 4768SOL     OW18843   0.670   3.204   1.483 -0.3987 -0.0687 -0.1965
 4768SOL    HW218844   0.745   3.147   1.498 -0.8543 -0.3341  1.2022
 4768SOL    HW318845   0.705   3.277   1.431  1.2231  0.6805  1.8308
 4768SOL    MW418846   0.684   3.206   1.478 -0.2448 -0.0049  0.2556
 4769SOL     OW18847   4.603   6.306   4.050 -0.2055  0.0688  0.0523
 4769SOL    HW218848   4.599   6.237   3.983  1.5886  0.0803 -0.1314
 4769SOL    HW318849   4.624   6.258   4.131 -0.0119  0.2840  0.1298
 4769SOL    MW418850   4.606   6.290   4.052  0.0567  0.0987  0.0383
 4770SOL     OW18851   3.866   3.847   4.656 -0.7993  0.1362  0.0216
 4770SOL    HW218852   3.925   3.775   4.636  0.6385  1.1410  0.5116
 4770SOL    HW318853   3.863   3.850   4.751 -0.3335  1.1180  0.0142
 4770SOL    MW418854   3.873   3.838   4.666 -0.5481  0.3983  0.0853
 4771SOL     OW18855   6.171   1.255   4.932  0.2630  0.1544 -0.3036
 4771SOL    HW218856   6.192   1.336   4.978  0.1542 -0.7943  1.5068
 4771SOL    HW318857   6.153   1.282   4.842  0.9613  2.0275  0.0862
 4771SOL    MW418858   6.171   1.269   4.926  0.3408  0.2764 -0.0133
 4772SOL     OW18859   3.545   2.156   4.027 -0.0054 -0.3784 -0.4393
 4772SOL    HW218860   3.556   2.251   4.019 -0.7491 -0.1846  0.6380
 4772SOL    HW318861   3.499   2.144   4.110 -0.3491 -1.6583 -0.7967
 4772SOL    MW418862   3.541   2.167   4.037 -0.1489 -0.5217 -0.3443
 4773SOL     OW18863   2.472   3.651   0.481 -0.0200 -0.2144  0.2896
 4773SOL    HW218864   2.566   3.644   0.472 -0.0391 -0.2194  0.0999
 4773SOL    HW318865   2.450   3.592   0.554  0.2863  0.7956  1.2255
 4773SOL    MW418866   2.481   3.642   0.490  0.0179 -0.0818  0.3880
 4774SOL     OW18867   3.440   0.521   5.391 -0.3731 -0.0100  0.4336
 4774SOL    HW218868   3.425   0.462   5.465  0.4230 -0.5359  0.1904
 4774SOL    HW318869   3.531   0.505   5.366  0.0337  1.7050  0.6926
 4774SOL    MW418870   3.450   0.511   5.397 -0.2144  0.1469  0.4356
 4775SOL     OW18871   5.925   3.636   5.563 -0.1894 -0.7017  0.8893
 4775SOL    HW218872   5.830   3.644   5.574 -0.3401  0.0374 -0.7238
 4775SOL    HW318873   5.939   3.632   5.468  1.4314 -0.2524  1.0703
 4775SOL    MW418874   5.914   3.636   5.552  0.0045 -0.5449  0.7003
 4776SOL     OW18875   1.490   0.940   5.570 -0.0052  0.1070  0.3416
 4776SOL    HW218876   1.476   0.884   5.647  0.3544  0.0815  0.3883
 4776SOL    HW318877   1.570   0.988   5.589 -1.7501  2.7524  1.5619
 4776SOL    MW418878   1.499   0.939   5.583 -0.1880  0.4526  0.5088
 4777SOL     OW18879   6.427   3.515   3.174  0.1190  0.0392  0.1048
 4777SOL    HW218880   6.437   3.605   3.206 -2.1886  0.9968 -1.6518
 4777SOL    HW318881   6.422   3.462   3.254 -0.6780  1.7261  1.2340
 4777SOL    MW418882   6.428   3.520   3.189 -0.2907  0.3881  0.0220
 4778SOL     OW18883   0.733   0.271   2.031 -0.1015  0.1814  0.1288
 4778SOL    HW218884   0.766   0.342   1.976 -1.7627 -0.4029 -1.7302
 4778SOL    HW318885   0.639   0.289   2.039 -0.7463 -2.2490 -1.1425
 4778SOL    MW418886   0.725   0.283   2.025 -0.4057 -0.2164 -0.2842
 4779SOL     OW18887   4.712   1.667   2.950  0.1883 -0.4569 -0.1964
 4779SOL    HW218888   4.803   1.641   2.959  0.4799  1.0371  1.8789
 4779SOL    HW318889   4.708   1.707   2.863  1.4575 -0.7134 -0.3970
 4779SOL    MW418890   4.724   1.669   2.940  0.3942 -0.2936  0.0509
 4780SOL     OW18891   2.279   1.652   3.629  0.2274  0.5557  0.6495
 4780SOL    HW218892   2.308   1.638   3.539  3.4549  0.4163  1.5755
 4780SOL    HW318893   2.243   1.741   3.629  1.0391  0.9126 -0.6168
 4780SOL    MW418894   2.278   1.662   3.617  0.7603  0.5844  0.6046
 4781SOL     OW18895   1.790   2.325   2.274 -0.3921 -0.4299 -0.0884
 4781SOL    HW218896   1.712   2.373   2.302  1.2831  2.6185 -0.2044
 4781SOL    HW318897   1.793   2.338   2.179  1.5084  1.8114  0.1715
 4781SOL    MW418898   1.780   2.333   2.265  0.0797  0.2680 -0.0694
 4782SOL     OW18899   4.725   5.904   1.421  0.4152 -0.1416 -0.1899
 4782SOL    HW218900   4.757   5.884   1.509  2.3221  0.8125 -0.6161
 4782SOL    HW318901   4.633   5.929   1.433  0.0694 -1.9228  1.2462
 4782SOL    MW418902   4.717   5.904   1.434  0.6212 -0.2507 -0.0567
 4783SOL     OW18903   0.865   4.535   3.222 -0.4361 -0.2598  0.8045
 4783SOL    HW218904   0.852   4.615   3.273  0.0320 -0.0873  0.6549
 4783SOL    HW318905   0.943   4.552   3.170  1.4389 -1.8654  2.8723
 4783SOL    MW418906   0.874   4.548   3.222 -0.1270 -0.4489  1.0576
 4784SOL     OW18907   3.904   0.742   6.278  0.2677 -0.2075 -0.1816
 4784SOL    HW218908   3.943   0.816   6.324  0.1779  0.1949 -0.7423
 4784SOL    HW318909   3.978   0.695   6.241  0.2518  0.6339 -1.3643
 4784SOL    MW418910   3.919   0.746   6.279  0.2537 -0.0434 -0.4117
 4785SOL     OW18911   3.910   3.118   2.359  0.7428  0.1017  0.3096
 4785SOL    HW218912   3.846   3.073   2.304  1.1162 -0.5999  0.4504
 4785SOL    HW318913   3.860   3.190   2.399 -0.0062 -0.5221  0.5306
 4785SOL    MW418914   3.895   3.122   2.357  0.6932 -0.0732  0.3573
 4786SOL     OW18915   0.776   4.961   1.037 -0.0162  0.3229  0.2031
 4786SOL    HW218916   0.735   4.877   1.056  0.4633 -0.6778 -2.7255
 4786SOL    HW318917   0.791   5.000   1.123  1.7853 -3.5645  1.8913
 4786SOL    MW418918   0.773   4.955   1.051  0.2847 -0.3221  0.0394
 4787SOL     OW18919   3.755   2.019   3.609  0.5114 -0.2081  0.1541
 4787SOL    HW218920   3.716   1.991   3.691 -1.7964  1.4558 -0.2826
 4787SOL    HW318921   3.727   1.953   3.545 -1.7078  0.9359 -0.1436
 4787SOL    MW418922   3.746   2.006   3.611 -0.0859  0.1624  0.0572
 4788SOL     OW18923   3.599   3.834   5.545 -0.7830  0.8225 -0.2247
 4788SOL    HW218924   3.545   3.884   5.484 -1.2473 -0.1682 -0.6550
 4788SOL    HW318925   3.536   3.792   5.604 -0.5423 -0.5603 -0.8935
 4788SOL    MW418926   3.583   3.835   5.545 -0.8125  0.5094 -0.3697
 4789SOL     OW18927   2.194   6.314   0.958  0.4476  0.4056 -0.0096
 4789SOL    HW218928   2.264   6.296   1.021  2.7218  1.8601 -1.9783
 4789SOL    HW318929   2.176   6.408   0.968 -2.7757 -0.2302  1.8193
 4789SOL    MW418930   2.200   6.324   0.968  0.3224  0.5137 -0.0281
 4790SOL     OW18931   3.674   0.599   6.075 -0.1093  0.0030 -0.2086
 4790SOL    HW218932   3.715   0.655   6.009  0.6562 -0.7945 -0.4284
 4790SOL    HW318933   3.745   0.543   6.106 -0.8200 -0.7243  0.1310
 4790SOL    MW418934   3.689   0.599   6.070 -0.1021 -0.1982 -0.1928
 4791SOL     OW18935   4.049   2.958   0.212 -0.9192  0.3311  0.2063
 4791SOL    HW218936   4.037   3.049   0.188  1.0609  0.5905 -0.0238
 4791SOL    HW318937   4.019   2.908   0.136  0.4199  0.9289 -0.7439
 4791SOL    MW418938   4.044   2.963   0.199 -0.4813  0.4442  0.0505
 4792SOL     OW18939   0.856   3.836   5.480  0.1226  0.5170 -0.2333
 4792SOL    HW218940   0.813   3.913   5.516  1.7193  0.6597  1.5310
 4792SOL    HW318941   0.823   3.763   5.532  0.0624  0.2796 -0.6031
 4792SOL    MW418942   0.846   3.836   5.492  0.3253  0.5045 -0.0493
 4793SOL     OW18943   0.614   2.332   4.822  0.0040  0.4782 -0.3600
 4793SOL    HW218944   0.582   2.242   4.814 -1.5487  0.5182  3.4366
 4793SOL    HW318945   0.709   2.324   4.814 -0.2111 -1.1016 -2.2856
 4793SOL    MW418946   0.622   2.319   4.820 -0.2293  0.2750 -0.1131
 4794SOL     OW18947   4.330   0.792   4.394  0.2381  0.4379  0.4584
 4794SOL    HW218948   4.376   0.856   4.340  1.9667  0.8046  2.2582
 4794SOL    HW318949   4.265   0.844   4.442  1.5906  0.9162  1.8637
 4794SOL    MW418950   4.327   0.807   4.393  0.6446  0.5494  0.8812
 4795SOL     OW18951   5.955   1.463   3.311 -0.1948  0.2731 -0.0377
 4795SOL    HW218952   6.042   1.463   3.351 -0.9998  2.3605  1.9362
 4795SOL    HW318953   5.925   1.553   3.319 -2.2222 -0.2098 -1.4540
 4795SOL    MW418954   5.963   1.475   3.317 -0.5685  0.4848  0.0359
 4796SOL     OW18955   2.217   5.761   2.333  0.1851  0.2026  0.0031
 4796SOL    HW218956   2.257   5.687   2.380  0.8867  0.0098 -0.8664
 4796SOL    HW318957   2.287   5.827   2.330 -0.0299  0.4126 -0.3150
 4796SOL    MW418958   2.232   5.760   2.339  0.2493  0.2048 -0.1536
 4797SOL     OW18959   3.518   3.661   1.914 -0.0915  1.1515 -0.3273
 4797SOL    HW218960   3.461   3.592   1.881  1.3300  0.5856 -1.7092
 4797SOL    HW318961   3.480   3.742   1.881  0.2704  0.7231 -1.8598
 4797SOL    MW418962   3.506   3.663   1.906  0.1438  1.0203 -0.7118
 4798SOL     OW18963   4.159   1.810   0.600 -0.1906 -0.1222  0.0459
 4798SOL    HW218964   4.217   1.872   0.556 -0.1869  0.7594  1.2311
 4798SOL    HW318965   4.186   1.725   0.567  0.7203  0.3991 -0.6145
 4798SOL    MW418966   4.171   1.807   0.590 -0.0700  0.0629  0.1151
 4799SOL     OW18967   4.719   3.780   1.626 -0.1401  0.1214  0.7023
 4799SOL    HW218968   4.783   3.843   1.592 -1.6814  0.0699 -2.7360
 4799SOL    HW318969   4.748   3.696   1.591 -1.6877  0.0092 -0.3695
 4799SOL    MW418970   4.732   3.777   1.617 -0.5476  0.0998  0.1072
 4800SOL     OW18971   1.918   4.209   1.657 -0.0225  1.0937 -0.4438
 4800SOL    HW218972   1.876   4.146   1.716  0.9103  0.0680 -0.8340
 4800SOL    HW318973   1.868   4.290   1.669 -0.9965  0.4036  0.3837
 4800SOL    MW418974   1.906   4.211   1.666 -0.0279  0.8674 -0.3861
 4801SOL     OW18975   4.326   1.158   0.358 -0.1644 -0.2370 -0.2351
 4801SOL    HW218976   4.412   1.188   0.328 -0.6590 -0.3307 -1.8575
 4801SOL    HW318977   4.310   1.207   0.439  0.4473  1.4780 -1.0915
 4801SOL    MW418978   4.335   1.169   0.365 -0.1490 -0.0231 -0.5622
 4802SOL     OW18979   4.866   6.121   0.218  0.2580  0.3243  0.1446
 4802SOL    HW218980   4.775   6.120   0.187  0.0728 -0.7545  0.6749
 4802SOL    HW318981   4.912   6.175   0.154 -0.8707  1.3994  0.2117
 4802SOL    MW418982   4.860   6.128   0.205  0.0847  0.3238  0.2234
 4803SOL     OW18983   5.593   2.136   3.764 -0.2686 -0.2112  0.0175
 4803SOL    HW218984   5.545   2.097   3.837 -0.1727  0.0314  0.2113
 4803SOL    HW318985   5.639   2.210   3.802  1.2318 -1.1464  0.1150
 4803SOL    MW418986   5.593   2.140   3.779 -0.0580 -0.3026  0.0559
 4804SOL     OW18987   1.144   2.823   0.740  0.4389  0.5191  0.2392
 4804SOL    HW218988   1.240   2.825   0.749  1.0614 -0.3249 -4.2019
 4804SOL    HW318989   1.121   2.733   0.763  0.8649  0.3774  0.1328
 4804SOL    MW418990   1.154   2.811   0.744  0.5772  0.3890 -0.3608
 4805SOL     OW18991   5.041   1.424   2.470  0.0393 -0.3708 -0.1462
 4805SOL    HW218992   5.014   1.463   2.554  0.9014 -0.2085  0.0697
 4805SOL    HW318993   4.967   1.369   2.444 -0.8027  0.6359  0.0389
 4805SOL    MW418994   5.028   1.422   2.478  0.0419 -0.2165 -0.0933
 4806SOL     OW18995   3.067   4.707   3.178 -0.3394  0.1178  0.2622
 4806SOL    HW218996   3.117   4.663   3.247  1.4162  0.2475 -0.8735
 4806SOL    HW318997   3.019   4.637   3.134 -0.8363 -0.0706  1.0855
 4806SOL    MW418998   3.067   4.692   3.182 -0.1733  0.1101  0.2210
 4807SOL     OW18999   5.143   4.582   0.773 -0.2412 -0.3637  0.1807
 4807SOL    HW219000   5.150   4.490   0.800 -0.2596  0.4634  3.3432
 4807SOL    HW319001   5.231   4.617   0.781 -0.1101 -0.1818 -1.6039
 4807SOL    MW419002   5.155   4.574   0.777 -0.2263 -0.2306  0.3625
 4808SOL     OW19003   4.614   0.478   0.804  0.1510 -1.1134 -0.1430
 4808SOL    HW219004   4.617   0.515   0.716 -2.0568 -2.2233 -0.7721
 4808SOL    HW319005   4.558   0.537   0.854  1.9497 -0.1072  0.7805
 4808SOL    MW419006   4.607   0.491   0.799  0.0970 -1.1271 -0.1041
 4809SOL     OW19007   3.830   4.305   4.920  0.2650  1.0965 -0.8592
 4809SOL    HW219008   3.887   4.366   4.966  1.9305  1.4480 -3.1644
 4809SOL    HW319009   3.877   4.286   4.838 -0.9025 -2.0532 -0.9550
 4809SOL    MW419010   3.844   4.310   4.915  0.3307  0.7273 -1.1760
 4810SOL     OW19011   4.027   2.697   4.127  0.0260 -0.0624 -0.0115
 4810SOL    HW219012   3.959   2.671   4.065  0.2312  0.6898 -0.5555
 4810SOL    HW319013   3.992   2.672   4.213 -0.6104 -0.3606 -0.3538
 4810SOL    MW419014   4.014   2.690   4.130 -0.0309 -0.0025 -0.1284
 4811SOL     OW19015   3.833   1.557   3.350 -0.3485  0.2156 -0.0924
 4811SOL    HW219016   3.855   1.466   3.328 -2.4215 -0.6357  1.0974
 4811SOL    HW319017   3.843   1.562   3.445  1.4183  1.7700 -0.3067
 4811SOL    MW419018   3.837   1.545   3.360 -0.3889  0.3084  0.0363
 4812SOL     OW19019   3.439   2.011   1.959 -0.2336  0.1517  0.5038
 4812SOL    HW219020   3.404   1.922   1.972 -0.4863  0.2157  0.2921
 4812SOL    HW319021   3.531   2.005   1.984  0.5084 -0.8703 -2.0920
 4812SOL    MW419022   3.446   1.998   1.964 -0.1690  0.0253  0.1334
 4813SOL     OW19023   5.960   5.716   1.458 -0.1780 -0.1053 -1.1109
 4813SOL    HW219024   5.929   5.627   1.439  0.2046 -0.2247 -1.1892
 4813SOL    HW319025   6.053   5.715   1.433  0.9336 -0.8395  2.4092
 4813SOL    MW419026   5.969   5.704   1.452  0.0192 -0.2179 -0.6568
 4814SOL     OW19027   4.537   2.198   5.112  0.1450  0.3924 -0.0995
 4814SOL    HW219028   4.556   2.285   5.078  0.1047  0.8574  1.0359
 4814SOL    HW319029   4.552   2.205   5.206  2.6470 -1.4922 -0.2513
 4814SOL    MW419030   4.541   2.210   5.120  0.4698  0.2051  0.0302
 4815SOL     OW19031   6.080   0.199   0.999 -0.1685  0.2880 -0.0982
 4815SOL    HW219032   6.095   0.259   1.072  0.1573 -0.3470  0.3775
 4815SOL    HW319033   5.985   0.198   0.988 -0.6025 -2.1390  2.5933
 4815SOL    MW419034   6.069   0.207   1.007 -0.1828 -0.1160  0.3197
 4816SOL     OW19035   3.510   4.674   0.273  0.6599  0.2703  0.3435
 4816SOL    HW219036   3.576   4.742   0.260 -0.4846  1.0101 -1.9107
 4816SOL    HW319037   3.426   4.718   0.261 -0.1582 -1.2189  0.3872
 4816SOL    MW419038   3.508   4.688   0.270  0.4010  0.1714  0.0519
 4817SOL     OW19039   3.487   2.651   0.562  0.0150 -0.1424 -0.2718
 4817SOL    HW219040   3.531   2.732   0.537 -1.3480  0.9030  0.5513
 4817SOL    HW319041   3.443   2.673   0.644  0.3173 -1.9919  0.4321
 4817SOL    MW419042   3.487   2.664   0.570 -0.1250 -0.2485 -0.0703
 4818SOL     OW19043   4.524   1.502   4.562  0.2698  0.4510 -0.0562
 4818SOL    HW219044   4.613   1.516   4.593  0.2813 -0.1431  0.1939
 4818SOL    HW319045   4.482   1.453   4.633 -0.0447  0.1031 -0.4815
 4818SOL    MW419046   4.530   1.498   4.576  0.2298  0.3267 -0.0793
 4819SOL     OW19047   2.346   1.383   5.080 -0.2117  0.2272  0.0845
 4819SOL    HW219048   2.424   1.430   5.108 -0.6729  0.6753  0.6640
 4819SOL    HW319049   2.375   1.326   5.009  0.6305  0.3926  0.2939
 4819SOL    MW419050   2.360   1.382   5.075 -0.1614  0.3082  0.1886
 4820SOL     OW19051   1.514   3.703   3.399  0.4874  0.4369  0.1821
 4820SOL    HW219052   1.495   3.610   3.401  2.6969 -0.0998 -0.8228
 4820SOL    HW319053   1.560   3.720   3.481  1.3974  0.2834 -0.2776
 4820SOL    MW419054   1.518   3.693   3.410  0.8990  0.3458 -0.0111
 4821SOL     OW19055   2.148   0.192   3.197 -0.5297 -0.9036  0.1921
 4821SOL    HW219056   2.178   0.117   3.145 -1.3899 -1.1572  0.0478
 4821SOL    HW319057   2.128   0.259   3.132 -0.1928 -0.7049  0.2936
 4821SOL    MW419058   2.149   0.191   3.181 -0.5988 -0.9109  0.1864
 4822SOL     OW19059   5.944   0.872   5.931  0.2031  0.3423  0.2959
 4822SOL    HW219060   5.989   0.835   5.855  0.6341  0.5486  0.4459
 4822SOL    HW319061   5.966   0.813   6.003  0.8429  0.8455  0.5239
 4822SOL    MW419062   5.953   0.859   5.930  0.3444  0.4359  0.3458
 4823SOL     OW19063   3.001   5.522   6.018  0.0547  0.6851  0.2798
 4823SOL    HW219064   2.954   5.535   5.936  2.4481  0.8833 -1.1678
 4823SOL    HW319065   2.964   5.442   6.055  0.8678 -1.1243 -2.5477
 4823SOL    MW419066   2.990   5.513   6.012  0.4778  0.4725 -0.2843
 4824SOL     OW19067   4.994   2.090   6.350  0.2022 -0.2954  0.2898
 4824SOL    HW219068   5.010   2.071   6.443  0.4982  0.3211  0.3700
 4824SOL    HW319069   4.990   2.004   6.309  1.1244 -0.5540  0.7080
 4824SOL    MW419070   4.996   2.076   6.357  0.3629 -0.2482  0.3556
 4825SOL     OW19071   3.418   1.980   5.778  0.3626 -0.5179  0.0068
 4825SOL    HW219072   3.356   1.945   5.714 -0.3817 -1.2408  1.0945
 4825SOL    HW319073   3.488   1.915   5.781 -0.5353 -1.4875  1.2899
 4825SOL    MW419074   3.419   1.967   5.770  0.1459 -0.7412  0.3196
 4826SOL     OW19075   1.630   2.865   5.021 -0.2490 -0.1240  0.1505
 4826SOL    HW219076   1.594   2.928   4.959  1.2738 -0.5874 -1.2605
 4826SOL    HW319077   1.657   2.919   5.096 -2.9749  0.3276  0.9453
 4826SOL    MW419078   1.629   2.881   5.023 -0.4077 -0.1255  0.0692
 4827SOL     OW19079   3.184   0.620   3.663  0.0653 -0.2156 -0.0711
 4827SOL    HW219080   3.254   0.673   3.626  0.9835  0.9276  3.0070
 4827SOL    HW319081   3.180   0.543   3.606  0.7016  1.7071 -2.9427
 4827SOL    MW419082   3.193   0.617   3.651  0.2704  0.1889 -0.0439
 4828SOL     OW19083   5.416   2.436   3.570  0.2909  0.0534 -0.7179
 4828SOL    HW219084   5.503   2.460   3.538 -0.8346  1.8661 -2.6676
 4828SOL    HW319085   5.356   2.491   3.520 -1.8998  0.1882  1.8425
 4828SOL    MW419086   5.419   2.446   3.559 -0.1466  0.3103 -0.6374
 4829SOL     OW19087   1.931   0.211   3.375  0.3395  0.0839  0.0311
 4829SOL    HW219088   2.014   0.200   3.329 -0.5587 -1.1544 -1.3784
 4829SOL    HW319089   1.934   0.146   3.446  0.6311  0.1453  0.0753
 4829SOL    MW419090   1.942   0.201   3.378  0.2594 -0.0714 -0.1490
 4830SOL     OW19091   6.425   2.553   2.758 -0.3407 -0.2843  0.0247
 4830SOL    HW219092   6.489   2.594   2.817 -0.3018 -1.6997  1.0135
 4830SOL    HW319093   6.465   2.560   2.671 -0.2555  1.5661  0.1820
 4830SOL    MW419094   6.439   2.559   2.754 -0.3243 -0.2269  0.1759
 4831SOL     OW19095   0.777   3.556   5.575  0.3238 -0.3738 -0.1105
 4831SOL    HW219096   0.756   3.581   5.665 -0.5138 -0.9027 -0.1542
 4831SOL    HW319097   0.703   3.504   5.546  1.2187 -1.3977 -0.6397
 4831SOL    MW419098   0.765   3.553   5.583  0.3314 -0.5787 -0.1861
 4832SOL     OW19099   3.456   1.298   5.196  0.4145 -0.5401 -0.1421
 4832SOL    HW219100   3.422   1.240   5.264  0.9691 -0.3231  0.3241
 4832SOL    HW319101   3.451   1.385   5.233 -0.5198 -0.2542 -0.8858
 4832SOL    MW419102   3.451   1.302   5.210  0.3644 -0.4738 -0.1788
 4833SOL     OW19103   4.624   6.067   4.873 -0.1109  0.1263 -0.0506
 4833SOL    HW219104   4.579   6.107   4.799  0.3019  0.1813 -0.2763
 4833SOL    HW319105   4.559   6.008   4.912  0.4252 -1.9299 -2.0351
 4833SOL    MW419106   4.609   6.064   4.868  0.0143 -0.1378 -0.3422
 4834SOL     OW19107   5.866   0.463   3.362 -0.2247 -0.0408  0.0718
 4834SOL    HW219108   5.886   0.445   3.454 -1.3027 -0.2784  0.2838
 4834SOL    HW319109   5.842   0.556   3.361  0.7769  0.2244 -0.1654
 4834SOL    MW419110   5.865   0.473   3.374 -0.2348 -0.0371  0.0684
 4835SOL     OW19111   5.081   0.073   0.726  0.4985  0.0848 -0.3863
 4835SOL    HW219112   5.129   0.153   0.704 -0.1511 -0.1442 -2.9649
 4835SOL    HW319113   5.000   0.079   0.675 -1.1631 -0.6957  1.9583
 4835SOL    MW419114   5.077   0.084   0.716  0.1936 -0.0484 -0.4172
 4836SOL     OW19115   4.243   3.089   6.311 -0.7436  0.3934  0.1442
 4836SOL    HW219116   4.271   3.007   6.352  2.0584  0.5502 -1.2023
 4836SOL    HW319117   4.288   3.157   6.359  2.2793  0.6052 -2.6382
 4836SOL    MW419118   4.252   3.087   6.323  0.0249  0.4420 -0.4005
 4837SOL     OW19119   3.386   5.496   0.122 -0.0854 -0.6501  0.2251
 4837SOL    HW219120   3.318   5.511   0.056  0.6551  0.3826 -0.3308
 4837SOL    HW319121   3.402   5.402   0.119  0.7142 -0.5042 -1.8942
 4837SOL    MW419122   3.379   5.486   0.113  0.1178 -0.4946 -0.1278
 4838SOL     OW19123   5.415   2.354   3.260  0.1696 -0.0419 -0.6717
 4838SOL    HW219124   5.429   2.448   3.250  0.6714 -0.1047 -0.5927
 4838SOL    HW319125   5.405   2.341   3.355  0.2557 -0.0846 -0.6678
 4838SOL    MW419126   5.416   2.365   3.271  0.2472 -0.0558 -0.6608
 4839SOL     OW19127   1.146   6.131   2.445  0.4294 -0.9465  0.2056
 4839SOL    HW219128   1.051   6.140   2.445  0.5822  1.3927  1.1121
 4839SOL    HW319129   1.175   6.183   2.370  1.0459 -0.7391  0.5831
 4839SOL    MW419130   1.138   6.139   2.435  0.5309 -0.6105  0.3750
 4840SOL     OW19131   5.111   5.792   3.835  0.4916  0.2145  0.4739
 4840SOL    HW219132   5.109   5.880   3.871 -1.0515 -0.5474  2.3912
 4840SOL    HW319133   5.192   5.754   3.869  1.3700  0.9821 -0.6906
 4840SOL    MW419134   5.121   5.799   3.844  0.4039  0.2153  0.5733
 4841SOL     OW19135   6.276   4.199   4.087 -0.0492  0.6813 -0.3430
 4841SOL    HW219136   6.349   4.137   4.075 -0.5260  0.2732 -1.2819
 4841SOL    HW319137   6.218   4.181   4.013 -1.0246  1.1178  0.3037
 4841SOL    MW419138   6.278   4.188   4.076 -0.2408  0.6850 -0.3816
 4842SOL     OW19139   3.633   0.139   2.280 -0.2178 -0.2578  0.0005
 4842SOL    HW219140   3.677   0.152   2.196  1.1220  0.7284  0.8077
 4842SOL    HW319141   3.581   0.218   2.292 -0.7920 -0.6143 -0.1153
 4842SOL    MW419142   3.632   0.151   2.271 -0.1167 -0.1747  0.0917
 4843SOL     OW19143   3.760   1.226   1.351 -0.4812  0.8470  0.1681
 4843SOL    HW219144   3.804   1.303   1.388  0.4941  0.3533  0.0650
 4843SOL    HW319145   3.671   1.231   1.385 -1.1006  3.1952 -1.5491
 4843SOL    MW419146   3.754   1.237   1.361 -0.4343  1.0917 -0.0721
 4844SOL     OW19147   4.301   3.151   4.554  0.0320  0.3027 -0.5701
 4844SOL    HW219148   4.332   3.204   4.628 -0.2031 -0.2411 -0.0713
 4844SOL    HW319149   4.379   3.104   4.524 -0.2335 -0.9721  0.6052
 4844SOL    MW419150   4.315   3.152   4.560 -0.0341  0.0628 -0.3492
 4845SOL     OW19151   0.493   1.246   5.462 -0.4826 -0.1346  0.1492
 4845SOL    HW219152   0.477   1.339   5.475  2.0739  0.0476  2.8406
 4845SOL    HW319153   0.405   1.207   5.457 -1.5999  2.2466 -0.0306
 4845SOL    MW419154   0.479   1.253   5.463 -0.2927  0.2036  0.4806
 4846SOL     OW19155   1.669   3.908   2.689  0.4165  0.2714 -0.2105
 4846SOL    HW219156   1.717   3.877   2.612 -0.2114 -1.0936 -0.0976
 4846SOL    HW319157   1.737   3.937   2.750  0.9939  0.1439 -0.7866
 4846SOL    MW419158   1.684   3.908   2.687  0.4099  0.0745 -0.2716
 4847SOL     OW19159   4.355   5.967   1.912  0.1861  0.2162 -0.4870
 4847SOL    HW219160   4.294   6.020   1.861 -0.6674 -1.4890 -1.3398
 4847SOL    HW319161   4.441   6.000   1.887 -0.2837  0.5909 -1.6936
 4847SOL    MW419162   4.358   5.978   1.902  0.0115  0.0406 -0.7587
 4848SOL     OW19163   1.649   0.509   4.291 -0.2793  0.1953 -0.4631
 4848SOL    HW219164   1.607   0.429   4.325  0.3158  0.7425  1.7340
 4848SOL    HW319165   1.735   0.480   4.261 -0.1989 -0.0692  0.0061
 4848SOL    MW419166   1.654   0.494   4.292 -0.1902  0.2326 -0.1113
 4849SOL     OW19167   3.420   2.583   5.402  0.6913 -0.2020  0.2209
 4849SOL    HW219168   3.329   2.579   5.432  0.1977  0.6694 -1.0877
 4849SOL    HW319169   3.469   2.530   5.466 -0.9607 -2.0143  0.0717
 4849SOL    MW419170   3.415   2.575   5.415  0.4082 -0.3261  0.0285
 4850SOL     OW19171   2.663   1.011   0.599 -0.0508  0.0309 -0.5200
 4850SOL    HW219172   2.755   1.036   0.599  0.9367 -2.9621  2.1048
 4850SOL    HW319173   2.619   1.082   0.647  1.0909  0.8671 -0.6750
 4850SOL    MW419174   2.669   1.023   0.605  0.2301 -0.2536 -0.1942
 4851SOL     OW19175   4.545   1.800   3.964 -0.2943 -0.8032 -0.2627
 4851SOL    HW219176   4.451   1.816   3.951 -0.5234 -1.5761  0.3597
 4851SOL    HW319177   4.560   1.818   4.057  0.1189 -0.9164 -0.3041
 4851SOL    MW419178   4.535   1.804   3.975 -0.2700 -0.9201 -0.1860
 4852SOL     OW19179   2.731   6.225   1.406  0.2705  1.2308  0.5469
 4852SOL    HW219180   2.793   6.189   1.342 -1.6904 -4.1486  1.1651
 4852SOL    HW319181   2.782   6.231   1.487  0.5696 -1.5749  0.6713
 4852SOL    MW419182   2.746   6.221   1.408  0.0512  0.1509  0.6449
 4853SOL     OW19183   4.623   0.315   2.255  0.3888  0.1642  0.3425
 4853SOL    HW219184   4.629   0.240   2.315  2.0904 -0.3489 -0.4071
 4853SOL    HW319185   4.667   0.286   2.175 -0.8469  1.2273 -0.7763
 4853SOL    MW419186   4.630   0.301   2.252  0.4503  0.2368  0.0960
 4854SOL     OW19187   0.522   6.128   0.990  0.1311 -0.0660 -0.2113
 4854SOL    HW219188   0.488   6.039   0.982 -0.1687  0.0211  0.0577
 4854SOL    HW319189   0.531   6.158   0.900  0.5137 -0.4714 -0.3118
 4854SOL    MW419190   0.519   6.120   0.978  0.1420 -0.1080 -0.1891
 4855SOL     OW19191   0.039   1.661   1.145 -0.6517 -0.4786 -0.5372
 4855SOL    HW219192   0.005   1.645   1.232  0.2240  0.3042 -0.0341
 4855SOL    HW319193   0.128   1.627   1.147 -0.5521 -0.2609 -1.0506
 4855SOL    MW419194   0.046   1.655   1.156 -0.5230 -0.3466 -0.5385
 4856SOL     OW19195   4.928   5.462   2.486 -0.3745  0.1055 -0.2952
 4856SOL    HW219196   4.866   5.535   2.486  0.6762  1.0843 -1.9821
 4856SOL    HW319197   5.012   5.501   2.509  0.0866 -0.6847 -0.5714
 4856SOL    MW419198   4.931   5.477   2.489 -0.1751  0.1304 -0.5542
 4857SOL     OW19199   4.683   3.255   0.772 -0.1767  0.2224  0.5777
 4857SOL    HW219200   4.672   3.173   0.724 -0.1106  0.4700  0.1245
 4857SOL    HW319201   4.707   3.319   0.704  0.3433  0.4924  1.0023
 4857SOL    MW419202   4.685   3.253   0.756 -0.0993  0.2906  0.5739
 4858SOL     OW19203   0.690   1.903   5.521  0.3494  0.0601  0.2976
 4858SOL    HW219204   0.676   1.968   5.453  3.3469  1.4054  0.8051
 4858SOL    HW319205   0.627   1.833   5.501 -0.9555  1.7607 -1.9894
 4858SOL    MW419206   0.680   1.902   5.509  0.5727  0.4619  0.0628
 4859SOL     OW19207   0.757   5.781   0.251  0.0308  0.0153 -0.6467
 4859SOL    HW219208   0.683   5.774   0.190  2.1463  1.7341 -3.6444
 4859SOL    HW319209   0.759   5.873   0.276 -0.3952 -0.5402  1.6614
 4859SOL    MW419210   0.747   5.792   0.246  0.2537  0.1688 -0.7377
 4860SOL     OW19211   2.021   4.210   3.897  0.1123  0.3951  0.2221
 4860SOL    HW219212   2.096   4.173   3.850 -0.2672 -0.4190  0.2386
 4860SOL    HW319213   2.049   4.210   3.989 -0.3685 -1.1604  0.4076
 4860SOL    MW419214   2.035   4.205   3.903 -0.0012  0.0825  0.2488
 4861SOL     OW19215   5.578   2.172   3.106  0.1249  0.1017 -0.4249
 4861SOL    HW219216   5.566   2.235   3.177  2.9083 -1.1651  1.3822
 4861SOL    HW319217   5.493   2.129   3.097 -0.8266  1.6121  0.8025
 4861SOL    MW419218   5.566   2.175   3.114  0.3666  0.1339 -0.0245
 4862SOL     OW19219   4.485   5.874   1.148  0.0150 -0.0461 -0.2744
 4862SOL    HW219220   4.554   5.817   1.180 -1.8042 -1.5973  1.0673
 4862SOL    HW319221   4.432   5.818   1.091  0.1444  1.2641 -1.7500
 4862SOL    MW419222   4.487   5.859   1.144 -0.2079 -0.0779 -0.2921
 4863SOL     OW19223   4.594   1.407   5.560 -0.5104  0.1182 -0.1790
 4863SOL    HW219224   4.609   1.314   5.575  1.7692  0.5984  0.9472
 4863SOL    HW319225   4.680   1.448   5.570 -1.9114  2.7762  2.8294
 4863SOL    MW419226   4.608   1.400   5.563 -0.3945  0.5322  0.3665
 4864SOL     OW19227   1.015   1.992   3.731  0.0876 -0.5142  0.3155
 4864SOL    HW219228   1.012   1.948   3.646 -1.5575  2.0180 -1.0974
 4864SOL    HW319229   0.928   1.977   3.769 -0.1247  0.5480  0.2846
 4864SOL    MW419230   1.003   1.985   3.724 -0.1575 -0.0400  0.1250
 4865SOL     OW19231   3.699   2.095   6.097  0.4508 -0.1594  0.0997
 4865SOL    HW219232   3.622   2.150   6.113 -0.7372 -1.6913 -0.1159
 4865SOL    HW319233   3.762   2.123   6.163 -1.0654 -0.2585  1.6542
 4865SOL    MW419234   3.697   2.106   6.108  0.0940 -0.3746  0.2764
 4866SOL     OW19235   3.168   0.098   1.431 -0.0324  0.1996 -0.2835
 4866SOL    HW219236   3.135   0.089   1.520  1.1661  0.8308  0.2456
 4866SOL    HW319237   3.228   0.024   1.419  0.5205  0.6327 -0.2278
 4866SOL    MW419238   3.171   0.087   1.441  0.1987  0.3400 -0.2063
 4867SOL     OW19239   2.593   2.056   4.919  0.3217  0.4449 -0.0827
 4867SOL    HW219240   2.511   2.009   4.906  1.1221 -0.4418 -2.6177
 4867SOL    HW319241   2.656   1.988   4.943  0.8374  0.6763 -0.7257
 4867SOL    MW419242   2.591   2.041   4.920  0.4953  0.3584 -0.5020
 4868SOL     OW19243   3.617   5.628   0.050  0.4864 -0.5397 -0.2786
 4868SOL    HW219244   3.612   5.695   0.118 -0.9920 -2.1714  1.3119
 4868SOL    HW319245   3.548   5.566   0.072  0.5939 -1.6487 -2.7456
 4868SOL    MW419246   3.607   5.629   0.062  0.3055 -0.9013 -0.3943
 4869SOL     OW19247   3.747   2.843   1.990 -0.6066 -0.0241  0.4501
 4869SOL    HW219248   3.834   2.805   2.000 -0.5802  0.1897  1.0372
 4869SOL    HW319249   3.753   2.895   1.909  0.0107  0.5406  0.8525
 4869SOL    MW419250   3.759   2.845   1.980 -0.5217  0.0786  0.5807
 4870SOL     OW19251   1.423   2.989   5.986  0.3815  0.3200 -0.3893
 4870SOL    HW219252   1.379   3.000   5.902  0.2625  1.2931 -0.2070
 4870SOL    HW319253   1.502   2.939   5.965  0.4427  0.7106 -1.1107
 4870SOL    MW419254   1.428   2.983   5.972  0.3739  0.4999 -0.4604
 4871SOL     OW19255   1.972   1.162   0.076 -0.4331  0.4375  0.7535
 4871SOL    HW219256   1.929   1.149   0.161 -0.1698 -0.5328  0.7424
 4871SOL    HW319257   2.058   1.198   0.098 -0.2488 -0.0992  0.9146
 4871SOL    MW419258   1.978   1.165   0.090 -0.3740  0.2386  0.7733
 4872SOL     OW19259   4.789   2.769   2.817 -0.0371  0.7168 -0.2323
 4872SOL    HW219260   4.825   2.732   2.736  0.9566  0.1940  0.4401
 4872SOL    HW319261   4.700   2.795   2.793  0.3299  0.8148 -1.5653
 4872SOL    MW419262   4.782   2.767   2.803  0.1424  0.6608 -0.3194
 4873SOL     OW19263   0.275   1.746   2.400 -0.1751 -0.1417  0.4095
 4873SOL    HW219264   0.321   1.664   2.418  0.8783  0.5961  1.2287
 4873SOL    HW319265   0.209   1.723   2.335 -0.2864 -1.7478  1.0531
 4873SOL    MW419266   0.272   1.732   2.394 -0.0508 -0.2563  0.6025
 4874SOL     OW19267   4.121   5.700   3.248  0.7788  0.5252  0.0604
 4874SOL    HW219268   4.139   5.794   3.252  1.3628  0.5857 -2.5645
 4874SOL    HW319269   4.187   5.665   3.188 -0.2811 -1.3336 -0.0926
 4874SOL    MW419270   4.132   5.708   3.241  0.7160  0.2879 -0.3061
 4875SOL     OW19271   3.415   0.876   4.417 -0.5841  0.2893 -0.6368
 4875SOL    HW219272   3.361   0.852   4.342 -0.2282 -1.5590 -0.3633
 4875SOL    HW319273   3.423   0.795   4.467  1.4167  0.7974 -0.0374
 4875SOL    MW419274   3.409   0.862   4.413 -0.2731  0.1125 -0.5216
 4876SOL     OW19275   2.878   1.796   0.629  0.7291 -1.0568  0.4424
 4876SOL    HW219276   2.806   1.767   0.685 -0.8132 -0.2496 -1.0229
 4876SOL    HW319277   2.847   1.879   0.592  2.5614 -0.5321 -0.0055
 4876SOL    MW419278   2.864   1.803   0.632  0.7673 -0.8811  0.1900
 4877SOL     OW19279   4.652   3.702   0.510 -0.6965  0.3028  0.5964
 4877SOL    HW219280   4.663   3.776   0.570 -0.0140  0.6591  0.0540
 4877SOL    HW319281   4.560   3.704   0.486 -0.7050  0.9360  0.6552
 4877SOL    MW419282   4.642   3.712   0.514 -0.6076  0.4334  0.5326
 4878SOL     OW19283   4.271   0.249   0.261 -0.4196 -0.4436  0.3392
 4878SOL    HW219284   4.363   0.267   0.280 -0.4594 -0.8056  0.8654
 4878SOL    HW319285   4.238   0.206   0.339 -1.1325  0.0132  0.2951
 4878SOL    MW419286   4.279   0.246   0.274 -0.5189 -0.4311  0.4028
 4879SOL     OW19287   6.122   0.199   0.551 -0.0465  0.0802  0.4286
 4879SOL    HW219288   6.150   0.226   0.638 -1.2522  1.0503  0.5519
 4879SOL    HW319289   6.068   0.272   0.520 -1.0308 -0.9742 -0.4419
 4879SOL    MW419290   6.118   0.213   0.558 -0.3355  0.0691  0.3300
 4880SOL     OW19291   6.256   1.687   5.833 -0.2405  0.3821  0.2688
 4880SOL    HW219292   6.273   1.711   5.924 -0.5122 -0.3581  0.5199
 4880SOL    HW319293   6.341   1.658   5.800 -0.0642  0.9934  0.1733
 4880SOL    MW419294   6.270   1.686   5.841 -0.2531  0.3651  0.2893
 4881SOL     OW19295   6.273   1.413   2.059  0.0848 -0.3219  0.1382
 4881SOL    HW219296   6.259   1.489   2.001  2.2574  1.7749  2.1159
 4881SOL    HW319297   6.191   1.364   2.054 -1.1238  1.6641 -1.9220
 4881SOL    MW419298   6.261   1.417   2.051  0.2120  0.2168  0.1273
 4882SOL     OW19299   6.351   1.274   1.700 -0.5440 -0.4374  0.0035
 4882SOL    HW219300   6.261   1.253   1.725 -0.4795  0.4255  1.0256
 4882SOL    HW319301   6.405   1.234   1.769 -0.1455 -0.7622 -0.4855
 4882SOL    MW419302   6.346   1.266   1.713 -0.4829 -0.3664  0.0738
 4883SOL     OW19303   3.309   1.093   2.922 -0.5852 -0.6643  0.4038
 4883SOL    HW219304   3.360   1.141   2.857  0.4103 -2.1495  0.0406
 4883SOL    HW319305   3.330   1.136   3.005 -0.3088 -0.0080 -0.0026
 4883SOL    MW419306   3.319   1.105   2.925 -0.4174 -0.7737  0.3023
 4884SOL     OW19307   1.473   1.830   1.705 -0.3423  0.1767  0.2787
 4884SOL    HW219308   1.528   1.819   1.782 -0.3567 -2.1887  0.0242
 4884SOL    HW319309   1.461   1.741   1.671 -2.1562  0.9088 -1.1853
 4884SOL    MW419310   1.479   1.817   1.710 -0.5835 -0.0388  0.0520
 4885SOL     OW19311   4.561   1.800   1.960 -0.1689  0.2697  0.5366
 4885SOL    HW219312   4.559   1.707   1.938  0.8189  0.0509  1.3087
 4885SOL    HW319313   4.475   1.833   1.933  0.1450 -0.4456 -1.5033
 4885SOL    MW419314   4.549   1.792   1.954  0.0029  0.1465  0.3693
 4886SOL     OW19315   0.340   3.391   2.641  0.3386 -0.2013 -0.3160
 4886SOL    HW219316   0.270   3.333   2.610  0.5266 -1.0216  0.7405
 4886SOL    HW319317   0.399   3.334   2.690  0.9503  0.7500  0.0987
 4886SOL    MW419318   0.339   3.376   2.643  0.4441 -0.1840 -0.1219
 4887SOL     OW19319   5.938   4.786   1.368 -0.2559 -0.5488 -0.4801
 4887SOL    HW219320   5.855   4.744   1.344  0.3565 -1.7589 -0.5580
 4887SOL    HW319321   5.993   4.714   1.399  1.4566 -0.1337 -2.3314
 4887SOL    MW419322   5.934   4.771   1.369  0.0509 -0.6537 -0.7346
 4888SOL     OW19323   4.611   4.782   3.070 -0.6535  0.3540 -0.2755
 4888SOL    HW219324   4.578   4.717   3.007 -0.5640  0.6547 -0.6380
 4888SOL    HW319325   4.619   4.734   3.152 -0.9959  0.0130 -0.4369
 4888SOL    MW419326   4.607   4.767   3.072 -0.6868  0.3487 -0.3446
 4889SOL     OW19327   1.445   6.082   3.544 -0.2780 -0.5257 -0.0215
 4889SOL    HW219328   1.499   6.142   3.493 -0.3087 -1.2208 -0.8969
 4889SOL    HW319329   1.489   5.998   3.537 -0.8065 -0.8389  0.3064
 4889SOL    MW419330   1.458   6.079   3.537 -0.3518 -0.6587 -0.0937
 4890SOL     OW19331   6.113   3.312   3.997  0.3197 -0.6168 -0.4239
 4890SOL    HW219332   6.137   3.327   4.089 -0.4491  1.0862 -0.4628
 4890SOL    HW319333   6.188   3.346   3.947  0.2312 -0.4674 -0.4536
 4890SOL    MW419334   6.126   3.319   4.003  0.2066 -0.3724 -0.4329
 4891SOL     OW19335   0.033   4.730   4.672  0.1422 -0.2011  0.5953
 4891SOL    HW219336   0.092   4.805   4.670  0.9373 -0.8124 -1.6871
 4891SOL    HW319337  -0.010   4.736   4.758  0.0510  2.9004  0.4498
 4891SOL    MW419338   0.035   4.741   4.683  0.2351  0.1274  0.2750
 4892SOL     OW19339   0.955   5.542   4.553  0.4735 -0.4000 -0.6036
 4892SOL    HW219340   0.946   5.635   4.535  1.1681 -0.3310 -0.6184
 4892SOL    HW319341   0.876   5.519   4.603 -0.3457 -0.0974 -1.7129
 4892SOL    MW419342   0.943   5.551   4.558  0.4571 -0.3510 -0.7519
 4893SOL     OW19343   5.153   4.830   2.315 -0.2145 -0.5418  0.4088
 4893SOL    HW219344   5.243   4.822   2.349  0.0906 -2.7653 -0.7518
 4893SOL    HW319345   5.155   4.910   2.263  0.5306  0.4868  1.9198
 4893SOL    MW419346   5.165   4.840   2.313 -0.0760 -0.6994  0.4551
 4894SOL     OW19347   5.669   3.476   2.181 -0.0009  0.1126  0.2544
 4894SOL    HW219348   5.600   3.470   2.247 -0.2894  0.3504 -0.0237
 4894SOL    HW319349   5.690   3.569   2.177 -0.3460  0.1666 -0.3577
 4894SOL    MW419350   5.663   3.487   2.189 -0.0845  0.1511  0.1369
 4895SOL     OW19351   2.206   1.461   5.728 -0.1532  0.1020 -0.0038
 4895SOL    HW219352   2.231   1.434   5.816  0.4209  1.6851  0.3423
 4895SOL    HW319353   2.231   1.553   5.723 -2.8534  0.8861 -0.7933
 4895SOL    MW419354   2.212   1.469   5.739 -0.4337  0.4143 -0.0623
 4896SOL     OW19355   4.538   5.346   4.959  0.0589 -0.1310  0.5546
 4896SOL    HW219356   4.556   5.252   4.959 -1.3889 -0.4463  1.6316
 4896SOL    HW319357   4.553   5.374   5.049 -2.6620 -0.0679  1.0952
 4896SOL    MW419358   4.542   5.337   4.971 -0.4912 -0.1643  0.7680
 4897SOL     OW19359   2.998   4.699   3.901  0.6660  0.2908 -0.7694
 4897SOL    HW219360   2.971   4.787   3.875 -0.1035 -0.4070 -2.4612
 4897SOL    HW319361   2.963   4.688   3.990  0.7006  1.6412 -0.5690
 4897SOL    MW419362   2.990   4.709   3.910  0.5690  0.3769 -0.9662
 4898SOL     OW19363   1.956   5.093   2.433 -0.8178 -0.1867  0.3800
 4898SOL    HW219364   1.879   5.037   2.434 -0.0196 -1.3244  0.5620
 4898SOL    HW319365   1.951   5.141   2.350 -2.1924  0.4811  0.8210
 4898SOL    MW419366   1.945   5.092   2.422 -0.8939 -0.2487  0.4622
 4899SOL     OW19367   3.338   5.794   5.749  0.0185 -0.3486 -0.3772
 4899SOL    HW219368   3.257   5.802   5.800  0.0543 -0.7883 -0.2400
 4899SOL    HW319369   3.398   5.856   5.790  0.1185 -0.8548  0.2740
 4899SOL    MW419370   3.335   5.803   5.761  0.0364 -0.4734 -0.2731
 4900SOL     OW19371   0.337   4.488   3.522  0.6296  0.2926  0.3030
 4900SOL    HW219372   0.365   4.562   3.576  0.8284 -0.9792  1.9984
 4900SOL    HW319373   0.242   4.496   3.519  0.5371 -0.2122  1.7229
 4900SOL    MW419374   0.328   4.499   3.528  0.6436  0.0582  0.7141
 4901SOL     OW19375   2.974   5.759   0.109  0.0189  0.6934 -0.2756
 4901SOL    HW219376   3.030   5.684   0.127  0.4427  0.9144 -0.6517
 4901SOL    HW319377   3.008   5.795   0.027  1.4717  2.8236  1.1381
 4901SOL    MW419378   2.986   5.754   0.100  0.2665  1.0036 -0.1387
 4902SOL     OW19379   3.066   6.162   2.598  0.0195  0.1734 -0.1380
 4902SOL    HW219380   3.033   6.206   2.519  0.0856 -1.9239 -1.4146
 4902SOL    HW319381   3.119   6.090   2.564 -0.0922 -0.8887  1.8297
 4902SOL    MW419382   3.068   6.158   2.583  0.0135 -0.2434 -0.0468
 4903SOL     OW19383   0.436   2.646   0.658 -0.3485  0.3243  0.1810
 4903SOL    HW219384   0.377   2.628   0.585  1.6928  1.0444 -1.7689
 4903SOL    HW319385   0.424   2.739   0.676  0.3847  0.5459 -0.4354
 4903SOL    MW419386   0.426   2.656   0.651  0.0175  0.4485 -0.1576
 4904SOL     OW19387   3.888   4.767   0.078  0.2027  0.1685 -0.5433
 4904SOL    HW219388   3.905   4.834   0.012  0.7832  0.9533  0.3914
 4904SOL    HW319389   3.960   4.775   0.140  0.0989 -1.0999 -0.2296
 4904SOL    MW419390   3.900   4.777   0.077  0.2656  0.1047 -0.3786
 4905SOL     OW19391   2.699   4.550   0.627  0.1898 -0.3646 -0.0090
 4905SOL    HW219392   2.622   4.497   0.609  0.0136 -0.1022 -0.0257
 4905SOL    HW319393   2.730   4.577   0.541 -0.8215  1.1325  0.0651
 4905SOL    MW419394   2.693   4.546   0.613  0.0331 -0.1325 -0.0014
 4906SOL     OW19395   3.125   0.466   2.491  0.0346 -0.7252 -0.0360
 4906SOL    HW219396   3.129   0.391   2.432 -2.4528  0.0696 -1.3340
 4906SOL    HW319397   3.198   0.452   2.552  1.1973 -2.8442 -1.7655
 4906SOL    MW419398   3.135   0.454   2.491 -0.1402 -0.8999 -0.4354
 4907SOL     OW19399   0.453   3.332   4.253 -0.8911  0.0528 -0.0430
 4907SOL    HW219400   0.471   3.417   4.294 -0.1616 -0.5054  0.8090
 4907SOL    HW319401   0.436   3.354   4.161 -2.1634  1.2652  0.4571
 4907SOL    MW419402   0.453   3.346   4.246 -0.9627  0.1391  0.1354
 4908SOL     OW19403   1.785   0.167   4.103 -0.9367 -0.1408 -0.0974
 4908SOL    HW219404   1.839   0.102   4.058 -1.4844 -2.9110  2.8823
 4908SOL    HW319405   1.830   0.250   4.088  0.8112 -1.4141 -2.5988
 4908SOL    MW419406   1.798   0.169   4.095 -0.7784 -0.6743 -0.0343
 4909SOL     OW19407   1.674   0.351   0.846 -0.0281 -0.3258  0.2421
 4909SOL    HW219408   1.714   0.268   0.820  1.6731  0.7929 -0.9216
 4909SOL    HW319409   1.745   0.416   0.837 -1.6671  1.5011 -0.2938
 4909SOL    MW419410   1.689   0.349   0.842 -0.0199  0.0629  0.0179
 4910SOL     OW19411   1.307   5.829   3.200  0.0570  0.4462 -0.2501
 4910SOL    HW219412   1.260   5.824   3.117 -0.3953 -1.7343  0.0743
 4910SOL    HW319413   1.255   5.887   3.254 -1.5554 -0.7865 -0.3851
 4910SOL    MW419414   1.294   5.836   3.196 -0.2154 -0.0042 -0.2251
 4911SOL     OW19415   5.608   5.555   4.806  0.3646 -0.1416 -0.1522
 4911SOL    HW219416   5.576   5.580   4.893  0.8246  1.8844 -0.5042
 4911SOL    HW319417   5.703   5.548   4.816  0.4567  0.4356 -0.5358
 4911SOL    MW419418   5.616   5.557   4.819  0.4374  0.2019 -0.2492
 4912SOL     OW19419   0.763   4.026   4.425 -0.0961 -0.7081  0.3654
 4912SOL    HW219420   0.780   3.979   4.343  0.1078 -1.8382  1.0267
 4912SOL    HW319421   0.780   4.118   4.405  0.8842 -1.0807 -0.6029
 4912SOL    MW419422   0.767   4.032   4.412  0.0601 -0.9064  0.3249
 4913SOL     OW19423   6.387   2.585   1.044 -0.4616  0.0793 -0.0946
 4913SOL    HW219424   6.442   2.616   1.116 -1.8320  2.1001  0.1714
 4913SOL    HW319425   6.448   2.539   0.985  1.1325  0.5797  1.0895
 4913SOL    MW419426   6.403   2.583   1.046 -0.4321  0.4119  0.0967
 4914SOL     OW19427   0.203   2.771   1.517 -0.0754 -0.5414 -0.2051
 4914SOL    HW219428   0.281   2.716   1.524  1.4850  1.3598 -1.5053
 4914SOL    HW319429   0.217   2.841   1.581 -0.5257  0.0277 -0.7163
 4914SOL    MW419430   0.215   2.773   1.526  0.0711 -0.2155 -0.4441
 4915SOL     OW19431   4.823   1.069   4.693 -0.2441 -0.1395  0.0635
 4915SOL    HW219432   4.752   1.126   4.663 -1.0901 -0.5859  1.1723
 4915SOL    HW319433   4.900   1.126   4.693 -1.2926  1.4116  2.2942
 4915SOL    MW419434   4.824   1.084   4.689 -0.4940  0.0063  0.5041
 4916SOL     OW19435   6.328   3.147   3.293 -0.4703  0.9228  0.0980
 4916SOL    HW219436   6.274   3.163   3.216 -3.5908 -1.0648  1.6559
 4916SOL    HW319437   6.338   3.234   3.334 -1.7513  1.4699 -0.7089
 4916SOL    MW419438   6.322   3.161   3.288 -1.0510  0.7327  0.1971
 4917SOL     OW19439   2.050   0.678   5.595 -0.0320  0.0581  0.6720
 4917SOL    HW219440   2.142   0.684   5.567  0.2996 -2.3972  0.9367
 4917SOL    HW319441   2.053   0.697   5.689  0.0404  0.9702  0.4881
 4917SOL    MW419442   2.063   0.681   5.604  0.0213 -0.1455  0.6826
 4918SOL     OW19443   2.353   0.314   6.262  0.2196  0.5299 -0.1596
 4918SOL    HW219444   2.260   0.301   6.243  0.9137 -1.3807 -3.0214
 4918SOL    HW319445   2.357   0.330   6.356 -3.1275  2.6550 -0.2307
 4918SOL    MW419446   2.342   0.314   6.272 -0.1305  0.5582 -0.5465
 4919SOL     OW19447   1.239   2.509   1.262  1.0281 -0.2676  0.2208
 4919SOL    HW219448   1.239   2.414   1.249 -1.2800 -0.6704  2.3517
 4919SOL    HW319449   1.295   2.543   1.193  0.4732 -3.0363 -1.7513
 4919SOL    MW419450   1.246   2.501   1.251  0.6504 -0.6861  0.2417
 4920SOL     OW19451   1.201   5.384   5.271  0.1787 -0.0327  0.1456
 4920SOL    HW219452   1.246   5.330   5.336  1.8581  1.6120  0.4270
 4920SOL    HW319453   1.145   5.322   5.224  0.1607 -1.5601  2.0439
 4920SOL    MW419454   1.200   5.369   5.273  0.3979 -0.0172  0.4332
 4921SOL     OW19455   6.430   2.380   1.763  0.6539  0.0690  0.4905
 4921SOL    HW219456   6.513   2.342   1.792  1.7028  1.9856  0.1362
 4921SOL    HW319457   6.440   2.474   1.777 -0.5966  0.5784 -1.6026
 4921SOL    MW419458   6.443   2.387   1.768  0.6273  0.3891  0.1676
 4922SOL     OW19459   5.070   0.356   6.042 -0.1149  0.2448  0.4150
 4922SOL    HW219460   5.014   0.405   5.982  0.3407  3.4172  2.2980
 4922SOL    HW319461   5.012   0.328   6.112 -0.1449 -0.7830 -0.0150
 4922SOL    MW419462   5.055   0.359   6.043 -0.0587  0.5278  0.6067
 4923SOL     OW19463   2.298   0.999   4.942 -0.0631  0.3089  0.1435
 4923SOL    HW219464   2.345   0.946   4.878  0.9061  0.0201  1.0808
 4923SOL    HW319465   2.344   1.083   4.942  0.4293  0.0469  1.0154
 4923SOL    MW419466   2.310   1.003   4.933  0.1298  0.2362  0.3822
 4924SOL     OW19467   0.860   0.216   0.828 -0.1876  0.6817  0.0742
 4924SOL    HW219468   0.903   0.275   0.890 -0.0699  1.0568 -0.3543
 4924SOL    HW319469   0.932   0.176   0.779 -0.0802 -1.9823  2.2136
 4924SOL    MW419470   0.875   0.219   0.829 -0.1579  0.3797  0.2999
 4925SOL     OW19471   0.928   0.470   0.704  0.5293  0.1828 -0.1050
 4925SOL    HW219472   0.909   0.377   0.718 -0.1776  0.4530  0.8029
 4925SOL    HW319473   0.875   0.516   0.769  2.7067  1.1048  1.1302
 4925SOL    MW419474   0.919   0.464   0.714  0.7233  0.3401  0.1778
 4926SOL     OW19475   4.215   0.261   5.030  0.3340 -0.6364  0.0490
 4926SOL    HW219476   4.181   0.191   4.976 -0.1656 -0.5184  0.2078
 4926SOL    HW319477   4.254   0.323   4.968  0.2411 -0.7593 -0.1319
 4926SOL    MW419478   4.216   0.260   5.015  0.2558 -0.6370  0.0461
 4927SOL     OW19479   1.665   3.465   4.244  0.2802 -0.5299 -0.0351
 4927SOL    HW219480   1.680   3.406   4.170 -1.1427 -1.1079  0.0981
 4927SOL    HW319481   1.589   3.428   4.289 -0.6665  1.4171  0.0587
 4927SOL    MW419482   1.657   3.452   4.240 -0.0325 -0.3493 -0.0051
 4928SOL     OW19483   3.357   0.012   2.363  0.1957  0.4862  0.4580
 4928SOL    HW219484   3.295  -0.053   2.397  1.4624 -0.4156  1.1413
 4928SOL    HW319485   3.305   0.092   2.352 -1.2954 -0.5149  0.0389
 4928SOL    MW419486   3.342   0.014   2.366  0.1661  0.2351  0.4928
 4929SOL     OW19487   1.623   5.973   2.376 -0.4033 -0.2137 -0.6538
 4929SOL    HW219488   1.556   6.018   2.326  0.0383  0.9541 -0.2215
 4929SOL    HW319489   1.706   6.001   2.338  0.0253  1.8494  1.5488
 4929SOL    MW419490   1.625   5.982   2.365 -0.2885  0.2126 -0.3061
 4930SOL     OW19491   2.036   5.813   4.099 -0.5325 -0.0125  0.4959
 4930SOL    HW219492   2.025   5.846   4.188 -0.2502  0.7829  0.2453
 4930SOL    HW319493   2.115   5.759   4.102 -1.3731 -1.2802  1.0650
 4930SOL    MW419494   2.045   5.810   4.111 -0.6061 -0.0748  0.5379
 4931SOL     OW19495   2.393   6.367   2.032  0.5841 -0.1994 -0.5087
 4931SOL    HW219496   2.355   6.454   2.020  1.2173  0.1140 -0.2571
 4931SOL    HW319497   2.318   6.307   2.021  0.4067  0.2656 -2.1801
 4931SOL    MW419498   2.378   6.370   2.029  0.6442 -0.0967 -0.6960
 4932SOL     OW19499   4.566   4.297   5.532  0.1504  0.2382 -0.5871
 4932SOL    HW219500   4.527   4.275   5.447 -0.0336  0.6707 -0.6180
 4932SOL    HW319501   4.513   4.251   5.596  0.6247 -0.5388 -0.7365
 4932SOL    MW419502   4.554   4.288   5.529  0.1887  0.1927 -0.6109
 4933SOL     OW19503   2.169   5.878   3.210 -0.3016  0.1498 -0.0493
 4933SOL    HW219504   2.235   5.887   3.141  0.9110 -0.6418  0.9676
 4933SOL    HW319505   2.085   5.882   3.164  0.4788 -0.7020 -1.6042
 4933SOL    MW419506   2.166   5.880   3.195 -0.0387 -0.0670 -0.1203
 4934SOL     OW19507   0.316   6.177   1.190 -0.2688 -0.6890  0.0806
 4934SOL    HW219508   0.396   6.178   1.138 -0.1596 -1.4031  0.2265
 4934SOL    HW319509   0.333   6.238   1.263  0.4128 -1.3778  0.5079
 4934SOL    MW419510   0.329   6.185   1.193 -0.1644 -0.8741  0.1562
 4935SOL     OW19511   3.029   4.202   2.054 -0.1010 -0.0495 -0.1952
 4935SOL    HW219512   3.014   4.296   2.040 -2.4857 -0.2939  0.2510
 4935SOL    HW319513   3.081   4.174   1.979  0.0977  1.5039 -0.6656
 4935SOL    MW419514   3.034   4.211   2.042 -0.3895  0.1232 -0.1984
 4936SOL     OW19515   0.989   0.965   1.471  0.3264  0.3188  0.2569
 4936SOL    HW219516   0.941   1.036   1.429  0.1964  1.5255  2.2862
 4936SOL    HW319517   1.075   1.003   1.489  0.2551 -0.0086  1.3652
 4936SOL    MW419518   0.994   0.980   1.468  0.2998  0.4348  0.6708
 4937SOL     OW19519   5.394   0.235   5.335  0.5393 -0.1024 -0.1652
 4937SOL    HW219520   5.299   0.227   5.338  0.4527  0.4467 -1.0626
 4937SOL    HW319521   5.412   0.279   5.252  1.3441  3.4330  1.6905
 4937SOL    MW419522   5.384   0.239   5.324  0.6341  0.4365 -0.0388
 4938SOL     OW19523   0.674   4.766   4.504  0.0608 -0.5436  0.2927
 4938SOL    HW219524   0.696   4.776   4.597  1.0702 -0.5085  0.0684
 4938SOL    HW319525   0.744   4.813   4.459  0.6114 -2.1034 -0.5467
 4938SOL    MW419526   0.686   4.774   4.510  0.2666 -0.7447  0.1524
 4939SOL     OW19527   0.907   4.741   3.441  0.3724 -0.0764 -0.2709
 4939SOL    HW219528   0.820   4.780   3.437  0.2380  0.0324  2.1102
 4939SOL    HW319529   0.957   4.786   3.373 -1.0291  0.9110 -0.6954
 4939SOL    MW419530   0.902   4.752   3.431  0.1698  0.0682 -0.0128
 4940SOL     OW19531   5.633   3.620   6.022  0.0478 -0.5465  0.4688
 4940SOL    HW219532   5.604   3.704   6.058 -2.4549 -1.7265  1.4486
 4940SOL    HW319533   5.552   3.578   5.993  1.3324 -2.3030 -0.7559
 4940SOL    MW419534   5.618   3.625   6.023 -0.1129 -0.9339  0.4365
 4941SOL     OW19535   2.220   6.118   0.542 -0.0371  0.1939 -0.7417
 4941SOL    HW219536   2.303   6.072   0.529  1.1619  1.8416  0.6001
 4941SOL    HW319537   2.238   6.208   0.513 -1.5795  0.4207 -1.0772
 4941SOL    MW419538   2.233   6.124   0.536 -0.0824  0.4412 -0.6089
 4942SOL     OW19539   3.079   3.079   2.539  0.0904 -0.1018 -0.0232
 4942SOL    HW219540   3.132   3.105   2.614  0.8100  0.7402 -0.8069
 4942SOL    HW319541   2.997   3.129   2.550 -0.2856 -0.8634  0.8014
 4942SOL    MW419542   3.075   3.089   2.551  0.1357 -0.0912 -0.0178
 4943SOL     OW19543   4.612   3.140   2.186 -0.1715  0.0585 -0.2173
 4943SOL    HW219544   4.663   3.153   2.267  0.2120  0.8921 -0.5768
 4943SOL    HW319545   4.598   3.046   2.182  1.0435 -0.1639  0.0856
 4943SOL    MW419546   4.617   3.130   2.196  0.0394  0.1391 -0.2247
 4944SOL     OW19547   1.879   1.964   4.507 -0.3735  0.2362 -0.0409
 4944SOL    HW219548   1.955   1.949   4.564 -0.3865  1.8025  0.4299
 4944SOL    HW319549   1.876   1.886   4.451  1.1865 -0.1631  0.3699
 4944SOL    MW419550   1.889   1.952   4.507 -0.1694  0.3902  0.0754
 4945SOL     OW19551   5.130   0.917   4.992 -0.2264 -0.7894 -0.3236
 4945SOL    HW219552   5.175   0.993   4.955  0.2733 -0.1037  1.5619
 4945SOL    HW319553   5.041   0.922   4.956  0.2724 -0.2974 -1.5372
 4945SOL    MW419554   5.124   0.928   4.983 -0.0946 -0.6340 -0.2350
 4946SOL     OW19555   1.251   1.063   2.058  0.4925  0.6102 -0.2043
 4946SOL    HW219556   1.240   1.096   2.147 -1.7282  0.8983 -0.5285
 4946SOL    HW319557   1.267   1.142   2.005  0.7205  0.5563 -0.2173
 4946SOL    MW419558   1.252   1.078   2.062  0.2296  0.6411 -0.2488
 4947SOL     OW19559   4.907   1.449   4.875 -0.0262 -0.1350 -0.6405
 4947SOL    HW219560   4.892   1.497   4.956 -0.8615 -2.3615  0.6092
 4947SOL    HW319561   4.820   1.445   4.834 -0.2742 -1.7157 -0.0212
 4947SOL    MW419562   4.893   1.455   4.880 -0.1691 -0.6373 -0.3939
 4948SOL     OW19563   5.154   1.534   3.369 -0.3194  0.3068 -0.1344
 4948SOL    HW219564   5.232   1.499   3.326 -0.3678 -0.2881  0.2561
 4948SOL    HW319565   5.148   1.624   3.337 -0.5085 -0.2097 -1.5726
 4948SOL    MW419566   5.164   1.541   3.359 -0.3508  0.1601 -0.2727
 4949SOL     OW19567   0.908   5.136   0.385  0.2379 -0.0665 -0.1605
 4949SOL    HW219568   0.954   5.145   0.302  0.5547  1.7751  0.1638
 4949SOL    HW319569   0.938   5.053   0.421  1.3781 -0.0921 -1.1196
 4949SOL    MW419570   0.918   5.126   0.379  0.4301  0.1731 -0.2442
 4950SOL     OW19571   2.693   1.072   5.099 -0.7135  0.3250 -0.1877
 4950SOL    HW219572   2.785   1.050   5.086 -0.5528  0.4248  0.7317
 4950SOL    HW319573   2.679   1.063   5.193 -0.8832  3.1343  0.1362
 4950SOL    MW419574   2.703   1.068   5.110 -0.7147  0.7088 -0.0237
 4951SOL     OW19575   3.169   1.070   4.297 -0.0484  0.1942  0.3062
 4951SOL    HW219576   3.091   1.061   4.242 -1.7386  0.0383  2.6044
 4951SOL    HW319577   3.217   0.988   4.285 -0.6994 -0.0811 -0.4518
 4951SOL    MW419578   3.165   1.058   4.288 -0.3573  0.1373  0.5094
 4952SOL     OW19579   4.306   3.876   0.660 -0.2017  0.1559  0.2546
 4952SOL    HW219580   4.333   3.826   0.737  0.3815 -0.8680 -0.5862
 4952SOL    HW319581   4.255   3.814   0.608 -1.0271  0.9913  0.0591
 4952SOL    MW419582   4.303   3.861   0.664 -0.2337  0.1310  0.1179
 4953SOL     OW19583   0.367   6.029   4.656  0.3158 -0.2477 -0.1379
 4953SOL    HW219584   0.381   5.980   4.737 -0.2685 -0.5461 -0.2120
 4953SOL    HW319585   0.281   6.069   4.666  0.7450  0.6982 -0.1211
 4953SOL    MW419586   0.357   6.028   4.668  0.2954 -0.1623 -0.1455
 4954SOL     OW19587   0.304   2.551   1.834  0.4501  0.5654  0.0459
 4954SOL    HW219588   0.229   2.607   1.817  1.9715  2.6692 -0.2108
 4954SOL    HW319589   0.272   2.462   1.821 -2.3288  1.2729  1.3820
 4954SOL    MW419590   0.290   2.546   1.830  0.2842  0.9363  0.1883
 4955SOL     OW19591   6.153   1.088   5.607  0.1295  0.2690  0.6975
 4955SOL    HW219592   6.185   1.168   5.650  1.5475 -0.9482  2.0267
 4955SOL    HW319593   6.063   1.080   5.639 -0.0171  1.2858  0.5974
 4955SOL    MW419594   6.145   1.098   5.617  0.2972  0.2426  0.8596
 4956SOL     OW19595   4.941   0.206   3.737 -0.0379  0.3914  0.4549
 4956SOL    HW219596   4.869   0.178   3.680  1.2083 -2.5195  0.1170
 4956SOL    HW319597   4.909   0.190   3.826  0.3814 -1.7115  0.2870
 4956SOL    MW419598   4.927   0.200   3.741  0.1818 -0.2701  0.3882
 4957SOL     OW19599   0.241   5.049   1.138  0.6082  0.6050 -0.5347
 4957SOL    HW219600   0.213   5.141   1.138  1.4387  0.8680 -0.7317
 4957SOL    HW319601   0.336   5.053   1.147  0.8219 -0.1674 -2.0641
 4957SOL    MW419602   0.250   5.062   1.139  0.7460  0.5378 -0.7625
 4958SOL     OW19603   4.346   1.938   1.813 -0.3835 -0.2536 -0.2537
 4958SOL    HW219604   4.367   1.878   1.741 -0.8177  0.1707 -0.7437
 4958SOL    HW319605   4.379   2.023   1.784 -2.9989  0.5300 -1.2185
 4958SOL    MW419606   4.353   1.942   1.800 -0.7859 -0.0943 -0.4457
 4959SOL     OW19607   2.951   2.874   0.642  0.5900  0.3995 -0.1674
 4959SOL    HW219608   2.894   2.818   0.695  0.1854  0.8940 -0.0828
 4959SOL    HW319609   3.039   2.837   0.654  0.3463 -0.1242  0.0095
 4959SOL    MW419610   2.955   2.861   0.650  0.5045  0.3956 -0.1329
 4960SOL     OW19611   5.405   5.082   2.729  0.4351  0.2868  0.3945
 4960SOL    HW219612   5.490   5.037   2.731 -0.4393 -1.4347  1.9479
 4960SOL    HW319613   5.378   5.077   2.637  1.1065 -0.9762  0.2388
 4960SOL    MW419614   5.412   5.075   2.717  0.4084 -0.1070  0.5789
 4961SOL     OW19615   1.818   3.186   3.756  0.5691  0.0507  0.2058
 4961SOL    HW219616   1.820   3.092   3.772  2.0285  0.1504  0.8445
 4961SOL    HW319617   1.898   3.204   3.706 -0.4512  0.7529 -1.2264
 4961SOL    MW419618   1.829   3.176   3.752  0.6270  0.1565  0.1011
 4962SOL     OW19619   3.829   2.548   3.429  0.0969  0.1881 -0.5354
 4962SOL    HW219620   3.736   2.548   3.410  0.0761 -1.2955 -0.4910
 4962SOL    HW319621   3.835   2.537   3.523  0.3261  0.3563 -0.5270
 4962SOL    MW419622   3.818   2.547   3.439  0.1244  0.0146 -0.5285
 4963SOL     OW19623   3.682   4.302   0.477 -0.4635 -0.0889 -0.3824
 4963SOL    HW219624   3.775   4.281   0.481 -0.2807  0.7760  0.1951
 4963SOL    HW319625   3.675   4.387   0.521 -1.8089 -1.0994  1.4780
 4963SOL    MW419626   3.693   4.311   0.483 -0.6169 -0.1081 -0.0608
 4964SOL     OW19627   6.238   0.654   2.415  0.0760 -0.9234  0.1673
 4964SOL    HW219628   6.307   0.674   2.478 -0.7839 -2.5117  1.7497
 4964SOL    HW319629   6.283   0.640   2.332  1.4509 -0.2826  0.7870
 4964SOL    MW419630   6.253   0.655   2.412  0.1440 -1.0484  0.4579
 4965SOL     OW19631   4.455   3.908   2.040 -0.2951  0.2424  0.1149
 4965SOL    HW219632   4.474   3.897   2.133  1.0230  1.9262  0.0914
 4965SOL    HW319633   4.537   3.885   1.996 -0.7418 -0.0147 -0.6004
 4965SOL    MW419634   4.469   3.903   2.046 -0.1801  0.4306  0.0174
 4966SOL     OW19635   3.450   4.461   5.935 -0.2531 -0.4971  0.3724
 4966SOL    HW219636   3.503   4.481   5.858 -2.6785 -1.3855 -1.6484
 4966SOL    HW319637   3.430   4.547   5.972  1.3788 -0.0802  0.3833
 4966SOL    MW419638   3.455   4.475   5.930 -0.3578 -0.5593  0.1072
 4967SOL     OW19639   0.298   1.152   2.082  0.4590 -0.1840 -0.3989
 4967SOL    HW219640   0.217   1.202   2.092  0.5559  0.1749 -1.3481
 4967SOL    HW319641   0.320   1.160   1.989  2.1047  0.5427  0.0134
 4967SOL    MW419642   0.290   1.160   2.071  0.6889 -0.0407 -0.4697
 4968SOL     OW19643   3.245   3.377   5.366  0.3168 -0.1060  0.2603
 4968SOL    HW219644   3.277   3.296   5.405  0.8676 -0.2628 -0.5059
 4968SOL    HW319645   3.220   3.431   5.442  2.7293  0.1662  0.9716
 4968SOL    MW419646   3.246   3.374   5.381  0.7077 -0.0908  0.2531
 4969SOL     OW19647   5.770   0.993   1.892 -0.3029 -0.5405  0.3627
 4969SOL    HW219648   5.676   0.972   1.892 -0.5972  0.6427 -0.3305
 4969SOL    HW319649   5.780   1.055   1.964 -0.3734  0.5478 -0.5375
 4969SOL    MW419650   5.759   0.999   1.902 -0.3511 -0.2408  0.1525
 4970SOL     OW19651   1.660   1.237   3.090 -0.0884 -0.1261  0.5204
 4970SOL    HW219652   1.620   1.321   3.109  2.8990  1.3551  0.8170
 4970SOL    HW319653   1.604   1.198   3.023 -1.9549  1.7217  0.8968
 4970SOL    MW419654   1.647   1.243   3.084  0.0595  0.3131  0.6092
 4971SOL     OW19655   3.884   2.308   2.592 -0.4913 -0.0186  0.0779
 4971SOL    HW219656   3.874   2.216   2.568  0.1546 -0.1168  0.1567
 4971SOL    HW319657   3.957   2.339   2.538 -0.7343  0.4564  0.0200
 4971SOL    MW419658   3.893   2.300   2.582 -0.4381  0.0311  0.0806
 4972SOL     OW19659   5.104   1.968   6.095  0.1191  0.2044 -0.4895
 4972SOL    HW219660   5.094   1.879   6.128  1.2636 -0.5082 -1.9890
 4972SOL    HW319661   5.187   1.967   6.048 -1.2646  1.2387 -3.1085
 4972SOL    MW419662   5.113   1.956   6.093  0.0875  0.2468 -1.0329
 4973SOL     OW19663   0.507   5.422   3.073  0.0372 -0.7977  0.0782
 4973SOL    HW219664   0.487   5.502   3.122 -1.4026  0.8126 -2.8749
 4973SOL    HW319665   0.597   5.435   3.042 -0.2681 -0.1750 -0.5765
 4973SOL    MW419666   0.516   5.435   3.075 -0.1930 -0.5031 -0.3978
 4974SOL     OW19667   4.181   3.427   0.126 -0.2933  0.1307  0.4734
 4974SOL    HW219668   4.174   3.444   0.220  1.1326 -2.0446  1.0502
 4974SOL    HW319669   4.186   3.514   0.086 -0.2034  1.0927  2.4632
 4974SOL    MW419670   4.181   3.440   0.133 -0.0933 -0.0294  0.8120
 4975SOL     OW19671   6.424   0.358   3.232 -0.5847  0.2649  0.4510
 4975SOL    HW219672   6.343   0.386   3.276 -0.4287  1.1330  0.1975
 4975SOL    HW319673   6.493   0.410   3.273 -0.2264 -0.0780  0.2835
 4975SOL    MW419674   6.422   0.368   3.243 -0.5168  0.3342  0.3955
 4976SOL     OW19675   1.718   0.903   3.102  0.2252 -0.2259 -0.0748
 4976SOL    HW219676   1.708   0.814   3.136  1.0646 -0.7496 -1.1076
 4976SOL    HW319677   1.629   0.935   3.089 -0.0893 -1.2108 -0.3956
 4976SOL    MW419678   1.705   0.896   3.105  0.2945 -0.4249 -0.2534
 4977SOL     OW19679   0.828   2.841   4.720 -0.2347  0.2533  0.2488
 4977SOL    HW219680   0.755   2.781   4.713 -0.3058  0.3030  0.5436
 4977SOL    HW319681   0.905   2.790   4.694 -0.2427 -0.0717  0.8383
 4977SOL    MW419682   0.829   2.827   4.716 -0.2451  0.2170  0.3654
 4978SOL     OW19683   5.317   1.573   2.795 -0.4288 -0.3041  0.4624
 4978SOL    HW219684   5.286   1.646   2.848  3.9468  1.0279  1.6345
 4978SOL    HW319685   5.328   1.501   2.857  0.2384 -0.2352  0.4353
 4978SOL    MW419686   5.315   1.573   2.810  0.2366 -0.1193  0.6135
 4979SOL     OW19687   5.774   1.569   1.375  0.0577  0.2660 -0.3206
 4979SOL    HW219688   5.784   1.508   1.448  0.3757  0.4118 -0.2397
 4979SOL    HW319689   5.774   1.514   1.297 -3.4472 -0.2594 -0.1144
 4979SOL    MW419690   5.776   1.554   1.374 -0.3628  0.2159 -0.2827
 4980SOL     OW19691   3.647   5.191   1.046  0.1263 -0.3361  0.0025
 4980SOL    HW219692   3.698   5.262   1.007  0.5575 -0.4947  0.2771
 4980SOL    HW319693   3.564   5.192   0.997 -1.0718  2.2136  1.8373
 4980SOL    MW419694   3.643   5.201   1.034  0.0251 -0.0207  0.2808
 4981SOL     OW19695   4.685   1.081   3.155  0.5517 -0.5997  0.2683
 4981SOL    HW219696   4.764   1.034   3.181  0.1639 -2.3073 -1.4414
 4981SOL    HW319697   4.672   1.058   3.063  0.4612  3.1152 -0.8214
 4981SOL    MW419698   4.694   1.072   3.146  0.4886 -0.3349 -0.1010
 4982SOL     OW19699   3.037   5.549   3.447  0.4645 -0.1492 -0.2297
 4982SOL    HW219700   3.104   5.503   3.396 -1.4839 -3.2449 -0.2810
 4982SOL    HW319701   2.976   5.583   3.381  0.3962 -0.0223 -0.1004
 4982SOL    MW419702   3.038   5.547   3.431  0.1984 -0.5409 -0.2194
 4983SOL     OW19703   5.627   2.976   3.380 -0.1244 -0.5383 -0.2023
 4983SOL    HW219704   5.545   2.994   3.334 -0.2592 -0.3251  0.1177
 4983SOL    HW319705   5.602   2.920   3.453  0.3275 -2.2822 -1.3326
 4983SOL    MW419706   5.613   2.971   3.383 -0.0826 -0.7402 -0.3093
 4984SOL     OW19707   1.035   3.347   2.864  0.4785  0.5338 -0.0295
 4984SOL    HW219708   1.022   3.271   2.808 -0.7094  0.4907  0.2653
 4984SOL    HW319709   0.946   3.370   2.893  0.6687  2.7261 -1.0260
 4984SOL    MW419710   1.021   3.340   2.860  0.3469  0.8174 -0.1221
 4985SOL     OW19711   0.842   0.663   6.326  0.5948 -0.2044 -0.2200
 4985SOL    HW219712   0.821   0.594   6.263 -0.6463 -0.7868  0.7800
 4985SOL    HW319713   0.782   0.734   6.304  0.3823 -0.2851  0.0964
 4985SOL    MW419714   0.831   0.663   6.315  0.4030 -0.2919 -0.0463
 4986SOL     OW19715   5.696   1.578   5.699  0.1191 -0.3694 -0.2920
 4986SOL    HW219716   5.625   1.566   5.636 -0.3762  0.2735  0.1318
 4986SOL    HW319717   5.702   1.494   5.745 -1.9645  0.2476  1.2794
 4986SOL    MW419718   5.687   1.565   5.697 -0.2212 -0.2032 -0.0288
 4987SOL     OW19719   5.684   4.738   3.086 -0.3711  0.1551  0.0368
 4987SOL    HW219720   5.711   4.829   3.098 -0.8692  0.4669 -1.0951
 4987SOL    HW319721   5.759   4.696   3.045 -0.6342  0.3900 -0.6938
 4987SOL    MW419722   5.697   4.745   3.082 -0.4715  0.2272 -0.2089
 4988SOL     OW19723   5.282   5.652   5.134 -0.1472 -0.1387  0.6602
 4988SOL    HW219724   5.374   5.626   5.137 -0.2086 -0.3366  0.9545
 4988SOL    HW319725   5.269   5.702   5.214 -0.6224 -1.2687  1.3198
 4988SOL    MW419726   5.293   5.655   5.145 -0.2180 -0.3139  0.7861
 4989SOL     OW19727   5.618   5.845   5.074 -0.2652 -0.2158 -0.1246
 4989SOL    HW219728   5.697   5.875   5.030 -0.3602 -0.4443 -0.4544
 4989SOL    HW319729   5.547   5.874   5.017 -0.4678  0.6430  0.5392
 4989SOL    MW419730   5.619   5.853   5.061 -0.3044 -0.1326 -0.0805
 4990SOL     OW19731   6.066   2.364   5.475  0.1227  0.4194  0.7064
 4990SOL    HW219732   5.979   2.326   5.474  0.3085 -0.0036  0.4256
 4990SOL    HW319733   6.125   2.289   5.474  0.4969  0.7138 -0.3790
 4990SOL    MW419734   6.063   2.349   5.474  0.1966  0.4024  0.5262
 4991SOL     OW19735   2.769   1.066   3.331 -0.2703  0.3131  0.8974
 4991SOL    HW219736   2.851   1.036   3.293 -0.2522 -1.3047  2.0791
 4991SOL    HW319737   2.704   1.054   3.262  0.5247  2.1385 -0.2404
 4991SOL    MW419738   2.771   1.061   3.317 -0.1630  0.3405  0.9032
 4992SOL     OW19739   0.237   2.259   0.125 -0.3403  0.5590 -0.1288
 4992SOL    HW219740   0.182   2.181   0.138  0.1679  0.1854 -0.1737
 4992SOL    HW319741   0.275   2.247   0.038 -0.1328  0.7781 -0.0692
 4992SOL    MW419742   0.235   2.247   0.115 -0.2458  0.5386 -0.1268
 4993SOL     OW19743   3.010   1.719   2.759 -0.2668  0.1891 -0.6176
 4993SOL    HW219744   3.072   1.691   2.691 -0.8616  0.4645 -1.2741
 4993SOL    HW319745   2.926   1.725   2.714 -0.6038  0.6894  0.0731
 4993SOL    MW419746   3.007   1.716   2.744 -0.3897  0.2914 -0.6131
 4994SOL     OW19747   0.580   2.233   0.949 -0.4357  0.3424 -0.1656
 4994SOL    HW219748   0.494   2.256   0.983  0.3967 -0.5735  2.8283
 4994SOL    HW319749   0.630   2.315   0.951  0.7548 -0.1875  4.9129
 4994SOL    MW419750   0.575   2.247   0.954 -0.1688  0.1516  0.8995
 4995SOL     OW19751   3.864   5.137   5.013  0.3514  0.3491 -0.5443
 4995SOL    HW219752   3.954   5.166   4.996 -0.1488  1.1297 -2.0223
 4995SOL    HW319753   3.869   5.041   5.010  1.3320  0.3337  0.6156
 4995SOL    MW419754   3.877   5.128   5.010  0.4148  0.4501 -0.5863
 4996SOL     OW19755   3.034   2.533   1.845  0.0891 -0.3614 -0.8781
 4996SOL    HW219756   3.037   2.616   1.893 -0.2707 -1.2785  0.8093
 4996SOL    HW319757   3.013   2.558   1.756 -0.3721  1.3419 -0.3303
 4996SOL    MW419758   3.032   2.547   1.840 -0.0192 -0.2577 -0.5832
 4997SOL     OW19759   2.926   0.030   3.868 -0.0285  0.3231  0.0732
 4997SOL    HW219760   2.845   0.017   3.818  0.1604 -0.7197  0.0197
 4997SOL    HW319761   2.962   0.112   3.833  1.3698 -1.5431 -3.3710
 4997SOL    MW419762   2.920   0.039   3.857  0.1809 -0.0607 -0.3883
 4998SOL     OW19763   3.942   0.655   1.607  0.0309  0.0571 -1.2175
 4998SOL    HW219764   3.983   0.695   1.531  0.2497  2.4617  0.0500
 4998SOL    HW319765   3.963   0.715   1.679 -1.6340 -1.1977  0.3968
 4998SOL    MW419766   3.950   0.668   1.607 -0.1599  0.2088 -0.8373
 4999SOL     OW19767   2.335   3.475   0.312  0.5040 -0.2834  0.7794
 4999SOL    HW219768   2.386   3.514   0.383 -0.2943  1.6998  0.3244
 4999SOL    HW319769   2.247   3.464   0.348  0.5124 -0.8982  0.6272
 4999SOL    MW419770   2.330   3.479   0.326  0.3998 -0.1028  0.6993
 5000SOL     OW19771   4.829   2.231   4.976  0.3646 -0.7982  0.1398
 5000SOL    HW219772   4.768   2.249   5.048  1.2341  0.7345  0.5353
 5000SOL    HW319773   4.867   2.145   4.998  1.6258  0.2187  2.3019
 5000SOL    MW419774   4.826   2.222   4.988  0.6457 -0.4618  0.4772
 5001SOL     OW19775   1.031   5.473   1.311 -0.7800 -0.2808  0.0121
 5001SOL    HW219776   0.938   5.452   1.321 -1.0499  0.8868  0.1063
 5001SOL    HW319777   1.071   5.391   1.282 -2.1444 -0.3282 -1.9158
 5001SOL    MW419778   1.024   5.459   1.309 -0.9957 -0.1330 -0.2299
 5002SOL     OW19779   6.038   3.821   6.100  0.0406  0.2757 -0.4514
 5002SOL    HW219780   5.991   3.761   6.041 -1.2093  0.9159 -0.1420
 5002SOL    HW319781   6.093   3.874   6.042  1.5049 -1.4193 -0.6956
 5002SOL    MW419782   6.039   3.820   6.085  0.0689  0.1365 -0.4428
 5003SOL     OW19783   4.033   0.074   4.862 -0.2980  0.0893  0.3042
 5003SOL    HW219784   4.073   0.101   4.780 -1.2287 -0.0082 -0.1990
 5003SOL    HW319785   3.955   0.129   4.870 -0.4483 -0.2029  0.8992
 5003SOL    MW419786   4.028   0.085   4.852 -0.4406  0.0379  0.3163
 5004SOL     OW19787   3.824   2.818   2.805 -0.4781  0.1025  0.3750
 5004SOL    HW219788   3.834   2.909   2.777  1.9890 -0.9660 -2.7810
 5004SOL    HW319789   3.764   2.780   2.742  0.1180 -0.9210  0.4089
 5004SOL    MW419790   3.818   2.825   2.793 -0.0740 -0.1735 -0.0369
 5005SOL     OW19791   3.570   0.022   2.610  0.0725  0.2277 -0.1751
 5005SOL    HW219792   3.630   0.089   2.576  1.3154 -1.1399 -0.8320
 5005SOL    HW319793   3.514   0.000   2.536 -0.6887  0.9025  0.1932
 5005SOL    MW419794   3.571   0.028   2.596  0.1361  0.1363 -0.2132
 5006SOL     OW19795   3.899   4.163   2.993 -0.5590 -0.0633  0.3357
 5006SOL    HW219796   3.897   4.101   3.066  0.8736  1.0730  1.3928
 5006SOL    HW319797   3.992   4.173   2.972 -0.8730  0.5270 -0.8753
 5006SOL    MW419798   3.911   4.156   3.000 -0.4114  0.1645  0.3154
 5007SOL     OW19799   3.896   5.174   4.258  0.3971 -0.2992  0.2268
 5007SOL    HW219800   3.907   5.154   4.351  0.0366 -0.0669  0.3229
 5007SOL    HW319801   3.932   5.262   4.248 -1.1888  0.4256  0.5241
 5007SOL    MW419802   3.902   5.183   4.269  0.1403 -0.1729  0.2787
 5008SOL     OW19803   2.778   5.970   5.590 -0.1083 -0.4050  0.0347
 5008SOL    HW219804   2.743   5.903   5.649 -1.8967  0.4157 -0.0274
 5008SOL    HW319805   2.732   6.050   5.615 -0.4207  0.1073 -2.0139
 5008SOL    MW419806   2.768   5.971   5.601 -0.3854 -0.2291 -0.2438
 5009SOL     OW19807   4.298   0.856   5.937  0.3370  0.6112  0.1328
 5009SOL    HW219808   4.291   0.895   5.850 -0.5015 -1.1332 -0.6325
 5009SOL    HW319809   4.208   0.848   5.967  0.5152 -0.2839  0.4566
 5009SOL    MW419810   4.286   0.860   5.929  0.2499  0.2630  0.0746
 5010SOL     OW19811   0.268   2.466   0.469 -0.3747  0.0754  0.1446
 5010SOL    HW219812   0.199   2.415   0.511 -0.7185 -2.1509 -2.8026
 5010SOL    HW319813   0.336   2.402   0.449  0.8606  1.4966 -0.3755
 5010SOL    MW419814   0.268   2.451   0.472 -0.2571 -0.0308 -0.3129
 5011SOL     OW19815   3.821   2.463   4.540 -0.4449  0.0623 -0.1904
 5011SOL    HW219816   3.807   2.523   4.467  0.9654  1.1321  0.3770
 5011SOL    HW319817   3.783   2.508   4.615  0.2518  0.0720  0.1643
 5011SOL    MW419818   3.814   2.476   4.540 -0.1669  0.2047 -0.0687
 5012SOL     OW19819   0.897   2.883   3.981 -0.1553  0.1418 -0.2004
 5012SOL    HW219820   0.822   2.885   3.921  0.2792  0.4081 -0.7409
 5012SOL    HW319821   0.973   2.900   3.926  0.1253  1.7860  0.6087
 5012SOL    MW419822   0.897   2.886   3.966 -0.0610  0.3938 -0.1650
 5013SOL     OW19823   4.264   5.141   1.291 -0.0594  0.8344 -0.1077
 5013SOL    HW219824   4.280   5.117   1.382 -0.0625  1.3839  0.0416
 5013SOL    HW319825   4.209   5.070   1.257  0.3187  0.3961  0.1846
 5013SOL    MW419826   4.259   5.129   1.299 -0.0099  0.8491 -0.0494
 5014SOL     OW19827   4.079   0.115   5.598 -0.4555  0.8768 -0.4117
 5014SOL    HW219828   4.055   0.207   5.592 -0.2863  0.9523  0.0176
 5014SOL    HW319829   3.999   0.067   5.578 -1.1098  1.1195  1.4571
 5014SOL    MW419830   4.066   0.121   5.594 -0.5195  0.9188 -0.1085
 5015SOL     OW19831   1.365   0.096   2.235 -0.0199  0.5923  0.0516
 5015SOL    HW219832   1.370   0.048   2.318 -0.2766 -0.1537 -0.3543
 5015SOL    HW319833   1.272   0.116   2.223 -0.1231 -0.1807 -0.5321
 5015SOL    MW419834   1.354   0.092   2.244 -0.0674  0.3919 -0.0789
 5016SOL     OW19835   4.960   5.076   0.261 -0.3844  0.4428 -0.2410
 5016SOL    HW219836   4.930   5.098   0.349 -0.0769 -0.4423  0.0975
 5016SOL    HW319837   5.037   5.021   0.275 -1.2832 -1.0855 -1.0269
 5016SOL    MW419838   4.966   5.072   0.275 -0.4624  0.1244 -0.3000
 5017SOL     OW19839   0.186   0.044   0.897 -0.0576  0.3830  0.4193
 5017SOL    HW219840   0.134   0.066   0.820  1.2992  1.0791 -0.3408
 5017SOL    HW319841   0.274   0.029   0.862  0.1536 -1.3447  1.5831
 5017SOL    MW419842   0.191   0.045   0.882  0.1493  0.2469  0.4726
 5018SOL     OW19843   5.886   1.525   1.928  0.3566  0.0349 -0.2111
 5018SOL    HW219844   5.922   1.442   1.960 -1.1431 -0.3181  0.6673
 5018SOL    HW319845   5.793   1.507   1.918  0.1023  1.4735 -0.5285
 5018SOL    MW419846   5.879   1.511   1.931  0.1252  0.1781 -0.1371
 5019SOL     OW19847   3.032   0.621   0.194 -0.2985  0.1508  0.4286
 5019SOL    HW219848   3.082   0.625   0.112  0.5448 -0.4262  0.8886
 5019SOL    HW319849   2.967   0.690   0.186 -2.3872 -1.8916 -2.0827
 5019SOL    MW419850   3.030   0.631   0.182 -0.4628 -0.1948  0.1580
 5020SOL     OW19851   5.229   5.095   0.672  0.0695 -0.2900  0.5917
 5020SOL    HW219852   5.296   5.027   0.662  0.4149 -0.0967  1.4997
 5020SOL    HW319853   5.249   5.158   0.603  0.2175 -0.7270  0.2288
 5020SOL    MW419854   5.241   5.095   0.661  0.1346 -0.3221  0.6636
 5021SOL     OW19855   5.847   3.095   6.130  0.2830 -0.0317  0.0621
 5021SOL    HW219856   5.802   3.155   6.071 -1.4206  0.2637  1.6126
 5021SOL    HW319857   5.937   3.092   6.095 -0.5383  0.3986 -2.3085
 5021SOL    MW419858   5.853   3.103   6.117 -0.0501  0.0640 -0.0461
 5022SOL     OW19859   5.408   5.944   4.357 -0.6306 -0.6194 -0.9781
 5022SOL    HW219860   5.381   6.017   4.302  0.3970  0.3147 -0.2714
 5022SOL    HW319861   5.355   5.951   4.435 -1.0158 -1.0498 -1.1938
 5022SOL    MW419862   5.398   5.954   4.360 -0.5459 -0.5529 -0.9133
 5023SOL     OW19863   0.197   0.322   4.794 -0.4743 -0.2613 -0.1607
 5023SOL    HW219864   0.267   0.279   4.745 -1.3332 -0.6649 -1.0468
 5023SOL    HW319865   0.164   0.254   4.852  0.1382  0.0509  0.5788
 5023SOL    MW419866   0.202   0.307   4.795 -0.5068 -0.2734 -0.1801
 5024SOL     OW19867   0.271   3.009   3.297  0.3512  0.5506  0.4841
 5024SOL    HW219868   0.189   3.020   3.344 -1.2821 -3.2049 -1.0625
 5024SOL    HW319869   0.260   3.060   3.217 -0.8466 -0.4522 -0.0239
 5024SOL    MW419870   0.259   3.017   3.293 -0.0223 -0.0772  0.2130
 5025SOL     OW19871   1.447   0.887   2.156 -0.3574  0.6148  0.3793
 5025SOL    HW219872   1.395   0.937   2.092  0.6051  0.7068 -0.3758
 5025SOL    HW319873   1.537   0.898   2.125  0.0696  0.1619  1.4378
 5025SOL    MW419874   1.452   0.895   2.143 -0.1741  0.5672  0.4193
 5026SOL     OW19875   1.996   5.510   6.250 -0.0532 -0.0867  0.2926
 5026SOL    HW219876   2.075   5.462   6.224 -1.4125 -1.7120 -1.0116
 5026SOL    HW319877   1.973   5.474   6.335 -0.2282 -0.7140 -0.0124
 5026SOL    MW419878   2.004   5.499   6.258 -0.2556 -0.3839  0.0803
 5027SOL     OW19879   1.328   3.084   5.417  0.7581 -0.1400 -0.7819
 5027SOL    HW219880   1.326   3.179   5.410  1.7724 -0.2146 -2.8340
 5027SOL    HW319881   1.237   3.058   5.431  0.1912  1.0548 -2.0378
 5027SOL    MW419882   1.316   3.093   5.418  0.8171  0.0078 -1.2184
 5028SOL     OW19883   2.530   1.396   2.798 -0.7939  0.0035  0.1534
 5028SOL    HW219884   2.558   1.351   2.878 -0.3746 -0.9758 -0.5258
 5028SOL    HW319885   2.595   1.371   2.733 -0.7877  1.2772 -0.3576
 5028SOL    MW419886   2.542   1.387   2.800 -0.7377  0.0423 -0.0037
 5029SOL     OW19887   1.675   3.185   0.899  0.3117 -0.5699 -0.0840
 5029SOL    HW219888   1.702   3.269   0.860 -0.1630 -0.5733 -0.4284
 5029SOL    HW319889   1.580   3.184   0.890 -0.0137  0.1411  2.5473
 5029SOL    MW419890   1.666   3.196   0.893  0.2061 -0.4765  0.2177
 5030SOL     OW19891   4.748   4.196   0.201 -0.5654  0.8860  0.2035
 5030SOL    HW219892   4.824   4.196   0.259 -2.3646 -0.9669  2.7687
 5030SOL    HW319893   4.741   4.106   0.170 -1.3729  1.1877 -0.5453
 5030SOL    MW419894   4.758   4.184   0.204 -0.9093  0.6813  0.4432
 5031SOL     OW19895   1.200   6.189   5.651 -0.2442  0.1376 -0.4798
 5031SOL    HW219896   1.173   6.100   5.628  2.1302 -0.4553 -1.3329
 5031SOL    HW319897   1.291   6.195   5.620 -0.2194  2.7612 -0.1386
 5031SOL    MW419898   1.208   6.178   5.644  0.0724  0.4055 -0.5473
 5032SOL     OW19899   0.976   0.103   5.172 -0.3894  0.1345 -0.2071
 5032SOL    HW219900   1.060   0.137   5.142  0.0364  0.2757  1.0809
 5032SOL    HW319901   0.956   0.031   5.112  0.2662  0.6028 -0.9998
 5032SOL    MW419902   0.984   0.098   5.160 -0.2467  0.2149 -0.1418
 5033SOL     OW19903   3.141   3.938   1.333 -0.4665 -0.3164 -0.6868
 5033SOL    HW219904   3.132   3.934   1.238 -3.6322 -0.2756 -0.5006
 5033SOL    HW319905   3.086   4.013   1.359 -0.3932 -0.8597  1.2188
 5033SOL    MW419906   3.132   3.948   1.324 -0.8745 -0.3827 -0.4108
 5034SOL     OW19907   3.510   0.904   5.193 -0.3906  0.7289  0.2340
 5034SOL    HW219908   3.558   0.986   5.204 -1.0084  0.8871  1.9842
 5034SOL    HW319909   3.425   0.930   5.159 -0.5435  0.7944  0.6717
 5034SOL    MW419910   3.505   0.918   5.190 -0.4923  0.7584  0.5227
 5035SOL     OW19911   3.495   4.334   6.296 -0.3497  0.1417 -1.0522
 5035SOL    HW219912   3.452   4.378   6.370 -1.2686  0.0269 -1.4987
 5035SOL    HW319913   3.563   4.396   6.268 -0.0510  0.2281 -0.1798
 5035SOL    MW419914   3.498   4.348   6.302 -0.4315  0.1379 -0.9960
 5036SOL     OW19915   4.623   2.582   3.678  0.2601 -0.3241  0.2939
 5036SOL    HW219916   4.633   2.490   3.652 -0.6217 -0.2165 -0.4770
 5036SOL    HW319917   4.588   2.624   3.600  0.3206  0.6044  0.7643
 5036SOL    MW419918   4.620   2.575   3.664  0.1517 -0.1874  0.2542
 5037SOL     OW19919   6.243   3.872   2.618  0.8693 -0.5136 -0.0979
 5037SOL    HW219920   6.337   3.891   2.616  0.6815  0.4003 -1.0699
 5037SOL    HW319921   6.225   3.835   2.531  0.2595 -0.3520 -0.0418
 5037SOL    MW419922   6.253   3.869   2.606  0.7641 -0.3717 -0.2188
 5038SOL     OW19923   4.275   0.981   1.290  0.4368 -0.1418 -0.4675
 5038SOL    HW219924   4.370   0.986   1.278  0.6823  2.5831  1.4832
 5038SOL    HW319925   4.239   0.988   1.202  2.0301 -1.2726 -1.2442
 5038SOL    MW419926   4.283   0.983   1.277  0.6794  0.0685 -0.3126
 5039SOL     OW19927   3.430   0.690   3.498  0.2225 -0.1641 -0.2294
 5039SOL    HW219928   3.480   0.609   3.505 -1.4781 -1.1884  0.7010
 5039SOL    HW319929   3.496   0.760   3.506  1.4824 -1.4430  1.0988
 5039SOL    MW419930   3.446   0.689   3.500  0.1643 -0.4680  0.0686
 5040SOL     OW19931   5.014   3.724   1.117  0.2703 -0.2246  0.3023
 5040SOL    HW219932   5.004   3.743   1.023 -1.2649  0.3572  0.5526
 5040SOL    HW319933   5.011   3.629   1.122  0.3922 -0.2634 -0.2351
 5040SOL    MW419934   5.012   3.714   1.105  0.0838 -0.1530  0.2645
 5041SOL     OW19935   4.585   1.930   4.947 -0.4806  0.1701  0.8217
 5041SOL    HW219936   4.557   2.014   4.984 -0.4765  0.5114  0.0692
 5041SOL    HW319937   4.516   1.908   4.884  0.6069  0.7226 -0.6144
 5041SOL    MW419938   4.572   1.938   4.944 -0.3366  0.2880  0.5329
 5042SOL     OW19939   1.902   3.846   1.340 -0.0056  0.1406 -0.3845
 5042SOL    HW219940   1.839   3.825   1.408 -0.0462  1.1122 -0.1056
 5042SOL    HW319941   1.919   3.940   1.351  1.2466 -0.0398 -0.6564
 5042SOL    MW419942   1.896   3.856   1.350  0.1543  0.2450 -0.3836
 5043SOL     OW19943   2.701   5.822   2.934 -0.1366 -0.1904 -0.1128
 5043SOL    HW219944   2.706   5.756   2.865  0.1152 -0.0388 -0.2430
 5043SOL    HW319945   2.793   5.840   2.956 -0.2104 -0.0619  0.0896
 5043SOL    MW419946   2.714   5.816   2.928 -0.1131 -0.1534 -0.1032
 5044SOL     OW19947   4.260   5.935   4.653 -0.3256  0.8187 -0.0502
 5044SOL    HW219948   4.267   5.874   4.726 -1.1519  1.3848  0.5262
 5044SOL    HW319949   4.350   5.964   4.637 -0.1174  0.5993  0.6754
 5044SOL    MW419950   4.272   5.931   4.661 -0.4071  0.8645  0.1216
 5045SOL     OW19951   0.569   0.322   6.302  0.0503  0.6025 -0.1145
 5045SOL    HW219952   0.562   0.247   6.242  1.5813  0.0108  0.3848
 5045SOL    HW319953   0.617   0.388   6.251  1.1894  0.1680  0.3598
 5045SOL    MW419954   0.575   0.321   6.287  0.4026  0.4671  0.0139
 5046SOL     OW19955   0.118   0.867   1.253  0.1987 -0.3350 -0.2968
 5046SOL    HW219956   0.113   0.822   1.338  0.0957  2.3975  1.2439
 5046SOL    HW319957   0.040   0.921   1.250  1.0331  0.8523 -1.3884
 5046SOL    MW419958   0.107   0.868   1.264  0.2952  0.1821 -0.2376
 5047SOL     OW19959   0.093   1.935   4.612 -0.2692 -0.7189  0.0206
 5047SOL    HW219960   0.139   1.894   4.539 -0.6956  0.5437 -0.9988
 5047SOL    HW319961   0.002   1.910   4.600 -0.2350 -1.1566  0.5996
 5047SOL    MW419962   0.087   1.927   4.601 -0.3209 -0.6100 -0.0375
 5048SOL     OW19963   4.235   4.485   3.306  0.2904  0.4228 -0.1721
 5048SOL    HW219964   4.249   4.460   3.215 -2.1222 -2.0837  0.0309
 5048SOL    HW319965   4.308   4.445   3.354 -0.0107 -0.7380 -0.6656
 5048SOL    MW419966   4.247   4.477   3.300 -0.0677 -0.0610 -0.2105
 5049SOL     OW19967   5.796   0.991   0.097  0.0955  0.7473  0.2968
 5049SOL    HW219968   5.876   1.040   0.115  2.4505 -1.2811 -3.3586
 5049SOL    HW319969   5.750   1.044   0.032  0.3016  0.2844 -0.2330
 5049SOL    MW419970   5.800   1.004   0.091  0.4334  0.4186 -0.2554
 5050SOL     OW19971   4.556   2.502   4.974 -0.0197 -0.4439  0.0049
 5050SOL    HW219972   4.493   2.560   5.016 -1.0594 -1.0855 -0.6408
 5050SOL    HW319973   4.620   2.482   5.042 -0.0666  0.8371  0.4450
 5050SOL    MW419974   4.556   2.507   4.988 -0.1631 -0.3596 -0.0222
 5051SOL     OW19975   1.783   0.972   2.443 -0.3592  0.3972 -0.1665
 5051SOL    HW219976   1.761   1.059   2.475 -0.1040  0.5469 -0.3848
 5051SOL    HW319977   1.831   0.931   2.515  0.6243  0.9029 -0.5148
 5051SOL    MW419978   1.787   0.978   2.457 -0.1958  0.4837 -0.2413
 5052SOL     OW19979   5.868   5.433   1.138 -0.1222  0.0565  0.3915
 5052SOL    HW219980   5.776   5.418   1.116  0.0910 -0.6087 -0.0557
 5052SOL    HW319981   5.915   5.363   1.094  0.6317  0.5435  0.4081
 5052SOL    MW419982   5.862   5.422   1.129  0.0054  0.0330  0.3347
 5053SOL     OW19983   5.364   0.661   4.283  0.5936 -0.4553  0.4637
 5053SOL    HW219984   5.451   0.629   4.308  0.5701  0.7110  2.2568
 5053SOL    HW319985   5.361   0.750   4.317 -0.7745  0.0652 -0.9117
 5053SOL    MW419986   5.375   0.669   4.291  0.4100 -0.2327  0.5188
 5054SOL     OW19987   0.234   0.990   3.731 -0.4871  0.5046  0.0146
 5054SOL    HW219988   0.318   1.027   3.759 -0.1115  0.2274 -0.7199
 5054SOL    HW319989   0.177   1.001   3.807  0.7354 -1.0295  1.2307
 5054SOL    MW419990   0.238   0.997   3.745 -0.2763  0.2656  0.0781
 5055SOL     OW19991   4.722   0.460   4.691  0.5951  0.2242 -0.7616
 5055SOL    HW219992   4.780   0.413   4.750  0.0536 -0.0081 -0.4038
 5055SOL    HW319993   4.671   0.392   4.647 -0.6871  0.4663  0.2725
 5055SOL    MW419994   4.723   0.445   4.693  0.3545  0.2255 -0.5780
 5056SOL     OW19995   3.863   0.633   0.158 -0.1822 -0.1927 -0.6487
 5056SOL    HW219996   3.874   0.627   0.063  2.4534 -0.8970 -0.3587
 5056SOL    HW319997   3.946   0.668   0.190 -1.2013  0.5511  1.3849
 5056SOL    MW419998   3.875   0.637   0.150  0.0311 -0.1875 -0.3421
 5057SOL     OW19999   5.230   2.216   0.696  0.3329  0.3445  0.3357
 5057SOL    HW220000   5.259   2.139   0.744  3.4290  1.1489 -0.0198
 5057SOL    HW320001   5.277   2.289   0.738 -1.1973  1.8180 -0.4007
 5057SOL    MW420002   5.240   2.216   0.708  0.5395  0.6450  0.1916
 5058SOL     OW20003   2.292   4.065   5.292 -0.0830  0.7588  0.1684
 5058SOL    HW220004   2.364   4.080   5.353  0.2425  0.2605 -0.0850
 5058SOL    HW320005   2.330   4.011   5.222 -0.9132 -0.2391  0.4670
 5058SOL    MW420006   2.306   4.060   5.291 -0.1496  0.5614  0.1743
 5059SOL     OW20007   3.508   3.644   1.233 -0.4237  0.2359  0.0374
 5059SOL    HW220008   3.510   3.711   1.301  2.4649 -0.6291  0.9146
 5059SOL    HW320009   3.589   3.657   1.184 -1.1869 -0.8456 -1.5785
 5059SOL    MW420010   3.519   3.655   1.236 -0.1433 -0.0209 -0.0601
 5060SOL     OW20011   2.521   4.936   1.889  0.0718 -0.1657 -0.2142
 5060SOL    HW220012   2.547   4.853   1.849 -0.5653 -0.2305 -0.5077
 5060SOL    HW320013   2.441   4.915   1.938 -0.5511  0.4363 -0.9471
 5060SOL    MW420014   2.514   4.922   1.890 -0.0945 -0.0948 -0.3496
 5061SOL     OW20015   2.190   3.611   5.341 -0.5798 -0.4339 -0.8342
 5061SOL    HW220016   2.212   3.518   5.339 -1.3456 -0.7252  1.1764
 5061SOL    HW320017   2.171   3.628   5.434  1.6468  2.2379 -0.7559
 5061SOL    MW420018   2.190   3.601   5.353 -0.3871 -0.1198 -0.5586
 5062SOL     OW20019   4.655   4.613   3.328  0.0206 -0.5978  0.4164
 5062SOL    HW220020   4.735   4.564   3.348 -0.4410 -1.9731 -0.8928
 5062SOL    HW320021   4.655   4.685   3.390  0.9413 -2.0449  2.1997
 5062SOL    MW420022   4.666   4.616   3.339  0.0812 -0.9702  0.4789
 5063SOL     OW20023   5.972   3.672   2.235 -0.1740  0.1749  0.1758
 5063SOL    HW220024   5.967   3.576   2.239 -1.0516  0.2424  1.1596
 5063SOL    HW320025   5.899   3.697   2.180  1.3447  0.2097 -1.9654
 5063SOL    MW420026   5.962   3.662   2.228 -0.0894  0.1884  0.0231
 5064SOL     OW20027   2.544   5.722   1.867 -0.9474 -0.0813 -0.0521
 5064SOL    HW220028   2.481   5.757   1.804 -3.4889 -2.0310  1.2214
 5064SOL    HW320029   2.594   5.657   1.818  0.6605  1.9143 -1.2383
 5064SOL    MW420030   2.542   5.718   1.853 -1.0705 -0.0752 -0.0406
 5065SOL     OW20031   5.647   5.304   3.189 -0.0642  0.2149  0.5205
 5065SOL    HW220032   5.554   5.322   3.171  0.2286  0.4255 -0.8882
 5065SOL    HW320033   5.691   5.318   3.105  1.2158 -0.1448  1.1065
 5065SOL    MW420034   5.640   5.308   3.175  0.1433  0.1953  0.4119
 5066SOL     OW20035   6.052   0.061   1.681  0.2845  0.2160  0.5057
 5066SOL    HW220036   5.965   0.103   1.684  0.6489  1.3182 -1.7099
 5066SOL    HW320037   6.035  -0.028   1.650 -0.1037  0.1911  0.7816
 5066SOL    MW420038   6.038   0.055   1.677  0.2814  0.3581  0.2498
 5067SOL     OW20039   2.981   0.879   5.522 -0.2808 -0.2524 -0.1570
 5067SOL    HW220040   3.004   0.882   5.429  0.1926  0.0965 -0.0307
 5067SOL    HW320041   3.039   0.942   5.563 -0.9126  0.0487  0.2910
 5067SOL    MW420042   2.992   0.887   5.515 -0.3017 -0.1666 -0.0813
 5068SOL     OW20043   1.015   5.660   3.331 -0.4647 -0.2095 -0.3385
 5068SOL    HW220044   0.925   5.647   3.361 -0.2757 -0.9260 -0.0477
 5068SOL    HW320045   1.048   5.733   3.385 -1.2438  0.8822 -1.2992
 5068SOL    MW420046   1.007   5.668   3.342 -0.5425 -0.1600 -0.4269
 5069SOL     OW20047   2.171   2.019   4.264  0.3129 -0.1662  0.2414
 5069SOL    HW220048   2.131   2.106   4.257  1.9796  0.5901 -0.6325
 5069SOL    HW320049   2.102   1.959   4.236 -1.0946  0.7924  1.5016
 5069SOL    MW420050   2.157   2.023   4.259  0.3471  0.0600  0.2923
 5070SOL     OW20051   3.704   0.578   1.514  0.5080  0.0461  0.0712
 5070SOL    HW220052   3.738   0.495   1.479 -0.4342  0.2847 -1.5098
 5070SOL    HW320053   3.773   0.610   1.571  1.6315 -0.9805 -0.6555
 5070SOL    MW420054   3.717   0.571   1.517  0.5319 -0.0579 -0.2333
 5071SOL     OW20055   1.933   0.981   2.177 -0.0320  0.1959 -0.5626
 5071SOL    HW220056   1.956   0.994   2.269 -0.1770  0.1927 -0.5259
 5071SOL    HW320057   1.968   0.894   2.156 -0.7225 -0.1568 -0.2764
 5071SOL    MW420058   1.940   0.971   2.186 -0.1422  0.1489 -0.5200
 5072SOL     OW20059   3.831   4.238   4.612 -0.3204  0.2740  0.8366
 5072SOL    HW220060   3.829   4.326   4.575  0.0113  0.2274  0.7024
 5072SOL    HW320061   3.922   4.224   4.637 -0.0961 -0.4911 -0.2898
 5072SOL    MW420062   3.842   4.248   4.610 -0.2470  0.1669  0.6703
 5073SOL     OW20063   0.393   2.047   1.242 -0.0694 -0.2557 -0.5862
 5073SOL    HW220064   0.326   1.980   1.233 -0.1535 -0.1040 -1.1211
 5073SOL    HW320065   0.474   2.003   1.217 -0.3055  0.1723 -2.2577
 5073SOL    MW420066   0.395   2.032   1.237 -0.1117 -0.1792 -0.8773
 5074SOL     OW20067   6.114   4.941   5.360 -0.7880  0.0663  0.3626
 5074SOL    HW220068   6.169   4.880   5.409 -1.6015  0.0383  1.2774
 5074SOL    HW320069   6.135   5.027   5.397 -0.3702  0.2310 -0.2391
 5074SOL    MW420070   6.124   4.944   5.371 -0.8402  0.0844  0.4039
 5075SOL     OW20071   3.012   3.779   0.623 -1.1421  0.0984  0.1714
 5075SOL    HW220072   3.104   3.800   0.639 -0.7252 -1.0974 -0.4819
 5075SOL    HW320073   2.967   3.804   0.703 -0.4534  1.7894  0.0782
 5075SOL    MW420074   3.018   3.785   0.636 -0.9962  0.1637  0.0729
 5076SOL     OW20075   1.964   5.212   0.226  0.7959  0.1930  0.0217
 5076SOL    HW220076   1.894   5.153   0.200  0.4030  0.4793  0.4017
 5076SOL    HW320077   1.983   5.188   0.317  2.3049 -0.9488 -0.5682
 5076SOL    MW420078   1.957   5.201   0.235  0.9431  0.0801 -0.0060
 5077SOL     OW20079   5.120   1.583   5.915 -0.1955  0.2338 -0.2248
 5077SOL    HW220080   5.123   1.623   6.002  0.0734  0.3472 -0.2848
 5077SOL    HW320081   5.212   1.565   5.894 -0.3928 -1.8819  0.4845
 5077SOL    MW420082   5.133   1.586   5.924 -0.1860 -0.0304 -0.1392
 5078SOL     OW20083   0.899   1.422   4.215  0.5687 -0.0950 -0.3654
 5078SOL    HW220084   0.953   1.351   4.252  0.0954 -0.5834 -0.6042
 5078SOL    HW320085   0.881   1.394   4.126 -0.4852 -0.1637 -0.1400
 5078SOL    MW420086   0.904   1.409   4.208  0.3672 -0.1685 -0.3672
 5079SOL     OW20087   0.355   3.572   0.397  0.9006 -0.4161 -0.0935
 5079SOL    HW220088   0.357   3.482   0.431  1.7735 -0.1715  0.5164
 5079SOL    HW320089   0.444   3.590   0.369  0.4220 -0.2405 -1.6141
 5079SOL    MW420090   0.367   3.562   0.398  0.9526 -0.3606 -0.2136
 5080SOL     OW20091   2.111   0.386   3.666 -0.2051  0.5707 -0.1659
 5080SOL    HW220092   2.162   0.404   3.745 -0.3844  1.1310 -0.1762
 5080SOL    HW320093   2.176   0.371   3.598 -0.0447  1.9390 -0.3330
 5080SOL    MW420094   2.126   0.386   3.667 -0.2076  0.8252 -0.1893
 5081SOL     OW20095   1.228   0.065   1.367  0.6289  0.0195  0.2357
 5081SOL    HW220096   1.197   0.109   1.447 -0.7639 -1.6248  0.6479
 5081SOL    HW320097   1.315   0.033   1.391 -0.0630 -1.0986  1.3850
 5081SOL    MW420098   1.236   0.067   1.381  0.3538 -0.3450  0.4417
 5082SOL     OW20099   0.121   4.892   3.083 -0.2136 -0.0601  0.5249
 5082SOL    HW220100   0.029   4.909   3.104 -1.1483 -1.3826 -2.0920
 5082SOL    HW320101   0.141   4.809   3.127 -0.6766 -0.4218  0.0592
 5082SOL    MW420102   0.111   4.883   3.092 -0.3981 -0.2823  0.1182
 5083SOL     OW20103   5.568   5.330   2.321 -0.3011  0.7123  0.3231
 5083SOL    HW220104   5.528   5.374   2.396 -1.2400  1.6149 -0.6661
 5083SOL    HW320105   5.533   5.377   2.245  0.5124 -0.2692 -0.6827
 5083SOL    MW420106   5.558   5.342   2.321 -0.3176  0.7019  0.0599
 5084SOL     OW20107   2.748   0.858   4.098  0.5017  0.4007  0.1548
 5084SOL    HW220108   2.752   0.938   4.046  1.1413  0.3843  0.1700
 5084SOL    HW320109   2.655   0.835   4.101  0.3648  0.9102 -0.2012
 5084SOL    MW420110   2.736   0.865   4.092  0.5681  0.4658  0.1099
 5085SOL     OW20111   5.712   5.856   3.519  0.5750  0.5197  0.0132
 5085SOL    HW220112   5.648   5.890   3.458  0.5175 -0.7561 -0.6647
 5085SOL    HW320113   5.666   5.855   3.604  0.4317  1.6360 -0.0372
 5085SOL    MW420114   5.698   5.860   3.522  0.5485  0.4986 -0.0829
 5086SOL     OW20115   4.849   5.540   4.868  0.4413  0.4865 -0.0642
 5086SOL    HW220116   4.808   5.460   4.899 -2.1553  1.9484  0.5267
 5086SOL    HW320117   4.933   5.543   4.914 -0.5427 -0.6052  1.9115
 5086SOL    MW420118   4.855   5.530   4.878 -0.0311  0.5353  0.2744
 5087SOL     OW20119   0.822   5.313   0.062  0.0680 -0.7143 -0.0663
 5087SOL    HW220120   0.885   5.249   0.092 -0.6358 -1.0641  0.7117
 5087SOL    HW320121   0.819   5.302  -0.033  1.7210 -0.1610 -0.2072
 5087SOL    MW420122   0.830   5.303   0.053  0.1932 -0.6875  0.0178
 5088SOL     OW20123   0.205   2.530   3.460  0.2619 -0.1349 -0.0937
 5088SOL    HW220124   0.182   2.570   3.376  0.9830  0.4806 -0.0061
 5088SOL    HW320125   0.257   2.597   3.505  0.6515 -0.8051  0.4685
 5088SOL    MW420126   0.209   2.544   3.455  0.4084 -0.1421 -0.0080
 5089SOL     OW20127   1.417   0.687   3.404 -0.0137 -0.3103  0.6415
 5089SOL    HW220128   1.490   0.747   3.419 -1.2127  0.9985  1.5809
 5089SOL    HW320129   1.444   0.605   3.445  0.7695  0.2786  1.3290
 5089SOL    MW420130   1.430   0.684   3.412 -0.0686 -0.0599  0.8562
 5090SOL     OW20131   0.431   3.141   3.704 -0.4528 -0.1526  0.2542
 5090SOL    HW220132   0.344   3.135   3.665 -0.3952  2.9151 -0.6474
 5090SOL    HW320133   0.417   3.125   3.798 -1.9080 -0.1967  0.0454
 5090SOL    MW420134   0.418   3.138   3.711 -0.6372  0.2463  0.1077
 5091SOL     OW20135   4.961   5.944   3.330  0.2245 -0.0034 -0.1926
 5091SOL    HW220136   4.895   5.892   3.375  0.8773 -1.5109 -0.9343
 5091SOL    HW320137   4.978   5.897   3.249  3.4392 -0.6168  0.7056
 5091SOL    MW420138   4.955   5.931   3.325  0.7348 -0.2832 -0.1720
 5092SOL     OW20139   0.581   3.430   6.294 -0.5002  0.2079  0.4419
 5092SOL    HW220140   0.627   3.348   6.315  2.2998  1.6471  0.3939
 5092SOL    HW320141   0.519   3.405   6.225 -0.1060 -1.9480  0.7775
 5092SOL    MW420142   0.579   3.416   6.288 -0.0787  0.1134  0.4798
 5093SOL     OW20143   4.881   3.596   5.429  0.5254  0.0425  0.0574
 5093SOL    HW220144   4.807   3.634   5.382  1.6094  1.0314 -0.9262
 5093SOL    HW320145   4.843   3.524   5.480 -1.4254  1.6847  1.0682
 5093SOL    MW420146   4.866   3.592   5.430  0.4110  0.3896  0.0610
 5094SOL     OW20147   5.471   1.216   1.718 -0.9121 -0.7049  0.7834
 5094SOL    HW220148   5.486   1.128   1.682 -0.8054 -0.3234 -0.1396
 5094SOL    HW320149   5.390   1.246   1.676 -0.0515  0.2900 -0.2363
 5094SOL    MW420150   5.462   1.208   1.708 -0.7844 -0.5233  0.5271
 5095SOL     OW20151   6.272   6.177   0.508  0.2586  0.2799 -0.0222
 5095SOL    HW220152   6.345   6.192   0.568 -0.9025 -0.7843  1.7788
 5095SOL    HW320153   6.194   6.189   0.563 -0.8796 -0.3860 -1.4255
 5095SOL    MW420154   6.271   6.181   0.523 -0.0448  0.0516  0.0303
 5096SOL     OW20155   4.823   3.096   0.105  0.1727 -0.4285  0.8930
 5096SOL    HW220156   4.821   3.162   0.174 -1.4531 -0.8785  1.3370
 5096SOL    HW320157   4.832   3.146   0.024 -0.1298  0.2821  1.2849
 5096SOL    MW420158   4.824   3.111   0.103 -0.0817 -0.3941  1.0033
 5097SOL     OW20159   5.337   2.310   2.039  0.6721 -0.6490 -0.1953
 5097SOL    HW220160   5.347   2.216   2.054  1.3305 -0.5344  0.1124
 5097SOL    HW320161   5.398   2.329   1.968  2.9955  0.1165  1.8906
 5097SOL    MW420162   5.346   2.300   2.031  1.0655 -0.5329  0.1205
 5098SOL     OW20163   0.092   2.766   5.304  0.1975 -0.4813  0.4954
 5098SOL    HW220164   0.143   2.812   5.370 -1.1626  0.6603  0.8011
 5098SOL    HW320165   0.075   2.680   5.342 -0.9479  0.3075  1.8729
 5098SOL    MW420166   0.096   2.760   5.317 -0.1331 -0.2266  0.7175
 5099SOL     OW20167   0.731   0.649   1.914  0.0172 -0.2790  0.2967
 5099SOL    HW220168   0.756   0.741   1.925 -2.7266  0.7852 -1.3173
 5099SOL    HW320169   0.678   0.629   1.992 -0.7257  0.0699 -0.1040
 5099SOL    MW420170   0.727   0.659   1.926 -0.4428 -0.0926  0.0309
 5100SOL     OW20171   5.097   4.340   2.074  0.5816  0.4752 -0.0444
 5100SOL    HW220172   5.024   4.337   2.012  0.4846 -0.4496  0.1001
 5100SOL    HW320173   5.170   4.299   2.028  0.2340 -1.1523  0.7782
 5100SOL    MW420174   5.097   4.334   2.060  0.5229  0.1384  0.0832
 5101SOL     OW20175   5.263   2.606   6.040  0.4991  0.0655  1.0210
 5101SOL    HW220176   5.314   2.537   6.082  0.4698 -0.1406  0.7251
 5101SOL    HW320177   5.201   2.559   5.984  1.2065  0.3432 -0.0308
 5101SOL    MW420178   5.261   2.591   6.038  0.5886  0.0749  0.8432
 5102SOL     OW20179   2.989   1.088   3.159  0.2099  0.4764 -0.3682
 5102SOL    HW220180   3.005   1.050   3.073 -2.4491 -1.2849 -0.2055
 5102SOL    HW320181   2.941   1.168   3.142  1.3277  1.1288 -0.5434
 5102SOL    MW420182   2.985   1.093   3.146  0.0066  0.3301 -0.3699
 5103SOL     OW20183   5.081   2.426   3.000 -0.3251 -0.3659 -0.0761
 5103SOL    HW220184   5.138   2.349   2.992 -1.4046 -1.0231 -2.3886
 5103SOL    HW320185   4.996   2.395   2.967 -1.1886  1.4267  0.3722
 5103SOL    MW420186   5.077   2.411   2.995 -0.5814 -0.2161 -0.3221
 5104SOL     OW20187   3.985   3.490   0.690 -0.1842 -0.2861  0.8864
 5104SOL    HW220188   4.041   3.437   0.748 -0.0529 -2.1385 -0.8136
 5104SOL    HW320189   3.940   3.425   0.635  0.6201  1.3442 -1.9072
 5104SOL    MW420190   3.986   3.474   0.690 -0.0608 -0.3154  0.2936
 5105SOL     OW20191   0.296   4.694   0.014  0.1081 -0.5336 -0.4630
 5105SOL    HW220192   0.205   4.668   0.030  0.4704 -0.7637  1.3532
 5105SOL    HW320193   0.348   4.636   0.069  1.3899 -0.4996 -1.5964
 5105SOL    MW420194   0.291   4.683   0.023  0.3251 -0.5595 -0.3729
 5106SOL     OW20195   4.334   0.185   2.882 -0.2452  0.4391 -0.4866
 5106SOL    HW220196   4.309   0.187   2.790  0.1630  1.4806 -0.5828
 5106SOL    HW320197   4.356   0.094   2.899 -1.4752 -0.0013 -1.1007
 5106SOL    MW420198   4.333   0.173   2.872 -0.3536  0.5184 -0.5803
 5107SOL     OW20199   6.151   6.419   5.132  0.0340  0.3340  0.1669
 5107SOL    HW220200   6.063   6.456   5.143  0.2622  0.8098  0.4368
 5107SOL    HW320201   6.202   6.490   5.092  0.3797  0.1753  0.3204
 5107SOL    MW420202   6.146   6.433   5.128  0.1097  0.3759  0.2228
 5108SOL     OW20203   5.889   1.747   3.014 -0.4740  0.7278  0.5054
 5108SOL    HW220204   5.982   1.769   3.007 -0.3345 -0.0916 -0.6729
 5108SOL    HW320205   5.888   1.651   3.018 -1.1557  0.7794  3.3057
 5108SOL    MW420206   5.901   1.737   3.013 -0.5455  0.6265  0.7194
 5109SOL     OW20207   4.948   5.463   5.942 -0.3625  0.2360  0.4539
 5109SOL    HW220208   4.979   5.516   5.868 -0.2320  1.6191  1.4724
 5109SOL    HW320209   4.948   5.522   6.016  2.3003 -1.8176  2.2789
 5109SOL    MW420210   4.952   5.478   5.942  0.0060  0.1475  0.8291
 5110SOL     OW20211   6.261   2.792   1.980  0.4166  0.3293 -0.1154
 5110SOL    HW220212   6.238   2.833   1.896  0.0591  0.1129 -0.1280
 5110SOL    HW320213   6.206   2.713   1.983  0.3161  0.4161  0.3938
 5110SOL    MW420214   6.251   2.787   1.969  0.3562  0.3122 -0.0499
 5111SOL     OW20215   5.223   2.899   4.199  0.0330 -0.4106  0.1678
 5111SOL    HW220216   5.291   2.833   4.213  0.0723 -0.3604  0.2120
 5111SOL    HW320217   5.186   2.877   4.113  0.8286  0.1901 -0.3516
 5111SOL    MW420218   5.227   2.888   4.189  0.1432 -0.3247  0.1051
 5112SOL     OW20219   1.206   6.422   6.069  0.9210  0.1888  0.1268
 5112SOL    HW220220   1.266   6.487   6.032  0.0707  0.4215 -0.9042
 5112SOL    HW320221   1.237   6.338   6.034  0.3272  0.3707 -0.8682
 5112SOL    MW420222   1.218   6.419   6.059  0.7304  0.2435 -0.1405
 5113SOL     OW20223   2.665   5.397   3.023 -0.2593  0.1293  0.3586
 5113SOL    HW220224   2.638   5.403   3.115  1.2277 -4.1937  1.3023
 5113SOL    HW320225   2.639   5.309   2.996  1.4762  0.3996 -2.6440
 5113SOL    MW420226   2.658   5.386   3.031  0.1659 -0.4054  0.0870
 5114SOL     OW20227   5.315   0.944   3.860 -0.1609 -0.1244  0.3476
 5114SOL    HW220228   5.384   0.988   3.911 -0.7992 -0.5006  1.5828
 5114SOL    HW320229   5.259   0.904   3.926 -1.8801  0.6188 -0.6173
 5114SOL    MW420230   5.317   0.944   3.876 -0.4720 -0.0760  0.3833
 5115SOL     OW20231   0.421   0.487   4.908  0.1820 -0.2023  0.4514
 5115SOL    HW220232   0.331   0.458   4.897 -0.0960  0.5044  0.8304
 5115SOL    HW320233   0.443   0.467   4.999  0.7891 -1.3805  0.0715
 5115SOL    MW420234   0.412   0.481   4.918  0.2254 -0.2645  0.4513
 5116SOL     OW20235   2.880   6.146   1.190  0.3609  0.4447 -0.3024
 5116SOL    HW220236   2.965   6.184   1.212 -0.0056  0.5718  0.9408
 5116SOL    HW320237   2.852   6.194   1.112  0.2510  2.2204  0.8023
 5116SOL    MW420238   2.887   6.157   1.182  0.2981  0.6958  0.0074
 5117SOL     OW20239   2.731   1.178   1.604  0.0009  0.2674  0.3074
 5117SOL    HW220240   2.711   1.246   1.540 -0.9328  0.0925  0.3894
 5117SOL    HW320241   2.790   1.220   1.666  1.8567  0.0963 -1.2766
 5117SOL    MW420242   2.736   1.192   1.604  0.1225  0.2218  0.1092
 5118SOL     OW20243   0.188   3.557   6.411  0.2742  0.0916 -0.4764
 5118SOL    HW220244   0.274   3.580   6.447 -0.4770  1.3253  0.6293
 5118SOL    HW320245   0.127   3.617   6.455 -1.3281 -1.6290 -0.2243
 5118SOL    MW420246   0.191   3.568   6.422 -0.0363  0.0274 -0.2973
 5119SOL     OW20247   0.766   4.994   5.446  0.2331  0.1605  0.2764
 5119SOL    HW220248   0.817   5.067   5.413 -1.1057  1.2563  0.5415
 5119SOL    HW320249   0.699   5.034   5.501 -1.8556 -1.0456 -1.2225
 5119SOL    MW420250   0.764   5.009   5.449 -0.2191  0.1459  0.1136
 5120SOL     OW20251   6.071   0.866   2.359 -0.4530 -0.2763 -0.0243
 5120SOL    HW220252   6.086   0.903   2.447  1.9996  2.4802 -1.4122
 5120SOL    HW320253   6.124   0.786   2.358  0.2750  0.1689  0.7259
 5120SOL    MW420254   6.080   0.860   2.371 -0.0333  0.1461 -0.1085
 5121SOL     OW20255   5.236   3.868   4.582  0.3091  0.4105  0.1289
 5121SOL    HW220256   5.213   3.960   4.588  0.4335  0.3625  1.8383
 5121SOL    HW320257   5.312   3.858   4.640  1.8173 -0.3280 -1.8618
 5121SOL    MW420258   5.243   3.879   4.590  0.5245  0.3067  0.0917
 5122SOL     OW20259   3.020   2.091   5.613  0.2856 -0.1676 -0.7163
 5122SOL    HW220260   3.014   2.170   5.559  0.0225 -0.8633 -1.7280
 5122SOL    HW320261   2.941   2.094   5.668  0.7961  0.7898  0.0117
 5122SOL    MW420262   3.009   2.102   5.613  0.3183 -0.1331 -0.7537
 5123SOL     OW20263   4.149   1.125   2.349  0.5173 -0.4808  0.0038
 5123SOL    HW220264   4.122   1.211   2.380 -0.8744 -0.8373 -0.1405
 5123SOL    HW320265   4.182   1.081   2.428  0.1755 -0.2054  0.3040
 5123SOL    MW420266   4.150   1.130   2.364  0.2886 -0.4915  0.0243
 5124SOL     OW20267   6.204   1.454   3.446 -0.7949  0.6268  0.2879
 5124SOL    HW220268   6.296   1.466   3.470 -0.1760 -2.6013  0.1004
 5124SOL    HW320269   6.155   1.472   3.526  0.2327  0.2427  1.0207
 5124SOL    MW420270   6.210   1.458   3.460 -0.5777  0.1502  0.3598
 5125SOL     OW20271   5.922   6.248   2.789 -0.0901  0.3649 -0.0150
 5125SOL    HW220272   5.850   6.262   2.727 -0.9769  1.2945  1.1712
 5125SOL    HW320273   5.999   6.233   2.734 -0.8036  1.3452 -1.3404
 5125SOL    MW420274   5.923   6.248   2.774 -0.3012  0.6169 -0.0334
 5126SOL     OW20275   4.706   4.844   0.384 -0.2024 -0.7411  0.0127
 5126SOL    HW220276   4.786   4.793   0.367 -0.3740 -1.3119  0.8859
 5126SOL    HW320277   4.641   4.779   0.408 -0.7793 -0.2162 -0.1188
 5126SOL    MW420278   4.708   4.829   0.385 -0.3012 -0.7472  0.1106
 5127SOL     OW20279   3.977   1.885   3.346  0.3383 -0.1538  0.0889
 5127SOL    HW220280   4.035   1.809   3.344  1.1674  0.3827  1.5610
 5127SOL    HW320281   4.037   1.960   3.338 -0.5385  0.3571 -2.2105
 5127SOL    MW420282   3.993   1.885   3.345  0.3320 -0.0156 -0.0203
 5128SOL     OW20283   5.373   3.162   2.866 -0.3059  0.0135  0.2850
 5128SOL    HW220284   5.310   3.107   2.912  0.6987 -1.8041 -0.3931
 5128SOL    HW320285   5.345   3.251   2.884 -0.3862 -0.5806  3.8062
 5128SOL    MW420286   5.361   3.166   2.874 -0.1839 -0.3047  0.6601
 5129SOL     OW20287   4.839   6.106   0.848  0.0341 -0.0298  0.3539
 5129SOL    HW220288   4.820   6.038   0.913  1.0141  0.3479  1.0608
 5129SOL    HW320289   4.756   6.118   0.801 -0.4447 -0.9411  0.9425
 5129SOL    MW420290   4.825   6.099   0.851  0.1002 -0.1002  0.5248
 5130SOL     OW20291   3.375   0.609   2.955  0.0752 -0.4674 -0.4491
 5130SOL    HW220292   3.368   0.688   3.009  2.9174  1.0868 -2.0958
 5130SOL    HW320293   3.339   0.539   3.009 -0.6117  1.5973  1.9429
 5130SOL    MW420294   3.370   0.610   2.969  0.3596  0.0101 -0.3507
 5131SOL     OW20295   2.564   4.445   6.295 -0.2624 -0.6027 -0.5116
 5131SOL    HW220296   2.575   4.408   6.382 -2.2464 -0.4860 -0.1628
 5131SOL    HW320297   2.645   4.493   6.279  0.9667 -2.2621  0.4111
 5131SOL    MW420298   2.576   4.446   6.304 -0.3620 -0.8062 -0.3438
 5132SOL     OW20299   2.885   1.649   3.416 -0.2130  0.1824 -0.5567
 5132SOL    HW220300   2.813   1.679   3.361 -0.1685  1.0336 -0.1595
 5132SOL    HW320301   2.842   1.602   3.488 -0.4942  1.9278  0.4694
 5132SOL    MW420302   2.870   1.647   3.418 -0.2443  0.5250 -0.3689
 5133SOL     OW20303   1.893   3.135   3.054  0.3226 -0.0162  0.2342
 5133SOL    HW220304   1.826   3.178   3.001 -0.0679 -1.2441 -0.3178
 5133SOL    HW320305   1.951   3.094   2.991  0.1561 -1.0460  0.7306
 5133SOL    MW420306   1.892   3.135   3.039  0.2491 -0.3141  0.2268
 5134SOL     OW20307   1.562   2.674   3.393 -0.4032 -0.3032  0.5020
 5134SOL    HW220308   1.500   2.636   3.332 -0.5013 -0.7247  0.8605
 5134SOL    HW320309   1.540   2.767   3.395 -0.0127 -0.1786 -0.5528
 5134SOL    MW420310   1.551   2.682   3.385 -0.3646 -0.3423  0.4101
 5135SOL     OW20311   0.707   4.512   1.072  0.6854 -0.7642 -0.0501
 5135SOL    HW220312   0.632   4.458   1.048 -1.8439  1.1566  2.8066
 5135SOL    HW320313   0.669   4.596   1.098  3.8724  0.4398  1.2625
 5135SOL    MW420314   0.692   4.516   1.072  0.7722 -0.3519  0.5000
 5136SOL     OW20315   2.666   6.157   0.519 -0.0435  0.0365 -1.0655
 5136SOL    HW220316   2.731   6.161   0.589  0.1446  0.0972 -1.2434
 5136SOL    HW320317   2.628   6.069   0.527 -0.2807  0.1734 -0.6568
 5136SOL    MW420318   2.669   6.146   0.530 -0.0500  0.0626 -1.0350
 5137SOL     OW20319   0.565   6.198   2.305  0.0635 -0.1834  0.2392
 5137SOL    HW220320   0.523   6.167   2.224  0.0524 -0.5141  0.3676
 5137SOL    HW320321   0.559   6.293   2.301  2.7325  0.0295 -1.6196
 5137SOL    MW420322   0.559   6.206   2.294  0.4142 -0.1990  0.0109
 5138SOL     OW20323   3.577   3.192   4.881  0.2051  0.3408  0.3353
 5138SOL    HW220324   3.505   3.157   4.829 -0.3479 -0.2172  1.4437
 5138SOL    HW320325   3.608   3.268   4.831 -0.1118 -0.3397 -0.9359
 5138SOL    MW420326   3.572   3.198   4.868  0.0904  0.1774  0.3138
 5139SOL     OW20327   3.661   5.963   4.995  0.8334 -0.4913 -0.8506
 5139SOL    HW220328   3.747   6.004   5.004  1.5052 -1.8205 -0.8531
 5139SOL    HW320329   3.671   5.903   4.921  0.1477 -1.2125 -0.3804
 5139SOL    MW420330   3.674   5.960   4.986  0.8315 -0.7618 -0.7889
 5140SOL     OW20331   5.401   5.713   2.050  0.0560  0.6412  0.3332
 5140SOL    HW220332   5.474   5.764   2.083  0.2194  0.9964 -0.5793
 5140SOL    HW320333   5.422   5.695   1.959 -0.7887  0.3759  0.1783
 5140SOL    MW420334   5.413   5.717   2.042 -0.0339  0.6530  0.1923
 5141SOL     OW20335   0.046   4.428   2.817  0.4760  0.2888 -0.1611
 5141SOL    HW220336  -0.006   4.348   2.813 -2.0080  1.6384  2.3154
 5141SOL    HW320337   0.016   4.480   2.743 -1.0947  0.6594  0.7038
 5141SOL    MW420338   0.035   4.425   2.806 -0.0590  0.5158  0.2797
 5142SOL     OW20339   5.214   0.748   2.824 -0.5588  0.3972  0.3090
 5142SOL    HW220340   5.292   0.770   2.876 -1.3003  0.1143  1.5918
 5142SOL    HW320341   5.177   0.832   2.798  0.6007  0.5375 -1.0277
 5142SOL    MW420342   5.219   0.762   2.828 -0.5036  0.3783  0.3019
 5143SOL     OW20343   0.328   0.255   3.270 -0.6040 -0.1665 -0.7727
 5143SOL    HW220344   0.370   0.337   3.243 -1.6557  1.0189  0.9917
 5143SOL    HW320345   0.301   0.271   3.361 -1.9517 -2.0360 -0.7968
 5143SOL    MW420346   0.330   0.268   3.279 -0.9205 -0.2568 -0.5431
 5144SOL     OW20347   3.386   1.988   3.469 -0.4120  0.0064  0.4346
 5144SOL    HW220348   3.408   1.996   3.376 -1.3559  1.9247  0.3399
 5144SOL    HW320349   3.292   2.002   3.474 -0.7809 -2.3753  1.4672
 5144SOL    MW420350   3.377   1.991   3.458 -0.5852 -0.0548  0.5584
 5145SOL     OW20351   3.610   4.749   5.595  0.6037 -0.1893 -0.0282
 5145SOL    HW220352   3.553   4.751   5.518  0.9729 -0.3713 -0.3047
 5145SOL    HW320353   3.617   4.656   5.617 -0.0830 -0.0934  0.6628
 5145SOL    MW420354   3.603   4.737   5.588  0.5618 -0.2007  0.0265
 5146SOL     OW20355   2.011   5.296   0.759 -0.1265  0.1173  0.3137
 5146SOL    HW220356   1.984   5.247   0.681  1.7724  1.1723 -1.0956
 5146SOL    HW320357   1.968   5.251   0.831 -1.5397 -1.2408 -1.2762
 5146SOL    MW420358   2.002   5.283   0.758 -0.0624  0.0773 -0.0820
 5147SOL     OW20359   1.789   4.119   2.130 -0.2032  0.3242  0.4686
 5147SOL    HW220360   1.796   4.112   2.035  1.3052  1.3081  0.4629
 5147SOL    HW320361   1.706   4.077   2.152 -1.3780  1.4950 -1.4398
 5147SOL    MW420362   1.779   4.113   2.120 -0.1592  0.6085  0.2160
 5148SOL     OW20363   4.533   0.834   1.619 -0.0868  1.0266 -0.1139
 5148SOL    HW220364   4.547   0.910   1.563  0.7127  1.4759  0.6726
 5148SOL    HW320365   4.620   0.801   1.638 -0.4335 -0.2182 -0.5956
 5148SOL    MW420366   4.546   0.840   1.614 -0.0271  0.9217 -0.0737
 5149SOL     OW20367   0.518   0.826   2.702  0.1612  0.5321  0.1501
 5149SOL    HW220368   0.607   0.848   2.728  0.4189 -0.6874  0.3736
 5149SOL    HW320369   0.518   0.730   2.696 -0.5448  0.6221 -2.0196
 5149SOL    MW420370   0.529   0.816   2.705  0.1021  0.3831 -0.1066
 5150SOL     OW20371   4.375   5.734   2.623  0.4201  0.7060 -0.2865
 5150SOL    HW220372   4.336   5.815   2.590 -1.6642 -0.2499 -0.3272
 5150SOL    HW320373   4.340   5.725   2.711  2.3634  0.9083  0.5557
 5150SOL    MW420374   4.366   5.743   2.630  0.4015  0.6065 -0.1808
 5151SOL     OW20375   0.338   0.766   5.014  0.2855 -0.2204 -0.2543
 5151SOL    HW220376   0.278   0.804   5.078  1.2084  0.7603  0.0697
 5151SOL    HW320377   0.405   0.722   5.066  0.5522 -0.1912 -0.5669
 5151SOL    MW420378   0.339   0.766   5.029  0.4425 -0.0872 -0.2528
 5152SOL     OW20379   2.221   3.871   2.309 -0.2419  0.1189 -0.1047
 5152SOL    HW220380   2.202   3.838   2.397  1.1999  0.7372  0.4880
 5152SOL    HW320381   2.136   3.898   2.274 -1.1689 -2.1874  0.1951
 5152SOL    MW420382   2.207   3.870   2.316 -0.1740 -0.1038  0.0131
 5153SOL     OW20383   4.479   5.952   3.205 -0.3716 -0.2271 -0.2257
 5153SOL    HW220384   4.521   5.869   3.228 -0.3537  0.3255  1.9947
 5153SOL    HW320385   4.545   6.018   3.226 -0.9103  0.4263 -0.5803
 5153SOL    MW420386   4.493   5.950   3.211 -0.4403 -0.0680  0.0205
 5154SOL     OW20387   3.168   2.063   0.713 -0.0511 -0.4965  0.1056
 5154SOL    HW220388   3.163   2.090   0.805  0.4060  2.3518 -0.6172
 5154SOL    HW320389   3.254   2.021   0.705  0.1853 -0.1695  0.8435
 5154SOL    MW420390   3.179   2.061   0.724  0.0404 -0.0775  0.1076
 5155SOL     OW20391   4.508   5.122   2.431  0.1101 -0.2695 -0.0567
 5155SOL    HW220392   4.489   5.043   2.481  0.5367 -0.4851 -0.2297
 5155SOL    HW320393   4.601   5.139   2.447  0.9918 -1.8651 -2.8685
 5155SOL    MW420394   4.518   5.114   2.439  0.2827 -0.5085 -0.4505
 5156SOL     OW20395   2.400   5.633   6.344 -0.5738 -0.0990 -0.1382
 5156SOL    HW220396   2.381   5.713   6.295 -1.5709 -1.4712 -2.1119
 5156SOL    HW320397   2.468   5.589   6.293  0.9426  0.0617  1.6318
 5156SOL    MW420398   2.407   5.638   6.331 -0.5053 -0.2588 -0.1651
 5157SOL     OW20399   0.915   6.374   5.414 -0.0065 -0.4885  0.2326
 5157SOL    HW220400   0.905   6.280   5.428  2.8875 -1.0342 -0.6780
 5157SOL    HW320401   0.891   6.388   5.323 -1.0422 -0.1955  0.5355
 5157SOL    MW420402   0.910   6.364   5.404  0.2387 -0.5219  0.1524
 5158SOL     OW20403   2.285   3.045   3.446 -0.2198 -0.8689  0.1615
 5158SOL    HW220404   2.191   3.049   3.425 -0.4533 -1.7849  0.9211
 5158SOL    HW320405   2.302   2.951   3.458  1.4527 -1.0746 -2.7412
 5158SOL    MW420406   2.275   3.033   3.445 -0.0299 -1.0169 -0.1212
 5159SOL     OW20407   3.441   1.825   2.191  0.3540  0.3167 -0.2902
 5159SOL    HW220408   3.529   1.787   2.197  0.1540 -0.2832 -0.8922
 5159SOL    HW320409   3.447   1.908   2.237  0.4478 -1.0820  2.3791
 5159SOL    MW420410   3.454   1.831   2.198  0.3400  0.0530 -0.0174
 5160SOL     OW20411   6.151   0.336   3.025 -0.3507  0.2400 -0.2497
 5160SOL    HW220412   6.079   0.348   3.086  1.1536  0.7363  1.5007
 5160SOL    HW320413   6.189   0.252   3.049 -0.8057 -0.4166 -1.7102
 5160SOL    MW420414   6.146   0.327   3.036 -0.2123  0.2189 -0.2114
 5161SOL     OW20415   3.206   5.482   4.703 -0.2208  0.0985  0.0501
 5161SOL    HW220416   3.175   5.402   4.745 -1.6014  0.4968 -0.1488
 5161SOL    HW320417   3.269   5.519   4.766 -1.8647  0.4296  1.5998
 5161SOL    MW420418   3.210   5.476   4.717 -0.6199  0.1947  0.2283
 5162SOL     OW20419   3.375   5.036   1.978  0.5968 -0.1464 -0.3969
 5162SOL    HW220420   3.446   5.080   1.931  0.8447 -1.0523 -0.8942
 5162SOL    HW320421   3.341   4.972   1.916  1.8541 -2.3654  1.0517
 5162SOL    MW420422   3.380   5.033   1.964  0.7954 -0.5587 -0.2714
 5163SOL     OW20423   3.878   0.439   1.946  0.5761 -0.1373  0.2572
 5163SOL    HW220424   3.804   0.497   1.929 -0.1680 -0.7971  1.1007
 5163SOL    HW320425   3.927   0.437   1.864 -0.7859 -0.3027 -0.5833
 5163SOL    MW420426   3.875   0.446   1.933  0.2982 -0.2462  0.2576
 5164SOL     OW20427   2.514   5.488   4.563  0.2568  0.0208  0.1298
 5164SOL    HW220428   2.506   5.392   4.564 -1.0251  0.0662  2.6289
 5164SOL    HW320429   2.510   5.513   4.655 -0.7694  2.5970 -0.5340
 5164SOL    MW420430   2.513   5.479   4.575 -0.0477  0.3667  0.3720
 5165SOL     OW20431   2.029   5.178   0.487 -0.1789 -0.2534 -0.1928
 5165SOL    HW220432   2.054   5.100   0.537  1.0137 -1.4870 -2.5144
 5165SOL    HW320433   2.110   5.229   0.480 -0.6122  0.4873  0.1125
 5165SOL    MW420434   2.043   5.174   0.493 -0.0787 -0.3185 -0.4588
 5166SOL     OW20435   0.567   2.685   3.147 -0.6174  0.0532 -0.0165
 5166SOL    HW220436   0.607   2.763   3.185  1.2784 -1.4536  1.2876
 5166SOL    HW320437   0.583   2.694   3.053  1.5096  0.2629  0.3204
 5166SOL    MW420438   0.574   2.696   3.139 -0.0867 -0.1179  0.2000
 5167SOL     OW20439   5.997   4.802   4.129  0.4693  0.2736 -0.1584
 5167SOL    HW220440   5.940   4.873   4.158  0.3961  0.6118 -1.1000
 5167SOL    HW320441   5.980   4.731   4.191  0.2830  0.9574  0.5774
 5167SOL    MW420442   5.987   4.802   4.141  0.4351  0.4085 -0.1856
 5168SOL     OW20443   0.993   4.261   5.306 -0.5509 -0.3953 -0.0470
 5168SOL    HW220444   0.996   4.199   5.233  0.7300  0.7433 -1.0117
 5168SOL    HW320445   1.079   4.253   5.347 -0.6215  0.2767  0.2343
 5168SOL    MW420446   1.005   4.251   5.302 -0.3912 -0.1564 -0.1372
 5169SOL     OW20447   3.599   2.307   3.237  0.0460  0.1868 -0.5041
 5169SOL    HW220448   3.521   2.252   3.242 -0.5564  1.1157  1.3659
 5169SOL    HW320449   3.667   2.257   3.281  0.6759 -0.7643 -2.4160
 5169SOL    MW420450   3.598   2.293   3.243  0.0496  0.1838 -0.5097
 5170SOL     OW20451   4.795   0.198   2.053  0.3195  0.6773 -0.2461
 5170SOL    HW220452   4.727   0.178   1.989 -1.5216  2.1915  1.1357
 5170SOL    HW320453   4.802   0.119   2.107 -0.2532  0.4482 -0.5005
 5170SOL    MW420454   4.787   0.185   2.052  0.0011  0.8468 -0.0974
 5171SOL     OW20455   0.460   2.111   2.658  0.7603 -0.2504 -0.4611
 5171SOL    HW220456   0.442   2.040   2.719 -1.4920 -1.6723 -2.6096
 5171SOL    HW320457   0.414   2.187   2.695  3.1727  0.2350  1.8360
 5171SOL    MW420458   0.452   2.112   2.671  0.7814 -0.3739 -0.4415
 5172SOL     OW20459   1.230   2.752   1.460 -0.0416 -0.2941 -0.6261
 5172SOL    HW220460   1.207   2.822   1.398  1.5633  0.4111 -0.4692
 5172SOL    HW320461   1.239   2.674   1.405 -1.4055 -0.3152 -0.8644
 5172SOL    MW420462   1.228   2.751   1.444 -0.0098 -0.2039 -0.6368
 5173SOL     OW20463   4.909   4.673   0.277 -0.0723  0.1370 -0.1072
 5173SOL    HW220464   4.857   4.603   0.238  0.6693  0.1418 -1.1308
 5173SOL    HW320465   4.983   4.684   0.218  0.7271  0.6217  0.9400
 5173SOL    MW420466   4.912   4.665   0.264  0.1310  0.2016 -0.1041
 5174SOL     OW20467   2.842   4.928   1.559 -0.1165  0.5401 -0.3604
 5174SOL    HW220468   2.827   5.009   1.511 -1.5148  1.4160  1.4205
 5174SOL    HW320469   2.904   4.952   1.628 -1.0057  0.2671  0.5560
 5174SOL    MW420470   2.849   4.942   1.562 -0.4183  0.6197 -0.0045
 5175SOL     OW20471   2.925   4.476   3.029 -0.3956  0.1672 -0.3071
 5175SOL    HW220472   2.982   4.531   2.976 -0.0025  1.0544  0.9767
 5175SOL    HW320473   2.984   4.414   3.071 -0.5441  0.2296 -0.0035
 5175SOL    MW420474   2.941   4.475   3.028 -0.3633  0.2925 -0.0976
 5176SOL     OW20475   2.358   4.658   0.404 -0.0304  0.2030 -0.7370
 5176SOL    HW220476   2.285   4.597   0.398  0.4453 -0.5437  0.7126
 5176SOL    HW320477   2.330   4.734   0.352 -0.9967 -0.8618 -1.8238
 5176SOL    MW420478   2.344   4.660   0.396 -0.0951 -0.0360 -0.6891
 5177SOL     OW20479   5.612   4.909   0.220  0.8932  1.1254 -0.0150
 5177SOL    HW220480   5.596   4.997   0.185  1.5640  1.1208 -0.3619
 5177SOL    HW320481   5.672   4.869   0.157 -0.8981 -0.3020 -0.9007
 5177SOL    MW420482   5.618   4.916   0.207  0.7454  0.9365 -0.1776
 5178SOL     OW20483   4.287   5.928   0.587  0.3269 -0.2611 -0.2413
 5178SOL    HW220484   4.343   5.911   0.663  0.6483 -1.2972 -0.6917
 5178SOL    HW320485   4.205   5.884   0.609  0.0134  0.4282 -0.0033
 5178SOL    MW420486   4.284   5.920   0.600  0.3279 -0.3069 -0.2694
 5179SOL     OW20487   3.828   6.021   0.033 -0.0202  0.3132  0.0076
 5179SOL    HW220488   3.858   5.996  -0.054 -1.7134 -0.6552 -0.3476
 5179SOL    HW320489   3.898   5.991   0.092  0.5256 -0.2640 -0.9031
 5179SOL    MW420490   3.841   6.013   0.029 -0.1716  0.1092 -0.1594
 5180SOL     OW20491   4.132   2.299   2.182 -0.0303 -0.4932 -0.0047
 5180SOL    HW220492   4.151   2.223   2.127  0.3695 -0.0792 -0.4489
 5180SOL    HW320493   4.127   2.263   2.271  2.4478 -0.7538  0.1261
 5180SOL    MW420494   4.134   2.284   2.186  0.3494 -0.4730 -0.0460
 5181SOL     OW20495   1.079   4.727   4.164 -0.1502 -0.2902 -0.2131
 5181SOL    HW220496   1.130   4.752   4.241 -0.3091  1.2255 -0.5729
 5181SOL    HW320497   1.112   4.640   4.141  0.9576 -0.1298  0.6649
 5181SOL    MW420498   1.090   4.718   4.171 -0.0250 -0.0691 -0.1447
 5182SOL     OW20499   4.817   3.286   1.347 -0.3664 -0.1430 -0.3931
 5182SOL    HW220500   4.820   3.266   1.441 -1.4622  0.5034 -0.1968
 5182SOL    HW320501   4.846   3.206   1.304 -1.2748 -0.9620  0.4653
 5182SOL    MW420502   4.821   3.273   1.354 -0.6308 -0.1658 -0.2540
 5183SOL     OW20503   0.845   0.940   0.418  0.0487  0.1284 -0.0597
 5183SOL    HW220504   0.903   0.909   0.349  1.0956 -0.7167  1.1688
 5183SOL    HW320505   0.776   0.987   0.371  1.8107  1.3743 -1.5655
 5183SOL    MW420506   0.843   0.942   0.403  0.4193  0.1812 -0.0963
 5184SOL     OW20507   0.455   2.959   3.020  0.2914 -0.9231  0.1579
 5184SOL    HW220508   0.387   2.891   3.021 -0.0924 -0.5538 -0.5752
 5184SOL    HW320509   0.526   2.922   2.968 -0.2971 -0.4121 -1.0364
 5184SOL    MW420510   0.455   2.945   3.014  0.1631 -0.8070 -0.0964
 5185SOL     OW20511   3.705   1.986   1.658  0.2259  0.8181 -0.4451
 5185SOL    HW220512   3.732   2.066   1.614  0.5792  0.7578 -0.3396
 5185SOL    HW320513   3.653   1.939   1.593 -0.0626  1.1787 -0.4742
 5185SOL    MW420514   3.702   1.990   1.644  0.2344  0.8577 -0.4350
 5186SOL     OW20515   2.111   0.739   6.316  0.0550 -0.4051  0.1120
 5186SOL    HW220516   2.095   0.805   6.384 -0.6787 -1.0713  0.6078
 5186SOL    HW320517   2.024   0.706   6.294  0.2219  0.1382 -1.5314
 5186SOL    MW420518   2.097   0.743   6.322 -0.0198 -0.4213 -0.0394
 5187SOL     OW20519   0.910   4.425   3.753  0.0713  0.9198  0.0591
 5187SOL    HW220520   0.963   4.350   3.725 -2.1895 -0.4311 -0.7833
 5187SOL    HW320521   0.919   4.425   3.849  3.4810  2.2581 -0.1289
 5187SOL    MW420522   0.918   4.415   3.762  0.2229  0.9182 -0.0769
 5188SOL     OW20523   1.174   1.324   1.904 -0.0681  0.4242  0.1586
 5188SOL    HW220524   1.174   1.408   1.951  0.1422  0.6644 -0.2678
 5188SOL    HW320525   1.081   1.300   1.899 -0.1031  0.4500  0.5959
 5188SOL    MW420526   1.161   1.332   1.910 -0.0450  0.4593  0.1600
 5189SOL     OW20527   2.013   4.183   4.499  0.0334  0.2406  0.2438
 5189SOL    HW220528   1.967   4.242   4.558  0.8170  0.0597  1.0596
 5189SOL    HW320529   2.070   4.241   4.448 -0.3360  0.3493 -0.0536
 5189SOL    MW420530   2.015   4.199   4.500  0.0880  0.2311  0.3122
 5190SOL     OW20531   2.823   5.570   2.003 -0.4697  0.6369 -0.0056
 5190SOL    HW220532   2.800   5.654   2.043 -0.4207  0.0323  1.3773
 5190SOL    HW320533   2.812   5.506   2.074  0.6040 -0.3695 -0.7043
 5190SOL    MW420534   2.819   5.572   2.018 -0.3216  0.4243  0.0847
 5191SOL     OW20535   0.200   3.577   1.851 -0.1388 -0.6509 -0.4952
 5191SOL    HW220536   0.243   3.661   1.868  0.3482 -1.1495  0.9077
 5191SOL    HW320537   0.108   3.599   1.836 -0.0586  0.1201  0.1093
 5191SOL    MW420538   0.193   3.591   1.851 -0.0640 -0.6149 -0.2304
 5192SOL     OW20539   2.921   4.721   0.090 -0.5815 -0.3543  0.1356
 5192SOL    HW220540   2.921   4.630   0.120 -0.7624 -1.5839 -3.0858
 5192SOL    HW320541   2.832   4.734   0.055 -0.4693  0.9966  0.3141
 5192SOL    MW420542   2.909   4.711   0.089 -0.5906 -0.3383 -0.2659
 5193SOL     OW20543   0.089   0.915   2.401 -0.8177  0.0304 -0.0279
 5193SOL    HW220544   0.029   0.883   2.468 -0.3297  0.5909  0.6944
 5193SOL    HW320545   0.171   0.932   2.449 -0.4566  0.4192 -0.7734
 5193SOL    MW420546   0.092   0.913   2.416 -0.7057  0.1556 -0.0309
 5194SOL     OW20547   0.647   4.377   3.675  0.3789  0.6120  0.7019
 5194SOL    HW220548   0.600   4.443   3.726 -0.0526  1.0631 -0.2451
 5194SOL    HW320549   0.739   4.396   3.689  0.3722  3.5145 -2.0061
 5194SOL    MW420550   0.653   4.388   3.683  0.3211  1.0545  0.2197
 5195SOL     OW20551   4.929   3.070   5.393 -0.8363 -0.0478  0.4482
 5195SOL    HW220552   4.993   3.022   5.341  1.2398  2.0580  0.8944
 5195SOL    HW320553   4.898   3.140   5.336 -1.5767 -0.1059  0.7637
 5195SOL    MW420554   4.933   3.073   5.379 -0.6600  0.2224  0.5487
 5196SOL     OW20555   1.390   3.859   5.138 -0.3252  0.1047 -0.6984
 5196SOL    HW220556   1.399   3.939   5.189  0.2599  1.9394 -3.4151
 5196SOL    HW320557   1.297   3.837   5.143 -0.6282  1.3513 -0.3687
 5196SOL    MW420558   1.379   3.867   5.145 -0.2880  0.5112 -1.0134
 5197SOL     OW20559   0.240   4.531   0.280  0.3037  0.7462  0.4086
 5197SOL    HW220560   0.147   4.526   0.258  0.1101 -0.8931  1.4012
 5197SOL    HW320561   0.243   4.589   0.357  0.2907  1.8445 -0.3947
 5197SOL    MW420562   0.228   4.538   0.287  0.2765  0.6748  0.4335
 5198SOL     OW20563   0.580   5.791   2.269 -0.2943 -0.1463  0.2961
 5198SOL    HW220564   0.611   5.736   2.341  0.4795  2.7280  2.3877
 5198SOL    HW320565   0.495   5.823   2.299 -1.1220 -0.8498 -1.2506
 5198SOL    MW420566   0.573   5.788   2.283 -0.3014  0.1401  0.3680
 5199SOL     OW20567   3.321   3.621   3.752  0.2825 -0.8359  0.0368
 5199SOL    HW220568   3.353   3.581   3.670 -0.7883 -3.1261  0.6565
 5199SOL    HW320569   3.391   3.682   3.777  1.8687 -2.0227 -1.2194
 5199SOL    MW420570   3.335   3.623   3.744  0.3505 -1.2947 -0.0472
 5200SOL     OW20571   4.013   2.762   1.137  0.5822 -0.0757 -0.2983
 5200SOL    HW220572   3.919   2.750   1.122  0.4367  0.2694  0.2934
 5200SOL    HW320573   4.054   2.740   1.054  0.0120 -0.6828 -0.4218
 5200SOL    MW420574   4.006   2.758   1.124  0.4878 -0.1102 -0.2365
 5201SOL     OW20575   1.803   1.441   4.105  0.1729 -0.0459 -0.5889
 5201SOL    HW220576   1.817   1.512   4.043  1.5724 -2.0976 -2.8078
 5201SOL    HW320577   1.888   1.430   4.148 -0.3403  0.2806  0.5543
 5201SOL    MW420578   1.816   1.449   4.102  0.2898 -0.2735 -0.7308
 5202SOL     OW20579   5.748   2.201   1.912 -0.5113 -0.5387  0.1734
 5202SOL    HW220580   5.754   2.133   1.979  0.5113 -0.6670 -0.0260
 5202SOL    HW320581   5.826   2.187   1.857 -0.0212  1.0860  0.4122
 5202SOL    MW420582   5.759   2.190   1.913 -0.3117 -0.3413  0.1786
 5203SOL     OW20583   1.284   2.214   4.647 -0.6141 -0.0878  0.2417
 5203SOL    HW220584   1.330   2.134   4.622  1.1900  0.9460  0.0532
 5203SOL    HW320585   1.256   2.252   4.564  0.9523  0.8073  0.0738
 5203SOL    MW420586   1.287   2.208   4.632 -0.1694  0.1667  0.1947
 5204SOL     OW20587   0.632   1.920   0.221  0.7459  0.0957 -0.2665
 5204SOL    HW220588   0.584   1.963   0.151  1.4547 -2.1847 -2.2880
 5204SOL    HW320589   0.689   1.988   0.256 -0.1138  1.4733 -1.4394
 5204SOL    MW420590   0.634   1.934   0.217  0.7260 -0.0234 -0.6879
 5205SOL     OW20591   5.866   0.772   3.333  0.3460 -0.6548 -0.2015
 5205SOL    HW220592   5.936   0.794   3.272  0.7945  1.3937  0.9520
 5205SOL    HW320593   5.899   0.799   3.419 -0.4317 -3.0186  0.9601
 5205SOL    MW420594   5.879   0.778   3.336  0.3026 -0.6964  0.1039
 5206SOL     OW20595   4.408   1.434   2.125  0.0528  0.4380 -0.3780
 5206SOL    HW220596   4.393   1.341   2.145 -0.8001  1.2029  3.4026
 5206SOL    HW320597   4.322   1.466   2.097 -0.1477  0.4261  0.1944
 5206SOL    MW420598   4.394   1.426   2.124 -0.0862  0.5374  0.1963
 5207SOL     OW20599   0.160   5.001   4.668 -0.2311  0.0070 -0.6099
 5207SOL    HW220600   0.235   4.966   4.619  1.0514  0.1697  1.1198
 5207SOL    HW320601   0.112   5.055   4.604  1.4677  0.3836 -1.6365
 5207SOL    MW420602   0.164   5.004   4.653  0.1623  0.0782 -0.5171
 5208SOL     OW20603   6.435   0.841   4.377 -0.5484 -0.1947  0.2998
 5208SOL    HW220604   6.417   0.750   4.401  2.9464 -0.4851  2.6045
 5208SOL    HW320605   6.384   0.893   4.438 -1.8376 -0.5644 -0.4189
 5208SOL    MW420606   6.426   0.836   4.388 -0.2574 -0.2818  0.5091
 5209SOL     OW20607   1.560   5.075   1.447  0.2478 -0.6311  0.5690
 5209SOL    HW220608   1.598   5.025   1.375  2.7424  1.4590  0.2550
 5209SOL    HW320609   1.481   5.114   1.411 -0.3960 -2.3190  0.0785
 5209SOL    MW420610   1.555   5.073   1.433  0.4920 -0.5780  0.4629
 5210SOL     OW20611   1.703   3.550   6.133  0.0017 -0.2338 -0.0310
 5210SOL    HW220612   1.697   3.644   6.148  2.4719 -0.2689  1.8452
 5210SOL    HW320613   1.650   3.511   6.202 -0.7828 -0.2615 -0.6316
 5210SOL    MW420614   1.695   3.557   6.144  0.2241 -0.2421  0.1373
 5211SOL     OW20615   1.328   2.041   4.250  0.2336 -0.0250 -0.1142
 5211SOL    HW220616   1.245   2.022   4.294 -0.6972  2.1931 -0.7444
 5211SOL    HW320617   1.307   2.038   4.157  0.7097  0.9965 -0.2754
 5211SOL    MW420618   1.314   2.038   4.244  0.1736  0.4024 -0.2186
 5212SOL     OW20619   2.386   0.908   3.228 -0.0057 -0.2533 -0.1457
 5212SOL    HW220620   2.407   0.814   3.231 -0.6541 -0.3856  0.3355
 5212SOL    HW320621   2.294   0.911   3.202 -0.6521  0.1620  2.0501
 5212SOL    MW420622   2.377   0.896   3.225 -0.1765 -0.2160  0.2075
 5213SOL     OW20623   1.875   4.575   1.524  0.3795  0.1599 -0.3380
 5213SOL    HW220624   1.787   4.547   1.497  0.8909  0.4944 -2.5225
 5213SOL    HW320625   1.865   4.667   1.546 -0.4919 -0.5885  3.0427
 5213SOL    MW420626   1.862   4.583   1.523  0.3320  0.1053 -0.1802
 5214SOL     OW20627   3.297   5.925   4.434  0.0900  0.1430  0.1095
 5214SOL    HW220628   3.261   6.014   4.436  0.3765  0.2830 -0.6066
 5214SOL    HW320629   3.323   5.912   4.342  3.1060  0.5583  0.8061
 5214SOL    MW420630   3.295   5.935   4.422  0.5257  0.2163  0.1069
 5215SOL     OW20631   5.898   2.859   3.731  0.3742  0.5870  0.4829
 5215SOL    HW220632   5.914   2.952   3.743  0.7672  0.4755  0.8293
 5215SOL    HW320633   5.980   2.825   3.696 -0.1536  0.5823 -0.8238
 5215SOL    MW420634   5.911   2.867   3.728  0.3564  0.5717  0.3562
 5216SOL     OW20635   5.315   1.595   4.276 -0.0916 -0.0108  0.7828
 5216SOL    HW220636   5.349   1.650   4.347 -0.5009  0.9863  0.2344
 5216SOL    HW320637   5.366   1.515   4.281  0.1610  0.1969  1.9564
 5216SOL    MW420638   5.326   1.592   4.286 -0.1123  0.1481  0.8653
 5217SOL     OW20639   2.836   4.011   5.895  0.1574  0.3486  0.4025
 5217SOL    HW220640   2.805   3.940   5.838 -0.0165  2.1301 -1.8923
 5217SOL    HW320641   2.755   4.052   5.927  0.2561 -0.2257  1.4248
 5217SOL    MW420642   2.821   4.007   5.892  0.1475  0.5079  0.2346
 5218SOL     OW20643   3.022   3.103   5.676  0.0014 -0.4097 -0.0725
 5218SOL    HW220644   3.105   3.070   5.709  1.0215  0.2387 -1.8247
 5218SOL    HW320645   2.976   3.137   5.753  1.2074 -1.0876  0.9639
 5218SOL    MW420646   3.027   3.103   5.690  0.2951 -0.4136 -0.1669
 5219SOL     OW20647   4.055   1.506   4.409  0.5837  0.4433  0.0069
 5219SOL    HW220648   4.072   1.585   4.461 -0.3108  0.7892 -0.1954
 5219SOL    HW320649   4.100   1.521   4.326  2.9189 -0.5739  1.0253
 5219SOL    MW420650   4.063   1.519   4.405  0.7738  0.3547  0.1146
 5220SOL     OW20651   1.558   0.966   3.788 -0.6349 -0.3440 -0.2714
 5220SOL    HW220652   1.642   1.002   3.816 -1.1279 -0.5018  1.5642
 5220SOL    HW320653   1.574   0.872   3.780 -0.7092 -0.4228  0.4385
 5220SOL    MW420654   1.571   0.958   3.791 -0.7097 -0.3752  0.0645
 5221SOL     OW20655   1.558   1.148   2.850  0.0423 -0.1851 -0.3597
 5221SOL    HW220656   1.641   1.183   2.820  0.3242 -0.4375  0.1167
 5221SOL    HW320657   1.542   1.071   2.794  0.4350 -0.4980 -0.0458
 5221SOL    MW420658   1.567   1.142   2.838  0.1313 -0.2597 -0.2554
 5222SOL     OW20659   4.096   4.064   0.680 -0.0616 -0.0577  0.3388
 5222SOL    HW220660   4.067   4.055   0.771 -1.6539 -0.2335 -0.1541
 5222SOL    HW320661   4.163   3.996   0.669 -1.6465 -1.7404  0.6969
 5222SOL    MW420662   4.101   4.054   0.690 -0.4808 -0.3029  0.3210
 5223SOL     OW20663   4.137   2.086   1.998  0.2377 -0.1449  0.1038
 5223SOL    HW220664   4.073   2.105   1.930  2.2936  1.1000 -1.6264
 5223SOL    HW320665   4.206   2.037   1.953 -0.1644 -3.0097  2.2650
 5223SOL    MW420666   4.138   2.082   1.983  0.4559 -0.3586  0.1606
 5224SOL     OW20667   5.163   3.882   0.666 -0.0096 -0.3891  0.3308
 5224SOL    HW220668   5.249   3.921   0.680 -0.2284  0.3967 -0.4064
 5224SOL    HW320669   5.174   3.790   0.688  1.3492 -0.5768 -0.9892
 5224SOL    MW420670   5.176   3.875   0.671  0.1408 -0.3102  0.0594
 5225SOL     OW20671   1.203   2.727   6.361 -0.1645 -0.0748 -0.4405
 5225SOL    HW220672   1.190   2.780   6.440  2.0836 -0.1294  0.0438
 5225SOL    HW320673   1.197   2.790   6.289 -0.3983  0.3190 -0.0835
 5225SOL    MW420674   1.201   2.742   6.362  0.1013 -0.0301 -0.3295
 5226SOL     OW20675   4.672   4.098   1.074  0.5477  0.5425 -0.2759
 5226SOL    HW220676   4.617   4.116   1.150 -0.0142  0.1682 -0.5832
 5226SOL    HW320677   4.614   4.052   1.013  1.6944 -1.7419  0.2130
 5226SOL    MW420678   4.657   4.094   1.076  0.6248  0.1917 -0.2519
 5227SOL     OW20679   1.659   2.892   2.923  0.2581  0.0535  0.1644
 5227SOL    HW220680   1.611   2.965   2.961  1.3481  0.7739  0.1997
 5227SOL    HW320681   1.639   2.895   2.830  0.2522  0.3702  0.1767
 5227SOL    MW420682   1.650   2.902   2.916  0.4011  0.1903  0.1707
 5228SOL     OW20683   3.680   1.873   4.705 -0.0263  0.5756  0.7027
 5228SOL    HW220684   3.638   1.797   4.663  1.3508  0.0986  0.1138
 5228SOL    HW320685   3.652   1.868   4.796 -0.7859 -0.0454  0.4532
 5228SOL    MW420686   3.671   1.862   4.711  0.0552  0.4307  0.5921
 5229SOL     OW20687   3.071   3.107   6.146  0.1804 -0.5115  0.2260
 5229SOL    HW220688   3.109   3.180   6.195  0.3519 -0.9132  0.7072
 5229SOL    HW320689   3.022   3.057   6.211 -0.7333 -0.3059 -0.2863
 5229SOL    MW420690   3.070   3.110   6.161  0.0825 -0.5374  0.2219
 5230SOL     OW20691   0.631   2.406   1.431  0.0288  0.2076  0.3193
 5230SOL    HW220692   0.573   2.334   1.453  0.0251 -0.5067 -1.8282
 5230SOL    HW320693   0.661   2.387   1.342  1.0236  2.2019  0.1671
 5230SOL    MW420694   0.627   2.394   1.422  0.1596  0.3765  0.0159
 5231SOL     OW20695   0.931   6.004   1.670 -0.5668 -0.1832  0.3444
 5231SOL    HW220696   0.911   6.045   1.586  2.3869 -0.1474 -0.4659
 5231SOL    HW320697   0.942   5.911   1.649  0.5974 -0.1120  0.5696
 5231SOL    MW420698   0.930   5.997   1.656 -0.0235 -0.1691  0.2672
 5232SOL     OW20699   1.469   1.775   1.032 -0.2029 -0.3345  0.0617
 5232SOL    HW220700   1.490   1.853   1.083 -0.1765 -0.6172  0.4945
 5232SOL    HW320701   1.385   1.794   0.992 -0.0093  0.0697 -0.1512
 5232SOL    MW420702   1.461   1.788   1.034 -0.1739 -0.3184  0.0907
 5233SOL     OW20703   3.214   0.988   5.616  0.2331 -0.1077 -0.3607
 5233SOL    HW220704   3.232   0.895   5.628 -1.5573 -0.3876  0.5038
 5233SOL    HW320705   3.223   1.025   5.704  0.3931  0.4493 -0.6079
 5233SOL    MW420706   3.218   0.981   5.630  0.0180 -0.0711 -0.2792
 5234SOL     OW20707   6.285   1.689   1.930 -0.0682  0.7784 -0.6192
 5234SOL    HW220708   6.313   1.642   1.852  1.7807  0.6583  0.0488
 5234SOL    HW320709   6.347   1.762   1.937  0.0408  0.5733  0.9045
 5234SOL    MW420710   6.297   1.693   1.921  0.1901  0.7355 -0.3300
 5235SOL     OW20711   1.791   3.454   5.875  0.5385  0.1120  0.0131
 5235SOL    HW220712   1.720   3.394   5.851  1.3126 -0.3593 -1.1849
 5235SOL    HW320713   1.761   3.496   5.955 -1.0275 -0.1921 -0.3909
 5235SOL    MW420714   1.778   3.452   5.882  0.4340  0.0097 -0.1982
 5236SOL     OW20715   6.029   1.720   0.595  0.2192  0.4094  0.2425
 5236SOL    HW220716   6.062   1.643   0.549 -0.0440 -0.2332  1.0846
 5236SOL    HW320717   5.976   1.767   0.531  1.2110  0.4400 -0.5710
 5236SOL    MW420718   6.026   1.716   0.581  0.3153  0.3287  0.2463
 5237SOL     OW20719   1.909   2.261   2.880  0.3969  0.1276 -0.6301
 5237SOL    HW220720   1.873   2.333   2.828 -3.0828 -0.8227  0.2523
 5237SOL    HW320721   1.881   2.182   2.834 -1.6576 -0.7062  1.8509
 5237SOL    MW420722   1.901   2.260   2.867 -0.3333 -0.1078 -0.1864
 5238SOL     OW20723   4.838   1.916   5.713 -0.7028 -0.2516 -0.3539
 5238SOL    HW220724   4.908   1.868   5.669  0.4626  1.0271  0.0541
 5238SOL    HW320725   4.801   1.852   5.775 -0.1363 -1.0360 -0.8114
 5238SOL    MW420726   4.842   1.901   5.716 -0.4743 -0.1864 -0.3604
 5239SOL     OW20727   5.804   3.967   6.088 -0.0180 -0.5002 -0.0733
 5239SOL    HW220728   5.882   3.913   6.104  0.4647  0.2308  0.0883
 5239SOL    HW320729   5.812   3.994   5.996  0.4852  0.4476  0.2370
 5239SOL    MW420730   5.816   3.964   6.078  0.1121 -0.2787 -0.0110
 5240SOL     OW20731   3.551   6.099   2.448 -0.4600  0.1434 -0.0190
 5240SOL    HW220732   3.618   6.136   2.391  0.4128 -2.0074 -0.4971
 5240SOL    HW320733   3.484   6.066   2.389 -0.0583 -1.1467  0.2038
 5240SOL    MW420734   3.551   6.100   2.433 -0.2918 -0.3106 -0.0527
 5241SOL     OW20735   0.275   5.306   6.077  0.2732  0.4316 -0.3097
 5241SOL    HW220736   0.369   5.289   6.082  0.3915  0.5263 -1.8390
 5241SOL    HW320737   0.235   5.222   6.102  0.7655  0.1228 -0.5445
 5241SOL    MW420738   0.282   5.293   6.081  0.3537  0.4033 -0.5425
 5242SOL     OW20739   1.915   0.575   3.566  0.0513  0.2359  0.2904
 5242SOL    HW220740   1.977   0.508   3.592  1.0265  1.0536  0.1174
 5242SOL    HW320741   1.837   0.557   3.619  0.6451 -0.4161  0.9675
 5242SOL    MW420742   1.913   0.564   3.576  0.2583  0.2578  0.3569
 5243SOL     OW20743   4.202   4.423   3.730  0.0018  0.1408 -0.1140
 5243SOL    HW220744   4.173   4.510   3.757  0.2212 -0.1645  1.1309
 5243SOL    HW320745   4.286   4.439   3.687  0.1636  0.5241  0.3361
 5243SOL    MW420746   4.210   4.437   3.728  0.0521  0.1511  0.1096
 5244SOL     OW20747   3.033   1.690   1.289 -0.0075  0.2131  0.2478
 5244SOL    HW220748   3.021   1.767   1.344  0.0816 -0.5110  1.3343
 5244SOL    HW320749   3.116   1.705   1.243 -0.1416  0.8842  0.2166
 5244SOL    MW420750   3.042   1.702   1.290 -0.0134  0.2061  0.3871
 5245SOL     OW20751   2.782   4.139   0.789 -0.2912 -0.3740 -0.7420
 5245SOL    HW220752   2.694   4.103   0.802  0.0933 -0.7864  0.8954
 5245SOL    HW320753   2.799   4.189   0.869  0.9934 -0.3428 -1.0205
 5245SOL    MW420754   2.773   4.141   0.801 -0.0710 -0.4243 -0.5628
 5246SOL     OW20755   0.650   5.392   4.088 -0.0679 -0.4585  0.7252
 5246SOL    HW220756   0.713   5.337   4.042  0.5049 -1.1793  2.2915
 5246SOL    HW320757   0.611   5.334   4.153 -0.7638  0.5528  1.2419
 5246SOL    MW420758   0.653   5.377   4.090 -0.0842 -0.4202  1.0000
 5247SOL     OW20759   4.911   6.235   1.172 -0.4213 -0.3085 -0.0719
 5247SOL    HW220760   4.941   6.189   1.093 -1.1243  0.2243 -0.6713
 5247SOL    HW320761   4.938   6.179   1.244 -0.7855 -1.4040 -0.7481
 5247SOL    MW420762   4.919   6.222   1.171 -0.5621 -0.3827 -0.2402
 5248SOL     OW20763   0.633   1.034   2.095  1.0868  0.3387 -0.8497
 5248SOL    HW220764   0.616   1.070   2.182  2.0128  0.1441 -0.5728
 5248SOL    HW320765   0.588   1.094   2.035 -1.3182 -0.6502 -0.1708
 5248SOL    MW420766   0.625   1.047   2.098  0.8917  0.1825 -0.7236
 5249SOL     OW20767   1.001   1.521   0.148 -0.5320 -0.2376 -0.1517
 5249SOL    HW220768   0.958   1.469   0.216 -0.0856  1.1688  1.2775
 5249SOL    HW320769   0.943   1.595   0.133 -0.5700 -0.4749 -1.2522
 5249SOL    MW420770   0.988   1.524   0.155 -0.4781 -0.0834 -0.1083
 5250SOL     OW20771   2.729   2.857   2.733  0.3054  0.3787  0.4984
 5250SOL    HW220772   2.659   2.791   2.734 -0.0506  0.7442  0.3106
 5250SOL    HW320773   2.793   2.825   2.796  0.8687 -0.9265 -0.6865
 5250SOL    MW420774   2.728   2.844   2.741  0.3327  0.2547  0.3173
 5251SOL     OW20775   2.983   1.007   1.756 -0.1915 -0.6490 -0.5079
 5251SOL    HW220776   2.946   0.926   1.791 -1.1504 -0.3621 -0.8326
 5251SOL    HW320777   2.997   0.988   1.663 -1.1526 -0.1876 -0.7487
 5251SOL    MW420778   2.980   0.994   1.748 -0.4448 -0.5503 -0.5825
 5252SOL     OW20779   5.691   2.524   3.472  0.7340  0.3937  0.1487
 5252SOL    HW220780   5.717   2.584   3.402 -0.5797  0.4112 -0.3510
 5252SOL    HW320781   5.701   2.437   3.433 -0.8077  0.4286 -0.3855
 5252SOL    MW420782   5.696   2.521   3.457  0.3572  0.4006  0.0123
 5253SOL     OW20783   1.145   5.779   2.978  0.2424  0.7225  0.7435
 5253SOL    HW220784   1.156   5.744   2.890 -0.7318  0.3852  0.7445
 5253SOL    HW320785   1.089   5.715   3.023  0.7992  0.8389  1.6381
 5253SOL    MW420786   1.139   5.766   2.972  0.1873  0.6933  0.8616
 5254SOL     OW20787   4.635   5.593   5.618 -0.1024 -0.0787 -0.3373
 5254SOL    HW220788   4.647   5.548   5.701 -0.6492 -0.8120 -0.6382
 5254SOL    HW320789   4.570   5.539   5.571 -0.5655  0.8761 -0.8169
 5254SOL    MW420790   4.628   5.580   5.623 -0.2357 -0.0495 -0.4403
 5255SOL     OW20791   3.633   2.509   2.349 -0.6187  0.7172  0.2887
 5255SOL    HW220792   3.680   2.535   2.269  1.0906 -0.3754  0.8830
 5255SOL    HW320793   3.647   2.415   2.355 -1.3988  0.6575  1.4789
 5255SOL    MW420794   3.641   2.500   2.339 -0.4961  0.5652  0.5242
 5256SOL     OW20795   1.228   6.295   4.233  0.5650  0.5398 -0.1522
 5256SOL    HW220796   1.280   6.297   4.153 -0.6112 -2.0285 -1.0657
 5256SOL    HW320797   1.141   6.267   4.205 -0.1892  0.6292  1.8974
 5256SOL    MW420798   1.224   6.292   4.219  0.3103  0.2128 -0.0023
 5257SOL     OW20799   2.831   3.404   3.561  0.1073 -0.9101  0.3505
 5257SOL    HW220800   2.913   3.445   3.533 -1.7120  0.9366 -2.8548
 5257SOL    HW320801   2.802   3.456   3.636 -0.2222  1.2774 -1.2329
 5257SOL    MW420802   2.838   3.416   3.567 -0.1762 -0.3778 -0.2813
 5258SOL     OW20803   1.748   5.926   1.509 -0.2513  0.5616  0.1012
 5258SOL    HW220804   1.766   5.978   1.587  4.3879 -0.4206 -0.0307
 5258SOL    HW320805   1.726   5.839   1.542 -0.0055  0.5802  0.3139
 5258SOL    MW420806   1.747   5.922   1.524  0.3932  0.4345  0.1118
 5259SOL     OW20807   2.811   3.768   3.569 -0.1403 -0.1091  0.3633
 5259SOL    HW220808   2.900   3.746   3.597 -0.4759  2.2569  4.0595
 5259SOL    HW320809   2.811   3.864   3.567 -2.1060 -0.0983 -1.6407
 5259SOL    MW420810   2.823   3.778   3.573 -0.4439  0.2045  0.5866
 5260SOL     OW20811   3.771   3.701   6.198 -0.4096  0.3909 -0.2789
 5260SOL    HW220812   3.761   3.641   6.124 -1.3173 -1.1522  1.0345
 5260SOL    HW320813   3.738   3.784   6.165  0.7948  0.2048 -2.1259
 5260SOL    MW420814   3.765   3.704   6.184 -0.3704  0.1627 -0.3493
 5261SOL     OW20815   5.715   1.254   0.660  0.0763  0.2583  1.1334
 5261SOL    HW220816   5.622   1.251   0.683  0.0837 -0.3587  1.0999
 5261SOL    HW320817   5.758   1.289   0.738 -0.2618  1.2428  0.8898
 5261SOL    MW420818   5.708   1.258   0.673  0.0326  0.3068  1.0969
 5262SOL     OW20819   4.715   4.346   2.171 -0.3620 -0.0866  0.0170
 5262SOL    HW220820   4.678   4.380   2.090  1.0810  2.4964  0.3200
 5262SOL    HW320821   4.640   4.314   2.221 -1.6533  1.1300 -1.0624
 5262SOL    MW420822   4.700   4.346   2.167 -0.3420  0.4147 -0.0854
 5263SOL     OW20823   5.376   3.083   5.112  0.6363  0.2301 -0.2814
 5263SOL    HW220824   5.469   3.108   5.106  0.1099  2.9716  1.4775
 5263SOL    HW320825   5.332   3.139   5.049  0.0831 -0.6133 -0.6553
 5263SOL    MW420826   5.383   3.093   5.103  0.4938  0.4805 -0.0987
 5264SOL     OW20827   3.383   2.849   5.294 -0.1161  0.4464 -0.1053
 5264SOL    HW220828   3.409   2.765   5.331  1.6883  1.2068  0.4885
 5264SOL    HW320829   3.306   2.875   5.344  0.4540  0.0145  1.0352
 5264SOL    MW420830   3.377   2.841   5.305  0.1972  0.4897  0.1235
 5265SOL     OW20831   0.572   6.343   6.248  0.1501 -0.1053 -0.3749
 5265SOL    HW220832   0.652   6.312   6.289  0.6354  0.1088 -1.1383
 5265SOL    HW320833   0.550   6.276   6.183  1.4160  1.2254 -2.3014
 5265SOL    MW420834   0.579   6.330   6.244  0.3812  0.0985 -0.7298
 5266SOL     OW20835   3.948   4.867   4.653  0.2697  0.2981  0.1553
 5266SOL    HW220836   3.952   4.912   4.737 -0.0078  1.5483 -0.4699
 5266SOL    HW320837   4.014   4.798   4.659  0.5910  0.6819  1.2130
 5266SOL    MW420838   3.957   4.864   4.665  0.2755  0.5137  0.2124
 5267SOL     OW20839   0.819   5.713   1.846  0.4894  0.5389 -0.1480
 5267SOL    HW220840   0.739   5.664   1.829  1.8156 -1.4103 -1.2437
 5267SOL    HW320841   0.864   5.716   1.761  2.6015 -0.4140  0.8636
 5267SOL    MW420842   0.814   5.707   1.833  0.9430  0.1560 -0.1591
 5268SOL     OW20843   5.650   6.114   2.000 -0.0789  0.3088  0.2179
 5268SOL    HW220844   5.723   6.115   1.938 -0.5706 -0.6534 -0.4111
 5268SOL    HW320845   5.588   6.179   1.964 -0.2532 -0.0683 -0.1708
 5268SOL    MW420846   5.651   6.123   1.987 -0.1668  0.1321  0.0836
 5269SOL     OW20847   0.544   1.465   4.171 -0.1229 -0.0091 -0.4033
 5269SOL    HW220848   0.565   1.547   4.126  2.2910 -1.2876 -1.8718
 5269SOL    HW320849   0.597   1.468   4.251 -1.7615  0.7555  0.7162
 5269SOL    MW420850   0.554   1.476   4.175 -0.0206 -0.0769 -0.4494
 5270SOL     OW20851   4.672   6.082   3.459  0.6789 -0.3154  0.0437
 5270SOL    HW220852   4.587   6.112   3.491  0.6144 -1.0592  0.5838
 5270SOL    HW320853   4.688   6.136   3.382 -0.2982 -0.1790 -0.0826
 5270SOL    MW420854   4.663   6.093   3.453  0.5414 -0.3955  0.0983
 5271SOL     OW20855   3.971   6.177   0.394 -0.2192  0.3119 -0.0421
 5271SOL    HW220856   3.961   6.092   0.351  2.1198 -0.8435  1.5302
 5271SOL    HW320857   3.965   6.158   0.488  0.2718  1.8863  0.3493
 5271SOL    MW420858   3.969   6.164   0.401  0.1542  0.3672  0.2170
 5272SOL     OW20859   3.094   3.241   4.271 -0.1606 -0.2471 -0.4820
 5272SOL    HW220860   3.185   3.245   4.240 -0.4133  1.3088 -1.0864
 5272SOL    HW320861   3.050   3.184   4.208  0.2401 -0.4494 -0.5849
 5272SOL    MW420862   3.100   3.234   4.258 -0.1411 -0.0685 -0.5753
 5273SOL     OW20863   4.274   1.723   1.368 -0.0960  0.3886  0.5032
 5273SOL    HW220864   4.287   1.783   1.295 -0.2244  1.9645  1.7311
 5273SOL    HW320865   4.342   1.746   1.431 -1.2259  0.4643  1.7483
 5273SOL    MW420866   4.285   1.734   1.367 -0.2620  0.6065  0.8295
 5274SOL     OW20867   5.770   4.326   5.544  0.3063  0.0128 -0.1523
 5274SOL    HW220868   5.825   4.254   5.514  0.3335  0.2335 -0.6473
 5274SOL    HW320869   5.802   4.346   5.632  0.1100 -0.7608  0.0977
 5274SOL    MW420870   5.781   4.319   5.552  0.2840 -0.0601 -0.1847
 5275SOL     OW20871   1.404   3.519   0.191 -0.2184  0.3703 -0.0747
 5275SOL    HW220872   1.330   3.465   0.219  0.6193 -0.6167  0.2903
 5275SOL    HW320873   1.479   3.461   0.197  0.3258  0.7348 -2.3376
 5275SOL    MW420874   1.404   3.505   0.195 -0.0361  0.2882 -0.3251
 5276SOL     OW20875   0.755   2.012   4.934 -0.5742  0.0403  0.1391
 5276SOL    HW220876   0.769   1.929   4.980  0.1139  0.4053  0.6199
 5276SOL    HW320877   0.732   1.987   4.845  1.1417 -0.6870 -0.1476
 5276SOL    MW420878   0.754   1.998   4.928 -0.2570 -0.0075  0.1647
 5277SOL     OW20879   1.725   5.795   4.313  0.0905 -0.6663  0.0383
 5277SOL    HW220880   1.681   5.880   4.308  0.0632 -0.6564  0.4201
 5277SOL    HW320881   1.818   5.816   4.309  0.0696 -0.6535 -0.3481
 5277SOL    MW420882   1.731   5.809   4.312  0.0841 -0.6633  0.0377
 5278SOL     OW20883   0.049   2.096   5.917  0.2596 -0.1389  0.4942
 5278SOL    HW220884   0.082   2.077   5.829  1.0851 -0.0378  0.7783
 5278SOL    HW320885   0.100   2.172   5.946  2.4574 -2.1902  2.3995
 5278SOL    MW420886   0.060   2.103   5.909  0.6585 -0.3962  0.7831
 5279SOL     OW20887   2.602   1.410   1.857  0.0264 -0.2219 -0.4070
 5279SOL    HW220888   2.547   1.348   1.811  0.2775 -0.1147 -0.8619
 5279SOL    HW320889   2.647   1.458   1.787 -1.4912  1.7123 -0.1390
 5279SOL    MW420890   2.601   1.408   1.842 -0.1407  0.0474 -0.4316
 5280SOL     OW20891   1.758   4.738   5.388 -1.0066 -0.4577  0.3339
 5280SOL    HW220892   1.711   4.778   5.461 -1.4919  1.6843 -1.0576
 5280SOL    HW320893   1.691   4.687   5.341 -1.1953 -0.1103  0.2191
 5280SOL    MW420894   1.743   4.737   5.391 -1.0955 -0.1293  0.1351
 5281SOL     OW20895   3.055   0.768   3.448 -0.0408 -0.2315 -0.1665
 5281SOL    HW220896   3.063   0.772   3.353  0.9926 -0.4761 -0.1013
 5281SOL    HW320897   3.097   0.685   3.473 -0.1880 -0.1139  0.5105
 5281SOL    MW420898   3.062   0.758   3.439  0.0761 -0.2482 -0.0685
 5282SOL     OW20899   2.276   1.366   3.757 -0.2079 -0.1403  0.2109
 5282SOL    HW220900   2.183   1.346   3.747 -0.6574  2.1322 -0.8323
 5282SOL    HW320901   2.289   1.445   3.705  2.2047 -0.0791  0.7935
 5282SOL    MW420902   2.265   1.374   3.749  0.0511  0.1676  0.1501
 5283SOL     OW20903   5.157   0.746   1.449  0.2357  0.5050 -0.3863
 5283SOL    HW220904   5.205   0.822   1.416 -1.7104  0.7585 -2.9036
 5283SOL    HW320905   5.174   0.677   1.386  0.7586 -0.7664  1.0747
 5283SOL    MW420906   5.166   0.747   1.436  0.0479  0.3707 -0.5257
 5284SOL     OW20907   1.614   0.030   4.928  0.2808  0.6009  0.2297
 5284SOL    HW220908   1.655   0.115   4.944 -0.3897  0.3931  3.9309
 5284SOL    HW320909   1.687  -0.030   4.915  0.7958  1.5272 -1.3868
 5284SOL    MW420910   1.629   0.034   4.928  0.2603  0.6957  0.5047
 5285SOL     OW20911   6.027   6.036   0.865  0.4912  0.2767 -0.1611
 5285SOL    HW220912   6.087   6.082   0.924 -0.1328  0.2387  0.5201
 5285SOL    HW320913   5.952   6.015   0.920 -0.5258  1.0752 -1.1956
 5285SOL    MW420914   6.025   6.039   0.880  0.2747  0.3770 -0.2077
 5286SOL     OW20915   0.723   2.724   5.684  0.2961  0.1549 -0.0274
 5286SOL    HW220916   0.782   2.746   5.612  1.9163 -0.7345  0.9746
 5286SOL    HW320917   0.714   2.806   5.732  1.0221  0.2222  0.0087
 5286SOL    MW420918   0.730   2.738   5.681  0.6057  0.0465  0.1095
 5287SOL     OW20919   1.983   6.097   0.814 -0.2185 -0.4318  0.1768
 5287SOL    HW220920   1.977   6.191   0.795 -0.4916 -0.3028  0.8491
 5287SOL    HW320921   1.970   6.055   0.729 -2.3160  0.0897  0.1707
 5287SOL    MW420922   1.980   6.104   0.800 -0.5313 -0.3460  0.2647
 5288SOL     OW20923   2.514   4.772   5.244  0.1731  0.0227  0.2995
 5288SOL    HW220924   2.477   4.692   5.282  0.4891 -0.0136  0.5306
 5288SOL    HW320925   2.603   4.777   5.279  0.7927 -0.4802 -1.1410
 5288SOL    MW420926   2.521   4.762   5.254  0.2966 -0.0484  0.1399
 5289SOL     OW20927   5.468   4.823   5.562  0.5020  0.7161 -0.2313
 5289SOL    HW220928   5.481   4.768   5.640  0.1428  0.2180 -0.5190
 5289SOL    HW320929   5.405   4.775   5.509  0.4446  1.2448 -0.6520
 5289SOL    MW420930   5.461   4.809   5.566  0.4470  0.7201 -0.3248
 5290SOL     OW20931   3.967   1.794   0.185  0.0232  0.1701  0.2861
 5290SOL    HW220932   3.931   1.759   0.267  2.2208 -2.9655  0.0590
 5290SOL    HW320933   3.908   1.762   0.117 -1.7784  2.7415  0.4525
 5290SOL    MW420934   3.954   1.785   0.187  0.0755  0.0956  0.2781
 5291SOL     OW20935   1.627   2.655   4.139  0.4691  0.2251 -0.0768
 5291SOL    HW220936   1.549   2.606   4.164  1.2754 -1.1356 -0.1217
 5291SOL    HW320937   1.647   2.710   4.214  1.1494 -1.6117  1.1470
 5291SOL    MW420938   1.620   2.656   4.152  0.6653 -0.1968  0.0787
 5292SOL     OW20939   5.887   1.173   3.752 -0.0489  0.0609  0.1131
 5292SOL    HW220940   5.796   1.190   3.730 -0.1364 -0.8225 -0.2363
 5292SOL    HW320941   5.884   1.097   3.810  0.5048 -0.2784 -0.2968
 5292SOL    MW420942   5.875   1.166   3.757  0.0126 -0.1004  0.0129
 5293SOL     OW20943   4.771   3.939   0.096  0.4755 -0.4025 -0.5928
 5293SOL    HW220944   4.745   3.881   0.025 -2.5258  1.3161 -1.0501
 5293SOL    HW320945   4.778   3.881   0.172 -2.0102 -1.5083 -1.0986
 5293SOL    MW420946   4.768   3.924   0.097 -0.2484 -0.3216 -0.7199
 5294SOL     OW20947   6.148   2.671   2.269  0.3253 -0.6184 -0.2089
 5294SOL    HW220948   6.214   2.607   2.244  0.1256 -0.6007 -0.7847
 5294SOL    HW320949   6.124   2.715   2.187  1.0894  0.7929  0.2973
 5294SOL    MW420950   6.153   2.668   2.255  0.3998 -0.4298 -0.2181
 5295SOL     OW20951   3.894   4.816   4.022  0.0093  0.0207  0.2328
 5295SOL    HW220952   3.964   4.877   4.045 -0.2198 -0.0645  1.2238
 5295SOL    HW320953   3.826   4.870   3.982  0.5782  0.1243 -0.6059
 5295SOL    MW420954   3.894   4.831   4.020  0.0541  0.0231  0.2529
 5296SOL     OW20955   4.145   3.122   1.437  0.4040  0.2924 -0.1408
 5296SOL    HW220956   4.107   3.090   1.518  2.8264 -1.2690  0.4636
 5296SOL    HW320957   4.096   3.077   1.368 -0.6937  0.5061  0.4833
 5296SOL    MW420958   4.134   3.112   1.438  0.5788  0.1146  0.0213
 5297SOL     OW20959   3.126   2.074   3.489 -0.4560 -0.1622 -0.2522
 5297SOL    HW220960   3.132   2.166   3.515  1.5629 -0.3337  0.0579
 5297SOL    HW320961   3.051   2.041   3.538 -1.7953  1.4929 -1.0551
 5297SOL    MW420962   3.117   2.082   3.499 -0.3663  0.0335 -0.3172
 5298SOL     OW20963   0.917   2.323   0.261 -0.0618  0.0322  0.3328
 5298SOL    HW220964   0.841   2.375   0.288 -1.0081 -1.6359  1.0567
 5298SOL    HW320965   0.962   2.302   0.343  0.2317 -0.3649  0.0733
 5298SOL    MW420966   0.913   2.327   0.275 -0.1479 -0.2403  0.3941
 5299SOL     OW20967   5.969   2.816   6.292  0.1812 -0.0212 -0.2944
 5299SOL    HW220968   6.036   2.794   6.357  0.7014  0.0796 -0.7944
 5299SOL    HW320969   6.017   2.857   6.220 -0.5964  1.6395  0.0650
 5299SOL    MW420970   5.984   2.819   6.291  0.1472  0.2112 -0.3130
 5300SOL     OW20971   4.351   5.742   5.409  0.2768  0.5343  0.0832
 5300SOL    HW220972   4.317   5.822   5.449  1.4225  1.9317 -1.5806
 5300SOL    HW320973   4.289   5.721   5.339 -0.4247 -0.5027  0.9864
 5300SOL    MW420974   4.338   5.750   5.405  0.3354  0.5818 -0.0171
 5301SOL     OW20975   1.496   1.888   5.666 -0.1087  0.7814  0.8516
 5301SOL    HW220976   1.559   1.931   5.724  1.7560 -0.8409  0.1528
 5301SOL    HW320977   1.448   1.960   5.625  1.1631  2.0932  1.5528
 5301SOL    MW420978   1.498   1.903   5.668  0.3051  0.7404  0.8519
 5302SOL     OW20979   1.982   1.661   3.717 -0.0633 -0.3406 -0.0529
 5302SOL    HW220980   1.930   1.595   3.673  0.9911 -1.2244 -0.0252
 5302SOL    HW320981   2.068   1.656   3.675  0.7010 -0.5750  1.4627
 5302SOL    MW420982   1.987   1.652   3.705  0.1766 -0.4881  0.1507
 5303SOL     OW20983   4.027   0.162   1.407  0.4749 -0.5412 -0.1071
 5303SOL    HW220984   4.008   0.098   1.338 -0.0019  1.5685 -2.0641
 5303SOL    HW320985   3.958   0.227   1.398  1.9149  1.1547  0.5866
 5303SOL    MW420986   4.016   0.162   1.396  0.6020 -0.0391 -0.2738
 5304SOL     OW20987   1.716   3.605   0.363  0.2834 -0.6875 -0.3546
 5304SOL    HW220988   1.702   3.577   0.272  0.9772 -0.5447 -0.5118
 5304SOL    HW320989   1.646   3.668   0.379  1.3456  0.8486 -1.4867
 5304SOL    MW420990   1.705   3.610   0.353  0.5151 -0.4660 -0.5247
 5305SOL     OW20991   4.959   4.945   2.846  0.2567  0.2954  0.3917
 5305SOL    HW220992   4.877   4.976   2.807  0.7954  0.6125 -0.5293
 5305SOL    HW320993   4.998   4.890   2.778  0.4802 -0.4198  1.0897
 5305SOL    MW420994   4.953   4.942   2.832  0.3572  0.2429  0.3623
 5306SOL     OW20995   5.523   0.773   1.180  0.1064 -0.1742  0.0921
 5306SOL    HW220996   5.476   0.835   1.124 -0.0693  0.0454  0.4787
 5306SOL    HW320997   5.613   0.804   1.181 -0.4314  1.5134  2.2239
 5306SOL    MW420998   5.529   0.785   1.172  0.0123  0.0774  0.4243
 5307SOL     OW20999   3.361   1.292   6.294  0.2020 -0.4876  0.0395
 5307SOL    HW221000   3.384   1.274   6.385  1.8285 -1.1894 -0.4688
 5307SOL    HW321001   3.265   1.292   6.293 -0.0080 -4.4326  1.0885
 5307SOL    MW421002   3.351   1.290   6.306  0.3889 -1.1007  0.1108
 5308SOL     OW21003   5.478   2.610   4.801 -0.2465 -0.2677  0.4009
 5308SOL    HW221004   5.454   2.668   4.874  0.0521  0.3288  0.0377
 5308SOL    HW321005   5.395   2.577   4.768 -0.3789 -0.7060  1.1296
 5308SOL    MW421006   5.464   2.613   4.806 -0.2246 -0.2468  0.4491
 5309SOL     OW21007   1.051   4.662   1.620 -0.0935 -0.0316 -0.5323
 5309SOL    HW221008   1.081   4.684   1.708 -1.9224  1.6963 -0.2597
 5309SOL    HW321009   1.002   4.580   1.631 -1.2599  0.7470  0.3166
 5309SOL    MW421010   1.049   4.654   1.633 -0.4887  0.2991 -0.3843
 5310SOL     OW21011   2.061   3.582   1.626  0.2229 -0.0640  0.1468
 5310SOL    HW221012   1.973   3.571   1.588  0.3186  0.5077 -0.2563
 5310SOL    HW321013   2.062   3.524   1.702 -0.5833  0.0899  0.2811
 5310SOL    MW421014   2.049   3.573   1.631  0.1292  0.0317  0.1113
 5311SOL     OW21015   1.168   5.655   5.420 -0.2620 -0.3953 -0.3149
 5311SOL    HW221016   1.167   5.572   5.373 -2.5110  0.0667 -1.2269
 5311SOL    HW321017   1.153   5.630   5.512  2.5483 -1.1787  0.0163
 5311SOL    MW421018   1.166   5.641   5.426 -0.1879 -0.4377 -0.3915
 5312SOL     OW21019   2.508   1.304   5.924  0.2843  0.1436 -0.1492
 5312SOL    HW221020   2.512   1.216   5.960  1.6609  0.5167  0.6658
 5312SOL    HW321021   2.559   1.358   5.984 -2.0129  1.8994  0.3896
 5312SOL    MW421022   2.515   1.300   5.936  0.1629  0.4245  0.0294
 5313SOL     OW21023   2.562   0.217   2.050  0.3783  0.0495  0.3076
 5313SOL    HW221024   2.574   0.244   1.959 -0.3995 -1.3072 -0.2379
 5313SOL    HW321025   2.467   0.208   2.059  0.4433  0.3337  1.3065
 5313SOL    MW421026   2.551   0.219   2.039  0.2843 -0.0920  0.3674
 5314SOL     OW21027   2.955   4.290   0.305  0.0525 -0.5438  0.2323
 5314SOL    HW221028   2.914   4.269   0.389 -0.0614 -2.1416 -0.1898
 5314SOL    HW321029   2.998   4.208   0.278  1.8479  0.5183 -0.2904
 5314SOL    MW421030   2.956   4.276   0.312  0.2743 -0.6144  0.1076
 5315SOL     OW21031   3.623   2.731   4.221  0.3627 -0.0063  0.7262
 5315SOL    HW221032   3.590   2.819   4.201  0.7781 -0.3446 -1.7427
 5315SOL    HW321033   3.555   2.692   4.276 -1.0891  0.9556 -0.3136
 5315SOL    MW421034   3.610   2.738   4.226  0.2260  0.0760  0.2633
 5316SOL     OW21035   4.687   4.744   1.585 -0.5274  0.0989 -0.5333
 5316SOL    HW221036   4.685   4.729   1.491  0.9847  0.7408 -0.6924
 5316SOL    HW321037   4.655   4.662   1.623  2.9059 -1.9070 -1.5260
 5316SOL    MW421038   4.682   4.731   1.578  0.1251 -0.0811 -0.6853
 5317SOL     OW21039   3.650   5.235   0.090 -0.3804  0.6287  0.5102
 5317SOL    HW221040   3.716   5.273   0.033 -0.6244  0.0719 -0.1564
 5317SOL    HW321041   3.700   5.182   0.153 -0.1103  1.2724  0.8405
 5317SOL    MW421042   3.665   5.233   0.091 -0.3769  0.6401  0.4658
 5318SOL     OW21043   5.367   6.070   1.252  0.0172  0.0453 -0.1301
 5318SOL    HW221044   5.343   6.141   1.310 -1.1773 -1.2126  0.9765
 5318SOL    HW321045   5.386   5.996   1.310 -1.4316 -1.3105 -1.2858
 5318SOL    MW421046   5.366   6.070   1.267 -0.3316 -0.2995 -0.1366
 5319SOL     OW21047   1.949   6.394   0.100  0.1031  0.0068  0.0773
 5319SOL    HW221048   1.884   6.463   0.084  0.9560  0.5409 -1.1997
 5319SOL    HW321049   1.896   6.316   0.118 -0.8773  0.7665  0.6493
 5319SOL    MW421050   1.933   6.393   0.100  0.0863  0.1775 -0.0157
 5320SOL     OW21051   3.183   4.166   4.495 -0.2476  0.5505  0.1478
 5320SOL    HW221052   3.125   4.214   4.437  0.3559  2.5772  1.1249
 5320SOL    HW321053   3.147   4.077   4.498  0.9064 -0.3928 -4.9828
 5320SOL    MW421054   3.171   4.160   4.488 -0.0157  0.6934 -0.4002
 5321SOL     OW21055   3.914   6.368   0.185 -0.1408 -0.7241 -0.1872
 5321SOL    HW221056   3.892   6.304   0.252  0.4499 -0.4382  0.2870
 5321SOL    HW321057   3.845   6.359   0.120 -1.2843 -0.3098  0.9362
 5321SOL    MW421058   3.902   6.358   0.185 -0.2137 -0.6317  0.0236
 5322SOL     OW21059   1.570   3.085   6.333 -0.7568  0.0094  0.8547
 5322SOL    HW221060   1.515   3.007   6.325 -0.6127  0.1334 -2.5158
 5322SOL    HW321061   1.533   3.148   6.272  2.4447  0.4387 -0.9021
 5322SOL    MW421062   1.558   3.083   6.324 -0.3154  0.0824  0.1782
 5323SOL     OW21063   6.242   0.015   1.148  0.3225 -0.7590  0.3681
 5323SOL    HW221064   6.176   0.050   1.088  1.5658 -1.0189 -1.2010
 5323SOL    HW321065   6.251  -0.077   1.124 -0.0275 -1.2045  1.8074
 5323SOL    MW421066   6.234   0.008   1.137  0.4404 -0.8521  0.3510
 5324SOL     OW21067   1.972   3.570   2.349  0.2104 -0.9421  0.1572
 5324SOL    HW221068   2.066   3.575   2.366 -0.0123  0.9196  1.0386
 5324SOL    HW321069   1.959   3.621   2.269 -0.3888  1.4540  1.7022
 5324SOL    MW421070   1.983   3.577   2.341  0.1019 -0.3804  0.4773
 5325SOL     OW21071   3.394   2.074   5.436 -0.0511 -0.7936 -1.0792
 5325SOL    HW221072   3.372   2.016   5.509  1.0693 -0.8729 -0.7789
 5325SOL    HW321073   3.353   2.157   5.458  1.1305 -0.5131  0.1841
 5325SOL    MW421074   3.386   2.077   5.448  0.2526 -0.7671 -0.8729
 5326SOL     OW21075   4.646   5.467   5.195  0.4222  0.3937  0.2523
 5326SOL    HW221076   4.586   5.414   5.249  0.0850 -0.8557 -1.2766
 5326SOL    HW321077   4.726   5.472   5.247 -0.1708 -0.0323  1.2531
 5326SOL    MW421078   4.648   5.460   5.209  0.2995  0.1727  0.1826
 5327SOL     OW21079   4.833   3.665   3.286  0.2433  0.2338  0.3751
 5327SOL    HW221080   4.883   3.645   3.365  0.9827 -1.6196 -0.5107
 5327SOL    HW321081   4.873   3.745   3.253  2.1410 -0.7481  0.1387
 5327SOL    MW421082   4.845   3.673   3.292  0.5913 -0.1403  0.2270
 5328SOL     OW21083   1.060   1.752   5.871  0.1365  0.6285  0.1069
 5328SOL    HW221084   1.017   1.761   5.786  0.2079  1.9778  0.1832
 5328SOL    HW321085   1.150   1.728   5.851  0.1649  0.9938 -0.2101
 5328SOL    MW421086   1.066   1.750   5.857  0.1496  0.8547  0.0752
 5329SOL     OW21087   3.908   4.571   5.997 -0.0562  0.1994  0.2522
 5329SOL    HW221088   3.863   4.607   5.920 -0.9115  0.6855  0.9692
 5329SOL    HW321089   4.001   4.580   5.976 -0.2746  0.3725 -0.7068
 5329SOL    MW421090   3.914   4.577   5.984 -0.1979  0.2864  0.2203
 5330SOL     OW21091   0.830   2.353   0.942  0.3011  0.0394 -0.3868
 5330SOL    HW221092   0.884   2.432   0.943  0.6611 -0.1935 -1.2398
 5330SOL    HW321093   0.835   2.320   0.852  1.0408 -1.5717  0.2038
 5330SOL    MW421094   0.838   2.359   0.930  0.4462 -0.2039 -0.4214
 5331SOL     OW21095   2.399   2.223   5.590  0.2339 -0.5342 -0.3358
 5331SOL    HW221096   2.366   2.296   5.642 -0.3920  0.8007 -2.4646
 5331SOL    HW321097   2.321   2.180   5.556  0.5763 -2.5831  1.2796
 5331SOL    MW421098   2.385   2.227   5.592  0.1965 -0.6284 -0.4035
 5332SOL     OW21099   0.293   4.624   1.152  0.5524  0.3410  0.0479
 5332SOL    HW221100   0.343   4.583   1.081 -0.0327  1.9832 -1.3964
 5332SOL    HW321101   0.297   4.561   1.224  0.2812 -1.9104 -1.7876
 5332SOL    MW421102   0.300   4.611   1.152  0.4394  0.2606 -0.3848
 5333SOL     OW21103   6.118   1.508   0.428 -0.4721  0.0477 -0.0107
 5333SOL    HW221104   6.136   1.516   0.335 -0.2954  0.3588  0.0468
 5333SOL    HW321105   6.158   1.425   0.453  0.4283  0.4640 -0.0022
 5333SOL    MW421106   6.126   1.498   0.419 -0.3300  0.1437 -0.0020
 5334SOL     OW21107   4.699   1.244   3.390 -0.9574 -0.3908  0.1334
 5334SOL    HW221108   4.783   1.242   3.437 -0.4294  0.3198 -0.7661
 5334SOL    HW321109   4.695   1.159   3.346 -0.5089 -0.2521 -0.1738
 5334SOL    MW421110   4.710   1.232   3.391 -0.8286 -0.2787 -0.0258
 5335SOL     OW21111   4.569   4.656   2.332 -0.0181 -0.0124 -0.3802
 5335SOL    HW221112   4.530   4.616   2.410  0.8468  0.8005  0.4763
 5335SOL    HW321113   4.657   4.681   2.359  0.5881 -0.4472 -1.8596
 5335SOL    MW421114   4.575   4.654   2.346  0.1760  0.0375 -0.4624
 5336SOL     OW21115   2.954   6.164   3.834 -0.3478  0.4142 -0.0445
 5336SOL    HW221116   2.956   6.259   3.822  1.3568  0.5580  0.9592
 5336SOL    HW321117   2.888   6.150   3.901 -0.1903  0.9618  0.2380
 5336SOL    MW421118   2.946   6.175   3.841 -0.1021  0.5054  0.1252
 5337SOL     OW21119   0.054   3.380   2.948  0.1230  0.5251 -0.4138
 5337SOL    HW221120   0.107   3.433   2.889 -0.8982  1.8808 -0.1510
 5337SOL    HW321121   0.037   3.436   3.023  0.1054 -0.6397  0.4870
 5337SOL    MW421122   0.059   3.394   2.950 -0.0140  0.5503 -0.2602
 5338SOL     OW21123   0.274   1.084   5.317  0.1507  0.1533 -0.0686
 5338SOL    HW221124   0.231   1.014   5.269 -0.2902  1.4616 -1.6789
 5338SOL    HW321125   0.203   1.130   5.362 -0.3519  2.4597 -2.9180
 5338SOL    MW421126   0.259   1.081   5.317  0.0262  0.6302 -0.6570
 5339SOL     OW21127   5.271   5.936   4.608 -0.4791  0.0889 -0.0900
 5339SOL    HW221128   5.228   5.979   4.681 -0.3268 -0.5145  0.3618
 5339SOL    HW321129   5.267   5.843   4.629 -0.0706 -0.0634 -0.6525
 5339SOL    MW421130   5.265   5.929   4.620 -0.4051 -0.0108 -0.1046
 5340SOL     OW21131   4.306   4.126   0.984  0.4774 -0.7625  0.2088
 5340SOL    HW221132   4.217   4.101   0.960  0.4526 -0.9996  0.5369
 5340SOL    HW321133   4.361   4.059   0.945  0.4130 -1.3278  1.0666
 5340SOL    MW421134   4.301   4.114   0.976  0.4656 -0.8684  0.3653
 5341SOL     OW21135   5.064   5.331   1.797 -0.2743 -0.2232 -0.1007
 5341SOL    HW221136   5.136   5.376   1.752  0.7282 -2.7872 -1.2097
 5341SOL    HW321137   5.107   5.274   1.860 -1.4566 -0.5239  0.4642
 5341SOL    MW421138   5.079   5.330   1.800 -0.2980 -0.6012 -0.1725
 5342SOL     OW21139   3.031   5.756   1.641  0.1656  0.2691 -0.3321
 5342SOL    HW221140   3.108   5.785   1.590 -1.1618  0.8403 -2.1073
 5342SOL    HW321141   2.958   5.802   1.601 -0.9396  1.0583  2.4102
 5342SOL    MW421142   3.032   5.766   1.629 -0.1553  0.4486 -0.2045
 5343SOL     OW21143   1.250   5.651   6.015 -0.0983 -0.0987 -0.4632
 5343SOL    HW221144   1.157   5.654   6.036 -0.3390 -0.4766 -1.4093
 5343SOL    HW321145   1.293   5.693   6.089 -1.1368  1.3975 -0.6647
 5343SOL    MW421146   1.244   5.657   6.028 -0.2671  0.0489 -0.6146
 5344SOL     OW21147   5.138   1.040   4.562  0.5226  0.7376  0.2566
 5344SOL    HW221148   5.110   1.120   4.607  1.1030  0.6045  0.8772
 5344SOL    HW321149   5.208   1.005   4.617 -0.2459 -0.6165  0.4256
 5344SOL    MW421150   5.143   1.046   4.575  0.4978  0.5414  0.3608
 5345SOL     OW21151   2.365   5.050   4.171 -0.0031 -0.1629 -0.5213
 5345SOL    HW221152   2.380   5.039   4.077  2.5345 -1.6424 -0.0437
 5345SOL    HW321153   2.450   5.078   4.206 -0.8350  0.1794  1.3556
 5345SOL    MW421154   2.378   5.052   4.163  0.2220 -0.3129 -0.2107
 5346SOL     OW21155   5.161   0.486   2.100 -0.1644 -0.6131  0.3823
 5346SOL    HW221156   5.144   0.494   2.194  2.6503 -0.2286  0.9540
 5346SOL    HW321157   5.157   0.575   2.066 -1.3515 -0.7702  0.0622
 5346SOL    MW421158   5.158   0.499   2.108  0.0503 -0.5831  0.4155
 5347SOL     OW21159   2.488   5.061   1.611 -0.0851  0.5197  0.0217
 5347SOL    HW221160   2.485   5.014   1.695 -1.7269  0.6318  0.0728
 5347SOL    HW321161   2.504   4.992   1.546 -1.0792  0.0660  0.2327
 5347SOL    MW421162   2.490   5.045   1.613 -0.4329  0.4746  0.0563
 5348SOL     OW21163   4.448   4.833   1.804  0.2993  0.1717 -1.1156
 5348SOL    HW221164   4.505   4.779   1.859  0.0548  0.8176 -0.2231
 5348SOL    HW321165   4.508   4.879   1.745  0.5162 -1.0010 -1.8443
 5348SOL    MW421166   4.463   4.832   1.803  0.2957  0.1022 -1.0940
 5349SOL     OW21167   5.743   2.122   1.277  0.1584 -0.4695 -0.2303
 5349SOL    HW221168   5.665   2.125   1.332  1.4276 -1.1199  1.7034
 5349SOL    HW321169   5.768   2.029   1.276  1.1822 -0.2073 -0.3980
 5349SOL    MW421170   5.736   2.110   1.284  0.4609 -0.5208  0.0027
 5350SOL     OW21171   5.732   0.170   4.874 -0.0519 -0.4298  0.7743
 5350SOL    HW221172   5.664   0.174   4.807 -0.3905 -2.5635  0.9236
 5350SOL    HW321173   5.717   0.248   4.928 -1.8433 -0.3884  0.2767
 5350SOL    MW421174   5.721   0.181   4.872 -0.3329 -0.7058  0.7283
 5351SOL     OW21175   5.009   2.270   0.355 -0.2591 -0.0835 -0.2082
 5351SOL    HW221176   4.987   2.247   0.446  0.3110  0.4811  0.0821
 5351SOL    HW321177   5.038   2.361   0.360  2.6435 -0.8952 -0.4495
 5351SOL    MW421178   5.010   2.279   0.368  0.1991 -0.1161 -0.2017
 5352SOL     OW21179   3.403   3.712   5.716  0.0740  0.4130 -0.3065
 5352SOL    HW221180   3.328   3.683   5.664  0.2963  1.6199 -1.3435
 5352SOL    HW321181   3.368   3.779   5.775  0.0378 -0.1709  0.3489
 5352SOL    MW421182   3.389   3.717   5.717  0.0986  0.4952 -0.3569
 5353SOL     OW21183   4.326   4.126   2.769  0.0498 -0.1883 -0.0522
 5353SOL    HW221184   4.288   4.207   2.735  0.7407 -0.1260 -0.7199
 5353SOL    HW321185   4.267   4.057   2.738 -0.2027  0.0079 -0.0101
 5353SOL    MW421186   4.313   4.127   2.760  0.1077 -0.1542 -0.1347
 5354SOL     OW21187   0.812   6.253   6.364 -0.5108  0.2107 -0.1804
 5354SOL    HW221188   0.829   6.252   6.458 -1.0199  0.9229 -0.0693
 5354SOL    HW321189   0.871   6.319   6.328  0.0054 -0.3786 -0.4371
 5354SOL    MW421190   0.822   6.262   6.371 -0.5099  0.2269 -0.1996
 5355SOL     OW21191   4.863   1.075   3.581  0.6749 -0.2556 -0.9062
 5355SOL    HW221192   4.851   1.140   3.651 -0.7783 -1.3831 -0.0306
 5355SOL    HW321193   4.956   1.053   3.585  1.4541  2.4146 -1.8852
 5355SOL    MW421194   4.874   1.081   3.591  0.5860 -0.0520 -0.9199
 5356SOL     OW21195   1.103   0.012   5.619 -0.0644  0.1384 -0.2133
 5356SOL    HW221196   1.034   0.005   5.553  0.2866 -0.1862 -0.5505
 5356SOL    HW321197   1.129  -0.078   5.637 -0.3858  0.2026  0.6264
 5356SOL    MW421198   1.097  -0.001   5.612 -0.0605  0.1040 -0.1470
 5357SOL     OW21199   5.216   0.902   0.137  0.4526  0.2147  0.0526
 5357SOL    HW221200   5.267   0.973   0.175 -0.2775  1.4385 -1.1754
 5357SOL    HW321201   5.280   0.833   0.119  1.3519  0.9712  0.2939
 5357SOL    MW421202   5.231   0.902   0.139  0.4750  0.4760 -0.0776
 5358SOL     OW21203   1.594   0.877   0.883 -0.1671 -0.3028  0.0052
 5358SOL    HW221204   1.648   0.937   0.934  3.0904 -2.7820 -0.2171
 5358SOL    HW321205   1.618   0.895   0.792 -1.3636  0.0028 -0.2588
 5358SOL    MW421206   1.604   0.887   0.877  0.1048 -0.5896 -0.0589
 5359SOL     OW21207   4.602   0.923   3.630  0.1143  0.2019  0.4599
 5359SOL    HW221208   4.676   0.978   3.657  0.0855  0.0188  0.9257
 5359SOL    HW321209   4.635   0.873   3.555  0.4258  0.2106  0.5881
 5359SOL    MW421210   4.616   0.924   3.624  0.1516  0.1789  0.5383
 5360SOL     OW21211   0.494   0.523   2.374 -0.3836  0.5328  0.0959
 5360SOL    HW221212   0.555   0.578   2.323 -0.1037  0.8175  0.7195
 5360SOL    HW321213   0.408   0.563   2.359  0.0827  2.5615  2.3077
 5360SOL    MW421214   0.491   0.536   2.365 -0.2852  0.8380  0.4700
 5361SOL     OW21215   5.424   1.061   2.563  0.2040 -0.0976 -0.0030
 5361SOL    HW221216   5.489   1.052   2.494 -0.3163  0.9001 -0.6427
 5361SOL    HW321217   5.427   1.154   2.588  0.2984 -0.4087  1.2358
 5361SOL    MW421218   5.433   1.072   2.557  0.1478 -0.0070  0.0761
 5362SOL     OW21219   0.214   3.584   2.790 -0.2551 -0.0224 -0.1661
 5362SOL    HW221220   0.280   3.538   2.739 -1.7139 -1.3672 -0.9306
 5362SOL    HW321221   0.133   3.572   2.740 -1.2582  0.7711  1.2096
 5362SOL    MW421222   0.212   3.577   2.777 -0.5799 -0.0952 -0.0855
 5363SOL     OW21223   1.922   4.727   0.963 -0.8282 -0.1068 -0.1673
 5363SOL    HW221224   1.947   4.649   1.012  0.7420  1.0138  0.8805
 5363SOL    HW321225   1.885   4.692   0.882 -0.3864 -1.9465  0.3641
 5363SOL    MW421226   1.920   4.712   0.959 -0.5628 -0.2017  0.0411
 5364SOL     OW21227   1.567   5.356   2.183  0.1667  0.1489  0.0771
 5364SOL    HW221228   1.659   5.383   2.174 -0.0293  0.7884 -0.0313
 5364SOL    HW321229   1.517   5.424   2.137 -0.2426 -1.2021 -1.5955
 5364SOL    MW421230   1.573   5.368   2.176  0.0869  0.0550 -0.1579
 5365SOL     OW21231   3.835   2.857   5.938 -0.4085  0.3776  0.4632
 5365SOL    HW221232   3.896   2.787   5.917 -0.5124  0.4691 -0.1753
 5365SOL    HW321233   3.869   2.896   6.018 -0.9676 -1.1291  1.4964
 5365SOL    MW421234   3.847   2.853   5.945 -0.4960  0.1909  0.5153
 5366SOL     OW21235   1.282   0.166   3.955  0.4371 -0.0523 -0.1087
 5366SOL    HW221236   1.340   0.091   3.968 -0.2216 -0.3486  1.3084
 5366SOL    HW321237   1.289   0.216   4.036 -0.2349  0.6439 -0.4690
 5366SOL    MW421238   1.290   0.163   3.968  0.2615  0.0005  0.0307
 5367SOL     OW21239   0.838   2.547   2.419  0.1592 -0.1584 -0.1829
 5367SOL    HW221240   0.877   2.564   2.333 -0.1397  2.2628  0.0985
 5367SOL    HW321241   0.900   2.488   2.462  1.4080  0.3050 -1.2731
 5367SOL    MW421242   0.851   2.542   2.413  0.2846  0.2222 -0.2896
 5368SOL     OW21243   2.777   4.459   5.824 -0.0328 -0.2823  0.2656
 5368SOL    HW221244   2.695   4.500   5.798  0.6640  1.6369  0.9042
 5368SOL    HW321245   2.841   4.491   5.760  1.0635  1.9451  2.2770
 5368SOL    MW421246   2.775   4.469   5.812  0.2037  0.2648  0.6153
 5369SOL     OW21247   4.691   5.652   2.428  0.2390  0.7253  0.2192
 5369SOL    HW221248   4.764   5.714   2.420 -0.3594  1.7137  2.0699
 5369SOL    HW321249   4.615   5.699   2.393 -0.0062  0.6188  0.6103
 5369SOL    MW421250   4.691   5.666   2.422  0.1277  0.8416  0.5150
 5370SOL     OW21251   4.944   1.470   3.185 -0.1977 -0.6347 -0.3699
 5370SOL    HW221252   4.968   1.388   3.142  0.5123 -0.8324  0.3833
 5370SOL    HW321253   5.016   1.488   3.245 -0.1736  0.7436 -0.7883
 5370SOL    MW421254   4.956   1.461   3.187 -0.1008 -0.4789 -0.3257
 5371SOL     OW21255   5.233   4.629   1.977 -0.1712 -0.3194 -0.3181
 5371SOL    HW221256   5.222   4.556   1.916 -1.8796 -1.9911  1.8355
 5371SOL    HW321257   5.199   4.596   2.060 -0.4892  2.7571  0.8953
 5371SOL    MW421258   5.227   4.615   1.980 -0.4385 -0.1341  0.1261
 5372SOL     OW21259   1.035   5.736   2.130 -0.1558 -0.1360 -0.1822
 5372SOL    HW221260   1.007   5.737   2.222 -0.5657  1.7997 -0.2818
 5372SOL    HW321261   0.996   5.815   2.092  1.1549 -0.1425 -1.6620
 5372SOL    MW421262   1.026   5.747   2.137 -0.0370  0.1185 -0.3906
 5373SOL     OW21263   6.108   1.640   6.287  0.4618 -0.2677 -0.2214
 5373SOL    HW221264   6.116   1.566   6.228  0.3148  0.3348 -1.0159
 5373SOL    HW321265   6.143   1.609   6.370  2.6415 -0.5154 -1.1570
 5373SOL    MW421266   6.114   1.626   6.290  0.7300 -0.2209 -0.4497
 5374SOL     OW21267   4.131   5.435   4.906  0.2234 -0.2630  0.2984
 5374SOL    HW221268   4.144   5.341   4.900  1.3834 -0.0407 -1.4729
 5374SOL    HW321269   4.184   5.462   4.981 -0.5043 -1.0557  1.1202
 5374SOL    MW421270   4.140   5.426   4.915  0.2804 -0.3382  0.1731
 5375SOL     OW21271   3.412   4.809   4.293  0.0973  0.2661 -0.5018
 5375SOL    HW221272   3.399   4.859   4.374 -1.8154 -0.7866 -0.1113
 5375SOL    HW321273   3.335   4.830   4.240  0.6342 -0.1650 -1.4751
 5375SOL    MW421274   3.400   4.819   4.297 -0.0842  0.0703 -0.5787
 5376SOL     OW21275   2.609   5.681   2.464  0.1202  0.2040  0.0240
 5376SOL    HW221276   2.692   5.680   2.416  1.3943  0.2538  2.0934
 5376SOL    HW321277   2.553   5.740   2.413  0.6692 -1.2334 -2.4129
 5376SOL    MW421278   2.612   5.689   2.451  0.3608  0.0210 -0.0245
 5377SOL     OW21279   5.294   3.749   5.625  0.3295 -0.0194  0.0293
 5377SOL    HW221280   5.198   3.743   5.628  0.2345  0.5736 -1.1556
 5377SOL    HW321281   5.317   3.800   5.702 -0.3192 -0.0677  0.2678
 5377SOL    MW421282   5.284   3.755   5.636  0.2313  0.0525 -0.0955
 5378SOL     OW21283   4.247   1.316   4.456 -0.9628  0.1827  0.7287
 5378SOL    HW221284   4.189   1.391   4.450  0.0936  1.1753  2.1965
 5378SOL    HW321285   4.267   1.308   4.549 -0.5322 -1.5195  0.5262
 5378SOL    MW421286   4.242   1.325   4.467 -0.7666  0.0891  0.8956
 5379SOL     OW21287   4.842   4.656   4.467 -0.0538  0.0942  0.0386
 5379SOL    HW221288   4.872   4.662   4.377  1.6755  0.9744  0.6368
 5379SOL    HW321289   4.808   4.743   4.487  0.6999  0.2688  0.6003
 5379SOL    MW421290   4.841   4.668   4.458  0.2738  0.2333  0.1916
 5380SOL     OW21291   2.141   3.304   3.200  0.0835 -0.1412  0.2690
 5380SOL    HW221292   2.236   3.304   3.207  0.4892  0.1254 -3.3166
 5380SOL    HW321293   2.117   3.211   3.193 -0.0663 -0.2557  1.9201
 5380SOL    MW421294   2.150   3.291   3.200  0.1173 -0.1211  0.0137
 5381SOL     OW21295   1.176   0.925   0.812 -0.0357  0.1434  0.4815
 5381SOL    HW221296   1.092   0.902   0.772  0.2051 -1.4705  0.8353
 5381SOL    HW321297   1.226   0.968   0.742 -0.3097 -0.9630 -0.4080
 5381SOL    MW421298   1.172   0.928   0.797 -0.0401 -0.2155  0.4109
 5382SOL     OW21299   6.177   4.911   2.035 -0.8377 -0.2259  0.3044
 5382SOL    HW221300   6.165   4.817   2.047 -1.6949 -0.2840 -0.8491
 5382SOL    HW321301   6.163   4.949   2.122  0.3691 -1.2172  0.9707
 5382SOL    MW421302   6.174   4.904   2.048 -0.7916 -0.3643  0.2401
 5383SOL     OW21303   6.204   3.643   0.067  0.3545 -0.0747 -0.0006
 5383SOL    HW221304   6.121   3.675   0.104  0.8642  4.0381 -1.7793
 5383SOL    HW321305   6.183   3.621  -0.023  1.0174  0.2763 -0.2474
 5383SOL    MW421306   6.190   3.645   0.060  0.5092  0.5142 -0.2678
 5384SOL     OW21307   3.555   2.782   6.282 -0.1117  0.0805 -0.0614
 5384SOL    HW221308   3.582   2.781   6.191 -1.6453 -1.9346 -0.5612
 5384SOL    HW321309   3.470   2.828   6.282  0.5832  1.4431  0.6317
 5384SOL    MW421310   3.547   2.788   6.270 -0.2224 -0.0056 -0.0359
 5385SOL     OW21311   0.537   1.586   2.988 -0.5531 -0.5284 -0.1424
 5385SOL    HW221312   0.465   1.548   2.937 -0.5499 -1.3919  0.4836
 5385SOL    HW321313   0.503   1.592   3.077 -1.0038  2.1432 -0.4154
 5385SOL    MW421314   0.523   1.582   2.993 -0.6122 -0.2898 -0.0958
 5386SOL     OW21315   1.438   1.611   1.328 -0.6097 -0.6263  0.7226
 5386SOL    HW221316   1.416   1.610   1.421 -1.0883 -0.4518  0.6131
 5386SOL    HW321317   1.445   1.518   1.304 -1.2539 -0.6887  0.7562
 5386SOL    MW421318   1.436   1.598   1.337 -0.7579 -0.6115  0.7126
 5387SOL     OW21319   5.260   5.402   4.470 -0.2172 -0.2036  0.8121
 5387SOL    HW221320   5.223   5.491   4.468 -0.3665 -0.2141  2.4509
 5387SOL    HW321321   5.219   5.360   4.545  2.2544 -0.6029  2.0127
 5387SOL    MW421322   5.249   5.408   4.479  0.0892 -0.2577  1.1867
 5388SOL     OW21323   3.844   6.333   2.925  0.2402 -0.4874 -0.1298
 5388SOL    HW221324   3.903   6.275   2.973  1.8600  1.3914  0.2888
 5388SOL    HW321325   3.815   6.397   2.989 -0.4676 -0.0469 -0.8657
 5388SOL    MW421326   3.848   6.334   2.940  0.3606 -0.1814 -0.1717
 5389SOL     OW21327   3.884   5.874   0.854  0.0524  0.6730  1.0858
 5389SOL    HW221328   3.840   5.884   0.769  2.0321  0.5837 -0.0223
 5389SOL    HW321329   3.890   5.963   0.888 -0.2936  0.7806  0.8729
 5389SOL    MW421330   3.879   5.887   0.847  0.2679  0.6754  0.9115
 5390SOL     OW21331   5.600   4.906   1.444 -0.3891 -0.1344 -0.2624
 5390SOL    HW221332   5.537   4.876   1.509  0.9862 -0.5994  0.9141
 5390SOL    HW321333   5.684   4.906   1.490  0.2711  1.8900 -1.3277
 5390SOL    MW421334   5.603   4.902   1.459 -0.1206  0.0714 -0.2478
 5391SOL     OW21335   4.105   3.960   4.539 -0.0280 -0.6956 -0.4148
 5391SOL    HW221336   4.066   4.023   4.479 -0.1262 -0.3514  0.0069
 5391SOL    HW321337   4.031   3.911   4.574  0.1678 -2.2066 -2.0130
 5391SOL    MW421338   4.090   3.962   4.536 -0.0151 -0.8495 -0.5700
 5392SOL     OW21339   5.315   2.045   1.598  0.1179 -0.2474 -0.1474
 5392SOL    HW221340   5.279   2.129   1.626  1.5720  0.6766 -0.9259
 5392SOL    HW321341   5.330   1.997   1.680 -0.7288  0.2210  0.3019
 5392SOL    MW421342   5.312   2.049   1.613  0.1980 -0.0637 -0.1908
 5393SOL     OW21343   5.334   4.089   5.699 -0.0571  0.1216  0.1014
 5393SOL    HW221344   5.284   4.064   5.622  1.4126  0.1459 -0.8825
 5393SOL    HW321345   5.284   4.162   5.737  0.1798  1.3983 -1.9128
 5393SOL    MW421346   5.320   4.096   5.694  0.1680  0.2933 -0.2941
 5394SOL     OW21347   4.190   1.567   4.175  0.5255 -0.3532  0.1528
 5394SOL    HW221348   4.217   1.477   4.158  1.7806  0.0213  0.1020
 5394SOL    HW321349   4.121   1.583   4.111  0.5159 -1.1694 -0.0600
 5394SOL    MW421350   4.184   1.557   4.164  0.6898 -0.4115  0.1180
 5395SOL     OW21351   5.100   5.087   1.986  0.2134  0.2158  0.0916
 5395SOL    HW221352   5.021   5.064   2.035  1.4525 -1.6311  1.3632
 5395SOL    HW321353   5.107   5.018   1.919  0.5397  0.5873 -0.2615
 5395SOL    MW421354   5.090   5.075   1.984  0.4199  0.0211  0.2128
 5396SOL     OW21355   1.454   5.421   6.331  0.3538 -0.0427 -0.2950
 5396SOL    HW221356   1.456   5.363   6.255 -0.5072 -1.3454  0.6453
 5396SOL    HW321357   1.376   5.395   6.380 -0.6812  2.5864 -0.3405
 5396SOL    MW421358   1.444   5.410   6.327  0.1036  0.1323 -0.1769
 5397SOL     OW21359   3.163   1.712   3.727  0.0593  0.4836 -0.0443
 5397SOL    HW221360   3.144   1.618   3.722  0.8429  0.3178 -0.0610
 5397SOL    HW321361   3.170   1.730   3.821 -0.7558  0.6701 -0.0145
 5397SOL    MW421362   3.162   1.702   3.739  0.0552  0.4863 -0.0426
 5398SOL     OW21363   5.286   5.259   0.236  0.4632  0.6112 -0.3117
 5398SOL    HW221364   5.199   5.298   0.226 -0.2790 -1.2908 -1.6849
 5398SOL    HW321365   5.305   5.267   0.329 -0.3870  2.6353 -0.2626
 5398SOL    MW421366   5.277   5.266   0.247  0.2531  0.6273 -0.4864
 5399SOL     OW21367   4.786   0.969   4.300 -0.3779 -0.0813  0.0160
 5399SOL    HW221368   4.709   1.026   4.292  0.1242  0.9703  2.1556
 5399SOL    HW321369   4.770   0.917   4.378  0.4286 -0.9522 -0.3757
 5399SOL    MW421370   4.773   0.970   4.309 -0.2053 -0.0574  0.2467
 5400SOL     OW21371   5.118   0.372   3.608  0.4422  0.5689  0.0035
 5400SOL    HW221372   5.064   0.324   3.670  1.3867 -1.7599 -0.8588
 5400SOL    HW321373   5.197   0.319   3.600  1.0628  1.7044 -1.9054
 5400SOL    MW421374   5.121   0.359   3.615  0.6487  0.4115 -0.3622
 5401SOL     OW21375   4.925   2.224   5.468 -0.9338  0.1872 -0.0479
 5401SOL    HW221376   4.946   2.268   5.386  0.6857  0.5574  0.5240
 5401SOL    HW321377   4.914   2.132   5.444  0.9992  0.0417 -0.4915
 5401SOL    MW421378   4.926   2.217   5.454 -0.4651  0.2169 -0.0310
 5402SOL     OW21379   3.667   2.585   4.770 -0.4994 -0.1705 -0.0705
 5402SOL    HW221380   3.717   2.536   4.835 -1.5400 -0.7341  0.3214
 5402SOL    HW321381   3.605   2.521   4.735 -3.2376  1.2703  1.8304
 5402SOL    MW421382   3.665   2.570   4.774 -0.9980 -0.0547  0.2320
 5403SOL     OW21383   0.717   5.873   5.584  0.1047  0.4392 -0.0339
 5403SOL    HW221384   0.769   5.898   5.661 -1.2316 -0.0090  1.0628
 5403SOL    HW321385   0.673   5.954   5.557  0.2665  0.5127 -0.0757
 5403SOL    MW421386   0.718   5.887   5.591 -0.0503  0.3898  0.1053
 5404SOL     OW21387   0.835   1.138   1.288  0.4243  0.3697 -0.2045
 5404SOL    HW221388   0.755   1.189   1.301 -1.2622 -1.2650 -3.1802
 5404SOL    HW321389   0.891   1.194   1.235  0.5258  0.8562  0.4097
 5404SOL    MW421390   0.832   1.152   1.283  0.2151  0.2182 -0.5160
 5405SOL     OW21391   3.289   3.230   0.518 -0.2240 -1.1503  0.8881
 5405SOL    HW221392   3.346   3.172   0.468 -0.6034 -0.0694 -0.8885
 5405SOL    HW321393   3.342   3.309   0.532 -0.4552 -1.0746  1.3573
 5405SOL    MW421394   3.304   3.233   0.514 -0.3046 -0.9977  0.7156
 5406SOL     OW21395   0.811   3.762   3.874  0.2303  0.5003 -0.2961
 5406SOL    HW221396   0.877   3.695   3.888  1.0590  1.7107  2.2281
 5406SOL    HW321397   0.735   3.733   3.925  0.1894  0.8938 -0.1235
 5406SOL    MW421398   0.810   3.750   3.883  0.3343  0.7119  0.0597
 5407SOL     OW21399   3.732   5.081   2.729  0.1663  0.0544  0.2027
 5407SOL    HW221400   3.813   5.114   2.689 -0.5247  0.7462 -0.6944
 5407SOL    HW321401   3.714   5.000   2.681  0.3522 -0.1215  0.4314
 5407SOL    MW421402   3.740   5.075   2.717  0.0997  0.1225  0.1145
 5408SOL     OW21403   0.734   6.262   2.024  0.5158 -0.5323 -0.2750
 5408SOL    HW221404   0.722   6.167   2.033  0.8868 -0.5755 -0.2328
 5408SOL    HW321405   0.769   6.290   2.108 -1.5227 -0.0260  0.4767
 5408SOL    MW421406   0.737   6.253   2.036  0.2958 -0.4712 -0.1703
 5409SOL     OW21407   6.283   2.645   0.425 -0.4811 -0.6665 -0.4357
 5409SOL    HW221408   6.377   2.637   0.442 -0.3020  1.9661  0.1987
 5409SOL    HW321409   6.241   2.611   0.504 -0.0890 -1.3331 -0.4988
 5409SOL    MW421410   6.290   2.639   0.438 -0.4058 -0.4071 -0.3604
 5410SOL     OW21411   1.046   1.468   2.301  0.8208 -0.4133 -0.7466
 5410SOL    HW221412   0.959   1.467   2.262  1.5851 -1.4926 -2.5183
 5410SOL    HW321413   1.032   1.504   2.389 -1.5168 -1.2652 -0.7059
 5410SOL    MW421414   1.033   1.473   2.308  0.6133 -0.6681 -0.9750
 5411SOL     OW21415   2.973   5.880   0.727 -0.5030 -0.1123 -0.2750
 5411SOL    HW221416   3.067   5.894   0.739 -0.2570 -1.3001 -0.6446
 5411SOL    HW321417   2.938   5.966   0.704  0.7800  0.0354 -1.8466
 5411SOL    MW421418   2.981   5.893   0.725 -0.3013 -0.2496 -0.5311
 5412SOL     OW21419   4.060   3.589   5.884  0.2299 -0.4218 -0.0856
 5412SOL    HW221420   4.062   3.669   5.937  0.9093 -0.1898 -0.4492
 5412SOL    HW321421   4.112   3.526   5.934 -0.0103 -0.5295  0.0296
 5412SOL    MW421422   4.067   3.591   5.898  0.2879 -0.4054 -0.1184
 5413SOL     OW21423   2.943   4.034   2.259  0.2045 -0.5001 -0.3556
 5413SOL    HW221424   3.005   3.970   2.296 -0.4552 -0.0670  1.5810
 5413SOL    HW321425   2.999   4.096   2.212  1.1463 -0.7900  0.3378
 5413SOL    MW421426   2.959   4.033   2.258  0.2417 -0.4812 -0.0086
 5414SOL     OW21427   1.193   6.162   0.809  0.0677  0.8594  0.5601
 5414SOL    HW221428   1.214   6.214   0.731 -0.4750 -0.4202 -0.4790
 5414SOL    HW321429   1.103   6.131   0.793  0.4776 -0.6307  0.9867
 5414SOL    MW421430   1.184   6.165   0.796  0.0502  0.4940  0.4793
 5415SOL     OW21431   2.808   1.346   1.096  0.0735  0.4766 -0.1723
 5415SOL    HW221432   2.795   1.290   1.173  0.1562  0.6041 -0.0660
 5415SOL    HW321433   2.728   1.398   1.090  0.5530  1.3296  0.5390
 5415SOL    MW421434   2.796   1.346   1.105  0.1477  0.6060 -0.0644
 5416SOL     OW21435   3.268   1.663   4.652  0.0812 -0.9081  0.6184
 5416SOL    HW221436   3.273   1.756   4.632 -1.5236 -0.7455  0.8799
 5416SOL    HW321437   3.254   1.621   4.567  1.2219 -0.9869  0.4418
 5416SOL    MW421438   3.267   1.669   4.638  0.0199 -0.8970  0.6296
 5417SOL     OW21439   5.558   0.072   1.708  0.3027 -0.3343 -0.0301
 5417SOL    HW221440   5.519   0.014   1.773  0.8423 -0.1951  0.4331
 5417SOL    HW321441   5.486   0.127   1.677  0.0107 -0.5115  0.3346
 5417SOL    MW421442   5.543   0.071   1.713  0.3354 -0.3393  0.0791
 5418SOL     OW21443   0.594   1.981   3.091 -0.0929  0.5448 -0.1779
 5418SOL    HW221444   0.663   2.046   3.079 -0.3434  0.6122 -1.2843
 5418SOL    HW321445   0.624   1.929   3.166  0.3139  1.6508  0.4447
 5418SOL    MW421446   0.607   1.983   3.100 -0.0723  0.6996 -0.2417
 5419SOL     OW21447   4.225   5.975   3.322  0.0790  0.3117  0.3354
 5419SOL    HW221448   4.200   6.067   3.325 -0.0980  0.3043 -0.6709
 5419SOL    HW321449   4.319   5.976   3.306 -0.1579  0.3419 -1.2727
 5419SOL    MW421450   4.234   5.987   3.320  0.0244  0.3147 -0.0095
 5420SOL     OW21451   3.169   4.298   2.520 -0.6488  0.0228 -0.4153
 5420SOL    HW221452   3.260   4.274   2.504 -0.5372 -0.3851  0.6970
 5420SOL    HW321453   3.138   4.331   2.436 -0.4709 -2.8990 -1.7617
 5420SOL    MW421454   3.177   4.299   2.507 -0.6106 -0.4165 -0.4462
 5421SOL     OW21455   1.375   5.890   5.416 -0.1556 -0.0320  0.0100
 5421SOL    HW221456   1.434   5.914   5.488 -1.9263 -0.4324  1.6627
 5421SOL    HW321457   1.370   5.795   5.420 -1.0127  0.0093 -0.0220
 5421SOL    MW421458   1.382   5.881   5.426 -0.5023 -0.0794  0.2238
 5422SOL     OW21459   1.869   2.685   4.497 -0.1140  0.7366 -0.2398
 5422SOL    HW221460   1.850   2.762   4.443  0.4600  0.6879 -0.5097
 5422SOL    HW321461   1.885   2.721   4.584 -0.9930  0.8190 -0.0953
 5422SOL    MW421462   1.868   2.700   4.501 -0.1543  0.7410 -0.2564
 5423SOL     OW21463   5.456   6.112   3.997  0.0118 -0.2791 -0.2258
 5423SOL    HW221464   5.382   6.104   3.937 -1.5304 -1.4305  1.7143
 5423SOL    HW321465   5.488   6.202   3.985 -1.3286  0.0599 -1.4931
 5423SOL    MW421466   5.451   6.123   3.988 -0.3685 -0.3863 -0.1370
 5424SOL     OW21467   1.651   3.604   0.634  0.2558 -0.2911 -0.3923
 5424SOL    HW221468   1.556   3.604   0.621  0.3493 -0.0783 -1.1078
 5424SOL    HW321469   1.687   3.588   0.547  0.9321  1.8608 -0.5486
 5424SOL    MW421470   1.643   3.602   0.621  0.3574  0.0209 -0.5073
 5425SOL     OW21471   2.181   1.746   5.427 -0.9816 -0.1622  0.1429
 5425SOL    HW221472   2.187   1.689   5.351  1.6476  1.1760 -0.7687
 5425SOL    HW321473   2.092   1.733   5.460 -1.4320 -2.4911 -1.7706
 5425SOL    MW421474   2.170   1.737   5.422 -0.6941 -0.2929 -0.2298
 5426SOL     OW21475   3.436   1.844   0.082 -0.2280  0.1488 -0.0835
 5426SOL    HW221476   3.353   1.877   0.116 -0.4540  0.2528 -0.7362
 5426SOL    HW321477   3.490   1.922   0.071  0.1556  0.0329  0.8456
 5426SOL    MW421478   3.432   1.859   0.085 -0.2072  0.1472 -0.0470
 5427SOL     OW21479   1.034   2.637   4.701 -0.5358  0.3597  0.1808
 5427SOL    HW221480   1.001   2.550   4.726  0.4618 -0.1907 -0.3393
 5427SOL    HW321481   1.092   2.620   4.626  2.3155  0.9988  2.0634
 5427SOL    MW421482   1.038   2.623   4.695 -0.0280  0.3714  0.3606
 5428SOL     OW21483   3.118   2.270   1.869  0.9452 -0.1278  0.6616
 5428SOL    HW221484   3.097   2.363   1.870  3.9396  0.7322 -1.5388
 5428SOL    HW321485   3.178   2.258   1.943 -1.4871 -1.0073  2.6045
 5428SOL    MW421486   3.123   2.280   1.879  1.0194 -0.1304  0.6277
 5429SOL     OW21487   0.659   5.980   1.944 -0.0868 -0.0156 -0.0868
 5429SOL    HW221488   0.574   5.935   1.946 -0.1747  0.1536 -0.0374
 5429SOL    HW321489   0.721   5.911   1.919  0.0178 -0.5364  1.5068
 5429SOL    MW421490   0.656   5.965   1.941 -0.0846 -0.0620  0.1300
 5430SOL     OW21491   3.298   1.555   5.002 -0.0081 -0.6585 -0.6609
 5430SOL    HW221492   3.284   1.625   4.938  0.3477 -0.4044 -0.4661
 5430SOL    HW321493   3.217   1.505   5.001 -0.7511  0.4790  0.0630
 5430SOL    MW421494   3.285   1.558   4.994 -0.0591 -0.4749 -0.5397
 5431SOL     OW21495   1.918   2.803   3.561  0.4125 -0.4664 -0.0631
 5431SOL    HW221496   1.922   2.833   3.651 -0.7871 -0.4355 -0.0061
 5431SOL    HW321497   1.878   2.875   3.512 -0.2856 -1.0236 -0.3469
 5431SOL    MW421498   1.913   2.816   3.566  0.1621 -0.5359 -0.0930
 5432SOL     OW21499   3.040   4.592   5.668 -0.2043  0.0393  0.1106
 5432SOL    HW221500   3.108   4.561   5.728  0.2714  0.0904 -0.3962
 5432SOL    HW321501   3.086   4.606   5.585 -0.2358  2.8256  0.4815
 5432SOL    MW421502   3.055   4.590   5.665 -0.1457  0.4137  0.0927
 5433SOL     OW21503   0.533   1.693   5.489 -0.5334 -0.0978 -0.0541
 5433SOL    HW221504   0.559   1.677   5.398  0.3030  1.1506 -0.0621
 5433SOL    HW321505   0.548   1.610   5.533  0.5232 -0.3003 -0.7438
 5433SOL    MW421506   0.538   1.680   5.483 -0.2837  0.0402 -0.1462
 5434SOL     OW21507   0.025   2.090   3.735 -0.8779 -1.2788  0.0285
 5434SOL    HW221508   0.044   2.029   3.664 -1.3124 -1.4360  0.0443
 5434SOL    HW321509   0.075   2.168   3.714 -0.6243 -1.5029 -0.1958
 5434SOL    MW421510   0.034   2.092   3.723 -0.9017 -1.3291  0.0010
 5435SOL     OW21511   6.319   0.870   4.094 -0.0956  0.4555  0.1363
 5435SOL    HW221512   6.356   0.873   4.182  1.0996 -1.0174 -0.2723
 5435SOL    HW321513   6.365   0.798   4.051  0.7684  2.3413 -2.3455
 5435SOL    MW421514   6.330   0.860   4.100  0.1761  0.5099 -0.2450
 5436SOL     OW21515   4.593   0.683   5.604  0.0436 -0.1061  0.2226
 5436SOL    HW221516   4.635   0.740   5.668 -0.8810  1.7318 -0.7301
 5436SOL    HW321517   4.543   0.620   5.658  0.7845  0.1917  1.2946
 5436SOL    MW421518   4.592   0.682   5.620  0.0194  0.1757  0.2384
 5437SOL     OW21519   1.838   3.384   4.752  0.2814  0.1897  0.0114
 5437SOL    HW221520   1.868   3.389   4.661  0.2835  0.6881  0.0361
 5437SOL    HW321521   1.772   3.316   4.752  1.6273 -1.1787  0.0068
 5437SOL    MW421522   1.834   3.376   4.740  0.4592  0.0749  0.0141
 5438SOL     OW21523   1.463   5.692   0.944 -0.8960 -0.5891  0.7306
 5438SOL    HW221524   1.530   5.723   1.006 -0.4435  0.1051 -0.0898
 5438SOL    HW321525   1.410   5.770   0.926 -2.0720 -1.1681  1.5181
 5438SOL    MW421526   1.465   5.707   0.950 -0.9914 -0.5739  0.7262
 5439SOL     OW21527   0.914   4.423   1.529 -0.0047 -0.0367  0.4899
 5439SOL    HW221528   0.889   4.335   1.556  2.3243 -1.5170 -1.6745
 5439SOL    HW321529   0.894   4.426   1.436  0.6661  1.4247  0.3686
 5439SOL    MW421530   0.908   4.412   1.520  0.3911 -0.0392  0.1883
 5440SOL     OW21531   2.071   4.482   4.913  0.2656 -0.1664  0.3091
 5440SOL    HW221532   2.122   4.529   4.979 -0.2258 -0.9607  1.2951
 5440SOL    HW321533   2.116   4.397   4.904  0.0716 -0.2319 -0.0432
 5440SOL    MW421534   2.084   4.477   4.921  0.1751 -0.2799  0.3927
 5441SOL     OW21535   3.072   4.074   3.696 -0.1833 -0.0216  0.4518
 5441SOL    HW221536   3.009   4.043   3.631  0.7342 -2.2905  0.5571
 5441SOL    HW321537   3.034   4.155   3.730 -2.4727 -0.7207 -0.2682
 5441SOL    MW421538   3.059   4.081   3.692 -0.3643 -0.4132  0.3707
 5442SOL     OW21539   1.189   3.358   0.300 -0.9658  0.1610  0.1299
 5442SOL    HW221540   1.121   3.399   0.353  0.1801  2.1667  0.1511
 5442SOL    HW321541   1.210   3.277   0.347 -1.1007  1.0981  1.8821
 5442SOL    MW421542   1.183   3.353   0.314 -0.8324  0.5493  0.3639
 5443SOL     OW21543   1.665   0.944   0.626  0.2184  0.1016  0.0454
 5443SOL    HW221544   1.656   0.892   0.547  0.8885 -1.2182  0.8052
 5443SOL    HW321545   1.752   0.921   0.661 -0.5319 -0.2900  1.7919
 5443SOL    MW421546   1.675   0.934   0.620  0.2078 -0.1242  0.3761
 5444SOL     OW21547   5.088   3.909   5.109  0.9339  0.1759 -0.4330
 5444SOL    HW221548   5.041   3.942   5.186  0.9363 -0.6792 -0.0568
 5444SOL    HW321549   5.154   3.976   5.091 -1.1550  2.0100 -1.7073
 5444SOL    MW421550   5.090   3.922   5.117  0.6586  0.3051 -0.5515
 5445SOL     OW21551   0.876   4.009   1.371 -0.0889 -0.2049 -0.0094
 5445SOL    HW221552   0.811   3.962   1.318  0.3291 -0.5930 -0.1901
 5445SOL    HW321553   0.926   4.060   1.308 -0.4417  0.3639  0.1705
 5445SOL    MW421554   0.874   4.009   1.356 -0.0803 -0.1811 -0.0095
 5446SOL     OW21555   0.587   5.562   1.771  0.0404 -0.1654  0.3362
 5446SOL    HW221556   0.550   5.614   1.700 -0.5896 -2.0482 -0.8021
 5446SOL    HW321557   0.510   5.529   1.818  0.4094 -0.3044  0.8442
 5446SOL    MW421558   0.572   5.564   1.768  0.0060 -0.4321  0.2530
 5447SOL     OW21559   0.678   2.954   3.313 -0.4452 -0.0871  0.4113
 5447SOL    HW221560   0.608   3.012   3.346 -0.5030 -0.1552  0.4086
 5447SOL    HW321561   0.697   2.896   3.387  0.0988  0.3881  0.6467
 5447SOL    MW421562   0.671   2.954   3.327 -0.3810 -0.0334  0.4420
 5448SOL     OW21563   2.779   3.569   1.005 -0.2991 -0.1140  0.7785
 5448SOL    HW221564   2.820   3.487   0.977  1.4954  0.8489  0.4626
 5448SOL    HW321565   2.806   3.580   1.096  0.1929  0.5533  0.5575
 5448SOL    MW421566   2.788   3.559   1.014  0.0026  0.1011  0.7077
 5449SOL     OW21567   2.663   3.797   5.409  0.8301  0.2169 -0.0685
 5449SOL    HW221568   2.601   3.741   5.362  1.0141  0.1398 -0.2214
 5449SOL    HW321569   2.715   3.838   5.340  0.7928  0.4621  0.0510
 5449SOL    MW421570   2.662   3.795   5.394  0.8494  0.2391 -0.0729
 5450SOL     OW21571   3.314   5.619   5.344  0.0146 -0.1672  0.0595
 5450SOL    HW221572   3.389   5.654   5.393 -0.1760  1.3134 -0.6448
 5450SOL    HW321573   3.304   5.679   5.270 -1.5171 -0.6677 -0.1687
 5450SOL    MW421574   3.322   5.632   5.341 -0.2126 -0.0379 -0.0635
 5451SOL     OW21575   0.202   3.969   4.952 -0.4648  0.1109  0.3777
 5451SOL    HW221576   0.296   3.982   4.959 -0.4966  0.1582  0.7672
 5451SOL    HW321577   0.167   4.056   4.932 -0.1013 -0.5119 -3.7116
 5451SOL    MW421578   0.210   3.982   4.951 -0.4210  0.0349 -0.1104
 5452SOL     OW21579   2.676   2.806   2.358 -0.1842 -0.7938  0.5882
 5452SOL    HW221580   2.703   2.867   2.290 -1.2243 -0.8564  0.1026
 5452SOL    HW321581   2.582   2.794   2.344 -0.8336  0.6458  3.1806
 5452SOL    MW421582   2.667   2.812   2.347 -0.4071 -0.6122  0.8661
 5453SOL     OW21583   3.712   2.954   1.038  0.1571 -0.1001  0.2274
 5453SOL    HW221584   3.702   3.037   0.990 -1.4850 -0.2176  0.3004
 5453SOL    HW321585   3.693   2.977   1.129 -2.8095 -0.9132 -0.0675
 5453SOL    MW421586   3.708   2.968   1.044 -0.4510 -0.2229  0.1981
 5454SOL     OW21587   0.693   1.349   6.320  0.0694 -0.2138 -0.2471
 5454SOL    HW221588   0.707   1.444   6.311  0.2178 -0.2744 -0.6691
 5454SOL    HW321589   0.779   1.314   6.343  0.0783 -0.2824 -0.3854
 5454SOL    MW421590   0.706   1.357   6.322  0.0902 -0.2308 -0.3210
 5455SOL     OW21591   4.287   4.736   2.804 -0.3761 -0.3758 -0.6521
 5455SOL    HW221592   4.303   4.825   2.836  2.4262 -0.8275 -0.5253
 5455SOL    HW321593   4.233   4.695   2.872 -1.8072  1.2058 -0.7670
 5455SOL    MW421594   4.282   4.743   2.817 -0.1952 -0.2267 -0.6505
 5456SOL     OW21595   6.249   4.502   1.918  0.4377  0.4337  0.5668
 5456SOL    HW221596   6.226   4.565   1.849  3.1135  1.0820  0.1639
 5456SOL    HW321597   6.192   4.426   1.901 -0.2670  1.3073 -1.2007
 5456SOL    MW421598   6.239   4.500   1.906  0.6977  0.6345  0.2804
 5457SOL     OW21599   4.584   2.130   0.052 -0.0896  0.1837 -0.4866
 5457SOL    HW221600   4.510   2.159  -0.001 -0.9785  1.0456  1.1331
 5457SOL    HW321601   4.658   2.183   0.021 -0.3039 -0.1426 -1.6031
 5457SOL    MW421602   4.584   2.141   0.041 -0.2351  0.2544 -0.4202
 5458SOL     OW21603   4.213   3.628   1.670  0.3407 -0.2098  0.4493
 5458SOL    HW221604   4.194   3.563   1.602  0.8288 -0.2307  0.3234
 5458SOL    HW321605   4.199   3.712   1.627  0.1716 -0.2273  0.4695
 5458SOL    MW421606   4.209   3.630   1.655  0.3827 -0.2149  0.4353
 5459SOL     OW21607   3.144   1.889   5.331  0.3422  0.5733  0.2337
 5459SOL    HW221608   3.228   1.853   5.302  1.8081  3.9509 -0.2114
 5459SOL    HW321609   3.159   1.915   5.422 -0.5163  0.4826  0.4149
 5459SOL    MW421610   3.157   1.888   5.339  0.4223  1.0070  0.1989
 5460SOL     OW21611   5.636   2.868   4.174  0.2958  0.0977  0.5003
 5460SOL    HW221612   5.727   2.842   4.187  0.1247 -1.0719 -0.4962
 5460SOL    HW321613   5.635   2.915   4.091 -0.3539 -2.0916 -0.8376
 5460SOL    MW421614   5.648   2.870   4.165  0.1875 -0.3455  0.1923
 5461SOL     OW21615   4.111   3.567   2.156  0.4313 -0.3715 -0.4446
 5461SOL    HW221616   4.043   3.612   2.207  1.3761 -0.4120  0.8966
 5461SOL    HW321617   4.112   3.478   2.190  1.4768 -0.2432 -0.1000
 5461SOL    MW421618   4.102   3.561   2.167  0.6939 -0.3599 -0.2222
 5462SOL     OW21619   6.244   2.619   4.637 -0.7746 -0.0339  0.2682
 5462SOL    HW221620   6.207   2.653   4.555  0.5356  1.7300  0.3399
 5462SOL    HW321621   6.167   2.602   4.692 -1.6540 -0.8192 -1.1406
 5462SOL    MW421622   6.229   2.621   4.634 -0.7178  0.0952  0.0918
 5463SOL     OW21623   0.429   3.421   2.910 -0.3025 -0.0731  0.2381
 5463SOL    HW221624   0.352   3.467   2.878 -1.0610  0.7499  2.9874
 5463SOL    HW321625   0.499   3.485   2.907 -0.4535  0.1072  0.5408
 5463SOL    MW421626   0.428   3.435   2.906 -0.4225  0.0593  0.6408
 5464SOL     OW21627   6.156   5.301   4.062 -0.2949 -0.3197  0.1647
 5464SOL    HW221628   6.178   5.336   4.148 -1.5464 -0.0698  0.4112
 5464SOL    HW321629   6.203   5.356   3.999 -0.6185  0.5046  0.6335
 5464SOL    MW421630   6.165   5.313   4.065 -0.5027 -0.1779  0.2591
 5465SOL     OW21631   3.541   2.694   5.719 -0.7588 -0.1393 -0.2406
 5465SOL    HW221632   3.576   2.616   5.677 -2.2680 -0.6626 -0.5761
 5465SOL    HW321633   3.459   2.665   5.759 -1.3062  1.2506 -0.3093
 5465SOL    MW421634   3.535   2.680   5.719 -1.0302 -0.0250 -0.2939
 5466SOL     OW21635   4.024   3.664   5.142  0.4868 -0.0895 -0.0525
 5466SOL    HW221636   3.980   3.613   5.211  0.3434 -1.2182 -0.9461
 5466SOL    HW321637   4.114   3.634   5.145  0.8278  0.9390  0.5964
 5466SOL    MW421638   4.030   3.653   5.152  0.5129 -0.1027 -0.0848
 5467SOL     OW21639   5.376   4.795   3.054 -0.1652 -0.3913  0.4549
 5467SOL    HW221640   5.373   4.881   3.097  1.1483  0.2976 -0.7760
 5467SOL    HW321641   5.469   4.777   3.041 -0.4883 -0.7608 -1.7032
 5467SOL    MW421642   5.388   4.804   3.058 -0.0345 -0.3492  0.0077
 5468SOL     OW21643   1.934   4.578   3.984  0.3891 -0.8152 -0.3510
 5468SOL    HW221644   1.880   4.512   3.941 -0.1635  0.2077 -1.2909
 5468SOL    HW321645   1.944   4.647   3.918 -0.5789  0.8873  1.1979
 5468SOL    MW421646   1.928   4.578   3.969  0.1885 -0.4556 -0.2707
 5469SOL     OW21647   4.646   5.679   2.700 -0.5217  0.2492 -0.2081
 5469SOL    HW221648   4.554   5.693   2.677 -0.9458 -1.4512  0.2882
 5469SOL    HW321649   4.691   5.671   2.616 -1.1319 -0.6092 -0.4655
 5469SOL    MW421650   4.639   5.680   2.686 -0.6582 -0.0884 -0.1766
 5470SOL     OW21651   4.737   6.303   1.713 -0.1988  0.2541 -0.3238
 5470SOL    HW221652   4.738   6.287   1.619  2.6946 -4.8741  0.2193
 5470SOL    HW321653   4.826   6.331   1.733 -0.2372 -0.5534  1.0755
 5470SOL    MW421654   4.749   6.305   1.703  0.1779 -0.5290 -0.0676
 5471SOL     OW21655   0.038   4.255   3.690  0.2558  0.1793 -0.3112
 5471SOL    HW221656   0.021   4.310   3.766  0.4204  0.5677 -0.5522
 5471SOL    HW321657   0.120   4.211   3.710 -0.7800 -1.4339  0.7041
 5471SOL    MW421658   0.046   4.256   3.702  0.1409  0.0177 -0.2090
 5472SOL     OW21659   3.876   6.008   3.184  0.0525  0.2191 -0.3991
 5472SOL    HW221660   3.833   5.949   3.122 -0.0293  0.5260 -0.6341
 5472SOL    HW321661   3.819   6.085   3.187  0.0234  0.1813  0.1048
 5472SOL    MW421662   3.863   6.010   3.176  0.0379  0.2546 -0.3636
 5473SOL     OW21663   0.384   2.941   0.693 -0.3634 -0.3682  0.2691
 5473SOL    HW221664   0.467   2.985   0.708 -0.1263 -0.8094  0.2598
 5473SOL    HW321665   0.329   2.966   0.768  0.2337 -1.1715  0.9934
 5473SOL    MW421666   0.388   2.950   0.705 -0.2533 -0.5324  0.3634
 5474SOL     OW21667   1.203   0.163   0.843  0.0428  0.1915 -0.7594
 5474SOL    HW221668   1.131   0.145   0.903 -0.0283 -0.9131 -1.1435
 5474SOL    HW321669   1.281   0.166   0.898 -0.3379  1.9735 -0.2606
 5474SOL    MW421670   1.204   0.161   0.858 -0.0168  0.2809 -0.7443
 5475SOL     OW21671   3.293   4.315   3.914 -0.5853  0.3460  0.0317
 5475SOL    HW221672   3.289   4.341   3.821 -2.1384  2.8515  0.7005
 5475SOL    HW321673   3.333   4.228   3.912  0.4869  0.7653 -2.8870
 5475SOL    MW421674   3.298   4.307   3.901 -0.6487  0.7319 -0.2651
 5476SOL     OW21675   5.695   0.762   3.850 -0.6322  0.4992 -0.1880
 5476SOL    HW221676   5.619   0.751   3.906 -1.0091  1.3607 -0.5120
 5476SOL    HW321677   5.749   0.827   3.895 -0.4060  0.3855 -0.2904
 5476SOL    MW421678   5.692   0.769   3.863 -0.6521  0.5979 -0.2443
 5477SOL     OW21679   0.666   5.824   3.131 -0.1493  0.2619  0.1916
 5477SOL    HW221680   0.609   5.895   3.101  0.1139 -0.0648 -1.1262
 5477SOL    HW321681   0.706   5.789   3.052 -1.4990 -2.4321  0.5479
 5477SOL    MW421682   0.664   5.828   3.117 -0.2927 -0.1366  0.0647
 5478SOL     OW21683   0.745   1.656   5.818 -0.1175  0.5796 -0.4184
 5478SOL    HW221684   0.748   1.751   5.826  0.6164  0.4888  0.6644
 5478SOL    HW321685   0.700   1.627   5.897  1.3371 -0.0513  0.2302
 5478SOL    MW421686   0.740   1.664   5.830  0.1713  0.4843 -0.1900
 5479SOL     OW21687   0.949   2.623   4.137  0.1557  0.3731 -0.0546
 5479SOL    HW221688   0.908   2.548   4.095  0.6688  0.1478 -0.1669
 5479SOL    HW321689   0.922   2.698   4.085  0.3519  0.1576 -0.4730
 5479SOL    MW421690   0.940   2.623   4.125  0.2493  0.3150 -0.1247
 5480SOL     OW21691   4.786   5.913   6.306 -0.3775  0.3701 -0.7773
 5480SOL    HW221692   4.744   5.842   6.257  1.1459  0.1945 -1.8793
 5480SOL    HW321693   4.833   5.869   6.377  1.7531  0.0497 -2.2884
 5480SOL    MW421694   4.786   5.898   6.309  0.1046  0.3047 -1.1221
 5481SOL     OW21695   3.313   1.471   1.905  0.0919 -0.2654 -0.7872
 5481SOL    HW221696   3.322   1.566   1.905 -0.0750 -0.2494 -0.8969
 5481SOL    HW321697   3.392   1.440   1.948  0.5412 -0.1231 -1.5093
 5481SOL    MW421698   3.324   1.480   1.911  0.1292 -0.2445 -0.8970
 5482SOL     OW21699   1.120   3.735   4.840 -0.3665  0.0415  0.0200
 5482SOL    HW221700   1.187   3.667   4.841 -0.8145 -0.5141  3.6657
 5482SOL    HW321701   1.108   3.755   4.747  2.5046 -2.0969 -0.9484
 5482SOL    MW421702   1.127   3.729   4.828 -0.0468 -0.3139  0.3732
 5483SOL     OW21703   3.953   1.127   4.624  0.0642  0.1361  0.1677
 5483SOL    HW221704   3.938   1.218   4.598  1.6220  0.9515  1.8417
 5483SOL    HW321705   4.000   1.134   4.707  1.3196 -2.2009 -0.2698
 5483SOL    MW421706   3.957   1.140   4.632  0.4354 -0.0646  0.3308
 5484SOL     OW21707   2.040   0.057   1.736 -0.2457  0.0075 -0.1292
 5484SOL    HW221708   1.966   0.013   1.695  0.2304 -0.6661 -0.2780
 5484SOL    HW321709   2.052   0.136   1.684  0.0210 -0.5775 -0.9765
 5484SOL    MW421710   2.032   0.062   1.724 -0.1477 -0.1586 -0.2607
 5485SOL     OW21711   5.980   5.152   4.422  0.1837 -0.4071  0.3806
 5485SOL    HW221712   5.886   5.149   4.402 -0.0368 -0.5005  1.4117
 5485SOL    HW321713   6.018   5.082   4.368 -0.4386 -0.8549  0.5101
 5485SOL    MW421714   5.972   5.143   4.412  0.0725 -0.4785  0.5337
 5486SOL     OW21715   1.801   4.244   4.150  0.0553  0.0993 -0.1671
 5486SOL    HW221716   1.763   4.184   4.214 -0.8053 -0.1796 -0.9279
 5486SOL    HW321717   1.895   4.241   4.168 -0.0284 -1.0414  0.1898
 5486SOL    MW421718   1.808   4.236   4.161 -0.0693 -0.0880 -0.2204
 5487SOL     OW21719   5.910   4.538   5.429 -0.2414 -0.0102  0.0481
 5487SOL    HW221720   5.891   4.548   5.336  0.5798 -1.7043 -0.3449
 5487SOL    HW321721   5.880   4.449   5.450  0.7840 -0.1346  1.0716
 5487SOL    MW421722   5.904   4.527   5.419  0.0023 -0.2501  0.1313
 5488SOL     OW21723   2.972   1.873   0.021  0.4304 -0.2234 -0.3983
 5488SOL    HW221724   3.028   1.948   0.043  0.1536  0.1995 -1.0980
 5488SOL    HW321725   3.029   1.812  -0.025  0.2726  0.3302 -1.3584
 5488SOL    MW421726   2.987   1.875   0.018  0.3731 -0.0945 -0.6173
 5489SOL     OW21727   4.435   6.374   2.977 -0.6835 -0.6280 -0.0212
 5489SOL    HW221728   4.528   6.400   2.981 -0.1009 -2.4041 -1.0684
 5489SOL    HW321729   4.419   6.329   3.059 -0.1402 -1.7113 -0.4888
 5489SOL    MW421730   4.445   6.372   2.988 -0.5350 -1.0053 -0.2210
 5490SOL     OW21731   5.986   1.091   1.251  0.3217  0.4989  0.3856
 5490SOL    HW221732   6.006   1.152   1.180 -0.0169  0.8116  0.5556
 5490SOL    HW321733   6.018   1.135   1.329  1.6236 -0.2835  0.3262
 5490SOL    MW421734   5.993   1.105   1.252  0.4488  0.4369  0.4002
 5491SOL     OW21735   0.688   2.518   0.325 -0.4878  0.0336 -0.3088
 5491SOL    HW221736   0.694   2.609   0.353  0.7343 -0.1008 -0.0646
 5491SOL    HW321737   0.638   2.521   0.243  0.5117  1.0681 -0.9077
 5491SOL    MW421738   0.682   2.530   0.318 -0.1947  0.1524 -0.3556
 5492SOL     OW21739   1.493   4.108   5.897 -0.0936 -0.7946 -0.3233
 5492SOL    HW221740   1.483   4.036   5.835 -0.1711 -0.6732 -0.4510
 5492SOL    HW321741   1.412   4.158   5.889  0.1330 -0.4586 -0.5366
 5492SOL    MW421742   1.481   4.105   5.888 -0.0739 -0.7343 -0.3683
 5493SOL     OW21743   1.288   0.397   4.155 -0.6149 -0.4596 -0.2962
 5493SOL    HW221744   1.269   0.450   4.232 -1.5152  0.7749 -1.3213
 5493SOL    HW321745   1.378   0.419   4.132 -0.9652  0.6432 -0.6850
 5493SOL    MW421746   1.297   0.407   4.162 -0.7799 -0.1512 -0.4828
 5494SOL     OW21747   0.831   1.827   2.315  0.6831 -0.3221  0.1776
 5494SOL    HW221748   0.915   1.855   2.351  0.8059 -0.5574  0.0768
 5494SOL    HW321749   0.769   1.839   2.386  0.7639  0.0559  0.1838
 5494SOL    MW421750   0.834   1.832   2.329  0.7100 -0.3032  0.1651
 5495SOL     OW21751   2.429   2.964   3.094  0.2889  0.3980  0.3089
 5495SOL    HW221752   2.339   2.991   3.115 -0.1720  0.0005 -1.0458
 5495SOL    HW321753   2.427   2.869   3.096  1.1464  0.3708  1.9907
 5495SOL    MW421754   2.417   2.955   3.097  0.3412  0.3420  0.3521
 5496SOL     OW21755   5.602   1.255   3.102 -0.4799 -0.9295  0.2201
 5496SOL    HW221756   5.639   1.325   3.156  0.3490 -2.0169  1.1274
 5496SOL    HW321757   5.645   1.266   3.017 -1.1441  0.2782  0.0152
 5496SOL    MW421758   5.613   1.266   3.098 -0.4582 -0.9136  0.3128
 5497SOL     OW21759   4.076   5.346   1.237  0.1461  0.6574  0.0968
 5497SOL    HW221760   4.002   5.285   1.234  0.2335  0.5653 -0.3598
 5497SOL    HW321761   4.151   5.290   1.256 -0.1446  0.9996  2.4593
 5497SOL    MW421762   4.076   5.330   1.239  0.1193  0.6904  0.3482
 5498SOL     OW21763   0.586   5.163   2.211  0.3538  0.1121  0.1717
 5498SOL    HW221764   0.618   5.078   2.179 -1.7025 -0.1405 -1.3761
 5498SOL    HW321765   0.547   5.143   2.296 -1.4445 -0.8327 -0.8268
 5498SOL    MW421766   0.585   5.149   2.218 -0.1548 -0.0459 -0.1642
 5499SOL     OW21767   0.195   0.518   0.775  0.5605  0.0978  0.0584
 5499SOL    HW221768   0.119   0.551   0.727  0.4503 -0.6535 -0.2950
 5499SOL    HW321769   0.270   0.558   0.730  0.5864 -2.0154 -2.0011
 5499SOL    MW421770   0.195   0.528   0.762  0.5494 -0.2801 -0.2599
 5500SOL     OW21771   1.582   1.696   6.351 -0.5874 -0.7844  0.4415
 5500SOL    HW221772   1.623   1.746   6.422 -0.2686 -1.0203  0.4261
 5500SOL    HW321773   1.607   1.743   6.271 -0.2628 -0.9804  0.4250
 5500SOL    MW421774   1.591   1.709   6.350 -0.5025 -0.8414  0.4373
 5501SOL     OW21775   1.627   4.126   4.935 -0.1732  0.2737 -0.2601
 5501SOL    HW221776   1.614   4.036   4.964  0.0224 -0.0860 -1.2527
 5501SOL    HW321777   1.717   4.128   4.903  0.5023  1.3406  1.5231
 5501SOL    MW421778   1.637   4.114   4.935 -0.0583  0.3670 -0.1558
 5502SOL     OW21779   3.443   1.435   0.878  0.3706  0.5136 -0.5894
 5502SOL    HW221780   3.354   1.449   0.909 -0.2163 -0.8956 -1.5302
 5502SOL    HW321781   3.494   1.420   0.958 -0.1747  1.5443 -0.0354
 5502SOL    MW421782   3.438   1.435   0.893  0.2212  0.4636 -0.6404
 5503SOL     OW21783   4.181   2.502   5.177  0.3137 -0.1530  0.1969
 5503SOL    HW221784   4.139   2.451   5.109  0.7245 -2.9779  1.8925
 5503SOL    HW321785   4.112   2.561   5.209 -1.6475 -2.7466  1.0831
 5503SOL    MW421786   4.166   2.503   5.172  0.1092 -0.8679  0.5376
 5504SOL     OW21787   6.119   2.835   5.109  0.3672  0.3409  0.0907
 5504SOL    HW221788   6.208   2.869   5.108  0.5711  0.0306  2.8517
 5504SOL    HW321789   6.104   2.807   5.199 -2.1345 -0.6827 -0.5628
 5504SOL    MW421790   6.129   2.836   5.120  0.0640  0.1649  0.3688
 5505SOL     OW21791   5.245   1.218   1.518 -0.7214  0.1329 -0.4864
 5505SOL    HW221792   5.167   1.261   1.553 -1.6461 -0.5753 -1.5924
 5505SOL    HW321793   5.261   1.261   1.434  0.8207  1.0810  0.2595
 5505SOL    MW421794   5.237   1.229   1.512 -0.6399  0.1646 -0.5339
 5506SOL     OW21795   4.250   2.957   2.932 -0.0146 -0.2528  0.3132
 5506SOL    HW221796   4.265   2.893   3.001 -1.1417 -0.2537  0.5865
 5506SOL    HW321797   4.199   2.911   2.866  0.6247 -0.1080 -0.2932
 5506SOL    MW421798   4.245   2.943   2.932 -0.0790 -0.2338  0.2693
 5507SOL     OW21799   0.871   2.750   1.321  0.4773 -0.1147  0.2864
 5507SOL    HW221800   0.832   2.792   1.398  1.1799  1.6668 -0.2642
 5507SOL    HW321801   0.928   2.682   1.356 -1.2957 -1.1826  1.1948
 5507SOL    MW421802   0.874   2.747   1.336  0.3361 -0.0206  0.3336
 5508SOL     OW21803   5.991   4.926   0.099 -0.4895  0.6341  0.5711
 5508SOL    HW221804   5.985   4.836   0.132 -0.0094 -0.0793 -1.1505
 5508SOL    HW321805   6.060   4.966   0.152  0.3199 -0.4835  0.4189
 5508SOL    MW421806   6.000   4.919   0.111 -0.3194  0.3925  0.3239
 5509SOL     OW21807   5.999   0.391   3.616 -0.1823  0.4438  0.4273
 5509SOL    HW221808   5.926   0.410   3.675 -0.1940  0.1608  0.5049
 5509SOL    HW321809   5.974   0.308   3.575 -0.2756  0.7411 -0.1290
 5509SOL    MW421810   5.986   0.383   3.618 -0.1961  0.4457  0.3642
 5510SOL     OW21811   6.212   0.846   1.077  0.3076  0.2794 -0.1582
 5510SOL    HW221812   6.159   0.886   1.009 -0.3116 -1.7833 -0.9526
 5510SOL    HW321813   6.229   0.917   1.139 -1.6988  1.4642 -0.8871
 5510SOL    MW421814   6.208   0.860   1.076 -0.0388  0.1636 -0.3592
 5511SOL     OW21815   0.893   0.995   5.732 -0.4317 -1.2414 -0.2993
 5511SOL    HW221816   0.822   1.010   5.670 -1.1175 -0.6224  0.6026
 5511SOL    HW321817   0.863   1.035   5.813  0.9194 -1.0458  0.1358
 5511SOL    MW421818   0.880   1.002   5.735 -0.3439 -1.1339 -0.1229
 5512SOL     OW21819   2.849   0.428   0.558  0.6250 -0.1778  0.5223
 5512SOL    HW221820   2.905   0.502   0.583  1.0848 -0.0635 -0.7662
 5512SOL    HW321821   2.832   0.442   0.465  0.8200 -1.7571  0.2228
 5512SOL    MW421822   2.854   0.440   0.549  0.7114 -0.3711  0.3128
 5513SOL     OW21823   0.970   5.645   4.978 -0.1226 -0.0157  0.0934
 5513SOL    HW221824   0.987   5.576   4.913  0.1493 -0.2010  0.3606
 5513SOL    HW321825   1.056   5.677   5.003 -0.2751  1.0968 -0.7325
 5513SOL    MW421826   0.983   5.640   4.973 -0.1068  0.1066  0.0197
 5514SOL     OW21827   5.163   4.706   0.180  0.4695 -0.6624  0.8913
 5514SOL    HW221828   5.257   4.690   0.188  0.5875 -0.0932  0.6543
 5514SOL    HW321829   5.145   4.698   0.086  0.5260  0.5545  0.7696
 5514SOL    MW421830   5.173   4.703   0.168  0.4925 -0.4268  0.8440
 5515SOL     OW21831   4.926   6.145   3.569  0.1441 -1.0593  0.3003
 5515SOL    HW221832   4.836   6.137   3.537 -0.7259 -0.9799  2.5353
 5515SOL    HW321833   4.941   6.239   3.575  0.6088 -1.0662 -0.6206
 5515SOL    MW421834   4.916   6.157   3.566  0.0906 -1.0498  0.4737
 5516SOL     OW21835   4.969   5.430   4.008  0.9452 -0.0131 -0.8451
 5516SOL    HW221836   4.943   5.425   3.916  0.4802  2.6903 -0.9680
 5516SOL    HW321837   4.890   5.460   4.053  1.0063 -1.8258  0.5770
 5516SOL    MW421838   4.955   5.434   4.002  0.8919  0.1044 -0.6737
 5517SOL     OW21839   2.051   5.066   3.941 -0.3049  0.1526  0.0561
 5517SOL    HW221840   1.999   5.147   3.934 -0.2497  0.2308  0.5016
 5517SOL    HW321841   2.140   5.093   3.920 -0.5836 -0.1772 -1.7119
 5517SOL    MW421842   2.056   5.080   3.938 -0.3344  0.1194 -0.1184
 5518SOL     OW21843   5.610   2.988   0.914 -0.1594  0.3925 -0.6837
 5518SOL    HW221844   5.579   3.079   0.908 -1.0984  0.1697  0.3625
 5518SOL    HW321845   5.643   2.980   1.004 -0.9985 -0.5541 -0.4419
 5518SOL    MW421846   5.610   2.999   0.925 -0.3940  0.2382 -0.5138
 5519SOL     OW21847   4.961   5.106   1.669  0.6830  0.1948 -0.0675
 5519SOL    HW221848   5.044   5.058   1.667  0.3552 -0.5533  2.1064
 5519SOL    HW321849   4.982   5.189   1.712  0.6037  0.6654 -0.9234
 5519SOL    MW421850   4.975   5.110   1.674  0.6293  0.1582  0.1064
 5520SOL     OW21851   4.203   2.247   3.745 -0.1653  0.2688 -0.6995
 5520SOL    HW221852   4.292   2.240   3.779 -0.5964 -0.0665  0.4212
 5520SOL    HW321853   4.164   2.161   3.764 -1.0886  0.8113 -0.0460
 5520SOL    MW421854   4.210   2.235   3.752 -0.3440  0.2962 -0.4654
 5521SOL     OW21855   5.285   5.076   0.025  0.6375 -0.1892  0.1569
 5521SOL    HW221856   5.342   5.126  -0.034  0.6673 -0.1800  0.1938
 5521SOL    HW321857   5.281   5.129   0.105 -0.7292  0.6378 -0.4252
 5521SOL    MW421858   5.292   5.090   0.028  0.4611 -0.0789  0.0850
 5522SOL     OW21859   2.043   3.028   0.031 -0.3479  0.0291  0.0852
 5522SOL    HW221860   1.996   2.946   0.017  1.0090 -0.6302 -0.8970
 5522SOL    HW321861   1.975   3.095   0.034 -1.5393 -1.1765  1.4748
 5522SOL    MW421862   2.028   3.026   0.029 -0.3261 -0.2170  0.1389
 5523SOL     OW21863   2.499   3.381   3.674 -0.2765 -0.2502  0.6263
 5523SOL    HW221864   2.445   3.394   3.596  0.3201 -0.1939  0.2098
 5523SOL    HW321865   2.465   3.442   3.738 -0.5815 -0.0793  0.3046
 5523SOL    MW421866   2.487   3.391   3.672 -0.2380 -0.2202  0.5289
 5524SOL     OW21867   1.253   0.752   2.486  0.4286  0.1962  0.0340
 5524SOL    HW221868   1.294   0.839   2.478 -0.3996  0.6107  0.2378
 5524SOL    HW321869   1.209   0.738   2.402 -0.0646  0.3033  0.2717
 5524SOL    MW421870   1.253   0.762   2.474  0.2543  0.2650  0.0922
 5525SOL     OW21871   3.390   0.888   1.469 -0.0126 -0.1212  0.3993
 5525SOL    HW221872   3.444   0.852   1.540  0.3917 -1.1082 -0.3701
 5525SOL    HW321873   3.407   0.829   1.395 -0.1310  1.0980 -0.6234
 5525SOL    MW421874   3.400   0.875   1.468  0.0251 -0.0905  0.1629
 5526SOL     OW21875   5.259   0.716   0.471  0.0152 -0.3343  0.2353
 5526SOL    HW221876   5.322   0.781   0.441 -1.1587  1.2559  1.0598
 5526SOL    HW321877   5.286   0.695   0.560  1.2731 -2.1755 -0.5301
 5526SOL    MW421878   5.271   0.722   0.479  0.0263 -0.3674  0.2431
 5527SOL     OW21879   2.215   0.500   2.671  0.3814  0.7108 -0.6562
 5527SOL    HW221880   2.122   0.523   2.667  0.8295  3.0316  0.7762
 5527SOL    HW321881   2.237   0.476   2.580 -1.8479 -1.1534 -0.7874
 5527SOL    MW421882   2.206   0.500   2.658  0.1464  0.7710 -0.4845
 5528SOL     OW21883   4.206   0.777   3.702 -0.4555 -0.2175  0.0155
 5528SOL    HW221884   4.261   0.781   3.781  0.0844  4.5733 -0.3323
 5528SOL    HW321885   4.245   0.707   3.650  1.8219 -0.7070  2.1716
 5528SOL    MW421886   4.218   0.768   3.706 -0.0838  0.3500  0.2541
 5529SOL     OW21887   4.445   1.700   0.722 -0.1467 -0.4220  0.0477
 5529SOL    HW221888   4.349   1.693   0.726 -0.1403 -1.0460 -0.6812
 5529SOL    HW321889   4.463   1.792   0.743 -0.7210 -0.8763  2.9648
 5529SOL    MW421890   4.434   1.711   0.726 -0.2216 -0.5643  0.3364
 5530SOL     OW21891   0.938   4.284   5.638 -0.0995  0.3056 -0.1402
 5530SOL    HW221892   1.024   4.327   5.643  0.7779 -1.4323  0.5989
 5530SOL    HW321893   0.897   4.303   5.722 -0.1549  0.5593 -0.2236
 5530SOL    MW421894   0.944   4.292   5.650  0.0089  0.1098 -0.0537
 5531SOL     OW21895   2.873   3.465   4.327 -0.0643  0.0530 -0.6215
 5531SOL    HW221896   2.815   3.406   4.281 -1.0058  0.8464 -0.4737
 5531SOL    HW321897   2.920   3.409   4.389 -0.8127 -0.5596 -0.6057
 5531SOL    MW421898   2.872   3.450   4.329 -0.2873  0.0769 -0.5999
 5532SOL     OW21899   6.153   6.105   5.144 -0.3107 -1.0940 -0.7152
 5532SOL    HW221900   6.058   6.103   5.136 -0.4518  0.6616  0.0040
 5532SOL    HW321901   6.170   6.103   5.238  0.0219  3.5028 -0.4546
 5532SOL    MW421902   6.143   6.105   5.155 -0.2854 -0.2558 -0.5859
 5533SOL     OW21903   1.072   3.245   1.354 -0.5521  0.1600  0.5443
 5533SOL    HW221904   1.121   3.262   1.274  0.2165 -0.0234  0.9747
 5533SOL    HW321905   0.983   3.277   1.334  0.0049  1.5462  0.1482
 5533SOL    MW421906   1.067   3.252   1.340 -0.3772  0.3187  0.5488
 5534SOL     OW21907   1.956   2.977   4.440  0.7976 -0.3354  0.4483
 5534SOL    HW221908   2.037   2.929   4.426  1.0569  0.1298  0.3402
 5534SOL    HW321909   1.983   3.060   4.479  0.3374 -0.3572  0.8282
 5534SOL    MW421910   1.970   2.982   4.443  0.7711 -0.2769  0.4842
 5535SOL     OW21911   0.169   5.084   2.345  0.2607  0.2371 -0.4712
 5535SOL    HW221912   0.141   5.114   2.258 -1.4446 -0.0414 -0.0625
 5535SOL    HW321913   0.165   4.989   2.339  0.7555  0.2019 -0.2625
 5535SOL    MW421914   0.164   5.075   2.333  0.1010  0.1957 -0.3897
 5536SOL     OW21915   1.712   0.559   2.673 -0.7547 -0.0305  0.4407
 5536SOL    HW221916   1.695   0.605   2.754 -1.5753 -0.4846  0.5373
 5536SOL    HW321917   1.646   0.592   2.612 -0.3199  0.1047  0.0327
 5536SOL    MW421918   1.701   0.569   2.675 -0.8056 -0.0726  0.3996
 5537SOL     OW21919   5.185   5.390   4.814  0.3898  0.1021 -0.0569
 5537SOL    HW221920   5.164   5.482   4.830  0.9261  0.4080 -1.0074
 5537SOL    HW321921   5.101   5.345   4.822  0.0500  0.7352  0.0287
 5537SOL    MW421922   5.171   5.396   4.817  0.4157  0.2260 -0.1710
 5538SOL     OW21923   1.767   2.743   1.457 -0.2125 -0.1103  0.3692
 5538SOL    HW221924   1.689   2.797   1.445 -0.9165 -0.9574  1.0583
 5538SOL    HW321925   1.734   2.655   1.473  0.8662 -0.3406  1.4638
 5538SOL    MW421926   1.753   2.738   1.457 -0.1631 -0.2524  0.6046
 5539SOL     OW21927   2.442   0.658   0.473  0.0574 -0.1601 -0.4194
 5539SOL    HW221928   2.471   0.571   0.446  0.9847 -0.6413  1.8690
 5539SOL    HW321929   2.522   0.711   0.473 -0.5868  0.9136 -2.3483
 5539SOL    MW421930   2.456   0.653   0.470  0.0948 -0.0819 -0.3719
 5540SOL     OW21931   2.786   3.060   2.555  0.4032 -0.1541 -0.2080
 5540SOL    HW221932   2.760   2.975   2.590  1.5101 -0.1384  0.7011
 5540SOL    HW321933   2.806   3.043   2.463  0.6696 -0.8847 -0.0188
 5540SOL    MW421934   2.785   3.046   2.548  0.5844 -0.2484 -0.0631
 5541SOL     OW21935   1.113   0.584   3.543 -0.4190 -0.3688  0.3041
 5541SOL    HW221936   1.142   0.545   3.461  0.9418  0.5475  0.3130
 5541SOL    HW321937   1.134   0.518   3.609  0.8353 -0.1088  0.1925
 5541SOL    MW421938   1.120   0.570   3.541 -0.0739 -0.2136  0.2905
 5542SOL     OW21939   1.412   3.144   0.908 -0.4891 -0.3482  0.3097
 5542SOL    HW221940   1.345   3.170   0.845  0.3694  0.0192 -0.4769
 5542SOL    HW321941   1.378   3.064   0.947 -1.5493  0.0192  0.1996
 5542SOL    MW421942   1.398   3.137   0.905 -0.5157 -0.2513  0.1914
 5543SOL     OW21943   0.997   3.542   3.881 -0.3269  0.7931 -0.4652
 5543SOL    HW221944   1.081   3.582   3.903  0.1173 -0.0852 -0.5192
 5543SOL    HW321945   0.979   3.483   3.954 -0.7057  0.6824 -0.6459
 5543SOL    MW421946   1.006   3.540   3.894 -0.3183  0.6626 -0.4962
 5544SOL     OW21947   3.421   6.211   4.156  0.6625  0.2475  0.3818
 5544SOL    HW221948   3.439   6.119   4.175  2.0637  0.2344 -0.8203
 5544SOL    HW321949   3.325   6.218   4.160  0.6105 -0.5430  3.4398
 5544SOL    MW421950   3.410   6.200   4.159  0.8405  0.1415  0.6267
 5545SOL     OW21951   0.066   5.909   1.336 -0.5253 -0.3723 -0.5931
 5545SOL    HW221952  -0.018   5.864   1.324 -0.2237 -1.2520  0.4689
 5545SOL    HW321953   0.129   5.839   1.355  0.3863  0.3095 -0.9895
 5545SOL    MW421954   0.063   5.894   1.337 -0.3652 -0.3984 -0.5053
 5546SOL     OW21955   4.580   3.396   3.028  0.5301 -0.3282 -0.4241
 5546SOL    HW221956   4.484   3.399   3.031  0.4719 -0.3072 -1.6250
 5546SOL    HW321957   4.608   3.481   3.062  0.1128 -0.2100 -0.3710
 5546SOL    MW421958   4.571   3.408   3.033  0.4673 -0.3098 -0.5756
 5547SOL     OW21959   1.088   0.718   2.250  0.0194  0.1998  0.5294
 5547SOL    HW221960   1.090   0.747   2.158  0.9847  0.7459  0.7062
 5547SOL    HW321961   1.011   0.760   2.287  0.7979  1.7520  0.5003
 5547SOL    MW421962   1.078   0.728   2.242  0.2495  0.4766  0.5489
 5548SOL     OW21963   2.367   2.438   3.588 -0.5057 -0.1372 -0.4059
 5548SOL    HW221964   2.385   2.530   3.569  0.4925  0.5245  2.9214
 5548SOL    HW321965   2.272   2.434   3.602 -0.3899  0.7342  0.7413
 5548SOL    MW421966   2.357   2.450   3.588 -0.3587  0.0651  0.1845
 5549SOL     OW21967   5.553   1.888   2.900  0.1623 -0.3452  0.4024
 5549SOL    HW221968   5.458   1.876   2.909  0.0838 -0.9142 -0.9670
 5549SOL    HW321969   5.588   1.799   2.897  0.3782 -0.2480 -2.2954
 5549SOL    MW421970   5.545   1.874   2.901  0.1804 -0.4075 -0.1342
 5550SOL     OW21971   1.645   2.099   0.251 -0.6677 -0.4870  0.0316
 5550SOL    HW221972   1.671   2.014   0.217  2.1724  0.5976 -0.7731
 5550SOL    HW321973   1.704   2.114   0.325 -1.4502  0.5790  0.4622
 5550SOL    MW421974   1.656   2.090   0.256 -0.3962 -0.2032 -0.0177
 5551SOL     OW21975   5.070   0.952   1.083 -0.1075 -0.0189 -0.3539
 5551SOL    HW221976   5.090   0.994   1.000  1.1136 -0.3825 -0.2603
 5551SOL    HW321977   5.135   0.986   1.144 -0.4413 -0.4229  0.2416
 5551SOL    MW421978   5.081   0.962   1.081  0.0095 -0.1202 -0.2629
 5552SOL     OW21979   0.530   5.001   6.218 -0.2303  0.2445 -0.2732
 5552SOL    HW221980   0.449   4.953   6.204 -0.8915  0.7711  1.4891
 5552SOL    HW321981   0.517   5.084   6.174 -0.0097 -0.2684 -1.3275
 5552SOL    MW421982   0.518   5.005   6.211 -0.2885  0.2463 -0.1798
 5553SOL     OW21983   5.979   6.334   3.052  0.0790  0.6613 -0.0728
 5553SOL    HW221984   5.963   6.306   2.962 -1.9886  1.4962 -0.0144
 5553SOL    HW321985   5.949   6.261   3.106 -1.9901  1.4995 -0.0133
 5553SOL    MW421986   5.973   6.321   3.047 -0.4668  0.8821 -0.0572
 5554SOL     OW21987   2.316   5.625   4.425  0.0250  0.3185  0.1612
 5554SOL    HW221988   2.388   5.588   4.476 -0.0492 -1.2275 -0.7950
 5554SOL    HW321989   2.356   5.646   4.340 -0.8406 -1.5371 -0.7406
 5554SOL    MW421990   2.331   5.623   4.421 -0.0990 -0.1303 -0.0839
 5555SOL     OW21991   3.339   2.136   4.665  0.1482 -0.2862  0.8796
 5555SOL    HW221992   3.400   2.140   4.739  0.5031 -1.4361  0.6702
 5555SOL    HW321993   3.388   2.092   4.595 -1.0488 -1.6792  0.8575
 5555SOL    MW421994   3.353   2.130   4.665  0.0371 -0.6217  0.8491
 5556SOL     OW21995   0.160   3.680   0.823  0.0775  0.1062 -0.8055
 5556SOL    HW221996   0.249   3.710   0.841  0.3657 -1.4342  0.6692
 5556SOL    HW321997   0.139   3.623   0.897 -1.7483 -0.3944 -1.6499
 5556SOL    MW421998   0.169   3.676   0.835 -0.1254 -0.1631 -0.7224
 5557SOL     OW21999   2.067   3.885   3.024 -1.0945 -0.3162  0.0359
 5557SOL    HW222000   2.044   3.896   3.116  0.3845  0.2803  0.3560
 5557SOL    HW322001   1.988   3.912   2.976 -1.7693 -0.3313  1.0970
 5557SOL    MW422002   2.053   3.890   3.030 -0.9884 -0.2395  0.2181
 5558SOL     OW22003   6.209   5.613   3.378 -0.1175  0.1193  0.0703
 5558SOL    HW222004   6.133   5.619   3.435  1.1140  0.6197  1.7236
 5558SOL    HW322005   6.284   5.612   3.437  1.1625 -1.1103 -1.4665
 5558SOL    MW422006   6.209   5.613   3.393  0.2139  0.0231  0.0857
 5559SOL     OW22007   6.225   1.258   5.346  0.4830  0.3154 -0.2603
 5559SOL    HW222008   6.148   1.276   5.293  1.0242  1.1218 -0.7956
 5559SOL    HW322009   6.190   1.240   5.434 -0.3924 -0.6449 -0.7805
 5559SOL    MW422010   6.210   1.258   5.351  0.4389  0.2951 -0.3995
 5560SOL     OW22011   3.795   1.199   4.322 -0.4263 -0.0270  0.1952
 5560SOL    HW222012   3.815   1.242   4.405  1.3773 -0.3800 -0.0158
 5560SOL    HW322013   3.753   1.116   4.348 -0.9443  0.3897  0.7048
 5560SOL    MW422014   3.792   1.193   4.336 -0.2567 -0.0186  0.2346
 5561SOL     OW22015   1.698   2.160   4.222  0.3484  0.4545  0.6324
 5561SOL    HW222016   1.751   2.207   4.287  0.4867  0.2224  0.6890
 5561SOL    HW322017   1.667   2.082   4.268  0.7464  0.1041  0.3064
 5561SOL    MW422018   1.701   2.156   4.237  0.4191  0.3777  0.5969
 5562SOL     OW22019   3.865   1.009   3.596 -0.1366  0.1680 -0.2711
 5562SOL    HW222020   3.892   0.965   3.676 -1.3425 -0.0812  0.0227
 5562SOL    HW322021   3.905   1.095   3.601  1.7715 -0.6446 -0.5698
 5562SOL    MW422022   3.874   1.014   3.607 -0.0439  0.0279 -0.2717
 5563SOL     OW22023   3.362   3.046   2.654 -0.4339  0.0139 -0.2648
 5563SOL    HW222024   3.434   3.109   2.666 -0.3686 -0.3866  1.9379
 5563SOL    HW322025   3.406   2.962   2.641 -0.5059 -0.0366 -0.1812
 5563SOL    MW422026   3.378   3.043   2.654 -0.4348 -0.0456  0.0369
 5564SOL     OW22027   4.467   3.195   2.783  0.0220  0.1434 -0.0641
 5564SOL    HW222028   4.427   3.281   2.790 -0.9959 -0.3835  1.0613
 5564SOL    HW322029   4.542   3.198   2.842 -0.3612  0.0919  0.4350
 5564SOL    MW422030   4.472   3.207   2.792 -0.1629  0.0671  0.1502
 5565SOL     OW22031   4.504   2.304   4.184  0.3217 -0.0845  0.1728
 5565SOL    HW222032   4.548   2.286   4.267 -1.0358  2.5255  1.5802
 5565SOL    HW322033   4.446   2.378   4.203 -1.2810 -0.4513 -2.7081
 5565SOL    MW422034   4.502   2.312   4.198 -0.0688  0.2114 -0.0216
 5566SOL     OW22035   0.812   5.409   1.007 -0.6752 -0.3103 -0.1054
 5566SOL    HW222036   0.761   5.332   1.031 -1.6400 -0.2851 -1.9210
 5566SOL    HW322037   0.785   5.429   0.918  2.1873 -0.0277 -1.0166
 5566SOL    MW422038   0.802   5.401   0.999 -0.4248 -0.2697 -0.4652
 5567SOL     OW22039   5.924   6.432   6.306  0.2287  0.0781 -0.0101
 5567SOL    HW222040   5.897   6.341   6.299 -2.3290  0.8101 -0.9597
 5567SOL    HW322041   5.852   6.475   6.353  0.8648  1.7881 -0.5069
 5567SOL    MW422042   5.911   6.426   6.311 -0.0248  0.4003 -0.2010
 5568SOL     OW22043   2.725   6.343   2.450 -0.1834  0.1540 -0.2973
 5568SOL    HW222044   2.640   6.339   2.406 -0.2042  2.3014 -0.5834
 5568SOL    HW322045   2.786   6.375   2.383  0.4780  0.3431  0.3705
 5568SOL    MW422046   2.722   6.347   2.435 -0.0989  0.4622 -0.2469
 5569SOL     OW22047   0.205   0.239   4.211  0.2012  0.1355 -0.5808
 5569SOL    HW222048   0.197   0.180   4.135  2.3506  0.5966 -1.2376
 5569SOL    HW322049   0.241   0.320   4.175  4.4879 -0.7017  1.2339
 5569SOL    MW422050   0.208   0.242   4.196  1.0503  0.0859 -0.4280
 5570SOL     OW22051   2.162   4.308   0.071  0.4982  0.4932 -0.5642
 5570SOL    HW222052   2.209   4.244   0.018  1.7872 -0.0947  1.1800
 5570SOL    HW322053   2.091   4.259   0.113  0.8665  0.4133 -0.0171
 5570SOL    MW422054   2.159   4.293   0.070  0.7168  0.4051 -0.2619
 5571SOL     OW22055   5.798   2.194   4.161  0.0639  0.7554 -0.1340
 5571SOL    HW222056   5.778   2.221   4.071 -0.8979  0.1202 -0.1295
 5571SOL    HW322057   5.867   2.128   4.151 -1.1997 -0.5554 -0.5733
 5571SOL    MW422058   5.804   2.189   4.148 -0.2297  0.4987 -0.1914
 5572SOL     OW22059   4.759   3.306   2.018  0.5204  0.3096  0.1169
 5572SOL    HW222060   4.679   3.263   2.048 -0.1728  3.0251  2.5673
 5572SOL    HW322061   4.825   3.283   2.083  0.9253  0.5302 -0.2098
 5572SOL    MW422062   4.757   3.297   2.031  0.4823  0.6970  0.3971
 5573SOL     OW22063   5.395   4.010   0.659  0.3915 -0.3968 -0.3198
 5573SOL    HW222064   5.353   4.096   0.659  0.9096 -0.1312 -1.1530
 5573SOL    HW322065   5.412   3.992   0.567  2.1161 -0.4735 -0.0201
 5573SOL    MW422066   5.392   4.019   0.647  0.6874 -0.3718 -0.3902
 5574SOL     OW22067   1.981   0.791   3.726 -0.2003 -0.8580 -0.6646
 5574SOL    HW222068   1.949   0.709   3.689 -2.7187  0.2099 -1.0257
 5574SOL    HW322069   1.918   0.857   3.697  1.9974  1.3202 -0.7988
 5574SOL    MW422070   1.969   0.789   3.718 -0.2426 -0.4297 -0.7299
 5575SOL     OW22071   5.037   0.132   4.727 -0.3357  0.0864  0.2427
 5575SOL    HW222072   4.970   0.171   4.782 -0.4793 -3.2064  2.7009
 5575SOL    HW322073   5.068   0.056   4.776  3.2317 -0.1947 -2.0238
 5575SOL    MW422074   5.033   0.127   4.740  0.1160 -0.3851  0.2680
 5576SOL     OW22075   3.018   5.553   1.454 -0.1814 -0.1023 -0.0041
 5576SOL    HW222076   3.109   5.557   1.426 -0.3721  1.0372 -0.4840
 5576SOL    HW322077   3.014   5.607   1.533 -0.4335 -0.2106  0.0611
 5576SOL    MW422078   3.029   5.561   1.461 -0.2398  0.0337 -0.0588
 5577SOL     OW22079   1.715   5.721   5.258 -0.0218 -0.5323  0.3121
 5577SOL    HW222080   1.696   5.747   5.168 -2.7126  1.8021  1.4154
 5577SOL    HW322081   1.743   5.802   5.301  0.5345 -1.4642  1.7836
 5577SOL    MW422082   1.717   5.735   5.251 -0.3034 -0.3473  0.6518
 5578SOL     OW22083   1.666   3.116   4.398  0.6636 -0.0272  0.3537
 5578SOL    HW222084   1.602   3.143   4.333  1.8829  1.5307 -0.2434
 5578SOL    HW322085   1.627   3.140   4.482  0.6288  1.3335 -0.0324
 5578SOL    MW422086   1.653   3.122   4.401  0.8199  0.3579  0.2240
 5579SOL     OW22087   5.943   5.688   5.372  0.1758  0.3298 -0.0873
 5579SOL    HW222088   5.948   5.675   5.277 -0.2961  1.5263 -0.2903
 5579SOL    HW322089   5.851   5.708   5.389  0.3512  0.6081  0.5639
 5579SOL    MW422090   5.931   5.689   5.362  0.1366  0.5244 -0.0282
 5580SOL     OW22091   4.692   4.746   3.739 -0.5343  0.2976  0.3243
 5580SOL    HW222092   4.714   4.653   3.741  0.6371  0.5353 -0.4710
 5580SOL    HW322093   4.745   4.785   3.809 -1.2856  0.3200  0.8867
 5580SOL    MW422094   4.702   4.739   3.748 -0.4789  0.3319  0.2936
 5581SOL     OW22095   4.221   5.300   3.325 -0.3876 -0.3465  0.0558
 5581SOL    HW222096   4.154   5.363   3.352 -1.4609 -1.1382 -0.6786
 5581SOL    HW322097   4.173   5.233   3.278  0.7595 -1.6352  0.6511
 5581SOL    MW422098   4.206   5.300   3.323 -0.3778 -0.6210  0.0375
 5582SOL     OW22099   2.296   0.268   5.520  0.1154  0.0515  0.4560
 5582SOL    HW222100   2.272   0.304   5.435 -0.7233  0.5567  0.8902
 5582SOL    HW322101   2.337   0.184   5.500 -1.1577 -0.4029 -0.3920
 5582SOL    MW422102   2.298   0.262   5.507 -0.1632  0.0582  0.4014
 5583SOL     OW22103   0.275   5.551   4.999  0.3034  0.1862 -0.8563
 5583SOL    HW222104   0.270   5.480   4.934 -0.4122  1.2123 -1.9717
 5583SOL    HW322105   0.301   5.628   4.949  0.7717  0.7896  0.2764
 5583SOL    MW422106   0.278   5.552   4.984  0.2707  0.4012 -0.8540
 5584SOL     OW22107   3.618   4.404   2.463 -0.5417  0.7312 -0.1768
 5584SOL    HW222108   3.684   4.368   2.522 -0.2759 -0.7864 -1.3383
 5584SOL    HW322109   3.663   4.413   2.379 -1.6174  0.2961 -0.8191
 5584SOL    MW422110   3.632   4.400   2.460 -0.6486  0.4735 -0.4148
 5585SOL     OW22111   3.838   4.158   1.598  0.6263  0.4854  0.0974
 5585SOL    HW222112   3.798   4.207   1.671  1.6747  2.0366 -0.3230
 5585SOL    HW322113   3.931   4.177   1.604  1.0902 -1.4911 -0.1249
 5585SOL    MW422114   3.845   4.167   1.609  0.8259  0.4293  0.0126
 5586SOL     OW22115   0.346   3.470   1.416  0.2535 -0.3351  0.2103
 5586SOL    HW222116   0.349   3.461   1.511 -0.5805  2.0820  0.5319
 5586SOL    HW322117   0.290   3.546   1.401 -0.8240 -1.5200 -2.2996
 5586SOL    MW422118   0.339   3.479   1.427  0.0013 -0.1725 -0.0784
 5587SOL     OW22119   3.084   1.261   2.286 -0.3786 -0.0180  0.1304
 5587SOL    HW222120   3.133   1.227   2.360 -0.5293 -1.0365 -0.2171
 5587SOL    HW322121   3.116   1.350   2.274  1.0968 -0.5145  0.1785
 5587SOL    MW422122   3.095   1.268   2.294 -0.2038 -0.2179  0.0909
 5588SOL     OW22123   5.497   4.328   2.150 -0.1331 -0.2366 -0.1842
 5588SOL    HW222124   5.449   4.288   2.077  1.3440 -0.2713 -1.1892
 5588SOL    HW322125   5.576   4.275   2.159  0.2920  0.5087  0.6320
 5588SOL    MW422126   5.501   4.316   2.141  0.1179 -0.1429 -0.2091
 5589SOL     OW22127   5.849   0.198   0.271 -0.1663 -0.0804  0.2458
 5589SOL    HW222128   5.881   0.277   0.314  1.8458  0.6412 -2.3061
 5589SOL    HW322129   5.829   0.225   0.181 -1.8665 -1.9730 -0.0443
 5589SOL    MW422130   5.851   0.212   0.265 -0.1252 -0.2349 -0.1292
 5590SOL     OW22131   1.569   0.385   0.190 -0.3285  0.4234 -0.1017
 5590SOL    HW222132   1.532   0.397   0.103 -1.2062  0.7846  0.2996
 5590SOL    HW322133   1.508   0.326   0.234 -0.7338  1.4207  0.7446
 5590SOL    MW422134   1.556   0.379   0.184 -0.4978  0.6026  0.0629
 5591SOL     OW22135   1.215   1.814   0.899  0.0675  0.0896 -0.4801
 5591SOL    HW222136   1.216   1.759   0.821  0.6248 -0.3413 -0.1755
 5591SOL    HW322137   1.128   1.800   0.937  0.3098 -0.8248 -0.2381
 5591SOL    MW422138   1.204   1.805   0.894  0.1730 -0.0879 -0.4079
 5592SOL     OW22139   0.902   4.494   0.853 -0.2390 -0.1649 -0.3566
 5592SOL    HW222140   0.941   4.580   0.840  2.0427 -1.2802 -1.8219
 5592SOL    HW322141   0.830   4.508   0.914 -0.9929  2.9933 -1.7637
 5592SOL    MW422142   0.898   4.507   0.859 -0.0374  0.1046 -0.7356
 5593SOL     OW22143   0.744   1.971   3.471  0.0373  0.3226  0.1704
 5593SOL    HW222144   0.803   2.003   3.402 -0.8403  0.2307 -0.6447
 5593SOL    HW322145   0.663   2.020   3.457 -0.1755  0.2499  1.1089
 5593SOL    MW422146   0.741   1.982   3.460 -0.1066  0.3009  0.1867
 5594SOL     OW22147   3.834   6.042   4.366 -0.2692 -1.0581  0.7157
 5594SOL    HW222148   3.836   6.101   4.290  2.3343 -1.8581  0.0854
 5594SOL    HW322149   3.745   6.052   4.401 -0.0952  3.0077  0.4857
 5594SOL    MW422150   3.822   6.051   4.360  0.0972 -0.6272  0.6022
 5595SOL     OW22151   6.378   3.379   3.426  0.2441  0.3449  0.0188
 5595SOL    HW222152   6.437   3.368   3.500  1.0697  1.7650 -0.3889
 5595SOL    HW322153   6.290   3.366   3.463  0.7417 -1.2717  0.7347
 5595SOL    MW422154   6.374   3.376   3.441  0.4186  0.3189  0.0595
 5596SOL     OW22155   5.335   0.737   2.554  0.2317 -0.0677 -0.2529
 5596SOL    HW222156   5.341   0.740   2.649  0.4757 -0.2797 -0.2594
 5596SOL    HW322157   5.355   0.646   2.531 -0.9159 -0.2872 -0.4343
 5596SOL    MW422158   5.338   0.726   2.563  0.1125 -0.1246 -0.2777
 5597SOL     OW22159   5.400   0.206   2.536 -0.2493  0.5995 -0.0930
 5597SOL    HW222160   5.305   0.223   2.538 -0.7779 -1.9370 -0.0552
 5597SOL    HW322161   5.415   0.150   2.612  0.8103 -1.0938 -1.4981
 5597SOL    MW422162   5.389   0.201   2.546 -0.1792  0.0415 -0.2734
 5598SOL     OW22163   3.496   5.158   3.658  0.4251 -0.7162  0.2171
 5598SOL    HW222164   3.428   5.218   3.689 -0.5202 -0.7467 -1.6532
 5598SOL    HW322165   3.578   5.204   3.675 -0.1436  0.0926  0.9060
 5598SOL    MW422166   3.498   5.172   3.664  0.2253 -0.6135  0.0612
 5599SOL     OW22167   1.026   2.256   5.527 -0.1165  0.1815 -0.3434
 5599SOL    HW222168   1.112   2.288   5.557  0.2366 -0.0872 -1.0398
 5599SOL    HW322169   0.987   2.331   5.483  0.4617 -0.1278 -1.4511
 5599SOL    MW422170   1.032   2.270   5.525  0.0064  0.1052 -0.5814
 5600SOL     OW22171   5.329   3.033   1.623  0.4967  0.7609  0.0776
 5600SOL    HW222172   5.375   3.109   1.657  0.3805  2.4050 -3.0598
 5600SOL    HW322173   5.256   3.070   1.573 -0.9324 -1.5510  0.3054
 5600SOL    MW422174   5.325   3.048   1.621  0.2928  0.6728 -0.3063
 5601SOL     OW22175   1.641   3.624   1.022  0.6071 -0.0301 -0.4036
 5601SOL    HW222176   1.670   3.713   1.038 -1.2495  0.7921 -1.2896
 5601SOL    HW322177   1.643   3.581   1.107 -0.3047  1.4518  0.3992
 5601SOL    MW422178   1.645   3.630   1.035  0.2419  0.2739 -0.4146
 5602SOL     OW22179   5.915   5.971   0.498 -0.3155 -0.2081 -0.5205
 5602SOL    HW222180   5.915   6.023   0.418  0.1887  0.0179 -0.3756
 5602SOL    HW322181   5.951   6.030   0.565  0.3448 -0.7618 -0.3733
 5602SOL    MW422182   5.920   5.986   0.497 -0.1619 -0.2514 -0.4819
 5603SOL     OW22183   4.694   4.124   5.109 -0.3988  0.1124 -0.2352
 5603SOL    HW222184   4.787   4.144   5.122 -0.5877 -0.0251  1.6085
 5603SOL    HW322185   4.676   4.055   5.172 -1.8060  0.2734 -0.4390
 5603SOL    MW422186   4.704   4.118   5.119 -0.6094  0.1155 -0.0189
 5604SOL     OW22187   0.189   0.524   3.351  0.3182  0.1066 -0.2556
 5604SOL    HW222188   0.144   0.568   3.423  0.4803 -1.0781  0.6233
 5604SOL    HW322189   0.278   0.510   3.384  0.3580 -0.5693 -0.6213
 5604SOL    MW422190   0.195   0.528   3.365  0.3448 -0.1389 -0.1879
 5605SOL     OW22191   2.807   1.544   2.203 -0.3837  0.1023 -0.1087
 5605SOL    HW222192   2.843   1.465   2.163  0.4351  1.3396 -1.9913
 5605SOL    HW322193   2.720   1.553   2.164 -1.7182 -1.3372  2.2806
 5605SOL    MW422194   2.800   1.535   2.192 -0.4517  0.0756 -0.0419
 5606SOL     OW22195   5.835   3.704   6.403 -0.1496  0.0137  0.1874
 5606SOL    HW222196   5.848   3.672   6.492  1.6888  0.1209 -0.0173
 5606SOL    HW322197   5.869   3.793   6.404  0.6628 -0.2730 -0.8271
 5606SOL    MW422198   5.841   3.711   6.415  0.2002 -0.0100  0.0266
 5607SOL     OW22199   0.420   0.249   2.083 -0.1660 -0.4934  0.2239
 5607SOL    HW222200   0.385   0.331   2.049  2.4030  0.2497 -0.8485
 5607SOL    HW322201   0.416   0.188   2.009 -0.3254 -0.7746  0.4613
 5607SOL    MW422202   0.415   0.252   2.069  0.1519 -0.4325  0.1137
 5608SOL     OW22203   3.183   1.863   4.926 -0.5473  0.5330 -0.0142
 5608SOL    HW222204   3.262   1.918   4.931 -0.5633  0.7146 -1.3470
 5608SOL    HW322205   3.128   1.894   4.998  0.8908 -0.1048  1.4240
 5608SOL    MW422206   3.186   1.874   4.936 -0.3596  0.4728 -0.0003
 5609SOL     OW22207   3.838   2.063   2.506 -0.0081  0.6106 -0.0563
 5609SOL    HW222208   3.852   2.032   2.417 -0.6907  0.7520 -0.2195
 5609SOL    HW322209   3.779   1.998   2.544  2.7590 -1.2877  1.3665
 5609SOL    MW422210   3.832   2.050   2.499  0.2670  0.3788  0.1099
 5610SOL     OW22211   3.029   4.322   4.037  0.4824  0.4598 -0.0068
 5610SOL    HW222212   3.029   4.242   4.089  0.5667  0.1109 -0.5349
 5610SOL    HW322213   3.115   4.323   3.994 -0.7286 -1.0168 -2.7669
 5610SOL    MW422214   3.040   4.311   4.038  0.3337  0.2190 -0.4406
 5611SOL     OW22215   3.679   2.213   1.018  0.3483  0.3894 -0.5482
 5611SOL    HW222216   3.701   2.179   0.931  0.7632  0.8768 -0.6430
 5611SOL    HW322217   3.724   2.298   1.022  0.8310  0.0976  0.3827
 5611SOL    MW422218   3.688   2.220   1.007  0.4667  0.4152 -0.4379
 5612SOL     OW22219   4.721   2.004   0.973  0.0971 -0.1584 -0.3719
 5612SOL    HW222220   4.647   2.012   0.913  0.0740  2.1505 -0.1097
 5612SOL    HW322221   4.689   1.949   1.044 -0.2889 -1.8608 -1.7876
 5612SOL    MW422222   4.707   1.998   0.974  0.0431 -0.0784 -0.5241
 5613SOL     OW22223   6.257   0.740   3.461 -0.7788 -0.4290 -0.2918
 5613SOL    HW222224   6.275   0.779   3.375 -1.8509  0.0968 -0.2922
 5613SOL    HW322225   6.332   0.683   3.477  1.4238  2.3304  0.1146
 5613SOL    MW422226   6.269   0.738   3.452 -0.6297  0.0045 -0.2383
 5614SOL     OW22227   3.299   0.313   2.655  0.2863 -0.0636 -0.2218
 5614SOL    HW222228   3.359   0.248   2.690  0.0326 -0.0612  0.2387
 5614SOL    HW322229   3.214   0.269   2.653  0.2373  0.0452 -0.5185
 5614SOL    MW422230   3.295   0.299   2.660  0.2464 -0.0489 -0.2002
 5615SOL     OW22231   4.890   3.855   3.574  0.6823 -0.4318  0.0967
 5615SOL    HW222232   4.826   3.822   3.637 -0.2144 -1.6100 -1.3790
 5615SOL    HW322233   4.933   3.777   3.539 -0.4560 -0.0487 -2.4036
 5615SOL    MW422234   4.887   3.840   3.578  0.4138 -0.5367 -0.4279
 5616SOL     OW22235   1.932   5.177   3.482 -0.3597 -0.0794  0.2379
 5616SOL    HW222236   1.888   5.108   3.530  0.6994  0.0448  1.4353
 5616SOL    HW322237   1.871   5.200   3.412 -1.0744 -1.6392  0.3141
 5616SOL    MW422238   1.919   5.171   3.479 -0.3143 -0.2688  0.4059
 5617SOL     OW22239   4.591   4.068   2.459 -0.1482 -0.8214 -0.0142
 5617SOL    HW222240   4.609   4.126   2.533  0.9641 -3.7642  2.2152
 5617SOL    HW322241   4.496   4.065   2.453 -0.2374  0.8341  0.0853
 5617SOL    MW422242   4.581   4.076   2.468 -0.0133 -0.9912  0.2931
 5618SOL     OW22243   2.187   3.903   1.947 -0.4120  0.0436  0.0011
 5618SOL    HW222244   2.113   3.936   1.999  0.0900  0.9209  0.1831
 5618SOL    HW322245   2.156   3.908   1.856 -0.5181  0.5773  0.0627
 5618SOL    MW422246   2.173   3.908   1.942 -0.3598  0.2297  0.0332
 5619SOL     OW22247   3.399   3.159   3.951  0.0343  0.1483 -0.2299
 5619SOL    HW222248   3.436   3.152   3.863 -0.2076  0.6142 -0.3730
 5619SOL    HW322249   3.307   3.182   3.937  0.3505  1.8315  0.1395
 5619SOL    MW422250   3.392   3.161   3.938  0.0441  0.4318 -0.2001
 5620SOL     OW22251   5.576   1.619   2.916  0.2790  0.4186  0.2322
 5620SOL    HW222252   5.492   1.599   2.874  0.0545  1.2383  0.2764
 5620SOL    HW322253   5.638   1.558   2.875 -0.4642 -0.7028  0.7146
 5620SOL    MW422254   5.573   1.608   2.905  0.1514  0.3788  0.3017
 5621SOL     OW22255   0.699   6.134   2.748 -0.1622 -0.3900 -0.3914
 5621SOL    HW222256   0.729   6.222   2.728  0.0120 -0.5273 -0.7429
 5621SOL    HW322257   0.779   6.084   2.766 -0.2699 -0.4383 -0.0305
 5621SOL    MW422258   0.713   6.139   2.748 -0.1534 -0.4145 -0.3902
 5622SOL     OW22259   1.597   4.846   5.099 -0.3765 -0.3129  0.4670
 5622SOL    HW222260   1.690   4.825   5.098  0.7703  3.7853 -1.6586
 5622SOL    HW322261   1.568   4.830   5.009 -0.4583  2.4356 -0.0959
 5622SOL    MW422262   1.605   4.842   5.087 -0.2360  0.5904  0.1123
 5623SOL     OW22263   5.551   6.234   0.985  0.1106 -0.0785 -0.2231
 5623SOL    HW222264   5.502   6.306   1.024  1.7555  0.6685  0.5613
 5623SOL    HW322265   5.490   6.161   0.984 -0.2125  0.0062  3.2574
 5623SOL    MW422266   5.536   6.234   0.990  0.2850  0.0312  0.3396
 5624SOL     OW22267   0.370   5.846   5.564 -1.0029 -0.0738 -0.0733
 5624SOL    HW222268   0.433   5.777   5.585 -2.0596 -0.6563  1.2961
 5624SOL    HW322269   0.285   5.802   5.565 -1.6089  1.0603 -0.1294
 5624SOL    MW422270   0.367   5.831   5.567 -1.2223 -0.0010  0.1000
 5625SOL     OW22271   5.477   6.297   1.893  0.1762  0.2522 -0.1366
 5625SOL    HW222272   5.421   6.224   1.868  0.9766 -0.3251 -0.2948
 5625SOL    HW322273   5.421   6.354   1.945 -0.8079  0.1630 -1.0622
 5625SOL    MW422274   5.463   6.295   1.896  0.1520  0.1642 -0.2796
 5626SOL     OW22275   0.672   0.107   2.251  0.0142 -0.0023 -0.3677
 5626SOL    HW222276   0.700   0.124   2.161  0.3908  0.3679 -0.1881
 5626SOL    HW322277   0.578   0.093   2.245 -0.2481  1.6450 -0.6189
 5626SOL    MW422278   0.664   0.108   2.238  0.0293  0.2639 -0.3772
 5627SOL     OW22279   4.438   4.587   4.719 -0.3159  0.1220  0.0830
 5627SOL    HW222280   4.431   4.618   4.629  1.9581  0.1591 -0.1424
 5627SOL    HW322281   4.385   4.507   4.721  0.7999 -0.7427 -1.7648
 5627SOL    MW422282   4.430   4.580   4.707  0.1314  0.0128 -0.1905
 5628SOL     OW22283   4.553   0.282   4.547  0.5349  0.5980  0.6313
 5628SOL    HW222284   4.549   0.188   4.566  0.5149  0.5153  0.2092
 5628SOL    HW322285   4.470   0.301   4.504  1.1349  0.5242 -0.5868
 5628SOL    MW422286   4.542   0.272   4.544  0.6114  0.5774  0.4149
 5629SOL     OW22287   0.549   6.354   1.646  0.3796  0.0455 -0.2330
 5629SOL    HW222288   0.582   6.269   1.672 -1.8016 -0.9588 -0.5141
 5629SOL    HW322289   0.540   6.403   1.728  0.3727 -0.5018  0.0968
 5629SOL    MW422290   0.552   6.350   1.660  0.0909 -0.1592 -0.2266
 5630SOL     OW22291   3.652   5.804   3.306 -0.5479  0.7264 -0.2599
 5630SOL    HW222292   3.699   5.742   3.250  0.9263 -0.0530  1.7490
 5630SOL    HW322293   3.721   5.854   3.350 -1.6923  2.9719 -0.8495
 5630SOL    MW422294   3.667   5.803   3.304 -0.5044  0.9199 -0.0727
 5631SOL     OW22295   1.894   1.408   3.143  0.2801  0.2289  0.1163
 5631SOL    HW222296   1.871   1.449   3.227  1.9501 -0.7110  1.0856
 5631SOL    HW322297   1.834   1.334   3.136 -1.2605  1.4855 -0.5713
 5631SOL    MW422298   1.883   1.404   3.153  0.2971  0.2707  0.1534
 5632SOL     OW22299   0.978   3.061   5.314  0.4597  0.3865  0.1106
 5632SOL    HW222300   1.040   2.991   5.335 -0.9439 -0.1639  2.8158
 5632SOL    HW322301   0.907   3.016   5.268 -0.5330 -0.0944  2.0166
 5632SOL    MW422302   0.977   3.046   5.311  0.1435  0.2504  0.7190
 5633SOL     OW22303   2.131   5.627   5.141 -0.0582  0.3097  0.6807
 5633SOL    HW222304   2.191   5.571   5.191 -0.1158  1.4854  2.1271
 5633SOL    HW322305   2.051   5.575   5.132  0.5866 -0.6384  0.1378
 5633SOL    MW422306   2.128   5.613   5.146  0.0193  0.3398  0.7999
 5634SOL     OW22307   2.649   0.674   5.733  0.1625  0.3285  0.1962
 5634SOL    HW222308   2.660   0.606   5.666  0.7540  0.2179  0.4018
 5634SOL    HW322309   2.707   0.745   5.704  0.8358  0.0688  0.8621
 5634SOL    MW422310   2.658   0.674   5.720  0.3294  0.2797  0.3112
 5635SOL     OW22311   4.400   2.997   0.865  0.1837  0.5041 -0.3700
 5635SOL    HW222312   4.368   3.015   0.954 -1.2070  1.2680 -0.9929
 5635SOL    HW322313   4.418   2.903   0.865 -0.1420  0.4244  0.6103
 5635SOL    MW422314   4.399   2.987   0.877 -0.0427  0.5944 -0.3228
 5636SOL     OW22315   5.134   5.924   5.814 -0.5962 -0.0834 -0.1345
 5636SOL    HW222316   5.220   5.892   5.840 -0.4976  0.9318  0.8403
 5636SOL    HW322317   5.140   6.019   5.822 -0.9206  0.2522 -2.7859
 5636SOL    MW422318   5.146   5.932   5.818 -0.6260  0.0948 -0.3557
 5637SOL     OW22319   1.688   0.279   2.925  0.3459  0.3793 -0.0928
 5637SOL    HW222320   1.655   0.329   2.851  0.4597  0.5261 -0.0462
 5637SOL    HW322321   1.610   0.259   2.977  0.2248 -0.0058 -0.4191
 5637SOL    MW422322   1.673   0.283   2.922  0.3449  0.3478 -0.1297
 5638SOL     OW22323   0.186   4.684   0.552 -0.2518  0.5620  0.2095
 5638SOL    HW222324   0.233   4.612   0.595  0.2646  1.8088  1.8627
 5638SOL    HW322325   0.237   4.762   0.574 -0.7500  1.4545 -1.5954
 5638SOL    MW422326   0.199   4.685   0.561 -0.2494  0.8442  0.1895
 5639SOL     OW22327   3.872   4.449   3.077  0.1442 -0.3902  0.5869
 5639SOL    HW222328   3.866   4.356   3.057 -2.3678 -0.0676 -0.6082
 5639SOL    HW322329   3.909   4.453   3.165  2.7827 -2.3358 -0.2933
 5639SOL    MW422330   3.876   4.437   3.086  0.1609 -0.6043  0.3131
 5640SOL     OW22331   5.284   6.109   1.801  0.2445 -0.0681 -0.3566
 5640SOL    HW222332   5.346   6.049   1.760  0.8756  0.1729  0.2265
 5640SOL    HW322333   5.274   6.075   1.890 -0.4940 -0.1269 -0.4568
 5640SOL    MW422334   5.291   6.097   1.808  0.2303 -0.0441 -0.2929
 5641SOL     OW22335   4.052   4.836   1.976  0.8883  0.0338 -0.4405
 5641SOL    HW222336   4.127   4.895   1.967  0.3184  1.0419  0.9656
 5641SOL    HW322337   4.048   4.817   2.070  1.2332 -2.5418 -0.8711
 5641SOL    MW422338   4.062   4.841   1.988  0.8586 -0.1730 -0.3118
 5642SOL     OW22339   5.578   5.289   2.761  0.8016  0.1985  0.5187
 5642SOL    HW222340   5.509   5.223   2.768  0.9737  0.1055  1.4364
 5642SOL    HW322341   5.549   5.347   2.691  0.5646 -0.7501 -0.1844
 5642SOL    MW422342   5.565   5.288   2.753  0.7930  0.0611  0.5470
 5643SOL     OW22343   4.250   2.300   5.388 -0.8595  0.4486 -0.3077
 5643SOL    HW222344   4.160   2.312   5.419 -0.5731  0.2955  0.6084
 5643SOL    HW322345   4.253   2.348   5.305 -2.1603 -0.6808 -1.0518
 5643SOL    MW422346   4.239   2.308   5.381 -0.9934  0.2794 -0.2850
 5644SOL     OW22347   6.351   3.994   3.744  0.6294  0.5130  0.5818
 5644SOL    HW222348   6.388   3.960   3.662  0.0244 -1.2703  0.9987
 5644SOL    HW322349   6.364   4.088   3.738  1.7896  0.3139 -0.9757
 5644SOL    MW422350   6.358   4.002   3.732  0.7026  0.2514  0.4313
 5645SOL     OW22351   4.442   3.481   0.893  0.8398 -0.6306 -0.2292
 5645SOL    HW222352   4.443   3.444   0.981 -0.6863  0.2232  0.1724
 5645SOL    HW322353   4.480   3.413   0.838  1.0533 -1.4970  0.9636
 5645SOL    MW422354   4.447   3.467   0.897  0.6666 -0.6323 -0.0189
 5646SOL     OW22355   1.390   4.443   3.434 -0.6222  0.0644  0.3567
 5646SOL    HW222356   1.365   4.351   3.441 -0.1762 -0.1619 -0.8959
 5646SOL    HW322357   1.478   4.441   3.398 -0.4784  0.9778  0.6468
 5646SOL    MW422358   1.398   4.430   3.431 -0.5444  0.1551  0.2297
 5647SOL     OW22359   1.130   1.955   4.409  0.4435 -0.1889 -0.3312
 5647SOL    HW222360   1.046   1.983   4.447  0.5997 -0.0636 -0.0743
 5647SOL    HW322361   1.131   1.860   4.420  0.4959 -0.1525  0.0028
 5647SOL    MW422362   1.119   1.946   4.415  0.4710 -0.1675 -0.2532
 5648SOL     OW22363   5.135   5.752   1.960  0.3174  0.3735  0.2320
 5648SOL    HW222364   5.222   5.748   1.998  0.3444  1.6267  0.3563
 5648SOL    HW322365   5.150   5.777   1.868  0.1360 -0.3951 -0.0123
 5648SOL    MW422366   5.148   5.755   1.953  0.2970  0.4374  0.2162
 5649SOL     OW22367   0.907   2.144   5.107 -0.0907 -0.2894 -0.5994
 5649SOL    HW222368   0.845   2.136   5.179 -0.0169 -0.9227 -0.5950
 5649SOL    HW322369   0.860   2.109   5.031 -0.7927  1.9184 -1.2695
 5649SOL    MW422370   0.893   2.138   5.106 -0.1736 -0.0817 -0.6872
 5650SOL     OW22371   1.133   0.593   3.142  0.2259  0.7857 -0.0614
 5650SOL    HW222372   1.212   0.540   3.133 -0.8297 -0.9667  0.4119
 5650SOL    HW322373   1.165   0.682   3.156  2.0771  0.3602 -1.2072
 5650SOL    MW422374   1.148   0.597   3.143  0.3309  0.4984 -0.1502
 5651SOL     OW22375   2.464   3.127   1.874  0.1479  0.1565 -0.3922
 5651SOL    HW222376   2.392   3.187   1.856  0.8871  1.0916 -0.3132
 5651SOL    HW322377   2.447   3.051   1.819 -0.9588  0.3100 -0.2729
 5651SOL    MW422378   2.452   3.125   1.864  0.0994  0.3001 -0.3660
 5652SOL     OW22379   2.462   4.134   0.757 -0.0878  0.2172 -0.1177
 5652SOL    HW222380   2.495   4.060   0.809 -1.0001 -0.3533 -0.3290
 5652SOL    HW322381   2.427   4.195   0.822  0.7854  0.5479  0.0671
 5652SOL    MW422382   2.462   4.132   0.773 -0.0930  0.1856 -0.1212
 5653SOL     OW22383   1.762   3.683   4.729  0.4800 -0.5004  0.2964
 5653SOL    HW222384   1.730   3.720   4.811  1.3940 -0.1296  0.4924
 5653SOL    HW322385   1.690   3.627   4.698 -0.5358  0.6664  0.4831
 5653SOL    MW422386   1.748   3.680   4.735  0.4666 -0.2975  0.3469
 5654SOL     OW22387   4.610   1.245   1.428 -0.3321  0.0527 -0.5244
 5654SOL    HW222388   4.591   1.165   1.378  0.2441  0.0642 -0.7670
 5654SOL    HW322389   4.706   1.250   1.429 -0.3160 -0.2282  1.0323
 5654SOL    MW422390   4.620   1.235   1.421 -0.2539  0.0171 -0.3510
 5655SOL     OW22391   5.422   1.427   6.178  0.1955 -0.0023 -0.6505
 5655SOL    HW222392   5.440   1.521   6.172  0.7738 -0.0740 -0.2079
 5655SOL    HW322393   5.328   1.421   6.192  0.3933  0.6233  1.2795
 5655SOL    MW422394   5.412   1.439   6.179  0.2979  0.0708 -0.3375
 5656SOL     OW22395   5.847   2.727   1.439 -0.3687  0.3808  0.1165
 5656SOL    HW222396   5.809   2.713   1.353 -1.3137  2.0008  0.2319
 5656SOL    HW322397   5.883   2.641   1.464 -1.2561 -0.4346 -1.2934
 5656SOL    MW422398   5.847   2.714   1.431 -0.6105  0.4869 -0.0543
 5657SOL     OW22399   0.521   4.184   6.125  0.7371 -0.4591  0.2503
 5657SOL    HW222400   0.578   4.152   6.194  2.3299  0.6811 -0.4696
 5657SOL    HW322401   0.433   4.160   6.153  1.3063  0.1160  2.7538
 5657SOL    MW422402   0.517   4.177   6.138  1.0224 -0.2328  0.4856
 5658SOL     OW22403   4.649   3.980   0.649  0.6244  0.5103 -0.2048
 5658SOL    HW222404   4.592   4.019   0.582  0.6921  0.8509 -0.0644
 5658SOL    HW322405   4.737   4.011   0.627  0.5979  0.9356  0.2599
 5658SOL    MW422406   4.653   3.990   0.637  0.6298  0.6113 -0.1250
 5659SOL     OW22407   3.741   6.164   2.202  0.8321  0.2608  0.0450
 5659SOL    HW222408   3.767   6.126   2.117  3.1655 -0.1282  0.8468
 5659SOL    HW322409   3.780   6.106   2.267 -0.7531  0.6633  1.4283
 5659SOL    MW422410   3.750   6.152   2.199  0.9308  0.2625  0.3333
 5660SOL     OW22411   4.251   5.292   1.729 -0.1960 -0.1074  0.2864
 5660SOL    HW222412   4.181   5.243   1.772  0.5918 -1.2779  0.2938
 5660SOL    HW322413   4.323   5.291   1.792 -0.2472  1.3372  0.3984
 5660SOL    MW422414   4.251   5.285   1.743 -0.0989 -0.0712  0.3022
 5661SOL     OW22415   0.570   0.229   2.699 -0.3012  0.5017 -0.2741
 5661SOL    HW222416   0.632   0.279   2.647 -0.8313  1.1178 -0.3400
 5661SOL    HW322417   0.504   0.294   2.726 -0.9319 -0.1350 -0.2419
 5661SOL    MW422418   0.569   0.244   2.696 -0.4543  0.4990 -0.2785
 5662SOL     OW22419   5.947   3.475   0.884  1.0149  0.2523 -0.3809
 5662SOL    HW222420   5.943   3.506   0.794  1.3160  0.8264 -0.1998
 5662SOL    HW322421   5.928   3.381   0.878 -1.0773  0.6418 -0.8227
 5662SOL    MW422422   5.944   3.467   0.872  0.7786  0.3794 -0.4153
 5663SOL     OW22423   3.792   2.622   5.452  0.1030 -0.1653 -0.2727
 5663SOL    HW222424   3.838   2.635   5.535  0.4324 -0.2917 -0.4352
 5663SOL    HW322425   3.729   2.694   5.449 -0.5680 -0.6877  0.5292
 5663SOL    MW422426   3.790   2.633   5.463  0.0579 -0.2509 -0.1884
 5664SOL     OW22427   5.935   0.164   3.463 -0.2192  0.2532  0.0752
 5664SOL    HW222428   5.899   0.165   3.374 -0.7576 -0.1265  0.2840
 5664SOL    HW322429   5.873   0.111   3.513 -0.0029  0.5957  0.7132
 5664SOL    MW422430   5.922   0.157   3.458 -0.2617  0.2483  0.1869
 5665SOL     OW22431   0.982   1.376   4.901  0.2485  0.2964  0.2382
 5665SOL    HW222432   1.012   1.432   4.972 -2.5209  0.0526  1.7051
 5665SOL    HW322433   1.006   1.287   4.929 -0.2680  0.2569  0.5516
 5665SOL    MW422434   0.989   1.371   4.914 -0.1850  0.2590  0.4731
 5666SOL     OW22435   2.363   6.182   0.784 -0.2691  0.1487 -0.1258
 5666SOL    HW222436   2.315   6.239   0.844 -1.5017  0.0683 -1.0169
 5666SOL    HW322437   2.298   6.153   0.721  1.2453  1.3261 -2.3497
 5666SOL    MW422438   2.348   6.186   0.784 -0.2319  0.2935 -0.5368
 5667SOL     OW22439   3.208   5.029   4.868  0.4990 -0.8282 -0.2707
 5667SOL    HW222440   3.202   4.982   4.785  2.2938  1.8973 -2.1682
 5667SOL    HW322441   3.163   5.112   4.851  2.0547  0.3382  0.9487
 5667SOL    MW422442   3.201   5.034   4.855  0.9411 -0.3147 -0.3601
 5668SOL     OW22443   0.750   4.845   2.829 -0.0145 -0.0595 -0.2715
 5668SOL    HW222444   0.808   4.852   2.905  0.5242 -0.9977 -0.5808
 5668SOL    HW322445   0.671   4.891   2.855  0.3638  0.0802  0.6657
 5668SOL    MW422446   0.747   4.852   2.842  0.1065 -0.1648 -0.1887
 5669SOL     OW22447   3.625   6.198   3.174 -0.6880 -0.0912  0.1390
 5669SOL    HW222448   3.592   6.248   3.099 -0.5209 -1.5839 -0.9713
 5669SOL    HW322449   3.552   6.198   3.236 -1.1421  0.4368 -0.3736
 5669SOL    MW422450   3.611   6.205   3.172 -0.7259 -0.2185 -0.0751
 5670SOL     OW22451   6.005   1.303   2.022  0.4248 -0.1232  0.3214
 5670SOL    HW222452   6.054   1.258   1.953  0.9058  0.4644  0.2705
 5670SOL    HW322453   5.936   1.242   2.046 -2.3259  1.1208 -3.4428
 5670SOL    MW422454   6.003   1.289   2.016  0.1254  0.1184 -0.1820
 5671SOL     OW22455   5.077   3.946   5.971 -0.0228  0.3686  0.1334
 5671SOL    HW222456   5.001   3.926   5.916 -0.2060  2.5466 -0.4885
 5671SOL    HW322457   5.055   3.908   6.056 -1.7529  0.7922 -0.0728
 5671SOL    MW422458   5.064   3.938   5.975 -0.2752  0.7118  0.0241
 5672SOL     OW22459   0.567   4.577   3.850 -0.8693  0.1319 -0.2436
 5672SOL    HW222460   0.527   4.652   3.806 -0.6011  1.6308  1.9452
 5672SOL    HW322461   0.624   4.615   3.916 -0.3185 -2.0170  0.6013
 5672SOL    MW422462   0.569   4.592   3.853 -0.7612  0.0461  0.1566
 5673SOL     OW22463   5.016   1.651   0.357  0.6233 -0.7304 -0.2809
 5673SOL    HW222464   5.044   1.642   0.266 -1.6523  4.0374 -1.8090
 5673SOL    HW322465   4.926   1.618   0.357  0.4544 -0.2678  0.1051
 5673SOL    MW422466   5.008   1.645   0.345  0.3008 -0.0403 -0.4316
 5674SOL     OW22467   4.481   2.109   5.833  0.0579 -0.2402 -0.6884
 5674SOL    HW222468   4.386   2.098   5.838 -0.2475  1.9738 -0.8333
 5674SOL    HW322469   4.509   2.119   5.924 -0.3452  2.3010 -0.7701
 5674SOL    MW422470   4.472   2.109   5.846 -0.0356  0.3872 -0.7183
 5675SOL     OW22471   0.684   2.297   5.480  0.0334  0.4244 -0.2339
 5675SOL    HW222472   0.729   2.378   5.455  0.3632 -0.0140 -1.0735
 5675SOL    HW322473   0.728   2.270   5.561  0.4968  0.6244 -0.4126
 5675SOL    MW422474   0.696   2.304   5.487  0.1381  0.3930 -0.3682
 5676SOL     OW22475   5.798   0.895   1.123  0.3511  0.0623 -0.2117
 5676SOL    HW222476   5.855   0.820   1.139  0.0441 -0.4389 -1.3754
 5676SOL    HW322477   5.848   0.970   1.154  0.5483 -0.6311  1.2475
 5676SOL    MW422478   5.812   0.895   1.130  0.3366 -0.0953 -0.1727
 5677SOL     OW22479   2.895   2.448   2.149  0.3387  0.3914 -0.0226
 5677SOL    HW222480   2.868   2.520   2.092  1.1715  1.0413  0.3905
 5677SOL    HW322481   2.987   2.466   2.169 -0.5620  1.6773  3.7263
 5677SOL    MW422482   2.903   2.460   2.144  0.3297  0.6468  0.5265
 5678SOL     OW22483   5.620   1.326   3.449 -0.1247 -0.5492  0.2607
 5678SOL    HW222484   5.598   1.265   3.519  1.0177 -0.1534  1.0040
 5678SOL    HW322485   5.675   1.274   3.389  1.9136 -0.0002  1.5380
 5678SOL    MW422486   5.624   1.311   3.450  0.2950 -0.4245  0.5273
 5679SOL     OW22487   5.992   4.345   1.803 -0.2801  0.0100  0.3952
 5679SOL    HW222488   5.986   4.361   1.709  0.4225  0.4123  0.4200
 5679SOL    HW322489   5.990   4.432   1.843 -1.2062 -0.1796  0.8018
 5679SOL    MW422490   5.991   4.358   1.796 -0.3096  0.0381  0.4521
 5680SOL     OW22491   2.247   2.599   0.661  0.7124  0.3610 -0.2828
 5680SOL    HW222492   2.210   2.511   0.670  0.2797  0.6659  1.1565
 5680SOL    HW322493   2.250   2.633   0.751 -0.5909  2.4126 -0.9387
 5680SOL    MW422494   2.242   2.592   0.674  0.4833  0.6719 -0.1794
 5681SOL     OW22495   3.471   6.009   5.975  0.3971  0.1533  0.1254
 5681SOL    HW222496   3.490   6.103   5.972  0.1037  0.1940 -0.6516
 5681SOL    HW322497   3.556   5.968   5.993  0.9411  0.4485 -1.5464
 5681SOL    MW422498   3.485   6.016   5.977  0.4302  0.1976 -0.1977
 5682SOL     OW22499   3.169   4.672   5.176 -0.2481 -0.1590  0.1492
 5682SOL    HW222500   3.219   4.752   5.156  0.3605 -0.3039  1.0354
 5682SOL    HW322501   3.079   4.695   5.156 -0.0372  0.6570  0.0843
 5682SOL    MW422502   3.164   4.686   5.171 -0.1400 -0.0705  0.2576
 5683SOL     OW22503   6.091   1.296   1.060 -0.3076 -0.3893 -0.1144
 5683SOL    HW222504   6.126   1.270   0.974 -0.3436  1.2824 -0.6791
 5683SOL    HW322505   6.168   1.328   1.108 -0.0525 -2.5186  1.0151
 5683SOL    MW422506   6.106   1.297   1.055 -0.2787 -0.4497 -0.0399
 5684SOL     OW22507   4.027   3.390   4.503 -0.3077  0.4649 -0.3228
 5684SOL    HW222508   3.991   3.479   4.503 -0.6522  0.3435 -1.1425
 5684SOL    HW322509   3.950   3.334   4.491  0.1244  0.2114 -2.3539
 5684SOL    MW422510   4.012   3.394   4.501 -0.2961  0.4155 -0.6990
 5685SOL     OW22511   5.635   1.301   4.982  0.1289 -0.0543  0.3808
 5685SOL    HW222512   5.596   1.214   4.972 -1.6415  0.9052 -1.6601
 5685SOL    HW322513   5.718   1.296   4.935  0.0302 -0.6379  0.2623
 5685SOL    MW422514   5.641   1.289   4.975 -0.1177 -0.0047  0.0959
 5686SOL     OW22515   2.959   2.624   5.205 -0.1851  0.2174 -0.1643
 5686SOL    HW222516   2.967   2.695   5.268 -2.3218 -1.1829  1.8461
 5686SOL    HW322517   2.920   2.666   5.128  0.3759  1.5626  0.2525
 5686SOL    MW422518   2.955   2.639   5.203 -0.3930  0.2102  0.1559
 5687SOL     OW22519   1.100   1.484   0.544 -0.2724  0.5436  0.7044
 5687SOL    HW222520   1.167   1.487   0.475  0.1390  1.8943  1.1441
 5687SOL    HW322521   1.039   1.416   0.515  1.1884 -0.6015  0.2104
 5687SOL    MW422522   1.101   1.475   0.531 -0.0254  0.5708  0.6972
 5688SOL     OW22523   3.029   4.425   2.308  0.4069 -0.0702  0.0140
 5688SOL    HW222524   3.064   4.424   2.219 -0.9800  0.5062 -0.5515
 5688SOL    HW322525   2.937   4.402   2.298  0.4331 -0.8804  1.4052
 5688SOL    MW422526   3.022   4.422   2.295  0.2274 -0.1011  0.1229
 5689SOL     OW22527   3.177   5.902   2.507 -0.4290 -0.2742 -0.6612
 5689SOL    HW222528   3.120   5.848   2.562 -0.0483  0.0989  0.1062
 5689SOL    HW322529   3.251   5.845   2.487  0.6970  0.3741  1.3559
 5689SOL    MW422530   3.179   5.887   2.512 -0.2302 -0.1395 -0.2938
 5690SOL     OW22531   3.136   2.336   0.609  0.6662 -0.2251  0.0383
 5690SOL    HW222532   3.047   2.336   0.573  0.5385 -0.1555  0.3542
 5690SOL    HW322533   3.147   2.248   0.646  0.3416  0.1050  0.9457
 5690SOL    MW422534   3.126   2.324   0.609  0.6066 -0.1724  0.1997
 5691SOL     OW22535   0.544   5.264   3.390  0.0196  0.1722  0.1173
 5691SOL    HW222536   0.552   5.184   3.337 -1.0650 -0.4538  0.8558
 5691SOL    HW322537   0.461   5.254   3.435  0.2618  1.3541  0.8615
 5691SOL    MW422538   0.534   5.252   3.389 -0.0915  0.2455  0.3129
 5692SOL     OW22539   4.967   3.920   3.227  0.2774  0.1942  0.0307
 5692SOL    HW222540   5.001   3.976   3.297 -0.7174 -0.6448  1.2383
 5692SOL    HW322541   4.959   3.978   3.151 -1.5464  1.9648  1.4656
 5692SOL    MW422542   4.970   3.935   3.226 -0.0945  0.3171  0.3793
 5693SOL     OW22543   3.011   4.708   2.144  0.1123  0.6472 -0.2802
 5693SOL    HW222544   3.071   4.634   2.133  1.2732  1.3327  1.1168
 5693SOL    HW322545   2.967   4.692   2.227  1.7746  2.4027  1.0260
 5693SOL    MW422546   3.013   4.697   2.153  0.4848  0.9693  0.0765
 5694SOL     OW22547   0.305   5.979   5.297  0.0410  0.3003  0.2609
 5694SOL    HW222548   0.350   5.922   5.359  1.2578  2.1170  1.1273
 5694SOL    HW322549   0.254   6.039   5.352 -2.8605 -1.1175 -0.6642
 5694SOL    MW422550   0.304   5.980   5.312 -0.1813  0.3530  0.2531
 5695SOL     OW22551   5.885   0.403   3.082 -0.5835  0.2779 -0.3319
 5695SOL    HW222552   5.849   0.451   3.157 -0.3538 -0.7689  0.4690
 5695SOL    HW322553   5.824   0.420   3.011 -2.6515 -1.3505  0.9435
 5695SOL    MW422554   5.872   0.412   3.082 -0.8261 -0.0751 -0.0580
 5696SOL     OW22555   2.618   4.953   2.600 -0.4547  0.0270 -0.3264
 5696SOL    HW222556   2.577   5.002   2.528 -0.3236 -0.9825 -1.1062
 5696SOL    HW322557   2.579   4.991   2.679 -0.9645  0.8322 -0.9416
 5696SOL    MW422558   2.607   4.964   2.601 -0.5046  0.0000 -0.5105
 5697SOL     OW22559   6.095   4.176   3.860  0.3151 -0.0988 -0.0804
 5697SOL    HW222560   6.083   4.098   3.806  0.3210 -0.1506 -0.0074
 5697SOL    HW322561   6.012   4.185   3.906 -0.9551  1.8143 -2.4965
 5697SOL    MW422562   6.082   4.167   3.859  0.1483  0.1468 -0.3896
 5698SOL     OW22563   1.026   4.098   1.122 -0.0923  0.2302 -0.4040
 5698SOL    HW222564   1.095   4.037   1.148 -0.3778  0.8203  1.9530
 5698SOL    HW322565   0.962   4.044   1.075  1.3789 -0.5246 -1.6366
 5698SOL    MW422566   1.026   4.083   1.119  0.0642  0.2085 -0.2556
 5699SOL     OW22567   5.707   3.046   2.294 -0.6568 -0.1672 -0.5123
 5699SOL    HW222568   5.781   3.079   2.345  0.1289 -0.8603 -1.1812
 5699SOL    HW322569   5.724   2.953   2.284 -2.8293 -0.8368  1.3279
 5699SOL    MW422570   5.719   3.038   2.299 -0.8398 -0.3470 -0.3578
 5700SOL     OW22571   4.766   5.945   4.661  0.3080 -0.1772 -0.1409
 5700SOL    HW222572   4.709   5.970   4.734  0.2582  2.5101 -0.9916
 5700SOL    HW322573   4.751   5.851   4.650 -0.6112 -0.4213  2.4699
 5700SOL    MW422574   4.757   5.936   4.669  0.1802  0.1452  0.0913
 5701SOL     OW22575   4.703   2.240   4.396  0.4608 -0.0753 -0.2777
 5701SOL    HW222576   4.772   2.306   4.391  0.6134 -0.3356 -2.3449
 5701SOL    HW322577   4.698   2.218   4.490  0.3257  2.8712  0.4859
 5701SOL    MW422578   4.712   2.246   4.408  0.4631  0.2791 -0.4497
 5702SOL     OW22579   2.429   5.922   5.473 -0.2035  0.4060  0.1238
 5702SOL    HW222580   2.424   5.833   5.440  0.5206 -0.3086  1.8310
 5702SOL    HW322581   2.512   5.956   5.438 -0.3793  0.3386 -0.3575
 5702SOL    MW422582   2.440   5.915   5.464 -0.1311  0.3028  0.2855
 5703SOL     OW22583   4.643   3.497   5.979 -0.1492  0.5924 -0.4778
 5703SOL    HW222584   4.674   3.512   6.068 -1.9264  1.1327  0.0885
 5703SOL    HW322585   4.663   3.405   5.962 -1.1221  0.0566  1.0687
 5703SOL    MW422586   4.649   3.487   5.989 -0.5120  0.5930 -0.1991
 5704SOL     OW22587   6.437   2.679   3.680  0.1409 -0.5195  0.2334
 5704SOL    HW222588   6.468   2.617   3.614 -0.1438  0.1295 -0.5187
 5704SOL    HW322589   6.359   2.636   3.717 -1.3055  0.2609 -1.7472
 5704SOL    MW422590   6.431   2.665   3.676 -0.0875 -0.3309 -0.1271
 5705SOL     OW22591   4.011   2.278   4.604  0.6658  0.0731  0.9884
 5705SOL    HW222592   3.928   2.323   4.589 -0.0783 -1.7518 -0.8192
 5705SOL    HW322593   4.054   2.279   4.519  1.4613 -1.0035  1.3595
 5705SOL    MW422594   4.006   2.284   4.591  0.6726 -0.3097  0.7989
 5706SOL     OW22595   4.948   4.436   1.443 -0.3378  0.1073  0.2136
 5706SOL    HW222596   4.951   4.421   1.537  0.8470  0.8202  0.3011
 5706SOL    HW322597   4.989   4.358   1.405 -1.2203 -0.3846  0.2553
 5706SOL    MW422598   4.954   4.423   1.450 -0.2979  0.1364  0.2306
 5707SOL     OW22599   0.859   4.466   4.035  0.9106  0.2603 -0.1429
 5707SOL    HW222600   0.836   4.559   4.040 -0.3553 -0.0609  0.3141
 5707SOL    HW322601   0.951   4.463   4.061  1.0057  1.4011 -0.3068
 5707SOL    MW422602   0.868   4.478   4.039  0.7561  0.3684 -0.1042
 5708SOL     OW22603   2.611   2.857   1.425 -0.1237 -0.3103  0.4174
 5708SOL    HW222604   2.574   2.942   1.450 -0.2123 -0.1062 -0.3735
 5708SOL    HW322605   2.611   2.858   1.330 -0.1569 -1.2172  0.3945
 5708SOL    MW422606   2.606   2.868   1.416 -0.1397 -0.4031  0.3100
 5709SOL     OW22607   2.294   1.414   1.231 -0.0155  0.1115  0.1512
 5709SOL    HW222608   2.226   1.397   1.166  0.4933  0.7298 -0.5603
 5709SOL    HW322609   2.246   1.440   1.309 -0.6220 -0.1249 -0.1325
 5709SOL    MW422610   2.278   1.415   1.232 -0.0284  0.1619  0.0199
 5710SOL     OW22611   5.691   1.785   2.091 -0.7644 -0.2170  0.1664
 5710SOL    HW222612   5.744   1.711   2.122 -1.6314  0.0018  2.3683
 5710SOL    HW322613   5.733   1.862   2.129 -1.1169  0.2102 -0.2969
 5710SOL    MW422614   5.704   1.786   2.100 -0.9253 -0.1318  0.3958
 5711SOL     OW22615   1.933   3.029   4.748  0.7264 -0.1257  0.2152
 5711SOL    HW222616   1.977   3.101   4.703  0.9358 -0.1429  0.3946
 5711SOL    HW322617   1.954   2.951   4.696  0.9415 -0.1407  0.3268
 5711SOL    MW422618   1.941   3.028   4.735  0.7824 -0.1299  0.2536
 5712SOL     OW22619   0.143   1.398   4.327  0.2419  1.0900  0.1216
 5712SOL    HW222620   0.196   1.337   4.276  1.1667  2.2323 -0.3426
 5712SOL    HW322621   0.206   1.447   4.379 -0.0667  3.7845 -1.8235
 5712SOL    MW422622   0.158   1.396   4.327  0.3232  1.5962 -0.1963
 5713SOL     OW22623   1.610   4.366   5.894 -0.3545  0.2677  0.2171
 5713SOL    HW222624   1.671   4.378   5.967 -1.6525 -0.2424  1.4364
 5713SOL    HW322625   1.595   4.271   5.890  1.0460  0.0644 -1.9083
 5713SOL    MW422626   1.616   4.355   5.903 -0.3410  0.1736  0.0975
 5714SOL     OW22627   2.521   2.698   3.524  0.1292 -0.4590 -0.0656
 5714SOL    HW222628   2.537   2.782   3.567  0.2832 -1.0333  1.0524
 5714SOL    HW322629   2.582   2.697   3.451 -0.8379  0.9742 -0.9474
 5714SOL    MW422630   2.531   2.709   3.520  0.0219 -0.3457 -0.0344
 5715SOL     OW22631   5.557   5.024   2.033  0.5460 -0.3949 -0.0932
 5715SOL    HW222632   5.523   4.955   1.976 -1.5642 -0.8317  1.5316
 5715SOL    HW322633   5.640   4.989   2.066  0.1602 -1.5820 -0.3318
 5715SOL    MW422634   5.563   5.010   2.030  0.2167 -0.6091  0.0897
 5716SOL     OW22635   0.325   4.469   0.657  0.4796 -0.3519 -0.1791
 5716SOL    HW222636   0.329   4.375   0.671  3.2590 -0.2827 -0.0569
 5716SOL    HW322637   0.409   4.492   0.618 -0.2331  2.0589 -0.4869
 5716SOL    MW422638   0.337   4.460   0.654  0.7523 -0.0247 -0.2036
 5717SOL     OW22639   6.095   3.857   5.169 -0.0976  0.2786 -0.2401
 5717SOL    HW222640   6.154   3.838   5.096 -0.7248  2.6951 -1.4516
 5717SOL    HW322641   6.056   3.941   5.148 -2.1755 -0.0976  1.7219
 5717SOL    MW422642   6.098   3.866   5.157 -0.4545  0.5478 -0.1411
 5718SOL     OW22643   3.590   3.697   2.232 -0.1920 -0.4687 -0.3470
 5718SOL    HW222644   3.502   3.661   2.223 -0.8858  1.4520 -1.8871
 5718SOL    HW322645   3.596   3.721   2.325 -1.7196  0.3504 -0.4172
 5718SOL    MW422646   3.579   3.695   2.243 -0.4851 -0.1072 -0.5595
 5719SOL     OW22647   3.647   0.263   4.665  0.3095  0.2003  0.1696
 5719SOL    HW222648   3.621   0.252   4.574 -0.1241  1.5587  0.1178
 5719SOL    HW322649   3.575   0.312   4.705  0.7407  0.0841  1.1197
 5719SOL    MW422650   3.634   0.268   4.658  0.3092  0.3642  0.2881
 5720SOL     OW22651   3.169   4.481   2.067  0.3592 -0.0102  0.5482
 5720SOL    HW222652   3.164   4.481   1.971 -0.2244  0.5400  0.5792
 5720SOL    HW322653   3.263   4.475   2.085  0.4935  0.1741 -0.0562
 5720SOL    MW422654   3.181   4.480   2.056  0.2999  0.0867  0.4725
 5721SOL     OW22655   1.784   3.360   3.231 -0.2255 -0.0543 -0.6881
 5721SOL    HW222656   1.791   3.307   3.310  1.7761  1.0384 -0.0642
 5721SOL    HW322657   1.829   3.309   3.164  0.8502  0.4043 -0.3265
 5721SOL    MW422658   1.791   3.346   3.233  0.1805  0.1503 -0.5580
 5722SOL     OW22659   3.933   5.394   3.762 -0.1477 -0.1806 -0.3925
 5722SOL    HW222660   3.961   5.302   3.770  0.2193 -0.0088  0.3817
 5722SOL    HW322661   4.014   5.441   3.742 -0.0751  0.1487  0.5930
 5722SOL    MW422662   3.948   5.388   3.761 -0.0897 -0.1145 -0.1604
 5723SOL     OW22663   3.810   5.030   6.294  0.3038 -0.1725  0.1671
 5723SOL    HW222664   3.855   5.097   6.346  0.1861 -0.1929  0.2960
 5723SOL    HW322665   3.758   5.078   6.231 -1.6843 -0.0406  1.7870
 5723SOL    MW422666   3.809   5.045   6.293  0.0260 -0.1578  0.3978
 5724SOL     OW22667   5.152   6.204   2.438 -0.4265 -0.2731  0.3883
 5724SOL    HW222668   5.168   6.254   2.518  1.2213  1.9696 -1.2222
 5724SOL    HW322669   5.175   6.114   2.461  1.4206  0.5617  2.0887
 5724SOL    MW422670   5.157   6.199   2.452  0.0346  0.1330  0.4001
 5725SOL     OW22671   3.505   0.218   1.863  0.0654  0.1518 -0.0184
 5725SOL    HW222672   3.555   0.235   1.942 -2.6046 -1.4972  2.2042
 5725SOL    HW322673   3.489   0.305   1.825  0.7966  1.0490  1.6521
 5725SOL    MW422674   3.510   0.232   1.868 -0.1904  0.0526  0.4952
 5726SOL     OW22675   3.893   3.956   3.191 -0.5055 -0.3961  0.1671
 5726SOL    HW222676   3.954   3.895   3.233 -0.6126  0.9894  2.5090
 5726SOL    HW322677   3.811   3.908   3.185 -0.3924 -0.7399  1.2650
 5726SOL    MW422678   3.891   3.942   3.196 -0.5047 -0.2587  0.6209
 5727SOL     OW22679   5.986   2.232   1.483 -0.6501 -0.0741  0.0901
 5727SOL    HW222680   6.047   2.289   1.530 -2.0932  1.6784 -0.0700
 5727SOL    HW322681   6.031   2.209   1.402  1.9209 -3.1966  2.1691
 5727SOL    MW422682   6.000   2.237   1.479 -0.5013 -0.2549  0.3433
 5728SOL     OW22683   3.108   0.834   3.838  0.3847  0.4776  0.0295
 5728SOL    HW222684   3.120   0.748   3.798  1.3681  0.1737  0.9468
 5728SOL    HW322685   3.195   0.875   3.833  0.4934  0.4997  1.6744
 5728SOL    MW422686   3.121   0.828   3.832  0.5288  0.4404  0.3675
 5729SOL     OW22687   2.328   1.104   6.329 -0.3894 -0.0337 -0.3024
 5729SOL    HW222688   2.364   1.184   6.291  0.5019 -0.2770  0.0076
 5729SOL    HW322689   2.273   1.134   6.401  0.5134  0.2721  0.2694
 5729SOL    MW422690   2.326   1.119   6.333 -0.1527 -0.0254 -0.1861
 5730SOL     OW22691   5.133   3.399   1.395  0.0142 -0.0224 -0.5236
 5730SOL    HW222692   5.206   3.419   1.452 -0.6922 -0.2793  0.4934
 5730SOL    HW322693   5.114   3.306   1.411 -0.2562 -0.0705 -1.0959
 5730SOL    MW422694   5.140   3.389   1.404 -0.1147 -0.0626 -0.4649
 5731SOL     OW22695   5.007   2.997   2.080 -0.1357  0.2691  0.3130
 5731SOL    HW222696   4.938   2.938   2.050  1.1478 -0.7963 -0.6736
 5731SOL    HW322697   5.039   3.039   2.000  1.6400 -0.7344  0.4195
 5731SOL    MW422698   5.002   2.994   2.065  0.2679 -0.0038  0.1969
 5732SOL     OW22699   1.498   5.640   5.765 -0.1824 -0.0245 -0.1783
 5732SOL    HW222700   1.582   5.647   5.809 -0.4988  2.6988  0.1673
 5732SOL    HW322701   1.520   5.628   5.672  0.5786  0.3891 -0.0543
 5732SOL    MW422702   1.512   5.639   5.758 -0.1237  0.3894 -0.1164
 5733SOL     OW22703   3.622   3.095   2.973 -1.1339  0.1772  0.6949
 5733SOL    HW222704   3.580   3.012   2.950  1.7567 -1.5077  0.8897
 5733SOL    HW322705   3.618   3.099   3.068 -1.7052  0.5333  0.6595
 5733SOL    MW422706   3.616   3.085   2.982 -0.8279  0.0018  0.7159
 5734SOL     OW22707   4.374   5.696   0.954  0.2758  0.3206 -0.0155
 5734SOL    HW222708   4.408   5.682   0.865  1.5898  1.2424  0.3014
 5734SOL    HW322709   4.389   5.614   0.999  2.4396  0.7800  0.1890
 5734SOL    MW422710   4.380   5.683   0.948  0.7347  0.5028  0.0533
 5735SOL     OW22711   5.592   2.730   1.543 -0.2659 -0.8721 -0.6563
 5735SOL    HW222712   5.593   2.642   1.581  0.4647 -1.3647 -1.7670
 5735SOL    HW322713   5.676   2.737   1.497  0.0094  0.6837  0.0136
 5735SOL    MW422714   5.603   2.719   1.542 -0.1332 -0.7318 -0.7144
 5736SOL     OW22715   6.411   3.492   4.781 -0.2461  0.2635  0.0336
 5736SOL    HW222716   6.498   3.512   4.815  0.7548 -0.3455 -2.0458
 5736SOL    HW322717   6.401   3.549   4.705  0.2134 -2.6679 -2.4127
 5736SOL    MW422718   6.421   3.502   4.775 -0.0534 -0.2036 -0.5635
 5737SOL     OW22719   2.753   1.850   5.063 -0.0487 -0.1377 -0.3782
 5737SOL    HW222720   2.839   1.889   5.053  0.7870 -1.4381  1.2591
 5737SOL    HW322721   2.767   1.756   5.050 -0.7187 -0.6583  2.1727
 5737SOL    MW422722   2.766   1.843   5.060 -0.0268 -0.3780  0.1744
 5738SOL     OW22723   1.267   4.412   1.266 -0.4501 -0.2681 -0.5225
 5738SOL    HW222724   1.212   4.394   1.190 -0.2148  0.3352 -0.8431
 5738SOL    HW322725   1.254   4.505   1.284 -0.5528 -0.4193  0.2177
 5738SOL    MW422726   1.258   4.422   1.258 -0.4326 -0.2084 -0.4671
 5739SOL     OW22727   2.210   5.377   4.844  0.1334 -0.1198 -0.5012
 5739SOL    HW222728   2.254   5.360   4.761  3.6105  2.2951  0.6226
 5739SOL    HW322729   2.128   5.420   4.819  0.7080 -0.1565 -2.6810
 5739SOL    MW422730   2.205   5.380   4.830  0.6680  0.1940 -0.6405
 5740SOL     OW22731   3.262   4.768   0.196 -0.2091 -0.0618  0.3345
 5740SOL    HW222732   3.200   4.712   0.244 -1.5452 -0.2714 -1.5409
 5740SOL    HW322733   3.280   4.721   0.115  2.4336  0.0288  0.7768
 5740SOL    MW422734   3.256   4.755   0.192 -0.0367 -0.0775  0.1454
 5741SOL     OW22735   5.273   3.629   1.292  0.8045 -0.4797  0.0771
 5741SOL    HW222736   5.232   3.687   1.356 -1.2883  0.8718 -2.2815
 5741SOL    HW322737   5.233   3.543   1.309  0.0416 -0.0757  0.3678
 5741SOL    MW422738   5.262   3.625   1.303  0.4277 -0.2481 -0.1958
 5742SOL     OW22739   5.526   4.419   1.693  0.3699 -0.2348 -0.4407
 5742SOL    HW222740   5.531   4.479   1.767 -0.3173 -0.3707 -0.2780
 5742SOL    HW322741   5.534   4.332   1.732  0.3897 -0.2938 -0.5743
 5742SOL    MW422742   5.528   4.415   1.708  0.2819 -0.2605 -0.4369
 5743SOL     OW22743   5.353   1.368   3.314  0.1711  0.5414 -0.3932
 5743SOL    HW222744   5.314   1.282   3.329 -0.0277  0.9446  1.5998
 5743SOL    HW322745   5.447   1.354   3.326  0.1664  0.5389 -0.3583
 5743SOL    MW422746   5.361   1.355   3.318  0.1443  0.5943 -0.1256
 5744SOL     OW22747   2.587   2.213   2.926  0.2285 -0.5313  0.5187
 5744SOL    HW222748   2.566   2.125   2.958  0.2004 -0.7416 -0.0614
 5744SOL    HW322749   2.664   2.239   2.975 -1.5880  0.4521  3.0823
 5744SOL    MW422750   2.594   2.205   2.936 -0.0149 -0.4293  0.7804
 5745SOL     OW22751   1.791   2.682   0.873  0.4883  0.0676 -0.4468
 5745SOL    HW222752   1.742   2.762   0.854  0.4620 -0.3890 -2.6132
 5745SOL    HW322753   1.827   2.696   0.960 -1.3825  1.4788  0.1667
 5745SOL    MW422754   1.790   2.694   0.882  0.2380  0.1936 -0.6517
 5746SOL     OW22755   3.734   6.414   5.093 -0.1657  0.2994 -0.2950
 5746SOL    HW222756   3.826   6.389   5.096 -0.6858 -1.8508 -0.8898
 5746SOL    HW322757   3.719   6.442   5.003 -0.5067 -1.1747 -0.7155
 5746SOL    MW422758   3.744   6.414   5.082 -0.2793 -0.1788 -0.4289
 5747SOL     OW22759   0.441   0.628   0.690 -0.6502 -0.2897  0.4973
 5747SOL    HW222760   0.443   0.677   0.608 -1.7912 -0.1589  0.5314
 5747SOL    HW322761   0.501   0.554   0.676  1.2123  1.1281  0.4878
 5747SOL    MW422762   0.449   0.625   0.677 -0.5550 -0.0854  0.5005
 5748SOL     OW22763   6.169   3.059   2.470 -0.2906  0.5480  0.2801
 5748SOL    HW222764   6.250   3.095   2.504  0.5476 -0.2060 -0.8472
 5748SOL    HW322765   6.190   2.969   2.446 -1.4813  0.3087  0.0454
 5748SOL    MW422766   6.182   3.052   2.471 -0.3371  0.4169  0.1004
 5749SOL     OW22767   4.290   2.568   4.008 -0.2665 -0.2467  0.5491
 5749SOL    HW222768   4.264   2.530   4.092  0.6803 -1.0740  0.4920
 5749SOL    HW322769   4.222   2.539   3.947 -1.1099  0.5985  1.0808
 5749SOL    MW422770   4.278   2.559   4.011 -0.2528 -0.2443  0.6117
 5750SOL     OW22771   2.241   3.349   4.665 -0.3957 -0.0640  0.5617
 5750SOL    HW222772   2.181   3.417   4.697 -0.7172 -0.4082  0.6978
 5750SOL    HW322773   2.264   3.377   4.576  0.3132  0.7711  0.9970
 5750SOL    MW422774   2.236   3.362   4.657 -0.3446  0.0007  0.6371
 5751SOL     OW22775   6.393   1.367   0.254 -0.1959  0.3700 -0.4656
 5751SOL    HW222776   6.396   1.450   0.301 -0.2992  0.4494 -0.5965
 5751SOL    HW322777   6.468   1.317   0.287 -0.0428  0.5774 -0.4987
 5751SOL    MW422778   6.403   1.371   0.264 -0.1893  0.4078 -0.4872
 5752SOL     OW22779   0.754   4.718   4.006  0.5436 -0.2323  0.6482
 5752SOL    HW222780   0.795   4.772   3.939  0.3754 -0.5000  0.3220
 5752SOL    HW322781   0.675   4.767   4.031 -0.9852 -1.4384 -1.4489
 5752SOL    MW422782   0.749   4.732   4.000  0.3197 -0.4268  0.3285
 5753SOL     OW22783   6.009   5.613   5.893 -0.7841  0.1648  0.4462
 5753SOL    HW222784   6.102   5.625   5.873 -1.0128 -0.6219 -1.2521
 5753SOL    HW322785   5.990   5.523   5.866 -1.9627  0.1818  1.1475
 5753SOL    MW422786   6.019   5.602   5.887 -0.9698  0.0632  0.3147
 5754SOL     OW22787   3.520   1.601   5.872  0.1580 -0.5110 -0.1580
 5754SOL    HW222788   3.534   1.680   5.819 -0.6382 -0.5381 -0.4292
 5754SOL    HW322789   3.426   1.584   5.863  0.5689 -2.4400 -1.4510
 5754SOL    MW422790   3.509   1.609   5.863  0.1071 -0.7691 -0.3644
 5755SOL     OW22791   0.823   3.500   4.612 -0.3589  0.6048  0.3087
 5755SOL    HW222792   0.881   3.436   4.653  2.9068  1.9461 -1.7663
 5755SOL    HW322793   0.737   3.459   4.613  1.6199 -4.4121 -1.8484
 5755SOL    MW422794   0.819   3.486   4.617  0.3330  0.1199 -0.2497
 5756SOL     OW22795   3.514   5.352   5.085  0.4777  0.2960  0.9443
 5756SOL    HW222796   3.595   5.341   5.134  0.3455  0.4472  1.1983
 5756SOL    HW322797   3.509   5.274   5.029  2.6704  1.9192 -1.8047
 5756SOL    MW422798   3.524   5.340   5.084  0.7495  0.5301  0.6151
 5757SOL     OW22799   0.458   3.694   3.156 -0.0867 -0.1160  0.1324
 5757SOL    HW222800   0.399   3.737   3.094 -0.3043 -0.6574 -0.0361
 5757SOL    HW322801   0.545   3.705   3.116 -0.1128  0.3379  0.1895
 5757SOL    MW422802   0.462   3.701   3.142 -0.1189 -0.1276  0.1177
 5758SOL     OW22803   2.523   4.032   1.126 -0.2067 -0.2081  0.2209
 5758SOL    HW222804   2.576   4.006   1.201  0.2116 -1.3092 -0.4311
 5758SOL    HW322805   2.441   3.985   1.138  0.3527 -1.4624 -0.6815
 5758SOL    MW422806   2.519   4.022   1.138 -0.0777 -0.5189  0.0158
 5759SOL     OW22807   5.397   6.037   3.514  0.3963  0.0395  0.2285
 5759SOL    HW222808   5.455   6.049   3.590  0.4855  1.0626  0.0149
 5759SOL    HW322809   5.310   6.027   3.552  0.6994 -1.7344  0.5664
 5759SOL    MW422810   5.394   6.037   3.529  0.4481 -0.0595  0.2449
 5760SOL     OW22811   5.042   1.642   4.279  0.3153  0.6329 -0.2066
 5760SOL    HW222812   5.003   1.670   4.196 -0.4242 -2.7485 -1.1342
 5760SOL    HW322813   5.128   1.607   4.255 -0.3629 -1.4297  0.2050
 5760SOL    MW422814   5.048   1.641   4.265  0.1282 -0.0853 -0.2747
 5761SOL     OW22815   2.980   5.069   6.361 -0.7620 -0.2231  0.2601
 5761SOL    HW222816   3.019   5.034   6.441  1.7137 -0.2952 -0.8870
 5761SOL    HW322817   3.042   5.046   6.292 -1.8653  1.4798 -1.4037
 5761SOL    MW422818   2.993   5.061   6.363 -0.5809 -0.0080 -0.1107
 5762SOL     OW22819   0.383   1.523   2.477 -0.5961  0.6433  0.2609
 5762SOL    HW222820   0.456   1.482   2.429 -0.2975 -1.1622  2.1112
 5762SOL    HW322821   0.311   1.461   2.467 -0.4774  0.1280  2.1703
 5762SOL    MW422822   0.383   1.509   2.469 -0.5410  0.3371  0.7569
 5763SOL     OW22823   2.752   2.450   4.129  0.8761  0.3880 -0.5301
 5763SOL    HW222824   2.735   2.403   4.211  0.6997 -2.2658 -1.9738
 5763SOL    HW322825   2.836   2.414   4.099  0.5801  0.7910 -1.8562
 5763SOL    MW422826   2.761   2.439   4.136  0.8138  0.0910 -0.8955
 5764SOL     OW22827   4.381   2.920   3.710 -0.3199 -0.5243 -0.5504
 5764SOL    HW222828   4.318   2.937   3.640  0.5536 -0.4029 -1.3276
 5764SOL    HW322829   4.329   2.921   3.790 -0.9123  2.3353 -0.8496
 5764SOL    MW422830   4.366   2.922   3.711 -0.2828 -0.1310 -0.6924
 5765SOL     OW22831   6.093   1.889   3.522 -0.4608  0.2911 -0.0297
 5765SOL    HW222832   6.119   1.942   3.446 -1.1805  1.1219  0.2822
 5765SOL    HW322833   6.017   1.838   3.492 -0.1471 -0.1085 -0.1495
 5765SOL    MW422834   6.086   1.889   3.508 -0.5144  0.3480 -0.0044
 5766SOL     OW22835   0.803   1.681   2.854 -0.5380 -0.8396 -0.2096
 5766SOL    HW222836   0.879   1.700   2.908 -0.3159 -0.3551 -0.6951
 5766SOL    HW322837   0.740   1.642   2.915  0.6168 -2.6028 -0.0698
 5766SOL    MW422838   0.804   1.678   2.869 -0.3563 -1.0083 -0.2552
 5767SOL     OW22839   5.239   2.677   0.738  0.3122 -0.0694 -0.2759
 5767SOL    HW222840   5.284   2.605   0.783  0.6594  0.3190  0.0045
 5767SOL    HW322841   5.283   2.683   0.653  0.5185  0.0394 -0.1626
 5767SOL    MW422842   5.250   2.668   0.733  0.3853 -0.0038 -0.2239
 5768SOL     OW22843   0.785   0.666   5.914 -0.0070 -0.1105 -0.0040
 5768SOL    HW222844   0.879   0.675   5.928  0.0679 -1.9999  0.9606
 5768SOL    HW322845   0.749   0.751   5.939  1.3646  0.4480  0.1726
 5768SOL    MW422846   0.793   0.679   5.919  0.1839 -0.2861  0.1466
 5769SOL     OW22847   3.984   2.254   0.472 -0.4913 -0.2909 -0.5089
 5769SOL    HW222848   3.907   2.213   0.432 -1.2359  0.8947 -0.3284
 5769SOL    HW322849   3.983   2.344   0.440 -0.5035  0.3956  1.3253
 5769SOL    MW422850   3.974   2.261   0.463 -0.5911 -0.0439 -0.2431
 5770SOL     OW22851   0.287   5.882   3.285  0.0364  0.3706 -0.5269
 5770SOL    HW222852   0.274   5.976   3.274  0.4396  0.6078  0.7700
 5770SOL    HW322853   0.267   5.866   3.378  0.3197 -0.7599 -0.6439
 5770SOL    MW422854   0.283   5.892   3.296  0.1269  0.2527 -0.3712
 5771SOL     OW22855   0.320   0.701   2.940  0.0960  0.3858 -0.1128
 5771SOL    HW222856   0.409   0.733   2.954  0.1541  1.1766 -2.0380
 5771SOL    HW322857   0.331   0.615   2.899 -0.0648 -0.2941  1.2068
 5771SOL    MW422858   0.333   0.694   2.937  0.0825  0.4004 -0.1927
 5772SOL     OW22859   2.482   1.257   0.435  0.1831 -0.2115  0.1019
 5772SOL    HW222860   2.393   1.223   0.424  0.8172 -1.5681 -1.3040
 5772SOL    HW322861   2.495   1.258   0.530 -1.5136  0.5934  0.3787
 5772SOL    MW422862   2.472   1.253   0.446  0.0429 -0.2843 -0.0470
 5773SOL     OW22863   0.700   2.593   1.078 -0.3180  0.6629  0.4474
 5773SOL    HW222864   0.681   2.687   1.076 -0.0091  0.7288  0.6381
 5773SOL    HW322865   0.783   2.586   1.125 -0.3720  0.2895  0.4884
 5773SOL    MW422866   0.708   2.604   1.084 -0.2844  0.6223  0.4780
 5774SOL     OW22867   4.244   2.759   3.136 -0.2916  0.1689 -0.1036
 5774SOL    HW222868   4.325   2.709   3.151 -1.2935 -0.9796  1.8146
 5774SOL    HW322869   4.177   2.693   3.120 -1.0801  1.0679 -0.6272
 5774SOL    MW422870   4.246   2.744   3.136 -0.5279  0.1360  0.0804
 5775SOL     OW22871   5.052   5.250   2.788 -0.1012 -0.1875 -0.5123
 5775SOL    HW222872   5.082   5.225   2.875 -0.2239 -1.0150 -0.6906
 5775SOL    HW322873   4.964   5.285   2.801 -0.1614 -0.4111 -0.3083
 5775SOL    MW422874   5.044   5.251   2.801 -0.1253 -0.3262 -0.5089
 5776SOL     OW22875   1.131   1.067   2.511  0.3756  0.0874  0.0004
 5776SOL    HW222876   1.188   1.083   2.436  0.6769 -0.7837  0.0350
 5776SOL    HW322877   1.128   1.151   2.558 -0.5635  0.9377 -1.4746
 5776SOL    MW422878   1.138   1.080   2.507  0.2915  0.0846 -0.1897
 5777SOL     OW22879   2.647   1.290   2.352  0.2401 -0.8705  0.4906
 5777SOL    HW222880   2.628   1.320   2.263 -1.1354 -0.9056  0.7536
 5777SOL    HW322881   2.717   1.225   2.341  1.6984  0.7308 -0.3135
 5777SOL    MW422882   2.654   1.285   2.338  0.2510 -0.6638  0.4192
 5778SOL     OW22883   5.384   0.266   3.649 -0.0513  0.1783  0.0984
 5778SOL    HW222884   5.443   0.271   3.574 -1.6840  3.8719 -1.1985
 5778SOL    HW322885   5.424   0.325   3.714 -0.3932 -0.3178  0.7745
 5778SOL    MW422886   5.397   0.275   3.648 -0.3118  0.6002  0.0165
 5779SOL     OW22887   4.174   4.042   5.005  0.6837  0.0288  0.9028
 5779SOL    HW222888   4.118   4.008   5.075 -0.1659 -1.2781 -0.3443
 5779SOL    HW322889   4.259   4.002   5.021  0.0630 -1.6244  0.2856
 5779SOL    MW422890   4.178   4.032   5.016  0.4897 -0.3618  0.6568
 5780SOL     OW22891   5.625   3.254   0.586  0.5214 -0.1755 -0.6055
 5780SOL    HW222892   5.720   3.245   0.576  0.7525  0.7738  0.4728
 5780SOL    HW322893   5.602   3.330   0.533  0.3858 -0.3168 -0.7494
 5780SOL    MW422894   5.635   3.262   0.578  0.5340 -0.0689 -0.4822
 5781SOL     OW22895   1.910   3.245   2.074 -0.4527 -0.4531 -0.3840
 5781SOL    HW222896   1.837   3.298   2.106  0.4919  0.6980 -0.0678
 5781SOL    HW322897   1.966   3.232   2.151  0.7655  0.5298 -1.0725
 5781SOL    MW422898   1.908   3.250   2.088 -0.1674 -0.1716 -0.4331
 5782SOL     OW22899   2.323   3.331   3.455 -0.1791  0.1783  0.1984
 5782SOL    HW222900   2.302   3.239   3.470 -1.1290  0.4385  0.5750
 5782SOL    HW322901   2.413   3.331   3.422 -0.2998 -0.9061 -0.1526
 5782SOL    MW422902   2.332   3.319   3.453 -0.3204  0.0696  0.2017
 5783SOL     OW22903   6.031   6.192   0.637 -0.1725 -0.1879 -0.2891
 5783SOL    HW222904   5.983   6.275   0.640 -0.3596 -0.3115  0.6166
 5783SOL    HW322905   6.009   6.150   0.720  2.8196  0.4704  0.9490
 5783SOL    MW422906   6.022   6.198   0.648  0.1976 -0.1174 -0.0062
 5784SOL     OW22907   5.005   6.263   0.015  0.1160  0.7000 -0.3451
 5784SOL    HW222908   4.960   6.221  -0.058 -1.0913  1.9509 -0.3608
 5784SOL    HW322909   5.092   6.224   0.015 -0.9019 -1.7499 -0.3813
 5784SOL    MW422910   5.011   6.252   0.005 -0.1776  0.5418 -0.3520
 5785SOL     OW22911   1.202   2.584   4.481  0.1126 -0.0488 -0.0420
 5785SOL    HW222912   1.254   2.624   4.412  0.1461  0.3098  0.1829
 5785SOL    HW322913   1.157   2.511   4.439 -0.8145  0.8855 -0.7530
 5785SOL    MW422914   1.203   2.580   4.467 -0.0053  0.1218 -0.1062
 5786SOL     OW22915   2.473   3.670   5.245 -0.7371  0.2899  0.2505
 5786SOL    HW222916   2.385   3.651   5.279 -1.5412  1.3411 -1.1152
 5786SOL    HW322917   2.458   3.732   5.173  1.0920  0.1214 -0.3340
 5786SOL    MW422918   2.459   3.675   5.240 -0.6019  0.4063 -0.0068
 5787SOL     OW22919   2.582   5.457   0.618 -0.3187 -0.6886  0.3323
 5787SOL    HW222920   2.495   5.497   0.627  0.3662  1.0412 -0.2832
 5787SOL    HW322921   2.636   5.504   0.682  0.4283 -0.9237 -0.1141
 5787SOL    MW422922   2.578   5.469   0.628 -0.1297 -0.4914  0.1922
 5788SOL     OW22923   3.181   2.251   3.119  0.0701 -0.4258  0.1359
 5788SOL    HW222924   3.172   2.157   3.129  2.6407 -0.7707 -0.0180
 5788SOL    HW322925   3.258   2.262   3.062 -0.7517  1.7507 -0.6744
 5788SOL    MW422926   3.190   2.240   3.113  0.3008 -0.1841  0.0087
 5789SOL     OW22927   5.117   0.293   3.187 -0.5523  0.6509  0.4764
 5789SOL    HW222928   5.133   0.296   3.093  0.5478  0.0814  0.6351
 5789SOL    HW322929   5.202   0.311   3.227 -0.8540  0.1744  1.3646
 5789SOL    MW422930   5.130   0.296   3.180 -0.4470  0.5129  0.6146
 5790SOL     OW22931   6.191   2.061   3.838 -0.3678  0.3630  0.1292
 5790SOL    HW222932   6.198   2.107   3.922  0.9062  0.1360  0.1594
 5790SOL    HW322933   6.281   2.044   3.812 -0.7033  1.1776 -1.7113
 5790SOL    MW422934   6.204   2.065   3.846 -0.2440  0.4405 -0.1096
 5791SOL     OW22935   6.145   1.378   1.351 -0.2943  0.1039  0.0712
 5791SOL    HW222936   6.083   1.351   1.419  0.4513  0.4341  0.9170
 5791SOL    HW322937   6.221   1.321   1.364 -0.0455  0.3372 -0.3227
 5791SOL    MW422938   6.147   1.367   1.362 -0.1631  0.1782  0.1308
 5792SOL     OW22939   4.819   4.780   2.328  0.2103 -0.2112  0.1284
 5792SOL    HW222940   4.855   4.860   2.367  0.1986  0.7942 -1.7600
 5792SOL    HW322941   4.881   4.711   2.352  0.6248  0.5062  1.1879
 5792SOL    MW422942   4.832   4.782   2.336  0.2634  0.0161  0.0190
 5793SOL     OW22943   2.584   4.141   3.565  0.0600 -0.5394 -0.1150
 5793SOL    HW222944   2.560   4.196   3.491 -3.0288 -1.9815 -0.3478
 5793SOL    HW322945   2.534   4.060   3.552  0.4484 -1.3750  2.8359
 5793SOL    MW422946   2.574   4.138   3.554 -0.2963 -0.8399  0.2436
 5794SOL     OW22947   4.238   5.702   3.738  0.0846  0.4108 -0.0752
 5794SOL    HW222948   4.240   5.606   3.737 -1.4857  0.2923  1.9550
 5794SOL    HW322949   4.321   5.728   3.777  0.9040 -0.0393 -1.4454
 5794SOL    MW422950   4.249   5.693   3.743 -0.0145  0.3358  0.0119
 5795SOL     OW22951   2.396   2.060   6.383  0.1949 -0.0928  0.1212
 5795SOL    HW222952   2.474   2.104   6.416  0.7710 -2.0121  1.4942
 5795SOL    HW322953   2.419   2.035   6.293  0.6457  0.4956  0.0619
 5795SOL    MW422954   2.409   2.063   6.375  0.3304 -0.2684  0.2945
 5796SOL     OW22955   1.348   5.297   1.654 -0.0152 -0.0475  0.5520
 5796SOL    HW222956   1.369   5.386   1.625  0.7178 -0.7178 -1.0918
 5796SOL    HW322957   1.255   5.287   1.638 -0.6651  1.1855  3.0085
 5796SOL    MW422958   1.339   5.307   1.648 -0.0043  0.0267  0.6592
 5797SOL     OW22959   3.030   2.902   2.201  0.4960  1.1410 -0.2464
 5797SOL    HW222960   3.094   2.973   2.208 -0.1125  1.6188  0.8374
 5797SOL    HW322961   3.018   2.872   2.291 -0.0696  0.3787 -0.5610
 5797SOL    MW422962   3.037   2.907   2.214  0.3411  1.1035 -0.1449
 5798SOL     OW22963   0.984   6.078   4.686  0.4410  0.0928 -0.0436
 5798SOL    HW222964   1.061   6.125   4.718  1.4924 -1.1375 -0.7147
 5798SOL    HW322965   0.967   6.116   4.600  0.4952  0.1142 -0.0449
 5798SOL    MW422966   0.992   6.090   4.679  0.5869 -0.0667 -0.1323
 5799SOL     OW22967   3.430   1.999   4.897 -0.3539 -1.5742 -0.5818
 5799SOL    HW222968   3.487   1.924   4.910  0.2794 -1.0322 -0.1394
 5799SOL    HW322969   3.431   2.045   4.981  0.6235 -0.1677 -1.3269
 5799SOL    MW422970   3.438   1.995   4.909 -0.1414 -1.3171 -0.6218
 5800SOL     OW22971   2.244   2.386   1.398  0.4416 -0.5184  0.6287
 5800SOL    HW222972   2.280   2.463   1.442  3.0002 -1.9049  1.1752
 5800SOL    HW322973   2.207   2.420   1.316  1.5830  1.2826  0.8042
 5800SOL    MW422974   2.244   2.401   1.393  0.9298 -0.4637  0.7240
 5801SOL     OW22975   5.736   2.622   1.830 -0.5925  0.4440 -0.1324
 5801SOL    HW222976   5.699   2.710   1.829 -1.0170  0.2914 -1.7694
 5801SOL    HW322977   5.823   2.631   1.791  0.2797  0.4534  1.7149
 5801SOL    MW422978   5.742   2.635   1.825 -0.5335  0.4251 -0.1046
 5802SOL     OW22979   2.008   3.398   0.648 -0.0146  0.3504  0.6949
 5802SOL    HW222980   2.041   3.309   0.634  1.4241  0.9952 -0.1659
 5802SOL    HW322981   1.914   3.386   0.665 -0.5558 -1.1388 -2.5648
 5802SOL    MW422982   2.000   3.385   0.648  0.1038  0.2390  0.1513
 5803SOL     OW22983   1.899   2.806   6.383  0.2319  0.5532 -0.1802
 5803SOL    HW222984   1.909   2.717   6.416 -1.5355 -0.0898 -1.2310
 5803SOL    HW322985   1.901   2.798   6.288  0.6939  1.7289 -0.2901
 5803SOL    MW422986   1.900   2.793   6.375  0.0597  0.6235 -0.3333
 5804SOL     OW22987   2.592   6.150   3.703  0.1266  0.1375 -0.3825
 5804SOL    HW222988   2.561   6.115   3.787 -0.0362  2.7679  0.7673
 5804SOL    HW322989   2.514   6.190   3.664 -0.1770 -2.3831 -2.6474
 5804SOL    MW422990   2.577   6.151   3.709  0.0650  0.1520 -0.5296
 5805SOL     OW22991   1.510   6.080   3.827  0.3346  0.0807  0.0417
 5805SOL    HW222992   1.462   6.002   3.856 -0.1859  0.1973 -0.4835
 5805SOL    HW322993   1.496   6.083   3.732 -0.9993  1.6840  0.2353
 5805SOL    MW422994   1.502   6.070   3.818  0.0899  0.3076 -0.0020
 5806SOL     OW22995   4.733   5.246   2.527  0.2904  0.0888  0.2543
 5806SOL    HW222996   4.726   5.188   2.603 -0.5321  0.8919  0.8144
 5806SOL    HW322997   4.811   5.297   2.544  0.1453  0.2220  0.5414
 5806SOL    MW422998   4.742   5.245   2.539  0.1628  0.2124  0.3661
 5807SOL     OW22999   6.072   0.189   3.923  0.1590  0.0492  0.5827
 5807SOL    HW223000   6.051   0.186   4.017 -1.1412  1.4909  0.3814
 5807SOL    HW323001   5.991   0.217   3.882  0.4535 -1.4302 -1.1060
 5807SOL    MW423002   6.059   0.193   3.930  0.0263  0.0443  0.3333
 5808SOL     OW23003   1.818   1.203   3.865 -0.3570 -0.0051 -0.4516
 5808SOL    HW223004   1.807   1.261   3.940 -0.6445  0.4307 -0.8161
 5808SOL    HW323005   1.850   1.121   3.901  0.5540  0.5421  0.0232
 5808SOL    MW423006   1.821   1.200   3.879 -0.2748  0.1246 -0.4371
 5809SOL     OW23007   0.632   0.883   5.988 -0.1519  0.5442  0.5313
 5809SOL    HW223008   0.656   0.873   6.080 -2.7070 -1.6573  1.0706
 5809SOL    HW323009   0.546   0.843   5.981  0.4712 -0.4949 -3.0936
 5809SOL    MW423010   0.624   0.877   5.999 -0.4068  0.1167  0.1242
 5810SOL     OW23011   0.136   3.301   1.020  0.5551 -0.0589  0.1386
 5810SOL    HW223012   0.110   3.389   1.048  0.0289 -0.7363  1.8991
 5810SOL    HW323013   0.230   3.308   1.005  0.7870  0.4999  1.6279
 5810SOL    MW423014   0.145   3.314   1.022  0.5163 -0.0746  0.5673
 5811SOL     OW23015   0.162   2.294   3.030 -0.0264  0.0851 -0.7590
 5811SOL    HW223016   0.143   2.200   3.037  0.2177  0.1341  0.9950
 5811SOL    HW323017   0.086   2.331   2.985 -0.7742 -0.7591 -0.2211
 5811SOL    MW423018   0.149   2.286   3.025 -0.0929 -0.0198 -0.4566
 5812SOL     OW23019   1.204   4.205   4.901  0.4458  0.2221 -0.2172
 5812SOL    HW223020   1.252   4.288   4.897  0.3109  0.2279 -2.6377
 5812SOL    HW323021   1.146   4.207   4.826 -1.9662 -0.6853  1.4894
 5812SOL    MW423022   1.203   4.216   4.891  0.1097  0.1031 -0.3114
 5813SOL     OW23023   1.618   4.474   1.463 -0.1286 -0.4639  0.3827
 5813SOL    HW223024   1.614   4.390   1.508 -0.0289  0.2304  1.7684
 5813SOL    HW323025   1.532   4.514   1.480  0.5609  0.5867  1.5996
 5813SOL    MW423026   1.606   4.468   1.471 -0.0245 -0.2337  0.7261
 5814SOL     OW23027   3.455   2.336   4.904 -0.1690  0.0867  0.0092
 5814SOL    HW223028   3.367   2.348   4.869  0.3038  0.8883 -0.9460
 5814SOL    HW323029   3.457   2.389   4.983 -0.5633  0.0095  0.0741
 5814SOL    MW423030   3.444   2.344   4.909 -0.1586  0.1823 -0.1083
 5815SOL     OW23031   1.676   1.032   2.073 -0.5587  0.3523  0.1045
 5815SOL    HW223032   1.693   1.021   1.980 -0.9670 -0.2059  0.0991
 5815SOL    HW323033   1.752   0.992   2.116 -1.0344 -0.6361  0.0397
 5815SOL    MW423034   1.688   1.026   2.067 -0.6753  0.1482  0.0952
 5816SOL     OW23035   1.577   1.065   0.123  0.0688  0.4270  0.1781
 5816SOL    HW223036   1.522   1.068   0.201  0.8693  0.8284  0.7323
 5816SOL    HW323037   1.613   0.976   0.122 -0.0498  0.3784  0.1813
 5816SOL    MW423038   1.575   1.053   0.133  0.1588  0.4736  0.2516
 5817SOL     OW23039   1.683   6.041   0.780 -0.1692  0.3287 -0.0063
 5817SOL    HW223040   1.618   6.068   0.845 -0.8485 -0.2946 -0.4138
 5817SOL    HW323041   1.766   6.036   0.829 -0.3984  1.2423  0.4893
 5817SOL    MW423042   1.686   6.044   0.795 -0.2891  0.3670  0.0053
 5818SOL     OW23043   0.150   6.036   1.771  0.2180 -0.1546 -0.0872
 5818SOL    HW223044   0.082   6.056   1.706  0.1060  0.1659  0.1259
 5818SOL    HW323045   0.101   6.022   1.852  0.4641  0.9081  0.2572
 5818SOL    MW423046   0.134   6.036   1.773  0.2357  0.0279 -0.0137
 5819SOL     OW23047   0.931   1.145   2.866  0.3653 -0.0823  0.3875
 5819SOL    HW223048   0.944   1.137   2.960 -0.9131  0.4235  0.6156
 5819SOL    HW323049   0.986   1.076   2.829 -1.4533 -2.3565  1.6660
 5819SOL    MW423050   0.940   1.135   2.873 -0.0433 -0.3157  0.5862
 5820SOL     OW23051   2.448   0.107   4.296 -0.2067  0.0778 -0.6645
 5820SOL    HW223052   2.491   0.165   4.359  2.3122 -1.6091 -0.7041
 5820SOL    HW323053   2.388   0.055   4.349 -2.2548  2.3606 -0.5832
 5820SOL    MW423054   2.446   0.108   4.311 -0.1446  0.1564 -0.6590
 5821SOL     OW23055   2.282   3.433   4.371  0.1315 -0.2319 -0.2913
 5821SOL    HW223056   2.202   3.413   4.321 -0.0029 -0.4171 -0.0051
 5821SOL    HW323057   2.340   3.359   4.352 -0.3324 -0.8751  0.6967
 5821SOL    MW423058   2.279   3.421   4.362  0.0525 -0.3412 -0.1232
 5822SOL     OW23059   0.574   1.079   3.423 -0.5376 -0.0618 -0.3062
 5822SOL    HW223060   0.584   1.093   3.517 -0.0471  1.4870 -0.5554
 5822SOL    HW323061   0.489   1.117   3.401 -0.6061 -0.3253 -0.5113
 5822SOL    MW423062   0.564   1.086   3.432 -0.4819  0.1078 -0.3661
 5823SOL     OW23063   4.769   2.639   5.490 -0.2253 -0.6246 -0.1390
 5823SOL    HW223064   4.753   2.553   5.529 -0.0517 -1.0670 -1.0201
 5823SOL    HW323065   4.862   2.654   5.503 -0.0239 -1.0879 -0.9844
 5823SOL    MW423066   4.779   2.630   5.497 -0.1758 -0.7441 -0.3668
 5824SOL     OW23067   0.584   0.760   0.249 -0.1292 -0.1479  0.1214
 5824SOL    HW223068   0.630   0.680   0.278 -1.1128 -0.6584  0.3286
 5824SOL    HW323069   0.538   0.733   0.170 -0.0276  0.3759 -0.1176
 5824SOL    MW423070   0.584   0.746   0.243 -0.2456 -0.1461  0.1172
 5825SOL     OW23071   0.381   4.815   2.221 -0.2677  0.1072  0.3449
 5825SOL    HW223072   0.433   4.878   2.270 -0.2521 -0.2696  0.8159
 5825SOL    HW323073   0.300   4.806   2.272 -0.3726 -0.0706  0.1487
 5825SOL    MW423074   0.377   4.822   2.234 -0.2795  0.0340  0.3812
 5826SOL     OW23075   4.527   5.811   2.256  0.6072  0.1472  0.4641
 5826SOL    HW223076   4.586   5.822   2.180  0.2193 -1.7107 -0.1734
 5826SOL    HW323077   4.442   5.841   2.225  0.3202 -1.1487 -0.0780
 5826SOL    MW423078   4.524   5.816   2.242  0.5182 -0.2689  0.3084
 5827SOL     OW23079   3.079   5.049   3.692  0.0333 -0.3104  0.2444
 5827SOL    HW223080   3.003   5.060   3.635 -0.5264 -1.2840  0.7925
 5827SOL    HW323081   3.154   5.067   3.635 -0.6029  3.4051  0.3098
 5827SOL    MW423082   3.079   5.053   3.677 -0.1245  0.0514  0.3253
 5828SOL     OW23083   5.821   4.774   4.430 -0.2348 -0.2571 -0.4213
 5828SOL    HW223084   5.743   4.719   4.421  0.4856 -1.5878  0.9913
 5828SOL    HW323085   5.894   4.717   4.405  0.5007  0.1622  0.6917
 5828SOL    MW423086   5.821   4.760   4.426 -0.0427 -0.3774 -0.0881
 5829SOL     OW23087   1.897   1.723   4.796 -0.0146  0.0657  0.1429
 5829SOL    HW223088   1.975   1.668   4.794  0.5639  0.7096  2.3612
 5829SOL    HW323089   1.846   1.691   4.870 -1.2471  0.5023 -0.4797
 5829SOL    MW423090   1.901   1.712   4.805 -0.1009  0.2083  0.3534
 5830SOL     OW23091   2.494   4.536   4.962 -0.1088  0.3990 -0.1354
 5830SOL    HW223092   2.479   4.442   4.958 -1.3227  0.5465  0.6195
 5830SOL    HW323093   2.481   4.566   4.872 -3.0356  0.2868  0.1522
 5830SOL    MW423094   2.491   4.527   4.950 -0.6551  0.4037  0.0021
 5831SOL     OW23095   1.786   5.936   3.314 -0.0667  0.2130  0.6629
 5831SOL    HW223096   1.769   5.878   3.240  0.2726  1.9041 -0.8115
 5831SOL    HW323097   1.837   5.882   3.375 -0.6572 -1.3369 -0.1542
 5831SOL    MW423098   1.791   5.921   3.312 -0.0998  0.2317  0.3606
 5832SOL     OW23099   3.424   1.954   0.674 -0.3718 -0.5804  0.2804
 5832SOL    HW223100   3.457   1.960   0.764  1.1198  0.0195 -0.2664
 5832SOL    HW323101   3.373   1.873   0.672  0.3252 -1.0754  1.4302
 5832SOL    MW423102   3.421   1.944   0.686 -0.0831 -0.5666  0.3599
 5833SOL     OW23103   5.987   4.570   6.275 -0.2716  0.5234 -0.3338
 5833SOL    HW223104   6.042   4.646   6.257 -1.1171  1.1549 -0.3031
 5833SOL    HW323105   6.039   4.515   6.332  1.5403 -0.3549 -2.6722
 5833SOL    MW423106   6.001   4.573   6.280 -0.1441  0.4908 -0.6383
 5834SOL     OW23107   4.836   4.075   4.436 -0.0277 -0.0397  0.3242
 5834SOL    HW223108   4.789   4.034   4.509 -3.0774  0.1843 -1.3269
 5834SOL    HW323109   4.841   4.168   4.460  0.2705 -0.1993  0.8772
 5834SOL    MW423110   4.830   4.082   4.449 -0.3907 -0.0312  0.1793
 5835SOL     OW23111   4.828   3.072   3.845  0.1707  0.2054  1.2141
 5835SOL    HW223112   4.761   3.038   3.786  0.4513 -0.2133  1.1371
 5835SOL    HW323113   4.780   3.127   3.907 -0.2825 -0.3309  1.3424
 5835SOL    MW423114   4.813   3.075   3.846  0.1479  0.0794  1.2209
 5836SOL     OW23115   4.091   0.464   3.549 -0.7532  0.6415 -0.1203
 5836SOL    HW223116   4.000   0.490   3.557 -0.7972  0.2542  0.7745
 5836SOL    HW323117   4.107   0.407   3.624  0.1794  0.5693 -0.3515
 5836SOL    MW423118   4.081   0.460   3.560 -0.6360  0.5809 -0.0327
 5837SOL     OW23119   1.931   6.350   3.214  0.3324  0.2068  0.3804
 5837SOL    HW223120   2.005   6.361   3.154 -0.6202 -0.4098 -0.9613
 5837SOL    HW323121   1.854   6.352   3.158 -0.6934  0.7755  1.7386
 5837SOL    MW423122   1.931   6.352   3.199  0.0714  0.2005  0.3825
 5838SOL     OW23123   4.904   4.796   6.091  0.1360 -0.1858 -0.1741
 5838SOL    HW223124   4.954   4.810   6.172 -1.1757  0.5287  0.5450
 5838SOL    HW323125   4.970   4.788   6.023  1.2300  2.6840  0.4286
 5838SOL    MW423126   4.919   4.796   6.093  0.1073  0.2871  0.0003
 5839SOL     OW23127   0.892   6.129   5.493 -0.1149 -0.1554 -0.0715
 5839SOL    HW223128   0.856   6.108   5.579  1.1952 -1.4510  0.2121
 5839SOL    HW323129   0.969   6.072   5.485  0.1434  0.3773 -1.8469
 5839SOL    MW423130   0.897   6.118   5.503  0.0920 -0.2561 -0.2683
 5840SOL     OW23131   5.007   2.982   4.325 -0.5053 -0.3496  0.3468
 5840SOL    HW223132   5.093   2.963   4.288 -0.7424 -0.7332 -0.0217
 5840SOL    HW323133   4.945   2.946   4.261 -0.9359 -0.1833  0.6639
 5840SOL    MW423134   5.010   2.974   4.312 -0.5934 -0.3783  0.3400
 5841SOL     OW23135   4.106   3.820   4.833  0.3929 -0.0123  0.2561
 5841SOL    HW223136   4.090   3.886   4.900  0.4588  0.1889  0.0732
 5841SOL    HW323137   4.181   3.853   4.783  1.1663 -0.7798  0.8840
 5841SOL    MW423138   4.114   3.833   4.835  0.5037 -0.0871  0.3148
 5842SOL     OW23139   4.686   0.222   3.659  0.3966 -0.1992 -0.1121
 5842SOL    HW223140   4.613   0.169   3.691 -1.9115  2.0185 -1.3745
 5842SOL    HW323141   4.706   0.282   3.731  2.0176 -1.6735  0.7543
 5842SOL    MW423142   4.679   0.223   3.673  0.3060 -0.1011 -0.1643
 5843SOL     OW23143   1.545   5.370   0.312  0.0241 -0.5569 -0.0939
 5843SOL    HW223144   1.555   5.332   0.225 -2.4533 -3.1511  0.5711
 5843SOL    HW323145   1.600   5.315   0.368  1.2234  0.7935  0.1025
 5843SOL    MW423146   1.554   5.357   0.308 -0.1445 -0.7210  0.0197
 5844SOL     OW23147   4.036   4.844   2.246 -0.1051  0.8150  0.4815
 5844SOL    HW223148   3.963   4.875   2.299  0.8097  1.8877  1.1448
 5844SOL    HW323149   4.108   4.902   2.267  0.3913  1.1081 -1.7310
 5844SOL    MW423150   4.036   4.856   2.256  0.0811  0.9952  0.2771
 5845SOL     OW23151   2.770   1.633   0.380  0.6716 -0.0488 -0.6031
 5845SOL    HW223152   2.680   1.607   0.361 -0.0507  1.4194  0.5640
 5845SOL    HW323153   2.783   1.610   0.472  0.9255  1.1362 -0.3211
 5845SOL    MW423154   2.760   1.627   0.390  0.6098  0.3013 -0.4119
 5846SOL     OW23155   0.466   4.898   2.892  0.0276 -0.2889  0.3695
 5846SOL    HW223156   0.412   4.846   2.832  1.1899 -2.3302  0.9721
 5846SOL    HW323157   0.423   4.983   2.896 -3.0295 -1.7035  0.6742
 5846SOL    MW423158   0.454   4.902   2.884 -0.2224 -0.7449  0.4892
 5847SOL     OW23159   1.563   2.321   3.503 -0.0133 -0.0789  0.9447
 5847SOL    HW223160   1.582   2.265   3.428  0.6836  1.6960 -0.2747
 5847SOL    HW323161   1.620   2.397   3.491 -1.0651  0.9946  2.3981
 5847SOL    MW423162   1.573   2.324   3.491 -0.0602  0.2969  0.9756
 5848SOL     OW23163   6.225   0.627   4.647 -0.2132 -0.0314  0.5145
 5848SOL    HW223164   6.316   0.645   4.670  0.7249 -1.0501 -2.0445
 5848SOL    HW323165   6.219   0.531   4.646 -1.8166 -0.0078  2.2585
 5848SOL    MW423166   6.236   0.617   4.650 -0.3010 -0.1627  0.4070
 5849SOL     OW23167   3.417   2.864   3.994  0.0622  0.1779  0.0657
 5849SOL    HW223168   3.467   2.834   3.918  1.1663 -0.0818  0.8730
 5849SOL    HW323169   3.417   2.960   3.985 -0.8830  0.1049 -0.9064
 5849SOL    MW423170   3.424   2.873   3.982  0.0832  0.1340  0.0440
 5850SOL     OW23171   0.652   2.741   6.342  0.5959 -0.0332  0.2217
 5850SOL    HW223172   0.721   2.770   6.401  2.0327 -1.4263 -0.6783
 5850SOL    HW323173   0.654   2.645   6.349 -0.0394 -0.1693 -1.1377
 5850SOL    MW423174   0.661   2.732   6.351  0.7016 -0.2350 -0.0764
 5851SOL     OW23175   2.412   1.098   2.999 -0.1349 -0.3376 -0.1480
 5851SOL    HW223176   2.404   1.048   3.080 -0.4831  0.9380  0.6318
 5851SOL    HW323177   2.488   1.155   3.014 -0.5519  0.3119 -0.4846
 5851SOL    MW423178   2.421   1.099   3.012 -0.2359 -0.0836 -0.0895
 5852SOL     OW23179   1.464   5.677   2.923 -0.4159  0.2952  0.5572
 5852SOL    HW223180   1.549   5.638   2.903 -0.9556 -0.9669  0.6229
 5852SOL    HW323181   1.417   5.608   2.971 -1.6013  0.8450  0.2126
 5852SOL    MW423182   1.469   5.663   2.927 -0.6435  0.2012  0.5204
 5853SOL     OW23183   6.377   2.438   2.099 -0.0650  0.2706 -0.3874
 5853SOL    HW223184   6.372   2.416   2.006 -1.4626 -1.6539  0.0819
 5853SOL    HW323185   6.303   2.391   2.138  1.4973 -0.3655  1.9649
 5853SOL    MW423186   6.366   2.429   2.092 -0.0433 -0.0673 -0.0151
 5854SOL     OW23187   1.767   2.229   0.860 -1.0623 -0.3231 -0.2698
 5854SOL    HW223188   1.749   2.300   0.799  0.7260  0.7737  0.3718
 5854SOL    HW323189   1.721   2.255   0.940  0.7947  0.9841  0.4528
 5854SOL    MW423190   1.759   2.242   0.863 -0.5813 -0.0060 -0.0898
 5855SOL     OW23191   1.547   5.332   1.228 -0.1372 -0.4103 -0.3120
 5855SOL    HW223192   1.617   5.397   1.216 -1.1481  0.5514 -1.1949
 5855SOL    HW323193   1.466   5.382   1.215 -1.0674 -1.2338  1.8404
 5855SOL    MW423194   1.546   5.347   1.225 -0.3933 -0.3920 -0.1445
 5856SOL     OW23195   2.407   4.374   5.630  0.0616 -0.0135  0.2848
 5856SOL    HW223196   2.372   4.299   5.678 -2.8366 -0.0148 -1.5887
 5856SOL    HW323197   2.486   4.340   5.588 -0.7896 -1.8309  0.0592
 5856SOL    MW423198   2.413   4.359   5.631 -0.4331 -0.2535  0.0079
 5857SOL     OW23199   3.269   5.407   3.394  0.2173  0.2907  0.1321
 5857SOL    HW223200   3.258   5.328   3.447  2.1228 -1.6676 -2.1580
 5857SOL    HW323201   3.318   5.466   3.451  0.3982 -0.9021  1.2767
 5857SOL    MW423202   3.274   5.404   3.409  0.4926 -0.1250 -0.0190
 5858SOL     OW23203   4.926   5.884   2.778 -0.0965  0.0191  0.1183
 5858SOL    HW223204   4.882   5.925   2.704 -0.4593  0.2132  0.4392
 5858SOL    HW323205   4.855   5.856   2.836  0.1723 -0.4532  0.2242
 5858SOL    MW423206   4.911   5.886   2.776 -0.1089 -0.0176  0.1746
 5859SOL     OW23207   0.481   3.120   0.311 -0.1869 -0.7698 -0.0857
 5859SOL    HW223208   0.493   3.032   0.275 -0.2550 -0.7439 -0.1729
 5859SOL    HW323209   0.474   3.177   0.234  0.3138 -0.6238 -0.0289
 5859SOL    MW423210   0.481   3.116   0.296 -0.1298 -0.7471 -0.0897
 5860SOL     OW23211   3.536   4.259   1.027  0.2390 -0.1276  0.0082
 5860SOL    HW223212   3.444   4.239   1.045  0.1001  1.5890  1.4881
 5860SOL    HW323213   3.572   4.177   0.994 -1.5419 -1.1741  0.5159
 5860SOL    MW423214   3.529   4.246   1.025 -0.0143 -0.0392  0.2705
 5861SOL     OW23215   1.487   4.050   1.782  0.5094  0.0420 -0.2486
 5861SOL    HW223216   1.427   3.996   1.730  0.8278 -1.5056  0.9179
 5861SOL    HW323217   1.465   4.029   1.873  0.9398  1.5945  0.2565
 5861SOL    MW423218   1.476   4.040   1.787  0.6082  0.0426 -0.0281
 5862SOL     OW23219   3.419   2.291   0.196 -0.0374  0.1368  0.1819
 5862SOL    HW223220   3.419   2.333   0.282 -0.7986  2.0016 -0.6766
 5862SOL    HW323221   3.489   2.334   0.148  0.5151 -1.0301 -0.0880
 5862SOL    MW423222   3.428   2.302   0.201 -0.0650  0.2289  0.0330
 5863SOL     OW23223   6.345   0.976   5.784  0.3362  0.3145 -0.1322
 5863SOL    HW223224   6.275   0.999   5.724  0.6147  1.0198 -0.1970
 5863SOL    HW323225   6.305   0.913   5.845 -0.8900  2.0670  0.9587
 5863SOL    MW423226   6.331   0.970   5.784  0.2111  0.6388  0.0032
 5864SOL     OW23227   0.417   1.017   3.076 -0.2101  0.5952 -0.2860
 5864SOL    HW223228   0.359   1.004   3.151  0.4204 -1.5807 -0.1064
 5864SOL    HW323229   0.359   1.036   3.003 -0.9261  1.3436  0.4669
 5864SOL    MW423230   0.402   1.017   3.076 -0.2214  0.4069 -0.1630
 5865SOL     OW23231   5.229   3.621   6.000  0.1460  0.3444 -0.2241
 5865SOL    HW223232   5.180   3.600   5.921 -0.5746 -1.7923  0.7080
 5865SOL    HW323233   5.317   3.644   5.968  0.3179 -1.9103 -1.6213
 5865SOL    MW423234   5.234   3.621   5.985  0.0736 -0.2350 -0.2855
 5866SOL     OW23235   2.269   1.829   5.079 -0.0650 -0.4380  0.2445
 5866SOL    HW223236   2.350   1.817   5.128  0.4100 -0.1041 -0.4358
 5866SOL    HW323237   2.221   1.747   5.090  1.4415 -1.6070 -1.3093
 5866SOL    MW423238   2.274   1.817   5.087  0.1964 -0.5482 -0.0502
 5867SOL     OW23239   5.612   5.182   0.126 -0.2254 -0.2810  0.5900
 5867SOL    HW223240   5.697   5.175   0.082 -0.3332  0.2500  0.2958
 5867SOL    HW323241   5.553   5.217   0.060 -0.6240 -0.4229  0.8644
 5867SOL    MW423242   5.616   5.185   0.112 -0.2923 -0.2296  0.5874
 5868SOL     OW23243   5.886   5.210   4.093  0.0418 -0.4825 -0.3096
 5868SOL    HW223244   5.974   5.245   4.108 -0.0994 -0.9137  1.8178
 5868SOL    HW323245   5.891   5.120   4.125 -1.0867 -0.6300 -0.5214
 5868SOL    MW423246   5.898   5.202   4.099 -0.1257 -0.5588 -0.0569
 5869SOL     OW23247   1.248   0.152   5.082  0.4411 -0.0747  0.1743
 5869SOL    HW223248   1.270   0.226   5.026  0.0605  0.6909  1.0203
 5869SOL    HW323249   1.260   0.075   5.025  0.1789  0.6646 -0.9186
 5869SOL    MW423250   1.253   0.151   5.067  0.3563  0.1239  0.1417
 5870SOL     OW23251   1.035   4.770   6.148 -0.0949  0.3823 -0.2822
 5870SOL    HW223252   1.033   4.675   6.154  0.0661  0.2613 -1.8033
 5870SOL    HW323253   0.956   4.793   6.099 -0.0685  1.0383 -0.0405
 5870SOL    MW423254   1.024   4.761   6.143 -0.0702  0.4529 -0.4510
 5871SOL     OW23255   0.372   6.311   0.049  0.6801  0.0912  0.1943
 5871SOL    HW223256   0.396   6.222   0.077  2.2378  0.5972  0.5904
 5871SOL    HW323257   0.440   6.335  -0.013  1.8620  1.9704  2.0858
 5871SOL    MW423258   0.384   6.302   0.045  1.0415  0.4059  0.4961
 5872SOL     OW23259   3.686   4.573   5.242 -0.0210  0.1584 -0.4290
 5872SOL    HW223260   3.771   4.567   5.286  0.0625 -0.5435 -0.6703
 5872SOL    HW323261   3.646   4.487   5.257  0.0345 -0.1195 -1.7690
 5872SOL    MW423262   3.692   4.561   5.250 -0.0026  0.0291 -0.6376
 5873SOL     OW23263   1.696   2.197   0.006 -0.0549 -0.5130 -0.8837
 5873SOL    HW223264   1.695   2.167   0.097  2.2017  1.2044 -0.2116
 5873SOL    HW323265   1.616   2.249  -0.003  0.8261  1.2738  0.8972
 5873SOL    MW423266   1.685   2.200   0.017  0.3590 -0.0507 -0.5601
 5874SOL     OW23267   1.421   1.111   5.332 -0.0632 -0.1418 -0.2089
 5874SOL    HW223268   1.418   1.024   5.370 -0.2549  0.8946  2.3235
 5874SOL    HW323269   1.330   1.129   5.306  0.0530 -0.8273 -1.1194
 5874SOL    MW423270   1.408   1.102   5.334 -0.0731 -0.0955  0.0051
 5875SOL     OW23271   6.375   1.425   1.062 -0.2976 -0.4210  0.5166
 5875SOL    HW223272   6.456   1.390   1.023 -1.0522  0.8753 -2.4969
 5875SOL    HW323273   6.399   1.512   1.093 -0.1021 -0.8110  1.5013
 5875SOL    MW423274   6.389   1.432   1.061 -0.3714 -0.3015  0.2489
 5876SOL     OW23275   1.219   1.230   2.307 -0.4434 -0.5810  0.4479
 5876SOL    HW223276   1.278   1.277   2.365 -0.0411 -1.0646  0.4359
 5876SOL    HW323277   1.149   1.293   2.288  1.0746  0.7380 -1.1615
 5876SOL    MW423278   1.217   1.244   2.312 -0.1901 -0.4708  0.2340
 5877SOL     OW23279   4.343   0.599   5.215 -0.0484  0.2122 -0.1058
 5877SOL    HW223280   4.338   0.553   5.299 -1.0559  0.2107 -0.1525
 5877SOL    HW323281   4.383   0.536   5.155  0.6873  0.2190  0.3704
 5877SOL    MW423282   4.347   0.584   5.218 -0.0843  0.2129 -0.0491
 5878SOL     OW23283   4.422   5.446   1.046  0.4672  0.4576  0.2928
 5878SOL    HW223284   4.351   5.384   1.063 -1.8248  2.3663 -1.5855
 5878SOL    HW323285   4.500   5.392   1.039 -1.3016 -2.1718 -0.6535
 5878SOL    MW423286   4.423   5.431   1.048 -0.0686  0.3625 -0.0799
 5879SOL     OW23287   2.951   0.614   4.725  0.4636  0.2945 -0.2917
 5879SOL    HW223288   2.988   0.550   4.785 -0.7435  0.3805  0.5733
 5879SOL    HW323289   2.994   0.697   4.748  1.2367  0.0177 -0.6972
 5879SOL    MW423290   2.962   0.617   4.736  0.4063  0.2693 -0.2311
 5880SOL     OW23291   3.277   5.475   1.383  0.4403  0.3342 -0.6250
 5880SOL    HW223292   3.336   5.518   1.321  1.0628  0.8078  0.2863
 5880SOL    HW323293   3.302   5.509   1.468 -1.8108  1.3385 -0.2879
 5880SOL    MW423294   3.288   5.485   1.386  0.2254  0.5292 -0.4603
 5881SOL     OW23295   5.104   5.740   3.479 -0.6005 -0.3372 -0.2150
 5881SOL    HW223296   5.046   5.788   3.420 -1.0559 -0.4821  0.1086
 5881SOL    HW323297   5.045   5.692   3.537 -0.2111  1.2908  1.6191
 5881SOL    MW423298   5.089   5.740   3.479 -0.6092 -0.1415  0.0697
 5882SOL     OW23299   0.435   1.981   4.445 -0.0970  0.0678  0.0837
 5882SOL    HW223300   0.343   1.953   4.443 -0.4938  1.3270 -0.2699
 5882SOL    HW323301   0.434   2.064   4.493  0.8748  0.0583  0.1471
 5882SOL    MW423302   0.423   1.988   4.451 -0.0211  0.2327  0.0454
 5883SOL     OW23303   5.509   1.081   1.246  0.8758  0.3156 -0.0551
 5883SOL    HW223304   5.587   1.083   1.301  1.2267  1.5138 -0.5700
 5883SOL    HW323305   5.505   1.168   1.207 -0.7395  0.2877 -0.0202
 5883SOL    MW423306   5.518   1.092   1.248  0.7090  0.4700 -0.1185
 5884SOL     OW23307   5.291   2.416   2.282 -0.9538  0.0712 -0.2338
 5884SOL    HW223308   5.351   2.375   2.344  0.4096  0.7370 -1.0673
 5884SOL    HW323309   5.310   2.373   2.198 -3.7506 -1.8368 -0.0321
 5884SOL    MW423310   5.301   2.405   2.279 -1.1429 -0.0927 -0.3172
 5885SOL     OW23311   2.775   4.427   0.114  0.1273  0.4521  0.7174
 5885SOL    HW223312   2.804   4.349   0.162 -0.4210 -0.2755 -0.0979
 5885SOL    HW323313   2.695   4.455   0.159 -1.0135 -0.8839 -0.3757
 5885SOL    MW423314   2.768   4.420   0.126 -0.0956  0.1799  0.4656
 5886SOL     OW23315   3.595   4.825   1.202 -0.3817 -0.7878  0.0841
 5886SOL    HW223316   3.514   4.809   1.250 -1.7030  1.1354 -1.3882
 5886SOL    HW323317   3.569   4.830   1.110  1.3301  0.2762 -0.3960
 5886SOL    MW423318   3.581   4.823   1.196 -0.3302 -0.3937 -0.1735
 5887SOL     OW23319   1.462   0.376   3.799  0.3338 -0.0741  0.2426
 5887SOL    HW223320   1.465   0.432   3.877 -2.8961  0.1370  0.3688
 5887SOL    HW323321   1.495   0.291   3.830 -0.6351  0.0750  1.8295
 5887SOL    MW423322   1.467   0.372   3.813 -0.2202 -0.0265  0.4686
 5888SOL     OW23323   6.227   2.517   6.252 -0.4255 -0.5439  0.4557
 5888SOL    HW223324   6.205   2.425   6.234  1.6423 -0.9362 -0.3196
 5888SOL    HW323325   6.294   2.539   6.188 -1.8119  1.9842 -0.2754
 5888SOL    MW423326   6.233   2.508   6.241 -0.3356 -0.2621  0.2570
 5889SOL     OW23327   3.808   1.582   5.890 -0.2396  0.3401 -0.1026
 5889SOL    HW223328   3.818   1.502   5.839 -2.2298 -0.3116  0.4297
 5889SOL    HW323329   3.715   1.603   5.883 -0.5185  0.4996  2.8271
 5889SOL    MW423330   3.797   1.574   5.882 -0.5390  0.2752  0.3542
 5890SOL     OW23331   5.026   4.813   5.431  0.1200  0.3475 -0.0050
 5890SOL    HW223332   5.046   4.732   5.478  1.2289  0.6631  0.0865
 5890SOL    HW323333   4.939   4.798   5.394  0.3232 -0.9003 -0.0189
 5890SOL    MW423334   5.017   4.800   5.432  0.2931  0.2245  0.0053
 5891SOL     OW23335   5.471   0.581   0.977  0.0311  0.4297 -0.1768
 5891SOL    HW223336   5.549   0.551   0.929 -0.2863 -0.7327 -0.0019
 5891SOL    HW323337   5.505   0.640   1.043  1.0457 -1.5727  1.1880
 5891SOL    MW423338   5.486   0.585   0.979  0.1231  0.0122  0.0264
 5892SOL     OW23339   0.783   3.512   0.460  0.0196 -0.0669  0.3036
 5892SOL    HW223340   0.878   3.529   0.459 -0.0417  0.2644 -0.7585
 5892SOL    HW323341   0.772   3.433   0.408 -0.4675  0.9689 -1.2200
 5892SOL    MW423342   0.794   3.503   0.453 -0.0528  0.1135 -0.0375
 5893SOL     OW23343   0.564   6.126   3.694 -0.2986  0.0871  0.1797
 5893SOL    HW223344   0.553   6.209   3.740  2.9777  0.0316  1.3854
 5893SOL    HW323345   0.521   6.061   3.750  1.0057  0.4400  1.6675
 5893SOL    MW423346   0.557   6.128   3.708  0.3057  0.1263  0.5351
 5894SOL     OW23347   2.820   3.294   1.139 -0.4674  0.2733  0.4230
 5894SOL    HW223348   2.892   3.316   1.081 -0.8039  0.8629  0.2276
 5894SOL    HW323349   2.857   3.303   1.227 -0.1399 -0.0057  0.3181
 5894SOL    MW423350   2.835   3.298   1.143 -0.4686  0.3142  0.3834
 5895SOL     OW23351   4.316   3.662   4.608 -0.1191 -0.4301  0.1517
 5895SOL    HW223352   4.377   3.718   4.657  0.9600 -0.1490 -1.4413
 5895SOL    HW323353   4.372   3.594   4.570 -1.2682 -2.0143  1.1756
 5895SOL    MW423354   4.332   3.661   4.610 -0.1283 -0.6020  0.0766
 5896SOL     OW23355   1.106   5.458   0.984 -0.4632  0.3465 -0.1722
 5896SOL    HW223356   1.136   5.417   0.903  0.0435 -1.0029  0.6624
 5896SOL    HW323357   1.022   5.415   1.003  0.3962 -0.8517  1.0683
 5896SOL    MW423358   1.099   5.447   0.976 -0.2829  0.0104  0.1016
 5897SOL     OW23359   4.014   2.513   0.374 -0.0954  0.6476  0.0532
 5897SOL    HW223360   4.059   2.597   0.382 -0.6880  0.7965  2.3241
 5897SOL    HW323361   3.991   2.507   0.281  1.3688  2.2280 -0.4635
 5897SOL    MW423362   4.017   2.523   0.363  0.0196  0.8757  0.2847
 5898SOL     OW23363   1.731   1.232   2.505 -0.4262  0.5142 -0.0284
 5898SOL    HW223364   1.796   1.302   2.500  1.2481 -1.0093 -0.5346
 5898SOL    HW323365   1.648   1.278   2.515  0.5056  2.5978 -1.1219
 5898SOL    MW423366   1.729   1.248   2.506 -0.0823  0.5881 -0.2395
 5899SOL     OW23367   3.117   4.645   1.539 -0.0698 -0.1879 -0.7068
 5899SOL    HW223368   3.177   4.719   1.552 -1.4035  0.9708 -0.8901
 5899SOL    HW323369   3.036   4.685   1.508 -0.1707 -1.9314 -2.9697
 5899SOL    MW423370   3.114   4.660   1.537 -0.2591 -0.2651 -1.0296
 5900SOL     OW23371   0.673   4.328   2.865  0.0522 -0.4627 -0.2464
 5900SOL    HW223372   0.647   4.409   2.822 -0.3204 -1.4113 -1.9222
 5900SOL    HW323373   0.769   4.326   2.858 -0.0086 -0.6290 -1.1146
 5900SOL    MW423374   0.682   4.338   2.858 -0.0050 -0.6098 -0.5821
 5901SOL     OW23375   2.110   0.745   1.394  0.3833  0.2609  0.0970
 5901SOL    HW223376   2.062   0.746   1.311  0.5894  3.1794 -0.0908
 5901SOL    HW323377   2.154   0.660   1.396 -1.5892 -0.8695 -1.5872
 5901SOL    MW423378   2.110   0.734   1.383  0.1502  0.4969 -0.1500
 5902SOL     OW23379   3.539   0.947   6.029 -0.0537  0.3041  0.3241
 5902SOL    HW223380   3.526   0.853   6.015  0.0632  0.2030  0.8810
 5902SOL    HW323381   3.469   0.972   6.090 -0.6214  0.7623 -0.4847
 5902SOL    MW423382   3.528   0.938   6.035 -0.1131  0.3512  0.2909
 5903SOL     OW23383   4.612   0.078   1.856  0.0440 -0.4724 -0.5924
 5903SOL    HW223384   4.659   0.010   1.809  1.0385  0.3620 -0.8397
 5903SOL    HW323385   4.608   0.152   1.795 -0.7782 -0.2064 -0.2356
 5903SOL    MW423386   4.618   0.079   1.842  0.0668 -0.3272 -0.5780
 5904SOL     OW23387   0.077   1.851   1.913  0.0524  0.2346 -0.0468
 5904SOL    HW223388   0.078   1.929   1.969 -1.2749  0.3771 -0.1999
 5904SOL    HW323389   0.111   1.881   1.829  0.7475  0.3371  0.2588
 5904SOL    MW423390   0.082   1.865   1.909 -0.0310  0.2670 -0.0267
 5905SOL     OW23391   4.225   4.850   0.787 -0.8790  0.4007  0.4644
 5905SOL    HW223392   4.256   4.850   0.697  0.3135  2.2875  0.8398
 5905SOL    HW323393   4.201   4.758   0.804  2.7977 -0.8773 -0.4531
 5905SOL    MW423394   4.226   4.838   0.777 -0.2366  0.4810  0.3929
 5906SOL     OW23395   2.826   4.551   3.731  0.1100  0.0482 -0.4951
 5906SOL    HW223396   2.889   4.597   3.787 -0.4477 -0.6274  0.7141
 5906SOL    HW323397   2.740   4.577   3.765 -0.2342 -2.0005  0.3891
 5906SOL    MW423398   2.823   4.561   3.743 -0.0090 -0.3113 -0.2189
 5907SOL     OW23399   2.296   2.976   5.627  0.1268  0.1718 -0.4657
 5907SOL    HW223400   2.207   2.944   5.615  0.3474 -0.5794 -0.1363
 5907SOL    HW323401   2.320   2.948   5.716  0.6190  0.5481 -0.4752
 5907SOL    MW423402   2.288   2.968   5.637  0.2209  0.1223 -0.4235
 5908SOL     OW23403   2.168   6.063   5.195  0.6947 -0.3097  0.0575
 5908SOL    HW223404   2.226   5.987   5.196 -0.0077 -0.8820 -0.9420
 5908SOL    HW323405   2.121   6.059   5.279 -0.1282 -1.6376 -0.4229
 5908SOL    MW423406   2.169   6.053   5.206  0.4935 -0.5604 -0.1378
 5909SOL     OW23407   2.366   5.162   1.087 -0.1932 -1.4733  0.3442
 5909SOL    HW223408   2.353   5.087   1.146  1.4032 -0.4533  2.1341
 5909SOL    HW323409   2.455   5.150   1.054 -0.2314 -0.7997 -0.0000
 5909SOL    MW423410   2.376   5.150   1.091  0.0124 -1.2499  0.5349
 5910SOL     OW23411   3.078   3.742   3.684 -1.1961  0.0336  0.3230
 5910SOL    HW223412   3.034   3.792   3.753 -1.2009  0.6265 -0.1075
 5910SOL    HW323413   3.162   3.716   3.723 -0.3435  2.0012 -0.0618
 5910SOL    MW423414   3.083   3.745   3.698 -1.0843  0.3714  0.2154
 5911SOL     OW23415   3.237   3.577   1.244 -0.7939  0.1171  0.4910
 5911SOL    HW223416   3.332   3.586   1.238 -0.5888 -1.9946 -0.4289
 5911SOL    HW323417   3.202   3.644   1.186  0.0789  1.4846  1.5031
 5911SOL    MW423418   3.245   3.587   1.235 -0.6517  0.0189  0.5031
 5912SOL     OW23419   3.537   5.542   0.493  0.3346 -0.4883 -0.0999
 5912SOL    HW223420   3.578   5.476   0.436  0.0090  0.2334 -1.2080
 5912SOL    HW323421   3.479   5.492   0.549  1.2468 -1.3087  0.1456
 5912SOL    MW423422   3.535   5.527   0.493  0.4120 -0.5013 -0.2137
 5913SOL     OW23423   3.309   5.306   4.052  0.6773  0.4987 -0.3726
 5913SOL    HW223424   3.388   5.337   4.095  0.4143 -0.6530  1.0276
 5913SOL    HW323425   3.252   5.383   4.047  0.4672  0.5564  1.9937
 5913SOL    MW423426   3.312   5.320   4.057  0.6149  0.3544  0.1244
 5914SOL     OW23427   2.820   4.343   1.003  0.5653 -0.2535  0.3230
 5914SOL    HW223428   2.778   4.427   0.985 -1.1337 -0.9375  0.8845
 5914SOL    HW323429   2.913   4.361   0.994  0.2425  1.6550  0.2612
 5914SOL    MW423430   2.827   4.357   1.000  0.2985 -0.0919  0.3889
 5915SOL     OW23431   5.193   2.916   0.877 -0.0819 -0.3243  0.0424
 5915SOL    HW223432   5.229   2.893   0.963  2.9645 -0.2317 -1.0567
 5915SOL    HW323433   5.210   2.839   0.823  3.0075  1.3729 -1.6903
 5915SOL    MW423434   5.200   2.903   0.881  0.7277 -0.0881 -0.3313
 5916SOL     OW23435   2.653   4.217   5.127  0.3437 -0.4275  0.1200
 5916SOL    HW223436   2.630   4.289   5.186  2.6274  1.0683 -0.6611
 5916SOL    HW323437   2.593   4.226   5.053  0.5399  0.6456  0.0771
 5916SOL    MW423438   2.642   4.228   5.125  0.6709 -0.0886  0.0113
 5917SOL     OW23439   5.039   2.806   2.619  0.6355  0.1697 -0.2673
 5917SOL    HW223440   5.102   2.878   2.620  0.5419  0.2565 -0.4706
 5917SOL    HW323441   5.092   2.727   2.610  0.7301  0.2242 -0.1840
 5917SOL    MW423442   5.054   2.805   2.618  0.6356  0.1883 -0.2831
 5918SOL     OW23443   4.499   6.308   5.045 -0.2205  0.0141  0.0029
 5918SOL    HW223444   4.570   6.248   5.066 -0.1272  0.4001  0.8181
 5918SOL    HW323445   4.466   6.337   5.130 -0.1763  1.2088 -0.3723
 5918SOL    MW423446   4.504   6.304   5.059 -0.2024  0.2226  0.0610
 5919SOL     OW23447   4.158   4.549   0.259 -0.0671 -0.0620  0.2712
 5919SOL    HW223448   4.104   4.626   0.246 -0.2968 -0.1179  0.8600
 5919SOL    HW323449   4.199   4.534   0.174  1.4581  1.8074  0.6167
 5919SOL    MW423450   4.156   4.557   0.246  0.1038  0.1772  0.3944
 5920SOL     OW23451   3.867   5.371   0.628 -0.4803  0.2255 -0.4199
 5920SOL    HW223452   3.797   5.306   0.629  0.3764 -0.7180  0.1052
 5920SOL    HW323453   3.948   5.320   0.636  0.1540  1.4188  1.9873
 5920SOL    MW423454   3.869   5.356   0.629 -0.2836  0.2585 -0.0330
 5921SOL     OW23455   4.479   1.387   5.069 -1.0094 -0.1062 -0.3421
 5921SOL    HW223456   4.473   1.471   5.114  1.2376  1.4404 -2.6928
 5921SOL    HW323457   4.518   1.328   5.133  0.8906  1.6572  0.2095
 5921SOL    MW423458   4.483   1.390   5.083 -0.4622  0.3305 -0.5794
 5922SOL     OW23459   4.314   2.875   0.106 -0.7298 -0.2223 -0.2482
 5922SOL    HW223460   4.237   2.923   0.134 -0.3942  0.5448 -0.6164
 5922SOL    HW323461   4.324   2.805   0.170  0.4431  1.8976  2.0229
 5922SOL    MW423462   4.305   2.872   0.118 -0.5308  0.1586  0.0028
 5923SOL     OW23463   1.258   4.315   3.853 -0.0482  0.4581 -0.1082
 5923SOL    HW223464   1.343   4.276   3.873 -0.7200 -1.1962 -0.3271
 5923SOL    HW323465   1.278   4.406   3.830  1.4687  0.5383  1.3690
 5923SOL    MW423466   1.272   4.322   3.852  0.0633  0.2504  0.0578
 5924SOL     OW23467   6.110   1.770   3.852  0.5189 -0.1840  0.3397
 5924SOL    HW223468   6.027   1.767   3.898  0.8249  0.4801  0.9559
 5924SOL    HW323469   6.101   1.843   3.791  0.2606 -0.8065 -0.3801
 5924SOL    MW423470   6.098   1.779   3.850  0.5252 -0.1785  0.3260
 5925SOL     OW23471   6.373   4.981   2.737  0.2002 -0.3939 -0.6031
 5925SOL    HW223472   6.329   5.030   2.806 -0.4058 -0.4370 -0.9578
 5925SOL    HW323473   6.392   4.896   2.777 -0.9506 -0.7391 -0.7541
 5925SOL    MW423474   6.370   4.976   2.751 -0.0316 -0.4451 -0.6698
 5926SOL     OW23475   5.306   1.386   3.004 -0.2856 -0.2198 -0.5791
 5926SOL    HW223476   5.354   1.348   3.077  1.0918  1.6054 -0.4947
 5926SOL    HW323477   5.219   1.346   3.010 -0.4728  0.4382  2.5115
 5926SOL    MW423478   5.301   1.375   3.014 -0.1286  0.1078 -0.1602
 5927SOL     OW23479   1.952   5.475   0.123  0.1915  0.2569 -0.4579
 5927SOL    HW223480   1.968   5.393   0.169  0.3430 -0.5952 -1.9860
 5927SOL    HW323481   2.036   5.521   0.125  0.7589 -0.6686 -1.5683
 5927SOL    MW423482   1.965   5.470   0.129  0.2863  0.0223 -0.8060
 5928SOL     OW23483   1.958   0.772   1.798 -0.1579  0.2141  0.5060
 5928SOL    HW223484   1.921   0.739   1.717 -0.6593 -0.2118  0.9039
 5928SOL    HW323485   1.928   0.863   1.803  0.2373  0.3789  0.0045
 5928SOL    MW423486   1.949   0.780   1.788 -0.1719  0.1797  0.4924
 5929SOL     OW23487   3.330   1.014   3.767  0.0692  0.2568 -0.1628
 5929SOL    HW223488   3.387   1.074   3.719 -0.6696  1.4426  0.3941
 5929SOL    HW323489   3.314   1.058   3.850 -0.4565 -0.7445  0.2824
 5929SOL    MW423490   3.335   1.028   3.772 -0.0976  0.2812 -0.0306
 5930SOL     OW23491   5.081   2.537   0.326  0.2028 -0.0075  0.5673
 5930SOL    HW223492   5.175   2.537   0.342  0.1869 -0.0385  0.6626
 5930SOL    HW323493   5.072   2.563   0.234  0.2695  0.6975  0.7515
 5930SOL    MW423494   5.092   2.541   0.316  0.2095  0.0814  0.6042
 5931SOL     OW23495   0.414   4.930   0.328  0.1423 -0.2684 -0.4130
 5931SOL    HW223496   0.430   4.936   0.422 -1.7316 -0.3417 -0.0488
 5931SOL    HW323497   0.451   4.846   0.303  0.0047 -0.5889  0.4201
 5931SOL    MW423498   0.421   4.920   0.337 -0.1231 -0.3204 -0.2550
 5932SOL     OW23499   2.929   6.145   4.908 -0.1116  0.2026 -0.1139
 5932SOL    HW223500   2.929   6.131   4.813  0.5993  0.0892 -0.0986
 5932SOL    HW323501   2.839   6.128   4.934 -0.2690  0.0400 -0.7414
 5932SOL    MW423502   2.917   6.141   4.899 -0.0386  0.1662 -0.1947
 5933SOL     OW23503   2.682   2.927   4.873  0.7082 -0.1686  0.4031
 5933SOL    HW223504   2.687   3.020   4.852  0.9938 -0.0006  1.1759
 5933SOL    HW323505   2.619   2.891   4.811  1.4993  0.3050 -0.7067
 5933SOL    MW423506   2.674   2.934   4.862  0.8503 -0.0840  0.3586
 5934SOL     OW23507   3.937   4.555   5.407 -0.0982 -0.1355 -0.2520
 5934SOL    HW223508   3.933   4.527   5.499 -1.7240 -0.0128 -0.2443
 5934SOL    HW323509   3.945   4.650   5.411 -2.2569  0.1008 -0.1598
 5934SOL    MW423510   3.937   4.564   5.420 -0.5975 -0.0881 -0.2388
 5935SOL     OW23511   3.541   0.024   4.236  0.6185 -0.3897 -0.3254
 5935SOL    HW223512   3.482  -0.048   4.213  0.8104 -0.7746  0.3342
 5935SOL    HW323513   3.530   0.088   4.166 -1.1197 -0.1254  0.1254
 5935SOL    MW423514   3.532   0.023   4.224  0.4145 -0.4056 -0.1789
 5936SOL     OW23515   5.077   4.107   4.323  0.2733  0.1944  0.1621
 5936SOL    HW223516   4.989   4.075   4.338  0.6580 -1.2900 -0.6060
 5936SOL    HW323517   5.065   4.194   4.284 -0.8106  0.5128  1.1670
 5936SOL    MW423518   5.064   4.114   4.320  0.1811  0.0405  0.1933
 5937SOL     OW23519   0.687   5.681   6.254  0.7967  0.3726  0.0034
 5937SOL    HW223520   0.634   5.725   6.320  1.4633  0.6676  0.3466
 5937SOL    HW323521   0.659   5.589   6.257 -0.7200  0.7719 -0.8323
 5937SOL    MW423522   0.676   5.675   6.263  0.6845  0.4642 -0.0616
 5938SOL     OW23523   1.969   2.050   5.864 -0.7964 -0.6066  0.3705
 5938SOL    HW223524   1.994   2.095   5.946 -0.2430 -2.1446  1.0818
 5938SOL    HW323525   1.982   1.957   5.883 -1.0116 -1.0175 -1.3678
 5938SOL    MW423526   1.974   2.044   5.878 -0.7518 -0.8637  0.2350
 5939SOL     OW23527   2.631   0.563   4.456  0.2183 -0.6435  0.3152
 5939SOL    HW223528   2.644   0.564   4.361  0.5223 -2.7082  0.3110
 5939SOL    HW323529   2.716   0.588   4.492 -0.1981  1.3179  0.0862
 5939SOL    MW423530   2.644   0.567   4.448  0.2035 -0.6571  0.2844
 5940SOL     OW23531   4.265   2.888   4.694 -0.1714  0.1845  0.0692
 5940SOL    HW223532   4.291   2.916   4.782  0.6332 -0.2858 -0.0126
 5940SOL    HW323533   4.248   2.969   4.647 -1.1005  0.4358  0.7942
 5940SOL    MW423534   4.266   2.902   4.699 -0.1878  0.1556  0.1541
 5941SOL     OW23535   2.285   4.116   6.366  0.7039 -0.7334  0.1973
 5941SOL    HW223536   2.212   4.083   6.314  0.4315  0.9377 -0.5426
 5941SOL    HW323537   2.336   4.038   6.388 -1.4685 -1.9896  1.0646
 5941SOL    MW423538   2.282   4.102   6.362  0.3813 -0.6786  0.2141
 5942SOL     OW23539   1.302   2.204   6.359  0.0226  0.2453 -0.3757
 5942SOL    HW223540   1.224   2.254   6.382  0.4200  1.1381 -0.9308
 5942SOL    HW323541   1.269   2.129   6.308 -0.4606  0.6556 -0.6732
 5942SOL    MW423542   1.287   2.200   6.355  0.0113  0.4172 -0.4882
 5943SOL     OW23543   0.932   1.736   5.557  0.3634  0.2834  0.3988
 5943SOL    HW223544   0.991   1.801   5.520 -2.5578  1.2134 -3.1383
 5943SOL    HW323545   0.844   1.770   5.541 -1.2652 -2.8268  1.7610
 5943SOL    MW423546   0.928   1.749   5.550 -0.2369 -0.0043  0.1118
 5944SOL     OW23547   0.753   1.482   5.145 -0.0667  0.4360  0.5436
 5944SOL    HW223548   0.736   1.544   5.215  2.7876  0.9895  0.8322
 5944SOL    HW323549   0.749   1.535   5.065 -0.4324  0.3906  0.5286
 5944SOL    MW423550   0.750   1.497   5.143  0.2616  0.5030  0.5797
 5945SOL     OW23551   0.378   1.381   6.068  0.9451 -0.4615 -0.2564
 5945SOL    HW223552   0.466   1.351   6.092  1.3127  0.7884  0.0150
 5945SOL    HW323553   0.391   1.469   6.035  0.0669 -1.0610 -2.3757
 5945SOL    MW423554   0.391   1.388   6.067  0.8778 -0.3757 -0.5002
 5946SOL     OW23555   2.478   2.080   3.691  0.4365  0.0613 -0.4754
 5946SOL    HW223556   2.522   2.163   3.708 -1.7757  1.2216 -0.0572
 5946SOL    HW323557   2.449   2.087   3.600 -0.1159 -0.0691 -0.3119
 5946SOL    MW423558   2.480   2.092   3.681  0.0717  0.1972 -0.3987
 5947SOL     OW23559   0.652   5.130   2.522  0.4163  0.4387 -0.3827
 5947SOL    HW223560   0.700   5.147   2.604  1.1309  1.3232 -0.9661
 5947SOL    HW323561   0.705   5.171   2.454  0.1570 -0.8335 -1.3893
 5947SOL    MW423562   0.665   5.138   2.524  0.4764  0.3876 -0.5924
 5948SOL     OW23563   2.052   5.725   6.089 -0.4323  0.8972  0.6060
 5948SOL    HW223564   2.027   5.663   6.158 -1.1094  0.9883  0.4523
 5948SOL    HW323565   2.140   5.699   6.063 -1.6349 -1.6695 -1.2884
 5948SOL    MW423566   2.060   5.714   6.095 -0.6803  0.5706  0.3358
 5949SOL     OW23567   3.571   1.359   4.237  0.3107  0.7190 -0.6204
 5949SOL    HW223568   3.645   1.305   4.264  0.2420  0.6951 -0.4774
 5949SOL    HW323569   3.588   1.445   4.275 -0.6659  0.2233  1.0241
 5949SOL    MW423570   3.583   1.363   4.245  0.1728  0.6504 -0.3845
 5950SOL     OW23571   1.569   1.843   5.080  0.3878  0.2256  0.0348
 5950SOL    HW223572   1.490   1.848   5.133 -0.4972  0.1849 -1.2351
 5950SOL    HW323573   1.612   1.763   5.107  0.4160  0.6519  1.2980
 5950SOL    MW423574   1.564   1.833   5.090  0.2747  0.2765  0.0339
 5951SOL     OW23575   0.635   3.175   6.376 -0.1512 -0.0280  0.3673
 5951SOL    HW223576   0.580   3.134   6.309  0.3259  1.0326 -0.7239
 5951SOL    HW323577   0.573   3.216   6.436 -0.5933  0.2597 -0.2679
 5951SOL    MW423578   0.619   3.175   6.375 -0.1466  0.1499  0.1396
 5952SOL     OW23579   0.645   0.061   5.465 -0.8163 -0.9151 -0.2112
 5952SOL    HW223580   0.728   0.014   5.465 -0.5672 -0.5268 -1.8259
 5952SOL    HW323581   0.638   0.097   5.377 -0.5977  2.7883  1.1058
 5952SOL    MW423582   0.655   0.060   5.453 -0.7546 -0.3753 -0.2505
 5953SOL     OW23583   4.900   0.368   0.863  0.3827 -0.3182 -0.5262
 5953SOL    HW223584   4.808   0.391   0.853 -0.2319 -1.7127  1.2498
 5953SOL    HW323585   4.936   0.368   0.775 -1.0141  1.3655 -1.1441
 5953SOL    MW423586   4.893   0.371   0.850  0.1173 -0.2800 -0.3734
 5954SOL     OW23587   5.028   5.984   4.153 -0.0008 -0.0343  0.3038
 5954SOL    HW223588   4.976   5.988   4.233  0.3241  0.5920  0.4935
 5954SOL    HW323589   4.968   5.953   4.086 -0.2114 -0.8076  0.8413
 5954SOL    MW423590   5.014   5.981   4.154  0.0143 -0.0537  0.3998
 5955SOL     OW23591   1.593   0.986   5.954  0.7747 -0.2034 -0.5689
 5955SOL    HW223592   1.545   1.058   5.913 -2.8817 -1.5139  1.0148
 5955SOL    HW323593   1.654   1.028   6.013 -0.9357  1.6677 -0.0286
 5955SOL    MW423594   1.594   1.001   5.956  0.0666 -0.1294 -0.2887
 5956SOL     OW23595   3.870   5.910   3.454  0.2600 -0.4740 -0.0520
 5956SOL    HW223596   3.913   5.929   3.370  0.3118 -0.0434  0.0684
 5956SOL    HW323597   3.835   5.994   3.482 -0.4961 -0.7809 -0.0473
 5956SOL    MW423598   3.871   5.923   3.446  0.1671 -0.4577 -0.0355
 5957SOL     OW23599   5.723   1.935   5.590  0.1021 -0.1274 -0.0182
 5957SOL    HW223600   5.671   1.989   5.530 -1.4417 -3.6012 -2.1478
 5957SOL    HW323601   5.812   1.941   5.557 -0.4227 -0.5241 -1.6030
 5957SOL    MW423602   5.728   1.943   5.578 -0.1708 -0.6380 -0.5083
 5958SOL     OW23603   0.553   0.071   5.874 -0.0967  0.0532 -0.3428
 5958SOL    HW223604   0.624   0.123   5.836  1.3725 -0.3444  1.6373
 5958SOL    HW323605   0.519   0.019   5.802  2.1894 -0.3066 -1.2538
 5958SOL    MW423606   0.558   0.071   5.860  0.3988 -0.0467 -0.2017
 5959SOL     OW23607   1.188   2.077   2.909 -0.0230  0.2336  0.3099
 5959SOL    HW223608   1.240   2.102   2.986  0.3263  1.8184 -0.3976
 5959SOL    HW323609   1.252   2.048   2.845 -0.3457 -1.4623  0.7100
 5959SOL    MW423610   1.203   2.077   2.911 -0.0195  0.2190  0.2694
 5960SOL     OW23611   4.273   4.559   5.138  0.0745  0.1581 -0.0913
 5960SOL    HW223612   4.282   4.465   5.123  1.1665  0.3141 -0.5018
 5960SOL    HW323613   4.351   4.597   5.099 -1.1413  1.4111 -1.4020
 5960SOL    MW423614   4.284   4.552   5.131  0.0582  0.3440 -0.3184
 5961SOL     OW23615   4.613   3.904   6.221 -0.0841  0.2360  0.4110
 5961SOL    HW223616   4.536   3.924   6.274  0.0049  1.1217  0.2234
 5961SOL    HW323617   4.615   3.808   6.215 -0.6617  0.1735  1.1605
 5961SOL    MW423618   4.603   3.894   6.227 -0.1486  0.3446  0.4851
 5962SOL     OW23619   3.121   6.054   3.072  0.2527  0.2706 -0.3941
 5962SOL    HW223620   3.044   6.108   3.085 -0.1296 -0.3106 -0.2042
 5962SOL    HW323621   3.180   6.108   3.020 -0.6810  0.3433 -1.4039
 5962SOL    MW423622   3.119   6.068   3.067  0.0790  0.2035 -0.5022
 5963SOL     OW23623   3.339   3.577   2.177  0.0039  0.4439  0.0691
 5963SOL    HW223624   3.333   3.626   2.094 -0.0583 -1.4824 -1.1295
 5963SOL    HW323625   3.278   3.621   2.236 -2.3647  0.0247 -1.9183
 5963SOL    MW423626   3.331   3.590   2.174 -0.3168  0.1344 -0.3512
 5964SOL     OW23627   5.523   3.070   4.350 -0.4029  0.0226  0.8487
 5964SOL    HW223628   5.573   3.021   4.284  1.8436  0.9568  1.7763
 5964SOL    HW323629   5.438   3.086   4.308  0.8510  0.4124 -1.7645
 5964SOL    MW423630   5.519   3.065   4.336  0.0590  0.1973  0.6263
 5965SOL     OW23631   4.275   2.352   0.905  0.1114 -0.2382  0.0397
 5965SOL    HW223632   4.364   2.387   0.894 -0.5561  2.2344  1.6615
 5965SOL    HW323633   4.223   2.397   0.839 -0.1460 -0.9147 -0.2272
 5965SOL    MW423634   4.280   2.362   0.895 -0.0106 -0.0012  0.2185
 5966SOL     OW23635   0.832   2.898   0.558  0.0098 -0.0152  0.2112
 5966SOL    HW223636   0.853   2.809   0.588 -1.7841 -1.1706 -1.6356
 5966SOL    HW323637   0.768   2.930   0.622 -2.1747 -1.6079 -1.0342
 5966SOL    MW423638   0.826   2.890   0.571 -0.5151 -0.3778 -0.1968
 5967SOL     OW23639   1.700   1.783   0.859  0.0618 -0.1705 -0.0346
 5967SOL    HW223640   1.616   1.802   0.901  0.0960  1.0474 -0.4745
 5967SOL    HW323641   1.765   1.804   0.925  0.0851  1.0347 -0.4082
 5967SOL    MW423642   1.697   1.788   0.873  0.0694  0.1492 -0.1419
 5968SOL     OW23643   4.617   1.158   4.043 -0.3627  0.3028 -0.6353
 5968SOL    HW223644   4.555   1.202   3.983 -1.2791 -1.8150 -1.3402
 5968SOL    HW323645   4.565   1.142   4.122  0.8010  2.9458  0.7996
 5968SOL    MW423646   4.602   1.162   4.045 -0.3301  0.3721 -0.5390
 5969SOL     OW23647   4.682   5.562   6.271 -0.5707  0.5714 -0.2144
 5969SOL    HW223648   4.643   5.591   6.354 -0.1476  0.4457  0.0285
 5969SOL    HW323649   4.633   5.610   6.204 -2.0068 -0.5288  0.0072
 5969SOL    MW423650   4.670   5.573   6.273 -0.7043  0.4097 -0.1531
 5970SOL     OW23651   0.131   4.656   5.175 -0.5758  0.0878  0.4220
 5970SOL    HW223652   0.060   4.719   5.165 -0.1652  0.7000  1.2484
 5970SOL    HW323653   0.202   4.705   5.216  1.3370  0.2266 -2.7005
 5970SOL    MW423654   0.131   4.671   5.179 -0.2693  0.1869  0.1191
 5971SOL     OW23655   1.606   2.621   3.054  0.3924  0.3156  0.5355
 5971SOL    HW223656   1.690   2.623   3.102  0.2995  0.8093  0.6790
 5971SOL    HW323657   1.605   2.702   3.004  0.3500 -0.0620 -0.0788
 5971SOL    MW423658   1.617   2.632   3.054  0.3745  0.3309  0.4734
 5972SOL     OW23659   4.114   2.803   2.729  0.6116  0.2374 -0.0187
 5972SOL    HW223660   4.099   2.854   2.650  0.1113  1.5518  0.8921
 5972SOL    HW323661   4.028   2.792   2.768  0.7071 -1.3076 -0.1494
 5972SOL    MW423662   4.101   2.808   2.724  0.5582  0.2070  0.0842
 5973SOL     OW23663   6.012   2.834   0.959 -0.1553 -0.3025 -0.1726
 5973SOL    HW223664   5.963   2.837   0.877 -1.7374 -2.7686  0.5870
 5973SOL    HW323665   6.103   2.841   0.933 -0.5605 -1.9701 -2.2513
 5973SOL    MW423666   6.017   2.836   0.945 -0.4175 -0.8479 -0.3466
 5974SOL     OW23667   4.901   1.819   1.162 -0.4558  0.5548 -0.0517
 5974SOL    HW223668   4.984   1.841   1.119 -0.4389  0.5612 -0.0169
 5974SOL    HW323669   4.881   1.897   1.214 -0.3715  0.4681  0.1102
 5974SOL    MW423670   4.910   1.832   1.163 -0.4424  0.5442 -0.0257
 5975SOL     OW23671   2.125   5.306   4.244 -0.1379  0.0014  0.1308
 5975SOL    HW223672   2.048   5.340   4.290  0.1230  0.2195  0.4097
 5975SOL    HW323673   2.144   5.222   4.287 -1.4296 -1.0683 -1.2534
 5975SOL    MW423674   2.117   5.299   4.256 -0.2739 -0.1109 -0.0150
 5976SOL     OW23675   1.320   2.899   3.746  0.2120 -0.3092  0.0898
 5976SOL    HW223676   1.368   2.831   3.793 -0.1778 -0.6815 -0.0395
 5976SOL    HW323677   1.281   2.853   3.671  2.3409  0.6025 -1.6849
 5976SOL    MW423678   1.321   2.884   3.742  0.4414 -0.2380 -0.1614
 5977SOL     OW23679   2.377   1.652   1.026  0.8711  0.1949 -0.2746
 5977SOL    HW223680   2.291   1.624   1.055 -0.1751  0.4816 -2.8539
 5977SOL    HW323681   2.389   1.739   1.065  0.1031  0.0552  0.2904
 5977SOL    MW423682   2.368   1.660   1.035  0.6317  0.2143 -0.5404
 5978SOL     OW23683   2.409   2.210   1.213  0.0198 -0.4505  0.3412
 5978SOL    HW223684   2.366   2.153   1.149 -1.8820  0.3422  0.8123
 5978SOL    HW323685   2.338   2.239   1.270  1.0474  1.6250  0.6835
 5978SOL    MW423686   2.394   2.207   1.212 -0.0956 -0.0721  0.4485
 5979SOL     OW23687   1.099   0.315   2.752  0.3638 -0.0521 -0.2818
 5979SOL    HW223688   1.046   0.350   2.680 -0.0059  0.4525  0.2296
 5979SOL    HW323689   1.190   0.322   2.720  0.2041  0.1671 -0.7002
 5979SOL    MW423690   1.104   0.321   2.738  0.2940  0.0434 -0.2696
 5980SOL     OW23691   2.091   0.335   0.786 -0.0967 -0.3998  0.2587
 5980SOL    HW223692   2.092   0.269   0.716  0.5662 -0.7782  0.6100
 5980SOL    HW323693   2.181   0.367   0.790 -1.0845  3.2942 -2.4186
 5980SOL    MW423694   2.103   0.330   0.777 -0.1395  0.0377 -0.0482
 5981SOL     OW23695   3.315   2.240   2.062 -0.0824 -0.0982  0.1978
 5981SOL    HW223696   3.363   2.159   2.042 -0.0720  0.1092 -0.6791
 5981SOL    HW323697   3.377   2.310   2.042 -0.1486  0.1373  0.7937
 5981SOL    MW423698   3.330   2.239   2.057 -0.0898 -0.0397  0.1607
 5982SOL     OW23699   4.773   5.406   3.764  0.2414  0.2570 -0.4026
 5982SOL    HW223700   4.688   5.422   3.723  0.9187 -0.9823 -2.4603
 5982SOL    HW323701   4.825   5.483   3.742  0.0239  0.4725 -0.1733
 5982SOL    MW423702   4.769   5.418   3.756  0.3021  0.1219 -0.6439
 5983SOL     OW23703   2.776   4.768   2.329 -0.0739 -0.4994  0.0840
 5983SOL    HW223704   2.702   4.714   2.302 -1.6828  1.8309 -0.4428
 5983SOL    HW323705   2.811   4.725   2.407 -2.5563 -1.1663  0.8957
 5983SOL    MW423706   2.771   4.755   2.335 -0.6137 -0.2800  0.1216
 5984SOL     OW23707   2.662   5.357   3.735  0.1303 -0.1396 -0.9274
 5984SOL    HW223708   2.575   5.325   3.713  0.1511 -0.0907 -1.0868
 5984SOL    HW323709   2.695   5.296   3.800  0.0722 -0.2969 -1.0448
 5984SOL    MW423710   2.655   5.345   3.740  0.1254 -0.1539 -0.9639
 5985SOL     OW23711   3.691   4.463   6.140 -0.3210  0.2138 -0.6865
 5985SOL    HW223712   3.611   4.488   6.094 -0.6640 -0.7391 -0.6323
 5985SOL    HW323713   3.760   4.515   6.100 -0.6697 -0.3194 -2.0248
 5985SOL    MW423714   3.690   4.473   6.129 -0.4123  0.0177 -0.8559
 5986SOL     OW23715   0.729   2.691   1.925 -0.1751  0.5017 -0.3405
 5986SOL    HW223716   0.678   2.610   1.932  1.1119 -0.3466 -0.5869
 5986SOL    HW323717   0.683   2.753   1.982 -0.7099 -0.6415  0.5061
 5986SOL    MW423718   0.716   2.688   1.934 -0.0759  0.2389 -0.2613
 5987SOL     OW23719   0.652   3.623   0.680 -0.0758  0.4249  0.4917
 5987SOL    HW223720   0.714   3.695   0.688 -0.3221  0.8457 -1.0974
 5987SOL    HW323721   0.677   3.578   0.599 -0.0648 -1.1600  1.3329
 5987SOL    MW423722   0.664   3.626   0.670 -0.1069  0.2713  0.3930
 5988SOL     OW23723   2.216   2.239   2.104  0.6251  0.5129 -0.3096
 5988SOL    HW223724   2.277   2.310   2.121  0.9038  0.0968  0.4890
 5988SOL    HW323725   2.186   2.254   2.015  0.1622  2.0085  0.0666
 5988SOL    MW423726   2.220   2.250   2.095  0.6008  0.6553 -0.1546
 5989SOL     OW23727   6.004   3.372   5.895 -0.3302 -0.0401 -0.2866
 5989SOL    HW223728   6.041   3.349   5.810  0.9871 -0.2105  0.3089
 5989SOL    HW323729   5.919   3.326   5.898 -1.0448  1.0673 -2.0342
 5989SOL    MW423730   5.997   3.363   5.885 -0.2507  0.0835 -0.4386
 5990SOL     OW23731   0.879   1.687   0.555  0.2364  0.0747 -0.0557
 5990SOL    HW223732   0.839   1.652   0.635 -1.4505 -1.0770 -1.3543
 5990SOL    HW323733   0.957   1.633   0.541 -0.9196 -1.5274 -0.6069
 5990SOL    MW423734   0.884   1.676   0.564 -0.1386 -0.2886 -0.2998
 5991SOL     OW23735   4.916   1.601   5.122 -0.0608 -0.0063 -0.0178
 5991SOL    HW223736   4.966   1.642   5.051  1.3050 -1.5300 -0.0045
 5991SOL    HW323737   4.983   1.571   5.184 -1.0927 -0.7238  0.7774
 5991SOL    MW423738   4.932   1.602   5.121 -0.0168 -0.3020  0.0889
 5992SOL     OW23739   1.808   4.630   0.732  0.1937 -0.4621 -0.0338
 5992SOL    HW223740   1.744   4.559   0.740 -0.3712  0.0379 -0.0156
 5992SOL    HW323741   1.755   4.709   0.724  0.8154  0.1196  1.3388
 5992SOL    MW423742   1.793   4.631   0.732  0.2012 -0.3194  0.1497
 5993SOL     OW23743   2.125   6.067   0.151 -0.6724 -0.0684 -0.0537
 5993SOL    HW223744   2.136   6.045   0.058  0.9922 -1.4556  0.4221
 5993SOL    HW323745   2.128   5.983   0.196 -2.4315  0.4975  1.2235
 5993SOL    MW423746   2.127   6.053   0.144 -0.6849 -0.1768  0.1776
 5994SOL     OW23747   4.862   0.223   4.269 -0.3700 -0.1449  0.1325
 5994SOL    HW223748   4.850   0.180   4.184 -0.4909  1.8790 -0.9356
 5994SOL    HW323749   4.949   0.263   4.264 -0.6013  0.4491  0.7275
 5994SOL    MW423750   4.872   0.223   4.257 -0.4165  0.2005  0.0701
 5995SOL     OW23751   3.637   5.438   3.367 -0.2723  0.1699  0.5163
 5995SOL    HW223752   3.604   5.427   3.277 -0.2051  1.0143  0.3807
 5995SOL    HW323753   3.560   5.461   3.418 -0.7020 -2.3570  1.1075
 5995SOL    MW423754   3.623   5.440   3.362 -0.3201 -0.0521  0.5764
 5996SOL     OW23755   3.479   3.654   0.480 -0.0823  0.0049  0.4363
 5996SOL    HW223756   3.562   3.607   0.489  0.4770  0.9657  0.4491
 5996SOL    HW323757   3.454   3.642   0.388 -0.5835 -1.3258  0.7266
 5996SOL    MW423758   3.487   3.646   0.469 -0.0746 -0.0439  0.4763
 5997SOL     OW23759   3.751   4.239   2.769  0.3302 -0.3230  0.0774
 5997SOL    HW223760   3.797   4.202   2.844  0.4846  0.7032  0.5028
 5997SOL    HW323761   3.792   4.198   2.693  0.9064 -0.5622  0.5085
 5997SOL    MW423762   3.762   4.229   2.769  0.4266 -0.2192  0.1904
 5998SOL     OW23763   2.471   4.278   1.006 -0.2624 -0.0216 -0.1083
 5998SOL    HW223764   2.527   4.347   1.040 -0.2966  0.3683 -0.8350
 5998SOL    HW323765   2.503   4.198   1.048 -0.4898  0.4777  1.0560
 5998SOL    MW423766   2.482   4.276   1.016 -0.2969  0.0957 -0.0505
 5999SOL     OW23767   5.935   3.273   2.088  0.0836 -0.6191 -0.0641
 5999SOL    HW223768   5.928   3.334   2.162 -0.4212 -0.8015  0.0466
 5999SOL    HW323769   5.845   3.268   2.054  0.7566  1.6979 -2.5199
 5999SOL    MW423770   5.922   3.281   2.094  0.1058 -0.3374 -0.3735
 6000SOL     OW23771   0.203   0.558   5.138  0.0633  0.5006  0.0638
 6000SOL    HW223772   0.235   0.630   5.084 -1.3332  0.1245 -1.3187
 6000SOL    HW323773   0.145   0.600   5.202  1.0176  0.8428  0.7213
 6000SOL    MW423774   0.199   0.573   5.140  0.0050  0.4962 -0.0319
 6001SOL     OW23775   3.225   4.580   3.419  0.5139  0.4896 -0.0277
 6001SOL    HW223776   3.190   4.501   3.460  0.3172  0.6569  0.1267
 6001SOL    HW323777   3.282   4.619   3.486  1.5711 -0.1601 -0.5219
 6001SOL    MW423778   3.228   4.575   3.433  0.6275  0.4259 -0.0726
 6002SOL     OW23779   1.381   1.017   3.576 -0.3852 -0.5422 -0.2038
 6002SOL    HW223780   1.326   0.939   3.583 -0.3418 -0.6022 -0.5358
 6002SOL    HW323781   1.453   1.000   3.637  1.0250 -1.9322 -2.1200
 6002SOL    MW423782   1.383   1.004   3.585 -0.1934 -0.7335 -0.5004
 6003SOL     OW23783   2.216   5.599   5.738 -0.1334  0.1865 -0.4159
 6003SOL    HW223784   2.127   5.616   5.709 -0.1537  0.5769 -0.1165
 6003SOL    HW323785   2.222   5.503   5.742 -0.1601  0.1119 -1.6261
 6003SOL    MW423786   2.205   5.588   5.735 -0.1396  0.2282 -0.5361
 6004SOL     OW23787   4.599   6.151   0.106 -0.8472 -1.4324 -0.3668
 6004SOL    HW223788   4.538   6.154   0.180  1.0414 -1.2437  1.2582
 6004SOL    HW323789   4.591   6.237   0.065 -0.1336 -0.6154  1.1593
 6004SOL    MW423790   4.590   6.163   0.110 -0.5038 -1.2997  0.0489
 6005SOL     OW23791   4.071   0.218   6.334  0.6723  0.0695 -0.4256
 6005SOL    HW223792   4.008   0.207   6.405  0.1122  0.1936 -0.9004
 6005SOL    HW323793   4.156   0.196   6.374  0.7179  2.4238  0.9200
 6005SOL    MW423794   4.074   0.214   6.348  0.6044  0.3965 -0.3107
 6006SOL     OW23795   5.463   2.655   0.546 -0.2303  0.2638 -0.0289
 6006SOL    HW223796   5.522   2.599   0.595 -0.0262 -0.5446 -1.1567
 6006SOL    HW323797   5.510   2.677   0.466 -0.6085  1.4331  0.0443
 6006SOL    MW423798   5.477   2.650   0.542 -0.2533  0.3114 -0.1681
 6007SOL     OW23799   3.311   2.183   3.889  0.2595 -0.1189 -0.6204
 6007SOL    HW223800   3.399   2.161   3.920  0.9576  0.3045 -2.2111
 6007SOL    HW323801   3.313   2.278   3.876 -1.2700  0.3195  1.7708
 6007SOL    MW423802   3.323   2.193   3.891  0.1498 -0.0052 -0.5147
 6008SOL     OW23803   3.907   3.455   4.957  0.1285 -0.2255 -0.1353
 6008SOL    HW223804   3.928   3.526   5.018  0.3642 -0.6093  0.2316
 6008SOL    HW323805   3.888   3.380   5.013  1.4921 -0.9086 -0.5411
 6008SOL    MW423806   3.907   3.455   4.972  0.3395 -0.3663 -0.1404
 6009SOL     OW23807   3.113   1.000   3.584  0.1237 -0.6265  0.0271
 6009SOL    HW223808   3.199   1.007   3.627  0.0753  0.5596 -0.0402
 6009SOL    HW323809   3.103   0.906   3.567  1.1590 -0.8517  0.5379
 6009SOL    MW423810   3.123   0.989   3.587  0.2539 -0.4998  0.0856
 6010SOL     OW23811   3.107   0.866   6.073 -0.6385  0.4317 -0.2352
 6010SOL    HW223812   3.062   0.906   6.148 -4.7684  0.1776 -2.3036
 6010SOL    HW323813   3.080   0.774   6.074  1.5541 -0.2782 -0.5268
 6010SOL    MW423814   3.098   0.859   6.083 -0.8941  0.3045 -0.5466
 6011SOL     OW23815   1.598   4.759   5.861  0.4229 -0.3087  0.0383
 6011SOL    HW223816   1.541   4.694   5.903  1.3018  0.6639  2.9666
 6011SOL    HW323817   1.591   4.836   5.917  0.6316  1.6433 -2.4660
 6011SOL    MW423818   1.589   4.761   5.874  0.5664  0.0772  0.0942
 6012SOL     OW23819   2.578   3.314   3.354  0.1537 -0.0725 -0.1054
 6012SOL    HW223820   2.547   3.360   3.276  0.3615  0.4249  0.1062
 6012SOL    HW323821   2.638   3.375   3.396 -0.2510 -0.1892  0.6523
 6012SOL    MW423822   2.582   3.328   3.349  0.1277 -0.0223  0.0225
 6013SOL     OW23823   1.859   5.569   3.355 -0.2755 -0.1874  0.6592
 6013SOL    HW223824   1.806   5.539   3.428 -0.0104 -2.0428  0.1478
 6013SOL    HW323825   1.944   5.526   3.367  0.7725  1.7648  0.8042
 6013SOL    MW423826   1.863   5.559   3.366 -0.1022 -0.1746  0.6109
 6014SOL     OW23827   3.021   5.217   3.244 -0.0505 -0.2588  0.8720
 6014SOL    HW223828   3.087   5.187   3.182  1.0273 -1.1348  2.3561
 6014SOL    HW323829   2.943   5.166   3.222  0.4572 -0.9070  0.5223
 6014SOL    MW423830   3.019   5.206   3.233  0.1587 -0.4599  1.0217
 6015SOL     OW23831   2.861   5.342   1.580 -0.1764 -0.4779 -0.5683
 6015SOL    HW223832   2.833   5.282   1.511  2.5312 -0.6231 -1.6475
 6015SOL    HW323833   2.910   5.410   1.534  1.9320 -0.6999  1.1888
 6015SOL    MW423834   2.863   5.343   1.565  0.4590 -0.5263 -0.4789
 6016SOL     OW23835   2.578   6.023   6.106  0.3063  0.5498  0.1585
 6016SOL    HW223836   2.525   5.943   6.111 -0.4358  1.0240  0.0265
 6016SOL    HW323837   2.583   6.054   6.196 -0.7931  1.2379 -0.0111
 6016SOL    MW423838   2.572   6.016   6.119  0.0634  0.7032  0.1187
 6017SOL     OW23839   0.853   3.436   4.285 -0.6849  0.2567  0.0621
 6017SOL    HW223840   0.901   3.494   4.345 -1.2790 -0.3764  1.1861
 6017SOL    HW323841   0.863   3.349   4.323  0.1266 -0.3919 -1.5663
 6017SOL    MW423842   0.860   3.433   4.298 -0.6562  0.0876 -0.0045
 6018SOL     OW23843   0.395   3.221   1.284 -0.1088  0.1737  0.0551
 6018SOL    HW223844   0.414   3.176   1.366 -0.1823  1.0894  0.5885
 6018SOL    HW323845   0.381   3.312   1.309 -0.3966  0.4193 -0.9432
 6018SOL    MW423846   0.396   3.227   1.298 -0.1564  0.3269 -0.0062
 6019SOL     OW23847   1.823   0.027   1.109 -0.5298  0.0222 -0.2422
 6019SOL    HW223848   1.876  -0.049   1.084  0.6255  0.4660  0.7523
 6019SOL    HW323849   1.785   0.003   1.194  0.0221  0.6337  0.1842
 6019SOL    MW423850   1.825   0.014   1.117 -0.3046  0.1614 -0.0547
 6020SOL     OW23851   1.509   4.247   3.951  0.3339  0.3638  1.2187
 6020SOL    HW223852   1.515   4.186   4.024  1.4714  0.3526  1.1385
 6020SOL    HW323853   1.583   4.306   3.962 -0.5398  1.5206  1.0883
 6020SOL    MW423854   1.520   4.247   3.962  0.3687  0.5150  1.1910
 6021SOL     OW23855   3.233   3.529   0.545  0.1896 -0.2752  0.9255
 6021SOL    HW223856   3.221   3.504   0.636  1.6469  0.3233  1.3040
 6021SOL    HW323857   3.320   3.567   0.542  0.0370  0.0016 -0.6631
 6021SOL    MW423858   3.243   3.530   0.556  0.3617 -0.1597  0.7659
 6022SOL     OW23859   0.232   2.544   5.729  0.5275 -0.0062 -0.4177
 6022SOL    HW223860   0.324   2.530   5.708  0.8497 -0.3757  1.0962
 6022SOL    HW323861   0.223   2.639   5.734  0.9426  0.0217 -0.1343
 6022SOL    MW423862   0.243   2.554   5.727  0.6248 -0.0512 -0.1806
 6023SOL     OW23863   4.506   1.269   1.803 -0.4456  0.4874 -0.2951
 6023SOL    HW223864   4.467   1.184   1.784  1.3315 -0.8223  1.3927
 6023SOL    HW323865   4.601   1.253   1.794 -0.0581  2.1515  0.5739
 6023SOL    MW423866   4.514   1.255   1.799 -0.1600  0.5342  0.0422
 6024SOL     OW23867   1.875   2.372   0.481 -0.3627 -0.0778 -0.2301
 6024SOL    HW223868   1.835   2.285   0.477 -0.6484  0.0211  0.4100
 6024SOL    HW323869   1.803   2.432   0.464 -0.1542  0.0381 -0.7259
 6024SOL    MW423870   1.860   2.368   0.478 -0.3729 -0.0495 -0.2111
 6025SOL     OW23871   0.935   1.452   5.887  0.0814 -0.6105 -0.9072
 6025SOL    HW223872   1.003   1.440   5.820 -0.9777 -0.8888 -1.9561
 6025SOL    HW323873   0.882   1.525   5.855  1.1076  1.0807  0.9685
 6025SOL    MW423874   0.937   1.460   5.874  0.0770 -0.4241 -0.7981
 6026SOL     OW23875   0.987   6.031   2.140 -0.0243  0.0384  0.0800
 6026SOL    HW223876   0.908   6.023   2.193  0.5919 -1.1997  0.8698
 6026SOL    HW323877   1.027   6.114   2.167 -0.0663 -0.2580  1.0995
 6026SOL    MW423878   0.982   6.041   2.151  0.0514 -0.1640  0.3187
 6027SOL     OW23879   6.057   4.654   4.356  0.7189 -0.0011 -0.1569
 6027SOL    HW223880   6.055   4.569   4.313  0.0898  0.5121 -1.1793
 6027SOL    HW323881   6.105   4.638   4.437 -0.9475 -1.7365  0.5672
 6027SOL    MW423882   6.063   4.641   4.361  0.4161 -0.1624 -0.1962
 6028SOL     OW23883   0.554   6.057   4.127 -0.1477  0.3407 -0.3068
 6028SOL    HW223884   0.617   6.014   4.069  0.2158  0.7039 -0.1824
 6028SOL    HW323885   0.605   6.081   4.205 -0.4711  0.5110 -0.1465
 6028SOL    MW423886   0.569   6.055   4.130 -0.1424  0.4111 -0.2692
 6029SOL     OW23887   0.477   0.479   3.156  0.5312  0.7233 -0.0550
 6029SOL    HW223888   0.402   0.526   3.119  2.5731  2.6520 -2.0449
 6029SOL    HW323889   0.521   0.543   3.212  0.6478 -0.4240  1.2095
 6029SOL    MW423890   0.473   0.494   3.158  0.8160  0.8264 -0.1507
 6030SOL     OW23891   2.342   4.101   1.519 -1.0096  0.1716 -0.0393
 6030SOL    HW223892   2.306   4.044   1.451  0.8284  0.9068 -1.7380
 6030SOL    HW323893   2.291   4.182   1.510 -1.3487 -0.0278  0.0575
 6030SOL    MW423894   2.331   4.104   1.509 -0.8118  0.2423 -0.2506
 6031SOL     OW23895   3.867   4.846   5.677  0.4026 -0.0360  0.4556
 6031SOL    HW223896   3.780   4.826   5.643  0.3144  1.0590  0.0041
 6031SOL    HW323897   3.916   4.880   5.602  0.0793  2.8047  1.4355
 6031SOL    MW423898   3.862   4.848   5.662  0.3483  0.4833  0.5253
 6032SOL     OW23899   0.057   3.176   5.553 -0.3027  0.0040  0.2870
 6032SOL    HW223900  -0.022   3.128   5.526  0.0133  0.1498 -0.9676
 6032SOL    HW323901   0.028   3.267   5.557 -0.0396  0.1641 -0.9456
 6032SOL    MW423902   0.042   3.181   5.550 -0.2263  0.0444 -0.0412
 6033SOL     OW23903   1.721   1.806   3.005 -0.4954 -0.1439 -0.5774
 6033SOL    HW223904   1.715   1.728   2.950  0.4290 -1.5005  1.1534
 6033SOL    HW323905   1.747   1.876   2.945 -0.6947 -1.2910 -2.0490
 6033SOL    MW423906   1.723   1.805   2.990 -0.3997 -0.4743 -0.5432
 6034SOL     OW23907   5.694   2.982   2.764 -0.3479 -0.8886 -0.3295
 6034SOL    HW223908   5.659   2.910   2.817 -1.2218 -0.5953 -0.4875
 6034SOL    HW323909   5.628   2.994   2.695 -1.3359  1.4761  0.9011
 6034SOL    MW423910   5.680   2.974   2.762 -0.5935 -0.5379 -0.1880
 6035SOL     OW23911   1.843   4.916   6.342 -0.3248  0.1726  0.1174
 6035SOL    HW223912   1.794   4.840   6.312 -1.0682  0.0465  1.5780
 6035SOL    HW323913   1.934   4.886   6.346 -0.3446 -0.0787 -1.0406
 6035SOL    MW423914   1.849   4.902   6.339 -0.4255  0.1228  0.1573
 6036SOL     OW23915   6.203   1.138   4.097 -0.4016  0.1442  0.5408
 6036SOL    HW223916   6.239   1.205   4.039 -0.8451  0.9610  1.1819
 6036SOL    HW323917   6.262   1.063   4.087  0.3259  0.7643  0.0974
 6036SOL    MW423918   6.216   1.137   4.088 -0.3641  0.3338  0.5669
 6037SOL     OW23919   0.829   3.493   6.182 -0.2928 -0.2672  0.2731
 6037SOL    HW223920   0.883   3.556   6.230  0.4932 -0.6193 -0.1305
 6037SOL    HW323921   0.744   3.496   6.226 -0.5605  1.7403 -0.2980
 6037SOL    MW423922   0.825   3.501   6.194 -0.2244 -0.0488  0.1445
 6038SOL     OW23923   2.108   1.189   4.413  0.2975 -0.0706  0.3837
 6038SOL    HW223924   2.181   1.219   4.466  0.2937  0.5150  0.0631
 6038SOL    HW323925   2.068   1.118   4.464  0.7363 -0.0031  0.8183
 6038SOL    MW423926   2.112   1.183   4.426  0.3549  0.0156  0.3988
 6039SOL     OW23927   4.903   6.414   5.031 -0.3675  0.0051  0.3756
 6039SOL    HW223928   4.853   6.458   5.100 -0.7128  0.3712 -0.1034
 6039SOL    HW323929   4.854   6.431   4.951 -1.6622 -2.8968  0.4030
 6039SOL    MW423930   4.890   6.422   5.030 -0.5839 -0.3295  0.3161
 6040SOL     OW23931   5.293   5.649   3.269 -0.1604 -0.1252 -0.2305
 6040SOL    HW223932   5.272   5.604   3.187 -2.2546 -1.1125  0.7490
 6040SOL    HW323933   5.208   5.660   3.312  0.7121  1.6393  1.1878
 6040SOL    MW423934   5.279   5.645   3.264 -0.3216 -0.0226  0.0859
 6041SOL     OW23935   1.749   2.164   2.551  0.4994  0.7997  0.0756
 6041SOL    HW223936   1.700   2.208   2.620  1.1817  0.4383  0.8170
 6041SOL    HW323937   1.731   2.215   2.472 -1.8560  0.1068  0.0905
 6041SOL    MW423938   1.740   2.176   2.550  0.2787  0.6606  0.1754
 6042SOL     OW23939   4.185   6.328   0.107 -0.1596 -0.5891  0.3856
 6042SOL    HW223940   4.098   6.354   0.138 -0.0406 -0.2015  0.3912
 6042SOL    HW323941   4.168   6.250   0.055 -0.6160 -0.0546 -0.2853
 6042SOL    MW423942   4.171   6.321   0.105 -0.2041 -0.4674  0.2978
 6043SOL     OW23943   1.304   2.202   0.496  0.2163  0.6588 -0.0808
 6043SOL    HW223944   1.318   2.190   0.402 -2.5766 -2.5131 -0.2695
 6043SOL    HW323945   1.381   2.163   0.537 -0.0260 -0.9423 -1.0679
 6043SOL    MW423946   1.316   2.196   0.489 -0.1842  0.0290 -0.2359
 6044SOL     OW23947   1.997   5.206   5.175 -0.7266  0.5938  0.2258
 6044SOL    HW223948   2.086   5.194   5.140 -0.8737  1.9738 -0.6890
 6044SOL    HW323949   1.985   5.132   5.235  0.6271 -0.2306 -0.4641
 6044SOL    MW423950   2.007   5.195   5.178 -0.5674  0.6671  0.0141
 6045SOL     OW23951   5.532   0.668   2.106  0.0082  0.3748 -0.7420
 6045SOL    HW223952   5.483   0.724   2.166  1.0561 -0.6844  1.2179
 6045SOL    HW323953   5.477   0.590   2.096  0.0421  0.3568 -0.7868
 6045SOL    MW423954   5.518   0.665   2.113  0.1509  0.2327 -0.4893
 6046SOL     OW23955   2.873   2.776   1.354 -0.4191  0.1384  0.3469
 6046SOL    HW223956   2.923   2.839   1.301  0.2308 -0.9210 -0.3507
 6046SOL    HW323957   2.791   2.821   1.374 -0.3447  0.8818 -0.8944
 6046SOL    MW423958   2.869   2.790   1.349 -0.3235  0.0967  0.0911
 6047SOL     OW23959   3.843   6.273   1.006  0.1510 -0.0255  0.0255
 6047SOL    HW223960   3.826   6.336   0.936  0.7273 -0.2284 -0.2994
 6047SOL    HW323961   3.756   6.251   1.040 -0.2307 -0.8855 -1.4611
 6047SOL    MW423962   3.830   6.278   1.002  0.1767 -0.1658 -0.2135
 6048SOL     OW23963   0.023   3.875   6.021 -0.6768  0.1103 -0.4329
 6048SOL    HW223964  -0.013   3.929   6.091 -1.8662  0.0857 -1.0055
 6048SOL    HW323965   0.118   3.880   6.033 -0.8357  0.7804  0.6613
 6048SOL    MW423966   0.031   3.883   6.032 -0.8547  0.1955 -0.3641
 6049SOL     OW23967   3.112   1.771   4.005  0.0366 -0.5108  0.8166
 6049SOL    HW223968   3.018   1.758   4.013 -0.4318  1.2025 -1.0593
 6049SOL    HW323969   3.124   1.866   4.007  1.2556 -0.4603 -2.4873
 6049SOL    MW423970   3.102   1.782   4.006  0.1357 -0.2781  0.1332
 6050SOL     OW23971   5.832   0.050   2.006  0.0680 -0.4826  0.1546
 6050SOL    HW223972   5.871   0.119   2.059 -0.9331  0.9470 -0.9148
 6050SOL    HW323973   5.905  -0.010   1.989  0.9817  0.3348  1.0329
 6050SOL    MW423974   5.847   0.051   2.011  0.0565 -0.1862  0.1294
 6051SOL     OW23975   0.849   1.964   0.622 -0.6572 -0.1254 -0.3754
 6051SOL    HW223976   0.935   1.988   0.655 -1.1714  0.0841  0.8856
 6051SOL    HW323977   0.858   1.873   0.594 -0.2138 -0.3582  0.4874
 6051SOL    MW423978   0.861   1.955   0.622 -0.6665 -0.1285 -0.0952
 6052SOL     OW23979   5.056   1.255   3.028  0.5277  0.1853  0.4028
 6052SOL    HW223980   5.052   1.196   3.103 -1.2930 -0.4618 -0.1695
 6052SOL    HW323981   4.998   1.216   2.963  0.4979  1.7939 -0.5813
 6052SOL    MW423982   5.048   1.242   3.029  0.2835  0.3122  0.1974
 6053SOL     OW23983   0.147   6.391   2.972  0.7141  0.1278 -0.3690
 6053SOL    HW223984   0.089   6.433   3.036  0.6670 -1.0560  0.3921
 6053SOL    HW323985   0.229   6.439   2.979  1.1391 -0.7601  1.5407
 6053SOL    MW423986   0.150   6.403   2.981  0.7639 -0.1456 -0.0166
 6054SOL     OW23987   0.684   3.193   4.029 -0.6041  0.5131  0.0071
 6054SOL    HW223988   0.685   3.285   4.054  0.6243  0.6753 -0.5347
 6054SOL    HW323989   0.701   3.193   3.935 -0.4498 -0.2630  0.0254
 6054SOL    MW423990   0.687   3.205   4.020 -0.4216  0.4321 -0.0620
 6055SOL     OW23991   5.953   2.193   0.613  0.2579 -0.0239 -0.3413
 6055SOL    HW223992   6.008   2.165   0.540 -0.3568  3.5437 -2.3933
 6055SOL    HW323993   5.864   2.167   0.588 -0.1167  2.1834 -1.5788
 6055SOL    MW423994   5.948   2.186   0.600  0.1274  0.7380 -0.7753
 6056SOL     OW23995   3.086   3.566   4.169 -0.7678  0.4894  0.2464
 6056SOL    HW223996   3.021   3.506   4.205  0.3951 -1.1804 -0.3276
 6056SOL    HW323997   3.095   3.539   4.077  0.2271  1.1288  0.1423
 6056SOL    MW423998   3.078   3.554   4.161 -0.4831  0.3535  0.1569
 6057SOL     OW23999   0.111   5.154   2.595  0.0989  0.3131  0.1857
 6057SOL    HW224000   0.060   5.097   2.652 -0.9609  1.0954  0.0512
 6057SOL    HW324001   0.125   5.103   2.516 -0.4486  0.0776  0.2372
 6057SOL    MW424002   0.106   5.140   2.592 -0.1132  0.3852  0.1748
 6058SOL     OW24003   0.877   0.824   4.464  0.4787 -0.4434 -0.1754
 6058SOL    HW224004   0.856   0.894   4.525 -0.8940  1.0526 -2.2029
 6058SOL    HW324005   0.799   0.768   4.463  1.0645 -1.2995  0.4742
 6058SOL    MW424006   0.864   0.826   4.472  0.3749 -0.3589 -0.3572
 6059SOL     OW24007   0.881   3.046   4.222  0.1045 -0.2329  0.5673
 6059SOL    HW224008   0.910   2.971   4.274 -1.8989 -1.7462 -0.3520
 6059SOL    HW324009   0.887   3.016   4.131 -1.1629  0.5180  0.2026
 6059SOL    MW424010   0.886   3.032   4.217 -0.3271 -0.3335  0.3979
 6060SOL     OW24011   4.210   4.566   0.807  0.5523  0.1548  0.3875
 6060SOL    HW224012   4.142   4.554   0.741  1.2157  0.1276 -0.3078
 6060SOL    HW324013   4.290   4.579   0.756  0.7834  2.0182  1.1565
 6060SOL    MW424014   4.212   4.566   0.791  0.6703  0.3971  0.3972
 6061SOL     OW24015   5.418   5.198   1.708  0.3423 -0.6291 -0.0805
 6061SOL    HW224016   5.512   5.188   1.695  0.2806 -0.5802 -0.5735
 6061SOL    HW324017   5.407   5.201   1.804  0.4753 -4.4487  0.2318
 6061SOL    MW424018   5.429   5.197   1.719  0.3517 -1.1266 -0.1044
 6062SOL     OW24019   2.511   4.174   6.183 -0.3541 -0.0966  0.0469
 6062SOL    HW224020   2.562   4.251   6.205  0.6615 -0.1807 -1.8574
 6062SOL    HW324021   2.427   4.187   6.227 -0.1791  2.0448 -0.1872
 6062SOL    MW424022   2.507   4.186   6.192 -0.1970  0.1749 -0.2352
 6063SOL     OW24023   5.840   0.365   2.435 -0.4684  0.0358 -0.0299
 6063SOL    HW224024   5.929   0.389   2.462 -0.7953 -0.7619  1.9367
 6063SOL    HW324025   5.797   0.449   2.417  0.7148  0.4192 -1.2311
 6063SOL    MW424026   5.846   0.379   2.437 -0.3554 -0.0189  0.0711
 6064SOL     OW24027   3.002   4.233   1.427  0.4202  0.2670  0.4914
 6064SOL    HW224028   2.924   4.243   1.372  0.8150  0.2561 -0.0765
 6064SOL    HW324029   3.058   4.307   1.403  0.2170  0.7808  1.5343
 6064SOL    MW424030   2.999   4.244   1.416  0.4454  0.3334  0.5541
 6065SOL     OW24031   2.239   0.951   4.368  0.2085  0.0351  0.2272
 6065SOL    HW224032   2.201   1.036   4.344 -0.2458 -0.4781 -0.9517
 6065SOL    HW324033   2.180   0.917   4.436 -1.6858 -0.8372 -1.7026
 6065SOL    MW424034   2.226   0.958   4.374 -0.1014 -0.1477 -0.1830
 6066SOL     OW24035   0.207   4.476   6.256  0.0356 -0.4793  0.3680
 6066SOL    HW224036   0.158   4.432   6.326 -0.2513  0.8262  1.0094
 6066SOL    HW324037   0.269   4.533   6.302 -0.3031  0.5508 -0.4188
 6066SOL    MW424038   0.209   4.478   6.272 -0.0470 -0.1711  0.3488
 6067SOL     OW24039   5.111   2.678   2.915 -0.5025  0.1073 -0.1617
 6067SOL    HW224040   5.023   2.716   2.909 -0.8815 -0.7829 -0.4585
 6067SOL    HW324041   5.097   2.593   2.958 -0.0163 -0.7361 -1.6134
 6067SOL    MW424042   5.097   2.672   2.920 -0.4884 -0.1214 -0.3924
 6068SOL     OW24043   5.435   5.133   4.772 -0.1069  0.2732  0.2293
 6068SOL    HW224044   5.506   5.095   4.720 -0.7363 -1.9944  0.9136
 6068SOL    HW324045   5.475   5.209   4.815  1.7605 -0.5911  0.1469
 6068SOL    MW424046   5.450   5.138   4.771  0.0564 -0.1401  0.3087
 6069SOL     OW24047   5.526   2.046   4.762 -0.2589  0.3776  0.1539
 6069SOL    HW224048   5.475   2.120   4.795 -0.5325 -0.1445  0.9162
 6069SOL    HW324049   5.488   2.027   4.676  1.3535  2.6469 -1.1795
 6069SOL    MW424050   5.514   2.054   4.755 -0.0823  0.6081  0.0785
 6070SOL     OW24051   3.168   0.372   0.252 -0.5780 -0.3356 -0.0220
 6070SOL    HW224052   3.121   0.453   0.236 -0.2320 -0.0246  0.5231
 6070SOL    HW324053   3.227   0.363   0.177  0.4543  0.6976  0.6278
 6070SOL    MW424054   3.170   0.381   0.240 -0.3962 -0.1583  0.1356
 6071SOL     OW24055   3.510   0.444   1.655  0.3475  0.4259  0.3287
 6071SOL    HW224056   3.474   0.404   1.576 -0.9114  2.0185  0.0528
 6071SOL    HW324057   3.589   0.489   1.626  1.6040 -1.4929  0.5865
 6071SOL    MW424058   3.516   0.444   1.641  0.3472  0.3829  0.3263
 6072SOL     OW24059   5.990   2.782   3.051  0.0956 -0.4111 -0.0602
 6072SOL    HW224060   5.981   2.694   3.087  0.7920  0.4977  2.6140
 6072SOL    HW324061   6.083   2.789   3.028  0.5423  0.2349  1.7414
 6072SOL    MW424062   6.001   2.771   3.053  0.2464 -0.2060  0.5303
 6073SOL     OW24063   0.281   4.522   5.985  0.3941 -0.1470 -0.2884
 6073SOL    HW224064   0.255   4.478   6.065 -0.7506  1.6780  0.4033
 6073SOL    HW324065   0.230   4.480   5.916 -0.3873 -0.1720  0.2997
 6073SOL    MW424066   0.271   4.511   5.986  0.1400  0.0905 -0.1196
 6074SOL     OW24067   3.879   3.064   2.688  0.7473 -0.6954  0.1374
 6074SOL    HW224068   3.962   3.066   2.640  1.1610 -1.4879  0.7892
 6074SOL    HW324069   3.897   3.114   2.768 -0.2538  1.5613 -0.9456
 6074SOL    MW424070   3.892   3.071   2.692  0.6698 -0.5022  0.0805
 6075SOL     OW24071   4.803   3.629   2.098 -0.2375 -0.1237  0.6681
 6075SOL    HW224072   4.814   3.678   2.179  0.2696 -0.8134  1.0312
 6075SOL    HW324073   4.760   3.548   2.125  1.5210 -1.1443  0.5458
 6075SOL    MW424074   4.799   3.625   2.112  0.0614 -0.3494  0.6999
 6076SOL     OW24075   2.032   4.681   2.384  0.4488 -0.4760  0.4807
 6076SOL    HW224076   1.983   4.617   2.333 -0.0291 -0.2646  0.6595
 6076SOL    HW324077   2.019   4.655   2.475 -0.0475  0.0677  0.5756
 6076SOL    MW424078   2.024   4.669   2.389  0.3202 -0.3764  0.5168
 6077SOL     OW24079   2.597   3.562   4.656 -0.2436 -0.2824 -0.3284
 6077SOL    HW224080   2.546   3.641   4.669 -0.4948 -0.7075  1.4999
 6077SOL    HW324081   2.684   3.593   4.631 -0.7393  0.5086 -1.1075
 6077SOL    MW424082   2.602   3.576   4.654 -0.3421 -0.2342 -0.1900
 6078SOL     OW24083   2.196   3.906   3.937 -0.0790  0.3683 -0.0348
 6078SOL    HW224084   2.125   3.849   3.966 -0.3653  0.2256 -0.9811
 6078SOL    HW324085   2.160   3.951   3.860  1.0632 -0.1709 -0.9103
 6078SOL    MW424086   2.182   3.905   3.930  0.0339  0.2783 -0.2752
 6079SOL     OW24087   4.489   4.977   1.131 -0.3506 -0.4674  0.2718
 6079SOL    HW224088   4.455   4.996   1.044 -1.5153  1.2166  1.0294
 6079SOL    HW324089   4.421   4.924   1.172 -0.0629 -0.7778  0.3496
 6079SOL    MW424090   4.476   4.972   1.125 -0.4663 -0.2862  0.3820
 6080SOL     OW24091   2.337   2.786   3.813  0.0835 -0.1782 -0.0246
 6080SOL    HW224092   2.287   2.776   3.732  0.3609  0.0940 -0.2307
 6080SOL    HW324093   2.322   2.877   3.839 -1.1161 -0.6400  0.9720
 6080SOL    MW424094   2.328   2.797   3.806 -0.0382 -0.2032  0.0797
 6081SOL     OW24095   6.364   5.022   1.712  0.1798  0.4713 -0.7105
 6081SOL    HW224096   6.288   5.011   1.656  1.2982 -2.1473 -1.8891
 6081SOL    HW324097   6.405   4.936   1.715  1.1606  0.8686  2.8100
 6081SOL    MW424098   6.360   5.010   1.705  0.4568  0.1782 -0.4015
 6082SOL     OW24099   3.128   0.956   1.138 -0.0567 -0.0781  0.2458
 6082SOL    HW224100   3.067   0.883   1.135  0.3553 -0.4073 -0.8184
 6082SOL    HW324101   3.137   0.984   1.046  0.9874  0.2871  0.4384
 6082SOL    MW424102   3.121   0.950   1.125  0.1354 -0.0734  0.1308
 6083SOL     OW24103   2.388   2.961   0.436  0.1541  0.1191 -0.6440
 6083SOL    HW224104   2.474   2.940   0.400  0.6819 -0.4070  0.8459
 6083SOL    HW324105   2.336   2.881   0.423  1.0106 -0.8845  1.6221
 6083SOL    MW424106   2.392   2.948   0.429  0.3368 -0.0827 -0.1484
 6084SOL     OW24107   0.624   1.299   3.966  0.4350  0.0592  0.3336
 6084SOL    HW224108   0.716   1.317   3.949  0.5291  0.7811  1.5104
 6084SOL    HW324109   0.603   1.350   4.044 -1.0471  0.1365 -0.0755
 6084SOL    MW424110   0.633   1.308   3.974  0.2519  0.1647  0.4349
 6085SOL     OW24111   4.823   0.486   1.882 -0.0824 -0.1320 -0.1012
 6085SOL    HW224112   4.759   0.434   1.833 -0.7952 -0.3592  1.0329
 6085SOL    HW324113   4.892   0.424   1.903  0.7169  0.1889 -1.6147
 6085SOL    MW424114   4.823   0.471   1.878 -0.0710 -0.1197 -0.1513
 6086SOL     OW24115   5.965   4.152   4.264 -0.7917 -0.5029  0.2006
 6086SOL    HW224116   5.987   4.206   4.341 -1.4749 -1.8972  1.4309
 6086SOL    HW324117   6.041   4.095   4.253 -0.3314  0.2605 -0.7229
 6086SOL    MW424118   5.978   4.152   4.273 -0.8211 -0.5861  0.2411
 6087SOL     OW24119   2.993   0.234   5.038 -0.3171  0.5039 -0.4071
 6087SOL    HW224120   3.022   0.229   5.129 -1.0853  1.6716 -0.0800
 6087SOL    HW324121   3.048   0.170   4.992  0.4362  0.2696  0.7762
 6087SOL    MW424122   3.004   0.225   5.044 -0.3191  0.6271 -0.2078
 6088SOL     OW24123   6.315   3.717   4.608  0.2629 -0.7409 -0.2719
 6088SOL    HW224124   6.220   3.716   4.595  0.3494  0.1877 -1.0471
 6088SOL    HW324125   6.337   3.809   4.616  0.8539 -1.0177  1.9741
 6088SOL    MW424126   6.305   3.729   4.607  0.3523 -0.6549 -0.0778
 6089SOL     OW24127   1.037   1.321   6.372  0.1117  0.0013  0.3485
 6089SOL    HW224128   1.028   1.358   6.459  0.3833 -1.9965  1.2697
 6089SOL    HW324129   1.022   1.395   6.313 -0.5256  1.2977  2.0594
 6089SOL    MW424130   1.034   1.335   6.375  0.0635 -0.0913  0.6958
 6090SOL     OW24131   3.567   4.101   4.651 -0.0234 -0.1389  0.5090
 6090SOL    HW224132   3.642   4.160   4.650  0.7828 -1.1164  1.4716
 6090SOL    HW324133   3.575   4.050   4.570 -0.5712  0.8369 -0.1871
 6090SOL    MW424134   3.578   4.102   4.640  0.0107 -0.1391  0.5441
 6091SOL     OW24135   4.279   2.918   4.995  0.0547  0.6131  0.4921
 6091SOL    HW224136   4.314   2.858   5.062  1.0611  1.9098  1.1787
 6091SOL    HW324137   4.187   2.894   4.987  0.5106 -1.2618  0.4796
 6091SOL    MW424138   4.272   2.907   5.003  0.2476  0.5368  0.5811
 6092SOL     OW24139   5.029   3.711   4.632 -0.3482 -0.0206  0.3695
 6092SOL    HW224140   5.003   3.757   4.711 -1.0645 -0.3768  0.3535
 6092SOL    HW324141   5.111   3.753   4.605 -1.1932  1.5332  0.1171
 6092SOL    MW424142   5.036   3.723   4.639 -0.5541  0.1374  0.3341
 6093SOL     OW24143   4.035   5.402   0.110  0.2464  0.3665 -0.4922
 6093SOL    HW224144   4.014   5.493   0.131 -2.1976 -0.3980  0.7676
 6093SOL    HW324145   4.061   5.363   0.193 -0.3078 -0.4569 -0.6936
 6093SOL    MW424146   4.036   5.409   0.123 -0.1492  0.1570 -0.3525
 6094SOL     OW24147   6.194   2.963   1.774  0.4279  0.5640 -0.3692
 6094SOL    HW224148   6.227   3.048   1.746 -0.8664  0.6670 -1.7692
 6094SOL    HW324149   6.184   2.914   1.692  0.0170 -0.4960  0.3039
 6094SOL    MW424150   6.197   2.968   1.759  0.2029  0.4378 -0.4651
 6095SOL     OW24151   6.065   3.914   0.417  0.0732 -0.0204 -0.4938
 6095SOL    HW224152   5.972   3.904   0.399 -0.3599 -1.0026  1.9200
 6095SOL    HW324153   6.071   3.988   0.477  0.8419 -0.0154 -0.5589
 6095SOL    MW424154   6.054   3.922   0.422  0.1174 -0.1494 -0.1839
 6096SOL     OW24155   4.766   0.850   2.600 -0.2627 -0.3091 -0.1782
 6096SOL    HW224156   4.769   0.755   2.612 -0.8513 -0.3558 -0.3754
 6096SOL    HW324157   4.674   0.869   2.584 -0.1991  0.3385  0.2060
 6096SOL    MW424158   4.755   0.840   2.600 -0.3320 -0.2298 -0.1535
 6097SOL     OW24159   1.889   4.314   0.727  0.5258  0.0747 -0.0102
 6097SOL    HW224160   1.976   4.343   0.699  1.1076 -0.3725  1.2930
 6097SOL    HW324161   1.885   4.222   0.702 -0.4116  0.5728 -1.9592
 6097SOL    MW424162   1.900   4.306   0.720  0.4789  0.0814 -0.0954
 6098SOL     OW24163   1.190   2.038   5.001 -0.0157  0.2069 -0.0586
 6098SOL    HW224164   1.136   2.079   4.934  0.9550  2.7237  0.5887
 6098SOL    HW324165   1.128   2.000   5.063 -0.9321 -1.5230 -1.9113
 6098SOL    MW424166   1.175   2.039   5.000 -0.0085  0.3107 -0.2176
 6099SOL     OW24167   2.931   5.647   5.765  0.1124 -0.3160  0.3340
 6099SOL    HW224168   3.001   5.656   5.701  0.5520  1.0361  0.9655
 6099SOL    HW324169   2.855   5.619   5.714  0.4167  0.8485 -0.8190
 6099SOL    MW424170   2.930   5.645   5.750  0.2106  0.0161  0.2652
 6100SOL     OW24171   3.394   6.339   0.864 -0.1528 -0.5962  0.0586
 6100SOL    HW224172   3.478   6.297   0.851  0.6513  1.2056 -1.0446
 6100SOL    HW324173   3.388   6.355   0.958  1.1590  0.0269  0.0498
 6100SOL    MW424174   3.404   6.336   0.875  0.1264 -0.2763 -0.0881
 6101SOL     OW24175   4.496   3.501   4.476 -0.0392 -0.1838  0.0159
 6101SOL    HW224176   4.548   3.537   4.404  1.6684 -1.7955  0.3930
 6101SOL    HW324177   4.548   3.430   4.511 -1.8482 -0.9024  1.4257
 6101SOL    MW424178   4.509   3.497   4.471 -0.0526 -0.4912  0.2516
 6102SOL     OW24179   1.394   2.099   2.102 -0.5808 -0.4585  0.4936
 6102SOL    HW224180   1.349   2.037   2.044 -3.3489  0.5658  1.4092
 6102SOL    HW324181   1.346   2.181   2.091  0.8739  0.6200  1.8516
 6102SOL    MW424182   1.382   2.102   2.093 -0.7541 -0.1811  0.7936
 6103SOL     OW24183   1.466   1.734   0.253 -0.0493  0.3458 -0.0855
 6103SOL    HW224184   1.442   1.803   0.314  3.9251  0.8147  1.2685
 6103SOL    HW324185   1.409   1.660   0.276 -1.4657  1.8033  1.3336
 6103SOL    MW424186   1.455   1.733   0.264  0.2882  0.6000  0.2804
 6104SOL     OW24187   0.091   2.049   1.428  0.2590 -0.4512  0.0275
 6104SOL    HW224188   0.005   2.024   1.463 -0.7159  0.6182 -1.4828
 6104SOL    HW324189   0.074   2.128   1.377  2.6307  1.2871  1.7796
 6104SOL    MW424190   0.077   2.056   1.426  0.4433 -0.0807  0.0594
 6105SOL     OW24191   2.779   0.058   5.506 -0.4534  0.0091  0.8622
 6105SOL    HW224192   2.756   0.030   5.594  0.0218  0.2249  1.0618
 6105SOL    HW324193   2.820  -0.018   5.465  0.4423  0.2637  1.2548
 6105SOL    MW424194   2.781   0.044   5.512 -0.2725  0.0711  0.9403
 6106SOL     OW24195   6.244   6.187   6.275  0.3328  0.0791  0.3359
 6106SOL    HW224196   6.276   6.275   6.253  0.0843  0.1594  0.2865
 6106SOL    HW324197   6.234   6.188   6.370  1.0083 -0.1295  0.4103
 6106SOL    MW424198   6.247   6.199   6.285  0.3892  0.0621  0.3392
 6107SOL     OW24199   5.772   0.409   1.073 -0.2385  0.0994 -0.6517
 6107SOL    HW224200   5.688   0.410   1.120  0.9479  0.7715  1.6278
 6107SOL    HW324201   5.829   0.464   1.126  1.3285  0.7004 -2.8333
 6107SOL    MW424202   5.768   0.416   1.087  0.1248  0.2674 -0.6388
 6108SOL     OW24203   6.315   4.798   2.451 -0.3386 -0.6461 -0.6163
 6108SOL    HW224204   6.406   4.779   2.475 -0.2210  0.1892 -0.3729
 6108SOL    HW324205   6.265   4.725   2.488  0.0815 -0.4289  0.4160
 6108SOL    MW424206   6.321   4.786   2.459 -0.2677 -0.5072 -0.4480
 6109SOL     OW24207   0.915   3.813   5.994 -0.0047  0.0773 -0.4314
 6109SOL    HW224208   0.896   3.892   6.044 -1.9322  1.5435 -3.1827
 6109SOL    HW324209   0.983   3.768   6.044 -0.0497  2.5836  2.1223
 6109SOL    MW424210   0.921   3.817   6.007 -0.2649  0.6014 -0.4575
 6110SOL     OW24211   3.284   4.182   5.556 -0.1788  0.1841  0.0951
 6110SOL    HW224212   3.276   4.092   5.527 -1.5770  0.1842  0.4144
 6110SOL    HW324213   3.194   4.216   5.557 -0.2800  0.2658  4.0329
 6110SOL    MW424214   3.271   4.175   5.552 -0.3766  0.1949  0.6568
 6111SOL     OW24215   3.246   1.018   5.128  0.0722  0.3453  0.3931
 6111SOL    HW224216   3.248   1.046   5.219 -2.7745  0.7445  0.4307
 6111SOL    HW324217   3.294   1.086   5.080  0.5523  0.7635  1.4529
 6111SOL    MW424218   3.252   1.031   5.134 -0.2400  0.4532  0.5379
 6112SOL     OW24219   3.150   6.240   4.144 -0.3347 -0.5511 -0.2729
 6112SOL    HW224220   3.112   6.190   4.216 -0.1214 -1.5720 -0.8467
 6112SOL    HW324221   3.161   6.176   4.074  1.9788 -0.1921 -0.3101
 6112SOL    MW424222   3.146   6.225   4.144 -0.0014 -0.6384 -0.3535
 6113SOL     OW24223   3.399   0.402   0.076 -0.9004 -0.1471  0.6624
 6113SOL    HW224224   3.415   0.366  -0.011 -0.9615  0.3302  0.4536
 6113SOL    HW324225   3.450   0.483   0.079 -1.8270  0.4551  0.6339
 6113SOL    MW424226   3.408   0.408   0.065 -1.0308 -0.0047  0.6311
 6114SOL     OW24227   4.160   2.178   2.425  0.2501  0.2140  0.2315
 6114SOL    HW224228   4.200   2.133   2.499  1.5860  0.0885 -0.5370
 6114SOL    HW324229   4.096   2.115   2.391 -0.2072  0.1828  1.1109
 6114SOL    MW424230   4.157   2.164   2.430  0.3660  0.1934  0.2461
 6115SOL     OW24231   5.708   2.661   3.908 -0.2274  0.1422  0.3468
 6115SOL    HW224232   5.633   2.616   3.947 -0.1399 -3.0087 -2.6294
 6115SOL    HW324233   5.671   2.713   3.837  0.3068 -2.1845 -1.7648
 6115SOL    MW424234   5.693   2.662   3.904 -0.1454 -0.5805 -0.3245
 6116SOL     OW24235   4.839   5.789   3.975 -0.2438 -0.3316  0.3578
 6116SOL    HW224236   4.931   5.762   3.980 -0.4322 -0.8682  1.1080
 6116SOL    HW324237   4.824   5.805   3.882  0.6086 -0.2497  0.2286
 6116SOL    MW424238   4.849   5.787   3.963 -0.1562 -0.3916  0.4397
 6117SOL     OW24239   3.750   3.572   0.426 -0.1159  0.2932  0.4822
 6117SOL    HW224240   3.806   3.647   0.446 -0.9498  1.2222 -0.4660
 6117SOL    HW324241   3.773   3.549   0.336 -0.8018  0.2774  0.3055
 6117SOL    MW424242   3.760   3.579   0.416 -0.3164  0.4137  0.3338
 6118SOL     OW24243   0.666   1.771   3.289 -0.0391  0.3027 -0.4679
 6118SOL    HW224244   0.703   1.824   3.360 -1.0251 -1.9946  1.8991
 6118SOL    HW324245   0.726   1.697   3.281  0.0891  0.5570 -2.1505
 6118SOL    MW424246   0.679   1.769   3.298 -0.1523  0.0332 -0.3776
 6119SOL     OW24247   4.470   1.819   2.458 -0.1056 -0.0901 -0.3890
 6119SOL    HW224248   4.375   1.807   2.467 -0.0149 -1.1692 -0.7565
 6119SOL    HW324249   4.490   1.893   2.515 -0.9317 -0.9144  1.0366
 6119SOL    MW424250   4.460   1.827   2.467 -0.2026 -0.3412 -0.2494
 6120SOL     OW24251   1.225   3.913   2.445  0.0502  0.5614 -0.6375
 6120SOL    HW224252   1.216   4.006   2.422  0.5641  1.1066  1.1823
 6120SOL    HW324253   1.162   3.868   2.388 -2.4973  2.3765  0.5188
 6120SOL    MW424254   1.215   3.920   2.435 -0.2181  0.8728 -0.2449
 6121SOL     OW24255   3.313   1.738   1.941  0.3775 -0.0097  0.0523
 6121SOL    HW224256   3.275   1.785   1.867  1.3426 -0.1196 -0.5332
 6121SOL    HW324257   3.251   1.751   2.013 -0.7313 -0.1845 -0.8639
 6121SOL    MW424258   3.300   1.746   1.941  0.3585 -0.0472 -0.1459
 6122SOL     OW24259   2.315   1.532   3.371 -0.1860  0.4323 -0.2526
 6122SOL    HW224260   2.223   1.507   3.376 -0.0295 -0.1191 -0.1021
 6122SOL    HW324261   2.326   1.567   3.283 -1.1020  2.7775  0.4595
 6122SOL    MW424262   2.304   1.534   3.360 -0.2862  0.6690 -0.1388
 6123SOL     OW24263   4.784   0.444   3.044  0.2622 -0.1106  0.2469
 6123SOL    HW224264   4.863   0.489   3.072 -0.6640  0.9853  1.2092
 6123SOL    HW324265   4.717   0.513   3.040 -0.5690 -0.9391 -0.8947
 6123SOL    MW424266   4.785   0.459   3.047  0.0303 -0.0754  0.2232
 6124SOL     OW24267   0.991   2.506   1.399  0.5720  0.0380  0.3326
 6124SOL    HW224268   1.077   2.467   1.381 -0.0271 -0.8214 -0.8314
 6124SOL    HW324269   0.931   2.457   1.342 -0.6244  0.8985  0.8273
 6124SOL    MW424270   0.994   2.494   1.389  0.3351  0.0382  0.2443
 6125SOL     OW24271   3.680   2.934   3.623  0.2381  0.1453 -0.0442
 6125SOL    HW224272   3.747   2.865   3.626  0.1588  0.0414 -0.6608
 6125SOL    HW324273   3.711   2.994   3.555 -0.1684  0.2321 -0.1506
 6125SOL    MW424274   3.693   2.933   3.615  0.1740  0.1431 -0.1396
 6126SOL     OW24275   5.455   2.729   2.523 -0.2523  0.2281  0.4231
 6126SOL    HW224276   5.398   2.716   2.599  0.6131 -0.7974  0.9392
 6126SOL    HW324277   5.523   2.662   2.533  0.8637  1.2054 -0.3340
 6126SOL    MW424278   5.456   2.718   2.534  0.0091  0.2217  0.3913
 6127SOL     OW24279   5.012   1.464   2.748 -0.0642 -0.2380 -0.2872
 6127SOL    HW224280   5.075   1.393   2.749 -0.4189 -0.6788 -2.9841
 6127SOL    HW324281   4.928   1.422   2.768 -0.3700 -0.7684 -2.4556
 6127SOL    MW424282   5.009   1.449   2.751 -0.1513 -0.3661 -0.9291
 6128SOL     OW24283   1.243   3.591   3.971  0.1742  0.4472  0.4000
 6128SOL    HW224284   1.329   3.632   3.978  0.7354 -0.5867 -0.1728
 6128SOL    HW324285   1.261   3.506   3.931 -1.3933  1.1745 -2.0692
 6128SOL    MW424286   1.257   3.585   3.967  0.0414  0.4067 -0.0013
 6129SOL     OW24287   0.058   6.422   4.331  0.0848 -0.0810 -0.5579
 6129SOL    HW224288   0.086   6.356   4.268 -0.7198  1.9556 -3.2164
 6129SOL    HW324289   0.099   6.503   4.301 -1.2510  1.1980  0.8752
 6129SOL    MW424290   0.067   6.424   4.319 -0.1976  0.3565 -0.7196
 6130SOL     OW24291   1.108   1.023   0.020  0.0627 -0.6946 -0.6338
 6130SOL    HW224292   1.204   1.019   0.023  0.1403 -0.9795 -2.3575
 6130SOL    HW324293   1.089   1.111  -0.011 -0.2900 -0.3215  0.5968
 6130SOL    MW424294   1.118   1.034   0.017  0.0264 -0.6829 -0.6988
 6131SOL     OW24295   1.808   2.021   1.990 -0.0586  0.3916 -0.0998
 6131SOL    HW224296   1.831   2.035   2.081 -1.0137  0.7726  0.0937
 6131SOL    HW324297   1.768   2.104   1.962 -0.6279 -0.0328 -0.5756
 6131SOL    MW424298   1.806   2.034   1.998 -0.2598  0.3859 -0.1371
 6132SOL     OW24299   1.561   0.469   5.331 -0.0360 -0.0655 -0.2830
 6132SOL    HW224300   1.571   0.546   5.387  0.2636  0.3478 -0.8928
 6132SOL    HW324301   1.564   0.504   5.242 -0.7303 -0.6831 -0.5614
 6132SOL    MW424302   1.562   0.484   5.327 -0.0881 -0.0925 -0.4002
 6133SOL     OW24303   2.270   4.530   1.706  0.3253  0.0903  0.3829
 6133SOL    HW224304   2.301   4.514   1.796  0.5399 -2.2139 -0.0410
 6133SOL    HW324305   2.231   4.447   1.679 -1.5600  1.3325 -0.9852
 6133SOL    MW424306   2.269   4.517   1.715  0.1049 -0.0498  0.1465
 6134SOL     OW24307   4.428   5.618   4.049 -0.2102 -0.7464 -0.5590
 6134SOL    HW224308   4.420   5.695   3.992  0.1666  1.1757  1.8175
 6134SOL    HW324309   4.520   5.592   4.040  0.0773  0.0991 -0.1920
 6134SOL    MW424310   4.439   5.625   4.040 -0.1225 -0.3813 -0.1971
 6135SOL     OW24311   5.906   0.481   1.323 -0.4329 -0.0291  0.4394
 6135SOL    HW224312   5.830   0.484   1.381 -2.0748 -0.8543 -1.5554
 6135SOL    HW324313   5.933   0.390   1.324 -1.3561 -0.3546 -1.0939
 6135SOL    MW424314   5.900   0.470   1.331 -0.7713 -0.1809 -0.0261
 6136SOL     OW24315   4.144   3.177   0.503  0.0872  0.2203  0.3829
 6136SOL    HW224316   4.142   3.250   0.441  0.1730 -0.7449 -0.8217
 6136SOL    HW324317   4.059   3.179   0.546  0.0635  0.9786  0.3115
 6136SOL    MW424318   4.133   3.187   0.500  0.0954  0.1930  0.2145
 6137SOL     OW24319   2.954   0.641   6.028  0.0025  0.2107 -0.0129
 6137SOL    HW224320   2.859   0.648   6.029  0.0745  1.6830  1.8941
 6137SOL    HW324321   2.972   0.551   6.053 -0.8587 -0.4387 -1.5746
 6137SOL    MW424322   2.944   0.630   6.032 -0.1016  0.3193  0.0327
 6138SOL     OW24323   2.825   3.669   4.520 -0.3668  0.0593  0.4698
 6138SOL    HW224324   2.896   3.624   4.566  1.6883  0.5566 -2.0312
 6138SOL    HW324325   2.811   3.618   4.440  1.1762  2.9684 -1.8423
 6138SOL    MW424326   2.833   3.656   4.516  0.1079  0.5087 -0.1652
 6139SOL     OW24327   4.934   1.129   5.722  0.3761 -0.6574  0.1854
 6139SOL    HW224328   4.937   1.207   5.778  2.0037 -0.5916  0.0643
 6139SOL    HW324329   5.016   1.131   5.674 -0.1522 -1.7481 -0.8106
 6139SOL    MW424330   4.945   1.140   5.723  0.5212 -0.7926  0.0380
 6140SOL     OW24331   4.481   4.070   6.053  0.4737 -0.4903 -0.1749
 6140SOL    HW224332   4.537   4.009   6.102  0.7498 -1.5810 -1.7623
 6140SOL    HW324333   4.518   4.156   6.072  2.4678 -1.1405 -0.8074
 6140SOL    MW424334   4.494   4.073   6.062  0.7732 -0.7200 -0.4678
 6141SOL     OW24335   5.767   0.634   1.800  0.9544  0.1845  0.1885
 6141SOL    HW224336   5.822   0.671   1.869  0.4846 -1.4229  1.4921
 6141SOL    HW324337   5.749   0.544   1.829 -2.1370  0.5474 -0.3056
 6141SOL    MW424338   5.772   0.627   1.813  0.4845  0.0203  0.2953
 6142SOL     OW24339   6.328   2.236   6.415  0.2577 -0.1012  0.1091
 6142SOL    HW224340   6.419   2.232   6.387 -0.3630 -1.0281 -2.0085
 6142SOL    HW324341   6.308   2.330   6.419  1.1167  0.0995 -0.1329
 6142SOL    MW424342   6.337   2.248   6.412  0.2891 -0.1970 -0.2022
 6143SOL     OW24343   5.656   3.025   1.621  0.3259 -0.8747  0.0396
 6143SOL    HW224344   5.650   2.947   1.566  0.3567 -1.0930  0.3383
 6143SOL    HW324345   5.750   3.033   1.641  1.0263  1.7041 -3.4533
 6143SOL    MW424346   5.668   3.015   1.616  0.4224 -0.5633 -0.3818
 6144SOL     OW24347   1.539   5.805   3.584  0.3160  0.0886  0.1048
 6144SOL    HW224348   1.525   5.780   3.492 -0.7627  0.1857  0.2314
 6144SOL    HW324349   1.464   5.769   3.631  0.3645  0.8599  0.7965
 6144SOL    MW424350   1.527   5.797   3.578  0.1801  0.2032  0.2128
 6145SOL     OW24351   5.155   2.072   4.695  0.0553 -0.2450  0.7042
 6145SOL    HW224352   5.145   1.977   4.698 -1.0628 -0.1930 -0.4470
 6145SOL    HW324353   5.171   2.092   4.603 -1.8671  0.8381  0.5523
 6145SOL    MW424354   5.156   2.062   4.683 -0.3458 -0.0953  0.5323
 6146SOL     OW24355   2.608   3.902   2.973  0.6083  0.2022  0.9740
 6146SOL    HW224356   2.630   3.919   2.882  0.4748 -0.2918  0.8422
 6146SOL    HW324357   2.521   3.861   2.969  0.3055  0.8027  1.3730
 6146SOL    MW424358   2.599   3.899   2.961  0.5507  0.2162  1.0092
 6147SOL     OW24359   3.766   6.005   1.220 -0.7626 -0.4707  0.4597
 6147SOL    HW224360   3.706   5.935   1.243  0.6747 -2.5877 -1.6844
 6147SOL    HW324361   3.836   6.000   1.286 -0.8489 -0.8191  0.5224
 6147SOL    MW424362   3.768   5.995   1.232 -0.5844 -0.7960  0.1851
 6148SOL     OW24363   1.380   3.596   0.591 -0.4330 -0.9295 -0.3996
 6148SOL    HW224364   1.356   3.677   0.547 -1.9122 -0.6913  0.7582
 6148SOL    HW324365   1.349   3.527   0.532 -0.6670 -0.6408 -0.6178
 6148SOL    MW424366   1.373   3.597   0.577 -0.6590 -0.8600 -0.2757
 6149SOL     OW24367   0.140   2.730   0.768 -0.7693  0.1913  0.1629
 6149SOL    HW224368   0.168   2.642   0.793  0.2648  0.1125 -1.1886
 6149SOL    HW324369   0.210   2.787   0.799 -0.8607  0.4119 -0.0342
 6149SOL    MW424370   0.153   2.726   0.776 -0.6449  0.2100 -0.0414
 6150SOL     OW24371   0.274   3.032   5.951 -0.1098 -0.4335  0.2437
 6150SOL    HW224372   0.358   3.060   5.986  0.6395 -1.3069 -0.7590
 6150SOL    HW324373   0.240   3.109   5.906  0.2175 -0.1037  0.5530
 6150SOL    MW424374   0.281   3.046   5.949  0.0322 -0.5052  0.1522
 6151SOL     OW24375   4.091   2.129   5.127 -0.0402  0.4049  0.0110
 6151SOL    HW224376   4.083   2.204   5.068  0.9938  1.2172  0.8627
 6151SOL    HW324377   4.038   2.151   5.203 -0.5100 -0.1621 -0.1466
 6151SOL    MW424378   4.083   2.142   5.129  0.0342  0.4373  0.1026
 6152SOL     OW24379   3.971   1.119   5.999  0.3480 -0.1083 -0.3130
 6152SOL    HW224380   3.881   1.115   5.966  0.3032  0.9034 -0.3407
 6152SOL    HW324381   4.009   1.035   5.973 -0.8128 -0.8836  0.3803
 6152SOL    MW424382   3.964   1.108   5.991  0.1889 -0.0771 -0.2252
 6153SOL     OW24383   6.179   5.680   4.099 -0.1837  0.2420 -0.4294
 6153SOL    HW224384   6.197   5.728   4.180  1.2085 -1.9213  0.6417
 6153SOL    HW324385   6.084   5.668   4.099 -0.2606  0.7297  0.6300
 6153SOL    MW424386   6.169   5.684   4.110 -0.0101  0.0209 -0.1483
 6154SOL     OW24387   6.124   5.990   0.234 -0.0868 -0.0809 -0.2383
 6154SOL    HW224388   6.198   5.946   0.194 -0.3643 -0.9988  0.2271
 6154SOL    HW324389   6.153   6.010   0.323 -1.2071 -2.7185  0.8090
 6154SOL    MW424390   6.137   5.987   0.241 -0.2712 -0.5500 -0.0387
 6155SOL     OW24391   2.651   3.092   4.313  0.3053 -0.5169 -0.5807
 6155SOL    HW224392   2.676   3.114   4.403  2.0898 -1.6201 -0.7521
 6155SOL    HW324393   2.672   3.170   4.263 -1.4934  0.4162  0.0474
 6155SOL    MW424394   2.657   3.105   4.318  0.3034 -0.5393 -0.5204
 6156SOL     OW24395   5.241   4.332   1.198 -0.0911  0.3079  0.3486
 6156SOL    HW224396   5.153   4.303   1.223 -0.2779 -0.9358 -1.5329
 6156SOL    HW324397   5.299   4.287   1.260 -0.7368  0.6916  1.2484
 6156SOL    MW424398   5.237   4.322   1.210 -0.2010  0.1945  0.2191
 6157SOL     OW24399   4.355   5.333   6.328  0.4802 -0.1484  0.3795
 6157SOL    HW224400   4.430   5.365   6.378 -0.1472  0.0844  1.1959
 6157SOL    HW324401   4.317   5.411   6.289 -0.3782 -0.0125  1.4374
 6157SOL    MW424402   4.360   5.347   6.330  0.2842 -0.0998  0.6268
 6158SOL     OW24403   3.241   1.226   1.188 -0.4899 -0.1460  0.1004
 6158SOL    HW224404   3.213   1.138   1.162 -1.6401  0.5179 -1.0246
 6158SOL    HW324405   3.204   1.238   1.275  0.4682 -1.0971  0.6777
 6158SOL    MW424406   3.233   1.216   1.196 -0.5152 -0.1839  0.0281
 6159SOL     OW24407   6.237   4.901   3.405  0.2773 -0.1567  0.2508
 6159SOL    HW224408   6.180   4.825   3.411  1.9511 -1.5194 -0.1963
 6159SOL    HW324409   6.227   4.932   3.315 -0.4879  0.2507  0.4656
 6159SOL    MW424410   6.228   4.895   3.394  0.3972 -0.2828  0.2201
 6160SOL     OW24411   2.337   2.250   4.383  0.1507 -0.1166 -0.4044
 6160SOL    HW224412   2.382   2.167   4.393 -1.4598 -1.0268 -0.4443
 6160SOL    HW324413   2.347   2.293   4.468  0.4524 -0.6203 -0.1797
 6160SOL    MW424414   2.344   2.245   4.396 -0.0220 -0.3031 -0.3800
 6161SOL     OW24415   5.033   3.460   2.405  0.0086  0.3673  0.0560
 6161SOL    HW224416   5.031   3.534   2.345 -1.0892  0.4216  0.1379
 6161SOL    HW324417   5.005   3.385   2.352  0.0970  0.2080  0.2316
 6161SOL    MW424418   5.029   3.460   2.390 -0.1246  0.3535  0.0900
 6162SOL     OW24419   1.303   4.457   4.890 -0.1094 -0.5136  0.0730
 6162SOL    HW224420   1.352   4.461   4.808 -0.3042 -1.7036 -0.1319
 6162SOL    HW324421   1.371   4.448   4.958  0.4588  5.0692  0.7092
 6162SOL    MW424422   1.319   4.456   4.889 -0.0602  0.0660  0.1299
 6163SOL     OW24423   2.844   2.709   4.149  0.4334  0.2283 -0.0856
 6163SOL    HW224424   2.809   2.620   4.143  1.4363 -0.1894 -0.0523
 6163SOL    HW324425   2.772   2.762   4.181 -0.3600 -0.4637 -0.6959
 6163SOL    MW424426   2.830   2.704   4.152  0.4610  0.0819 -0.1617
 6164SOL     OW24427   1.916   5.718   1.291  0.6781 -0.1114  0.1731
 6164SOL    HW224428   1.921   5.790   1.229 -1.8618  0.2443  0.2798
 6164SOL    HW324429   2.006   5.688   1.301  1.6368  2.2619 -0.7754
 6164SOL    MW424430   1.928   5.723   1.284  0.4695  0.2487  0.0620
 6165SOL     OW24431   3.016   5.360   3.841 -0.7262  0.4115  0.2292
 6165SOL    HW224432   3.009   5.451   3.812 -0.5675  0.7428  1.1812
 6165SOL    HW324433   2.973   5.310   3.772 -0.9117  1.2178 -0.2621
 6165SOL    MW424434   3.009   5.366   3.828 -0.7297  0.5616  0.2900
 6166SOL     OW24435   2.228   0.935   3.508  0.2210  0.0669  0.0525
 6166SOL    HW224436   2.240   0.841   3.503 -0.3740 -0.1845  2.2132
 6166SOL    HW324437   2.216   0.963   3.417 -0.6235 -2.0857 -0.5556
 6166SOL    MW424438   2.228   0.926   3.495  0.0311 -0.2503  0.2574
 6167SOL     OW24439   1.215   1.313   5.909 -0.0227 -0.1060  0.1151
 6167SOL    HW224440   1.220   1.287   6.001 -1.6763  1.0885  0.5927
 6167SOL    HW324441   1.278   1.385   5.901  0.7843 -0.8019  0.0645
 6167SOL    MW424442   1.224   1.319   5.920 -0.1344 -0.0402  0.1715
 6168SOL     OW24443   2.218   4.167   4.857 -0.5954  0.2143 -0.3688
 6168SOL    HW224444   2.161   4.111   4.911  1.0364 -2.3538 -1.1358
 6168SOL    HW324445   2.211   4.131   4.769 -0.1788  1.8628 -1.1200
 6168SOL    MW424446   2.209   4.155   4.853 -0.3251  0.0929 -0.5691
 6169SOL     OW24447   4.279   3.024   4.129  0.5595  0.1085  0.4548
 6169SOL    HW224448   4.203   3.026   4.188  0.7850 -0.8239  0.7993
 6169SOL    HW324449   4.328   2.946   4.156 -0.2304 -1.3918 -2.0920
 6169SOL    MW424450   4.276   3.014   4.141  0.4850 -0.2125  0.1643
 6170SOL     OW24451   5.603   5.045   4.497 -0.7563  0.3194  0.1257
 6170SOL    HW224452   5.659   5.123   4.499  1.5519 -1.1307 -1.9952
 6170SOL    HW324453   5.607   5.011   4.587 -0.6860  1.8502  0.7406
 6170SOL    MW424454   5.611   5.051   4.509 -0.4425  0.3300 -0.0730
 6171SOL     OW24455   2.629   0.145   5.983 -0.3181 -0.0405  0.6898
 6171SOL    HW224456   2.545   0.179   5.953  0.6162  1.5717 -0.2266
 6171SOL    HW324457   2.687   0.221   5.983  1.5511 -1.3839 -0.2053
 6171SOL    MW424458   2.626   0.159   5.979  0.0518 -0.0051  0.4508
 6172SOL     OW24459   2.727   1.376   1.374 -0.3010  0.7524  0.2376
 6172SOL    HW224460   2.660   1.320   1.335 -0.4588  0.2839  1.1649
 6172SOL    HW324461   2.678   1.445   1.419 -0.1060  1.8304 -1.1377
 6172SOL    MW424462   2.712   1.378   1.375 -0.2961  0.8328  0.1785
 6173SOL     OW24463   5.295   3.534   0.789 -0.4160  0.1841 -0.5091
 6173SOL    HW224464   5.285   3.444   0.820  0.2916  0.4479  0.5207
 6173SOL    HW324465   5.275   3.588   0.865 -2.3870  0.9728 -1.5218
 6173SOL    MW424466   5.291   3.529   0.803 -0.5827  0.3229 -0.5068
 6174SOL     OW24467   0.172   3.061   3.661  0.1952 -0.1527  0.0577
 6174SOL    HW224468   0.138   3.010   3.588  1.6186 -0.1117 -0.6671
 6174SOL    HW324469   0.136   3.019   3.739  0.3118 -1.4668 -0.5769
 6174SOL    MW424470   0.162   3.049   3.662  0.3984 -0.3207 -0.1217
 6175SOL     OW24471   2.277   0.900   6.165 -0.9506  0.0885  0.0356
 6175SOL    HW224472   2.287   0.965   6.234  2.5865 -0.1575 -0.0321
 6175SOL    HW324473   2.222   0.832   6.203  1.9024 -0.6978  3.2925
 6175SOL    MW424474   2.271   0.900   6.179 -0.1075 -0.0477  0.4564
 6176SOL     OW24475   1.128   2.271   2.213 -0.7963  0.4600  0.5107
 6176SOL    HW224476   1.200   2.295   2.272 -1.6321 -0.3796  1.9269
 6176SOL    HW324477   1.102   2.354   2.173  0.2534  0.9443  0.7946
 6176SOL    MW424478   1.134   2.285   2.216 -0.7680  0.4131  0.7350
 6177SOL     OW24479   0.069   5.377   3.269 -0.0315 -0.4390  0.1529
 6177SOL    HW224480   0.084   5.467   3.296  1.1848 -0.6127  0.1446
 6177SOL    HW324481   0.110   5.324   3.337  0.2771 -0.9440 -0.4078
 6177SOL    MW424482   0.077   5.382   3.281  0.1697 -0.5285  0.0778
 6178SOL     OW24483   0.747   1.366   2.858  0.2026  0.1540  0.3408
 6178SOL    HW224484   0.814   1.298   2.854  1.1860  1.0553  0.9521
 6178SOL    HW324485   0.771   1.419   2.934  1.3869  3.1103 -1.9026
 6178SOL    MW424486   0.759   1.364   2.867  0.4886  0.6630  0.1254
 6179SOL     OW24487   3.654   0.818   0.147  0.3419  0.4597 -0.1449
 6179SOL    HW224488   3.602   0.786   0.073 -0.2071  1.7480 -0.3388
 6179SOL    HW324489   3.724   0.754   0.156  0.4765  0.3298 -1.8507
 6179SOL    MW424490   3.656   0.805   0.139  0.2872  0.6125 -0.3955
 6180SOL     OW24491   1.845   1.194   5.142 -0.3035 -0.6285  0.4010
 6180SOL    HW224492   1.831   1.103   5.115  1.4997 -1.0856  0.8992
 6180SOL    HW324493   1.936   1.197   5.172 -0.4506  1.2514  0.7918
 6180SOL    MW424494   1.855   1.182   5.143 -0.0850 -0.4408  0.5183
 6181SOL     OW24495   2.649   2.995   5.741 -0.5466 -0.4492  0.2801
 6181SOL    HW224496   2.697   2.983   5.660 -1.8725 -0.8163 -0.4838
 6181SOL    HW324497   2.628   3.089   5.743  2.0614  0.2058  1.7538
 6181SOL    MW424498   2.652   3.006   5.731 -0.3774 -0.4112  0.3738
 6182SOL     OW24499   2.463   1.638   2.883  0.3310  0.1899 -0.7096
 6182SOL    HW224500   2.426   1.689   2.811  0.5903  0.8749 -0.3677
 6182SOL    HW324501   2.484   1.553   2.845 -1.0521 -0.0134 -1.0504
 6182SOL    MW424502   2.461   1.634   2.869  0.1827  0.2535 -0.7094
 6183SOL     OW24503   0.893   3.980   2.755 -0.1815 -0.0621 -0.3327
 6183SOL    HW224504   0.885   3.989   2.661 -0.2926 -1.4160 -0.4706
 6183SOL    HW324505   0.985   3.957   2.769  0.1769  1.4891  0.0248
 6183SOL    MW424506   0.904   3.978   2.745 -0.1489 -0.0360 -0.3038
 6184SOL     OW24507   1.809   2.206   3.129 -0.1572 -0.0384 -0.1095
 6184SOL    HW224508   1.818   2.212   3.034  2.1130 -0.2918  0.0340
 6184SOL    HW324509   1.873   2.267   3.164 -1.1666  0.2837  1.2864
 6184SOL    MW424510   1.818   2.215   3.121  0.0091 -0.0293  0.0936
 6185SOL     OW24511   1.178   4.210   3.167  0.1169 -0.1551  0.0474
 6185SOL    HW224512   1.117   4.262   3.219 -0.4267 -2.3278  1.7417
 6185SOL    HW324513   1.123   4.143   3.126  1.1062 -0.9945  0.0631
 6185SOL    MW424514   1.163   4.208   3.168  0.1757 -0.5525  0.2730
 6186SOL     OW24515   3.270   2.016   1.347 -0.4947  0.2402 -0.1228
 6186SOL    HW224516   3.303   1.934   1.385 -1.9447  0.4555  1.7896
 6186SOL    HW324517   3.343   2.051   1.297  2.0004  0.3608  3.2660
 6186SOL    MW424518   3.284   2.010   1.345 -0.3568  0.2845  0.5766
 6187SOL     OW24519   5.176   5.050   6.098  0.8040  0.3754  0.0555
 6187SOL    HW224520   5.189   5.125   6.039  1.0573  0.0113 -0.3576
 6187SOL    HW324521   5.246   4.989   6.074  0.6278  0.0282  0.4278
 6187SOL    MW424522   5.187   5.052   6.087  0.8142  0.2815  0.0501
 6188SOL     OW24523   5.886   1.269   4.882  0.4371  0.4072  0.6754
 6188SOL    HW224524   5.956   1.327   4.912 -0.2657  0.5296  2.2022
 6188SOL    HW324525   5.898   1.263   4.788  1.1445  2.2286  0.6080
 6188SOL    MW424526   5.897   1.276   4.874  0.4377  0.6637  0.8680
 6189SOL     OW24527   0.153   5.232   0.771  0.1483  0.0808 -0.3597
 6189SOL    HW224528   0.142   5.300   0.838 -0.5143  0.5760 -0.9515
 6189SOL    HW324529   0.069   5.231   0.724  0.7806  0.1035 -1.5204
 6189SOL    MW424530   0.140   5.241   0.774  0.1443  0.1492 -0.5909
 6190SOL     OW24531   5.756   1.804   4.258  0.1370 -0.3981 -0.4247
 6190SOL    HW224532   5.663   1.815   4.238  0.2375  1.4920  0.0200
 6190SOL    HW324533   5.798   1.794   4.173 -0.2595  0.5897 -0.7448
 6190SOL    MW424534   5.749   1.804   4.244  0.0979 -0.0184 -0.4083
 6191SOL     OW24535   5.211   3.164   3.352  0.1398 -0.0494  0.2026
 6191SOL    HW224536   5.297   3.124   3.336 -0.5396 -2.0825  1.1694
 6191SOL    HW324537   5.186   3.202   3.269  1.7187  0.0577 -0.2613
 6191SOL    MW424538   5.219   3.164   3.339  0.2585 -0.3035  0.2689
 6192SOL     OW24539   5.274   0.552   5.729 -0.0597  0.7352  0.1309
 6192SOL    HW224540   5.306   0.543   5.639 -1.4123 -0.3138 -0.2799
 6192SOL    HW324541   5.346   0.594   5.776  2.0523 -1.7296 -0.6658
 6192SOL    MW424542   5.287   0.556   5.723  0.0405  0.2716 -0.0284
 6193SOL     OW24543   4.287   0.725   1.752 -0.3785 -0.2449 -0.2107
 6193SOL    HW224544   4.354   0.714   1.685 -0.1784  0.4066 -0.1282
 6193SOL    HW324545   4.334   0.711   1.835 -0.2943  0.3872 -0.1441
 6193SOL    MW424546   4.302   0.721   1.754 -0.3410 -0.0755 -0.1910
 6194SOL     OW24547   5.314   3.347   5.434 -0.5891  0.3545 -0.1781
 6194SOL    HW224548   5.368   3.427   5.431 -2.3865  1.7839  2.3566
 6194SOL    HW324549   5.235   3.370   5.385 -1.5076  0.5190  1.3221
 6194SOL    MW424550   5.311   3.361   5.427 -0.9474  0.5648  0.3542
 6195SOL     OW24551   6.007   2.751   4.534 -0.0412 -0.0774  0.6378
 6195SOL    HW224552   6.006   2.759   4.439 -0.3760 -2.1726  0.4033
 6195SOL    HW324553   5.916   2.733   4.558  0.1019  0.0638  1.3091
 6195SOL    MW424554   5.995   2.750   4.525 -0.0665 -0.3352  0.6955
 6196SOL     OW24555   1.204   4.437   2.450 -0.1024 -0.0017  0.1930
 6196SOL    HW224556   1.195   4.347   2.417 -0.2506  0.3023 -0.6056
 6196SOL    HW324557   1.224   4.489   2.373 -1.9053  0.9589  0.3356
 6196SOL    MW424558   1.205   4.432   2.436 -0.3598  0.1652  0.1064
 6197SOL     OW24559   0.587   5.907   3.428 -0.7079  0.3613  0.4526
 6197SOL    HW224560   0.657   5.972   3.436  1.3681 -1.5715 -0.9170
 6197SOL    HW324561   0.567   5.904   3.335 -0.5735 -1.0899  0.4447
 6197SOL    MW424562   0.594   5.915   3.417 -0.4163 -0.0852  0.2708
 6198SOL     OW24563   5.379   4.329   6.352  0.1076 -0.1074 -0.1989
 6198SOL    HW224564   5.377   4.282   6.269  2.4933 -0.0778 -0.3289
 6198SOL    HW324565   5.433   4.274   6.409  0.3607  0.9551  0.6204
 6198SOL    MW424566   5.386   4.315   6.349  0.4558  0.0367 -0.1080
 6199SOL     OW24567   2.760   2.173   1.350  0.3340  0.3887  0.0962
 6199SOL    HW224568   2.835   2.119   1.376 -0.4308 -0.2498  1.0590
 6199SOL    HW324569   2.683   2.118   1.367 -0.3298  0.5148 -2.1463
 6199SOL    MW424570   2.760   2.158   1.356  0.1455  0.3211 -0.0726
 6200SOL     OW24571   1.181   5.374   2.123  0.2111  0.5517 -0.0500
 6200SOL    HW224572   1.114   5.429   2.081 -1.0230 -0.2977  0.7325
 6200SOL    HW324573   1.147   5.285   2.116  1.6665 -0.0058 -0.3408
 6200SOL    MW424574   1.168   5.370   2.116  0.2403  0.3661  0.0149
 6201SOL     OW24575   0.529   2.597   5.466  0.8041  0.2675  0.3459
 6201SOL    HW224576   0.539   2.562   5.554  0.4532  0.8535  0.6200
 6201SOL    HW324577   0.564   2.686   5.471 -0.1555  0.6654  0.1523
 6201SOL    MW424578   0.535   2.604   5.478  0.6312  0.3973  0.3565
 6202SOL     OW24579   2.541   4.111   4.109 -0.2580 -0.3469  0.5870
 6202SOL    HW224580   2.507   4.193   4.146 -2.5420 -0.9977  0.0493
 6202SOL    HW324581   2.555   4.130   4.017  2.8162  0.4536  1.0887
 6202SOL    MW424582   2.539   4.124   4.102 -0.1537 -0.3271  0.5822
 6203SOL     OW24583   2.608   1.590   6.302 -0.1021 -0.4421  0.0096
 6203SOL    HW224584   2.551   1.654   6.347 -0.4061 -0.8101  0.1547
 6203SOL    HW324585   2.680   1.575   6.362 -0.6797 -1.1885  0.5386
 6203SOL    MW424586   2.610   1.597   6.316 -0.2184 -0.5891  0.0985
 6204SOL     OW24587   2.667   5.733   5.399  0.1965 -0.2302 -0.2686
 6204SOL    HW224588   2.724   5.798   5.440  2.1296 -1.0281 -1.5335
 6204SOL    HW324589   2.677   5.655   5.453 -1.3128  0.1777  0.6498
 6204SOL    MW424590   2.676   5.731   5.412  0.2524 -0.2816 -0.3143
 6205SOL     OW24591   0.774   1.751   4.280 -0.3155 -0.2109 -0.5731
 6205SOL    HW224592   0.738   1.756   4.191  0.2333 -2.3674 -0.9666
 6205SOL    HW324593   0.855   1.802   4.275 -1.0168  0.8983 -0.9031
 6205SOL    MW424594   0.780   1.758   4.267 -0.3356 -0.3490 -0.6685
 6206SOL     OW24595   2.199   1.681   4.074 -0.0082  0.4776  0.4704
 6206SOL    HW224596   2.247   1.757   4.041  0.4042 -0.7033 -1.9288
 6206SOL    HW324597   2.231   1.668   4.163  1.2771  1.9815  0.2638
 6206SOL    MW424598   2.209   1.690   4.081  0.2158  0.5202  0.1266
 6207SOL     OW24599   4.675   5.506   5.855  0.2857  0.4790 -0.2614
 6207SOL    HW224600   4.613   5.467   5.917  0.1946  0.1938 -0.5246
 6207SOL    HW324601   4.758   5.507   5.901  0.5882 -1.2698 -0.6938
 6207SOL    MW424602   4.678   5.501   5.869  0.3136  0.2106 -0.3532
 6208SOL     OW24603   1.282   5.955   4.550 -0.4178 -0.2090 -0.5203
 6208SOL    HW224604   1.329   6.028   4.510  1.6827 -1.3914 -0.3762
 6208SOL    HW324605   1.242   5.910   4.476 -0.1825  0.0651 -0.8214
 6208SOL    MW424606   1.283   5.959   4.535 -0.1096 -0.3288 -0.5410
 6209SOL     OW24607   2.931   0.447   2.092  0.0509  0.3471 -0.1614
 6209SOL    HW224608   3.005   0.499   2.061 -0.6724  1.1623 -0.5506
 6209SOL    HW324609   2.925   0.466   2.185  0.1632  0.4876 -0.1825
 6209SOL    MW424610   2.940   0.456   2.100 -0.0297  0.4732 -0.2155
 6210SOL     OW24611   3.624   3.101   0.060 -0.2676 -0.7380 -0.2366
 6210SOL    HW224612   3.659   3.110  -0.029  0.4504  0.2816  0.1287
 6210SOL    HW324613   3.533   3.076   0.047 -1.1170  2.5229 -1.3725
 6210SOL    MW424614   3.617   3.099   0.047 -0.2849 -0.1732 -0.3383
 6211SOL     OW24615   1.395   2.658   1.067 -0.0625 -0.2115 -0.5553
 6211SOL    HW224616   1.477   2.633   1.110  0.3080  2.4066  0.4734
 6211SOL    HW324617   1.418   2.663   0.974  0.4426 -1.2590 -0.4984
 6211SOL    MW424618   1.409   2.656   1.061  0.0530 -0.0043 -0.4121
 6212SOL     OW24619   1.439   4.152   5.212 -0.1519  0.5430 -0.5307
 6212SOL    HW224620   1.458   4.208   5.137 -0.5681  1.0855 -0.2398
 6212SOL    HW324621   1.361   4.190   5.252 -0.4684 -0.2719 -0.3451
 6212SOL    MW424622   1.431   4.164   5.207 -0.2486  0.5071 -0.4678
 6213SOL     OW24623   1.918   0.410   4.129 -0.0291 -0.0834  0.4490
 6213SOL    HW224624   1.926   0.492   4.080  0.9808 -0.0755  0.6017
 6213SOL    HW324625   2.005   0.398   4.168 -0.2623 -1.0768  0.6690
 6213SOL    MW424626   1.931   0.419   4.128  0.0733 -0.2134  0.4981
 6214SOL     OW24627   4.857   5.886   0.642 -0.1859  0.4231  0.0499
 6214SOL    HW224628   4.848   5.954   0.709 -1.2070 -2.6956  3.4121
 6214SOL    HW324629   4.937   5.839   0.666  0.3899  0.2017 -2.0596
 6214SOL    MW424630   4.867   5.888   0.654 -0.2447 -0.0176  0.2152
 6215SOL     OW24631   4.612   2.476   6.183 -0.3303  0.0420 -0.1275
 6215SOL    HW224632   4.565   2.437   6.109  0.4188 -0.8774 -0.1364
 6215SOL    HW324633   4.545   2.523   6.232 -1.1220 -0.6316 -0.5469
 6215SOL    MW424634   4.597   2.477   6.180 -0.3359 -0.1682 -0.1840
 6216SOL     OW24635   0.406   2.215   5.768  0.3152  0.1151 -0.0241
 6216SOL    HW224636   0.482   2.238   5.821  0.0301 -0.7509  0.7927
 6216SOL    HW324637   0.332   2.257   5.812  0.0750 -0.6186  0.2953
 6216SOL    MW424638   0.406   2.223   5.781  0.2459 -0.0960  0.1258
 6217SOL     OW24639   5.988   2.260   4.744  0.3923 -0.1436  0.1633
 6217SOL    HW224640   5.899   2.258   4.707  0.0328 -1.2031  1.0478
 6217SOL    HW324641   6.006   2.353   4.756 -0.7491  0.0736  0.3207
 6217SOL    MW424642   5.979   2.272   4.741  0.1943 -0.2547  0.3007
 6218SOL     OW24643   1.514   3.334   3.702 -0.4190  0.1474 -0.1041
 6218SOL    HW224644   1.443   3.326   3.765 -0.4613 -1.0608 -0.2833
 6218SOL    HW324645   1.549   3.245   3.693  0.8191  0.6356 -0.3657
 6218SOL    MW424646   1.509   3.321   3.709 -0.2612  0.0524 -0.1622
 6219SOL     OW24647   0.545   5.213   0.867 -0.0435 -0.0891 -0.2520
 6219SOL    HW224648   0.526   5.246   0.955 -1.4165 -0.3678 -0.4274
 6219SOL    HW324649   0.492   5.134   0.858  0.3460 -0.2589 -1.2126
 6219SOL    MW424650   0.536   5.207   0.877 -0.1732 -0.1483 -0.4019
 6220SOL     OW24651   1.749   0.595   4.833 -0.0855 -0.9445 -0.0542
 6220SOL    HW224652   1.742   0.588   4.738  0.9814 -2.8460 -0.0425
 6220SOL    HW324653   1.831   0.642   4.847 -0.1240 -0.8730 -0.0670
 6220SOL    MW424654   1.759   0.601   4.822  0.0502 -1.1860 -0.0543
 6221SOL     OW24655   3.956   1.800   4.768  0.0220  1.0368  0.4908
 6221SOL    HW224656   3.866   1.830   4.761 -0.5987  0.0415  3.1230
 6221SOL    HW324657   3.975   1.801   4.862  2.3333  0.0132  0.1094
 6221SOL    MW424658   3.947   1.804   4.779  0.2450  0.7704  0.7878
 6222SOL     OW24659   2.754   4.262   2.615 -0.1045 -0.6735 -0.6077
 6222SOL    HW224660   2.710   4.341   2.582 -1.3705 -1.2067 -0.2701
 6222SOL    HW324661   2.736   4.195   2.550 -3.4748 -1.9998  1.4189
 6222SOL    MW424662   2.745   4.264   2.602 -0.7162 -0.9188 -0.2958
 6223SOL     OW24663   1.720   2.032   4.765 -0.2266 -0.2969  0.2917
 6223SOL    HW224664   1.737   1.968   4.696 -1.0591 -0.1213 -0.0797
 6223SOL    HW324665   1.806   2.071   4.783 -0.1767  0.5527 -1.5322
 6223SOL    MW424666   1.734   2.029   4.758 -0.3298 -0.1616  0.0020
 6224SOL     OW24667   3.337   2.604   4.071  0.0089 -0.1611  0.1124
 6224SOL    HW224668   3.384   2.683   4.045 -1.6259  0.0939 -2.3326
 6224SOL    HW324669   3.274   2.634   4.137  0.0850  0.3625 -0.0514
 6224SOL    MW424670   3.335   2.618   4.076 -0.1967 -0.0584 -0.2318
 6225SOL     OW24671   2.614   2.889   0.318 -0.0658 -0.2746 -0.6757
 6225SOL    HW224672   2.696   2.919   0.357  0.5781  0.5606 -2.5626
 6225SOL    HW324673   2.632   2.885   0.224 -1.9962 -0.7432 -1.0714
 6225SOL    MW424674   2.627   2.892   0.311 -0.2355 -0.2262 -0.9769
 6226SOL     OW24675   6.363   5.222   0.572  0.1353 -0.4243 -0.2312
 6226SOL    HW224676   6.311   5.302   0.559 -0.0486 -0.8807 -2.9263
 6226SOL    HW324677   6.298   5.152   0.572  0.4929 -0.7570 -0.5594
 6226SOL    MW424678   6.348   5.223   0.570  0.1582 -0.5284 -0.6301
 6227SOL     OW24679   2.664   5.517   4.321 -0.0007 -0.0067  0.5243
 6227SOL    HW224680   2.759   5.511   4.324  0.0588  0.6504  0.3175
 6227SOL    HW324681   2.635   5.501   4.411  0.1333 -2.4139  0.1988
 6227SOL    MW424682   2.672   5.514   4.333  0.0248 -0.2376  0.4540
 6228SOL     OW24683   1.232   1.095   2.928  0.4663 -0.5036  0.4920
 6228SOL    HW224684   1.177   1.022   2.955  1.2533 -1.1382  0.4183
 6228SOL    HW324685   1.283   1.062   2.854  2.4180 -0.6274  1.8152
 6228SOL    MW424686   1.231   1.081   2.922  0.8276 -0.6036  0.6568
 6229SOL     OW24687   1.710   5.747   6.200  0.1625  0.2323  0.2615
 6229SOL    HW224688   1.694   5.674   6.259  0.6364 -0.8738 -0.9259
 6229SOL    HW324689   1.624   5.790   6.192 -0.5940 -1.3411 -0.4823
 6229SOL    MW424690   1.696   5.743   6.207  0.1253 -0.1213  0.0067
 6230SOL     OW24691   2.988   4.942   1.800 -0.6042 -0.1914  0.3120
 6230SOL    HW224692   2.968   4.865   1.853 -2.3803 -1.0266 -1.4494
 6230SOL    HW324693   2.931   5.011   1.834  0.3114  0.1186  1.2781
 6230SOL    MW424694   2.978   4.941   1.812 -0.7177 -0.2607  0.2071
 6231SOL     OW24695   1.895   4.791   3.808  0.1009 -0.2250 -0.3681
 6231SOL    HW224696   1.928   4.772   3.720 -1.3704  0.8876 -1.1998
 6231SOL    HW324697   1.894   4.887   3.813 -0.4606 -0.2661  0.6127
 6231SOL    MW424698   1.899   4.801   3.797 -0.1673 -0.0837 -0.3484
 6232SOL     OW24699   6.179   3.959   5.910  0.2550 -0.6251  0.1731
 6232SOL    HW224700   6.175   4.054   5.927  0.5221 -1.1025  3.7604
 6232SOL    HW324701   6.271   3.937   5.923 -0.2062 -1.6817  2.1265
 6232SOL    MW424702   6.191   3.969   5.914  0.2294 -0.8275  0.9041
 6233SOL     OW24703   2.755   0.927   6.298 -0.3791  0.4316  0.1536
 6233SOL    HW224704   2.740   0.909   6.205 -2.2390  3.2463 -0.2099
 6233SOL    HW324705   2.742   0.842   6.341 -2.3172 -0.4080 -1.8641
 6233SOL    MW424706   2.751   0.913   6.291 -0.8802  0.6922 -0.1606
 6234SOL     OW24707   2.062   6.323   4.268  0.2010 -0.3322  0.3449
 6234SOL    HW224708   2.141   6.304   4.318  0.4428  0.4339  0.2627
 6234SOL    HW324709   2.032   6.408   4.300 -0.7420 -0.7322  0.5577
 6234SOL    MW424710   2.068   6.332   4.279  0.1085 -0.2839  0.3621
 6235SOL     OW24711   5.279   6.181   1.528  0.1704 -0.7057 -0.0480
 6235SOL    HW224712   5.264   6.167   1.621 -0.7237  0.9807  0.1033
 6235SOL    HW324713   5.367   6.219   1.524 -0.4885  0.9551  0.3370
 6235SOL    MW424714   5.289   6.184   1.540 -0.0345 -0.2641  0.0228
 6236SOL     OW24715   0.505   5.247   1.961  0.0522 -0.1379  0.1049
 6236SOL    HW224716   0.589   5.253   1.914 -0.0992  2.3744  0.0234
 6236SOL    HW324717   0.529   5.248   2.054  0.1641 -1.2562  0.1036
 6236SOL    MW424718   0.520   5.248   1.967  0.0470  0.0460  0.0940
 6237SOL     OW24719   2.993   0.829   5.240 -0.1321 -0.0808  0.3819
 6237SOL    HW224720   2.994   0.892   5.169  3.0810  0.8106  1.0601
 6237SOL    HW324721   3.042   0.754   5.206  0.2828 -0.1842  1.1802
 6237SOL    MW424722   2.999   0.827   5.227  0.3466  0.0232  0.5767
 6238SOL     OW24723   2.109   4.211   0.412 -0.3577  0.9381  0.4453
 6238SOL    HW224724   2.040   4.157   0.375 -0.6248  0.2058  1.9495
 6238SOL    HW324725   2.134   4.167   0.493  2.3650  0.7916 -0.3622
 6238SOL    MW424726   2.103   4.198   0.418 -0.0337  0.8222  0.5372
 6239SOL     OW24727   2.303   2.082   2.755 -0.0403  0.1605  0.1147
 6239SOL    HW224728   2.300   2.062   2.662 -1.1857  0.3523  0.0984
 6239SOL    HW324729   2.257   2.166   2.763  2.1932  1.4388  0.5501
 6239SOL    MW424730   2.297   2.091   2.744  0.1032  0.3545  0.1700
 6240SOL     OW24731   5.939   1.378   3.941  0.1051 -0.8420  0.4171
 6240SOL    HW224732   5.928   1.308   3.877 -1.5586  0.1897 -0.4824
 6240SOL    HW324733   5.884   1.353   4.015 -2.5535  0.5898 -0.9138
 6240SOL    MW424734   5.931   1.366   3.943 -0.4652 -0.5170  0.1228
 6241SOL     OW24735   6.369   2.400   4.767 -0.3383  0.3964  0.6577
 6241SOL    HW224736   6.335   2.466   4.707 -0.6263  1.1096  1.5795
 6241SOL    HW324737   6.367   2.443   4.853  0.7698 -0.3303  1.0649
 6241SOL    MW424738   6.365   2.415   4.770 -0.2301  0.3946  0.8331
 6242SOL     OW24739   5.393   6.101   5.360 -0.3709 -0.3372 -0.1099
 6242SOL    HW224740   5.487   6.082   5.367 -0.3159  0.4081  2.2217
 6242SOL    HW324741   5.387   6.168   5.293  1.0688  1.0824  1.0755
 6242SOL    MW424742   5.405   6.107   5.352 -0.1737 -0.0515  0.3541
 6243SOL     OW24743   6.115   1.198   2.425 -0.2000  0.0304  0.0076
 6243SOL    HW224744   6.036   1.217   2.475 -0.3851  0.2301 -0.3581
 6243SOL    HW324745   6.124   1.271   2.364 -1.5994 -1.5729 -2.2784
 6243SOL    MW424746   6.106   1.210   2.424 -0.4090 -0.1548 -0.3423
 6244SOL     OW24747   4.108   3.941   2.762 -0.1504 -0.0515  0.3022
 6244SOL    HW224748   4.128   3.851   2.788 -1.5128 -0.2130  0.8450
 6244SOL    HW324749   4.068   3.980   2.840  0.8127  1.1707  0.2179
 6244SOL    MW424750   4.105   3.934   2.776 -0.2031  0.0885  0.3627
 6245SOL     OW24751   4.896   2.945   3.195 -0.4081  0.6528  0.3966
 6245SOL    HW224752   4.964   2.887   3.228  0.2726  0.8760 -0.5736
 6245SOL    HW324753   4.842   2.890   3.139 -0.8333  0.5577  0.8887
 6245SOL    MW424754   4.898   2.930   3.192 -0.3744  0.6697  0.3335
 6246SOL     OW24755   4.996   5.428   3.273 -0.8187  0.2468 -0.0956
 6246SOL    HW224756   5.070   5.394   3.323 -1.2200 -0.3612  0.0940
 6246SOL    HW324757   4.922   5.425   3.334 -0.8559  1.5207 -0.0601
 6246SOL    MW424758   4.996   5.423   3.288 -0.8765  0.3346 -0.0659
 6247SOL     OW24759   5.414   4.254   4.666 -0.4075  0.2026 -0.3015
 6247SOL    HW224760   5.444   4.236   4.755  1.1279  0.9520 -0.6193
 6247SOL    HW324761   5.395   4.347   4.665 -0.4027  0.2008 -0.7478
 6247SOL    MW424762   5.416   4.264   4.677 -0.2043  0.3013 -0.4023
 6248SOL     OW24763   3.754   5.444   0.280 -0.0159 -0.2131  0.4176
 6248SOL    HW224764   3.724   5.410   0.196 -1.3975  0.2959  0.6800
 6248SOL    HW324765   3.806   5.373   0.318  1.9510  0.1049 -1.5039
 6248SOL    MW424766   3.757   5.430   0.274  0.0613 -0.1040  0.1987
 6249SOL     OW24767   5.697   3.101   1.995 -0.0691 -0.1630  0.0941
 6249SOL    HW224768   5.671   3.084   2.085  0.8147 -0.8381  0.2364
 6249SOL    HW324769   5.680   3.020   1.948 -0.3368  0.1200 -0.3087
 6249SOL    MW424770   5.692   3.088   2.000  0.0122 -0.2148  0.0598
 6250SOL     OW24771   3.748   5.446   2.740 -0.0976  0.5871  0.1548
 6250SOL    HW224772   3.697   5.364   2.745 -1.0315  1.0396 -1.3816
 6250SOL    HW324773   3.796   5.449   2.823 -0.3758 -1.2982  0.4310
 6250SOL    MW424774   3.747   5.435   2.752 -0.2575  0.3981 -0.0115
 6251SOL     OW24775   3.027   4.849   3.411 -0.4348 -1.0000  0.0871
 6251SOL    HW224776   3.119   4.857   3.435 -0.4117  1.0455 -0.5011
 6251SOL    HW324777   3.027   4.830   3.318 -0.5731  1.0904 -0.3842
 6251SOL    MW424778   3.039   4.848   3.402 -0.4500 -0.4544 -0.0527
 6252SOL     OW24779   4.676   1.878   6.149 -0.1803  0.3475  0.2809
 6252SOL    HW224780   4.764   1.848   6.171 -0.2891 -0.8871 -0.8303
 6252SOL    HW324781   4.618   1.822   6.199 -0.3497 -0.1956 -0.4969
 6252SOL    MW424782   4.680   1.867   6.158 -0.2170  0.1130  0.0317
 6253SOL     OW24783   5.182   5.392   2.143 -0.4519  0.1243  0.5251
 6253SOL    HW224784   5.107   5.333   2.150 -0.0732 -0.2473  1.7060
 6253SOL    HW324785   5.249   5.341   2.098 -0.3393 -0.1400  0.9859
 6253SOL    MW424786   5.181   5.377   2.138 -0.3871  0.0404  0.7417
 6254SOL     OW24787   1.643   4.822   1.005  0.3244 -0.1239  0.2464
 6254SOL    HW224788   1.629   4.846   0.913  0.9415 -0.9164 -0.0711
 6254SOL    HW324789   1.734   4.794   1.008 -0.3709 -2.6335  0.4940
 6254SOL    MW424790   1.653   4.821   0.993  0.3141 -0.5596  0.2372
 6255SOL     OW24791   3.565   6.050   4.425 -0.0095 -0.0616  0.7300
 6255SOL    HW224792   3.501   5.992   4.467 -0.2938 -0.7031 -0.5421
 6255SOL    HW324793   3.550   6.135   4.465 -1.2996 -0.3234  0.8624
 6255SOL    MW424794   3.555   6.054   4.436 -0.2172 -0.1808  0.5796
 6256SOL     OW24795   0.526   3.567   4.377  0.0343  0.3874  0.7658
 6256SOL    HW224796   0.538   3.662   4.379  1.2562  0.3329 -1.3724
 6256SOL    HW324797   0.611   3.532   4.350 -0.9773 -1.1198 -0.6890
 6256SOL    MW424798   0.539   3.575   4.374  0.0620  0.1814  0.2918
 6257SOL     OW24799   0.618   4.600   2.762  0.4331 -0.2147  0.4571
 6257SOL    HW224800   0.662   4.681   2.790  0.3340  0.7529 -1.9831
 6257SOL    HW324801   0.529   4.609   2.796  0.4895  0.5781  0.4121
 6257SOL    MW424802   0.612   4.612   2.770  0.4274  0.0176  0.1292
 6258SOL     OW24803   3.898   0.390   0.357  0.1923 -0.5115  0.1128
 6258SOL    HW224804   3.938   0.473   0.330  3.2009 -1.6245  0.7595
 6258SOL    HW324805   3.911   0.332   0.282 -0.5787 -0.8203  0.2089
 6258SOL    MW424806   3.905   0.393   0.343  0.4875 -0.6991  0.2108
 6259SOL     OW24807   5.899   3.605   0.639 -0.2010 -0.3856  0.2483
 6259SOL    HW224808   5.809   3.635   0.630  0.2240  0.3665 -2.0274
 6259SOL    HW324809   5.912   3.543   0.568  1.3674  0.3323 -0.1416
 6259SOL    MW424810   5.889   3.601   0.629  0.0620 -0.1917 -0.1034
 6260SOL     OW24811   1.345   5.515   1.129  0.4591  0.5236 -0.1014
 6260SOL    HW224812   1.394   5.568   1.066  2.6495 -1.6071 -0.3517
 6260SOL    HW324813   1.260   5.500   1.087  1.4949  0.0262 -2.1480
 6260SOL    MW424814   1.341   5.520   1.115  0.8848  0.1769 -0.4045
 6261SOL     OW24815   6.237   6.429   4.504 -0.0500 -0.1246 -0.2881
 6261SOL    HW224816   6.315   6.462   4.461  1.2128 -0.9082  1.3064
 6261SOL    HW324817   6.249   6.452   4.597 -0.7855 -1.9159  0.3019
 6261SOL    MW424818   6.249   6.437   4.511  0.0196 -0.4643  0.0001
 6262SOL     OW24819   4.955   4.227   2.315 -0.9530  0.2199  0.7645
 6262SOL    HW224820   4.869   4.250   2.281 -1.9015 -1.2158  2.0836
 6262SOL    HW324821   5.015   4.245   2.242 -2.4824  0.2637 -0.5291
 6262SOL    MW424822   4.952   4.233   2.301 -1.2799  0.0363  0.7679
 6263SOL     OW24823   5.846   4.949   1.589  0.1964  0.2254  0.4958
 6263SOL    HW224824   5.898   4.913   1.517 -1.7883 -0.8711 -0.4836
 6263SOL    HW324825   5.873   4.898   1.665  1.1962  0.3163  0.2218
 6263SOL    MW424826   5.857   4.937   1.589  0.0665  0.0928  0.3304
 6264SOL     OW24827   1.523   6.377   1.136 -0.6094 -0.4441  0.1821
 6264SOL    HW224828   1.526   6.465   1.098 -0.7322 -1.1320 -1.5010
 6264SOL    HW324829   1.434   6.347   1.120 -0.3307 -1.1910 -0.0113
 6264SOL    MW424830   1.512   6.385   1.129 -0.5889 -0.6334 -0.0655
 6265SOL     OW24831   5.436   2.012   2.689  0.2544  0.3793  0.4457
 6265SOL    HW224832   5.487   1.993   2.768 -0.1829  0.4284  0.7426
 6265SOL    HW324833   5.379   1.936   2.678 -2.1990  1.8027  2.1896
 6265SOL    MW424834   5.435   2.000   2.698 -0.1270  0.5736  0.7150
 6266SOL     OW24835   4.197   5.008   2.432 -0.3919 -0.0169  0.0908
 6266SOL    HW224836   4.264   4.958   2.386 -0.9728  0.2917 -1.1385
 6266SOL    HW324837   4.241   5.042   2.510  0.7832 -0.1150 -0.5128
 6266SOL    MW424838   4.212   5.006   2.436 -0.3135  0.0109 -0.1510
 6267SOL     OW24839   2.203   2.591   2.357  0.6697 -0.1022  0.3656
 6267SOL    HW224840   2.259   2.548   2.422  1.7424  1.2860  0.4134
 6267SOL    HW324841   2.116   2.554   2.372  1.7975 -3.9007 -1.0469
 6267SOL    MW424842   2.199   2.580   2.368  0.9600 -0.4202  0.1855
 6268SOL     OW24843   3.772   2.975   0.280  0.1758 -0.1826 -0.4894
 6268SOL    HW224844   3.736   2.979   0.191 -0.3529 -2.4701 -0.4380
 6268SOL    HW324845   3.864   2.952   0.267  0.6725  1.5754 -0.4572
 6268SOL    MW424846   3.779   2.973   0.267  0.1716 -0.2524 -0.4784
 6269SOL     OW24847   1.665   3.817   6.118  0.4490  0.4651 -0.4226
 6269SOL    HW224848   1.681   3.860   6.034 -0.8925  1.7591 -0.0593
 6269SOL    HW324849   1.746   3.833   6.168  0.6341  1.1071 -0.9047
 6269SOL    MW424850   1.678   3.825   6.113  0.2964  0.7206 -0.4382
 6270SOL     OW24851   5.651   3.371   3.205  0.0403  0.2627  0.1092
 6270SOL    HW224852   5.733   3.407   3.172 -0.8210  1.4060 -0.8928
 6270SOL    HW324853   5.632   3.298   3.147  0.3090  0.0418  0.2982
 6270SOL    MW424854   5.659   3.366   3.193 -0.0379  0.3844  0.0019
 6271SOL     OW24855   4.165   2.503   0.712 -0.2407 -0.4788 -0.0255
 6271SOL    HW224856   4.084   2.452   0.709 -0.5974  0.1077 -0.8267
 6271SOL    HW324857   4.207   2.485   0.627  0.5984 -0.9702  0.4797
 6271SOL    MW424858   4.160   2.494   0.700 -0.1770 -0.4662 -0.0646
 6272SOL     OW24859   2.714   4.104   2.393  0.2724 -0.5468 -0.1491
 6272SOL    HW224860   2.796   4.075   2.352 -0.5742 -1.7770 -1.0454
 6272SOL    HW324861   2.651   4.035   2.373 -0.7919 -0.0312  1.2451
 6272SOL    MW424862   2.717   4.091   2.385  0.0203 -0.6411 -0.0834
 6273SOL     OW24863   4.975   4.824   0.577  0.3830  0.1924  0.3815
 6273SOL    HW224864   4.888   4.855   0.602  0.7705 -0.8577  3.4786
 6273SOL    HW324865   4.959   4.742   0.531 -0.3128 -0.9944  2.5892
 6273SOL    MW424866   4.961   4.818   0.574  0.3423 -0.1027  1.0814
 6274SOL     OW24867   5.824   0.085   2.492 -0.1786 -0.0930  0.0643
 6274SOL    HW224868   5.822   0.178   2.513  0.1621 -0.3928  1.5562
 6274SOL    HW324869   5.915   0.067   2.470  0.1128 -0.3672  1.3838
 6274SOL    MW424870   5.836   0.095   2.492 -0.0952 -0.1687  0.4352
 6275SOL     OW24871   4.278   4.547   2.136  0.0724  0.1723  0.1193
 6275SOL    HW224872   4.281   4.589   2.050  2.6329  0.6451  0.3646
 6275SOL    HW324873   4.277   4.620   2.198 -1.8377 -0.1622  0.5543
 6275SOL    MW424874   4.278   4.563   2.133  0.1582  0.1905  0.2091
 6276SOL     OW24875   5.486   1.353   1.075  0.3928  0.0722  0.2517
 6276SOL    HW224876   5.439   1.383   0.997 -0.2003 -0.0316  0.5608
 6276SOL    HW324877   5.422   1.362   1.146  1.3333  1.4524  0.9828
 6276SOL    MW424878   5.471   1.358   1.074  0.4386  0.2406  0.3890
 6277SOL     OW24879   5.015   5.421   0.721  0.2012 -0.2492 -0.1108
 6277SOL    HW224880   5.020   5.444   0.814  0.0871  0.5122 -0.2826
 6277SOL    HW324881   4.999   5.327   0.720 -2.1036  0.0732  0.6898
 6277SOL    MW424882   5.014   5.412   0.733 -0.1179 -0.1062 -0.0278
 6278SOL     OW24883   4.871   5.405   5.342  0.5101 -0.4033  0.3652
 6278SOL    HW224884   4.871   5.324   5.393  1.1889 -1.4863 -1.2831
 6278SOL    HW324885   4.961   5.413   5.310  0.3832  0.8723  0.2931
 6278SOL    MW424886   4.883   5.395   5.344  0.5829 -0.3779  0.1382
 6279SOL     OW24887   5.421   2.071   6.102  0.4533 -0.1322 -0.3493
 6279SOL    HW224888   5.400   2.029   6.186 -0.7418  0.2905 -0.4105
 6279SOL    HW324889   5.503   2.031   6.075 -0.7097 -2.5738 -0.5042
 6279SOL    MW424890   5.429   2.060   6.110  0.1422 -0.3986 -0.3778
 6280SOL     OW24891   4.762   6.168   5.099  0.0174  0.1555 -0.0650
 6280SOL    HW224892   4.809   6.245   5.065  0.9024 -0.4047 -0.1488
 6280SOL    HW324893   4.754   6.110   5.023 -0.0645 -0.1115  0.1479
 6280SOL    MW424894   4.767   6.170   5.085  0.1234  0.0463 -0.0480
 6281SOL     OW24895   1.089   5.287   3.008  0.1218 -0.2149 -0.3977
 6281SOL    HW224896   0.998   5.265   3.028 -0.2156  0.1734 -1.4326
 6281SOL    HW324897   1.138   5.255   3.084 -0.8260 -0.7747  0.0087
 6281SOL    MW424898   1.083   5.280   3.021 -0.0478 -0.2375 -0.4806
 6282SOL     OW24899   1.562   5.644   4.127  1.1380  0.1833  0.0141
 6282SOL    HW224900   1.620   5.695   4.184  1.1886 -0.1347  0.2514
 6282SOL    HW324901   1.586   5.553   4.144  2.0517  0.1051 -1.4640
 6282SOL    MW424902   1.573   5.639   4.137  1.2652  0.1310 -0.1496
 6283SOL     OW24903   1.213   4.200   5.816  0.0654 -0.4424 -0.3498
 6283SOL    HW224904   1.150   4.128   5.810 -0.8559  0.3960 -1.3165
 6283SOL    HW324905   1.183   4.253   5.890 -0.5831  0.1290 -1.0050
 6283SOL    MW424906   1.200   4.197   5.825 -0.1417 -0.2564 -0.5638
 6284SOL     OW24907   4.127   3.989   6.258 -0.4113 -0.0049  0.1139
 6284SOL    HW224908   4.221   3.997   6.272 -0.4753  0.0491  0.5231
 6284SOL    HW324909   4.108   4.048   6.185 -0.0409 -0.4373 -0.3373
 6284SOL    MW424910   4.137   3.997   6.250 -0.3708 -0.0548  0.1084
 6285SOL     OW24911   2.056   2.914   4.036  0.0482 -0.2400 -0.3550
 6285SOL    HW224912   2.068   2.864   4.117  0.8778  0.8443  0.2108
 6285SOL    HW324913   2.143   2.945   4.013 -0.5663  1.8375 -0.0878
 6285SOL    MW424914   2.069   2.911   4.044  0.0766  0.1772 -0.2451
 6286SOL     OW24915   4.410   1.733   1.646  0.1606  0.1902 -0.1445
 6286SOL    HW224916   4.361   1.651   1.648  0.2688  0.0409 -1.8664
 6286SOL    HW324917   4.499   1.708   1.672  0.0462 -0.1314 -0.0532
 6286SOL    MW424918   4.415   1.719   1.649  0.1597  0.1281 -0.3596
 6287SOL     OW24919   5.058   3.406   0.134  0.5281 -0.0055 -0.1108
 6287SOL    HW224920   5.127   3.376   0.076  0.9862 -0.9736  0.9087
 6287SOL    HW324921   5.014   3.326   0.163 -1.6510  0.6055 -1.4443
 6287SOL    MW424922   5.061   3.391   0.130  0.3010 -0.0526 -0.1522
 6288SOL     OW24923   4.400   5.083   0.854  0.0565  0.3087  0.4059
 6288SOL    HW224924   4.352   5.146   0.908  0.0220 -0.2327  1.0268
 6288SOL    HW324925   4.344   5.006   0.853  1.3963 -0.7672  2.1366
 6288SOL    MW424926   4.387   5.081   0.861  0.2287  0.0953  0.7161
 6289SOL     OW24927   2.012   1.771   5.895 -0.1775  0.1666 -0.2957
 6289SOL    HW224928   1.932   1.722   5.915 -0.3299  0.3768 -0.3913
 6289SOL    HW324929   2.027   1.757   5.801  1.1555 -1.7402  0.1527
 6289SOL    MW424930   2.004   1.763   5.885 -0.0217 -0.0572 -0.2492
 6290SOL     OW24931   2.578   2.493   1.828 -0.0872 -0.3507 -0.5616
 6290SOL    HW224932   2.597   2.502   1.734  1.0297  1.9030 -0.1910
 6290SOL    HW324933   2.626   2.415   1.854  2.3314  0.7703 -1.3026
 6290SOL    MW424934   2.587   2.484   1.819  0.3793  0.0946 -0.6105
 6291SOL     OW24935   2.072   3.189   2.688  0.2608  0.2309  0.3395
 6291SOL    HW224936   2.132   3.208   2.615 -0.7185  1.5280 -0.1662
 6291SOL    HW324937   2.010   3.126   2.651  0.9333 -0.6460  0.6785
 6291SOL    MW424938   2.072   3.183   2.673  0.2203  0.2863  0.3175
 6292SOL     OW24939   2.193   6.083   2.612 -0.6053 -0.0980  0.8332
 6292SOL    HW224940   2.263   6.039   2.660 -0.3064 -1.5387 -0.8021
 6292SOL    HW324941   2.143   6.011   2.572 -1.3870  0.9952 -0.2154
 6292SOL    MW424942   2.195   6.067   2.613 -0.6690 -0.1439  0.4791
 6293SOL     OW24943   1.774   5.011   0.170  0.1542 -0.2819  0.1147
 6293SOL    HW224944   1.812   4.984   0.086  0.0385 -0.0779 -0.0057
 6293SOL    HW324945   1.797   4.941   0.231 -0.8290 -1.0429 -0.3709
 6293SOL    MW424946   1.782   4.998   0.167  0.0092 -0.3554  0.0348
 6294SOL     OW24947   4.365   0.616   1.457  0.3393  0.3121 -0.8677
 6294SOL    HW224948   4.301   0.681   1.427 -0.2938 -0.7459 -1.8745
 6294SOL    HW324949   4.450   0.655   1.436  0.3666  3.3942  3.7254
 6294SOL    MW424950   4.368   0.630   1.450  0.2593  0.5792 -0.3945
 6295SOL     OW24951   4.234   1.276   0.590  0.1011 -0.7214 -0.1214
 6295SOL    HW224952   4.248   1.217   0.664 -1.6543 -0.2039  0.6775
 6295SOL    HW324953   4.144   1.258   0.562 -0.5115  1.5603  0.1919
 6295SOL    MW424954   4.224   1.266   0.596 -0.2113 -0.3521  0.0253
 6296SOL     OW24955   0.225   2.639   2.893 -0.1479 -0.5533  0.0228
 6296SOL    HW224956   0.225   2.600   2.980  1.0914  1.0966  0.8211
 6296SOL    HW324957   0.301   2.600   2.849 -0.1738 -0.6261  0.0421
 6296SOL    MW424958   0.235   2.629   2.899  0.0122 -0.3452  0.1307
 6297SOL     OW24959   5.835   5.894   4.895  0.5856  0.1224 -0.3119
 6297SOL    HW224960   5.907   5.839   4.927  1.4303  1.3168 -0.0638
 6297SOL    HW324961   5.878   5.957   4.837 -0.3340  0.5835 -0.4988
 6297SOL    MW424962   5.850   5.895   4.892  0.5757  0.3408 -0.3039
 6298SOL     OW24963   3.993   1.690   6.117 -0.0275 -0.0289  0.1218
 6298SOL    HW224964   3.946   1.666   6.037 -0.4806  1.4320 -0.0872
 6298SOL    HW324965   3.926   1.686   6.185  0.2102 -0.6579  0.3218
 6298SOL    MW424966   3.978   1.686   6.115 -0.0559  0.0808  0.1206
 6299SOL     OW24967   4.775   1.496   6.064  0.2802  0.4927  0.2971
 6299SOL    HW224968   4.837   1.457   6.002 -1.2354 -0.6483 -0.5528
 6299SOL    HW324969   4.716   1.424   6.086 -0.7240  1.5494  1.1309
 6299SOL    MW424970   4.776   1.481   6.059 -0.0522  0.4815  0.2950
 6300SOL     OW24971   5.807   2.058   2.179  0.1225  0.0606  0.1513
 6300SOL    HW224972   5.784   2.117   2.251  1.7910  0.3192  0.5023
 6300SOL    HW324973   5.893   2.024   2.202 -0.5913 -2.1824 -0.2796
 6300SOL    MW424974   5.815   2.061   2.191  0.2485 -0.2012  0.1408
 6301SOL     OW24975   4.094   4.673   1.133  0.3968  0.1954  0.0633
 6301SOL    HW224976   4.017   4.619   1.150  0.6740 -0.3627 -0.4328
 6301SOL    HW324977   4.126   4.643   1.048 -0.4954  2.3745 -1.1239
 6301SOL    MW424978   4.088   4.662   1.124  0.3156  0.4093 -0.1588
 6302SOL     OW24979   0.558   4.774   1.050  0.4984 -0.2535  0.6740
 6302SOL    HW224980   0.540   4.778   0.956 -0.4237  0.1474  0.8593
 6302SOL    HW324981   0.476   4.744   1.089  0.8334 -0.2929  1.3694
 6302SOL    MW424982   0.545   4.771   1.043  0.4210 -0.2058  0.7902
 6303SOL     OW24983   5.125   2.750   4.994 -0.0422 -0.5736 -0.0739
 6303SOL    HW224984   5.080   2.761   5.077 -0.3303 -0.8437 -0.1886
 6303SOL    HW324985   5.216   2.736   5.017 -0.1287 -0.6861  0.1995
 6303SOL    MW424986   5.131   2.749   5.008 -0.0916 -0.6241 -0.0529
 6304SOL     OW24987   0.248   3.039   5.037  0.9288 -0.3691 -0.1161
 6304SOL    HW224988   0.191   3.067   4.965 -0.9287  1.0439  1.8120
 6304SOL    HW324989   0.245   2.943   5.034  0.0156 -0.3273 -1.2162
 6304SOL    MW424990   0.240   3.030   5.027  0.5633 -0.1771 -0.0069
 6305SOL     OW24991   1.185   4.196   0.017 -0.4324  0.1973 -0.1765
 6305SOL    HW224992   1.236   4.242  -0.050 -1.0814 -0.2927 -1.0203
 6305SOL    HW324993   1.175   4.261   0.087  0.1187  0.7754 -0.6110
 6305SOL    MW424994   1.190   4.211   0.017 -0.4453  0.2090 -0.3451
 6306SOL     OW24995   1.423   3.351   2.158 -0.2243 -0.3818  0.3241
 6306SOL    HW224996   1.356   3.420   2.156 -1.2976 -1.2897  2.3625
 6306SOL    HW324997   1.460   3.355   2.246  1.0890 -1.1477 -0.1645
 6306SOL    MW424998   1.419   3.361   2.169 -0.1926 -0.6027  0.5286
 6307SOL     OW24999   4.201   0.554   4.452 -0.0832 -0.2422  0.1742
 6307SOL    HW225000   4.244   0.624   4.402 -1.0365  0.4520  0.2902
 6307SOL    HW325001   4.246   0.474   4.425 -0.1041  0.2082 -1.2595
 6307SOL    MW425002   4.213   0.553   4.442 -0.2117 -0.0912  0.0004
 6308SOL     OW25003   4.764   1.122   6.415 -0.4509 -0.3388 -0.2811
 6308SOL    HW225004   4.795   1.204   6.453 -0.0564 -0.7947  0.3943
 6308SOL    HW325005   4.788   1.129   6.322  0.8480 -0.2836  0.0421
 6308SOL    MW425006   4.772   1.134   6.408 -0.2275 -0.3917 -0.1494
 6309SOL     OW25007   3.945   1.856   4.337 -0.3453 -0.2019  0.5010
 6309SOL    HW225008   3.907   1.924   4.392  0.2310  0.3325  0.2416
 6309SOL    HW325009   4.010   1.814   4.393 -2.1790 -2.0102  1.4088
 6309SOL    MW425010   3.949   1.859   4.352 -0.5112 -0.3700  0.5865
 6310SOL     OW25011   4.861   0.015   3.250 -0.2426 -0.2830 -0.0916
 6310SOL    HW225012   4.915   0.045   3.323 -1.6447 -0.6299  1.1465
 6310SOL    HW325013   4.909   0.041   3.171  2.1886 -1.4564  0.9122
 6310SOL    MW425014   4.874   0.022   3.249 -0.1069 -0.4836  0.2042
 6311SOL     OW25015   1.358   4.552   0.007 -0.0235  0.7044 -0.3420
 6311SOL    HW225016   1.427   4.552   0.073 -1.9716  1.4070  1.8315
 6311SOL    HW325017   1.356   4.642  -0.026 -0.2256  0.8286 -0.0021
 6311SOL    MW425018   1.367   4.564   0.012 -0.3072  0.8135 -0.0104
 6312SOL     OW25019   0.158   1.871   4.350 -0.7686 -0.2595  0.2699
 6312SOL    HW225020   0.220   1.816   4.304  0.3201  2.7249 -2.1393
 6312SOL    HW325021   0.072   1.839   4.322 -0.1568  0.5695 -2.9544
 6312SOL    MW425022   0.155   1.860   4.340 -0.5442  0.2437 -0.4734
 6313SOL     OW25023   3.927   2.888   4.510 -0.1174  0.2735  0.2211
 6313SOL    HW225024   3.847   2.940   4.522  0.2238  0.9737 -0.4260
 6313SOL    HW325025   3.947   2.854   4.597  0.0120  1.7840  0.8241
 6313SOL    MW425026   3.919   2.890   4.523 -0.0553  0.5652  0.2153
 6314SOL     OW25027   4.840   1.543   5.625 -0.6711 -0.0757  0.4413
 6314SOL    HW225028   4.806   1.595   5.552 -2.4973 -0.3051  1.0766
 6314SOL    HW325029   4.817   1.593   5.703  0.1665 -0.4382  0.9414
 6314SOL    MW425030   4.833   1.557   5.626 -0.8015 -0.1538  0.5911
 6315SOL     OW25031   2.058   0.511   1.197 -0.1545  0.3086  0.2199
 6315SOL    HW225032   1.991   0.446   1.176  1.4920 -0.9355 -1.5355
 6315SOL    HW325033   2.111   0.471   1.265  1.2525 -0.5562 -1.3145
 6315SOL    MW425034   2.057   0.497   1.203  0.2484  0.0303 -0.2142
 6316SOL     OW25035   6.149   6.059   6.008  0.1521 -0.6473 -0.1069
 6316SOL    HW225036   6.153   6.109   6.090  1.7826 -2.4650  1.0023
 6316SOL    HW325037   6.158   5.968   6.035 -3.3597 -1.7584 -1.9711
 6316SOL    MW425038   6.150   6.054   6.023 -0.0961 -1.0337 -0.2065
 6317SOL     OW25039   3.856   6.372   4.595  0.2706  0.2305  0.1902
 6317SOL    HW225040   3.779   6.351   4.542  0.3656 -2.1420  0.8886
 6317SOL    HW325041   3.909   6.292   4.594  1.8992  1.2290  1.1485
 6317SOL    MW425042   3.853   6.359   4.588  0.4980  0.0492  0.4088
 6318SOL     OW25043   3.394   3.750   4.498  0.6177  0.3514  0.2524
 6318SOL    HW225044   3.351   3.784   4.576  0.0419  0.6521 -0.1845
 6318SOL    HW325045   3.480   3.794   4.496  0.0285  1.5413 -0.1086
 6318SOL    MW425046   3.400   3.760   4.508  0.4640  0.5480  0.1472
 6319SOL     OW25047   0.054   0.721   5.699 -0.3542  0.5557 -0.6275
 6319SOL    HW225048   0.032   0.786   5.765 -0.2848  1.0571 -1.0902
 6319SOL    HW325049   0.071   0.641   5.748  0.4693  1.1164  0.0221
 6319SOL    MW425050   0.053   0.719   5.714 -0.2364  0.6959 -0.6028
 6320SOL     OW25051   2.318   4.887   2.999 -0.6448 -0.2748 -0.3982
 6320SOL    HW225052   2.405   4.905   2.964 -0.2455 -2.3603 -0.6282
 6320SOL    HW325053   2.267   4.965   2.978  1.2677  1.2231  0.2076
 6320SOL    MW425054   2.323   4.899   2.992 -0.3398 -0.3523 -0.3486
 6321SOL     OW25055   1.364   3.669   1.045 -0.0931  0.1795  0.0098
 6321SOL    HW225056   1.357   3.628   1.131 -1.6947 -0.4871 -0.3984
 6321SOL    HW325057   1.451   3.643   1.014  0.9388  1.2675  1.8015
 6321SOL    MW425058   1.375   3.660   1.052 -0.1683  0.2351  0.1924
 6322SOL     OW25059   0.940   3.082   5.860  0.0156  0.0129 -0.0156
 6322SOL    HW225060   0.969   3.140   5.790 -0.3170 -0.7752 -0.8346
 6322SOL    HW325061   0.856   3.119   5.888 -0.7306 -0.6544 -1.2820
 6322SOL    MW425062   0.933   3.094   5.854 -0.1267 -0.1791 -0.2907
 6323SOL     OW25063   0.434   1.378   0.568  0.0097  1.0168 -0.2330
 6323SOL    HW225064   0.431   1.426   0.485 -0.2191  2.2382  0.4636
 6323SOL    HW325065   0.487   1.301   0.549 -0.6556  0.8932 -1.7077
 6323SOL    MW425066   0.441   1.374   0.554 -0.1083  1.1617 -0.3357
 6324SOL     OW25067   1.093   2.623   1.884 -0.1889  0.2689  0.1115
 6324SOL    HW225068   1.122   2.593   1.971  1.2774  0.5819 -0.2470
 6324SOL    HW325069   1.046   2.548   1.848 -1.2290  0.2901  1.3479
 6324SOL    MW425070   1.091   2.609   1.891 -0.1326  0.3130  0.2273
 6325SOL     OW25071   3.706   3.569   3.334  0.2131  0.0577 -0.2028
 6325SOL    HW225072   3.786   3.522   3.313  1.6308  1.7211  1.1521
 6325SOL    HW325073   3.707   3.647   3.278  0.4189  0.9128  0.9462
 6325SOL    MW425074   3.717   3.574   3.324  0.4273  0.3900  0.1276
 6326SOL     OW25075   1.606   1.538   2.422  0.3166 -0.1355  0.3477
 6326SOL    HW225076   1.697   1.566   2.422  0.7893 -1.4371 -1.4841
 6326SOL    HW325077   1.564   1.590   2.490  2.6267 -0.1751  1.8984
 6326SOL    MW425078   1.613   1.548   2.431  0.6837 -0.3124  0.3106
 6327SOL     OW25079   3.611   0.979   4.878  0.2697 -0.5264 -0.5818
 6327SOL    HW225080   3.538   0.933   4.918 -0.2438  1.1984  0.5849
 6327SOL    HW325081   3.683   0.970   4.940 -0.1529  1.0715  0.2020
 6327SOL    MW425082   3.611   0.972   4.891  0.1462 -0.0880 -0.3245
 6328SOL     OW25083   5.172   6.390   2.659  0.6861 -0.0079 -0.1155
 6328SOL    HW225084   5.097   6.360   2.711 -0.1194 -0.0863 -1.2756
 6328SOL    HW325085   5.206   6.466   2.707 -1.5686  1.4693 -0.7080
 6328SOL    MW425086   5.166   6.396   2.672  0.2823  0.1766 -0.3467
 6329SOL     OW25087   5.670   0.099   0.447  0.1736 -0.0659  0.2895
 6329SOL    HW225088   5.722   0.142   0.379 -1.2408 -0.5519 -1.1681
 6329SOL    HW325089   5.625   0.171   0.492 -0.4605  0.1562 -0.6705
 6329SOL    MW425090   5.671   0.114   0.444 -0.0967 -0.1007 -0.0295
 6330SOL     OW25091   1.772   5.497   1.192  0.6187 -1.1138 -0.4405
 6330SOL    HW225092   1.823   5.561   1.240  1.6092 -3.2799  1.6205
 6330SOL    HW325093   1.806   5.499   1.103  0.6948  1.0597 -0.3925
 6330SOL    MW425094   1.783   5.505   1.187  0.7594 -1.1128 -0.1622
 6331SOL     OW25095   2.176   1.829   1.198  0.4234  0.4418 -0.5197
 6331SOL    HW225096   2.164   1.853   1.290  0.1878 -0.1937 -0.3825
 6331SOL    HW325097   2.094   1.785   1.174  1.0417 -0.6692 -0.6221
 6331SOL    MW425098   2.163   1.826   1.207  0.4739  0.2114 -0.5151
 6332SOL     OW25099   6.191   3.076   4.397 -0.0440  0.5348  0.0683
 6332SOL    HW225100   6.208   3.143   4.463 -0.4338  0.2930  0.4163
 6332SOL    HW325101   6.255   3.094   4.328  0.8264  0.3596  0.8196
 6332SOL    MW425102   6.202   3.087   4.397  0.0194  0.4797  0.2134
 6333SOL     OW25103   5.643   6.329   0.083 -0.5451  0.4957  0.1512
 6333SOL    HW225104   5.698   6.307   0.159  1.1448 -1.4067 -1.5017
 6333SOL    HW325105   5.585   6.254   0.074  0.9319 -0.4981 -1.7997
 6333SOL    MW425106   5.643   6.316   0.092 -0.1272  0.1136 -0.3242
 6334SOL     OW25107   1.851   3.090   4.153 -0.2610  0.8335 -0.0846
 6334SOL    HW225108   1.905   3.028   4.104 -2.4623 -0.2876 -1.2019
 6334SOL    HW325109   1.864   3.065   4.245 -0.4150 -0.7228 -0.4637
 6334SOL    MW425110   1.860   3.079   4.159 -0.5718  0.4803 -0.2821
 6335SOL     OW25111   1.187   0.395   3.708 -0.2165 -0.2205 -0.2743
 6335SOL    HW225112   1.163   0.420   3.797  0.0764 -0.6451 -0.0723
 6335SOL    HW325113   1.275   0.358   3.716 -0.2899 -0.4973 -0.7004
 6335SOL    MW425114   1.196   0.394   3.721 -0.1875 -0.3130 -0.3039
 6336SOL     OW25115   0.403   4.249   5.225  0.3038  0.2502  0.1721
 6336SOL    HW225116   0.459   4.245   5.148  0.1881  1.0673  0.0396
 6336SOL    HW325117   0.403   4.159   5.259  0.7690 -0.0033 -0.4764
 6336SOL    MW425118   0.410   4.237   5.220  0.3499  0.3245  0.0691
 6337SOL     OW25119   5.407   4.395   4.005  0.3555  0.0764  0.2403
 6337SOL    HW225120   5.472   4.328   3.985 -1.2911 -1.1691 -1.2958
 6337SOL    HW325121   5.438   4.473   3.959  0.9397 -0.4038 -0.1987
 6337SOL    MW425122   5.419   4.397   3.996  0.2153 -0.1513 -0.0203
 6338SOL     OW25123   1.278   1.488   3.270  0.3711 -0.1086 -0.7565
 6338SOL    HW225124   1.264   1.489   3.365  0.6692  1.1488 -0.7000
 6338SOL    HW325125   1.253   1.400   3.242 -2.4858  0.3307  0.0829
 6338SOL    MW425126   1.272   1.477   3.279  0.0335  0.1153 -0.6383
 6339SOL     OW25127   3.620   0.945   2.918  0.0407 -0.3310  0.1146
 6339SOL    HW225128   3.530   0.939   2.949  0.4433 -0.5005  1.2776
 6339SOL    HW325129   3.640   1.039   2.921 -0.4995 -0.1404 -1.3766
 6339SOL    MW425130   3.610   0.957   2.922  0.0225 -0.3282  0.0713
 6340SOL     OW25131   1.676   1.087   1.080  0.3198  0.1953  0.4821
 6340SOL    HW225132   1.725   1.083   1.162 -0.8398  2.7781  1.3732
 6340SOL    HW325133   1.710   1.164   1.034  0.0956 -0.5020 -0.9302
 6340SOL    MW425134   1.687   1.096   1.084  0.1372  0.4441  0.4133
 6341SOL     OW25135   0.839   4.441   2.213  0.1224 -0.3343  0.5959
 6341SOL    HW225136   0.832   4.443   2.118 -1.1980 -0.4576  0.6739
 6341SOL    HW325137   0.913   4.499   2.233 -0.9564  1.4805 -0.3836
 6341SOL    MW425138   0.848   4.449   2.204 -0.1942 -0.1111  0.4769
 6342SOL     OW25139   0.256   3.662   5.514  0.5586  0.3252 -0.1114
 6342SOL    HW225140   0.290   3.606   5.444  1.6121 -0.0489  0.6775
 6342SOL    HW325141   0.161   3.664   5.499  0.6180 -0.8356 -0.7646
 6342SOL    MW425142   0.248   3.655   5.503  0.7055  0.1227 -0.0935
 6343SOL     OW25143   5.144   5.662   4.516 -0.1467  0.0766  0.4957
 6343SOL    HW225144   5.123   5.694   4.428  0.1111 -1.1029 -0.0145
 6343SOL    HW325145   5.069   5.688   4.570 -0.2773  0.8676 -0.0558
 6343SOL    MW425146   5.131   5.670   4.511 -0.1299  0.0253  0.3556
 6344SOL     OW25147   4.348   0.455   2.948  0.0673  0.7674  0.4185
 6344SOL    HW225148   4.264   0.478   2.986  0.8539  1.3084  1.9309
 6344SOL    HW325149   4.346   0.360   2.939 -0.5773  0.7502  0.7245
 6344SOL    MW425150   4.337   0.446   2.952  0.0861  0.8365  0.6584
 6345SOL     OW25151   5.147   6.131   0.571  0.2339 -0.1537 -0.0617
 6345SOL    HW225152   5.182   6.220   0.564  0.5055 -0.2390  0.1670
 6345SOL    HW325153   5.116   6.125   0.662  0.5011 -0.3924  0.0153
 6345SOL    MW425154   5.148   6.142   0.582  0.3050 -0.1964 -0.0213
 6346SOL     OW25155   5.656   2.311   5.793  0.1535  0.3312 -0.3923
 6346SOL    HW225156   5.748   2.296   5.771  0.0527 -1.6832  0.3603
 6346SOL    HW325157   5.610   2.236   5.755 -0.7048 -0.4596  2.0546
 6346SOL    MW425158   5.662   2.299   5.785  0.0269 -0.0389  0.0298
 6347SOL     OW25159   4.418   0.533   4.180 -0.4653  0.8263  0.5922
 6347SOL    HW225160   4.452   0.593   4.246 -0.1750  0.5873  0.6618
 6347SOL    HW325161   4.473   0.455   4.188 -0.6604  0.6592  0.3130
 6347SOL    MW425162   4.430   0.530   4.190 -0.4527  0.7727  0.5645
 6348SOL     OW25163   3.576   2.897   0.463 -0.2807 -0.4088  0.4902
 6348SOL    HW225164   3.651   2.916   0.408 -0.7373 -1.3405 -0.4833
 6348SOL    HW325165   3.506   2.953   0.429 -1.1984 -2.5763 -1.3977
 6348SOL    MW425166   3.577   2.907   0.452 -0.4620 -0.8177  0.1127
 6349SOL     OW25167   0.097   5.715   5.485 -0.8235 -0.6582 -0.1528
 6349SOL    HW225168   0.095   5.761   5.402  1.2991  1.1898  0.7132
 6349SOL    HW325169   0.012   5.733   5.525 -0.6228  1.2791 -0.5088
 6349SOL    MW425170   0.085   5.723   5.480 -0.5170 -0.1588 -0.0855
 6350SOL     OW25171   5.729   2.657   1.177  0.0343 -0.3504  0.0364
 6350SOL    HW225172   5.775   2.591   1.126  0.1092 -1.1225  1.0789
 6350SOL    HW325173   5.637   2.649   1.151 -0.1537 -1.7273  1.0586
 6350SOL    MW425174   5.723   2.648   1.167  0.0194 -0.6340  0.3088
 6351SOL     OW25175   5.889   0.653   0.849  0.3273 -0.3919  0.6732
 6351SOL    HW225176   5.812   0.709   0.839  0.6575 -0.2013 -0.9022
 6351SOL    HW325177   5.912   0.662   0.942  0.0541  1.6608  0.5919
 6351SOL    MW425178   5.882   0.662   0.860  0.3348 -0.0959  0.4546
 6352SOL     OW25179   5.602   1.027   0.963  0.3571 -0.8401 -0.2133
 6352SOL    HW225180   5.588   1.120   0.982 -1.0341 -1.0491 -0.1300
 6352SOL    HW325181   5.631   0.990   1.046  1.1209 -0.4535 -0.2979
 6352SOL    MW425182   5.604   1.035   0.976  0.2743 -0.8167 -0.2135
 6353SOL     OW25183   1.603   5.747   1.181  0.0772  0.0606 -0.0631
 6353SOL    HW225184   1.675   5.684   1.185 -0.7851 -1.1243 -1.7615
 6353SOL    HW325185   1.531   5.704   1.229 -1.0682 -1.1409 -2.6714
 6353SOL    MW425186   1.603   5.733   1.188 -0.1877 -0.2543 -0.6313
 6354SOL     OW25187   4.531   0.032   3.795 -0.2373 -0.1970  0.3637
 6354SOL    HW225188   4.572  -0.031   3.854 -0.2405 -0.4889  0.0613
 6354SOL    HW325189   4.483   0.092   3.852  0.5368  0.0946  0.7197
 6354SOL    MW425190   4.530   0.032   3.810 -0.1356 -0.1970  0.3708
 6355SOL     OW25191   4.225   3.827   5.718  0.1042  0.4468  0.4783
 6355SOL    HW225192   4.266   3.850   5.801  2.3206 -0.2169 -0.3591
 6355SOL    HW325193   4.245   3.735   5.706  1.4120  0.9356 -1.5946
 6355SOL    MW425194   4.233   3.818   5.727  0.5692  0.4237  0.0944
 6356SOL     OW25195   0.884   3.407   5.918 -0.2644  0.3110  0.0133
 6356SOL    HW225196   0.864   3.489   5.872 -1.1419  1.1848  1.8435
 6356SOL    HW325197   0.859   3.424   6.009 -1.1588 -2.2376  0.3130
 6356SOL    MW425198   0.878   3.420   5.924 -0.4982  0.0900  0.2943
 6357SOL     OW25199   4.430   2.442   5.560 -0.2974  0.1232  0.2077
 6357SOL    HW225200   4.353   2.405   5.517 -0.7177  2.2531 -1.0068
 6357SOL    HW325201   4.396   2.512   5.616  0.6187 -0.0872  1.0722
 6357SOL    MW425202   4.415   2.446   5.562 -0.2320  0.3764  0.1615
 6358SOL     OW25203   0.653   2.047   1.708 -0.1240 -0.0216 -0.0413
 6358SOL    HW225204   0.746   2.041   1.730 -0.3131 -2.1840  0.3863
 6358SOL    HW325205   0.608   2.041   1.793 -0.6764  0.4911 -0.2862
 6358SOL    MW425206   0.659   2.045   1.722 -0.2218 -0.2393 -0.0172
 6359SOL     OW25207   5.048   1.739   3.724  0.0867 -0.2685 -0.5550
 6359SOL    HW225208   5.137   1.706   3.734  0.1181  0.1142  0.5652
 6359SOL    HW325209   5.002   1.711   3.803 -0.3068  0.9990 -0.3019
 6359SOL    MW425210   5.054   1.731   3.735  0.0390 -0.0508 -0.3738
 6360SOL     OW25211   4.628   2.048   5.597 -0.1371  0.3346  0.1671
 6360SOL    HW225212   4.586   2.082   5.676 -1.1564 -1.7054  0.5776
 6360SOL    HW325213   4.715   2.020   5.626 -0.0515  0.7091  0.2772
 6360SOL    MW425214   4.634   2.049   5.611 -0.2603  0.1148  0.2358
 6361SOL     OW25215   1.862   2.049   4.005  0.2721  0.2834  0.4111
 6361SOL    HW225216   1.898   1.967   4.039 -2.1559 -2.1979 -2.3693
 6361SOL    HW325217   1.783   2.064   4.056 -1.2336 -1.2464 -1.3330
 6361SOL    MW425218   1.857   2.040   4.016 -0.2469 -0.2458 -0.1858
 6362SOL     OW25219   0.704   6.036   0.357  0.1220  0.3604  0.0295
 6362SOL    HW225220   0.770   6.103   0.340 -0.9557  1.4515 -0.0149
 6362SOL    HW325221   0.623   6.074   0.324 -0.6153 -0.7485  0.5147
 6362SOL    MW425222   0.702   6.050   0.350 -0.1175  0.3581  0.0877
 6363SOL     OW25223   6.427   2.685   6.070 -0.1045  0.1445  0.6276
 6363SOL    HW225224   6.407   2.779   6.075  0.5279  0.2213  2.2033
 6363SOL    HW325225   6.517   2.678   6.100 -0.3235 -1.0248  1.0561
 6363SOL    MW425226   6.436   2.696   6.075 -0.0500  0.0004  0.8920
 6364SOL     OW25227   0.656   5.642   1.138 -0.2083 -0.1199 -0.4390
 6364SOL    HW225228   0.700   5.560   1.117  0.4024  0.6582 -2.3537
 6364SOL    HW325229   0.637   5.682   1.053  0.0513  2.0174  0.4551
 6364SOL    MW425230   0.659   5.636   1.124 -0.0935  0.2648 -0.5737
 6365SOL     OW25231   2.308   1.065   1.961  0.0459 -0.2381 -0.2333
 6365SOL    HW225232   2.379   1.115   1.920 -0.4867  0.8803  0.1715
 6365SOL    HW325233   2.288   0.996   1.898 -0.2841  1.0230 -1.5750
 6365SOL    MW425234   2.315   1.063   1.947 -0.0679  0.0758 -0.3569
 6366SOL     OW25235   0.408   6.002   1.622  0.0296  0.4376 -0.6734
 6366SOL    HW225236   0.328   6.018   1.673  0.7681 -1.1203  1.1487
 6366SOL    HW325237   0.474   6.057   1.663 -0.1255  1.9779 -2.3898
 6366SOL    MW425238   0.407   6.011   1.634  0.1065  0.4353 -0.6595
 6367SOL     OW25239   3.022   3.437   2.492 -0.2326 -0.2279 -0.4017
 6367SOL    HW225240   3.039   3.484   2.573 -0.4491 -0.4678 -0.2176
 6367SOL    HW325241   2.953   3.374   2.514 -0.9735  0.3576 -1.0062
 6367SOL    MW425242   3.016   3.434   2.505 -0.3589 -0.1823 -0.4571
 6368SOL     OW25243   3.012   3.031   5.202  0.2297 -0.4216 -0.5986
 6368SOL    HW225244   3.020   2.945   5.244 -0.3746 -0.5543 -0.7392
 6368SOL    HW325245   3.095   3.042   5.156 -0.4252 -1.8503 -2.2492
 6368SOL    MW425246   3.024   3.021   5.201  0.0636 -0.6276 -0.8349
 6369SOL     OW25247   4.633   0.336   1.737 -0.0252  0.0869  0.0676
 6369SOL    HW225248   4.551   0.343   1.785 -0.2666 -0.1202 -0.3143
 6369SOL    HW325249   4.619   0.387   1.658  0.1027 -0.2147 -0.1492
 6369SOL    MW425250   4.621   0.343   1.733 -0.0402  0.0197 -0.0114
 6370SOL     OW25251   0.362   1.774   3.459  0.0193  0.2256 -0.4032
 6370SOL    HW225252   0.355   1.744   3.368  0.5002  1.2361 -0.7867
 6370SOL    HW325253   0.287   1.830   3.472 -0.6724 -0.8006  0.1996
 6370SOL    MW425254   0.351   1.777   3.448 -0.0085  0.2235 -0.3743
 6371SOL     OW25255   6.279   5.830   3.211 -0.1495  0.1201  0.8372
 6371SOL    HW225256   6.257   5.763   3.276 -0.8996 -0.0647  0.4077
 6371SOL    HW325257   6.208   5.824   3.147  0.5769  0.3082  0.0103
 6371SOL    MW425258   6.267   5.820   3.211 -0.1526  0.1205  0.6715
 6372SOL     OW25259   0.395   2.888   6.341  0.1176 -0.4219  0.2308
 6372SOL    HW225260   0.462   2.823   6.363 -0.2312 -1.0030 -0.4044
 6372SOL    HW325261   0.349   2.904   6.424  0.4568 -0.6838  0.4720
 6372SOL    MW425262   0.397   2.882   6.355  0.1163 -0.5331  0.1788
 6373SOL     OW25263   3.076   2.250   5.000 -0.2712 -0.0837 -0.8744
 6373SOL    HW225264   2.987   2.284   5.004 -0.1431  0.1604  1.5149
 6373SOL    HW325265   3.118   2.303   4.932 -1.9469 -0.3068 -2.1458
 6373SOL    MW425266   3.070   2.262   4.992 -0.4754 -0.0809 -0.7269
 6374SOL     OW25267   5.499   1.995   0.249 -0.2591  0.3756 -0.0322
 6374SOL    HW225268   5.435   2.049   0.294 -0.5751 -0.8155  0.9953
 6374SOL    HW325269   5.580   2.047   0.249 -1.1192  1.7926 -1.1360
 6374SOL    MW425270   5.501   2.009   0.255 -0.4143  0.4054 -0.0423
 6375SOL     OW25271   2.581   2.329   3.747 -0.0244  0.0567 -0.4497
 6375SOL    HW225272   2.573   2.357   3.839 -0.9958  0.5415 -0.6611
 6375SOL    HW325273   2.517   2.383   3.701 -0.0318 -0.6690 -1.3083
 6375SOL    MW425274   2.571   2.340   3.753 -0.1535  0.0249 -0.5909
 6376SOL     OW25275   0.264   4.223   3.994  0.0049  0.2489  0.2851
 6376SOL    HW225276   0.333   4.198   4.055 -0.2320  1.6246  1.1691
 6376SOL    HW325277   0.252   4.317   4.009 -1.0235  0.3363 -0.9148
 6376SOL    MW425278   0.272   4.232   4.004 -0.1620  0.4419  0.2434
 6377SOL     OW25279   2.321   2.450   5.744  0.0151  0.4265  0.0347
 6377SOL    HW225280   2.239   2.475   5.700 -0.1555 -0.5326 -0.2244
 6377SOL    HW325281   2.296   2.439   5.836  0.2886  2.0520  0.3299
 6377SOL    MW425282   2.307   2.452   5.750  0.0287  0.5144  0.0395
 6378SOL     OW25283   3.513   5.768   0.289  0.0653 -0.2390  0.2155
 6378SOL    HW225284   3.539   5.700   0.352  3.0255  0.4784 -0.0898
 6378SOL    HW325285   3.420   5.784   0.309 -0.1131 -2.6641  1.8459
 6378SOL    MW425286   3.504   5.761   0.300  0.4323 -0.4643  0.3903
 6379SOL     OW25287   2.121   5.942   3.504  0.4512  0.0593 -0.4013
 6379SOL    HW225288   2.104   5.863   3.556 -1.0261 -0.1357 -1.1303
 6379SOL    HW325289   2.135   5.909   3.415 -1.9224  0.6872 -1.0697
 6379SOL    MW425290   2.121   5.927   3.499 -0.0569  0.1164 -0.5857
 6380SOL     OW25291   0.748   6.187   3.216 -0.9766 -0.4029 -0.1305
 6380SOL    HW225292   0.785   6.174   3.303 -2.2545  1.0048  0.6774
 6380SOL    HW325293   0.816   6.234   3.168 -0.8289  0.1902  0.6254
 6380SOL    MW425294   0.762   6.192   3.221 -1.1257 -0.1389  0.0758
 6381SOL     OW25295   0.688   0.515   0.349 -0.5130  0.1492 -0.2054
 6381SOL    HW225296   0.630   0.460   0.297  2.6295 -1.8831 -1.8824
 6381SOL    HW325297   0.771   0.516   0.300  1.0651  2.4747  2.2177
 6381SOL    MW425298   0.692   0.508   0.336  0.1098  0.1879 -0.1069
 6382SOL     OW25299   2.164   5.320   5.769  0.0232 -0.2781  0.5960
 6382SOL    HW225300   2.171   5.269   5.687  1.7198  2.2783 -0.9937
 6382SOL    HW325301   2.070   5.330   5.783 -0.3468  0.2934 -1.8327
 6382SOL    MW425302   2.152   5.314   5.760  0.1982  0.1346  0.0658
 6383SOL     OW25303   5.671   1.830   1.817  0.6366 -0.1798 -0.0328
 6383SOL    HW225304   5.706   1.833   1.906  0.7409 -0.5473 -0.0615
 6383SOL    HW325305   5.715   1.902   1.771  2.0933 -1.2176 -0.3352
 6383SOL    MW425306   5.681   1.840   1.823  0.8426 -0.3652 -0.0765
 6384SOL     OW25307   5.183   1.873   1.375 -0.2791  0.0366 -0.5327
 6384SOL    HW225308   5.173   1.866   1.470 -0.8530 -1.3641 -0.6685
 6384SOL    HW325309   5.230   1.956   1.362  2.6042 -1.1681  1.1696
 6384SOL    MW425310   5.188   1.883   1.386  0.0256 -0.3071 -0.3260
 6385SOL     OW25311   4.648   2.047   3.876  0.0989  0.3891  0.0532
 6385SOL    HW225312   4.611   1.968   3.915 -1.1591  0.6464 -0.5314
 6385SOL    HW325313   4.572   2.104   3.863  0.9439  1.5728  0.1956
 6385SOL    MW425314   4.633   2.044   3.879  0.0444  0.5793 -0.0051
 6386SOL     OW25315   5.814   4.631   5.185  0.8922 -0.0531  0.4023
 6386SOL    HW225316   5.893   4.681   5.163  0.5304 -0.2000 -1.3710
 6386SOL    HW325317   5.826   4.547   5.141  0.5309 -0.7565  1.5995
 6386SOL    MW425318   5.826   4.626   5.177  0.7968 -0.1653  0.3262
 6387SOL     OW25319   4.773   3.861   2.923  0.0042 -0.6073 -0.1171
 6387SOL    HW225320   4.790   3.952   2.900 -1.4594  0.0194  1.1280
 6387SOL    HW325321   4.712   3.830   2.855  0.5161 -0.6809 -0.5496
 6387SOL    MW425322   4.767   3.869   2.911 -0.1213 -0.5343 -0.0099
 6388SOL     OW25323   4.494   3.006   6.119  0.2550 -0.6250  0.5743
 6388SOL    HW225324   4.521   2.979   6.206 -0.0530 -2.3526  0.1791
 6388SOL    HW325325   4.484   2.924   6.070  0.5883  0.2988 -1.1393
 6388SOL    MW425326   4.496   2.991   6.124  0.2583 -0.7310  0.2961
 6389SOL     OW25327   0.236   5.503   1.348 -0.2543  0.4074 -0.7091
 6389SOL    HW225328   0.220   5.499   1.442  0.7387  0.2462 -0.5400
 6389SOL    HW325329   0.301   5.572   1.337 -1.1325  1.1579 -1.3980
 6389SOL    MW425330   0.242   5.512   1.359 -0.2391  0.4852 -0.7777
 6390SOL     OW25331   4.945   2.236   0.615 -0.3105  0.3853  0.1200
 6390SOL    HW225332   4.894   2.310   0.648  1.2766  0.5368  2.4322
 6390SOL    HW325333   5.033   2.249   0.651  0.9206 -0.8735 -2.1728
 6390SOL    MW425334   4.950   2.248   0.624  0.0613  0.2392  0.1225
 6391SOL     OW25335   2.293   3.603   6.237  0.4399 -0.1203 -0.3567
 6391SOL    HW225336   2.305   3.578   6.146  0.0665 -0.5322 -0.2941
 6391SOL    HW325337   2.246   3.530   6.276 -0.3882  0.5476 -0.0891
 6391SOL    MW425338   2.289   3.590   6.231  0.2814 -0.0865 -0.3131
 6392SOL     OW25339   6.398   1.938   2.345  0.6242 -0.1568 -0.1070
 6392SOL    HW225340   6.430   2.015   2.392 -0.3683  0.7308 -0.8216
 6392SOL    HW325341   6.325   1.906   2.399  1.8437 -1.4366  0.8788
 6392SOL    MW425342   6.392   1.944   2.358  0.6541 -0.2086 -0.0712
 6393SOL     OW25343   2.977   4.871   5.624  0.4333  0.4384  0.2892
 6393SOL    HW225344   2.945   4.857   5.535  0.6467  1.0268  0.1191
 6393SOL    HW325345   2.998   4.783   5.655  0.8320  0.2689 -0.4231
 6393SOL    MW425346   2.975   4.857   5.616  0.5141  0.4937  0.1728
 6394SOL     OW25347   3.694   3.202   4.094  0.2109 -0.7606 -0.1728
 6394SOL    HW225348   3.748   3.139   4.046  1.7993 -1.3417  2.1961
 6394SOL    HW325349   3.678   3.273   4.032  0.4693 -2.3323 -2.1369
 6394SOL    MW425350   3.699   3.203   4.080  0.4545 -1.0447 -0.1194
 6395SOL     OW25351   1.533   1.740   4.554 -0.5826 -0.2581  0.3245
 6395SOL    HW225352   1.536   1.651   4.521 -1.4530 -0.2440  0.2057
 6395SOL    HW325353   1.549   1.730   4.648 -0.9255 -0.5610  0.3525
 6395SOL    MW425354   1.536   1.727   4.562 -0.7426 -0.2962  0.3125
 6396SOL     OW25355   5.972   2.503   3.089  0.1024 -0.2905  0.2683
 6396SOL    HW225356   5.916   2.436   3.051  0.9283 -0.5526 -0.5292
 6396SOL    HW325357   6.015   2.460   3.163 -0.6596 -0.1188  0.8171
 6396SOL    MW425358   5.970   2.489   3.094  0.1108 -0.3024  0.2355
 6397SOL     OW25359   4.903   4.288   2.578  0.0263 -0.6243  0.7595
 6397SOL    HW225360   4.907   4.266   2.485 -0.4291  2.4885 -0.0996
 6397SOL    HW325361   4.995   4.301   2.603  0.1025 -0.7322  0.5383
 6397SOL    MW425362   4.916   4.287   2.569 -0.0237 -0.2278  0.6170
 6398SOL     OW25363   2.866   2.942   3.311 -0.1941  0.1046 -0.1048
 6398SOL    HW225364   2.783   2.986   3.329 -0.5691 -0.3006 -0.7815
 6398SOL    HW325365   2.894   2.977   3.226 -0.3174 -0.6827 -0.4796
 6398SOL    MW425366   2.859   2.952   3.302 -0.2598 -0.0528 -0.2435
 6399SOL     OW25367   0.628   0.695   2.208  0.0624  0.2365 -0.2937
 6399SOL    HW225368   0.552   0.750   2.187  0.3650  1.2881  1.2341
 6399SOL    HW325369   0.686   0.752   2.257  0.6139 -1.3147  0.9365
 6399SOL    MW425370   0.626   0.710   2.212  0.1751  0.1706  0.0702
 6400SOL     OW25371   3.325   3.000   6.047 -0.3769  0.5306  0.2963
 6400SOL    HW225372   3.231   2.998   6.062 -0.6335  1.6014 -0.9862
 6400SOL    HW325373   3.349   2.909   6.029 -1.5619  0.5314 -1.4728
 6400SOL    MW425374   3.316   2.988   6.047 -0.5671  0.6720 -0.1063
 6401SOL     OW25375   1.941   1.580   2.686  0.2144  0.4471  0.1764
 6401SOL    HW225376   2.012   1.550   2.744  0.6506  0.8779 -0.1236
 6401SOL    HW325377   1.861   1.567   2.737  0.5750  0.6255  0.7970
 6401SOL    MW425378   1.940   1.575   2.701  0.3196  0.5274  0.2187
 6402SOL     OW25379   0.556   2.499   0.085 -0.1255 -0.2948  0.1784
 6402SOL    HW225380   0.573   2.405   0.077 -2.3951 -0.5804 -2.8798
 6402SOL    HW325381   0.463   2.505   0.107 -0.5336  1.1989 -1.7037
 6402SOL    MW425382   0.546   2.487   0.087 -0.4788 -0.1354 -0.4734
 6403SOL     OW25383   2.189   3.893   1.381 -0.2966  0.2609 -0.6973
 6403SOL    HW225384   2.103   3.850   1.380 -0.0020 -0.3901 -2.3429
 6403SOL    HW325385   2.209   3.908   1.288  0.7726  1.6468 -0.2732
 6403SOL    MW425386   2.181   3.889   1.368 -0.1167  0.3578 -0.8584
 6404SOL     OW25387   0.449   2.329   3.101  0.0301  0.0849 -0.3812
 6404SOL    HW225388   0.365   2.352   3.061 -0.8491  0.7751  1.7288
 6404SOL    HW325389   0.430   2.324   3.195  2.1656 -0.6358  0.0603
 6404SOL    MW425390   0.435   2.331   3.108  0.1958  0.0809 -0.0446
 6405SOL     OW25391   2.526   1.251   1.222 -0.4480 -0.1775 -0.4975
 6405SOL    HW225392   2.444   1.300   1.231 -0.4533 -0.1653 -0.6079
 6405SOL    HW325393   2.507   1.165   1.259  0.5470  0.9347  3.0356
 6405SOL    MW425394   2.513   1.246   1.228 -0.3174 -0.0291 -0.0459
 6406SOL     OW25395   3.317   3.948   0.329  0.0675  0.5417  0.0283
 6406SOL    HW225396   3.257   3.877   0.353  1.6421 -0.8339  0.1283
 6406SOL    HW325397   3.326   3.941   0.234  0.5602  0.2895  0.0856
 6406SOL    MW425398   3.310   3.938   0.320  0.3402  0.3269  0.0491
 6407SOL     OW25399   0.356   5.888   0.240 -0.4067  0.0131  0.1221
 6407SOL    HW225400   0.293   5.817   0.227  0.7747 -0.8085 -1.5231
 6407SOL    HW325401   0.318   5.941   0.310 -1.4424 -2.1002  1.2539
 6407SOL    MW425402   0.342   5.886   0.247 -0.3875 -0.3741  0.0544
 6408SOL     OW25403   0.347   0.710   1.098 -0.1560 -0.2164  0.1380
 6408SOL    HW225404   0.324   0.617   1.097 -0.4015 -0.1681  0.6607
 6408SOL    HW325405   0.277   0.752   1.149  0.6050  0.0592  0.9934
 6408SOL    MW425406   0.335   0.703   1.105 -0.0880 -0.1736  0.3199
 6409SOL     OW25407   3.896   6.080   2.613 -0.4414 -0.2017  0.5222
 6409SOL    HW225408   3.948   6.160   2.618  0.8671 -1.0707  0.9915
 6409SOL    HW325409   3.818   6.099   2.666  0.3317  0.4062  1.4582
 6409SOL    MW425410   3.892   6.093   2.621 -0.1668 -0.2361  0.7076
 6410SOL     OW25411   2.944   2.829   3.767  0.5330  0.8610  0.0342
 6410SOL    HW225412   2.878   2.872   3.822 -0.3110 -0.3847  0.0399
 6410SOL    HW325413   3.020   2.819   3.824 -0.3138 -0.3659  1.0252
 6410SOL    MW425414   2.945   2.833   3.782  0.3099  0.5348  0.1657
 6411SOL     OW25415   2.234   6.014   4.834 -0.1460  0.1248 -0.4672
 6411SOL    HW225416   2.322   6.049   4.821 -0.2935  0.9499  0.6575
 6411SOL    HW325417   2.247   5.926   4.870  0.2574  0.9500  1.5345
 6411SOL    MW425418   2.247   6.007   4.837 -0.1122  0.3426 -0.0547
 6412SOL     OW25419   6.114   2.839   5.409 -0.1980 -0.8253 -1.1350
 6412SOL    HW225420   6.170   2.773   5.368 -0.6051 -1.4097 -0.7717
 6412SOL    HW325421   6.043   2.789   5.449  0.2912 -0.3241  0.4672
 6412SOL    MW425422   6.112   2.824   5.409 -0.1872 -0.8363 -0.8757
 6413SOL     OW25423   1.804   3.542   4.990 -0.2731  0.0268  0.0980
 6413SOL    HW225424   1.836   3.522   4.902  0.0433  1.6291 -0.1812
 6413SOL    HW325425   1.852   3.621   5.016  0.8977 -1.3425  2.4221
 6413SOL    MW425426   1.814   3.550   4.982 -0.0769  0.0576  0.3678
 6414SOL     OW25427   6.054   6.050   1.263  0.0649  0.3726 -0.3191
 6414SOL    HW225428   5.963   6.037   1.236 -1.0806  0.2451  3.0816
 6414SOL    HW325429   6.048   6.100   1.344  2.9613 -0.6382  0.6554
 6414SOL    MW425430   6.041   6.055   1.270  0.2959  0.2225  0.2581
 6415SOL     OW25431   4.338   0.389   3.300  0.1886 -0.5098 -0.2353
 6415SOL    HW225432   4.404   0.395   3.230  0.3274  1.1967  0.0003
 6415SOL    HW325433   4.263   0.438   3.266 -0.7393 -1.8364 -0.2055
 6415SOL    MW425434   4.337   0.396   3.286  0.0845 -0.4597 -0.2003
 6416SOL     OW25435   4.434   3.721   2.268 -0.1016  0.3442  0.5368
 6416SOL    HW225436   4.505   3.742   2.329 -0.1829 -0.3510  0.8831
 6416SOL    HW325437   4.452   3.631   2.241  0.4770  0.9479 -1.2432
 6416SOL    MW425438   4.446   3.712   2.273 -0.0360  0.3321  0.3476
 6417SOL     OW25439   3.610   2.349   1.387  0.1639 -0.4321 -0.5158
 6417SOL    HW225440   3.622   2.423   1.327  2.3087 -1.9266 -2.0829
 6417SOL    HW325441   3.564   2.386   1.462  2.0200  2.7219 -0.7618
 6417SOL    MW425442   3.605   2.364   1.389  0.6918 -0.2132 -0.7550
 6418SOL     OW25443   4.253   1.034   5.194  0.0209 -0.2707 -0.2101
 6418SOL    HW225444   4.246   1.106   5.132  1.9593 -0.4265 -0.6667
 6418SOL    HW325445   4.294   0.963   5.144 -1.5556 -1.6216  0.3071
 6418SOL    MW425446   4.257   1.034   5.179  0.0687 -0.4695 -0.2021
 6419SOL     OW25447   3.086   5.755   4.574  0.4158  0.1391  0.3565
 6419SOL    HW225448   3.162   5.707   4.543 -0.7490 -1.5961  0.0145
 6419SOL    HW325449   3.067   5.717   4.660 -0.7245 -0.2873 -0.0581
 6419SOL    MW425450   3.093   5.744   4.581  0.1117 -0.1461  0.2567
 6420SOL     OW25451   2.595   3.366   5.238  0.2184 -0.0337  0.5434
 6420SOL    HW225452   2.615   3.329   5.153 -1.9631 -1.4120  0.5561
 6420SOL    HW325453   2.559   3.453   5.219 -0.2674 -0.3376  0.0349
 6420SOL    MW425454   2.593   3.372   5.225 -0.1335 -0.2556  0.4780
 6421SOL     OW25455   3.099   4.507   4.232 -0.4925 -0.2660 -0.2330
 6421SOL    HW225456   3.191   4.516   4.206 -0.5005  0.5233 -0.0142
 6421SOL    HW325457   3.063   4.443   4.170  0.3503 -1.0600  0.0757
 6421SOL    MW425458   3.106   4.500   4.220 -0.3823 -0.2666 -0.1634
 6422SOL     OW25459   2.641   1.032   5.376  0.4723 -0.3968 -0.3023
 6422SOL    HW225460   2.645   1.002   5.467  3.3224  2.1570  0.5734
 6422SOL    HW325461   2.620   1.125   5.383 -0.9723 -0.4811 -2.4536
 6422SOL    MW425462   2.639   1.040   5.389  0.6578 -0.0710 -0.4706
 6423SOL     OW25463   2.194   0.625   3.007  0.4425  0.1883 -0.1496
 6423SOL    HW225464   2.266   0.624   2.944 -0.5599  1.0060 -1.3386
 6423SOL    HW325465   2.116   0.644   2.955 -1.1281 -3.2558  0.6504
 6423SOL    MW425466   2.193   0.628   2.992  0.1030 -0.1583 -0.2009
 6424SOL     OW25467   1.608   1.185   1.712 -0.3332 -0.3917 -0.0273
 6424SOL    HW225468   1.682   1.243   1.727  0.3543 -1.6870  1.8486
 6424SOL    HW325469   1.532   1.243   1.712  0.6271  1.0090 -2.3103
 6424SOL    MW425470   1.607   1.201   1.714 -0.1158 -0.3778 -0.0810
 6425SOL     OW25471   2.449   3.721   1.861 -0.2361 -0.5513  0.3741
 6425SOL    HW225472   2.455   3.756   1.950 -0.6153 -0.3029  0.3019
 6425SOL    HW325473   2.426   3.796   1.807  1.0868 -0.4648 -0.1045
 6425SOL    MW425474   2.447   3.736   1.866 -0.1116 -0.5071  0.3015
 6426SOL     OW25475   2.802   0.249   3.107  0.2029  0.1747 -0.2563
 6426SOL    HW225476   2.717   0.205   3.103  0.6491 -0.7339 -0.0341
 6426SOL    HW325477   2.857   0.190   3.159  0.3202  1.8436  1.6798
 6426SOL    MW425478   2.798   0.235   3.114  0.2772  0.2750  0.0285
 6427SOL     OW25479   2.733   2.564   2.455 -0.5578 -1.0242  0.4067
 6427SOL    HW225480   2.783   2.602   2.528  1.7099  0.5447 -1.7595
 6427SOL    HW325481   2.703   2.640   2.405 -0.9636 -2.0501 -0.9601
 6427SOL    MW425482   2.736   2.579   2.458 -0.3122 -0.9526 -0.0595
 6428SOL     OW25483   4.000   3.574   6.341 -0.1054 -0.0155  0.3246
 6428SOL    HW225484   3.930   3.624   6.298 -0.5615 -0.6514  0.3179
 6428SOL    HW325485   4.032   3.514   6.273 -0.5595 -0.7464  0.7411
 6428SOL    MW425486   3.995   3.573   6.326 -0.2255 -0.1958  0.3786
 6429SOL     OW25487   2.653   2.810   4.317 -0.2429 -0.2324  0.4574
 6429SOL    HW225488   2.690   2.792   4.403  3.8286  1.0281 -0.7783
 6429SOL    HW325489   2.653   2.906   4.310 -1.8561 -0.2632 -0.4780
 6429SOL    MW425490   2.658   2.821   4.327  0.0814 -0.0702  0.1709
 6430SOL     OW25491   3.955   1.815   5.763  0.3762  0.4927  0.3561
 6430SOL    HW225492   4.044   1.783   5.753  1.2559  2.4388  1.5323
 6430SOL    HW325493   3.904   1.737   5.786  1.7522 -0.6365 -0.2809
 6430SOL    MW425494   3.960   1.800   5.765  0.6738  0.6005  0.4272
 6431SOL     OW25495   3.992   3.513   2.535  0.6360 -0.5141  0.1816
 6431SOL    HW225496   4.075   3.472   2.510  0.5141 -1.0767  0.6710
 6431SOL    HW325497   3.925   3.454   2.500  0.4002  0.6941 -1.5014
 6431SOL    MW425498   3.994   3.500   2.527  0.5888 -0.4290  0.0241
 6432SOL     OW25499   5.254   4.750   3.444  0.1063 -0.1325  0.1182
 6432SOL    HW225500   5.281   4.693   3.372 -1.7862 -0.2255 -0.5960
 6432SOL    HW325501   5.221   4.829   3.401 -1.1567 -0.2285  0.8391
 6432SOL    MW425502   5.253   4.753   3.429 -0.3101 -0.1574  0.1191
 6433SOL     OW25503   4.449   1.635   4.315  0.2376 -0.0396  0.2003
 6433SOL    HW225504   4.379   1.598   4.261  2.4318 -1.0711 -2.1247
 6433SOL    HW325505   4.464   1.569   4.383  0.9054 -1.2457 -1.0749
 6433SOL    MW425506   4.441   1.622   4.317  0.6152 -0.3348 -0.2747
 6434SOL     OW25507   1.069   5.739   2.427  0.3379 -0.7879  0.3459
 6434SOL    HW225508   0.994   5.789   2.459  0.2245  0.0090 -1.0912
 6434SOL    HW325509   1.143   5.799   2.436  0.7802 -1.4626  1.4647
 6434SOL    MW425510   1.069   5.753   2.432  0.3813 -0.7718  0.3039
 6435SOL     OW25511   5.474   5.467   1.637 -0.1565 -0.3981 -0.3522
 6435SOL    HW225512   5.502   5.443   1.549  2.4724 -1.2821  0.6176
 6435SOL    HW325513   5.475   5.385   1.686  0.0850  0.3054  0.8733
 6435SOL    MW425514   5.478   5.453   1.632  0.2222 -0.4219 -0.0625
 6436SOL     OW25515   5.444   5.282   2.998 -0.3511  0.5050 -0.4324
 6436SOL    HW225516   5.377   5.351   2.997 -2.4402 -1.4155 -2.4076
 6436SOL    HW325517   5.494   5.296   2.918 -0.6254 -0.1159 -0.7164
 6436SOL    MW425518   5.441   5.293   2.987 -0.6629  0.1697 -0.7304
 6437SOL     OW25519   4.338   1.026   4.729 -0.1891 -0.3457  0.5364
 6437SOL    HW225520   4.401   0.958   4.753  1.9521  0.8103 -1.4446
 6437SOL    HW325521   4.295   0.994   4.650 -0.1496  0.0214  0.3623
 6437SOL    MW425522   4.341   1.013   4.722  0.0986 -0.1447  0.2521
 6438SOL     OW25523   4.411   2.099   4.785  0.1717 -0.2819  0.0165
 6438SOL    HW225524   4.393   2.185   4.746 -0.6024 -0.6558 -0.4770
 6438SOL    HW325525   4.325   2.056   4.788  0.0606 -0.0433  2.7205
 6438SOL    MW425526   4.397   2.105   4.780  0.0549 -0.2997  0.3081
 6439SOL     OW25527   4.956   1.490   0.639  0.2931  0.5963  0.2956
 6439SOL    HW225528   4.997   1.560   0.691  0.8444 -0.0146  0.6949
 6439SOL    HW325529   4.883   1.533   0.595 -0.2719  1.1072  1.6747
 6439SOL    MW425530   4.952   1.505   0.640  0.2913  0.5831  0.5302
 6440SOL     OW25531   2.657   4.312   2.036 -0.7350  0.4402 -0.1188
 6440SOL    HW225532   2.693   4.226   2.014 -2.5178 -0.2568 -0.4398
 6440SOL    HW325533   2.676   4.323   2.129  0.0441 -0.0053 -0.2151
 6440SOL    MW425534   2.664   4.302   2.045 -0.8674  0.2894 -0.1739
 6441SOL     OW25535   3.352   5.756   0.660 -0.5049 -0.2458 -0.8606
 6441SOL    HW225536   3.329   5.765   0.568  1.1528 -0.1192 -1.2875
 6441SOL    HW325537   3.308   5.829   0.703 -0.7034  0.1078 -1.6571
 6441SOL    MW425538   3.343   5.767   0.654 -0.3124 -0.1825 -1.0220
 6442SOL     OW25539   3.775   6.070   1.946 -0.3426  0.1154 -0.0415
 6442SOL    HW225540   3.808   5.980   1.948  0.2773  0.2889 -1.1226
 6442SOL    HW325541   3.854   6.123   1.933 -0.6964  0.8242  0.6768
 6442SOL    MW425542   3.790   6.065   1.944 -0.3075  0.2318 -0.0894
 6443SOL     OW25543   2.291   0.287   4.506  0.6035  0.5918 -0.2141
 6443SOL    HW225544   2.386   0.281   4.511  0.5813  0.2363 -0.1593
 6443SOL    HW325545   2.270   0.259   4.417  0.4643 -0.5980  0.1766
 6443SOL    MW425546   2.301   0.282   4.495  0.5822  0.3879 -0.1553
 6444SOL     OW25547   3.621   5.386   2.440 -0.1545  0.5696 -0.4135
 6444SOL    HW225548   3.541   5.369   2.390  0.3193  0.0511 -1.0110
 6444SOL    HW325549   3.600   5.358   2.529 -0.3076 -0.5532 -0.7906
 6444SOL    MW425550   3.608   5.380   2.445 -0.1122  0.3531 -0.5421
 6445SOL     OW25551   3.625   0.202   0.435 -0.6379  0.0824 -0.2018
 6445SOL    HW225552   3.581   0.129   0.480  0.1756  0.1998  0.8473
 6445SOL    HW325553   3.627   0.176   0.343  0.7033 -1.8242  0.3080
 6445SOL    MW425554   3.620   0.189   0.429 -0.3536 -0.1536  0.0038
 6446SOL     OW25555   3.001   2.557   3.696 -0.3337 -0.9070  0.5247
 6446SOL    HW225556   2.948   2.623   3.740  0.5668  0.4284 -0.3058
 6446SOL    HW325557   2.940   2.484   3.679 -2.8916  1.7365 -3.2141
 6446SOL    MW425558   2.986   2.556   3.700 -0.5523 -0.3821 -0.0782
 6447SOL     OW25559   4.616   2.013   4.169 -0.3537  0.4256  0.6414
 6447SOL    HW225560   4.622   2.101   4.133  0.7940  0.1462  0.1251
 6447SOL    HW325561   4.682   2.011   4.238 -0.0126 -0.1874  0.3019
 6447SOL    MW425562   4.625   2.024   4.174 -0.1573  0.3078  0.5285
 6448SOL     OW25563   3.606   4.323   4.401 -0.1029 -0.1054 -0.2110
 6448SOL    HW225564   3.540   4.255   4.385 -0.5142 -0.1644  1.5725
 6448SOL    HW325565   3.598   4.381   4.325  0.0963 -1.8720 -1.6768
 6448SOL    MW425566   3.596   4.321   4.389 -0.1309 -0.3463 -0.1691
 6449SOL     OW25567   2.409   0.287   3.251  0.0444 -0.6391 -0.9994
 6449SOL    HW225568   2.451   0.239   3.179 -1.5295 -1.2269 -1.5815
 6449SOL    HW325569   2.315   0.281   3.232 -0.2748  2.3181 -0.8400
 6449SOL    MW425570   2.402   0.280   3.239 -0.2054 -0.3265 -1.0552
 6450SOL     OW25571   4.941   4.053   2.808 -0.5690 -0.1671 -0.0834
 6450SOL    HW225572   5.009   4.043   2.876 -0.2019 -0.9914 -0.5553
 6450SOL    HW325573   4.931   4.148   2.798  1.0530 -0.0114 -0.5206
 6450SOL    MW425574   4.949   4.064   2.816 -0.3066 -0.2553 -0.2034
 6451SOL     OW25575   1.365   5.922   4.193  0.8010  0.3959 -0.0321
 6451SOL    HW225576   1.347   5.850   4.254 -0.9552  1.4662  0.7825
 6451SOL    HW325577   1.448   5.959   4.223  1.6148 -1.1080 -0.3277
 6451SOL    MW425578   1.374   5.917   4.205  0.6767  0.3387  0.0363
 6452SOL     OW25579   6.028   2.194   0.190  0.0579  0.4608 -0.3746
 6452SOL    HW225580   6.029   2.290   0.186 -0.3736  0.6686  2.5510
 6452SOL    HW325581   6.070   2.173   0.273 -0.5004 -1.8663 -0.6253
 6452SOL    MW425582   6.034   2.204   0.200 -0.0727  0.1812 -0.0217
 6453SOL     OW25583   0.775   5.990   2.305  0.5526  0.4882  0.4227
 6453SOL    HW225584   0.697   6.046   2.309  0.6580  0.6387  0.4039
 6453SOL    HW325585   0.742   5.904   2.280  0.4675  0.7072 -0.2438
 6453SOL    MW425586   0.760   5.986   2.302  0.5553  0.5370  0.3323
 6454SOL     OW25587   0.419   1.905   1.939  0.9569 -0.2547  0.2197
 6454SOL    HW225588   0.343   1.960   1.961 -0.5896 -1.9364 -0.6225
 6454SOL    HW325589   0.486   1.930   2.003 -0.2398  1.4039  0.9063
 6454SOL    MW425590   0.418   1.915   1.950  0.5950 -0.2578  0.1992
 6455SOL     OW25591   2.373   0.696   5.744  0.2461 -0.6291  0.3826
 6455SOL    HW225592   2.351   0.789   5.755  0.8863 -0.4949  0.5260
 6455SOL    HW325593   2.468   0.694   5.736  0.4022 -1.4421  2.0961
 6455SOL    MW425594   2.382   0.708   5.744  0.3512 -0.7187  0.6276
 6456SOL     OW25595   1.421   0.030   3.147  0.4863  0.2158  0.1437
 6456SOL    HW225596   1.493   0.031   3.211  0.6031 -1.0748  0.0554
 6456SOL    HW325597   1.465   0.021   3.063  0.2595  0.4100  0.0037
 6456SOL    MW425598   1.437   0.029   3.145  0.4718  0.0711  0.1136
 6457SOL     OW25599   4.856   2.316   3.620  0.2330 -0.0924 -0.3650
 6457SOL    HW225600   4.928   2.286   3.675  1.1053 -0.0896 -1.4781
 6457SOL    HW325601   4.869   2.270   3.536 -0.4712  0.6788 -0.9127
 6457SOL    MW425602   4.867   2.306   3.616  0.2552  0.0097 -0.5841
 6458SOL     OW25603   5.327   6.325   3.756 -0.0878 -0.2733 -0.3945
 6458SOL    HW225604   5.232   6.328   3.757 -0.2994 -3.5834 -1.4826
 6458SOL    HW325605   5.352   6.361   3.671 -0.5297 -1.4807 -1.0453
 6458SOL    MW425606   5.318   6.330   3.745 -0.1740 -0.8694 -0.6240
 6459SOL     OW25607   3.215   0.215   0.944  0.3614 -0.0153  0.0469
 6459SOL    HW225608   3.271   0.291   0.935  0.3543  0.0210  0.2998
 6459SOL    HW325609   3.200   0.185   0.855  1.9070 -0.8525  0.0293
 6459SOL    MW425610   3.220   0.221   0.931  0.5644 -0.1209  0.0780
 6460SOL     OW25611   2.996   5.610   3.716  0.3865  0.3381 -0.5795
 6460SOL    HW225612   3.000   5.577   3.626  0.4045  2.2034 -1.2962
 6460SOL    HW325613   3.066   5.675   3.722  0.7803 -0.1668  0.9863
 6460SOL    MW425614   3.006   5.614   3.705  0.4408  0.5176 -0.4675
 6461SOL     OW25615   6.257   5.744   6.311 -0.0412 -0.5247 -0.0651
 6461SOL    HW225616   6.176   5.779   6.275  1.4887  1.2719 -2.0071
 6461SOL    HW325617   6.257   5.773   6.403 -1.6327 -0.7144  0.0247
 6461SOL    MW425618   6.247   5.753   6.319 -0.0493 -0.3127 -0.3094
 6462SOL     OW25619   1.312   1.879   0.475 -0.0266 -0.4256 -0.1720
 6462SOL    HW225620   1.247   1.861   0.407  0.8383 -1.6897 -0.6966
 6462SOL    HW325621   1.318   1.798   0.525  0.3074  0.0646  0.6074
 6462SOL    MW425622   1.305   1.866   0.473  0.1316 -0.5277 -0.1384
 6463SOL     OW25623   4.269   4.649   0.013 -0.2811  0.2639 -0.6031
 6463SOL    HW225624   4.347   4.598  -0.004 -1.5287 -1.5845 -1.0439
 6463SOL    HW325625   4.277   4.726  -0.044  1.3763  0.3381 -0.3161
 6463SOL    MW425626   4.280   4.653   0.003 -0.2270  0.0298 -0.6234
 6464SOL     OW25627   2.545   2.171   2.439 -0.2915 -0.0694 -0.3064
 6464SOL    HW225628   2.506   2.237   2.495 -2.4206 -1.5495  0.0678
 6464SOL    HW325629   2.631   2.154   2.478 -0.4284  1.1957  0.6018
 6464SOL    MW425630   2.551   2.177   2.451 -0.5905 -0.0977 -0.1372
 6465SOL     OW25631   6.160   4.620   2.140 -0.8740 -0.1434 -0.3685
 6465SOL    HW225632   6.199   4.577   2.064 -1.1831 -0.4937 -0.3298
 6465SOL    HW325633   6.125   4.549   2.193  0.2321  0.0185  0.6151
 6465SOL    MW425634   6.160   4.605   2.137 -0.7689 -0.1683 -0.2336
 6466SOL     OW25635   5.508   0.154   2.276 -0.0655  0.1771 -0.1817
 6466SOL    HW225636   5.489   0.142   2.369  1.9284 -0.0808  0.2375
 6466SOL    HW325637   5.490   0.246   2.259  1.7713  0.8132  1.0687
 6466SOL    MW425638   5.503   0.164   2.286  0.4399  0.2270  0.0386
 6467SOL     OW25639   3.969   5.680   0.114  0.2932  0.1429 -0.2282
 6467SOL    HW225640   3.889   5.653   0.070  0.2897 -0.3050  0.0452
 6467SOL    HW325641   3.943   5.692   0.205  0.6874 -0.7573  0.0202
 6467SOL    MW425642   3.955   5.678   0.120  0.3448 -0.0350 -0.1593
 6468SOL     OW25643   2.034   4.378   6.254 -0.0225  0.2349 -0.3848
 6468SOL    HW225644   2.077   4.362   6.338  1.6929 -1.9182 -1.5858
 6468SOL    HW325645   2.074   4.459   6.222  1.4555 -0.4653 -0.3931
 6468SOL    MW425646   2.045   4.387   6.261  0.3989 -0.1415 -0.5443
 6469SOL     OW25647   2.747   5.203   0.702  0.3590 -0.3118 -0.3056
 6469SOL    HW225648   2.668   5.238   0.660  0.7092  1.4082  0.3826
 6469SOL    HW325649   2.741   5.109   0.689 -0.7695 -0.0439 -2.0610
 6469SOL    MW425650   2.736   5.195   0.695  0.2563 -0.0495 -0.4464
 6470SOL     OW25651   3.249   4.589   2.605 -0.1154  0.2709 -0.2354
 6470SOL    HW225652   3.202   4.653   2.551  0.3053  0.6425 -0.1726
 6470SOL    HW325653   3.214   4.504   2.579  0.4882  0.3925 -1.5273
 6470SOL    MW425654   3.239   4.586   2.594  0.0197  0.3359 -0.3975
 6471SOL     OW25655   1.979   3.216   2.345 -0.0712 -0.3978  0.3212
 6471SOL    HW225656   2.049   3.271   2.378 -0.2675 -0.1456  0.3244
 6471SOL    HW325657   2.015   3.127   2.345  0.0107 -0.3674  0.9783
 6471SOL    MW425658   1.993   3.212   2.349 -0.0863 -0.3605  0.4083
 6472SOL     OW25659   3.235   3.746   1.529 -0.2742 -0.2724  0.1793
 6472SOL    HW225660   3.182   3.791   1.463  0.0180  0.1496  0.2345
 6472SOL    HW325661   3.325   3.763   1.503 -0.1551 -1.1708 -0.0375
 6472SOL    MW425662   3.240   3.754   1.517 -0.2200 -0.3352  0.1580
 6473SOL     OW25663   6.034   2.627   2.003 -0.5774 -0.1033  0.0213
 6473SOL    HW225664   5.981   2.704   2.020 -0.9847 -0.4808  0.5122
 6473SOL    HW325665   5.978   2.553   2.029  0.6828 -0.4629  1.9874
 6473SOL    MW425666   6.020   2.627   2.009 -0.4649 -0.2005  0.3455
 6474SOL     OW25667   2.348   3.779   5.589  0.1448 -0.2099 -0.4532
 6474SOL    HW225668   2.379   3.809   5.675  1.9214 -1.2257 -0.7007
 6474SOL    HW325669   2.379   3.845   5.528  1.8490 -1.1875 -0.6914
 6474SOL    MW425670   2.356   3.792   5.592  0.6040 -0.4729 -0.5173
 6475SOL     OW25671   3.709   0.278   4.356  0.2645  0.2199  0.1486
 6475SOL    HW225672   3.649   0.212   4.321 -1.1445  1.5802 -0.1012
 6475SOL    HW325673   3.793   0.258   4.314 -0.8449  0.4467 -2.3556
 6475SOL    MW425674   3.712   0.266   4.345 -0.0678  0.4293 -0.2148
 6476SOL     OW25675   5.287   3.781   6.223  0.2336 -0.1421  0.2324
 6476SOL    HW225676   5.249   3.723   6.157  2.2446 -0.3937 -0.7694
 6476SOL    HW325677   5.366   3.816   6.182 -0.0612  2.0812  1.3991
 6476SOL    MW425678   5.292   3.778   6.209  0.4600  0.1181  0.2541
 6477SOL     OW25679   5.912   6.019   3.015  0.6558  0.7350  0.0143
 6477SOL    HW225680   5.991   5.971   2.989  0.1710  0.3599 -0.8024
 6477SOL    HW325681   5.878   6.056   2.933 -0.6252 -0.0453  0.1667
 6477SOL    MW425682   5.918   6.018   3.000  0.4229  0.5826 -0.0733
 6478SOL     OW25683   5.204   5.926   2.473 -0.1607 -0.4094  0.1770
 6478SOL    HW225684   5.279   5.870   2.454  1.2761  1.4209  0.1530
 6478SOL    HW325685   5.129   5.877   2.441  1.2614 -1.3062 -2.0557
 6478SOL    MW425686   5.204   5.913   2.466  0.2165 -0.2862 -0.1207
 6479SOL     OW25687   2.848   2.138   5.836  0.2244 -0.3357 -0.4068
 6479SOL    HW225688   2.794   2.182   5.902 -0.1493  0.6259 -1.3196
 6479SOL    HW325689   2.867   2.052   5.874  2.0852  1.0348  2.0250
 6479SOL    MW425690   2.843   2.132   5.849  0.4206 -0.0280 -0.2064
 6480SOL     OW25691   4.377   0.301   3.569 -0.2298  0.0382 -0.2617
 6480SOL    HW225692   4.318   0.295   3.643 -0.7933 -1.2196 -0.7938
 6480SOL    HW325693   4.322   0.334   3.497 -0.2932 -1.1171 -0.7533
 6480SOL    MW425694   4.362   0.305   3.569 -0.3125 -0.2802 -0.3968
 6481SOL     OW25695   5.728   1.591   4.896  0.0712  0.3900  0.1741
 6481SOL    HW225696   5.729   1.686   4.884  1.0458  0.9055  3.2353
 6481SOL    HW325697   5.637   1.566   4.883 -0.2756  1.8018 -0.3079
 6481SOL    MW425698   5.716   1.600   4.893  0.1540  0.6443  0.5144
 6482SOL     OW25699   4.851   3.224   4.350  0.0450 -0.4008 -0.0693
 6482SOL    HW225700   4.908   3.294   4.318  0.5574 -0.2900  1.0353
 6482SOL    HW325701   4.905   3.145   4.342 -0.9179 -0.9000 -2.3745
 6482SOL    MW425702   4.866   3.223   4.345 -0.0144 -0.4520 -0.2277
 6483SOL     OW25703   4.609   0.655   3.785  0.5804  0.3646  0.3439
 6483SOL    HW225704   4.600   0.612   3.700 -1.8254 -0.2042  0.8393
 6483SOL    HW325705   4.635   0.745   3.763  1.0064 -0.0470 -0.9297
 6483SOL    MW425706   4.611   0.661   3.771  0.3192  0.2353  0.2412
 6484SOL     OW25707   4.549   2.877   1.748 -0.1379 -0.4256 -0.5976
 6484SOL    HW225708   4.497   2.941   1.795 -0.3792 -0.0783 -1.3267
 6484SOL    HW325709   4.511   2.792   1.772  0.6265 -0.3692  0.9184
 6484SOL    MW425710   4.537   2.874   1.757 -0.0689 -0.3723 -0.4938
 6485SOL     OW25711   5.229   1.181   4.117 -0.5312  0.1214  0.1282
 6485SOL    HW225712   5.156   1.167   4.056 -1.1096  3.4205 -0.1202
 6485SOL    HW325713   5.206   1.128   4.193 -0.5932 -2.8474 -1.7757
 6485SOL    MW425714   5.216   1.172   4.119 -0.6157  0.1650 -0.1558
 6486SOL     OW25715   4.451   3.671   0.321  0.4123 -0.3955 -0.1770
 6486SOL    HW225716   4.397   3.745   0.292  0.9917 -0.3117 -1.1050
 6486SOL    HW325717   4.388   3.604   0.348 -0.1209  0.6302  1.2291
 6486SOL    MW425718   4.435   3.672   0.320  0.4184 -0.2492 -0.1139
 6487SOL     OW25719   3.309   0.761   6.273 -0.0127  0.3690  0.2201
 6487SOL    HW225720   3.312   0.759   6.177  2.9777  1.2813  0.2032
 6487SOL    HW325721   3.237   0.702   6.295  0.6813 -1.7406 -2.5399
 6487SOL    MW425722   3.300   0.753   6.263  0.4734  0.2111 -0.1463
 6488SOL     OW25723   4.083   2.532   0.067  0.3148 -0.1949  0.6569
 6488SOL    HW225724   4.170   2.509   0.099 -0.2046 -1.0507  1.5070
 6488SOL    HW325725   4.038   2.448   0.055 -0.3030  0.2186 -0.0369
 6488SOL    MW425726   4.088   2.518   0.069  0.1648 -0.2533  0.6775
 6489SOL     OW25727   0.837   1.768   0.101 -0.4859 -0.0035  0.6049
 6489SOL    HW225728   0.783   1.808   0.170 -0.5986 -0.7414  0.9626
 6489SOL    HW325729   0.898   1.837   0.075 -2.7053  1.4390 -1.0587
 6489SOL    MW425730   0.838   1.782   0.107 -0.7936  0.0894  0.4326
 6490SOL     OW25731   1.267   4.070   2.724  0.1648 -0.4490  0.2732
 6490SOL    HW225732   1.267   3.998   2.787  0.5902 -1.5411 -0.9314
 6490SOL    HW325733   1.219   4.037   2.649  1.6276 -0.0474 -0.9015
 6490SOL    MW425734   1.261   4.056   2.722  0.4139 -0.5401 -0.0407
 6491SOL     OW25735   4.133   3.376   4.777 -0.3513 -0.3276  0.0753
 6491SOL    HW225736   4.094   3.373   4.690  0.9100  0.9337 -0.5687
 6491SOL    HW325737   4.058   3.385   4.836 -1.1200  0.8166 -1.0225
 6491SOL    MW425738   4.118   3.376   4.773 -0.2863 -0.0102 -0.1545
 6492SOL     OW25739   2.502   4.641   4.709  0.3883 -0.0691 -0.6160
 6492SOL    HW225740   2.472   4.562   4.664 -0.4722 -0.3297  0.3674
 6492SOL    HW325741   2.428   4.701   4.706  0.2277 -0.1783  0.6208
 6492SOL    MW425742   2.489   4.638   4.703  0.2535 -0.1179 -0.3230
 6493SOL     OW25743   5.905   3.121   3.804  0.5796 -0.5694 -0.1392
 6493SOL    HW225744   5.936   3.184   3.869 -0.5123 -0.8741  0.7165
 6493SOL    HW325745   5.830   3.078   3.847  0.0267 -0.9888 -1.4870
 6493SOL    MW425746   5.899   3.124   3.819  0.3626 -0.6650 -0.2041
 6494SOL     OW25747   3.981   1.516   4.897 -0.0130  0.4475  0.1423
 6494SOL    HW225748   3.924   1.583   4.858  0.5413 -0.2316 -2.0000
 6494SOL    HW325749   4.070   1.546   4.879  0.2434 -0.5452 -0.3476
 6494SOL    MW425750   3.985   1.528   4.889  0.0939  0.2269 -0.2050
 6495SOL     OW25751   1.437   4.469   4.649 -0.4291  0.6798 -0.2397
 6495SOL    HW225752   1.464   4.553   4.613 -1.5183  1.1565  0.0122
 6495SOL    HW325753   1.403   4.420   4.574 -0.4367  0.7408 -0.2764
 6495SOL    MW425754   1.436   4.474   4.634 -0.5738  0.7507 -0.2113
 6496SOL     OW25755   1.441   5.517   0.715  0.0362  0.0694  0.0598
 6496SOL    HW225756   1.435   5.576   0.790  1.1665  1.2372 -0.7270
 6496SOL    HW325757   1.414   5.570   0.640  1.8170 -0.1376 -0.7741
 6496SOL    MW425758   1.436   5.532   0.715  0.4203  0.1962 -0.1541
 6497SOL     OW25759   3.358   0.683   6.012 -0.1299 -0.2349 -0.1871
 6497SOL    HW225760   3.297   0.669   5.939  0.5490  2.3213 -1.3737
 6497SOL    HW325761   3.425   0.616   6.000 -0.8271 -0.8214 -1.0024
 6497SOL    MW425762   3.359   0.672   6.001 -0.1323  0.0250 -0.4513
 6498SOL     OW25763   0.818   6.420   1.557 -0.6605  0.0348 -0.3090
 6498SOL    HW225764   0.861   6.383   1.634 -0.3005 -2.6130 -1.6667
 6498SOL    HW325765   0.726   6.399   1.568 -0.8145  0.8360 -0.0025
 6498SOL    MW425766   0.812   6.413   1.568 -0.6333 -0.2088 -0.4477
 6499SOL     OW25767   1.531   6.024   5.196  0.1434  0.0910  0.8051
 6499SOL    HW225768   1.612   6.038   5.246 -0.5624  1.1195  1.7123
 6499SOL    HW325769   1.471   5.984   5.259 -1.0810  2.2851  1.1581
 6499SOL    MW425770   1.534   6.021   5.211 -0.1113  0.5162  0.9714
 6500SOL     OW25771   2.927   6.326   1.590 -0.0231 -0.0920  0.1812
 6500SOL    HW225772   2.891   6.306   1.676 -3.7412 -1.8050 -1.5536
 6500SOL    HW325773   2.895   6.414   1.571 -0.2484 -0.1969  0.0711
 6500SOL    MW425774   2.918   6.335   1.599 -0.5434 -0.3318 -0.0622
 6501SOL     OW25775   0.801   3.844   0.682  0.1301 -0.1181  0.7549
 6501SOL    HW225776   0.805   3.890   0.766  0.0037  1.8206 -0.2421
 6501SOL    HW325777   0.749   3.902   0.626  3.2208  0.5002 -1.7399
 6501SOL    MW425778   0.794   3.858   0.686  0.5212  0.2193  0.2942
 6502SOL     OW25779   2.429   5.811   3.024  0.3279 -0.8448  0.7076
 6502SOL    HW225780   2.521   5.836   3.018 -0.2771  1.3837 -0.3098
 6502SOL    HW325781   2.426   5.721   2.990  1.9778 -0.5534 -0.3147
 6502SOL    MW425782   2.441   5.802   3.018  0.4657 -0.5123  0.4385
 6503SOL     OW25783   3.403   5.062   5.833 -0.4084 -0.4548  0.3461
 6503SOL    HW225784   3.463   4.989   5.851  0.1219 -0.0300  0.3048
 6503SOL    HW325785   3.316   5.024   5.845 -0.2596 -1.7522 -1.9505
 6503SOL    MW425786   3.400   5.047   5.837 -0.3188 -0.5699  0.0376
 6504SOL     OW25787   2.503   5.735   0.328  0.4406 -0.4107 -0.2087
 6504SOL    HW225788   2.561   5.665   0.358  1.1908 -0.4854 -1.7696
 6504SOL    HW325789   2.425   5.689   0.297  0.5788 -0.4946 -0.4322
 6504SOL    MW425790   2.500   5.720   0.328  0.5578 -0.4316 -0.4441
 6505SOL     OW25791   4.639   0.964   5.158  0.3150  0.0765 -0.0191
 6505SOL    HW225792   4.594   1.047   5.174  0.5865  0.0256  1.0589
 6505SOL    HW325793   4.698   0.983   5.085  1.0525  1.0953  0.8200
 6505SOL    MW425794   4.641   0.977   5.151  0.4481  0.2042  0.2339
 6506SOL     OW25795   2.628   3.895   4.897 -0.3493 -0.6387  0.0188
 6506SOL    HW225796   2.696   3.959   4.878 -0.1748 -0.2675  1.7717
 6506SOL    HW325797   2.675   3.821   4.935 -0.6993 -1.3207 -0.8227
 6506SOL    MW425798   2.643   3.893   4.899 -0.3725 -0.6797  0.1391
 6507SOL     OW25799   0.124   5.163   3.823 -1.0408 -0.4440 -0.0365
 6507SOL    HW225800   0.141   5.212   3.903  0.6138 -0.4760 -0.3424
 6507SOL    HW325801   0.146   5.072   3.846 -0.6323 -0.4644 -0.5077
 6507SOL    MW425802   0.129   5.157   3.837 -0.7686 -0.4509 -0.1391
 6508SOL     OW25803   5.160   4.906   0.359  0.1346  0.0738  0.3823
 6508SOL    HW225804   5.101   4.864   0.421  2.7657 -0.6358  2.5902
 6508SOL    HW325805   5.166   4.845   0.286 -0.8256 -0.4280  0.7043
 6508SOL    MW425806   5.153   4.893   0.357  0.3551 -0.0860  0.7161
 6509SOL     OW25807   3.219   2.471   3.859  0.2090  0.1425  0.4788
 6509SOL    HW225808   3.156   2.524   3.811 -0.4956  0.8969  2.1481
 6509SOL    HW325809   3.252   2.529   3.927  2.3966 -0.3757 -0.0527
 6509SOL    MW425810   3.215   2.485   3.862  0.4047  0.1737  0.6289
 6510SOL     OW25811   2.510   1.511   0.311 -0.4253  0.2520 -0.7131
 6510SOL    HW225812   2.444   1.505   0.242 -2.3063 -0.1768  1.0434
 6510SOL    HW325813   2.516   1.423   0.346 -0.7445  0.7930  0.7580
 6510SOL    MW425814   2.502   1.499   0.306 -0.7156  0.2668 -0.2873
 6511SOL     OW25815   5.928   5.138   0.538  0.0834  0.2997  0.3154
 6511SOL    HW225816   5.898   5.196   0.608  0.7435 -1.6293  2.3078
 6511SOL    HW325817   5.851   5.087   0.514  0.1712  0.0045  0.6473
 6511SOL    MW425818   5.914   5.139   0.544  0.1821  0.0062  0.6221
 6512SOL     OW25819   0.816   1.960   2.754 -0.5853 -0.4316 -0.5862
 6512SOL    HW225820   0.798   1.890   2.816 -1.0885  0.0570 -0.1763
 6512SOL    HW325821   0.884   1.924   2.697 -1.9455 -1.8656 -1.3976
 6512SOL    MW425822   0.823   1.946   2.755 -0.8311 -0.5563 -0.6392
 6513SOL     OW25823   6.297   1.519   4.315  0.1091  0.7260  0.5176
 6513SOL    HW225824   6.243   1.471   4.377 -0.4997 -0.1060 -0.6231
 6513SOL    HW325825   6.376   1.465   4.305  0.2417  0.8993  0.6313
 6513SOL    MW425826   6.300   1.506   4.322  0.0463  0.6391  0.3821
 6514SOL     OW25827   1.042   4.609   2.251 -0.0495  0.1155 -0.7729
 6514SOL    HW225828   1.014   4.676   2.313 -2.3241 -0.2052 -1.3485
 6514SOL    HW325829   1.030   4.649   2.165  0.7133 -0.2826 -1.0724
 6514SOL    MW425830   1.037   4.623   2.247 -0.2490  0.0206 -0.8884
 6515SOL     OW25831   5.104   0.796   2.397 -0.0561 -0.1513  0.4658
 6515SOL    HW225832   5.171   0.789   2.466  0.0675  0.8244  0.4725
 6515SOL    HW325833   5.052   0.872   2.423  1.3098  1.6005 -1.5837
 6515SOL    MW425834   5.106   0.805   2.410  0.1404  0.2086  0.1963
 6516SOL     OW25835   2.543   0.162   5.371  0.2129 -0.5730  0.7514
 6516SOL    HW225836   2.622   0.116   5.399  0.0820 -3.4644 -2.9252
 6516SOL    HW325837   2.573   0.249   5.347  1.3759 -0.1307  3.3932
 6516SOL    MW425838   2.557   0.167   5.372  0.3491 -0.8961  0.6149
 6517SOL     OW25839   1.046   2.275   0.500  0.1525 -0.0017  0.3971
 6517SOL    HW225840   1.111   2.206   0.511 -0.8709 -0.9924  0.4479
 6517SOL    HW325841   0.991   2.268   0.578 -0.6994  0.0362 -0.1870
 6517SOL    MW425842   1.047   2.265   0.512 -0.0949 -0.1274  0.3267
 6518SOL     OW25843   0.346   4.190   1.873 -0.0120  0.5280 -0.5361
 6518SOL    HW225844   0.347   4.283   1.895 -1.2418  0.4218  0.0021
 6518SOL    HW325845   0.254   4.167   1.867  0.2724 -0.4956 -1.4115
 6518SOL    MW425846   0.334   4.199   1.875 -0.1367  0.3789 -0.5806
 6519SOL     OW25847   6.064   0.327   5.363 -0.4845  0.3868  0.0400
 6519SOL    HW225848   6.152   0.354   5.336 -1.2985  1.3588 -1.7918
 6519SOL    HW325849   6.070   0.318   5.458  1.4642  0.8970  0.0107
 6519SOL    MW425850   6.076   0.329   5.372 -0.3348  0.5823 -0.2055
 6520SOL     OW25851   0.273   0.462   0.098 -1.0705  0.2358 -0.4128
 6520SOL    HW225852   0.261   0.413   0.017 -1.3712 -0.3557 -0.0130
 6520SOL    HW325853   0.198   0.439   0.153 -0.4948  0.0495  0.3218
 6520SOL    MW425854   0.262   0.452   0.095 -1.0342  0.1332 -0.2631
 6521SOL     OW25855   1.441   5.987   1.189  0.2113  0.0939 -0.1741
 6521SOL    HW225856   1.476   5.901   1.210  0.0241 -0.0076 -0.2708
 6521SOL    HW325857   1.367   5.998   1.248  0.8415  0.6158  0.5407
 6521SOL    MW425858   1.436   5.977   1.199  0.2698  0.1493 -0.0926
 6522SOL     OW25859   6.407   1.557   1.725 -0.0134  0.6619  0.4387
 6522SOL    HW225860   6.370   1.595   1.645  0.5056  0.0015 -0.1342
 6522SOL    HW325861   6.384   1.464   1.719  3.0774 -0.1523 -0.7895
 6522SOL    MW425862   6.399   1.549   1.714  0.4629  0.4673  0.2011
 6523SOL     OW25863   0.299   4.651   5.526  0.0382  0.0724 -0.3479
 6523SOL    HW225864   0.329   4.699   5.449 -1.9470  0.4134 -0.9537
 6523SOL    HW325865   0.272   4.565   5.493  0.1684 -0.1688  0.1506
 6523SOL    MW425866   0.299   4.646   5.512 -0.2065  0.0856 -0.3621
 6524SOL     OW25867   4.874   2.816   2.404  0.0076 -0.6863  0.2059
 6524SOL    HW225868   4.935   2.787   2.336 -0.8978 -0.4278 -0.7503
 6524SOL    HW325869   4.924   2.811   2.485  1.0751 -1.1494 -0.4575
 6524SOL    MW425870   4.889   2.811   2.406  0.0290 -0.7133 -0.0078
 6525SOL     OW25871   5.578   0.407   1.291  0.2899 -0.3005  0.0902
 6525SOL    HW225872   5.525   0.328   1.276  1.9903 -1.3552 -0.6534
 6525SOL    HW325873   5.612   0.396   1.380 -1.6934  1.0173  1.0835
 6525SOL    MW425874   5.576   0.395   1.301  0.2526 -0.2658  0.1231
 6526SOL     OW25875   5.153   4.054   2.966 -0.4989  0.2154  0.3849
 6526SOL    HW225876   5.116   4.107   3.037 -2.0835 -1.1844  0.6656
 6526SOL    HW325877   5.228   4.010   3.006 -2.3170 -1.8256  1.7857
 6526SOL    MW425878   5.158   4.055   2.981 -0.9478 -0.2386  0.6067
 6527SOL     OW25879   0.991   2.858   2.107  0.4672 -0.0134 -0.1422
 6527SOL    HW225880   0.914   2.852   2.164  1.0601 -0.7641  0.6007
 6527SOL    HW325881   1.009   2.767   2.080  1.2117  0.1235 -0.1384
 6527SOL    MW425882   0.983   2.845   2.111  0.6437 -0.0944 -0.0437
 6528SOL     OW25883   3.582   4.077   6.357  0.1666 -0.4161  0.1697
 6528SOL    HW225884   3.543   4.163   6.341  0.5159 -0.1823  0.5567
 6528SOL    HW325885   3.627   4.087   6.441 -0.6388 -1.2662  0.7167
 6528SOL    MW425886   3.583   4.090   6.366  0.1064 -0.4974  0.2929
 6529SOL     OW25887   5.841   2.688   2.630 -0.3139  0.3240 -0.5007
 6529SOL    HW225888   5.850   2.758   2.694 -0.8588  0.2236 -0.3090
 6529SOL    HW325889   5.865   2.608   2.678 -0.2828  0.3041 -0.5492
 6529SOL    MW425890   5.846   2.686   2.644 -0.3817  0.3081 -0.4818
 6530SOL     OW25891   1.225   4.872   4.362  0.0920  0.4385  0.2354
 6530SOL    HW225892   1.295   4.860   4.298 -0.5032 -0.5838 -0.2385
 6530SOL    HW325893   1.266   4.853   4.446  0.0631 -1.5332 -0.1649
 6530SOL    MW425894   1.240   4.868   4.365  0.0097  0.0435  0.1200
 6531SOL     OW25895   1.558   5.177   0.992  1.2934  0.3164 -0.8338
 6531SOL    HW225896   1.562   5.263   0.951 -3.3852  0.5779 -1.2297
 6531SOL    HW325897   1.552   5.195   1.086  0.0131  0.4990 -0.9364
 6531SOL    MW425898   1.558   5.191   0.999  0.5072  0.3750 -0.8996
 6532SOL     OW25899   0.835   2.197   5.707 -0.1019  0.3638  0.1000
 6532SOL    HW225900   0.810   2.283   5.741 -0.5802 -0.6029  2.3397
 6532SOL    HW325901   0.910   2.215   5.649  1.4767  2.0560  2.4799
 6532SOL    MW425902   0.842   2.211   5.704  0.0433  0.4595  0.7095
 6533SOL     OW25903   4.548   1.603   0.969 -0.1912 -0.1668 -0.2288
 6533SOL    HW225904   4.557   1.678   1.027  2.2686  1.0920 -2.0576
 6533SOL    HW325905   4.471   1.621   0.916 -0.5304  0.2700  0.4107
 6533SOL    MW425906   4.539   1.615   0.970  0.0886  0.0569 -0.3857
 6534SOL     OW25907   4.962   5.141   0.712 -0.5583 -0.4102  0.1009
 6534SOL    HW225908   5.050   5.108   0.695 -0.2364  0.1199  0.7278
 6534SOL    HW325909   4.913   5.122   0.631  0.6692  1.1956 -1.0836
 6534SOL    MW425910   4.967   5.134   0.699 -0.3539 -0.1284  0.0273
 6535SOL     OW25911   2.795   1.508   2.893 -0.1066  0.2843 -0.2135
 6535SOL    HW225912   2.699   1.512   2.892 -0.0754  0.9181 -1.2985
 6535SOL    HW325913   2.823   1.574   2.830  1.0883  1.1151  1.1102
 6535SOL    MW425914   2.786   1.517   2.885  0.0552  0.4776 -0.1820
 6536SOL     OW25915   4.266   3.366   2.463  0.3446  0.1545 -0.8837
 6536SOL    HW225916   4.342   3.309   2.473  0.9354  1.1191  0.3889
 6536SOL    HW325917   4.247   3.364   2.369  1.5268 -0.6169 -1.1340
 6536SOL    MW425918   4.274   3.359   2.452  0.5786  0.1800 -0.7489
 6537SOL     OW25919   5.270   2.245   2.701 -0.0942 -0.0856  0.0048
 6537SOL    HW225920   5.303   2.262   2.613  1.2549 -1.0118  0.3065
 6537SOL    HW325921   5.307   2.160   2.725  0.4148  0.6033  1.8693
 6537SOL    MW425922   5.279   2.236   2.693  0.1510 -0.1169  0.2906
 6538SOL     OW25923   1.670   1.828   6.123  0.1788 -0.1003  0.1858
 6538SOL    HW225924   1.590   1.875   6.101 -0.9183 -1.3365  1.3253
 6538SOL    HW325925   1.730   1.895   6.157 -1.2337  0.5480  1.5330
 6538SOL    MW425926   1.667   1.843   6.125 -0.1524 -0.1778  0.5139
 6539SOL     OW25927   4.139   2.495   4.737 -0.7179 -0.8677  0.1624
 6539SOL    HW225928   4.119   2.588   4.728 -0.8111 -0.8644  0.4140
 6539SOL    HW325929   4.093   2.453   4.664  0.3420 -0.5657 -0.7046
 6539SOL    MW425930   4.131   2.502   4.726 -0.5904 -0.8274  0.0812
 6540SOL     OW25931   3.910   5.953   4.651  0.3531  0.5123 -0.2155
 6540SOL    HW225932   3.949   6.010   4.717  2.0385  0.0191 -0.7399
 6540SOL    HW325933   3.975   5.885   4.635 -0.3667  0.1262 -1.7631
 6540SOL    MW425934   3.923   5.952   4.658  0.4805  0.3963 -0.4889
 6541SOL     OW25935   4.537   2.015   2.668 -0.3170 -0.1176  0.1155
 6541SOL    HW225936   4.530   2.018   2.763  2.5144  0.1377  0.3959
 6541SOL    HW325937   4.568   2.102   2.643  2.3464 -1.1806 -0.6024
 6541SOL    MW425938   4.540   2.026   2.677  0.4080 -0.2242  0.0577
 6542SOL     OW25939   5.724   3.442   0.185  0.0770 -0.5079  0.4532
 6542SOL    HW225940   5.650   3.493   0.154 -1.6169 -1.9574  1.9340
 6542SOL    HW325941   5.708   3.353   0.151  0.1361 -1.2519  2.2709
 6542SOL    MW425942   5.712   3.437   0.176 -0.1387 -0.7973  0.8884
 6543SOL     OW25943   3.625   2.052   0.074  0.3904  0.1137  0.1616
 6543SOL    HW225944   3.677   2.086   0.147 -0.1450  0.4029  0.4082
 6543SOL    HW325945   3.564   2.122   0.052 -0.8815 -0.7592  0.8215
 6543SOL    MW425946   3.624   2.066   0.080  0.1519  0.0367  0.2812
 6544SOL     OW25947   2.150   5.099   6.135 -0.5224 -0.6231 -0.0516
 6544SOL    HW225948   2.147   5.029   6.201  2.4601 -0.5671  0.3058
 6544SOL    HW325949   2.188   5.057   6.058 -1.9812 -0.1710 -1.0374
 6544SOL    MW425950   2.155   5.084   6.134 -0.3214 -0.5560 -0.1345
 6545SOL     OW25951   1.342   5.078   5.039 -0.7708 -0.0250 -0.4944
 6545SOL    HW225952   1.390   5.062   5.120  2.9238  1.0649 -2.2418
 6545SOL    HW325953   1.271   5.136   5.064  0.5938  0.7539  1.9187
 6545SOL    MW425954   1.339   5.083   5.053 -0.1033  0.2215 -0.4066
 6546SOL     OW25955   2.587   4.149   0.373 -0.0404 -0.1499 -0.3883
 6546SOL    HW225956   2.653   4.216   0.390  1.0988 -0.6740 -2.3502
 6546SOL    HW325957   2.511   4.197   0.341  0.8573  0.2487 -2.0313
 6546SOL    MW425958   2.586   4.164   0.371  0.2283 -0.1664 -0.8639
 6547SOL     OW25959   4.940   5.518   2.010  0.0897 -0.2069  0.1091
 6547SOL    HW225960   5.016   5.576   2.019 -1.0191  1.5698 -1.3433
 6547SOL    HW325961   4.965   5.457   1.940  0.5275 -0.2695  0.3135
 6547SOL    MW425962   4.954   5.517   2.002  0.0012  0.0193 -0.0556
 6548SOL     OW25963   0.852   6.044   1.388  0.3986  0.1941  0.0409
 6548SOL    HW225964   0.913   6.118   1.387  1.4727 -0.5346 -3.2736
 6548SOL    HW325965   0.774   6.078   1.345  0.5127 -0.2928 -0.5633
 6548SOL    MW425966   0.850   6.058   1.382  0.5554  0.0338 -0.4761
 6549SOL     OW25967   1.590   2.293   1.073  0.0556 -0.0012 -0.1383
 6549SOL    HW225968   1.606   2.241   1.152 -0.0119 -1.4803 -1.0545
 6549SOL    HW325969   1.513   2.252   1.034  1.3788 -0.7583 -2.1158
 6549SOL    MW425970   1.582   2.280   1.078  0.2213 -0.2962 -0.5201
 6550SOL     OW25971   4.750   5.764   5.030 -0.5551 -0.9375 -0.0436
 6550SOL    HW225972   4.753   5.744   5.123 -1.6632 -3.0739 -0.4181
 6550SOL    HW325973   4.802   5.695   4.988 -0.4067 -0.2411 -1.0680
 6550SOL    MW425974   4.757   5.752   5.036 -0.6818 -1.1275 -0.2282
 6551SOL     OW25975   5.026   2.831   5.250  0.2672 -0.2671 -0.1597
 6551SOL    HW225976   4.931   2.828   5.235  0.5356 -2.8546 -1.9207
 6551SOL    HW325977   5.049   2.741   5.274  2.3839  0.1013 -0.6294
 6551SOL    MW425978   5.017   2.819   5.251  0.5819 -0.5599 -0.4540
 6552SOL     OW25979   2.236   1.551   4.680 -0.0339 -0.2616 -0.9261
 6552SOL    HW225980   2.314   1.605   4.692 -1.0880  1.3109 -0.8826
 6552SOL    HW325981   2.197   1.546   4.768  0.8122 -2.3689 -0.6214
 6552SOL    MW425982   2.241   1.558   4.694 -0.0613 -0.3322 -0.8801
 6553SOL     OW25983   3.186   2.730   2.628 -0.4333  0.8090 -0.2018
 6553SOL    HW225984   3.220   2.652   2.585  0.4696  2.4829 -2.7455
 6553SOL    HW325985   3.116   2.760   2.571 -1.3484  1.4078  1.1955
 6553SOL    MW425986   3.181   2.724   2.615 -0.4349  1.1089 -0.3530
 6554SOL     OW25987   5.674   2.503   2.871  0.0390  0.0162  0.2163
 6554SOL    HW225988   5.705   2.414   2.889 -0.0526 -0.5184 -1.9110
 6554SOL    HW325989   5.579   2.496   2.875 -0.0387 -0.4099 -1.4276
 6554SOL    MW425990   5.666   2.490   2.874  0.0167 -0.1105 -0.2813
 6555SOL     OW25991   3.524   3.082   1.907  0.5171  0.0160  0.6967
 6555SOL    HW225992   3.537   2.994   1.944  1.1531 -0.5744 -0.8255
 6555SOL    HW325993   3.460   3.123   1.965  0.5028 -1.3125  1.6781
 6555SOL    MW425994   3.517   3.076   1.919  0.5991 -0.2372  0.6253
 6556SOL     OW25995   1.752   0.284   4.596 -0.3364 -0.6359 -0.0744
 6556SOL    HW225996   1.785   0.194   4.595 -0.1571 -0.6077  1.4597
 6556SOL    HW325997   1.827   0.336   4.568  1.6226 -0.4326  4.7048
 6556SOL    MW425998   1.767   0.279   4.592 -0.0543 -0.6053  0.7586
 6557SOL     OW25999   0.043   2.047   2.077 -0.3457  0.3080  0.0498
 6557SOL    HW226000   0.105   2.118   2.095  4.0373 -2.7047 -1.4622
 6557SOL    HW326001   0.032   2.002   2.161  2.5944 -1.1281 -0.1971
 6557SOL    MW426002   0.050   2.050   2.090  0.6205 -0.2790 -0.1823
 6558SOL     OW26003   5.181   3.948   1.196 -0.2727 -0.2459  0.6113
 6558SOL    HW226004   5.138   3.876   1.150 -2.3222  0.6960  0.9006
 6558SOL    HW326005   5.271   3.920   1.208 -0.7285 -2.2455 -0.3107
 6558SOL    MW426006   5.187   3.935   1.192 -0.6032 -0.3855  0.5278
 6559SOL     OW26007   3.548   0.651   6.364  0.4854  0.1233  0.0381
 6559SOL    HW226008   3.476   0.685   6.310 -0.7811 -2.5115 -0.0825
 6559SOL    HW326009   3.610   0.614   6.301  0.9716  0.5984  0.2323
 6559SOL    MW426010   3.547   0.651   6.348  0.3825 -0.1617  0.0478
 6560SOL     OW26011   3.702   1.467   0.565  0.2968  0.0269  0.1932
 6560SOL    HW226012   3.633   1.532   0.580  1.4034  0.5267  4.5612
 6560SOL    HW326013   3.655   1.388   0.536 -1.6221  1.3396 -0.4915
 6560SOL    MW426014   3.686   1.465   0.563  0.1896  0.2661  0.6792
 6561SOL     OW26015   0.970   4.700   3.748 -0.5276 -0.3345 -0.4403
 6561SOL    HW226016   0.946   4.735   3.662 -2.8769  1.3764  0.7798
 6561SOL    HW326017   0.935   4.611   3.748 -1.5632  0.0522 -0.8876
 6561SOL    MW426018   0.962   4.693   3.736 -0.9742 -0.0578 -0.3383
 6562SOL     OW26019   0.597   1.716   5.215  0.0493 -0.0167 -0.8010
 6562SOL    HW226020   0.678   1.751   5.180 -0.7302  1.9959 -0.7330
 6562SOL    HW326021   0.536   1.718   5.142 -0.5755  0.7577 -0.2796
 6562SOL    MW426022   0.599   1.721   5.201 -0.1360  0.3510 -0.7232
 6563SOL     OW26023   5.765   3.521   1.429 -0.0375 -0.3055  0.1184
 6563SOL    HW226024   5.777   3.519   1.334  1.0841 -1.9367  0.2679
 6563SOL    HW326025   5.854   3.522   1.464 -0.1366 -5.3263  1.1743
 6563SOL    MW426026   5.778   3.521   1.421  0.0974 -1.1831  0.2775
 6564SOL     OW26027   4.190   2.285   3.450 -0.1322  0.0477 -0.0094
 6564SOL    HW226028   4.107   2.294   3.402 -0.8208 -1.8574  0.7436
 6564SOL    HW326029   4.165   2.288   3.542  0.9183  1.3848  0.2680
 6564SOL    MW426030   4.175   2.287   3.456 -0.0844 -0.0273  0.1265
 6565SOL     OW26031   1.024   1.926   5.183 -0.1606 -0.3755  0.3282
 6565SOL    HW226032   1.026   1.929   5.279  0.4367 -2.0947  0.3973
 6565SOL    HW326033   0.981   2.008   5.158  0.0217  0.2966  2.0428
 6565SOL    MW426034   1.019   1.937   5.193 -0.0577 -0.5137  0.5636
 6566SOL     OW26035   6.345   2.118   4.383 -0.4439  0.2023  0.8508
 6566SOL    HW226036   6.282   2.145   4.450 -0.9912 -1.7453  1.1786
 6566SOL    HW326037   6.430   2.128   4.426 -0.7055  0.1802  1.3869
 6566SOL    MW426038   6.348   2.123   4.397 -0.5506 -0.0576  0.9648
 6567SOL     OW26039   5.510   0.695   5.817 -0.2487  0.4114 -0.4077
 6567SOL    HW226040   5.585   0.641   5.842 -0.9791 -0.9973 -1.1674
 6567SOL    HW326041   5.504   0.685   5.722 -0.7676  1.3632 -0.4831
 6567SOL    MW426042   5.519   0.687   5.808 -0.4135  0.3511 -0.5179
 6568SOL     OW26043   3.816   4.671   0.943  0.0559  0.5282  0.2232
 6568SOL    HW226044   3.739   4.625   0.976  1.0037 -1.7809 -0.5789
 6568SOL    HW326045   3.804   4.761   0.972 -3.4259  0.5109 -0.7074
 6568SOL    MW426046   3.804   4.677   0.951 -0.2785  0.2213 -0.0054
 6569SOL     OW26047   5.346   0.482   5.459 -0.2983  0.0850  0.3684
 6569SOL    HW226048   5.275   0.514   5.403 -0.8002  1.7012  1.8502
 6569SOL    HW326049   5.355   0.390   5.435 -2.2403  0.0708 -0.5505
 6569SOL    MW426050   5.338   0.474   5.448 -0.6207  0.2964  0.4426
 6570SOL     OW26051   5.506   3.490   4.137 -0.1446  0.6161  0.2690
 6570SOL    HW226052   5.411   3.503   4.141 -0.2974 -0.5584  1.6936
 6570SOL    HW326053   5.527   3.492   4.044 -1.3880  1.9518 -0.0266
 6570SOL    MW426054   5.496   3.492   4.125 -0.3288  0.6373  0.4180
 6571SOL     OW26055   4.355   2.204   6.324 -0.1992  0.5297 -0.4295
 6571SOL    HW226056   4.286   2.243   6.272 -1.6026 -1.5375 -0.2258
 6571SOL    HW326057   4.311   2.174   6.404  1.4208  1.3716  0.8495
 6571SOL    MW426058   4.340   2.206   6.328 -0.1706  0.3680 -0.2338
 6572SOL     OW26059   5.115   4.333   0.914 -0.2201 -0.3110  0.1889
 6572SOL    HW226060   5.119   4.244   0.879  0.3496 -0.5441  0.8242
 6572SOL    HW326061   5.183   4.335   0.981 -2.0790 -0.2863  2.1791
 6572SOL    MW426062   5.124   4.322   0.918 -0.3902 -0.3385  0.5353
 6573SOL     OW26063   5.494   5.172   3.512  0.8224 -0.2448 -0.3317
 6573SOL    HW226064   5.508   5.090   3.464 -1.1429 -2.3925  2.4267
 6573SOL    HW326065   5.399   5.178   3.522  0.8569  2.6887 -0.7394
 6573SOL    MW426066   5.483   5.162   3.507  0.5676 -0.1411 -0.0215
 6574SOL     OW26067   5.123   3.639   5.026  0.2907 -0.1741 -0.2085
 6574SOL    HW226068   5.121   3.728   5.062 -0.1762 -0.2582 -0.0162
 6574SOL    HW326069   5.200   3.638   4.969 -1.2423  1.2793 -2.5320
 6574SOL    MW426070   5.133   3.651   5.023  0.0269  0.0066 -0.4897
 6575SOL     OW26071   3.273   5.125   3.496 -0.2744  0.1609 -0.7163
 6575SOL    HW226072   3.291   5.051   3.438  0.0498  0.4815 -1.0269
 6575SOL    HW326073   3.355   5.140   3.542 -0.0793  0.8840 -1.2880
 6575SOL    MW426074   3.286   5.117   3.494 -0.2059  0.2986 -0.8327
 6576SOL     OW26075   2.483   5.020   6.250  0.4087  0.7239 -0.4199
 6576SOL    HW226076   2.567   5.040   6.210 -0.1106 -1.0490 -2.6041
 6576SOL    HW326077   2.460   4.933   6.217 -0.8464 -0.2318  2.6132
 6576SOL    MW426078   2.491   5.011   6.241  0.1746  0.3639 -0.3079
 6577SOL     OW26079   2.067   3.409   4.205 -0.4606  0.1364  0.2828
 6577SOL    HW226080   2.012   3.341   4.244  0.8591 -0.2349  1.6054
 6577SOL    HW326081   2.091   3.374   4.119 -0.2820 -0.8380  0.7058
 6577SOL    MW426082   2.063   3.395   4.199 -0.2629 -0.0412  0.5131
 6578SOL     OW26083   0.897   4.449   1.242  0.3480  0.2815 -0.0942
 6578SOL    HW226084   0.820   4.472   1.188 -0.1321  0.5462  0.6800
 6578SOL    HW326085   0.940   4.379   1.193 -0.7536 -0.3374 -0.2299
 6578SOL    MW426086   0.892   4.443   1.228  0.1393  0.2348 -0.0099
 6579SOL     OW26087   4.598   1.567   3.838  0.2125  0.2618 -0.1699
 6579SOL    HW226088   4.635   1.579   3.750 -1.1583  0.3843 -0.7637
 6579SOL    HW326089   4.595   1.654   3.876  2.8784 -0.0338  0.9361
 6579SOL    MW426090   4.602   1.580   3.831  0.3834  0.2390 -0.1023
 6580SOL     OW26091   6.032   0.115   4.213 -0.6624  0.3532  0.0972
 6580SOL    HW226092   5.939   0.133   4.200 -0.6547  0.8068  0.6082
 6580SOL    HW326093   6.038   0.019   4.213 -1.0519  0.3237 -0.4284
 6580SOL    MW426094   6.020   0.105   4.211 -0.7127  0.4091  0.0952
 6581SOL     OW26095   1.530   0.176   2.634 -0.0592  0.0558  0.2991
 6581SOL    HW226096   1.464   0.244   2.645 -0.9231 -0.8962  1.1436
 6581SOL    HW326097   1.482   0.101   2.600  0.8572 -0.2078 -0.4710
 6581SOL    MW426098   1.515   0.175   2.631 -0.0523 -0.1046  0.3089
 6582SOL     OW26099   3.109   6.155   5.672 -0.2926 -0.2734 -0.5453
 6582SOL    HW226100   3.058   6.217   5.724  0.1132 -0.9347  0.6795
 6582SOL    HW326101   3.089   6.070   5.710  0.4039 -0.7201 -1.1615
 6582SOL    MW426102   3.100   6.152   5.684 -0.1471 -0.4196 -0.4650
 6583SOL     OW26103   3.327   0.505   3.942  0.2876 -0.5866 -0.0264
 6583SOL    HW226104   3.243   0.484   3.981  0.4931  0.0510  0.7845
 6583SOL    HW326105   3.305   0.556   3.863 -0.1040 -1.2645 -0.3593
 6583SOL    MW426106   3.313   0.509   3.937  0.2631 -0.5919  0.0366
 6584SOL     OW26107   2.033   3.587   4.642 -0.4405  0.3918 -0.5100
 6584SOL    HW226108   1.946   3.585   4.681 -1.1234 -2.3230 -1.9595
 6584SOL    HW326109   2.035   3.670   4.593 -2.1491  0.5691 -0.3386
 6584SOL    MW426110   2.022   3.598   4.640 -0.7560  0.0570 -0.6786
 6585SOL     OW26111   4.851   1.611   1.334  0.5208  0.4302  0.0325
 6585SOL    HW226112   4.869   1.681   1.272  0.3138  1.3344  0.9637
 6585SOL    HW326113   4.761   1.627   1.363  1.2484  1.2028  2.0203
 6585SOL    MW426114   4.841   1.622   1.330  0.5895  0.6515  0.4176
 6586SOL     OW26115   0.636   2.809   2.887  0.3469 -0.1324  0.0698
 6586SOL    HW226116   0.617   2.795   2.795 -0.7374  0.8395  0.1124
 6586SOL    HW326117   0.729   2.833   2.890  0.1500  0.8114 -0.8951
 6586SOL    MW426118   0.646   2.811   2.876  0.1779  0.1203 -0.0519
 6587SOL     OW26119   3.518   1.169   1.451  0.3226  0.6088 -0.1641
 6587SOL    HW226120   3.465   1.207   1.521  0.9757  0.7194  0.2740
 6587SOL    HW326121   3.484   1.080   1.442  2.1825 -0.4716  2.3913
 6587SOL    MW426122   3.506   1.162   1.459  0.6542  0.4809  0.2309
 6588SOL     OW26123   1.464   3.129   2.595 -0.4458  0.2193 -0.0525
 6588SOL    HW226124   1.556   3.151   2.580 -0.4628 -0.3780 -1.0688
 6588SOL    HW326125   1.442   3.068   2.525 -1.7259  0.6496 -0.0447
 6588SOL    MW426126   1.473   3.124   2.584 -0.6169  0.1973 -0.1856
 6589SOL     OW26127   2.120   2.637   4.950 -0.0653 -0.3621  0.3771
 6589SOL    HW226128   2.043   2.692   4.966 -0.5011 -0.6576 -0.6090
 6589SOL    HW326129   2.167   2.637   5.033 -0.7637  0.3996  0.7885
 6589SOL    MW426130   2.116   2.644   4.963 -0.2150 -0.3006  0.3013
 6590SOL     OW26131   0.159   4.207   2.361  0.3242  0.4068 -0.4337
 6590SOL    HW226132   0.206   4.266   2.301  1.5363  1.3709  1.3465
 6590SOL    HW326133   0.141   4.129   2.309  2.0551  0.8547 -1.8284
 6590SOL    MW426134   0.163   4.205   2.346  0.7125  0.5931 -0.3828
 6591SOL     OW26135   1.606   3.029   1.863 -1.1533  0.3686 -0.0228
 6591SOL    HW226136   1.621   2.965   1.794  1.7355  1.4121 -0.4866
 6591SOL    HW326137   1.649   2.992   1.940  2.0753  2.3045 -0.7117
 6591SOL    MW426138   1.614   3.016   1.864 -0.3462  0.7617 -0.1749
 6592SOL     OW26139   2.892   2.120   3.321  0.0303 -0.0200  0.1120
 6592SOL    HW226140   2.901   2.149   3.230 -0.1442 -0.5191 -0.0691
 6592SOL    HW326141   2.978   2.136   3.360  0.0419  0.3986 -0.0795
 6592SOL    MW426142   2.905   2.126   3.314  0.0088 -0.0306  0.0629
 6593SOL     OW26143   1.560   1.678   4.812 -0.3856  0.1049  0.0863
 6593SOL    HW226144   1.570   1.770   4.835 -1.3391  0.3680 -0.4823
 6593SOL    HW326145   1.491   1.645   4.871  0.2241 -0.3527  0.5570
 6593SOL    MW426146   1.552   1.686   4.823 -0.4310  0.0793  0.0734
 6594SOL     OW26147   3.602   5.061   3.252 -0.0620  0.3300  0.2186
 6594SOL    HW226148   3.658   5.115   3.308 -1.0333  2.3238 -0.6360
 6594SOL    HW326149   3.635   5.076   3.164 -0.3072 -0.5911 -0.0434
 6594SOL    MW426150   3.614   5.070   3.248 -0.2225  0.4716  0.0713
 6595SOL     OW26151   4.651   4.680   6.196 -0.1261  0.1573 -0.0442
 6595SOL    HW226152   4.618   4.766   6.219 -0.4691 -0.3853  1.6001
 6595SOL    HW326153   4.723   4.698   6.135 -1.3246  1.4919 -1.1587
 6595SOL    MW426154   4.656   4.694   6.191 -0.3295  0.2618  0.0257
 6596SOL     OW26155   3.512   0.638   4.742  0.4373 -0.1387 -0.5724
 6596SOL    HW226156   3.569   0.713   4.726  0.1325  0.2455  0.1041
 6596SOL    HW326157   3.447   0.670   4.805  0.6066 -1.1025  0.1265
 6596SOL    MW426158   3.511   0.652   4.748  0.4194 -0.2152 -0.3909
 6597SOL     OW26159   2.001   3.173   5.776 -0.3861  0.6339  0.1473
 6597SOL    HW226160   1.912   3.151   5.803 -0.3571  1.5336  1.0068
 6597SOL    HW326161   2.024   3.105   5.713 -0.3142 -1.7878  2.6155
 6597SOL    MW426162   1.992   3.161   5.771 -0.3728  0.4331  0.5864
 6598SOL     OW26163   5.449   1.848   2.246  0.1142  0.1964 -0.1987
 6598SOL    HW226164   5.493   1.904   2.310  2.1331  0.6117 -1.8177
 6598SOL    HW326165   5.520   1.801   2.203 -1.3651 -1.8619 -0.5306
 6598SOL    MW426166   5.464   1.849   2.249  0.1854 -0.0204 -0.4561
 6599SOL     OW26167   5.454   4.399   0.735  0.1131  0.1341 -0.0898
 6599SOL    HW226168   5.453   4.495   0.741  0.5954  0.3809 -2.7494
 6599SOL    HW326169   5.547   4.377   0.728 -0.0367 -0.4622 -0.2654
 6599SOL    MW426170   5.467   4.409   0.735  0.1569  0.0880 -0.4639
 6600SOL     OW26171   2.245   2.741   0.035 -0.3521  0.1001 -0.0164
 6600SOL    HW226172   2.269   2.825   0.076  1.1401 -0.8176  1.1028
 6600SOL    HW326173   2.309   2.729  -0.034 -0.7597  0.0206 -0.3830
 6600SOL    MW426174   2.256   2.751   0.032 -0.2090 -0.0314  0.0829
 6601SOL     OW26175   6.131   3.902   1.146  0.4858  0.2723  0.3558
 6601SOL    HW226176   6.044   3.866   1.165 -0.0051  0.4356 -1.3664
 6601SOL    HW326177   6.178   3.829   1.106 -0.2812  1.2078 -2.5041
 6601SOL    MW426178   6.126   3.887   1.143  0.3198  0.4173 -0.2488
 6602SOL     OW26179   4.262   4.337   4.018  0.2578  0.2474 -0.2390
 6602SOL    HW226180   4.235   4.340   3.926 -0.8390  0.7969  0.0791
 6602SOL    HW326181   4.222   4.415   4.058 -2.4887 -1.8406  1.4989
 6602SOL    MW426182   4.253   4.348   4.011 -0.2493  0.0444  0.0323
 6603SOL     OW26183   5.673   0.473   0.814 -0.1527  0.1621  0.0771
 6603SOL    HW226184   5.731   0.454   0.887 -0.2380 -1.2422 -0.1887
 6603SOL    HW326185   5.643   0.387   0.784  1.8581  0.4510 -3.2165
 6603SOL    MW426186   5.677   0.459   0.819  0.1013  0.0149 -0.3925
 6604SOL     OW26187   4.138   4.236   1.396  0.1371  0.3891  0.0357
 6604SOL    HW226188   4.187   4.316   1.380 -1.1221  0.9190 -1.4224
 6604SOL    HW326189   4.128   4.233   1.491 -0.2014  2.2221  0.0962
 6604SOL    MW426190   4.143   4.246   1.406 -0.0737  0.7008 -0.1487
 6605SOL     OW26191   3.943   3.452   3.230 -0.6139 -0.3273  0.4440
 6605SOL    HW226192   3.990   3.404   3.298  0.8247 -0.3191 -0.5088
 6605SOL    HW326193   4.011   3.479   3.168 -1.3219  2.9107  0.8831
 6605SOL    MW426194   3.958   3.450   3.231 -0.5175  0.1010  0.3762
 6606SOL     OW26195   5.872   4.812   3.729 -0.8294 -0.2105 -0.1821
 6606SOL    HW226196   5.828   4.812   3.814 -0.3015  0.5088  0.1085
 6606SOL    HW326197   5.965   4.805   3.751 -0.6818  0.0846 -0.6912
 6606SOL    MW426198   5.879   4.811   3.743 -0.7403 -0.0767 -0.2110
 6607SOL     OW26199   2.914   3.033   3.566  0.8015 -0.1257  0.3696
 6607SOL    HW226200   2.910   3.001   3.476  0.7156 -0.7001  0.5702
 6607SOL    HW326201   2.920   2.953   3.619 -3.2742 -0.1047  1.1731
 6607SOL    MW426202   2.914   3.018   3.561  0.2524 -0.1987  0.5021
 6608SOL     OW26203   0.026   4.677   0.055 -0.3944  0.2783  0.0126
 6608SOL    HW226204   0.018   4.609   0.123 -0.7892  0.1855 -0.1251
 6608SOL    HW326205  -0.016   4.754   0.093  0.9090  0.7524  0.5610
 6608SOL    MW426206   0.020   4.678   0.069 -0.2745  0.3286  0.0668
 6609SOL     OW26207   4.287   6.115   5.000  0.3588 -0.2181 -0.3082
 6609SOL    HW226208   4.354   6.183   5.002 -0.0959  0.2373 -0.3120
 6609SOL    HW326209   4.333   6.035   5.024  0.7508  0.2140  0.4192
 6609SOL    MW426210   4.302   6.113   5.003  0.3505 -0.1010 -0.2127
 6610SOL     OW26211   3.143   3.498   1.636  0.2234  0.1095  0.1456
 6610SOL    HW226212   3.163   3.434   1.567 -1.4819 -0.4349  0.1214
 6610SOL    HW326213   3.163   3.583   1.596  0.0924 -0.2544 -0.7096
 6610SOL    MW426214   3.148   3.501   1.622 -0.0189 -0.0103  0.0296
 6611SOL     OW26215   5.364   1.956   3.692 -0.3913  0.0406  0.2921
 6611SOL    HW226216   5.294   1.921   3.636  1.1836 -0.0021 -1.7580
 6611SOL    HW326217   5.377   2.046   3.662  1.4235 -0.4178 -0.4405
 6611SOL    MW426218   5.357   1.963   3.681  0.0559 -0.0255 -0.0751
 6612SOL     OW26219   2.364   0.605   4.602  0.3034 -0.1651  0.1875
 6612SOL    HW226220   2.356   0.563   4.687 -0.7838 -0.4814 -0.0520
 6612SOL    HW326221   2.452   0.583   4.572  1.1216  0.9144  1.7191
 6612SOL    MW426222   2.374   0.597   4.609  0.2680 -0.0644  0.3580
 6613SOL     OW26223   0.263   1.636   1.517  0.1000  0.1407 -0.0344
 6613SOL    HW226224   0.337   1.696   1.504  0.7266 -0.4146  0.8472
 6613SOL    HW326225   0.186   1.693   1.519  0.7709  1.0769  1.8131
 6613SOL    MW426226   0.263   1.651   1.515  0.2712  0.1910  0.3257
 6614SOL     OW26227   4.361   4.148   1.924  0.2408 -0.3136 -1.1148
 6614SOL    HW226228   4.396   4.121   1.839 -1.0338 -2.4468 -1.0404
 6614SOL    HW326229   4.395   4.083   1.986 -2.7041 -1.7675 -0.8610
 6614SOL    MW426230   4.370   4.136   1.921 -0.3159 -0.7868 -1.0715
 6615SOL     OW26231   3.883   2.780   0.481  0.0496  0.4241 -0.1720
 6615SOL    HW226232   3.975   2.771   0.457 -0.7470  0.9425 -4.0226
 6615SOL    HW326233   3.851   2.690   0.486  0.7279  0.2390  1.2826
 6615SOL    MW426234   3.891   2.767   0.479  0.0340  0.4681 -0.4881
 6616SOL     OW26235   2.887   5.139   5.659  0.0475 -0.5145 -0.3683
 6616SOL    HW226236   2.965   5.193   5.647 -0.0856  0.0805  1.2332
 6616SOL    HW326237   2.921   5.049   5.659  1.0757 -0.2110  2.2002
 6616SOL    MW426238   2.902   5.134   5.657  0.1656 -0.3959  0.1819
 6617SOL     OW26239   5.649   4.933   1.020  0.2248 -0.3487  0.0608
 6617SOL    HW226240   5.647   4.839   1.004  2.8701 -0.3098 -0.8890
 6617SOL    HW326241   5.565   4.951   1.063 -0.0416 -3.2382  0.9900
 6617SOL    MW426242   5.638   4.923   1.023  0.5386 -0.7248  0.0581
 6618SOL     OW26243   5.522   5.660   1.276 -0.1247  0.1026  0.1891
 6618SOL    HW226244   5.557   5.576   1.307 -0.9027 -0.2196  0.2215
 6618SOL    HW326245   5.540   5.660   1.182 -0.6272 -0.3576  0.0891
 6618SOL    MW426246   5.529   5.649   1.268 -0.2937 -0.0006  0.1802
 6619SOL     OW26247   0.124   0.562   2.617  0.5702 -0.0687  0.3290
 6619SOL    HW226248   0.147   0.593   2.529 -0.4718  0.7794  0.3250
 6619SOL    HW326249   0.064   0.489   2.601  0.3782  0.0875  0.3177
 6619SOL    MW426250   0.119   0.557   2.603  0.4074  0.0638  0.3270
 6620SOL     OW26251   1.041   3.613   4.398 -0.1861  0.1678 -0.0668
 6620SOL    HW226252   1.032   3.688   4.456  0.7932  0.9334 -0.8709
 6620SOL    HW326253   1.071   3.650   4.315  0.7954 -1.1569 -0.3372
 6620SOL    MW426254   1.044   3.628   4.395  0.0726  0.0941 -0.2086
 6621SOL     OW26255   0.282   5.532   0.494  0.1235 -0.2468  0.3303
 6621SOL    HW226256   0.326   5.604   0.540 -1.3237  0.4607  0.6545
 6621SOL    HW326257   0.307   5.454   0.543  1.3611  0.0627  0.2410
 6621SOL    MW426258   0.291   5.531   0.506  0.0958 -0.1126  0.3613
 6622SOL     OW26259   2.349   5.949   2.777 -0.1592  0.0090 -0.0209
 6622SOL    HW226260   2.437   5.986   2.771 -0.2289  0.5144  1.6543
 6622SOL    HW326261   2.336   5.933   2.870 -1.9947  0.3231 -0.1909
 6622SOL    MW426262   2.359   5.952   2.788 -0.4106  0.1171  0.1777
 6623SOL     OW26263   5.161   5.257   5.899 -0.2060 -0.5447  0.5146
 6623SOL    HW226264   5.250   5.235   5.874 -0.4705 -0.4587 -0.5508
 6623SOL    HW326265   5.151   5.349   5.874 -0.3245 -0.2996  1.4232
 6623SOL    MW426266   5.171   5.267   5.893 -0.2565 -0.5010  0.4939
 6624SOL     OW26267   1.182   4.863   0.192 -0.7225 -0.3479  0.4980
 6624SOL    HW226268   1.269   4.889   0.162 -0.6713  0.8617  1.5738
 6624SOL    HW326269   1.125   4.876   0.117  0.1201 -1.8171 -0.4289
 6624SOL    MW426270   1.186   4.868   0.178 -0.6046 -0.3821  0.5177
 6625SOL     OW26271   5.373   2.060   0.916 -0.2851 -0.2539 -0.4207
 6625SOL    HW226272   5.448   2.118   0.905 -0.2175 -0.5666 -1.7800
 6625SOL    HW326273   5.361   2.054   1.011  0.1076  1.4483 -0.2323
 6625SOL    MW426274   5.381   2.067   0.927 -0.2244 -0.0706 -0.5752
 6626SOL     OW26275   2.377   5.850   6.158 -0.0101 -0.0463 -0.2345
 6626SOL    HW226276   2.346   5.792   6.088 -0.3415 -1.6228  1.1560
 6626SOL    HW326277   2.297   5.891   6.191 -0.0650 -0.5285  0.2504
 6626SOL    MW426278   2.362   5.847   6.153 -0.0611 -0.3179  0.0129
 6627SOL     OW26279   1.637   6.426   5.651  0.2032 -0.2546 -0.3528
 6627SOL    HW226280   1.730   6.449   5.649  0.3882 -0.7856  1.0350
 6627SOL    HW326281   1.591   6.511   5.652  0.6840  0.0101 -0.6804
 6627SOL    MW426282   1.643   6.440   5.651  0.2910 -0.2897 -0.2129
 6628SOL     OW26283   3.530   3.822   3.823  0.0845  0.5545  0.0727
 6628SOL    HW226284   3.592   3.818   3.750  0.5790  0.1365  0.5038
 6628SOL    HW326285   3.583   3.848   3.898 -0.3888  0.8202  0.3219
 6628SOL    MW426286   3.545   3.825   3.824  0.0873  0.5344  0.1624
 6629SOL     OW26287   6.364   5.098   1.106  0.2664 -0.7229 -0.2471
 6629SOL    HW226288   6.343   5.153   1.182 -0.2716 -2.5685  1.0032
 6629SOL    HW326289   6.441   5.048   1.133  1.1274 -0.2005 -1.6001
 6629SOL    MW426290   6.371   5.099   1.120  0.3090 -0.8975 -0.2606
 6630SOL     OW26291   3.452   5.586   1.217  0.2642 -0.0327  0.2336
 6630SOL    HW226292   3.446   5.527   1.142  0.7743  0.2291 -0.0191
 6630SOL    HW326293   3.441   5.673   1.179  1.4111  0.1673  0.3278
 6630SOL    MW426294   3.449   5.590   1.202  0.4828  0.0282  0.2127
 6631SOL     OW26295   2.528   1.969   1.321 -0.0283  0.0397  0.0359
 6631SOL    HW226296   2.465   2.036   1.292 -1.0811 -1.0752 -0.3175
 6631SOL    HW326297   2.529   1.905   1.250  2.3449  0.5436 -0.4608
 6631SOL    MW426298   2.520   1.970   1.308  0.1459 -0.0409 -0.0763
 6632SOL     OW26299   5.467   4.306   3.521  0.4066  0.2826  0.1576
 6632SOL    HW226300   5.414   4.295   3.442  2.7935  0.2904 -1.5300
 6632SOL    HW326301   5.428   4.382   3.565 -1.2827 -0.0374 -0.6950
 6632SOL    MW426302   5.455   4.315   3.516  0.4986  0.2414 -0.1776
 6633SOL     OW26303   4.554   4.222   4.554 -0.4093  0.1151  0.2660
 6633SOL    HW226304   4.511   4.140   4.528 -1.6665  0.6726  0.5017
 6633SOL    HW326305   4.520   4.287   4.492 -1.3985  0.9309  1.6011
 6633SOL    MW426306   4.544   4.220   4.542 -0.7057  0.2963  0.4733
 6634SOL     OW26307   1.941   4.355   2.012 -0.1457  0.3474  0.1671
 6634SOL    HW226308   1.883   4.380   1.940  1.1718 -0.7686 -1.3617
 6634SOL    HW326309   1.892   4.291   2.063 -0.4143 -0.3214 -0.8997
 6634SOL    MW426310   1.927   4.350   2.009 -0.0073  0.1119 -0.1753
 6635SOL     OW26311   5.970   3.226   3.215 -0.4801 -0.4004 -0.4318
 6635SOL    HW226312   6.013   3.311   3.214 -0.1885 -0.5247  0.4236
 6635SOL    HW326313   5.963   3.201   3.123 -0.2362  0.3767 -0.6655
 6635SOL    MW426314   5.975   3.234   3.203 -0.4094 -0.3142 -0.3497
 6636SOL     OW26315   0.584   4.581   0.545 -0.0303 -0.0436  0.0252
 6636SOL    HW226316   0.573   4.650   0.479 -0.4521 -0.2199 -0.0939
 6636SOL    HW326317   0.587   4.500   0.495  1.1760 -0.0646  0.1130
 6636SOL    MW426318   0.583   4.580   0.530  0.0732 -0.0696  0.0210
 6637SOL     OW26319   2.062   1.534   0.335  0.6028 -0.3870 -0.1665
 6637SOL    HW226320   2.091   1.460   0.387 -0.1314 -0.3480  0.3250
 6637SOL    HW326321   2.117   1.607   0.363  1.1891 -0.6922 -0.5047
 6637SOL    MW426322   2.073   1.534   0.345  0.5833 -0.4221 -0.1463
 6638SOL     OW26323   0.773   2.232   2.065 -0.0728  0.4453  0.1643
 6638SOL    HW226324   0.761   2.219   2.159  0.3197 -1.3634 -0.0079
 6638SOL    HW326325   0.797   2.325   2.057  0.8282  0.4182  1.9457
 6638SOL    MW426326   0.775   2.243   2.077  0.0979  0.2031  0.3766
 6639SOL     OW26327   5.437   1.695   6.145 -0.2049 -0.2018  0.1266
 6639SOL    HW226328   5.483   1.741   6.075  0.0238 -2.2501 -1.1653
 6639SOL    HW326329   5.493   1.705   6.221 -0.3665  1.9220  0.0245
 6639SOL    MW426330   5.450   1.702   6.146 -0.1961 -0.1919 -0.0573
 6640SOL     OW26331   2.348   4.288   2.333 -0.0400  0.0710 -0.3776
 6640SOL    HW226332   2.408   4.312   2.404  0.5963  0.5008 -1.0412
 6640SOL    HW326333   2.331   4.371   2.288 -1.2646 -0.0203 -0.1054
 6640SOL    MW426334   2.354   4.302   2.336 -0.1176  0.1157 -0.4292
 6641SOL     OW26335   3.666   0.984   6.316  0.3214 -0.5796  0.5437
 6641SOL    HW226336   3.695   0.905   6.361  2.1457  0.9445  2.1865
 6641SOL    HW326337   3.629   0.952   6.233  3.1232 -2.9836  0.0848
 6641SOL    MW426338   3.665   0.970   6.311  0.9317 -0.6957  0.6999
 6642SOL     OW26339   2.399   0.617   1.938 -0.2104 -0.0119 -0.1140
 6642SOL    HW226340   2.378   0.633   2.030 -0.8906  0.0858 -0.2806
 6642SOL    HW326341   2.494   0.608   1.936 -0.2447 -0.5758  0.6792
 6642SOL    MW426342   2.409   0.618   1.950 -0.3047 -0.0734 -0.0313
 6643SOL     OW26343   3.268   2.844   6.306  0.1644  0.1627 -0.5567
 6643SOL    HW226344   3.283   2.770   6.366  0.8577 -1.7499 -2.9224
 6643SOL    HW326345   3.174   2.862   6.313 -0.2816 -1.8248 -0.8104
 6643SOL    MW426346   3.258   2.836   6.315  0.1970 -0.3518 -0.9023
 6644SOL     OW26347   4.217   5.540   6.196 -0.0192  0.3597  0.5383
 6644SOL    HW226348   4.130   5.505   6.181  0.5385 -0.5490 -0.7937
 6644SOL    HW326349   4.204   5.615   6.254 -1.5927 -0.1724  0.9107
 6644SOL    MW426350   4.204   5.545   6.202 -0.1532  0.1696  0.4117
 6645SOL     OW26351   5.561   6.268   1.537  0.4514 -0.4833 -0.6719
 6645SOL    HW226352   5.578   6.325   1.612  0.0474 -1.0421 -0.1398
 6645SOL    HW326353   5.611   6.189   1.554 -1.5409 -1.6275  0.2861
 6645SOL    MW426354   5.570   6.265   1.549  0.1353 -0.7080 -0.4753
 6646SOL     OW26355   3.916   2.308   0.050 -0.1557 -0.6693 -0.5795
 6646SOL    HW226356   3.943   2.232   0.103 -1.1491  0.1403  1.1741
 6646SOL    HW326357   3.941   2.284  -0.040  1.7094 -2.0684  0.2236
 6646SOL    MW426358   3.923   2.295   0.045 -0.0406 -0.7471 -0.2422
 6647SOL     OW26359   2.979   2.824   2.490  0.3752 -0.3284 -0.5256
 6647SOL    HW226360   3.015   2.906   2.524  1.1515 -1.6013  1.9567
 6647SOL    HW326361   2.886   2.829   2.510  0.5789 -0.4249  0.5080
 6647SOL    MW426362   2.972   2.835   2.497  0.5045 -0.5091 -0.0617
 6648SOL     OW26363   2.466   3.376   1.522 -0.5537  0.2942  0.1986
 6648SOL    HW226364   2.508   3.436   1.461  1.1413 -0.0986  0.9361
 6648SOL    HW326365   2.520   3.378   1.601 -1.8448 -0.3451  1.1606
 6648SOL    MW426366   2.478   3.384   1.525 -0.5004  0.1580  0.4229
 6649SOL     OW26367   0.708   1.168   0.333 -0.3212 -0.4154 -0.4525
 6649SOL    HW226368   0.680   1.227   0.263  1.4492  1.0156 -0.0126
 6649SOL    HW326369   0.656   1.195   0.409 -0.9850 -0.8240 -0.7443
 6649SOL    MW426370   0.697   1.179   0.333 -0.1752 -0.2805 -0.4329
 6650SOL     OW26371   4.282   3.807   5.390 -0.5961  0.0728 -1.0912
 6650SOL    HW226372   4.259   3.734   5.447  0.2259  0.3431 -0.3914
 6650SOL    HW326373   4.237   3.882   5.428  1.7193  0.7160  0.6091
 6650SOL    MW426374   4.273   3.807   5.403 -0.1822  0.1933 -0.7746
 6651SOL     OW26375   2.098   4.500   4.408 -0.1935  0.6560  0.4291
 6651SOL    HW226376   2.003   4.492   4.397 -0.3549 -0.1066  2.0705
 6651SOL    HW326377   2.109   4.545   4.492  0.8966  0.3568  0.4617
 6651SOL    MW426378   2.087   4.505   4.418 -0.0710  0.5159  0.6500
 6652SOL     OW26379   2.715   0.318   5.063  0.2251 -0.1632  0.2582
 6652SOL    HW226380   2.802   0.279   5.072 -0.2169 -1.1278  0.4619
 6652SOL    HW326381   2.729   0.394   5.007  1.1788 -0.3815  0.1801
 6652SOL    MW426382   2.729   0.323   5.057  0.2926 -0.3193  0.2748
 6653SOL     OW26383   0.394   6.410   3.616  0.0284 -0.1721  0.2420
 6653SOL    HW226384   0.443   6.413   3.698 -0.4988 -0.1050  0.5636
 6653SOL    HW326385   0.459   6.424   3.548  0.3866  0.3447  0.6858
 6653SOL    MW426386   0.409   6.412   3.618  0.0061 -0.0950  0.3430
 6654SOL     OW26387   2.818   1.889   0.242  0.3048 -0.0813  0.5365
 6654SOL    HW226388   2.814   1.804   0.287  0.6955  0.2968  1.3052
 6654SOL    HW326389   2.847   1.868   0.153 -0.1138 -0.8036  0.5580
 6654SOL    MW426390   2.821   1.875   0.236  0.3011 -0.1267  0.6408
 6655SOL     OW26391   3.994   6.326   5.097  0.1100  0.6504  0.0455
 6655SOL    HW226392   4.014   6.380   5.021 -0.7819  1.7587  0.5651
 6655SOL    HW326393   3.983   6.238   5.062  1.0442  0.9004 -0.9038
 6655SOL    MW426394   3.995   6.322   5.083  0.1156  0.8296 -0.0112
 6656SOL     OW26395   3.217   5.539   2.785 -0.2769 -0.1927  0.0746
 6656SOL    HW226396   3.298   5.583   2.759 -0.5491 -0.1752 -0.7920
 6656SOL    HW326397   3.147   5.597   2.753 -0.6491 -1.4223 -1.4450
 6656SOL    MW426398   3.218   5.553   2.777 -0.3619 -0.3526 -0.2402
 6657SOL     OW26399   4.495   5.881   5.060  0.0123 -0.4218  0.3155
 6657SOL    HW226400   4.579   5.839   5.047 -0.5986 -1.3718 -0.7396
 6657SOL    HW326401   4.506   5.934   5.139  1.5318 -0.6529  0.2753
 6657SOL    MW426402   4.507   5.882   5.069  0.1322 -0.5776  0.1710
 6658SOL     OW26403   1.143   4.450   4.103  0.2432  0.2599  0.6341
 6658SOL    HW226404   1.190   4.435   4.021 -0.6846  1.3897 -0.1206
 6658SOL    HW326405   1.099   4.367   4.121  1.4204 -0.3904  0.6652
 6658SOL    MW426406   1.144   4.437   4.095  0.2761  0.3232  0.5386
 6659SOL     OW26407   4.013   1.997   2.247  0.2464 -0.3620  0.0703
 6659SOL    HW226408   4.013   1.901   2.251  0.7651 -0.3745 -0.1367
 6659SOL    HW326409   4.071   2.017   2.173 -0.8979  0.0783 -0.7322
 6659SOL    MW426410   4.021   1.987   2.238  0.1639 -0.3056 -0.0629
 6660SOL     OW26411   4.569   5.770   6.129 -0.0653 -0.2440 -0.2619
 6660SOL    HW226412   4.635   5.753   6.063 -0.7283 -0.6163 -0.8535
 6660SOL    HW326413   4.487   5.739   6.089 -0.5061 -0.2975  0.6539
 6660SOL    MW426414   4.567   5.763   6.115 -0.2109 -0.3002 -0.2191
 6661SOL     OW26415   1.886   4.344   3.346  0.2268  0.3441 -0.4289
 6661SOL    HW226416   1.854   4.384   3.427  0.8609  1.7618 -0.8309
 6661SOL    HW326417   1.834   4.265   3.335 -0.7451  0.8020  0.6960
 6661SOL    MW426418   1.875   4.339   3.355  0.1822  0.5915 -0.3335
 6662SOL     OW26419   4.883   2.588   1.915 -0.2630  0.4388  0.1472
 6662SOL    HW226420   4.956   2.555   1.968 -0.7477 -0.6787  0.1472
 6662SOL    HW326421   4.914   2.580   1.825  0.4092  1.9683  0.2102
 6662SOL    MW426422   4.897   2.583   1.910 -0.2382  0.4931  0.1555
 6663SOL     OW26423   3.488   3.223   6.147 -0.3282 -0.2220 -0.1185
 6663SOL    HW226424   3.420   3.158   6.132 -0.8830  0.5510 -1.0139
 6663SOL    HW326425   3.455   3.276   6.220 -1.6380  1.3668 -1.7837
 6663SOL    MW426426   3.475   3.221   6.155 -0.5742  0.0896 -0.4563
 6664SOL     OW26427   2.355   3.173   4.229  0.0382 -0.3413 -0.2826
 6664SOL    HW226428   2.449   3.156   4.231  0.2116  0.6339  0.3312
 6664SOL    HW326429   2.318   3.101   4.281  0.6130  0.1850  0.9138
 6664SOL    MW426430   2.363   3.161   4.236  0.1369 -0.1432 -0.0437
 6665SOL     OW26431   4.793   4.253   1.848 -0.0869 -0.2822  0.2696
 6665SOL    HW226432   4.858   4.304   1.801 -0.6344  1.9751  1.7696
 6665SOL    HW326433   4.843   4.183   1.891  1.1307  0.6126  0.3386
 6665SOL    MW426434   4.808   4.250   1.848  0.0015  0.1337  0.4766
 6666SOL     OW26435   1.181   3.178   6.208  0.2920 -0.9214 -0.1466
 6666SOL    HW226436   1.148   3.238   6.141  2.4966 -1.6604 -2.0442
 6666SOL    HW326437   1.165   3.223   6.291 -3.7020 -0.4834 -0.9369
 6666SOL    MW426438   1.175   3.192   6.210  0.0559 -0.9611 -0.5013
 6667SOL     OW26439   6.408   1.045   1.937 -0.4105  0.3327  0.6864
 6667SOL    HW226440   6.343   1.033   2.007 -1.1656 -0.0377 -0.0649
 6667SOL    HW326441   6.459   1.121   1.965  0.9180 -1.2376  2.8342
 6667SOL    MW426442   6.406   1.054   1.950 -0.3348  0.0767  0.8707
 6668SOL     OW26443   3.130   6.237   0.834  0.0927  0.7688 -0.0135
 6668SOL    HW226444   3.213   6.284   0.848  0.3327  0.1358  0.7415
 6668SOL    HW326445   3.069   6.280   0.893 -0.2062  1.4227 -0.7773
 6668SOL    MW426446   3.133   6.249   0.844  0.0850  0.7716 -0.0147
 6669SOL     OW26447   1.145   3.654   6.052 -0.1293  0.5883 -0.0030
 6669SOL    HW226448   1.159   3.660   5.957  0.8830  1.6156  0.1822
 6669SOL    HW326449   1.233   3.664   6.089 -0.3351 -1.0884  1.0135
 6669SOL    MW426450   1.159   3.656   6.044 -0.0229  0.5026  0.1555
 6670SOL     OW26451   5.403   2.784   1.988  0.1752 -0.0186  0.1235
 6670SOL    HW226452   5.354   2.710   1.953 -0.1834  0.6114 -0.7480
 6670SOL    HW326453   5.421   2.760   2.079 -1.5106 -0.3997  0.3930
 6670SOL    MW426454   5.399   2.771   1.995 -0.0946  0.0142  0.0441
 6671SOL     OW26455   4.738   5.549   4.108  0.4046 -0.0268 -0.2965
 6671SOL    HW226456   4.773   5.627   4.064  1.0236 -0.5121 -0.6916
 6671SOL    HW326457   4.761   5.562   4.200  0.7961  0.1100 -0.4087
 6671SOL    MW426458   4.746   5.561   4.114  0.5379 -0.0727 -0.3635
 6672SOL     OW26459   2.214   3.566   2.502 -0.1570 -0.2471 -0.1592
 6672SOL    HW226460   2.301   3.604   2.490  0.7703 -1.7983  1.2671
 6672SOL    HW326461   2.184   3.601   2.585 -0.9219  0.2915 -0.6529
 6672SOL    MW426462   2.222   3.576   2.511 -0.1355 -0.3807 -0.0362
 6673SOL     OW26463   0.739   4.721   4.796 -0.7520  0.2940 -0.3511
 6673SOL    HW226464   0.695   4.696   4.877 -2.6664  0.2173 -1.3686
 6673SOL    HW326465   0.814   4.661   4.791 -0.7536  0.1095  1.1971
 6673SOL    MW426466   0.743   4.710   4.806 -1.0048  0.2595 -0.2811
 6674SOL     OW26467   1.573   5.487   5.028  0.1346  0.2015 -0.1009
 6674SOL    HW226468   1.509   5.538   5.078 -0.9795  1.9980 -3.0488
 6674SOL    HW326469   1.594   5.542   4.953  1.6038 -2.2832 -1.6756
 6674SOL    MW426470   1.567   5.501   5.025  0.1814  0.1107 -0.6976
 6675SOL     OW26471   2.596   0.998   2.248  0.0970 -0.9052  0.2502
 6675SOL    HW226472   2.675   1.051   2.265  0.2907 -1.3607  0.8103
 6675SOL    HW326473   2.524   1.053   2.276  0.0656  0.1855 -1.8051
 6675SOL    MW426474   2.597   1.012   2.254  0.1184 -0.8214  0.0529
 6676SOL     OW26475   1.979   5.843   4.752 -0.4007 -0.0365 -0.5097
 6676SOL    HW226476   2.074   5.859   4.752 -0.5371  0.9325  0.8955
 6676SOL    HW326477   1.942   5.916   4.704 -0.6748  1.5853  2.0299
 6676SOL    MW426478   1.987   5.854   4.746 -0.4549  0.3054  0.0108
 6677SOL     OW26479   1.362   5.875   0.071 -0.7970 -1.0380 -0.0338
 6677SOL    HW226480   1.414   5.883  -0.009 -0.8590  1.0007  0.0779
 6677SOL    HW326481   1.425   5.851   0.138 -0.4651 -1.1950 -0.3991
 6677SOL    MW426482   1.377   5.873   0.069 -0.7614 -0.7897 -0.0672
 6678SOL     OW26483   0.641   4.462   2.497 -0.6527 -0.4889  0.2909
 6678SOL    HW226484   0.734   4.465   2.475 -0.5935 -1.0423  0.4524
 6678SOL    HW326485   0.631   4.527   2.567 -0.5448  0.1483 -0.2823
 6678SOL    MW426486   0.652   4.471   2.503 -0.6306 -0.4778  0.2366
 6679SOL     OW26487   1.109   0.492   3.965 -0.1542  0.0072  0.3121
 6679SOL    HW226488   1.163   0.570   3.956  1.7635 -0.8091  3.2506
 6679SOL    HW326489   1.161   0.433   4.020 -1.9932 -2.9147 -0.8494
 6679SOL    MW426490   1.123   0.495   3.971 -0.1438 -0.4860  0.5466
 6680SOL     OW26491   1.082   0.286   4.380 -0.2477 -0.5331  0.8255
 6680SOL    HW226492   1.012   0.262   4.441 -0.3603 -0.7749  0.6050
 6680SOL    HW326493   1.154   0.226   4.402 -0.1227 -0.3165  1.0201
 6680SOL    MW426494   1.083   0.275   4.391 -0.2461 -0.5364  0.8221
 6681SOL     OW26495   1.574   5.170   4.073 -0.3393 -0.5740 -0.8096
 6681SOL    HW226496   1.481   5.191   4.071 -0.1778  0.1256 -1.7850
 6681SOL    HW326497   1.587   5.124   4.156 -0.8783  2.5397  1.1294
 6681SOL    MW426498   1.564   5.167   4.083 -0.3891 -0.0708 -0.6825
 6682SOL     OW26499   4.638   6.180   2.228  0.0018 -0.4124  0.1262
 6682SOL    HW226500   4.619   6.131   2.309 -0.5208  1.4142  1.1690
 6682SOL    HW326501   4.643   6.113   2.160 -1.3010 -1.8584  1.3690
 6682SOL    MW426502   4.636   6.165   2.230 -0.2390 -0.3622  0.4278
 6683SOL     OW26503   6.437   4.683   2.168  0.4486  0.3172  0.1263
 6683SOL    HW226504   6.453   4.738   2.092  0.4600  1.3322  0.8493
 6683SOL    HW326505   6.341   4.673   2.170  0.3215  1.5179  0.8076
 6683SOL    MW426506   6.426   4.689   2.158  0.4333  0.6095  0.3116
 6684SOL     OW26507   1.225   5.321   0.739  0.0502 -0.0953  0.5910
 6684SOL    HW226508   1.285   5.387   0.704  0.2105 -0.6511 -0.2396
 6684SOL    HW326509   1.150   5.323   0.680  0.5206 -1.3630 -0.1109
 6684SOL    MW426510   1.223   5.330   0.726  0.1334 -0.3359  0.3888
 6685SOL     OW26511   5.278   2.551   1.849 -0.7178 -0.1845  0.1809
 6685SOL    HW226512   5.299   2.598   1.769  0.8374 -0.6437  0.2932
 6685SOL    HW326513   5.263   2.461   1.822 -0.6367 -0.2505  0.3528
 6685SOL    MW426514   5.279   2.546   1.835 -0.5019 -0.2538  0.2184
 6686SOL     OW26515   3.503   3.356   5.902  0.6920 -0.3956 -0.1886
 6686SOL    HW226516   3.506   3.333   5.995  0.6823 -4.2499 -0.9504
 6686SOL    HW326517   3.413   3.388   5.889  0.3750 -0.7548  0.9608
 6686SOL    MW426518   3.491   3.357   5.913  0.6489 -0.9515 -0.1374
 6687SOL     OW26519   4.766   0.743   1.070 -0.2452 -0.0661 -0.8777
 6687SOL    HW226520   4.821   0.666   1.086 -0.7937 -0.3431 -0.2591
 6687SOL    HW326521   4.784   0.767   0.979  1.0677 -0.0008 -0.6148
 6687SOL    MW426522   4.775   0.736   1.060 -0.1444 -0.0941 -0.7614
 6688SOL     OW26523   1.964   3.118   0.918  0.0726 -0.3953  0.7437
 6688SOL    HW226524   1.878   3.143   0.952  0.1852 -0.7484  1.2911
 6688SOL    HW326525   2.024   3.184   0.955  0.0674 -0.2598  0.5134
 6688SOL    MW426526   1.961   3.130   0.927  0.0868 -0.4240  0.7855
 6689SOL     OW26527   0.385   3.485   5.301  0.6124  0.2262  0.4312
 6689SOL    HW226528   0.448   3.539   5.254 -0.0136  0.3930 -0.2415
 6689SOL    HW326529   0.354   3.422   5.236  0.9206 -0.6012  1.0575
 6689SOL    MW426530   0.389   3.484   5.286  0.5705  0.1391  0.4251
 6690SOL     OW26531   0.507   6.253   4.870  0.4257  0.0722  0.0927
 6690SOL    HW226532   0.434   6.214   4.918  0.2243 -0.4920 -0.6571
 6690SOL    HW326533   0.510   6.343   4.901  0.5213 -0.3534  1.4164
 6690SOL    MW426534   0.498   6.259   4.881  0.4117 -0.0584  0.1684
 6691SOL     OW26535   1.930   0.018   3.915  0.0085  0.3543 -0.1873
 6691SOL    HW226536   1.859  -0.043   3.897 -0.0525  0.2331  0.4379
 6691SOL    HW326537   2.008  -0.024   3.878 -0.1845  0.3332 -0.5754
 6691SOL    MW426538   1.931   0.005   3.908 -0.0250  0.3355 -0.1560
 6692SOL     OW26539   6.362   2.981   1.139 -0.1791 -0.2045  0.3967
 6692SOL    HW226540   6.399   3.064   1.169 -0.5549 -0.3328  1.2442
 6692SOL    HW326541   6.418   2.914   1.178 -0.8640 -0.3812  1.1091
 6692SOL    MW426542   6.374   2.983   1.148 -0.3190 -0.2448  0.6025
 6693SOL     OW26543   0.632   3.571   5.166  0.0088 -0.6001  0.9793
 6693SOL    HW226544   0.680   3.490   5.149 -0.3946 -1.0043  1.6938
 6693SOL    HW326545   0.699   3.635   5.189  0.3417 -0.6965  0.2909
 6693SOL    MW426546   0.647   3.569   5.167 -0.0005 -0.6662  0.9827
 6694SOL     OW26547   3.773   1.852   1.282  0.2450 -0.4457 -0.3406
 6694SOL    HW226548   3.818   1.771   1.257  0.9800 -0.2108  0.1885
 6694SOL    HW326549   3.833   1.922   1.255  1.4185 -0.1812  2.5726
 6694SOL    MW426550   3.787   1.851   1.275  0.4968 -0.3798  0.1136
 6695SOL     OW26551   1.560   0.188   5.417 -0.2523  0.0619 -0.0570
 6695SOL    HW226552   1.532   0.265   5.466  0.5447  0.3238  0.0145
 6695SOL    HW326553   1.480   0.139   5.399 -0.7569  0.8727 -0.0392
 6695SOL    MW426554   1.546   0.191   5.421 -0.2137  0.2034 -0.0452
 6696SOL     OW26555   6.260   5.411   5.042 -0.4279  0.7181 -0.5828
 6696SOL    HW226556   6.264   5.422   4.947  0.8699 -0.0294 -0.6305
 6696SOL    HW326557   6.210   5.331   5.055  0.7912 -0.0726 -0.7062
 6696SOL    MW426558   6.254   5.402   5.031 -0.0958  0.5152 -0.6054
 6697SOL     OW26559   5.565   0.504   0.362  0.4227  0.7374 -0.0068
 6697SOL    HW226560   5.537   0.594   0.374 -1.7064  0.0088  0.9794
 6697SOL    HW326561   5.485   0.452   0.373  1.2317 -1.1738 -2.2086
 6697SOL    MW426562   5.550   0.509   0.365  0.2486  0.3891 -0.1672
 6698SOL     OW26563   5.468   2.406   5.481 -0.3018 -0.0912  0.0958
 6698SOL    HW226564   5.452   2.423   5.574  0.6280 -1.3334  0.5101
 6698SOL    HW326565   5.413   2.330   5.460  1.0950 -1.1829  0.2245
 6698SOL    MW426566   5.458   2.398   5.490  0.0051 -0.3991  0.1674
 6699SOL     OW26567   1.035   6.063   6.421  0.0939  0.1193 -0.3046
 6699SOL    HW226568   1.021   5.991   6.483  0.5160  0.2315 -0.0782
 6699SOL    HW326569   1.055   6.138   6.477 -2.3092  0.9186 -0.4007
 6699SOL    MW426570   1.035   6.063   6.437 -0.1674  0.2396 -0.2874
 6700SOL     OW26571   4.367   3.367   5.195 -0.2817  0.5813 -0.6746
 6700SOL    HW226572   4.336   3.303   5.131  2.2098 -2.4372  0.8884
 6700SOL    HW326573   4.461   3.373   5.181 -0.2133  2.9474  0.1855
 6700SOL    MW426574   4.375   3.360   5.185  0.0561  0.4953 -0.3549
 6701SOL     OW26575   4.913   1.447   4.413  0.0067 -0.3609  0.1124
 6701SOL    HW226576   4.883   1.394   4.339  1.4641 -2.2197  0.7604
 6701SOL    HW326577   4.969   1.514   4.373 -0.3125 -0.4959 -0.5684
 6701SOL    MW426578   4.917   1.449   4.398  0.1569 -0.6239  0.1081
 6702SOL     OW26579   6.300   5.351   2.566  0.1048  0.0718  0.1098
 6702SOL    HW226580   6.256   5.278   2.521  1.1939 -0.8899  0.5299
 6702SOL    HW326581   6.346   5.309   2.639 -0.5313  1.4275  1.3171
 6702SOL    MW426582   6.300   5.336   2.570  0.1645  0.1238  0.3245
 6703SOL     OW26583   2.394   5.614   5.513 -0.1227  0.6484  0.2601
 6703SOL    HW226584   2.479   5.593   5.551 -0.5615 -0.5066  0.6738
 6703SOL    HW326585   2.333   5.604   5.586 -0.6479  1.1793 -0.0992
 6703SOL    MW426586   2.397   5.610   5.528 -0.2498  0.5661  0.2672
 6704SOL     OW26587   5.414   5.070   2.455 -0.0541 -0.6939  0.2245
 6704SOL    HW226588   5.346   5.072   2.388  1.2483 -0.0392 -1.1443
 6704SOL    HW326589   5.468   5.146   2.436  0.6560 -0.7960  1.7193
 6704SOL    MW426590   5.412   5.080   2.443  0.2114 -0.6210  0.2412
 6705SOL     OW26591   3.884   5.393   2.996 -0.3607 -0.8113 -0.5605
 6705SOL    HW226592   3.973   5.362   2.978 -0.4411 -0.7212 -1.1391
 6705SOL    HW326593   3.896   5.482   3.028 -0.2637 -0.6745 -0.9745
 6705SOL    MW426594   3.898   5.400   2.998 -0.3585 -0.7813 -0.6915
 6706SOL     OW26595   0.538   0.487   1.653  0.3210 -0.4818 -0.2514
 6706SOL    HW226596   0.453   0.450   1.678 -0.5935  1.2818 -0.5343
 6706SOL    HW326597   0.557   0.448   1.567 -0.8221 -0.0020 -0.7464
 6706SOL    MW426598   0.529   0.477   1.645  0.0495 -0.1858 -0.3541
 6707SOL     OW26599   0.570   1.415   2.283  0.4169 -0.0717  0.4391
 6707SOL    HW226600   0.587   1.322   2.297  2.1199  0.0052 -0.7441
 6707SOL    HW326601   0.495   1.416   2.222  0.7723 -0.6978 -0.0287
 6707SOL    MW426602   0.562   1.403   2.277  0.6885 -0.1441  0.2213
 6708SOL     OW26603   3.758   1.788   0.762  0.2686 -0.0232 -0.0350
 6708SOL    HW226604   3.817   1.713   0.778  1.4071  1.1341  1.5669
 6708SOL    HW326605   3.805   1.841   0.697 -1.1234 -1.2560 -2.1467
 6708SOL    MW426606   3.772   1.785   0.756  0.2352 -0.0332 -0.1023
 6709SOL     OW26607   3.003   3.462   2.982  0.5627 -0.3407 -0.0043
 6709SOL    HW226608   2.924   3.409   2.992  0.0421  0.1533 -1.2742
 6709SOL    HW326609   3.073   3.409   3.020 -0.3741 -0.7598  1.1971
 6709SOL    MW426610   3.002   3.448   2.988  0.3704 -0.3308 -0.0133
 6710SOL     OW26611   6.007   5.931   5.511 -0.2122 -0.0813 -0.3059
 6710SOL    HW226612   5.998   5.846   5.468  0.1631 -0.1407 -0.2765
 6710SOL    HW326613   6.052   5.911   5.593 -0.4577  0.0996 -0.1271
 6710SOL    MW426614   6.012   5.917   5.516 -0.1951 -0.0652 -0.2784
 6711SOL     OW26615   5.455   2.373   5.153 -0.0267  0.3350  0.3870
 6711SOL    HW226616   5.545   2.340   5.152  0.1924  0.8959 -0.8878
 6711SOL    HW326617   5.462   2.458   5.196  0.3590  1.1010 -1.1237
 6711SOL    MW426618   5.468   2.380   5.158  0.0531  0.5101  0.0195
 6712SOL     OW26619   4.308   2.768   1.530  0.3970 -0.4269 -0.1199
 6712SOL    HW226620   4.369   2.739   1.598  0.8653  1.4554  0.3222
 6712SOL    HW326621   4.293   2.861   1.549 -1.5456 -0.4918 -1.0383
 6712SOL    MW426622   4.314   2.776   1.541  0.2025 -0.1871 -0.1827
 6713SOL     OW26623   2.968   2.641   1.585 -0.4958 -0.1410 -0.4809
 6713SOL    HW226624   2.967   2.690   1.503  0.2936 -1.2165 -1.1507
 6713SOL    HW326625   2.905   2.570   1.572 -1.2832  0.3857  0.3108
 6713SOL    MW426626   2.960   2.638   1.573 -0.4955 -0.2134 -0.4648
 6714SOL     OW26627   2.597   5.647   3.746  0.4221 -0.1317 -0.6116
 6714SOL    HW226628   2.639   5.563   3.763  1.2323 -0.1108 -2.3238
 6714SOL    HW326629   2.670   5.707   3.730 -0.1373  0.9508  0.7020
 6714SOL    MW426630   2.612   5.644   3.746  0.4552  0.0139 -0.6642
 6715SOL     OW26631   1.280   5.590   3.963 -0.0313 -0.1475 -0.2769
 6715SOL    HW226632   1.208   5.581   4.025 -0.5420  4.0390 -0.0069
 6715SOL    HW326633   1.359   5.584   4.016 -0.1854 -1.9726 -0.1682
 6715SOL    MW426634   1.281   5.588   3.978 -0.1190  0.1641 -0.2269
 6716SOL     OW26635   3.824   0.687   2.628  0.1779  0.4182  0.1594
 6716SOL    HW226636   3.734   0.718   2.620 -0.5917 -0.7856  3.0634
 6716SOL    HW326637   3.822   0.599   2.588 -0.3353 -0.1680  1.4108
 6716SOL    MW426638   3.812   0.679   2.622  0.0087  0.1820  0.7077
 6717SOL     OW26639   0.532   5.758   0.074 -0.3624 -0.4267  0.1709
 6717SOL    HW226640   0.481   5.817   0.130 -1.3402  1.0738 -2.1209
 6717SOL    HW326641   0.504   5.670   0.099 -0.8230  0.1731  1.9120
 6717SOL    MW426642   0.521   5.755   0.085 -0.5522 -0.1496  0.0983
 6718SOL     OW26643   3.637   5.357   4.469 -0.4454  0.3655  0.2997
 6718SOL    HW226644   3.592   5.366   4.385 -0.3724 -2.3318 -0.1086
 6718SOL    HW326645   3.652   5.263   4.478  1.3717  0.7853  2.3991
 6718SOL    MW426646   3.633   5.346   4.459 -0.1960  0.0650  0.5228
 6719SOL     OW26647   5.894   0.144   3.205  0.4982  0.4755 -0.6035
 6719SOL    HW226648   5.872   0.212   3.141 -0.0203 -0.3205 -1.2840
 6719SOL    HW326649   5.924   0.070   3.152 -1.5599 -0.8218 -0.0651
 6719SOL    MW426650   5.895   0.143   3.189  0.1583  0.1993 -0.6223
 6720SOL     OW26651   0.664   4.774   5.309  0.2356  0.2773  0.2947
 6720SOL    HW226652   0.688   4.856   5.352 -0.7101 -0.7230  2.9181
 6720SOL    HW326653   0.725   4.709   5.344 -1.1327 -0.7480  0.8693
 6720SOL    MW426654   0.675   4.776   5.319 -0.0697  0.0101  0.7167
 6721SOL     OW26655   1.883   0.437   6.389 -0.1700  0.1462 -0.0539
 6721SOL    HW226656   1.921   0.479   6.467 -0.2777  1.0523 -0.4672
 6721SOL    HW326657   1.835   0.362   6.423  0.5224  0.0115  0.6594
 6721SOL    MW426658   1.882   0.433   6.404 -0.0928  0.2479 -0.0143
 6722SOL     OW26659   2.741   5.821   1.590 -0.0208  0.0393  0.4092
 6722SOL    HW226660   2.786   5.899   1.623 -0.0160 -0.0324  0.5703
 6722SOL    HW326661   2.661   5.855   1.550 -0.2156  0.0865  0.8383
 6722SOL    MW426662   2.737   5.836   1.589 -0.0459  0.0361  0.4871
 6723SOL     OW26663   1.812   4.518   3.548  0.4959  0.2879 -0.5811
 6723SOL    HW226664   1.731   4.559   3.579  0.5289  0.7768 -1.1277
 6723SOL    HW326665   1.826   4.445   3.608 -0.1892  0.3792 -0.2962
 6723SOL    MW426666   1.803   4.514   3.560  0.4099  0.3644 -0.6156
 6724SOL     OW26667   3.435   2.403   1.596  0.2233 -0.0017 -0.0325
 6724SOL    HW226668   3.470   2.328   1.643 -0.1406  0.4777  1.0342
 6724SOL    HW326669   3.409   2.465   1.665  0.4180  1.0533 -0.8838
 6724SOL    MW426670   3.436   2.402   1.611  0.2010  0.2007 -0.0041
 6725SOL     OW26671   4.732   5.891   3.737 -0.7255  0.6440 -0.1307
 6725SOL    HW226672   4.807   5.950   3.749 -1.8740  2.1551 -0.1272
 6725SOL    HW326673   4.765   5.823   3.678  0.4354  1.6741 -0.7158
 6725SOL    MW426674   4.746   5.890   3.731 -0.7239  0.9793 -0.2074
 6726SOL     OW26675   2.492   3.947   2.363 -0.2299  0.2340  0.1834
 6726SOL    HW226676   2.495   3.972   2.455 -0.2941  0.5379  0.1020
 6726SOL    HW326677   2.409   3.981   2.331 -0.9067 -1.1501  0.3770
 6726SOL    MW426678   2.481   3.954   2.371 -0.3277  0.0915  0.1982
 6727SOL     OW26679   3.384   4.978   2.609  0.2003 -0.4364  0.3386
 6727SOL    HW226680   3.318   4.909   2.610  0.7334 -0.9613 -0.0899
 6727SOL    HW326681   3.418   4.981   2.698  0.6081 -1.1583  0.2166
 6727SOL    MW426682   3.380   4.970   2.621  0.3245 -0.6009  0.2660
 6728SOL     OW26683   1.480   3.500   6.341  0.0750 -0.6233 -0.2559
 6728SOL    HW226684   1.419   3.508   6.414 -2.7638  0.9916 -2.5825
 6728SOL    HW326685   1.472   3.409   6.313  0.1809 -0.9106  0.6159
 6728SOL    MW426686   1.471   3.489   6.347 -0.2856 -0.4482 -0.4478
 6729SOL     OW26687   4.337   1.318   4.163 -0.1537 -0.7794 -0.0350
 6729SOL    HW226688   4.260   1.277   4.204 -1.1895  0.6608 -0.4396
 6729SOL    HW326689   4.324   1.304   4.069 -0.8980  0.9438 -0.2472
 6729SOL    MW426690   4.325   1.311   4.156 -0.3886 -0.3620 -0.1164
 6730SOL     OW26691   6.222   5.751   2.576 -0.1696  0.6659 -0.0353
 6730SOL    HW226692   6.200   5.727   2.665 -0.0242  1.6324  0.2703
 6730SOL    HW326693   6.193   5.677   2.523 -1.7140  0.7596  0.6292
 6730SOL    MW426694   6.215   5.738   2.580 -0.3542  0.8057  0.0927
 6731SOL     OW26695   6.195   2.014   5.964  0.6122  0.4053 -0.2380
 6731SOL    HW226696   6.276   2.036   5.918 -0.4696  1.6200 -1.7145
 6731SOL    HW326697   6.193   2.073   6.039  0.3091  1.6726 -1.1896
 6731SOL    MW426698   6.205   2.025   5.968  0.4295  0.7328 -0.5584
 6732SOL     OW26699   1.123   1.492   1.563  0.0223  0.0353  0.6679
 6732SOL    HW226700   1.045   1.455   1.604  0.4832 -0.6273  0.9568
 6732SOL    HW326701   1.193   1.430   1.583  0.3654 -0.0479 -0.6932
 6732SOL    MW426702   1.122   1.479   1.571  0.1284 -0.0631  0.5264
 6733SOL     OW26703   2.947   2.544   5.663  0.0966  0.2805 -0.2291
 6733SOL    HW226704   2.856   2.534   5.637  0.0299 -0.0781  0.1281
 6733SOL    HW326705   2.947   2.523   5.757  0.5716  0.1137 -0.2655
 6733SOL    MW426706   2.935   2.540   5.672  0.1505  0.2112 -0.1868
 6734SOL     OW26707   2.309   4.130   2.916  0.4668  0.5546  0.3777
 6734SOL    HW226708   2.328   4.039   2.940 -2.4080  0.1083  1.2754
 6734SOL    HW326709   2.310   4.178   2.999 -3.6871  0.1280  0.8614
 6734SOL    MW426710   2.312   4.124   2.930 -0.4605  0.4394  0.5600
 6735SOL     OW26711   0.979   3.731   6.355 -0.2988  0.5814  0.4033
 6735SOL    HW226712   1.073   3.714   6.348 -0.4458 -0.7970  1.4712
 6735SOL    HW326713   0.968   3.819   6.320  1.3048  0.5322 -0.2971
 6735SOL    MW426714   0.990   3.740   6.349 -0.1066  0.3930  0.4518
 6736SOL     OW26715   5.151   3.317   0.917 -0.3037  0.4493  0.0850
 6736SOL    HW226716   5.096   3.247   0.883  0.7043 -1.2531  1.7818
 6736SOL    HW326717   5.098   3.358   0.986 -0.9211  1.4729 -0.9550
 6736SOL    MW426718   5.136   3.313   0.922 -0.2522  0.3597  0.1716
 6737SOL     OW26719   2.197   4.587   0.968  0.0180 -0.0002  0.6762
 6737SOL    HW226720   2.254   4.659   0.994 -0.7408  0.4435  1.1411
 6737SOL    HW326721   2.182   4.539   1.050 -0.6401  0.1545  0.6537
 6737SOL    MW426722   2.203   4.590   0.982 -0.1689  0.0787  0.7346
 6738SOL     OW26723   5.953   1.740   0.197 -0.1594 -0.2393  0.0160
 6738SOL    HW226724   5.975   1.650   0.170 -2.1864 -0.8510  0.2384
 6738SOL    HW326725   5.963   1.792   0.117  0.4078 -0.7789 -0.2750
 6738SOL    MW426726   5.957   1.735   0.183 -0.3520 -0.3912  0.0069
 6739SOL     OW26727   4.831   6.160   4.499  0.8739 -0.6101  0.1273
 6739SOL    HW226728   4.820   6.100   4.573  1.2608 -0.8755 -0.0239
 6739SOL    HW326729   4.925   6.178   4.497  0.6310  0.8593  0.8318
 6739SOL    MW426730   4.842   6.154   4.508  0.8929 -0.4512  0.2003
 6740SOL     OW26731   1.491   2.603   1.729  0.4201  0.1348 -0.3330
 6740SOL    HW226732   1.424   2.536   1.721 -0.2910  0.6378  1.1377
 6740SOL    HW326733   1.510   2.608   1.823  1.7027  0.7987 -0.5981
 6740SOL    MW426734   1.485   2.595   1.740  0.4955  0.2888 -0.1740
 6741SOL     OW26735   0.568   0.531   2.664  0.2879  0.1157 -0.9279
 6741SOL    HW226736   0.555   0.536   2.569  0.7205 -2.1137 -1.1508
 6741SOL    HW326737   0.483   0.503   2.698  0.7921 -1.5237 -0.9574
 6741SOL    MW426738   0.555   0.528   2.656  0.4115 -0.3948 -0.9612
 6742SOL     OW26739   2.503   2.673   2.764  0.4151 -0.3765  0.0496
 6742SOL    HW226740   2.438   2.649   2.698  2.1284 -2.1244 -1.1074
 6742SOL    HW326741   2.495   2.605   2.831 -0.6505  0.8589  1.2667
 6742SOL    MW426742   2.493   2.661   2.764  0.5005 -0.4441  0.0575
 6743SOL     OW26743   5.816   6.118   5.586  0.3812 -0.4793 -0.3098
 6743SOL    HW226744   5.891   6.061   5.573  0.8747  0.0121  0.3133
 6743SOL    HW326745   5.752   6.089   5.521  0.6428 -1.6998 -0.0524
 6743SOL    MW426746   5.817   6.107   5.576  0.4808 -0.5755 -0.1936
 6744SOL     OW26747   4.080   5.390   4.207 -0.2017 -0.1573  0.0343
 6744SOL    HW226748   4.149   5.343   4.160 -0.4786 -1.8074  1.1810
 6744SOL    HW326749   4.076   5.476   4.165  1.8674 -0.3603 -0.7035
 6744SOL    MW426750   4.089   5.395   4.195  0.0347 -0.4018  0.0882
 6745SOL     OW26751   0.868   6.320   3.823  0.6980 -0.1954 -0.5176
 6745SOL    HW226752   0.938   6.261   3.795  1.6471  0.3437  0.6312
 6745SOL    HW326753   0.912   6.403   3.843 -0.1403 -0.0599  0.9518
 6745SOL    MW426754   0.883   6.324   3.822  0.7126 -0.1064 -0.1722
 6746SOL     OW26755   0.964   1.721   4.862 -0.4561  0.3741 -0.2675
 6746SOL    HW226756   1.051   1.758   4.845 -1.0613  2.0935  0.2236
 6746SOL    HW326757   0.959   1.644   4.805  1.4745  0.0846 -0.1130
 6746SOL    MW426758   0.975   1.715   4.853 -0.2812  0.5628 -0.1823
 6747SOL     OW26759   2.253   5.125   1.450  0.0334 -0.6195 -0.6328
 6747SOL    HW226760   2.172   5.112   1.500  0.1753  1.8866  0.3696
 6747SOL    HW326761   2.323   5.103   1.512  0.1660  0.0199 -0.5522
 6747SOL    MW426762   2.252   5.120   1.465  0.0696 -0.2045 -0.4899
 6748SOL     OW26763   4.467   1.015   4.265 -0.1148  0.3799  0.0096
 6748SOL    HW226764   4.441   0.988   4.177  0.7860  0.2079 -0.2104
 6748SOL    HW326765   4.394   1.068   4.296 -0.1895  0.9270 -1.0690
 6748SOL    MW426766   4.454   1.018   4.258 -0.0058  0.4294 -0.1618
 6749SOL     OW26767   6.371   0.313   2.620 -0.1193  0.3345 -0.2103
 6749SOL    HW226768   6.358   0.339   2.711  0.7749 -0.0001  0.0229
 6749SOL    HW326769   6.290   0.268   2.596  0.3085 -1.1516  1.0041
 6749SOL    MW426770   6.359   0.310   2.629  0.0551  0.0943 -0.0193
 6750SOL     OW26771   0.396   2.643   4.477 -0.2443  0.4490 -0.2267
 6750SOL    HW226772   0.456   2.697   4.424 -0.9520  0.7864 -0.6930
 6750SOL    HW326773   0.367   2.702   4.547 -0.7949  0.5929 -0.5715
 6750SOL    MW426774   0.400   2.658   4.479 -0.4103  0.5125 -0.3337
 6751SOL     OW26775   5.204   0.491   0.011 -0.1483  0.2517  0.3767
 6751SOL    HW226776   5.285   0.492   0.062 -0.1160 -1.3529  0.3883
 6751SOL    HW326777   5.137   0.521   0.072  0.1052 -0.4209  0.9914
 6751SOL    MW426778   5.206   0.495   0.026 -0.1106 -0.0488  0.4593
 6752SOL     OW26779   4.968   2.218   4.195  0.0794  0.4330 -0.8686
 6752SOL    HW226780   4.925   2.291   4.151  2.0599  1.2527 -1.5267
 6752SOL    HW326781   4.991   2.252   4.282 -1.9577 -0.5305  0.1351
 6752SOL    MW426782   4.965   2.232   4.201  0.0719  0.4140 -0.8230
 6753SOL     OW26783   1.160   6.062   2.760  0.6484 -0.2024  0.4615
 6753SOL    HW226784   1.160   6.088   2.668 -0.1297  0.2099  0.5650
 6753SOL    HW326785   1.252   6.061   2.785  0.8242  0.3951 -0.1302
 6753SOL    MW426786   1.172   6.065   2.751  0.5689 -0.0692  0.3971
 6754SOL     OW26787   3.894   3.035   3.252  0.5106  0.1658  0.1551
 6754SOL    HW226788   3.939   3.101   3.200 -1.6950  0.5141 -1.4630
 6754SOL    HW326789   3.903   2.954   3.202  0.7025 -0.1322  0.6549
 6754SOL    MW426790   3.901   3.033   3.239  0.2449  0.1725  0.0076
 6755SOL     OW26791   6.168   5.872   5.031 -0.2571  0.7563 -1.0600
 6755SOL    HW226792   6.174   5.962   5.064  0.1286  0.1702  0.5521
 6755SOL    HW326793   6.185   5.817   5.107  1.4512 -0.6911 -2.3897
 6755SOL    MW426794   6.171   5.877   5.045  0.0192  0.4880 -1.0227
 6756SOL     OW26795   1.345   5.627   3.651  0.2674 -0.1359 -0.1041
 6756SOL    HW226796   1.340   5.589   3.739  1.3551 -0.7216 -0.2886
 6756SOL    HW326797   1.381   5.557   3.597 -0.0420  0.3505 -0.9501
 6756SOL    MW426798   1.349   5.612   3.656  0.3701 -0.1490 -0.2401
 6757SOL     OW26799   2.013   1.831   6.368 -0.5241  0.1418  0.2790
 6757SOL    HW226800   2.077   1.879   6.421  0.1154 -0.9610  0.5255
 6757SOL    HW326801   1.968   1.775   6.431 -3.3064  2.4176  0.5268
 6757SOL    MW426802   2.016   1.830   6.384 -0.8068  0.2966  0.3442
 6758SOL     OW26803   3.988   0.393   5.640  0.4437 -0.2943 -0.1674
 6758SOL    HW226804   4.037   0.467   5.675  0.3426 -0.8022  1.1111
 6758SOL    HW326805   3.981   0.411   5.547  0.9569  0.9912  0.0179
 6758SOL    MW426806   3.994   0.405   5.633  0.4981 -0.1917  0.0257
 6759SOL     OW26807   2.808   5.023   3.496 -0.5680 -0.1617 -0.0120
 6759SOL    HW226808   2.877   4.975   3.450  0.3256 -0.1609  1.2891
 6759SOL    HW326809   2.843   5.111   3.507 -1.3051  0.1973 -0.4409
 6759SOL    MW426810   2.821   5.028   3.491 -0.5474 -0.1142  0.1031
 6760SOL     OW26811   1.924   5.071   1.229  0.0413 -0.2954 -0.1585
 6760SOL    HW226812   1.932   5.141   1.293  0.2894  1.0408 -1.5960
 6760SOL    HW326813   1.853   5.015   1.263 -1.2440  1.5063  0.2723
 6760SOL    MW426814   1.915   5.073   1.242 -0.0956  0.1186 -0.2913
 6761SOL     OW26815   3.794   5.231   4.752  0.0415  0.0038  0.2547
 6761SOL    HW226816   3.709   5.203   4.719  0.7402 -1.1597 -0.6424
 6761SOL    HW326817   3.802   5.188   4.837  0.6440 -1.7787 -0.6418
 6761SOL    MW426818   3.784   5.222   4.759  0.2132 -0.3849  0.0180
 6762SOL     OW26819   5.417   2.447   5.758  0.1699 -0.7257  0.8219
 6762SOL    HW226820   5.380   2.383   5.820  0.6407 -0.1087  1.7686
 6762SOL    HW326821   5.511   2.432   5.762  0.1749 -1.0286 -0.1682
 6762SOL    MW426822   5.424   2.436   5.767  0.2327 -0.6842  0.8162
 6763SOL     OW26823   1.467   3.844   4.367 -0.6075 -0.1976  0.2999
 6763SOL    HW226824   1.435   3.848   4.457 -0.0731 -0.0224  0.4857
 6763SOL    HW326825   1.557   3.813   4.376 -0.9291 -1.3793 -0.2622
 6763SOL    MW426826   1.474   3.840   4.380 -0.5795 -0.3304  0.2503
 6764SOL     OW26827   5.679   0.933   5.882  0.0631 -0.2171 -0.1706
 6764SOL    HW226828   5.773   0.923   5.894 -0.2454 -0.8928  2.0489
 6764SOL    HW326829   5.643   0.846   5.896 -1.1162  0.5367  1.7776
 6764SOL    MW426830   5.687   0.920   5.885 -0.1332 -0.2068  0.3793
 6765SOL     OW26831   0.945   1.026   4.897 -0.3918  0.1615 -0.1100
 6765SOL    HW226832   0.981   1.011   4.810  0.0620 -2.8138  0.4620
 6765SOL    HW326833   1.021   1.017   4.956 -1.1547 -1.0954  0.7441
 6765SOL    MW426834   0.960   1.023   4.893 -0.4326 -0.3968  0.0782
 6766SOL     OW26835   4.447   3.300   6.118  0.1096  0.7495  0.3149
 6766SOL    HW226836   4.437   3.206   6.103  3.3797 -0.0181  1.8985
 6766SOL    HW326837   4.489   3.306   6.204  2.9881  3.3847 -1.0592
 6766SOL    MW426838   4.451   3.288   6.127  0.9208  0.9959  0.3426
 6767SOL     OW26839   0.818   5.351   5.721  0.4547 -0.5113  0.2599
 6767SOL    HW226840   0.780   5.366   5.635 -0.9446 -0.0396  0.9417
 6767SOL    HW326841   0.892   5.292   5.705  0.3618 -0.2279 -1.2822
 6767SOL    MW426842   0.823   5.345   5.708  0.2578 -0.4117  0.1464
 6768SOL     OW26843   5.141   0.094   4.037  0.5377 -0.0571  0.2404
 6768SOL    HW226844   5.168   0.174   3.993  2.5915  0.0045  1.4478
 6768SOL    HW326845   5.137   0.118   4.130  1.6748 -1.4303  0.6763
 6768SOL    MW426846   5.144   0.107   4.043  0.9587 -0.2301  0.4572
 6769SOL     OW26847   4.488   4.788   5.846 -0.1907  0.1709  0.0933
 6769SOL    HW226848   4.458   4.874   5.876 -0.5555 -0.7498  2.6083
 6769SOL    HW326849   4.408   4.742   5.822 -0.1030  0.1851 -0.2195
 6769SOL    MW426850   4.474   4.793   5.847 -0.2273  0.0513  0.3838
 6770SOL     OW26851   5.410   5.169   5.225 -0.9031 -0.0540 -0.5037
 6770SOL    HW226852   5.331   5.209   5.188 -1.1680  0.5148  0.6128
 6770SOL    HW326853   5.400   5.180   5.320  0.7911  0.5690 -0.3620
 6770SOL    MW426854   5.398   5.176   5.233 -0.7145  0.1033 -0.3377
 6771SOL     OW26855   0.314   5.618   4.133 -0.3088  0.3569 -0.1313
 6771SOL    HW226856   0.367   5.695   4.155  1.4431 -0.4912 -1.2217
 6771SOL    HW326857   0.259   5.605   4.211 -0.4610  2.5165  0.1962
 6771SOL    MW426858   0.313   5.626   4.146 -0.0978  0.5300 -0.2320
 6772SOL     OW26859   2.297   0.654   3.529 -0.2933 -0.1845 -0.0509
 6772SOL    HW226860   2.257   0.594   3.466 -0.4316 -0.0274 -0.1148
 6772SOL    HW326861   2.390   0.632   3.527 -0.2987 -0.1905 -0.2984
 6772SOL    MW426862   2.304   0.643   3.520 -0.3122 -0.1646 -0.0920
 6773SOL     OW26863   5.111   4.750   5.894  0.5527 -0.5321 -0.0394
 6773SOL    HW226864   5.162   4.820   5.854  0.5764  0.4083  1.5538
 6773SOL    HW326865   5.174   4.679   5.907  0.2741 -1.3913 -2.7540
 6773SOL    MW426866   5.126   4.750   5.890  0.5191 -0.5214 -0.1873
 6774SOL     OW26867   0.947   4.744   2.043  0.5174  0.1834  0.6040
 6774SOL    HW226868   0.918   4.825   2.085  0.6674  0.8659 -0.5616
 6774SOL    HW326869   0.866   4.698   2.022  0.4295  0.0517  1.2144
 6774SOL    MW426870   0.932   4.748   2.045  0.5256  0.2561  0.5307
 6775SOL     OW26871   4.528   5.101   5.442 -0.5008 -0.3913  0.2164
 6775SOL    HW226872   4.481   5.024   5.473  0.0496 -0.7541  0.1462
 6775SOL    HW326873   4.605   5.067   5.397 -0.8715  0.1490 -0.8683
 6775SOL    MW426874   4.532   5.087   5.440 -0.4771 -0.3679  0.0641
 6776SOL     OW26875   5.716   2.557   0.624  0.2169  0.0628  0.4594
 6776SOL    HW226876   5.798   2.512   0.604  0.4041  0.3772  0.4990
 6776SOL    HW326877   5.739   2.650   0.619 -0.7216  0.2191 -1.9900
 6776SOL    MW426878   5.730   2.563   0.621  0.1178  0.1249  0.1414
 6777SOL     OW26879   3.058   3.736   1.078  0.2213  0.2327 -0.4777
 6777SOL    HW226880   2.999   3.781   1.017  0.4792 -0.1111 -0.9954
 6777SOL    HW326881   3.001   3.699   1.145  0.0704  1.9633  0.3779
 6777SOL    MW426882   3.043   3.737   1.079  0.2354  0.4156 -0.4331
 6778SOL     OW26883   3.858   2.655   4.345 -0.3598 -0.1651  0.3279
 6778SOL    HW226884   3.789   2.687   4.286 -1.1937 -0.1479  1.2803
 6778SOL    HW326885   3.889   2.733   4.391  2.0903  0.2687 -1.8165
 6778SOL    MW426886   3.853   2.669   4.343 -0.1466 -0.1056  0.1706
 6779SOL     OW26887   5.596   4.133   3.108  0.5112  0.4528  0.3028
 6779SOL    HW226888   5.670   4.074   3.096  0.4428  0.4485 -0.0950
 6779SOL    HW326889   5.615   4.178   3.191  1.3050  0.9503 -0.1333
 6779SOL    MW426890   5.609   4.131   3.117  0.6069  0.5179  0.1928
 6780SOL     OW26891   4.992   4.949   5.119 -0.0417  0.5276 -0.5968
 6780SOL    HW226892   5.015   4.873   5.172  1.0654  0.1551 -1.5620
 6780SOL    HW326893   4.917   4.920   5.067 -0.1896  0.4010 -0.3136
 6780SOL    MW426894   4.985   4.935   5.119  0.0849  0.4618 -0.6868
 6781SOL     OW26895   2.608   4.242   2.878 -0.2981  0.2842  0.0525
 6781SOL    HW226896   2.637   4.204   2.795  0.9731 -3.0655  1.8740
 6781SOL    HW326897   2.517   4.215   2.887  0.6467 -2.8836  1.4272
 6781SOL    MW426898   2.600   4.234   2.868 -0.0058 -0.5757  0.4742
 6782SOL     OW26899   2.417   0.892   1.576 -0.4230  0.2628  0.1501
 6782SOL    HW226900   2.357   0.866   1.646 -0.4455 -0.2265 -0.0433
 6782SOL    HW326901   2.491   0.933   1.621 -0.6343  0.3385  0.4290
 6782SOL    MW426902   2.419   0.894   1.591 -0.4539  0.2082  0.1614
 6783SOL     OW26903   3.561   0.253   3.070 -0.2431  0.7349  0.2565
 6783SOL    HW226904   3.586   0.344   3.051 -0.3407  0.4538 -1.3029
 6783SOL    HW326905   3.640   0.215   3.111  0.4803  0.9952 -0.8621
 6783SOL    MW426906   3.575   0.260   3.073 -0.1605  0.7322 -0.0968
 6784SOL     OW26907   4.539   1.062   0.627 -0.4689 -0.2519  0.4147
 6784SOL    HW226908   4.486   1.006   0.570  1.5015 -0.9560 -0.8113
 6784SOL    HW326909   4.525   1.026   0.715 -4.1767  1.3365  0.6765
 6784SOL    MW426910   4.530   1.050   0.631 -0.6981 -0.1353  0.2875
 6785SOL     OW26911   4.081   1.842   1.541  0.4959 -0.6095  0.2322
 6785SOL    HW226912   4.141   1.797   1.481  0.5398  0.3703 -0.4693
 6785SOL    HW326913   4.008   1.780   1.552  0.3820 -0.7176 -1.0066
 6785SOL    MW426914   4.079   1.828   1.534  0.4867 -0.4945 -0.0238
 6786SOL     OW26915   2.183   0.526   3.272 -0.0827  0.2223  0.5859
 6786SOL    HW226916   2.186   0.588   3.200  0.5304  0.6324  0.9649
 6786SOL    HW326917   2.090   0.504   3.280 -0.2532  0.7781  0.1895
 6786SOL    MW426918   2.171   0.531   3.263 -0.0243  0.3497  0.5836
 6787SOL     OW26919   5.843   1.959   4.494  0.5307  0.1888 -0.6033
 6787SOL    HW226920   5.809   1.919   4.414  1.3210 -1.7926 -0.0142
 6787SOL    HW326921   5.883   2.041   4.465  1.6347 -0.9291 -2.4128
 6787SOL    MW426922   5.844   1.965   4.480  0.7806 -0.2201 -0.7643
 6788SOL     OW26923   0.861   5.042   3.224  0.1086  0.2508  0.0262
 6788SOL    HW226924   0.768   5.018   3.227  0.0199  0.1902 -1.8943
 6788SOL    HW326925   0.901   4.975   3.168  1.1887  0.6835  0.2567
 6788SOL    MW426926   0.854   5.030   3.217  0.2394  0.2999 -0.1968
 6789SOL     OW26927   2.249   1.108   0.398 -0.4335 -0.5601  0.2968
 6789SOL    HW226928   2.257   1.028   0.449 -1.5342 -0.9819 -0.1515
 6789SOL    HW326929   2.169   1.150   0.432 -1.4722 -1.0973 -1.3672
 6789SOL    MW426930   2.239   1.103   0.409 -0.7158 -0.6866  0.0181
 6790SOL     OW26931   3.844   4.244   1.334 -0.4557 -0.3688  0.0347
 6790SOL    HW226932   3.940   4.236   1.341 -0.1811 -0.0752 -2.4467
 6790SOL    HW326933   3.811   4.210   1.416  1.7824 -0.7402  0.8498
 6790SOL    MW426934   3.853   4.239   1.346 -0.1242 -0.3790 -0.1851
 6791SOL     OW26935   5.554   3.447   0.402  0.6085 -0.3118  0.2531
 6791SOL    HW226936   5.555   3.531   0.448 -1.4454 -0.4033  0.5677
 6791SOL    HW326937   5.618   3.458   0.331  0.0127  1.7157 -0.0516
 6791SOL    MW426938   5.563   3.460   0.399  0.2589 -0.0564  0.2544
 6792SOL     OW26939   5.241   4.723   4.376  0.5123  0.0490  0.3409
 6792SOL    HW226940   5.199   4.687   4.454  1.2839 -2.0623 -0.1702
 6792SOL    HW326941   5.286   4.649   4.336  1.4846  1.4286 -1.2468
 6792SOL    MW426942   5.241   4.709   4.381  0.7424 -0.0476  0.0639
 6793SOL     OW26943   0.212   5.937   4.392 -0.3170  0.1651 -0.1764
 6793SOL    HW226944   0.246   6.014   4.438 -0.8744  0.5365 -0.3797
 6793SOL    HW326945   0.216   5.867   4.458 -0.1173  0.4408  0.1113
 6793SOL    MW426946   0.217   5.938   4.407 -0.3642  0.2505 -0.1652
 6794SOL     OW26947   1.015   3.177   5.580  0.2574 -0.2023 -0.3455
 6794SOL    HW226948   0.970   3.151   5.500 -0.7937 -0.6084  0.3538
 6794SOL    HW326949   1.046   3.266   5.562 -0.9192  0.1381 -0.8336
 6794SOL    MW426950   1.013   3.185   5.567 -0.0365 -0.2110 -0.3176
 6795SOL     OW26951   5.615   1.434   1.856  0.1508 -0.6348 -0.1296
 6795SOL    HW226952   5.583   1.356   1.810 -1.7481 -0.0209  0.0480
 6795SOL    HW326953   5.580   1.508   1.805 -0.4976  0.0687  1.2821
 6795SOL    MW426954   5.606   1.434   1.843 -0.1853 -0.4610  0.0801
 6796SOL     OW26955   1.562   3.106   0.314 -0.0558  0.2885  0.3246
 6796SOL    HW226956   1.626   3.102   0.385 -2.8011 -0.0935  2.9524
 6796SOL    HW326957   1.591   3.039   0.252  1.0466 -1.2094  2.3418
 6796SOL    MW426958   1.575   3.097   0.315 -0.2725  0.0404  0.9374
 6797SOL     OW26959   6.042   4.785   5.103 -0.3152 -0.2168 -0.0838
 6797SOL    HW226960   6.020   4.828   5.021  0.1467  0.7502  0.2783
 6797SOL    HW326961   6.052   4.857   5.166  0.4373 -0.8540  0.5486
 6797SOL    MW426962   6.041   4.800   5.100 -0.1550 -0.1733  0.0474
 6798SOL     OW26963   6.326   3.408   5.486 -0.5506 -0.4263 -0.4104
 6798SOL    HW226964   6.339   3.496   5.521 -1.9903 -0.1557 -0.4923
 6798SOL    HW326965   6.322   3.421   5.391  0.0867 -0.7035 -0.4763
 6798SOL    MW426966   6.327   3.422   5.478 -0.6565 -0.4271 -0.4299
 6799SOL     OW26967   2.293   4.924   5.354 -0.2812  0.6939  0.1570
 6799SOL    HW226968   2.375   4.890   5.320 -0.6427 -0.7338  0.6355
 6799SOL    HW326969   2.318   4.999   5.407  0.6652  0.5784 -0.1105
 6799SOL    MW426970   2.307   4.929   5.356 -0.2040  0.4903  0.1848
 6800SOL     OW26971   4.303   3.800   1.139 -0.2239  0.6579 -0.4631
 6800SOL    HW226972   4.300   3.885   1.182 -0.4155  0.4261 -0.0030
 6800SOL    HW326973   4.236   3.748   1.185  2.1036 -0.7911  1.5756
 6800SOL    MW426974   4.293   3.804   1.151  0.0579  0.4362 -0.1334
 6801SOL     OW26975   3.392   4.124   4.317 -0.5001  0.2514 -0.4519
 6801SOL    HW226976   3.319   4.156   4.369 -0.7804  1.4811 -1.5407
 6801SOL    HW326977   3.362   4.039   4.283  0.4385 -1.5983  2.8725
 6801SOL    MW426978   3.379   4.117   4.319 -0.4132  0.1696 -0.1570
 6802SOL     OW26979   4.152   3.226   2.901 -0.0740  0.0719 -0.2095
 6802SOL    HW226980   4.061   3.228   2.930 -0.0851  0.7640 -0.2667
 6802SOL    HW326981   4.174   3.133   2.896 -0.1262 -0.1025  1.8480
 6802SOL    MW426982   4.143   3.214   2.904 -0.0823  0.1402  0.0544
 6803SOL     OW26983   4.206   3.713   0.028  0.1074  0.4059  0.1961
 6803SOL    HW226984   4.117   3.713  -0.009  0.3606  1.7001 -0.4436
 6803SOL    HW326985   4.220   3.802   0.059  1.4747  0.4346 -0.4256
 6803SOL    MW426986   4.196   3.724   0.027  0.3212  0.5805  0.0296
 6804SOL     OW26987   0.188   3.206   5.291  0.2031 -0.3251 -0.6163
 6804SOL    HW226988   0.098   3.221   5.261  0.1606 -2.3375 -1.7046
 6804SOL    HW326989   0.182   3.206   5.386 -0.5740  1.4034 -0.6171
 6804SOL    MW426990   0.175   3.208   5.300  0.0949 -0.3625 -0.7600
 6805SOL     OW26991   2.776   5.536   0.112 -0.3481 -1.0354 -0.0642
 6805SOL    HW226992   2.806   5.621   0.080  1.3675 -1.0563  1.3486
 6805SOL    HW326993   2.759   5.550   0.205 -1.0454 -1.9913 -0.0368
 6805SOL    MW426994   2.778   5.549   0.120 -0.2137 -1.1643  0.1258
 6806SOL     OW26995   5.548   4.842   3.602  0.2158 -0.1142 -0.1996
 6806SOL    HW226996   5.504   4.893   3.670  0.1767  0.1344 -0.4057
 6806SOL    HW326997   5.617   4.794   3.647 -0.5379 -0.8415  0.2040
 6806SOL    MW426998   5.551   4.843   3.617  0.1112 -0.1774 -0.1735
 6807SOL     OW26999   5.673   3.023   0.426  0.3844  0.0917  0.0078
 6807SOL    HW227000   5.731   3.051   0.356  0.1979 -0.4210 -0.3617
 6807SOL    HW327001   5.626   3.102   0.452  0.5067  0.2999 -0.3987
 6807SOL    MW427002   5.675   3.037   0.420  0.3760  0.0516 -0.0946
 6808SOL     OW27003   5.479   4.631   5.774  0.2720 -0.1396 -0.3087
 6808SOL    HW227004   5.552   4.644   5.835 -2.1447 -0.5849  2.9084
 6808SOL    HW327005   5.495   4.544   5.736 -0.0970 -1.6739  2.7728
 6808SOL    MW427006   5.491   4.621   5.777 -0.0955 -0.4008  0.5223
 6809SOL     OW27007   1.470   6.198   2.158 -0.2860 -0.4366  0.3975
 6809SOL    HW227008   1.452   6.107   2.135 -2.2649 -0.1635  0.7690
 6809SOL    HW327009   1.424   6.250   2.092 -1.1077  0.2959  1.4995
 6809SOL    MW427010   1.462   6.193   2.146 -0.6555 -0.3040  0.5919
 6810SOL     OW27011   0.547   5.327   1.142 -0.1959 -0.4003  0.4506
 6810SOL    HW227012   0.564   5.235   1.160 -1.3091 -0.8268 -0.5450
 6810SOL    HW327013   0.451   5.335   1.143 -0.1357  0.6223  0.0204
 6810SOL    MW427014   0.536   5.316   1.144 -0.3349 -0.3217  0.2625
 6811SOL     OW27015   2.097   1.058   1.139 -0.7543 -0.1587 -0.5700
 6811SOL    HW227016   2.062   0.981   1.184  0.8360 -0.0497  0.9468
 6811SOL    HW327017   2.189   1.037   1.123 -0.6517  0.8700 -1.4392
 6811SOL    MW427018   2.105   1.045   1.143 -0.5310 -0.0086 -0.4846
 6812SOL     OW27019   1.981   2.508   6.296  0.6822 -0.3706 -0.0377
 6812SOL    HW227020   1.969   2.423   6.338  0.0719 -0.7625 -0.9708
 6812SOL    HW327021   1.898   2.524   6.251  1.1680  0.2225 -0.7440
 6812SOL    MW427022   1.968   2.499   6.296  0.6658 -0.3441 -0.2540
 6813SOL     OW27023   2.082   5.705   0.534 -0.2631 -0.3195 -0.6317
 6813SOL    HW227024   2.069   5.797   0.558 -0.2673  0.0329 -1.8672
 6813SOL    HW327025   2.004   5.660   0.566 -0.2440  0.1041  0.0220
 6813SOL    MW427026   2.070   5.711   0.541 -0.2612 -0.2171 -0.7085
 6814SOL     OW27027   2.114   2.110   2.339 -0.0046 -0.5184 -0.1183
 6814SOL    HW227028   2.142   2.182   2.283 -0.7681  1.1032  1.4859
 6814SOL    HW327029   2.030   2.082   2.303 -1.2891  1.5944  1.0425
 6814SOL    MW427030   2.107   2.116   2.327 -0.2748 -0.0257  0.2465
 6815SOL     OW27031   5.142   5.428   5.299 -0.6600 -0.4429 -0.1899
 6815SOL    HW227032   5.159   5.512   5.255 -1.9070  0.2908  0.6721
 6815SOL    HW327033   5.171   5.362   5.236 -0.6873  0.6168 -1.3484
 6815SOL    MW427034   5.148   5.431   5.285 -0.8281 -0.2063 -0.2290
 6816SOL     OW27035   2.871   5.956   0.278 -0.2613  0.0644  0.0504
 6816SOL    HW227036   2.910   5.916   0.201  0.9137 -0.3735  0.8423
 6816SOL    HW327037   2.783   5.981   0.251  0.3344  0.4782 -1.6075
 6816SOL    MW427038   2.865   5.954   0.264 -0.0277  0.0612 -0.0638
 6817SOL     OW27039   4.417   4.802   3.732  0.3838  0.6344  0.3571
 6817SOL    HW227040   4.512   4.802   3.740  0.3331  1.7382  1.2815
 6817SOL    HW327041   4.399   4.839   3.646  0.7855  1.7380  0.7322
 6817SOL    MW427042   4.427   4.807   3.722  0.4301  0.9257  0.5286
 6818SOL     OW27043   3.367   3.324   5.060  0.5072 -0.2091  0.1438
 6818SOL    HW227044   3.444   3.297   5.009 -0.6420 -2.4439 -0.5617
 6818SOL    HW327045   3.302   3.347   4.993 -0.4998 -1.6191  0.6021
 6818SOL    MW427046   3.369   3.323   5.044  0.2227 -0.6900  0.1112
 6819SOL     OW27047   2.230   1.297   5.962 -0.4360  0.0884 -0.3779
 6819SOL    HW227048   2.326   1.295   5.958 -0.3674 -0.7913  0.9847
 6819SOL    HW327049   2.210   1.347   6.041 -1.0289 -1.5256  0.5326
 6819SOL    MW427050   2.240   1.303   5.972 -0.5051 -0.2406 -0.0780
 6820SOL     OW27051   0.998   0.643   4.684  0.2190 -1.1585 -0.2630
 6820SOL    HW227052   1.076   0.688   4.715  0.2219 -1.3936  0.0818
 6820SOL    HW327053   0.943   0.712   4.647  0.1595 -0.8453  0.3973
 6820SOL    MW427054   1.001   0.658   4.683  0.2115 -1.1482 -0.1304
 6821SOL     OW27055   1.335   1.571   4.953  0.3770 -0.9948 -0.0953
 6821SOL    HW227056   1.303   1.660   4.937  1.2191 -0.7543 -0.5158
 6821SOL    HW327057   1.261   1.514   4.931 -0.3964 -0.3715  0.8306
 6821SOL    MW427058   1.321   1.575   4.948  0.3860 -0.8808 -0.0286
 6822SOL     OW27059   6.168   5.013   1.485  0.1915 -0.0335 -0.0767
 6822SOL    HW227060   6.094   5.059   1.446 -1.3737 -1.4534  1.1013
 6822SOL    HW327061   6.182   4.937   1.427 -0.2473 -0.5709  0.5167
 6822SOL    MW427062   6.160   5.009   1.472 -0.0729 -0.2917  0.1570
 6823SOL     OW27063   6.351   5.938   3.691  0.6278 -0.1046 -0.0038
 6823SOL    HW227064   6.315   5.935   3.780  0.8088 -1.6752  0.0493
 6823SOL    HW327065   6.310   6.014   3.651 -1.4376 -0.8314  0.6110
 6823SOL    MW427066   6.341   5.948   3.698  0.3792 -0.4077  0.0843
 6824SOL     OW27067   2.209   6.335   3.827 -0.0766 -0.3868 -0.0895
 6824SOL    HW227068   2.238   6.244   3.818 -1.4764 -0.9540  0.7331
 6824SOL    HW327069   2.277   6.377   3.879  0.5115 -0.9929 -0.3498
 6824SOL    MW427070   2.222   6.328   3.832 -0.1837 -0.5416 -0.0153
 6825SOL     OW27071   2.414   2.776   2.276 -0.5488 -0.4385 -0.2789
 6825SOL    HW227072   2.376   2.693   2.305 -0.1326 -0.2536  0.8475
 6825SOL    HW327073   2.427   2.765   2.182  0.9275 -2.2341  0.0788
 6825SOL    MW427074   2.411   2.764   2.267 -0.2991 -0.6510 -0.0831
 6826SOL     OW27075   6.434   0.549   1.395 -0.0984 -0.6213 -0.3532
 6826SOL    HW227076   6.369   0.527   1.328 -0.3677  0.6980 -0.5506
 6826SOL    HW327077   6.384   0.558   1.476  0.0942 -1.2787 -0.1554
 6826SOL    MW427078   6.419   0.547   1.397 -0.1085 -0.5340 -0.3532
 6827SOL     OW27079   1.610   4.862   0.696  0.6454  0.2638  0.0743
 6827SOL    HW227080   1.660   4.940   0.672 -0.3262  0.2040 -2.3313
 6827SOL    HW327081   1.520   4.893   0.706  0.5650 -0.2301  1.0040
 6827SOL    MW427082   1.604   4.876   0.694  0.5066  0.1908 -0.1205
 6828SOL     OW27083   2.400   0.729   5.158 -0.3637 -0.2959 -0.1495
 6828SOL    HW227084   2.472   0.747   5.098  0.8035 -0.3683  1.1510
 6828SOL    HW327085   2.416   0.639   5.188 -0.6162 -0.0821  0.6446
 6828SOL    MW427086   2.412   0.719   5.154 -0.2430 -0.2772  0.1269
 6829SOL     OW27087   2.705   6.413   5.766  0.2651 -0.0782 -0.6884
 6829SOL    HW227088   2.791   6.378   5.790 -0.8456 -1.5180  1.4638
 6829SOL    HW327089   2.681   6.470   5.838  0.6732  2.9292 -2.7241
 6829SOL    MW427090   2.713   6.416   5.778  0.1724  0.1286 -0.6730
 6830SOL     OW27091   3.802   6.391   6.245  0.3438 -1.1074  0.6183
 6830SOL    HW227092   3.896   6.372   6.251  0.4238 -1.2753 -0.7332
 6830SOL    HW327093   3.766   6.316   6.198 -0.5351 -1.2112  1.4477
 6830SOL    MW427094   3.810   6.378   6.240  0.2384 -1.1432  0.5494
 6831SOL     OW27095   3.175   1.979   4.303  0.1253  0.2406 -0.4188
 6831SOL    HW227096   3.135   2.028   4.231 -0.5024 -0.6978 -0.7253
 6831SOL    HW327097   3.109   1.915   4.328  0.7008 -0.0601  0.3786
 6831SOL    MW427098   3.161   1.977   4.297  0.1184  0.0771 -0.3540
 6832SOL     OW27099   3.748   3.903   5.765  0.7927 -0.3714  0.3288
 6832SOL    HW227100   3.708   3.888   5.680 -1.0265  0.5357  0.9554
 6832SOL    HW327101   3.706   3.839   5.823 -0.3273  1.0026  1.1280
 6832SOL    MW427102   3.737   3.893   5.762  0.4049 -0.0705  0.5169
 6833SOL     OW27103   5.211   3.164   3.983  0.2881  0.1183 -0.5214
 6833SOL    HW227104   5.169   3.080   3.963 -1.1332  0.5725  0.4134
 6833SOL    HW327105   5.205   3.172   4.078  0.5470  1.2127 -0.5844
 6833SOL    MW427106   5.205   3.154   3.993  0.1348  0.3227 -0.4063
 6834SOL     OW27107   2.076   2.351   0.704  0.2847 -0.0060  0.4006
 6834SOL    HW227108   2.064   2.334   0.797  0.0796  0.3938  0.4481
 6834SOL    HW327109   1.990   2.379   0.673  0.0876 -1.1513 -0.1318
 6834SOL    MW427110   2.063   2.352   0.712  0.2316 -0.1044  0.3366
 6835SOL     OW27111   3.990   4.258   3.611  0.2017 -0.8280 -0.4544
 6835SOL    HW227112   4.059   4.304   3.658 -0.8424 -0.5511  0.8571
 6835SOL    HW327113   3.968   4.316   3.538  1.1998 -0.8283 -0.7691
 6835SOL    MW427114   3.996   4.272   3.607  0.1957 -0.7915 -0.3229
 6836SOL     OW27115   6.204   0.051   3.419  0.8300  0.6708  0.3394
 6836SOL    HW227116   6.110   0.070   3.428  1.0893  2.7069 -0.6769
 6836SOL    HW327117   6.213  -0.040   3.447 -1.4204  0.4921  0.6495
 6836SOL    MW427118   6.193   0.041   3.424  0.5673  0.9159  0.2463
 6837SOL     OW27119   4.851   5.634   4.373 -0.3560  0.3270 -0.1694
 6837SOL    HW227120   4.859   5.729   4.363 -1.6336  0.4250 -0.3776
 6837SOL    HW327121   4.767   5.621   4.418 -0.5346 -0.7420 -0.7774
 6837SOL    MW427122   4.841   5.645   4.378 -0.5481  0.1989 -0.2771
 6838SOL     OW27123   5.990   0.749   0.473  0.1935 -0.0131  0.2464
 6838SOL    HW227124   5.923   0.810   0.444  0.2022  0.6871  1.5988
 6838SOL    HW327125   5.944   0.666   0.483 -0.2566  0.2339  0.2394
 6838SOL    MW427126   5.975   0.746   0.471  0.1353  0.1119  0.4239
 6839SOL     OW27127   3.380   2.304   5.759 -0.2402  0.0123  0.5598
 6839SOL    HW227128   3.430   2.223   5.773 -0.1387 -0.0492 -0.1430
 6839SOL    HW327129   3.289   2.279   5.773 -0.2259 -0.2700  0.1765
 6839SOL    MW427130   3.375   2.290   5.763 -0.2249 -0.0331  0.4165
 6840SOL     OW27131   4.605   3.747   5.850 -0.3064 -0.2657 -0.4188
 6840SOL    HW227132   4.618   3.673   5.908  0.4077  0.1114 -0.0766
 6840SOL    HW327133   4.684   3.800   5.861  0.3322 -0.7025 -2.4929
 6840SOL    MW427134   4.617   3.744   5.859 -0.1280 -0.2736 -0.6473
 6841SOL     OW27135   3.735   0.781   4.040  0.3249 -0.8184  0.1382
 6841SOL    HW227136   3.696   0.793   3.954  0.3049  0.2173  0.2764
 6841SOL    HW327137   3.665   0.745   4.094  0.0984 -0.6958 -0.0741
 6841SOL    MW427138   3.721   0.778   4.036  0.2923 -0.6656  0.1284
 6842SOL     OW27139   3.034   5.858   6.263  0.2449 -0.7245  0.2274
 6842SOL    HW227140   3.091   5.854   6.187  1.6365 -3.6803  1.2540
 6842SOL    HW327141   2.955   5.811   6.237 -1.3071  2.1526 -0.7260
 6842SOL    MW427142   3.031   5.851   6.250  0.2238 -0.7349  0.2370
 6843SOL     OW27143   2.804   6.419   0.327 -0.5163  0.4603 -0.2797
 6843SOL    HW227144   2.869   6.487   0.344 -1.3314  1.1822  0.0710
 6843SOL    HW327145   2.851   6.337   0.337  0.3680  0.9656 -0.1874
 6843SOL    MW427146   2.818   6.417   0.330 -0.5071  0.6222 -0.2213
 6844SOL     OW27147   4.570   5.587   4.436  0.0455  0.0700  0.2763
 6844SOL    HW227148   4.534   5.512   4.391 -0.3830 -1.5051  3.0068
 6844SOL    HW327149   4.536   5.663   4.389  0.9118 -1.3630 -2.8831
 6844SOL    MW427150   4.561   5.587   4.424  0.1033 -0.3269  0.2197
 6845SOL     OW27151   5.010   3.734   5.643  0.0740  0.0993  0.6791
 6845SOL    HW227152   4.969   3.719   5.558 -0.8793 -0.7812  1.2637
 6845SOL    HW327153   4.964   3.674   5.703  0.0384  1.4001  2.0170
 6845SOL    MW427154   4.998   3.724   5.640 -0.0565  0.1547  0.9328
 6846SOL     OW27155   2.531   4.634   2.252  0.1998  0.0005  0.2020
 6846SOL    HW227156   2.437   4.637   2.269 -0.0484 -1.3871 -0.8023
 6846SOL    HW327157   2.539   4.612   2.159  1.5167 -0.4286  0.3855
 6846SOL    MW427158   2.520   4.632   2.242  0.3408 -0.2392  0.0937
 6847SOL     OW27159   0.599   0.319   4.186  0.4444 -0.1264 -0.5766
 6847SOL    HW227160   0.659   0.367   4.243 -0.4791  1.0962 -0.6060
 6847SOL    HW327161   0.618   0.227   4.204  1.0427  0.2330  0.7682
 6847SOL    MW427162   0.610   0.313   4.196  0.4015  0.0823 -0.4031
 6848SOL     OW27163   3.937   3.214   6.268 -0.3315  0.0877 -0.4479
 6848SOL    HW227164   3.947   3.224   6.363  0.7187  0.8836 -0.6191
 6848SOL    HW327165   3.968   3.125   6.250 -0.3482  0.0018 -0.0658
 6848SOL    MW427166   3.943   3.204   6.278 -0.1952  0.1814 -0.4200
 6849SOL     OW27167   3.630   0.185   5.523  0.3920 -0.1746  0.0476
 6849SOL    HW227168   3.641   0.264   5.471  0.1602  0.6314  1.2028
 6849SOL    HW327169   3.666   0.206   5.608  1.1885 -1.6323  0.1051
 6849SOL    MW427170   3.636   0.198   5.527  0.4665 -0.2606  0.2076
 6850SOL     OW27171   0.351   0.763   3.605  0.3232  0.4556  0.4524
 6850SOL    HW227172   0.379   0.801   3.522  1.5604  0.9621  1.0626
 6850SOL    HW327173   0.295   0.829   3.644 -0.2536  0.2203  0.0302
 6850SOL    MW427174   0.348   0.777   3.599  0.4104  0.4914  0.4772
 6851SOL     OW27175   2.529   6.127   6.364  0.4798  0.0370 -0.1437
 6851SOL    HW227176   2.622   6.130   6.387  0.4212  0.0566  0.0993
 6851SOL    HW327177   2.493   6.058   6.420  0.1681  0.6759  0.4598
 6851SOL    MW427178   2.537   6.118   6.374  0.4310  0.1238 -0.0320
 6852SOL     OW27179   2.700   0.041   1.287  0.1808 -0.2306  0.9134
 6852SOL    HW227180   2.690   0.011   1.197  0.5977  0.3039  0.6765
 6852SOL    HW327181   2.694  -0.038   1.340  2.1627 -0.8949  0.2468
 6852SOL    MW427182   2.698   0.027   1.282  0.4973 -0.2478  0.7942
 6853SOL     OW27183   0.920   4.152   0.568 -0.3331 -0.1686  0.0778
 6853SOL    HW227184   0.856   4.082   0.552 -1.6756  0.7826  1.0499
 6853SOL    HW327185   0.879   4.207   0.634  0.8642  1.3193 -0.3637
 6853SOL    MW427186   0.906   4.150   0.574 -0.3523  0.1532  0.1478
 6854SOL     OW27187   6.392   0.427   4.181 -0.2226  0.0123 -0.3260
 6854SOL    HW227188   6.308   0.437   4.226 -1.9371 -1.3866 -2.9545
 6854SOL    HW327189   6.421   0.339   4.205 -1.0046 -0.6296 -1.6430
 6854SOL    MW427190   6.384   0.417   4.190 -0.5520 -0.2570 -0.8466
 6855SOL     OW27191   5.983   0.167   6.092  0.1977  0.0732 -0.1027
 6855SOL    HW227192   5.965   0.115   6.170  0.4379  0.1142 -0.0181
 6855SOL    HW327193   5.976   0.105   6.019 -1.0724  0.2501 -0.1572
 6855SOL    MW427194   5.980   0.152   6.093  0.0618  0.1019 -0.0987
 6856SOL     OW27195   0.149   0.257   5.170 -0.1242 -0.1583 -0.4969
 6856SOL    HW227196   0.186   0.344   5.153 -1.2213  0.7193  1.2760
 6856SOL    HW327197   0.055   0.268   5.154 -0.4398 -0.6629  0.8442
 6856SOL    MW427198   0.142   0.270   5.166 -0.3106 -0.1091 -0.0861
 6857SOL     OW27199   4.570   0.973   2.120  0.4690  0.2109  0.5672
 6857SOL    HW227200   4.505   1.042   2.104  0.5002  0.6428  2.1547
 6857SOL    HW327201   4.598   0.946   2.032 -0.2304  1.5604 -0.1043
 6857SOL    MW427202   4.565   0.979   2.106  0.3808  0.4459  0.6881
 6858SOL     OW27203   1.653   0.843   6.378  0.2257  0.1286 -0.1337
 6858SOL    HW227204   1.717   0.908   6.350  1.7060 -1.5093 -0.7243
 6858SOL    HW327205   1.588   0.842   6.307  1.3341 -0.4971 -1.1882
 6858SOL    MW427206   1.653   0.851   6.365  0.5672 -0.1701 -0.3507
 6859SOL     OW27207   0.920   5.827   6.306  0.5291 -0.1106 -0.0821
 6859SOL    HW227208   0.824   5.823   6.304  0.5493 -0.6566 -2.0634
 6859SOL    HW327209   0.939   5.919   6.322 -0.4129  0.6313 -2.6299
 6859SOL    MW427210   0.909   5.839   6.308  0.4075 -0.0848 -0.6797
 6860SOL     OW27211   0.484   3.949   4.904  0.2267  0.2879 -0.7033
 6860SOL    HW227212   0.533   3.986   4.977 -0.9340  0.0564  0.2166
 6860SOL    HW327213   0.504   3.855   4.906 -1.6636 -0.1346  0.8540
 6860SOL    MW427214   0.493   3.941   4.914 -0.1758  0.2016 -0.3764
 6861SOL     OW27215   4.357   1.432   1.650 -0.0730 -0.0433  0.3196
 6861SOL    HW227216   4.404   1.436   1.567  0.0894  1.2600  0.4535
 6861SOL    HW327217   4.406   1.368   1.702 -0.7574 -1.6289 -0.9108
 6861SOL    MW427218   4.370   1.424   1.646 -0.1419 -0.0805  0.1749
 6862SOL     OW27219   3.388   3.350   4.566  0.3729 -0.1516  0.0685
 6862SOL    HW227220   3.343   3.285   4.620  0.0914 -0.6072 -0.6857
 6862SOL    HW327221   3.318   3.387   4.511  0.7113  0.0470 -0.2273
 6862SOL    MW427222   3.373   3.346   4.566  0.3804 -0.1855 -0.0701
 6863SOL     OW27223   3.240   3.327   3.404 -0.0188  0.0897  0.4962
 6863SOL    HW227224   3.239   3.296   3.314 -0.6756  1.4359  0.0176
 6863SOL    HW327225   3.327   3.367   3.415 -0.4830  1.2613 -0.0244
 6863SOL    MW427226   3.252   3.328   3.394 -0.1667  0.4219  0.3644
 6864SOL     OW27227   5.272   3.925   3.608  0.1214  0.0314 -0.6453
 6864SOL    HW227228   5.288   3.831   3.612 -1.0642 -0.1446  1.9955
 6864SOL    HW327229   5.337   3.963   3.667 -2.0480  0.3175  1.7917
 6864SOL    MW427230   5.283   3.918   3.616 -0.3212  0.0459  0.0246
 6865SOL     OW27231   0.401   2.442   6.130  0.2079 -0.2853  0.0881
 6865SOL    HW227232   0.492   2.466   6.108  1.1122 -2.1486  1.5197
 6865SOL    HW327233   0.410   2.382   6.203 -2.0613 -2.5263 -1.3353
 6865SOL    MW427234   0.414   2.438   6.137  0.0278 -0.8268  0.0892
 6866SOL     OW27235   4.846   5.500   0.509  0.1256 -0.1681 -0.8700
 6866SOL    HW227236   4.797   5.418   0.502 -0.9406  0.2554  0.8467
 6866SOL    HW327237   4.919   5.480   0.568  0.0109  0.0335 -0.6535
 6866SOL    MW427238   4.849   5.487   0.516 -0.0302 -0.0856 -0.6149
 6867SOL     OW27239   5.174   6.044   4.845 -0.2010  0.6242  0.0310
 6867SOL    HW227240   5.103   5.997   4.889 -0.3783  1.4002  0.5838
 6867SOL    HW327241   5.253   5.997   4.871 -0.6016 -1.3699 -2.0091
 6867SOL    MW427242   5.175   6.032   4.854 -0.2772  0.4635 -0.1652
 6868SOL     OW27243   3.078   0.254   3.807 -0.3518 -0.0386  0.1620
 6868SOL    HW227244   3.144   0.204   3.855 -1.4785 -1.9315 -0.1477
 6868SOL    HW327245   3.067   0.334   3.858  3.1694  1.0575 -0.5694
 6868SOL    MW427246   3.085   0.258   3.820 -0.0359 -0.1437  0.0246
 6869SOL     OW27247   2.063   3.224   3.624 -0.1606 -0.0393 -0.3882
 6869SOL    HW227248   2.144   3.191   3.663 -0.5530 -0.2667  0.2541
 6869SOL    HW327249   2.090   3.300   3.574  0.2045  1.0453  1.3613
 6869SOL    MW427250   2.077   3.230   3.623 -0.1642  0.0738 -0.0726
 6870SOL     OW27251   5.078   4.607   5.616 -0.0346 -0.5691  0.1400
 6870SOL    HW227252   5.112   4.654   5.693  0.6856 -2.3910  0.9935
 6870SOL    HW327253   5.152   4.553   5.587 -1.1535 -2.0135 -0.1105
 6870SOL    MW427254   5.092   4.606   5.622 -0.0872 -1.0001  0.2195
 6871SOL     OW27255   5.285   0.068   2.065  0.0742 -0.0689  0.2206
 6871SOL    HW227256   5.344   0.092   2.137  1.3016  0.1967 -0.8384
 6871SOL    HW327257   5.222   0.007   2.105  2.1495 -1.8302  1.0226
 6871SOL    MW427258   5.284   0.063   2.080  0.5100 -0.2662  0.1867
 6872SOL     OW27259   4.406   2.390   4.715 -0.0220 -0.0974 -0.6795
 6872SOL    HW227260   4.328   2.444   4.727 -0.2276 -0.5413  0.0309
 6872SOL    HW327261   4.462   2.413   4.790  0.7113  0.5287 -1.4092
 6872SOL    MW427262   4.403   2.400   4.727  0.0476 -0.0734 -0.6820
 6873SOL     OW27263   3.194   0.915   1.915  0.1448  0.0258  0.2350
 6873SOL    HW227264   3.207   0.986   1.978 -0.6785 -0.0899  0.5433
 6873SOL    HW327265   3.117   0.941   1.864  0.5758 -0.0630 -0.4736
 6873SOL    MW427266   3.186   0.928   1.917  0.0930 -0.0012  0.1821
 6874SOL     OW27267   4.425   4.901   2.573  0.1341 -0.0623  0.0983
 6874SOL    HW227268   4.504   4.847   2.583  0.1399 -0.5426 -1.9578
 6874SOL    HW327269   4.354   4.844   2.601  0.4690  0.3981  2.0383
 6874SOL    MW427270   4.426   4.886   2.578  0.1791 -0.0649  0.0830
 6875SOL     OW27271   4.317   4.823   6.232  0.8429 -0.1049 -0.0323
 6875SOL    HW227272   4.258   4.896   6.244 -0.3021 -0.8328 -1.0818
 6875SOL    HW327273   4.401   4.863   6.209  0.5279  0.8973  0.5164
 6875SOL    MW427274   4.321   4.838   6.231  0.6502 -0.0687 -0.0984
 6876SOL     OW27275   1.752   5.277   1.535 -0.5465  0.2402 -0.3929
 6876SOL    HW227276   1.724   5.285   1.627  0.6833 -1.8820  0.2570
 6876SOL    HW327277   1.696   5.207   1.500 -0.9138  0.9486 -1.2344
 6876SOL    MW427278   1.741   5.269   1.543 -0.4327  0.0537 -0.4181
 6877SOL     OW27279   5.545   0.733   1.476 -0.0619  0.2013  0.0679
 6877SOL    HW227280   5.483   0.735   1.403 -2.2776  2.3280  1.8383
 6877SOL    HW327281   5.508   0.669   1.537  1.4804 -1.1562 -0.3381
 6877SOL    MW427282   5.532   0.725   1.474 -0.1507  0.3028  0.2479
 6878SOL     OW27283   2.629   1.040   2.652 -0.7359  0.0804 -0.8091
 6878SOL    HW227284   2.657   1.027   2.743 -0.9797  0.7210 -0.6328
 6878SOL    HW327285   2.541   1.001   2.649 -0.8333  0.2869 -0.6962
 6878SOL    MW427286   2.621   1.033   2.664 -0.7809  0.1921 -0.7710
 6879SOL     OW27287   6.120   2.607   1.090 -0.8302  0.5053  0.2173
 6879SOL    HW227288   6.095   2.688   1.044 -1.7519  0.0333 -0.1310
 6879SOL    HW327289   6.214   2.601   1.077 -0.7630  1.4715  0.1560
 6879SOL    MW427290   6.129   2.617   1.082 -0.9429  0.5705  0.1633
 6880SOL     OW27291   6.395   4.313   6.017 -0.5156 -0.0857  0.4549
 6880SOL    HW227292   6.375   4.398   6.056  1.8003  0.3498  0.8073
 6880SOL    HW327293   6.319   4.295   5.961 -0.5016  2.8873 -0.7411
 6880SOL    MW427294   6.382   4.322   6.015 -0.2082  0.3640  0.3436
 6881SOL     OW27295   0.759   0.479   6.140  0.4237 -0.2447 -0.4042
 6881SOL    HW227296   0.770   0.543   6.069 -0.5457  0.3339 -0.0615
 6881SOL    HW327297   0.828   0.415   6.126  0.2381 -0.1580 -1.9002
 6881SOL    MW427298   0.769   0.479   6.129  0.2713 -0.1569 -0.5564
 6882SOL     OW27299   4.692   0.097   2.983 -0.4883  0.1499  0.1181
 6882SOL    HW227300   4.641   0.156   3.038 -0.6050  0.0661  0.0997
 6882SOL    HW327301   4.783   0.113   3.009 -0.3150  1.8512 -1.3373
 6882SOL    MW427302   4.697   0.107   2.994 -0.4808  0.3633 -0.0764
 6883SOL     OW27303   5.500   5.503   4.542  0.1088 -0.2812 -0.2634
 6883SOL    HW227304   5.511   5.503   4.637 -0.8758  2.2350 -0.0887
 6883SOL    HW327305   5.410   5.473   4.528  0.2901 -0.7640 -0.4335
 6883SOL    MW427306   5.490   5.499   4.553  0.0028 -0.0129 -0.2628
 6884SOL     OW27307   4.526   4.858   5.175  0.7012 -0.0007  0.2920
 6884SOL    HW227308   4.543   4.793   5.108 -1.7973  0.8514 -1.2921
 6884SOL    HW327309   4.525   4.942   5.129 -1.8426  0.5417  1.1379
 6884SOL    MW427310   4.528   4.861   5.160  0.0360  0.1833  0.1946
 6885SOL     OW27311   1.035   1.871   1.368 -0.2989  0.0134 -0.9097
 6885SOL    HW227312   0.952   1.824   1.379  0.1463 -0.7811 -0.8601
 6885SOL    HW327313   1.067   1.884   1.457 -0.1490 -0.0905 -0.9483
 6885SOL    MW427314   1.028   1.866   1.381 -0.2204 -0.1052 -0.9083
 6886SOL     OW27315   0.813   1.717   1.958 -0.2392 -0.7470 -0.4143
 6886SOL    HW227316   0.757   1.766   2.018  1.8513  1.9835 -0.5161
 6886SOL    HW327317   0.792   1.752   1.871  1.3727  0.1453 -0.4730
 6886SOL    MW427318   0.803   1.728   1.955  0.2493 -0.2690 -0.4354
 6887SOL     OW27319   2.775   0.728   1.427  0.0296  0.3128 -0.1874
 6887SOL    HW227320   2.816   0.651   1.388  0.5586 -0.9922  2.6351
 6887SOL    HW327321   2.689   0.696   1.457  0.2271  0.8083  0.9638
 6887SOL    MW427322   2.769   0.713   1.426  0.1254  0.2060  0.3369
 6888SOL     OW27323   1.508   5.252   6.098  0.1121  0.1750 -0.4251
 6888SOL    HW227324   1.462   5.291   6.024  0.0405 -0.6657 -0.8374
 6888SOL    HW327325   1.599   5.246   6.069  0.2782  0.7511 -0.0563
 6888SOL    MW427326   1.514   5.257   6.084  0.1246  0.1401 -0.4309
 6889SOL     OW27327   4.956   1.027   2.496 -0.4130 -0.2784  0.5146
 6889SOL    HW227328   4.883   0.975   2.529 -1.6061  0.3575 -0.9690
 6889SOL    HW327329   4.916   1.109   2.467  0.6496 -0.3862 -1.4975
 6889SOL    MW427330   4.941   1.031   2.496 -0.4302 -0.2087  0.0534
 6890SOL     OW27331   3.813   2.081   5.663 -0.6977 -0.3206  0.2284
 6890SOL    HW227332   3.780   2.129   5.587  1.6747 -0.0195 -0.7008
 6890SOL    HW327333   3.864   2.009   5.626  4.1005  2.1744  1.1731
 6890SOL    MW427334   3.815   2.078   5.648  0.2483  0.0483  0.2304
 6891SOL     OW27335   5.852   4.489   4.598 -0.2612 -0.2767 -0.3688
 6891SOL    HW227336   5.791   4.418   4.614 -1.7314  1.3390  1.8124
 6891SOL    HW327337   5.900   4.463   4.519 -0.4735 -3.7783  0.5098
 6891SOL    MW427338   5.851   4.476   4.590 -0.4832 -0.5255  0.0349
 6892SOL     OW27339   5.375   1.064   6.158  0.1378 -0.6917  0.2807
 6892SOL    HW227340   5.301   1.120   6.134  2.0161  1.2860 -1.2542
 6892SOL    HW327341   5.385   1.004   6.084  1.1559  0.2744 -0.3953
 6892SOL    MW427342   5.366   1.064   6.145  0.5199 -0.3033 -0.0110
 6893SOL     OW27343   3.574   4.554   2.800  0.4057  0.8840 -0.0615
 6893SOL    HW227344   3.555   4.610   2.724  2.1531  0.6262 -0.7510
 6893SOL    HW327345   3.575   4.465   2.764  1.2885  0.7649  0.2348
 6893SOL    MW427346   3.572   4.549   2.785  0.7527  0.8343 -0.1134
 6894SOL     OW27347   3.569   6.184   1.474 -0.5084  0.0224 -0.5714
 6894SOL    HW227348   3.600   6.132   1.548 -0.8773  2.9192  1.8134
 6894SOL    HW327349   3.649   6.214   1.430 -0.2765 -1.1968 -1.0205
 6894SOL    MW427350   3.584   6.182   1.478 -0.5265  0.2437 -0.3160
 6895SOL     OW27351   2.561   2.607   5.773 -0.7395 -0.5974  0.5527
 6895SOL    HW227352   2.585   2.585   5.863 -3.9394 -0.4145  1.5983
 6895SOL    HW327353   2.502   2.537   5.745 -0.2221 -0.3800 -1.2373
 6895SOL    MW427354   2.556   2.595   5.781 -1.0934 -0.5446  0.4545
 6896SOL     OW27355   4.194   2.110   5.792  0.0110  0.0573 -0.0221
 6896SOL    HW227356   4.183   2.095   5.698  1.2897 -1.5075  0.0335
 6896SOL    HW327357   4.129   2.053   5.833  0.5172 -0.4558  0.0704
 6896SOL    MW427358   4.184   2.101   5.785  0.2465 -0.2169 -0.0025
 6897SOL     OW27359   1.368   0.914   1.398  0.5930  0.0039  0.0622
 6897SOL    HW227360   1.452   0.876   1.424  1.5627  0.7135 -1.8423
 6897SOL    HW327361   1.391   0.986   1.340 -1.3513  0.0355 -0.7381
 6897SOL    MW427362   1.382   0.918   1.394  0.4644  0.1017 -0.2947
 6898SOL     OW27363   3.705   0.402   5.373  0.3919  0.1954  0.0010
 6898SOL    HW227364   3.677   0.365   5.289  0.3851 -2.0889  0.9466
 6898SOL    HW327365   3.800   0.408   5.366  0.2668  2.1990 -0.9447
 6898SOL    MW427366   3.714   0.398   5.361  0.3745  0.1583  0.0010
 6899SOL     OW27367   5.931   3.038   0.302 -0.1263 -0.2616  0.5356
 6899SOL    HW227368   5.968   2.950   0.300 -1.1952 -0.7363  0.9734
 6899SOL    HW327369   5.963   3.079   0.222 -0.5542 -1.4426 -0.2641
 6899SOL    MW427370   5.940   3.032   0.291 -0.3238 -0.4801  0.4879
 6900SOL     OW27371   3.015   5.669   4.832 -0.3340  0.0847 -0.0019
 6900SOL    HW227372   2.922   5.647   4.831 -0.2310 -0.3397 -0.7152
 6900SOL    HW327373   3.058   5.596   4.788  0.5741 -0.7004  2.0504
 6900SOL    MW427374   3.008   5.657   4.826 -0.2006 -0.0749  0.1747
 6901SOL     OW27375   2.512   3.025   2.718 -0.5903 -0.0052 -0.0461
 6901SOL    HW227376   2.588   2.972   2.741 -1.4863 -1.5810 -0.5898
 6901SOL    HW327377   2.494   3.076   2.797  0.4211 -0.3463  0.4171
 6901SOL    MW427378   2.519   3.025   2.732 -0.5751 -0.2581 -0.0567
 6902SOL     OW27379   1.205   3.723   0.237 -0.0009  0.0642  0.3628
 6902SOL    HW227380   1.281   3.667   0.225 -0.7156 -1.2580  1.6371
 6902SOL    HW327381   1.208   3.784   0.163  1.0720 -1.3482 -0.8235
 6902SOL    MW427382   1.215   3.724   0.226  0.0464 -0.2966  0.3744
 6903SOL     OW27383   1.874   3.796   1.787  0.1860  0.0528  0.0151
 6903SOL    HW227384   1.953   3.804   1.733 -0.3229 -0.1699 -0.7774
 6903SOL    HW327385   1.802   3.807   1.726 -0.4082  0.1436  0.7165
 6903SOL    MW427386   1.875   3.798   1.772  0.0405  0.0354  0.0031
 6904SOL     OW27387   3.585   5.635   2.982  0.1123  0.2648 -0.1386
 6904SOL    HW227388   3.517   5.681   3.032 -1.5174 -1.1729 -0.8870
 6904SOL    HW327389   3.591   5.549   3.024  0.5421 -0.0652 -0.8561
 6904SOL    MW427390   3.577   5.630   2.994 -0.0460  0.0315 -0.3320
 6905SOL     OW27391   0.316   0.488   3.725 -0.1207 -0.0890  0.2552
 6905SOL    HW227392   0.347   0.500   3.636  1.2490  0.4232  0.7653
 6905SOL    HW327393   0.323   0.394   3.741  0.2482 -0.1064  0.0214
 6905SOL    MW427394   0.321   0.477   3.716  0.1087 -0.0237  0.2917
 6906SOL     OW27395   4.670   5.301   1.717 -0.7523 -0.3304 -1.1456
 6906SOL    HW227396   4.609   5.229   1.731 -0.8227  0.1780  1.7439
 6906SOL    HW327397   4.641   5.370   1.777  2.0981  0.2586 -0.2479
 6906SOL    MW427398   4.658   5.301   1.727 -0.3856 -0.1856 -0.6459
 6907SOL     OW27399   4.574   4.442   3.889 -0.2558 -0.2841 -0.2410
 6907SOL    HW227400   4.587   4.477   3.978 -2.1805 -0.3154  0.0926
 6907SOL    HW327401   4.571   4.347   3.901  2.2978 -0.5136 -0.7856
 6907SOL    MW427402   4.575   4.434   3.903 -0.1728 -0.3185 -0.2688
 6908SOL     OW27403   2.230   2.017   5.791 -0.5595 -0.0518  0.0302
 6908SOL    HW227404   2.243   2.057   5.705  0.3844  2.4949  1.2437
 6908SOL    HW327405   2.137   2.029   5.809 -0.6869 -0.2557 -0.4820
 6908SOL    MW427406   2.219   2.024   5.782 -0.4518  0.2573  0.1227
 6909SOL     OW27407   0.461   4.746   3.646  0.2083 -0.6889 -0.4426
 6909SOL    HW227408   0.533   4.753   3.583 -1.3809  1.5908 -2.1741
 6909SOL    HW327409   0.473   4.820   3.705 -0.7805 -0.2065 -0.8333
 6909SOL    MW427410   0.472   4.756   3.645 -0.1318 -0.3245 -0.7226
 6910SOL     OW27411   6.089   2.419   3.339  0.2213 -0.3339 -0.4961
 6910SOL    HW227412   6.061   2.371   3.417 -1.4366  1.4568  0.1062
 6910SOL    HW327413   6.184   2.410   3.337  0.4660  0.7250  2.5457
 6910SOL    MW427414   6.098   2.411   3.349  0.0348  0.0420 -0.0153
 6911SOL     OW27415   6.057   1.806   5.682 -0.3012 -0.8510  0.3452
 6911SOL    HW227416   6.011   1.866   5.741  0.4786  0.3365 -0.1906
 6911SOL    HW327417   6.124   1.765   5.736  0.5563  0.3969  0.2732
 6911SOL    MW427418   6.059   1.809   5.697 -0.0852 -0.5297  0.2650
 6912SOL     OW27419   1.517   0.592   2.466  0.5881  0.4053  0.0944
 6912SOL    HW227420   1.437   0.633   2.435  0.6682 -0.1190 -0.8487
 6912SOL    HW327421   1.585   0.621   2.405  0.7683 -0.5696 -0.1953
 6912SOL    MW427422   1.516   0.601   2.454  0.6224  0.2075 -0.0682
 6913SOL     OW27423   2.514   1.577   2.470 -0.5044 -0.0996  0.0660
 6913SOL    HW227424   2.512   1.661   2.424 -1.5694 -0.9740 -1.5940
 6913SOL    HW327425   2.547   1.515   2.405  2.5160 -0.6719  1.9368
 6913SOL    MW427426   2.518   1.580   2.456 -0.2464 -0.2905  0.0938
 6914SOL     OW27427   6.189   5.283   6.287 -0.3675 -0.0315  0.2700
 6914SOL    HW227428   6.205   5.340   6.363 -0.3201 -0.7470  0.8109
 6914SOL    HW327429   6.095   5.291   6.271 -0.0163  1.9871 -1.1336
 6914SOL    MW427430   6.179   5.292   6.295 -0.3149  0.1404  0.1562
 6915SOL     OW27431   2.612   1.410   3.832  0.2766  0.0596 -0.3107
 6915SOL    HW227432   2.573   1.338   3.781  2.6299 -0.8503 -0.9536
 6915SOL    HW327433   2.558   1.415   3.911 -0.0929 -2.3015 -0.3429
 6915SOL    MW427434   2.599   1.401   3.836  0.5383 -0.3720 -0.3997
 6916SOL     OW27435   3.940   1.115   0.814  0.0084 -0.4970  0.4845
 6916SOL    HW227436   3.901   1.029   0.799 -1.1066 -0.0708  0.8126
 6916SOL    HW327437   3.870   1.177   0.794  1.5172  0.5137 -2.2961
 6916SOL    MW427438   3.926   1.112   0.809  0.0604 -0.3074  0.1609
 6917SOL     OW27439   2.992   5.207   2.277 -0.0778  0.4368 -0.3474
 6917SOL    HW227440   3.047   5.202   2.355 -2.5695  0.9119  1.5677
 6917SOL    HW327441   3.050   5.181   2.205  1.9412 -1.5533  1.8166
 6917SOL    MW427442   3.007   5.203   2.277 -0.1401  0.2369  0.1908
 6918SOL     OW27443   2.910   1.700   5.337  0.1813 -0.3421  0.0344
 6918SOL    HW227444   2.968   1.769   5.306  1.0106 -0.3883  1.4184
 6918SOL    HW327445   2.846   1.745   5.392  0.2220 -0.5645  0.2676
 6918SOL    MW427446   2.909   1.715   5.341  0.2961 -0.3775  0.2477
 6919SOL     OW27447   0.385   1.470   2.071 -0.4630 -0.2181  0.0711
 6919SOL    HW227448   0.307   1.521   2.092 -0.2059  0.3064 -0.2211
 6919SOL    HW327449   0.431   1.522   2.006 -0.6082 -1.2149 -0.8594
 6919SOL    MW427450   0.381   1.484   2.065 -0.4482 -0.2804 -0.0902
 6920SOL     OW27451   0.555   1.332   2.677 -0.3884 -0.1222 -0.0776
 6920SOL    HW227452   0.542   1.411   2.624 -1.4707 -0.2262  0.0131
 6920SOL    HW327453   0.611   1.360   2.749  0.0768  0.3170 -0.6054
 6920SOL    MW427454   0.561   1.346   2.679 -0.4698 -0.0780 -0.1353
 6921SOL     OW27455   1.840   6.195   4.145  1.0040  0.1020  0.0071
 6921SOL    HW227456   1.918   6.222   4.194  1.7564 -2.2711  0.2814
 6921SOL    HW327457   1.873   6.174   4.058  0.6466 -0.6338  0.0398
 6921SOL    MW427458   1.855   6.196   4.140  1.0561 -0.3081  0.0476
 6922SOL     OW27459   5.019   5.091   4.436  0.1298  0.1088 -0.0840
 6922SOL    HW227460   5.109   5.082   4.406  0.9566  0.0882  2.2516
 6922SOL    HW327461   4.996   5.182   4.415  0.6267  0.0777 -0.7906
 6922SOL    MW427462   5.028   5.102   4.429  0.3044  0.1020  0.1309
 6923SOL     OW27463   2.352   1.924   4.808  0.2870  0.3297 -0.4721
 6923SOL    HW227464   2.406   1.856   4.767 -0.6198 -0.0571 -1.0666
 6923SOL    HW327465   2.319   1.883   4.889 -1.8345 -0.7381 -1.7531
 6923SOL    MW427466   2.354   1.909   4.813 -0.1126  0.1378 -0.7195
 6924SOL     OW27467   5.031   4.355   4.233 -0.2937 -0.0446 -0.4459
 6924SOL    HW227468   4.971   4.361   4.308 -0.1115  0.9143 -0.3681
 6924SOL    HW327469   5.110   4.401   4.262 -0.0918  0.0354 -1.1134
 6924SOL    MW427470   5.034   4.362   4.247 -0.2430  0.0924 -0.5237
 6925SOL     OW27471   3.471   0.634   4.151  0.2358  0.3865 -0.4677
 6925SOL    HW227472   3.552   0.593   4.179  0.5283  0.9907 -0.4089
 6925SOL    HW327473   3.438   0.578   4.080  0.1923 -0.3983  0.1621
 6925SOL    MW427474   3.477   0.622   4.145  0.2687  0.3627 -0.3768
 6926SOL     OW27475   1.141   0.585   5.660  0.5343  0.0305  0.7839
 6926SOL    HW227476   1.186   0.615   5.581  0.2875  0.4415  0.7957
 6926SOL    HW327477   1.204   0.528   5.704  0.6938 -0.1528  0.3211
 6926SOL    MW427478   1.155   0.582   5.655  0.5228  0.0606  0.7244
 6927SOL     OW27479   4.456   6.238   5.590 -0.2345 -0.3019  0.3492
 6927SOL    HW227480   4.447   6.309   5.653  0.8135  1.0470 -0.9385
 6927SOL    HW327481   4.551   6.230   5.576 -0.3987 -1.2119 -0.3199
 6927SOL    MW427482   4.467   6.247   5.596 -0.1179 -0.2440  0.0911
 6928SOL     OW27483   0.571   5.862   5.155  0.1086  0.2448  0.0422
 6928SOL    HW227484   0.579   5.935   5.093  1.1633 -0.7061 -0.9945
 6928SOL    HW327485   0.654   5.816   5.148 -0.4418 -0.9040  0.8758
 6928SOL    MW427486   0.583   5.866   5.146  0.1751 -0.0323  0.0154
 6929SOL     OW27487   6.311   4.225   4.372  0.3301  0.1871 -0.0373
 6929SOL    HW227488   6.309   4.218   4.277  0.4464 -0.3383 -0.0030
 6929SOL    HW327489   6.397   4.192   4.398  0.0914 -0.1856  0.2904
 6929SOL    MW427490   6.322   4.220   4.363  0.3139  0.0686  0.0104
 6930SOL     OW27491   3.699   2.239   2.316  0.6090 -0.0614 -0.1133
 6930SOL    HW227492   3.756   2.228   2.240  0.7976  1.3928 -0.2109
 6930SOL    HW327493   3.748   2.201   2.389  2.0268  1.7461 -0.0736
 6930SOL    MW427494   3.713   2.232   2.316  0.8210  0.3690 -0.1209
 6931SOL     OW27495   3.838   0.292   4.885  0.2246 -0.0243  0.1093
 6931SOL    HW227496   3.885   0.354   4.830  0.5844 -1.1280 -0.8614
 6931SOL    HW327497   3.761   0.268   4.833 -0.5067  0.4542  0.9519
 6931SOL    MW427498   3.834   0.297   4.871  0.1756 -0.1068  0.0924
 6932SOL     OW27499   2.808   1.976   2.388  0.2005  0.1487 -0.1434
 6932SOL    HW227500   2.899   1.950   2.377  0.4345  0.9293 -0.1225
 6932SOL    HW327501   2.802   2.003   2.480 -0.4811 -1.5061  0.3263
 6932SOL    MW427502   2.819   1.976   2.399  0.1415  0.0333 -0.0786
 6933SOL     OW27503   0.340   2.230   6.298 -0.1502 -0.3514  0.2788
 6933SOL    HW227504   0.262   2.264   6.255  1.3132  0.6382 -1.7797
 6933SOL    HW327505   0.375   2.165   6.237  0.8459 -0.4942  0.9595
 6933SOL    MW427506   0.335   2.226   6.284  0.1743 -0.2397  0.0970
 6934SOL     OW27507   6.273   5.844   1.796  0.2240  0.0947 -0.0830
 6934SOL    HW227508   6.226   5.799   1.866 -0.1950  0.0062 -0.4216
 6934SOL    HW327509   6.328   5.908   1.842  0.2746 -0.2565  0.3530
 6934SOL    MW427510   6.274   5.847   1.811  0.1754  0.0367 -0.0702
 6935SOL     OW27511   6.009   5.275   4.807 -0.5171 -0.0392 -0.7480
 6935SOL    HW227512   6.074   5.271   4.737 -0.3892  2.8886 -0.9091
 6935SOL    HW327513   6.054   5.237   4.883 -0.8736 -3.8755 -2.1913
 6935SOL    MW427514   6.023   5.269   4.808 -0.5472 -0.1591 -0.9597
 6936SOL     OW27515   3.182   2.465   2.226 -0.4564 -0.5378 -0.0898
 6936SOL    HW227516   3.199   2.464   2.320  1.7216  0.9050 -0.4071
 6936SOL    HW327517   3.222   2.384   2.193 -1.7594 -1.3567  0.2508
 6936SOL    MW427518   3.189   2.454   2.234 -0.3410 -0.4555 -0.0867
 6937SOL     OW27519   5.364   0.347   0.857 -0.6748  0.2756  0.8540
 6937SOL    HW227520   5.398   0.431   0.889  0.6312 -0.0913  0.4743
 6937SOL    HW327521   5.320   0.369   0.775 -0.3117  0.5883  0.7418
 6937SOL    MW427522   5.362   0.361   0.850 -0.4546  0.2684  0.7891
 6938SOL     OW27523   1.555   5.213   3.539 -0.4384  0.8489  0.2600
 6938SOL    HW227524   1.596   5.243   3.620 -1.6157  1.0401  0.8143
 6938SOL    HW327525   1.489   5.280   3.520 -1.8306 -0.4149  0.4894
 6938SOL    MW427526   1.552   5.226   3.547 -0.7774  0.7073  0.3634
 6939SOL     OW27527   1.527   5.598   5.495 -0.3929 -0.0422 -0.0119
 6939SOL    HW227528   1.569   5.637   5.418 -0.1050 -1.1593 -0.4325
 6939SOL    HW327529   1.458   5.542   5.459  0.7613 -1.8058  0.4526
 6939SOL    MW427530   1.523   5.596   5.480 -0.2027 -0.4223 -0.0061
 6940SOL     OW27531   4.171   1.022   1.963  0.0300 -0.2108 -0.1680
 6940SOL    HW227532   4.102   1.076   1.924  0.2238  0.8897  0.9261
 6940SOL    HW327533   4.235   1.010   1.894 -0.1622  0.7464 -0.5322
 6940SOL    MW427534   4.170   1.028   1.949  0.0302  0.0607 -0.0717
 6941SOL     OW27535   3.705   2.404   0.366  0.2630 -0.1711  0.3950
 6941SOL    HW227536   3.715   2.443   0.452  2.1319  0.4756 -0.0816
 6941SOL    HW327537   3.673   2.475   0.311  1.2630  0.0506  0.0784
 6941SOL    MW427538   3.702   2.418   0.370  0.6415 -0.0565  0.2903
 6942SOL     OW27539   3.897   1.073   3.132  0.3193  0.6860 -0.4980
 6942SOL    HW227540   3.903   1.004   3.199 -1.1429  2.3408  1.4539
 6942SOL    HW327541   3.932   1.032   3.053  1.0246 -1.7591  0.9652
 6942SOL    MW427542   3.902   1.058   3.130  0.2194  0.5817 -0.0474
 6943SOL     OW27543   5.548   6.082   6.389  0.2853  0.2744 -0.1268
 6943SOL    HW227544   5.577   6.128   6.310 -0.8453  0.8860 -0.2138
 6943SOL    HW327545   5.625   6.033   6.418  1.2137  1.3478 -0.6709
 6943SOL    MW427546   5.562   6.082   6.383  0.2586  0.4967 -0.2101
 6944SOL     OW27547   5.469   1.320   5.649 -0.1358 -0.0885 -0.8137
 6944SOL    HW227548   5.418   1.241   5.668 -1.9551  0.7832 -1.7600
 6944SOL    HW327549   5.543   1.288   5.598 -0.7897 -1.2159 -1.1117
 6944SOL    MW427550   5.472   1.305   5.645 -0.4621 -0.1223 -0.9779
 6945SOL     OW27551   2.709   1.777   1.773  0.2688  0.1555 -0.3310
 6945SOL    HW227552   2.784   1.837   1.777  0.2888  0.1250 -0.2455
 6945SOL    HW327553   2.656   1.799   1.850  0.1727  0.1996 -0.4097
 6945SOL    MW427554   2.712   1.788   1.784  0.2587  0.1573 -0.3301
 6946SOL     OW27555   1.161   4.308   6.114  0.3497 -0.0701  0.5867
 6946SOL    HW227556   1.246   4.323   6.154  2.4475  0.1928 -3.4569
 6946SOL    HW327557   1.153   4.213   6.109  1.7270 -0.1503 -1.2299
 6946SOL    MW427558   1.171   4.298   6.119  0.8082 -0.0460 -0.1865
 6947SOL     OW27559   1.750   3.322   3.995  0.5434 -0.7579 -0.0181
 6947SOL    HW227560   1.801   3.255   4.040  2.0240 -0.0686 -0.6024
 6947SOL    HW327561   1.751   3.296   3.903  1.7354  0.3927 -0.3631
 6947SOL    MW427562   1.757   3.310   3.989  0.8961 -0.5152 -0.1407
 6948SOL     OW27563   5.119   2.329   0.072  0.5016  0.8188 -0.1659
 6948SOL    HW227564   5.095   2.295   0.158 -1.1388  1.3405 -0.3897
 6948SOL    HW327565   5.073   2.273   0.010  2.2086  0.0161 -0.7696
 6948SOL    MW427566   5.110   2.317   0.075  0.5104  0.7817 -0.2751
 6949SOL     OW27567   6.160   4.976   4.304  0.2677  0.8997 -0.5598
 6949SOL    HW227568   6.140   4.883   4.292  1.8041  0.1937  1.5835
 6949SOL    HW327569   6.213   5.000   4.228  1.1567 -0.4515 -0.4087
 6949SOL    MW427570   6.165   4.967   4.293  0.5877  0.6283 -0.2571
 6950SOL     OW27571   1.976   1.698   5.181 -0.4337  0.1199  0.3072
 6950SOL    HW227572   1.886   1.666   5.180 -0.0436 -1.0311  0.6422
 6950SOL    HW327573   2.025   1.630   5.227  0.9824 -0.2921 -1.6929
 6950SOL    MW427574   1.971   1.685   5.187 -0.1954 -0.0863  0.0875
 6951SOL     OW27575   1.498   5.686   3.341 -0.3062  0.8150  0.4423
 6951SOL    HW227576   1.435   5.737   3.290  0.4861  0.1661 -1.2642
 6951SOL    HW327577   1.582   5.702   3.299  0.0782 -1.2763  0.2929
 6951SOL    MW427578   1.501   5.694   3.329 -0.1509  0.4535  0.1974
 6952SOL     OW27579   3.383   1.162   0.719  0.2224  0.1324  0.8588
 6952SOL    HW227580   3.318   1.115   0.771  0.6362 -0.4474  0.8601
 6952SOL    HW327581   3.389   1.249   0.759 -0.5739  0.2001  0.8338
 6952SOL    MW427582   3.375   1.168   0.731  0.1720  0.0649  0.8557
 6953SOL     OW27583   3.540   0.752   5.755  0.0329 -0.1802 -0.3874
 6953SOL    HW227584   3.551   0.837   5.712 -0.2166 -0.8455 -1.8310
 6953SOL    HW327585   3.603   0.695   5.712  0.4405 -0.6612  0.8110
 6953SOL    MW427586   3.550   0.756   5.744  0.0538 -0.3315 -0.4198
 6954SOL     OW27587   1.760   3.465   2.499  0.0339 -0.0006  0.2354
 6954SOL    HW227588   1.763   3.370   2.497  2.3796  0.0171  0.6143
 6954SOL    HW327589   1.822   3.493   2.432 -0.5397  1.2610  0.2049
 6954SOL    MW427590   1.769   3.456   2.490  0.2677  0.1682  0.2814
 6955SOL     OW27591   5.250   3.220   4.246  0.2014  0.3442  0.2879
 6955SOL    HW227592   5.268   3.314   4.233  0.3922  0.2362 -0.2456
 6955SOL    HW327593   5.197   3.217   4.326  0.7696  0.8497  0.6937
 6955SOL    MW427594   5.245   3.232   4.255  0.3016  0.3967  0.2711
 6956SOL     OW27595   0.078   4.162   1.956 -0.5995  0.2296  0.6656
 6956SOL    HW227596   0.099   4.253   1.978 -1.0434  0.1551  1.4294
 6956SOL    HW327597   0.071   4.118   2.040  1.3240 -0.9307  0.2741
 6956SOL    MW427598   0.079   4.168   1.970 -0.4043  0.0667  0.7147
 6957SOL     OW27599   5.571   1.012   2.344  0.6476 -0.3399 -0.4898
 6957SOL    HW227600   5.506   0.944   2.330  0.9967 -0.1057 -4.2352
 6957SOL    HW327601   5.652   0.964   2.362 -0.0967 -0.6613  2.4772
 6957SOL    MW427602   5.573   0.997   2.344  0.5955 -0.3514 -0.5925
 6958SOL     OW27603   4.520   0.129   5.325 -0.4040  0.5849  0.5736
 6958SOL    HW227604   4.592   0.121   5.388  0.0371  0.4993  0.0624
 6958SOL    HW327605   4.457   0.187   5.368  0.1751  1.0258  0.8376
 6958SOL    MW427606   4.521   0.135   5.339 -0.2694  0.6318  0.5410
 6959SOL     OW27607   2.705   3.662   1.732  0.9995  0.4238  0.8432
 6959SOL    HW227608   2.630   3.712   1.764 -0.0116  0.5265 -1.4848
 6959SOL    HW327609   2.750   3.634   1.812 -0.5065  1.8416  2.2918
 6959SOL    MW427610   2.701   3.665   1.747  0.6674  0.6244  0.7271
 6960SOL     OW27611   5.104   5.701   1.474 -0.3061  0.2096  0.0444
 6960SOL    HW227612   5.089   5.771   1.537 -0.7586  0.9688 -0.8730
 6960SOL    HW327613   5.110   5.621   1.527  0.5792  0.9735  1.1340
 6960SOL    MW427614   5.103   5.699   1.489 -0.2490  0.4105  0.0671
 6961SOL     OW27615   2.844   0.191   6.414  0.1657 -0.2125 -0.0029
 6961SOL    HW227616   2.830   0.125   6.346  1.1826  0.3492 -0.7953
 6961SOL    HW327617   2.782   0.260   6.394  1.6156  0.7475 -1.4686
 6961SOL    MW427618   2.834   0.191   6.402  0.4912 -0.0117 -0.3009
 6962SOL     OW27619   3.174   1.441   0.988 -0.2014 -0.5872 -0.2569
 6962SOL    HW227620   3.192   1.380   1.059 -3.6686  0.5792  1.8951
 6962SOL    HW327621   3.172   1.527   1.030 -1.0801  0.3274 -2.0227
 6962SOL    MW427622   3.176   1.445   1.003 -0.7748 -0.3126 -0.2059
 6963SOL     OW27623   1.788   3.575   5.434 -0.2063 -0.4426  0.2495
 6963SOL    HW227624   1.711   3.617   5.396 -0.9368 -1.3619  0.6923
 6963SOL    HW327625   1.804   3.624   5.515 -1.1129 -1.0429  0.8098
 6963SOL    MW427626   1.780   3.587   5.440 -0.4223 -0.6431  0.3819
 6964SOL     OW27627   1.370   3.551   2.697 -0.3585 -0.0077 -0.1399
 6964SOL    HW227628   1.281   3.584   2.707 -0.8691 -1.2214 -0.4260
 6964SOL    HW327629   1.418   3.589   2.770 -1.2738  0.1563  0.3987
 6964SOL    MW427630   1.365   3.560   2.708 -0.5467 -0.1462 -0.1066
 6965SOL     OW27631   4.463   5.340   5.984  0.6218 -0.1078 -0.1464
 6965SOL    HW227632   4.509   5.292   5.915 -0.7725 -1.9841  0.1434
 6965SOL    HW327633   4.512   5.320   6.063  1.2169  0.6351 -0.3162
 6965SOL    MW427634   4.475   5.331   5.985  0.5164 -0.2573 -0.1306
 6966SOL     OW27635   0.851   3.896   4.189  0.0971  0.0166 -0.2904
 6966SOL    HW227636   0.840   3.950   4.111 -1.2487 -1.4060 -1.1436
 6966SOL    HW327637   0.940   3.863   4.183  0.1576  0.2953 -0.9646
 6966SOL    MW427638   0.861   3.899   4.178 -0.0724 -0.1343 -0.4919
 6967SOL     OW27639   1.326   1.011   3.951  0.6718 -0.9397 -0.4577
 6967SOL    HW227640   1.394   1.002   3.884  3.5308 -0.0051  2.0448
 6967SOL    HW327641   1.299   1.103   3.946  0.5720 -0.9769 -0.6020
 6967SOL    MW427642   1.332   1.022   3.942  1.0358 -0.8213 -0.1466
 6968SOL     OW27643   5.586   1.294   2.272  0.7516  0.3018  0.0726
 6968SOL    HW227644   5.503   1.325   2.236  0.4322  1.9498  2.0359
 6968SOL    HW327645   5.568   1.203   2.297 -0.4005  0.5534  0.2167
 6968SOL    MW427646   5.572   1.286   2.271  0.5574  0.5524  0.3506
 6969SOL     OW27647   4.373   5.293   0.500 -0.0591  0.3935  0.3188
 6969SOL    HW227648   4.356   5.256   0.413  1.3403  0.1849  0.1032
 6969SOL    HW327649   4.307   5.254   0.556 -0.8150  0.3137 -0.6016
 6969SOL    MW427650   4.362   5.283   0.496  0.0258  0.3555  0.1689
 6970SOL     OW27651   3.982   1.825   5.043  0.1222  0.0823  0.2112
 6970SOL    HW227652   3.948   1.811   5.132 -0.5923 -0.9231 -0.2071
 6970SOL    HW327653   4.033   1.906   5.050 -0.7426  0.5613  1.3014
 6970SOL    MW427654   3.985   1.833   5.056 -0.0862  0.0128  0.2999
 6971SOL     OW27655   3.220   3.960   6.294  0.4782 -0.4123 -0.0084
 6971SOL    HW227656   3.231   4.032   6.232 -3.0420  0.0754 -0.2882
 6971SOL    HW327657   3.243   3.882   6.244  1.6285  0.2775 -0.5999
 6971SOL    MW427658   3.224   3.959   6.279  0.1656 -0.2569 -0.1233
 6972SOL     OW27659   1.931   1.419   2.471 -0.0174  0.5547  0.0994
 6972SOL    HW227660   1.930   1.475   2.549  0.0411 -2.3246  2.3762
 6972SOL    HW327661   2.023   1.401   2.455  0.0076  1.6128 -1.0785
 6972SOL    MW427662   1.943   1.424   2.479 -0.0064  0.3144  0.2444
 6973SOL     OW27663   0.099   4.041   5.300  0.3845 -0.0310 -0.5226
 6973SOL    HW227664   0.049   3.961   5.285 -0.6107  0.5789 -0.5308
 6973SOL    HW327665   0.050   4.088   5.367  2.1654 -0.4521  1.1841
 6973SOL    MW427666   0.086   4.036   5.307  0.4881 -0.0061 -0.2985
 6974SOL     OW27667   5.061   4.766   6.318 -0.1802 -0.3529 -1.0698
 6974SOL    HW227668   5.118   4.749   6.242 -1.3037 -1.9463 -1.6013
 6974SOL    HW327669   5.069   4.861   6.332  1.2168 -0.2516 -2.2205
 6974SOL    MW427670   5.070   4.777   6.310 -0.1441 -0.5497 -1.2917
 6975SOL     OW27671   1.408   0.375   6.383  0.3242  0.5029  0.4763
 6975SOL    HW227672   1.398   0.319   6.306 -2.0452  1.2138  0.1742
 6975SOL    HW327673   1.319   0.387   6.416  1.1875  0.8093  2.9315
 6975SOL    MW427674   1.395   0.369   6.377  0.1255  0.6371  0.7604
 6976SOL     OW27675   1.923   1.877   1.520  0.2234 -0.3266  0.3020
 6976SOL    HW227676   1.907   1.799   1.467 -0.6247 -0.5359  0.8359
 6976SOL    HW327677   1.836   1.904   1.550  0.4047  1.3566 -0.5859
 6976SOL    MW427678   1.909   1.870   1.517  0.1354 -0.1322  0.2553
 6977SOL     OW27679   0.753   0.456   4.365  0.1063 -0.0402 -0.1813
 6977SOL    HW227680   0.832   0.483   4.319 -1.3291  2.6054 -1.2884
 6977SOL    HW327681   0.713   0.537   4.395 -0.4358 -1.4774  3.5230
 6977SOL    MW427682   0.758   0.470   4.363 -0.1546  0.1193  0.1614
 6978SOL     OW27683   0.935   0.834   5.430  0.1418  0.8836  0.6117
 6978SOL    HW227684   0.879   0.772   5.477  0.0854 -0.1851 -0.8104
 6978SOL    HW327685   0.873   0.891   5.384  0.0766 -1.2826 -2.2528
 6978SOL    MW427686   0.919   0.833   5.430  0.1257  0.4568  0.0461
 6979SOL     OW27687   1.110   4.033   1.941  0.0927  0.5849  0.0769
 6979SOL    HW227688   1.082   4.097   1.874  0.5526  0.7514  0.0411
 6979SOL    HW327689   1.163   3.970   1.893 -1.6101 -0.7326 -0.2038
 6979SOL    MW427690   1.113   4.033   1.925 -0.0713  0.4331  0.0351
 6980SOL     OW27691   0.239   3.752   4.755  0.1985  0.4936 -0.1471
 6980SOL    HW227692   0.234   3.819   4.823 -0.0437  2.6818 -2.1714
 6980SOL    HW327693   0.260   3.671   4.802 -0.2230  1.8177  2.5093
 6980SOL    MW427694   0.241   3.750   4.770  0.1109  0.9570 -0.0637
 6981SOL     OW27695   3.192   2.426   4.824  0.1812  0.2188 -0.0884
 6981SOL    HW227696   3.167   2.518   4.825  2.1907  0.9004 -2.1127
 6981SOL    HW327697   3.156   2.393   4.741 -0.4263 -0.8066  0.5701
 6981SOL    MW427698   3.184   2.434   4.813  0.3662  0.1734 -0.2686
 6982SOL     OW27699   5.849   5.708   2.841 -0.3011 -0.1342 -0.3752
 6982SOL    HW227700   5.783   5.767   2.875  1.1073  0.8442  0.8174
 6982SOL    HW327701   5.869   5.649   2.914  0.3003 -0.2658 -0.6376
 6982SOL    MW427702   5.843   5.708   2.855 -0.0359 -0.0225 -0.2524
 6983SOL     OW27703   2.759   1.987   2.124  0.4311 -0.0251  0.5664
 6983SOL    HW227704   2.773   1.998   2.218 -0.7812  2.6663  0.5234
 6983SOL    HW327705   2.812   2.056   2.083  2.5585 -2.3947 -0.9538
 6983SOL    MW427706   2.767   1.998   2.131  0.5518  0.0174  0.3602
 6984SOL     OW27707   0.295   3.954   4.578  0.3317 -0.4299 -0.1481
 6984SOL    HW227708   0.355   4.011   4.626 -1.9942  1.5425  0.6211
 6984SOL    HW327709   0.269   3.888   4.643  0.2941 -0.2096  0.0630
 6984SOL    MW427710   0.300   3.953   4.593  0.0199 -0.1406 -0.0188
 6985SOL     OW27711   2.768   5.045   1.954 -0.0850  0.4966  0.0373
 6985SOL    HW227712   2.690   4.993   1.935 -1.1818  2.3653 -0.7351
 6985SOL    HW327713   2.774   5.045   2.050  0.3590 -1.5704  0.0622
 6985SOL    MW427714   2.759   5.038   1.964 -0.1711  0.4704 -0.0613
 6986SOL     OW27715   1.990   4.963   4.882  0.1086  0.2186 -0.0099
 6986SOL    HW227716   1.978   5.048   4.924  1.2433  0.4245 -0.0624
 6986SOL    HW327717   2.075   4.932   4.915 -0.7008 -1.3178  0.7221
 6986SOL    MW427718   2.000   4.970   4.892  0.1515  0.0431  0.0797
 6987SOL     OW27719   0.379   4.778   5.293  0.2438  0.2512  0.5056
 6987SOL    HW227720   0.371   4.860   5.342 -0.0188  0.0698  0.7714
 6987SOL    HW327721   0.473   4.758   5.294  0.2469  0.2863  0.8729
 6987SOL    MW427722   0.390   4.786   5.300  0.2096  0.2319  0.5892
 6988SOL     OW27723   4.519   4.516   6.398 -0.0286 -0.6774 -0.2400
 6988SOL    HW227724   4.562   4.579   6.340 -1.3181  0.7850  0.3121
 6988SOL    HW327725   4.587   4.488   6.459  0.5216  0.3526 -0.3683
 6988SOL    MW427726   4.534   4.520   6.398 -0.1261 -0.3485 -0.1841
 6989SOL     OW27727   3.589   3.122   0.647  0.1283 -0.2724 -0.1623
 6989SOL    HW227728   3.522   3.078   0.700 -0.1051  0.6313  0.3267
 6989SOL    HW327729   3.626   3.053   0.593  0.0827 -1.1516  0.8888
 6989SOL    MW427730   3.585   3.107   0.647  0.0915 -0.2691  0.0409
 6990SOL     OW27731   2.272   4.888   2.018  0.0538  0.1566  0.4804
 6990SOL    HW227732   2.250   4.898   2.111 -2.7197 -2.5926  0.2896
 6990SOL    HW327733   2.212   4.948   1.972  1.0428  1.1063  0.3937
 6990SOL    MW427734   2.261   4.897   2.024 -0.1816 -0.0808  0.4438
 6991SOL     OW27735   3.485   6.080   3.641 -0.2900 -0.3124  0.1784
 6991SOL    HW227736   3.482   6.113   3.730  0.6079  1.4502 -0.4054
 6991SOL    HW327737   3.393   6.068   3.616 -0.5542 -0.4064  1.1765
 6991SOL    MW427738   3.472   6.083   3.649 -0.2064 -0.0922  0.2330
 6992SOL     OW27739   4.244   5.433   0.789  0.3127 -0.5547 -0.0692
 6992SOL    HW227740   4.330   5.460   0.757 -0.0349  0.8340  0.1101
 6992SOL    HW327741   4.190   5.512   0.783 -0.4280 -0.8856  1.6242
 6992SOL    MW427742   4.249   5.447   0.784  0.1691 -0.4151  0.1779
 6993SOL     OW27743   0.279   4.330   2.680 -0.3005 -0.2157  0.8573
 6993SOL    HW227744   0.192   4.354   2.713 -1.3933 -0.6229 -1.5169
 6993SOL    HW327745   0.268   4.242   2.645  0.3918  0.6200 -1.6419
 6993SOL    MW427746   0.266   4.322   2.680 -0.3533 -0.1591  0.2143
 6994SOL     OW27747   1.545   1.192   4.173  0.4840 -0.5577 -0.2134
 6994SOL    HW227748   1.507   1.197   4.261 -0.6030  2.4356 -0.7332
 6994SOL    HW327749   1.638   1.173   4.189  0.0529 -1.4204  1.4884
 6994SOL    MW427750   1.553   1.190   4.187  0.2837 -0.2766 -0.0574
 6995SOL     OW27751   5.501   3.254   3.654 -0.1427 -0.2292  0.0313
 6995SOL    HW227752   5.570   3.242   3.589  0.4507 -3.7409  1.0747
 6995SOL    HW327753   5.425   3.282   3.603  0.8782 -0.6587 -1.8284
 6995SOL    MW427754   5.500   3.256   3.638  0.0703 -0.7492 -0.0764
 6996SOL     OW27755   0.990   6.306   1.361  0.0437 -0.0892 -0.8023
 6996SOL    HW227756   1.062   6.368   1.349  0.8466 -0.9610 -0.6467
 6996SOL    HW327757   0.923   6.355   1.407  0.9601  0.4638 -0.0167
 6996SOL    MW427758   0.991   6.320   1.365  0.2706 -0.1313 -0.6781
 6997SOL     OW27759   1.391   5.253   1.938 -0.0109 -0.0667 -0.1383
 6997SOL    HW227760   1.355   5.292   1.858 -1.4301  0.3644  0.6715
 6997SOL    HW327761   1.330   5.280   2.007  0.6331 -1.2493  0.9348
 6997SOL    MW427762   1.378   5.262   1.936 -0.1132 -0.1659  0.1101
 6998SOL     OW27763   1.560   3.008   1.355  0.3124 -0.3571 -0.4981
 6998SOL    HW227764   1.585   3.090   1.313  0.5321 -0.0317  0.2399
 6998SOL    HW327765   1.486   3.031   1.411 -0.8613 -1.0541 -1.6971
 6998SOL    MW427766   1.554   3.022   1.357  0.1865 -0.4061 -0.5589
 6999SOL     OW27767   6.137   6.326   4.875  0.3355  0.0579  0.6984
 6999SOL    HW227768   6.148   6.351   4.967  0.2646  0.7781  0.5218
 6999SOL    HW327769   6.083   6.248   4.877 -3.3367  2.3951  1.1109
 6999SOL    MW427770   6.132   6.319   4.887 -0.1583  0.4613  0.7295
 7000SOL     OW27771   2.173   1.792   6.133  0.3213  0.9281  0.1029
 7000SOL    HW227772   2.116   1.797   6.056  1.1451  3.0072 -0.4380
 7000SOL    HW327773   2.117   1.820   6.206 -0.3361 -0.6276  0.2497
 7000SOL    MW427774   2.158   1.796   6.132  0.3433  0.9971  0.0509
 7001SOL     OW27775   0.403   0.504   5.397 -0.2106  0.1241  0.1921
 7001SOL    HW227776   0.337   0.491   5.465  2.0530 -0.4599  2.4199
 7001SOL    HW327777   0.477   0.451   5.425  0.0337 -2.2321 -4.0698
 7001SOL    MW427778   0.404   0.495   5.410  0.1203 -0.2639 -0.0763
 7002SOL     OW27779   2.423   0.718   2.687  0.9145 -0.0306 -0.0151
 7002SOL    HW227780   2.360   0.647   2.680 -0.2801  0.8649  1.0709
 7002SOL    HW327781   2.441   0.743   2.596 -1.5651  0.7228 -0.3920
 7002SOL    MW427782   2.417   0.712   2.674  0.4297  0.1870  0.0785
 7003SOL     OW27783   3.478   3.119   3.698 -0.6791  0.0258 -0.1537
 7003SOL    HW227784   3.560   3.069   3.698 -0.8812 -0.4503  2.3925
 7003SOL    HW327785   3.409   3.053   3.689 -0.8518  0.3752 -1.7200
 7003SOL    MW427786   3.480   3.104   3.697 -0.7285  0.0091 -0.0244
 7004SOL     OW27787   0.699   4.992   0.244 -0.2772  0.8142 -0.1501
 7004SOL    HW227788   0.783   5.016   0.284 -1.0617  1.7590  1.0102
 7004SOL    HW327789   0.720   4.976   0.152  1.0353  1.9660 -0.0898
 7004SOL    MW427790   0.713   4.993   0.238 -0.2075  1.0908  0.0110
 7005SOL     OW27791   0.134   2.105   5.648  0.2799 -0.1103  0.5116
 7005SOL    HW227792   0.228   2.087   5.641  0.2269 -0.7998  1.3377
 7005SOL    HW327793   0.092   2.033   5.601  0.1751  1.2037 -1.5229
 7005SOL    MW427794   0.141   2.093   5.641  0.2591 -0.0279  0.3522
 7006SOL     OW27795   0.612   4.162   3.846  0.3957 -0.1146 -0.5120
 7006SOL    HW227796   0.613   4.239   3.789  1.1796 -0.4039 -0.9064
 7006SOL    HW327797   0.635   4.089   3.787 -1.2152 -0.8052 -0.3554
 7006SOL    MW427798   0.615   4.162   3.830  0.2866 -0.2439 -0.5434
 7007SOL     OW27799   4.857   3.024   5.670 -0.3981 -0.2262 -0.5105
 7007SOL    HW227800   4.875   3.041   5.578  2.4226  1.1439  0.1744
 7007SOL    HW327801   4.838   3.109   5.708  1.9851 -0.1490  0.7442
 7007SOL    MW427802   4.857   3.037   5.663  0.2885 -0.0353 -0.2546
 7008SOL     OW27803   4.110   3.282   2.234 -0.0595 -0.7352  0.8475
 7008SOL    HW227804   4.052   3.223   2.281  0.4689 -1.6541  0.3681
 7008SOL    HW327805   4.170   3.225   2.187  1.3275  0.1815  1.4258
 7008SOL    MW427806   4.111   3.267   2.234  0.1932 -0.7355  0.8605
 7009SOL     OW27807   0.804   2.312   4.485 -0.0275 -0.4091  0.0165
 7009SOL    HW227808   0.737   2.371   4.517  1.0802  0.3844  0.9433
 7009SOL    HW327809   0.759   2.257   4.421 -0.8981  2.0446 -1.6335
 7009SOL    MW427810   0.789   2.312   4.481  0.0038  0.0193 -0.0789
 7010SOL     OW27811   3.997   5.627   5.556  0.1098 -0.0524  0.4205
 7010SOL    HW227812   3.956   5.712   5.539  0.8031  0.5489  1.6410
 7010SOL    HW327813   3.974   5.574   5.480 -1.0562  0.9549  0.0396
 7010SOL    MW427814   3.989   5.631   5.544  0.0475  0.1599  0.5313
 7011SOL     OW27815   1.942   1.608   0.798 -0.0072 -0.3226  0.2270
 7011SOL    HW227816   1.920   1.574   0.711 -0.1494  3.0595 -1.2192
 7011SOL    HW327817   1.865   1.659   0.824  1.4035  1.7011  0.6310
 7011SOL    MW427818   1.929   1.610   0.790  0.1602  0.3906  0.0895
 7012SOL     OW27819   6.275   3.877   3.104  0.1067 -0.8210  0.2862
 7012SOL    HW227820   6.327   3.835   3.173  1.4142 -0.5409 -0.5038
 7012SOL    HW327821   6.339   3.903   3.038 -0.9508  0.3061 -0.3286
 7012SOL    MW427822   6.290   3.875   3.105  0.1397 -0.6354  0.1008
 7013SOL     OW27823   4.736   2.299   1.417 -0.5259  0.1451 -0.4439
 7013SOL    HW227824   4.726   2.311   1.511  0.4294 -0.5886 -0.2306
 7013SOL    HW327825   4.665   2.240   1.392  0.1118 -0.8795  0.1026
 7013SOL    MW427826   4.725   2.293   1.426 -0.3157 -0.0869 -0.3437
 7014SOL     OW27827   4.655   0.444   1.168 -0.2724  0.4446 -0.3571
 7014SOL    HW227828   4.636   0.354   1.193  0.8216  0.0343 -0.9403
 7014SOL    HW327829   4.580   0.494   1.199  0.1148 -0.3101  1.9825
 7014SOL    MW427830   4.643   0.439   1.175 -0.0770  0.2909 -0.1254
 7015SOL     OW27831   2.286   0.828   0.838 -0.4174  0.3437 -0.0959
 7015SOL    HW227832   2.307   0.901   0.896  0.8423 -0.4343  0.4939
 7015SOL    HW327833   2.372   0.791   0.815 -1.0276 -1.0363 -0.2454
 7015SOL    MW427834   2.300   0.832   0.842 -0.3317  0.0590 -0.0378
 7016SOL     OW27835   5.915   0.515   4.369  0.5182 -0.6917 -0.3675
 7016SOL    HW227836   5.986   0.451   4.365  2.0784  0.9040  0.5523
 7016SOL    HW327837   5.865   0.490   4.447  1.1728 -0.7299  0.0473
 7016SOL    MW427838   5.917   0.503   4.379  0.8104 -0.4862 -0.1914
 7017SOL     OW27839   6.347   3.434   0.393 -0.3060  0.4265 -0.2979
 7017SOL    HW227840   6.413   3.403   0.454  0.4965  0.1334 -1.2794
 7017SOL    HW327841   6.300   3.502   0.441  0.7073  0.6398  0.4361
 7017SOL    MW427842   6.350   3.439   0.407 -0.0664  0.4159 -0.3306
 7018SOL     OW27843   6.388   6.322   5.671  0.1282 -0.0586  0.0537
 7018SOL    HW227844   6.470   6.336   5.716  0.5486  0.9024 -0.9523
 7018SOL    HW327845   6.385   6.391   5.604 -0.1450 -1.7552 -1.8058
 7018SOL    MW427846   6.398   6.333   5.668  0.1476 -0.1557 -0.3244
 7019SOL     OW27847   1.555   2.703   6.058  0.0808 -0.4640  0.4114
 7019SOL    HW227848   1.524   2.734   5.973  3.2518  1.5879 -0.1485
 7019SOL    HW327849   1.630   2.648   6.039  0.8818  0.0635  1.8574
 7019SOL    MW427850   1.560   2.700   6.045  0.6049 -0.1237  0.5283
 7020SOL     OW27851   0.609   0.362   5.509 -0.2332 -0.0082  0.3827
 7020SOL    HW227852   0.648   0.275   5.525  0.0128  0.3610  1.9599
 7020SOL    HW327853   0.598   0.399   5.596 -1.7966  0.9379 -0.1908
 7020SOL    MW427854   0.613   0.355   5.522 -0.4070  0.1653  0.5151
 7021SOL     OW27855   4.131   3.519   3.031  0.0657  0.1559 -0.3429
 7021SOL    HW227856   4.121   3.594   3.090 -0.7844  1.6996 -2.2727
 7021SOL    HW327857   4.199   3.465   3.070  0.5342  1.8198  1.2803
 7021SOL    MW427858   4.138   3.522   3.044  0.0153  0.5791 -0.3833
 7022SOL     OW27859   6.398   0.993   2.959  0.0510 -0.0009  0.0991
 7022SOL    HW227860   6.410   0.970   3.052  4.3593 -0.8154 -0.4508
 7022SOL    HW327861   6.438   0.921   2.911 -2.6612  0.0542 -2.5814
 7022SOL    MW427862   6.405   0.981   2.965  0.2616 -0.1011 -0.3271
 7023SOL     OW27863   4.576   0.714   1.290  0.2579 -0.2672  0.1462
 7023SOL    HW227864   4.542   0.802   1.270 -0.6886 -0.4260  0.9789
 7023SOL    HW327865   4.652   0.704   1.233 -0.1984  0.7185 -0.6660
 7023SOL    MW427866   4.581   0.724   1.279  0.0728 -0.1581  0.1489
 7024SOL     OW27867   4.993   2.561   3.633 -0.4015  1.0640 -0.1516
 7024SOL    HW227868   4.934   2.636   3.623 -0.3642  0.9785 -1.0875
 7024SOL    HW327869   4.934   2.485   3.638 -0.3729  0.9856 -1.0104
 7024SOL    MW427870   4.977   2.561   3.633 -0.3928  1.0424 -0.3884
 7025SOL     OW27871   4.531   2.722   0.599 -0.0162  0.0153 -0.1191
 7025SOL    HW227872   4.474   2.661   0.552 -0.2928  0.5679 -0.5171
 7025SOL    HW327873   4.503   2.716   0.690  0.3662 -0.8935 -0.0462
 7025SOL    MW427874   4.520   2.713   0.604 -0.0022 -0.0317 -0.1620
 7026SOL     OW27875   3.299   5.124   4.597 -0.3827  0.0958  0.5362
 7026SOL    HW227876   3.289   5.197   4.535 -0.2620 -0.4298 -0.1134
 7026SOL    HW327877   3.230   5.063   4.572  1.8058 -1.7493 -1.4107
 7026SOL    MW427878   3.289   5.126   4.585 -0.0780 -0.2170  0.1936
 7027SOL     OW27879   3.524   1.313   1.161 -0.3726 -0.2924 -0.3379
 7027SOL    HW227880   3.441   1.274   1.187 -0.1218  0.8717  2.6339
 7027SOL    HW327881   3.589   1.246   1.180 -0.4979 -0.8068 -1.6371
 7027SOL    MW427882   3.521   1.299   1.167 -0.3560 -0.2067 -0.1172
 7028SOL     OW27883   2.131   3.973   0.910 -0.9866 -0.2320 -0.1127
 7028SOL    HW227884   2.083   3.890   0.905 -1.5416  0.1287 -1.0699
 7028SOL    HW327885   2.174   3.981   0.825 -1.8872  0.9991 -0.4826
 7028SOL    MW427886   2.130   3.963   0.898 -1.1786 -0.0220 -0.2878
 7029SOL     OW27887   4.672   4.741   0.842  0.6026  0.4626 -0.3743
 7029SOL    HW227888   4.688   4.772   0.931  0.6802 -0.9814  0.1448
 7029SOL    HW327889   4.738   4.673   0.828 -0.2005 -0.2080 -1.0558
 7029SOL    MW427890   4.683   4.736   0.852  0.5069  0.1836 -0.3958
 7030SOL     OW27891   5.862   6.122   5.103 -0.2278  0.1629  0.2551
 7030SOL    HW227892   5.832   6.205   5.066 -1.5503 -0.7227 -0.7430
 7030SOL    HW327893   5.847   6.057   5.034 -0.0236 -1.0480  1.3023
 7030SOL    MW427894   5.856   6.124   5.089 -0.3754 -0.1137  0.2615
 7031SOL     OW27895   2.672   5.912   4.402 -0.1272 -0.1254  0.0080
 7031SOL    HW227896   2.620   5.853   4.347  0.3938 -2.1588  1.5913
 7031SOL    HW327897   2.611   5.981   4.427 -0.2949  1.1062 -3.3242
 7031SOL    MW427898   2.657   5.913   4.398 -0.0806 -0.2312 -0.2227
 7032SOL     OW27899   5.514   3.644   1.474  0.2282  0.6961 -0.1308
 7032SOL    HW227900   5.447   3.631   1.408  0.0824 -0.6395  0.2483
 7032SOL    HW327901   5.591   3.597   1.441 -0.5599 -2.1346  1.6570
 7032SOL    MW427902   5.515   3.636   1.461  0.1050  0.1464  0.1551
 7033SOL     OW27903   5.624   2.750   0.317 -0.3997  0.3928 -0.1739
 7033SOL    HW227904   5.716   2.727   0.308 -0.6804 -0.8520 -0.1152
 7033SOL    HW327905   5.624   2.840   0.349  0.8123  0.0739  0.8081
 7033SOL    MW427906   5.636   2.759   0.320 -0.2768  0.1865 -0.0366
 7034SOL     OW27907   6.322   1.450   5.134  0.1223 -0.7074 -1.0325
 7034SOL    HW227908   6.289   1.401   5.209 -0.9103 -1.0733 -1.7049
 7034SOL    HW327909   6.260   1.522   5.123  1.5297  0.7252 -0.1546
 7034SOL    MW427910   6.310   1.453   5.143  0.1717 -0.5667 -1.0054
 7035SOL     OW27911   5.742   6.366   5.042 -0.6574 -0.3897 -0.2179
 7035SOL    HW227912   5.717   6.408   5.124 -2.1464  0.5141 -1.0908
 7035SOL    HW327913   5.754   6.439   4.981  2.9932 -0.8328 -0.2310
 7035SOL    MW427914   5.740   6.381   5.045 -0.3722 -0.3289 -0.3348
 7036SOL     OW27915   3.971   0.332   5.121 -0.0151 -0.2936 -0.4040
 7036SOL    HW227916   4.062   0.309   5.099  0.2284  1.4661 -1.4493
 7036SOL    HW327917   3.920   0.299   5.047 -0.1653 -0.8807 -0.0369
 7036SOL    MW427918   3.976   0.325   5.108 -0.0028 -0.1389 -0.4935
 7037SOL     OW27919   5.661   0.907   4.605  0.2123 -0.7303 -0.1940
 7037SOL    HW227920   5.652   0.863   4.520 -0.1646 -2.0654  0.5058
 7037SOL    HW327921   5.740   0.870   4.643  0.7749  0.3799 -0.2302
 7037SOL    MW427922   5.670   0.896   4.599  0.2368 -0.7600 -0.1065
 7038SOL     OW27923   0.784   2.148   3.791  0.1480 -0.4978  0.2520
 7038SOL    HW227924   0.750   2.151   3.702  0.5177 -1.4177  0.0725
 7038SOL    HW327925   0.824   2.234   3.804  0.3953 -0.4775 -0.5930
 7038SOL    MW427926   0.785   2.160   3.781  0.2294 -0.6165  0.1169
 7039SOL     OW27927   5.186   5.438   1.559  0.1778  1.1926  0.5988
 7039SOL    HW227928   5.185   5.351   1.518 -0.6403  2.3993 -2.2006
 7039SOL    HW327929   5.278   5.454   1.579  0.1843 -0.8940  2.7061
 7039SOL    MW427930   5.198   5.429   1.556  0.0707  1.0765  0.5075
 7040SOL     OW27931   4.538   2.804   0.306  0.0595 -0.4321 -0.5965
 7040SOL    HW227932   4.529   2.769   0.395 -0.0760 -0.8062 -0.7562
 7040SOL    HW327933   4.515   2.897   0.315 -1.8097 -0.8515 -0.5659
 7040SOL    MW427934   4.534   2.812   0.319 -0.2050 -0.5368 -0.6136
 7041SOL     OW27935   2.207   4.334   0.774  0.0190 -0.0520 -0.2488
 7041SOL    HW227936   2.205   4.331   0.870 -2.3781  0.3429 -0.2346
 7041SOL    HW327937   2.181   4.423   0.752  1.6491  0.2010 -1.2908
 7041SOL    MW427938   2.203   4.345   0.784 -0.0822  0.0335 -0.3844
 7042SOL     OW27939   4.729   6.267   6.046  0.5476  0.3409  0.0415
 7042SOL    HW227940   4.671   6.191   6.057  0.1970  0.3859 -1.3319
 7042SOL    HW327941   4.809   6.242   6.092  0.0944 -0.4587  0.4355
 7042SOL    MW427942   4.732   6.253   6.054  0.4416  0.2414 -0.0877
 7043SOL     OW27943   6.199   3.254   1.003 -0.0690 -0.7292 -0.0483
 7043SOL    HW227944   6.261   3.263   1.076 -0.3960  0.1779  0.1277
 7043SOL    HW327945   6.149   3.176   1.024  0.3886 -0.9412  0.2809
 7043SOL    MW427946   6.201   3.245   1.015 -0.0518 -0.6375  0.0184
 7044SOL     OW27947   0.793   1.563   2.193  0.5653 -0.5308  0.3581
 7044SOL    HW227948   0.714   1.527   2.234  1.1428 -0.7474  1.3132
 7044SOL    HW327949   0.806   1.647   2.237  0.7357 -0.3823  0.0301
 7044SOL    MW427950   0.784   1.569   2.204  0.6640 -0.5398  0.4408
 7045SOL     OW27951   2.583   2.386   2.679 -0.0078  0.1236 -0.1586
 7045SOL    HW227952   2.672   2.422   2.677  0.8953 -1.9630 -1.8274
 7045SOL    HW327953   2.584   2.324   2.752 -0.2777  0.4153  0.1017
 7045SOL    MW427954   2.595   2.383   2.689  0.0757 -0.1132 -0.3444
 7046SOL     OW27955   0.932   4.440   2.585 -0.3027  0.0199  0.1171
 7046SOL    HW227956   0.999   4.430   2.517 -0.0437 -0.8851  0.4827
 7046SOL    HW327957   0.938   4.531   2.612 -0.5243  0.4396 -1.1875
 7046SOL    MW427958   0.942   4.451   2.579 -0.2977 -0.0441 -0.0068
 7047SOL     OW27959   0.449   1.822   1.482 -0.0941  0.5017 -0.2880
 7047SOL    HW227960   0.513   1.796   1.550  0.7427  2.4160 -0.2746
 7047SOL    HW327961   0.499   1.819   1.400 -0.3414  0.7652 -0.4502
 7047SOL    MW427962   0.464   1.818   1.480 -0.0163  0.7890 -0.3076
 7048SOL     OW27963   1.674   5.270   1.806  0.6705  0.5674 -0.5371
 7048SOL    HW227964   1.583   5.287   1.830 -0.3939  0.1853 -3.8623
 7048SOL    HW327965   1.717   5.355   1.815 -0.0350  0.8220  0.7609
 7048SOL    MW427966   1.667   5.283   1.811  0.4370  0.5506 -0.8046
 7049SOL     OW27967   2.240   5.008   5.875 -0.0308 -0.1693  0.6367
 7049SOL    HW227968   2.309   4.944   5.856 -0.5437 -0.0253 -2.0836
 7049SOL    HW327969   2.160   4.964   5.848 -0.4716  1.3150 -0.6227
 7049SOL    MW427970   2.239   4.994   5.869 -0.1566  0.0456  0.1116
 7050SOL     OW27971   6.060   6.269   4.176 -0.1236  0.1229  0.1242
 7050SOL    HW227972   6.147   6.265   4.135  0.1590  0.6232  0.6652
 7050SOL    HW327973   6.057   6.194   4.235  0.9616  1.5052  2.0561
 7050SOL    MW427974   6.071   6.259   4.178  0.0569  0.3713  0.4505
 7051SOL     OW27975   3.965   3.756   1.850  0.4041 -0.5753 -0.0068
 7051SOL    HW227976   3.910   3.706   1.910 -0.0379  0.3811  0.4135
 7051SOL    HW327977   4.053   3.752   1.888  0.1309  0.0027  0.7147
 7051SOL    MW427978   3.970   3.749   1.863  0.3097 -0.3729  0.1439
 7052SOL     OW27979   4.715   4.465   5.149 -0.4867  0.0627  0.0424
 7052SOL    HW227980   4.800   4.421   5.147 -1.0496 -1.1468  1.2015
 7052SOL    HW327981   4.670   4.427   5.225 -1.3393  2.0440  0.6076
 7052SOL    MW427982   4.721   4.454   5.159 -0.6734  0.1645  0.2699
 7053SOL     OW27983   6.316   5.040   4.090 -0.1767  0.1479 -0.5251
 7053SOL    HW227984   6.260   5.114   4.067  0.5730  0.4285 -1.5105
 7053SOL    HW327985   6.348   5.006   4.007  0.6679 -0.3571 -0.0141
 7053SOL    MW427986   6.313   5.045   4.076  0.0336  0.1183 -0.5877
 7054SOL     OW27987   2.346   1.732   0.743 -0.3865 -0.6368  0.0396
 7054SOL    HW227988   2.358   1.694   0.830  1.8459  0.9405  0.5151
 7054SOL    HW327989   2.366   1.661   0.683  1.6185 -0.8688  0.8799
 7054SOL    MW427990   2.350   1.718   0.747  0.1725 -0.4593  0.2132
 7055SOL     OW27991   1.049   1.842   0.294 -0.6577  0.5303 -0.2246
 7055SOL    HW227992   1.010   1.762   0.259  0.5478  0.9391 -2.7680
 7055SOL    HW327993   1.055   1.900   0.218  2.9637  1.2101  0.4144
 7055SOL    MW427994   1.044   1.839   0.279 -0.0209  0.6739 -0.4758
 7056SOL     OW27995   4.871   2.266   2.474  0.1519  0.6583 -0.1756
 7056SOL    HW227996   4.838   2.200   2.412  0.0744 -0.2667  0.8290
 7056SOL    HW327997   4.899   2.216   2.550  0.7905  1.7360  0.3161
 7056SOL    MW427998   4.870   2.251   2.476  0.2259  0.6785  0.0219
 7057SOL     OW27999   1.971   2.171   4.812  0.6574 -0.1616 -0.0205
 7057SOL    HW228000   1.983   2.126   4.895  0.7999  1.4193  0.8449
 7057SOL    HW328001   2.001   2.260   4.828 -1.6459  0.8891 -1.0276
 7057SOL    MW428002   1.977   2.177   4.825  0.3723  0.1856 -0.0392
 7058SOL     OW28003   4.497   2.769   3.425  0.2504 -0.3369  0.3545
 7058SOL    HW228004   4.487   2.703   3.356  0.5958 -0.8983  0.8364
 7058SOL    HW328005   4.418   2.823   3.419  0.4828 -0.0945 -0.7768
 7058SOL    MW428006   4.486   2.768   3.415  0.3266 -0.3789  0.2688
 7059SOL     OW28007   4.940   2.088   5.903  0.6105  0.3254  0.5310
 7059SOL    HW228008   4.899   2.023   5.845  1.9392  0.4918 -0.6440
 7059SOL    HW328009   4.985   2.036   5.969  1.4021  0.0348 -0.2214
 7059SOL    MW428010   4.941   2.072   5.904  0.8903  0.3090  0.2767
 7060SOL     OW28011   2.600   6.122   5.336  0.3559  0.1808 -0.1767
 7060SOL    HW228012   2.558   6.199   5.301  1.3118  1.3572  1.1188
 7060SOL    HW328013   2.684   6.154   5.371 -0.8415 -0.5481  4.0066
 7060SOL    MW428014   2.606   6.136   5.336  0.3240  0.2398  0.5462
 7061SOL     OW28015   3.811   5.590   4.993  0.4477  0.1343 -0.2488
 7061SOL    HW228016   3.747   5.574   4.925 -0.2436  0.3394  0.3394
 7061SOL    HW328017   3.863   5.509   4.997  0.2417 -0.0243 -0.7373
 7061SOL    MW428018   3.810   5.577   4.985  0.3293  0.1404 -0.2356
 7062SOL     OW28019   5.743   0.387   2.814 -0.4046  0.0795 -0.2979
 7062SOL    HW228020   5.807   0.423   2.753 -0.9121  1.6517  0.0648
 7062SOL    HW328021   5.761   0.293   2.813  1.7767  0.4283 -0.3638
 7062SOL    MW428022   5.754   0.379   2.806 -0.1837  0.3330 -0.2588
 7063SOL     OW28023   1.133   0.292   6.365 -0.1450  0.5181  0.1403
 7063SOL    HW228024   1.056   0.285   6.421 -1.1076  1.3467 -1.0195
 7063SOL    HW328025   1.113   0.365   6.306  0.8736 -0.2427 -1.1938
 7063SOL    MW428026   1.120   0.301   6.364 -0.1376  0.5271 -0.1887
 7064SOL     OW28027   5.083   4.841   0.846  0.1525  0.5431  0.1182
 7064SOL    HW228028   5.080   4.881   0.760  2.7627 -0.2344 -0.4062
 7064SOL    HW328029   5.091   4.747   0.829  0.4250  0.3451  1.2223
 7064SOL    MW428030   5.083   4.834   0.833  0.5328  0.4144  0.1947
 7065SOL     OW28031   5.248   1.796   2.943  0.9201 -0.0156 -0.3470
 7065SOL    HW228032   5.291   1.766   3.024  1.0675 -1.9149 -1.0711
 7065SOL    HW328033   5.157   1.766   2.952  0.4015  1.6038 -0.0017
 7065SOL    MW428034   5.241   1.788   2.955  0.8711 -0.0525 -0.3970
 7066SOL     OW28035   6.414   0.192   3.540 -0.1602 -0.1064  0.3279
 7066SOL    HW228036   6.359   0.257   3.583 -0.8735 -1.5654  1.7440
 7066SOL    HW328037   6.353   0.140   3.487 -0.2563 -1.8774  2.0776
 7066SOL    MW428038   6.399   0.194   3.538 -0.2670 -0.5326  0.7456
 7067SOL     OW28039   4.047   1.241   6.236 -0.1858  0.1727  0.3308
 7067SOL    HW228040   4.125   1.285   6.202  0.2866  0.4994  1.7582
 7067SOL    HW328041   3.996   1.219   6.159  1.4596 -0.3109 -0.6552
 7067SOL    MW428042   4.050   1.244   6.222  0.0936  0.1520  0.3890
 7068SOL     OW28043   2.971   4.333   4.443  0.1636  0.1398 -0.2112
 7068SOL    HW228044   2.881   4.345   4.414 -0.4559  0.2932  1.6395
 7068SOL    HW328045   3.022   4.394   4.389 -1.3114  2.4751  0.8773
 7068SOL    MW428046   2.966   4.343   4.432 -0.1128  0.4681  0.1766
 7069SOL     OW28047   6.295   2.185   5.414 -0.5271  0.4164 -0.3594
 7069SOL    HW228048   6.382   2.178   5.375 -0.4921  0.3141 -0.2628
 7069SOL    HW328049   6.288   2.109   5.471  0.1149  1.4554  1.2041
 7069SOL    MW428050   6.306   2.174   5.416 -0.4378  0.5400 -0.1404
 7070SOL     OW28051   4.278   3.985   3.248  0.0439  0.0985 -0.4417
 7070SOL    HW228052   4.290   3.897   3.212  1.1700 -0.1834  0.5400
 7070SOL    HW328053   4.242   3.970   3.336 -0.8004  0.6801 -0.6762
 7070SOL    MW428054   4.275   3.971   3.255  0.0811  0.1380 -0.3431
 7071SOL     OW28055   5.360   3.666   0.553 -0.2771 -0.5056 -0.4415
 7071SOL    HW228056   5.325   3.630   0.635 -1.0165 -1.1187 -1.0040
 7071SOL    HW328057   5.296   3.641   0.486  0.4569 -0.2797 -1.2620
 7071SOL    MW428058   5.347   3.658   0.555 -0.2779 -0.5567 -0.6240
 7072SOL     OW28059   6.229   5.633   1.428 -0.1353  0.6202 -0.2571
 7072SOL    HW228060   6.296   5.640   1.495 -0.2760 -0.8442  0.0601
 7072SOL    HW328061   6.243   5.710   1.373  0.5332  1.3813  0.9314
 7072SOL    MW428062   6.239   5.644   1.429 -0.0657  0.5274 -0.0585
 7073SOL     OW28063   4.753   2.835   5.177 -0.3012  0.2964  0.2606
 7073SOL    HW228064   4.727   2.821   5.086  1.0460 -2.9234  0.2422
 7073SOL    HW328065   4.716   2.760   5.225  0.1903  1.1642  2.0971
 7073SOL    MW428066   4.745   2.823   5.171 -0.0586 -0.0139  0.5005
 7074SOL     OW28067   5.105   0.513   2.714  0.1861 -0.1073 -0.3126
 7074SOL    HW228068   5.135   0.585   2.770 -1.1977  0.3728 -0.1567
 7074SOL    HW328069   5.117   0.546   2.625 -1.8213  0.9640 -0.2434
 7074SOL    MW428070   5.111   0.527   2.710 -0.2613  0.0974 -0.2829
 7075SOL     OW28071   0.546   3.666   4.922 -0.4305 -0.0935  0.3947
 7075SOL    HW228072   0.631   3.698   4.891 -0.5945  0.3880  0.4413
 7075SOL    HW328073   0.558   3.656   5.017 -0.5249  0.2794  0.4454
 7075SOL    MW428074   0.559   3.669   4.930 -0.4646  0.0192  0.4076
 7076SOL     OW28075   2.651   5.531   5.621  0.3836 -0.3610  0.0292
 7076SOL    HW228076   2.616   5.552   5.708  0.0829  1.7104 -0.5505
 7076SOL    HW328077   2.631   5.438   5.609 -0.0694 -0.5529  1.9311
 7076SOL    MW428078   2.644   5.522   5.631  0.2841 -0.1130  0.2036
 7077SOL     OW28079   2.292   4.106   3.230 -0.0259  0.1616 -0.4518
 7077SOL    HW228080   2.386   4.101   3.214  0.0585  0.1158  0.0391
 7077SOL    HW328081   2.270   4.198   3.220 -0.1518  0.0056 -1.7565
 7077SOL    MW428082   2.301   4.117   3.226 -0.0314  0.1350 -0.5592
 7078SOL     OW28083   2.887   2.890   1.064 -0.2432 -0.2491 -0.0503
 7078SOL    HW228084   2.942   2.959   1.027  0.3455 -0.4503  0.4266
 7078SOL    HW328085   2.924   2.809   1.029  0.9220 -0.5176  1.6447
 7078SOL    MW428086   2.899   2.889   1.055 -0.0118 -0.3111  0.2363
 7079SOL     OW28087   0.423   6.422   3.341 -0.3100  0.5796  0.6561
 7079SOL    HW228088   0.408   6.497   3.283  0.8658  0.0847 -0.3240
 7079SOL    HW328089   0.453   6.352   3.283  1.4285  0.2237  1.9026
 7079SOL    MW428090   0.425   6.423   3.325  0.0745  0.4673  0.6913
 7080SOL     OW28091   5.963   5.519   5.579 -0.7413  0.2824  0.5483
 7080SOL    HW228092   5.989   5.565   5.499  2.4267 -1.4754  0.4046
 7080SOL    HW328093   5.986   5.580   5.650  0.9142  0.0426  0.2573
 7080SOL    MW428094   5.970   5.533   5.578 -0.1049  0.0189  0.4909
 7081SOL     OW28095   4.737   2.431   5.175 -0.1233  0.1073 -0.1479
 7081SOL    HW228096   4.705   2.379   5.249 -0.4756 -0.6086 -0.7872
 7081SOL    HW328097   4.830   2.408   5.169 -0.5839 -1.6448 -1.3467
 7081SOL    MW428098   4.745   2.421   5.184 -0.2305 -0.2183 -0.3904
 7082SOL     OW28099   0.286   3.350   5.065 -0.5352  0.0821 -0.1324
 7082SOL    HW228100   0.259   3.269   5.109 -0.9361  0.0797 -0.3812
 7082SOL    HW328101   0.368   3.327   5.022 -0.9475 -0.3672 -0.6956
 7082SOL    MW428102   0.293   3.336   5.065 -0.6425  0.0225 -0.2395
 7083SOL     OW28103   2.909   4.154   2.820  0.1316  0.0806 -0.2706
 7083SOL    HW228104   2.997   4.184   2.843 -0.4207  0.2046  1.8759
 7083SOL    HW328105   2.882   4.211   2.748  1.5642  0.4371 -0.5575
 7083SOL    MW428106   2.917   4.165   2.813  0.2478  0.1440 -0.0252
 7084SOL     OW28107   1.235   1.815   2.227 -0.0132  0.1953  0.5244
 7084SOL    HW228108   1.213   1.731   2.186 -0.7372  0.2297  0.8141
 7084SOL    HW328109   1.179   1.879   2.182 -0.1347  0.3765  0.9305
 7084SOL    MW428110   1.225   1.812   2.215 -0.1247  0.2237  0.6162
 7085SOL     OW28111   0.648   1.341   1.297  0.4634  0.0147 -0.0030
 7085SOL    HW228112   0.596   1.322   1.219  1.3719 -1.4724 -0.2864
 7085SOL    HW328113   0.588   1.387   1.356  0.3302  3.4111 -2.4444
 7085SOL    MW428114   0.633   1.345   1.294  0.5657  0.2666 -0.3625
 7086SOL     OW28115   1.255   2.804   4.897 -0.0157 -0.2573 -0.1657
 7086SOL    HW228116   1.169   2.793   4.856  0.0318 -1.1060 -0.0438
 7086SOL    HW328117   1.303   2.859   4.835 -0.0504 -1.2639 -1.1057
 7086SOL    MW428118   1.250   2.810   4.883 -0.0140 -0.5021 -0.2737
 7087SOL     OW28119   2.089   2.901   1.032  0.0862  0.1020 -0.3779
 7087SOL    HW228120   2.051   2.982   0.998  0.6241  0.5585  0.0931
 7087SOL    HW328121   2.050   2.891   1.119 -1.0590 -0.9035 -0.9725
 7087SOL    MW428122   2.079   2.910   1.039  0.0061  0.0296 -0.3942
 7088SOL     OW28123   0.842   4.972   3.872  0.4727 -0.0060  0.3732
 7088SOL    HW228124   0.925   4.958   3.917 -0.1378 -0.4642  1.3974
 7088SOL    HW328125   0.865   4.978   3.780  1.5224 -1.3658  0.5171
 7088SOL    MW428126   0.856   4.971   3.866  0.5306 -0.2458  0.5273
 7089SOL     OW28127   4.523   5.014   4.327  0.3984  0.2137  0.0367
 7089SOL    HW228128   4.546   5.101   4.295 -0.5060 -0.2366 -2.0281
 7089SOL    HW328129   4.436   5.024   4.364  0.6413  0.3346  0.5915
 7089SOL    MW428130   4.515   5.027   4.328  0.3111  0.1703 -0.1625
 7090SOL     OW28131   6.266   0.425   3.924 -0.1214  0.5027  0.4468
 7090SOL    HW228132   6.316   0.401   4.002 -0.3562  1.2299  0.8274
 7090SOL    HW328133   6.210   0.349   3.907  0.1494  0.2237  0.8075
 7090SOL    MW428134   6.265   0.412   3.932 -0.1166  0.5618  0.5446
 7091SOL     OW28135   0.521   2.451   3.757 -0.4093  0.6872  0.0311
 7091SOL    HW228136   0.436   2.489   3.777 -1.5149 -1.3930 -0.4231
 7091SOL    HW328137   0.510   2.358   3.774  2.3087  0.5608  1.6013
 7091SOL    MW428138   0.508   2.444   3.762 -0.1966  0.3960  0.1783
 7092SOL     OW28139   4.146   6.271   0.762 -0.2127 -0.4766 -0.4825
 7092SOL    HW228140   4.063   6.252   0.717 -1.1496 -0.7345  1.2550
 7092SOL    HW328141   4.213   6.263   0.694 -1.5044 -1.3299 -1.7084
 7092SOL    MW428142   4.144   6.267   0.747 -0.5068 -0.6232 -0.4150
 7093SOL     OW28143   3.019   6.228   2.338  0.4535  0.5234 -0.4441
 7093SOL    HW228144   3.050   6.294   2.276 -2.0546  0.9106 -1.3892
 7093SOL    HW328145   3.022   6.146   2.289  1.4266  0.2946 -0.0162
 7093SOL    MW428146   3.024   6.226   2.323  0.2510  0.5443 -0.5123
 7094SOL     OW28147   1.017   4.294   1.821  0.4976  0.0593  0.1132
 7094SOL    HW228148   0.967   4.239   1.761  1.2979 -0.5333 -0.0347
 7094SOL    HW328149   0.951   4.346   1.867 -0.2512 -0.7331 -0.0324
 7094SOL    MW428150   1.002   4.293   1.819  0.5044 -0.1234  0.0745
 7095SOL     OW28151   0.458   3.016   1.492  0.2247  0.3863 -0.0163
 7095SOL    HW228152   0.398   3.006   1.566  0.7609 -0.3269  0.3374
 7095SOL    HW328153   0.517   3.086   1.519  0.3456  0.2084  0.1881
 7095SOL    MW428154   0.458   3.024   1.506  0.3114  0.2687  0.0573
 7096SOL     OW28155   4.416   3.319   4.776 -0.0560  0.5035 -0.7584
 7096SOL    HW228156   4.326   3.351   4.788 -0.9762 -1.3836 -1.9930
 7096SOL    HW328157   4.431   3.262   4.852 -0.1757  0.2945 -0.8891
 7096SOL    MW428158   4.406   3.316   4.788 -0.1932  0.2270 -0.9385
 7097SOL     OW28159   3.524   1.729   4.296 -0.2021 -0.2125 -0.2536
 7097SOL    HW228160   3.460   1.695   4.234  0.2514 -0.1910 -0.7351
 7097SOL    HW328161   3.609   1.703   4.260  0.0366 -1.2722  0.9813
 7097SOL    MW428162   3.527   1.721   4.283 -0.1108 -0.3495 -0.1542
 7098SOL     OW28163   1.959   6.029   3.925  0.3517 -0.5191  0.2439
 7098SOL    HW228164   1.886   6.036   3.864  0.7109  0.6950 -0.0784
 7098SOL    HW328165   1.945   5.945   3.970 -0.8400 -0.6347 -0.3018
 7098SOL    MW428166   1.947   6.019   3.923  0.2419 -0.3742  0.1294
 7099SOL     OW28167   4.275   0.032   0.919  0.1524  0.2417  0.0808
 7099SOL    HW228168   4.218  -0.040   0.890 -0.5315 -0.0117  1.9008
 7099SOL    HW328169   4.344  -0.011   0.970  2.6366  0.4437 -2.8467
 7099SOL    MW428170   4.276   0.016   0.922  0.3900  0.2349 -0.0653
 7100SOL     OW28171   3.680   0.036   4.826 -0.0485  0.3447  0.2264
 7100SOL    HW228172   3.646   0.103   4.768  1.4851  0.5356 -0.4942
 7100SOL    HW328173   3.717  -0.030   4.768 -1.9377 -1.4289  0.8901
 7100SOL    MW428174   3.680   0.036   4.811 -0.0954  0.1359  0.2189
 7101SOL     OW28175   3.949   5.733   5.953  0.4542 -0.1387 -0.3814
 7101SOL    HW228176   3.905   5.665   5.903  0.9777  0.0063 -1.0550
 7101SOL    HW328177   4.016   5.767   5.894 -1.0630  2.3393 -0.8220
 7101SOL    MW428178   3.952   5.729   5.939  0.3231  0.2074 -0.5284
 7102SOL     OW28179   1.236   0.022   1.740  0.4411  0.4729 -0.4678
 7102SOL    HW228180   1.150  -0.019   1.727 -0.0034  0.9301  0.8125
 7102SOL    HW328181   1.223   0.113   1.713  0.0457  0.9396  1.1545
 7102SOL    MW428182   1.223   0.029   1.735  0.3303  0.5948 -0.0848
 7103SOL     OW28183   5.570   5.831   0.111 -0.4579 -0.0774  0.4597
 7103SOL    HW228184   5.589   5.798   0.199 -0.3763 -0.0703  0.4455
 7103SOL    HW328185   5.509   5.903   0.124 -0.3852 -0.0262  0.5173
 7103SOL    MW428186   5.565   5.836   0.124 -0.4375 -0.0697  0.4654
 7104SOL     OW28187   3.050   0.457   3.998 -0.0955  0.1851  0.7168
 7104SOL    HW228188   3.020   0.547   4.001  1.1955  0.6552  0.3247
 7104SOL    HW328189   3.044   0.426   4.088 -0.0901  0.8235  0.9361
 7104SOL    MW428190   3.046   0.465   4.010  0.0755  0.3314  0.6940
 7105SOL     OW28191   2.407   3.696   2.183 -0.8395 -0.1923 -0.7077
 7105SOL    HW228192   2.335   3.755   2.204  1.0097  1.1128  2.6029
 7105SOL    HW328193   2.367   3.609   2.179 -2.7012  0.5862  0.1959
 7105SOL    MW428194   2.392   3.692   2.185 -0.8412  0.0826 -0.1517
 7106SOL     OW28195   3.628   4.473   4.627 -0.2751  0.2797 -0.1213
 7106SOL    HW228196   3.610   4.417   4.552  1.6357  1.1951 -1.3335
 7106SOL    HW328197   3.564   4.446   4.693 -0.4977 -2.1417 -1.2377
 7106SOL    MW428198   3.617   4.462   4.626 -0.0524  0.0810 -0.4286
 7107SOL     OW28199   4.441   1.388   1.088  0.3075  0.0408  0.5011
 7107SOL    HW228200   4.501   1.447   1.041  0.4352 -0.3769  0.1293
 7107SOL    HW328201   4.472   1.300   1.065  1.4608 -0.2121  2.7233
 7107SOL    MW428202   4.453   1.384   1.079  0.4765 -0.0477  0.7453
 7108SOL     OW28203   4.560   1.119   2.833  0.6953  0.7279  0.0515
 7108SOL    HW228204   4.497   1.071   2.886  0.6118  0.1760 -0.5335
 7108SOL    HW328205   4.563   1.206   2.871 -4.0613  2.4295 -2.6903
 7108SOL    MW428206   4.552   1.124   2.845  0.0567  0.8796 -0.3875
 7109SOL     OW28207   0.154   1.342   2.481 -0.4952 -0.5794  0.0779
 7109SOL    HW228208   0.078   1.292   2.511  0.8178 -1.3014  2.3963
 7109SOL    HW328209   0.225   1.316   2.540  0.8558  2.1880 -0.1839
 7109SOL    MW428210   0.153   1.332   2.493 -0.1437 -0.3096  0.3492
 7110SOL     OW28211   2.459   5.967   0.515 -0.7311  0.5893 -0.2925
 7110SOL    HW228212   2.486   5.912   0.588  0.6689  1.6539  0.0453
 7110SOL    HW328213   2.465   5.910   0.438  1.5485  0.4507 -0.0817
 7110SOL    MW428214   2.464   5.952   0.514 -0.2456  0.7114 -0.2201
 7111SOL     OW28215   3.446   3.781   5.271  0.0456  0.1971 -0.5918
 7111SOL    HW228216   3.452   3.685   5.266  0.8326  0.1624  0.7613
 7111SOL    HW328217   3.505   3.812   5.202 -0.5112 -0.2649 -1.3033
 7111SOL    MW428218   3.454   3.772   5.261  0.0760  0.1316 -0.5072
 7112SOL     OW28219   5.052   4.080   0.025 -0.0480  0.3639  0.3214
 7112SOL    HW228220   4.978   4.060   0.082 -0.1504 -0.2974 -0.0294
 7112SOL    HW328221   5.126   4.032   0.064 -0.3378 -0.9176 -0.6387
 7112SOL    MW428222   5.052   4.071   0.038 -0.0997  0.1075  0.1484
 7113SOL     OW28223   1.309   0.285   0.586  0.2972  0.0673 -0.1445
 7113SOL    HW228224   1.282   0.248   0.669  0.3070  1.1676  0.3722
 7113SOL    HW328225   1.390   0.333   0.606 -0.0839  0.9425 -0.6217
 7113SOL    MW428226   1.316   0.287   0.599  0.2482  0.3279 -0.1393
 7114SOL     OW28227   0.051   2.888   3.497  0.0794 -0.4082 -0.3199
 7114SOL    HW228228   0.042   2.814   3.557 -0.6049 -0.4500 -0.4706
 7114SOL    HW328229  -0.019   2.877   3.433  0.1355  0.2220 -0.5035
 7114SOL    MW428230   0.041   2.877   3.497 -0.0034 -0.3305 -0.3640
 7115SOL     OW28231   2.226   0.656   4.022 -0.2545  0.6779  0.1530
 7115SOL    HW228232   2.244   0.709   3.944  0.2069  0.1247 -0.1263
 7115SOL    HW328233   2.305   0.664   4.075  0.0496 -0.1410 -0.1424
 7115SOL    MW428234   2.239   0.664   4.018 -0.1535  0.4968  0.0772
 7116SOL     OW28235   6.163   1.354   3.016  0.4411 -0.4890 -0.2499
 7116SOL    HW228236   6.250   1.356   3.057 -0.5469  0.3499  1.9642
 7116SOL    HW328237   6.128   1.267   3.038  0.5657 -0.6916 -0.8333
 7116SOL    MW428238   6.170   1.343   3.025  0.3272 -0.4050 -0.0348
 7117SOL     OW28239   1.042   5.067   2.308  1.0254  0.3118  0.2649
 7117SOL    HW228240   1.023   4.974   2.321  0.8301 -0.0112 -1.8471
 7117SOL    HW328241   1.062   5.074   2.214  2.6789  2.1279  0.6861
 7117SOL    MW428242   1.042   5.056   2.297  1.2178  0.5088  0.0418
 7118SOL     OW28243   3.503   2.392   4.639 -0.6821 -0.7445  0.3534
 7118SOL    HW228244   3.573   2.339   4.600  0.8904  1.2035  0.4058
 7118SOL    HW328245   3.484   2.349   4.722  0.3626 -1.3941  0.2744
 7118SOL    MW428246   3.510   2.379   4.645 -0.3368 -0.5732  0.3499
 7119SOL     OW28247   5.233   0.130   5.943 -0.2902 -0.0279  0.0528
 7119SOL    HW228248   5.171   0.185   5.991  1.1580  1.7557  0.0236
 7119SOL    HW328249   5.246   0.054   5.999 -0.0534  1.1257  1.6452
 7119SOL    MW428250   5.227   0.128   5.957 -0.0679  0.3596  0.2591
 7120SOL     OW28251   2.968   1.805   1.952 -0.1924 -0.3637 -0.0109
 7120SOL    HW228252   2.970   1.709   1.948 -2.4426 -0.4485 -0.9466
 7120SOL    HW328253   2.918   1.824   2.032 -2.1731 -0.0954 -1.2570
 7120SOL    MW428254   2.961   1.795   1.962 -0.7506 -0.3395 -0.2988
 7121SOL     OW28255   2.233   3.499   5.021 -0.7988  0.0502 -0.2180
 7121SOL    HW228256   2.236   3.592   5.043  0.1460  0.8313 -3.2138
 7121SOL    HW328257   2.288   3.457   5.087  0.4230  1.9230  0.0213
 7121SOL    MW428258   2.241   3.506   5.032 -0.5130  0.4003 -0.5817
 7122SOL     OW28259   5.426   3.381   4.555  0.0765 -0.5746 -0.2129
 7122SOL    HW228260   5.339   3.345   4.539  0.0650  0.0376 -1.6894
 7122SOL    HW328261   5.420   3.472   4.527  1.2590 -0.5911 -0.5904
 7122SOL    MW428262   5.414   3.388   4.549  0.2310 -0.4960 -0.4575
 7123SOL     OW28263   3.192   0.322   2.985 -0.7872 -0.1508  0.0260
 7123SOL    HW228264   3.236   0.308   2.901  0.8859 -1.1834  1.0062
 7123SOL    HW328265   3.162   0.235   3.011  2.0561 -0.6458  2.1719
 7123SOL    MW428266   3.194   0.309   2.977 -0.1913 -0.3524  0.4385
 7124SOL     OW28267   5.503   1.812   5.848  0.0125  0.1674 -0.3081
 7124SOL    HW228268   5.581   1.814   5.903 -0.1472 -0.6153 -0.0398
 7124SOL    HW328269   5.504   1.724   5.809 -0.6633  0.1942 -0.3970
 7124SOL    MW428270   5.514   1.800   5.850 -0.0977  0.0677 -0.2844
 7125SOL     OW28271   1.188   0.878   5.755  0.1127  0.0471  0.0246
 7125SOL    HW228272   1.111   0.902   5.704 -0.2006  0.8747  0.8490
 7125SOL    HW328273   1.236   0.960   5.766  2.0414 -0.7116 -1.8917
 7125SOL    MW428274   1.184   0.892   5.750  0.3258  0.0562 -0.1195
 7126SOL     OW28275   1.089   3.602   2.759 -0.4916  0.0233 -0.2663
 7126SOL    HW228276   0.999   3.626   2.740 -1.0842 -0.0094  2.1144
 7126SOL    HW328277   1.082   3.520   2.808  0.6849  0.7538  1.2026
 7126SOL    MW428278   1.077   3.595   2.763 -0.4145  0.1154  0.2416
 7127SOL     OW28279   0.163   1.178   0.363 -0.1539  0.3816  0.2318
 7127SOL    HW228280   0.185   1.201   0.453 -0.1780  1.9736 -0.1390
 7127SOL    HW328281   0.247   1.180   0.317 -0.0425 -1.0920  0.3312
 7127SOL    MW428282   0.177   1.181   0.369 -0.1424  0.3972  0.1960
 7128SOL     OW28283   2.452   1.075   3.882  0.4289 -0.1488  0.3955
 7128SOL    HW228284   2.359   1.095   3.884  0.9244  3.0709 -1.7202
 7128SOL    HW328285   2.474   1.057   3.973 -1.9260  0.6513  1.1972
 7128SOL    MW428286   2.443   1.075   3.894  0.1836  0.3816  0.2221
 7129SOL     OW28287   5.563   5.144   0.845 -0.2356  0.5982 -0.2555
 7129SOL    HW228288   5.592   5.067   0.895  0.3707  2.1672  1.9383
 7129SOL    HW328289   5.478   5.117   0.809  0.1089 -1.2086  0.1426
 7129SOL    MW428290   5.556   5.130   0.847 -0.1102  0.5668  0.0865
 7130SOL     OW28291   1.712   4.200   0.066  0.2149 -0.3470  0.3653
 7130SOL    HW228292   1.797   4.155   0.062  1.0640  0.8921  2.3887
 7130SOL    HW328293   1.650   4.130   0.086  1.1431 -0.9860  1.1759
 7130SOL    MW428294   1.715   4.185   0.068  0.4494 -0.2678  0.7392
 7131SOL     OW28295   6.269   0.512   0.928  0.2520 -0.2046 -0.9414
 7131SOL    HW228296   6.191   0.567   0.916  0.9246  0.8331 -0.7672
 7131SOL    HW328297   6.334   0.572   0.965  0.4713 -1.5793  0.9964
 7131SOL    MW428298   6.267   0.527   0.931  0.3697 -0.2491 -0.6627
 7132SOL     OW28299   4.918   4.663   4.182 -0.5221 -0.4040  0.0273
 7132SOL    HW228300   4.915   4.756   4.164 -1.4120 -0.4119  0.0739
 7132SOL    HW328301   4.832   4.630   4.153 -0.9585 -0.8690  1.7294
 7132SOL    MW428302   4.906   4.671   4.176 -0.6970 -0.4664  0.2581
 7133SOL     OW28303   0.361   0.894   4.059 -0.6703 -0.5015  0.0561
 7133SOL    HW228304   0.377   0.845   3.978  0.7136  1.7157 -1.1183
 7133SOL    HW328305   0.440   0.947   4.071 -1.2266 -0.1033  2.3885
 7133SOL    MW428306   0.373   0.895   4.050 -0.5611 -0.1565  0.2089
 7134SOL     OW28307   0.383   5.887   0.973  0.1215 -0.3338 -0.0811
 7134SOL    HW228308   0.450   5.826   0.942 -0.1765 -0.1621 -1.0833
 7134SOL    HW328309   0.315   5.831   1.011  1.0690 -0.4912  1.5102
 7134SOL    MW428310   0.383   5.872   0.974  0.2072 -0.3319 -0.0034
 7135SOL     OW28311   6.114   4.053   3.261 -0.1446  0.6969 -0.1292
 7135SOL    HW228312   6.151   4.002   3.189 -1.7997 -1.3672  0.4164
 7135SOL    HW328313   6.190   4.097   3.300  1.2067 -0.6007 -1.2005
 7135SOL    MW428314   6.129   4.052   3.257 -0.1847  0.2534 -0.1986
 7136SOL     OW28315   5.530   2.118   4.257  0.0291  0.0638 -0.2568
 7136SOL    HW228316   5.498   2.203   4.288 -0.4373  0.2714 -1.2766
 7136SOL    HW328317   5.619   2.136   4.226  0.5078 -0.1494  0.9294
 7136SOL    MW428318   5.538   2.132   4.257  0.0307  0.0630 -0.2349
 7137SOL     OW28319   4.593   0.310   4.245 -0.0024 -0.2256  0.3100
 7137SOL    HW228320   4.682   0.279   4.232  0.0349  0.0775 -0.2151
 7137SOL    HW328321   4.568   0.279   4.332  0.5529 -0.4557  0.3876
 7137SOL    MW428322   4.601   0.302   4.255  0.0758 -0.2160  0.2509
 7138SOL     OW28323   6.286   5.010   5.668  0.7236  0.3510  0.0572
 7138SOL    HW228324   6.223   4.938   5.675  1.6469 -0.4844  0.0646
 7138SOL    HW328325   6.360   4.972   5.621  1.4597  1.1348  0.5538
 7138SOL    MW428326   6.287   4.995   5.663  0.9426  0.3442  0.1237
 7139SOL     OW28327   2.576   3.593   6.044 -0.4160 -0.1448 -0.0923
 7139SOL    HW228328   2.583   3.682   6.081 -0.6458 -1.0456  2.3030
 7139SOL    HW328329   2.482   3.579   6.036 -0.5300 -1.0390  2.0274
 7139SOL    MW428330   2.564   3.603   6.048 -0.4613 -0.3816  0.5034
 7140SOL     OW28331   2.585   3.929   0.880 -0.5654 -0.0196 -0.4273
 7140SOL    HW228332   2.596   3.930   0.975  0.6085 -2.5320 -0.4519
 7140SOL    HW328333   2.501   3.885   0.867 -0.6954  0.2677 -0.5550
 7140SOL    MW428334   2.575   3.923   0.891 -0.4277 -0.3131 -0.4474
 7141SOL     OW28335   0.794   0.250   4.825  0.1177 -0.1636 -0.1504
 7141SOL    HW228336   0.823   0.238   4.734 -5.2579  1.2944 -2.4907
 7141SOL    HW328337   0.824   0.338   4.848  0.2769  0.0547 -1.1318
 7141SOL    MW428338   0.802   0.260   4.816 -0.5706  0.0576 -0.5887
 7142SOL     OW28339   1.149   0.320   4.824 -0.7787  0.2429  0.8355
 7142SOL    HW228340   1.071   0.362   4.861 -0.3511  0.6978  1.2468
 7142SOL    HW328341   1.145   0.339   4.731 -1.1405  0.3043  0.8627
 7142SOL    MW428342   1.138   0.328   4.817 -0.7700  0.3110  0.8934
 7143SOL     OW28343   4.637   2.052   2.077  0.3790 -0.1651 -0.7358
 7143SOL    HW228344   4.608   1.964   2.056  1.6808 -0.6214 -0.7405
 7143SOL    HW328345   4.693   2.041   2.154 -0.3918  0.8254 -0.0076
 7143SOL    MW428346   4.641   2.039   2.085  0.4490 -0.0946 -0.6403
 7144SOL     OW28347   0.064   0.096   3.993  0.3245 -0.3908  0.1416
 7144SOL    HW228348  -0.026   0.074   3.969  0.3229  0.7079 -0.9884
 7144SOL    HW328349   0.109   0.012   4.001 -0.2346 -0.8855 -1.6042
 7144SOL    MW428350   0.058   0.082   3.991  0.2505 -0.3111 -0.2378
 7145SOL     OW28351   5.533   4.281   4.376  0.1972  0.6946  0.0718
 7145SOL    HW228352   5.531   4.202   4.322  0.9340  0.5035  0.3192
 7145SOL    HW328353   5.588   4.259   4.450 -2.6104  0.1804  2.1622
 7145SOL    MW428354   5.540   4.268   4.378 -0.0760  0.6015  0.3803
 7146SOL     OW28355   4.672   3.196   3.440  0.0929  0.2893 -0.1465
 7146SOL    HW228356   4.670   3.129   3.509  2.3112  0.8316  0.5112
 7146SOL    HW328357   4.693   3.277   3.486 -0.7201  1.1183 -1.1834
 7146SOL    MW428358   4.674   3.198   3.455  0.2783  0.4702 -0.1965
 7147SOL     OW28359   3.842   3.569   0.174 -0.7077  0.4118  0.0196
 7147SOL    HW228360   3.904   3.563   0.101 -0.8983 -1.4348 -0.0230
 7147SOL    HW328361   3.797   3.653   0.159  1.1823  1.4110 -0.3884
 7147SOL    MW428362   3.844   3.580   0.162 -0.4835  0.3000 -0.0398
 7148SOL     OW28363   5.499   2.959   6.267  0.2367  0.4845  0.2753
 7148SOL    HW228364   5.493   2.871   6.230 -0.7237  1.1305 -1.1911
 7148SOL    HW328365   5.583   2.960   6.313  0.6185 -0.9436 -0.3375
 7148SOL    MW428366   5.509   2.947   6.268  0.1603  0.3813  0.0010
 7149SOL     OW28367   3.856   6.183   4.111  0.3891  0.3526  0.1465
 7149SOL    HW228368   3.929   6.242   4.093  0.2775  0.2692 -0.6163
 7149SOL    HW328369   3.860   6.119   4.040 -0.1469  0.0798  0.3612
 7149SOL    MW428370   3.866   6.182   4.099  0.3036  0.3056  0.0742
 7150SOL     OW28371   2.542   6.343   5.182  0.0155  0.1336 -0.3589
 7150SOL    HW228372   2.452   6.334   5.149  0.0568  1.7459 -0.9875
 7150SOL    HW328373   2.584   6.403   5.121  1.2077  0.2863  0.5742
 7150SOL    MW428374   2.536   6.350   5.170  0.1782  0.3665 -0.3187
 7151SOL     OW28375   0.580   2.794   5.052 -0.2434  0.0478 -0.1026
 7151SOL    HW228376   0.594   2.753   4.966 -1.2626 -1.7375  0.5124
 7151SOL    HW328377   0.485   2.807   5.056 -0.0929  1.0640  0.3729
 7151SOL    MW428378   0.569   2.790   5.041 -0.3580 -0.0536  0.0412
 7152SOL     OW28379   2.336   1.633   3.115 -0.4933  0.7081  0.5416
 7152SOL    HW228380   2.313   1.726   3.121 -0.6499  0.8360 -1.5692
 7152SOL    HW328381   2.369   1.621   3.026  0.3847 -1.0907  1.0518
 7152SOL    MW428382   2.337   1.644   3.104 -0.3981  0.4877  0.3304
 7153SOL     OW28383   3.124   5.080   2.868 -0.4074  0.1035 -0.0641
 7153SOL    HW228384   3.045   5.128   2.842 -0.1868  1.0129  0.8927
 7153SOL    HW328385   3.195   5.143   2.859 -0.0568 -0.1432  0.9049
 7153SOL    MW428386   3.123   5.094   2.863 -0.3321  0.1909  0.1900
 7154SOL     OW28387   1.906   3.039   5.179 -0.1139  0.3447  0.2983
 7154SOL    HW228388   1.829   3.084   5.214  1.1384  2.0616  1.0393
 7154SOL    HW328389   1.950   3.105   5.125  1.8380  0.0887  1.4639
 7154SOL    MW428390   1.902   3.054   5.176  0.3089  0.5374  0.5498
 7155SOL     OW28391   2.097   1.484   1.017 -0.2416  0.4493 -0.2408
 7155SOL    HW228392   2.065   1.403   0.979 -0.3722  0.1915  0.4041
 7155SOL    HW328393   2.060   1.554   0.963 -0.1926  0.0834 -0.7466
 7155SOL    MW428394   2.088   1.483   1.005 -0.2524  0.3670 -0.2224
 7156SOL     OW28395   2.138   1.096   5.639 -0.0334 -0.0241  0.3355
 7156SOL    HW228396   2.172   1.163   5.581 -0.5998  2.3341  2.5663
 7156SOL    HW328397   2.051   1.075   5.604  0.1067  0.5030 -0.3224
 7156SOL    MW428398   2.131   1.102   5.627 -0.0897  0.3565  0.5430
 7157SOL     OW28399   4.114   1.303   0.220 -0.0944 -0.1509  0.3202
 7157SOL    HW228400   4.178   1.275   0.284 -0.7631 -0.8138  0.7181
 7157SOL    HW328401   4.062   1.224   0.201  0.3843 -0.1073 -1.4016
 7157SOL    MW428402   4.115   1.289   0.226 -0.1195 -0.2326  0.1455
 7158SOL     OW28403   5.006   0.823   0.554 -0.6396  0.7048 -0.1856
 7158SOL    HW228404   5.066   0.752   0.575 -1.1572  0.4639  0.5657
 7158SOL    HW328405   4.978   0.807   0.464 -0.2998  0.2905 -0.2142
 7158SOL    MW428406   5.010   0.812   0.545 -0.6630  0.6184 -0.0903
 7159SOL     OW28407   3.951   2.783   0.031  0.3315  0.4649 -0.1614
 7159SOL    HW228408   3.869   2.734   0.032  0.7564 -0.2447  0.3371
 7159SOL    HW328409   4.019   2.717   0.042  0.9628  1.0719 -0.3449
 7159SOL    MW428410   3.949   2.768   0.033  0.4709  0.4514 -0.1198
 7160SOL     OW28411   4.148   0.287   3.756 -0.8905 -0.0318 -0.3624
 7160SOL    HW228412   4.122   0.338   3.833  3.1528 -0.0624  1.2547
 7160SOL    HW328413   4.136   0.196   3.783  0.7498 -0.0481  0.4028
 7160SOL    MW428414   4.143   0.282   3.770 -0.1406 -0.0380 -0.0481
 7161SOL     OW28415   5.109   3.335   5.925  0.9154 -0.0752  0.4834
 7161SOL    HW228416   5.051   3.399   5.884  1.0519 -1.1511 -1.4852
 7161SOL    HW328417   5.188   3.336   5.871  0.8319 -2.0442  0.2569
 7161SOL    MW428418   5.112   3.343   5.912  0.9224 -0.4769  0.1938
 7162SOL     OW28419   5.512   3.508   2.661 -0.0138 -0.0310  0.1958
 7162SOL    HW228420   5.488   3.500   2.568  1.0354 -0.7446 -0.0313
 7162SOL    HW328421   5.545   3.421   2.684 -0.7548 -0.0122  1.3941
 7162SOL    MW428422   5.513   3.495   2.651  0.0269 -0.1227  0.3240
 7163SOL     OW28423   0.530   0.666   5.221 -0.3336  0.2528 -0.3468
 7163SOL    HW228424   0.476   0.630   5.292  2.0821  0.7571  1.8986
 7163SOL    HW328425   0.548   0.756   5.247  1.3502  0.1825 -1.1152
 7163SOL    MW428426   0.525   0.673   5.234  0.2073  0.3100 -0.1519
 7164SOL     OW28427   3.949   3.525   3.586  0.1944 -0.0111  0.3656
 7164SOL    HW228428   4.003   3.471   3.643  0.9950  0.6394  0.2280
 7164SOL    HW328429   3.886   3.567   3.645 -0.6090 -1.2554  0.4495
 7164SOL    MW428430   3.948   3.523   3.601  0.1940 -0.0894  0.3585
 7165SOL     OW28431   2.411   0.291   5.900 -0.7822 -0.1183 -0.3070
 7165SOL    HW228432   2.428   0.314   5.809 -1.2686 -0.8134 -0.5834
 7165SOL    HW328433   2.363   0.365   5.936 -1.3442 -0.2134 -0.8590
 7165SOL    MW428434   2.407   0.304   5.893 -0.9206 -0.2226 -0.4163
 7166SOL     OW28435   0.723   4.177   5.327 -0.2170  0.0766 -0.1442
 7166SOL    HW228436   0.807   4.223   5.330  0.1847 -0.7181  1.4157
 7166SOL    HW328437   0.713   4.139   5.414 -2.2074  0.1595 -0.2892
 7166SOL    MW428438   0.733   4.178   5.338 -0.4266 -0.0173  0.0425
 7167SOL     OW28439   5.677   5.195   5.537 -0.1574 -0.1727 -0.1535
 7167SOL    HW228440   5.674   5.280   5.582  0.6686 -0.6692  0.8695
 7167SOL    HW328441   5.743   5.207   5.469 -0.3724  0.1386 -0.3117
 7167SOL    MW428442   5.685   5.208   5.534 -0.0768 -0.1971 -0.0394
 7168SOL     OW28443   4.968   0.078   2.997 -0.0604  0.1313  0.0075
 7168SOL    HW228444   4.967  -0.007   2.954 -0.9527 -0.4325  1.0899
 7168SOL    HW328445   5.027   0.132   2.943  0.8438 -1.2751 -0.4690
 7168SOL    MW428446   4.976   0.074   2.984 -0.0588 -0.1286  0.0874
 7169SOL     OW28447   5.880   5.378   2.565 -0.5558 -0.4898  0.4087
 7169SOL    HW228448   5.889   5.358   2.471 -0.6595 -0.6343  0.4302
 7169SOL    HW328449   5.840   5.465   2.566  0.1865 -0.1312  0.3140
 7169SOL    MW428450   5.876   5.387   2.552 -0.4715 -0.4616  0.3990
 7170SOL     OW28451   4.490   6.136   4.642  0.2810  0.2395 -0.5691
 7170SOL    HW228452   4.469   6.229   4.645 -0.7663  0.0095 -0.6247
 7170SOL    HW328453   4.502   6.116   4.549  1.0739  0.4310 -0.5174
 7170SOL    MW428454   4.489   6.145   4.630  0.2474  0.2344 -0.5696
 7171SOL     OW28455   6.393   6.032   1.963  0.2807 -0.1250  0.0617
 7171SOL    HW228456   6.385   6.003   2.054 -1.1593  0.6807  0.2191
 7171SOL    HW328457   6.344   6.114   1.960  1.6983  0.7271 -1.0670
 7171SOL    MW428458   6.386   6.039   1.975  0.2777  0.0937 -0.0665
 7172SOL     OW28459   4.359   3.317   3.563  0.2579  0.1464  0.9901
 7172SOL    HW228460   4.305   3.274   3.497  0.5521  0.9437  0.2176
 7172SOL    HW328461   4.374   3.405   3.529  1.4630  0.1725  1.5192
 7172SOL    MW428462   4.354   3.323   3.550  0.4558  0.2550  0.9580
 7173SOL     OW28463   3.572   4.326   0.208  0.3927 -0.4226 -0.7137
 7173SOL    HW228464   3.584   4.347   0.301 -1.1114 -1.2996 -0.2972
 7173SOL    HW328465   3.579   4.411   0.164  0.7065  0.0649  0.2374
 7173SOL    MW428466   3.575   4.340   0.214  0.2356 -0.4740 -0.5332
 7174SOL     OW28467   1.172   0.236   1.593  0.5409  0.3645 -0.1768
 7174SOL    HW228468   1.091   0.288   1.592  0.3497  0.1244  1.1833
 7174SOL    HW328469   1.242   0.301   1.600  0.2715  0.4737  2.2299
 7174SOL    MW428470   1.170   0.251   1.593  0.4801  0.3472  0.3202
 7175SOL     OW28471   4.069   4.948   1.570  0.0747  0.0430  0.0748
 7175SOL    HW228472   4.159   4.979   1.560  0.3638 -0.7024  0.3545
 7175SOL    HW328473   4.075   4.853   1.565 -0.9106  0.0289 -1.5735
 7175SOL    MW428474   4.082   4.940   1.568 -0.0171 -0.0572 -0.1058
 7176SOL     OW28475   3.185   3.738   5.130 -0.7188 -0.2096 -0.1608
 7176SOL    HW228476   3.265   3.771   5.171 -0.8723  0.8737 -0.7006
 7176SOL    HW328477   3.132   3.707   5.203  0.3805 -1.4086  0.1693
 7176SOL    MW428478   3.189   3.738   5.145 -0.5940 -0.2249 -0.1885
 7177SOL     OW28479   3.071   5.564   1.861  0.3294  0.2877  0.6596
 7177SOL    HW228480   3.073   5.642   1.806 -2.7487  0.1024  0.0622
 7177SOL    HW328481   2.995   5.577   1.917 -1.0492 -2.7238 -0.2901
 7177SOL    MW428482   3.061   5.576   1.861 -0.2586 -0.1341  0.4555
 7178SOL     OW28483   4.858   3.236   3.233  0.2266  0.0396  0.4031
 7178SOL    HW228484   4.790   3.223   3.299  0.3030  0.3694  0.5441
 7178SOL    HW328485   4.897   3.149   3.221  0.0376 -0.0721  0.5978
 7178SOL    MW428486   4.854   3.223   3.240  0.2117  0.0684  0.4474
 7179SOL     OW28487   4.541   0.300   0.541 -0.0834 -0.1265 -0.3062
 7179SOL    HW228488   4.467   0.250   0.577 -1.1028  0.1103 -1.9690
 7179SOL    HW328489   4.615   0.240   0.546 -0.4239 -0.4636  1.1524
 7179SOL    MW428490   4.541   0.285   0.546 -0.2628 -0.1398 -0.3331
 7180SOL     OW28491   5.605   3.133   5.683 -0.0700 -0.0900  0.5230
 7180SOL    HW228492   5.554   3.182   5.619  0.5702  3.6508  2.5706
 7180SOL    HW328493   5.675   3.092   5.632  1.0412  3.5626 -1.2507
 7180SOL    MW428494   5.608   3.134   5.668  0.1611  0.8854  0.5592
 7181SOL     OW28495   2.522   4.040   5.449 -0.0335  0.3744  0.6430
 7181SOL    HW228496   2.566   3.956   5.444 -2.1623 -0.8236  0.9655
 7181SOL    HW328497   2.558   4.081   5.528  1.0906 -0.1487  0.4312
 7181SOL    MW428498   2.533   4.035   5.459 -0.1660  0.1473  0.6576
 7182SOL     OW28499   1.304   0.697   5.462 -0.1469  0.3983  0.5186
 7182SOL    HW228500   1.258   0.663   5.385  0.0703  1.7321 -0.2355
 7182SOL    HW328501   1.397   0.693   5.438  0.1262 -1.2777  1.6209
 7182SOL    MW428502   1.311   0.692   5.449 -0.0822  0.3531  0.5645
 7183SOL     OW28503   2.134   0.373   4.781  0.4397 -0.3355 -0.3235
 7183SOL    HW228504   2.089   0.298   4.819  0.8812 -1.8046 -2.4935
 7183SOL    HW328505   2.223   0.341   4.762  1.7758  1.8035  1.7890
 7183SOL    MW428506   2.140   0.359   4.783  0.6742 -0.2471 -0.3311
 7184SOL     OW28507   5.936   6.348   3.829  0.6310 -0.5242 -0.5998
 7184SOL    HW228508   5.916   6.306   3.913  1.7760 -0.9118 -0.5052
 7184SOL    HW328509   5.995   6.420   3.852  1.8961 -1.3387 -1.1621
 7184SOL    MW428510   5.941   6.352   3.843  0.9490 -0.6828 -0.6615
 7185SOL     OW28511   2.240   2.969   4.391 -0.5372  0.2643  0.2901
 7185SOL    HW228512   2.268   2.887   4.349 -0.0830  1.0666 -1.0330
 7185SOL    HW328513   2.261   2.957   4.483  0.4883 -0.7048 -0.0415
 7185SOL    MW428514   2.246   2.956   4.398 -0.3419  0.2423  0.0718
 7186SOL     OW28515   3.235   0.488   1.751  0.0523 -0.1723  0.0319
 7186SOL    HW228516   3.238   0.512   1.843  1.0546  2.0426 -0.5156
 7186SOL    HW328517   3.322   0.451   1.733  0.0146 -0.1907 -0.1140
 7186SOL    MW428518   3.247   0.486   1.761  0.1796  0.1175 -0.0596
 7187SOL     OW28519   0.473   2.533   0.931  0.3135  0.3346 -0.3512
 7187SOL    HW228520   0.553   2.556   0.979 -0.7664  1.0252  1.1781
 7187SOL    HW328521   0.495   2.550   0.839  1.9231  0.4836  0.0302
 7187SOL    MW428522   0.487   2.538   0.925  0.3834  0.4454 -0.0991
 7188SOL     OW28523   5.441   4.918   0.662  0.3509  0.3254 -0.0775
 7188SOL    HW228524   5.500   4.953   0.595  1.4686 -0.8747  0.2537
 7188SOL    HW328525   5.413   4.833   0.627  0.3289  0.0347  0.6370
 7188SOL    MW428526   5.445   4.911   0.648  0.4954  0.1287  0.0605
 7189SOL     OW28527   2.115   1.241   5.172 -0.5067 -0.5481  0.4684
 7189SOL    HW228528   2.195   1.285   5.145 -1.5316  1.1261 -0.0038
 7189SOL    HW328529   2.138   1.148   5.174  0.9558 -0.2881 -1.4393
 7189SOL    MW428530   2.128   1.234   5.168 -0.4489 -0.2929  0.1544
 7190SOL     OW28531   5.337   1.429   0.386  0.0542  0.5171 -0.3203
 7190SOL    HW228532   5.432   1.419   0.378  0.0381 -3.1741  1.7345
 7190SOL    HW328533   5.325   1.510   0.435  2.3033  0.1218  1.0207
 7190SOL    MW428534   5.348   1.438   0.392  0.3488 -0.0221  0.1277
 7191SOL     OW28535   3.589   3.203   2.657 -0.1579 -0.4263  0.7448
 7191SOL    HW228536   3.600   3.264   2.730 -0.0103  0.4345  0.0237
 7191SOL    HW328537   3.649   3.131   2.677  0.5987  0.2584  1.0021
 7191SOL    MW428538   3.599   3.202   2.670 -0.0386 -0.2224  0.6836
 7192SOL     OW28539   2.734   4.414   4.281  0.2746 -0.1571 -0.5816
 7192SOL    HW228540   2.719   4.499   4.322  2.6142 -0.3002  0.7431
 7192SOL    HW328541   2.678   4.353   4.330 -0.9062  0.4759 -1.1052
 7192SOL    MW428542   2.725   4.417   4.293  0.4275 -0.0924 -0.4759
 7193SOL     OW28543   6.230   5.442   1.016 -0.2887 -0.2899  0.0696
 7193SOL    HW228544   6.233   5.365   0.958 -0.5913 -1.0962  1.0899
 7193SOL    HW328545   6.212   5.406   1.103  1.8922  0.6986  1.0139
 7193SOL    MW428546   6.228   5.427   1.020 -0.0409 -0.2659  0.3288
 7194SOL     OW28547   4.882   3.977   1.503 -0.4684 -0.1530 -0.3035
 7194SOL    HW228548   4.864   3.941   1.416 -1.4278 -1.0492  0.2437
 7194SOL    HW328549   4.816   4.045   1.514 -0.3768 -0.0722 -0.2567
 7194SOL    MW428550   4.871   3.981   1.493 -0.5829 -0.2606 -0.2251
 7195SOL     OW28551   2.178   2.630   6.141 -0.0644 -0.0159  0.0383
 7195SOL    HW228552   2.253   2.672   6.183 -0.3710  0.7453 -0.1704
 7195SOL    HW328553   2.121   2.604   6.214 -0.0208  0.2174  0.1563
 7195SOL    MW428554   2.180   2.632   6.156 -0.0991  0.1153  0.0263
 7196SOL     OW28555   4.205   3.787   2.018  0.2531 -0.1742  0.6252
 7196SOL    HW228556   4.291   3.828   2.032  1.1447 -1.5652 -0.5693
 7196SOL    HW328557   4.198   3.722   2.088  0.5320 -0.6116  0.2490
 7196SOL    MW428558   4.216   3.784   2.029  0.4075 -0.4154  0.4180
 7197SOL     OW28559   6.182   5.558   2.362  0.0676 -0.8841 -0.6103
 7197SOL    HW228560   6.124   5.483   2.375  0.2206 -0.8812  0.1276
 7197SOL    HW328561   6.270   5.522   2.370  0.1579 -0.3506  1.7005
 7197SOL    MW428562   6.186   5.544   2.365  0.0997 -0.8133 -0.2081
 7198SOL     OW28563   0.790   5.324   5.028  0.1958 -0.0083  1.2142
 7198SOL    HW228564   0.720   5.390   5.035  0.5833  0.5957 -0.3311
 7198SOL    HW328565   0.866   5.373   4.997  0.2115 -1.3427 -1.0296
 7198SOL    MW428566   0.791   5.339   5.025  0.2490 -0.1046  0.7143
 7199SOL     OW28567   2.805   3.560   3.802  0.2477  0.2260 -0.1832
 7199SOL    HW228568   2.766   3.646   3.812 -2.3263 -0.8432 -0.3130
 7199SOL    HW328569   2.768   3.508   3.873  1.0424 -1.0237 -0.6365
 7199SOL    MW428570   2.795   3.564   3.813  0.0129 -0.0799 -0.2601
 7200SOL     OW28571   3.331   0.802   4.883  0.2751 -0.0985  0.3414
 7200SOL    HW228572   3.298   0.768   4.966 -0.9209 -0.0473 -0.0897
 7200SOL    HW328573   3.265   0.866   4.856  2.0507  2.0101  0.7265
 7200SOL    MW428574   3.318   0.806   4.890  0.3516  0.1865  0.3353
 7201SOL     OW28575   2.114   5.436   1.556 -0.0721  0.1099 -0.1035
 7201SOL    HW228576   2.063   5.517   1.553  0.0073  0.1473 -2.2142
 7201SOL    HW328577   2.089   5.389   1.476 -0.1133 -1.9787  1.0633
 7201SOL    MW428578   2.104   5.441   1.545 -0.0670 -0.1608 -0.2280
 7202SOL     OW28579   3.617   3.904   5.113 -0.0176 -0.2273  0.5517
 7202SOL    HW228580   3.665   3.985   5.129 -0.0387  0.0013 -0.4690
 7202SOL    HW328581   3.558   3.925   5.042 -0.3518 -1.0170  0.5870
 7202SOL    MW428582   3.616   3.918   5.106 -0.0645 -0.3013  0.4217
 7203SOL     OW28583   3.284   5.986   1.819  0.1556  0.0973  0.3894
 7203SOL    HW228584   3.344   6.057   1.842  0.0661 -0.2062  1.6256
 7203SOL    HW328585   3.196   6.024   1.829  0.1152  0.0427  0.2516
 7203SOL    MW428586   3.280   6.000   1.823  0.1385  0.0501  0.5343
 7204SOL     OW28587   4.152   2.770   0.402  0.2607  0.6508  0.1202
 7204SOL    HW228588   4.211   2.833   0.444 -0.0177  0.3049  1.0476
 7204SOL    HW328589   4.105   2.822   0.337 -0.3228  1.5397  1.2022
 7204SOL    MW428590   4.154   2.785   0.399  0.1470  0.7224  0.3853
 7205SOL     OW28591   0.469   2.185   1.476 -0.4587  0.4713 -0.2328
 7205SOL    HW228592   0.502   2.112   1.529 -0.2947  1.4903  1.1503
 7205SOL    HW328593   0.442   2.145   1.394 -0.7643 -1.2097  0.6257
 7205SOL    MW428594   0.470   2.170   1.472 -0.4774  0.3839  0.0629
 7206SOL     OW28595   3.253   1.720   1.111  0.1520  0.1584 -0.1853
 7206SOL    HW228596   3.347   1.732   1.122  0.1035  0.5165 -0.1651
 7206SOL    HW328597   3.224   1.798   1.065 -0.1503  0.0887 -0.1132
 7206SOL    MW428598   3.262   1.732   1.106  0.1057  0.1965 -0.1731
 7207SOL     OW28599   4.889   1.513   6.326 -0.3288  0.4592 -0.4861
 7207SOL    HW228600   4.851   1.496   6.240 -2.0271 -0.0576  0.3065
 7207SOL    HW328601   4.830   1.467   6.387 -2.3914  5.0482  1.4490
 7207SOL    MW428602   4.876   1.505   6.323 -0.8250  0.9965 -0.1262
 7208SOL     OW28603   0.453   4.594   3.268  0.2852  0.0184 -0.1984
 7208SOL    HW228604   0.485   4.516   3.223  0.3454 -0.1424  0.1223
 7208SOL    HW328605   0.412   4.561   3.348  1.2142  0.3997  0.4469
 7208SOL    MW428606   0.452   4.580   3.272  0.4157  0.0475 -0.0709
 7209SOL     OW28607   1.731   5.220   3.300 -0.0581  0.2502 -0.2317
 7209SOL    HW228608   1.705   5.302   3.258  0.1080 -0.1405 -1.1326
 7209SOL    HW328609   1.678   5.216   3.380 -1.9517  0.0486 -1.4159
 7209SOL    MW428610   1.720   5.230   3.305 -0.2861  0.1721 -0.5068
 7210SOL     OW28611   4.809   0.826   0.817  0.2976 -0.1138  0.2768
 7210SOL    HW228612   4.828   0.908   0.862 -0.2388 -0.7432  1.7255
 7210SOL    HW328613   4.883   0.769   0.840  0.5648 -0.1049 -0.5462
 7210SOL    MW428614   4.821   0.829   0.826  0.2621 -0.1957  0.3593
 7211SOL     OW28615   1.990   6.168   2.381 -0.0593  0.1418 -0.1443
 7211SOL    HW228616   1.935   6.157   2.303 -0.0306  1.2380 -0.3360
 7211SOL    HW328617   1.932   6.207   2.446  0.1241 -0.0269  0.1212
 7211SOL    MW428618   1.975   6.172   2.379 -0.0313  0.2642 -0.1346
 7212SOL     OW28619   2.562   0.288   4.466  0.2762 -0.2906 -0.1582
 7212SOL    HW228620   2.589   0.379   4.453  0.0897 -0.4941 -2.4010
 7212SOL    HW328621   2.631   0.249   4.519  0.4862  1.0607  0.6144
 7212SOL    MW428622   2.574   0.295   4.471  0.2793 -0.1391 -0.3522
 7213SOL     OW28623   6.035   0.930   1.966  0.0785  0.0765  0.2826
 7213SOL    HW228624   6.011   0.852   2.016 -0.2525  0.6903  1.0951
 7213SOL    HW328625   5.953   0.961   1.929  0.4818 -1.0752 -1.7239
 7213SOL    MW428626   6.021   0.924   1.968  0.0881  0.0055  0.1251
 7214SOL     OW28627   2.028   1.011   4.866 -0.3055  0.5104 -0.2986
 7214SOL    HW228628   1.977   0.963   4.930 -0.2656 -0.0174 -0.6562
 7214SOL    HW328629   2.119   0.996   4.890 -0.2901  2.5227  1.1284
 7214SOL    MW428630   2.034   1.003   4.877 -0.2982  0.7063 -0.1575
 7215SOL     OW28631   5.226   2.543   4.664  0.0696  0.6118 -0.3109
 7215SOL    HW228632   5.172   2.613   4.626  0.3464  0.5437 -0.8373
 7215SOL    HW328633   5.164   2.491   4.716 -0.5603  0.0452 -1.5731
 7215SOL    MW428634   5.211   2.545   4.665  0.0230  0.5281 -0.5469
 7216SOL     OW28635   1.768   3.266   6.389  0.3817 -0.0851 -0.3531
 7216SOL    HW228636   1.694   3.207   6.374 -0.5221  0.7530  0.6951
 7216SOL    HW328637   1.790   3.300   6.303  0.4623 -1.3991 -0.8752
 7216SOL    MW428638   1.761   3.262   6.376  0.2731 -0.1479 -0.2837
 7217SOL     OW28639   4.144   6.343   5.333  0.7416 -0.1838  0.6277
 7217SOL    HW228640   4.238   6.341   5.313  1.0324  3.8696  0.9416
 7217SOL    HW328641   4.101   6.340   5.247  1.1679 -0.9918  0.4309
 7217SOL    MW428642   4.151   6.342   5.319  0.8362  0.2444  0.6432
 7218SOL     OW28643   3.671   5.162   0.588 -0.7109 -0.1281 -0.6265
 7218SOL    HW228644   3.639   5.089   0.640 -0.3153  0.0936 -0.0572
 7218SOL    HW328645   3.712   5.121   0.512  0.8166 -0.6057  0.3948
 7218SOL    MW428646   3.672   5.147   0.585 -0.4572 -0.1618 -0.4166
 7219SOL     OW28647   2.757   2.034   0.517 -0.6855  0.2514 -0.1569
 7219SOL    HW228648   2.694   2.105   0.508  0.9086  1.6272 -1.1218
 7219SOL    HW328649   2.776   2.007   0.427 -1.3762 -1.5604  0.1999
 7219SOL    MW428650   2.751   2.040   0.504 -0.5663  0.1939 -0.2371
 7220SOL     OW28651   0.060   6.221   0.182  0.3096 -0.4088 -0.0375
 7220SOL    HW228652  -0.034   6.241   0.183  0.0957 -1.1469 -2.0803
 7220SOL    HW328653   0.073   6.169   0.103  2.5399  0.0926 -0.0536
 7220SOL    MW428654   0.049   6.217   0.172  0.5756 -0.4400 -0.3092
 7221SOL     OW28655   2.734   5.553   0.405 -0.0310  0.4975  0.6337
 7221SOL    HW228656   2.796   5.624   0.422  0.3794  0.1160  0.7603
 7221SOL    HW328657   2.704   5.526   0.492 -0.5000  0.7867  0.5648
 7221SOL    MW428658   2.738   5.559   0.419 -0.0387  0.4854  0.6413
 7222SOL     OW28659   4.080   4.741   4.345  0.1068  0.0976  0.3164
 7222SOL    HW228660   4.105   4.676   4.279  0.6058  0.5809  0.0139
 7222SOL    HW328661   3.985   4.733   4.351  0.2742 -1.5771  1.2702
 7222SOL    MW428662   4.071   4.732   4.337  0.1948 -0.0596  0.4023
 7223SOL     OW28663   0.216   4.159   3.074  0.1114  0.0291 -0.2545
 7223SOL    HW228664   0.233   4.136   3.166  0.2103  0.6300 -0.1149
 7223SOL    HW328665   0.140   4.106   3.050 -0.2494  0.2634  0.3472
 7223SOL    MW428666   0.208   4.149   3.083  0.0768  0.1393 -0.1567
 7224SOL     OW28667   3.872   2.776   3.089  0.3487 -0.2705 -0.5528
 7224SOL    HW228668   3.937   2.706   3.087  1.0312  0.3582 -0.9567
 7224SOL    HW328669   3.848   2.787   2.997  0.4260  0.1936 -0.5159
 7224SOL    MW428670   3.878   2.768   3.076  0.4490 -0.1263 -0.6012
 7225SOL     OW28671   5.968   4.946   4.592 -0.2067 -0.1675 -0.0288
 7225SOL    HW228672   5.966   5.019   4.530  0.2948  0.3995  0.6040
 7225SOL    HW328673   5.915   4.878   4.551 -1.3024  0.8213 -0.2815
 7225SOL    MW428674   5.961   4.947   4.579 -0.2851  0.0377  0.0214
 7226SOL     OW28675   0.808   6.260   4.093  0.3821 -0.1954  0.1293
 7226SOL    HW228676   0.841   6.291   4.009  0.3149 -0.3485  0.0455
 7226SOL    HW328677   0.738   6.320   4.116 -0.0522 -0.5483 -0.2504
 7226SOL    MW428678   0.803   6.272   4.085  0.3159 -0.2621  0.0682
 7227SOL     OW28679   2.841   5.118   0.355 -0.3138  0.2607 -0.2464
 7227SOL    HW228680   2.755   5.142   0.389  0.0194  1.9788 -0.5171
 7227SOL    HW328681   2.861   5.034   0.397 -2.6201 -0.8153 -1.1047
 7227SOL    MW428682   2.832   5.110   0.365 -0.5741  0.3454 -0.3954
 7228SOL     OW28683   2.569   4.454   2.495 -0.8060 -0.2095 -0.5656
 7228SOL    HW228684   2.534   4.413   2.575  0.1121  0.0594 -0.0027
 7228SOL    HW328685   2.553   4.548   2.508 -1.7268 -0.2577 -1.2565
 7228SOL    MW428686   2.562   4.461   2.507 -0.8064 -0.1804 -0.5825
 7229SOL     OW28687   1.438   2.944   4.748  0.3491  0.0553 -0.4645
 7229SOL    HW228688   1.454   2.890   4.671  2.1939  1.4457 -1.1193
 7229SOL    HW328689   1.397   3.024   4.713 -1.0347 -0.2754  0.3182
 7229SOL    MW428690   1.435   2.948   4.733  0.4099  0.1951 -0.4476
 7230SOL     OW28691   1.941   4.116   1.381 -0.1450 -0.2112 -0.5773
 7230SOL    HW228692   1.964   4.131   1.472 -0.4472  1.8168 -0.7946
 7230SOL    HW328693   2.024   4.121   1.334 -0.0936 -0.4547 -0.5155
 7230SOL    MW428694   1.955   4.119   1.387 -0.1781  0.0243 -0.5978
 7231SOL     OW28695   4.948   2.482   6.163 -0.3317  0.4782  0.0074
 7231SOL    HW228696   4.887   2.411   6.141  0.2539  0.2190 -0.8015
 7231SOL    HW328697   5.034   2.440   6.168  0.1926  1.2833 -1.5501
 7231SOL    MW428698   4.951   2.467   6.160 -0.1852  0.5502 -0.3048
 7232SOL     OW28699   5.060   2.052   3.151  0.1575  0.3052  0.0646
 7232SOL    HW228700   5.111   1.989   3.203  2.8099 -0.0640 -2.7260
 7232SOL    HW328701   5.008   1.998   3.091 -2.2486  0.7477  1.6019
 7232SOL    MW428702   5.060   2.037   3.150  0.1900  0.3149 -0.1008
 7233SOL     OW28703   3.824   5.591   4.507  0.2354 -0.6469  0.1274
 7233SOL    HW228704   3.872   5.576   4.588  1.5936  0.5352 -0.4275
 7233SOL    HW328705   3.770   5.512   4.496  0.1089 -0.8754  2.0930
 7233SOL    MW428706   3.823   5.579   4.516  0.3979 -0.5211  0.3136
 7234SOL     OW28707   5.795   0.558   0.551  0.0518  0.0283 -0.2009
 7234SOL    HW228708   5.772   0.562   0.643 -0.4141 -1.3492 -0.2364
 7234SOL    HW328709   5.711   0.561   0.504  0.3417  2.1466 -0.6738
 7234SOL    MW428710   5.781   0.559   0.557  0.0286  0.1261 -0.2679
 7235SOL     OW28711   2.944   1.623   2.419  0.8181  0.2590 -0.2050
 7235SOL    HW228712   2.920   1.602   2.329  0.6968  1.2205 -0.4143
 7235SOL    HW328713   2.870   1.592   2.471  0.7302  0.0056 -0.4770
 7235SOL    MW428714   2.931   1.616   2.414  0.7905  0.3524 -0.2685
 7236SOL     OW28715   4.978   4.806   3.812 -0.0175 -0.1589 -0.0060
 7236SOL    HW228716   4.972   4.774   3.722  1.5465 -0.2072 -0.1242
 7236SOL    HW328717   5.058   4.765   3.846 -1.2401 -1.1676  1.8429
 7236SOL    MW428718   4.988   4.796   3.805  0.0276 -0.2983  0.2223
 7237SOL     OW28719   5.262   6.138   4.208 -0.2792 -0.9433 -0.2883
 7237SOL    HW228720   5.329   6.166   4.146 -0.0743 -0.1516  0.2772
 7237SOL    HW328721   5.188   6.111   4.153 -1.0403  2.0401 -0.9019
 7237SOL    MW428722   5.261   6.138   4.193 -0.3526 -0.4452 -0.2946
 7238SOL     OW28723   3.684   0.714   3.757  0.7710 -0.4582  0.1402
 7238SOL    HW228724   3.660   0.786   3.699  2.2445 -0.8443 -1.0186
 7238SOL    HW328725   3.780   0.715   3.759  0.7889 -0.8240  2.1389
 7238SOL    MW428726   3.694   0.724   3.750  0.9678 -0.5574  0.2510
 7239SOL     OW28727   5.565   5.836   3.750  0.0075 -0.4449 -0.1987
 7239SOL    HW228728   5.546   5.851   3.843 -0.7953  0.7942 -0.5336
 7239SOL    HW328729   5.505   5.766   3.724 -1.7322  1.0470 -0.3986
 7239SOL    MW428730   5.554   5.829   3.759 -0.3279 -0.0846 -0.2692
 7240SOL     OW28731   0.887   6.418   2.360 -0.0816  0.3212 -0.3192
 7240SOL    HW228732   0.806   6.460   2.333  0.0527  0.1274 -1.0482
 7240SOL    HW328733   0.953   6.488   2.357 -0.3120  0.6155  0.8231
 7240SOL    MW428734   0.885   6.433   2.356 -0.0942  0.3345 -0.2646
 7241SOL     OW28735   0.045   0.091   0.652  0.2350  0.3757  0.2658
 7241SOL    HW228736   0.075   0.154   0.586  1.5510 -0.8029 -0.3131
 7241SOL    HW328737  -0.026   0.136   0.698 -0.0500  1.6030 -1.2958
 7241SOL    MW428738   0.040   0.105   0.649  0.3710  0.3821 -0.0166
 7242SOL     OW28739   6.387   3.092   4.170 -0.2244  0.4108  0.7455
 7242SOL    HW228740   6.408   3.160   4.105  1.0222  0.0642  0.7673
 7242SOL    HW328741   6.334   3.029   4.122  1.1052 -0.0987 -0.0988
 7242SOL    MW428742   6.383   3.093   4.155  0.1155  0.2978  0.6370
 7243SOL     OW28743   4.942   4.096   5.287  0.2423 -0.4122  0.3380
 7243SOL    HW228744   4.857   4.062   5.314  0.3891 -1.4588 -0.4543
 7243SOL    HW328745   4.938   4.190   5.306 -0.3296 -0.7804  2.2124
 7243SOL    MW428746   4.930   4.104   5.293  0.1862 -0.5989  0.4808
 7244SOL     OW28747   5.240   5.000   4.894 -0.0645 -0.1583 -0.1703
 7244SOL    HW228748   5.308   5.056   4.857 -1.6938  2.2017  0.1570
 7244SOL    HW328749   5.260   4.996   4.987  0.8379 -1.3684 -0.3876
 7244SOL    MW428750   5.251   5.007   4.901 -0.1604 -0.0066 -0.1558
 7245SOL     OW28751   0.482   0.734   3.854 -0.1524 -0.3634  0.2866
 7245SOL    HW228752   0.522   0.653   3.888  3.8456  1.0476 -0.4617
 7245SOL    HW328753   0.431   0.705   3.778 -0.6022 -2.3795  1.2820
 7245SOL    MW428754   0.481   0.719   3.848  0.3158 -0.4433  0.3192
 7246SOL     OW28755   2.301   2.654   1.482  0.4766 -0.5123  0.1620
 7246SOL    HW228756   2.325   2.704   1.405 -0.3066 -1.7374 -0.9100
 7246SOL    HW328757   2.383   2.645   1.532  0.9758  0.3180 -0.4992
 7246SOL    MW428758   2.315   2.659   1.479  0.4392 -0.5644 -0.0666
 7247SOL     OW28759   3.908   2.551   1.715  0.4657  0.1160  0.2933
 7247SOL    HW228760   3.985   2.568   1.660 -0.0690 -0.0911 -0.5374
 7247SOL    HW328761   3.916   2.459   1.739  0.5158  0.1127  0.2646
 7247SOL    MW428762   3.919   2.541   1.711  0.4017  0.0882  0.1799
 7248SOL     OW28763   1.923   0.932   2.691 -0.0651 -0.4522 -0.1855
 7248SOL    HW228764   2.012   0.964   2.679 -0.3318  0.4502  0.1143
 7248SOL    HW328765   1.896   0.967   2.776 -0.8498 -0.3714 -0.4532
 7248SOL    MW428766   1.931   0.941   2.701 -0.2038 -0.3224 -0.1812
 7249SOL     OW28767   5.800   4.225   0.121 -0.0104 -0.4719 -0.4570
 7249SOL    HW228768   5.794   4.320   0.107 -1.7833 -0.5770 -0.6714
 7249SOL    HW328769   5.855   4.215   0.199 -0.6248  0.7901  0.1601
 7249SOL    MW428770   5.807   4.236   0.129 -0.3254 -0.3193 -0.4038
 7250SOL     OW28771   2.549   0.123   0.345 -0.1200 -0.3136 -0.7223
 7250SOL    HW228772   2.633   0.078   0.351  0.0735 -0.0722 -1.5137
 7250SOL    HW328773   2.484   0.055   0.360  0.1963 -0.0841  2.5670
 7250SOL    MW428774   2.552   0.108   0.348 -0.0527 -0.2515 -0.3928
 7251SOL     OW28775   2.566   4.625   3.881  0.0380 -0.4268 -0.1454
 7251SOL    HW228776   2.583   4.543   3.928 -1.5770 -0.2085  0.8963
 7251SOL    HW328777   2.518   4.598   3.803  2.5553 -0.7706 -1.6734
 7251SOL    MW428778   2.562   4.611   3.877  0.1570 -0.4434 -0.2095
 7252SOL     OW28779   3.492   2.253   6.145  0.4806 -0.3807 -0.0128
 7252SOL    HW228780   3.430   2.189   6.112 -0.1478 -0.7923  1.8425
 7252SOL    HW328781   3.480   2.330   6.089 -2.0803 -0.2659  0.6013
 7252SOL    MW428782   3.482   2.255   6.133  0.0598 -0.4199  0.3130
 7253SOL     OW28783   4.680   3.536   0.155  0.2153  0.7554 -0.3499
 7253SOL    HW228784   4.627   3.588   0.215  0.7081  1.7268 -0.7488
 7253SOL    HW328785   4.753   3.593   0.131 -1.3244  1.4422 -3.9425
 7253SOL    MW428786   4.682   3.550   0.160  0.0772  0.9742 -0.8765
 7254SOL     OW28787   2.733   4.570   5.065 -0.1682  0.0677 -0.1275
 7254SOL    HW228788   2.651   4.553   5.018  0.0873 -0.5081 -0.3742
 7254SOL    HW328789   2.712   4.552   5.157  0.1553 -1.9281 -0.4004
 7254SOL    MW428790   2.719   4.565   5.071 -0.0918 -0.2716 -0.1960
 7255SOL     OW28791   3.461   4.968   2.864  0.5247  0.0131 -0.5256
 7255SOL    HW228792   3.411   4.943   2.941  2.3596 -1.6527  0.2095
 7255SOL    HW328793   3.544   4.921   2.873  1.0904  0.3613 -3.1410
 7255SOL    MW428794   3.466   4.959   2.875  0.8415 -0.1608 -0.7737
 7256SOL     OW28795   5.469   6.153   6.037 -0.1401  0.0502 -0.6134
 7256SOL    HW228796   5.552   6.134   5.993  2.3487 -0.0441  3.5623
 7256SOL    HW328797   5.427   6.067   6.046  1.3824 -0.6209  0.7147
 7256SOL    MW428798   5.474   6.139   6.033  0.3891 -0.0508  0.1128
 7257SOL     OW28799   5.814   2.292   3.002  0.0640 -0.4508  0.3481
 7257SOL    HW228800   5.741   2.247   3.044  0.8882 -0.9379  1.3113
 7257SOL    HW328801   5.886   2.228   3.006  1.0901  0.7085  1.1987
 7257SOL    MW428802   5.814   2.278   3.008  0.3081 -0.3621  0.5874
 7258SOL     OW28803   2.385   3.874   5.079 -0.4613 -0.2811 -0.0342
 7258SOL    HW228804   2.449   3.907   5.015 -0.7167  1.3180  0.4988
 7258SOL    HW328805   2.319   3.830   5.026  0.5737 -1.1503 -0.6658
 7258SOL    MW428806   2.385   3.872   5.064 -0.3584 -0.1848 -0.0472
 7259SOL     OW28807   0.921   1.671   3.907 -0.5983  0.1227  0.0939
 7259SOL    HW228808   0.910   1.714   3.822  1.5730  0.9857  0.2014
 7259SOL    HW328809   1.000   1.710   3.944  0.2643 -2.4515  1.1629
 7259SOL    MW428810   0.930   1.682   3.901 -0.1980 -0.1031  0.2491
 7260SOL     OW28811   1.152   1.111   5.233 -0.0790 -0.4154 -0.0104
 7260SOL    HW228812   1.151   1.048   5.305 -0.4841 -0.8260 -0.3728
 7260SOL    HW328813   1.071   1.161   5.243 -0.2343 -0.6079 -0.2993
 7260SOL    MW428814   1.141   1.109   5.244 -0.1529 -0.4950 -0.0963
 7261SOL     OW28815   1.963   0.138   4.829 -0.2192 -0.2482 -0.0531
 7261SOL    HW228816   1.994   0.090   4.907 -0.3635 -0.8215 -0.3422
 7261SOL    HW328817   1.889   0.189   4.861 -0.8494 -1.1736  0.0055
 7261SOL    MW428818   1.957   0.138   4.844 -0.3214 -0.4459 -0.0835
 7262SOL     OW28819   2.154   6.377   3.035  0.3853  0.1234  0.2846
 7262SOL    HW228820   2.232   6.324   3.052  2.0378  1.9482 -1.1329
 7262SOL    HW328821   2.131   6.356   2.944  0.4421  1.0707  0.0479
 7262SOL    MW428822   2.162   6.367   3.025  0.6108  0.4891  0.0663
 7263SOL     OW28823   1.724   3.857   1.131 -0.5738  0.3805  0.2447
 7263SOL    HW228824   1.811   3.835   1.163 -0.0254  1.1775 -0.6176
 7263SOL    HW328825   1.701   3.938   1.176 -0.6266  0.4696  0.0613
 7263SOL    MW428826   1.732   3.865   1.141 -0.5084  0.4974  0.1068
 7264SOL     OW28827   1.991   2.981   1.578  0.1588  0.5820  0.6280
 7264SOL    HW228828   1.997   2.885   1.573 -0.6486  0.5747 -1.5999
 7264SOL    HW328829   1.956   2.999   1.665  0.7156 -1.1267  1.2365
 7264SOL    MW428830   1.987   2.971   1.589  0.1257  0.3556  0.4143
 7265SOL     OW28831   5.081   2.922   3.941  0.4875 -0.0900 -0.1245
 7265SOL    HW228832   5.104   2.882   3.857  2.2627  0.7206 -0.0701
 7265SOL    HW328833   4.996   2.965   3.925  0.3361 -0.7690 -1.2066
 7265SOL    MW428834   5.072   2.923   3.928  0.7018 -0.0726 -0.2601
 7266SOL     OW28835   1.903   0.545   0.788  0.1189  0.7870  0.2490
 7266SOL    HW228836   1.970   0.476   0.786  0.2444  0.9161 -0.2004
 7266SOL    HW328837   1.945   0.618   0.834  0.0548  0.6337  0.5515
 7266SOL    MW428838   1.918   0.545   0.793  0.1270  0.7838  0.2296
 7267SOL     OW28839   0.134   0.843   2.149 -0.3841 -0.1002 -0.0097
 7267SOL    HW228840   0.114   0.890   2.230 -0.2056  1.2179 -0.6980
 7267SOL    HW328841   0.115   0.906   2.079 -0.7280 -1.2715 -1.0161
 7267SOL    MW428842   0.129   0.858   2.150 -0.4059 -0.0808 -0.2333
 7268SOL     OW28843   0.080   4.932   5.887  0.2734 -0.4822  1.0439
 7268SOL    HW228844   0.156   4.923   5.830 -0.0571 -2.1207  0.7991
 7268SOL    HW328845   0.009   4.958   5.829  0.2939 -0.5558  0.9855
 7268SOL    MW428846   0.081   4.934   5.872  0.2325 -0.7081  1.0039
 7269SOL     OW28847   5.274   2.962   5.343  0.6145 -0.4753 -0.1517
 7269SOL    HW228848   5.213   2.894   5.315  0.0812 -0.1415  0.1743
 7269SOL    HW328849   5.302   3.005   5.262 -0.0240 -0.2637 -0.2606
 7269SOL    MW428850   5.270   2.958   5.329  0.4599 -0.4033 -0.1230
 7270SOL     OW28851   0.566   2.662   4.777  0.3306 -0.0804 -0.1624
 7270SOL    HW228852   0.472   2.682   4.770  0.6000  1.1752 -0.6066
 7270SOL    HW328853   0.582   2.600   4.706  0.0554  0.6270 -0.8581
 7270SOL    MW428854   0.555   2.657   4.767  0.3299  0.1786 -0.3128
 7271SOL     OW28855   1.852   4.061   4.785  0.2318 -0.1883 -0.9237
 7271SOL    HW228856   1.807   3.993   4.736  0.8868 -1.3536  0.0276
 7271SOL    HW328857   1.849   4.138   4.729  0.3473 -1.2843 -2.4765
 7271SOL    MW428858   1.846   4.062   4.771  0.3335 -0.4866 -1.0030
 7272SOL     OW28859   0.560   1.082   4.130 -0.3428  0.4827  0.0051
 7272SOL    HW228860   0.596   1.106   4.216 -0.2090  1.0705 -0.2089
 7272SOL    HW328861   0.590   1.151   4.071  0.8319 -0.7082 -0.8373
 7272SOL    MW428862   0.568   1.094   4.134 -0.1701  0.4031 -0.1343
 7273SOL     OW28863   4.788   0.451   5.520 -0.0166 -0.3036 -0.3717
 7273SOL    HW228864   4.844   0.528   5.514  0.2524 -0.4147  0.5954
 7273SOL    HW328865   4.699   0.485   5.513  0.1421 -0.0747 -1.4304
 7273SOL    MW428866   4.784   0.466   5.518  0.0398 -0.2881 -0.3838
 7274SOL     OW28867   4.856   3.421   2.843 -0.2637  0.2780 -0.4759
 7274SOL    HW228868   4.948   3.438   2.820  0.1473 -1.4552 -0.2743
 7274SOL    HW328869   4.854   3.430   2.939  0.1748 -1.5477 -0.2591
 7274SOL    MW428870   4.868   3.425   2.853 -0.1516 -0.1916 -0.4207
 7275SOL     OW28871   6.333   0.946   3.280  0.1176  0.4224  0.0701
 7275SOL    HW228872   6.428   0.942   3.296  0.2003  1.4498 -0.1326
 7275SOL    HW328873   6.312   1.039   3.281 -0.7224  0.2556 -0.8989
 7275SOL    MW428874   6.343   0.957   3.282  0.0177  0.5359 -0.0845
 7276SOL     OW28875   0.225   0.423   5.593 -0.4574 -0.0395 -0.6333
 7276SOL    HW228876   0.262   0.365   5.659 -1.3584 -0.0443 -0.1157
 7276SOL    HW328877   0.133   0.396   5.586 -0.2276 -0.5172 -2.4025
 7276SOL    MW428878   0.218   0.412   5.601 -0.5459 -0.1032 -0.7984
 7277SOL     OW28879   5.006   2.564   0.052  0.1556 -0.1875 -0.1224
 7277SOL    HW228880   5.050   2.479   0.057 -1.0667 -0.8116  0.3935
 7277SOL    HW328881   5.027   2.597  -0.035 -0.8035 -1.8537 -1.0428
 7277SOL    MW428882   5.015   2.557   0.041 -0.1322 -0.4897 -0.1758
 7278SOL     OW28883   3.169   0.529   5.362 -0.0410  0.1862  0.2632
 7278SOL    HW228884   3.115   0.550   5.438  0.6848 -2.1977  1.5739
 7278SOL    HW328885   3.258   0.549   5.390  0.1678 -0.0082 -0.2431
 7278SOL    MW428886   3.174   0.534   5.376  0.0823 -0.1540  0.3693
 7279SOL     OW28887   1.139   0.550   0.522  0.1190  0.1921 -0.0314
 7279SOL    HW228888   1.086   0.489   0.574 -2.6898  0.6662 -2.1185
 7279SOL    HW328889   1.174   0.496   0.451 -0.4021  0.5145 -0.5433
 7279SOL    MW428890   1.137   0.535   0.520 -0.3204  0.2972 -0.3743
 7280SOL     OW28891   0.516   1.333   5.169 -0.1328 -0.3582 -0.2266
 7280SOL    HW228892   0.593   1.385   5.149  0.6790 -2.1901 -2.2836
 7280SOL    HW328893   0.538   1.286   5.249 -0.5022  1.6229  1.0990
 7280SOL    MW428894   0.529   1.333   5.177 -0.0744 -0.3385 -0.3231
 7281SOL     OW28895   4.013   6.318   2.707 -0.7118  0.5136  0.1115
 7281SOL    HW228896   4.017   6.406   2.669 -0.9380 -0.2359 -1.7364
 7281SOL    HW328897   3.955   6.327   2.782 -1.5182  1.7570 -0.6163
 7281SOL    MW428898   4.006   6.331   2.712 -0.8480  0.5788 -0.2283
 7282SOL     OW28899   6.413   3.103   1.478 -0.2005 -0.2306  0.3892
 7282SOL    HW228900   6.472   3.143   1.541  0.3271 -1.3017  0.5952
 7282SOL    HW328901   6.402   3.013   1.508 -0.8704 -0.4283 -0.3947
 7282SOL    MW428902   6.419   3.096   1.490 -0.2192 -0.3980  0.3130
 7283SOL     OW28903   5.997   0.414   1.901  0.0201  0.2634  0.6459
 7283SOL    HW228904   5.920   0.370   1.864  0.6535 -0.7532  0.4854
 7283SOL    HW328905   6.065   0.346   1.901  0.7318  0.9582  1.3851
 7283SOL    MW428906   5.996   0.399   1.896  0.1976  0.2209  0.7223
 7284SOL     OW28907   3.009   2.925   6.356  0.4197 -0.2449 -0.1526
 7284SOL    HW228908   2.929   2.876   6.334  1.0026 -0.9291 -0.7975
 7284SOL    HW328909   3.010   2.928   6.452  0.8370 -2.3413 -0.0489
 7284SOL    MW428910   2.999   2.919   6.366  0.5517 -0.6117 -0.2240
 7285SOL     OW28911   1.478   0.169   0.326 -0.5352 -0.2101 -0.1367
 7285SOL    HW228912   1.396   0.141   0.367 -1.2232  1.2046 -0.4916
 7285SOL    HW328913   1.492   0.106   0.255 -1.5418 -0.2234 -0.3356
 7285SOL    MW428914   1.469   0.157   0.322 -0.7588 -0.0252 -0.2098
 7286SOL     OW28915   6.244   1.974   0.033 -0.7077  0.2604 -0.2132
 7286SOL    HW228916   6.247   2.068   0.016 -4.0763  1.3163  3.3780
 7286SOL    HW328917   6.155   1.948   0.009  0.0339 -1.9567 -0.7717
 7286SOL    MW428918   6.233   1.983   0.028 -1.0543  0.1072  0.1870
 7287SOL     OW28919   4.766   0.111   5.448  0.5102 -0.1042 -0.0629
 7287SOL    HW228920   4.716   0.145   5.523 -1.3456  0.2716 -1.3845
 7287SOL    HW328921   4.762   0.016   5.458  1.5639 -0.0614  1.0667
 7287SOL    MW428922   4.759   0.103   5.459  0.4044 -0.0489 -0.0883
 7288SOL     OW28923   5.787   6.147   3.511 -0.4465 -0.8397 -0.2545
 7288SOL    HW228924   5.842   6.073   3.484  2.2325  0.8548  0.1214
 7288SOL    HW328925   5.788   6.143   3.607 -2.6935 -1.8878 -0.2261
 7288SOL    MW428926   5.795   6.137   3.520 -0.3895 -0.7544 -0.2012
 7289SOL     OW28927   5.584   0.192   0.757  0.0414 -0.0044  0.0863
 7289SOL    HW228928   5.494   0.194   0.790  0.3364 -2.0342  1.1826
 7289SOL    HW328929   5.636   0.160   0.830  1.4283 -0.3244 -0.9903
 7289SOL    MW428930   5.579   0.188   0.771  0.2633 -0.3145  0.0889
 7290SOL     OW28931   2.504   0.709   1.201  0.6189 -0.7787 -0.7730
 7290SOL    HW228932   2.527   0.678   1.289  0.2614 -0.1901 -0.4653
 7290SOL    HW328933   2.421   0.667   1.182  0.2196 -0.1676 -0.4262
 7290SOL    MW428934   2.496   0.700   1.210  0.5191 -0.6204 -0.6867
 7291SOL     OW28935   2.439   0.978   1.223  0.5334 -0.4616  0.2531
 7291SOL    HW228936   2.437   0.884   1.205 -0.1432 -0.5220  0.5985
 7291SOL    HW328937   2.512   0.989   1.284 -0.4269 -1.0456  1.5863
 7291SOL    MW428938   2.448   0.967   1.229  0.3175 -0.5466  0.4746
 7292SOL     OW28939   5.091   6.316   4.527 -0.2831 -0.6237  0.2599
 7292SOL    HW228940   5.024   6.378   4.499  0.1765 -0.1359  0.2222
 7292SOL    HW328941   5.166   6.334   4.470 -1.5642 -4.3265 -3.1043
 7292SOL    MW428942   5.092   6.326   4.516 -0.3915 -1.0479 -0.1889
 7293SOL     OW28943   3.244   4.924   3.062 -0.4912 -0.2582  0.2900
 7293SOL    HW228944   3.202   4.840   3.083 -0.9067 -0.3189 -0.7427
 7293SOL    HW328945   3.182   4.968   3.004 -0.6808  1.1701  1.5086
 7293SOL    MW428946   3.230   4.918   3.057 -0.5711 -0.0777  0.3145
 7294SOL     OW28947   4.683   3.395   2.397 -0.5243  0.8834  0.1295
 7294SOL    HW228948   4.717   3.443   2.473  0.1701  0.9614 -0.2217
 7294SOL    HW328949   4.750   3.330   2.378  0.4522  2.3358 -1.8078
 7294SOL    MW428950   4.696   3.393   2.404 -0.3038  1.0853 -0.1724
 7295SOL     OW28951   5.692   2.027   6.005 -0.0920  0.0857  0.2457
 7295SOL    HW228952   5.768   2.012   5.949  0.4216  0.4850  0.8103
 7295SOL    HW328953   5.729   2.029   6.094 -1.2355 -3.3235  0.9284
 7295SOL    MW428954   5.707   2.026   6.009 -0.1751 -0.3114  0.4103
 7296SOL     OW28955   2.039   2.282   3.950 -0.5555  0.3038  0.4400
 7296SOL    HW228956   1.974   2.240   4.006 -1.2045  0.1073 -0.4459
 7296SOL    HW328957   2.118   2.228   3.961 -1.5421 -1.5998 -1.1673
 7296SOL    MW428958   2.041   2.269   3.959 -0.7713  0.0267  0.1111
 7297SOL     OW28959   5.787   1.159   2.099  0.5036  0.5347 -0.0038
 7297SOL    HW228960   5.721   1.203   2.153 -1.5320 -3.0912  0.7882
 7297SOL    HW328961   5.825   1.093   2.158  0.9716 -1.0172 -1.9599
 7297SOL    MW428962   5.783   1.156   2.114  0.2968 -0.1484 -0.1574
 7298SOL     OW28963   2.018   4.002   4.986 -0.5103  0.8063 -0.1230
 7298SOL    HW228964   1.962   4.017   4.910 -0.9980  0.5691  0.1886
 7298SOL    HW328965   1.980   4.057   5.055 -1.3588 -0.5911  0.5717
 7298SOL    MW428966   2.006   4.012   4.985 -0.6866  0.5906  0.0098
 7299SOL     OW28967   3.664   4.794   2.919  0.2893 -0.3716  0.0535
 7299SOL    HW228968   3.638   4.705   2.898 -3.0564  0.1551  1.2881
 7299SOL    HW328969   3.721   4.785   2.995  0.7719 -1.4777 -0.4197
 7299SOL    MW428970   3.668   4.781   2.926 -0.0884 -0.4481  0.1539
 7300SOL     OW28971   1.286   3.118   4.588  0.1420 -0.1775  0.3868
 7300SOL    HW228972   1.316   3.203   4.556 -2.6876  0.4641 -0.8350
 7300SOL    HW328973   1.286   3.062   4.510 -0.5027 -0.5368  0.6400
 7300SOL    MW428974   1.290   3.122   4.574 -0.3164 -0.1403  0.2590
 7301SOL     OW28975   4.416   1.332   3.858 -0.1695  0.0200 -0.3127
 7301SOL    HW228976   4.449   1.421   3.862 -0.0708 -0.0065 -0.5246
 7301SOL    HW328977   4.470   1.289   3.791 -1.0210  0.1415 -1.1060
 7301SOL    MW428978   4.427   1.338   3.850 -0.2688  0.0325 -0.4454
 7302SOL     OW28979   2.333   6.431   5.406 -0.1956 -0.9169  0.0503
 7302SOL    HW228980   2.404   6.486   5.372 -1.0567  2.1025  2.6126
 7302SOL    HW328981   2.378   6.361   5.453  0.9884 -1.4780 -1.8298
 7302SOL    MW428982   2.348   6.429   5.408 -0.1530 -0.5926  0.1403
 7303SOL     OW28983   1.363   1.594   5.348 -0.0103 -0.2304  0.4302
 7303SOL    HW228984   1.344   1.519   5.291  1.6964  0.0020 -0.5142
 7303SOL    HW328985   1.333   1.566   5.434 -2.3858 -0.7167 -0.4854
 7303SOL    MW428986   1.357   1.580   5.352 -0.0985 -0.2639  0.1848
 7304SOL     OW28987   4.770   5.824   0.374  0.1996 -0.0791 -0.7339
 7304SOL    HW228988   4.820   5.745   0.354 -1.0255 -1.3927  1.0342
 7304SOL    HW328989   4.798   5.848   0.463  1.1614  2.0441 -1.5198
 7304SOL    MW428990   4.781   5.817   0.383  0.1649  0.0277 -0.6043
 7305SOL     OW28991   4.660   3.904   3.431  0.5201 -0.0441  0.3361
 7305SOL    HW228992   4.742   3.878   3.473 -0.4241 -1.1766  1.5528
 7305SOL    HW328993   4.598   3.835   3.455 -0.9652  1.1180 -0.0244
 7305SOL    MW428994   4.663   3.892   3.439  0.1996 -0.0402  0.4490
 7306SOL     OW28995   2.522   0.655   1.504 -0.6269  0.6224  0.2900
 7306SOL    HW228996   2.477   0.737   1.524 -1.6687 -0.1721  1.3664
 7306SOL    HW328997   2.506   0.600   1.580  1.3152 -0.0828  0.2394
 7306SOL    MW428998   2.514   0.659   1.516 -0.5081  0.4245  0.4253
 7307SOL     OW28999   0.963   3.669   1.418 -0.6712 -0.0732  0.0626
 7307SOL    HW229000   0.917   3.665   1.502  0.6106 -0.9156  0.7430
 7307SOL    HW329001   1.044   3.620   1.431 -0.5911 -0.5290 -1.7785
 7307SOL    MW429002   0.968   3.662   1.430 -0.4915 -0.2444 -0.0906
 7308SOL     OW29003   2.248   5.154   0.815  0.1262 -0.3438 -0.4137
 7308SOL    HW229004   2.162   5.195   0.817 -0.1485 -0.9266 -0.0968
 7308SOL    HW329005   2.277   5.154   0.907 -0.4347 -1.9970 -0.2000
 7308SOL    MW429006   2.241   5.159   0.828  0.0160 -0.6388 -0.3437
 7309SOL     OW29007   4.438   5.960   6.392 -0.3080 -0.1952 -0.5988
 7309SOL    HW229008   4.488   6.042   6.401  0.4714 -0.4612 -2.0985
 7309SOL    HW329009   4.504   5.894   6.370 -0.9835 -1.1489  0.1931
 7309SOL    MW429010   4.454   5.962   6.390 -0.2943 -0.3561 -0.6922
 7310SOL     OW29011   0.503   1.330   4.890 -0.3921 -0.0021  0.0752
 7310SOL    HW229012   0.488   1.307   4.981  1.0265 -0.2906  0.2472
 7310SOL    HW329013   0.431   1.391   4.869 -1.1758 -0.5350  1.1326
 7310SOL    MW429014   0.491   1.335   4.899 -0.3083 -0.1105  0.2374
 7311SOL     OW29015   5.195   4.556   2.363  0.6365  0.4664  0.3601
 7311SOL    HW229016   5.154   4.633   2.326  0.0936  0.4116  0.8370
 7311SOL    HW329017   5.226   4.584   2.450  2.7459  0.8677 -0.4553
 7311SOL    MW429018   5.194   4.570   2.370  0.8432  0.5121  0.3154
 7312SOL     OW29019   3.750   0.617   3.307  0.0709 -0.6172  0.2076
 7312SOL    HW229020   3.731   0.673   3.232 -0.1689  0.7125  1.2096
 7312SOL    HW329021   3.672   0.623   3.362  0.4653 -1.0940  0.8393
 7312SOL    MW429022   3.737   0.625   3.305  0.0913 -0.5047  0.4231
 7313SOL     OW29023   1.100   1.672   4.479  0.1027  0.1667 -0.3593
 7313SOL    HW229024   1.090   1.630   4.394 -2.7527  0.5952 -0.3101
 7313SOL    HW329025   1.016   1.662   4.522  1.0219  1.2002  1.8730
 7313SOL    MW429026   1.088   1.665   4.474 -0.1528  0.3596 -0.0583
 7314SOL     OW29027   5.189   4.033   3.365  0.0073  0.0971  0.2734
 7314SOL    HW229028   5.209   4.004   3.454  0.7515  0.1624  0.1354
 7314SOL    HW329029   5.251   3.985   3.310  1.1011  1.7684  0.0079
 7314SOL    MW429030   5.200   4.023   3.369  0.2498  0.3262  0.2202
 7315SOL     OW29031   6.415   3.651   5.832  0.0093 -0.5607 -0.3840
 7315SOL    HW229032   6.416   3.723   5.895 -0.3911  0.2022 -1.2183
 7315SOL    HW329033   6.367   3.581   5.876  0.0380 -0.1665  0.2833
 7315SOL    MW429034   6.409   3.651   5.846 -0.0397 -0.4081 -0.4060
 7316SOL     OW29035   1.147   3.543   5.259 -0.2963 -0.0346  0.1909
 7316SOL    HW229036   1.125   3.604   5.189 -1.6057 -0.8905 -0.1895
 7316SOL    HW329037   1.125   3.457   5.224  1.7358 -0.7732  0.6327
 7316SOL    MW429038   1.141   3.540   5.245 -0.2010 -0.2450  0.1990
 7317SOL     OW29039   5.403   5.098   3.970 -0.2251 -0.0476  0.0158
 7317SOL    HW229040   5.347   5.176   3.966  1.9067  1.6399  1.0269
 7317SOL    HW329041   5.379   5.047   3.892 -1.2913  1.9044 -1.0176
 7317SOL    MW429042   5.392   5.102   3.959 -0.0845  0.4326  0.0128
 7318SOL     OW29043   4.157   4.084   5.980  0.4673  0.2476  0.1322
 7318SOL    HW229044   4.248   4.083   5.952  0.4519  0.2636  0.0803
 7318SOL    HW329045   4.112   4.023   5.921  0.5455 -0.1851  0.5168
 7318SOL    MW429046   4.163   4.076   5.969  0.4756  0.1926  0.1761
 7319SOL     OW29047   2.237   0.609   4.359 -0.8723 -0.3201  0.4708
 7319SOL    HW229048   2.147   0.637   4.379 -0.1639  2.0536  0.5624
 7319SOL    HW329049   2.279   0.603   4.444 -0.7979 -1.0287  0.3940
 7319SOL    MW429050   2.231   0.612   4.373 -0.7690 -0.1004  0.4727
 7320SOL     OW29051   0.236   0.621   2.361 -0.0948  0.2103  0.9561
 7320SOL    HW229052   0.168   0.568   2.321  0.0503  0.8758 -0.2365
 7320SOL    HW329053   0.222   0.709   2.325  2.7416 -0.0587 -1.2149
 7320SOL    MW429054   0.225   0.626   2.351  0.2986  0.2626  0.5123
 7321SOL     OW29055   5.439   2.055   5.101  0.0905  0.5674  0.4429
 7321SOL    HW229056   5.517   2.049   5.047  0.7948  0.1113  1.4763
 7321SOL    HW329057   5.397   2.137   5.074  0.1316  0.1028 -1.1238
 7321SOL    MW429058   5.444   2.065   5.090  0.1888  0.4459  0.3725
 7322SOL     OW29059   4.740   1.524   0.413  1.1939  0.0299  0.0346
 7322SOL    HW229060   4.707   1.449   0.462  1.1091  0.2522  0.3230
 7322SOL    HW329061   4.670   1.589   0.418  1.0892 -0.0329 -0.5889
 7322SOL    MW429062   4.727   1.523   0.420  1.1689  0.0510 -0.0096
 7323SOL     OW29063   1.345   5.341   4.139 -0.4363 -0.0972 -0.6514
 7323SOL    HW229064   1.280   5.299   4.194 -0.7983 -0.5075 -1.3796
 7323SOL    HW329065   1.310   5.334   4.050  0.6289 -0.3926 -1.0667
 7323SOL    MW429066   1.332   5.335   4.134 -0.3435 -0.1903 -0.8022
 7324SOL     OW29067   4.175   1.366   0.979 -0.7621 -0.3017  0.4570
 7324SOL    HW229068   4.261   1.374   1.019 -1.4828  4.9451  1.6365
 7324SOL    HW329069   4.117   1.336   1.049 -0.4138 -1.0615  0.4294
 7324SOL    MW429070   4.178   1.363   0.993 -0.8113  0.2903  0.6090
 7325SOL     OW29071   2.311   3.860   1.136 -0.3562  0.1531  0.0533
 7325SOL    HW229072   2.376   3.792   1.119 -2.4164 -2.0646  0.5077
 7325SOL    HW329073   2.267   3.872   1.052  0.3797  1.4050 -0.1721
 7325SOL    MW429074   2.314   3.852   1.123 -0.5309  0.0257  0.0835
 7326SOL     OW29075   2.367   3.710   0.172 -0.4161  0.6169  0.0892
 7326SOL    HW229076   2.355   3.630   0.223 -0.6586  0.6541  0.0915
 7326SOL    HW329077   2.339   3.780   0.230  0.8813  0.8099  0.4956
 7326SOL    MW429078   2.361   3.708   0.186 -0.2769  0.6473  0.1431
 7327SOL     OW29079   1.301   1.843   1.333  0.0666 -0.0980  0.0977
 7327SOL    HW229080   1.207   1.831   1.320 -0.2070  2.0658 -0.3033
 7327SOL    HW329081   1.339   1.757   1.317 -1.9468 -1.3466  1.5619
 7327SOL    MW429082   1.294   1.830   1.329 -0.2351  0.0228  0.2380
 7328SOL     OW29083   0.372   2.912   1.958 -0.6535  0.1527 -0.2336
 7328SOL    HW229084   0.301   2.889   2.019  1.0852 -0.3465  1.7261
 7328SOL    HW329085   0.446   2.934   2.015  1.1059 -0.4198 -2.1848
 7328SOL    MW429086   0.372   2.912   1.974 -0.1919  0.0113 -0.2325
 7329SOL     OW29087   2.719   0.330   0.961  0.2729  0.4081  0.4786
 7329SOL    HW229088   2.813   0.321   0.980  0.1447 -0.7281  0.6464
 7329SOL    HW329089   2.678   0.334   1.047  0.1886  1.1533  0.4033
 7329SOL    MW429090   2.726   0.329   0.975  0.2449  0.3565  0.4908
 7330SOL     OW29091   6.372   3.674   1.822  0.2051 -0.0583  0.1417
 7330SOL    HW229092   6.346   3.764   1.844 -0.7112 -0.0804 -0.7677
 7330SOL    HW329093   6.334   3.621   1.892 -3.4633 -0.2266 -1.7178
 7330SOL    MW429094   6.363   3.679   1.834 -0.3998 -0.0834 -0.2236
 7331SOL     OW29095   0.860   6.278   0.236 -0.3578 -0.1301 -0.1247
 7331SOL    HW229096   0.846   6.372   0.229 -1.3251 -0.2542  0.0630
 7331SOL    HW329097   0.954   6.269   0.254 -0.4521  0.8437  0.9242
 7331SOL    MW429098   0.871   6.289   0.237 -0.4979 -0.0180  0.0385
 7332SOL     OW29099   0.432   5.217   5.103  0.2893  0.5186 -0.5927
 7332SOL    HW229100   0.503   5.152   5.099  1.5219  1.6984  0.8219
 7332SOL    HW329101   0.390   5.211   5.018 -1.3262 -3.8984  0.2753
 7332SOL    MW429102   0.436   5.208   5.091  0.2388  0.0915 -0.2915
 7333SOL     OW29103   2.783   0.208   4.632 -0.5802 -0.1663 -0.4544
 7333SOL    HW229104   2.866   0.241   4.596 -0.9458  1.7336  0.3585
 7333SOL    HW329105   2.805   0.121   4.665  1.5106  0.8896  1.1691
 7333SOL    MW429106   2.797   0.201   4.631 -0.3526  0.2237 -0.1329
 7334SOL     OW29107   1.139   5.574   0.396 -0.5958 -0.5955  0.6553
 7334SOL    HW229108   1.112   5.605   0.309  0.2946  0.8128  0.8567
 7334SOL    HW329109   1.174   5.486   0.380 -1.0383 -0.6092 -0.3105
 7334SOL    MW429110   1.140   5.567   0.382 -0.5367 -0.4115  0.5545
 7335SOL     OW29111   0.037   3.132   0.222 -0.5309 -0.3039 -0.0116
 7335SOL    HW229112   0.092   3.210   0.234 -0.8903  0.0152 -0.4320
 7335SOL    HW329113  -0.011   3.149   0.141 -2.7426  0.3202  1.3364
 7335SOL    MW429114   0.038   3.145   0.213 -0.8701 -0.1795  0.1108
 7336SOL     OW29115   0.414   2.225   5.495  0.0418  0.1325 -0.4068
 7336SOL    HW229116   0.503   2.262   5.502 -0.1556  0.4194  0.6716
 7336SOL    HW329117   0.385   2.214   5.585 -0.6694 -0.8505 -0.7389
 7336SOL    MW429118   0.422   2.229   5.508 -0.0781  0.0407 -0.3084
 7337SOL     OW29119   6.021   3.906   1.882  0.0256 -0.0933  0.1828
 7337SOL    HW229120   6.105   3.950   1.898 -0.3779  0.7489 -0.0076
 7337SOL    HW329121   6.046   3.820   1.847  0.8225 -0.1812  0.9268
 7337SOL    MW429122   6.036   3.901   1.879  0.0775  0.0062  0.2558
 7338SOL     OW29123   2.432   3.870   5.832  0.3139  0.2383  0.1510
 7338SOL    HW229124   2.471   3.956   5.846 -0.7131  0.9858 -1.3681
 7338SOL    HW329125   2.370   3.860   5.905  0.1901  0.9433  0.1543
 7338SOL    MW429126   2.429   3.880   5.844  0.1621  0.4299 -0.0490
 7339SOL     OW29127   4.423   6.178   3.592  0.1044 -0.0787 -0.0561
 7339SOL    HW229128   4.344   6.125   3.600  0.6313 -1.0571 -1.0704
 7339SOL    HW329129   4.392   6.268   3.582 -0.8255 -0.2780  0.9579
 7339SOL    MW429130   4.409   6.183   3.592  0.0513 -0.2341 -0.0562
 7340SOL     OW29131   1.510   6.299   5.134 -0.4359  0.2384  0.2912
 7340SOL    HW229132   1.545   6.211   5.131 -1.0145  0.0105  0.0810
 7340SOL    HW329133   1.556   6.346   5.064 -1.2117 -0.3129 -0.6151
 7340SOL    MW429134   1.521   6.294   5.125 -0.6146  0.1356  0.1439
 7341SOL     OW29135   5.903   3.195   1.517  0.2676 -0.2291 -0.0500
 7341SOL    HW229136   5.853   3.233   1.445  1.1953  0.9681 -0.1049
 7341SOL    HW329137   5.875   3.244   1.594 -0.3498 -1.1602  0.3324
 7341SOL    MW429138   5.893   3.207   1.517  0.3085 -0.1940 -0.0068
 7342SOL     OW29139   2.322   5.825   5.166 -0.0205 -0.1969  0.0067
 7342SOL    HW229140   2.261   5.779   5.108 -3.5519 -2.9167  5.0966
 7342SOL    HW329141   2.399   5.769   5.169  0.6930  0.5255 -2.5631
 7342SOL    MW429142   2.324   5.811   5.159 -0.3923 -0.4605  0.3392
 7343SOL     OW29143   3.260   4.120   1.893  0.3361  0.0386  0.5419
 7343SOL    HW229144   3.233   4.040   1.850 -0.0021 -0.0470  0.9150
 7343SOL    HW329145   3.282   4.094   1.982  0.7453  0.2675  0.5144
 7343SOL    MW429146   3.260   4.106   1.899  0.3454  0.0575  0.5875
 7344SOL     OW29147   0.919   0.426   5.633 -0.2534  0.1373 -0.2446
 7344SOL    HW229148   0.937   0.371   5.557  0.1079 -0.2873  0.1418
 7344SOL    HW329149   1.001   0.472   5.649  0.5372 -1.7168  1.4537
 7344SOL    MW429150   0.932   0.425   5.625 -0.1014 -0.1634  0.0304
 7345SOL     OW29151   1.026   5.208   3.351 -0.2880  0.2748 -0.0820
 7345SOL    HW229152   0.969   5.142   3.310  0.1319 -0.8520  1.0839
 7345SOL    HW329153   1.033   5.180   3.442  1.5822  0.7820 -0.0431
 7345SOL    MW429154   1.019   5.196   3.357  0.0142  0.1930  0.0769
 7346SOL     OW29155   2.785   5.393   2.226  0.5773  0.4077  0.2723
 7346SOL    HW229156   2.876   5.369   2.242  0.1766 -1.5032 -0.0236
 7346SOL    HW329157   2.756   5.333   2.157 -0.8632  1.0674  0.2628
 7346SOL    MW429158   2.793   5.382   2.219  0.3344  0.2426  0.2320
 7347SOL     OW29159   4.049   5.642   4.700  0.1189  0.3991  0.3518
 7347SOL    HW229160   4.056   5.570   4.762  0.3974  1.0710  1.1258
 7347SOL    HW329161   4.120   5.627   4.637  1.8084  1.3041  1.9344
 7347SOL    MW429162   4.059   5.631   4.700  0.3786  0.6072  0.6627
 7348SOL     OW29163   2.365   2.483   2.116  0.2513  0.1957  0.0556
 7348SOL    HW229164   2.439   2.456   2.171  0.3201 -1.8177 -0.9356
 7348SOL    HW329165   2.307   2.530   2.176  1.2311 -0.2163  1.3839
 7348SOL    MW429166   2.367   2.486   2.132  0.3896 -0.1243  0.1001
 7349SOL     OW29167   2.614   5.265   2.012  0.1922 -0.2459 -0.7401
 7349SOL    HW229168   2.532   5.222   1.988  0.1155 -0.0248 -0.8681
 7349SOL    HW329169   2.680   5.196   2.001 -0.1285 -0.8263  0.6191
 7349SOL    MW429170   2.612   5.250   2.008  0.1398 -0.2933 -0.5777
 7350SOL     OW29171   4.895   3.147   0.561 -0.5724  0.0783  0.0124
 7350SOL    HW229172   4.892   3.061   0.519  2.2802 -0.3017  0.3816
 7350SOL    HW329173   4.902   3.127   0.654 -0.9875  0.7561  0.1933
 7350SOL    MW429174   4.896   3.133   0.568 -0.2508  0.1176  0.0850
 7351SOL     OW29175   3.092   5.549   2.326 -0.2756 -0.0338 -0.1086
 7351SOL    HW229176   3.163   5.593   2.375 -0.0419 -0.8054  0.2656
 7351SOL    HW329177   3.085   5.463   2.367 -1.0058 -0.1988 -0.5671
 7351SOL    MW429178   3.101   5.544   2.338 -0.3411 -0.1573 -0.1197
 7352SOL     OW29179   1.585   2.839   3.904  0.0141  0.1159 -0.1706
 7352SOL    HW229180   1.584   2.770   3.970  0.6322  1.2054  1.0167
 7352SOL    HW329181   1.676   2.842   3.874  0.0625  0.6371  0.0264
 7352SOL    MW429182   1.597   2.830   3.908  0.1020  0.3284  0.0121
 7353SOL     OW29183   2.257   4.548   2.255 -0.1777  0.1100  0.0705
 7353SOL    HW229184   2.228   4.557   2.164 -0.2848 -1.6684 -0.0964
 7353SOL    HW329185   2.190   4.593   2.306 -0.5400  0.4235 -0.6701
 7353SOL    MW429186   2.245   4.555   2.250 -0.2396 -0.0833 -0.0493
 7354SOL     OW29187   2.211   4.223   2.019  0.5635  0.5488 -0.2401
 7354SOL    HW229188   2.204   4.220   2.114 -0.5528 -3.0806 -0.2809
 7354SOL    HW329189   2.137   4.278   1.991  0.2784  0.8019  0.9491
 7354SOL    MW429190   2.200   4.230   2.028  0.3786  0.1033 -0.0885
 7355SOL     OW29191   5.182   1.008   1.759  0.7608  0.5254  0.2600
 7355SOL    HW229192   5.247   1.007   1.689  1.3072  1.5771  0.7355
 7355SOL    HW329193   5.155   1.099   1.767 -1.0794  0.0604 -0.1795
 7355SOL    MW429194   5.187   1.020   1.751  0.5901  0.6028  0.2648
 7356SOL     OW29195   0.390   2.624   2.203  0.0992  0.1053 -0.2559
 7356SOL    HW229196   0.459   2.596   2.142  0.5987 -0.3113  0.4885
 7356SOL    HW329197   0.423   2.705   2.241 -0.3989  0.5871 -0.8410
 7356SOL    MW429198   0.403   2.631   2.200  0.0994  0.1139 -0.2349
 7357SOL     OW29199   1.827   2.582   3.948 -0.4528  0.3839  0.3481
 7357SOL    HW229200   1.905   2.543   3.987 -0.4533 -1.2068 -1.1277
 7357SOL    HW329201   1.767   2.594   4.022  0.5334 -0.0187  1.2324
 7357SOL    MW429202   1.829   2.578   3.963 -0.3228  0.1209  0.2701
 7358SOL     OW29203   5.946   2.966   4.703 -0.3003  0.6589  0.5294
 7358SOL    HW229204   5.948   2.909   4.780 -0.1583  0.9160  0.7212
 7358SOL    HW329205   5.983   2.913   4.632  0.2416  0.6571  0.8053
 7358SOL    MW429206   5.951   2.952   4.704 -0.2100  0.6926  0.5911
 7359SOL     OW29207   5.894   2.928   1.725  0.2558 -0.2525  0.1315
 7359SOL    HW229208   5.875   2.902   1.816  0.9204  0.2282  0.4108
 7359SOL    HW329209   5.966   2.990   1.732 -0.5730  0.8412 -0.6215
 7359SOL    MW429210   5.901   2.932   1.738  0.2341 -0.0448  0.0690
 7360SOL     OW29211   0.766   0.633   2.849  0.2874  0.2799 -0.0335
 7360SOL    HW229212   0.706   0.603   2.781  0.7997  0.0528 -0.3888
 7360SOL    HW329213   0.776   0.727   2.832 -0.6072  0.4886  0.5300
 7360SOL    MW429214   0.760   0.642   2.838  0.2369  0.2774 -0.0060
 7361SOL     OW29215   3.528   1.665   6.214 -0.3543  0.5050  0.4541
 7361SOL    HW229216   3.601   1.727   6.214  1.3220 -1.3489  0.2377
 7361SOL    HW329217   3.510   1.649   6.307 -0.6237  1.1129  0.5084
 7361SOL    MW429218   3.535   1.671   6.226 -0.1687  0.3406  0.4327
 7362SOL     OW29219   0.168   4.122   4.393 -0.1581  0.0196  0.8749
 7362SOL    HW229220   0.217   4.058   4.444  0.5934  0.1313  0.3050
 7362SOL    HW329221   0.216   4.204   4.405  1.4996 -0.4352 -1.9816
 7362SOL    MW429222   0.181   4.125   4.401  0.1597 -0.0257  0.4229
 7363SOL     OW29223   5.774   4.470   1.999 -0.2829  0.3124 -0.3160
 7363SOL    HW229224   5.791   4.381   1.968 -0.1099 -0.3757  1.6476
 7363SOL    HW329225   5.776   4.464   2.094 -2.0942  2.0791 -0.0922
 7363SOL    MW429226   5.777   4.458   2.008 -0.4991  0.4547 -0.0274
 7364SOL     OW29227   3.872   4.517   1.225 -0.8801 -0.2465 -0.3178
 7364SOL    HW229228   3.788   4.545   1.188 -1.6643  0.3586  1.7995
 7364SOL    HW329229   3.856   4.428   1.258 -0.0964 -0.9094 -1.6479
 7364SOL    MW429230   3.859   4.509   1.224 -0.8802 -0.2542 -0.2139
 7365SOL     OW29231   5.694   5.117   6.160  0.0631  0.1580 -0.3351
 7365SOL    HW229232   5.751   5.039   6.164 -0.9125 -0.7262 -2.0899
 7365SOL    HW329233   5.755   5.190   6.151  0.9917 -0.4889  0.5203
 7365SOL    MW429234   5.710   5.116   6.159  0.0569 -0.0440 -0.4538
 7366SOL     OW29235   3.679   5.388   1.396 -0.1612  0.2714 -0.4239
 7366SOL    HW229236   3.646   5.314   1.448  0.9626  0.5996  0.8453
 7366SOL    HW329237   3.656   5.465   1.447  0.6377  0.6360 -0.5967
 7366SOL    MW429238   3.672   5.388   1.410  0.0925  0.3628 -0.2793
 7367SOL     OW29239   6.024   3.774   3.088 -0.6642  0.2239 -0.6470
 7367SOL    HW229240   6.025   3.771   2.992  0.3942  0.6358 -0.6513
 7367SOL    HW329241   6.115   3.781   3.113 -0.8662 -0.6927  0.4311
 7367SOL    MW429242   6.036   3.774   3.078 -0.5512  0.1573 -0.5054
 7368SOL     OW29243   1.521   4.527   0.984 -0.2203 -0.3356 -0.3926
 7368SOL    HW229244   1.450   4.546   0.923 -0.5928  0.6762  0.3218
 7368SOL    HW329245   1.547   4.613   1.018  2.0690 -0.5529 -1.4094
 7368SOL    MW429246   1.515   4.541   0.981  0.0326 -0.2308 -0.4325
 7369SOL     OW29247   6.211   4.318   5.258 -0.1697 -0.0740  0.0030
 7369SOL    HW229248   6.242   4.266   5.184 -1.8389 -0.4901 -0.4611
 7369SOL    HW329249   6.285   4.373   5.282  0.4987 -0.1037 -1.8330
 7369SOL    MW429250   6.225   4.318   5.251 -0.3017 -0.1328 -0.3005
 7370SOL     OW29251   5.420   2.680   4.194  0.8755 -0.0910 -0.0854
 7370SOL    HW229252   5.489   2.746   4.191 -0.5798  1.4479 -2.2460
 7370SOL    HW329253   5.429   2.632   4.112 -1.2567  0.8969 -0.9587
 7370SOL    MW429254   5.431   2.682   4.183  0.4022  0.2424 -0.4857
 7371SOL     OW29255   5.858   1.215   3.295 -0.1369  0.2078 -0.5058
 7371SOL    HW229256   5.919   1.200   3.367  1.8381  0.1137 -2.1095
 7371SOL    HW329257   5.869   1.308   3.274  0.3003 -0.0535 -1.5025
 7371SOL    MW429258   5.868   1.226   3.302  0.1814  0.1609 -0.8489
 7372SOL     OW29259   6.264   1.036   4.533  0.4675 -0.7076 -0.1398
 7372SOL    HW229260   6.291   1.128   4.528  2.2356 -1.1721  0.1465
 7372SOL    HW329261   6.274   1.014   4.626  1.4164 -1.5511 -0.4251
 7372SOL    MW429262   6.269   1.045   4.545  0.8260 -0.8802 -0.1396
 7373SOL     OW29263   4.747   0.938   1.885 -0.1687  0.0368  0.0876
 7373SOL    HW229264   4.752   0.854   1.839  0.6161  0.0761  0.0929
 7373SOL    HW329265   4.797   0.924   1.965  0.6695  0.7471 -0.2935
 7373SOL    MW429266   4.754   0.925   1.889  0.0454  0.1357  0.0380
 7374SOL     OW29267   5.653   0.295   1.535 -0.3309  0.1582 -0.0634
 7374SOL    HW229268   5.669   0.214   1.486 -0.8437 -0.2470  0.4371
 7374SOL    HW329269   5.562   0.290   1.562 -0.1134  0.4831  0.7595
 7374SOL    MW429270   5.643   0.284   1.532 -0.3699  0.1476  0.1112
 7375SOL     OW29271   3.726   1.869   6.233 -0.2086 -0.0923  0.0797
 7375SOL    HW229272   3.701   1.902   6.319  0.3343  1.0502 -0.1707
 7375SOL    HW329273   3.703   1.940   6.173  0.1147 -0.5667 -0.6239
 7375SOL    MW429274   3.719   1.883   6.236 -0.0943 -0.0042 -0.0462
 7376SOL     OW29275   1.113   5.967   4.307 -0.0055 -0.3479 -0.0270
 7376SOL    HW229276   1.190   5.974   4.251 -0.5560 -0.4231 -0.8083
 7376SOL    HW329277   1.060   5.898   4.267 -0.1030 -0.8655  0.9643
 7376SOL    MW429278   1.116   5.959   4.294 -0.0910 -0.4261  0.0007
 7377SOL     OW29279   2.463   2.657   4.971  1.2478  0.0355  0.2822
 7377SOL    HW229280   2.482   2.579   5.024 -1.3985 -0.6220  0.4181
 7377SOL    HW329281   2.386   2.696   5.013  1.6262  1.9216 -0.6571
 7377SOL    MW429282   2.455   2.652   4.984  0.9486  0.1976  0.1762
 7378SOL     OW29283   5.886   0.964   1.614 -0.0771 -0.4871 -0.4590
 7378SOL    HW229284   5.865   0.944   1.705 -1.3198 -1.4301 -0.9244
 7378SOL    HW329285   5.937   0.889   1.584 -3.1089 -2.2676 -1.6482
 7378SOL    MW429286   5.890   0.952   1.622 -0.6411 -0.8465 -0.6773
 7379SOL     OW29287   6.371   4.433   4.821  0.1192 -0.1119  0.2507
 7379SOL    HW229288   6.438   4.498   4.840 -0.8449  1.2111 -0.6050
 7379SOL    HW329289   6.292   4.467   4.863 -0.7605  0.1053 -1.4515
 7379SOL    MW429290   6.369   4.446   4.829 -0.1241  0.0913 -0.0868
 7380SOL     OW29291   1.458   0.658   1.043  0.1666 -0.4693  0.2315
 7380SOL    HW229292   1.509   0.735   1.017  0.8065 -1.1098 -0.4424
 7380SOL    HW329293   1.397   0.645   0.971  0.9928 -1.4018 -0.3296
 7380SOL    MW429294   1.457   0.667   1.030  0.3601 -0.6769  0.0686
 7381SOL     OW29295   0.373   5.539   2.864 -0.0889 -0.0846 -0.3378
 7381SOL    HW229296   0.429   5.562   2.790 -0.1843  2.0395  0.1862
 7381SOL    HW329297   0.433   5.507   2.931  0.4650  1.5138 -0.0348
 7381SOL    MW429298   0.388   5.538   2.863 -0.0284  0.4065 -0.2287
 7382SOL     OW29299   0.844   0.820   2.367  0.0465  0.7842  0.5134
 7382SOL    HW229300   0.874   0.773   2.445 -0.5269 -0.3864  0.0574
 7382SOL    HW329301   0.850   0.912   2.390  0.5334  0.4688  1.6988
 7382SOL    MW429302   0.848   0.826   2.380  0.0351  0.5881  0.6097
 7383SOL     OW29303   4.244   5.554   4.519 -0.1322 -0.5431 -0.1617
 7383SOL    HW229304   4.200   5.472   4.498 -0.6068 -0.1433 -0.7372
 7383SOL    HW329305   4.308   5.530   4.587  1.0225 -1.7615 -1.6081
 7383SOL    MW429306   4.247   5.540   4.525 -0.0425 -0.6511 -0.4284
 7384SOL     OW29307   4.932   5.230   6.101 -0.0852 -0.1632  0.0596
 7384SOL    HW229308   4.948   5.154   6.046 -0.3242  0.1348 -0.4220
 7384SOL    HW329309   4.958   5.305   6.047  0.2445  0.0934  0.5650
 7384SOL    MW429310   4.938   5.230   6.087 -0.0732 -0.0900  0.0628
 7385SOL     OW29311   1.129   3.064   3.866 -0.2484  0.1565 -0.6526
 7385SOL    HW229312   1.193   3.002   3.831 -1.9299 -1.4570 -1.0718
 7385SOL    HW329313   1.086   3.100   3.788  0.6437  1.8557 -0.4088
 7385SOL    MW429314   1.132   3.060   3.851 -0.3525  0.1678 -0.6757
 7386SOL     OW29315   5.787   0.232   1.794 -0.0368  0.6798 -0.8747
 7386SOL    HW229316   5.722   0.195   1.734 -0.0565  0.1061 -0.5103
 7386SOL    HW329317   5.782   0.176   1.872  1.6323 -0.0535 -1.2394
 7386SOL    MW429318   5.778   0.220   1.796  0.1809  0.5074 -0.8748
 7387SOL     OW29319   2.059   3.311   4.901 -0.8870  0.2924 -0.0490
 7387SOL    HW229320   2.090   3.393   4.940 -0.5972  0.4108 -0.5153
 7387SOL    HW329321   1.980   3.335   4.853  0.1695  0.6846 -1.6915
 7387SOL    MW429322   2.053   3.325   4.900 -0.7094  0.3598 -0.3272
 7388SOL     OW29323   5.644   0.076   1.368 -0.5326 -0.1790 -0.0071
 7388SOL    HW229324   5.707   0.058   1.298 -0.2021 -0.3257  0.3222
 7388SOL    HW329325   5.620  -0.010   1.401 -0.9439 -0.1247 -0.1583
 7388SOL    MW429326   5.649   0.062   1.363 -0.5432 -0.1912  0.0164
 7389SOL     OW29327   5.429   1.333   4.270  0.4267  0.3076  0.5286
 7389SOL    HW229328   5.348   1.286   4.247  0.3049  0.4702  0.6258
 7389SOL    HW329329   5.451   1.301   4.357  2.0253 -1.8766 -0.5783
 7389SOL    MW429330   5.421   1.323   4.279  0.6215  0.0409  0.3954
 7390SOL     OW29331   2.580   0.217   1.755  0.3928  0.0863 -0.2439
 7390SOL    HW229332   2.672   0.194   1.740  0.2871 -0.1433 -0.5371
 7390SOL    HW329333   2.535   0.133   1.759  0.2980  0.1731  0.5765
 7390SOL    MW429334   2.587   0.203   1.754  0.3663  0.0675 -0.1743
 7391SOL     OW29335   2.850   2.620   0.116 -0.4248 -0.2260  0.3764
 7391SOL    HW229336   2.786   2.598   0.183 -0.5793 -2.1375 -0.3551
 7391SOL    HW329337   2.812   2.587   0.034  1.0197 -0.4538 -0.2303
 7391SOL    MW429338   2.836   2.613   0.114 -0.2546 -0.5083  0.1998
 7392SOL     OW29339   4.492   4.558   6.000  0.9717 -0.3598  0.3818
 7392SOL    HW229340   4.542   4.591   6.075  0.7310  1.0113 -0.0364
 7392SOL    HW329341   4.489   4.631   5.939 -0.6156 -0.7580 -0.0748
 7392SOL    MW429342   4.498   4.572   6.002  0.7306 -0.2314  0.2664
 7393SOL     OW29343   6.257   5.491   0.525 -0.1997 -0.0105 -0.7703
 7393SOL    HW229344   6.322   5.516   0.591 -1.3088 -0.3811  0.5114
 7393SOL    HW329345   6.221   5.574   0.495  0.5427  0.1764 -1.1686
 7393SOL    MW429346   6.261   5.505   0.530 -0.2481 -0.0347 -0.6537
 7394SOL     OW29347   4.054   2.359   4.991  0.0331 -0.2039  0.0069
 7394SOL    HW229348   3.962   2.370   5.016  0.2532 -0.3142  0.8732
 7394SOL    HW329349   4.065   2.418   4.916 -0.4881  0.5655  0.5186
 7394SOL    MW429350   4.043   2.368   4.984 -0.0066 -0.1170  0.1887
 7395SOL     OW29351   3.408   2.919   5.598 -0.1789 -0.2911  0.3023
 7395SOL    HW229352   3.460   2.845   5.628 -0.7866 -0.2870  1.3956
 7395SOL    HW329353   3.341   2.931   5.665 -1.2377  0.0753 -0.7742
 7395SOL    MW429354   3.406   2.911   5.610 -0.3988 -0.2422  0.3045
 7396SOL     OW29355   5.195   0.291   1.377  0.1107  0.7206 -0.2948
 7396SOL    HW229356   5.212   0.382   1.351  0.0180  0.9609  0.4744
 7396SOL    HW329357   5.162   0.250   1.298  1.3721  1.0263 -1.0184
 7396SOL    MW429358   5.193   0.298   1.363  0.2649  0.7926 -0.2888
 7397SOL     OW29359   4.624   6.065   1.840  0.2717 -0.5405  0.3380
 7397SOL    HW229360   4.667   6.133   1.788  0.7981 -0.0627  1.3714
 7397SOL    HW329361   4.670   6.066   1.924 -0.1884 -1.6825  0.6254
 7397SOL    MW429362   4.636   6.074   1.844  0.2805 -0.6281  0.5122
 7398SOL     OW29363   0.354   0.519   1.992  0.2224  0.2129 -0.0878
 7398SOL    HW229364   0.353   0.601   1.943  0.6173 -0.1805 -0.7760
 7398SOL    HW329365   0.347   0.546   2.083 -1.6091  0.9119 -0.3901
 7398SOL    MW429366   0.353   0.533   1.997  0.0328  0.2532 -0.2185
 7399SOL     OW29367   2.419   5.539   0.904 -0.0275  0.0112  0.2481
 7399SOL    HW229368   2.345   5.581   0.947  0.5864  0.8594  0.5112
 7399SOL    HW329369   2.460   5.487   0.973 -0.5232 -0.6658  0.0371
 7399SOL    MW429370   2.415   5.538   0.919 -0.0119  0.0338  0.2550
 7400SOL     OW29371   1.321   0.670   0.049  0.0490  0.1169  0.0861
 7400SOL    HW229372   1.342   0.756   0.010 -1.6764  1.0975  1.1926
 7400SOL    HW329373   1.280   0.621  -0.022 -0.3214  0.7779 -0.1654
 7400SOL    MW429374   1.318   0.675   0.034 -0.2275  0.3335  0.1989
 7401SOL     OW29375   4.792   1.966   4.368  0.3111  0.3334  0.7707
 7401SOL    HW229376   4.884   1.940   4.361  0.6516  1.8564 -3.3117
 7401SOL    HW329377   4.796   2.060   4.390 -0.3737  0.1256  1.8512
 7401SOL    MW429378   4.805   1.975   4.370  0.2657  0.5069  0.3746
 7402SOL     OW29379   3.354   5.249   3.181 -0.2811  0.3545 -0.3322
 7402SOL    HW229380   3.328   5.309   3.252 -1.1584 -1.5265  1.0392
 7402SOL    HW329381   3.402   5.179   3.226 -1.8206 -1.4702 -1.3628
 7402SOL    MW429382   3.357   5.248   3.196 -0.6000 -0.1344 -0.2873
 7403SOL     OW29383   3.524   2.166   1.737 -0.2386  0.1357 -0.5004
 7403SOL    HW229384   3.485   2.119   1.810  0.4750 -1.2647 -0.9876
 7403SOL    HW329385   3.597   2.111   1.708  0.6392  1.5513 -1.0999
 7403SOL    MW429386   3.528   2.153   1.743 -0.0286  0.1377 -0.6438
 7404SOL     OW29387   1.307   3.009   2.846  0.0023 -0.0021  0.4937
 7404SOL    HW229388   1.341   2.985   2.760  1.9668 -1.1056  1.5170
 7404SOL    HW329389   1.215   3.030   2.830 -0.4513 -2.9129 -1.4490
 7404SOL    MW429390   1.299   3.009   2.833  0.2016 -0.5318  0.3724
 7405SOL     OW29391   3.570   3.418   0.173 -0.2930  0.2133 -0.4599
 7405SOL    HW229392   3.646   3.437   0.118 -0.1732  0.5415 -0.1803
 7405SOL    HW329393   3.520   3.499   0.175 -1.1407 -0.2521 -1.3926
 7405SOL    MW429394   3.573   3.431   0.166 -0.3890  0.1952 -0.5461
 7406SOL     OW29395   1.344   5.602   4.762  0.3593 -0.0425 -0.0669
 7406SOL    HW229396   1.437   5.623   4.769 -0.0034  1.2025  1.4851
 7406SOL    HW329397   1.299   5.686   4.773 -0.9530 -0.5457 -1.2759
 7406SOL    MW429398   1.350   5.616   4.764  0.1383  0.0554 -0.0216
 7407SOL     OW29399   1.325   2.066   1.494  0.1480  0.2700  0.1442
 7407SOL    HW229400   1.326   2.035   1.584  2.6818  0.3883  0.2316
 7407SOL    HW329401   1.332   1.987   1.440  1.0903  0.3247  0.1684
 7407SOL    MW429402   1.326   2.052   1.499  0.6066  0.2928  0.1589
 7408SOL     OW29403   5.842   5.459   1.415  0.1150  0.1251  0.0326
 7408SOL    HW229404   5.849   5.448   1.320 -1.8929  0.3085 -0.1753
 7408SOL    HW329405   5.887   5.383   1.451  2.7274  1.0664 -0.9611
 7408SOL    MW429406   5.849   5.447   1.407  0.1947  0.2735 -0.1259
 7409SOL     OW29407   0.112   5.724   2.057 -0.2807  0.6490 -0.9516
 7409SOL    HW229408   0.158   5.698   2.137 -1.5199  0.9234 -0.1261
 7409SOL    HW329409   0.182   5.735   1.992  0.9286  1.8443  0.4582
 7409SOL    MW429410   0.127   5.722   2.059 -0.2846  0.8429 -0.6567
 7410SOL     OW29411   4.626   0.467   3.539  0.5763  0.3286 -0.8030
 7410SOL    HW229412   4.545   0.440   3.495  0.6014 -1.1522  0.0172
 7410SOL    HW329413   4.663   0.386   3.574  0.5409  1.4082  1.9902
 7410SOL    MW429414   4.620   0.453   3.537  0.5750  0.2756 -0.3263
 7411SOL     OW29415   5.747   0.157   0.024 -0.0746 -0.3843  0.1624
 7411SOL    HW229416   5.675   0.205  -0.016  0.1426 -0.7076 -0.6463
 7411SOL    HW329417   5.706   0.081   0.064 -0.3835  0.3074  1.1963
 7411SOL    MW429418   5.732   0.153   0.024 -0.0867 -0.3357  0.1921
 7412SOL     OW29419   6.434   6.030   0.780  0.0297 -0.0619  0.5705
 7412SOL    HW229420   6.498   6.086   0.735  0.0576 -0.6556 -0.1521
 7412SOL    HW329421   6.443   6.053   0.872  2.5195 -1.3447  0.7286
 7412SOL    MW429422   6.444   6.041   0.786  0.3619 -0.3095  0.4960
 7413SOL     OW29423   3.930   0.325   2.902 -0.2915 -0.4853 -0.1392
 7413SOL    HW229424   3.842   0.291   2.883  0.2164 -1.3373 -1.1054
 7413SOL    HW329425   3.987   0.279   2.840  1.0162 -0.8666  1.2919
 7413SOL    MW429426   3.926   0.314   2.891 -0.0520 -0.6481 -0.0778
 7414SOL     OW29427   3.257   2.305   5.418  0.3310 -0.1510 -0.0903
 7414SOL    HW229428   3.222   2.357   5.346  0.1872 -0.3718 -0.1824
 7414SOL    HW329429   3.215   2.340   5.496  0.4564  0.0620 -0.1158
 7414SOL    MW429430   3.247   2.316   5.419  0.3285 -0.1520 -0.1058
 7415SOL     OW29431   2.103   1.341   1.757  0.3842  0.0937  0.4785
 7415SOL    HW229432   2.117   1.356   1.850 -2.7813  3.5505  0.6493
 7415SOL    HW329433   2.046   1.265   1.753  3.9289 -2.8767  0.8345
 7415SOL    MW429434   2.097   1.333   1.769  0.4343  0.1578  0.5480
 7416SOL     OW29435   0.279   0.428   1.029 -0.1211  0.2780 -0.0646
 7416SOL    HW229436   0.212   0.460   0.970 -0.5997  0.5561  0.6229
 7416SOL    HW329437   0.353   0.407   0.972  0.9239  4.2739 -0.4299
 7416SOL    MW429438   0.280   0.429   1.014 -0.0464  0.8419 -0.0221
 7417SOL     OW29439   2.303   0.648   5.487 -0.4229 -0.1592 -0.4836
 7417SOL    HW229440   2.314   0.736   5.450  0.6849 -0.3741 -0.6982
 7417SOL    HW329441   2.340   0.655   5.576  0.8118 -0.6992 -0.9297
 7417SOL    MW429442   2.309   0.661   5.494 -0.1138 -0.2588 -0.5708
 7418SOL     OW29443   2.656   5.266   5.566  0.2257 -0.4369 -0.4209
 7418SOL    HW229444   2.741   5.228   5.589  0.7776  0.3370 -1.1324
 7418SOL    HW329445   2.665   5.291   5.474 -0.5387  0.2995 -0.3075
 7418SOL    MW429446   2.668   5.264   5.557  0.1976 -0.2377 -0.4998
 7419SOL     OW29447   5.389   5.723   2.386 -0.1121  0.0987  0.4060
 7419SOL    HW229448   5.328   5.650   2.371 -1.0695  0.9959 -0.1911
 7419SOL    HW329449   5.398   5.765   2.300 -0.2269  1.1763  0.9029
 7419SOL    MW429450   5.382   5.719   2.373 -0.2535  0.3593  0.3928
 7420SOL     OW29451   0.911   5.500   2.276 -0.2377 -0.3602 -0.1723
 7420SOL    HW229452   0.896   5.518   2.183 -0.2119  0.4012 -0.0320
 7420SOL    HW329453   0.879   5.410   2.288 -0.4408 -0.3871 -0.8683
 7420SOL    MW429454   0.905   5.491   2.265 -0.2611 -0.2633 -0.2456
 7421SOL     OW29455   1.794   6.258   2.563 -0.0972  0.0885  0.5813
 7421SOL    HW229456   1.753   6.296   2.485 -0.1047  0.2266  0.6529
 7421SOL    HW329457   1.726   6.203   2.601  0.2869 -0.9422 -0.1790
 7421SOL    MW429458   1.780   6.256   2.558 -0.0475 -0.0292  0.4905
 7422SOL     OW29459   4.673   2.827   5.709 -0.2665  0.7162  0.1686
 7422SOL    HW229460   4.706   2.751   5.661 -0.5146  1.0257 -0.5036
 7422SOL    HW329461   4.744   2.891   5.705 -1.1365  1.6114 -1.8057
 7422SOL    MW429462   4.687   2.825   5.702 -0.4140  0.8751 -0.1806
 7423SOL     OW29463   1.568   0.263   1.978 -0.2007  0.8433  0.4639
 7423SOL    HW229464   1.579   0.301   2.065  0.0177 -0.3618  0.9894
 7423SOL    HW329465   1.627   0.313   1.921  1.1225  0.3850  1.4072
 7423SOL    MW429466   1.577   0.275   1.982  0.0027  0.6238  0.6577
 7424SOL     OW29467   5.670   2.878   4.999  0.1904  0.3984 -0.0165
 7424SOL    HW229468   5.587   2.837   5.021  0.7587 -1.2283 -0.7458
 7424SOL    HW329469   5.720   2.875   5.081  0.7442 -1.7547 -0.3640
 7424SOL    MW429470   5.666   2.872   5.013  0.3385 -0.1003 -0.1586
 7425SOL     OW29471   4.576   4.946   6.258  0.3938  0.2763 -0.2891
 7425SOL    HW229472   4.601   4.949   6.351  1.3501 -0.4252 -0.5149
 7425SOL    HW329473   4.584   5.036   6.228 -1.3811  0.7999  0.6712
 7425SOL    MW429474   4.580   4.958   6.267  0.2858  0.2528 -0.1922
 7426SOL     OW29475   5.972   1.573   5.601  0.3920  0.2879  0.6491
 7426SOL    HW229476   5.883   1.563   5.633  1.0053 -0.6995  2.1505
 7426SOL    HW329477   5.998   1.661   5.628  0.1128  0.3093  0.8499
 7426SOL    MW429478   5.964   1.583   5.609  0.4361  0.1604  0.8737
 7427SOL     OW29479   2.031   3.430   3.465  0.0592  0.0981  0.1585
 7427SOL    HW229480   2.071   3.386   3.390 -0.8570 -0.4161 -0.0327
 7427SOL    HW329481   1.937   3.423   3.450 -0.1290  1.9929  0.1962
 7427SOL    MW429482   2.024   3.424   3.453 -0.0865  0.2803  0.1382
 7428SOL     OW29483   6.160   4.622   6.004  0.4041 -0.4665  0.2809
 7428SOL    HW229484   6.209   4.601   6.083  1.1519  0.8633  0.2125
 7428SOL    HW329485   6.227   4.629   5.936  0.2125  1.6629  0.2404
 7428SOL    MW429486   6.176   4.621   6.005  0.4775 -0.0101  0.2665
 7429SOL     OW29487   2.667   4.553   0.898 -0.2841  0.2948  0.2840
 7429SOL    HW229488   2.681   4.568   0.804 -0.6846  0.1568  0.2007
 7429SOL    HW329489   2.659   4.641   0.935  1.0365  0.3949  0.3790
 7429SOL    MW429490   2.668   4.567   0.891 -0.1627  0.2898  0.2855
 7430SOL     OW29491   6.003   1.545   4.906  0.5941  0.8111  0.1074
 7430SOL    HW229492   5.913   1.567   4.884 -1.1357 -2.6661  2.8283
 7430SOL    HW329493   6.034   1.619   4.958 -0.6560  2.0432 -0.8398
 7430SOL    MW429494   5.995   1.558   4.910  0.2009  0.5149  0.3414
 7431SOL     OW29495   1.151   5.698   6.384  0.2932 -0.1395 -0.3429
 7431SOL    HW229496   1.078   5.741   6.340 -1.7621 -0.5332  2.4869
 7431SOL    HW329497   1.186   5.764   6.444  2.4441  0.0744 -1.6816
 7431SOL    MW429498   1.146   5.713   6.386  0.3058 -0.1632 -0.1461
 7432SOL     OW29499   4.065   0.093   2.402  0.1506 -0.1915  0.2021
 7432SOL    HW229500   4.067   0.014   2.348 -0.8374 -0.6363  0.7957
 7432SOL    HW329501   4.123   0.154   2.356  2.6686 -1.9454  0.8404
 7432SOL    MW429502   4.073   0.090   2.388  0.3525 -0.4816  0.3646
 7433SOL     OW29503   1.602   5.003   6.035 -0.3349 -0.3836  0.0319
 7433SOL    HW229504   1.684   5.051   6.049 -0.6689  0.3062 -0.3290
 7433SOL    HW329505   1.534   5.059   6.072 -0.8307 -0.1290 -1.2069
 7433SOL    MW429506   1.604   5.017   6.041 -0.4444 -0.2590 -0.1792
 7434SOL     OW29507   5.124   2.269   1.247  0.6323 -0.2049  0.4350
 7434SOL    HW229508   5.071   2.189   1.255  0.4326 -0.0735  0.4298
 7434SOL    HW329509   5.087   2.329   1.311  1.3035 -0.4006  1.0140
 7434SOL    MW429510   5.112   2.266   1.256  0.6945 -0.2134  0.5107
 7435SOL     OW29511   3.356   4.506   4.098 -0.2727 -0.2374 -0.2702
 7435SOL    HW229512   3.339   4.434   4.038 -0.6283 -0.1323 -0.2953
 7435SOL    HW329513   3.399   4.573   4.045  0.8921 -0.7852 -0.0517
 7435SOL    MW429514   3.360   4.506   4.083 -0.1659 -0.2958 -0.2447
 7436SOL     OW29515   0.217   6.408   4.586 -0.3600 -0.4490 -0.4355
 7436SOL    HW229516   0.189   6.323   4.618 -1.5451  0.4410  1.0394
 7436SOL    HW329517   0.141   6.440   4.536 -1.1939  1.0049  1.6314
 7436SOL    MW429518   0.203   6.401   4.583 -0.6264 -0.1398  0.0318
 7437SOL     OW29519   2.564   5.307   4.169  0.5266  0.1169  0.4110
 7437SOL    HW229520   2.488   5.341   4.122  0.2169  0.0745  0.8764
 7437SOL    HW329521   2.594   5.381   4.223  0.7983  0.1252  0.2502
 7437SOL    MW429522   2.558   5.322   4.170  0.5216  0.1124  0.4512
 7438SOL     OW29523   5.167   0.055   1.209 -0.6632 -0.5022  0.2824
 7438SOL    HW229524   5.153   0.010   1.126  0.0455 -0.1189 -0.0513
 7438SOL    HW329525   5.240   0.115   1.192 -1.6286  0.8499  0.6812
 7438SOL    MW429526   5.175   0.057   1.196 -0.6971 -0.2732  0.2910
 7439SOL     OW29527   5.892   3.210   0.852 -0.1683  0.1343 -0.3291
 7439SOL    HW229528   5.922   3.160   0.928  0.2166  0.1758 -0.4482
 7439SOL    HW329529   5.798   3.222   0.865  0.2659  2.2937  1.4198
 7439SOL    MW429530   5.884   3.205   0.864 -0.0603  0.4247 -0.1140
 7440SOL     OW29531   3.714   6.340   3.931  0.5529 -0.2429 -0.3111
 7440SOL    HW229532   3.760   6.423   3.942  1.8349 -0.9475 -0.0317
 7440SOL    HW329533   3.741   6.288   4.007 -0.4312 -0.8256 -0.3440
 7440SOL    MW429534   3.724   6.344   3.943  0.5922 -0.4127 -0.2785
 7441SOL     OW29535   4.207   5.670   1.265  0.4627  0.3701 -0.3846
 7441SOL    HW229536   4.123   5.628   1.283  0.2166  1.1162  0.2876
 7441SOL    HW329537   4.189   5.731   1.194  0.5301  0.2573 -0.5001
 7441SOL    MW429538   4.194   5.672   1.258  0.4391  0.4536 -0.3112
 7442SOL     OW29539   0.633   4.006   3.268  0.5592  0.3323 -0.1163
 7442SOL    HW229540   0.548   3.968   3.291  1.1834 -0.7469  0.4364
 7442SOL    HW329541   0.631   4.093   3.308 -0.4408  0.4733 -0.4426
 7442SOL    MW429542   0.621   4.013   3.276  0.5096  0.2085 -0.0864
 7443SOL     OW29543   3.029   4.110   4.236  0.4693  0.3715 -0.2032
 7443SOL    HW229544   2.942   4.093   4.272  1.5217 -0.6145  2.0514
 7443SOL    HW329545   3.065   4.023   4.220  0.5650  0.7702 -2.4998
 7443SOL    MW429546   3.022   4.096   4.239  0.6208  0.2940 -0.2088
 7444SOL     OW29547   1.834   5.201   2.846  0.0531 -0.2845 -0.3049
 7444SOL    HW229548   1.740   5.193   2.833  0.1080 -1.0239 -0.3127
 7444SOL    HW329549   1.849   5.165   2.934  0.3187 -0.0894 -0.2692
 7444SOL    MW429550   1.824   5.195   2.856  0.0954 -0.3563 -0.3012
 7445SOL     OW29551   3.197   1.984   0.124 -0.3196 -0.1305 -0.0922
 7445SOL    HW229552   3.253   2.048   0.080  1.2967 -1.0228  0.5794
 7445SOL    HW329553   3.175   2.024   0.208 -1.7817  0.7442 -0.8476
 7445SOL    MW429554   3.202   1.997   0.129 -0.2993 -0.1328 -0.1033
 7446SOL     OW29555   2.234   4.891   5.006 -0.0264  0.5521  0.0998
 7446SOL    HW229556   2.278   4.933   5.080  0.3733  0.5941 -0.1571
 7446SOL    HW329557   2.303   4.879   4.941 -0.5742  1.4041 -0.6607
 7446SOL    MW429558   2.249   4.895   5.007 -0.0459  0.6700 -0.0345
 7447SOL     OW29559   0.608   3.933   5.794 -0.0733  0.4232 -0.8937
 7447SOL    HW229560   0.550   3.921   5.719 -1.5609  0.5887  0.1696
 7447SOL    HW329561   0.575   4.012   5.837 -0.2196 -0.4787  0.7440
 7447SOL    MW429562   0.596   3.942   5.790 -0.2889  0.3260 -0.5373
 7448SOL     OW29563   3.008   1.180   4.516 -0.3933 -0.0557  0.4960
 7448SOL    HW229564   3.085   1.133   4.484 -1.7390 -1.6072 -0.6269
 7448SOL    HW329565   2.969   1.220   4.438 -1.1709 -0.0122  0.8918
 7448SOL    MW429566   3.013   1.179   4.502 -0.6735 -0.2546  0.4001
 7449SOL     OW29567   2.910   2.455   3.354 -0.3229 -0.3197 -0.1943
 7449SOL    HW229568   3.005   2.457   3.353 -0.3187 -0.3966  0.0877
 7449SOL    HW329569   2.887   2.419   3.440 -0.6269  2.7022  1.1501
 7449SOL    MW429570   2.919   2.451   3.365 -0.3625  0.0689  0.0203
 7450SOL     OW29571   4.418   4.047   3.588 -0.7010 -0.1291  0.0815
 7450SOL    HW229572   4.451   4.136   3.573  1.5298 -0.6477  1.4708
 7450SOL    HW329573   4.496   3.992   3.587 -1.9137 -1.9362  0.4304
 7450SOL    MW429574   4.433   4.051   3.586 -0.5666 -0.4359  0.3108
 7451SOL     OW29575   5.735   4.271   2.883  0.5262  0.1273  0.4052
 7451SOL    HW229576   5.825   4.264   2.915  0.1421 -1.8330  1.2486
 7451SOL    HW329577   5.682   4.231   2.952 -0.7154 -1.0276 -1.1357
 7451SOL    MW429578   5.740   4.265   2.896  0.3117 -0.2837  0.3132
 7452SOL     OW29579   3.043   5.272   1.772  0.3167  0.5660  0.2356
 7452SOL    HW229580   2.974   5.287   1.707 -0.2016 -0.7795  0.4500
 7452SOL    HW329581   3.059   5.358   1.810  0.7974  1.4385 -1.8086
 7452SOL    MW429582   3.036   5.285   1.768  0.3117  0.5036 -0.0058
 7453SOL     OW29583   0.794   3.345   5.148 -0.3646  0.4768 -0.3371
 7453SOL    HW229584   0.799   3.291   5.069  1.7725  0.3540 -0.1952
 7453SOL    HW329585   0.736   3.297   5.206  2.4805 -2.5766  0.3161
 7453SOL    MW429586   0.787   3.331   5.145  0.2927  0.0577 -0.2322
 7454SOL     OW29587   4.519   3.966   5.510  0.5937 -0.1087  0.1695
 7454SOL    HW229588   4.445   3.917   5.472  1.5906 -1.6171  0.0684
 7454SOL    HW329589   4.494   3.980   5.601  0.3708 -1.0093  0.2545
 7454SOL    MW429590   4.506   3.961   5.517  0.6958 -0.4265  0.1674
 7455SOL     OW29591   3.980   5.742   3.865  0.7864  0.4442 -0.1109
 7455SOL    HW229592   3.923   5.705   3.798  0.2613 -0.4698  0.8078
 7455SOL    HW329593   4.069   5.727   3.832  0.6555 -2.5817  0.6268
 7455SOL    MW429594   3.984   5.735   3.852  0.6999 -0.0756  0.1077
 7456SOL     OW29595   4.236   5.800   1.506 -0.3672  0.3088 -0.0781
 7456SOL    HW229596   4.311   5.856   1.485 -0.0031 -0.1777 -0.0965
 7456SOL    HW329597   4.222   5.747   1.428 -0.9175  0.5991 -0.1807
 7456SOL    MW429598   4.244   5.800   1.493 -0.3918  0.2829 -0.0941
 7457SOL     OW29599   1.771   3.424   0.813 -0.3646 -0.0715 -0.1964
 7457SOL    HW229600   1.728   3.477   0.746  1.9863 -0.9376 -2.5950
 7457SOL    HW329601   1.756   3.471   0.894 -0.9968  2.6016 -1.7323
 7457SOL    MW429602   1.763   3.437   0.815 -0.1378  0.1669 -0.7155
 7458SOL     OW29603   2.147   2.386   4.754 -0.0439 -0.3657  0.0720
 7458SOL    HW229604   2.066   2.409   4.708 -0.3266  1.1342  1.2277
 7458SOL    HW329605   2.152   2.449   4.826  1.7073 -0.9979  0.5526
 7458SOL    MW429606   2.137   2.398   4.757  0.1499 -0.2512  0.2879
 7459SOL     OW29607   0.978   5.072   0.882 -0.5121  0.5942 -0.4687
 7459SOL    HW229608   0.908   5.018   0.920  0.3992 -1.3820 -1.4160
 7459SOL    HW329609   1.058   5.041   0.926  0.3830 -0.7835 -2.8513
 7459SOL    MW429610   0.980   5.061   0.893 -0.2738  0.1517 -0.9080
 7460SOL     OW29611   2.546   5.424   3.286 -0.3900  0.3297  0.0914
 7460SOL    HW229612   2.479   5.359   3.263  0.3834 -0.9277  1.2860
 7460SOL    HW329613   2.497   5.495   3.328 -0.9700 -0.7954  1.4025
 7460SOL    MW429614   2.531   5.425   3.289 -0.3645  0.0154  0.4220
 7461SOL     OW29615   0.069   6.028   6.418  0.2216  0.0838 -0.5953
 7461SOL    HW229616  -0.011   6.041   6.367 -0.8937 -0.4948  0.9200
 7461SOL    HW329617   0.070   5.934   6.437 -0.2525  0.4714  1.6834
 7461SOL    MW429618   0.059   6.017   6.414  0.0119  0.0586 -0.0947
 7462SOL     OW29619   3.942   0.878   4.331 -0.1841  0.4216  0.2144
 7462SOL    HW229620   3.850   0.903   4.320 -0.0996  0.6184 -0.0555
 7462SOL    HW329621   3.976   0.872   4.242  0.1745  0.7711  0.3227
 7462SOL    MW429622   3.935   0.881   4.318 -0.1256  0.4937  0.1930
 7463SOL     OW29623   1.966   4.760   3.513 -0.0477  0.2832  0.2941
 7463SOL    HW229624   1.893   4.822   3.516 -0.9037 -0.5620 -1.2762
 7463SOL    HW329625   1.924   4.674   3.525  1.0189 -0.0625  1.7564
 7463SOL    MW429626   1.951   4.757   3.515 -0.0199  0.1261  0.2798
 7464SOL     OW29627   1.254   4.726   0.568  0.2666  0.2105  0.3084
 7464SOL    HW229628   1.278   4.642   0.529  0.1174 -0.2327  1.1652
 7464SOL    HW329629   1.168   4.745   0.531 -0.4484 -0.8338  1.3645
 7464SOL    MW429630   1.246   4.718   0.558  0.1526  0.0142  0.5608
 7465SOL     OW29631   2.158   1.097   2.620 -0.2331  0.0313  0.2758
 7465SOL    HW229632   2.161   1.190   2.641  0.1668 -0.5588  3.2288
 7465SOL    HW329633   2.223   1.057   2.678 -1.8387 -2.3166  0.5880
 7465SOL    MW429634   2.167   1.104   2.630 -0.3922 -0.3564  0.7066
 7466SOL     OW29635   5.743   2.113   6.295 -0.2132  1.0155  0.2078
 7466SOL    HW229636   5.740   2.126   6.390 -0.0779  0.1776  0.3291
 7466SOL    HW329637   5.722   2.199   6.259 -1.4295  1.0752  1.0002
 7466SOL    MW429638   5.740   2.126   6.303 -0.3559  0.9128  0.3283
 7467SOL     OW29639   6.396   3.596   2.661  0.2271  0.1668  0.2312
 7467SOL    HW229640   6.349   3.678   2.644 -1.2431 -0.7266 -0.2563
 7467SOL    HW329641   6.327   3.535   2.687  0.9685 -1.5089 -1.5407
 7467SOL    MW429642   6.380   3.599   2.662  0.1309 -0.1722 -0.0669
 7468SOL     OW29643   1.854   1.097   0.318 -0.0541  0.2970  0.7168
 7468SOL    HW229644   1.893   1.037   0.382 -1.1041  0.3524  1.4460
 7468SOL    HW329645   1.781   1.047   0.281  0.2922  0.4215 -0.1535
 7468SOL    MW429646   1.850   1.082   0.322 -0.1469  0.3207  0.6982
 7469SOL     OW29647   4.762   1.124   5.491 -0.5063 -0.1524 -0.2491
 7469SOL    HW229648   4.798   1.126   5.580  1.8739 -1.9587 -1.0643
 7469SOL    HW329649   4.784   1.210   5.456  0.2784 -0.0997  0.3182
 7469SOL    MW429650   4.770   1.136   5.498 -0.0887 -0.3838 -0.2818
 7470SOL     OW29651   0.297   6.268   2.681  0.2095  0.0482 -0.1077
 7470SOL    HW229652   0.291   6.346   2.626  0.5955 -0.7430 -1.3075
 7470SOL    HW329653   0.377   6.224   2.652 -0.3913 -1.1797  0.0194
 7470SOL    MW429654   0.306   6.273   2.670  0.1811 -0.2182 -0.2493
 7471SOL     OW29655   2.249   1.752   1.983  0.3992  0.6647  0.5838
 7471SOL    HW229656   2.343   1.756   1.997  0.9275  1.3562 -2.4999
 7471SOL    HW329657   2.225   1.840   1.956 -0.2654 -0.4169 -2.7950
 7471SOL    MW429658   2.258   1.764   1.981  0.3812  0.6132 -0.2689
 7472SOL     OW29659   1.098   4.232   3.654 -0.4162  0.1864  0.1603
 7472SOL    HW229660   1.147   4.212   3.574 -0.7032  1.8594 -0.4739
 7472SOL    HW329661   1.164   4.258   3.717 -0.3475  0.9048 -0.2018
 7472SOL    MW429662   1.113   4.233   3.652 -0.4450  0.5019  0.0289
 7473SOL     OW29663   2.708   5.520   1.753 -0.3127 -0.0070  0.1690
 7473SOL    HW229664   2.766   5.471   1.694  0.2879  1.2626 -0.3354
 7473SOL    HW329665   2.759   5.527   1.834  0.3952  1.3354 -0.3591
 7473SOL    MW429666   2.723   5.515   1.756 -0.1400  0.3376  0.0328
 7474SOL     OW29667   2.510   1.773   0.501 -0.3292  0.1174 -0.7028
 7474SOL    HW229668   2.460   1.853   0.517 -0.3054  0.1208 -0.6411
 7474SOL    HW329669   2.601   1.800   0.512 -0.2364  0.3995 -2.0651
 7474SOL    MW429670   2.516   1.787   0.505 -0.3138  0.1551 -0.8744
 7475SOL     OW29671   6.073   0.655   1.759 -0.1285  0.8774 -0.3975
 7475SOL    HW229672   6.054   0.641   1.667 -2.8078  0.4672  0.1414
 7475SOL    HW329673   6.045   0.574   1.802 -0.5747  1.7275  0.9648
 7475SOL    MW429674   6.067   0.642   1.753 -0.5409  0.9354 -0.1467
 7476SOL     OW29675   5.640   1.847   5.173 -0.5614 -0.4813 -0.2540
 7476SOL    HW229676   5.637   1.941   5.192  2.9342 -0.2810  0.0049
 7476SOL    HW329677   5.655   1.842   5.079  0.0521 -0.7106 -0.1516
 7476SOL    MW429678   5.642   1.859   5.163 -0.0193 -0.4851 -0.2063
 7477SOL     OW29679   0.139   2.917   2.103  0.1448 -0.2323  0.1680
 7477SOL    HW229680   0.118   2.826   2.126  0.2467 -0.9450 -2.3045
 7477SOL    HW329681   0.056   2.964   2.115 -0.5089 -1.1309 -0.6572
 7477SOL    MW429682   0.125   2.911   2.108  0.0720 -0.4449 -0.2671
 7478SOL     OW29683   1.243   2.318   1.959  0.4805 -0.4775 -0.2825
 7478SOL    HW229684   1.289   2.382   2.013  1.3676 -1.8469  0.6359
 7478SOL    HW329685   1.285   2.323   1.874  2.0186 -1.3148  0.3895
 7478SOL    MW429686   1.254   2.327   1.955  0.8004 -0.7686 -0.0727
 7479SOL     OW29687   1.171   5.068   6.134  0.3774  0.1115  0.4315
 7479SOL    HW229688   1.197   4.980   6.106  1.0125  0.0042  1.3288
 7479SOL    HW329689   1.176   5.121   6.054  1.1757 -0.4080  0.1238
 7479SOL    MW429690   1.175   5.063   6.120  0.5665  0.0288  0.5093
 7480SOL     OW29691   2.733   0.676   0.408  0.3867 -0.1395 -0.1752
 7480SOL    HW229692   2.733   0.612   0.337 -1.0019  0.4448 -0.7275
 7480SOL    HW329693   2.699   0.756   0.369 -1.3208 -0.0528  1.3468
 7480SOL    MW429694   2.729   0.678   0.393 -0.0218 -0.0510 -0.0473
 7481SOL     OW29695   4.293   2.826   1.248  0.2518  0.3952 -0.0109
 7481SOL    HW229696   4.301   2.810   1.342  0.3653 -1.1783 -0.2460
 7481SOL    HW329697   4.199   2.827   1.231  0.2025  1.7447  0.2562
 7481SOL    MW429698   4.282   2.824   1.258  0.2603  0.3656 -0.0066
 7482SOL     OW29699   2.008   2.366   0.254  0.8305 -0.7645  0.2803
 7482SOL    HW229700   2.097   2.337   0.274  0.6013 -0.8018  1.2796
 7482SOL    HW329701   1.960   2.356   0.336 -0.7791 -3.1805 -0.8294
 7482SOL    MW429702   2.014   2.361   0.268  0.5879 -1.0882  0.2657
 7483SOL     OW29703   5.104   1.792   5.691 -0.4659 -0.4040  0.4109
 7483SOL    HW229704   5.126   1.779   5.599 -2.0336  0.5571 -0.1350
 7483SOL    HW329705   5.104   1.704   5.728  0.4259 -0.7787 -0.4314
 7483SOL    MW429706   5.107   1.779   5.684 -0.5551 -0.3266  0.2278
 7484SOL     OW29707   3.955   2.703   1.963  0.0153 -0.1727 -0.0774
 7484SOL    HW229708   4.041   2.692   2.001  0.2221 -0.4017 -0.5980
 7484SOL    HW329709   3.953   2.641   1.890 -1.2974 -1.5896  1.0902
 7484SOL    MW429710   3.966   2.693   1.958 -0.1306 -0.3899  0.0079
 7485SOL     OW29711   0.276   0.797   1.469  0.9134  0.1146 -0.2740
 7485SOL    HW229712   0.296   0.707   1.445 -0.7495  0.0340 -1.6243
 7485SOL    HW329713   0.202   0.790   1.529  1.9058  0.5427  1.0442
 7485SOL    MW429714   0.269   0.784   1.474  0.8249  0.1605 -0.2783
 7486SOL     OW29715   0.664   6.013   6.344  0.4574 -0.0132 -0.5014
 7486SOL    HW229716   0.657   5.995   6.250  0.3777 -0.0509 -0.4885
 7486SOL    HW329717   0.724   6.086   6.351 -1.7282  1.9266 -0.7919
 7486SOL    MW429718   0.671   6.020   6.333  0.1585  0.2378 -0.5380
 7487SOL     OW29719   5.743   3.534   4.690 -0.0851 -0.0412  0.3668
 7487SOL    HW229720   5.798   3.456   4.705  0.5653  0.2963 -0.2062
 7487SOL    HW329721   5.674   3.527   4.756 -0.5749 -1.5860 -0.2475
 7487SOL    MW429722   5.741   3.522   4.701 -0.0639 -0.2005  0.2102
 7488SOL     OW29723   5.392   3.066   3.806 -0.2052 -0.1369 -0.3771
 7488SOL    HW229724   5.349   3.106   3.881 -1.2799  0.5375 -1.3243
 7488SOL    HW329725   5.405   3.138   3.744 -0.5255 -0.9042 -1.3700
 7488SOL    MW429726   5.388   3.080   3.808 -0.3892 -0.1491 -0.6331
 7489SOL     OW29727   5.822   3.208   4.680 -0.3907  0.8702 -0.4148
 7489SOL    HW229728   5.735   3.184   4.712 -1.4036  1.0632 -2.8170
 7489SOL    HW329729   5.875   3.129   4.695 -1.5444 -0.0171 -0.8353
 7489SOL    MW429730   5.818   3.194   4.686 -0.6766  0.7786 -0.7872
 7490SOL     OW29731   1.526   2.704   5.207  0.6290 -0.2190 -0.7735
 7490SOL    HW229732   1.556   2.756   5.281  1.8721 -1.4162 -0.3903
 7490SOL    HW329733   1.564   2.747   5.130 -1.4999  1.6311 -0.8992
 7490SOL    MW429734   1.535   2.716   5.206  0.5121 -0.1328 -0.7395
 7491SOL     OW29735   0.466   4.028   0.781  0.3639  0.0981  0.1605
 7491SOL    HW229736   0.413   4.080   0.722  1.9062  0.5393 -0.9065
 7491SOL    HW329737   0.490   4.088   0.851 -2.0704 -0.6158  1.7354
 7491SOL    MW429738   0.462   4.043   0.783  0.2462  0.0621  0.2275
 7492SOL     OW29739   0.535   0.101   5.159  0.3935  0.1405  0.7402
 7492SOL    HW229740   0.502   0.190   5.173  0.2395  0.4423 -1.2254
 7492SOL    HW329741   0.465   0.045   5.192 -0.2677  0.7679  0.4585
 7492SOL    MW429742   0.521   0.106   5.165  0.2860  0.2631  0.4437
 7493SOL     OW29743   0.059   0.793   1.697  0.2940  0.4781  0.1742
 7493SOL    HW229744   0.006   0.868   1.723 -1.1865 -0.4457 -0.1027
 7493SOL    HW329745   0.142   0.805   1.745 -0.0441  2.0658  0.4233
 7493SOL    MW429746   0.063   0.805   1.707  0.0540  0.5657  0.1706
 7494SOL     OW29747   3.361   2.409   0.430 -0.3539 -0.0491 -0.1531
 7494SOL    HW229748   3.390   2.477   0.491  0.3968  0.7300 -1.3321
 7494SOL    HW329749   3.281   2.374   0.469 -0.6443  1.3813  0.5913
 7494SOL    MW429750   3.354   2.413   0.443 -0.2931  0.2424 -0.2104
 7495SOL     OW29751   4.178   4.133   3.014  0.0632 -0.1673 -0.4558
 7495SOL    HW229752   4.215   4.091   3.091  1.4207  1.1325 -0.3662
 7495SOL    HW329753   4.251   4.143   2.953 -0.4227  1.1402 -0.8674
 7495SOL    MW429754   4.192   4.129   3.016  0.1782  0.1767 -0.4982
 7496SOL     OW29755   3.158   3.174   3.629  0.3308  0.1842 -0.5267
 7496SOL    HW229756   3.079   3.127   3.603  0.2618 -0.4948  0.8463
 7496SOL    HW329757   3.178   3.231   3.554 -0.0595 -1.3991 -1.8933
 7496SOL    MW429758   3.150   3.175   3.615  0.2702 -0.1143 -0.5259
 7497SOL     OW29759   4.418   1.507   0.332 -0.2480 -0.2725  0.1924
 7497SOL    HW229760   4.366   1.449   0.277 -0.8783  1.1390 -0.7710
 7497SOL    HW329761   4.353   1.563   0.375  0.1593 -1.7163  2.9337
 7497SOL    MW429762   4.402   1.507   0.331 -0.2774 -0.2768  0.4270
 7498SOL     OW29763   0.076   5.471   0.918 -0.5743  0.2637  0.2630
 7498SOL    HW229764  -0.005   5.486   0.966 -0.2219  2.0478  0.3759
 7498SOL    HW329765   0.071   5.533   0.845 -0.1082 -0.8667 -0.7569
 7498SOL    MW429766   0.065   5.481   0.914 -0.4663  0.3500  0.1433
 7499SOL     OW29767   2.527   0.394   3.733  0.2677  0.6257 -0.8249
 7499SOL    HW229768   2.478   0.376   3.652  2.1874  0.4797 -2.0105
 7499SOL    HW329769   2.540   0.489   3.732 -0.0696  0.6754 -0.4653
 7499SOL    MW429770   2.522   0.404   3.722  0.4765  0.6130 -0.9339
 7500SOL     OW29771   3.288   1.011   5.887 -0.3332  0.1818 -0.2648
 7500SOL    HW229772   3.245   0.959   5.955  0.6555  1.3886  1.3489
 7500SOL    HW329773   3.380   0.988   5.893 -0.3229 -0.3013 -1.8048
 7500SOL    MW429774   3.294   1.001   5.897 -0.2014  0.2773 -0.2551
 7501SOL     OW29775   3.164   4.857   4.654 -0.7069 -0.4795  0.8759
 7501SOL    HW229776   3.083   4.823   4.692 -0.2873 -2.7173 -0.0632
 7501SOL    HW329777   3.201   4.782   4.606  1.2563  0.8476  0.2061
 7501SOL    MW429778   3.159   4.842   4.653 -0.3925 -0.5996  0.6636
 7502SOL     OW29779   2.685   3.815   2.142  0.2340  0.1469 -0.0535
 7502SOL    HW229780   2.592   3.801   2.155  0.4077  0.0574  1.2811
 7502SOL    HW329781   2.691   3.897   2.094 -0.5364  0.0673 -0.2975
 7502SOL    MW429782   2.674   3.824   2.138  0.1553  0.1246  0.0904
 7503SOL     OW29783   4.826   0.096   4.024  0.0352  0.0860 -0.2096
 7503SOL    HW229784   4.906   0.045   4.041 -0.2377 -1.3497 -2.8282
 7503SOL    HW329785   4.755   0.032   4.031 -0.6068  0.7236 -0.7947
 7503SOL    MW429786   4.827   0.080   4.027 -0.0855 -0.0193 -0.6323
 7504SOL     OW29787   5.089   2.772   2.217 -0.3714  0.2138 -0.8855
 7504SOL    HW229788   5.084   2.858   2.177  1.5982 -0.1595 -2.0897
 7504SOL    HW329789   5.170   2.774   2.268 -0.3699 -0.8742 -0.8220
 7504SOL    MW429790   5.099   2.783   2.219 -0.1113  0.0210 -1.0360
 7505SOL     OW29791   3.421   0.421   0.947  0.5237 -0.0615 -0.1733
 7505SOL    HW229792   3.498   0.430   1.002  0.7979  0.7391 -0.6737
 7505SOL    HW329793   3.453   0.438   0.858  0.1126 -1.4069 -0.6099
 7505SOL    MW429794   3.435   0.424   0.942  0.5057 -0.1334 -0.2969
 7506SOL     OW29795   0.245   6.024   5.982 -0.8843  0.4589 -0.4211
 7506SOL    HW229796   0.165   6.069   5.955 -1.8152 -0.8841  0.0138
 7506SOL    HW329797   0.251   6.040   6.076 -0.5989  0.5915 -0.4584
 7506SOL    MW429798   0.235   6.032   5.991 -0.9695  0.2992 -0.3686
 7507SOL     OW29799   3.850   5.644   3.556 -0.1652 -0.3368 -0.6137
 7507SOL    HW229800   3.856   5.740   3.561 -1.9664 -0.1968 -0.6679
 7507SOL    HW329801   3.757   5.626   3.546 -0.1464 -2.2030  1.6540
 7507SOL    MW429802   3.839   5.654   3.555 -0.4004 -0.5645 -0.3217
 7508SOL     OW29803   2.549   6.019   1.500 -0.3209 -0.4438  0.0083
 7508SOL    HW229804   2.455   6.028   1.514 -0.6281 -1.6363 -1.0488
 7508SOL    HW329805   2.572   6.093   1.444 -0.5154  0.1454  0.6960
 7508SOL    MW429806   2.540   6.030   1.494 -0.3871 -0.5234 -0.0404
 7509SOL     OW29807   4.586   1.736   0.494  0.6535  0.1973 -0.1289
 7509SOL    HW229808   4.671   1.764   0.528  0.2996  1.2251 -0.0775
 7509SOL    HW329809   4.533   1.720   0.572  0.3867  0.8668 -0.1652
 7509SOL    MW429810   4.590   1.737   0.509  0.5716  0.4213 -0.1269
 7510SOL     OW29811   4.232   1.058   5.747  0.4157 -0.1709 -1.0097
 7510SOL    HW229812   4.298   1.095   5.689  1.3073 -0.2823 -0.0989
 7510SOL    HW329813   4.202   1.132   5.800  0.0110 -0.1765 -1.2255
 7510SOL    MW429814   4.237   1.073   5.747  0.4799 -0.1864 -0.9180
 7511SOL     OW29815   3.430   4.200   2.450 -0.4306 -0.6466  1.0904
 7511SOL    HW229816   3.427   4.187   2.356 -0.2188  0.6435  0.8895
 7511SOL    HW329817   3.505   4.257   2.465 -1.5081  0.6209  1.8394
 7511SOL    MW429818   3.439   4.206   2.440 -0.5448 -0.3092  1.1627
 7512SOL     OW29819   2.671   4.233   5.646 -0.0687  0.1340  0.0339
 7512SOL    HW229820   2.721   4.276   5.716  0.6407  1.6016 -1.3271
 7512SOL    HW329821   2.736   4.186   5.594 -0.7743 -2.3429  1.2141
 7512SOL    MW429822   2.686   4.232   5.649 -0.0682  0.0008  0.0100
 7513SOL     OW29823   3.135   1.956   2.603 -0.1815 -0.1526 -0.0148
 7513SOL    HW229824   3.159   1.869   2.573  1.0109 -0.0851  0.6876
 7513SOL    HW329825   3.156   2.013   2.529  1.0462 -0.2133  0.2576
 7513SOL    MW429826   3.141   1.952   2.590  0.1378 -0.1517  0.1138
 7514SOL     OW29827   1.800   1.271   2.775  0.1344  0.6407 -0.1344
 7514SOL    HW229828   1.777   1.233   2.690 -2.4613  0.6990  0.4368
 7514SOL    HW329829   1.851   1.204   2.819 -0.3327 -0.2587 -0.9262
 7514SOL    MW429830   1.803   1.257   2.769 -0.2697  0.5297 -0.1635
 7515SOL     OW29831   0.757   4.365   6.223 -0.0594 -1.0487  0.5998
 7515SOL    HW229832   0.843   4.400   6.199 -1.5094  2.9323  0.4236
 7515SOL    HW329833   0.770   4.326   6.309  2.3822 -2.9808 -0.5194
 7515SOL    MW429834   0.770   4.365   6.231  0.0715 -0.7784  0.4289
 7516SOL     OW29835   6.022   2.781   3.985  0.1836 -0.1601 -0.4646
 7516SOL    HW229836   5.945   2.794   3.930 -0.8395 -1.1591  0.6556
 7516SOL    HW329837   6.057   2.869   3.999 -1.8785  0.5777  0.5281
 7516SOL    MW429838   6.017   2.794   3.980 -0.2235 -0.1946 -0.1858
 7517SOL     OW29839   1.467   2.349   5.559 -0.1015  0.4113  0.2885
 7517SOL    HW229840   1.484   2.390   5.474  0.0741  0.9100  0.5560
 7517SOL    HW329841   1.544   2.370   5.611 -0.4150  0.5087  0.7160
 7517SOL    MW429842   1.479   2.357   5.554 -0.1197  0.4900  0.3802
 7518SOL     OW29843   1.907   2.970   2.590  0.1583 -0.1886  0.0062
 7518SOL    HW229844   1.974   2.917   2.547 -0.0975 -0.2661 -0.2932
 7518SOL    HW329845   1.844   2.906   2.623  1.4943 -0.3464  2.5345
 7518SOL    MW429846   1.908   2.954   2.589  0.3008 -0.2197  0.3003
 7519SOL     OW29847   2.842   1.576   5.073  0.0197  0.2005 -0.6433
 7519SOL    HW229848   2.900   1.501   5.071  2.4687  1.9686 -2.7843
 7519SOL    HW329849   2.852   1.612   5.161 -0.6060 -1.4506  0.1495
 7519SOL    MW429850   2.851   1.571   5.085  0.2603  0.2160 -0.8212
 7520SOL     OW29851   2.974   1.914   3.651 -0.8568 -0.0369  0.0652
 7520SOL    HW229852   2.907   1.855   3.617 -0.6201 -1.3674  1.7778
 7520SOL    HW329853   3.051   1.858   3.664 -0.0865  1.0121  0.1377
 7520SOL    MW429854   2.975   1.899   3.648 -0.7239 -0.0741  0.3007
 7521SOL     OW29855   5.692   4.684   2.718 -0.2093 -0.4329  0.0325
 7521SOL    HW229856   5.663   4.771   2.745 -0.5265 -1.3199  2.9036
 7521SOL    HW329857   5.618   4.627   2.740  0.2729 -1.5462 -1.1150
 7521SOL    MW429858   5.678   4.688   2.725 -0.1875 -0.6968  0.2599
 7522SOL     OW29859   1.770   5.731   0.922 -0.6525 -0.6165  0.2472
 7522SOL    HW229860   1.706   5.718   0.852 -2.9677 -2.0898  2.4548
 7522SOL    HW329861   1.828   5.655   0.917  1.2606  0.8662 -1.9433
 7522SOL    MW429862   1.769   5.719   0.912 -0.7056 -0.6153  0.2494
 7523SOL     OW29863   6.283   1.210   2.786  0.2134 -0.5878  0.0794
 7523SOL    HW229864   6.326   1.178   2.706  2.5467 -0.1293  1.0519
 7523SOL    HW329865   6.324   1.161   2.857  0.6369  1.3331  1.2317
 7523SOL    MW429866   6.294   1.200   2.785  0.5771 -0.2739  0.3597
 7524SOL     OW29867   5.834   3.247   2.765 -0.4786 -0.2710 -0.3947
 7524SOL    HW229868   5.740   3.226   2.762 -0.4590 -0.4693  0.2361
 7524SOL    HW329869   5.836   3.343   2.769 -0.7343 -0.3063  1.4713
 7524SOL    MW429870   5.822   3.257   2.765 -0.5098 -0.3018 -0.0653
 7525SOL     OW29871   3.719   2.841   0.795 -0.5632  0.2318  0.7830
 7525SOL    HW229872   3.739   2.884   0.878 -1.5128 -1.5532  1.9929
 7525SOL    HW329873   3.630   2.869   0.773 -0.5097  0.2816  0.6209
 7525SOL    MW429874   3.710   2.851   0.803 -0.6815  0.0029  0.9212
 7526SOL     OW29875   2.229   5.110   4.445  0.3158 -0.7646 -0.3099
 7526SOL    HW229876   2.260   5.020   4.438  0.8611 -0.5477 -0.7235
 7526SOL    HW329877   2.168   5.109   4.519 -0.1222 -1.5910 -0.6837
 7526SOL    MW429878   2.225   5.098   4.454  0.3300 -0.8450 -0.4138
 7527SOL     OW29879   2.843   3.460   5.354  0.4896 -0.8396 -0.6318
 7527SOL    HW229880   2.772   3.444   5.292  1.1200 -0.8798 -1.3552
 7527SOL    HW329881   2.919   3.417   5.316  1.4798  1.1834 -1.0922
 7527SOL    MW429882   2.844   3.453   5.341  0.7034 -0.5780 -0.7880
 7528SOL     OW29883   2.458   2.464   2.952 -0.4882  0.6453  0.2409
 7528SOL    HW229884   2.476   2.375   2.980 -1.7906  0.6471  1.1630
 7528SOL    HW329885   2.370   2.461   2.915 -0.6804  1.6156  0.5801
 7528SOL    MW429886   2.449   2.452   2.951 -0.6854  0.7736  0.4073
 7529SOL     OW29887   5.276   5.045   4.309 -0.5340  0.1361 -0.2149
 7529SOL    HW229888   5.240   4.986   4.243  0.1752 -0.3877 -0.1446
 7529SOL    HW329889   5.249   5.132   4.281 -1.1983 -0.1788 -0.5742
 7529SOL    MW429890   5.268   5.049   4.297 -0.5281  0.0254 -0.2530
 7530SOL     OW29891   3.743   4.446   2.202  0.6522  0.0805  0.4919
 7530SOL    HW229892   3.829   4.461   2.242  1.5743  1.9470 -1.9492
 7530SOL    HW329893   3.761   4.388   2.128 -0.2392  0.2437  0.1383
 7530SOL    MW429894   3.757   4.441   2.197  0.6563  0.3483  0.1232
 7531SOL     OW29895   1.604   0.829   0.379 -0.4433 -0.4554 -0.2737
 7531SOL    HW229896   1.661   0.795   0.311  0.1040  2.4664 -1.3907
 7531SOL    HW329897   1.534   0.764   0.386  1.4553 -2.7044 -0.8594
 7531SOL    MW429898   1.602   0.816   0.371 -0.1206 -0.3666 -0.4984
 7532SOL     OW29899   4.402   0.321   1.900  0.1177 -0.1952  0.0864
 7532SOL    HW229900   4.409   0.375   1.979 -0.8572 -1.1354  0.8303
 7532SOL    HW329901   4.344   0.249   1.925 -1.6578  0.4253 -2.0036
 7532SOL    MW429902   4.396   0.319   1.914 -0.2452 -0.2373 -0.0912
 7533SOL     OW29903   0.703   0.922   3.832  0.0074  0.7414 -0.6464
 7533SOL    HW229904   0.773   0.913   3.767  0.7933  1.6280  0.0461
 7533SOL    HW329905   0.668   0.834   3.842  0.7623  0.3534 -1.3003
 7533SOL    MW429906   0.708   0.909   3.825  0.2107  0.8072 -0.6413
 7534SOL     OW29907   0.444   0.477   3.467  0.3238 -0.3623 -0.1822
 7534SOL    HW229908   0.510   0.412   3.439  1.5266  0.3867  0.8019
 7534SOL    HW329909   0.496   0.548   3.504 -0.9184  1.4314 -1.6831
 7534SOL    MW429910   0.460   0.478   3.468  0.3186 -0.0269 -0.2504
 7535SOL     OW29911   5.491   4.239   2.542 -0.1350 -0.2481  0.3518
 7535SOL    HW229912   5.432   4.214   2.612 -0.2012 -3.4761 -0.6854
 7535SOL    HW329913   5.439   4.230   2.462  1.1192 -1.0614 -0.4117
 7535SOL    MW429914   5.476   4.235   2.540  0.0217 -0.7813  0.1142
 7536SOL     OW29915   4.803   3.499   4.022  0.0417  0.4603  0.2565
 7536SOL    HW229916   4.873   3.505   4.086  0.7880  2.3218 -0.6731
 7536SOL    HW329917   4.772   3.408   4.029  0.6776  0.3630  2.5805
 7536SOL    MW429918   4.808   3.488   4.031  0.2240  0.6931  0.4405
 7537SOL     OW29919   1.658   2.704   2.353  0.4116  0.6505 -0.1323
 7537SOL    HW229920   1.683   2.763   2.282  1.6155  0.5511  0.1934
 7537SOL    HW329921   1.662   2.758   2.432 -1.9159  1.0382 -0.2038
 7537SOL    MW429922   1.662   2.719   2.354  0.2634  0.6885 -0.0988
 7538SOL     OW29923   5.443   3.909   1.061  0.2187 -0.3679 -0.2013
 7538SOL    HW229924   5.413   3.985   1.012 -2.2297 -1.9248 -1.2725
 7538SOL    HW329925   5.523   3.939   1.104 -0.6427  2.7860 -0.5507
 7538SOL    MW429926   5.450   3.923   1.060 -0.2180 -0.1572 -0.3887
 7539SOL     OW29927   2.918   5.314   6.197  0.1484  0.1206 -0.3843
 7539SOL    HW229928   3.008   5.287   6.183  1.0541  3.0352 -0.7253
 7539SOL    HW329929   2.868   5.269   6.129  0.8891 -3.1065  0.9864
 7539SOL    MW429930   2.923   5.305   6.186  0.3656  0.0794 -0.2485
 7540SOL     OW29931   1.938   1.704   5.595  0.3970  0.1588 -0.4919
 7540SOL    HW229932   1.936   1.614   5.561 -1.7605 -0.4193  0.9594
 7540SOL    HW329933   1.846   1.731   5.596  0.6687  1.1984  2.0263
 7540SOL    MW429934   1.925   1.695   5.591  0.1482  0.2197  0.0319
 7541SOL     OW29935   2.744   2.129   5.234  0.0086  0.1372  0.0782
 7541SOL    HW229936   2.815   2.073   5.203 -2.1746 -2.0825 -1.2873
 7541SOL    HW329937   2.739   2.200   5.170  1.4230  0.7218  0.5961
 7541SOL    MW429938   2.752   2.131   5.221 -0.0928 -0.0785 -0.0336
 7542SOL     OW29939   0.131   5.724   0.292 -0.6264  0.1775 -0.4164
 7542SOL    HW229940   0.105   5.640   0.256 -1.8029  0.0780  0.5802
 7542SOL    HW329941   0.157   5.705   0.382 -3.5290  1.1897  0.7405
 7542SOL    MW429942   0.131   5.711   0.299 -1.1646  0.2979 -0.1323
 7543SOL     OW29943   3.056   0.483   3.404  0.2879  0.3182  0.0298
 7543SOL    HW229944   2.970   0.462   3.440  0.4574 -0.7437 -0.1510
 7543SOL    HW329945   3.116   0.422   3.447  0.6849 -0.1023 -1.0846
 7543SOL    MW429946   3.053   0.472   3.415  0.3626  0.1226 -0.1411
 7544SOL     OW29947   1.252   2.320   5.064 -0.7067 -0.4194  0.3932
 7544SOL    HW229948   1.325   2.310   5.125  0.9088  0.5982 -1.2636
 7544SOL    HW329949   1.220   2.230   5.051  1.0741 -1.0780  0.2460
 7544SOL    MW429950   1.258   2.307   5.070 -0.2586 -0.3720  0.1552
 7545SOL     OW29951   5.312   1.437   2.439  0.4047 -0.8184 -0.5572
 7545SOL    HW229952   5.227   1.421   2.481  0.8283 -1.0524  0.2318
 7545SOL    HW329953   5.311   1.531   2.419 -0.0325 -0.8171 -0.5451
 7545SOL    MW429954   5.301   1.447   2.442  0.4029 -0.8491 -0.4515
 7546SOL     OW29955   1.823   4.452   4.376 -0.1181  0.3616 -0.1705
 7546SOL    HW229956   1.807   4.395   4.300 -4.5866 -1.1559  1.5591
 7546SOL    HW329957   1.764   4.526   4.363  0.7637  1.2440  0.7423
 7546SOL    MW429958   1.813   4.454   4.364 -0.5914  0.2778  0.1782
 7547SOL     OW29959   6.213   1.182   0.839  0.5664 -0.1267 -0.2780
 7547SOL    HW229960   6.304   1.155   0.850  0.0284 -1.1398  2.3793
 7547SOL    HW329961   6.163   1.101   0.842 -0.5399  0.5465 -0.0804
 7547SOL    MW429962   6.219   1.168   0.841  0.3495 -0.1716  0.0987
 7548SOL     OW29963   5.548   5.679   1.800  0.3141 -0.5275 -0.0176
 7548SOL    HW229964   5.640   5.683   1.827 -0.0763  0.3807  1.2812
 7548SOL    HW329965   5.541   5.599   1.748  2.0881  0.0002 -1.1472
 7548SOL    MW429966   5.559   5.669   1.796  0.4966 -0.3380  0.0047
 7549SOL     OW29967   2.354   5.644   3.355  0.0694 -0.5152 -0.3457
 7549SOL    HW229968   2.296   5.701   3.304  0.0207  2.0071  2.3071
 7549SOL    HW329969   2.440   5.685   3.350  0.1019 -0.3090  1.3961
 7549SOL    MW429970   2.358   5.657   3.348  0.0673 -0.1552  0.2341
 7550SOL     OW29971   0.314   4.575   4.239  0.1558 -0.5930  0.2405
 7550SOL    HW229972   0.268   4.504   4.284 -0.3055 -0.9586 -0.7757
 7550SOL    HW329973   0.258   4.652   4.252 -0.1177 -0.7592  0.0418
 7550SOL    MW429974   0.301   4.576   4.247  0.0589 -0.6631  0.0802
 7551SOL     OW29975   3.875   1.683   1.619  0.5755 -0.0421 -0.3721
 7551SOL    HW229976   3.907   1.670   1.709  0.4706  0.6150 -0.2277
 7551SOL    HW329977   3.794   1.734   1.630  0.0708 -0.7506 -0.7965
 7551SOL    MW429978   3.869   1.688   1.633  0.4950 -0.0489 -0.4090
 7552SOL     OW29979   5.759   2.738   3.253 -0.5590 -0.4357  0.0660
 7552SOL    HW229980   5.791   2.757   3.165  1.6566 -0.4044  0.8237
 7552SOL    HW329981   5.709   2.816   3.278 -0.2172  0.0500 -0.7207
 7552SOL    MW429982   5.757   2.751   3.245 -0.2216 -0.3675  0.0622
 7553SOL     OW29983   5.338   4.336   2.867  0.1798  0.1231  0.4738
 7553SOL    HW229984   5.284   4.341   2.945  0.1336  0.6645  0.4095
 7553SOL    HW329985   5.353   4.242   2.854 -0.7628 -0.0370  0.4715
 7553SOL    MW429986   5.333   4.324   2.876  0.0493  0.1734  0.4650
 7554SOL     OW29987   5.317   4.906   5.146 -0.0185 -0.0724 -0.1340
 7554SOL    HW229988   5.398   4.855   5.132  0.1929 -0.3193  1.6901
 7554SOL    HW329989   5.348   4.993   5.171 -0.3756  0.6612 -2.1012
 7554SOL    MW429990   5.332   4.910   5.148 -0.0377 -0.0082 -0.1529
 7555SOL     OW29991   1.779   4.943   3.592  0.1474 -0.3832 -0.1539
 7555SOL    HW229992   1.702   4.947   3.535 -1.2558  0.7313  1.7021
 7555SOL    HW329993   1.744   4.930   3.680  2.1075 -0.1500  0.7213
 7555SOL    MW429994   1.764   4.942   3.596  0.2208 -0.2054  0.2064
 7556SOL     OW29995   4.537   2.528   4.522  0.2300  0.4008  0.0123
 7556SOL    HW229996   4.619   2.555   4.564 -0.0266  0.3868  0.5171
 7556SOL    HW329997   4.494   2.473   4.587 -0.5428  1.0300  0.0385
 7556SOL    MW429998   4.542   2.524   4.536  0.0942  0.4820  0.0824
 7557SOL     OW29999   5.901   2.638   0.311 -0.0399  0.1331  0.1022
 7557SOL    HW230000   5.982   2.687   0.326 -0.7866  0.8253  2.0536
 7557SOL    HW330001   5.907   2.563   0.371 -0.6021 -0.1211 -0.1542
 7557SOL    MW430002   5.913   2.634   0.321 -0.2126  0.1909  0.3258
 7558SOL     OW30003   6.159   2.096   0.424 -0.2394 -0.3760  0.4337
 7558SOL    HW230004   6.182   2.008   0.394 -0.2668  0.4567 -2.2784
 7558SOL    HW330005   6.238   2.148   0.412  0.0286 -0.1123  2.7647
 7558SOL    MW430006   6.172   2.091   0.419 -0.2076 -0.2313  0.3834
 7559SOL     OW30007   4.073   5.143   3.784 -0.1559 -0.3684 -0.0838
 7559SOL    HW230008   4.142   5.152   3.718  0.6191 -0.6145  0.6667
 7559SOL    HW330009   4.008   5.086   3.743 -0.8629  1.3980 -1.5265
 7559SOL    MW430010   4.074   5.137   3.770 -0.1470 -0.1678 -0.1751
 7560SOL     OW30011   6.211   3.289   4.591  0.2318  0.2480  0.8767
 7560SOL    HW230012   6.274   3.347   4.548 -0.0327 -0.6062 -0.7621
 7560SOL    HW330013   6.154   3.348   4.641 -0.1187  1.4472 -0.8479
 7560SOL    MW430014   6.211   3.305   4.592  0.1507  0.2935  0.4329
 7561SOL     OW30015   1.090   4.751   5.178 -0.0064 -0.0702 -0.4096
 7561SOL    HW230016   1.008   4.800   5.169  0.1889  0.2368 -0.4900
 7561SOL    HW330017   1.129   4.783   5.259 -1.9199 -3.0540  1.9332
 7561SOL    MW430018   1.084   4.761   5.188 -0.2331 -0.4234 -0.1111
 7562SOL     OW30019   2.519   3.634   3.272  0.5053  0.3212 -0.0416
 7562SOL    HW230020   2.453   3.704   3.273 -0.0124 -0.1001 -1.4834
 7562SOL    HW330021   2.551   3.630   3.362 -0.4426  1.4792  0.3836
 7562SOL    MW430022   2.514   3.643   3.284  0.3119  0.4184 -0.1757
 7563SOL     OW30023   1.060   6.179   3.050  0.1521 -0.4954 -0.2623
 7563SOL    HW230024   1.026   6.122   2.981 -0.5559 -0.4262  0.0208
 7563SOL    HW330025   1.004   6.257   3.046  0.9690  0.0864 -0.4985
 7563SOL    MW430026   1.048   6.182   3.041  0.1665 -0.4095 -0.2561
 7564SOL     OW30027   5.633   0.274   3.377 -0.0556  0.5540  0.9024
 7564SOL    HW230028   5.668   0.196   3.420 -0.3307 -0.7611 -1.1367
 7564SOL    HW330029   5.702   0.339   3.385  0.5315 -0.1743  1.8897
 7564SOL    MW430030   5.646   0.272   3.384 -0.0144  0.2844  0.7636
 7565SOL     OW30031   3.964   1.327   2.126 -0.4667  0.5159 -0.3713
 7565SOL    HW230032   3.970   1.273   2.046 -2.5434 -0.0562 -0.1955
 7565SOL    HW330033   3.902   1.396   2.103 -0.9674  0.4296  0.6961
 7565SOL    MW430034   3.957   1.329   2.112 -0.8068  0.4290 -0.2073
 7566SOL     OW30035   3.636   3.860   4.489  0.1953 -0.4135 -0.1889
 7566SOL    HW230036   3.664   3.804   4.416 -2.9681 -1.3542 -0.8636
 7566SOL    HW330037   3.711   3.863   4.547  2.0411 -1.6202 -2.3443
 7566SOL    MW430038   3.649   3.853   4.487  0.0215 -0.6969 -0.5623
 7567SOL     OW30039   2.550   2.752   5.244  0.4244 -0.9296 -0.3710
 7567SOL    HW230040   2.632   2.802   5.241 -0.2962  0.3555  0.4164
 7567SOL    HW330041   2.513   2.760   5.156 -0.2956  1.0545  0.0594
 7567SOL    MW430042   2.556   2.759   5.232  0.2343 -0.4983 -0.2104
 7568SOL     OW30043   4.528   3.039   4.410 -0.0616  0.5193 -0.0941
 7568SOL    HW230044   4.499   2.971   4.349 -0.3068  1.3933 -0.9829
 7568SOL    HW330045   4.615   3.011   4.438 -0.5076 -0.5920  0.2361
 7568SOL    MW430046   4.535   3.026   4.406 -0.1528  0.4880 -0.1678
 7569SOL     OW30047   6.424   1.856   2.874 -0.0676  0.5174 -0.0722
 7569SOL    HW230048   6.452   1.913   2.945  0.5496 -0.7673  0.7589
 7569SOL    HW330049   6.352   1.903   2.832  0.9310  2.2514  0.0687
 7569SOL    MW430050   6.418   1.870   2.878  0.1456  0.5767  0.0561
 7570SOL     OW30051   5.543   1.993   4.496  0.5661  0.1472 -0.2930
 7570SOL    HW230052   5.632   2.016   4.521  0.7713 -0.8834 -0.0469
 7570SOL    HW330053   5.531   2.033   4.410  2.4908 -2.5814 -1.9481
 7570SOL    MW430054   5.553   2.002   4.488  0.8471 -0.3488 -0.4789
 7571SOL     OW30055   4.275   4.013   3.863 -0.1617 -0.1994 -0.7983
 7571SOL    HW230056   4.272   3.952   3.789 -1.7704  1.6012 -2.2980
 7571SOL    HW330057   4.356   4.061   3.851  0.5109 -1.1632 -0.2900
 7571SOL    MW430058   4.285   4.011   3.852 -0.2852 -0.0890 -0.9291
 7572SOL     OW30059   0.282   5.079   3.239 -0.0333 -0.2253 -0.6663
 7572SOL    HW230060   0.225   5.012   3.200  0.0243 -0.8816  0.3245
 7572SOL    HW330061   0.251   5.086   3.329  2.1162 -1.4036  0.2429
 7572SOL    MW430062   0.270   5.071   3.246  0.2579 -0.4674 -0.4156
 7573SOL     OW30063   3.315   3.066   0.073  0.0325  0.3518 -0.0741
 7573SOL    HW230064   3.232   3.106   0.100  1.2412  1.9678  1.5350
 7573SOL    HW330065   3.295   3.020  -0.008 -2.0054  2.3587 -0.8048
 7573SOL    MW430066   3.301   3.066   0.066 -0.0769  0.8298  0.0418
 7574SOL     OW30067   4.414   4.836   5.508  0.0019 -0.4284  0.4136
 7574SOL    HW230068   4.504   4.805   5.517 -0.3587 -1.8176 -0.4628
 7574SOL    HW330069   4.366   4.762   5.472 -1.2512  0.6746 -0.3093
 7574SOL    MW430070   4.420   4.822   5.505 -0.2110 -0.4662  0.2026
 7575SOL     OW30071   2.290   1.298   4.579  0.1466 -0.0847  0.1686
 7575SOL    HW230072   2.272   1.390   4.602 -0.5518 -0.1269 -0.2028
 7575SOL    HW330073   2.365   1.303   4.519  2.1699  0.0130  2.5307
 7575SOL    MW430074   2.298   1.311   4.574  0.3214 -0.0774  0.4313
 7576SOL     OW30075   2.472   0.861   4.489 -0.2827  0.1095  0.0444
 7576SOL    HW230076   2.498   0.779   4.446 -0.9330  0.2989 -0.7474
 7576SOL    HW330077   2.388   0.884   4.447 -0.4019  0.8651  0.6776
 7576SOL    MW430078   2.464   0.853   4.478 -0.3842  0.2342  0.0234
 7577SOL     OW30079   5.160   1.778   4.626 -0.2497 -0.2040 -0.4282
 7577SOL    HW230080   5.107   1.807   4.552 -0.9992 -0.2445  0.0775
 7577SOL    HW330081   5.236   1.734   4.586 -0.1924  0.5522 -1.1653
 7577SOL    MW430082   5.163   1.776   4.611 -0.3410 -0.1096 -0.4588
 7578SOL     OW30083   3.370   2.591   3.582 -0.0795  0.3006 -0.1678
 7578SOL    HW230084   3.321   2.663   3.544 -0.3187  1.4857  2.2110
 7578SOL    HW330085   3.304   2.531   3.614  0.1207 -0.5191 -1.2077
 7578SOL    MW430086   3.355   2.593   3.581 -0.0847  0.3488  0.0088
 7579SOL     OW30087   3.432   4.776   5.360 -0.1475 -0.2265 -0.0903
 7579SOL    HW230088   3.478   4.804   5.280  1.4771 -0.7176  0.6448
 7579SOL    HW330089   3.395   4.857   5.396 -0.1572  0.1226 -0.8647
 7579SOL    MW430090   3.433   4.790   5.354  0.0656 -0.2452 -0.0955
 7580SOL     OW30091   5.597   5.438   3.799 -0.0014  0.3985 -0.8847
 7580SOL    HW230092   5.618   5.455   3.707  0.1844 -0.9859 -1.1163
 7580SOL    HW330093   5.597   5.343   3.807  0.5414  0.4964  0.6850
 7580SOL    MW430094   5.599   5.428   3.788  0.0947  0.2288 -0.7081
 7581SOL     OW30095   3.804   1.726   0.411 -0.3951  0.1670  0.0614
 7581SOL    HW230096   3.717   1.738   0.374  0.2670 -0.3074 -1.7440
 7581SOL    HW330097   3.811   1.633   0.429  0.8823 -0.4295 -3.0052
 7581SOL    MW430098   3.793   1.716   0.409 -0.1392  0.0257 -0.5814
 7582SOL     OW30099   3.352   1.282   3.126  0.5382 -0.6007 -0.4335
 7582SOL    HW230100   3.441   1.316   3.129 -0.0614  1.1473 -1.1362
 7582SOL    HW330101   3.328   1.269   3.218  1.3217 -0.5837 -0.2212
 7582SOL    MW430102   3.360   1.285   3.139  0.5624 -0.3679 -0.4982
 7583SOL     OW30103   5.399   5.801   2.694  0.3698 -0.2892  0.0541
 7583SOL    HW230104   5.342   5.867   2.734  0.1493 -1.0018  0.9370
 7583SOL    HW330105   5.345   5.762   2.625  0.3528  0.1322 -0.1797
 7583SOL    MW430106   5.384   5.805   2.690  0.3385 -0.3277  0.1398
 7584SOL     OW30107   5.466   3.467   2.395 -0.2448  0.0805 -0.3753
 7584SOL    HW230108   5.390   3.489   2.342 -2.7223 -1.7401  2.1257
 7584SOL    HW330109   5.488   3.378   2.368  1.5060  0.7999 -1.5046
 7584SOL    MW430110   5.459   3.458   2.384 -0.3407 -0.0648 -0.1943
 7585SOL     OW30111   5.165   6.367   0.950  0.6244  0.4294 -0.6121
 7585SOL    HW230112   5.114   6.410   0.881 -1.5310  0.6313  0.9952
 7585SOL    HW330113   5.159   6.274   0.929 -1.8009  0.2981  0.3162
 7585SOL    MW430114   5.158   6.360   0.938  0.0201  0.4387 -0.2775
 7586SOL     OW30115   3.621   6.183   0.841 -0.3832 -0.2333  0.1651
 7586SOL    HW230116   3.601   6.092   0.863 -1.3966  0.1807  1.0506
 7586SOL    HW330117   3.716   6.189   0.850 -0.3950 -0.9938  0.9889
 7586SOL    MW430118   3.631   6.172   0.845 -0.5185 -0.2790  0.3906
 7587SOL     OW30119   0.249   5.361   3.993  0.9369  0.5475  0.5593
 7587SOL    HW230120   0.246   5.442   4.043  3.8227  2.2598 -1.6947
 7587SOL    HW330121   0.301   5.301   4.048 -3.1518 -0.8795  3.3152
 7587SOL    MW430122   0.256   5.364   4.007  0.7782  0.5852  0.6255
 7588SOL     OW30123   3.072   5.909   4.963  0.5997 -0.3559  0.1885
 7588SOL    HW230124   3.040   5.997   4.943 -1.5446 -0.8727  1.0561
 7588SOL    HW330125   3.065   5.861   4.880 -0.4012 -0.2940  0.2236
 7588SOL    MW430126   3.067   5.914   4.949  0.1847 -0.4160  0.3076
 7589SOL     OW30127   4.150   5.152   4.899  0.3420 -0.5849 -0.2658
 7589SOL    HW230128   4.206   5.108   4.963 -0.2396  0.3647  0.9386
 7589SOL    HW330129   4.179   5.118   4.815  1.6655 -1.2867  0.4357
 7589SOL    MW430130   4.161   5.142   4.896  0.4399 -0.5522 -0.0143
 7590SOL     OW30131   3.806   0.169   3.166 -0.2696  0.2105  0.1754
 7590SOL    HW230132   3.824   0.087   3.212  0.5905 -0.6205 -1.5612
 7590SOL    HW330133   3.833   0.237   3.228  0.7010 -0.8610  0.9700
 7590SOL    MW430134   3.812   0.167   3.180 -0.0281 -0.0405  0.0512
 7591SOL     OW30135   2.270   1.153   4.130  0.4972 -0.3296 -0.1206
 7591SOL    HW230136   2.293   1.237   4.090  0.4979 -0.8121 -1.1460
 7591SOL    HW330137   2.178   1.139   4.105  0.4223 -0.5271  0.2553
 7591SOL    MW430138   2.261   1.162   4.122  0.4874 -0.4193 -0.2063
 7592SOL     OW30139   3.396   2.305   0.871 -0.4281  0.2656  0.7094
 7592SOL    HW230140   3.307   2.293   0.904 -1.5279  0.7615 -1.8177
 7592SOL    HW330141   3.428   2.216   0.857  1.0504 -0.1249  5.0935
 7592SOL    MW430142   3.388   2.292   0.874 -0.3781  0.2795  0.9544
 7593SOL     OW30143   4.244   0.130   3.332  0.6970 -0.0666  0.2149
 7593SOL    HW230144   4.196   0.103   3.254  0.4501  0.9755 -0.0095
 7593SOL    HW330145   4.288   0.211   3.307 -0.5699  1.0905  1.5638
 7593SOL    MW430146   4.243   0.137   3.319  0.4973  0.2236  0.3632
 7594SOL     OW30147   0.932   4.456   4.851 -0.5299 -0.7268  0.1077
 7594SOL    HW230148   0.957   4.485   4.939 -0.6870 -0.4744  0.0688
 7594SOL    HW330149   0.896   4.368   4.865 -0.4566 -0.7313  0.2803
 7594SOL    MW430150   0.931   4.448   4.864 -0.5410 -0.6941  0.1253
 7595SOL     OW30151   3.950   4.410   3.969  0.5300 -0.1559 -0.1246
 7595SOL    HW230152   3.858   4.411   3.943  0.2012  0.3630  1.0079
 7595SOL    HW330153   3.981   4.324   3.941  0.1513  0.2494 -1.9552
 7595SOL    MW430154   3.942   4.399   3.962  0.4366 -0.0340 -0.2167
 7596SOL     OW30155   3.547   1.921   5.219  0.4547  0.4772 -0.0666
 7596SOL    HW230156   3.512   2.009   5.203 -0.3340  0.3956  1.0882
 7596SOL    HW330157   3.470   1.865   5.222  1.0591 -0.6502 -2.8335
 7596SOL    MW430158   3.533   1.925   5.217  0.4304  0.3177 -0.2793
 7597SOL     OW30159   1.852   4.513   2.226 -0.2532 -0.2321  0.7403
 7597SOL    HW230160   1.904   4.477   2.153  1.6156  0.4769  1.6556
 7597SOL    HW330161   1.782   4.562   2.183  0.5703 -0.1686 -0.6023
 7597SOL    MW430162   1.850   4.515   2.210  0.1020 -0.1302  0.6839
 7598SOL     OW30163   5.140   0.369   3.966 -0.7005 -0.2601  0.0743
 7598SOL    HW230164   5.135   0.365   4.062 -1.7160 -2.9716  0.0069
 7598SOL    HW330165   5.065   0.424   3.941 -0.2914  0.6671  0.8109
 7598SOL    MW430166   5.129   0.376   3.976 -0.7805 -0.4955  0.1626
 7599SOL     OW30167   0.903   0.453   1.374  0.6505 -0.3765  0.0224
 7599SOL    HW230168   0.853   0.394   1.318  0.8232 -0.0117 -0.5237
 7599SOL    HW330169   0.867   0.540   1.356  0.9604 -0.2083  0.2059
 7599SOL    MW430170   0.892   0.456   1.365  0.7142 -0.3062 -0.0254
 7600SOL     OW30171   4.998   3.540   3.826  0.0529  0.6745  0.2037
 7600SOL    HW230172   4.932   3.535   3.896  1.1287  0.2271  1.2304
 7600SOL    HW330173   5.039   3.626   3.838 -0.4248  1.0109 -0.5220
 7600SOL    MW430174   4.994   3.551   3.837  0.1318  0.6599  0.2434
 7601SOL     OW30175   3.644   2.370   0.025 -0.4688  0.0068  0.3039
 7601SOL    HW230176   3.665   2.463   0.023  0.3128 -0.1589  0.6430
 7601SOL    HW330177   3.728   2.326   0.039 -0.5209 -0.8553 -1.6510
 7601SOL    MW430178   3.657   2.376   0.026 -0.3726 -0.1288  0.0907
 7602SOL     OW30179   4.380   5.458   4.750 -0.1899  0.1105 -0.2011
 7602SOL    HW230180   4.289   5.475   4.775 -0.5200  0.8484 -1.8144
 7602SOL    HW330181   4.424   5.439   4.833 -1.4027  1.6211  0.8387
 7602SOL    MW430182   4.374   5.458   4.764 -0.3935  0.4072 -0.2768
 7603SOL     OW30183   5.268   6.311   6.102 -0.0392  0.1309  0.0445
 7603SOL    HW230184   5.227   6.297   6.188 -1.2604 -1.7675 -0.7702
 7603SOL    HW330185   5.352   6.265   6.108 -0.7658 -1.2817 -0.2040
 7603SOL    MW430186   5.274   6.303   6.114 -0.2962 -0.3059 -0.0958
 7604SOL     OW30187   1.519   6.142   0.959  0.0764  0.1837 -0.7035
 7604SOL    HW230188   1.475   6.095   1.030 -0.5783  1.3803 -0.2886
 7604SOL    HW330189   1.571   6.209   1.004  3.4034 -1.9656 -1.0950
 7604SOL    MW430190   1.520   6.145   0.975  0.4290  0.0580 -0.7004
 7605SOL     OW30191   2.740   6.423   2.714  0.3105  0.0257  0.0129
 7605SOL    HW230192   2.745   6.407   2.620 -0.0866  0.4460 -0.0818
 7605SOL    HW330193   2.826   6.396   2.748  0.3390 -0.4344 -0.4175
 7605SOL    MW430194   2.752   6.417   2.706  0.2619  0.0205 -0.0564
 7606SOL     OW30195   3.682   5.414   2.045  0.2688 -0.5461 -0.2372
 7606SOL    HW230196   3.708   5.458   2.126 -0.2361  0.9711 -0.8446
 7606SOL    HW330197   3.745   5.343   2.034  0.3513 -0.7629  1.4610
 7606SOL    MW430198   3.694   5.411   2.054  0.2130 -0.3745 -0.0933
 7607SOL     OW30199   1.777   1.651   5.938  0.5267  0.5139  0.2946
 7607SOL    HW230200   1.738   1.719   5.993  0.1162 -0.2093  0.9106
 7607SOL    HW330201   1.724   1.653   5.858  0.4358  0.8341  0.3602
 7607SOL    MW430202   1.765   1.660   5.935  0.4605  0.4608  0.3845
 7608SOL     OW30203   5.302   3.775   2.079 -0.2250  0.4973  0.7222
 7608SOL    HW230204   5.319   3.805   1.990 -1.4193  1.2405  0.7244
 7608SOL    HW330205   5.387   3.784   2.123  0.2016  0.8304 -0.1332
 7608SOL    MW430206   5.316   3.780   2.073 -0.3263  0.6393  0.6096
 7609SOL     OW30207   6.074   4.174   6.213  0.0702 -0.2120 -0.2004
 7609SOL    HW230208   6.165   4.150   6.196  0.5128  0.6994  0.7631
 7609SOL    HW330209   6.078   4.231   6.291 -1.3134 -0.1332 -0.1602
 7609SOL    MW430210   6.087   4.179   6.221 -0.0540 -0.0814 -0.0680
 7610SOL     OW30211   4.410   5.701   1.866 -0.1654 -0.0478 -0.0003
 7610SOL    HW230212   4.394   5.653   1.785 -0.9662 -0.4120  0.3658
 7610SOL    HW330213   4.398   5.793   1.842  2.1358  0.0993 -0.8871
 7610SOL    MW430214   4.406   5.707   1.852  0.0326 -0.0765 -0.0690
 7611SOL     OW30215   4.549   3.516   2.760 -0.6023  0.5512  0.2838
 7611SOL    HW230216   4.456   3.495   2.752  0.0178 -2.4972 -0.2455
 7611SOL    HW330217   4.572   3.488   2.849 -0.1673  1.3965  0.4513
 7611SOL    MW430218   4.539   3.510   2.771 -0.4631  0.2605  0.2361
 7612SOL     OW30219   3.274   4.208   6.174 -0.1423 -0.0894  0.0625
 7612SOL    HW230220   3.339   4.268   6.209 -0.7229  1.1555 -0.9038
 7612SOL    HW330221   3.318   4.162   6.102  0.1949 -0.5917  0.5786
 7612SOL    MW430222   3.288   4.209   6.169 -0.1744  0.0086  0.0031
 7613SOL     OW30223   3.541   3.892   4.836  0.4402 -0.5249 -0.2094
 7613SOL    HW230224   3.567   3.944   4.760  0.3635  3.3615  2.1538
 7613SOL    HW330225   3.620   3.844   4.860  1.3007  0.4063 -1.0889
 7613SOL    MW430226   3.555   3.892   4.829  0.5436  0.1107 -0.0136
 7614SOL     OW30227   1.731   0.736   2.325  0.1826 -0.1463  0.4184
 7614SOL    HW230228   1.706   0.824   2.350  0.3645 -0.2369  0.9161
 7614SOL    HW330229   1.826   0.734   2.331  0.5737  0.6822 -3.0261
 7614SOL    MW430230   1.740   0.747   2.329  0.2582 -0.0489  0.0296
 7615SOL     OW30231   1.696   5.938   1.984  0.0962 -0.2478 -0.3709
 7615SOL    HW230232   1.745   5.972   1.909  0.5508 -0.2287 -0.0678
 7615SOL    HW330233   1.619   5.896   1.945 -0.0213  0.3534 -0.8050
 7615SOL    MW430234   1.692   5.937   1.969  0.1407 -0.1659 -0.3882
 7616SOL     OW30235   2.765   0.081   2.225 -0.3553 -0.0854  0.1902
 7616SOL    HW230236   2.686   0.127   2.196 -1.1205 -0.6210  1.3112
 7616SOL    HW330237   2.809   0.143   2.283 -0.7169 -0.2888  0.6923
 7616SOL    MW430238   2.760   0.095   2.229 -0.5039 -0.1829  0.4043
 7617SOL     OW30239   0.525   4.514   5.847 -0.0476 -0.0351  0.0286
 7617SOL    HW230240   0.441   4.537   5.888  0.9691  1.1298  1.5929
 7617SOL    HW330241   0.536   4.579   5.777 -0.7214 -0.5935 -0.6133
 7617SOL    MW430242   0.515   4.526   5.843 -0.0024  0.0449  0.1503
 7618SOL     OW30243   3.474   2.444   2.008 -0.0325 -0.3997 -0.2140
 7618SOL    HW230244   3.475   2.502   1.932  0.3103 -0.7856 -0.5119
 7618SOL    HW330245   3.564   2.446   2.041 -0.3067  0.1833  0.5099
 7618SOL    MW430246   3.486   2.452   2.002 -0.0235 -0.3737 -0.1578
 7619SOL     OW30247   5.428   2.357   4.571  0.0395 -0.6152  0.4378
 7619SOL    HW230248   5.467   2.407   4.499 -0.4288 -0.9915 -0.0936
 7619SOL    HW330249   5.343   2.398   4.585  1.4693  1.7595  3.2119
 7619SOL    MW430250   5.422   2.369   4.563  0.1664 -0.3515  0.7337
 7620SOL     OW30251   3.523   5.911   1.389 -0.2205 -0.2450 -0.2364
 7620SOL    HW230252   3.461   5.883   1.457 -1.6887  1.7259 -0.6689
 7620SOL    HW330253   3.550   5.999   1.415  0.0449  0.1147 -1.6222
 7620SOL    MW430254   3.518   5.919   1.401 -0.3792  0.0625 -0.4763
 7621SOL     OW30255   4.007   2.681   5.258 -0.2822  0.6117 -0.4025
 7621SOL    HW230256   4.054   2.740   5.317 -0.6504  1.4854 -0.9528
 7621SOL    HW330257   3.920   2.672   5.298  0.3279 -1.0043  0.6162
 7621SOL    MW430258   4.002   2.688   5.271 -0.2503  0.5138 -0.3407
 7622SOL     OW30259   4.682   1.780   2.714  0.2793  0.0087 -0.2961
 7622SOL    HW230260   4.629   1.859   2.700  0.5793 -0.1550 -3.0536
 7622SOL    HW330261   4.757   1.791   2.654 -0.4958 -3.0375 -2.0404
 7622SOL    MW430262   4.685   1.792   2.704  0.2166 -0.4148 -0.8900
 7623SOL     OW30263   1.714   6.051   1.249 -0.2121  0.1302  0.0690
 7623SOL    HW230264   1.626   6.035   1.215 -1.6512  3.6981  1.5720
 7623SOL    HW330265   1.720   5.998   1.328 -0.5836 -0.8594 -0.5446
 7623SOL    MW430266   1.703   6.042   1.255 -0.4510  0.4704  0.1863
 7624SOL     OW30267   1.207   4.685   2.773  0.5285 -0.4570 -0.5807
 7624SOL    HW230268   1.249   4.603   2.749  2.7391  0.5218 -0.2926
 7624SOL    HW330269   1.246   4.749   2.713 -0.4155  0.5450 -0.1466
 7624SOL    MW430270   1.218   4.683   2.762  0.6956 -0.1957 -0.4854
 7625SOL     OW30271   5.408   2.799   5.062 -0.0485  0.1037  0.4398
 7625SOL    HW230272   5.372   2.886   5.079 -3.3399 -1.0166 -0.0664
 7625SOL    HW330273   5.422   2.761   5.149  0.4963  0.7911  0.6556
 7625SOL    MW430274   5.405   2.805   5.076 -0.4109  0.0466  0.4015
 7626SOL     OW30275   2.101   3.592   5.615  0.5658  0.2253  0.0134
 7626SOL    HW230276   2.099   3.519   5.677 -2.2903 -1.6598 -2.0310
 7626SOL    HW330277   2.033   3.651   5.646 -0.7609 -0.6457 -1.0984
 7626SOL    MW430278   2.092   3.590   5.627  0.0140 -0.1383 -0.4030
 7627SOL     OW30279   3.396   3.935   2.509  0.8814 -0.2684  0.4242
 7627SOL    HW230280   3.485   3.899   2.506  1.3643  0.8643  0.6386
 7627SOL    HW330281   3.406   4.027   2.483 -0.6961 -0.8562 -2.7493
 7627SOL    MW430282   3.409   3.943   2.505  0.7370 -0.1965  0.0338
 7628SOL     OW30283   5.900   3.351   1.755  0.0597  0.0099 -0.6435
 7628SOL    HW230284   5.818   3.363   1.804  0.0039 -1.9009 -0.1889
 7628SOL    HW330285   5.969   3.372   1.819  0.0263  3.1996 -1.4612
 7628SOL    MW430286   5.898   3.356   1.770  0.0479  0.1786 -0.6914
 7629SOL     OW30287   0.826   4.027   3.963 -0.4024 -0.2195 -0.2799
 7629SOL    HW230288   0.820   3.955   3.900 -0.0744 -0.2976 -0.2210
 7629SOL    HW330289   0.765   4.092   3.930 -0.4962 -0.4088 -0.4853
 7629SOL    MW430290   0.817   4.026   3.950 -0.3715 -0.2548 -0.2993
 7630SOL     OW30291   2.634   2.196   3.287 -0.1341  0.3373  0.2210
 7630SOL    HW230292   2.707   2.169   3.344 -0.1390  1.1835  0.6533
 7630SOL    HW330293   2.647   2.147   3.206  0.0814 -0.6257  0.8180
 7630SOL    MW430294   2.646   2.186   3.284 -0.1063  0.3219  0.3568
 7631SOL     OW30295   6.306   5.237   2.976 -0.6345 -0.0244  0.1593
 7631SOL    HW230296   6.265   5.307   3.028 -0.8939  1.8626 -2.3863
 7631SOL    HW330297   6.399   5.260   2.974 -0.7096  0.2308 -0.6237
 7631SOL    MW430298   6.313   5.249   2.983 -0.6786  0.2582 -0.2799
 7632SOL     OW30299   1.860   0.664   1.573 -0.6493 -0.2364  0.5585
 7632SOL    HW230300   1.852   0.570   1.592  1.3492 -0.4135  0.6673
 7632SOL    HW330301   1.937   0.671   1.517 -1.8504  1.1758 -1.0324
 7632SOL    MW430302   1.869   0.653   1.568 -0.5441 -0.0734  0.3630
 7633SOL     OW30303   5.454   2.753   3.490  0.2529 -0.5499  0.1812
 7633SOL    HW230304   5.502   2.757   3.573 -0.1543 -1.5045  0.4806
 7633SOL    HW330305   5.365   2.781   3.512  0.5009  0.6129 -0.2444
 7633SOL    MW430306   5.449   2.757   3.504  0.2319 -0.5224  0.1646
 7634SOL     OW30307   0.593   1.115   5.769 -0.5869 -0.2805  0.3200
 7634SOL    HW230308   0.609   1.058   5.844  1.9205 -0.4032 -0.2135
 7634SOL    HW330309   0.581   1.055   5.695 -0.4244 -0.1413  0.1798
 7634SOL    MW430310   0.593   1.100   5.769 -0.2346 -0.2783  0.2311
 7635SOL     OW30311   2.223   0.382   2.378  0.3662  0.1590  0.4447
 7635SOL    HW230312   2.305   0.349   2.340  1.0033 -1.4954  2.9559
 7635SOL    HW330313   2.166   0.305   2.382 -0.9699  1.0794 -0.3554
 7635SOL    MW430314   2.227   0.368   2.374  0.2740  0.0621  0.6705
 7636SOL     OW30315   1.494   6.422   2.856 -0.1514 -0.8192  0.9230
 7636SOL    HW230316   1.401   6.403   2.848 -0.8073  1.5150  2.0657
 7636SOL    HW330317   1.510   6.494   2.794  1.2446 -2.0892 -0.2754
 7636SOL    MW430318   1.484   6.429   2.847 -0.0538 -0.6788  0.9157
 7637SOL     OW30319   2.148   3.548   0.821  0.2737 -0.1412  0.0828
 7637SOL    HW230320   2.082   3.584   0.881 -0.4755 -3.0389  1.1811
 7637SOL    HW330321   2.098   3.491   0.762  1.3747  0.4594 -1.5004
 7637SOL    MW430322   2.133   3.545   0.821  0.3201 -0.4443  0.0188
 7638SOL     OW30323   5.071   6.390   3.688  0.2213  0.1067  0.0765
 7638SOL    HW230324   5.132   6.419   3.620 -0.3098  3.2605  0.7768
 7638SOL    HW330325   5.033   6.471   3.722 -1.1485 -1.4816  2.6632
 7638SOL    MW430326   5.074   6.405   3.683 -0.0295  0.3133  0.5102
 7639SOL     OW30327   3.284   2.625   2.856  0.1728  0.0122  0.0245
 7639SOL    HW230328   3.229   2.668   2.791 -0.2220 -0.1090  0.2749
 7639SOL    HW330329   3.229   2.619   2.934 -0.3673 -2.3506 -0.4527
 7639SOL    MW430330   3.270   2.630   2.858  0.0495 -0.3155 -0.0054
 7640SOL     OW30331   4.873   3.609   6.134 -0.1999  0.0960 -0.3653
 7640SOL    HW230332   4.888   3.696   6.171 -1.5503 -0.9472  3.0447
 7640SOL    HW330333   4.947   3.557   6.167  1.1383  0.0548 -3.1823
 7640SOL    MW430334   4.885   3.613   6.143 -0.2015 -0.0471 -0.2871
 7641SOL     OW30335   2.749   3.218   5.017 -0.4120  0.4221 -0.1482
 7641SOL    HW230336   2.703   3.289   4.972  0.4479  0.7853 -0.4653
 7641SOL    HW330337   2.834   3.255   5.039 -0.2034 -0.3025  0.2798
 7641SOL    MW430338   2.754   3.232   5.014 -0.2710  0.3744 -0.1335
 7642SOL     OW30339   0.860   1.474   3.114  0.5716  0.0118 -0.3279
 7642SOL    HW230340   0.799   1.470   3.188  1.7238 -2.0411  0.6227
 7642SOL    HW330341   0.920   1.546   3.136 -1.1096  1.7038 -1.0246
 7642SOL    MW430342   0.860   1.483   3.127  0.5018 -0.0358 -0.2944
 7643SOL     OW30343   2.361   2.185   3.123 -0.2198 -0.3252 -0.5349
 7643SOL    HW230344   2.296   2.212   3.058  0.5162 -0.1957 -1.2260
 7643SOL    HW330345   2.368   2.260   3.182 -1.0475 -0.5246 -0.1598
 7643SOL    MW430346   2.353   2.199   3.123 -0.2319 -0.3344 -0.5766
 7644SOL     OW30347   5.257   3.489   2.159 -0.2977  0.5294  0.1870
 7644SOL    HW230348   5.211   3.445   2.088  2.1133  0.2950 -1.3306
 7644SOL    HW330349   5.269   3.579   2.127  3.7343 -0.3650 -1.3884
 7644SOL    MW430350   5.253   3.495   2.146  0.5523  0.3805 -0.2211
 7645SOL     OW30351   4.229   2.408   6.142  0.4879 -0.1748 -0.1464
 7645SOL    HW230352   4.317   2.401   6.107  0.6772  1.1820 -0.0054
 7645SOL    HW330353   4.175   2.353   6.084  1.5112 -1.5843  0.1937
 7645SOL    MW430354   4.233   2.400   6.130  0.6479 -0.1818 -0.0829
 7646SOL     OW30355   5.302   1.482   0.867  0.0071 -0.6762  0.1316
 7646SOL    HW230356   5.209   1.486   0.890 -0.2369  0.6780 -0.9641
 7646SOL    HW330357   5.335   1.569   0.887  0.3527 -0.2271 -2.1363
 7646SOL    MW430358   5.294   1.494   0.872  0.0205 -0.4383 -0.3122
 7647SOL     OW30359   5.880   5.739   3.301 -0.1723 -0.2526 -0.2352
 7647SOL    HW230360   5.936   5.810   3.332 -0.7155 -0.3485  0.9995
 7647SOL    HW330361   5.805   5.738   3.361 -1.2507 -0.4705 -1.5440
 7647SOL    MW430362   5.878   5.748   3.313 -0.3863 -0.2940 -0.2450
 7648SOL     OW30363   2.261   2.146   5.068 -0.2374  0.5462 -0.0994
 7648SOL    HW230364   2.211   2.065   5.071 -0.9052  0.8813 -1.6192
 7648SOL    HW330365   2.303   2.151   5.154 -2.8561  0.3086  1.2637
 7648SOL    MW430366   2.260   2.136   5.080 -0.6710  0.5590 -0.1201
 7649SOL     OW30367   2.517   5.748   4.246  0.2448 -0.2366  0.6163
 7649SOL    HW230368   2.565   5.673   4.214 -1.5470 -1.6636  1.0896
 7649SOL    HW330369   2.447   5.761   4.182  1.3131  1.9717 -0.2273
 7649SOL    MW430370   2.514   5.740   4.233  0.1493 -0.1335  0.5674
 7650SOL     OW30371   5.368   3.635   4.934  0.4384 -0.3367  0.2376
 7650SOL    HW230372   5.417   3.554   4.927 -0.0054 -0.6995  1.2584
 7650SOL    HW330373   5.399   3.688   4.860  2.3675 -0.5384  0.8563
 7650SOL    MW430374   5.378   3.632   4.923  0.6344 -0.4112  0.4539
 7651SOL     OW30375   5.360   5.422   0.918 -0.4192 -0.5738 -0.0123
 7651SOL    HW230376   5.422   5.406   0.989  1.1681 -0.2095 -1.2677
 7651SOL    HW330377   5.301   5.347   0.921  1.1584 -1.8712  0.1403
 7651SOL    MW430378   5.360   5.410   0.928 -0.0017 -0.6969 -0.1578
 7652SOL     OW30379   2.444   1.887   6.156 -0.5774 -0.1770  0.3270
 7652SOL    HW230380   2.375   1.827   6.129  0.3414 -0.0949 -2.5251
 7652SOL    HW330381   2.526   1.840   6.137  0.1511  1.0080  0.4016
 7652SOL    MW430382   2.446   1.873   6.150 -0.3600 -0.0098 -0.0394
 7653SOL     OW30383   3.941   0.796   3.767  0.5671 -0.1366  0.0413
 7653SOL    HW230384   4.031   0.786   3.739  0.6218  0.4983 -0.0214
 7653SOL    HW330385   3.946   0.800   3.863  0.6812  0.5738  0.0110
 7653SOL    MW430386   3.953   0.795   3.776  0.5894  0.0409  0.0290
 7654SOL     OW30387   2.094   3.962   6.214 -0.4883 -0.3498  0.0367
 7654SOL    HW230388   2.030   3.898   6.245  1.4378 -2.4564 -0.0510
 7654SOL    HW330389   2.132   3.922   6.136 -0.3065  1.6585 -0.9578
 7654SOL    MW430390   2.091   3.949   6.208 -0.2102 -0.3628 -0.1061
 7655SOL     OW30391   6.393   5.671   3.576 -0.2254  0.8658  0.3749
 7655SOL    HW230392   6.400   5.761   3.608  2.8270  1.5706 -1.8006
 7655SOL    HW330393   6.433   5.618   3.646  1.3588  1.7142  0.1648
 7655SOL    MW430394   6.400   5.676   3.590  0.3863  1.0707  0.0601
 7656SOL     OW30395   3.324   0.097   3.899 -0.3004  0.3363  0.1868
 7656SOL    HW230396   3.352   0.006   3.897 -0.3758  0.3114 -1.5550
 7656SOL    HW330397   3.382   0.139   3.963 -0.9271 -1.0988  1.7618
 7656SOL    MW430398   3.335   0.091   3.907 -0.3930  0.1437  0.1648
 7657SOL     OW30399   3.662   4.358   3.937 -0.2796 -0.0239 -0.3901
 7657SOL    HW230400   3.599   4.377   3.867 -0.7929  0.7511  0.2712
 7657SOL    HW330401   3.626   4.280   3.980 -0.8540  0.4662  0.0418
 7657SOL    MW430402   3.649   4.350   3.933 -0.4231  0.1430 -0.2459
 7658SOL     OW30403   0.294   0.196   3.849 -0.0177 -0.2421  0.5330
 7658SOL    HW230404   0.220   0.147   3.886 -0.1402 -0.0701  0.5160
 7658SOL    HW330405   0.274   0.201   3.755 -0.8385  1.2556  0.7504
 7658SOL    MW430406   0.281   0.190   3.841 -0.1422 -0.0218  0.5595
 7659SOL     OW30407   1.844   3.679   5.713 -0.4033  0.3650 -0.6098
 7659SOL    HW230408   1.822   3.760   5.759 -1.2079  0.6072 -1.3794
 7659SOL    HW330409   1.778   3.616   5.743  0.2964 -0.0490  0.0820
 7659SOL    MW430410   1.832   3.682   5.723 -0.4172  0.3423 -0.6201
 7660SOL     OW30411   6.118   0.062   2.492  0.1956  0.5331 -0.0189
 7660SOL    HW230412   6.144  -0.029   2.502 -0.6055  0.2447 -0.4762
 7660SOL    HW330413   6.103   0.093   2.581 -0.4215 -0.0558  0.0863
 7660SOL    MW430414   6.120   0.054   2.505  0.0085  0.4174 -0.0654
 7661SOL     OW30415   1.152   1.599   4.192  0.3464  0.0473  0.1129
 7661SOL    HW230416   1.210   1.586   4.116  0.1764 -2.4098  0.2977
 7661SOL    HW330417   1.079   1.539   4.176 -1.1899  1.6454  0.8522
 7661SOL    MW430418   1.150   1.589   4.180  0.1213 -0.0660  0.2348
 7662SOL     OW30419   1.608   2.486   6.299 -0.1787  0.2950 -0.5173
 7662SOL    HW230420   1.672   2.484   6.370  0.0034 -0.6995 -0.6933
 7662SOL    HW330421   1.584   2.578   6.290  2.0310  0.8517 -1.1681
 7662SOL    MW430422   1.613   2.498   6.307  0.1369  0.2372 -0.6264
 7663SOL     OW30423   1.637   2.847   4.345  0.4649 -0.5468  0.2876
 7663SOL    HW230424   1.622   2.790   4.421  1.6848 -1.1384  0.1054
 7663SOL    HW330425   1.681   2.924   4.381  0.5638 -0.5878  0.2532
 7663SOL    MW430426   1.641   2.849   4.360  0.6389 -0.6303  0.2591
 7664SOL     OW30427   1.406   4.795   6.293  0.2273  0.4033  0.5242
 7664SOL    HW230428   1.396   4.878   6.341  0.8046  0.8280 -0.0806
 7664SOL    HW330429   1.357   4.809   6.212  0.8249  0.3704  0.1563
 7664SOL    MW430430   1.398   4.808   6.289  0.3823  0.4550  0.3958
 7665SOL     OW30431   4.385   3.159   1.561  0.8052  0.0216  0.2499
 7665SOL    HW230432   4.416   3.248   1.549 -1.5496  0.7548 -1.0875
 7665SOL    HW330433   4.299   3.158   1.519  0.3689 -2.6417  1.0266
 7665SOL    MW430434   4.378   3.170   1.554  0.4369 -0.2331  0.1759
 7666SOL     OW30435   6.081   5.300   2.292  0.2750  0.0304  0.2087
 7666SOL    HW230436   6.042   5.349   2.220 -0.4435 -1.2515 -0.3019
 7666SOL    HW330437   6.012   5.241   2.321  0.9102 -0.2339  1.2323
 7666SOL    MW430438   6.067   5.299   2.286  0.2640 -0.1736  0.2764
 7667SOL     OW30439   2.888   6.201   3.090  0.5493  0.0555  0.5204
 7667SOL    HW230440   2.805   6.154   3.100  0.2937  0.4505  0.2695
 7667SOL    HW330441   2.873   6.261   3.017  1.3840 -0.5803 -0.1890
 7667SOL    MW430442   2.875   6.203   3.081  0.6257  0.0237  0.3937
 7668SOL     OW30443   0.087   4.197   4.692 -0.2115 -0.1135  0.8654
 7668SOL    HW230444   0.055   4.281   4.723 -0.7817  1.0209 -2.3402
 7668SOL    HW330445   0.171   4.217   4.651  0.5217 -1.4776  1.6286
 7668SOL    MW430446   0.094   4.211   4.690 -0.1900 -0.1438  0.5431
 7669SOL     OW30447   3.221   3.315   1.423  0.2345  0.2551 -0.1495
 7669SOL    HW230448   3.295   3.268   1.463 -0.3507 -1.3345 -0.8393
 7669SOL    HW330449   3.263   3.379   1.364  1.0655 -0.1389 -0.0092
 7669SOL    MW430450   3.237   3.317   1.420  0.2669 -0.0066 -0.2220
 7670SOL     OW30451   3.219   3.948   0.915 -0.3635  0.2055  0.4967
 7670SOL    HW230452   3.265   3.896   0.981  0.1850  1.2375  0.9653
 7670SOL    HW330453   3.224   4.038   0.949 -1.3993  0.5475 -0.2128
 7670SOL    MW430454   3.226   3.953   0.929 -0.4278  0.3868  0.4649
 7671SOL     OW30455   4.540   6.072   6.114 -0.1838 -0.3401 -0.1898
 7671SOL    HW230456   4.518   6.055   6.023  2.0916  0.3372 -0.9204
 7671SOL    HW330457   4.541   5.985   6.155  0.5405 -0.8488 -1.2500
 7671SOL    MW430458   4.537   6.058   6.108  0.2120 -0.3178 -0.4261
 7672SOL     OW30459   4.941   0.676   3.319 -0.1951 -0.0966 -0.7734
 7672SOL    HW230460   4.971   0.648   3.233 -0.2480 -1.4818 -0.3553
 7672SOL    HW330461   5.018   0.669   3.376 -0.3609  0.0073 -0.5299
 7672SOL    MW430462   4.955   0.672   3.316 -0.2240 -0.2657 -0.6861
 7673SOL     OW30463   4.737   1.396   0.097 -0.1856  0.0419  0.1094
 7673SOL    HW230464   4.777   1.348   0.170  0.2406  1.4806  0.8519
 7673SOL    HW330465   4.663   1.341   0.070  1.3763 -1.9479 -0.3286
 7673SOL    MW430466   4.732   1.382   0.103  0.0767 -0.0308  0.1496
 7674SOL     OW30467   2.758   4.948   0.706 -0.1047  0.2455 -0.4818
 7674SOL    HW230468   2.705   4.899   0.644  0.9112 -0.2991 -0.9429
 7674SOL    HW330469   2.752   4.898   0.788  0.6482 -0.4717 -0.8575
 7674SOL    MW430470   2.750   4.935   0.709  0.1287  0.0790 -0.5922
 7675SOL     OW30471   1.527   1.946   3.857 -0.0690 -0.2923 -0.1265
 7675SOL    HW230472   1.560   1.939   3.947 -2.4686 -1.1260  0.7556
 7675SOL    HW330473   1.571   2.024   3.821  2.5019 -1.1061  1.0194
 7675SOL    MW430474   1.537   1.956   3.864 -0.0464 -0.5097  0.1411
 7676SOL     OW30475   0.025   2.499   5.376 -0.0348 -0.3760  0.4914
 7676SOL    HW230476   0.115   2.472   5.358 -0.0465 -1.3460  1.8212
 7676SOL    HW330477   0.004   2.459   5.459 -1.2853  0.8796  0.8130
 7676SOL    MW430478   0.034   2.490   5.384 -0.2013 -0.3383  0.7093
 7677SOL     OW30479   1.744   3.899   5.865  0.3666  0.3904  0.1150
 7677SOL    HW230480   1.793   3.979   5.846 -0.3292  0.9634  0.6452
 7677SOL    HW330481   1.658   3.914   5.826 -0.1565  0.4157  1.2444
 7677SOL    MW430482   1.739   3.912   5.858  0.2058  0.4693  0.3340
 7678SOL     OW30483   5.079   1.018   4.297  0.0817 -0.3043 -0.0396
 7678SOL    HW230484   4.986   1.038   4.305 -0.0433 -0.9361  0.1935
 7678SOL    HW330485   5.115   1.035   4.384 -0.3950 -2.8110  0.7407
 7678SOL    MW430486   5.072   1.023   4.310  0.0023 -0.7184  0.0941
 7679SOL     OW30487   5.322   3.098   2.068  0.1199 -0.3108  0.1724
 7679SOL    HW230488   5.347   3.008   2.046  0.7865 -0.3855  1.1653
 7679SOL    HW330489   5.344   3.149   1.989  0.7011 -0.8513 -0.0244
 7679SOL    MW430490   5.328   3.093   2.054  0.2845 -0.3920  0.2774
 7680SOL     OW30491   4.701   1.695   4.204 -0.2568 -0.6229 -0.9976
 7680SOL    HW230492   4.724   1.780   4.242 -0.7883 -0.9726  0.1717
 7680SOL    HW330493   4.616   1.674   4.243  0.3224 -2.1383 -0.4683
 7680SOL    MW430494   4.693   1.704   4.214 -0.2505 -0.8690 -0.7735
 7681SOL     OW30495   3.066   1.286   5.350  0.0766  0.3305 -0.1336
 7681SOL    HW230496   2.979   1.294   5.310  0.7786  2.1527 -1.4200
 7681SOL    HW330497   3.077   1.366   5.401  0.0630 -1.0061  2.0905
 7681SOL    MW430498   3.056   1.298   5.351  0.1674  0.3946 -0.0099
 7682SOL     OW30499   3.167   5.690   4.243  0.7223  0.8118 -0.2061
 7682SOL    HW230500   3.122   5.766   4.281 -1.2222 -1.3433  2.1142
 7682SOL    HW330501   3.227   5.661   4.312 -0.9938 -1.6628  0.3470
 7682SOL    MW430502   3.169   5.696   4.257  0.2394  0.2010  0.1730
 7683SOL     OW30503   2.953   4.769   6.202 -0.1743  0.4303 -0.1856
 7683SOL    HW230504   2.891   4.701   6.176  0.0292  0.7191 -1.4825
 7683SOL    HW330505   2.968   4.753   6.296  0.1978 -1.5759 -0.5414
 7683SOL    MW430506   2.947   4.758   6.211 -0.0984  0.2037 -0.4036
 7684SOL     OW30507   4.849   1.272   4.187  0.4877 -0.3908 -0.5571
 7684SOL    HW230508   4.828   1.347   4.131 -1.4678  0.9490  1.7626
 7684SOL    HW330509   4.782   1.207   4.167  1.5455 -1.1610 -1.7899
 7684SOL    MW430510   4.838   1.273   4.177  0.3692 -0.3156 -0.4137
 7685SOL     OW30511   4.232   1.261   5.061  0.5908  0.5681  0.2419
 7685SOL    HW230512   4.321   1.291   5.045  1.6642 -1.7147  1.4616
 7685SOL    HW330513   4.209   1.298   5.146  1.5763 -1.1452  1.3253
 7685SOL    MW430514   4.241   1.270   5.070  0.8625  0.0409  0.5458
 7686SOL     OW30515   4.206   5.764   6.418 -0.5824 -0.7448 -0.7922
 7686SOL    HW230516   4.280   5.725   6.463 -1.6976 -1.4201  0.5358
 7686SOL    HW330517   4.130   5.740   6.470 -1.6118  1.1142 -1.3098
 7686SOL    MW430518   4.205   5.756   6.430 -0.8654 -0.5886 -0.6853
 7687SOL     OW30519   5.654   5.757   0.373 -0.0169  0.5505  0.3413
 7687SOL    HW230520   5.601   5.702   0.430  0.0260  0.5981  0.4269
 7687SOL    HW330521   5.661   5.840   0.419  0.4804  0.4108  0.5244
 7687SOL    MW430522   5.648   5.761   0.386  0.0543  0.5384  0.3768
 7688SOL     OW30523   2.261   2.623   4.529  0.2938  0.3415 -0.0353
 7688SOL    HW230524   2.327   2.567   4.569 -0.2124 -0.1462  0.1238
 7688SOL    HW330525   2.274   2.612   4.435 -0.1496 -0.4620 -0.0079
 7688SOL    MW430526   2.271   2.614   4.522  0.1685  0.1711 -0.0107
 7689SOL     OW30527   2.271   1.493   0.146 -0.3421  0.2242  0.3795
 7689SOL    HW230528   2.292   1.572   0.097 -1.1652 -0.0581 -0.4578
 7689SOL    HW330529   2.190   1.514   0.194  0.8575  0.7585  2.2796
 7689SOL    MW430530   2.263   1.506   0.146 -0.2924  0.2574  0.5197
 7690SOL     OW30531   2.456   2.743   1.977  0.2329 -0.1852 -0.3217
 7690SOL    HW230532   2.363   2.759   1.965  0.1955  0.6848  0.9064
 7690SOL    HW330533   2.468   2.650   1.960 -1.0695 -0.5500  0.6141
 7690SOL    MW430534   2.445   2.733   1.973  0.0561 -0.1185 -0.0362
 7691SOL     OW30535   4.397   0.707   2.478 -0.2726  0.0315  0.3874
 7691SOL    HW230536   4.428   0.634   2.532  1.5782 -0.0940 -0.7690
 7691SOL    HW330537   4.422   0.785   2.527 -0.3064 -0.0865  0.5958
 7691SOL    MW430538   4.404   0.707   2.492 -0.0329 -0.0006  0.2624
 7692SOL     OW30539   5.454   2.591   1.098  0.0178  0.1963  0.9560
 7692SOL    HW230540   5.503   2.592   1.016  0.0424 -1.0978  0.9366
 7692SOL    HW330541   5.392   2.663   1.090 -0.2485 -0.1605 -0.3762
 7692SOL    MW430542   5.452   2.601   1.087 -0.0141 -0.0215  0.7776
 7693SOL     OW30543   0.149   4.788   4.268 -0.3573  0.0911 -0.0924
 7693SOL    HW230544   0.129   4.867   4.217  1.4964 -0.3928 -1.6908
 7693SOL    HW330545   0.064   4.755   4.295 -1.2192  2.2365  0.0276
 7693SOL    MW430546   0.135   4.794   4.265 -0.2265  0.3103 -0.2875
 7694SOL     OW30547   5.353   3.870   2.555 -0.5380  0.2181 -0.0465
 7694SOL    HW230548   5.271   3.832   2.588 -0.2151 -0.3975  0.0790
 7694SOL    HW330549   5.417   3.848   2.623 -0.6692  2.5824  0.9294
 7694SOL    MW430550   5.350   3.862   2.569 -0.5127  0.4488  0.0989
 7695SOL     OW30551   1.982   0.413   4.515 -0.0461 -0.1386 -0.3019
 7695SOL    HW230552   2.030   0.426   4.597 -1.4763  0.1281  0.5432
 7695SOL    HW330553   1.970   0.502   4.481 -0.6621 -0.1132 -0.0453
 7695SOL    MW430554   1.986   0.427   4.521 -0.3161 -0.1000 -0.1566
 7696SOL     OW30555   3.503   5.926   3.095  0.4871 -0.1154  0.2128
 7696SOL    HW230556   3.555   5.877   3.159  0.8168  0.7046  0.5809
 7696SOL    HW330557   3.549   6.009   3.084  0.5538 -0.3222 -1.2623
 7696SOL    MW430558   3.516   5.930   3.102  0.5394 -0.0345  0.0668
 7697SOL     OW30559   5.049   1.894   1.886  0.0157 -0.1532 -0.6544
 7697SOL    HW230560   5.049   1.871   1.794 -2.7428  0.3383 -0.8704
 7697SOL    HW330561   5.093   1.822   1.930  0.6204 -0.7921 -2.2595
 7697SOL    MW430562   5.055   1.882   1.880 -0.2685 -0.1727 -0.8947
 7698SOL     OW30563   4.976   3.927   2.556 -0.2906  0.7254 -1.0597
 7698SOL    HW230564   4.947   3.974   2.634 -1.6532  1.3882 -1.9292
 7698SOL    HW330565   5.028   3.991   2.507  1.6209 -0.0577 -0.1547
 7698SOL    MW430566   4.979   3.942   2.559 -0.2181  0.7095 -1.0550
 7699SOL     OW30567   2.356   0.885   5.379  0.1498 -0.1767  0.2688
 7699SOL    HW230568   2.425   0.943   5.410 -0.4125  0.7460 -0.1578
 7699SOL    HW330569   2.393   0.842   5.302  0.5127 -0.2533  0.4863
 7699SOL    MW430570   2.370   0.887   5.373  0.1235 -0.0650  0.2412
 7700SOL     OW30571   0.211   0.192   5.773 -0.0187  0.0161  0.2255
 7700SOL    HW230572   0.119   0.218   5.777 -0.1187 -0.4292  1.8789
 7700SOL    HW330573   0.208   0.096   5.772  0.3928 -0.0787 -3.3203
 7700SOL    MW430574   0.199   0.183   5.773  0.0224 -0.0552 -0.0242
 7701SOL     OW30575   2.637   2.173   0.068  0.3548  0.0092  0.4073
 7701SOL    HW230576   2.684   2.150  -0.012  1.8933 -0.1011  1.2969
 7701SOL    HW330577   2.608   2.263   0.055  0.0722 -0.2020 -0.4887
 7701SOL    MW430578   2.640   2.182   0.056  0.5205 -0.0332  0.4064
 7702SOL     OW30579   0.047   1.584   0.007 -0.0367 -0.3744 -0.5392
 7702SOL    HW230580   0.113   1.546   0.064 -0.5825  0.0359  0.3827
 7702SOL    HW330581   0.063   1.544  -0.078  1.4577 -0.2031 -0.3584
 7702SOL    MW430582   0.058   1.573   0.003  0.0885 -0.2977 -0.3937
 7703SOL     OW30583   4.959   1.704   3.978  0.3090  0.2577  0.1647
 7703SOL    HW230584   4.884   1.644   3.983 -0.1124  0.5108 -2.0732
 7703SOL    HW330585   4.920   1.791   3.982  0.6634  0.3938  0.7113
 7703SOL    MW430586   4.944   1.708   3.980  0.3001  0.3091 -0.0585
 7704SOL     OW30587   1.407   1.923   6.047  0.1431 -0.2765 -0.1703
 7704SOL    HW230588   1.348   1.922   6.123 -1.2857  0.9626 -1.1992
 7704SOL    HW330589   1.377   1.849   5.994  0.5406 -0.5848  0.0325
 7704SOL    MW430590   1.395   1.913   6.050  0.0070 -0.1537 -0.2793
 7705SOL     OW30591   3.844   4.715   3.147  0.5219  0.1711 -0.4391
 7705SOL    HW230592   3.841   4.624   3.115  3.2385 -0.1314 -0.0967
 7705SOL    HW330593   3.764   4.725   3.198  0.2732 -2.1555 -0.2394
 7705SOL    MW430594   3.833   4.704   3.150  0.8475 -0.1758 -0.3676
 7706SOL     OW30595   2.460   3.673   2.464 -0.3630 -0.0219  0.1388
 7706SOL    HW230596   2.555   3.685   2.464 -0.4197  0.5133  1.4779
 7706SOL    HW330597   2.434   3.691   2.373  1.1634 -3.4677 -1.1857
 7706SOL    MW430598   2.469   3.677   2.452 -0.1691 -0.4059  0.1407
 7707SOL     OW30599   1.611   5.693   2.309 -0.2703  0.0485  0.3949
 7707SOL    HW230600   1.605   5.787   2.326 -2.5191  0.2900 -1.2175
 7707SOL    HW330601   1.672   5.686   2.236  0.9801  0.0799  1.4062
 7707SOL    MW430602   1.618   5.705   2.302 -0.4020  0.0845  0.3156
 7708SOL     OW30603   2.952   0.218   2.390  0.2413 -0.0322  0.3572
 7708SOL    HW230604   2.965   0.231   2.484  0.1407 -2.0269  0.6901
 7708SOL    HW330605   3.028   0.167   2.362 -0.2558 -0.3689 -0.4174
 7708SOL    MW430606   2.964   0.213   2.399  0.1624 -0.3398  0.2989
 7709SOL     OW30607   0.376   1.265   5.797 -0.1429 -0.0506 -0.9131
 7709SOL    HW230608   0.382   1.307   5.883  0.8913 -0.5265 -0.7343
 7709SOL    HW330609   0.455   1.211   5.792 -2.0494 -3.1137 -0.5195
 7709SOL    MW430610   0.387   1.264   5.808 -0.2580 -0.5175 -0.8376
 7710SOL     OW30611   5.767   2.419   1.452  0.2786  0.6539  0.5231
 7710SOL    HW230612   5.756   2.414   1.357  2.5826 -0.3859  0.2358
 7710SOL    HW330613   5.834   2.353   1.472 -0.5386  0.4576  2.9602
 7710SOL    MW430614   5.774   2.410   1.442  0.4748  0.4908  0.8067
 7711SOL     OW30615   4.307   4.203   0.586 -0.3946 -0.0324 -0.6820
 7711SOL    HW230616   4.232   4.164   0.633 -0.1046  0.2156  0.0033
 7711SOL    HW330617   4.329   4.281   0.637  0.9205 -0.6064 -0.3202
 7711SOL    MW430618   4.300   4.208   0.599 -0.1829 -0.0754 -0.5438
 7712SOL     OW30619   2.599   4.345   3.351  0.1235 -0.2014 -0.4041
 7712SOL    HW230620   2.654   4.313   3.280  0.7436 -1.2758  0.5377
 7712SOL    HW330621   2.552   4.419   3.313  0.1047 -1.0253 -2.0672
 7712SOL    MW430622   2.600   4.351   3.337  0.2028 -0.4519 -0.4993
 7713SOL     OW30623   1.474   2.745   5.760  0.6217  0.6328  0.9589
 7713SOL    HW230624   1.384   2.735   5.727  0.7865  1.1533  0.3299
 7713SOL    HW330625   1.520   2.667   5.730  0.8028  1.1648 -0.1767
 7713SOL    MW430626   1.468   2.733   5.752  0.6674  0.7717  0.7261
 7714SOL     OW30627   5.749   5.836   1.346 -0.0959 -0.0487 -0.0004
 7714SOL    HW230628   5.683   5.771   1.323  0.3706 -0.6751  0.4209
 7714SOL    HW330629   5.823   5.785   1.379 -0.1260  0.7280  1.3455
 7714SOL    MW430630   5.750   5.821   1.347 -0.0383 -0.0288  0.2328
 7715SOL     OW30631   5.437   0.546   1.668 -0.6523 -0.2416 -0.4767
 7715SOL    HW230632   5.411   0.460   1.635 -0.2115 -0.6228  0.1590
 7715SOL    HW330633   5.354   0.594   1.677 -1.0679 -1.1279  0.6366
 7715SOL    MW430634   5.423   0.541   1.665 -0.6490 -0.4088 -0.2459
 7716SOL     OW30635   5.744   5.096   2.634 -0.2154  0.2529  0.0225
 7716SOL    HW230636   5.756   5.131   2.545 -1.5104  0.6686 -0.0217
 7716SOL    HW330637   5.700   5.167   2.681 -1.7792 -0.8413  0.2855
 7716SOL    MW430638   5.740   5.110   2.628 -0.5926  0.1634  0.0513
 7717SOL     OW30639   5.465   3.751   3.890  0.4685  0.4297 -0.0356
 7717SOL    HW230640   5.497   3.661   3.891 -0.3845  0.1139  1.5422
 7717SOL    HW330641   5.480   3.781   3.800  0.9297 -1.2151 -0.5361
 7717SOL    MW430642   5.471   3.743   3.878  0.4168  0.1710  0.1065
 7718SOL     OW30643   2.073   5.420   1.847  0.3158  0.1535  0.5924
 7718SOL    HW230644   2.169   5.419   1.852  0.3384 -0.4563  0.1140
 7718SOL    HW330645   2.047   5.330   1.864 -0.1160  0.1100 -0.2383
 7718SOL    MW430646   2.083   5.408   1.850  0.2618  0.0673  0.4197
 7719SOL     OW30647   3.038   3.627   4.908 -0.4512 -0.1465 -0.2988
 7719SOL    HW230648   3.074   3.645   4.821 -0.0072 -1.3791 -0.3853
 7719SOL    HW330649   3.099   3.671   4.968 -0.8292  0.8163 -0.5944
 7719SOL    MW430650   3.051   3.636   4.904 -0.4425 -0.1821 -0.3492
 7720SOL     OW30651   1.082   5.093   2.037  0.3005  0.1705 -0.0403
 7720SOL    HW230652   1.157   5.052   1.995  0.1997  0.4584 -0.5075
 7720SOL    HW330653   1.012   5.087   1.973  0.1208  0.5327  0.1169
 7720SOL    MW430654   1.083   5.087   2.023  0.2635  0.2563 -0.0812
 7721SOL     OW30655   2.054   3.699   4.098 -0.0468  0.1263 -0.1397
 7721SOL    HW230656   1.983   3.662   4.046 -1.8325  0.1492  2.1515
 7721SOL    HW330657   2.096   3.624   4.139  0.4458  0.2137 -0.4717
 7721SOL    MW430658   2.051   3.685   4.096 -0.2174  0.1409  0.1188
 7722SOL     OW30659   5.763   1.168   4.584  0.0678 -0.0270 -0.0055
 7722SOL    HW230660   5.856   1.163   4.565 -0.0999  0.6401 -1.1131
 7722SOL    HW330661   5.736   1.077   4.599  1.0497 -0.1417  1.2388
 7722SOL    MW430662   5.771   1.155   4.584  0.1752  0.0459  0.0125
 7723SOL     OW30663   0.822   2.150   3.071 -0.0691  0.0270  0.3941
 7723SOL    HW230664   0.782   2.234   3.094  0.8258  0.6776 -0.3500
 7723SOL    HW330665   0.868   2.167   2.989 -0.1891 -1.2978  0.0293
 7723SOL    MW430666   0.823   2.163   3.063  0.0331 -0.0619  0.2478
 7724SOL     OW30667   1.906   2.776   5.052 -0.4191  0.5214  0.2074
 7724SOL    HW230668   1.908   2.862   5.093  0.6248  0.8605 -0.5210
 7724SOL    HW330669   1.864   2.790   4.967  0.1364  0.4069 -0.0938
 7724SOL    MW430670   1.900   2.789   5.046 -0.2081  0.5510  0.0715
 7725SOL     OW30671   6.191   2.743   0.011 -0.4959 -0.1335 -0.0796
 7725SOL    HW230672   6.209   2.657  -0.027 -0.1449 -0.0605 -0.0810
 7725SOL    HW330673   6.275   2.789   0.007 -1.0767  0.9008 -1.8508
 7725SOL    MW430674   6.205   2.738   0.005 -0.5263  0.0126 -0.3135
 7726SOL     OW30675   3.080   2.692   4.809 -0.1754 -0.0961 -0.2632
 7726SOL    HW230676   3.152   2.749   4.838 -0.5635  0.3114 -0.0929
 7726SOL    HW330677   3.085   2.695   4.714  0.5947 -0.7910 -0.2565
 7726SOL    MW430678   3.090   2.700   4.800 -0.1250 -0.1340 -0.2399
 7727SOL     OW30679   0.718   3.686   5.824 -0.3894 -0.2330 -0.0026
 7727SOL    HW230680   0.789   3.716   5.880 -1.2894  0.9375  0.5576
 7727SOL    HW330681   0.665   3.764   5.809 -1.7352 -1.1422 -0.1251
 7727SOL    MW430682   0.720   3.700   5.829 -0.6857 -0.1985  0.0551
 7728SOL     OW30683   2.120   5.802   0.269  0.3837 -0.1027  0.2541
 7728SOL    HW230684   2.090   5.777   0.356  0.8807 -0.6496  0.2709
 7728SOL    HW330685   2.162   5.724   0.234 -1.1858 -0.3928 -1.1058
 7728SOL    MW430686   2.122   5.789   0.276  0.2422 -0.2131  0.0769
 7729SOL     OW30687   2.481   1.714   4.674 -0.2203  0.2349 -0.2514
 7729SOL    HW230688   2.499   1.704   4.580 -0.7975 -1.1731 -0.2303
 7729SOL    HW330689   2.559   1.681   4.718 -0.2186  0.2748 -0.2242
 7729SOL    MW430690   2.493   1.709   4.667 -0.2962  0.0544 -0.2450
 7730SOL     OW30691   2.123   3.652   2.033  0.1681  0.0413 -0.4874
 7730SOL    HW230692   2.208   3.615   2.058  0.2052  0.6107  0.2605
 7730SOL    HW330693   2.142   3.741   2.005 -0.1828  0.1831 -0.2874
 7730SOL    MW430694   2.137   3.659   2.033  0.1267  0.1351 -0.3624
 7731SOL     OW30695   1.410   5.920   2.161 -0.8984  0.4065 -0.1325
 7731SOL    HW230696   1.361   5.884   2.235 -0.3335  0.0324  0.0636
 7731SOL    HW330697   1.397   5.856   2.091 -2.4503  1.3581 -0.7641
 7731SOL    MW430698   1.402   5.907   2.161 -1.0286  0.4827 -0.1900
 7732SOL     OW30699   2.784   5.160   1.398 -0.3450  0.0474  0.0373
 7732SOL    HW230700   2.711   5.210   1.362  0.1773  0.0087 -1.0939
 7732SOL    HW330701   2.844   5.147   1.325 -0.6379 -2.5959  0.1698
 7732SOL    MW430702   2.782   5.165   1.384 -0.3147 -0.3064 -0.0944
 7733SOL     OW30703   5.335   3.436   2.859  0.8631 -0.1201 -0.3524
 7733SOL    HW230704   5.392   3.452   2.784  0.9872 -0.7899 -0.4093
 7733SOL    HW330705   5.247   3.446   2.825  0.8125 -2.5656 -1.1827
 7733SOL    MW430706   5.331   3.439   2.845  0.8728 -0.5311 -0.4694
 7734SOL     OW30707   2.939   2.180   2.057 -0.6834 -0.5268  0.3028
 7734SOL    HW230708   3.003   2.209   1.993  0.6874  0.4438  2.0194
 7734SOL    HW330709   2.888   2.259   2.078  0.1891 -0.3156  1.8014
 7734SOL    MW430710   2.941   2.195   2.052 -0.3874 -0.3709  0.7270
 7735SOL     OW30711   0.841   2.135   6.354  0.3103  0.3516  0.2515
 7735SOL    HW230712   0.786   2.146   6.431  0.7855 -0.8726  0.7890
 7735SOL    HW330713   0.879   2.222   6.339  1.5041  0.2651  2.3885
 7735SOL    MW430714   0.838   2.148   6.362  0.5305  0.1786  0.6044
 7736SOL     OW30715   5.800   6.113   4.518 -0.6130 -0.0529 -0.1758
 7736SOL    HW230716   5.871   6.172   4.544 -0.5135 -0.1704 -0.1795
 7736SOL    HW330717   5.774   6.142   4.431  1.2965 -1.7229 -1.3840
 7736SOL    MW430718   5.806   6.124   4.510 -0.3479 -0.2887 -0.3357
 7737SOL     OW30719   3.205   1.313   5.880 -0.3472  0.7097  0.0486
 7737SOL    HW230720   3.177   1.222   5.869  0.2907  0.5005  0.1381
 7737SOL    HW330721   3.300   1.308   5.891 -0.3983  1.3158  0.8471
 7737SOL    MW430722   3.214   1.301   5.880 -0.2698  0.7620  0.1658
 7738SOL     OW30723   4.037   6.391   4.047  0.2476  0.2086  0.4053
 7738SOL    HW230724   4.011   6.473   4.090 -0.8314  0.1713 -0.1236
 7738SOL    HW330725   4.072   6.419   3.963 -0.5576  0.1105  0.0306
 7738SOL    MW430726   4.038   6.405   4.042 -0.0010  0.1907  0.2861
 7739SOL     OW30727   3.036   2.393   0.116  0.3707 -0.5674  0.1775
 7739SOL    HW230728   2.981   2.472   0.114  0.1522 -0.7266 -1.0563
 7739SOL    HW330729   2.987   2.331   0.170  0.1637 -0.1194  0.5094
 7739SOL    MW430730   3.022   2.395   0.123  0.3146 -0.5293  0.0585
 7740SOL     OW30731   2.057   2.545   5.718  0.3815 -0.4443  0.8925
 7740SOL    HW230732   1.995   2.485   5.676 -1.2164  0.5780  1.6903
 7740SOL    HW330733   2.048   2.527   5.812  0.2399  0.6656  1.1118
 7740SOL    MW430734   2.048   2.535   5.725  0.1520 -0.1630  1.0267
 7741SOL     OW30735   1.584   2.420   3.870 -0.4457  0.7524  0.0963
 7741SOL    HW230736   1.546   2.459   3.791 -0.1831 -0.2683 -0.5525
 7741SOL    HW330737   1.656   2.480   3.893 -0.4845  1.0300 -0.4740
 7741SOL    MW430738   1.589   2.433   3.862 -0.4162  0.6544 -0.0645
 7742SOL     OW30739   4.248   0.549   1.186 -0.2221  0.5598  1.0247
 7742SOL    HW230740   4.250   0.460   1.150  1.2814  1.4806 -1.4491
 7742SOL    HW330741   4.273   0.538   1.277  3.2764 -1.3112  0.0164
 7742SOL    MW430742   4.251   0.535   1.193  0.4378  0.4344  0.5653
 7743SOL     OW30743   5.485   6.387   3.994 -0.8375 -0.1321 -0.1098
 7743SOL    HW230744   5.548   6.418   3.929 -1.9071 -0.5444 -1.3783
 7743SOL    HW330745   5.401   6.385   3.948 -1.4228 -1.5845  0.9466
 7743SOL    MW430746   5.482   6.391   3.979 -1.0558 -0.3781 -0.1378
 7744SOL     OW30747   3.323   2.808   1.624  0.1644 -0.4182 -0.1476
 7744SOL    HW230748   3.397   2.824   1.566 -0.3253 -0.5919 -0.8335
 7744SOL    HW330749   3.286   2.725   1.594 -1.1908  0.3743 -0.7906
 7744SOL    MW430750   3.327   2.800   1.613 -0.0790 -0.3365 -0.3229
 7745SOL     OW30751   4.181   1.390   2.441 -0.4978 -0.0741 -1.0893
 7745SOL    HW230752   4.274   1.410   2.439 -0.4016 -0.2476  0.3490
 7745SOL    HW330753   4.163   1.371   2.533 -2.3685  1.8722 -0.9776
 7745SOL    MW430754   4.191   1.390   2.453 -0.7319  0.1598 -0.8848
 7746SOL     OW30755   2.169   2.722   5.346  0.0761  0.0878 -0.0271
 7746SOL    HW230756   2.219   2.712   5.427  0.4685 -0.3043 -0.3114
 7746SOL    HW330757   2.082   2.750   5.375 -0.4492 -2.0840  0.7119
 7746SOL    MW430758   2.164   2.724   5.361  0.0585 -0.2505  0.0329
 7747SOL     OW30759   0.338   3.379   5.832 -0.4380  0.1512  0.2013
 7747SOL    HW230760   0.311   3.459   5.788  0.6596  0.5575  0.2240
 7747SOL    HW330761   0.356   3.318   5.760 -0.5198  0.1770  0.1587
 7747SOL    MW430762   0.337   3.381   5.817 -0.3040  0.2082  0.1986
 7748SOL     OW30763   4.305   1.366   6.152 -0.1628 -0.3179  0.7819
 7748SOL    HW230764   4.314   1.461   6.147 -0.4788 -0.2807  0.9214
 7748SOL    HW330765   4.394   1.335   6.170  0.0007 -0.0746  0.4017
 7748SOL    MW430766   4.318   1.375   6.154 -0.1829 -0.2809  0.7501
 7749SOL     OW30767   0.835   0.915   1.957 -0.7634  0.1443 -0.0901
 7749SOL    HW230768   0.836   0.966   1.876  0.2857  0.5748  0.1703
 7749SOL    HW330769   0.753   0.938   1.999  0.5300  3.2261  0.9827
 7749SOL    MW430770   0.824   0.925   1.952 -0.4543  0.6077  0.0858
 7750SOL     OW30771   5.064   2.298   5.246 -0.2749  0.0605 -0.5301
 7750SOL    HW230772   5.121   2.258   5.312  0.5477  2.9119  0.6553
 7750SOL    HW330773   5.094   2.262   5.163  0.2195 -1.8659  0.4260
 7750SOL    MW430774   5.075   2.288   5.244 -0.1011  0.1826 -0.2475
 7751SOL     OW30775   6.129   2.771   3.617  0.3211  0.0842 -0.1179
 7751SOL    HW230776   6.152   2.684   3.653  0.9751 -0.8715 -2.6612
 7751SOL    HW330777   6.090   2.752   3.532 -0.3491  2.2986 -0.3584
 7751SOL    MW430778   6.127   2.757   3.611  0.3190  0.2503 -0.4852
 7752SOL     OW30779   1.492   5.811   1.847  0.3812 -0.6031 -0.3349
 7752SOL    HW230780   1.444   5.881   1.804  0.8366  0.0717  0.2352
 7752SOL    HW330781   1.431   5.736   1.846  0.2637 -0.5109 -1.8162
 7752SOL    MW430782   1.478   5.810   1.841  0.4258 -0.5019 -0.4551
 7753SOL     OW30783   2.986   0.128   3.263  0.1644 -0.0302  0.4519
 7753SOL    HW230784   2.963   0.041   3.296  0.2703 -0.1023  0.3319
 7753SOL    HW330785   2.954   0.187   3.331 -0.1420 -0.1464  0.4135
 7753SOL    MW430786   2.979   0.124   3.276  0.1379 -0.0551  0.4310
 7754SOL     OW30787   1.660   4.713   6.304  0.0016  0.6069  0.1512
 7754SOL    HW230788   1.669   4.670   6.390 -1.4142  0.5894  0.3083
 7754SOL    HW330789   1.573   4.753   6.306 -0.1203  0.4695 -1.3342
 7754SOL    MW430790   1.650   4.712   6.316 -0.2013  0.5865 -0.0241
 7755SOL     OW30791   6.046   2.507   2.796 -0.4399  0.2389  0.0410
 7755SOL    HW230792   6.038   2.531   2.889  1.8339 -0.9191  0.5947
 7755SOL    HW330793   6.090   2.583   2.756 -0.2851  0.2162  0.1677
 7755SOL    MW430794   6.051   2.520   2.803 -0.1194  0.0831  0.1308
 7756SOL     OW30795   4.578   3.031   4.959 -0.1458  0.6636 -0.0744
 7756SOL    HW230796   4.570   3.050   5.052 -0.6397 -1.8574  0.4819
 7756SOL    HW330797   4.506   2.971   4.940  1.6025 -1.1839 -1.3580
 7756SOL    MW430798   4.568   3.025   4.968  0.0197  0.0872 -0.1703
 7757SOL     OW30799   4.922   1.992   4.002  0.3055  0.1914 -0.2508
 7757SOL    HW230800   4.941   2.038   4.084  0.4046 -3.8391  2.3155
 7757SOL    HW330801   4.827   1.994   3.995 -0.1048 -2.6152  2.3424
 7757SOL    MW430802   4.912   1.998   4.012  0.2644 -0.7107  0.4300
 7758SOL     OW30803   3.169   0.624   2.012  0.2870  0.1709  0.4933
 7758SOL    HW230804   3.133   0.706   1.978  0.0434 -0.3036 -0.4398
 7758SOL    HW330805   3.177   0.638   2.106 -0.9871  0.8024  0.5241
 7758SOL    MW430806   3.165   0.636   2.020  0.0868  0.1916  0.3743
 7759SOL     OW30807   3.430   3.868   3.034  0.0175 -0.0022  0.0546
 7759SOL    HW230808   3.443   3.955   2.996  0.2248 -0.4111 -0.8342
 7759SOL    HW330809   3.407   3.812   2.959  1.2742 -1.0141  0.3864
 7759SOL    MW430810   3.429   3.872   3.019  0.2107 -0.1896 -0.0189
 7760SOL     OW30811   1.161   6.002   3.376  0.2710  0.3225 -0.2869
 7760SOL    HW230812   1.071   6.002   3.343  0.2402  0.7917 -0.2002
 7760SOL    HW330813   1.197   6.086   3.348  0.0877  0.9561  1.2845
 7760SOL    MW430814   1.154   6.013   3.368  0.2427  0.4680 -0.0681
 7761SOL     OW30815   0.242   0.184   1.136 -0.6022  0.2692  0.1454
 7761SOL    HW230816   0.261   0.273   1.107  2.1692 -0.4324 -0.5074
 7761SOL    HW330817   0.217   0.138   1.056  0.7090 -0.1421 -0.0566
 7761SOL    MW430818   0.241   0.190   1.122 -0.0635  0.1224  0.0326
 7762SOL     OW30819   3.781   4.713   4.271 -0.5270  0.0611 -0.1560
 7762SOL    HW230820   3.710   4.648   4.266  0.6410 -1.3614  0.7559
 7762SOL    HW330821   3.802   4.733   4.180 -1.8468  0.2460 -0.4456
 7762SOL    MW430822   3.774   4.707   4.259 -0.5470 -0.1022 -0.0739
 7763SOL     OW30823   5.880   4.987   1.170 -0.7682  0.6266  0.7578
 7763SOL    HW230824   5.794   4.963   1.135 -0.1963 -0.4446  0.0601
 7763SOL    HW330825   5.907   4.911   1.222  1.2862 -0.5966 -1.8915
 7763SOL    MW430826   5.872   4.974   1.172 -0.4217  0.3239  0.3162
 7764SOL     OW30827   6.040   3.383   5.614  0.2256 -0.1299  0.7193
 7764SOL    HW230828   6.020   3.476   5.614  1.4353  0.1539 -0.1430
 7764SOL    HW330829   6.119   3.375   5.560  0.1812 -1.6428  0.8279
 7764SOL    MW430830   6.048   3.394   5.607  0.3793 -0.2920  0.6199
 7765SOL     OW30831   1.897   1.766   1.119 -0.0876  0.0507 -0.1563
 7765SOL    HW230832   1.839   1.759   1.194 -0.6756 -0.5957 -0.6520
 7765SOL    HW330833   1.873   1.849   1.077  0.1705  0.3590  0.3005
 7765SOL    MW430834   1.887   1.776   1.123 -0.1312  0.0061 -0.1615
 7766SOL     OW30835   1.157   4.240   1.449  0.6801  0.0561  0.0908
 7766SOL    HW230836   1.078   4.293   1.464 -1.5057 -2.2538 -2.3732
 7766SOL    HW330837   1.202   4.285   1.378  1.1133  0.8202  0.8201
 7766SOL    MW430838   1.152   4.253   1.442  0.4488 -0.1478 -0.1381
 7767SOL     OW30839   2.328   2.583   4.008 -0.2372 -0.6008  0.0411
 7767SOL    HW230840   2.302   2.644   3.938  0.2832  0.6496  0.8925
 7767SOL    HW330841   2.246   2.541   4.035 -1.2395  2.0301  1.5285
 7767SOL    MW430842   2.314   2.586   4.002 -0.3008 -0.0887  0.3497
 7768SOL     OW30843   6.150   0.868   1.472  1.0233 -0.5429 -0.1198
 7768SOL    HW230844   6.195   0.900   1.551  1.8804 -0.6682 -0.5478
 7768SOL    HW330845   6.154   0.773   1.479  1.7796 -0.5620 -0.6787
 7768SOL    MW430846   6.156   0.860   1.483  1.2362 -0.5619 -0.2500
 7769SOL     OW30847   5.705   1.463   6.086  0.5919 -0.3564  0.1414
 7769SOL    HW230848   5.780   1.421   6.130 -0.1601 -2.9432 -0.8856
 7769SOL    HW330849   5.628   1.424   6.128 -0.2178  1.3068  0.2857
 7769SOL    MW430850   5.705   1.453   6.098  0.3858 -0.4783  0.0250
 7770SOL     OW30851   0.747   2.911   5.270  0.6393 -0.1586 -0.5554
 7770SOL    HW230852   0.714   2.865   5.193  0.7641 -1.1933 -0.0141
 7770SOL    HW330853   0.670   2.926   5.325  0.8779 -1.7834  0.3007
 7770SOL    MW430854   0.732   2.907   5.267  0.6873 -0.5095 -0.3710
 7771SOL     OW30855   5.968   4.272   1.528  0.3093  0.2257 -0.0471
 7771SOL    HW230856   5.996   4.286   1.438 -0.9110  0.7665 -0.3650
 7771SOL    HW330857   5.981   4.178   1.543  0.5777  0.1447 -0.7638
 7771SOL    MW430858   5.973   4.261   1.518  0.1837  0.2864 -0.1836
 7772SOL     OW30859   4.058   1.718   2.269 -0.1712 -0.0940  0.4984
 7772SOL    HW230860   3.971   1.683   2.289 -0.6724  1.2021  0.6994
 7772SOL    HW330861   4.109   1.702   2.348 -0.3024 -0.6265  0.4770
 7772SOL    MW430862   4.053   1.711   2.282 -0.2547  0.0068  0.5221
 7773SOL     OW30863   5.251   3.323   3.566 -0.2155 -0.4261 -0.6635
 7773SOL    HW230864   5.185   3.287   3.625  0.0010 -2.2028 -1.4559
 7773SOL    HW330865   5.246   3.269   3.488  2.2045 -0.6547 -0.7451
 7773SOL    MW430866   5.242   3.311   3.564  0.1323 -0.6907 -0.7788
 7774SOL     OW30867   3.960   4.587   5.688  0.3326  0.0590 -0.6215
 7774SOL    HW230868   4.051   4.599   5.717 -0.7157  0.9960  2.6609
 7774SOL    HW330869   3.923   4.675   5.690 -0.8764 -0.4292 -1.0737
 7774SOL    MW430870   3.967   4.600   5.692  0.0348  0.1182 -0.2481
 7775SOL     OW30871   1.650   1.375   3.383 -0.9167  0.4294  0.0616
 7775SOL    HW230872   1.619   1.432   3.313  2.3956 -1.6648 -3.4836
 7775SOL    HW330873   1.604   1.293   3.368 -1.4091  0.4299  1.4770
 7775SOL    MW430874   1.640   1.372   3.372 -0.5447  0.1532 -0.2194
 7776SOL     OW30875   5.595   2.764   2.906 -0.2659  0.4561 -0.1554
 7776SOL    HW230876   5.625   2.673   2.908 -0.7906  0.2050 -2.0976
 7776SOL    HW330877   5.502   2.759   2.928  0.1522  0.8293  2.0089
 7776SOL    MW430878   5.587   2.752   2.909 -0.2800  0.4722 -0.1261
 7777SOL     OW30879   0.645   0.425   0.616 -0.2888 -0.4593 -0.1303
 7777SOL    HW230880   0.727   0.438   0.664 -0.3195  1.4947 -0.5212
 7777SOL    HW330881   0.663   0.460   0.529 -0.6701 -2.6832 -1.1898
 7777SOL    MW430882   0.658   0.431   0.610 -0.3432 -0.4949 -0.3217
 7778SOL     OW30883   2.147   0.823   4.613  0.3118 -0.0916  0.1522
 7778SOL    HW230884   2.086   0.773   4.666  0.9239 -0.6984  0.2928
 7778SOL    HW330885   2.233   0.789   4.636  0.7450  1.0763  0.2992
 7778SOL    MW430886   2.150   0.812   4.623  0.4497 -0.0175  0.1902
 7779SOL     OW30887   3.765   3.296   3.492 -0.4789 -0.6591  0.0534
 7779SOL    HW230888   3.804   3.380   3.468 -0.3609 -0.7920 -0.2181
 7779SOL    HW330889   3.761   3.298   3.588 -0.0911 -0.5179  0.0665
 7779SOL    MW430890   3.770   3.307   3.501 -0.4121 -0.6580  0.0193
 7780SOL     OW30891   2.236   3.298   2.493 -0.0929  0.1447  0.3286
 7780SOL    HW230892   2.328   3.279   2.513  0.2958  2.7576  1.3995
 7780SOL    HW330893   2.235   3.389   2.465 -2.1960 -0.2894 -1.2879
 7780SOL    MW430894   2.248   3.307   2.492 -0.3191  0.4321  0.2566
 7781SOL     OW30895   5.343   6.180   2.712  0.0177 -0.2675  0.2881
 7781SOL    HW230896   5.301   6.266   2.706  1.9160  0.8140  1.3648
 7781SOL    HW330897   5.273   6.120   2.735 -1.2847  1.0689 -0.0296
 7781SOL    MW430898   5.329   6.183   2.714  0.0963  0.0515  0.3883
 7782SOL     OW30899   1.500   3.565   5.037 -0.3867  0.5493 -0.4154
 7782SOL    HW230900   1.496   3.480   5.081  0.9938  0.6783  0.0296
 7782SOL    HW330901   1.579   3.560   4.983  0.0940  1.7658  0.1235
 7782SOL    MW430902   1.510   3.553   5.036 -0.1411  0.7268 -0.2856
 7783SOL     OW30903   1.223   6.246   3.516  0.3237 -0.4844 -0.1621
 7783SOL    HW230904   1.264   6.327   3.548 -0.7723  0.5053 -1.1369
 7783SOL    HW330905   1.292   6.181   3.519  1.2614  0.5079  0.6067
 7783SOL    MW430906   1.237   6.248   3.520  0.3028 -0.2229 -0.1893
 7784SOL     OW30907   3.497   1.005   3.283 -0.0197  0.2705  0.3362
 7784SOL    HW230908   3.531   0.964   3.203  2.0514  0.6500  0.9669
 7784SOL    HW330909   3.402   1.000   3.273  0.1706 -0.8673 -1.5403
 7784SOL    MW430910   3.489   0.999   3.271  0.2787  0.1705  0.1718
 7785SOL     OW30911   3.554   2.880   4.750 -0.1864  0.1016  0.5766
 7785SOL    HW230912   3.613   2.923   4.689  2.8541 -0.2453  2.9956
 7785SOL    HW330913   3.587   2.791   4.757 -0.6026  0.0391  2.4132
 7785SOL    MW430914   3.566   2.874   4.743  0.1598  0.0476  1.1381
 7786SOL     OW30915   4.419   0.763   0.298  0.5002 -0.0719 -0.2050
 7786SOL    HW230916   4.431   0.813   0.217  0.2572 -0.5495 -0.5376
 7786SOL    HW330917   4.497   0.708   0.304 -0.1592 -1.1295 -0.9080
 7786SOL    MW430918   4.431   0.763   0.288  0.3811 -0.2744 -0.3416
 7787SOL     OW30919   4.546   3.011   5.245  0.5051  0.0999  0.5129
 7787SOL    HW230920   4.629   2.970   5.223  0.2621 -0.5588  0.7942
 7787SOL    HW330921   4.570   3.092   5.290  1.0054 -0.5808  1.5093
 7787SOL    MW430922   4.560   3.016   5.248  0.5391 -0.0768  0.6815
 7788SOL     OW30923   4.292   4.291   5.050 -0.0242 -0.3206  0.1512
 7788SOL    HW230924   4.304   4.301   4.956 -1.7352  0.3772 -0.0383
 7788SOL    HW330925   4.243   4.209   5.059  0.2480 -0.4509  0.4450
 7788SOL    MW430926   4.287   4.282   5.039 -0.2141 -0.2458  0.1650
 7789SOL     OW30927   3.956   2.404   2.854 -0.4213 -0.0547 -0.6701
 7789SOL    HW230928   3.939   2.383   2.763 -1.4735 -2.0728 -0.0652
 7789SOL    HW330929   3.868   2.417   2.892  0.0475  2.4329 -0.2650
 7789SOL    MW430930   3.942   2.403   2.847 -0.4982  0.0073 -0.5368
 7790SOL     OW30931   3.083   5.161   4.322  0.9515 -0.0113  0.1388
 7790SOL    HW230932   3.008   5.164   4.382  1.6676 -0.1551  1.0574
 7790SOL    HW330933   3.144   5.226   4.357  1.5768 -0.4282 -0.1630
 7790SOL    MW430934   3.081   5.170   4.334  1.1285 -0.0853  0.2202
 7791SOL     OW30935   0.296   1.213   2.665  0.7944  0.6814  0.1240
 7791SOL    HW230936   0.258   1.216   2.753  0.1591 -2.4604  0.0948
 7791SOL    HW330937   0.390   1.225   2.678  0.5938  1.2087  1.1106
 7791SOL    MW430938   0.303   1.215   2.678  0.6841  0.3364  0.2503
 7792SOL     OW30939   5.998   6.406   0.249  0.5766  0.1230  0.2950
 7792SOL    HW230940   6.079   6.401   0.299  0.4256 -0.3964  0.4979
 7792SOL    HW330941   5.963   6.493   0.268  0.7793  0.1234  0.6818
 7792SOL    MW430942   6.004   6.417   0.258  0.5835  0.0545  0.3728
 7793SOL     OW30943   0.271   4.531   2.491  0.0949  0.1576 -0.2695
 7793SOL    HW230944   0.294   4.453   2.542 -0.9980 -0.2950 -0.4332
 7793SOL    HW330945   0.297   4.509   2.401  0.1966  0.1590 -0.2406
 7793SOL    MW430946   0.277   4.517   2.485 -0.0359  0.0980 -0.2873
 7794SOL     OW30947   2.194   2.736   0.416  0.4055 -0.3473 -0.1960
 7794SOL    HW230948   2.100   2.746   0.427 -0.0310 -1.3604 -2.4056
 7794SOL    HW330949   2.223   2.691   0.496 -1.1916 -1.1090 -0.0000
 7794SOL    MW430950   2.185   2.731   0.428  0.1372 -0.5815 -0.4617
 7795SOL     OW30951   2.933   3.052   3.061 -0.4690 -0.1674 -0.7960
 7795SOL    HW230952   2.868   3.117   3.035  0.0100  0.1302 -1.2601
 7795SOL    HW330953   2.937   2.991   2.988 -0.9706 -0.7733 -0.3313
 7795SOL    MW430954   2.925   3.053   3.048 -0.4720 -0.2081 -0.7959
 7796SOL     OW30955   1.111   6.055   1.886 -0.1733 -0.1002  0.2964
 7796SOL    HW230956   1.063   6.052   1.968 -1.0657  4.6697  0.2381
 7796SOL    HW330957   1.044   6.059   1.818  0.4589  0.1786 -0.3348
 7796SOL    MW430958   1.096   6.055   1.888 -0.2077  0.5660  0.2055
 7797SOL     OW30959   0.461   6.192   0.351 -0.6121  0.1895 -0.0658
 7797SOL    HW230960   0.508   6.230   0.425 -0.0170 -2.3212  0.9292
 7797SOL    HW330961   0.381   6.156   0.389  0.2532 -2.1676 -0.3555
 7797SOL    MW430962   0.457   6.192   0.366 -0.4194 -0.4527  0.0273
 7798SOL     OW30963   3.279   6.194   6.232 -0.1822  0.2515 -0.1190
 7798SOL    HW230964   3.209   6.181   6.168  0.8223 -0.0516 -1.1971
 7798SOL    HW330965   3.331   6.266   6.195  0.5959 -0.1449  0.1923
 7798SOL    MW430966   3.276   6.202   6.218  0.0530  0.1592 -0.2202
 7799SOL     OW30967   4.739   0.178   2.719 -0.0871 -0.7859  0.0524
 7799SOL    HW230968   4.705   0.176   2.809 -1.1118  2.1399 -0.1702
 7799SOL    HW330969   4.800   0.252   2.719 -1.5360  0.5194 -2.0472
 7799SOL    MW430970   4.742   0.188   2.731 -0.4135 -0.2277 -0.2540
 7800SOL     OW30971   2.281   5.055   2.620 -0.3339  0.2810 -0.3010
 7800SOL    HW230972   2.287   5.014   2.534 -2.1648  1.1233 -0.8875
 7800SOL    HW330973   2.194   5.032   2.652  0.7969 -1.1877  2.0048
 7800SOL    MW430974   2.270   5.047   2.613 -0.4263  0.1983 -0.0742
 7801SOL     OW30975   3.034   3.505   4.619  0.5126  0.2905  0.2323
 7801SOL    HW230976   3.107   3.526   4.561  2.3133  0.6530  2.4975
 7801SOL    HW330977   3.029   3.409   4.617 -1.5453  0.2962 -2.8081
 7801SOL    MW430978   3.043   3.495   4.611  0.4787  0.3391  0.1300
 7802SOL     OW30979   2.433   3.403   3.145  0.0082 -0.2140 -0.4109
 7802SOL    HW230980   2.378   3.423   3.070 -2.5492 -2.4104  0.7219
 7802SOL    HW330981   2.445   3.487   3.189 -1.7845  0.4913 -1.1678
 7802SOL    MW430982   2.428   3.417   3.141 -0.5657 -0.4107 -0.3613
 7803SOL     OW30983   2.628   4.158   4.686  0.6196  0.2904  0.5268
 7803SOL    HW230984   2.687   4.086   4.661 -0.9713 -0.8014 -0.2321
 7803SOL    HW330985   2.618   4.209   4.605 -2.1336 -1.5094 -0.3848
 7803SOL    MW430986   2.635   4.155   4.672  0.0465 -0.0911  0.3064
 7804SOL     OW30987   0.224   2.354   5.951  0.0425 -0.7351 -0.7229
 7804SOL    HW230988   0.289   2.385   6.014  1.1497 -1.3601 -1.5158
 7804SOL    HW330989   0.216   2.426   5.888  0.9803 -1.1553 -1.3515
 7804SOL    MW430990   0.231   2.367   5.951  0.3123 -0.8730 -0.9105
 7805SOL     OW30991   3.670   0.360   2.768 -0.4583 -0.2078 -0.4282
 7805SOL    HW230992   3.681   0.419   2.693 -1.7382  0.6149  0.0021
 7805SOL    HW330993   3.667   0.418   2.844  1.4552 -1.0644  0.3734
 7805SOL    MW430994   3.671   0.375   2.768 -0.3747 -0.2122 -0.2657
 7806SOL     OW30995   2.348   5.321   2.739  0.1519 -0.5329 -0.1124
 7806SOL    HW230996   2.268   5.351   2.781 -0.3327  0.2267 -1.4986
 7806SOL    HW330997   2.318   5.269   2.664  0.9800 -1.8761  0.4585
 7806SOL    MW430998   2.334   5.319   2.735  0.1972 -0.6099 -0.2200
 7807SOL     OW30999   6.364   4.450   3.282  0.1682 -0.2875  0.3625
 7807SOL    HW231000   6.301   4.519   3.264  3.1275  3.1855  1.9911
 7807SOL    HW331001   6.401   4.429   3.196  1.1801  2.4190  0.0278
 7807SOL    MW431002   6.361   4.456   3.268  0.6922  0.5278  0.5332
 7808SOL     OW31003   5.075   5.907   1.667  0.6986  0.0507  0.0342
 7808SOL    HW231004   5.123   5.987   1.686  0.5557  0.4072 -1.0780
 7808SOL    HW331005   4.985   5.925   1.696  0.3414  0.8120 -1.4647
 7808SOL    MW431006   5.069   5.920   1.674  0.6326  0.1982 -0.3103
 7809SOL     OW31007   1.309   3.536   4.849 -0.2994  0.2684  0.2054
 7809SOL    HW231008   1.370   3.555   4.920  1.1008 -1.0919 -0.5875
 7809SOL    HW331009   1.286   3.444   4.861  0.0768 -0.0232 -1.1790
 7809SOL    MW431010   1.314   3.526   4.860 -0.0650  0.0505 -0.0818
 7810SOL     OW31011   0.547   3.371   4.960 -0.2178  0.2024  0.3958
 7810SOL    HW231012   0.581   3.357   4.871 -1.0737  1.1460 -0.1002
 7810SOL    HW331013   0.526   3.464   4.963  0.6238  0.3860  1.8952
 7810SOL    MW431014   0.549   3.382   4.949 -0.2197  0.3511  0.5282
 7811SOL     OW31015   2.316   1.539   0.527 -0.0024 -0.3670 -0.4959
 7811SOL    HW231016   2.393   1.522   0.473  0.6432 -0.8916  0.5511
 7811SOL    HW331017   2.320   1.473   0.596 -0.8274  0.2366  0.1566
 7811SOL    MW431018   2.327   1.528   0.529 -0.0261 -0.3566 -0.2717
 7812SOL     OW31019   5.081   2.463   2.463  0.4799  0.4399  0.0519
 7812SOL    HW231020   5.035   2.380   2.454  0.3467  0.5283 -0.0781
 7812SOL    HW331021   5.140   2.466   2.388  0.1785  0.6581 -0.1795
 7812SOL    MW431022   5.083   2.453   2.452  0.4226  0.4804  0.0042
 7813SOL     OW31023   2.714   1.186   4.805 -0.6699 -0.2870 -0.3047
 7813SOL    HW231024   2.802   1.223   4.792 -0.3746 -1.1484 -0.9082
 7813SOL    HW331025   2.716   1.104   4.755 -1.0847 -1.4216  1.4317
 7813SOL    MW431026   2.726   1.180   4.797 -0.6857 -0.5503 -0.1552
 7814SOL     OW31027   0.107   3.893   2.649  0.1139  0.0612  0.5181
 7814SOL    HW231028   0.181   3.931   2.602 -0.8999 -1.9963 -3.0903
 7814SOL    HW331029   0.135   3.804   2.670 -0.9235 -0.3964  0.0498
 7814SOL    MW431030   0.120   3.886   2.646 -0.1567 -0.2706 -0.0198
 7815SOL     OW31031   1.731   0.448   1.868 -0.6857 -0.1116  0.3267
 7815SOL    HW231032   1.713   0.542   1.869 -0.1805  0.0766 -2.1228
 7815SOL    HW331033   1.824   0.441   1.891 -1.1414 -0.2172  2.3291
 7815SOL    MW431034   1.741   0.459   1.871 -0.6791 -0.1007  0.2677
 7816SOL     OW31035   2.589   0.167   3.913 -0.1505  0.7201 -0.3476
 7816SOL    HW231036   2.575   0.242   3.855 -0.4943  0.6391 -0.3701
 7816SOL    HW331037   2.615   0.096   3.855  0.0718  0.7936 -0.3380
 7816SOL    MW431038   2.591   0.168   3.898 -0.1666  0.7191 -0.3493
 7817SOL     OW31039   0.901   0.184   4.191  0.4840 -0.4465  0.2556
 7817SOL    HW231040   0.966   0.239   4.235  0.5812 -0.1034 -0.3138
 7817SOL    HW331041   0.936   0.170   4.104  0.1230 -0.8406  0.1693
 7817SOL    MW431042   0.914   0.190   4.186  0.4492 -0.4532  0.1690
 7818SOL     OW31043   2.060   4.473   1.334  0.5573  0.0700 -0.6538
 7818SOL    HW231044   1.993   4.506   1.393 -0.0178  0.5944 -1.5676
 7818SOL    HW331045   2.107   4.551   1.305  1.9291 -0.3418  0.3779
 7818SOL    MW431046   2.057   4.487   1.338  0.6624  0.0848 -0.6383
 7819SOL     OW31047   3.676   0.645   0.689  0.3166  0.4548  0.3210
 7819SOL    HW231048   3.710   0.592   0.761 -0.8697 -1.8469 -0.7157
 7819SOL    HW331049   3.696   0.595   0.610 -3.4853 -0.0913 -0.5067
 7819SOL    MW431050   3.683   0.631   0.688 -0.3415  0.0790  0.0750
 7820SOL     OW31051   3.220   4.411   1.416  0.1044  0.0232  0.1012
 7820SOL    HW231052   3.294   4.443   1.365 -1.0067  0.8679 -1.0734
 7820SOL    HW331053   3.180   4.490   1.453 -0.8926 -0.2711 -0.2968
 7820SOL    MW431054   3.224   4.426   1.414 -0.1737  0.0958 -0.1063
 7821SOL     OW31055   6.179   5.037   0.269  0.4457 -0.1292 -0.4052
 7821SOL    HW231056   6.191   5.006   0.358  1.1452  0.4062 -0.2994
 7821SOL    HW331057   6.265   5.026   0.228  0.8174  1.8450 -0.2797
 7821SOL    MW431058   6.192   5.032   0.275  0.5870  0.2019 -0.3747
 7822SOL     OW31059   4.147   2.250   4.360 -0.0742  0.0237  0.0343
 7822SOL    HW231060   4.204   2.178   4.334 -1.6653 -0.4697 -2.3873
 7822SOL    HW331061   4.084   2.259   4.288 -2.9339  0.6582  2.3796
 7822SOL    MW431062   4.146   2.242   4.347 -0.6615  0.0423  0.0242
 7823SOL     OW31063   5.766   0.608   4.870  0.0245 -0.1950 -1.0286
 7823SOL    HW231064   5.693   0.665   4.893  0.5350 -0.0537  0.3926
 7823SOL    HW331065   5.830   0.666   4.829  1.1089  0.6392  1.6065
 7823SOL    MW431066   5.765   0.623   4.868  0.2349 -0.0663 -0.4934
 7824SOL     OW31067   3.119   0.742   3.181  0.2366 -0.3253 -0.9423
 7824SOL    HW231068   3.023   0.748   3.175  0.2916 -0.3446 -1.9290
 7824SOL    HW331069   3.136   0.648   3.186  0.2039 -0.3183 -0.6741
 7824SOL    MW431070   3.108   0.730   3.181  0.2395 -0.3269 -1.0371
 7825SOL     OW31071   3.396   2.811   4.510 -0.0221  0.2386  0.2347
 7825SOL    HW231072   3.438   2.824   4.595 -1.1502  1.0315  0.6898
 7825SOL    HW331073   3.390   2.898   4.472 -0.7843  0.0748 -0.0397
 7825SOL    MW431074   3.401   2.824   4.517 -0.2715  0.3216  0.2586
 7826SOL     OW31075   2.846   3.022   0.436  0.3438  0.0068 -0.3535
 7826SOL    HW231076   2.870   2.982   0.520 -2.3564  2.3471  1.7381
 7826SOL    HW331077   2.899   3.102   0.432 -0.2993  0.4374 -0.3384
 7826SOL    MW431078   2.856   3.027   0.447 -0.0973  0.3724 -0.0756
 7827SOL     OW31079   1.069   3.834   4.574  0.3255 -0.5791 -0.1588
 7827SOL    HW231080   0.992   3.883   4.603 -0.1273 -0.9038 -0.8079
 7827SOL    HW331081   1.129   3.901   4.541  0.7455 -0.2207  1.2304
 7827SOL    MW431082   1.067   3.849   4.574  0.3212 -0.5746 -0.0611
 7828SOL     OW31083   3.564   2.806   5.968  0.1443  0.2851 -0.0642
 7828SOL    HW231084   3.563   2.780   5.876  0.0396 -1.1596  0.3224
 7828SOL    HW331085   3.657   2.812   5.989  0.1714  0.1565 -0.1418
 7828SOL    MW431086   3.576   2.804   5.958  0.1340  0.0776 -0.0234
 7829SOL     OW31087   0.233   6.364   0.376 -0.3384 -0.2719 -0.3221
 7829SOL    HW231088   0.308   6.318   0.337 -0.0082  0.3743 -0.4773
 7829SOL    HW331089   0.160   6.346   0.317 -0.2481 -0.7175 -0.2985
 7829SOL    MW431090   0.233   6.355   0.363 -0.2829 -0.2454 -0.3394
 7830SOL     OW31091   0.972   3.204   3.680 -0.3706  0.2800  0.1898
 7830SOL    HW231092   0.967   3.299   3.685  1.5843  0.3780  2.0038
 7830SOL    HW331093   0.888   3.173   3.714 -0.2932  1.3854  1.4654
 7830SOL    MW431094   0.961   3.212   3.685 -0.1025  0.4388  0.5974
 7831SOL     OW31095   6.095   0.507   2.167  0.5203 -0.5119 -0.3449
 7831SOL    HW231096   6.169   0.542   2.117  1.5538 -0.5796  1.0990
 7831SOL    HW331097   6.063   0.435   2.113  0.3215  0.6549 -1.8650
 7831SOL    MW431098   6.101   0.502   2.153  0.6304 -0.3669 -0.3550
 7832SOL     OW31099   0.280   2.771   5.086  0.2130  0.7515  0.1502
 7832SOL    HW231100   0.221   2.746   5.157  0.3943  2.3725  0.9052
 7832SOL    HW331101   0.271   2.700   5.022 -1.2158  0.0854  1.0277
 7832SOL    MW431102   0.271   2.758   5.087  0.0484  0.8775  0.3656
 7833SOL     OW31103   1.874   3.138   0.261  0.0565  0.1194  0.1708
 7833SOL    HW231104   1.827   3.055   0.250  0.3096 -0.1148  0.8710
 7833SOL    HW331105   1.966   3.114   0.262  0.1403  0.4342  0.2079
 7833SOL    MW431106   1.880   3.124   0.259  0.1009  0.1300  0.2681
 7834SOL     OW31107   2.857   1.088   2.290  0.1622 -0.3949  0.5539
 7834SOL    HW231108   2.869   1.048   2.376  2.0843  0.6292  0.8205
 7834SOL    HW331109   2.916   1.163   2.290 -0.8481  0.4582 -1.1602
 7834SOL    MW431110   2.866   1.093   2.301  0.2825 -0.1473  0.3629
 7835SOL     OW31111   0.469   3.076   6.147  0.0676 -0.1180  0.1832
 7835SOL    HW231112   0.436   3.006   6.204  0.8955  1.0124  2.1649
 7835SOL    HW331113   0.409   3.149   6.162  0.7025  0.4201  0.1495
 7835SOL    MW431114   0.457   3.077   6.156  0.2606  0.1021  0.4402
 7836SOL     OW31115   3.532   6.415   1.694 -0.0397  0.2218 -0.0507
 7836SOL    HW231116   3.523   6.334   1.745  0.2598  0.4783  0.4223
 7836SOL    HW331117   3.500   6.484   1.753  0.8247  0.5897  0.0031
 7836SOL    MW431118   3.527   6.414   1.709  0.1139  0.3042  0.0188
 7837SOL     OW31119   3.623   3.758   2.503  0.5527  0.2664 -0.1740
 7837SOL    HW231120   3.595   3.685   2.559 -0.5457  1.7852  1.3797
 7837SOL    HW331121   3.697   3.797   2.550 -0.6892  1.8548  0.5646
 7837SOL    MW431122   3.629   3.754   2.517  0.2439  0.6764  0.1285
 7838SOL     OW31123   0.962   3.033   0.240  0.0217 -0.3245 -0.1166
 7838SOL    HW231124   0.973   3.084   0.320 -1.0763  0.4641 -0.4439
 7838SOL    HW331125   1.038   2.975   0.238  0.0378 -0.3883  1.5056
 7838SOL    MW431126   0.974   3.032   0.250 -0.1210 -0.2289  0.0543
 7839SOL     OW31127   6.029   3.317   2.931  0.4518 -0.6163 -0.2523
 7839SOL    HW231128   5.969   3.273   2.871  0.3335  0.0247 -0.6186
 7839SOL    HW331129   5.971   3.362   2.993  0.5719 -1.7926  0.7505
 7839SOL    MW431130   6.013   3.317   2.931  0.4520 -0.6869 -0.1683
 7840SOL     OW31131   2.961   5.384   0.377 -0.0105  0.0423 -0.6313
 7840SOL    HW231132   2.914   5.301   0.381  0.1272  0.0076  0.5319
 7840SOL    HW331133   2.892   5.450   0.386 -0.2179  0.1089 -2.3237
 7840SOL    MW431134   2.945   5.382   0.379 -0.0197  0.0465 -0.7011
 7841SOL     OW31135   0.328   4.522   3.979  0.7170  0.1314  0.4387
 7841SOL    HW231136   0.420   4.539   3.959  0.4302  0.9136 -0.3195
 7841SOL    HW331137   0.322   4.532   4.074  1.1847  1.3553  0.3618
 7841SOL    MW431138   0.339   4.526   3.989  0.7408  0.3961  0.3285
 7842SOL     OW31139   2.152   2.550   1.173 -1.1129  0.1696  0.0204
 7842SOL    HW231140   2.200   2.631   1.192 -0.2932  0.2284 -2.0355
 7842SOL    HW331141   2.074   2.580   1.126 -1.4438 -0.1505  0.3709
 7842SOL    MW431142   2.148   2.565   1.169 -1.0484  0.1351 -0.2046
 7843SOL     OW31143   5.961   3.978   2.267 -0.1426  0.1185 -0.7446
 7843SOL    HW231144   5.934   3.902   2.318  1.2031  0.1163  0.0306
 7843SOL    HW331145   5.910   3.974   2.187  0.1765 -1.8256 -0.8795
 7843SOL    MW431146   5.951   3.968   2.263  0.0770 -0.1383 -0.6601
 7844SOL     OW31147   4.169   0.763   4.904  0.0739 -0.1031 -0.5927
 7844SOL    HW231148   4.118   0.717   4.971  0.2035  0.1627 -0.3117
 7844SOL    HW331149   4.240   0.804   4.952  0.0162  0.3109 -0.8604
 7844SOL    MW431150   4.171   0.762   4.919  0.0834 -0.0134 -0.5909
 7845SOL     OW31151   5.130   1.283   3.718  0.0578  0.0530 -0.0417
 7845SOL    HW231152   5.224   1.279   3.732  0.0728 -1.5720 -0.3234
 7845SOL    HW331153   5.092   1.247   3.799 -0.0979 -3.0860 -1.3419
 7845SOL    MW431154   5.137   1.277   3.730  0.0392 -0.5756 -0.2504
 7846SOL     OW31155   4.964   5.592   3.704 -0.0562  0.6565 -0.0904
 7846SOL    HW231156   5.010   5.509   3.721  0.2916  0.5773 -1.3325
 7846SOL    HW331157   5.013   5.657   3.753 -0.7345  0.0452  1.4562
 7846SOL    MW431158   4.977   5.589   3.713 -0.0998  0.5654 -0.0502
 7847SOL     OW31159   4.626   0.224   1.327  0.0826  0.6970 -0.7140
 7847SOL    HW231160   4.570   0.176   1.267 -0.1654  0.8251 -0.5916
 7847SOL    HW331161   4.697   0.164   1.349  0.3446  0.7617 -1.3743
 7847SOL    MW431162   4.628   0.210   1.322  0.0845  0.7225 -0.7849
 7848SOL     OW31163   0.176   3.304   2.380  0.2854 -0.0978  0.5987
 7848SOL    HW231164   0.225   3.386   2.379 -1.0538  0.8418 -2.8196
 7848SOL    HW331165   0.230   3.243   2.330  0.5773 -0.9119  1.8465
 7848SOL    MW431166   0.190   3.307   2.374  0.1472 -0.0812  0.3123
 7849SOL     OW31167   3.150   0.020   6.105 -0.0879  0.0346  0.4497
 7849SOL    HW231168   3.118  -0.067   6.080  0.5631  0.0900 -0.6411
 7849SOL    HW331169   3.229   0.003   6.156  0.3734 -0.0074 -0.2690
 7849SOL    MW431170   3.156   0.006   6.108  0.0589  0.0364  0.2109
 7850SOL     OW31171   0.035   2.838   6.375  0.3824 -0.0537  0.5683
 7850SOL    HW231172   0.023   2.894   6.299  1.0577  1.8579  1.7972
 7850SOL    HW331173   0.062   2.897   6.445  3.6223 -2.2092  1.3780
 7850SOL    MW431174   0.037   2.853   6.374  0.8990 -0.0859  0.8373
 7851SOL     OW31175   4.812   5.923   4.337 -0.1550  0.1921  0.4453
 7851SOL    HW231176   4.748   5.949   4.271  0.3787 -0.1888 -0.2354
 7851SOL    HW331177   4.810   5.994   4.401 -1.5631 -0.0161  0.6667
 7851SOL    MW431178   4.804   5.936   4.337 -0.2703  0.1144  0.3847
 7852SOL     OW31179   4.808   5.954   5.698 -0.1868 -0.8367  0.7774
 7852SOL    HW231180   4.731   5.955   5.641  1.2082  1.7231 -1.2631
 7852SOL    HW331181   4.795   6.028   5.757  0.8311 -0.1941  0.2103
 7852SOL    MW431182   4.796   5.964   5.698  0.1315 -0.4142  0.4334
 7853SOL     OW31183   1.352   3.374   1.670  0.4129  0.3132  0.4472
 7853SOL    HW231184   1.285   3.308   1.689  1.0403  0.0055  1.6798
 7853SOL    HW331185   1.434   3.324   1.664  0.9250  0.9847  1.5636
 7853SOL    MW431186   1.354   3.358   1.671  0.5632  0.3612  0.7571
 7854SOL     OW31187   6.321   2.867   5.863  0.1713  0.4914  0.0558
 7854SOL    HW231188   6.304   2.779   5.831  3.1743  0.1646 -0.9361
 7854SOL    HW331189   6.266   2.924   5.808 -0.5188 -0.6155 -0.4292
 7854SOL    MW431190   6.311   2.863   5.851  0.4765  0.3023 -0.1390
 7855SOL     OW31191   4.167   3.438   1.471 -0.3410 -0.2330  0.2870
 7855SOL    HW231192   4.085   3.390   1.484 -0.8422  0.5424  0.0294
 7855SOL    HW331193   4.232   3.369   1.453 -0.2178 -1.1742  3.5588
 7855SOL    MW431194   4.165   3.422   1.470 -0.3909 -0.2549  0.6847
 7856SOL     OW31195   5.682   3.770   5.294  0.1838 -0.7939 -0.5309
 7856SOL    HW231196   5.676   3.702   5.361 -0.1001  0.2865  0.5687
 7856SOL    HW331197   5.600   3.763   5.245 -0.8909  0.2108  1.0435
 7856SOL    MW431198   5.670   3.760   5.296  0.0045 -0.5188 -0.1781
 7857SOL     OW31199   4.855   5.033   5.903 -0.7329 -0.3082 -0.4113
 7857SOL    HW231200   4.848   4.955   5.958  0.0608 -0.2136 -0.1581
 7857SOL    HW331201   4.910   5.007   5.830  2.7584  0.9355  1.5434
 7857SOL    MW431202   4.861   5.019   5.901 -0.1675 -0.1316 -0.1200
 7858SOL     OW31203   6.022   1.149   3.504  0.1575  0.2991  0.0939
 7858SOL    HW231204   6.032   1.054   3.503  0.6334  0.3367  0.6107
 7858SOL    HW331205   5.989   1.169   3.592 -0.0782  0.5972 -0.0609
 7858SOL    MW431206   6.019   1.139   3.515  0.1892  0.3434  0.1416
 7859SOL     OW31207   1.207   3.484   1.457  0.1735  0.0877  0.1351
 7859SOL    HW231208   1.266   3.467   1.530  1.2398 -2.7920 -1.2486
 7859SOL    HW331209   1.159   3.403   1.444 -0.0088  0.4832 -2.2887
 7859SOL    MW431210   1.208   3.471   1.465  0.2901 -0.2401 -0.3673
 7860SOL     OW31211   1.260   3.569   2.153 -0.4356 -0.3352  0.0396
 7860SOL    HW231212   1.288   3.604   2.069  1.9210 -0.0704  0.8447
 7860SOL    HW331213   1.283   3.637   2.216  2.5964 -2.4178  1.4357
 7860SOL    MW431214   1.267   3.582   2.150  0.2753 -0.5751  0.3300
 7861SOL     OW31215   5.617   5.803   5.707 -0.3763  0.3815 -0.1594
 7861SOL    HW231216   5.541   5.808   5.650  0.4117  1.4001 -1.1648
 7861SOL    HW331217   5.603   5.724   5.758 -2.2749  0.7200 -0.0629
 7861SOL    MW431218   5.605   5.794   5.706 -0.5228  0.5606 -0.2793
 7862SOL     OW31219   4.035   0.413   1.693  0.5589 -0.0250 -0.0540
 7862SOL    HW231220   4.007   0.502   1.671 -0.0686  0.2545  1.6587
 7862SOL    HW331221   4.130   0.413   1.680  0.4966  0.7512 -0.5403
 7862SOL    MW431222   4.044   0.425   1.689  0.4679  0.1143  0.1078
 7863SOL     OW31223   4.897   0.758   3.702 -0.1533  0.9946 -0.1158
 7863SOL    HW231224   4.875   0.850   3.718 -1.0648  0.6441  0.7640
 7863SOL    HW331225   4.847   0.734   3.625 -0.6355  0.9934  0.1943
 7863SOL    MW431226   4.888   0.767   3.694 -0.3372  0.9482  0.0412
 7864SOL     OW31227   6.017   1.138   0.177  0.0863  0.2334 -0.2005
 7864SOL    HW231228   6.092   1.097   0.220 -0.6737 -1.3277 -0.2662
 7864SOL    HW331229   6.053   1.179   0.099  0.5890 -2.9646 -1.8356
 7864SOL    MW431230   6.031   1.138   0.172  0.0523 -0.3945 -0.4249
 7865SOL     OW31231   4.418   2.983   5.694  0.1914  0.1301 -0.1948
 7865SOL    HW231232   4.448   3.074   5.700  0.9514 -0.0664 -0.8981
 7865SOL    HW331233   4.497   2.931   5.698 -0.0697 -0.4233 -1.4953
 7865SOL    MW431234   4.432   2.988   5.695  0.2572  0.0312 -0.4592
 7866SOL     OW31235   2.467   5.908   0.096 -0.2638  0.1428 -0.0874
 7866SOL    HW231236   2.428   5.823   0.076  0.7477 -0.0855 -1.2222
 7866SOL    HW331237   2.513   5.895   0.179 -1.0979 -0.0804  0.3415
 7866SOL    MW431238   2.468   5.895   0.104 -0.2404  0.0833 -0.1806
 7867SOL     OW31239   1.637   5.454   3.179 -0.0489  0.3263  0.6884
 7867SOL    HW231240   1.652   5.467   3.085  0.2352  0.9360  0.8126
 7867SOL    HW331241   1.706   5.506   3.221 -0.3776  0.3210  1.2343
 7867SOL    MW431242   1.648   5.463   3.172 -0.0548  0.4060  0.7768
 7868SOL     OW31243   4.233   1.590   4.791 -0.0455 -0.0115  0.0439
 7868SOL    HW231244   4.271   1.671   4.824  0.4988 -0.1691 -0.1767
 7868SOL    HW331245   4.217   1.608   4.698  0.3352 -0.2434 -0.0699
 7868SOL    MW431246   4.236   1.603   4.783  0.0766 -0.0629 -0.0002
 7869SOL     OW31247   5.524   1.749   3.484 -0.0689 -0.3983  0.1688
 7869SOL    HW231248   5.587   1.696   3.533  0.3403  0.7229  0.9009
 7869SOL    HW331249   5.551   1.840   3.501 -0.0224  0.0333 -2.0129
 7869SOL    MW431250   5.536   1.754   3.493 -0.0088 -0.1935 -0.0225
 7870SOL     OW31251   3.810   5.567   5.802 -0.1450 -0.4111 -0.5815
 7870SOL    HW231252   3.716   5.574   5.791  0.0297  1.3460 -1.2105
 7870SOL    HW331253   3.846   5.589   5.716  0.8700  0.3832  0.0248
 7870SOL    MW431254   3.803   5.570   5.789  0.0120 -0.0744 -0.5845
 7871SOL     OW31255   5.250   2.194   5.448 -0.1277 -0.2946 -0.2444
 7871SOL    HW231256   5.278   2.102   5.451 -0.5057 -0.3927  0.3791
 7871SOL    HW331257   5.228   2.216   5.539  1.2429  0.8100 -0.1375
 7871SOL    MW431258   5.251   2.185   5.460  0.0032 -0.1618 -0.1480
 7872SOL     OW31259   3.262   0.579   0.691 -0.4887  0.0245 -0.4325
 7872SOL    HW231260   3.241   0.563   0.599 -2.2241 -0.7773  0.0644
 7872SOL    HW331261   3.180   0.560   0.738  0.9871 -1.9781  1.5391
 7872SOL    MW431262   3.248   0.575   0.685 -0.5229 -0.3455 -0.1068
 7873SOL     OW31263   1.367   0.963   6.425  0.0258  0.3432  0.0293
 7873SOL    HW231264   1.392   0.946   6.334  1.9912 -3.5950  1.0618
 7873SOL    HW331265   1.444   1.005   6.464 -0.0834  0.3149  0.2783
 7873SOL    MW431266   1.380   0.966   6.418  0.2707 -0.1802  0.1984
 7874SOL     OW31267   0.668   3.864   1.198 -0.2791 -0.1528  0.3961
 7874SOL    HW231268   0.590   3.832   1.244 -0.4874  0.3523  0.3951
 7874SOL    HW331269   0.635   3.931   1.138  0.5901  2.8663  3.0665
 7874SOL    MW431270   0.653   3.868   1.196 -0.1919  0.3122  0.7483
 7875SOL     OW31271   4.061   5.636   0.695 -0.0519 -0.5060  0.0978
 7875SOL    HW231272   4.029   5.708   0.748  1.5439 -0.8564  1.6102
 7875SOL    HW331273   3.992   5.569   0.701 -0.7628  0.2113  0.0831
 7875SOL    MW431274   4.048   5.637   0.703  0.0648 -0.4576  0.2954
 7876SOL     OW31275   0.636   0.699   1.116  0.5344  0.0483 -0.5810
 7876SOL    HW231276   0.544   0.713   1.136  0.7559 -0.0578  0.5800
 7876SOL    HW331277   0.677   0.785   1.127  0.5207  0.1931 -1.5251
 7876SOL    MW431278   0.629   0.712   1.120  0.5619  0.0534 -0.5524
 7877SOL     OW31279   1.802   2.051   6.232 -0.6654 -0.5539 -0.0051
 7877SOL    HW231280   1.746   2.102   6.290  1.5282  2.5511 -0.3962
 7877SOL    HW331281   1.856   1.998   6.291  0.2030  1.1082  0.7544
 7877SOL    MW431282   1.802   2.050   6.248 -0.2614  0.0750  0.0435
 7878SOL     OW31283   4.605   2.207   1.148  0.6436 -0.5286 -0.1423
 7878SOL    HW231284   4.680   2.266   1.154  0.1880  0.0470  0.0020
 7878SOL    HW331285   4.623   2.152   1.072  1.6626 -1.0450  0.4448
 7878SOL    MW431286   4.617   2.207   1.139  0.7179 -0.5208 -0.0458
 7879SOL     OW31287   1.576   1.973   4.378  0.1953  0.1293 -0.1100
 7879SOL    HW231288   1.581   1.879   4.397  0.2546 -0.3316 -2.1527
 7879SOL    HW331289   1.490   1.985   4.337  1.4631  0.2516 -2.9999
 7879SOL    MW431290   1.565   1.962   4.375  0.3704  0.0847 -0.7608
 7880SOL     OW31291   4.712   5.676   4.661  0.1633  0.2608  0.5803
 7880SOL    HW231292   4.745   5.632   4.739  1.5261 -1.0128 -0.6597
 7880SOL    HW331293   4.630   5.632   4.641  0.4205 -0.2406  0.6104
 7880SOL    MW431294   4.706   5.665   4.669  0.3770  0.0266  0.4207
 7881SOL     OW31295   3.856   0.669   5.298  0.7090  0.5526  0.2087
 7881SOL    HW231296   3.894   0.755   5.280  0.1829  1.6775  3.6541
 7881SOL    HW331297   3.767   0.674   5.263  1.1893  0.7721 -1.0259
 7881SOL    MW431298   3.850   0.681   5.291  0.7030  0.7299  0.5004
 7882SOL     OW31299   2.137   4.525   0.436 -0.2371 -0.1492 -0.2639
 7882SOL    HW231300   2.128   4.515   0.531 -0.4401 -0.3446 -0.3048
 7882SOL    HW331301   2.144   4.435   0.403  0.8241 -0.0613 -0.3387
 7882SOL    MW431302   2.137   4.512   0.444 -0.1239 -0.1634 -0.2792
 7883SOL     OW31303   2.769   1.519   1.654  0.4133 -0.0775  0.4416
 7883SOL    HW231304   2.789   1.597   1.706 -0.6627  0.8097 -0.4189
 7883SOL    HW331305   2.842   1.512   1.593  1.6744 -1.1086  1.9864
 7883SOL    MW431306   2.781   1.529   1.653  0.4377 -0.0965  0.5319
 7884SOL     OW31307   2.376   3.483   0.669 -0.1575 -0.1222 -0.8273
 7884SOL    HW231308   2.305   3.522   0.720 -0.3412  1.8649 -2.4646
 7884SOL    HW331309   2.337   3.406   0.627 -1.5104  1.1980 -2.0543
 7884SOL    MW431310   2.362   3.478   0.670 -0.3602  0.3141 -1.2052
 7885SOL     OW31311   5.805   4.021   3.752  0.4196  0.0480 -0.0569
 7885SOL    HW231312   5.882   3.967   3.737  0.7986  0.5990 -0.1550
 7885SOL    HW331313   5.763   3.984   3.830  0.8786 -0.1563  0.0938
 7885SOL    MW431314   5.809   4.009   3.760  0.5301  0.0937 -0.0499
 7886SOL     OW31315   3.318   2.532   6.291 -0.3556  0.1571  0.5132
 7886SOL    HW231316   3.389   2.479   6.256 -1.2110 -1.1822  0.7418
 7886SOL    HW331317   3.242   2.507   6.238 -1.2360 -0.4504  2.0105
 7886SOL    MW431318   3.317   2.522   6.279 -0.5846 -0.0998  0.7409
 7887SOL     OW31319   3.455   1.817   2.511 -0.1654 -0.1386 -0.0421
 7887SOL    HW231320   3.435   1.875   2.437  1.7071  1.1200  0.3668
 7887SOL    HW331321   3.379   1.761   2.518 -1.6355  1.5988 -1.1246
 7887SOL    MW431322   3.443   1.817   2.502 -0.1123  0.2567 -0.1310
 7888SOL     OW31323   4.722   2.510   0.110 -0.2325  0.2031 -0.3660
 7888SOL    HW231324   4.733   2.434   0.053  0.7742 -0.8993  1.1965
 7888SOL    HW331325   4.807   2.554   0.108 -0.0037 -0.1469  0.6319
 7888SOL    MW431326   4.735   2.505   0.103 -0.0695  0.0114 -0.0282
 7889SOL     OW31327   0.751   5.943   0.625 -0.4529 -0.4798  0.4525
 7889SOL    HW231328   0.809   5.867   0.625  1.2078  0.7303  0.3111
 7889SOL    HW331329   0.718   5.948   0.536  0.5551 -0.2503  0.0762
 7889SOL    MW431330   0.754   5.934   0.613 -0.1008 -0.2898  0.3842
 7890SOL     OW31331   2.739   3.909   0.329 -0.3431  0.2926 -0.7249
 7890SOL    HW231332   2.694   3.992   0.345 -0.6174  0.1807 -0.9089
 7890SOL    HW331333   2.691   3.870   0.256 -0.2572 -0.0592 -0.5934
 7890SOL    MW431334   2.727   3.915   0.322 -0.3680  0.2314 -0.7318
 7891SOL     OW31335   3.509   1.170   0.073 -0.1827 -0.0551 -0.2769
 7891SOL    HW231336   3.535   1.099   0.013  0.0729  0.7323 -1.1276
 7891SOL    HW331337   3.591   1.196   0.114  0.3967  2.0112 -2.5021
 7891SOL    MW431338   3.524   1.164   0.070 -0.0725  0.3214 -0.6827
 7892SOL     OW31339   4.163   5.874   1.070  0.0105 -0.1865  0.2005
 7892SOL    HW231340   4.232   5.855   1.007  0.8042  0.7567  0.7541
 7892SOL    HW331341   4.108   5.940   1.026  0.8136  0.7976  0.6330
 7892SOL    MW431342   4.165   5.880   1.056  0.2212  0.0678  0.3306
 7893SOL     OW31343   1.443   2.308   6.148 -0.0036  0.4111  0.2646
 7893SOL    HW231344   1.504   2.369   6.190  0.8277 -0.7031  0.6950
 7893SOL    HW331345   1.382   2.283   6.217  0.4041 -0.1892  0.4152
 7893SOL    MW431346   1.443   2.313   6.162  0.1599  0.1849  0.3413
 7894SOL     OW31347   3.836   3.791   4.934  0.0962 -0.4558  0.0244
 7894SOL    HW231348   3.796   3.799   5.021  1.5508  0.8150  0.6196
 7894SOL    HW331349   3.905   3.726   4.946  1.0918  0.6079  0.1448
 7894SOL    MW431350   3.840   3.783   4.947  0.4194 -0.1478  0.1188
 7895SOL     OW31351   4.850   4.508   5.847 -0.2305 -0.4324  0.0957
 7895SOL    HW231352   4.925   4.566   5.864  0.7217 -1.4282 -0.5945
 7895SOL    HW331353   4.844   4.453   5.925  0.3110 -0.9441 -0.2254
 7895SOL    MW431354   4.859   4.509   5.860 -0.0334 -0.6313 -0.0377
 7896SOL     OW31355   2.348   4.487   2.923 -0.3275 -0.3447  0.6697
 7896SOL    HW231356   2.350   4.440   2.840 -0.5251  2.0053 -0.7821
 7896SOL    HW331357   2.261   4.526   2.926  0.7547  2.3877  0.1924
 7896SOL    MW431358   2.337   4.486   2.912 -0.2108  0.3259  0.4152
 7897SOL     OW31359   3.104   3.567   2.744 -0.0403 -0.0942  0.3409
 7897SOL    HW231360   3.063   3.533   2.823  1.0505 -1.1258  0.4891
 7897SOL    HW331361   3.167   3.632   2.776 -0.9046  0.8549  0.1718
 7897SOL    MW431362   3.107   3.571   2.759 -0.0104 -0.1051  0.3381
 7898SOL     OW31363   0.274   5.215   5.335  0.7352 -0.2576  0.6449
 7898SOL    HW231364   0.317   5.232   5.251 -0.0836  0.2553  0.3229
 7898SOL    HW331365   0.286   5.296   5.384 -0.4184  0.1276  0.3073
 7898SOL    MW431366   0.281   5.228   5.330  0.4750 -0.1391  0.5578
 7899SOL     OW31367   1.593   4.218   1.581  0.3619 -0.6801  0.4430
 7899SOL    HW231368   1.550   4.198   1.664 -6.2100  3.7293 -1.1354
 7899SOL    HW331369   1.547   4.165   1.517  2.5801 -1.0765 -0.9572
 7899SOL    MW431370   1.582   4.208   1.584 -0.2125 -0.1507  0.0500
 7900SOL     OW31371   4.017   3.791   6.068 -0.0239 -0.2892  0.1434
 7900SOL    HW231372   3.943   3.764   6.122  0.3541 -0.7730  0.4309
 7900SOL    HW331373   4.080   3.828   6.131  0.0874 -0.1203 -0.0646
 7900SOL    MW431374   4.016   3.792   6.084  0.0406 -0.3308  0.1539
 7901SOL     OW31375   5.327   5.821   5.978  0.0188 -0.2775 -0.3890
 7901SOL    HW231376   5.404   5.774   5.946 -0.0259 -0.5112 -0.1519
 7901SOL    HW331377   5.345   5.837   6.070 -0.6739 -1.2902 -0.0536
 7901SOL    MW431378   5.340   5.817   5.986 -0.0785 -0.4419 -0.3135
 7902SOL     OW31379   4.029   0.736   1.129 -0.4925  0.2303  0.6742
 7902SOL    HW231380   4.101   0.674   1.118 -1.6234 -0.7613 -2.4048
 7902SOL    HW331381   4.064   0.819   1.096 -0.3152  0.0874  0.4966
 7902SOL    MW431382   4.044   0.738   1.123 -0.6183  0.0807  0.2445
 7903SOL     OW31383   0.647   6.130   4.382 -0.3320 -0.1652  0.1305
 7903SOL    HW231384   0.672   6.197   4.446 -2.3846  1.0493 -0.2800
 7903SOL    HW331385   0.611   6.059   4.436 -0.0832 -0.0584  0.4424
 7903SOL    MW431386   0.646   6.129   4.398 -0.5700  0.0091  0.1175
 7904SOL     OW31387   4.798   1.016   0.494 -0.5220 -0.2538  0.1280
 7904SOL    HW231388   4.851   0.961   0.551  0.1665 -0.5047 -0.7293
 7904SOL    HW331389   4.710   1.013   0.533 -0.0395 -0.2622  1.2634
 7904SOL    MW431390   4.793   1.009   0.507 -0.3675 -0.2880  0.1647
 7905SOL     OW31391   5.734   0.521   3.675  0.6794  0.5030 -0.5080
 7905SOL    HW231392   5.761   0.457   3.742 -0.9979  0.6876  0.4003
 7905SOL    HW331393   5.738   0.605   3.720  0.3844  0.7371 -0.9198
 7905SOL    MW431394   5.738   0.523   3.690  0.4192  0.5582 -0.4425
 7906SOL     OW31395   0.258   0.925   4.425  0.1140  0.1078 -0.0670
 7906SOL    HW231396   0.164   0.911   4.414 -0.0470 -1.4051  2.4603
 7906SOL    HW331397   0.298   0.867   4.360 -0.6913  0.5052 -0.9339
 7906SOL    MW431398   0.251   0.915   4.415 -0.0135 -0.0393  0.1521
 7907SOL     OW31399   2.395   2.546   0.200 -0.0403  0.8061  0.1046
 7907SOL    HW231400   2.474   2.582   0.240 -0.8817  1.0085  1.6472
 7907SOL    HW331401   2.330   2.615   0.208 -1.9787 -1.1531  3.9582
 7907SOL    MW431402   2.397   2.560   0.206 -0.4071  0.5743  0.8165
 7908SOL     OW31403   5.162   0.608   5.297  0.0218 -0.2097 -0.6447
 7908SOL    HW231404   5.222   0.671   5.257 -0.4422  0.1450 -0.7814
 7908SOL    HW331405   5.140   0.547   5.226 -0.7678  0.3947 -0.9229
 7908SOL    MW431406   5.167   0.608   5.282 -0.1436 -0.0832 -0.6994
 7909SOL     OW31407   6.373   5.167   5.364  0.1802 -0.4035 -0.2136
 7909SOL    HW231408   6.440   5.234   5.376  1.5900 -1.2588 -2.6061
 7909SOL    HW331409   6.292   5.207   5.398  0.7418  2.8935 -2.2999
 7909SOL    MW431410   6.371   5.181   5.370  0.4403 -0.0813 -0.8045
 7910SOL     OW31411   2.038   1.425   3.412  0.2092  0.8362  0.1527
 7910SOL    HW231412   2.001   1.433   3.500 -0.4462  0.7733 -0.1138
 7910SOL    HW331413   2.055   1.332   3.402  0.8571  0.9157  0.4357
 7910SOL    MW431414   2.035   1.414   3.422  0.2082  0.8384  0.1549
 7911SOL     OW31415   6.107   3.041   0.508 -0.0244 -0.0630 -0.3077
 7911SOL    HW231416   6.197   3.062   0.482 -0.6262 -0.0689 -2.6227
 7911SOL    HW331417   6.058   3.039   0.425 -2.0038 -0.8176  0.8138
 7911SOL    MW431418   6.113   3.043   0.493 -0.3650 -0.1633 -0.4651
 7912SOL     OW31419   1.578   0.204   1.590  0.1840  0.3765 -1.0457
 7912SOL    HW231420   1.495   0.169   1.622  1.1370 -0.1045  1.0830
 7912SOL    HW331421   1.619   0.131   1.544  0.6496 -0.3077  0.3963
 7912SOL    MW431422   1.573   0.189   1.589  0.3712  0.2228 -0.5746
 7913SOL     OW31423   4.478   2.254   3.836 -0.1611 -0.2177  0.0930
 7913SOL    HW231424   4.468   2.342   3.871  0.0283 -0.6978  1.4266
 7913SOL    HW331425   4.503   2.267   3.745  0.3500  1.1049  0.4006
 7913SOL    MW431426   4.480   2.267   3.829 -0.0687 -0.1065  0.3096
 7914SOL     OW31427   2.823   5.588   1.108  0.0804  0.5824 -0.1010
 7914SOL    HW231428   2.815   5.618   1.199  0.6751  0.1452  0.1001
 7914SOL    HW331429   2.841   5.668   1.058  0.7893  0.6911  0.3121
 7914SOL    MW431430   2.824   5.603   1.113  0.2524  0.5391 -0.0200
 7915SOL     OW31431   1.233   3.499   0.892 -0.2511  0.1988  0.0223
 7915SOL    HW231432   1.280   3.553   0.955  0.8384 -0.2167 -0.4246
 7915SOL    HW331433   1.221   3.555   0.816 -2.1419  0.9229  0.7843
 7915SOL    MW431434   1.237   3.513   0.891 -0.3568  0.2395  0.0639
 7916SOL     OW31435   1.369   0.295   1.780 -0.1834  0.2170 -0.5546
 7916SOL    HW231436   1.289   0.305   1.831 -0.3596 -0.6984 -0.6326
 7916SOL    HW331437   1.438   0.283   1.846 -0.4585 -1.2982 -0.5118
 7916SOL    MW431438   1.367   0.295   1.796 -0.2429 -0.1037 -0.5593
 7917SOL     OW31439   0.097   1.480   4.015 -0.1974 -0.3057 -0.6307
 7917SOL    HW231440   0.026   1.544   4.021 -0.6354 -0.5750 -2.4471
 7917SOL    HW331441   0.130   1.473   4.105 -0.3393  2.1972 -0.3005
 7917SOL    MW431442   0.092   1.488   4.028 -0.2739 -0.0110 -0.8268
 7918SOL     OW31443   5.903   0.783   4.688 -0.3384 -0.1282 -0.5102
 7918SOL    HW231444   5.953   0.760   4.610  0.8518 -0.0415  0.2030
 7918SOL    HW331445   5.956   0.851   4.731 -0.9356 -0.2237  0.4039
 7918SOL    MW431446   5.917   0.789   4.683 -0.2601 -0.1294 -0.2955
 7919SOL     OW31447   2.307   6.298   4.434  0.3454  0.4925  0.4916
 7919SOL    HW231448   2.267   6.313   4.519  0.0421  0.7872  0.2999
 7919SOL    HW331449   2.371   6.228   4.449 -0.7710 -0.5369  0.6563
 7919SOL    MW431450   2.310   6.291   4.447  0.1581  0.3956  0.4881
 7920SOL     OW31451   1.164   2.965   1.243  0.0840  0.0547 -0.2941
 7920SOL    HW231452   1.136   3.047   1.283  1.4080  1.1913 -1.5430
 7920SOL    HW331453   1.255   2.981   1.218  0.8779 -2.3527  0.7746
 7920SOL    MW431454   1.173   2.978   1.245  0.3634 -0.1129 -0.3178
 7921SOL     OW31455   1.387   4.639   2.348  0.5868  0.2301 -0.3392
 7921SOL    HW231456   1.471   4.646   2.393  0.6085  1.0467 -0.4936
 7921SOL    HW331457   1.393   4.701   2.275 -0.1573  0.3205 -0.3341
 7921SOL    MW431458   1.399   4.648   2.344  0.4915  0.3498 -0.3589
 7922SOL     OW31459   5.481   3.244   1.272 -0.3967 -0.1722  0.4585
 7922SOL    HW231460   5.528   3.272   1.351 -0.5190 -0.7683  0.7532
 7922SOL    HW331461   5.502   3.310   1.206  0.3421 -0.0950  0.7649
 7922SOL    MW431462   5.490   3.256   1.274 -0.3154 -0.2407  0.5378
 7923SOL     OW31463   3.288   1.729   6.098 -0.4641  0.1982 -0.8778
 7923SOL    HW231464   3.283   1.688   6.012 -0.0421 -0.3316 -0.6559
 7923SOL    HW331465   3.369   1.695   6.136 -1.1035 -0.2877  0.0828
 7923SOL    MW431466   3.298   1.719   6.092 -0.4928  0.0642 -0.7218
 7924SOL     OW31467   1.069   3.295   5.203  0.2576 -0.0081 -0.7172
 7924SOL    HW231468   0.979   3.327   5.194  0.2380  0.1449 -0.0686
 7924SOL    HW331469   1.060   3.208   5.243  0.4556  0.9978  1.7250
 7924SOL    MW431470   1.056   3.288   5.207  0.2812  0.1448 -0.3094
 7925SOL     OW31471   6.329   4.771   4.907  0.2013 -0.4562 -0.0883
 7925SOL    HW231472   6.280   4.693   4.932 -2.7195  1.5419  0.9526
 7925SOL    HW331473   6.363   4.806   4.989  3.9866 -1.9699 -0.8043
 7925SOL    MW431474   6.327   4.765   4.921  0.3153 -0.3923 -0.0454
 7926SOL     OW31475   4.175   3.496   5.366  0.0210  0.4262 -0.2137
 7926SOL    HW231476   4.221   3.448   5.297 -1.3106 -0.1059 -0.7642
 7926SOL    HW331477   4.095   3.446   5.380  0.2015  0.6163  1.6366
 7926SOL    MW431478   4.171   3.483   5.358 -0.1309  0.3811 -0.0422
 7927SOL     OW31479   2.117   5.563   3.098  0.6966 -0.2769 -0.1199
 7927SOL    HW231480   2.126   5.555   3.193  0.2936  0.4371 -0.0114
 7927SOL    HW331481   2.047   5.627   3.086 -0.0880 -1.2546 -0.9058
 7927SOL    MW431482   2.109   5.570   3.109  0.5399 -0.3117 -0.2093
 7928SOL     OW31483   2.084   2.279   4.291  0.0942 -0.1635 -0.1251
 7928SOL    HW231484   2.177   2.274   4.313  0.1761  1.0372 -0.1434
 7928SOL    HW331485   2.038   2.257   4.373  0.3837 -1.2491 -0.2467
 7928SOL    MW431486   2.090   2.276   4.305  0.1432 -0.1483 -0.1435
 7929SOL     OW31487   5.754   5.241   3.616  0.0507 -0.1908  0.0160
 7929SOL    HW231488   5.662   5.218   3.601  0.0283 -0.1929  0.1567
 7929SOL    HW331489   5.780   5.291   3.538 -0.5919  1.3966  0.7780
 7929SOL    MW431490   5.745   5.244   3.604 -0.0370  0.0183  0.1351
 7930SOL     OW31491   0.403   3.165   5.655 -0.0336 -0.1966  0.2938
 7930SOL    HW231492   0.471   3.099   5.671  0.5868  1.0615  3.5440
 7930SOL    HW331493   0.443   3.225   5.591  1.6175  0.0175  1.4458
 7930SOL    MW431494   0.418   3.164   5.649  0.2661 -0.0023  0.8746
 7931SOL     OW31495   2.209   5.612   1.259  0.7478  0.0735  0.0079
 7931SOL    HW231496   2.242   5.525   1.285 -2.0148 -0.4259  2.2948
 7931SOL    HW331497   2.271   5.673   1.300  3.0710 -0.6685 -2.1020
 7931SOL    MW431498   2.222   5.608   1.268  0.6898 -0.0903  0.0312
 7932SOL     OW31499   5.967   5.682   1.116  0.4793  0.3307  0.0849
 7932SOL    HW231500   5.936   5.592   1.108 -0.1632  0.7159 -2.7807
 7932SOL    HW331501   6.062   5.675   1.109  0.4334 -0.1334 -0.1362
 7932SOL    MW431502   5.975   5.669   1.114  0.3885  0.3203 -0.3224
 7933SOL     OW31503   1.033   3.064   2.792  0.4709 -0.3833  0.9425
 7933SOL    HW231504   0.959   3.051   2.852  0.0132  0.4630  0.5852
 7933SOL    HW331505   1.000   3.035   2.707 -1.4080  4.7147 -0.4049
 7933SOL    MW431506   1.019   3.058   2.789  0.1626  0.4009  0.7176
 7934SOL     OW31507   3.938   4.870   2.842 -0.3783 -0.6848 -0.4550
 7934SOL    HW231508   3.980   4.789   2.872 -1.1116 -1.6427 -1.8948
 7934SOL    HW331509   3.846   4.847   2.831 -0.9749  0.8890  0.9261
 7934SOL    MW431510   3.932   4.856   2.844 -0.5537 -0.6036 -0.4627
 7935SOL     OW31511   2.335   0.276   3.512 -0.2136  0.2749 -0.2003
 7935SOL    HW231512   2.351   0.274   3.418  0.1357  0.6887 -0.1539
 7935SOL    HW331513   2.297   0.191   3.532 -0.7167  0.3570 -0.7910
 7935SOL    MW431514   2.332   0.265   3.503 -0.2339  0.3403 -0.2721
 7936SOL     OW31515   2.674   3.369   2.347 -0.4749  1.0169 -0.1792
 7936SOL    HW231516   2.716   3.430   2.408  0.4022  2.0916 -1.7806
 7936SOL    HW331517   2.739   3.300   2.335 -0.4603  1.0422 -0.2453
 7936SOL    MW431518   2.688   3.368   2.354 -0.3572  1.1620 -0.3992
 7937SOL     OW31519   2.157   3.319   0.973  0.5601  0.7192  0.0737
 7937SOL    HW231520   2.150   3.405   0.932  0.7085  1.0296  0.6744
 7937SOL    HW331521   2.168   3.338   1.067 -0.2198  0.0267  0.3206
 7937SOL    MW431522   2.157   3.333   0.980  0.4767  0.6688  0.1856
 7938SOL     OW31523   2.983   2.866   0.188  0.0030 -0.9521  0.3813
 7938SOL    HW231524   2.926   2.798   0.153  0.5356 -0.0468 -2.4649
 7938SOL    HW331525   2.924   2.940   0.205 -0.0093 -0.7755 -0.4053
 7938SOL    MW431526   2.967   2.867   0.186  0.0717 -0.8094 -0.0980
 7939SOL     OW31527   0.273   3.446   4.818  0.0034 -0.1976 -0.6902
 7939SOL    HW231528   0.311   3.380   4.761  0.1992  0.0327 -0.8278
 7939SOL    HW331529   0.264   3.403   4.903 -1.8586 -1.0972 -1.2876
 7939SOL    MW431530   0.277   3.432   4.822 -0.2164 -0.2859 -0.7872
 7940SOL     OW31531   0.915   5.990   2.833  0.5941 -0.4450  0.4053
 7940SOL    HW231532   0.920   5.905   2.877  1.2461 -0.1577  0.9011
 7940SOL    HW331533   1.005   6.008   2.805  0.5280  0.2536  0.6265
 7940SOL    MW431534   0.928   5.981   2.835  0.6714 -0.3150  0.4999
 7941SOL     OW31535   6.216   3.022   4.784 -0.3694  0.0613  0.6151
 7941SOL    HW231536   6.256   3.083   4.722 -0.9760 -0.4885 -0.3436
 7941SOL    HW331537   6.131   3.000   4.745  0.5021 -2.7120  0.0348
 7941SOL    MW431538   6.210   3.027   4.771 -0.3345 -0.3771  0.4121
 7942SOL     OW31539   0.477   4.146   4.705  0.0501 -0.0799 -0.2990
 7942SOL    HW231540   0.444   4.230   4.739 -1.1915 -1.0250  0.9588
 7942SOL    HW331541   0.500   4.096   4.783  1.2017 -0.7724 -1.0516
 7942SOL    MW431542   0.475   4.151   4.720  0.0382 -0.2960 -0.2323
 7943SOL     OW31543   4.790   5.879   1.714  0.0930  0.0206 -0.0643
 7943SOL    HW231544   4.752   5.941   1.777 -0.8989  0.7186 -1.3049
 7943SOL    HW331545   4.753   5.794   1.739 -0.1849  0.2633  0.3737
 7943SOL    MW431546   4.780   5.876   1.726 -0.0745  0.1447 -0.1702
 7944SOL     OW31547   2.203   3.124   5.039 -0.1138 -0.0987  0.1513
 7944SOL    HW231548   2.293   3.156   5.039 -0.3752  0.9447  3.1101
 7944SOL    HW331549   2.162   3.167   4.964  1.7150 -0.3505 -1.0657
 7944SOL    MW431550   2.210   3.134   5.029  0.0930  0.0057  0.3811
 7945SOL     OW31551   2.462   2.897   1.733  0.0251  0.9520 -0.1054
 7945SOL    HW231552   2.518   2.856   1.667 -0.5595  0.4322 -0.2855
 7945SOL    HW331553   2.470   2.840   1.809  0.0901  1.1252  0.0180
 7945SOL    MW431554   2.470   2.884   1.734 -0.0435  0.9063 -0.1129
 7946SOL     OW31555   1.522   3.519   4.665  0.1369  0.1060 -0.2543
 7946SOL    HW231556   1.449   3.535   4.725  0.5440  0.0722  0.2560
 7946SOL    HW331557   1.483   3.523   4.577 -0.5301 -0.2225  0.0281
 7946SOL    MW431558   1.507   3.522   4.661  0.1026  0.0582 -0.1497
 7947SOL     OW31559   6.321   2.788   4.395 -0.0606 -0.3049  0.0491
 7947SOL    HW231560   6.324   2.745   4.310 -1.1110 -1.7079  0.6781
 7947SOL    HW331561   6.264   2.864   4.383 -0.2327 -0.5189 -0.4904
 7947SOL    MW431562   6.314   2.792   4.382 -0.2219 -0.5183  0.0609
 7948SOL     OW31563   2.812   5.812   5.083 -0.1350  0.1137 -0.3183
 7948SOL    HW231564   2.823   5.854   5.169 -1.2215 -0.9723  0.3854
 7948SOL    HW331565   2.899   5.813   5.045  0.5701 -0.1924  1.1958
 7948SOL    MW431566   2.825   5.818   5.089 -0.1853 -0.0700 -0.0257
 7949SOL     OW31567   3.507   0.795   1.703 -0.1282 -0.3393  0.5041
 7949SOL    HW231568   3.588   0.837   1.675 -2.4014  3.0155 -1.8398
 7949SOL    HW331569   3.471   0.853   1.770 -1.8457 -0.1875 -0.4814
 7949SOL    MW431570   3.513   0.808   1.708 -0.6547  0.1234  0.0648
 7950SOL     OW31571   5.978   5.997   3.332 -0.3428 -0.2193  0.2225
 7950SOL    HW231572   6.062   6.037   3.309 -0.0721 -0.3655  0.9325
 7950SOL    HW331573   5.930   5.994   3.250 -0.0395  0.7837 -0.0011
 7950SOL    MW431574   5.983   6.002   3.318 -0.2671 -0.1063  0.2867
 7951SOL     OW31575   1.624   0.832   3.488  0.0524  0.1373  0.5213
 7951SOL    HW231576   1.712   0.830   3.450 -0.3657 -0.2017 -0.4642
 7951SOL    HW331577   1.586   0.915   3.456  0.7080  1.3292  2.6285
 7951SOL    MW431578   1.631   0.843   3.479  0.0837  0.2498  0.6693
 7952SOL     OW31579   4.107   5.523   1.025  0.6146 -0.4581  0.1686
 7952SOL    HW231580   4.093   5.456   1.092 -0.8034 -0.7906 -0.4174
 7952SOL    HW331581   4.161   5.480   0.959  1.2888 -0.4053  0.6767
 7952SOL    MW431582   4.112   5.508   1.025  0.5165 -0.4950  0.1583
 7953SOL     OW31583   1.756   2.419   2.009 -0.7119 -0.5125 -0.2938
 7953SOL    HW231584   1.694   2.492   2.004 -1.5839 -1.2753 -1.0101
 7953SOL    HW331585   1.820   2.438   1.941  0.2792  0.6391  0.9123
 7953SOL    MW431586   1.756   2.431   1.999 -0.6962 -0.4612 -0.2292
 7954SOL     OW31587   5.821   3.376   5.165 -0.1740  0.1758 -0.3227
 7954SOL    HW231588   5.904   3.418   5.140  0.1872  0.9953  1.9632
 7954SOL    HW331589   5.802   3.412   5.252 -2.4665 -0.7090 -0.3933
 7954SOL    MW431590   5.829   3.387   5.173 -0.4288  0.1672 -0.0304
 7955SOL     OW31591   4.311   5.375   4.037 -0.1666  0.1297  0.4545
 7955SOL    HW231592   4.398   5.339   4.051 -0.0700 -0.1114 -0.6660
 7955SOL    HW331593   4.323   5.470   4.043  0.4682  0.1786 -1.0570
 7955SOL    MW431594   4.324   5.383   4.039 -0.0701  0.1043  0.1072
 7956SOL     OW31595   4.057   4.832   0.299  0.0364 -0.1850  0.4600
 7956SOL    HW231596   4.107   4.915   0.299  2.3219 -1.4467  1.7920
 7956SOL    HW331597   4.018   4.828   0.386 -2.9859  0.9908 -0.7041
 7956SOL    MW431598   4.059   4.843   0.310 -0.0608 -0.1963  0.4821
 7957SOL     OW31599   1.844   5.411   2.202  0.1151  0.0618  0.0435
 7957SOL    HW231600   1.839   5.409   2.297  0.1751  0.0442  0.0464
 7957SOL    HW331601   1.911   5.476   2.182 -0.3133  0.4922 -0.0021
 7957SOL    MW431602   1.852   5.419   2.212  0.0665  0.1163  0.0378
 7958SOL     OW31603   2.231   0.829   1.810  0.0116 -0.1600 -0.0057
 7958SOL    HW231604   2.139   0.803   1.812 -0.0545  0.0258  2.3642
 7958SOL    HW331605   2.279   0.748   1.830  0.3014 -0.0287 -0.1579
 7958SOL    MW431606   2.225   0.815   1.813  0.0411 -0.1182  0.2869
 7959SOL     OW31607   1.405   4.842   4.150  0.9095  0.7651  0.0410
 7959SOL    HW231608   1.366   4.875   4.069  1.5863  1.7044  0.0810
 7959SOL    HW331609   1.489   4.889   4.157  1.6708 -0.6014  0.3697
 7959SOL    MW431610   1.411   4.853   4.140  1.0992  0.7087  0.0896
 7960SOL     OW31611   4.847   3.920   1.224 -0.4276  0.1799 -0.3631
 7960SOL    HW231612   4.797   3.955   1.150 -2.3627 -2.1273 -0.2527
 7960SOL    HW331613   4.900   3.850   1.186  1.3827  1.3619 -0.1308
 7960SOL    MW431614   4.847   3.915   1.209 -0.4440  0.0314 -0.3179
 7961SOL     OW31615   4.233   2.234   0.151  0.5454 -0.4120 -0.5901
 7961SOL    HW231616   4.155   2.181   0.165 -0.6612  1.1725 -0.9378
 7961SOL    HW331617   4.302   2.190   0.200 -0.7017 -1.5381  0.2173
 7961SOL    MW431618   4.232   2.222   0.159  0.2217 -0.3515 -0.5294
 7962SOL     OW31619   2.678   2.063   3.923 -0.2059  0.2806  0.2169
 7962SOL    HW231620   2.636   2.081   4.007 -1.0910  0.1530 -0.1887
 7962SOL    HW331621   2.606   2.048   3.862  0.4264  0.0376 -0.4976
 7962SOL    MW431622   2.663   2.063   3.926 -0.2393  0.2317  0.0692
 7963SOL     OW31623   3.788   2.384   5.298  0.1719  0.2907 -0.4017
 7963SOL    HW231624   3.860   2.327   5.326 -1.6671 -0.6062  2.9980
 7963SOL    HW331625   3.789   2.457   5.361 -1.3435  0.7244 -0.8339
 7963SOL    MW431626   3.798   2.386   5.310 -0.2707  0.2296 -0.0102
 7964SOL     OW31627   4.921   6.123   6.199 -0.2176  0.3946  0.2112
 7964SOL    HW231628   4.973   6.064   6.144 -0.4265  1.1735 -0.8565
 7964SOL    HW331629   4.860   6.065   6.246 -1.3788 -0.1491 -1.8655
 7964SOL    MW431630   4.920   6.108   6.198 -0.3984  0.4257 -0.2036
 7965SOL     OW31631   1.858   1.330   4.543 -0.3431  0.0351  0.1704
 7965SOL    HW231632   1.901   1.260   4.591 -0.8934  0.2340  0.9810
 7965SOL    HW331633   1.916   1.406   4.553  0.1132 -0.2183 -0.4722
 7965SOL    MW431634   1.871   1.331   4.551 -0.3555  0.0279  0.1926
 7966SOL     OW31635   1.234   4.369   0.726 -0.0706 -0.2109  0.1997
 7966SOL    HW231636   1.212   4.289   0.774 -1.5714  0.9781  1.6489
 7966SOL    HW331637   1.229   4.438   0.793 -0.0559  1.2497 -1.2488
 7966SOL    MW431638   1.230   4.368   0.741 -0.2667  0.1387  0.1998
 7967SOL     OW31639   0.909   0.913   3.660  0.2412  0.0001 -0.1350
 7967SOL    HW231640   1.004   0.898   3.661  0.2407 -0.7392 -3.0048
 7967SOL    HW331641   0.879   0.871   3.580 -2.5169  0.4409  0.5734
 7967SOL    MW431642   0.918   0.905   3.650 -0.1228 -0.0393 -0.4202
 7968SOL     OW31643   4.607   4.855   4.650  0.6411 -0.0111 -0.3104
 7968SOL    HW231644   4.616   4.870   4.744  0.1053  0.0444 -0.2644
 7968SOL    HW331645   4.685   4.896   4.612 -0.2128  1.9453 -0.0826
 7968SOL    MW431646   4.619   4.862   4.658  0.4577  0.2544 -0.2743
 7969SOL     OW31647   1.130   5.016   0.615 -0.3769 -0.5029  0.6757
 7969SOL    HW231648   1.185   4.941   0.636  3.7736  2.0313  0.2695
 7969SOL    HW331649   1.085   5.038   0.697  1.8554 -0.9036  2.0914
 7969SOL    MW431650   1.132   5.009   0.628  0.4653 -0.2214  0.8089
 7970SOL     OW31651   1.056   2.151   4.776  0.4652  0.0526  0.0696
 7970SOL    HW231652   1.005   2.111   4.705 -0.8839  0.1603  0.9351
 7970SOL    HW331653   1.135   2.184   4.733  0.0217 -0.5076 -1.2513
 7970SOL    MW431654   1.060   2.150   4.761  0.2287 -0.0071  0.0095
 7971SOL     OW31655   5.487   4.580   6.337 -0.3395  0.2826 -0.3117
 7971SOL    HW231656   5.441   4.497   6.352 -2.4231  1.1723 -1.4127
 7971SOL    HW331657   5.567   4.555   6.292  0.2413 -1.3108  1.4595
 7971SOL    MW431658   5.491   4.565   6.333 -0.5378  0.1897 -0.2233
 7972SOL     OW31659   6.376   1.165   2.524 -0.4496  0.2480  0.5414
 7972SOL    HW231660   6.412   1.081   2.496  1.6379  0.9114  1.0058
 7972SOL    HW331661   6.289   1.169   2.485 -0.0003 -1.4573 -0.7487
 7972SOL    MW431662   6.370   1.155   2.515 -0.1149  0.1105  0.4325
 7973SOL     OW31663   6.375   6.145   4.818  0.0030 -0.2383  0.6313
 7973SOL    HW231664   6.312   6.217   4.811  0.3126 -0.0750 -0.6528
 7973SOL    HW331665   6.403   6.146   4.909 -2.1287 -0.5517  1.3594
 7973SOL    MW431666   6.370   6.154   4.829 -0.2374 -0.2581  0.5579
 7974SOL     OW31667   1.742   0.546   5.708  0.2893 -0.3948  0.0475
 7974SOL    HW231668   1.771   0.601   5.781  1.1406 -0.3344 -0.3238
 7974SOL    HW331669   1.815   0.486   5.693  0.4393  0.0805 -1.2298
 7974SOL    MW431670   1.755   0.545   5.716  0.4215 -0.3241 -0.1700
 7975SOL     OW31671   2.048   3.375   0.369 -0.5316  0.1330 -0.2541
 7975SOL    HW231672   2.040   3.281   0.385  2.6892 -0.2746 -0.4199
 7975SOL    HW331673   1.999   3.416   0.441 -1.0003 -1.6692  0.4870
 7975SOL    MW431674   2.041   3.368   0.381 -0.1685 -0.1585 -0.1782
 7976SOL     OW31675   4.480   1.131   5.613 -0.4291 -0.3596 -0.0253
 7976SOL    HW231676   4.544   1.119   5.683  1.3707  0.5277 -1.4237
 7976SOL    HW331677   4.481   1.049   5.564 -0.1665 -0.2675 -0.1777
 7976SOL    MW431678   4.489   1.119   5.616 -0.1570 -0.2304 -0.2299
 7977SOL     OW31679   2.064   5.774   5.371 -0.1712 -0.3217 -0.6000
 7977SOL    HW231680   1.993   5.816   5.323  1.2505  1.5845 -1.1417
 7977SOL    HW331681   2.111   5.722   5.305 -1.1663 -1.7992 -0.1897
 7977SOL    MW431682   2.061   5.773   5.356 -0.1149 -0.2652 -0.6174
 7978SOL     OW31683   2.331   5.537   2.466  0.0020 -0.7887 -0.0502
 7978SOL    HW231684   2.410   5.485   2.452 -1.2228 -2.9501  0.5947
 7978SOL    HW331685   2.346   5.583   2.549  1.0061 -0.2762 -0.5005
 7978SOL    MW431686   2.343   5.536   2.475 -0.0271 -1.0062 -0.0245
 7979SOL     OW31687   3.961   0.213   4.174 -0.2168  0.2641 -0.3248
 7979SOL    HW231688   4.048   0.240   4.145  0.2725  1.4474  2.0052
 7979SOL    HW331689   3.974   0.179   4.262 -1.7798 -1.9902 -0.8865
 7979SOL    MW431690   3.974   0.212   4.182 -0.3585  0.1228 -0.0915
 7980SOL     OW31691   1.052   2.265   4.179 -0.3140  0.6302  0.0778
 7980SOL    HW231692   1.031   2.196   4.116  0.2487 -0.3455  0.9299
 7980SOL    HW331693   1.123   2.315   4.138 -0.8752  0.8622 -0.6389
 7980SOL    MW431694   1.058   2.263   4.165 -0.3138  0.5320  0.0957
 7981SOL     OW31695   4.639   3.276   5.439 -0.7427 -0.5742 -0.6561
 7981SOL    HW231696   4.644   3.310   5.350 -0.6564 -0.2077 -0.5119
 7981SOL    HW331697   4.545   3.266   5.456 -0.7459 -1.6667 -1.1670
 7981SOL    MW431698   4.627   3.279   5.430 -0.7317 -0.6700 -0.7045
 7982SOL     OW31699   6.381   3.184   6.388 -0.3329 -0.0350 -0.9267
 7982SOL    HW231700   6.446   3.214   6.325  1.4566 -1.0317  0.3477
 7982SOL    HW331701   6.346   3.264   6.427  0.2727  0.5297 -1.5136
 7982SOL    MW431702   6.385   3.198   6.385 -0.0169 -0.0920 -0.8360
 7983SOL     OW31703   4.516   0.630   1.884  0.0837  0.4215  0.6428
 7983SOL    HW231704   4.598   0.647   1.837 -0.3136  0.3155 -0.1086
 7983SOL    HW331705   4.542   0.627   1.976  0.6775  1.9345  0.5568
 7983SOL    MW431706   4.531   0.632   1.890  0.1096  0.6072  0.5323
 7984SOL     OW31707   0.422   5.300   5.702  0.4348 -0.1921  0.1180
 7984SOL    HW231708   0.330   5.271   5.708  1.0769 -2.3165  0.5886
 7984SOL    HW331709   0.419   5.374   5.642 -1.3955 -1.1823 -1.1222
 7984SOL    MW431710   0.409   5.306   5.695  0.2781 -0.6030  0.0165
 7985SOL     OW31711   4.989   1.274   4.631 -0.0045  0.0803  0.1149
 7985SOL    HW231712   4.945   1.303   4.550  0.7356  0.1846 -0.2595
 7985SOL    HW331713   5.010   1.356   4.677 -0.0261  0.0371  0.2017
 7985SOL    MW431714   4.986   1.289   4.626  0.0903  0.0883  0.0770
 7986SOL     OW31715   1.642   6.406   1.973  0.0300 -0.1663 -0.2849
 7986SOL    HW231716   1.611   6.380   2.060  0.9120  0.8373  0.3604
 7986SOL    HW331717   1.623   6.500   1.968 -1.1808 -0.4468 -1.7128
 7986SOL    MW431718   1.635   6.415   1.984 -0.0134 -0.0709 -0.3882
 7987SOL     OW31719   2.599   5.427   1.126  0.1012 -0.1009  0.0623
 7987SOL    HW231720   2.597   5.411   1.220 -0.6816  2.7141  0.6207
 7987SOL    HW331721   2.681   5.474   1.111  0.2518 -0.5759 -0.6914
 7987SOL    MW431722   2.610   5.431   1.136  0.0178  0.2078  0.0365
 7988SOL     OW31723   2.656   5.816   5.770 -0.0138 -0.3915  0.0333
 7988SOL    HW231724   2.702   5.853   5.846  1.0723 -0.0685 -0.7530
 7988SOL    HW331725   2.576   5.868   5.764  0.8272  0.9527 -0.2048
 7988SOL    MW431726   2.652   5.828   5.779  0.2405 -0.1715 -0.1019
 7989SOL     OW31727   3.170   0.563   4.351  0.4169  0.0065  0.4139
 7989SOL    HW231728   3.247   0.593   4.399  0.2913 -1.2628  1.4721
 7989SOL    HW331729   3.196   0.478   4.316 -0.5069 -0.4692  0.8414
 7989SOL    MW431730   3.184   0.556   4.353  0.2785 -0.2237  0.6099
 7990SOL     OW31731   1.361   2.942   4.065  0.2059  0.2219 -0.1256
 7990SOL    HW231732   1.289   2.887   4.035  0.0990 -0.5503  1.3922
 7990SOL    HW331733   1.431   2.927   4.001 -0.6215  0.1618 -1.0330
 7990SOL    MW431734   1.361   2.933   4.053  0.0826  0.1121 -0.0451
 7991SOL     OW31735   2.274   0.403   3.892  0.0088 -0.0647  0.7633
 7991SOL    HW231736   2.357   0.412   3.845 -0.8236  0.7705 -0.6273
 7991SOL    HW331737   2.267   0.483   3.944  0.0449 -0.1125  0.8423
 7991SOL    MW431738   2.284   0.415   3.892 -0.0963  0.0392  0.5902
 7992SOL     OW31739   2.469   6.021   2.020  0.3828  0.4268 -0.5426
 7992SOL    HW231740   2.504   6.110   2.017  1.3923  0.1485  1.3355
 7992SOL    HW331741   2.546   5.965   2.015 -0.2329 -0.3702 -1.5498
 7992SOL    MW431742   2.484   6.026   2.019  0.4348  0.2849 -0.4277
 7993SOL     OW31743   1.769   4.292   0.303 -0.4683 -0.2554  0.2317
 7993SOL    HW231744   1.741   4.267   0.215 -0.0112 -0.4930  0.1483
 7993SOL    HW331745   1.744   4.218   0.358 -1.4075  0.2000  0.4348
 7993SOL    MW431746   1.762   4.279   0.299 -0.5319 -0.2267  0.2475
 7994SOL     OW31747   2.545   1.977   0.811  0.2211 -0.2350  0.0435
 7994SOL    HW231748   2.501   1.904   0.768 -0.6681  0.0114  0.5012
 7994SOL    HW331749   2.539   1.956   0.905 -1.1739  1.0274  0.2565
 7994SOL    MW431750   2.539   1.964   0.818 -0.0802 -0.0360  0.1320
 7995SOL     OW31751   3.805   2.530   6.162 -0.0405  0.4425  0.0544
 7995SOL    HW231752   3.821   2.464   6.231 -0.4654  0.8965  0.5953
 7995SOL    HW331753   3.892   2.564   6.143 -0.0479  1.2636  1.3443
 7995SOL    MW431754   3.819   2.526   6.169 -0.0975  0.6107  0.2959
 7996SOL     OW31755   5.507   3.454   1.102 -0.5463  0.2503  0.0884
 7996SOL    HW231756   5.588   3.495   1.073 -0.0378 -0.7711  0.0303
 7996SOL    HW331757   5.440   3.522   1.091  0.4214  1.3571  0.9002
 7996SOL    MW431758   5.509   3.468   1.096 -0.3515  0.2616  0.1878
 7997SOL     OW31759   5.333   5.701   4.069 -0.4171  0.0216 -0.1775
 7997SOL    HW231760   5.263   5.738   4.122 -0.2475 -2.1538  1.7605
 7997SOL    HW331761   5.364   5.626   4.120  2.7539  0.3789 -1.3520
 7997SOL    MW431762   5.328   5.696   4.083  0.0236 -0.2183 -0.0767
 7998SOL     OW31763   4.872   0.318   4.889 -0.5414  0.4316 -0.0352
 7998SOL    HW231764   4.817   0.256   4.937  2.0404 -2.3075 -0.3233
 7998SOL    HW331765   4.930   0.355   4.956 -1.3813  1.8573 -0.0459
 7998SOL    MW431766   4.873   0.315   4.904 -0.3116  0.2583 -0.0746
 7999SOL     OW31767   3.617   0.650   5.144  0.3408  0.2510 -0.0197
 7999SOL    HW231768   3.577   0.735   5.162 -0.7081 -0.0414 -0.8838
 7999SOL    HW331769   3.546   0.587   5.154  0.7804 -0.3742 -0.7042
 7999SOL    MW431770   3.603   0.653   5.148  0.2604  0.1299 -0.2240
 8000SOL     OW31771   0.590   1.241   3.108  0.1589 -0.2677  0.0014
 8000SOL    HW231772   0.602   1.289   3.026  0.0125  0.0404  0.1582
 8000SOL    HW331773   0.538   1.165   3.084  1.3311 -0.9532 -0.4581
 8000SOL    MW431774   0.585   1.238   3.094  0.2943 -0.3175 -0.0386
 8001SOL     OW31775   6.093   4.334   0.003  0.0275  0.1858  0.1286
 8001SOL    HW231776   6.010   4.316   0.049  0.3537 -0.6071  0.4374
 8001SOL    HW331777   6.154   4.358   0.073 -0.3182  2.3536 -0.2486
 8001SOL    MW431778   6.090   4.335   0.019  0.0249  0.3672  0.1196
 8002SOL     OW31779   1.217   0.479   1.433  0.5966 -0.3017  0.7225
 8002SOL    HW231780   1.238   0.552   1.374 -1.7427 -1.9602 -2.5118
 8002SOL    HW331781   1.136   0.506   1.476 -2.2262 -1.9750 -3.0010
 8002SOL    MW431782   1.210   0.492   1.431 -0.0845 -0.7413 -0.1955
 8003SOL     OW31783   0.794   5.264   3.068  0.1083  0.1034  0.4993
 8003SOL    HW231784   0.811   5.184   3.118  0.2440 -0.9267 -1.1294
 8003SOL    HW331785   0.790   5.333   3.134 -0.9043 -1.3557  2.0522
 8003SOL    MW431786   0.796   5.262   3.083 -0.0074 -0.2250  0.4893
 8004SOL     OW31787   2.237   2.325   6.301  0.0517  0.0563 -0.0103
 8004SOL    HW231788   2.188   2.386   6.355  1.0040  0.1555  0.7812
 8004SOL    HW331789   2.294   2.279   6.362  0.1579 -0.8244 -0.7471
 8004SOL    MW431790   2.238   2.327   6.316  0.1913 -0.0468 -0.0030
 8005SOL     OW31791   0.099   0.691   5.374  0.3425 -0.4149 -0.3147
 8005SOL    HW231792   0.113   0.670   5.466  2.6278  0.3138 -0.4267
 8005SOL    HW331793   0.004   0.701   5.366  0.0913 -0.3179  1.9922
 8005SOL    MW431794   0.088   0.689   5.385  0.6109 -0.3060 -0.0251
 8006SOL     OW31795   3.277   5.610   2.060  0.0572 -0.5414 -0.9754
 8006SOL    HW231796   3.222   5.593   2.137  0.7872 -1.8278 -0.7167
 8006SOL    HW331797   3.230   5.568   1.988  0.5109 -1.3533 -0.8114
 8006SOL    MW431798   3.263   5.602   2.061  0.2134 -0.8183 -0.9196
 8007SOL     OW31799   2.519   2.747   4.706 -0.4817  0.4961 -0.2580
 8007SOL    HW231800   2.442   2.793   4.673 -0.3859  0.3573 -0.6794
 8007SOL    HW331801   2.492   2.712   4.791 -1.2189 -0.4382 -0.8587
 8007SOL    MW431802   2.505   2.749   4.713 -0.5663  0.3545 -0.3928
 8008SOL     OW31803   1.112   4.817   3.247  0.0790  0.1249 -0.0775
 8008SOL    HW231804   1.154   4.889   3.295 -0.3588 -0.4484  1.2340
 8008SOL    HW331805   1.183   4.756   3.228  0.3436  0.5953 -0.6168
 8008SOL    MW431806   1.127   4.819   3.251  0.0562  0.1113  0.0244
 8009SOL     OW31807   4.513   3.466   2.202  0.1267 -0.3153 -0.0004
 8009SOL    HW231808   4.584   3.437   2.259  1.4825 -0.5759 -1.7463
 8009SOL    HW331809   4.507   3.399   2.134 -2.3725 -0.7170  0.5336
 8009SOL    MW431810   4.522   3.453   2.201 -0.0241 -0.4027 -0.1603
 8010SOL     OW31811   4.560   1.835   1.141  0.4216  0.3082 -0.0891
 8010SOL    HW231812   4.559   1.809   1.233 -0.2698  1.3560  0.2173
 8010SOL    HW331813   4.472   1.869   1.125  0.5746  0.2507 -1.1067
 8010SOL    MW431814   4.548   1.836   1.151  0.3506  0.4388 -0.1830
 8011SOL     OW31815   6.011   5.901   3.875  0.0812  0.3260  0.7472
 8011SOL    HW231816   6.101   5.915   3.849 -0.0003  1.0672  0.8304
 8011SOL    HW331817   5.993   5.809   3.854  0.6495  0.3490  0.1432
 8011SOL    MW431818   6.020   5.891   3.869  0.1455  0.4268  0.6785
 8012SOL     OW31819   0.464   0.357   5.149  0.3132  0.1497  0.6147
 8012SOL    HW231820   0.426   0.415   5.214 -0.9916  1.6091 -1.3258
 8012SOL    HW331821   0.552   0.391   5.134 -0.9512  2.8152 -1.6440
 8012SOL    MW431822   0.470   0.369   5.155 -0.0258  0.6940  0.0607
 8013SOL     OW31823   0.801   3.769   5.195  0.7344  0.0824 -0.2410
 8013SOL    HW231824   0.800   3.788   5.288 -0.0152 -0.4492 -0.1335
 8013SOL    HW331825   0.735   3.827   5.157  0.3326 -0.4046 -0.2950
 8013SOL    MW431826   0.792   3.779   5.202  0.5825 -0.0520 -0.2339
 8014SOL     OW31827   3.525   1.336   2.009  0.1560  0.3723 -0.1218
 8014SOL    HW231828   3.546   1.302   1.922  3.6935  0.8204  0.4259
 8014SOL    HW331829   3.565   1.274   2.070 -2.0204  0.2040  1.2629
 8014SOL    MW431830   3.533   1.323   2.006  0.3356  0.4092  0.1332
 8015SOL     OW31831   6.303   3.272   4.936 -0.0629  0.0593  0.5893
 8015SOL    HW231832   6.214   3.235   4.933  0.8459 -2.5681  2.3160
 8015SOL    HW331833   6.312   3.319   4.853 -1.7696 -2.9116 -1.4907
 8015SOL    MW431834   6.292   3.273   4.925 -0.1681 -0.6793  0.5427
 8016SOL     OW31835   1.723   4.122   3.315  0.7962 -0.1515  0.4409
 8016SOL    HW231836   1.715   4.029   3.298  1.5925 -0.5550  2.0612
 8016SOL    HW331837   1.645   4.161   3.275  0.4461 -1.5035 -0.2305
 8016SOL    MW431838   1.712   4.115   3.307  0.8551 -0.3831  0.5661
 8017SOL     OW31839   4.527   5.155   2.941 -0.0996  0.4360 -0.3751
 8017SOL    HW231840   4.566   5.134   3.026  0.8853  2.5792 -0.2138
 8017SOL    HW331841   4.440   5.116   2.943 -0.1224  0.5129  1.6567
 8017SOL    MW431842   4.521   5.147   2.952  0.0273  0.7289 -0.0857
 8018SOL     OW31843   5.198   2.567   3.428 -0.3373  0.2843  0.4094
 8018SOL    HW231844   5.143   2.584   3.504  0.2165  2.4131  0.4003
 8018SOL    HW331845   5.149   2.502   3.377 -1.9493  0.7285  1.3170
 8018SOL    MW431846   5.184   2.560   3.431 -0.4769  0.6237  0.5280
 8019SOL     OW31847   3.285   2.617   5.799  0.1519 -0.0551 -0.3009
 8019SOL    HW231848   3.227   2.541   5.799 -0.8988  0.6776 -2.1398
 8019SOL    HW331849   3.259   2.667   5.877 -1.2481 -0.0795 -0.7257
 8019SOL    MW431850   3.274   2.614   5.810 -0.1715  0.0383 -0.5996
 8020SOL     OW31851   1.981   5.048   5.589  0.3718  0.3292  0.0025
 8020SOL    HW231852   1.961   4.973   5.646  0.9292  0.1628 -0.0151
 8020SOL    HW331853   1.922   5.117   5.618  0.9500  0.3857  1.0745
 8020SOL    MW431854   1.971   5.047   5.600  0.5216  0.3147  0.1416
 8021SOL     OW31855   2.076   2.496   4.108  0.0754  0.7675 -0.2032
 8021SOL    HW231856   2.070   2.449   4.024  2.3390 -0.5935  0.3246
 8021SOL    HW331857   2.050   2.432   4.173  0.6461  1.0647  0.3243
 8021SOL    MW431858   2.072   2.481   4.105  0.4494  0.6271 -0.0640
 8022SOL     OW31859   1.588   6.184   0.562  0.0893  0.3189 -0.6603
 8022SOL    HW231860   1.634   6.121   0.619 -0.3466  0.8818  0.3473
 8022SOL    HW331861   1.515   6.134   0.525 -0.0940  0.1528 -0.0879
 8022SOL    MW431862   1.585   6.169   0.565  0.0076  0.3712 -0.4518
 8023SOL     OW31863   3.869   5.648   1.022  0.0880  0.5053 -0.0196
 8023SOL    HW231864   3.884   5.719   0.960  0.4103 -1.6501 -2.5888
 8023SOL    HW331865   3.957   5.616   1.044 -0.0591  0.7263  0.9194
 8023SOL    MW431866   3.883   5.653   1.017  0.1111  0.2501 -0.2347
 8024SOL     OW31867   2.811   3.790   6.365  0.0778 -0.5361 -0.1804
 8024SOL    HW231868   2.751   3.857   6.331  1.4748  0.8831  0.0326
 8024SOL    HW331869   2.754   3.730   6.414 -1.1979  0.6529 -0.1240
 8024SOL    MW431870   2.795   3.791   6.367  0.0938 -0.1920 -0.1449
 8025SOL     OW31871   4.345   0.866   0.536 -0.0025  0.6741  0.8151
 8025SOL    HW231872   4.250   0.881   0.537  0.0666  1.2126  0.2318
 8025SOL    HW331873   4.362   0.833   0.448  0.3146  0.2910  1.0197
 8025SOL    MW431874   4.334   0.864   0.524  0.0484  0.6946  0.7652
 8026SOL     OW31875   4.036   4.171   3.877 -0.1115 -0.4847 -0.5038
 8026SOL    HW231876   4.124   4.132   3.872  0.7299  1.3506 -0.8013
 8026SOL    HW331877   4.015   4.194   3.786 -0.1506  0.5891 -0.2425
 8026SOL    MW431878   4.045   4.169   3.864 -0.0057 -0.1009 -0.5086
 8027SOL     OW31879   6.194   2.331   2.292 -0.0424  0.3937  0.4680
 8027SOL    HW231880   6.153   2.307   2.375  1.8874  2.1863  2.0566
 8027SOL    HW331881   6.177   2.257   2.234 -3.3942  0.0144  1.6842
 8027SOL    MW431882   6.186   2.318   2.295 -0.2300  0.5802  0.8381
 8028SOL     OW31883   4.170   1.550   0.501 -0.3752 -0.1548 -0.1017
 8028SOL    HW231884   4.082   1.528   0.471  0.1474 -0.3394 -1.6026
 8028SOL    HW331885   4.199   1.475   0.552 -0.6620 -0.5821 -0.5668
 8028SOL    MW431886   4.162   1.537   0.504 -0.3441 -0.2355 -0.3611
 8029SOL     OW31887   0.382   1.034   4.907  0.4967 -0.5897 -0.6090
 8029SOL    HW231888   0.475   1.034   4.883  0.5367 -1.4062 -0.4896
 8029SOL    HW331889   0.360   0.941   4.916 -0.4150 -0.4145 -0.9479
 8029SOL    MW431890   0.392   1.022   4.905  0.3817 -0.6743 -0.6379
 8030SOL     OW31891   3.771   5.946   5.802  0.1801  0.2802 -0.3117
 8030SOL    HW231892   3.760   5.896   5.883 -0.0695 -0.8842 -1.0467
 8030SOL    HW331893   3.866   5.954   5.792  0.2586 -1.0262 -0.7562
 8030SOL    MW431894   3.782   5.941   5.811  0.1576 -0.0458 -0.4673
 8031SOL     OW31895   1.919   1.379   5.983 -0.7592 -0.6904 -0.1973
 8031SOL    HW231896   1.889   1.470   5.990 -1.5326 -1.0088  0.8335
 8031SOL    HW331897   1.955   1.373   5.894 -0.1301  0.7773 -0.0746
 8031SOL    MW431898   1.920   1.391   5.972 -0.7783 -0.5388 -0.0451
 8032SOL     OW31899   4.086   4.508   0.563  0.0277  0.1339 -0.1234
 8032SOL    HW231900   4.149   4.484   0.495 -0.0080  0.0769 -0.1370
 8032SOL    HW331901   4.062   4.598   0.544 -0.2425  0.0061 -0.3860
 8032SOL    MW431902   4.091   4.516   0.552 -0.0127  0.1095 -0.1598
 8033SOL     OW31903   0.512   6.139   6.079  0.6179 -0.5990 -0.0151
 8033SOL    HW231904   0.568   6.085   6.023 -0.4540 -1.2424 -0.5021
 8033SOL    HW331905   0.424   6.129   6.042  0.2941  1.0666  0.1958
 8033SOL    MW431906   0.508   6.131   6.067  0.4338 -0.4641 -0.0516
 8034SOL     OW31907   3.711   1.371   3.977  0.6789  0.0988 -0.2632
 8034SOL    HW231908   3.784   1.348   4.035  1.7738  1.1429 -1.1699
 8034SOL    HW331909   3.635   1.375   4.035  1.5854  0.2835  0.9604
 8034SOL    MW431910   3.711   1.369   3.992  0.9430  0.2609 -0.2214
 8035SOL     OW31911   5.795   4.056   5.824 -0.0088 -0.5630  0.1028
 8035SOL    HW231912   5.802   4.138   5.776  1.9170  0.8663  2.6115
 8035SOL    HW331913   5.764   3.993   5.759  1.3990  1.4395 -2.6957
 8035SOL    MW431914   5.792   4.058   5.809  0.4310 -0.1102  0.0645
 8036SOL     OW31915   1.545   1.503   3.126 -0.1453  0.2665  0.1984
 8036SOL    HW231916   1.451   1.497   3.143  0.0311 -1.0720  0.7668
 8036SOL    HW331917   1.571   1.586   3.167 -0.7077 -0.3618  1.9057
 8036SOL    MW431918   1.536   1.513   3.134 -0.1962  0.0070  0.4987
 8037SOL     OW31919   0.387   1.934   0.900 -0.0283  0.3557  0.5679
 8037SOL    HW231920   0.475   1.951   0.934 -0.2061  0.7943  0.8205
 8037SOL    HW331921   0.329   1.967   0.968 -0.3910  0.3161  0.2791
 8037SOL    MW431922   0.391   1.940   0.913 -0.0996  0.4083  0.5631
 8038SOL     OW31923   1.909   0.072   1.995 -0.0166  0.5661  0.2507
 8038SOL    HW231924   1.935   0.085   1.904 -0.7655  1.0920  0.0969
 8038SOL    HW331925   1.822   0.032   1.990  1.0563 -2.0311  0.7420
 8038SOL    MW431926   1.901   0.069   1.982  0.0261  0.2928  0.2952
 8039SOL     OW31927   5.497   6.378   5.875 -0.9430  0.2674 -0.3118
 8039SOL    HW231928   5.492   6.283   5.885 -2.6322  0.1325 -1.8897
 8039SOL    HW331929   5.559   6.391   5.804 -0.5477  0.3583  0.0493
 8039SOL    MW431930   5.504   6.367   5.867 -1.1137  0.2616 -0.4723
 8040SOL     OW31931   2.843   0.828   0.187  0.2947 -0.3420  0.0079
 8040SOL    HW231932   2.914   0.890   0.169  0.0355 -0.1756 -0.4761
 8040SOL    HW331933   2.776   0.880   0.231  0.9227 -0.7474  1.5046
 8040SOL    MW431934   2.844   0.843   0.190  0.3434 -0.3735  0.1415
 8041SOL     OW31935   0.289   3.669   5.797 -0.0668  0.1777 -0.3678
 8041SOL    HW231936   0.194   3.665   5.810  0.2762 -0.6418  2.4802
 8041SOL    HW331937   0.299   3.677   5.702 -2.9549  0.1746 -0.7836
 8041SOL    MW431938   0.278   3.670   5.786 -0.4026  0.0692 -0.0469
 8042SOL     OW31939   2.271   6.053   3.775  0.8403 -0.0101 -0.2785
 8042SOL    HW231940   2.225   6.048   3.859  1.3431 -0.1978 -0.0107
 8042SOL    HW331941   2.206   6.028   3.711  0.9021 -1.5126  0.2139
 8042SOL    MW431942   2.257   6.049   3.778  0.9148 -0.2331 -0.1782
 8043SOL     OW31943   2.528   2.023   4.163 -0.2185 -0.2607  0.1769
 8043SOL    HW231944   2.437   2.046   4.146 -0.0089  0.7002  0.2834
 8043SOL    HW331945   2.541   2.041   4.256  0.6655  1.8294 -0.2842
 8043SOL    MW431946   2.518   2.028   4.173 -0.0742  0.1418  0.1301
 8044SOL     OW31947   0.193   4.511   4.945  0.2572  0.0696  0.1473
 8044SOL    HW231948   0.165   4.427   4.981 -1.3988 -0.0758 -1.3405
 8044SOL    HW331949   0.188   4.571   5.020  0.4230 -0.9162  0.9778
 8044SOL    MW431950   0.189   4.508   4.960  0.0606 -0.0797  0.0606
 8045SOL     OW31951   5.330   4.578   3.234 -0.0226  0.1070 -0.4263
 8045SOL    HW231952   5.412   4.543   3.269  0.1707  0.6080 -0.3696
 8045SOL    HW331953   5.355   4.661   3.193 -0.4909  0.2331 -0.4639
 8045SOL    MW431954   5.344   4.585   3.233 -0.0589  0.1897 -0.4238
 8046SOL     OW31955   3.909   3.283   4.270  0.3722  0.5055 -0.2056
 8046SOL    HW231956   3.843   3.230   4.224 -1.2426  0.7159  1.7229
 8046SOL    HW331957   3.980   3.222   4.287 -1.2797 -1.0668  1.6262
 8046SOL    MW431958   3.909   3.268   4.266 -0.0588  0.3258  0.2905
 8047SOL     OW31959   2.302   5.646   6.001  0.1819 -0.2230  0.2781
 8047SOL    HW231960   2.256   5.632   5.918 -0.3303 -0.3638  0.5779
 8047SOL    HW331961   2.311   5.558   6.038 -2.2223  0.0351  1.7417
 8047SOL    MW431962   2.297   5.632   5.995 -0.2029 -0.2075  0.5107
 8048SOL     OW31963   3.069   3.503   3.875 -0.0783 -0.0509  0.0792
 8048SOL    HW231964   3.125   3.553   3.816 -0.6141  1.5910  0.9010
 8048SOL    HW331965   2.980   3.527   3.851 -0.3468 -0.5898  0.5080
 8048SOL    MW431966   3.065   3.513   3.864 -0.1844  0.0946  0.2442
 8049SOL     OW31967   1.944   5.533   0.944  0.6225  0.1242  0.1981
 8049SOL    HW231968   2.031   5.569   0.956  1.2355 -1.1749 -0.1368
 8049SOL    HW331969   1.954   5.469   0.873 -0.9270  1.0548 -0.9085
 8049SOL    MW431970   1.956   5.529   0.936  0.4990  0.0756  0.0079
 8050SOL     OW31971   5.031   5.328   0.166  0.2974  1.2639  0.1484
 8050SOL    HW231972   5.043   5.335   0.071  0.4126  2.2760  0.2212
 8050SOL    HW331973   5.002   5.238   0.180 -0.0698  1.2068 -0.8811
 8050SOL    MW431974   5.029   5.317   0.155  0.2642  1.3899  0.0222
 8051SOL     OW31975   5.118   3.820   4.247 -1.0968 -0.5397 -0.0139
 8051SOL    HW231976   5.128   3.912   4.271 -0.7013 -0.4904 -0.3580
 8051SOL    HW331977   5.047   3.789   4.303  0.2698 -0.6287  1.7393
 8051SOL    MW431978   5.110   3.828   4.258 -0.8643 -0.5450  0.1720
 8052SOL     OW31979   5.930   5.929   2.697  0.4560 -0.1271  0.2987
 8052SOL    HW231980   5.836   5.935   2.679  0.7689 -0.2517 -1.6018
 8052SOL    HW331981   5.937   5.863   2.766 -0.9740  1.5203  2.1425
 8052SOL    MW431982   5.918   5.921   2.704  0.3086  0.0738  0.2912
 8053SOL     OW31983   2.626   6.404   3.348 -0.8509 -0.2908 -0.1985
 8053SOL    HW231984   2.712   6.362   3.356 -1.1637 -0.8429  0.3701
 8053SOL    HW331985   2.644   6.497   3.365 -0.7506 -0.7612  2.9202
 8053SOL    MW431986   2.640   6.411   3.351 -0.8790 -0.4257  0.2880
 8054SOL     OW31987   5.932   5.184   1.951  0.1272 -0.8108  0.3400
 8054SOL    HW231988   5.915   5.111   2.011 -0.2039  0.0991  1.3934
 8054SOL    HW331989   6.022   5.169   1.921  0.2450 -1.3836  0.9390
 8054SOL    MW431990   5.942   5.173   1.955  0.0990 -0.7663  0.5580
 8055SOL     OW31991   3.203   2.541   0.788  0.1030  0.5696 -0.3290
 8055SOL    HW231992   3.171   2.462   0.746  0.9467 -1.2716  2.2099
 8055SOL    HW331993   3.256   2.509   0.862  2.4539  3.4843 -0.5648
 8055SOL    MW431994   3.206   2.527   0.792  0.5245  0.7112 -0.0251
 8056SOL     OW31995   0.139   5.071   0.456 -0.3982  0.5290 -0.3038
 8056SOL    HW231996   0.199   5.114   0.394 -0.5178 -1.0579 -1.5975
 8056SOL    HW331997   0.077   5.139   0.480  1.1652  1.8916  0.1016
 8056SOL    MW431998   0.139   5.085   0.451 -0.2077  0.4994 -0.4210
 8057SOL     OW31999   5.246   3.551   4.239  0.0539 -0.0635  0.0638
 8057SOL    HW232000   5.302   3.566   4.315  1.5584 -0.1527 -0.9849
 8057SOL    HW332001   5.198   3.633   4.227  1.6207  0.8364 -0.3216
 8057SOL    MW432002   5.247   3.564   4.247  0.4592  0.0435 -0.1254
 8058SOL     OW32003   5.143   0.628   3.727  0.9596 -0.1418  0.0932
 8058SOL    HW232004   5.059   0.675   3.722  0.1544 -1.4301  0.8352
 8058SOL    HW332005   5.123   0.540   3.694  1.6661 -0.9038  1.6137
 8058SOL    MW432006   5.129   0.622   3.722  0.9466 -0.4123  0.3917
 8059SOL     OW32007   3.890   0.862   3.358 -0.4602  0.2912 -0.0315
 8059SOL    HW232008   3.847   0.892   3.438  0.4441  0.1440  0.5193
 8059SOL    HW332009   3.863   0.770   3.350 -1.0627  0.4792 -0.2559
 8059SOL    MW432010   3.880   0.854   3.367 -0.4204  0.2966  0.0116
 8060SOL     OW32011   1.678   2.562   5.667  0.1050  0.3521 -0.3521
 8060SOL    HW232012   1.688   2.539   5.759 -0.4004  0.5478 -0.2435
 8060SOL    HW332013   1.751   2.519   5.623  0.8339  0.9339  0.2592
 8060SOL    MW432014   1.689   2.554   5.673  0.1345  0.4547 -0.2571
 8061SOL     OW32015   4.640   3.655   5.340 -0.8347  0.3944 -0.2109
 8061SOL    HW232016   4.588   3.629   5.264  0.5926 -2.4823 -0.3305
 8061SOL    HW332017   4.584   3.636   5.415 -1.6068  1.6730 -0.4169
 8061SOL    MW432018   4.626   3.649   5.339 -0.7483  0.1835 -0.2539
 8062SOL     OW32019   4.002   6.135   1.585 -0.5243 -0.6619 -0.1583
 8062SOL    HW232020   4.036   6.078   1.516 -1.4897 -1.2824 -0.1566
 8062SOL    HW332021   3.935   6.081   1.629 -0.8236  0.1661  0.4294
 8062SOL    MW432022   3.997   6.120   1.582 -0.6911 -0.6345 -0.0805
 8063SOL     OW32023   0.464   3.641   0.021 -0.5171  0.3372 -0.0146
 8063SOL    HW232024   0.495   3.636   0.112  0.4155  0.4103 -0.3199
 8063SOL    HW332025   0.528   3.591  -0.029 -0.8562  0.5551 -0.6805
 8063SOL    MW432026   0.476   3.634   0.026 -0.4388  0.3756 -0.1427
 8064SOL     OW32027   2.942   0.853   2.161  0.2352  0.1717  0.1879
 8064SOL    HW232028   2.902   0.935   2.188 -1.0556 -0.3455 -0.0914
 8064SOL    HW332029   2.894   0.786   2.210  1.2665 -0.4323  0.4147
 8064SOL    MW432030   2.931   0.855   2.171  0.2009  0.0237  0.1810
 8065SOL     OW32031   1.923   0.951   5.500  0.4568  0.0827 -0.5110
 8065SOL    HW232032   1.979   0.963   5.424 -0.4042  1.6630 -0.9469
 8065SOL    HW332033   1.953   0.870   5.540  0.2342 -1.4195 -3.1481
 8065SOL    MW432034   1.934   0.942   5.496  0.3139  0.0930 -0.9165
 8066SOL     OW32035   0.894   0.279   4.564 -0.8541  0.3242 -0.7930
 8066SOL    HW232036   0.824   0.322   4.515 -0.4056  0.4860 -1.2950
 8066SOL    HW332037   0.878   0.185   4.551 -1.3920  0.3462 -0.3164
 8066SOL    MW432038   0.882   0.272   4.556 -0.8659  0.3485 -0.7963
 8067SOL     OW32039   0.042   0.670   3.984 -0.2254 -0.0858  0.2059
 8067SOL    HW232040  -0.004   0.595   3.948  1.1414 -0.3891 -0.9881
 8067SOL    HW332041   0.120   0.633   4.024  0.3938  0.6706 -0.2709
 8067SOL    MW432042   0.046   0.655   3.985  0.0366 -0.0260 -0.0145
 8068SOL     OW32043   5.242   1.702   2.336  0.9787 -0.4097 -0.1582
 8068SOL    HW232044   5.172   1.700   2.271  1.7574 -2.0540 -0.9951
 8068SOL    HW332045   5.309   1.758   2.296  0.0848  1.4196  0.7753
 8068SOL    MW432046   5.241   1.709   2.322  0.9635 -0.3853 -0.1455
 8069SOL     OW32047   5.877   0.739   5.387 -0.0699 -0.5129  0.4866
 8069SOL    HW232048   5.932   0.770   5.316  0.9764 -2.1370  0.5184
 8069SOL    HW332049   5.842   0.655   5.356  0.5528 -1.3449  1.9043
 8069SOL    MW432050   5.880   0.732   5.374  0.1503 -0.8369  0.6779
 8070SOL     OW32051   4.719   4.863   3.994  0.1552 -0.2070  0.5815
 8070SOL    HW232052   4.701   4.930   3.928 -0.1628 -1.6705 -0.8513
 8070SOL    HW332053   4.638   4.856   4.044 -0.2283 -0.4023 -0.0636
 8070SOL    MW432054   4.706   4.871   3.992  0.0627 -0.4258  0.3074
 8071SOL     OW32055   2.036   2.924   5.584 -0.1717 -0.1239  0.1960
 8071SOL    HW232056   1.982   2.873   5.524 -0.1204  0.2295 -0.1514
 8071SOL    HW332057   2.024   2.881   5.669  0.7382 -1.4014 -0.2967
 8071SOL    MW432058   2.027   2.911   5.587 -0.0449 -0.2458  0.0852
 8072SOL     OW32059   4.091   5.225   5.688 -0.5672 -0.3718 -0.5550
 8072SOL    HW232060   4.120   5.134   5.683 -2.6963 -1.1679  0.6154
 8072SOL    HW332061   4.106   5.259   5.600  0.6335 -1.7038 -0.9145
 8072SOL    MW432062   4.097   5.217   5.676 -0.6897 -0.6526 -0.4480
 8073SOL     OW32063   2.831   2.383   0.503 -0.4246  0.2605  0.3594
 8073SOL    HW232064   2.848   2.352   0.414  0.7207  1.2490  0.2084
 8073SOL    HW332065   2.861   2.474   0.503 -1.5318  0.6481  1.4336
 8073SOL    MW432066   2.838   2.391   0.491 -0.4196  0.4420  0.4812
 8074SOL     OW32067   4.193   1.570   0.808 -0.0508  1.1691 -0.5481
 8074SOL    HW232068   4.170   1.494   0.862 -0.2094  0.8165 -1.0955
 8074SOL    HW332069   4.115   1.584   0.754 -1.0910  3.3795  1.3619
 8074SOL    MW432070   4.179   1.562   0.808 -0.2089  1.4142 -0.3683
 8075SOL     OW32071   1.562   0.952   4.981  0.1926 -0.0373  0.0997
 8075SOL    HW232072   1.524   0.893   5.046 -0.3209 -1.5467 -1.4907
 8075SOL    HW332073   1.552   0.906   4.897  1.7894  1.3557 -0.9329
 8075SOL    MW432074   1.556   0.938   4.978  0.3355 -0.0527 -0.2464
 8076SOL     OW32075   3.557   5.484   5.572 -0.4219  0.2212  0.3889
 8076SOL    HW232076   3.605   5.403   5.555 -0.2892  0.5526 -0.8535
 8076SOL    HW332077   3.555   5.490   5.668 -0.3714 -1.2069  0.5042
 8076SOL    MW432078   3.563   5.474   5.583 -0.3978  0.0765  0.2402
 8077SOL     OW32079   1.908   1.034   4.589  0.2192 -0.5665  0.2526
 8077SOL    HW232080   1.958   0.989   4.658 -0.6840 -1.6749  0.2065
 8077SOL    HW332081   1.869   0.963   4.538  0.1217  0.2637 -0.8514
 8077SOL    MW432082   1.910   1.019   4.592  0.0872 -0.6032  0.1009
 8078SOL     OW32083   0.493   6.324   5.633  0.1954  0.1466 -0.2122
 8078SOL    HW232084   0.549   6.391   5.593  1.2542 -0.3077  0.4695
 8078SOL    HW332085   0.527   6.241   5.600 -1.0110 -0.1016 -0.9232
 8078SOL    MW432086   0.505   6.322   5.623  0.1759  0.0539 -0.2161
 8079SOL     OW32087   0.360   4.714   2.706 -0.7130  0.5867  0.0531
 8079SOL    HW232088   0.349   4.650   2.636  0.4925  0.1230  0.2702
 8079SOL    HW332089   0.286   4.699   2.764  0.6077 -2.0225  1.1948
 8079SOL    MW432090   0.349   4.704   2.704 -0.3797  0.1813  0.2324
 8080SOL     OW32091   0.413   0.715   5.903 -0.3422 -0.1929  0.1619
 8080SOL    HW232092   0.367   0.754   5.828 -1.1285 -1.0245  0.1867
 8080SOL    HW332093   0.483   0.664   5.863  0.3143  0.7431  0.0977
 8080SOL    MW432094   0.416   0.714   5.888 -0.3593 -0.1791  0.1567
 8081SOL     OW32095   1.262   5.068   0.371  0.2220 -0.5049 -0.3480
 8081SOL    HW232096   1.245   5.000   0.305 -0.1379  1.9201 -2.9617
 8081SOL    HW332097   1.214   5.039   0.448 -2.8595 -1.5561 -2.4671
 8081SOL    MW432098   1.253   5.055   0.372 -0.2320 -0.3236 -0.9725
 8082SOL     OW32099   3.843   5.181   1.264 -0.0767  0.5723  0.1523
 8082SOL    HW232100   3.757   5.215   1.239  0.4710  2.7886  1.0016
 8082SOL    HW332101   3.852   5.206   1.356  0.2319 -2.4175  1.0161
 8082SOL    MW432102   3.833   5.189   1.273  0.0363  0.4703  0.3783
 8083SOL     OW32103   6.236   5.892   4.770  0.1549  0.0473  0.5515
 8083SOL    HW232104   6.232   5.861   4.861  0.4542 -0.7895  0.2801
 8083SOL    HW332105   6.297   5.966   4.773 -1.8908  1.8546  1.5315
 8083SOL    MW432106   6.243   5.898   4.783 -0.0755  0.1754  0.6450
 8084SOL     OW32107   2.577   3.099   4.023 -0.2273  0.1263 -0.1637
 8084SOL    HW232108   2.630   3.023   3.998  0.8775  0.5289  0.8344
 8084SOL    HW332109   2.591   3.162   3.953 -0.6780 -0.3639 -0.7050
 8084SOL    MW432110   2.586   3.097   4.011 -0.1410  0.1147 -0.1035
 8085SOL     OW32111   2.354   6.179   3.081 -0.1937  0.0167 -0.3065
 8085SOL    HW232112   2.354   6.152   3.173  0.4129 -1.2239 -0.6551
 8085SOL    HW332113   2.290   6.122   3.039 -0.4968  0.6053 -0.6607
 8085SOL    MW432114   2.346   6.168   3.088 -0.1536 -0.0694 -0.3993
 8086SOL     OW32115   5.772   6.268   3.271 -0.5452  0.0122  0.3943
 8086SOL    HW232116   5.803   6.231   3.354 -0.9723  1.1693  1.0878
 8086SOL    HW332117   5.677   6.258   3.274 -0.6652  1.1098  0.5842
 8086SOL    MW432118   5.764   6.262   3.282 -0.6174  0.3097  0.5109
 8087SOL     OW32119   1.858   4.321   2.420  0.1296  0.1488 -0.0440
 8087SOL    HW232120   1.915   4.258   2.376  0.2658  1.3759 -1.7192
 8087SOL    HW332121   1.864   4.401   2.367 -1.1712  1.1279  1.1799
 8087SOL    MW432122   1.867   4.324   2.407 -0.0241  0.4399 -0.1035
 8088SOL     OW32123   2.246   5.148   5.517 -0.7294  0.4754  0.3363
 8088SOL    HW232124   2.322   5.136   5.574  0.2656  1.5518 -0.7012
 8088SOL    HW332125   2.183   5.083   5.548  0.2310  0.1953  1.8481
 8088SOL    MW432126   2.248   5.138   5.529 -0.4714  0.5804  0.3989
 8089SOL     OW32127   2.165   2.607   2.859 -0.0790  0.1517 -0.2818
 8089SOL    HW232128   2.073   2.631   2.871  0.1563  0.7061  0.5016
 8089SOL    HW332129   2.203   2.682   2.813  0.2084  0.4140  0.3626
 8089SOL    MW432130   2.158   2.620   2.854 -0.0100  0.2595 -0.0934
 8090SOL     OW32131   5.804   1.382   5.847  0.4187 -0.0139  0.8113
 8090SOL    HW232132   5.898   1.397   5.862  0.1493  1.1204  1.5417
 8090SOL    HW332133   5.764   1.392   5.934 -0.3450 -0.7791  0.5561
 8090SOL    MW432134   5.811   1.386   5.860  0.2824  0.0348  0.8740
 8091SOL     OW32135   5.210   0.045   3.453  0.2565 -0.2834  0.0272
 8091SOL    HW232136   5.189  -0.037   3.410  2.6207 -0.4772 -0.8768
 8091SOL    HW332137   5.146   0.107   3.418 -0.9612 -1.5033  0.0109
 8091SOL    MW432138   5.199   0.043   3.443  0.4078 -0.4699 -0.0943
 8092SOL     OW32139   3.537   1.652   4.585 -0.1532  0.1884 -0.2026
 8092SOL    HW232140   3.455   1.663   4.632 -0.8234 -0.8350 -1.0885
 8092SOL    HW332141   3.516   1.673   4.494  0.3276 -0.9844 -0.6019
 8092SOL    MW432142   3.523   1.656   4.579 -0.1782 -0.1014 -0.3722
 8093SOL     OW32143   4.500   5.448   3.668  0.8339  0.1410 -0.3455
 8093SOL    HW232144   4.418   5.432   3.715  0.7256 -0.8987 -0.8422
 8093SOL    HW332145   4.475   5.444   3.575  0.9546  2.6005 -0.5345
 8093SOL    MW432146   4.486   5.445   3.662  0.8355  0.3283 -0.4359
 8094SOL     OW32147   4.530   4.455   2.528 -0.7341  0.2189  0.2783
 8094SOL    HW232148   4.551   4.373   2.573  1.2960  0.5509  0.0446
 8094SOL    HW332149   4.480   4.427   2.451  1.4055 -1.0527 -0.7655
 8094SOL    MW432150   4.526   4.440   2.523 -0.1839  0.0949  0.1098
 8095SOL     OW32151   5.193   1.267   1.857 -0.5100 -0.2037 -0.1074
 8095SOL    HW232152   5.245   1.211   1.914  2.2243  0.6207 -1.5751
 8095SOL    HW332153   5.148   1.327   1.916 -1.3795 -2.1920  1.3327
 8095SOL    MW432154   5.194   1.268   1.872 -0.2640 -0.3573 -0.1111
 8096SOL     OW32155   3.303   6.188   1.198  0.8147 -0.2318 -0.2278
 8096SOL    HW232156   3.397   6.171   1.193  0.6300 -0.9597 -1.6561
 8096SOL    HW332157   3.294   6.280   1.172  1.0859 -0.3357 -0.7086
 8096SOL    MW432158   3.315   6.198   1.194  0.8261 -0.3415 -0.4797
 8097SOL     OW32159   5.002   1.093   2.183 -0.5305 -0.5678 -0.2084
 8097SOL    HW232160   4.989   0.999   2.168 -1.2777 -0.5443  0.2340
 8097SOL    HW332161   5.069   1.097   2.250  0.2109 -0.7557 -0.9202
 8097SOL    MW432162   5.009   1.081   2.190 -0.5312 -0.5895 -0.2440
 8098SOL     OW32163   2.012   4.070   5.531  0.5273  0.5889  0.3142
 8098SOL    HW232164   2.034   3.987   5.488 -0.6251  0.0487  0.7246
 8098SOL    HW332165   2.021   4.136   5.461 -1.2004 -0.2599 -0.7728
 8098SOL    MW432166   2.016   4.068   5.516  0.1473  0.4057  0.2249
 8099SOL     OW32167   3.453   3.633   3.509 -0.2281  0.5447  0.1160
 8099SOL    HW232168   3.511   3.707   3.526 -1.9707  1.8148  0.9756
 8099SOL    HW332169   3.511   3.561   3.487  1.5325  2.4432 -1.9812
 8099SOL    MW432170   3.468   3.633   3.508 -0.2257  0.9627 -0.0473
 8100SOL     OW32171   2.464   4.840   5.879 -0.2143 -0.0826 -0.0452
 8100SOL    HW232172   2.533   4.872   5.821 -0.2648  1.6819  0.8005
 8100SOL    HW332173   2.463   4.746   5.865  1.3591  0.0231 -1.1644
 8100SOL    MW432174   2.473   4.832   5.869 -0.0134  0.1642 -0.0813
 8101SOL     OW32175   3.150   2.746   3.499  0.1135 -0.0955 -0.2454
 8101SOL    HW232176   3.065   2.717   3.532  0.2759 -1.8243 -1.2047
 8101SOL    HW332177   3.131   2.781   3.412  0.3697 -0.3531 -0.4047
 8101SOL    MW432178   3.137   2.747   3.492  0.1688 -0.3576 -0.3930
 8102SOL     OW32179   1.500   2.650   3.702  0.1746 -0.4984  0.5092
 8102SOL    HW232180   1.558   2.702   3.758  2.6947 -2.0727 -0.4512
 8102SOL    HW332181   1.549   2.640   3.620 -1.2703 -2.3100 -0.2064
 8102SOL    MW432182   1.514   2.656   3.699  0.3164 -0.9451  0.2881
 8103SOL     OW32183   3.494   2.845   2.913 -0.5731  0.0921 -0.0932
 8103SOL    HW232184   3.510   2.780   2.982 -0.0294  0.6170  0.2795
 8103SOL    HW332185   3.485   2.793   2.833 -2.8095 -0.6692  0.5782
 8103SOL    MW432186   3.495   2.829   2.912 -0.7964  0.0609  0.0445
 8104SOL     OW32187   3.052   0.026   2.200 -0.6978 -0.7795  0.1402
 8104SOL    HW232188   2.968   0.059   2.169 -0.4908 -1.3924 -1.1734
 8104SOL    HW332189   3.106   0.022   2.121  1.1461  1.2231  1.2027
 8104SOL    MW432190   3.048   0.030   2.185 -0.4272 -0.5961  0.1071
 8105SOL     OW32191   4.809   2.214   3.197 -0.3757  0.3495  0.3151
 8105SOL    HW232192   4.763   2.229   3.114  1.3529  3.0479 -0.2720
 8105SOL    HW332193   4.871   2.144   3.177 -0.1599  0.7841 -0.5974
 8105SOL    MW432194   4.811   2.206   3.183 -0.1192  0.7628  0.1173
 8106SOL     OW32195   2.945   1.149   0.579 -0.1201  0.2568 -0.5083
 8106SOL    HW232196   2.983   1.229   0.616 -1.0502  0.0156  1.0905
 8106SOL    HW332197   3.002   1.079   0.611 -0.9289  0.0455  0.5087
 8106SOL    MW432198   2.958   1.151   0.588 -0.3496  0.1971 -0.1632
 8107SOL     OW32199   4.048   4.890   5.918 -0.3621  0.2786 -0.1602
 8107SOL    HW232200   4.110   4.830   5.960 -0.2371  2.4238  3.0538
 8107SOL    HW332201   4.058   4.873   5.824  2.9799 -1.4553  0.3674
 8107SOL    MW432202   4.057   4.880   5.911  0.0953  0.3328  0.3335
 8108SOL     OW32203   0.100   2.562   6.419 -0.1032 -0.1955  0.5237
 8108SOL    HW232204   0.025   2.550   6.477  1.2686 -1.0913  2.2013
 8108SOL    HW332205   0.104   2.657   6.403 -0.9600 -0.0310  1.2549
 8108SOL    MW432206   0.091   2.573   6.424 -0.0353 -0.2920  0.8415
 8109SOL     OW32207   1.542   4.347   2.086 -0.9786 -0.6758  0.0451
 8109SOL    HW232208   1.500   4.262   2.081 -1.1375 -0.6916  1.4294
 8109SOL    HW332209   1.560   4.361   2.179  3.0226 -1.1207 -0.4714
 8109SOL    MW432210   1.539   4.338   2.097 -0.4717 -0.7366  0.1596
 8110SOL     OW32211   3.268   3.505   3.108  0.2268 -0.9978  0.1434
 8110SOL    HW232212   3.270   3.561   3.185  0.1528 -3.1177  1.7919
 8110SOL    HW332213   3.349   3.455   3.113  0.3166 -1.0180 -1.2805
 8110SOL    MW432214   3.279   3.506   3.119  0.2289 -1.2802  0.1730
 8111SOL     OW32215   3.771   4.133   5.146  0.6783 -0.3497 -0.5097
 8111SOL    HW232216   3.853   4.093   5.176  0.6112 -0.0824  0.0340
 8111SOL    HW332217   3.799   4.209   5.094  0.7686  0.2806  0.4377
 8111SOL    MW432218   3.786   4.138   5.143  0.6814 -0.2313 -0.3130
 8112SOL     OW32219   3.038   1.380   5.022  0.0049  0.6226 -0.5141
 8112SOL    HW232220   3.031   1.336   4.937 -3.6510  1.1447 -0.6539
 8112SOL    HW332221   2.981   1.329   5.080 -0.5154  2.3723  0.5876
 8112SOL    MW432222   3.030   1.368   5.019 -0.5461  0.9223 -0.3872
 8113SOL     OW32223   1.249   4.311   2.905 -0.0274 -0.5615 -0.3141
 8113SOL    HW232224   1.228   4.231   2.857 -1.4290 -0.2579 -0.2541
 8113SOL    HW332225   1.208   4.298   2.991 -0.7450  0.4345 -0.4927
 8113SOL    MW432226   1.241   4.298   2.910 -0.3070 -0.3901 -0.3298
 8114SOL     OW32227   1.355   1.318   2.750 -0.3943  0.5235 -0.3301
 8114SOL    HW232228   1.358   1.260   2.826 -1.0339 -0.4384 -1.0107
 8114SOL    HW332229   1.261   1.329   2.733 -0.2605  1.0590 -0.7349
 8114SOL    MW432230   1.343   1.312   2.758 -0.4610  0.4673 -0.4733
 8115SOL     OW32231   3.045   3.144   4.833  0.3041  0.5195  0.4012
 8115SOL    HW232232   3.073   3.088   4.905  3.0505  1.2832  0.0737
 8115SOL    HW332233   3.062   3.233   4.865  0.1981  0.9351 -0.6594
 8115SOL    MW432234   3.051   3.149   4.846  0.6524  0.6751  0.2180
 8116SOL     OW32235   1.823   4.798   0.347  0.2910 -0.1538  0.3120
 8116SOL    HW232236   1.885   4.839   0.407  1.4933  0.2877 -1.1565
 8116SOL    HW332237   1.740   4.799   0.394  0.8222  1.7059  1.3139
 8116SOL    MW432238   1.820   4.804   0.361  0.5197  0.1498  0.2504
 8117SOL     OW32239   4.510   3.632   5.594  0.3931  0.5582 -0.3268
 8117SOL    HW232240   4.531   3.702   5.655  1.5349  0.5334 -0.6640
 8117SOL    HW332241   4.421   3.605   5.618  0.6631  0.8056  1.0702
 8117SOL    MW432242   4.501   3.638   5.605  0.5793  0.5875 -0.1869
 8118SOL     OW32243   0.787   3.116   4.607 -0.5444 -0.5875  0.1133
 8118SOL    HW232244   0.793   3.023   4.630 -1.8640 -0.6836  0.1347
 8118SOL    HW332245   0.782   3.117   4.512 -0.3895 -0.5250  0.1054
 8118SOL    MW432246   0.787   3.104   4.598 -0.6981 -0.5919  0.1151
 8119SOL     OW32247   0.404   4.224   3.540  0.3923 -0.6213  0.2964
 8119SOL    HW232248   0.364   4.308   3.517 -2.3520 -1.8098  0.2680
 8119SOL    HW332249   0.498   4.238   3.532 -0.0536  1.9236 -1.4809
 8119SOL    MW432250   0.411   4.237   3.536 -0.0286 -0.4423  0.0581
 8120SOL     OW32251   2.957   1.855   4.407  0.3661 -0.0688  0.7716
 8120SOL    HW232252   2.930   1.930   4.460 -0.5126 -0.5841  1.0892
 8120SOL    HW332253   2.890   1.850   4.338  1.5686  0.6766 -0.5011
 8120SOL    MW432254   2.944   1.864   4.405  0.4088 -0.0385  0.6456
 8121SOL     OW32255   0.761   0.676   5.614 -0.6022 -0.4115 -0.6108
 8121SOL    HW232256   0.785   0.703   5.703 -1.0881  0.1570 -0.6468
 8121SOL    HW332257   0.798   0.588   5.605 -1.6180 -0.9902  0.6023
 8121SOL    MW432258   0.769   0.668   5.624 -0.8003 -0.4128 -0.4555
 8122SOL     OW32259   5.913   4.379   5.120 -0.4893 -0.1102  0.1786
 8122SOL    HW232260   5.848   4.346   5.183 -0.5795  0.0197  0.1558
 8122SOL    HW332261   5.997   4.364   5.162 -0.4843 -1.0598 -0.1581
 8122SOL    MW432262   5.915   4.373   5.134 -0.5006 -0.2183  0.1312
 8123SOL     OW32263   5.087   3.061   6.032 -0.0890  0.0692  0.4138
 8123SOL    HW232264   5.096   2.980   5.982  3.8843  0.3080  0.4147
 8123SOL    HW332265   5.122   3.129   5.974  1.3569  0.9059  2.1523
 8123SOL    MW432266   5.093   3.060   6.018  0.6260  0.2111  0.6433
 8124SOL     OW32267   5.657   2.945   1.183 -0.0121 -0.1366  0.1734
 8124SOL    HW232268   5.581   2.943   1.242  0.2593 -0.0204  0.5321
 8124SOL    HW332269   5.694   2.858   1.188  0.1045 -0.0796  0.2969
 8124SOL    MW432270   5.651   2.933   1.191  0.0391 -0.1137  0.2371
 8125SOL     OW32271   2.426   0.857   4.760  0.1158 -0.1983  0.1786
 8125SOL    HW232272   2.420   0.761   4.757 -1.4016 -0.1099 -0.1962
 8125SOL    HW332273   2.466   0.880   4.676  1.4287 -0.5330  0.6799
 8125SOL    MW432274   2.431   0.847   4.748  0.0889 -0.2308  0.1953
 8126SOL     OW32275   4.921   3.287   5.181 -0.0229  0.3752  0.1213
 8126SOL    HW232276   4.977   3.352   5.224  0.0670  0.2583  0.1829
 8126SOL    HW332277   4.939   3.297   5.088  0.1430  0.3015  0.1444
 8126SOL    MW432278   4.931   3.297   5.175  0.0108  0.3501  0.1325
 8127SOL     OW32279   4.305   3.544   3.383 -0.1146  0.0905 -0.1370
 8127SOL    HW232280   4.342   3.604   3.448  0.1152 -0.2069  0.0089
 8127SOL    HW332281   4.221   3.518   3.420 -0.4784  0.7687 -0.4701
 8127SOL    MW432282   4.299   3.549   3.396 -0.1323  0.1407 -0.1617
 8128SOL     OW32283   5.864   6.075   1.821 -0.3262  0.0403  0.1972
 8128SOL    HW232284   5.794   6.075   1.756 -1.5440 -1.0000  1.4399
 8128SOL    HW332285   5.908   5.990   1.809  0.5399  0.5617 -0.3780
 8128SOL    MW432286   5.861   6.064   1.811 -0.3726 -0.0282  0.2853
 8129SOL     OW32287   5.477   1.195   4.513  0.0363  0.3162 -0.3861
 8129SOL    HW232288   5.570   1.209   4.528  0.0893 -0.3133 -0.0960
 8129SOL    HW332289   5.434   1.236   4.588  0.0757  0.6261 -0.5314
 8129SOL    MW432290   5.483   1.202   4.525  0.0485  0.2740 -0.3670
 8130SOL     OW32291   5.696   0.753   2.630  0.3383 -0.3115  0.3899
 8130SOL    HW232292   5.732   0.837   2.602 -0.3400 -1.0243 -3.0539
 8130SOL    HW332293   5.611   0.775   2.668  0.7629  0.6364  0.8352
 8130SOL    MW432294   5.690   0.767   2.631  0.3048 -0.2805 -0.0057
 8131SOL     OW32295   0.913   5.904   2.558  0.7875  0.3511  0.1056
 8131SOL    HW232296   0.834   5.942   2.519 -2.4585 -3.6254  2.0816
 8131SOL    HW332297   0.899   5.912   2.652  1.9561 -1.8324  0.5039
 8131SOL    MW432298   0.900   5.910   2.565  0.5134 -0.4616  0.4189
 8132SOL     OW32299   1.653   5.339   0.762  0.2424 -0.1643 -0.4436
 8132SOL    HW232300   1.734   5.385   0.741  2.1530 -3.0208  0.1115
 8132SOL    HW332301   1.584   5.397   0.730  2.4850  2.0849 -1.5932
 8132SOL    MW432302   1.654   5.353   0.755  0.7903 -0.2444 -0.5220
 8133SOL     OW32303   5.850   4.414   3.229 -0.2546  0.1272  0.0371
 8133SOL    HW232304   5.926   4.448   3.278  0.9515 -2.5844  0.2468
 8133SOL    HW332305   5.776   4.466   3.261  1.3516  2.2943  0.4704
 8133SOL    MW432306   5.850   4.426   3.240  0.1165  0.0553  0.1220
 8134SOL     OW32307   2.514   0.409   5.682 -0.1897  0.1298 -0.0074
 8134SOL    HW232308   2.597   0.368   5.657 -0.3352  1.3409 -3.0005
 8134SOL    HW332309   2.450   0.375   5.618 -1.4365  1.0597  0.6863
 8134SOL    MW432310   2.516   0.399   5.670 -0.3734  0.4123 -0.3108
 8135SOL     OW32311   3.840   1.296   3.555 -0.1379  0.0350  0.0088
 8135SOL    HW232312   3.772   1.265   3.496 -1.0873  1.4844  0.2803
 8135SOL    HW332313   3.919   1.300   3.501 -0.5592 -0.4157 -0.6574
 8135SOL    MW432314   3.841   1.292   3.540 -0.3188  0.1668 -0.0433
 8136SOL     OW32315   5.722   2.228   4.656 -0.0192 -0.3837 -0.1776
 8136SOL    HW232316   5.689   2.312   4.686  0.3483  0.2749 -1.5476
 8136SOL    HW332317   5.655   2.165   4.682 -1.2321  0.5922 -0.8154
 8136SOL    MW432318   5.709   2.231   4.663 -0.1307 -0.1680 -0.4425
 8137SOL     OW32319   3.014   4.398   6.399  0.0745 -0.2553  0.3585
 8137SOL    HW232320   2.949   4.407   6.468 -0.0257  1.4489  0.0785
 8137SOL    HW332321   3.009   4.306   6.373 -1.7801 -0.3054  0.7655
 8137SOL    MW432322   3.005   4.387   6.405 -0.1834 -0.0370  0.3752
 8138SOL     OW32323   5.144   6.193   5.866 -0.3305 -0.0527  0.2466
 8138SOL    HW232324   5.171   6.220   5.953  0.6005 -0.9762  0.2683
 8138SOL    HW332325   5.205   6.238   5.807 -0.3629 -0.1528  0.1368
 8138SOL    MW432326   5.156   6.202   5.870 -0.2120 -0.1878  0.2350
 8139SOL     OW32327   3.026   4.396   3.560 -0.2796 -0.1992 -0.3356
 8139SOL    HW232328   3.013   4.327   3.495  0.9055 -0.1211 -0.6761
 8139SOL    HW332329   2.966   4.466   3.535 -0.7038 -0.6632 -0.6215
 8139SOL    MW432330   3.017   4.396   3.548 -0.1792 -0.2501 -0.4182
 8140SOL     OW32331   5.751   2.128   0.150  0.0171 -0.2554 -0.5728
 8140SOL    HW232332   5.710   2.214   0.149 -0.7929 -0.6250 -1.9202
 8140SOL    HW332333   5.844   2.146   0.161 -0.3699  0.6342  1.7915
 8140SOL    MW432334   5.758   2.142   0.151 -0.1408 -0.1868 -0.4386
 8141SOL     OW32335   6.231   2.134   4.783  0.3509  0.4118  0.3564
 8141SOL    HW232336   6.268   2.223   4.777  1.3251 -0.0530 -1.0533
 8141SOL    HW332337   6.142   2.144   4.751  0.4507  0.8847  0.2069
 8141SOL    MW432338   6.224   2.147   4.778  0.4926  0.4128  0.1507
 8142SOL     OW32339   0.617   4.443   3.114  0.1157  0.1083 -0.2426
 8142SOL    HW232340   0.697   4.486   3.142 -0.4900  0.9111  0.2808
 8142SOL    HW332341   0.642   4.395   3.035  1.0177  0.6519 -0.2942
 8142SOL    MW432342   0.631   4.442   3.107  0.1548  0.2859 -0.1804
 8143SOL     OW32343   3.495   4.107   0.562 -0.2719 -0.6544 -0.8241
 8143SOL    HW232344   3.551   4.185   0.563 -1.8269  0.5108 -0.6217
 8143SOL    HW332345   3.406   4.141   0.575 -0.7850 -2.6522  1.8284
 8143SOL    MW432346   3.490   4.122   0.564 -0.5448 -0.7643 -0.4474
 8144SOL     OW32347   6.442   4.754   1.740  0.6306 -0.5449  0.0948
 8144SOL    HW232348   6.471   4.780   1.828  0.0783 -2.2212  0.8132
 8144SOL    HW332349   6.349   4.732   1.751  0.7672 -1.5922 -0.7032
 8144SOL    MW432350   6.433   4.754   1.753  0.5757 -0.9042  0.0843
 8145SOL     OW32351   2.401   3.462   5.634  0.8004 -0.1510  0.7528
 8145SOL    HW232352   2.378   3.379   5.591 -0.5052 -0.4035  1.8612
 8145SOL    HW332353   2.324   3.517   5.620  1.7521  0.9701 -0.1675
 8145SOL    MW432354   2.388   3.458   5.626  0.7537 -0.0364  0.7776
 8146SOL     OW32355   5.733   2.005   0.906 -0.0257  0.7278  0.0853
 8146SOL    HW232356   5.666   1.988   0.840 -0.1754 -1.0869  0.6298
 8146SOL    HW332357   5.816   1.995   0.859 -0.1333 -0.3992  0.1040
 8146SOL    MW432358   5.735   2.001   0.891 -0.0597  0.3397  0.1596
 8147SOL     OW32359   4.158   0.825   2.182 -0.3870 -0.0796  0.0900
 8147SOL    HW232360   4.250   0.799   2.189 -0.3576 -0.1578 -0.4729
 8147SOL    HW332361   4.161   0.910   2.138 -0.4949  0.7983  1.7107
 8147SOL    MW432362   4.171   0.833   2.177 -0.3974  0.0259  0.2296
 8148SOL     OW32363   2.953   0.738   1.072  0.2804 -0.6115 -0.6488
 8148SOL    HW232364   2.869   0.783   1.064  1.0155  0.7054 -1.4454
 8148SOL    HW332365   2.950   0.695   1.157  0.1110  2.2831  0.9226
 8148SOL    MW432366   2.942   0.739   1.082  0.3550 -0.0558 -0.5465
 8149SOL     OW32367   3.571   1.521   0.025 -0.1840 -0.4574 -0.0814
 8149SOL    HW232368   3.641   1.585   0.040 -0.9920  0.5607 -0.5062
 8149SOL    HW332369   3.615   1.448  -0.018  0.7054 -0.0430  0.0888
 8149SOL    MW432370   3.586   1.520   0.021 -0.1732 -0.2684 -0.1150
 8150SOL     OW32371   5.125   0.773   1.935  0.0597 -0.0253 -0.0616
 8150SOL    HW232372   5.106   0.718   1.859 -0.3902 -0.5628  0.4255
 8150SOL    HW332373   5.143   0.860   1.899 -0.0933 -0.2905 -0.7816
 8150SOL    MW432374   5.125   0.778   1.920 -0.0198 -0.1312 -0.0923
 8151SOL     OW32375   4.364   0.649   3.920  0.3871 -0.1347 -0.1808
 8151SOL    HW232376   4.444   0.664   3.871  1.0663 -1.5280  0.4576
 8151SOL    HW332377   4.391   0.596   3.995 -1.0505 -0.2443  0.2941
 8151SOL    MW432378   4.378   0.644   3.924  0.2870 -0.3330 -0.0339
 8152SOL     OW32379   2.072   4.839   0.479 -0.2375 -0.0297  0.4346
 8152SOL    HW232380   2.101   4.748   0.475  2.5435  0.7649  0.6522
 8152SOL    HW332381   2.060   4.856   0.573  0.5612  0.1932  0.4996
 8152SOL    MW432382   2.074   4.829   0.491  0.2348  0.1045  0.4719
 8153SOL     OW32383   0.636   0.661   3.573 -0.0700 -0.2521 -0.2797
 8153SOL    HW232384   0.722   0.652   3.614 -0.2357  0.3857  0.2125
 8153SOL    HW332385   0.593   0.732   3.620 -0.2012  0.6298 -1.6653
 8153SOL    MW432386   0.641   0.669   3.585 -0.1092 -0.0516 -0.3976
 8154SOL     OW32387   2.116   0.304   1.566 -0.1843 -0.5089  0.2259
 8154SOL    HW232388   2.027   0.338   1.577 -0.0518  0.7261 -2.0693
 8154SOL    HW332389   2.118   0.271   1.477  1.1310 -2.3076  0.8706
 8154SOL    MW432390   2.105   0.304   1.556  0.0068 -0.5833  0.0082
 8155SOL     OW32391   2.325   6.378   0.384 -0.5990  0.8809  0.2751
 8155SOL    HW232392   2.348   6.300   0.333 -0.0613  1.0854  0.2036
 8155SOL    HW332393   2.258   6.422   0.331 -0.2564  0.9376 -0.1121
 8155SOL    MW432394   2.319   6.374   0.370 -0.4828  0.9154  0.2146
 8156SOL     OW32395   0.885   2.762   5.446  0.9799 -0.2783 -0.2797
 8156SOL    HW232396   0.976   2.791   5.440  1.3026 -1.2999 -0.6720
 8156SOL    HW332397   0.838   2.817   5.384  1.0478  1.2245  0.9481
 8156SOL    MW432398   0.891   2.773   5.437  1.0315 -0.2148 -0.1694
 8157SOL     OW32399   6.242   6.414   0.368 -0.3207 -0.3879 -0.4348
 8157SOL    HW232400   6.266   6.335   0.417 -0.0046 -0.2703 -0.3947
 8157SOL    HW332401   6.218   6.478   0.434  1.1034  0.1057 -0.3506
 8157SOL    MW432402   6.242   6.412   0.383 -0.0911 -0.3072 -0.4184
 8158SOL     OW32403   2.843   2.391   1.547 -0.0269  0.2038  0.9735
 8158SOL    HW232404   2.848   2.321   1.613  2.7893  0.3643  1.0825
 8158SOL    HW332405   2.794   2.353   1.475 -0.1284 -1.2443  1.7675
 8158SOL    MW432406   2.837   2.377   1.546  0.3313  0.0339  1.0926
 8159SOL     OW32407   3.703   3.795   0.071 -0.2418  0.6531 -0.4721
 8159SOL    HW232408   3.784   3.844   0.061 -0.1223  0.4181 -0.6631
 8159SOL    HW332409   3.685   3.759  -0.017 -0.2774  0.2793 -0.3162
 8159SOL    MW432410   3.711   3.796   0.058 -0.2307  0.5727 -0.4767
 8160SOL     OW32411   4.180   6.122   4.272  0.4671  0.4409  0.0002
 8160SOL    HW232412   4.200   6.214   4.254 -1.5551  0.8602 -0.3662
 8160SOL    HW332413   4.109   6.126   4.337 -0.6879 -0.7789 -1.1239
 8160SOL    MW432414   4.173   6.135   4.279  0.0479  0.3353 -0.1964
 8161SOL     OW32415   5.211   1.121   2.407 -0.2142 -0.4503  0.0394
 8161SOL    HW232416   5.290   1.082   2.446 -0.8619 -0.8175  1.0305
 8161SOL    HW332417   5.143   1.109   2.474 -0.5762  1.8945  0.1668
 8161SOL    MW432418   5.213   1.114   2.421 -0.3474 -0.1894  0.1869
 8162SOL     OW32419   5.740   6.206   6.233  1.2375  0.3358  0.5629
 8162SOL    HW232420   5.695   6.290   6.226 -1.2904 -0.9730 -0.2206
 8162SOL    HW332421   5.782   6.195   6.147 -0.9796 -0.4487 -0.5142
 8162SOL    MW432422   5.739   6.216   6.221  0.6115  0.0596  0.3174
 8163SOL     OW32423   0.712   4.933   2.150  0.2289  0.2727 -0.2814
 8163SOL    HW232424   0.699   4.854   2.202 -0.0944 -0.6061 -1.6576
 8163SOL    HW332425   0.688   4.908   2.061 -1.8121  2.4614 -0.4450
 8163SOL    MW432426   0.707   4.919   2.145 -0.0831  0.4455 -0.4846
 8164SOL     OW32427   3.685   1.132   5.289 -0.0516 -0.0317 -0.1531
 8164SOL    HW232428   3.776   1.107   5.275 -0.1638 -0.3524 -0.3399
 8164SOL    HW332429   3.684   1.227   5.280  0.3407  0.0175  0.3027
 8164SOL    MW432430   3.697   1.141   5.286 -0.0147 -0.0675 -0.1176
 8165SOL     OW32431   1.548   4.961   1.718  0.3709 -0.3347 -0.0221
 8165SOL    HW232432   1.553   4.993   1.628  0.3844 -1.4365 -0.4376
 8165SOL    HW332433   1.632   4.986   1.757  0.9132 -0.9935 -0.7311
 8165SOL    MW432434   1.560   4.968   1.711  0.4442 -0.5670 -0.1705
 8166SOL     OW32435   2.003   2.776   0.640  0.1784 -0.3277 -0.0955
 8166SOL    HW232436   2.067   2.706   0.632  0.2966 -0.2705  0.3420
 8166SOL    HW332437   1.953   2.753   0.718  1.7538  1.3170  1.4692
 8166SOL    MW432438   2.005   2.763   0.649  0.4018 -0.1032  0.1686
 8167SOL     OW32439   5.536   2.691   6.151  0.0153  0.3763  0.3260
 8167SOL    HW232440   5.507   2.609   6.191 -0.9620  0.9566  0.8628
 8167SOL    HW332441   5.518   2.681   6.057 -0.8405  0.2627  0.4951
 8167SOL    MW432442   5.529   2.679   6.144 -0.2266  0.4379  0.4191
 8168SOL     OW32443   5.827   5.476   0.391 -0.2948 -0.0212  0.1434
 8168SOL    HW232444   5.861   5.475   0.301  0.5090  0.8597  0.4139
 8168SOL    HW332445   5.788   5.563   0.400 -1.4443 -0.5369  0.2804
 8168SOL    MW432446   5.827   5.487   0.380 -0.3404  0.0269  0.1972
 8169SOL     OW32447   2.133   1.425   2.044 -0.1405 -0.8351  0.2783
 8169SOL    HW232448   2.216   1.403   2.085  0.1064 -2.7130 -1.0738
 8169SOL    HW332449   2.077   1.349   2.061 -1.2014 -0.0848  0.2145
 8169SOL    MW432450   2.136   1.412   2.052 -0.2479 -0.9839  0.0914
 8170SOL     OW32451   6.165   3.659   3.406 -0.1030 -0.2003  0.3018
 8170SOL    HW232452   6.105   3.733   3.397  0.7646  0.6890  1.5334
 8170SOL    HW332453   6.140   3.617   3.488  0.0806 -0.6637  0.1281
 8170SOL    MW432454   6.154   3.663   3.416  0.0357 -0.1441  0.4414
 8171SOL     OW32455   3.917   2.081   5.341 -0.2578 -0.0464 -0.2027
 8171SOL    HW232456   3.950   1.993   5.327 -0.0473 -0.2179  1.2002
 8171SOL    HW332457   3.825   2.068   5.364  0.6140 -0.3297  3.8316
 8171SOL    MW432458   3.909   2.068   5.342 -0.1150 -0.1064  0.5147
 8172SOL     OW32459   0.790   2.818   2.315 -0.3057 -0.0511 -0.1048
 8172SOL    HW232460   0.789   2.908   2.349 -2.1327 -0.3788  0.7839
 8172SOL    HW332461   0.802   2.763   2.392  0.2725 -0.6244 -0.5832
 8172SOL    MW432462   0.792   2.823   2.329 -0.4704 -0.1700 -0.0507
 8173SOL     OW32463   1.741   4.323   2.664 -0.1772  0.2658  0.3517
 8173SOL    HW232464   1.678   4.256   2.637 -1.0911  1.0064  0.6002
 8173SOL    HW332465   1.799   4.333   2.588  0.3243 -1.1837  0.5115
 8173SOL    MW432466   1.741   4.315   2.650 -0.2316  0.1723  0.4056
 8174SOL     OW32467   6.148   1.714   2.745  0.0516 -0.2073 -0.1630
 8174SOL    HW232468   6.211   1.718   2.673 -0.2513  2.5660 -0.3964
 8174SOL    HW332469   6.062   1.717   2.702 -0.1447  0.4870  0.2585
 8174SOL    MW432470   6.145   1.715   2.730 -0.0142  0.2502 -0.1382
 8175SOL     OW32471   3.126   2.791   3.981  0.2123 -0.0545  0.0629
 8175SOL    HW232472   3.117   2.792   4.076  0.4811  1.2143  0.0893
 8175SOL    HW332473   3.216   2.818   3.965  0.3228 -0.7482 -0.5448
 8175SOL    MW432474   3.137   2.795   3.991  0.2624  0.0214 -0.0138
 8176SOL     OW32475   0.781   0.216   5.754  0.1459 -0.5104 -0.6456
 8176SOL    HW232476   0.819   0.296   5.719 -0.3403 -0.6088 -1.4363
 8176SOL    HW332477   0.856   0.163   5.781  0.5079 -0.1666 -0.9602
 8176SOL    MW432478   0.796   0.219   5.753  0.1295 -0.4780 -0.7914
 8177SOL     OW32479   4.306   1.888   0.003 -0.2526 -0.2406  0.5568
 8177SOL    HW232480   4.380   1.865  -0.052  1.0257  2.4738  0.9891
 8177SOL    HW332481   4.272   1.804   0.035  2.6352 -1.5853  0.3631
 8177SOL    MW432482   4.311   1.874   0.000  0.2971 -0.0599  0.5883
 8178SOL     OW32483   4.230   2.276   2.853 -0.0134 -0.0083  0.1395
 8178SOL    HW232484   4.138   2.302   2.844 -0.4260 -1.5863 -0.4727
 8178SOL    HW332485   4.236   2.241   2.942 -0.0973 -0.2550  0.0484
 8178SOL    MW432486   4.218   2.275   2.864 -0.0789 -0.2491  0.0467
 8179SOL     OW32487   6.161   0.361   4.332 -0.1404 -0.2413  0.0962
 8179SOL    HW232488   6.168   0.335   4.423 -1.8905 -2.0677 -0.2351
 8179SOL    HW332489   6.155   0.279   4.283  1.0011  0.6761 -1.7215
 8179SOL    MW432490   6.161   0.347   4.337 -0.2207 -0.3612 -0.1874
 8180SOL     OW32491   2.562   1.848   2.359 -0.0201 -0.7686  0.9022
 8180SOL    HW232492   2.544   1.858   2.265  2.5932 -3.0745  0.0120
 8180SOL    HW332493   2.649   1.886   2.371  0.3988 -2.0260  2.0302
 8180SOL    MW432494   2.571   1.855   2.348  0.3800 -1.2387  0.9336
 8181SOL     OW32495   2.938   4.902   0.491  0.6628  0.2749 -0.5138
 8181SOL    HW232496   2.886   4.926   0.568 -1.1147 -1.0553 -1.2254
 8181SOL    HW332497   2.898   4.820   0.460  1.8122  0.3849 -2.4156
 8181SOL    MW432498   2.926   4.894   0.497  0.5799  0.1139 -0.8586
 8182SOL     OW32499   6.430   4.356   6.428  0.2923 -0.0795 -0.2537
 8182SOL    HW232500   6.423   4.261   6.441  1.6071 -0.1278  0.3214
 8182SOL    HW332501   6.419   4.393   6.515  0.6553  0.2235 -0.3330
 8182SOL    MW432502   6.428   4.348   6.441  0.5136 -0.0459 -0.1883
 8183SOL     OW32503   3.085   1.426   3.762 -0.0559  0.5087  0.7962
 8183SOL    HW232504   3.007   1.465   3.802  0.0319 -0.6594  2.1923
 8183SOL    HW332505   3.146   1.416   3.835  0.3255 -1.2000  0.2848
 8183SOL    MW432506   3.082   1.430   3.777  0.0060  0.1292  0.9129
 8184SOL     OW32507   2.707   5.912   1.283 -0.4413  0.0088 -0.0410
 8184SOL    HW232508   2.613   5.924   1.297 -0.2709  1.6191 -0.1465
 8184SOL    HW332509   2.739   5.998   1.259  0.7579 -0.9014 -1.9008
 8184SOL    MW432510   2.699   5.925   1.282 -0.2606  0.1012 -0.3003
 8185SOL     OW32511   3.717   4.106   5.943 -0.5979 -0.2735  0.2755
 8185SOL    HW232512   3.731   4.042   5.873 -1.4854 -0.1322 -0.0468
 8185SOL    HW332513   3.745   4.062   6.023  1.3168 -0.1128 -0.2715
 8185SOL    MW432514   3.722   4.092   5.944 -0.4624 -0.2337  0.1608
 8186SOL     OW32515   0.338   5.016   0.876  0.2073 -0.3576  0.3993
 8186SOL    HW232516   0.279   5.091   0.872  1.4641  0.6685  0.4090
 8186SOL    HW332517   0.301   4.959   0.943  0.1710  1.1020  1.6677
 8186SOL    MW432518   0.325   5.018   0.884  0.3683 -0.0297  0.5679
 8187SOL     OW32519   3.672   2.202   5.464 -0.0407  0.5061 -0.0187
 8187SOL    HW232520   3.584   2.172   5.441  0.5675 -2.0036  0.6185
 8187SOL    HW332521   3.697   2.261   5.392 -2.1274  1.1213 -0.3001
 8187SOL    MW432522   3.664   2.206   5.452 -0.2358  0.2561  0.0282
 8188SOL     OW32523   0.404   4.940   1.935  0.3683  0.1638 -0.0372
 8188SOL    HW232524   0.403   5.033   1.913 -0.4640  0.2091  0.1627
 8188SOL    HW332525   0.382   4.937   2.028  0.8202 -0.2112  0.0617
 8188SOL    MW432526   0.401   4.952   1.945  0.3181  0.1203  0.0022
 8189SOL     OW32527   2.200   4.215   1.045  0.3213  0.0940  0.1630
 8189SOL    HW232528   2.191   4.132   1.000 -2.4358 -0.6607  1.8487
 8189SOL    HW332529   2.294   4.230   1.049  0.8905 -2.6745 -0.6387
 8189SOL    MW432530   2.211   4.206   1.040  0.0326 -0.3708  0.2796
 8190SOL     OW32531   5.367   1.729   2.583  0.1375 -0.1366  0.3578
 8190SOL    HW232532   5.351   1.671   2.657 -1.7213  1.7878  1.5924
 8190SOL    HW332533   5.300   1.707   2.519  1.8944 -1.9693 -0.9802
 8190SOL    MW432534   5.356   1.719   2.585  0.1241 -0.1245  0.3442
 8191SOL     OW32535   1.980   3.951   4.254 -0.5218 -0.0281 -0.1657
 8191SOL    HW232536   2.024   3.887   4.198  0.3234  0.5377 -0.1797
 8191SOL    HW332537   1.893   3.960   4.216 -0.2609 -0.3176 -0.8643
 8191SOL    MW432538   1.975   3.944   4.241 -0.3759  0.0083 -0.2597
 8192SOL     OW32539   6.259   6.090   3.287  0.5788 -0.0600  0.2648
 8192SOL    HW232540   6.304   6.132   3.213  0.0821  0.6115  0.3379
 8192SOL    HW332541   6.271   5.996   3.271  0.8575  0.0814 -0.4321
 8192SOL    MW432542   6.267   6.083   3.275  0.5500  0.0473  0.1825
 8193SOL     OW32543   1.570   4.596   5.205  0.1552  0.1005 -0.0957
 8193SOL    HW232544   1.493   4.590   5.261 -1.8810 -0.8327 -2.7550
 8193SOL    HW332545   1.559   4.679   5.158  2.0218  1.0711  1.0650
 8193SOL    MW432546   1.558   4.606   5.206  0.1328  0.1054 -0.2934
 8194SOL     OW32547   1.250   1.514   0.297  0.1713 -0.2321  0.3594
 8194SOL    HW232548   1.177   1.524   0.235  2.2178 -1.0834 -2.4050
 8194SOL    HW332549   1.271   1.421   0.294  0.8485 -0.1556  1.8094
 8194SOL    MW432550   1.243   1.503   0.288  0.5307 -0.3343  0.1860
 8195SOL     OW32551   4.877   1.938   2.980 -0.2444 -0.2312 -0.4518
 8195SOL    HW232552   4.916   1.853   2.961 -1.4561 -1.1873  1.1086
 8195SOL    HW332553   4.785   1.919   3.000 -0.4115  1.3655  0.4807
 8195SOL    MW432554   4.870   1.925   2.980 -0.4263 -0.1467 -0.1229
 8196SOL     OW32555   3.875   2.825   2.467  0.0850  0.1518 -0.0242
 8196SOL    HW232556   3.967   2.852   2.455 -0.0868  0.7272 -0.0801
 8196SOL    HW332557   3.829   2.907   2.486 -0.5828  0.0084 -0.9755
 8196SOL    MW432558   3.881   2.840   2.468 -0.0258  0.2088 -0.1571
 8197SOL     OW32559   3.374   3.308   4.191 -0.1553 -0.0833 -0.0895
 8197SOL    HW232560   3.370   3.392   4.147  1.7831  0.3567  0.4904
 8197SOL    HW332561   3.412   3.248   4.127 -0.5414 -0.2609 -0.1530
 8197SOL    MW432562   3.378   3.311   4.177  0.0495 -0.0487 -0.0214
 8198SOL     OW32563   0.869   2.526   2.086  0.0376  0.3319  0.2986
 8198SOL    HW232564   0.959   2.552   2.105  0.1873  0.3788 -0.4141
 8198SOL    HW332565   0.840   2.590   2.020 -0.5002  0.2890  0.4942
 8198SOL    MW432566   0.877   2.538   2.080 -0.0136  0.3325  0.2304
 8199SOL     OW32567   2.501   4.760   3.559 -0.3469  0.7482 -0.5135
 8199SOL    HW232568   2.534   4.804   3.481 -3.0084  0.1545 -2.1005
 8199SOL    HW332569   2.407   4.774   3.557 -0.6704 -0.4417  1.8932
 8199SOL    MW432570   2.493   4.768   3.549 -0.7407  0.5128 -0.4053
 8200SOL     OW32571   4.647   5.284   1.020 -0.1014  0.0819 -0.0808
 8200SOL    HW232572   4.670   5.206   0.970  2.3583  0.9014 -0.4011
 8200SOL    HW332573   4.671   5.263   1.110 -1.6624 -0.3176  0.2701
 8200SOL    MW432574   4.653   5.271   1.025  0.0172  0.1373 -0.0768
 8201SOL     OW32575   5.410   3.013   3.212  0.1559 -0.2397  0.1230
 8201SOL    HW232576   5.471   3.065   3.161 -0.6099  1.4650  0.8517
 8201SOL    HW332577   5.398   2.932   3.162 -0.6611  1.3835 -2.4911
 8201SOL    MW432578   5.416   3.009   3.199 -0.0529  0.1993 -0.1258
 8202SOL     OW32579   3.334   1.371   3.439  0.1356  0.0676 -0.1293
 8202SOL    HW232580   3.239   1.371   3.432  0.1274 -1.1501 -0.1264
 8202SOL    HW332581   3.361   1.453   3.397 -0.7711 -0.5104 -1.8925
 8202SOL    MW432582   3.325   1.382   3.433  0.0149 -0.1693 -0.3615
 8203SOL     OW32583   3.400   5.817   4.696 -0.3340  0.2222  0.3911
 8203SOL    HW232584   3.491   5.843   4.711 -0.3189  0.2181  0.3068
 8203SOL    HW332585   3.381   5.846   4.607  0.0652 -1.1327 -0.1590
 8203SOL    MW432586   3.409   5.824   4.686 -0.2794  0.0429  0.3074
 8204SOL     OW32587   3.309   6.156   4.986 -0.7493 -0.3792 -0.2312
 8204SOL    HW232588   3.364   6.233   4.975 -0.1811 -0.9125 -1.2580
 8204SOL    HW332589   3.353   6.105   5.054 -2.8469  1.6613  2.9061
 8204SOL    MW432590   3.322   6.159   4.994 -0.9511 -0.1803  0.0472
 8205SOL     OW32591   0.845   5.694   3.890 -0.2655 -0.2554  0.6255
 8205SOL    HW232592   0.755   5.663   3.903 -1.0437  0.8785 -1.5494
 8205SOL    HW332593   0.868   5.666   3.802  2.0992 -1.7033  1.5914
 8205SOL    MW432594   0.836   5.686   3.880 -0.0562 -0.2968  0.4660
 8206SOL     OW32595   3.503   4.468   3.715  0.1936  0.0489 -0.2938
 8206SOL    HW232596   3.459   4.551   3.695 -2.1554 -0.5318  1.9009
 8206SOL    HW332597   3.450   4.401   3.672  0.9721 -0.4501 -0.4964
 8206SOL    MW432598   3.491   4.470   3.707 -0.0136 -0.0936 -0.0310
 8207SOL     OW32599   1.715   5.406   4.146  0.4700 -0.3889 -0.6721
 8207SOL    HW232600   1.750   5.388   4.233  1.7336  1.1052 -0.8252
 8207SOL    HW332601   1.670   5.325   4.121  0.8135 -1.1405  1.0085
 8207SOL    MW432602   1.714   5.393   4.154  0.6820 -0.2909 -0.4706
 8208SOL     OW32603   1.249   3.810   3.131  0.0063 -0.2872  0.0125
 8208SOL    HW232604   1.282   3.726   3.163 -0.6426 -0.2289  0.8753
 8208SOL    HW332605   1.155   3.807   3.147 -0.2099  0.1240 -1.0736
 8208SOL    MW432606   1.241   3.799   3.138 -0.1078 -0.2253 -0.0170
 8209SOL     OW32607   3.406   3.322   2.259  0.2678  0.0866  0.3379
 8209SOL    HW232608   3.497   3.322   2.232  0.3701  1.3387  0.6332
 8209SOL    HW332609   3.362   3.378   2.195 -0.5031 -1.3164 -0.4062
 8209SOL    MW432610   3.412   3.329   2.247  0.1796  0.0667  0.2787
 8210SOL     OW32611   5.191   1.049   0.857  0.2921  0.5313  0.1332
 8210SOL    HW232612   5.241   1.130   0.840  1.4036  0.0203  0.8443
 8210SOL    HW332613   5.166   1.018   0.770  0.1532  1.4555 -0.1705
 8210SOL    MW432614   5.194   1.056   0.843  0.4204  0.5858  0.1870
 8211SOL     OW32615   1.484   3.417   2.455 -0.4049 -0.3396 -1.0303
 8211SOL    HW232616   1.580   3.425   2.454 -0.4988  1.0652 -1.4533
 8211SOL    HW332617   1.461   3.410   2.547 -0.0071  1.4431 -0.7547
 8211SOL    MW432618   1.494   3.417   2.467 -0.3648  0.0810 -1.0497
 8212SOL     OW32619   3.404   1.056   1.822  0.1697 -0.5286  0.3297
 8212SOL    HW232620   3.323   1.009   1.841 -0.7106  1.3454  1.5096
 8212SOL    HW332621   3.458   1.042   1.900 -0.0087  0.1681  0.5896
 8212SOL    MW432622   3.400   1.048   1.835  0.0300 -0.1894  0.5197
 8213SOL     OW32623   4.251   5.967   4.057 -0.2126 -0.3483 -0.5249
 8213SOL    HW232624   4.240   6.029   4.129 -1.6801 -1.0322 -0.1348
 8213SOL    HW332625   4.208   5.887   4.087  0.6600 -1.2152 -1.4772
 8213SOL    MW432626   4.244   5.964   4.070 -0.2911 -0.5529 -0.5991
 8214SOL     OW32627   1.098   2.331   4.427  0.1244  0.9251 -0.2595
 8214SOL    HW232628   1.022   2.307   4.480  0.9354 -0.5285  0.2872
 8214SOL    HW332629   1.072   2.311   4.337 -0.0388  0.1388 -0.0419
 8214SOL    MW432630   1.084   2.325   4.422  0.2099  0.6296 -0.1587
 8215SOL     OW32631   3.428   5.838   1.144  0.5926 -0.0596  0.3869
 8215SOL    HW232632   3.334   5.853   1.157  0.5988  0.6082 -0.2836
 8215SOL    HW332633   3.469   5.870   1.224  0.0719 -2.7423  1.8510
 8215SOL    MW432634   3.421   5.844   1.156  0.5247 -0.3255  0.4916
 8216SOL     OW32635   2.404   6.162   5.950  0.1737 -0.1175 -0.2086
 8216SOL    HW232636   2.476   6.145   6.011 -0.1337 -0.8966 -0.0496
 8216SOL    HW332637   2.392   6.257   5.952  1.1838  0.0225 -0.2282
 8216SOL    MW432638   2.412   6.172   5.958  0.2664 -0.2018 -0.1902
 8217SOL     OW32639   1.899   5.481   2.718 -0.4040  0.1279 -0.0744
 8217SOL    HW232640   1.853   5.565   2.724 -0.2791  0.3157 -1.4226
 8217SOL    HW332641   1.874   5.446   2.632  0.7259 -0.5163 -0.1611
 8217SOL    MW432642   1.889   5.487   2.707 -0.2385  0.0677 -0.2637
 8218SOL     OW32643   4.569   5.695   3.211  0.1185 -0.0711 -0.1796
 8218SOL    HW232644   4.618   5.708   3.130  0.1905 -0.0300 -0.1302
 8218SOL    HW332645   4.481   5.671   3.182 -0.8448  3.1547 -0.3811
 8218SOL    MW432646   4.564   5.694   3.196  0.0009  0.3599 -0.1996
 8219SOL     OW32647   4.200   3.260   5.678 -0.1361  0.0484  0.9444
 8219SOL    HW232648   4.178   3.168   5.659 -1.8448  0.3436  1.2990
 8219SOL    HW332649   4.195   3.266   5.773  0.9526  0.3041  0.9972
 8219SOL    MW432650   4.196   3.248   5.688 -0.2179  0.1211  0.9982
 8220SOL     OW32651   6.021   2.090   3.017 -0.2516  0.1228  0.6281
 8220SOL    HW232652   5.991   2.034   3.088  1.5561 -1.9536 -0.1089
 8220SOL    HW332653   5.984   2.050   2.938  3.0314 -1.6723 -0.1569
 8220SOL    MW432654   6.012   2.077   3.016  0.4201 -0.3880  0.4273
 8221SOL     OW32655   1.175   5.852   0.604  0.2843  0.2722 -0.0727
 8221SOL    HW232656   1.216   5.875   0.687  1.8794  2.2778 -1.3267
 8221SOL    HW332657   1.233   5.788   0.564  0.2567  0.3361 -0.2201
 8221SOL    MW432658   1.188   5.847   0.609  0.4911  0.5452 -0.2576
 8222SOL     OW32659   2.356   3.809   0.831  0.6700 -0.3182 -0.1432
 8222SOL    HW232660   2.368   3.717   0.855  0.4499 -0.5334 -0.8130
 8222SOL    HW332661   2.374   3.811   0.737  1.7328  0.5304  0.0695
 8222SOL    MW432662   2.360   3.797   0.822  0.7812 -0.2346 -0.2035
 8223SOL     OW32663   1.764   1.631   3.914 -0.4467  0.5728 -0.6039
 8223SOL    HW232664   1.691   1.576   3.885  1.0358 -1.7650 -0.1654
 8223SOL    HW332665   1.823   1.634   3.838  1.1279 -1.4926  0.4204
 8223SOL    MW432666   1.762   1.624   3.900 -0.0433 -0.0082 -0.4109
 8224SOL     OW32667   1.021   0.026   1.075  0.1206  0.2390 -0.4752
 8224SOL    HW232668   1.040   0.041   1.168  2.1966  2.4824 -1.1401
 8224SOL    HW332669   0.926   0.024   1.070 -0.0555 -0.2903  1.7159
 8224SOL    MW432670   1.011   0.028   1.087  0.3713  0.4652 -0.2739
 8225SOL     OW32671   4.120   5.600   2.710  0.2425  0.5277  0.2783
 8225SOL    HW232672   4.151   5.587   2.621  1.6171  0.7117  0.7004
 8225SOL    HW332673   4.090   5.691   2.712 -0.6230  0.2614 -0.2150
 8225SOL    MW432674   4.120   5.610   2.699  0.3097  0.5168  0.2689
 8226SOL     OW32675   5.357   2.457   0.297  0.7787  0.0671  0.0494
 8226SOL    HW232676   5.433   2.462   0.356  1.2387  0.6083 -0.5741
 8226SOL    HW332677   5.385   2.502   0.218 -0.4010  0.7745  0.0144
 8226SOL    MW432678   5.371   2.463   0.294  0.6838  0.2318 -0.0375
 8227SOL     OW32679   3.205   5.791   3.777  0.1740 -0.2887  0.1039
 8227SOL    HW232680   3.230   5.831   3.694  0.9149 -1.9648 -0.5304
 8227SOL    HW332681   3.191   5.865   3.837  1.3620  0.8966 -1.0255
 8227SOL    MW432682   3.206   5.806   3.774  0.4285 -0.3535 -0.1288
 8228SOL     OW32683   5.629   5.330   1.073  0.5305 -0.1806 -0.2138
 8228SOL    HW232684   5.645   5.279   0.994  1.7968 -1.3669  0.7461
 8228SOL    HW332685   5.637   5.266   1.144 -1.4684  0.6520  0.8476
 8228SOL    MW432686   5.632   5.315   1.072  0.4339 -0.2273  0.0529
 8229SOL     OW32687   4.583   4.690   1.310 -0.2262 -0.1307 -0.0595
 8229SOL    HW232688   4.641   4.727   1.243  1.8987 -0.5533  1.4365
 8229SOL    HW332689   4.598   4.596   1.304 -0.1344 -0.1850  0.8722
 8229SOL    MW432690   4.593   4.682   1.300  0.0663 -0.1936  0.2608
 8230SOL     OW32691   4.381   4.940   3.495  0.5879 -0.5917  0.1813
 8230SOL    HW232692   4.336   4.860   3.469  1.0558 -0.8429  0.1426
 8230SOL    HW332693   4.424   4.970   3.416  0.1527 -0.1192  0.1132
 8230SOL    MW432694   4.380   4.934   3.481  0.5923 -0.5625  0.1672
 8231SOL     OW32695   5.622   5.293   0.401  0.2614  0.2912 -0.5642
 8231SOL    HW232696   5.687   5.363   0.412  0.8085 -0.2072 -0.6349
 8231SOL    HW332697   5.601   5.294   0.308  1.9279 -1.1067 -0.9814
 8231SOL    MW432698   5.628   5.303   0.391  0.5535  0.0410 -0.6285
 8232SOL     OW32699   6.129   4.300   3.615 -0.1102  0.5139  0.3913
 8232SOL    HW232700   6.106   4.272   3.704 -0.6023 -0.6220 -0.0677
 8232SOL    HW332701   6.115   4.395   3.616 -0.9755  0.4001  1.2775
 8232SOL    MW432702   6.124   4.309   3.627 -0.2893  0.3490  0.4477
 8233SOL     OW32703   5.914   5.683   4.611  0.0422  0.0432  1.3174
 8233SOL    HW232704   5.825   5.696   4.577  0.2692 -1.3363  0.0830
 8233SOL    HW332705   5.966   5.752   4.569 -0.2506  0.1935  1.2011
 8233SOL    MW432706   5.909   5.694   4.601  0.0335 -0.1190  1.1392
 8234SOL     OW32707   4.693   4.846   3.482  0.9826 -0.0150  0.1204
 8234SOL    HW232708   4.636   4.923   3.475  0.6634 -0.3218 -0.9817
 8234SOL    HW332709   4.682   4.816   3.572 -2.0572 -1.1345 -0.4895
 8234SOL    MW432710   4.684   4.853   3.493  0.5394 -0.2032 -0.1055
 8235SOL     OW32711   5.977   5.222   3.185  0.1308  0.1621  0.0660
 8235SOL    HW232712   5.973   5.209   3.091 -0.6589  2.5429 -0.3010
 8235SOL    HW332713   6.062   5.264   3.200 -0.3410  1.1228  0.1685
 8235SOL    MW432714   5.988   5.226   3.175 -0.0357  0.6030  0.0311
 8236SOL     OW32715   2.926   2.132   3.811  0.4178  0.0204  0.1738
 8236SOL    HW232716   2.840   2.126   3.852 -0.1635 -0.2689 -1.0609
 8236SOL    HW332717   2.934   2.052   3.760  0.3994  1.1253 -1.6345
 8236SOL    MW432718   2.916   2.121   3.810  0.3387  0.1280 -0.2277
 8237SOL     OW32719   1.326   5.121   2.544 -0.1922  0.1522 -0.5051
 8237SOL    HW232720   1.232   5.108   2.532 -0.6890  1.5463  1.3564
 8237SOL    HW332721   1.344   5.209   2.510 -0.1992  1.0755  1.6706
 8237SOL    MW432722   1.316   5.131   2.538 -0.2586  0.4579  0.0275
 8238SOL     OW32723   2.771   2.735   4.566  0.4986  0.6204 -0.2871
 8238SOL    HW232724   2.797   2.644   4.561  0.0205  0.4774 -0.2299
 8238SOL    HW332725   2.692   2.735   4.620  1.7265  1.3359  1.6077
 8238SOL    MW432726   2.764   2.723   4.572  0.5975  0.6959 -0.0295
 8239SOL     OW32727   0.846   4.160   1.615 -0.2471  0.3828  0.1175
 8239SOL    HW232728   0.751   4.161   1.627 -0.1044 -0.8681  1.7795
 8239SOL    HW332729   0.861   4.099   1.542 -0.6987  0.2250  0.1554
 8239SOL    MW432730   0.836   4.152   1.607 -0.2879  0.1970  0.3418
 8240SOL     OW32731   5.953   2.397   4.297 -0.6020  0.2509  0.3253
 8240SOL    HW232732   5.890   2.465   4.319 -0.4104  0.4663  0.2130
 8240SOL    HW332733   5.901   2.330   4.252 -1.1577 -0.5973  2.1544
 8240SOL    MW432734   5.938   2.397   4.294 -0.6501  0.1674  0.5518
 8241SOL     OW32735   4.942   3.457   3.113  0.3109  0.1475  0.3715
 8241SOL    HW232736   4.905   3.525   3.169  1.4279 -0.1081  1.4776
 8241SOL    HW332737   4.916   3.375   3.154 -0.4697 -0.0933 -0.5782
 8241SOL    MW432738   4.934   3.455   3.126  0.3553  0.0820  0.3921
 8242SOL     OW32739   3.467   0.394   4.866 -0.2142 -0.1240  0.0974
 8242SOL    HW232740   3.471   0.485   4.839  0.6938  0.3537  1.7522
 8242SOL    HW332741   3.450   0.397   4.960 -1.4791 -1.6965 -0.0312
 8242SOL    MW432742   3.465   0.406   4.874 -0.2613 -0.2684  0.2988
 8243SOL     OW32743   6.154   4.016   0.169 -0.1946 -0.2715  0.4129
 8243SOL    HW232744   6.137   3.977   0.255  0.8894  0.3111  0.9127
 8243SOL    HW332745   6.077   3.993   0.117 -1.5606  0.5543  1.9580
 8243SOL    MW432746   6.141   4.008   0.174 -0.2318 -0.0857  0.6827
 8244SOL     OW32747   3.476   0.718   0.351 -0.4941 -0.7320  0.1634
 8244SOL    HW232748   3.518   0.636   0.378 -0.7221 -1.7092 -2.1783
 8244SOL    HW332749   3.541   0.761   0.296 -0.9394 -0.0592  0.1567
 8244SOL    MW432750   3.490   0.712   0.347 -0.5829 -0.7722 -0.1465
 8245SOL     OW32751   1.309   5.316   4.829 -0.3709 -0.0114 -0.3688
 8245SOL    HW232752   1.327   5.395   4.880  1.9303 -0.0508 -0.9991
 8245SOL    HW332753   1.332   5.244   4.888 -1.0191 -0.1629 -0.3009
 8245SOL    MW432754   1.314   5.317   4.844 -0.1528 -0.0366 -0.4430
 8246SOL     OW32755   5.506   2.420   4.307 -0.0093  0.3341  0.3176
 8246SOL    HW232756   5.584   2.473   4.323 -0.4057  0.7992  0.7443
 8246SOL    HW332757   5.440   2.482   4.278  0.3305 -0.3255 -2.0574
 8246SOL    MW432758   5.507   2.435   4.306 -0.0168  0.3084  0.0605
 8247SOL     OW32759   6.167   3.614   6.229  0.7216  0.3420 -0.0123
 8247SOL    HW232760   6.100   3.547   6.215  0.5135  0.0451  2.0523
 8247SOL    HW332761   6.129   3.695   6.195  0.1193 -0.1887 -0.6271
 8247SOL    MW432762   6.153   3.616   6.223  0.6146  0.2328  0.1790
 8248SOL     OW32763   3.577   5.691   4.425  0.5750  0.0506  0.1765
 8248SOL    HW232764   3.656   5.664   4.473  3.0522  1.1368 -2.9825
 8248SOL    HW332765   3.602   5.773   4.382 -2.1775  0.2108 -1.3045
 8248SOL    MW432766   3.591   5.698   4.426  0.5387  0.2150 -0.4357
 8249SOL     OW32767   6.164   0.883   0.264  0.0648  0.1407 -0.0779
 8249SOL    HW232768   6.232   0.928   0.312  0.7121 -1.4874  0.5938
 8249SOL    HW332769   6.103   0.851   0.331 -0.4792  0.1738 -0.5419
 8249SOL    MW432770   6.165   0.885   0.279  0.0784 -0.0697 -0.0505
 8250SOL     OW32771   3.623   1.471   1.530  0.4327  0.4715 -0.0934
 8250SOL    HW232772   3.629   1.565   1.511 -0.8378  0.6487  0.2843
 8250SOL    HW332773   3.530   1.451   1.524  0.6374 -0.6796  0.2740
 8250SOL    MW432774   3.612   1.481   1.526  0.2921  0.3430  0.0049
 8251SOL     OW32775   4.141   3.640   4.002 -0.1332 -0.6307  0.0891
 8251SOL    HW232776   4.215   3.664   4.058  0.0200  0.0566 -0.3985
 8251SOL    HW332777   4.177   3.578   3.939 -0.1108 -0.7561  0.2251
 8251SOL    MW432778   4.155   3.635   4.001 -0.1100 -0.5566  0.0427
 8252SOL     OW32779   5.000   5.945   5.494 -0.3488  0.1007  0.1912
 8252SOL    HW232780   5.067   6.007   5.524 -0.7760  0.1893  0.9919
 8252SOL    HW332781   4.942   5.934   5.570 -0.8279 -0.5336 -0.2582
 8252SOL    MW432782   5.001   5.952   5.508 -0.4684  0.0287  0.2375
 8253SOL     OW32783   2.898   1.558   4.435 -0.3426 -0.7069 -0.0092
 8253SOL    HW232784   2.925   1.650   4.433 -0.5606 -0.6408  0.1227
 8253SOL    HW332785   2.809   1.560   4.471 -0.2885 -0.9823  0.1399
 8253SOL    MW432786   2.890   1.571   4.440 -0.3642 -0.7345  0.0278
 8254SOL     OW32787   4.590   4.967   0.691  0.9373 -0.0304  0.0234
 8254SOL    HW232788   4.530   5.008   0.753 -1.0546 -0.6958 -1.3336
 8254SOL    HW332789   4.616   4.886   0.733  0.7654  0.1967  0.5821
 8254SOL    MW432790   4.585   4.962   0.705  0.6518 -0.0882 -0.0819
 8255SOL     OW32791   0.302   2.141   2.447  0.2303  0.1297  0.1315
 8255SOL    HW232792   0.367   2.122   2.514  0.8371  0.2298 -0.4186
 8255SOL    HW332793   0.302   2.237   2.440  0.0831  0.1263  0.0677
 8255SOL    MW432794   0.310   2.151   2.455  0.2910  0.1425  0.0505
 8256SOL     OW32795   4.318   4.918   0.106  0.4846  0.0990 -0.1112
 8256SOL    HW232796   4.413   4.917   0.096  0.3765 -0.0096 -1.2977
 8256SOL    HW332797   4.294   4.826   0.117  0.7030  0.2937  2.5321
 8256SOL    MW432798   4.327   4.906   0.106  0.4991  0.1104  0.0810
 8257SOL     OW32799   0.066   3.389   1.464  0.1892 -0.1454  0.1075
 8257SOL    HW232800   0.159   3.412   1.470  0.2815 -0.0116 -1.4193
 8257SOL    HW332801   0.021   3.463   1.506  0.7674 -0.4383  1.2951
 8257SOL    MW432802   0.072   3.402   1.471  0.2777 -0.1664  0.0627
 8258SOL     OW32803   4.345   0.166   5.948 -0.0232 -0.1395  0.5507
 8258SOL    HW232804   4.346   0.261   5.950  0.0057 -0.1501  1.6402
 8258SOL    HW332805   4.424   0.139   5.995  0.9818 -0.7173 -1.3771
 8258SOL    MW432806   4.355   0.175   5.954  0.1132 -0.2172  0.4401
 8259SOL     OW32807   5.393   5.246   1.980 -0.1768  0.0873  0.0381
 8259SOL    HW232808   5.456   5.176   1.998 -0.8882 -0.3516  0.8647
 8259SOL    HW332809   5.441   5.326   2.001 -0.1415 -0.2782  1.4798
 8259SOL    MW432810   5.408   5.247   1.985 -0.2660 -0.0188  0.3374
 8260SOL     OW32811   5.660   5.909   4.655 -0.1985  0.6647  0.3708
 8260SOL    HW232812   5.704   5.867   4.728  0.6084  1.8654  0.6073
 8260SOL    HW332813   5.727   5.966   4.616 -0.0225 -1.2364 -2.4248
 8260SOL    MW432814   5.675   5.911   4.659 -0.0688  0.5723  0.0332
 8261SOL     OW32815   4.354   2.519   0.494  0.1366  0.2649  0.1317
 8261SOL    HW232816   4.338   2.526   0.400 -1.3056 -1.0747  0.2473
 8261SOL    HW332817   4.417   2.447   0.503  1.2999  1.2433  0.1393
 8261SOL    MW432818   4.361   2.511   0.483  0.0998  0.2172  0.1479
 8262SOL     OW32819   0.193   1.477   2.924 -0.6003 -0.1092  0.5117
 8262SOL    HW232820   0.102   1.490   2.900 -0.9015  0.2718  1.7678
 8262SOL    HW332821   0.242   1.493   2.843 -1.4991  1.6442  0.2561
 8262SOL    MW432822   0.188   1.481   2.910 -0.7586  0.1724  0.6437
 8263SOL     OW32823   1.041   0.193   3.527 -0.4749  0.2176 -0.0044
 8263SOL    HW232824   1.009   0.247   3.599  0.7079  1.7043 -0.5402
 8263SOL    HW332825   0.969   0.133   3.508 -1.4477  0.9260  1.2857
 8263SOL    MW432826   1.027   0.192   3.534 -0.4472  0.5072  0.0952
 8264SOL     OW32827   5.172   1.370   6.302 -0.2092 -0.4774 -0.4794
 8264SOL    HW232828   5.162   1.312   6.377  1.4960  1.3841  1.2901
 8264SOL    HW332829   5.094   1.425   6.304 -0.0628 -0.2793  0.1106
 8264SOL    MW432830   5.160   1.370   6.312  0.0351 -0.2056 -0.1681
 8265SOL     OW32831   0.561   3.734   4.034  0.8054  0.1824 -0.6328
 8265SOL    HW232832   0.559   3.749   4.129  0.1756  0.7432 -0.7320
 8265SOL    HW332833   0.470   3.737   4.007  1.0398  0.9180 -1.3942
 8265SOL    MW432834   0.549   3.736   4.043  0.7533  0.3534 -0.7463
 8266SOL     OW32835   1.826   1.030   6.309  0.3783  0.3478 -0.2878
 8266SOL    HW232836   1.815   1.083   6.230  0.3637  0.5417 -0.1574
 8266SOL    HW332837   1.890   1.078   6.361 -0.3178  0.7198  0.2447
 8266SOL    MW432838   1.833   1.043   6.306  0.2845  0.4224 -0.2003
 8267SOL     OW32839   0.610   2.403   2.505  0.2819 -0.7321 -0.1898
 8267SOL    HW232840   0.689   2.450   2.478  0.8930 -0.7314  1.4900
 8267SOL    HW332841   0.628   2.377   2.595 -0.6178 -2.9525 -0.5938
 8267SOL    MW432842   0.623   2.406   2.513  0.2438 -1.0250 -0.0214
 8268SOL     OW32843   1.719   1.098   5.592 -0.0134  0.3856  0.1824
 8268SOL    HW232844   1.800   1.056   5.563  0.4194  1.8235 -0.7858
 8268SOL    HW332845   1.685   1.140   5.514 -1.1401  0.7089  0.8297
 8268SOL    MW432846   1.725   1.098   5.578 -0.1050  0.6180  0.1400
 8269SOL     OW32847   5.440   3.614   5.430  0.1068  0.1863  0.2243
 8269SOL    HW232848   5.445   3.672   5.354  0.8295 -0.4222 -0.2121
 8269SOL    HW332849   5.374   3.654   5.487 -0.1138  0.8966 -0.5117
 8269SOL    MW432850   5.432   3.627   5.428  0.1731  0.1997  0.0696
 8270SOL     OW32851   3.392   1.666   2.902  0.5787 -0.4902 -0.3555
 8270SOL    HW232852   3.448   1.656   2.979  0.4917 -2.3323 -0.4943
 8270SOL    HW332853   3.306   1.690   2.937  0.6166 -1.0238  0.1065
 8270SOL    MW432854   3.388   1.668   2.916  0.5722 -0.8036 -0.3129
 8271SOL     OW32855   4.376   1.849   0.374 -0.5985  0.3443 -0.0892
 8271SOL    HW232856   4.452   1.799   0.404 -0.6985  0.4730  0.3856
 8271SOL    HW332857   4.409   1.937   0.360 -0.0018 -0.2039 -2.6435
 8271SOL    MW432858   4.390   1.854   0.376 -0.5330  0.2890 -0.3636
 8272SOL     OW32859   6.134   3.455   3.200 -1.0545  0.1196  0.3771
 8272SOL    HW232860   6.218   3.459   3.155 -1.9580  1.7597 -1.2841
 8272SOL    HW332861   6.139   3.525   3.265 -1.4365  0.8124 -0.3247
 8272SOL    MW432862   6.146   3.465   3.203 -1.2241  0.4274  0.0653
 8273SOL     OW32863   6.226   2.268   3.043 -0.1215 -0.0026 -0.4099
 8273SOL    HW232864   6.163   2.195   3.044 -0.8195  0.5721  1.2615
 8273SOL    HW332865   6.205   2.317   2.964  0.8930 -2.0247 -2.0275
 8273SOL    MW432866   6.215   2.265   3.033 -0.0798 -0.1935 -0.4028
 8274SOL     OW32867   3.999   1.995   5.962 -0.2967  0.2741  0.7369
 8274SOL    HW232868   3.980   1.918   5.908  0.6059  0.2141  0.4931
 8274SOL    HW332869   3.926   2.055   5.944 -0.4394 -0.0830  0.0852
 8274SOL    MW432870   3.986   1.993   5.952 -0.1965  0.2190  0.6187
 8275SOL     OW32871   4.331   2.944   0.516  0.2053  0.2302  0.3414
 8275SOL    HW232872   4.384   3.014   0.477  0.1049  0.8579  1.2878
 8275SOL    HW332873   4.395   2.891   0.563  0.3747 -0.7283 -0.9214
 8275SOL    MW432874   4.346   2.946   0.517  0.2144  0.1866  0.2997
 8276SOL     OW32875   0.857   4.487   0.560 -0.3403 -0.3255  0.5803
 8276SOL    HW232876   0.775   4.534   0.545  0.1738 -0.3849 -3.5754
 8276SOL    HW332877   0.908   4.545   0.616 -1.3925  2.0980 -0.8167
 8276SOL    MW432878   0.853   4.501   0.566 -0.4113 -0.0136 -0.1523
 8277SOL     OW32879   2.175   0.204   5.810 -0.3682  0.2383 -0.2466
 8277SOL    HW232880   2.168   0.198   5.715 -1.9656  3.6481 -0.5134
 8277SOL    HW332881   2.259   0.247   5.826  0.3834 -1.2634  0.0185
 8277SOL    MW432882   2.185   0.209   5.800 -0.4798  0.4901 -0.2468
 8278SOL     OW32883   3.232   0.488   3.183  0.6020 -0.1554  0.1843
 8278SOL    HW232884   3.217   0.425   3.112  0.1857  0.0085  0.1205
 8278SOL    HW332885   3.160   0.471   3.245  0.2689  0.5025 -0.0137
 8278SOL    MW432886   3.220   0.477   3.182  0.5031 -0.0470  0.1497
 8279SOL     OW32887   1.087   1.844   4.083 -0.5385 -0.5232 -0.4371
 8279SOL    HW232888   1.155   1.883   4.028 -1.4259  0.5263 -0.8282
 8279SOL    HW332889   1.127   1.764   4.118  0.6750 -0.2436 -1.1355
 8279SOL    MW432890   1.101   1.838   4.080 -0.4955 -0.3478 -0.5809
 8280SOL     OW32891   6.376   5.531   1.931 -0.3346  0.5933  0.2402
 8280SOL    HW232892   6.381   5.461   1.996  1.8276 -1.6045 -2.0924
 8280SOL    HW332893   6.442   5.594   1.959  0.5171 -0.2914  0.2987
 8280SOL    MW432894   6.386   5.530   1.943  0.0630  0.1866 -0.0599
 8281SOL     OW32895   3.556   2.548   3.377 -0.0383 -0.0570 -0.2965
 8281SOL    HW232896   3.549   2.461   3.338  0.2764  0.5385 -1.7598
 8281SOL    HW332897   3.486   2.551   3.443  0.6853 -1.8034  0.5880
 8281SOL    MW432898   3.546   2.537   3.380  0.0987 -0.2088 -0.3728
 8282SOL     OW32899   0.979   0.812   0.648 -0.0416  0.7124  0.4961
 8282SOL    HW232900   1.007   0.721   0.633 -0.9613  0.6183 -0.8394
 8282SOL    HW332901   0.944   0.840   0.563  1.6598  2.8590  0.4373
 8282SOL    MW432902   0.978   0.804   0.635  0.0615  0.9832  0.3122
 8283SOL     OW32903   4.810   0.261   0.407 -0.4212  0.1172  0.0288
 8283SOL    HW232904   4.856   0.192   0.456  0.5821  0.1745 -0.7734
 8283SOL    HW332905   4.765   0.214   0.337  1.1286  0.3178 -1.1653
 8283SOL    MW432906   4.810   0.246   0.404 -0.0843  0.1512 -0.2346
 8284SOL     OW32907   3.753   5.557   2.274  0.1964  0.9332  0.4136
 8284SOL    HW232908   3.810   5.628   2.304  2.2127 -0.7135  0.6836
 8284SOL    HW332909   3.727   5.512   2.355  1.1465 -0.2155  0.1095
 8284SOL    MW432910   3.757   5.561   2.289  0.5878  0.5644  0.4091
 8285SOL     OW32911   5.419   2.125   3.990 -0.2216 -0.5041 -0.1362
 8285SOL    HW232912   5.446   2.105   4.080  1.5165 -0.9752 -0.7151
 8285SOL    HW332913   5.332   2.164   3.999  2.0547  5.0579  2.3805
 8285SOL    MW432914   5.411   2.128   4.003  0.3081  0.1676  0.1195
 8286SOL     OW32915   5.858   6.158   5.980  0.9123 -0.0591 -0.0220
 8286SOL    HW232916   5.782   6.148   5.923 -1.5818  0.0492  3.0075
 8286SOL    HW332917   5.909   6.078   5.967 -1.2520 -1.5014 -0.0684
 8286SOL    MW432918   5.855   6.146   5.971  0.2977 -0.2351  0.3716
 8287SOL     OW32919   5.104   3.479   2.721  0.0673 -0.3256  0.2877
 8287SOL    HW232920   5.116   3.569   2.691  0.2030 -0.3496  0.2696
 8287SOL    HW332921   5.154   3.426   2.659  2.4327 -0.1846  1.9319
 8287SOL    MW432922   5.112   3.484   2.709  0.3973 -0.3101  0.5022
 8288SOL     OW32923   3.664   2.628   5.136 -0.3590 -0.0087 -0.1219
 8288SOL    HW232924   3.669   2.704   5.193 -0.7822 -0.4365  0.4928
 8288SOL    HW332925   3.581   2.640   5.089  0.3737  0.7667 -1.2782
 8288SOL    MW432926   3.654   2.640   5.137 -0.3182  0.0372 -0.1934
 8289SOL     OW32927   2.729   2.684   3.318 -0.0747 -0.2073 -0.1745
 8289SOL    HW232928   2.780   2.603   3.328 -0.8666 -0.6118  0.7973
 8289SOL    HW332929   2.794   2.754   3.324  0.3432 -0.6823  1.6345
 8289SOL    MW432930   2.744   2.682   3.320 -0.1241 -0.3234  0.1924
 8290SOL     OW32931   5.637   3.677   5.654 -0.4972 -0.2833  0.3929
 8290SOL    HW232932   5.638   3.772   5.668 -0.8078 -0.1447 -0.4674
 8290SOL    HW332933   5.569   3.645   5.713  0.0256 -0.0618  1.1449
 8290SOL    MW432934   5.628   3.685   5.664 -0.4692 -0.2358  0.3786
 8291SOL     OW32935   2.013   2.357   3.280  0.9037 -0.6358  0.3734
 8291SOL    HW232936   1.943   2.422   3.272  1.5386  0.2655  1.7981
 8291SOL    HW332937   2.057   2.359   3.195 -1.3044 -1.8872 -0.8899
 8291SOL    MW432938   2.010   2.366   3.268  0.6961 -0.6820  0.3947
 8292SOL     OW32939   3.893   4.678   1.441 -0.0097 -0.0588  0.2289
 8292SOL    HW232940   3.863   4.621   1.371  0.6199  0.1849 -0.2538
 8292SOL    HW332941   3.846   4.761   1.427  0.7612  0.2762 -0.4392
 8292SOL    MW432942   3.883   4.682   1.430  0.1751  0.0175  0.0770
 8293SOL     OW32943   1.111   1.335   4.399  0.2012 -0.2490 -0.6700
 8293SOL    HW232944   1.060   1.316   4.477 -0.0440  1.9598 -0.2277
 8293SOL    HW332945   1.112   1.253   4.350  0.7423 -1.8304  1.8183
 8293SOL    MW432946   1.104   1.322   4.403  0.2402 -0.1662 -0.2834
 8294SOL     OW32947   2.457   3.232   6.177  0.4045 -0.0155 -0.5778
 8294SOL    HW232948   2.507   3.279   6.110  1.4012  0.2945  0.3600
 8294SOL    HW332949   2.435   3.299   6.242 -0.7734 -0.2639 -0.7022
 8294SOL    MW432950   2.460   3.247   6.176  0.3806 -0.0074 -0.4704
 8295SOL     OW32951   1.697   2.584   0.452 -0.3992 -0.2299  0.3649
 8295SOL    HW232952   1.752   2.645   0.403  0.8025 -0.3484  1.5382
 8295SOL    HW332953   1.608   2.602   0.420  0.4847 -2.0802 -3.8017
 8295SOL    MW432954   1.692   2.594   0.441 -0.1240 -0.4897 -0.0300
 8296SOL     OW32955   1.282   2.455   0.245 -0.4955  0.0423 -0.0840
 8296SOL    HW232956   1.321   2.368   0.232 -0.2028  0.1816 -0.1411
 8296SOL    HW332957   1.198   2.450   0.199  0.0995  0.2115 -1.2192
 8296SOL    MW432958   1.276   2.443   0.237 -0.3784  0.0830 -0.2413
 8297SOL     OW32959   0.320   2.251   4.034  0.3134 -0.4177 -0.1561
 8297SOL    HW232960   0.252   2.184   4.036 -0.2338  0.0991 -0.9413
 8297SOL    HW332961   0.402   2.202   4.034  0.0191 -1.0349  2.2111
 8297SOL    MW432962   0.322   2.236   4.034  0.2024 -0.4309  0.0526
 8298SOL     OW32963   1.036   1.781   2.999 -0.0271 -0.4080 -0.0081
 8298SOL    HW232964   1.095   1.850   2.970  0.3638  0.0102  1.6815
 8298SOL    HW332965   1.058   1.767   3.091  0.1238 -3.0381 -0.3799
 8298SOL    MW432966   1.047   1.788   3.007  0.0443 -0.6998  0.1658
 8299SOL     OW32967   0.235   6.161   6.240 -0.0634  0.4459 -0.8103
 8299SOL    HW232968   0.172   6.113   6.294  1.1550 -0.7615 -0.3789
 8299SOL    HW332969   0.308   6.179   6.299  0.6245  0.5073 -1.6559
 8299SOL    MW432970   0.237   6.157   6.255  0.1881  0.2947 -0.8649
 8300SOL     OW32971   3.012   3.238   4.538 -0.1114  0.5256 -0.1701
 8300SOL    HW232972   3.049   3.217   4.452  2.1144  0.9626  0.6187
 8300SOL    HW332973   3.009   3.154   4.583  1.5939  0.6854  0.3281
 8300SOL    MW432974   3.017   3.224   4.532  0.4073  0.6044 -0.0003
 8301SOL     OW32975   0.553   1.725   4.479  0.1053 -0.0268  0.1682
 8301SOL    HW232976   0.629   1.726   4.421 -0.4327 -1.7301 -0.6294
 8301SOL    HW332977   0.508   1.808   4.461  0.0808 -0.3960 -1.6951
 8301SOL    MW432978   0.557   1.736   4.469  0.0311 -0.3002 -0.1829
 8302SOL     OW32979   4.838   2.853   4.153 -0.2773  0.2584 -0.1115
 8302SOL    HW232980   4.822   2.844   4.059 -0.3487  0.7439 -0.1459
 8302SOL    HW332981   4.762   2.809   4.194  0.1141 -0.5896 -0.2709
 8302SOL    MW432982   4.826   2.846   4.146 -0.2351  0.2105 -0.1371
 8303SOL     OW32983   0.235   2.388   1.535 -0.1286 -0.0818  0.2913
 8303SOL    HW232984   0.282   2.306   1.518 -0.4409 -0.3328  0.6216
 8303SOL    HW332985   0.158   2.361   1.584 -1.2484  0.1865 -1.2590
 8303SOL    MW432986   0.231   2.373   1.539 -0.3176 -0.0795  0.1303
 8304SOL     OW32987   2.831   4.930   3.874 -0.6761  0.2244 -0.3318
 8304SOL    HW232988   2.757   4.935   3.812 -1.7939  0.4286  0.9752
 8304SOL    HW332989   2.843   5.019   3.905  0.4725  0.2809 -0.8904
 8304SOL    MW432990   2.823   4.942   3.870 -0.6720  0.2588 -0.2331
 8305SOL     OW32991   0.890   1.090   2.386 -0.1636  0.4068  0.1677
 8305SOL    HW232992   0.850   1.142   2.456 -0.0877  1.5239 -0.5780
 8305SOL    HW332993   0.982   1.083   2.411 -0.2733  0.2042  0.5196
 8305SOL    MW432994   0.897   1.096   2.398 -0.1680  0.5275  0.1158
 8306SOL     OW32995   4.096   1.507   1.273  0.1677  0.7074 -0.0197
 8306SOL    HW232996   4.132   1.422   1.298  0.0783  0.4644 -0.7074
 8306SOL    HW332997   4.139   1.569   1.332 -2.0845 -0.1020  2.7459
 8306SOL    MW432998   4.106   1.504   1.284 -0.1412  0.5685  0.2545
 8307SOL     OW32999   5.344   5.999   0.178  0.1189  0.3265 -0.7602
 8307SOL    HW233000   5.345   6.080   0.230 -0.1583  0.1319 -0.4524
 8307SOL    HW333001   5.353   5.929   0.242  1.0320  0.1318 -1.0774
 8307SOL    MW433002   5.345   6.001   0.193  0.2028  0.2752 -0.7614
 8308SOL     OW33003   3.266   0.831   4.170  0.1742  0.1240  0.3404
 8308SOL    HW233004   3.330   0.762   4.155 -0.5153 -0.9947  2.2720
 8308SOL    HW333005   3.182   0.787   4.171 -0.3785  1.1405  0.6511
 8308SOL    MW433006   3.263   0.816   4.168  0.0103  0.1106  0.6363
 8309SOL     OW33007   1.223   2.793   3.083  0.1381 -0.1956 -0.6424
 8309SOL    HW233008   1.243   2.848   3.007 -0.1699 -0.5345 -0.9706
 8309SOL    HW333009   1.139   2.826   3.115  1.1260  1.1923  0.7038
 8309SOL    MW433010   1.214   2.805   3.077  0.2278 -0.0572 -0.5081
 8310SOL     OW33011   4.295   2.469   4.274 -0.2225 -0.6592  0.4662
 8310SOL    HW233012   4.260   2.531   4.339  0.7812  0.0309  0.3825
 8310SOL    HW333013   4.244   2.390   4.286 -1.1797  0.0124  0.9602
 8310SOL    MW433014   4.284   2.467   4.284 -0.2163 -0.4795  0.5203
 8311SOL     OW33015   0.519   5.509   5.884  0.6379 -0.4668 -0.3739
 8311SOL    HW233016   0.454   5.564   5.928  1.7911 -1.0635  2.2386
 8311SOL    HW333017   0.482   5.421   5.886 -0.4482 -0.1743 -3.0570
 8311SOL    MW433018   0.506   5.505   5.890  0.6468 -0.5069 -0.3832
 8312SOL     OW33019   2.616   2.880   1.140  0.1431  0.7330 -1.1274
 8312SOL    HW233020   2.581   2.969   1.129  0.3730  0.9103 -0.4771
 8312SOL    HW333021   2.705   2.885   1.106  0.2946  0.8583 -0.7161
 8312SOL    MW433022   2.623   2.893   1.134  0.1935  0.7730 -0.9873
 8313SOL     OW33023   4.553   3.469   1.715  0.3530 -0.2499 -0.1476
 8313SOL    HW233024   4.519   3.550   1.752  1.1076  0.0919 -0.1782
 8313SOL    HW333025   4.514   3.464   1.628 -0.7973 -0.6483  0.3669
 8313SOL    MW433026   4.543   3.479   1.709  0.3008 -0.2573 -0.0838
 8314SOL     OW33027   1.747   5.578   0.325  0.0552  0.3447 -0.1098
 8314SOL    HW233028   1.789   5.543   0.246  0.2441  0.9608 -0.2945
 8314SOL    HW333029   1.660   5.537   0.327 -0.2562  0.9277 -1.0821
 8314SOL    MW433030   1.741   5.568   0.315  0.0390  0.5029 -0.2624
 8315SOL     OW33031   5.930   1.106   0.521 -0.5211 -0.2457 -0.4358
 8315SOL    HW233032   6.013   1.147   0.549  0.1043  0.7894 -3.4584
 8315SOL    HW333033   5.863   1.154   0.570  0.5548 -0.3119  1.2156
 8315SOL    MW433034   5.932   1.118   0.531 -0.2967 -0.1179 -0.6167
 8316SOL     OW33035   0.406   3.914   0.028  0.5158  0.0206 -0.2317
 8316SOL    HW233036   0.385   3.922   0.121  0.3627  1.0331 -0.3432
 8316SOL    HW333037   0.430   3.822   0.017  2.0991  0.2139  1.1337
 8316SOL    MW433038   0.407   3.903   0.039  0.7045  0.1797 -0.0663
 8317SOL     OW33039   3.541   5.150   1.496  0.5385  0.2887  0.1735
 8317SOL    HW233040   3.481   5.141   1.422 -0.4654  2.2025  0.6821
 8317SOL    HW333041   3.599   5.074   1.489  0.3934  0.3167 -2.4605
 8317SOL    MW433042   3.540   5.139   1.485  0.3869  0.5449 -0.1069
 8318SOL     OW33043   1.311   1.654   6.377  0.3072 -0.2060 -0.6019
 8318SOL    HW233044   1.299   1.626   6.468 -1.5633  0.1322 -0.6937
 8318SOL    HW333045   1.405   1.657   6.364  0.6156 -2.2729  0.7037
 8318SOL    MW433046   1.322   1.651   6.387  0.1011 -0.4341 -0.4418
 8319SOL     OW33047   2.827   0.924   5.753 -0.3826 -0.0036  0.4044
 8319SOL    HW233048   2.743   0.962   5.727 -0.3772  1.3432  2.1413
 8319SOL    HW333049   2.873   0.907   5.670 -1.1220  2.1781 -0.5174
 8319SOL    MW433050   2.822   0.927   5.739 -0.4794  0.4620  0.5119
 8320SOL     OW33051   3.239   3.819   4.720 -0.3329  0.3903  0.3255
 8320SOL    HW233052   3.177   3.880   4.678 -0.3554  0.8140  0.9546
 8320SOL    HW333053   3.287   3.873   4.782 -0.5314 -0.2797  1.0872
 8320SOL    MW433054   3.237   3.834   4.722 -0.3620  0.3578  0.5090
 8321SOL     OW33055   1.301   0.816   0.320  0.6597  0.2256 -0.4100
 8321SOL    HW233056   1.285   0.749   0.253  0.2077 -0.1441  0.0641
 8321SOL    HW333057   1.321   0.766   0.399 -0.1287  0.6442  0.0565
 8321SOL    MW433058   1.302   0.800   0.322  0.4961  0.2320 -0.2859
 8322SOL     OW33059   0.278   5.213   4.849  0.1743  0.0212  0.0010
 8322SOL    HW233060   0.226   5.132   4.850 -2.4059  1.5709 -0.4925
 8322SOL    HW333061   0.214   5.283   4.836  1.7945  2.5260  3.6274
 8322SOL    MW433062   0.263   5.211   4.848  0.0476  0.5561  0.4143
 8323SOL     OW33063   3.809   0.748   5.878 -0.2641  0.0390 -0.0568
 8323SOL    HW233064   3.848   0.692   5.811  0.2262 -0.1972  0.4144
 8323SOL    HW333065   3.733   0.788   5.835 -1.4339 -1.9910 -0.0163
 8323SOL    MW433066   3.804   0.746   5.864 -0.3537 -0.2600  0.0107
 8324SOL     OW33067   2.844   5.859   1.011  0.4221  0.1761  0.3360
 8324SOL    HW233068   2.896   5.877   0.933  1.9112  0.4594  1.3550
 8324SOL    HW333069   2.898   5.889   1.083 -0.7038 -0.5595  1.5292
 8324SOL    MW433070   2.858   5.865   1.010  0.4700  0.1164  0.6278
 8325SOL     OW33071   1.838   0.031   4.584  0.2163  0.7903  0.5100
 8325SOL    HW233072   1.872   0.045   4.496 -0.0346 -1.7073 -0.0689
 8325SOL    HW333073   1.910   0.056   4.642  0.7432  1.5264 -0.4372
 8325SOL    MW433074   1.852   0.036   4.580  0.2527  0.5579  0.3087
 8326SOL     OW33075   0.533   2.880   5.479  0.1205 -0.2511 -0.0897
 8326SOL    HW233076   0.439   2.894   5.484  0.0530 -0.3990 -0.8066
 8326SOL    HW333077   0.565   2.895   5.568 -0.3916  1.1535 -0.1071
 8326SOL    MW433078   0.525   2.884   5.491  0.0440 -0.0853 -0.1866
 8327SOL     OW33079   0.521   5.157   1.429 -0.6647 -0.3971 -0.3314
 8327SOL    HW233080   0.536   5.072   1.471 -0.4000 -0.4113 -0.4532
 8327SOL    HW333081   0.577   5.218   1.477  2.3909 -0.9922 -2.7617
 8327SOL    MW433082   0.531   5.153   1.441 -0.2267 -0.4775 -0.6681
 8328SOL     OW33083   4.748   4.468   1.264  0.1024  0.1637 -0.5488
 8328SOL    HW233084   4.830   4.469   1.313 -0.4850 -1.3003  0.5587
 8328SOL    HW333085   4.773   4.447   1.174  0.9320 -0.5801 -0.1600
 8328SOL    MW433086   4.762   4.465   1.259  0.1343 -0.1276 -0.3514
 8329SOL     OW33087   2.180   1.039   3.769 -0.0739  0.2576 -0.4915
 8329SOL    HW233088   2.106   0.981   3.783 -0.5253  0.8554 -0.3997
 8329SOL    HW333089   2.209   1.019   3.680 -1.7462  1.5898 -1.3797
 8329SOL    MW433090   2.174   1.029   3.759 -0.3541  0.5122 -0.5966
 8330SOL     OW33091   4.785   3.317   1.038 -0.2576  0.3940  0.4051
 8330SOL    HW233092   4.840   3.242   1.058  1.2101  1.3652  0.1653
 8330SOL    HW333093   4.765   3.308   0.945  1.8018  1.4308 -0.1944
 8330SOL    MW433094   4.789   3.306   1.029  0.2078  0.6589  0.2943
 8331SOL     OW33095   2.929   0.514   1.296  0.5640  0.6010  0.1172
 8331SOL    HW233096   2.949   0.470   1.213  0.8678  0.3735  0.3105
 8331SOL    HW333097   3.011   0.512   1.345  0.1117 -0.2275  0.8682
 8331SOL    MW433098   2.942   0.508   1.291  0.5444  0.4617  0.2418
 8332SOL     OW33099   5.433   0.727   6.203  0.0179 -0.0555  0.6057
 8332SOL    HW233100   5.376   0.779   6.146  0.5548 -0.0222  0.0922
 8332SOL    HW333101   5.389   0.642   6.209 -1.5302  0.7876  2.4660
 8332SOL    MW433102   5.420   0.722   6.196 -0.1155  0.0601  0.7834
 8333SOL     OW33103   2.567   4.798   1.456  0.1421 -0.3046  0.8900
 8333SOL    HW233104   2.617   4.765   1.381 -0.1980 -0.5189  0.7533
 8333SOL    HW333105   2.489   4.742   1.458 -1.2566  1.4907 -0.3329
 8333SOL    MW433106   2.563   4.786   1.446 -0.0873 -0.0960  0.7106
 8334SOL     OW33107   5.619   2.846   3.687 -0.1078 -0.0639  0.0233
 8334SOL    HW233108   5.715   2.844   3.687 -0.0860  0.4667 -0.8915
 8334SOL    HW333109   5.597   2.908   3.757  0.2597  0.9410 -0.7369
 8334SOL    MW433110   5.629   2.854   3.697 -0.0565  0.1387 -0.1977
 8335SOL     OW33111   0.117   1.178   3.569 -0.5259  0.1514 -0.2683
 8335SOL    HW233112   0.022   1.166   3.564 -0.7019  0.4860  1.5985
 8335SOL    HW333113   0.148   1.103   3.620 -0.0977  1.1336  0.9797
 8335SOL    MW433114   0.109   1.166   3.575 -0.4926  0.3252  0.1426
 8336SOL     OW33115   1.287   0.307   5.319  0.0994 -0.1440  0.2317
 8336SOL    HW233116   1.296   0.240   5.252 -0.9150  0.0577 -0.1287
 8336SOL    HW333117   1.376   0.338   5.336  0.5454 -1.4146  0.2388
 8336SOL    MW433118   1.300   0.303   5.313  0.0244 -0.2850  0.1851
 8337SOL     OW33119   5.957   3.399   2.347  1.0837 -0.0175  0.4003
 8337SOL    HW233120   5.958   3.317   2.396  0.7666  1.3222  2.7830
 8337SOL    HW333121   5.899   3.457   2.396 -0.6855  0.9390 -2.5284
 8337SOL    MW433122   5.950   3.396   2.360  0.8084  0.2855  0.3282
 8338SOL     OW33123   0.788   5.765   1.345 -0.1270  0.4898 -0.5666
 8338SOL    HW233124   0.753   5.731   1.262 -1.2243 -0.9465  0.4339
 8338SOL    HW333125   0.762   5.857   1.346 -1.5782  0.1086 -1.0832
 8338SOL    MW433126   0.780   5.773   1.334 -0.4632  0.2500 -0.5028
 8339SOL     OW33127   2.232   5.370   6.142  0.3924 -0.1088 -0.5736
 8339SOL    HW233128   2.305   5.347   6.200 -0.6273 -0.4008  0.6331
 8339SOL    HW333129   2.187   5.286   6.126 -0.1478  0.1878 -0.6410
 8339SOL    MW433130   2.236   5.356   6.148  0.1866 -0.1082 -0.4233
 8340SOL     OW33131   1.578   6.274   1.746 -0.1610  0.4066  0.1549
 8340SOL    HW233132   1.511   6.212   1.773 -0.6407  1.3153  1.1119
 8340SOL    HW333133   1.612   6.310   1.827  1.6070 -0.1225 -0.3017
 8340SOL    MW433134   1.573   6.270   1.760  0.0090  0.4567  0.2209
 8341SOL     OW33135   3.504   1.852   1.181 -0.6447  0.1390  0.8205
 8341SOL    HW233136   3.466   1.940   1.185 -1.9436 -0.4616  2.5209
 8341SOL    HW333137   3.584   1.858   1.234 -0.9172  0.2160  1.2270
 8341SOL    MW433138   3.509   1.864   1.188 -0.8521  0.0699  1.0985
 8342SOL     OW33139   1.131   1.408   5.150  0.8639 -0.1915  0.2650
 8342SOL    HW233140   1.174   1.330   5.184 -0.8318 -2.1761 -1.7787
 8342SOL    HW333141   1.073   1.436   5.220 -0.3193 -2.3144  0.2227
 8342SOL    MW433142   1.129   1.402   5.163  0.4841 -0.7334 -0.0102
 8343SOL     OW33143   1.175   4.691   1.893 -0.1945  0.0183  0.1613
 8343SOL    HW233144   1.222   4.631   1.951 -0.5152  0.2099  0.6176
 8343SOL    HW333145   1.095   4.712   1.940  0.2718  1.4487  0.3658
 8343SOL    MW433146   1.171   4.686   1.907 -0.1753  0.2323  0.2485
 8344SOL     OW33147   2.499   1.811   3.477 -0.1054 -0.2180 -0.5616
 8344SOL    HW233148   2.446   1.890   3.465 -0.1855 -0.3527 -1.1197
 8344SOL    HW333149   2.439   1.748   3.517 -0.1855 -0.1613 -0.5922
 8344SOL    MW433150   2.484   1.813   3.480 -0.1266 -0.2283 -0.6393
 8345SOL     OW33151   3.742   4.174   5.516 -0.4187 -0.1527 -0.6011
 8345SOL    HW233152   3.659   4.151   5.558  0.2713  0.2222  1.0593
 8345SOL    HW333153   3.791   4.092   5.515 -0.4430 -0.1662 -0.6669
 8345SOL    MW433154   3.737   4.160   5.522 -0.3308 -0.1050 -0.3907
 8346SOL     OW33155   3.694   3.790   3.117 -0.3951  0.3481  0.2581
 8346SOL    HW233156   3.608   3.819   3.086  0.9034  2.5400 -1.5623
 8346SOL    HW333157   3.735   3.751   3.041  0.9307  1.0631  0.5806
 8346SOL    MW433158   3.688   3.789   3.103 -0.0489  0.7316  0.0605
 8347SOL     OW33159   3.836   4.147   2.527  0.0582  0.4757  1.1365
 8347SOL    HW233160   3.822   4.101   2.444 -0.3486  2.3022  0.1347
 8347SOL    HW333161   3.923   4.186   2.518 -1.1029  3.1298  0.2360
 8347SOL    MW433162   3.846   4.146   2.515 -0.1487  1.0669  0.8855
 8348SOL     OW33163   1.348   6.122   0.178 -0.3660 -0.0920 -0.1331
 8348SOL    HW233164   1.347   6.042   0.126  0.5642  0.1823 -0.5984
 8348SOL    HW333165   1.282   6.178   0.138 -0.0385 -0.0935 -0.6906
 8348SOL    MW433166   1.339   6.119   0.166 -0.2001 -0.0560 -0.2680
 8349SOL     OW33167   3.892   5.812   2.010 -0.3622  0.3477 -0.2305
 8349SOL    HW233168   3.850   5.729   1.987  1.3689 -0.9705  1.0831
 8349SOL    HW333169   3.919   5.801   2.101  1.2902  1.7484 -0.4930
 8349SOL    MW433170   3.890   5.800   2.019  0.0842  0.3586 -0.0918
 8350SOL     OW33171   4.864   5.267   3.521 -0.0103  0.0666 -0.1120
 8350SOL    HW233172   4.908   5.183   3.529  0.3547  0.3429  0.8180
 8350SOL    HW333173   4.865   5.304   3.609  1.0468  1.6448 -0.7260
 8350SOL    MW433174   4.870   5.261   3.533  0.1773  0.3113 -0.0703
 8351SOL     OW33175   4.803   6.053   2.596  0.1500  0.1266 -0.3177
 8351SOL    HW233176   4.800   6.142   2.631  0.3104  0.3685 -0.9049
 8351SOL    HW333177   4.723   6.046   2.544  0.2853  0.0362 -0.5161
 8351SOL    MW433178   4.792   6.064   2.594  0.1890  0.1466 -0.4213
 8352SOL     OW33179   1.445   4.118   4.747 -0.1139 -0.2244 -0.4962
 8352SOL    HW233180   1.511   4.120   4.817  0.2255 -1.1569 -0.7764
 8352SOL    HW333181   1.364   4.144   4.790  0.5080  1.3866 -0.2399
 8352SOL    MW433182   1.443   4.121   4.762  0.0129 -0.1349 -0.4993
 8353SOL     OW33183   1.249   6.349   0.635 -0.2795  0.4684  0.1770
 8353SOL    HW233184   1.337   6.380   0.655 -0.2695  0.9346 -0.5604
 8353SOL    HW333185   1.191   6.417   0.670 -0.3766 -0.0871  1.1249
 8353SOL    MW433186   1.253   6.362   0.642 -0.2910  0.4566  0.2048
 8354SOL     OW33187   1.264   2.835   1.712  0.2651  0.2136  0.2520
 8354SOL    HW233188   1.244   2.800   1.626  1.9831  0.1364 -0.1542
 8354SOL    HW333189   1.325   2.772   1.750  0.5980  0.9497  0.9722
 8354SOL    MW433190   1.269   2.822   1.706  0.5357  0.3005  0.2934
 8355SOL     OW33191   3.696   3.484   3.986 -0.0759  0.3623 -0.1327
 8355SOL    HW233192   3.765   3.498   4.051  0.3539 -2.7399  0.2701
 8355SOL    HW333193   3.615   3.503   4.032  0.3115 -0.4411  0.9332
 8355SOL    MW433194   3.694   3.488   4.001  0.0319 -0.1530  0.0611
 8356SOL     OW33195   4.399   4.004   6.374 -0.3961 -0.2284 -0.1153
 8356SOL    HW233196   4.388   4.099   6.367 -1.1627 -0.2595  0.4328
 8356SOL    HW333197   4.374   3.985   6.465  1.0779 -0.7922  0.1972
 8356SOL    MW433198   4.394   4.014   6.385 -0.3027 -0.3069 -0.0018
 8357SOL     OW33199   4.852   4.531   0.784  0.6854 -0.3709 -0.3624
 8357SOL    HW233200   4.831   4.471   0.856 -0.6510  1.0664  0.5338
 8357SOL    HW333201   4.931   4.576   0.813 -1.0706  1.8374  1.4212
 8357SOL    MW433202   4.859   4.529   0.798  0.2774  0.1101 -0.0088
 8358SOL     OW33203   2.378   6.186   0.191  0.3889 -0.7844  0.7928
 8358SOL    HW233204   2.380   6.222   0.102 -1.2624  2.3092  1.8421
 8358SOL    HW333205   2.294   6.141   0.198  0.2025 -0.4187  0.9601
 8358SOL    MW433206   2.367   6.185   0.180  0.1464 -0.3280  0.9533
 8359SOL     OW33207   0.243   2.027   1.683 -0.0537 -0.6951 -0.6446
 8359SOL    HW233208   0.211   2.043   1.595 -2.1314 -0.6448  0.0710
 8359SOL    HW333209   0.317   1.967   1.671 -1.4125 -2.1474 -2.3082
 8359SOL    MW433210   0.248   2.021   1.670 -0.5071 -0.8800 -0.7697
 8360SOL     OW33211   6.023   3.665   4.590 -0.1246 -0.2928  0.3422
 8360SOL    HW233212   5.987   3.578   4.610 -1.2624  0.3249  1.0592
 8360SOL    HW333213   5.975   3.692   4.512  1.4323 -0.9840 -0.9248
 8360SOL    MW433214   6.012   3.657   4.582 -0.0693 -0.3025  0.2696
 8361SOL     OW33215   3.494   4.738   4.005  1.3324 -0.6276 -0.3742
 8361SOL    HW233216   3.488   4.742   4.101  2.0063  2.9131 -0.3486
 8361SOL    HW333217   3.409   4.771   3.975  0.4168 -3.3894 -1.1667
 8361SOL    MW433218   3.482   4.743   4.014  1.3005 -0.5248 -0.4754
 8362SOL     OW33219   5.551   3.238   2.680  0.7402  0.1208 -0.0358
 8362SOL    HW233220   5.501   3.200   2.753  2.4034  0.3486  1.2852
 8362SOL    HW333221   5.545   3.172   2.610  1.5982 -1.5280  1.3655
 8362SOL    MW433222   5.544   3.224   2.680  1.0728 -0.0667  0.3234
 8363SOL     OW33223   4.342   1.019   1.736 -0.3690 -0.2020 -0.0574
 8363SOL    HW233224   4.275   1.019   1.668 -2.4231 -0.0939  1.8338
 8363SOL    HW333225   4.366   0.926   1.746  1.0187 -0.0852 -1.8161
 8363SOL    MW433226   4.336   1.006   1.728 -0.4569 -0.1723 -0.0399
 8364SOL     OW33227   3.029   0.211   2.670 -0.4688 -0.5559 -0.2359
 8364SOL    HW233228   3.022   0.118   2.690  0.4626 -0.2584  1.7675
 8364SOL    HW333229   2.971   0.254   2.733 -0.0171  0.2720 -0.3597
 8364SOL    MW433230   3.021   0.204   2.681 -0.2863 -0.4074  0.0121
 8365SOL     OW33231   3.221   5.965   3.540  0.2075 -0.3906 -0.2904
 8365SOL    HW233232   3.259   5.991   3.456  1.5482 -0.1450  0.3551
 8365SOL    HW333233   3.133   6.002   3.539  0.6727  0.7540 -1.0510
 8365SOL    MW433234   3.215   5.974   3.529  0.4457 -0.2072 -0.3056
 8366SOL     OW33235   3.007   4.668   1.175  0.0260 -0.0288 -0.3374
 8366SOL    HW233236   2.940   4.667   1.244  0.5705 -0.8951  0.1968
 8366SOL    HW333237   2.982   4.742   1.119 -0.6341  0.4715  0.5787
 8366SOL    MW433238   2.995   4.678   1.177  0.0107 -0.0771 -0.1461
 8367SOL     OW33239   5.777   1.859   3.736 -0.1998  0.5201  0.4969
 8367SOL    HW233240   5.799   1.767   3.753  1.0004  0.3222 -1.7559
 8367SOL    HW333241   5.695   1.874   3.784 -0.5894 -1.8023  0.6580
 8367SOL    MW433242   5.769   1.849   3.745 -0.0928  0.1876  0.2210
 8368SOL     OW33243   0.364   2.815   0.356 -0.3943  0.5213 -0.2904
 8368SOL    HW233244   0.353   2.730   0.313  0.4570 -1.5689  3.1989
 8368SOL    HW333245   0.290   2.820   0.417  1.6829  0.1713  2.4791
 8368SOL    MW433246   0.353   2.804   0.359 -0.0079  0.1993  0.5354
 8369SOL     OW33247   0.883   6.328   4.781  0.0105 -0.0450  0.5976
 8369SOL    HW233248   0.813   6.389   4.803  0.6901  0.9591  0.0493
 8369SOL    HW333249   0.922   6.305   4.866  1.2263  2.1232  0.6987
 8369SOL    MW433250   0.879   6.333   4.795  0.2606  0.3735  0.5386
 8370SOL     OW33251   6.380   5.483   0.251  0.1054 -0.1657  0.9004
 8370SOL    HW233252   6.303   5.487   0.194  0.3720  0.0593  0.5487
 8370SOL    HW333253   6.344   5.479   0.340 -0.3145 -0.4568  0.7213
 8370SOL    MW433254   6.365   5.483   0.255  0.0852 -0.1744  0.8304
 8371SOL     OW33255   0.449   4.953   2.481  0.5959  0.0563 -0.4987
 8371SOL    HW233256   0.526   5.001   2.510  0.5710 -0.0392 -0.2667
 8371SOL    HW333257   0.415   4.912   2.561 -0.4191  1.1033 -0.3582
 8371SOL    MW433258   0.454   4.954   2.496  0.4587  0.1819 -0.4496
 8372SOL     OW33259   5.078   1.318   0.443  0.7409  0.3559  0.1412
 8372SOL    HW233260   5.165   1.353   0.424  0.9805 -0.8588 -1.2138
 8372SOL    HW333261   5.039   1.382   0.502  2.1833  1.4286  0.0036
 8372SOL    MW433262   5.084   1.331   0.448  0.9628  0.3372 -0.0558
 8373SOL     OW33263   3.777   3.982   6.183 -0.2721  0.1824  0.4260
 8373SOL    HW233264   3.847   4.048   6.195 -0.2669  0.0635  1.1098
 8373SOL    HW333265   3.705   4.015   6.236 -0.8681  0.4766 -0.5527
 8373SOL    MW433266   3.777   3.995   6.191 -0.3500  0.2056  0.3871
 8374SOL     OW33267   1.268   0.544   2.015  0.0004  0.8540 -0.2401
 8374SOL    HW233268   1.241   0.634   2.036  1.1275  1.0196  0.5876
 8374SOL    HW333269   1.319   0.552   1.935  0.6725  1.0708  0.1955
 8374SOL    MW433270   1.271   0.557   2.008  0.2378  0.9044 -0.0734
 8375SOL     OW33271   4.809   2.598   3.314 -0.7182  0.1551  0.6075
 8375SOL    HW233272   4.783   2.638   3.231 -1.5092  0.3226  0.9248
 8375SOL    HW333273   4.896   2.562   3.298 -0.9204  0.0742 -0.3303
 8375SOL    MW433274   4.817   2.598   3.301 -0.8493  0.1665  0.5257
 8376SOL     OW33275   4.599   2.853   2.232  0.2759  0.5085 -0.9496
 8376SOL    HW233276   4.674   2.837   2.289 -0.8882 -0.2046  0.4551
 8376SOL    HW333277   4.540   2.779   2.249 -1.8171  2.2444 -0.1698
 8376SOL    MW433278   4.601   2.841   2.242 -0.1539  0.6435 -0.6614
 8377SOL     OW33279   1.480   1.410   5.167 -0.3681  0.1460  0.3622
 8377SOL    HW233280   1.426   1.447   5.097 -0.1143  0.0664  0.1277
 8377SOL    HW333281   1.495   1.319   5.141  2.6364  0.9877 -1.2613
 8377SOL    MW433282   1.475   1.403   5.155  0.0618  0.2465  0.1171
 8378SOL     OW33283   5.305   6.174   3.106  0.5048  0.2128  0.4446
 8378SOL    HW233284   5.368   6.189   3.035  0.3247 -1.1860 -0.0455
 8378SOL    HW333285   5.282   6.081   3.099 -1.1683  0.5404  0.9792
 8378SOL    MW433286   5.310   6.164   3.096  0.2603  0.0715  0.4504
 8379SOL     OW33287   0.124   5.709   6.363  0.0183  0.2027  0.0915
 8379SOL    HW233288   0.162   5.621   6.359 -0.6415 -0.0414 -1.7777
 8379SOL    HW333289   0.048   5.705   6.305  0.0206  2.0372 -0.0977
 8379SOL    MW433290   0.119   5.697   6.355 -0.0684  0.4125 -0.1801
 8380SOL     OW33291   0.503   3.668   5.994 -0.2742 -0.4313 -0.2243
 8380SOL    HW233292   0.447   3.659   5.916 -0.5252 -2.3352  0.1235
 8380SOL    HW333293   0.587   3.631   5.967 -0.1744 -0.5187  0.2044
 8380SOL    MW433294   0.507   3.662   5.980 -0.2941 -0.6941 -0.1218
 8381SOL     OW33295   3.295   5.405   5.666  0.4415 -0.1601  0.1964
 8381SOL    HW233296   3.355   5.410   5.592 -0.7836 -3.0222 -1.1281
 8381SOL    HW333297   3.351   5.388   5.742  1.4257 -1.9010 -0.8636
 8381SOL    MW433298   3.310   5.404   5.666  0.4097 -0.7674 -0.1182
 8382SOL     OW33299   1.428   1.338   1.289 -0.2512 -0.3808  0.4046
 8382SOL    HW233300   1.416   1.301   1.202  0.5798 -1.3238  0.6800
 8382SOL    HW333301   1.465   1.267   1.341 -0.8591  0.1303  1.5697
 8382SOL    MW433302   1.431   1.324   1.284 -0.2218 -0.4378  0.5947
 8383SOL     OW33303   5.273   0.103   0.169  0.1719  0.3579 -0.5846
 8383SOL    HW233304   5.179   0.116   0.174  0.0344 -0.1051 -1.6225
 8383SOL    HW333305   5.300   0.154   0.092  0.7898  0.6191 -0.1975
 8383SOL    MW433306   5.264   0.111   0.159  0.2352  0.3313 -0.6705
 8384SOL     OW33307   5.495   5.828   3.346  0.0951  0.2083  0.3534
 8384SOL    HW233308   5.429   5.763   3.324  1.9291 -1.0001 -2.0551
 8384SOL    HW333309   5.446   5.898   3.389 -2.7217 -0.6229 -1.2224
 8384SOL    MW433310   5.480   5.828   3.349 -0.0346 -0.0608 -0.1723
 8385SOL     OW33311   3.835   2.120   4.786 -0.2016 -0.2999 -0.1215
 8385SOL    HW233312   3.807   2.095   4.698  0.3791 -0.0450 -0.3927
 8385SOL    HW333313   3.921   2.161   4.772 -0.8432  1.2931  0.3591
 8385SOL    MW433314   3.843   2.122   4.773 -0.2096 -0.0561 -0.0939
 8386SOL     OW33315   5.455   0.405   5.118  0.0238  0.0261  0.2253
 8386SOL    HW233316   5.398   0.368   5.051  1.6861 -0.7434 -0.8336
 8386SOL    HW333317   5.543   0.398   5.081  0.7869  1.5942  1.5990
 8386SOL    MW433318   5.459   0.399   5.104  0.3438  0.1315  0.2668
 8387SOL     OW33319   4.766   2.724   3.844 -0.0668  0.2054  0.5205
 8387SOL    HW233320   4.789   2.806   3.800  0.7793 -0.2546  0.0795
 8387SOL    HW333321   4.728   2.670   3.775 -0.3080  0.0971  0.7352
 8387SOL    MW433322   4.764   2.727   3.829  0.0130  0.1305  0.4906
 8388SOL     OW33323   2.689   0.856   1.021 -0.0401 -0.1053  0.2294
 8388SOL    HW233324   2.649   0.827   0.939  1.0706 -1.3575  0.0938
 8388SOL    HW333325   2.637   0.813   1.089  0.0557 -0.4152  0.1108
 8388SOL    MW433326   2.677   0.846   1.019  0.1191 -0.3114  0.1959
 8389SOL     OW33327   2.663   0.930   3.114 -0.0199 -0.4664  0.2014
 8389SOL    HW233328   2.572   0.907   3.129 -0.1041 -0.8925 -0.8468
 8389SOL    HW333329   2.713   0.857   3.149 -0.0608 -0.1066  1.0248
 8389SOL    MW433330   2.658   0.917   3.120 -0.0364 -0.4751  0.1718
 8390SOL     OW33331   0.453   5.657   3.204  0.2421  0.2018  0.3193
 8390SOL    HW233332   0.536   5.703   3.191  0.1734  0.3756  0.4982
 8390SOL    HW333333   0.387   5.725   3.204 -0.0714 -0.0589 -1.2785
 8390SOL    MW433334   0.455   5.672   3.202  0.1917  0.1903  0.1321
 8391SOL     OW33335   4.236   3.690   0.907 -0.3823  0.0878 -0.0066
 8391SOL    HW233336   4.252   3.732   0.991 -1.7973  0.6104  0.0230
 8391SOL    HW333337   4.314   3.636   0.892 -0.5197 -0.7493  2.0573
 8391SOL    MW433338   4.249   3.689   0.916 -0.5871  0.0463  0.2696
 8392SOL     OW33339   1.292   2.135   5.873 -1.2358 -0.9594 -0.4344
 8392SOL    HW233340   1.348   2.100   5.943  1.2326  1.2284 -1.1834
 8392SOL    HW333341   1.265   2.221   5.905 -3.1850 -1.4538 -0.6572
 8392SOL    MW433342   1.296   2.142   5.887 -1.1673 -0.7360 -0.5626
 8393SOL     OW33343   2.681   0.984   1.355  0.0990  0.0024 -0.2220
 8393SOL    HW233344   2.712   0.907   1.402 -0.1473 -0.4948 -0.8485
 8393SOL    HW333345   2.760   1.036   1.339  0.5249 -0.8840 -1.1523
 8393SOL    MW433346   2.695   0.980   1.359  0.1227 -0.1801 -0.4274
 8394SOL     OW33347   1.927   2.527   2.440  0.9233  0.4131 -0.1341
 8394SOL    HW233348   1.913   2.448   2.389  0.2778  0.3683  0.0948
 8394SOL    HW333349   1.856   2.586   2.413  1.1776  0.7687 -0.0342
 8394SOL    MW433350   1.916   2.525   2.430  0.8717  0.4541 -0.0907
 8395SOL     OW33351   5.331   4.068   5.143 -0.1973 -0.0316  0.4952
 8395SOL    HW233352   5.311   4.060   5.236  1.3196  0.8095  0.9386
 8395SOL    HW333353   5.343   4.162   5.129  0.5113 -0.2245 -0.3231
 8395SOL    MW433354   5.330   4.080   5.154  0.0963  0.0539  0.4457
 8396SOL     OW33355   6.131   3.122   6.269 -0.7127  0.1439 -0.6483
 8396SOL    HW233356   6.084   3.199   6.238  0.4146  1.0203 -0.2226
 8396SOL    HW333357   6.221   3.152   6.282 -0.1939 -1.3037 -0.7221
 8396SOL    MW433358   6.137   3.136   6.266 -0.4955  0.0686 -0.6019
 8397SOL     OW33359   0.541   0.346   0.886 -0.0614 -0.2556  0.0056
 8397SOL    HW233360   0.588   0.362   0.968 -0.6424  0.8335  0.1484
 8397SOL    HW333361   0.591   0.396   0.821 -0.9897  0.9387  0.1633
 8397SOL    MW433362   0.554   0.355   0.888 -0.2605  0.0457  0.0453
 8398SOL     OW33363   1.639   3.706   0.071  0.1879  0.3244  0.1581
 8398SOL    HW233364   1.591   3.786   0.094  1.7073  1.3457 -0.0863
 8398SOL    HW333365   1.577   3.656   0.017 -0.1843  2.2413 -1.3171
 8398SOL    MW433366   1.624   3.710   0.067  0.3392  0.7121 -0.0688
 8399SOL     OW33367   2.507   1.404   4.369  0.1633  0.5270 -0.0086
 8399SOL    HW233368   2.512   1.309   4.356 -2.2341  0.6593 -3.2105
 8399SOL    HW333369   2.554   1.420   4.451 -0.1985 -3.5116  1.1877
 8399SOL    MW433370   2.514   1.394   4.378 -0.2008  0.0116 -0.2732
 8400SOL     OW33371   0.525   0.769   1.682  0.0894  0.0111 -0.1261
 8400SOL    HW233372   0.565   0.684   1.703  0.7245  0.5288  0.8393
 8400SOL    HW333373   0.596   0.832   1.689 -0.4640  0.6875 -0.4113
 8400SOL    MW433374   0.539   0.766   1.686  0.1002  0.1686 -0.0364
 8401SOL     OW33375   5.098   3.461   5.291 -0.9916  0.5527  0.1133
 8401SOL    HW233376   5.130   3.499   5.209  1.2532  0.9134  1.1009
 8401SOL    HW333377   5.057   3.534   5.337  1.7333  1.5051  1.2180
 8401SOL    MW433378   5.097   3.475   5.286 -0.3359  0.7259  0.3893
 8402SOL     OW33379   2.210   0.578   0.089 -0.1214 -0.4713  0.3439
 8402SOL    HW233380   2.183   0.629   0.013  0.4237 -0.2473  0.2934
 8402SOL    HW333381   2.305   0.594   0.096 -0.2443 -0.1248  1.3436
 8402SOL    MW433382   2.219   0.586   0.080 -0.0657 -0.3960  0.4691
 8403SOL     OW33383   0.430   1.968   2.281 -0.1386 -0.2290  0.3589
 8403SOL    HW233384   0.380   2.028   2.335  0.4516  0.3570  0.2700
 8403SOL    HW333385   0.400   1.881   2.307  0.1092  0.0414  1.6148
 8403SOL    MW433386   0.420   1.964   2.292 -0.0280 -0.1160  0.5129
 8404SOL     OW33387   2.262   1.830   4.462 -0.2137  0.1645  0.1180
 8404SOL    HW233388   2.249   1.895   4.393  0.7304  0.8968  0.6072
 8404SOL    HW333389   2.215   1.864   4.537  3.9284  2.7845  1.8684
 8404SOL    MW433390   2.254   1.843   4.463  0.4573  0.6068  0.4135
 8405SOL     OW33391   6.082   2.322   2.567  0.1837 -0.0592 -0.2321
 8405SOL    HW233392   6.070   2.390   2.633  0.8711 -0.6222  0.5049
 8405SOL    HW333393   6.007   2.263   2.581 -0.6518  0.7520 -1.1618
 8405SOL    MW433394   6.070   2.323   2.578  0.1641 -0.0265 -0.2576
 8406SOL     OW33395   0.371   0.771   0.446  0.5634  0.1746 -0.6858
 8406SOL    HW233396   0.300   0.715   0.414 -0.6858  1.3142 -0.0252
 8406SOL    HW333397   0.430   0.781   0.371 -0.3761 -0.1724 -1.4881
 8406SOL    MW433398   0.370   0.765   0.432  0.2746  0.2792 -0.7045
 8407SOL     OW33399   0.555   5.019   3.224 -0.1311 -0.4566  0.6109
 8407SOL    HW233400   0.556   4.934   3.180  0.4267 -0.3929  0.4932
 8407SOL    HW333401   0.463   5.047   3.222 -0.3643 -1.1829  0.8951
 8407SOL    MW433402   0.543   5.012   3.218 -0.0883 -0.5440  0.6329
 8408SOL     OW33403   1.793   6.085   2.187  0.6174  0.3775 -0.2311
 8408SOL    HW233404   1.720   6.143   2.211  1.2456  1.2294 -0.3576
 8408SOL    HW333405   1.754   6.025   2.123 -0.4659 -0.4328  1.1245
 8408SOL    MW433406   1.778   6.085   2.181  0.5574  0.3830 -0.0689
 8409SOL     OW33407   5.558   5.569   5.078 -0.1045 -0.3692 -0.4143
 8409SOL    HW233408   5.567   5.664   5.081 -0.7013 -0.3343  0.6832
 8409SOL    HW333409   5.621   5.536   5.141 -1.2235 -0.5871  0.6154
 8409SOL    MW433410   5.567   5.577   5.086 -0.3309 -0.3933 -0.1336
 8410SOL     OW33411   5.997   5.433   2.059 -0.1000 -0.0214 -0.6365
 8410SOL    HW233412   5.958   5.350   2.034 -0.5267  0.4763 -1.6732
 8410SOL    HW333413   5.923   5.486   2.089 -0.0897  0.5663 -1.6173
 8410SOL    MW433414   5.982   5.429   2.060 -0.1550  0.1218 -0.9027
 8411SOL     OW33415   0.846   0.744   1.386  0.3183 -0.2275 -0.0889
 8411SOL    HW233416   0.755   0.763   1.363  0.1076 -0.8831  0.1823
 8411SOL    HW333417   0.868   0.809   1.453 -0.4920 -1.0934  1.0561
 8411SOL    MW433418   0.837   0.755   1.392  0.1836 -0.4282  0.0979
 8412SOL     OW33419   5.281   3.452   3.903  0.1682  0.3458  0.1269
 8412SOL    HW233420   5.245   3.367   3.928  1.2917  0.2120  1.4281
 8412SOL    HW333421   5.204   3.509   3.897 -0.5751 -0.6699 -0.4770
 8412SOL    MW433422   5.266   3.448   3.905  0.2184  0.1941  0.2189
 8413SOL     OW33423   5.340   0.241   4.922 -0.2548  0.3975  0.0190
 8413SOL    HW233424   5.303   0.287   4.846 -0.9991  0.7168  0.5617
 8413SOL    HW333425   5.401   0.178   4.884 -1.9446 -0.7254 -1.0116
 8413SOL    MW433426   5.343   0.238   4.907 -0.5759  0.2915 -0.0454
 8414SOL     OW33427   6.108   5.604   3.692  0.4401 -0.2285  0.1402
 8414SOL    HW233428   6.155   5.568   3.767  0.6635  0.8750  0.5404
 8414SOL    HW333429   6.019   5.572   3.702  0.4998 -0.2005  0.8066
 8414SOL    MW433430   6.103   5.595   3.703  0.4774 -0.0793  0.2809
 8415SOL     OW33431   4.563   4.511   1.678  0.1230 -0.3935  0.3239
 8415SOL    HW233432   4.472   4.518   1.650  0.0204  1.1190  0.9371
 8415SOL    HW333433   4.563   4.444   1.746 -0.5775 -0.2363  0.4833
 8415SOL    MW433434   4.551   4.503   1.683  0.0171 -0.1732  0.4259
 8416SOL     OW33435   5.200   2.220   4.982  0.2848  0.1403 -0.3335
 8416SOL    HW233436   5.154   2.165   4.918  0.9149  0.3297 -0.9693
 8416SOL    HW333437   5.278   2.251   4.934  0.3602  0.9141  0.2860
 8416SOL    MW433438   5.205   2.217   4.967  0.3779  0.2674 -0.3356
 8417SOL     OW33439   6.031   3.574   1.500 -0.0787 -0.2575 -0.5233
 8417SOL    HW233440   6.089   3.641   1.464  0.6456 -1.2601 -1.2955
 8417SOL    HW333441   6.088   3.497   1.509 -0.6992 -0.5620  1.0469
 8417SOL    MW433442   6.046   3.573   1.497 -0.0650 -0.4300 -0.4180
 8418SOL     OW33443   3.527   2.805   1.425  0.0171  0.0804  0.6010
 8418SOL    HW233444   3.596   2.860   1.389  1.4435 -1.8931  0.1609
 8418SOL    HW333445   3.571   2.751   1.490 -1.8494  1.1506  2.8883
 8418SOL    MW433446   3.542   2.805   1.429 -0.0410 -0.0388  0.8447
 8419SOL     OW33447   4.353   4.884   4.870  0.6927 -0.3030 -0.0489
 8419SOL    HW233448   4.316   4.797   4.858 -1.2229  0.2631  1.2215
 8419SOL    HW333449   4.335   4.930   4.788  1.0346 -0.8831 -0.4466
 8419SOL    MW433450   4.346   4.879   4.858  0.4850 -0.3049  0.0662
 8420SOL     OW33451   2.061   6.222   4.778  0.9096  0.5514 -0.4556
 8420SOL    HW233452   2.115   6.151   4.813  0.4469  0.6086  0.3808
 8420SOL    HW333453   2.124   6.288   4.749  1.3237  1.6760  2.6909
 8420SOL    MW433454   2.076   6.222   4.779  0.9032  0.7073  0.0699
 8421SOL     OW33455   0.452   0.050   0.813  0.1744 -0.2366  0.0304
 8421SOL    HW233456   0.435   0.055   0.719  0.6593 -2.2346 -0.1996
 8421SOL    HW333457   0.451   0.141   0.842 -0.9392  0.3693 -1.7239
 8421SOL    MW433458   0.450   0.063   0.805  0.0914 -0.4203 -0.2314
 8422SOL     OW33459   3.542   1.217   5.513 -0.2005 -0.3500  0.1224
 8422SOL    HW233460   3.608   1.171   5.461  0.5486 -0.1137  0.8500
 8422SOL    HW333461   3.459   1.196   5.470  0.3833 -0.2972 -1.0549
 8422SOL    MW433462   3.540   1.208   5.501 -0.0246 -0.3119  0.0630
 8423SOL     OW33463   3.691   1.755   2.191 -0.1983  0.1394 -0.6480
 8423SOL    HW233464   3.732   1.748   2.277 -0.1349 -1.7867 -0.7965
 8423SOL    HW333465   3.729   1.683   2.140  1.5592  2.6061 -3.0938
 8423SOL    MW433466   3.702   1.744   2.195  0.0420  0.2107 -0.9903
 8424SOL     OW33467   1.370   5.821   2.673  0.0348 -0.2028 -0.6165
 8424SOL    HW233468   1.439   5.757   2.655  0.3315  0.1011 -0.5691
 8424SOL    HW333469   1.297   5.769   2.708  0.6954 -0.3731  0.5551
 8424SOL    MW433470   1.369   5.806   2.675  0.1611 -0.1852 -0.4556
 8425SOL     OW33471   4.733   3.545   1.235  0.1505 -0.9798  0.1445
 8425SOL    HW233472   4.788   3.588   1.300 -0.9854  0.3674  0.2746
 8425SOL    HW333473   4.738   3.452   1.256  1.4875 -0.7781  0.8060
 8425SOL    MW433474   4.741   3.539   1.246  0.1770 -0.7755  0.2490
 8426SOL     OW33475   0.606   1.248   6.093 -0.3290 -0.3604 -0.1975
 8426SOL    HW233476   0.646   1.281   6.174  0.0298  0.3984 -0.6711
 8426SOL    HW333477   0.676   1.253   6.028 -0.6754 -0.7614 -0.6106
 8426SOL    MW433478   0.621   1.253   6.095 -0.3273 -0.3132 -0.3145
 8427SOL     OW33479   3.093   1.975   1.082 -0.4280  0.2401  0.0668
 8427SOL    HW233480   3.094   1.987   1.177 -0.7719 -1.5087  0.3342
 8427SOL    HW333481   3.000   1.979   1.058 -0.3081  1.1623 -0.2844
 8427SOL    MW433482   3.081   1.977   1.091 -0.4575  0.1310  0.0557
 8428SOL     OW33483   4.611   3.375   6.363  0.2722 -0.0546 -0.5681
 8428SOL    HW233484   4.628   3.422   6.445  0.6651 -0.9410 -0.1276
 8428SOL    HW333485   4.696   3.339   6.338  0.2312  0.4763 -1.5588
 8428SOL    MW433486   4.625   3.377   6.370  0.3186 -0.1015 -0.6407
 8429SOL     OW33487   5.914   2.812   4.268 -0.0398  0.1997 -0.3412
 8429SOL    HW233488   5.941   2.894   4.310 -0.5878  0.3917 -0.3523
 8429SOL    HW333489   5.969   2.806   4.190  3.4980 -1.8763  2.0374
 8429SOL    MW433490   5.925   2.822   4.263  0.3547 -0.0489 -0.0289
 8430SOL     OW33491   5.611   4.557   1.166  0.6672  0.4403  0.0789
 8430SOL    HW233492   5.641   4.577   1.255  1.0148 -1.2649  0.3746
 8430SOL    HW333493   5.666   4.612   1.110 -0.1837  2.2325  0.9189
 8430SOL    MW433494   5.622   4.567   1.171  0.6008  0.4518  0.2287
 8431SOL     OW33495   5.129   4.834   1.820 -0.1178 -0.4803 -0.4458
 8431SOL    HW233496   5.045   4.805   1.785 -0.7992 -0.2965  0.9740
 8431SOL    HW333497   5.153   4.767   1.883 -0.9433  1.1471  1.7159
 8431SOL    MW433498   5.121   4.821   1.823 -0.3166 -0.2413  0.0267
 8432SOL     OW33499   0.939   2.042   3.301 -0.3652 -0.2345  0.5294
 8432SOL    HW233500   0.981   2.117   3.343  2.3929 -1.5729  0.3283
 8432SOL    HW333501   0.898   2.079   3.223 -0.3547  1.2760  1.1883
 8432SOL    MW433502   0.939   2.057   3.297  0.0001 -0.2118  0.5898
 8433SOL     OW33503   3.851   5.125   1.558  0.3205  0.2193  0.9956
 8433SOL    HW233504   3.871   5.197   1.617  2.0445  0.3395  0.3179
 8433SOL    HW333505   3.930   5.071   1.558  0.5901  0.4826 -1.5024
 8433SOL    MW433506   3.864   5.127   1.565  0.5835  0.2699  0.5766
 8434SOL     OW33507   3.686   5.771   5.191  0.0213  0.0834  0.0335
 8434SOL    HW233508   3.714   5.692   5.145 -0.3685 -0.2699  0.3855
 8434SOL    HW333509   3.692   5.840   5.125  0.2293 -0.2654 -0.3226
 8434SOL    MW433510   3.690   5.769   5.176 -0.0027 -0.0093  0.0329
 8435SOL     OW33511   0.811   3.720   2.429 -0.2000 -0.6565 -0.3575
 8435SOL    HW233512   0.760   3.653   2.384  0.3851 -0.1190 -1.8783
 8435SOL    HW333513   0.892   3.728   2.378 -0.0114  0.7921  0.1063
 8435SOL    MW433514   0.815   3.712   2.416 -0.0979 -0.3945 -0.4970
 8436SOL     OW33515   5.324   4.476   4.265  0.1740  0.6595  0.0591
 8436SOL    HW233516   5.349   4.458   4.175 -0.6394  1.1226 -0.2611
 8436SOL    HW333517   5.371   4.409   4.316 -0.6497 -0.6479 -0.8488
 8436SOL    MW433518   5.334   4.464   4.260 -0.0420  0.5481 -0.1030
 8437SOL     OW33519   0.324   3.825   2.940  0.6242  0.1333  0.0623
 8437SOL    HW233520   0.392   3.848   2.877  1.5345 -1.0927  0.5493
 8437SOL    HW333521   0.280   3.749   2.900  0.6406 -0.1109  0.5051
 8437SOL    MW433522   0.327   3.818   2.926  0.7465 -0.0607  0.1850
 8438SOL     OW33523   3.703   0.843   4.656  0.3814  0.1831 -0.6511
 8438SOL    HW233524   3.787   0.801   4.675  0.0414 -0.1283  0.1869
 8438SOL    HW333525   3.687   0.900   4.731 -0.4568 -0.2346 -0.5021
 8438SOL    MW433526   3.712   0.845   4.668  0.2260  0.0869 -0.5209
 8439SOL     OW33527   4.512   1.750   4.711 -0.4704  0.3688  0.2961
 8439SOL    HW233528   4.520   1.663   4.672  0.2460  0.5321  0.0624
 8439SOL    HW333529   4.603   1.777   4.728 -0.7220  0.7122  1.1553
 8439SOL    MW433530   4.525   1.742   4.708 -0.4091  0.4357  0.3786
 8440SOL     OW33531   0.130   2.682   4.060  0.2783  0.0546  0.4312
 8440SOL    HW233532   0.036   2.680   4.080  0.0475 -0.0402 -0.6278
 8440SOL    HW333533   0.170   2.634   4.132 -0.8555 -3.4633 -1.0711
 8440SOL    MW433534   0.123   2.675   4.072  0.0982 -0.4221  0.0932
 8441SOL     OW33535   4.454   4.193   1.667  0.2734 -0.0724  0.7779
 8441SOL    HW233536   4.427   4.284   1.655  1.7616  0.1406 -1.5610
 8441SOL    HW333537   4.415   4.146   1.594  1.1587 -0.9267  0.8355
 8441SOL    MW433538   4.445   4.199   1.656  0.5865 -0.1570  0.4769
 8442SOL     OW33539   5.066   5.955   0.358 -0.0509  0.3549  0.1359
 8442SOL    HW233540   4.994   6.009   0.327 -0.6912 -0.6866 -0.2292
 8442SOL    HW333541   5.091   5.994   0.442  0.0762  1.7145 -0.5048
 8442SOL    MW433542   5.060   5.968   0.365 -0.1186  0.3969  0.0032
 8443SOL     OW33543   3.635   1.024   5.671  0.2402  0.0219  0.1606
 8443SOL    HW233544   3.585   1.098   5.636  0.2670 -0.0930 -0.1223
 8443SOL    HW333545   3.674   1.058   5.751  0.1051  0.2605  0.1277
 8443SOL    MW433546   3.633   1.038   5.677  0.2259  0.0382  0.1189
 8444SOL     OW33547   1.870   3.992   2.864 -0.5763  0.2938  0.1874
 8444SOL    HW233548   1.851   4.061   2.928  1.8238 -0.4764  1.9019
 8444SOL    HW333549   1.944   4.025   2.814 -1.0538 -0.0114 -0.7408
 8444SOL    MW433550   1.877   4.005   2.866 -0.3226  0.1519  0.2912
 8445SOL     OW33551   2.461   3.106   1.453 -0.0317 -0.4615  0.0163
 8445SOL    HW233552   2.487   3.140   1.368 -0.5154 -0.1727 -0.0177
 8445SOL    HW333553   2.455   3.183   1.509  0.0449 -0.6226  0.2493
 8445SOL    MW433554   2.464   3.120   1.449 -0.0854 -0.4446  0.0425
 8446SOL     OW33555   5.829   3.482   1.156 -0.2931 -0.4155 -0.0867
 8446SOL    HW233556   5.782   3.400   1.169 -0.3987 -0.2848  0.3746
 8446SOL    HW333557   5.839   3.489   1.061 -2.4813  0.2761 -0.3240
 8446SOL    MW433558   5.824   3.472   1.145 -0.5957 -0.3070 -0.0572
 8447SOL     OW33559   0.513   4.526   0.084 -0.8368 -0.2927 -0.0481
 8447SOL    HW233560   0.493   4.433   0.097  0.8925 -0.7307 -0.2105
 8447SOL    HW333561   0.533   4.533  -0.010 -0.6147  0.1795  0.0342
 8447SOL    MW433562   0.513   4.515   0.073 -0.5793 -0.2882 -0.0587
 8448SOL     OW33563   3.676   5.809   4.756 -0.1633 -0.2341 -0.2963
 8448SOL    HW233564   3.755   5.838   4.710  0.0586 -0.8474 -0.3202
 8448SOL    HW333565   3.678   5.713   4.747  0.1647 -0.4185  1.4436
 8448SOL    MW433566   3.687   5.800   4.749 -0.0908 -0.3394 -0.0699
 8449SOL     OW33567   2.069   0.823   4.173  0.2829  0.2144 -0.4860
 8449SOL    HW233568   2.133   0.792   4.109  1.8493  1.0082  0.6138
 8449SOL    HW333569   2.121   0.875   4.235 -1.5348  1.3512  0.1590
 8449SOL    MW433570   2.084   0.826   4.173  0.2498  0.4691 -0.2558
 8450SOL     OW33571   5.643   5.727   4.444 -0.0302  0.6141  0.3225
 8450SOL    HW233572   5.573   5.662   4.453  0.3583 -0.5966 -3.5258
 8450SOL    HW333573   5.626   5.790   4.514 -3.9735 -0.4783  0.6197
 8450SOL    MW433574   5.631   5.727   4.455 -0.4992  0.3102 -0.1461
 8451SOL     OW33575   3.734   1.328   6.348 -0.0215 -0.0495  0.2029
 8451SOL    HW233576   3.818   1.314   6.304 -0.5227 -0.4729 -0.6568
 8451SOL    HW333577   3.712   1.244   6.387 -1.0741 -0.6211 -1.4709
 8451SOL    MW433578   3.742   1.315   6.347 -0.2265 -0.1808 -0.1314
 8452SOL     OW33579   3.457   6.242   3.873 -0.3969 -0.6911 -0.0653
 8452SOL    HW233580   3.547   6.272   3.859 -0.9143  0.6341 -0.6956
 8452SOL    HW333581   3.455   6.217   3.965  0.6844 -0.9844 -0.1026
 8452SOL    MW433582   3.469   6.243   3.883 -0.3225 -0.5550 -0.1534
 8453SOL     OW33583   4.828   2.593   0.438 -0.3495 -0.0857  0.1261
 8453SOL    HW233584   4.786   2.507   0.432  0.1911 -0.4496  1.3280
 8453SOL    HW333585   4.902   2.587   0.377 -0.8523 -0.1319 -0.4943
 8453SOL    MW433586   4.832   2.581   0.429 -0.3445 -0.1398  0.2028
 8454SOL     OW33587   6.362   2.798   1.591 -0.0305 -0.2470 -0.2506
 8454SOL    HW233588   6.442   2.777   1.543  0.3426  1.7845 -0.5999
 8454SOL    HW333589   6.295   2.807   1.524 -0.3102 -0.8041 -0.0561
 8454SOL    MW433590   6.363   2.797   1.576 -0.0182 -0.0525 -0.2710
 8455SOL     OW33591   0.651   6.132   1.725 -0.4157  0.5068 -0.5743
 8455SOL    HW233592   0.740   6.122   1.691 -0.8310 -0.1465 -1.5139
 8455SOL    HW333593   0.656   6.100   1.815  0.3361  0.6643 -0.5521
 8455SOL    MW433594   0.664   6.127   1.732 -0.3713  0.4414 -0.6953
 8456SOL     OW33595   0.638   1.842   2.517  0.9054 -0.3501 -0.2674
 8456SOL    HW233596   0.543   1.849   2.503  1.0331  0.8322 -0.6251
 8456SOL    HW333597   0.657   1.906   2.587  1.5717  0.1197 -0.8680
 8456SOL    MW433598   0.628   1.851   2.525  1.0101 -0.1321 -0.3938
 8457SOL     OW33599   5.470   3.204   2.315  0.2083  0.0969 -0.3392
 8457SOL    HW233600   5.541   3.148   2.283 -0.8664 -1.3972 -0.1739
 8457SOL    HW333601   5.394   3.180   2.262 -0.7520 -0.0140  1.0465
 8457SOL    MW433602   5.470   3.193   2.304 -0.0602 -0.1149 -0.1346
 8458SOL     OW33603   2.893   3.759   1.498  0.0490  0.1640 -0.7468
 8458SOL    HW233604   2.817   3.815   1.482 -0.0647  0.2174 -0.0218
 8458SOL    HW333605   2.891   3.741   1.591  0.0041 -1.1915 -0.9944
 8458SOL    MW433606   2.883   3.764   1.508  0.0281 -0.0078 -0.6838
 8459SOL     OW33607   1.728   0.902   4.407 -0.7202 -0.0209 -0.1957
 8459SOL    HW233608   1.739   0.865   4.319 -1.6854 -1.6916  0.3412
 8459SOL    HW333609   1.636   0.884   4.429  0.5213 -4.0029  2.9474
 8459SOL    MW433610   1.717   0.895   4.398 -0.6837 -0.7667  0.2898
 8460SOL     OW33611   2.069   0.348   2.996  0.0454  0.5305 -0.1933
 8460SOL    HW233612   1.996   0.410   2.993 -0.7207 -0.3783 -1.0958
 8460SOL    HW333613   2.145   0.401   3.020 -0.4530  1.9613 -1.6174
 8460SOL    MW433614   2.069   0.363   2.998 -0.1214  0.5994 -0.5002
 8461SOL     OW33615   0.051   0.800   4.921  0.2858  0.3829 -0.7480
 8461SOL    HW233616   0.086   0.744   4.851 -1.0487 -1.3830 -0.0548
 8461SOL    HW333617  -0.010   0.859   4.876  0.6019  0.3086 -1.2838
 8461SOL    MW433618   0.048   0.800   4.906  0.1514  0.1401 -0.7272
 8462SOL     OW33619   0.744   4.713   6.215  0.5366  0.4428 -0.3250
 8462SOL    HW233620   0.665   4.659   6.212  0.9674 -0.2274  0.1943
 8462SOL    HW333621   0.795   4.677   6.288  1.6450  0.4226 -1.0833
 8462SOL    MW433622   0.740   4.701   6.224  0.7397  0.3517 -0.3565
 8463SOL     OW33623   4.524   3.842   4.147 -0.1223  0.1460 -0.1133
 8463SOL    HW233624   4.515   3.936   4.156  0.1905  0.1631  0.0243
 8463SOL    HW333625   4.438   3.807   4.173 -0.5455  0.4441 -1.0758
 8463SOL    MW433626   4.511   3.850   4.152 -0.1369  0.1876 -0.2221
 8464SOL     OW33627   2.982   1.487   1.474  0.1324 -0.3984 -0.3985
 8464SOL    HW233628   2.921   1.432   1.425  0.5367 -1.1837 -0.0408
 8464SOL    HW333629   3.016   1.549   1.410 -1.0654  0.0807 -0.5951
 8464SOL    MW433630   2.978   1.487   1.459  0.0277 -0.4388 -0.3772
 8465SOL     OW33631   5.197   4.843   4.142  0.0406 -0.2827  0.0063
 8465SOL    HW233632   5.110   4.882   4.143  0.7500  1.3824  0.2739
 8465SOL    HW333633   5.199   4.785   4.218 -0.6168  0.1606  0.3664
 8465SOL    MW433634   5.186   4.841   4.152  0.0475 -0.0046  0.0891
 8466SOL     OW33635   0.751   6.303   5.911  0.1017 -0.0396 -0.9450
 8466SOL    HW233636   0.828   6.355   5.887 -0.9121  1.3497 -1.2860
 8466SOL    HW333637   0.682   6.367   5.925 -0.4022 -1.0440  1.8581
 8466SOL    MW433638   0.752   6.318   5.910 -0.0986  0.0112 -0.6201
 8467SOL     OW33639   2.972   6.126   5.185  0.2633  1.0293 -0.0821
 8467SOL    HW233640   3.009   6.043   5.215 -3.5178 -1.3323 -1.2162
 8467SOL    HW333641   2.973   6.119   5.089 -3.0373  0.6525 -0.1984
 8467SOL    MW433642   2.977   6.114   5.176 -0.6711  0.6680 -0.2471
 8468SOL     OW33643   2.725   0.661   5.375  0.0998  0.2824  0.5368
 8468SOL    HW233644   2.745   0.754   5.374  3.4403 -0.2900  1.0576
 8468SOL    HW333645   2.785   0.625   5.441  1.1254 -2.5894 -1.7274
 8468SOL    MW433646   2.736   0.668   5.384  0.6758 -0.1720  0.3068
 8469SOL     OW33647   2.131   5.894   5.608 -0.0950  0.0215 -0.0785
 8469SOL    HW233648   2.206   5.865   5.660  3.1019  2.9450 -2.6222
 8469SOL    HW333649   2.128   5.834   5.534 -1.6712 -1.2949  0.9836
 8469SOL    MW433650   2.140   5.882   5.605  0.1188  0.2335 -0.2740
 8470SOL     OW33651   3.782   1.568   5.478 -0.1771 -0.6266 -0.3112
 8470SOL    HW233652   3.776   1.515   5.399  2.6394 -2.4617  0.5464
 8470SOL    HW333653   3.710   1.538   5.533 -0.9857 -0.7086 -1.3921
 8470SOL    MW433654   3.772   1.557   5.475  0.0878 -0.8795 -0.3406
 8471SOL     OW33655   4.905   5.181   3.204 -0.1319 -0.2359  0.1455
 8471SOL    HW233656   4.942   5.267   3.226  1.6435 -1.4240  2.1917
 8471SOL    HW333657   4.969   5.141   3.144 -0.2634 -0.6426  0.2723
 8471SOL    MW433658   4.918   5.187   3.199  0.0850 -0.4463  0.4322
 8472SOL     OW33659   6.382   4.509   4.200 -0.1148  0.2008  0.3416
 8472SOL    HW233660   6.293   4.515   4.165 -0.1938 -0.8720  0.3268
 8472SOL    HW333661   6.381   4.431   4.256  0.6082  0.6242  0.9642
 8472SOL    MW433662   6.370   4.499   4.203 -0.0298  0.1151  0.4218
 8473SOL     OW33663   2.008   1.304   1.286 -0.2725  0.3493  0.1819
 8473SOL    HW233664   1.935   1.356   1.251  0.3401  0.4804 -0.9611
 8473SOL    HW333665   2.017   1.232   1.224 -0.2717 -0.4047  1.0450
 8473SOL    MW433666   2.000   1.302   1.273 -0.1915  0.2671  0.1450
 8474SOL     OW33667   6.254   2.140   4.118  0.4928  0.4018 -0.1878
 8474SOL    HW233668   6.169   2.098   4.128 -0.7971  2.7460 -0.4500
 8474SOL    HW333669   6.297   2.129   4.203 -0.2280 -0.4785  0.0755
 8474SOL    MW433670   6.248   2.133   4.130  0.2275  0.5949 -0.1877
 8475SOL     OW33671   6.358   4.396   3.912  0.1606  0.2735  0.2857
 8475SOL    HW233672   6.328   4.334   3.979  0.4026  0.3814  0.4942
 8475SOL    HW333673   6.405   4.463   3.961 -0.0578  0.5954  0.0531
 8475SOL    MW433674   6.360   4.396   3.927  0.1637  0.3302  0.2826
 8476SOL     OW33675   3.733   2.405   4.258 -0.4943 -0.1512  0.5444
 8476SOL    HW233676   3.743   2.499   4.271  0.7694 -0.2819  0.5843
 8476SOL    HW333677   3.686   2.397   4.174  1.8114  0.4838 -0.8880
 8476SOL    MW433678   3.728   2.416   4.249 -0.0234 -0.0847  0.3606
 8477SOL     OW33679   3.221   2.970   2.899 -0.1422  0.1956  0.6285
 8477SOL    HW233680   3.245   3.017   2.819  1.3468  0.9341  1.4771
 8477SOL    HW333681   3.291   2.906   2.911  0.3468  0.9478  2.0022
 8477SOL    MW433682   3.233   2.968   2.890  0.1188  0.3923  0.9217
 8478SOL     OW33683   5.863   1.837   6.183 -0.2412  0.7362 -0.0633
 8478SOL    HW233684   5.821   1.844   6.097 -0.5944  0.5489  0.0936
 8478SOL    HW333685   5.929   1.768   6.172 -1.7504 -0.8354  0.3930
 8478SOL    MW433686   5.866   1.829   6.170 -0.4869  0.5041  0.0176
 8479SOL     OW33687   4.131   6.136   4.762  0.7796  0.5372 -0.9233
 8479SOL    HW233688   4.182   6.067   4.721  1.2345  0.9654 -1.0898
 8479SOL    HW333689   4.166   6.142   4.851 -1.0253 -1.2224 -0.0364
 8479SOL    MW433690   4.142   6.128   4.768  0.6015  0.3615 -0.8282
 8480SOL     OW33691   2.528   4.700   2.870 -0.1096 -0.4046 -0.6110
 8480SOL    HW233692   2.461   4.645   2.910 -0.1893  0.4895  0.5481
 8480SOL    HW333693   2.605   4.643   2.863  0.2133 -0.3835  1.7600
 8480SOL    MW433694   2.530   4.686   2.874 -0.0775 -0.2838 -0.1453
 8481SOL     OW33695   5.362   5.298   0.517  0.3729 -0.5483 -0.0474
 8481SOL    HW233696   5.453   5.298   0.487  0.4135 -0.8905  0.0608
 8481SOL    HW333697   5.350   5.383   0.558 -0.2247  0.6652 -2.5867
 8481SOL    MW433698   5.373   5.309   0.519  0.2994 -0.4333 -0.3682
 8482SOL     OW33699   4.707   1.546   3.579 -0.2879 -0.4488 -0.0549
 8482SOL    HW233700   4.670   1.531   3.492  0.0630  1.8084 -0.6631
 8482SOL    HW333701   4.799   1.519   3.572 -0.2032 -0.0584 -0.4664
 8482SOL    MW433702   4.715   1.541   3.567 -0.2304 -0.0995 -0.1894
 8483SOL     OW33703   2.203   2.038   5.521  0.3698  0.3800  0.0117
 8483SOL    HW233704   2.201   1.949   5.486 -1.3738 -0.9868  3.1580
 8483SOL    HW333705   2.136   2.085   5.471 -0.4668 -0.8272 -0.0593
 8483SOL    MW433706   2.194   2.032   5.510  0.0294  0.0404  0.4174
 8484SOL     OW33707   1.360   2.182   3.090 -0.7623 -0.0868 -0.6931
 8484SOL    HW233708   1.420   2.235   3.037 -1.6752  0.9155 -0.7346
 8484SOL    HW333709   1.285   2.238   3.106 -1.5306 -1.1926 -0.2998
 8484SOL    MW433710   1.358   2.196   3.085 -0.9841 -0.1004 -0.6467
 8485SOL     OW33711   3.213   4.104   5.201  0.2366 -0.8600 -0.1756
 8485SOL    HW233712   3.202   4.198   5.218  0.4738 -0.9202  0.2952
 8485SOL    HW333713   3.276   4.100   5.129  0.6919 -0.6807  0.2121
 8485SOL    MW433714   3.220   4.116   5.194  0.3280 -0.8443 -0.0623
 8486SOL     OW33715   1.836   5.589   0.590 -0.3674  0.5554  0.5624
 8486SOL    HW233716   1.762   5.632   0.632 -1.3985 -2.0100  1.5667
 8486SOL    HW333717   1.805   5.567   0.502  0.1076  1.6605  0.1017
 8486SOL    MW433718   1.823   5.592   0.584 -0.4408  0.3627  0.6341
 8487SOL     OW33719   3.257   5.914   5.506  0.6408  0.2077  0.6652
 8487SOL    HW233720   3.345   5.951   5.516  0.8918 -0.9751  3.7138
 8487SOL    HW333721   3.253   5.843   5.570 -1.2930 -2.3086 -1.9853
 8487SOL    MW433722   3.268   5.910   5.515  0.4188 -0.2803  0.7177
 8488SOL     OW33723   1.090   4.751   0.959  0.0012  0.0018  0.7140
 8488SOL    HW233724   1.064   4.724   1.047  0.7563  0.0325  0.9568
 8488SOL    HW333725   1.133   4.836   0.971 -0.6900  0.4351  0.1936
 8488SOL    MW433726   1.093   4.759   0.972  0.0096  0.0630  0.6774
 8489SOL     OW33727   3.761   6.010   1.677  0.6949 -0.0834  0.8456
 8489SOL    HW233728   3.770   5.917   1.659  3.3035 -0.2563  2.4765
 8489SOL    HW333729   3.758   6.015   1.773  0.9632  1.5034  0.7957
 8489SOL    MW433730   3.762   5.998   1.688  1.0745  0.1031  1.0542
 8490SOL     OW33731   1.406   4.365   6.234  0.0077  0.5584 -0.2336
 8490SOL    HW233732   1.486   4.313   6.240 -1.3205 -1.4695  1.0783
 8490SOL    HW333733   1.399   4.409   6.318 -0.7966 -0.2098  0.1312
 8490SOL    MW433734   1.415   4.364   6.246 -0.2737  0.1895 -0.0124
 8491SOL     OW33735   3.697   4.821   2.593 -0.1156 -0.5341 -0.1668
 8491SOL    HW233736   3.619   4.787   2.550 -1.2726  2.3233 -0.5542
 8491SOL    HW333737   3.741   4.873   2.526  1.9306 -1.6769  0.1920
 8491SOL    MW433738   3.692   4.823   2.578  0.0017 -0.3079 -0.1705
 8492SOL     OW33739   0.425   4.105   4.180 -0.4990 -0.5315  0.5715
 8492SOL    HW233740   0.487   4.073   4.114 -2.3978  0.1838 -1.6842
 8492SOL    HW333741   0.480   4.150   4.244  1.2982  0.9566 -1.8371
 8492SOL    MW433742   0.441   4.107   4.180 -0.5124 -0.2408 -0.0439
 8493SOL     OW33743   3.657   6.187   5.827  0.0302  0.0661 -0.1859
 8493SOL    HW233744   3.719   6.243   5.781  1.0599 -0.3357  0.6710
 8493SOL    HW333745   3.684   6.098   5.805 -0.4300 -0.1136 -0.0367
 8493SOL    MW433746   3.669   6.183   5.818  0.1054 -0.0106 -0.0532
 8494SOL     OW33747   3.524   3.175   1.249 -0.1821 -0.6088  0.9384
 8494SOL    HW233748   3.491   3.145   1.334 -0.3151 -0.5821  0.8963
 8494SOL    HW333749   3.478   3.121   1.185  1.7863 -2.4409  0.9585
 8494SOL    MW433750   3.514   3.164   1.252  0.0600 -0.8470  0.9355
 8495SOL     OW33751   5.117   0.231   6.348  0.0555 -0.2497  0.0639
 8495SOL    HW233752   5.078   0.206   6.431 -1.8504  0.9735 -0.3937
 8495SOL    HW333753   5.146   0.322   6.362 -0.2184 -0.0611 -0.5693
 8495SOL    MW433754   5.116   0.240   6.361 -0.2321 -0.0634 -0.0800
 8496SOL     OW33755   2.984   0.381   1.040 -0.1114  0.0998  0.4096
 8496SOL    HW233756   3.002   0.437   0.964 -1.2391 -0.8375 -0.5843
 8496SOL    HW333757   3.061   0.325   1.047 -0.1765 -0.0836 -0.2920
 8496SOL    MW433758   2.996   0.381   1.031 -0.2687 -0.0480  0.1859
 8497SOL     OW33759   3.621   2.264   2.706  0.4372 -0.2737  0.2735
 8497SOL    HW233760   3.701   2.293   2.662  1.0598 -0.6887  1.1208
 8497SOL    HW333761   3.585   2.344   2.744  0.6278 -0.1377  0.1731
 8497SOL    MW433762   3.627   2.279   2.705  0.5445 -0.3105  0.3720
 8498SOL     OW33763   0.419   6.027   0.014 -0.0669  0.3974  0.0834
 8498SOL    HW233764   0.403   5.988   0.100 -0.3536  2.1475  0.8514
 8498SOL    HW333765   0.508   5.998  -0.009 -0.0379 -0.1815  0.8904
 8498SOL    MW433766   0.429   6.018   0.022 -0.1009  0.5519  0.2912
 8499SOL     OW33767   5.455   4.688   0.168  0.2901  0.8190  0.2564
 8499SOL    HW233768   5.508   4.764   0.192  0.8504  0.9131 -1.1987
 8499SOL    HW333769   5.469   4.677   0.074 -1.2602  0.0560  0.0740
 8499SOL    MW433770   5.464   4.697   0.159  0.1595  0.7308  0.0404
 8500SOL     OW33771   5.022   0.293   1.945  0.4834  0.0320  0.0920
 8500SOL    HW233772   5.070   0.346   2.009  0.5507  0.2290 -0.1172
 8500SOL    HW333773   4.946   0.260   1.992  0.9544 -0.4828  0.4984
 8500SOL    MW433774   5.018   0.296   1.959  0.5544 -0.0099  0.1180
 8501SOL     OW33775   5.259   3.629   3.550 -0.4536  0.0524 -0.1083
 8501SOL    HW233776   5.257   3.658   3.459 -0.9059 -1.2103 -0.5309
 8501SOL    HW333777   5.276   3.535   3.544  2.1239  0.3518  1.2285
 8501SOL    MW433778   5.261   3.620   3.537 -0.1732 -0.0747  0.0123
 8502SOL     OW33779   4.718   2.700   4.887  0.0325 -0.2302  0.4038
 8502SOL    HW233780   4.651   2.735   4.828  0.0590 -2.9720 -1.4372
 8502SOL    HW333781   4.681   2.617   4.918  1.4197 -0.4187  1.6496
 8502SOL    MW433782   4.704   2.694   4.883  0.2190 -0.6169  0.3252
 8503SOL     OW33783   5.361   5.056   3.146  0.0502 -0.7615  0.5587
 8503SOL    HW233784   5.417   5.045   3.222  1.9643 -2.1783 -0.9284
 8503SOL    HW333785   5.407   5.119   3.091  0.0986 -1.7501 -0.5783
 8503SOL    MW433786   5.375   5.063   3.148  0.3091 -1.0789  0.2125
 8504SOL     OW33787   3.569   5.798   3.576 -0.3305 -0.2826 -0.2154
 8504SOL    HW233788   3.572   5.790   3.480  0.5550 -1.7278 -0.0963
 8504SOL    HW333789   3.550   5.890   3.591  0.0326  0.0904 -1.7823
 8504SOL    MW433790   3.567   5.809   3.565 -0.1658 -0.4241 -0.4064
 8505SOL     OW33791   0.116   5.101   5.102  0.0771 -0.2586 -0.1543
 8505SOL    HW233792   0.131   5.149   5.183  0.1716  0.8718 -0.8245
 8505SOL    HW333793   0.199   5.057   5.084  0.4943  0.6009 -0.3539
 8505SOL    MW433794   0.129   5.102   5.110  0.1446  0.0040 -0.2691
 8506SOL     OW33795   3.878   3.274   0.555  0.3893  0.0247 -0.4286
 8506SOL    HW233796   3.871   3.289   0.461 -0.0951 -3.1730 -1.0359
 8506SOL    HW333797   3.853   3.182   0.567 -0.8641  0.6380  3.0076
 8506SOL    MW433798   3.874   3.264   0.545  0.1600 -0.3163 -0.0554
 8507SOL     OW33799   3.332   5.400   1.019  0.4270  0.2455  0.7266
 8507SOL    HW233800   3.242   5.420   1.047  0.2815  0.3943  0.1700
 8507SOL    HW333801   3.334   5.425   0.927  0.8730 -0.3155  0.5805
 8507SOL    MW433802   3.320   5.406   1.011  0.4667  0.1912  0.6339
 8508SOL     OW33803   2.905   1.974   1.705  0.5984  0.2249  0.2688
 8508SOL    HW233804   2.943   1.963   1.792 -1.4633  0.2433  1.2156
 8508SOL    HW333805   2.846   2.049   1.713 -0.7710 -0.7017 -0.6970
 8508SOL    MW433806   2.902   1.982   1.717  0.1457  0.1051  0.2663
 8509SOL     OW33807   2.874   3.189   2.293 -0.3585  0.2647 -0.0337
 8509SOL    HW233808   2.841   3.110   2.250  0.6621 -0.6067  0.7272
 8509SOL    HW333809   2.941   3.223   2.234 -0.5879  0.4117 -0.2159
 8509SOL    MW433810   2.878   3.183   2.279 -0.2541  0.1691  0.0427
 8510SOL     OW33811   1.676   4.319   5.303 -0.5006  0.4371 -0.5241
 8510SOL    HW233812   1.597   4.275   5.273 -0.1563 -0.6897  0.1518
 8510SOL    HW333813   1.672   4.405   5.262 -2.3438  0.6126 -0.0759
 8510SOL    MW433814   1.665   4.324   5.294 -0.6983  0.3116 -0.3758
 8511SOL     OW33815   3.894   3.194   2.961 -0.3929  0.3822  0.6116
 8511SOL    HW233816   3.874   3.283   2.933  0.3799  0.0222 -1.2355
 8511SOL    HW333817   3.809   3.154   2.976 -0.7628  1.2577  0.8943
 8511SOL    MW433818   3.880   3.200   2.959 -0.3397  0.4502  0.4052
 8512SOL     OW33819   4.759   0.715   1.732 -0.6028  0.2163  0.0065
 8512SOL    HW233820   4.801   0.637   1.770 -2.1000 -1.4977 -1.6338
 8512SOL    HW333821   4.820   0.744   1.664 -1.2527 -1.3372 -1.3288
 8512SOL    MW433822   4.773   0.708   1.728 -0.8861 -0.2148 -0.3861
 8513SOL     OW33823   4.572   4.149   3.910  0.7411  0.3710 -0.8005
 8513SOL    HW233824   4.667   4.159   3.898  1.4732 -2.1762  1.7975
 8513SOL    HW333825   4.558   4.055   3.913 -1.5481  0.6799  0.9560
 8513SOL    MW433826   4.583   4.138   3.909  0.5357  0.0757 -0.2260
 8514SOL     OW33827   5.972   6.393   5.864  0.3726 -0.1557  0.6432
 8514SOL    HW233828   5.889   6.413   5.820  0.8021 -0.5627 -0.3893
 8514SOL    HW333829   5.957   6.308   5.905  0.1519 -0.0420  0.8005
 8514SOL    MW433830   5.959   6.384   5.863  0.4001 -0.1944  0.5277
 8515SOL     OW33831   5.098   5.811   0.748 -0.6504  0.7147 -0.0067
 8515SOL    HW233832   5.179   5.847   0.713  0.1074  0.9822  1.9035
 8515SOL    HW333833   5.127   5.743   0.810 -1.8883  0.4787  0.3423
 8515SOL    MW433834   5.113   5.807   0.752 -0.7137  0.7188  0.2914
 8516SOL     OW33835   3.089   0.193   1.756  0.2634 -0.2674  0.0246
 8516SOL    HW233836   3.133   0.277   1.772 -0.2385 -0.1599  0.9233
 8516SOL    HW333837   3.098   0.145   1.838  0.5856 -1.1175 -0.5053
 8516SOL    MW433838   3.096   0.198   1.769  0.2397 -0.3654  0.0733
 8517SOL     OW33839   1.969   2.363   0.992  0.4082 -0.2413  0.4068
 8517SOL    HW233840   1.930   2.446   1.020 -1.3437 -1.0437  0.4584
 8517SOL    HW333841   1.904   2.324   0.935  0.8136 -2.0070  1.1011
 8517SOL    MW433842   1.956   2.369   0.988  0.2306 -0.5801  0.5052
 8518SOL     OW33843   1.694   2.945   5.838  0.0385  0.5489 -0.3735
 8518SOL    HW233844   1.646   2.915   5.760 -0.6471 -1.4483  0.7402
 8518SOL    HW333845   1.778   2.899   5.834 -0.4974 -0.6066  0.6577
 8518SOL    MW433846   1.699   2.935   5.827 -0.1227  0.1329 -0.0905
 8519SOL     OW33847   1.069   3.795   5.119 -1.0379  0.2746  0.1728
 8519SOL    HW233848   1.066   3.801   5.023 -0.4461  1.4263  0.2132
 8519SOL    HW333849   0.982   3.762   5.143 -1.4226  0.6031 -0.7189
 8519SOL    MW433850   1.057   3.791   5.109 -1.0105  0.4699  0.0605
 8520SOL     OW33851   1.255   3.260   0.703 -0.1878 -0.2496 -0.4568
 8520SOL    HW233852   1.170   3.259   0.659  0.8259  1.1346 -2.5888
 8520SOL    HW333853   1.254   3.341   0.755 -1.0032 -1.3927  1.4101
 8520SOL    MW433854   1.244   3.271   0.704 -0.1616 -0.2178 -0.4918
 8521SOL     OW33855   5.798   0.913   0.363 -0.5921 -0.2688 -0.2148
 8521SOL    HW233856   5.834   0.986   0.413  2.0754 -0.6995 -1.3361
 8521SOL    HW333857   5.781   0.950   0.276 -2.6538 -0.1771  0.1723
 8521SOL    MW433858   5.801   0.927   0.358 -0.5121 -0.3136 -0.3117
 8522SOL     OW33859   0.251   2.921   4.170  0.2065 -0.0199  0.3795
 8522SOL    HW233860   0.167   2.960   4.145  0.2259  1.3952  2.3066
 8522SOL    HW333861   0.251   2.835   4.129 -1.5751  0.4849 -0.7813
 8522SOL    MW433862   0.240   2.915   4.161 -0.0260  0.2335  0.4806
 8523SOL     OW33863   4.810   2.019   2.310 -0.4440 -0.3757 -0.3316
 8523SOL    HW233864   4.901   2.032   2.281 -0.5057  0.1139 -0.3165
 8523SOL    HW333865   4.817   1.958   2.383 -0.1864 -0.8269 -0.7208
 8523SOL    MW433866   4.823   2.013   2.316 -0.4182 -0.3707 -0.3810
 8524SOL     OW33867   2.287   3.202   0.603 -0.1751 -0.4240  0.3090
 8524SOL    HW233868   2.209   3.147   0.594 -0.5483 -0.0753  1.2790
 8524SOL    HW333869   2.356   3.154   0.557 -0.5704 -1.5348  0.8383
 8524SOL    MW433870   2.286   3.189   0.596 -0.2765 -0.5245  0.5068
 8525SOL     OW33871   2.022   1.837   2.550  0.1540  0.0300 -0.4492
 8525SOL    HW233872   2.058   1.884   2.625  1.4527 -0.2049 -0.8952
 8525SOL    HW333873   2.012   1.747   2.580  1.3411 -0.2189 -0.7396
 8525SOL    MW433874   2.026   1.832   2.564  0.4820 -0.0338 -0.5463
 8526SOL     OW33875   4.601   1.686   1.395 -0.4091  0.2424  0.3160
 8526SOL    HW233876   4.622   1.671   1.487 -1.4501 -0.6229  0.4250
 8526SOL    HW333877   4.548   1.611   1.370  0.4568  0.0911 -1.2015
 8526SOL    MW433878   4.597   1.674   1.404 -0.4322  0.1083  0.1302
 8527SOL     OW33879   5.729   3.681   0.969 -0.0115  0.3762  0.2117
 8527SOL    HW233880   5.691   3.749   0.913 -0.8845  0.4265  0.8553
 8527SOL    HW333881   5.791   3.636   0.911 -0.4228  0.8312 -0.6143
 8527SOL    MW433882   5.733   3.684   0.954 -0.1809  0.4428  0.1877
 8528SOL     OW33883   3.099   1.501   5.513  0.6254  0.2143 -0.1851
 8528SOL    HW233884   3.027   1.478   5.572  0.9077 -0.5636 -0.1352
 8528SOL    HW333885   3.061   1.565   5.452 -0.2696 -0.6254 -0.5281
 8528SOL    MW433886   3.084   1.507   5.513  0.5446  0.0009 -0.2238
 8529SOL     OW33887   5.704   2.768   2.261 -0.1315  0.0244 -0.2579
 8529SOL    HW233888   5.622   2.723   2.240  0.1702 -0.0246 -1.4267
 8529SOL    HW333889   5.764   2.697   2.286 -0.0015 -0.1177 -0.9419
 8529SOL    MW433890   5.701   2.753   2.262 -0.0746 -0.0008 -0.5024
 8530SOL     OW33891   2.026   1.241   0.896  0.5569  0.2483 -0.0407
 8530SOL    HW233892   1.992   1.184   0.827 -0.1009 -0.9471  1.2247
 8530SOL    HW333893   2.061   1.181   0.962  1.9628  1.3792  0.3004
 8530SOL    MW433894   2.026   1.226   0.895  0.6556  0.2398  0.1713
 8531SOL     OW33895   5.264   3.032   6.418  0.3677 -0.5636  0.4984
 8531SOL    HW233896   5.346   3.026   6.369 -0.1706 -2.6634 -0.2486
 8531SOL    HW333897   5.290   3.016   6.509  0.9400  0.0701  0.4554
 8531SOL    MW433898   5.278   3.029   6.423  0.3722 -0.7570  0.3942
 8532SOL     OW33899   6.351   3.205   5.215  0.2913 -0.0660 -0.3230
 8532SOL    HW233900   6.365   3.110   5.212 -0.3759 -0.1512 -1.0328
 8532SOL    HW333901   6.351   3.232   5.123 -2.9070  0.0984 -0.3642
 8532SOL    MW433902   6.353   3.196   5.202 -0.2187 -0.0555 -0.4221
 8533SOL     OW33903   4.418   2.712   0.851 -0.3461  0.1021 -0.5275
 8533SOL    HW233904   4.328   2.704   0.820 -0.3498 -0.0488 -0.4774
 8533SOL    HW333905   4.420   2.662   0.933 -0.0773 -0.3657 -0.8163
 8533SOL    MW433906   4.406   2.704   0.858 -0.3111  0.0204 -0.5590
 8534SOL     OW33907   3.335   3.069   4.421  0.1339 -0.0259  0.4633
 8534SOL    HW233908   3.249   3.038   4.391 -0.1871 -0.0690  1.4045
 8534SOL    HW333909   3.320   3.159   4.449 -0.0044 -0.5454  2.1931
 8534SOL    MW433910   3.322   3.077   4.421  0.0733 -0.1001  0.8157
 8535SOL     OW33911   2.144   0.605   0.645  0.1877 -0.6912 -1.0242
 8535SOL    HW233912   2.060   0.650   0.639  0.7828  0.7937  0.8007
 8535SOL    HW333913   2.152   0.558   0.562 -1.2565  1.2198 -2.3383
 8535SOL    MW433914   2.134   0.605   0.633  0.0757 -0.2432 -0.9568
 8536SOL     OW33915   1.178   0.435   5.987  0.1217  0.3423  0.0463
 8536SOL    HW233916   1.152   0.526   5.973 -0.3510  0.1575 -0.3012
 8536SOL    HW333917   1.230   0.413   5.910 -1.5050 -0.3148 -0.9096
 8536SOL    MW433918   1.181   0.444   5.975 -0.1553  0.2312 -0.1257
 8537SOL     OW33919   6.358   6.290   1.390  0.3828  0.1960  0.2265
 8537SOL    HW233920   6.378   6.317   1.300 -1.3975 -0.6582 -0.4864
 8537SOL    HW333921   6.414   6.345   1.445 -0.7698  3.0889 -1.2673
 8537SOL    MW433922   6.368   6.301   1.385 -0.0041  0.4650 -0.0646
 8538SOL     OW33923   0.908   3.060   1.545 -0.6185 -0.5345  0.0393
 8538SOL    HW233924   0.986   3.111   1.568 -0.6924  1.6083 -3.6000
 8538SOL    HW333925   0.929   2.970   1.570  1.3743  0.5582  2.7000
 8538SOL    MW433926   0.921   3.055   1.551 -0.3653 -0.1076 -0.0898
 8539SOL     OW33927   3.444   5.824   2.009  0.1346 -0.1800 -0.1306
 8539SOL    HW233928   3.379   5.754   2.007 -0.2183  0.1317  0.4988
 8539SOL    HW333929   3.414   5.887   1.944  1.1206 -1.1819 -1.6434
 8539SOL    MW433930   3.432   5.823   2.000  0.2182 -0.2711 -0.2471
 8540SOL     OW33931   3.495   4.648   2.523 -0.5567 -0.2120 -0.0228
 8540SOL    HW233932   3.413   4.610   2.553 -1.4038  1.1511 -0.5010
 8540SOL    HW333933   3.551   4.573   2.505 -1.8906 -1.2070 -0.2113
 8540SOL    MW433934   3.492   4.633   2.524 -0.8445 -0.1634 -0.1108
 8541SOL     OW33935   4.207   0.515   0.369 -0.1785  0.0886  0.3226
 8541SOL    HW233936   4.271   0.528   0.440  0.4272  1.2229 -0.4008
 8541SOL    HW333937   4.233   0.432   0.329  0.2543  0.0681  0.6391
 8541SOL    MW433938   4.219   0.506   0.373 -0.0414  0.2355  0.2689
 8542SOL     OW33939   0.656   2.778   0.369  0.1598  0.1811 -0.0076
 8542SOL    HW233940   0.568   2.784   0.407  0.8134 -1.6116  2.0063
 8542SOL    HW333941   0.714   2.815   0.435  1.0822 -0.3152 -0.5127
 8542SOL    MW433942   0.652   2.784   0.383  0.3678 -0.1209  0.1914
 8543SOL     OW33943   2.112   4.316   2.575 -0.5186 -0.4844  0.0186
 8543SOL    HW233944   2.073   4.285   2.494  0.6406 -1.0790 -0.3410
 8543SOL    HW333945   2.075   4.403   2.588 -2.3237 -1.1956 -0.0160
 8543SOL    MW433946   2.102   4.323   2.566 -0.6038 -0.6567 -0.0334
 8544SOL     OW33947   4.626   5.146   3.506 -0.5692 -0.0173  0.1202
 8544SOL    HW233948   4.569   5.216   3.475  0.5231  1.3114  0.9931
 8544SOL    HW333949   4.712   5.187   3.514  0.6228 -2.0468 -1.4769
 8544SOL    MW433950   4.629   5.161   3.503 -0.2678 -0.1098  0.0246
 8545SOL     OW33951   4.977   0.106   0.118 -0.3637 -0.2885 -0.3162
 8545SOL    HW233952   4.995   0.021   0.078 -1.0910 -1.5017  1.7562
 8545SOL    HW333953   4.881   0.110   0.124 -0.2896 -0.4716  1.7800
 8545SOL    MW433954   4.967   0.095   0.114 -0.4499 -0.4727  0.2338
 8546SOL     OW33955   3.882   0.991   4.979 -0.0927  0.0269 -0.2934
 8546SOL    HW233956   3.925   0.980   5.064  0.2299  0.3986 -0.4040
 8546SOL    HW333957   3.953   0.979   4.915 -0.6019 -1.6657 -0.5708
 8546SOL    MW433958   3.897   0.988   4.982 -0.1173 -0.1474 -0.3446
 8547SOL     OW33959   5.709   2.718   4.625  0.3855  0.0544 -0.0253
 8547SOL    HW233960   5.645   2.788   4.611  0.7429  0.5057  0.5707
 8547SOL    HW333961   5.669   2.662   4.691  1.1410  1.0510  1.3246
 8547SOL    MW433962   5.695   2.720   4.631  0.5324  0.2454  0.2314
 8548SOL     OW33963   5.363   2.058   3.355  0.6166  0.1504 -0.3450
 8548SOL    HW233964   5.294   2.104   3.404  0.1840  1.1496 -1.8339
 8548SOL    HW333965   5.437   2.054   3.416  0.1132  1.3829  0.3855
 8548SOL    MW433966   5.363   2.063   3.370  0.4931  0.4449 -0.4451
 8549SOL     OW33967   1.339   2.015   2.488 -0.1908 -0.0074 -0.5149
 8549SOL    HW233968   1.323   1.925   2.516  0.0421  0.0509 -0.1809
 8549SOL    HW333969   1.423   2.011   2.441  0.8908  0.3730  1.2951
 8549SOL    MW433970   1.348   2.003   2.486 -0.0173  0.0505 -0.2320
 8550SOL     OW33971   4.085   5.980   2.349 -0.1953 -0.2410 -0.0554
 8550SOL    HW233972   4.139   5.936   2.283 -1.1305 -0.6027 -0.5952
 8550SOL    HW333973   4.078   6.070   2.318  3.2918  0.9549  1.9972
 8550SOL    MW433974   4.091   5.986   2.336  0.1414 -0.1310  0.1442
 8551SOL     OW33975   6.402   3.334   2.162 -0.2113 -0.4728 -0.9050
 8551SOL    HW233976   6.459   3.339   2.239  0.5087  1.3643 -1.4969
 8551SOL    HW333977   6.362   3.247   2.167 -1.2926  0.0588  2.3086
 8551SOL    MW433978   6.404   3.323   2.173 -0.2590 -0.1603 -0.5591
 8552SOL     OW33979   5.371   3.883   4.137 -0.2494 -0.3474 -0.4703
 8552SOL    HW233980   5.299   3.837   4.180  0.0815  0.2213  0.7381
 8552SOL    HW333981   5.373   3.847   4.049 -2.5328  0.1910 -0.7991
 8552SOL    MW433982   5.362   3.872   4.131 -0.5070 -0.2013 -0.3542
 8553SOL     OW33983   5.471   1.338   2.644 -0.3797  0.1856 -0.3753
 8553SOL    HW233984   5.443   1.377   2.561 -2.9179 -0.6478  0.0032
 8553SOL    HW333985   5.544   1.393   2.673 -2.6271  3.6124 -0.7274
 8553SOL    MW433986   5.477   1.350   2.637 -1.0111  0.5278 -0.3718
 8554SOL     OW33987   3.589   3.244   1.698  0.3574 -0.0221 -0.1225
 8554SOL    HW233988   3.677   3.279   1.712 -0.1780  1.1112  0.5694
 8554SOL    HW333989   3.570   3.194   1.777 -0.1784  0.9958  0.4178
 8554SOL    MW433990   3.598   3.242   1.710  0.2160  0.2617  0.0400
 8555SOL     OW33991   6.091   5.784   2.250  0.1546  0.2840  0.7743
 8555SOL    HW233992   6.097   5.773   2.155  0.0891  0.4731  0.7484
 8555SOL    HW333993   6.119   5.699   2.285 -0.8054 -0.1369  0.5597
 8555SOL    MW433994   6.096   5.771   2.242  0.0193  0.2534  0.7426
 8556SOL     OW33995   2.221   2.125   0.598 -0.3714 -0.4112  0.2400
 8556SOL    HW233996   2.169   2.093   0.523 -0.8446  0.1901  0.3014
 8556SOL    HW333997   2.175   2.204   0.627 -0.0166 -0.4659  0.9770
 8556SOL    MW433998   2.208   2.131   0.592 -0.3870 -0.3391  0.3453
 8557SOL     OW33999   1.536   3.404   3.107  0.0980  0.4748  0.4907
 8557SOL    HW234000   1.492   3.419   3.191 -0.3879  0.8756  0.1756
 8557SOL    HW334001   1.627   3.385   3.130 -0.5055 -1.8031  1.2636
 8557SOL    MW434002   1.542   3.403   3.121 -0.0457  0.2271  0.5511
 8558SOL     OW34003   1.907   1.286   5.695 -0.0896  0.3395  0.1085
 8558SOL    HW234004   1.830   1.232   5.678 -0.3560  1.1446 -1.5248
 8558SOL    HW334005   1.980   1.224   5.703 -0.7435 -0.3694  0.6382
 8558SOL    MW434006   1.907   1.271   5.694 -0.2110  0.3522 -0.0371
 8559SOL     OW34007   4.686   5.604   1.727  0.2474 -0.1430  0.7576
 8559SOL    HW234008   4.759   5.554   1.690  0.2110 -0.0353  0.5409
 8559SOL    HW334009   4.616   5.594   1.663 -0.1039 -0.6975  1.2263
 8559SOL    MW434010   4.687   5.596   1.714  0.1962 -0.2020  0.7909
 8560SOL     OW34011   1.782   0.081   5.281  1.1485  0.3095  0.1472
 8560SOL    HW234012   1.807   0.009   5.339  1.2124 -0.9985 -1.4436
 8560SOL    HW334013   1.699   0.112   5.316  1.5167  0.0159  1.3364
 8560SOL    MW434014   1.774   0.076   5.293  1.2055  0.0982  0.0942
 8561SOL     OW34015   1.026   5.887   0.183 -0.6909 -0.0074 -0.2799
 8561SOL    HW234016   1.047   5.938   0.261 -2.2104  1.6528 -0.8793
 8561SOL    HW334017   0.964   5.821   0.215 -0.2925 -0.1827  0.1447
 8561SOL    MW434018   1.020   5.885   0.198 -0.8388  0.1885 -0.3030
 8562SOL     OW34019   2.888   0.164   1.984 -0.2115 -0.0115 -0.4423
 8562SOL    HW234020   2.825   0.172   2.056 -0.4443  0.8352 -0.7336
 8562SOL    HW334021   2.938   0.245   1.986  1.2774 -0.8943  0.1373
 8562SOL    MW434022   2.886   0.176   1.994 -0.0458 -0.0163 -0.4043
 8563SOL     OW34023   4.752   0.012   4.803 -0.3909  0.0345 -0.1243
 8563SOL    HW234024   4.747  -0.056   4.736 -1.0476  0.9915 -1.0749
 8563SOL    HW334025   4.663   0.046   4.810 -0.0251  0.9574  0.1806
 8563SOL    MW434026   4.740   0.007   4.795 -0.4293  0.2825 -0.2095
 8564SOL     OW34027   2.530   0.347   1.170  0.3461  0.2056 -0.1733
 8564SOL    HW234028   2.489   0.324   1.254 -0.3846  1.0344 -0.2943
 8564SOL    HW334029   2.474   0.415   1.134  1.1320  0.4521 -0.9471
 8564SOL    MW434030   2.517   0.353   1.177  0.3534  0.3475 -0.2913
 8565SOL     OW34031   3.014   5.443   5.390 -0.4232 -0.2446  0.5584
 8565SOL    HW234032   3.091   5.448   5.333  0.5275 -1.2969  1.7124
 8565SOL    HW334033   3.037   5.496   5.466 -1.1514  0.0536  0.5799
 8565SOL    MW434034   3.027   5.451   5.392 -0.3938 -0.3441  0.7135
 8566SOL     OW34035   0.136   5.425   4.731  0.3448  0.0923  0.4201
 8566SOL    HW234036   0.156   5.507   4.686  0.2157  1.0100  1.9600
 8566SOL    HW334037   0.041   5.424   4.737  0.1243 -1.5194 -1.9168
 8566SOL    MW434038   0.126   5.436   4.726  0.2987  0.0007  0.3150
 8567SOL     OW34039   5.703   4.802   3.960  0.4358  0.6230  0.4687
 8567SOL    HW234040   5.754   4.732   4.001  2.5915  1.4867 -0.5564
 8567SOL    HW334041   5.674   4.857   4.033 -0.3254 -0.6925  1.1905
 8567SOL    MW434042   5.706   4.800   3.975  0.6198  0.5634  0.4287
 8568SOL     OW34043   2.734   4.861   4.636  0.3543 -0.3052 -0.2597
 8568SOL    HW234044   2.655   4.812   4.660  0.6927 -0.1075  1.4093
 8568SOL    HW334045   2.764   4.820   4.555 -1.2830 -0.5777 -0.7654
 8568SOL    MW434046   2.727   4.849   4.629  0.1829 -0.3150 -0.1062
 8569SOL     OW34047   1.755   0.726   5.921  0.0672  0.5618 -0.5641
 8569SOL    HW234048   1.831   0.762   5.877 -1.0463  1.6779 -1.6534
 8569SOL    HW334049   1.690   0.796   5.920 -1.3659 -0.6958 -0.6415
 8569SOL    MW434050   1.756   0.740   5.915 -0.2688  0.5432 -0.7181
 8570SOL     OW34051   4.226   0.212   5.333  0.3411  0.3096 -0.4816
 8570SOL    HW234052   4.202   0.123   5.362  1.7426 -0.5182 -1.7488
 8570SOL    HW334053   4.226   0.207   5.238 -1.1363  2.1502 -0.6391
 8570SOL    MW434054   4.222   0.199   5.325  0.3311  0.4432 -0.6696
 8571SOL     OW34055   2.875   1.899   3.126 -0.3014  0.4977  0.6602
 8571SOL    HW234056   2.793   1.849   3.135  0.1920 -0.4507  0.0269
 8571SOL    HW334057   2.875   1.957   3.202 -1.2403  0.0361  1.0412
 8571SOL    MW434058   2.864   1.900   3.138 -0.3602  0.3117  0.6269
 8572SOL     OW34059   0.080   3.591   1.065 -0.3352  0.3338  0.8197
 8572SOL    HW234060  -0.009   3.626   1.076 -0.9370 -0.9454  0.1413
 8572SOL    HW334061   0.121   3.604   1.151 -1.2469  0.7224  1.2116
 8572SOL    MW434062   0.074   3.598   1.078 -0.5349  0.2163  0.7819
 8573SOL     OW34063   1.474   4.215   3.217  0.0121 -0.3521  0.1429
 8573SOL    HW234064   1.379   4.223   3.221 -0.1308 -0.0136 -2.3240
 8573SOL    HW334065   1.495   4.219   3.124  2.5971  1.3171  0.6865
 8573SOL    MW434066   1.464   4.216   3.206  0.3343 -0.0872 -0.1108
 8574SOL     OW34067   5.752   1.381   1.582 -0.0359  0.4793 -0.2234
 8574SOL    HW234068   5.715   1.423   1.659  1.3249  0.5965  0.3954
 8574SOL    HW334069   5.699   1.302   1.570 -0.4255  0.5913  0.6770
 8574SOL    MW434070   5.740   1.376   1.590  0.0922  0.5095 -0.0229
 8575SOL     OW34071   4.232   3.441   0.389 -0.2277 -0.4167 -0.8320
 8575SOL    HW234072   4.315   3.414   0.429 -0.0011  0.0630 -0.9646
 8575SOL    HW334073   4.200   3.511   0.445 -0.1488 -0.0659 -1.2240
 8575SOL    MW434074   4.239   3.447   0.401 -0.1874 -0.3071 -0.9012
 8576SOL     OW34075   3.201   1.718   2.230 -0.6560  0.2530 -1.0469
 8576SOL    HW234076   3.137   1.788   2.218 -0.7947 -0.1717 -3.4075
 8576SOL    HW334077   3.282   1.763   2.253 -1.4871  0.8832  0.8021
 8576SOL    MW434078   3.204   1.733   2.231 -0.7839  0.2801 -1.1144
 8577SOL     OW34079   1.911   2.299   3.703  0.1271  0.0083  0.7967
 8577SOL    HW234080   1.957   2.296   3.787  0.6646 -0.1911  0.4963
 8577SOL    HW334081   1.821   2.275   3.725 -0.1143  1.4510  1.5646
 8577SOL    MW434082   1.905   2.296   3.717  0.1662  0.1724  0.8584
 8578SOL     OW34083   3.283   3.215   1.947  0.0444  0.2690 -0.2968
 8578SOL    HW234084   3.218   3.203   2.017  1.2528 -0.4570  0.7488
 8578SOL    HW334085   3.280   3.309   1.928  0.2081  0.6276  1.2819
 8578SOL    MW434086   3.274   3.226   1.954  0.2254  0.2205  0.0494
 8579SOL     OW34087   1.552   3.059   3.674 -0.5623 -0.5153  0.3711
 8579SOL    HW234088   1.502   3.050   3.593  1.9223 -3.9184 -1.0121
 8579SOL    HW334089   1.512   2.995   3.734  0.0953 -0.9284  0.3789
 8579SOL    MW434090   1.540   3.049   3.671 -0.1477 -1.0188  0.1896
 8580SOL     OW34091   0.844   5.991   5.799  0.5640  0.2788  0.1552
 8580SOL    HW234092   0.905   5.956   5.864  2.0061  1.6338 -0.4024
 8580SOL    HW334093   0.776   6.033   5.851  0.5760 -0.4681  0.7889
 8580SOL    MW434094   0.843   5.992   5.815  0.7559  0.3590  0.1652
 8581SOL     OW34095   3.306   5.599   4.460  0.1713 -0.0230  0.2646
 8581SOL    HW234096   3.392   5.640   4.456  0.5687 -0.6864  1.4679
 8581SOL    HW334097   3.306   5.550   4.542 -0.8755 -1.1059 -0.3389
 8581SOL    MW434098   3.317   5.598   4.470  0.0857 -0.2534  0.3437
 8582SOL     OW34099   5.221   3.168   0.668 -0.1049 -0.0399  0.1803
 8582SOL    HW234100   5.228   3.090   0.723  0.8756 -0.1446 -0.0803
 8582SOL    HW334101   5.137   3.157   0.622 -0.9795  0.0965  1.6943
 8582SOL    MW434102   5.211   3.156   0.669 -0.0909 -0.0357  0.3456
 8583SOL     OW34103   6.030   6.069   4.809 -0.1853 -0.5928 -0.5765
 8583SOL    HW234104   6.034   6.114   4.725  3.1607  0.4076 -0.0456
 8583SOL    HW334105   6.104   6.008   4.807  0.3884 -0.0919  1.7958
 8583SOL    MW434106   6.041   6.067   4.798  0.3318 -0.3947 -0.1935
 8584SOL     OW34107   1.340   2.176   0.957  0.4443 -0.1478 -0.7413
 8584SOL    HW234108   1.263   2.217   0.918 -0.4625 -1.1396 -0.0545
 8584SOL    HW334109   1.369   2.111   0.893  0.5921  0.0856 -0.9125
 8584SOL    MW434110   1.333   2.173   0.944  0.3442 -0.2479 -0.6733
 8585SOL     OW34111   1.044   5.393   4.840 -0.0339 -0.0952  0.0666
 8585SOL    HW234112   0.989   5.357   4.771  2.6061 -1.7470 -1.3219
 8585SOL    HW334113   1.131   5.359   4.822  1.0874  0.6261  3.3834
 8585SOL    MW434114   1.048   5.384   4.829  0.4624 -0.2180  0.3210
 8586SOL     OW34115   5.073   5.926   2.203  0.8369 -0.7676  0.4906
 8586SOL    HW234116   5.154   5.978   2.202  0.6161 -0.4109 -0.6373
 8586SOL    HW334117   5.087   5.859   2.136 -0.1245 -0.1699 -0.3328
 8586SOL    MW434118   5.086   5.924   2.194  0.6809 -0.6417  0.2332
 8587SOL     OW34119   3.701   3.432   1.216 -0.1581 -0.5635  0.3235
 8587SOL    HW234120   3.673   3.349   1.178 -0.2555  0.4106 -1.8180
 8587SOL    HW334121   3.620   3.477   1.239 -0.4946  1.1315 -3.4597
 8587SOL    MW434122   3.687   3.427   1.214 -0.2153 -0.2113 -0.4582
 8588SOL     OW34123   2.521   6.035   3.983 -0.6409  0.1788 -0.1082
 8588SOL    HW234124   2.442   6.054   4.034 -0.8495  0.3378 -0.4836
 8588SOL    HW334125   2.515   5.941   3.964 -0.9603  0.2717 -0.4936
 8588SOL    MW434126   2.509   6.025   3.987 -0.7106  0.2121 -0.2086
 8589SOL     OW34127   1.374   2.196   0.219 -0.5897  0.0707  0.4454
 8589SOL    HW234128   1.351   2.201   0.127 -0.9725  1.2968  0.5942
 8589SOL    HW334129   1.451   2.139   0.222 -1.3107 -0.9856 -0.4753
 8589SOL    MW434130   1.381   2.189   0.207 -0.7353  0.0931  0.3436
 8590SOL     OW34131   5.915   3.389   4.451 -0.4362 -0.3652 -0.4146
 8590SOL    HW234132   5.826   3.393   4.418 -0.8228 -0.3424  0.5912
 8590SOL    HW334133   5.910   3.334   4.529  0.7454 -1.7854 -1.2821
 8590SOL    MW434134   5.903   3.382   4.457 -0.3313 -0.5495 -0.3964
 8591SOL     OW34135   0.640   2.864   1.101 -0.7426 -0.3921 -0.2189
 8591SOL    HW234136   0.667   2.946   1.061 -0.7651 -0.6243 -0.7200
 8591SOL    HW334137   0.691   2.858   1.181  1.9190 -1.5620 -1.8751
 8591SOL    MW434138   0.650   2.874   1.106 -0.3944 -0.5770 -0.5036
 8592SOL     OW34139   0.493   4.305   4.418 -0.2783 -0.2859  0.0465
 8592SOL    HW234140   0.549   4.274   4.489  1.2244  3.4446  0.7059
 8592SOL    HW334141   0.543   4.376   4.377 -2.6631  0.1779 -2.3517
 8592SOL    MW434142   0.507   4.310   4.422 -0.3947  0.2675 -0.1829
 8593SOL     OW34143   5.769   2.269   3.416  0.6116  0.0292 -0.9465
 8593SOL    HW234144   5.803   2.214   3.345  0.9162 -4.8535  2.4579
 8593SOL    HW334145   5.846   2.290   3.469 -0.2017 -1.7015  1.0396
 8593SOL    MW434146   5.784   2.264   3.414  0.5445 -0.8434 -0.2353
 8594SOL     OW34147   2.591   0.820   4.985 -0.2118  0.3792 -0.2430
 8594SOL    HW234148   2.538   0.845   4.909  1.5410  3.0735 -0.7084
 8594SOL    HW334149   2.631   0.901   5.014  1.0949 -0.9956  2.1131
 8594SOL    MW434150   2.589   0.834   4.979  0.1919  0.5533  0.0065
 8595SOL     OW34151   5.417   0.313   5.832 -0.2618  0.2396 -0.7957
 8595SOL    HW234152   5.361   0.383   5.799 -0.3291  1.4900  1.7290
 8595SOL    HW334153   5.357   0.251   5.872 -0.0883 -0.4292 -1.5646
 8595SOL    MW434154   5.402   0.314   5.833 -0.2478  0.3163 -0.5640
 8596SOL     OW34155   2.114   1.470   2.968  0.9547 -0.9612 -0.1575
 8596SOL    HW234156   2.171   1.516   3.029 -0.7804 -0.5540  1.2486
 8596SOL    HW334157   2.034   1.455   3.017 -0.8406  0.0518 -2.5530
 8596SOL    MW434158   2.111   1.474   2.982  0.4889 -0.7738 -0.2880
 8597SOL     OW34159   2.496   2.686   3.163 -0.2344 -0.1017  0.2997
 8597SOL    HW234160   2.487   2.606   3.112  0.3899  0.2851 -0.4270
 8597SOL    HW334161   2.577   2.672   3.214  0.7504  0.6889 -1.0005
 8597SOL    MW434162   2.506   2.673   3.163 -0.0221  0.0536  0.0323
 8598SOL     OW34163   1.820   6.313   1.604 -0.0559 -0.0169  0.3169
 8598SOL    HW234164   1.740   6.291   1.653 -0.0560 -1.3378 -0.2253
 8598SOL    HW334165   1.794   6.306   1.512  0.8775 -1.3005  0.1326
 8598SOL    MW434166   1.806   6.309   1.599  0.0673 -0.3605  0.2210
 8599SOL     OW34167   1.534   4.752   0.413  0.1069  0.1694 -0.1117
 8599SOL    HW234168   1.559   4.660   0.419  1.5748  0.4688 -1.0347
 8599SOL    HW334169   1.474   4.766   0.486 -0.3176 -1.5665 -0.1062
 8599SOL    MW434170   1.530   4.742   0.423  0.2446 -0.0202 -0.2327
 8600SOL     OW34171   2.003   6.240   1.337 -0.4662  0.6757  0.2050
 8600SOL    HW234172   1.978   6.239   1.245 -0.7684 -0.5076  0.2932
 8600SOL    HW334173   2.002   6.333   1.360  0.2992  1.0421 -1.1577
 8600SOL    MW434174   1.999   6.252   1.328 -0.4051  0.5679  0.0369
 8601SOL     OW34175   3.857   4.965   0.993  0.1957 -0.2566 -0.6394
 8601SOL    HW234176   3.800   5.030   1.034  1.1926 -0.1939  0.7054
 8601SOL    HW334177   3.927   4.951   1.057  1.5495 -0.5234 -2.1135
 8601SOL    MW434178   3.859   4.972   1.007  0.5059 -0.2835 -0.6564
 8602SOL     OW34179   2.630   1.298   3.084 -0.7620 -0.2588 -0.1733
 8602SOL    HW234180   2.725   1.302   3.091 -0.8210  0.6551  0.2238
 8602SOL    HW334181   2.598   1.333   3.167 -1.4610 -1.5306  0.1321
 8602SOL    MW434182   2.638   1.303   3.096 -0.8620 -0.3060 -0.0806
 8603SOL     OW34183   3.935   5.117   4.548 -0.5943 -0.1860 -0.6647
 8603SOL    HW234184   3.936   5.036   4.598 -1.4225 -0.1359 -0.5565
 8603SOL    HW334185   3.895   5.181   4.606  2.0744  0.9060  0.1135
 8603SOL    MW434186   3.929   5.115   4.562 -0.3514 -0.0353 -0.5477
 8604SOL     OW34187   2.329   1.050   0.978  0.1007  0.0449  0.6788
 8604SOL    HW234188   2.405   1.011   1.021 -0.7040  0.5304  2.6256
 8604SOL    HW334189   2.359   1.138   0.952  0.6200 -0.2902  0.1138
 8604SOL    MW434190   2.343   1.057   0.980  0.0631  0.0647  0.8611
 8605SOL     OW34191   6.437   0.201   1.265 -0.0127 -0.0724  0.2162
 8605SOL    HW234192   6.395   0.125   1.223  1.2895 -1.0933  0.7114
 8605SOL    HW334193   6.525   0.203   1.229 -0.2756  1.7750 -0.4522
 8605SOL    MW434194   6.443   0.191   1.254  0.1244  0.0366  0.1934
 8606SOL     OW34195   5.280   2.204   3.586 -0.1668  0.3514 -0.4786
 8606SOL    HW234196   5.325   2.286   3.605  0.5997 -0.2561  0.4009
 8606SOL    HW334197   5.207   2.202   3.648  0.6282 -0.2624  0.4658
 8606SOL    MW434198   5.276   2.214   3.596  0.0392  0.1902 -0.2380
 8607SOL     OW34199   3.388   1.502   5.403  0.0616  0.2879  0.0173
 8607SOL    HW234200   3.308   1.507   5.456 -0.0836  0.0219 -0.1741
 8607SOL    HW334201   3.454   1.468   5.463  0.3682  1.7689  0.5509
 8607SOL    MW434202   3.386   1.498   5.418  0.0829  0.4482  0.0625
 8608SOL     OW34203   0.834   3.036   2.962  0.2289 -0.4896 -0.4499
 8608SOL    HW234204   0.854   3.093   3.036  1.0814 -0.1965 -0.8969
 8608SOL    HW334205   0.760   3.078   2.919  2.0226  1.3541 -1.8784
 8608SOL    MW434206   0.827   3.049   2.966  0.5781 -0.2077 -0.6973
 8609SOL     OW34207   4.893   2.123   3.444 -0.6172 -0.4809  0.0940
 8609SOL    HW234208   4.823   2.080   3.493 -0.5301 -0.5531  0.1560
 8609SOL    HW334209   4.851   2.155   3.364 -0.8074 -0.1606  0.3227
 8609SOL    MW434210   4.879   2.121   3.440 -0.6308 -0.4482  0.1324
 8610SOL     OW34211   1.217   4.096   4.465 -0.1459  0.2535 -0.1273
 8610SOL    HW234212   1.308   4.126   4.466 -0.5054  1.3724  0.0658
 8610SOL    HW334213   1.175   4.146   4.535 -0.5478 -1.4407  0.8944
 8610SOL    MW434214   1.224   4.106   4.475 -0.2463  0.1776  0.0329
 8611SOL     OW34215   1.857   1.013   3.630  0.2015  0.2521  0.5318
 8611SOL    HW234216   1.885   1.032   3.541 -1.4966 -1.0643 -0.3295
 8611SOL    HW334217   1.830   1.098   3.665  2.0255  0.9848  0.2644
 8611SOL    MW434218   1.857   1.027   3.623  0.2181  0.1751  0.3829
 8612SOL     OW34219   5.524   6.302   0.707 -0.2908 -0.3080 -0.1773
 8612SOL    HW234220   5.605   6.351   0.690  1.1608 -2.8429 -1.2678
 8612SOL    HW334221   5.535   6.269   0.796  0.4873 -1.5793 -0.7088
 8612SOL    MW434222   5.536   6.304   0.717  0.0033 -0.8102 -0.3913
 8613SOL     OW34223   0.929   3.766   1.153 -0.4426  0.1219 -0.0269
 8613SOL    HW234224   0.839   3.799   1.152 -0.7720 -0.7368  0.5587
 8613SOL    HW334225   0.950   3.757   1.246  0.2342  0.2720 -0.1612
 8613SOL    MW434226   0.920   3.769   1.165 -0.3968  0.0284  0.0326
 8614SOL     OW34227   6.157   3.420   2.701 -0.1349 -0.3344  0.0618
 8614SOL    HW234228   6.092   3.453   2.639  1.9521  5.0233  0.2389
 8614SOL    HW334229   6.114   3.425   2.786 -0.8441 -1.2008 -0.2274
 8614SOL    MW434230   6.142   3.425   2.704  0.0469  0.2582  0.0470
 8615SOL     OW34231   1.905   2.724   2.878  0.3765  0.1654  0.0115
 8615SOL    HW234232   1.879   2.652   2.820 -0.8382 -1.1583  2.0894
 8615SOL    HW334233   1.822   2.766   2.902  0.4541 -1.2301  3.1037
 8615SOL    MW434234   1.890   2.720   2.873  0.2265 -0.1934  0.6936
 8616SOL     OW34235   4.902   4.530   2.385 -0.1533  0.3274 -0.0917
 8616SOL    HW234236   4.976   4.472   2.370 -0.6931 -0.3943 -0.0278
 8616SOL    HW334237   4.836   4.504   2.320  0.0169  1.6386 -0.8224
 8616SOL    MW434238   4.903   4.519   2.375 -0.2020  0.4052 -0.1797
 8617SOL     OW34239   3.218   2.574   1.501  0.1280 -0.4428 -0.1014
 8617SOL    HW234240   3.128   2.585   1.532 -0.0095  2.3064 -1.1593
 8617SOL    HW334241   3.233   2.480   1.504 -3.2667 -1.1557 -1.1294
 8617SOL    MW434242   3.208   2.563   1.505 -0.3380 -0.1741 -0.3766
 8618SOL     OW34243   4.861   1.158   6.152  0.3797 -0.2013  0.5312
 8618SOL    HW234244   4.824   1.076   6.119 -0.2110  0.5098 -0.6610
 8618SOL    HW334245   4.801   1.226   6.121  1.7476  0.8334  0.0138
 8618SOL    MW434246   4.848   1.156   6.143  0.4822  0.0291  0.3056
 8619SOL     OW34247   6.388   1.270   1.423  0.3291 -0.7288 -0.4685
 8619SOL    HW234248   6.463   1.317   1.388  1.6775 -3.1425 -1.0272
 8619SOL    HW334249   6.397   1.277   1.518  2.9717 -3.3226 -0.4104
 8619SOL    MW434250   6.399   1.277   1.431  0.8557 -1.3895 -0.5346
 8620SOL     OW34251   0.123   2.901   2.881  0.2867 -0.7174  0.4700
 8620SOL    HW234252   0.126   2.917   2.787  0.8987 -0.3579  0.5461
 8620SOL    HW334253   0.155   2.811   2.891  0.1985 -0.7644  0.3368
 8620SOL    MW434254   0.128   2.891   2.870  0.3558 -0.6762  0.4625
 8621SOL     OW34255   0.934   1.308   4.617  0.1103 -0.0022 -0.3478
 8621SOL    HW234256   0.969   1.301   4.705  1.6649 -1.4715 -1.0343
 8621SOL    HW334257   0.905   1.399   4.609 -0.4699  0.0422  1.7954
 8621SOL    MW434258   0.934   1.319   4.627  0.2389 -0.1902 -0.1556
 8622SOL     OW34259   0.694   1.436   4.412 -0.5550 -0.3900 -0.0325
 8622SOL    HW234260   0.690   1.344   4.436 -2.5194 -0.5813 -0.9486
 8622SOL    HW334261   0.768   1.442   4.351 -0.8105 -1.4748 -0.4565
 8622SOL    MW434262   0.703   1.425   4.407 -0.8479 -0.5584 -0.2093
 8623SOL     OW34263   4.343   5.531   2.085 -0.1003  0.3678  0.2900
 8623SOL    HW234264   4.257   5.550   2.122 -0.2979 -0.8752  0.5082
 8623SOL    HW334265   4.366   5.610   2.036 -1.7568  0.3700 -0.5287
 8623SOL    MW434266   4.335   5.544   2.084 -0.3449  0.2041  0.2108
 8624SOL     OW34267   2.288   2.143   1.573 -0.0748 -0.0283  0.1119
 8624SOL    HW234268   2.260   2.223   1.529  1.6615 -0.3933 -1.7752
 8624SOL    HW334269   2.246   2.073   1.523  0.6617 -0.3939  0.0019
 8624SOL    MW434270   2.279   2.144   1.561  0.2514 -0.1247 -0.1516
 8625SOL     OW34271   4.976   2.070   0.894 -1.0451  0.0474  0.0615
 8625SOL    HW234272   4.886   2.049   0.919 -0.5101 -0.2366  1.8770
 8625SOL    HW334273   5.031   2.020   0.954  0.3687 -0.2333 -1.3694
 8625SOL    MW434274   4.972   2.061   0.905 -0.7880 -0.0271  0.1122
 8626SOL     OW34275   3.545   4.317   5.025  0.4681  0.0023  0.2115
 8626SOL    HW234276   3.529   4.410   5.017 -1.2055 -0.3819 -1.5612
 8626SOL    HW334277   3.639   4.307   5.013  0.6902  1.4591  0.6240
 8626SOL    MW434278   3.555   4.328   5.023  0.2766  0.1438  0.0320
 8627SOL     OW34279   1.666   0.829   1.443 -0.5625  0.1142 -0.0158
 8627SOL    HW234280   1.710   0.767   1.501 -0.7557  1.0770  1.1959
 8627SOL    HW334281   1.652   0.780   1.362  0.4620 -0.9980  0.4529
 8627SOL    MW434282   1.670   0.814   1.440 -0.4528  0.0944  0.2059
 8628SOL     OW34283   1.720   1.526   1.564  0.0537 -0.3239 -1.0325
 8628SOL    HW234284   1.731   1.554   1.654  1.5653 -1.5584 -0.8035
 8628SOL    HW334285   1.806   1.536   1.524 -0.0593 -1.8640 -1.7185
 8628SOL    MW434286   1.733   1.531   1.570  0.2382 -0.6899 -1.0928
 8629SOL     OW34287   1.253   0.655   0.838  0.5828  0.2280 -0.5219
 8629SOL    HW234288   1.334   0.645   0.788  0.5286 -0.8218 -0.4345
 8629SOL    HW334289   1.235   0.749   0.836  1.2349  0.3539 -1.4292
 8629SOL    MW434290   1.262   0.666   0.831  0.6617  0.1061 -0.6301
 8630SOL     OW34291   3.680   3.919   0.317  0.4091  0.1389 -0.1880
 8630SOL    HW234292   3.664   3.865   0.240  1.0224  0.4159 -0.5125
 8630SOL    HW334293   3.714   4.002   0.283  0.6544  0.2764  0.3702
 8630SOL    MW434294   3.682   3.923   0.303  0.5224  0.1936 -0.1572
 8631SOL     OW34295   3.172   0.716   2.812  0.5732 -0.4669  0.3284
 8631SOL    HW234296   3.245   0.664   2.847  0.5699 -0.7100 -0.0195
 8631SOL    HW334297   3.095   0.660   2.824  0.7613 -1.1278 -1.2769
 8631SOL    MW434298   3.171   0.701   2.819  0.5976 -0.5862  0.0707
 8632SOL     OW34299   4.908   0.843   2.095  0.6589 -0.2960  0.1295
 8632SOL    HW234300   4.847   0.770   2.096  1.2455 -0.8165  1.9485
 8632SOL    HW334301   4.984   0.811   2.046  0.7140 -0.7391  0.5026
 8632SOL    MW434302   4.910   0.829   2.089  0.7436 -0.4231  0.4187
 8633SOL     OW34303   3.015   1.450   6.070 -0.1568  0.3278  0.5759
 8633SOL    HW234304   3.043   1.404   6.150 -0.3241 -0.4839  0.1794
 8633SOL    HW334305   3.062   1.407   5.999  0.1139  1.1554  0.2435
 8633SOL    MW434306   3.025   1.438   6.071 -0.1432  0.3299  0.4797
 8634SOL     OW34307   1.229   6.136   3.936 -0.5560  0.4226  0.2392
 8634SOL    HW234308   1.270   6.049   3.936  0.7389  1.0067  0.4974
 8634SOL    HW334309   1.198   6.148   3.847  0.8968  0.4141 -0.2954
 8634SOL    MW434310   1.230   6.126   3.925 -0.1935  0.4985  0.2028
 8635SOL     OW34311   2.405   3.012   2.422 -0.0500  0.0805  0.0384
 8635SOL    HW234312   2.427   2.983   2.510  0.9415 -1.1698 -0.5968
 8635SOL    HW334313   2.404   2.932   2.369 -0.2355  0.8512 -1.1712
 8635SOL    MW434314   2.408   2.998   2.426  0.0563  0.0172 -0.2050
 8636SOL     OW34315   2.082   3.592   3.702  0.0689 -0.0584 -0.5673
 8636SOL    HW234316   2.086   3.553   3.615  1.3335  0.1828 -0.6342
 8636SOL    HW334317   2.074   3.686   3.687 -2.0877 -0.1683 -0.4025
 8636SOL    MW434318   2.082   3.599   3.689 -0.0488 -0.0411 -0.5544
 8637SOL     OW34319   1.173   5.432   3.339  0.4296 -0.8033  0.9231
 8637SOL    HW234320   1.112   5.359   3.338 -0.0406 -0.4263 -1.0581
 8637SOL    HW334321   1.118   5.509   3.352  0.4022 -0.4325 -1.1909
 8637SOL    MW434322   1.158   5.432   3.341  0.3640 -0.7047  0.3828
 8638SOL     OW34323   3.569   4.783   1.544 -0.1983 -0.0910  0.4144
 8638SOL    HW234324   3.569   4.751   1.634  0.0142  2.8320  1.5804
 8638SOL    HW334325   3.653   4.828   1.535  2.0904 -4.2566 -2.9768
 8638SOL    MW434326   3.580   4.785   1.555  0.1317 -0.2549  0.1208
 8639SOL     OW34327   4.370   6.249   6.264 -0.3542 -0.5727 -0.1201
 8639SOL    HW234328   4.419   6.202   6.196  0.4909  0.8292 -0.5337
 8639SOL    HW334329   4.298   6.290   6.216 -0.7378 -0.9363  0.1366
 8639SOL    MW434330   4.367   6.248   6.248 -0.2933 -0.4357 -0.1408
 8640SOL     OW34331   5.451   5.208   5.841  0.4986 -0.8637 -0.1277
 8640SOL    HW234332   5.483   5.126   5.879  0.2487 -0.6832  0.4834
 8640SOL    HW334333   5.476   5.275   5.904 -1.6863 -0.8004  0.7489
 8640SOL    MW434334   5.458   5.206   5.855  0.1773 -0.8316  0.0686
 8641SOL     OW34335   4.082   4.283   2.472 -0.1479 -0.8774 -0.0545
 8641SOL    HW234336   4.130   4.317   2.548 -0.5349 -0.3453 -0.0465
 8641SOL    HW334337   4.060   4.360   2.421  0.1479 -1.2423 -0.7390
 8641SOL    MW434338   4.086   4.297   2.476 -0.1599 -0.8554 -0.1438
 8642SOL     OW34339   2.111   3.859   1.663 -0.2876  0.5154  0.3369
 8642SOL    HW234340   2.103   3.765   1.649 -0.1616  0.5196  0.2430
 8642SOL    HW334341   2.139   3.894   1.579  1.2649  0.4445  0.7919
 8642SOL    MW434342   2.113   3.851   1.650 -0.0662  0.5066  0.3846
 8643SOL     OW34343   4.137   0.674   0.142 -0.7733  0.7107  0.1032
 8643SOL    HW234344   4.170   0.760   0.167 -2.3854  0.9058  1.7783
 8643SOL    HW334345   4.170   0.615   0.209 -0.5220  0.1841 -0.4705
 8643SOL    MW434346   4.146   0.678   0.154 -0.9528  0.6670  0.2485
 8644SOL     OW34347   6.118   4.709   3.877 -0.3928  0.1416  0.1038
 8644SOL    HW234348   6.067   4.736   3.953 -0.1531  0.2869  0.2109
 8644SOL    HW334349   6.193   4.767   3.876  0.9746 -1.5155  1.2602
 8644SOL    MW434350   6.121   4.720   3.887 -0.1807 -0.0578  0.2705
 8645SOL     OW34351   5.529   5.550   5.413 -0.5098 -0.5368  0.0911
 8645SOL    HW234352   5.481   5.476   5.449  2.4395 -2.1704  1.0386
 8645SOL    HW334353   5.601   5.510   5.363  2.0004  1.5624  1.7448
 8645SOL    MW434354   5.532   5.535   5.411  0.2105 -0.4754  0.4343
 8646SOL     OW34355   2.789   3.254   2.951 -0.2694  0.5390  0.1887
 8646SOL    HW234356   2.699   3.221   2.943 -0.3107  0.3889  1.1745
 8646SOL    HW334357   2.815   3.274   2.861 -0.4956 -1.5182 -0.3703
 8646SOL    MW434358   2.781   3.252   2.938 -0.3047  0.2478  0.2450
 8647SOL     OW34359   6.317   3.037   2.121 -1.0392  0.3392 -0.1118
 8647SOL    HW234360   6.294   2.975   2.052 -0.6123 -0.3878  0.3819
 8647SOL    HW334361   6.257   3.016   2.193  0.2963 -0.7802  0.7447
 8647SOL    MW434362   6.306   3.026   2.122 -0.8066  0.0956  0.0664
 8648SOL     OW34363   1.612   2.206   1.939 -0.1455  0.2973  0.0391
 8648SOL    HW234364   1.641   2.292   1.969  0.0867 -0.3319  1.6889
 8648SOL    HW334365   1.541   2.182   1.999  0.6708 -1.2174  0.4512
 8648SOL    MW434366   1.607   2.214   1.951 -0.0072  0.0145  0.3111
 8649SOL     OW34367   0.086   0.589   4.732 -0.4739 -0.3250  0.3466
 8649SOL    HW234368   0.119   0.505   4.764 -2.5991 -1.8047 -1.0595
 8649SOL    HW334369   0.121   0.595   4.643  0.5090  0.8355  0.7854
 8649SOL    MW434370   0.095   0.579   4.724 -0.6246 -0.3671  0.2190
 8650SOL     OW34371   5.688   4.634   5.958  0.4859  0.4434 -0.3875
 8650SOL    HW234372   5.764   4.691   5.945  0.6442  1.3747  3.4593
 8650SOL    HW334373   5.712   4.578   6.031 -2.5379  0.9265  1.1383
 8650SOL    MW434374   5.702   4.634   5.966  0.1079  0.6300  0.3213
 8651SOL     OW34375   2.895   1.005   2.560 -0.3471  0.2429 -0.1423
 8651SOL    HW234376   2.800   1.013   2.572 -0.2566  1.2047 -0.0271
 8651SOL    HW334377   2.932   1.077   2.610  0.4128  0.2775 -0.7384
 8651SOL    MW434378   2.887   1.015   2.568 -0.2349  0.3744 -0.2057
 8652SOL     OW34379   4.745   3.462   5.651  0.5049 -0.7917 -1.1386
 8652SOL    HW234380   4.693   3.537   5.680  2.4156  1.0777 -2.3594
 8652SOL    HW334381   4.689   3.418   5.587 -0.6694 -0.4802 -0.3569
 8652SOL    MW434382   4.730   3.466   5.647  0.6021 -0.5039 -1.1965
 8653SOL     OW34383   1.190   2.691   4.012 -0.1377  0.1893  0.7528
 8653SOL    HW234384   1.106   2.660   4.048 -1.3218  1.2702 -0.9098
 8653SOL    HW334385   1.213   2.626   3.946  0.3803 -0.1444  1.2595
 8653SOL    MW434386   1.182   2.679   4.008 -0.2256  0.2879  0.6003
 8654SOL     OW34387   3.036   2.272   2.829 -0.6624  0.0546 -0.2047
 8654SOL    HW234388   3.078   2.295   2.912  3.3800 -1.2899 -1.6056
 8654SOL    HW334389   3.016   2.179   2.837 -1.1478  0.1421 -0.3893
 8654SOL    MW434390   3.039   2.262   2.841 -0.1931 -0.1112 -0.4139
 8655SOL     OW34391   1.931   2.541   5.258 -0.1881 -0.3490  0.2221
 8655SOL    HW234392   2.020   2.575   5.268 -0.5829  0.8190 -0.0916
 8655SOL    HW334393   1.881   2.615   5.224 -1.2669 -1.0179  0.3214
 8655SOL    MW434394   1.936   2.555   5.255 -0.3825 -0.2831  0.1938
 8656SOL     OW34395   2.475   1.327   0.951  0.5624 -0.6247 -0.3786
 8656SOL    HW234396   2.450   1.417   0.975  2.3984  0.1499 -1.1725
 8656SOL    HW334397   2.515   1.292   1.030 -1.0088 -1.1211  0.2325
 8656SOL    MW434398   2.477   1.335   0.965  0.5973 -0.5880 -0.4027
 8657SOL     OW34399   0.327   4.081   2.547  0.2976 -0.1986  0.8358
 8657SOL    HW234400   0.288   4.134   2.477 -1.6568  0.3964  2.2854
 8657SOL    HW334401   0.407   4.128   2.571  1.0816 -0.4935 -1.0524
 8657SOL    MW434402   0.332   4.095   2.541  0.1432 -0.1590  0.7780
 8658SOL     OW34403   3.952   0.464   4.701 -0.0038 -0.1817 -0.1914
 8658SOL    HW234404   3.884   0.425   4.647  1.8358 -0.1826 -2.6892
 8658SOL    HW334405   3.930   0.557   4.704 -0.9564 -0.4140  0.4155
 8658SOL    MW434406   3.940   0.471   4.694  0.1132 -0.2125 -0.4409
 8659SOL     OW34407   0.869   4.878   4.334  0.2841  0.0798 -0.2298
 8659SOL    HW234408   0.950   4.891   4.384  0.1170 -0.5513  0.2158
 8659SOL    HW334409   0.895   4.819   4.263  0.4353  0.6724 -0.6731
 8659SOL    MW434410   0.883   4.872   4.331  0.2820  0.0747 -0.2295
 8660SOL     OW34411   1.339   3.215   3.310 -0.1451  0.1898 -0.1120
 8660SOL    HW234412   1.310   3.224   3.219  0.9912 -0.2511 -0.5456
 8660SOL    HW334413   1.395   3.291   3.325 -1.3450  0.9492  0.6555
 8660SOL    MW434414   1.343   3.226   3.300 -0.1535  0.2318 -0.0680
 8661SOL     OW34415   2.408   4.370   1.903  0.1452 -0.7160 -0.7452
 8661SOL    HW234416   2.351   4.308   1.948  0.4500 -1.1200 -0.9152
 8661SOL    HW334417   2.494   4.359   1.943 -0.1230  0.7023  0.3041
 8661SOL    MW434418   2.412   4.361   1.914  0.1500 -0.5821 -0.6292
 8662SOL     OW34419   3.379   3.437   1.786  0.2669  0.0116 -0.3470
 8662SOL    HW234420   3.312   3.460   1.722 -0.1908  0.4770  0.2856
 8662SOL    HW334421   3.443   3.386   1.737  0.5012  1.3017 -1.4295
 8662SOL    MW434422   3.378   3.433   1.771  0.2375  0.2432 -0.4063
 8663SOL     OW34423   0.042   5.444   5.459  0.1191  0.4359 -0.1346
 8663SOL    HW234424  -0.043   5.455   5.416  0.4087  0.0750 -0.8212
 8663SOL    HW334425   0.087   5.527   5.445  0.3435  0.2003 -0.8420
 8663SOL    MW434426   0.037   5.456   5.451  0.1869  0.3572 -0.3185
 8664SOL     OW34427   3.572   4.925   0.698 -0.1626 -0.3676  0.0857
 8664SOL    HW234428   3.546   4.853   0.640  1.0589 -0.5442 -0.2856
 8664SOL    HW334429   3.568   4.889   0.786 -0.0394 -0.7393 -0.0612
 8664SOL    MW434430   3.568   4.911   0.702  0.0148 -0.4399  0.0174
 8665SOL     OW34431   3.282   4.331   3.606 -0.7628  0.0912  0.4643
 8665SOL    HW234432   3.189   4.347   3.595 -0.4109  0.8855 -2.0413
 8665SOL    HW334433   3.305   4.273   3.533  1.2023  2.3889 -0.8996
 8665SOL    MW434434   3.273   4.326   3.595 -0.4571  0.4992 -0.0462
 8666SOL     OW34435   4.204   3.867   1.549 -0.2353  0.0117 -0.5192
 8666SOL    HW234436   4.293   3.889   1.520 -0.2654 -0.8597 -1.3499
 8666SOL    HW334437   4.196   3.908   1.635  0.5404  1.1294 -0.9517
 8666SOL    MW434438   4.215   3.875   1.556 -0.1369  0.0442 -0.6859
 8667SOL     OW34439   3.604   2.735   3.151 -0.0335  0.2236 -0.0757
 8667SOL    HW234440   3.694   2.746   3.123  0.1670  1.0239  0.8043
 8667SOL    HW334441   3.601   2.648   3.191  1.1783  1.3434  2.7141
 8667SOL    MW434442   3.615   2.725   3.153  0.1528  0.4769  0.4085
 8668SOL     OW34443   4.116   3.662   1.249  0.3933  0.1049  0.3111
 8668SOL    HW234444   4.124   3.586   1.306  1.9254  1.5390  2.2068
 8668SOL    HW334445   4.057   3.721   1.296  1.2499  1.1030  0.1755
 8668SOL    MW434446   4.110   3.660   1.263  0.7085  0.4258  0.5433
 8669SOL     OW34447   6.002   3.890   5.644 -0.4890 -0.1062  0.0171
 8669SOL    HW234448   5.972   3.799   5.643  1.5606 -0.8463  0.7169
 8669SOL    HW334449   6.020   3.908   5.737 -0.6460  0.9515 -0.1404
 8669SOL    MW434450   6.000   3.880   5.656 -0.2393 -0.0643  0.0886
 8670SOL     OW34451   5.526   4.985   4.199 -0.3429  0.1588 -0.0135
 8670SOL    HW234452   5.464   4.963   4.269 -1.9711  0.3368 -1.3255
 8670SOL    HW334453   5.473   4.982   4.119  1.7761 -1.5386 -1.4622
 8670SOL    MW434454   5.510   4.982   4.198 -0.2781 -0.0417 -0.3777
 8671SOL     OW34455   1.990   1.068   4.063 -0.6899  0.3229  0.0897
 8671SOL    HW234456   1.938   1.113   4.130  1.0629  1.0450  1.0389
 8671SOL    HW334457   1.986   0.976   4.087 -1.2618  0.4072  0.3286
 8671SOL    MW434458   1.982   1.062   4.075 -0.5341  0.4293  0.2464
 8672SOL     OW34459   2.208   2.612   3.253  0.0237 -0.8061  0.2778
 8672SOL    HW234460   2.296   2.649   3.252 -0.1199 -0.2738  2.3028
 8672SOL    HW334461   2.219   2.523   3.288 -0.0317 -1.5251 -1.4319
 8672SOL    MW434462   2.221   2.605   3.257 -0.0025 -0.8307  0.3194
 8673SOL     OW34463   5.995   1.341   5.208  1.1526  0.0063  0.1173
 8673SOL    HW234464   5.931   1.280   5.172  2.1212  0.3387 -2.3516
 8673SOL    HW334465   5.956   1.428   5.196  0.6936  0.0539  1.6815
 8673SOL    MW434466   5.982   1.345   5.202  1.2198  0.0565 -0.0020
 8674SOL     OW34467   6.201   5.382   1.289  0.4402 -0.7419 -0.1652
 8674SOL    HW234468   6.227   5.472   1.311 -0.9599 -0.3567  0.0179
 8674SOL    HW334469   6.253   5.327   1.348 -1.3725  0.1543  2.4679
 8674SOL    MW434470   6.211   5.387   1.300  0.0163 -0.5728  0.2064
 8675SOL     OW34471   2.982   5.816   2.985  0.3063  0.1389 -0.2598
 8675SOL    HW234472   3.054   5.761   3.016  1.0404  0.4604 -1.3245
 8675SOL    HW334473   3.015   5.905   2.994 -0.4858  0.3616  0.4929
 8675SOL    MW434474   2.996   5.820   2.990  0.2986  0.2107 -0.3010
 8676SOL     OW34475   0.615   2.541   5.195  0.0817 -0.0684 -0.0217
 8676SOL    HW234476   0.595   2.624   5.153 -0.6910  0.4094  1.2225
 8676SOL    HW334477   0.589   2.554   5.286  1.1289 -1.2589  0.4741
 8676SOL    MW434478   0.609   2.554   5.201  0.1179 -0.1624  0.2079
 8677SOL     OW34479   0.756   5.659   3.470 -0.4007 -0.2653 -0.5730
 8677SOL    HW234480   0.704   5.607   3.531 -3.1595 -0.2608 -2.7116
 8677SOL    HW334481   0.717   5.746   3.474  1.8775  0.7939  0.3568
 8677SOL    MW434482   0.744   5.663   3.479 -0.4641 -0.1250 -0.7325
 8678SOL     OW34483   1.467   2.676   0.283  0.2249 -0.0125 -0.2053
 8678SOL    HW234484   1.421   2.726   0.351  0.1881 -0.8264  0.3769
 8678SOL    HW334485   1.407   2.604   0.262 -0.4292  1.0272 -2.1708
 8678SOL    MW434486   1.453   2.673   0.290  0.1337  0.0173 -0.3878
 8679SOL     OW34487   6.191   2.560   3.778  0.1244 -0.2125  0.3131
 8679SOL    HW234488   6.220   2.472   3.754  0.6194  0.1732 -0.5567
 8679SOL    HW334489   6.099   2.549   3.802 -0.0919 -0.8200 -0.7327
 8679SOL    MW434490   6.182   2.547   3.778  0.1612 -0.2417  0.0604
 8680SOL     OW34491   4.831   4.992   1.452 -0.5739 -0.9929  0.1754
 8680SOL    HW234492   4.863   5.054   1.516  2.6336 -1.7371 -0.5385
 8680SOL    HW334493   4.770   5.042   1.398 -0.6842  0.5512  1.6710
 8680SOL    MW434494   4.827   5.006   1.453 -0.1653 -0.8874  0.2785
 8681SOL     OW34495   3.574   0.669   1.281 -0.4513  0.1743  0.6967
 8681SOL    HW234496   3.638   0.730   1.244  0.8151 -1.3715  0.2574
 8681SOL    HW334497   3.613   0.637   1.362  0.2147 -2.1099 -0.4376
 8681SOL    MW434498   3.587   0.673   1.287 -0.1964 -0.3311  0.4891
 8682SOL     OW34499   0.186   2.216   4.307  0.2004  0.6588 -0.1605
 8682SOL    HW234500   0.146   2.152   4.249  1.9286 -1.4164  0.7950
 8682SOL    HW334501   0.260   2.251   4.257  1.6877 -1.1273  0.7007
 8682SOL    MW434502   0.190   2.212   4.293  0.6247  0.1493  0.0792
 8683SOL     OW34503   4.710   0.661   0.598  0.4982  0.3146  0.1162
 8683SOL    HW234504   4.782   0.600   0.614  1.5015  1.3968 -0.1354
 8683SOL    HW334505   4.738   0.743   0.639 -0.0027  1.1255 -1.0983
 8683SOL    MW434506   4.723   0.664   0.605  0.5645  0.5644 -0.0772
 8684SOL     OW34507   1.327   4.044   0.231 -0.4801  0.1068  0.0563
 8684SOL    HW234508   1.272   4.059   0.154 -0.8917  0.4221  0.4057
 8684SOL    HW334509   1.291   4.103   0.298 -0.0532 -0.0772  0.4537
 8684SOL    MW434510   1.315   4.054   0.230 -0.4781  0.1241  0.1549
 8685SOL     OW34511   1.012   6.334   3.309 -0.5597  0.1895 -0.2549
 8685SOL    HW234512   1.087   6.307   3.362  0.9940 -0.0679 -2.4706
 8685SOL    HW334513   1.031   6.425   3.287 -1.5535  0.5161  0.1858
 8685SOL    MW434514   1.024   6.343   3.313 -0.4858  0.1987 -0.4891
 8686SOL     OW34515   2.376   5.812   1.683  0.7770  0.6614  0.4116
 8686SOL    HW234516   2.379   5.750   1.610  1.0488  1.5054 -0.3056
 8686SOL    HW334517   2.332   5.889   1.648  0.1118  0.7536  1.4035
 8686SOL    MW434518   2.370   5.814   1.669  0.7251  0.7849  0.4478
 8687SOL     OW34519   3.076   4.399   6.098 -0.1645  0.4939 -0.3950
 8687SOL    HW234520   3.143   4.333   6.112  0.2410  0.9449 -0.1597
 8687SOL    HW334521   3.047   4.423   6.187 -1.5340 -0.5860 -0.5211
 8687SOL    MW434522   3.081   4.394   6.112 -0.2917  0.4109 -0.3806
 8688SOL     OW34523   6.398   4.058   0.014  0.4277 -0.4491  0.2964
 8688SOL    HW234524   6.313   4.047   0.056  0.4002 -0.7249  0.1711
 8688SOL    HW334525   6.462   4.044   0.083  0.4214 -2.1770  0.0154
 8688SOL    MW434526   6.396   4.055   0.028  0.4233 -0.7135  0.2428
 8689SOL     OW34527   2.025   1.667   2.143  0.4115 -0.3998  0.3898
 8689SOL    HW234528   2.036   1.574   2.122  0.1513 -0.0861 -1.3579
 8689SOL    HW334529   2.092   1.712   2.091 -0.3831  0.4837  0.0824
 8689SOL    MW434530   2.035   1.661   2.133  0.2723 -0.2419  0.1186
 8690SOL     OW34531   1.297   0.611   4.351 -0.0177 -0.2461  0.3922
 8690SOL    HW234532   1.266   0.575   4.434 -1.3411  0.0804  0.0492
 8690SOL    HW334533   1.233   0.678   4.328  0.2526 -0.4316 -0.9768
 8690SOL    MW434534   1.285   0.615   4.359 -0.1566 -0.2275  0.1663
 8691SOL     OW34535   0.491   0.121   1.262 -0.1824  0.0427  0.1504
 8691SOL    HW234536   0.482   0.047   1.321 -0.6160  0.8863  1.1715
 8691SOL    HW334537   0.401   0.142   1.236  0.0167 -0.4816 -1.0448
 8691SOL    MW434538   0.478   0.114   1.266 -0.2133  0.0848  0.1274
 8692SOL     OW34539   3.888   3.694   1.588 -0.5922 -0.2633  0.0762
 8692SOL    HW234540   3.896   3.602   1.562  1.4427 -0.4944  1.2532
 8692SOL    HW334541   3.930   3.698   1.674 -2.3321  1.4391  0.9289
 8692SOL    MW434542   3.895   3.682   1.596 -0.5533 -0.0692  0.3440
 8693SOL     OW34543   5.797   3.980   4.368  0.0759  0.1831 -0.0223
 8693SOL    HW234544   5.848   4.043   4.316  0.9757 -0.1217  0.4617
 8693SOL    HW334545   5.819   3.895   4.330 -1.6452  0.1662 -1.1054
 8693SOL    MW434546   5.807   3.977   4.356 -0.0325  0.1407 -0.1014
 8694SOL     OW34547   0.557   1.707   3.791 -0.8147  0.0139 -0.6789
 8694SOL    HW234548   0.625   1.763   3.754  1.0784 -1.4947  0.3520
 8694SOL    HW334549   0.555   1.630   3.734  2.5637 -2.6219  2.3673
 8694SOL    MW434550   0.565   1.705   3.779 -0.1192 -0.5329 -0.1409
 8695SOL     OW34551   2.183   6.171   2.074 -0.1500 -0.0675  0.1677
 8695SOL    HW234552   2.205   6.079   2.063 -1.6139 -0.3403 -0.7678
 8695SOL    HW334553   2.098   6.181   2.031  1.1600  2.2787 -2.1474
 8695SOL    MW434554   2.175   6.160   2.067 -0.1703  0.2060 -0.2612
 8696SOL     OW34555   4.767   4.739   5.260  0.3039  0.2062  0.6268
 8696SOL    HW234556   4.720   4.657   5.273 -0.7567  0.6683 -0.0753
 8696SOL    HW334557   4.700   4.799   5.226  1.2607  1.0959  0.2681
 8696SOL    MW434558   4.752   4.736   5.257  0.2902  0.3846  0.4869
 8697SOL     OW34559   1.197   5.969   5.199  0.5321  0.0265  0.1507
 8697SOL    HW234560   1.242   5.943   5.279  1.4144 -0.6880 -0.5624
 8697SOL    HW334561   1.104   5.964   5.222  0.7712 -0.2580  1.1053
 8697SOL    MW434562   1.190   5.965   5.212  0.6800 -0.1053  0.1826
 8698SOL     OW34563   4.057   0.894   4.051  0.0017 -0.0054 -0.0187
 8698SOL    HW234564   4.153   0.893   4.045  0.0087  0.3964  0.0158
 8698SOL    HW334565   4.030   0.969   3.998 -0.3304 -0.4367 -0.4694
 8698SOL    MW434566   4.066   0.904   4.043 -0.0412 -0.0093 -0.0736
 8699SOL     OW34567   4.925   4.929   4.158  0.1305  0.2835  0.0295
 8699SOL    HW234568   4.854   4.919   4.096  0.2922  1.4013 -0.3535
 8699SOL    HW334569   4.883   4.959   4.239  0.0580 -0.0241  0.1073
 8699SOL    MW434570   4.910   4.932   4.161  0.1422  0.3904 -0.0107
 8700SOL     OW34571   3.121   0.942   0.155  0.9520  0.4931  0.1128
 8700SOL    HW234572   3.188   0.903   0.210 -0.2104 -0.3461  0.9889
 8700SOL    HW334573   3.076   1.004   0.213 -0.5710 -0.7208  0.2996
 8700SOL    MW434574   3.124   0.945   0.170  0.5977  0.2222  0.2530
 8701SOL     OW34575   2.197   4.573   0.062  0.1056 -0.2453 -0.2831
 8701SOL    HW234576   2.123   4.619   0.103 -0.0750  0.9098 -1.8243
 8701SOL    HW334577   2.176   4.480   0.073 -1.0544  0.0589  0.2190
 8701SOL    MW434578   2.184   4.566   0.069 -0.0712 -0.0528 -0.4202
 8702SOL     OW34579   1.641   4.691   1.809 -0.4807 -0.1075  0.1741
 8702SOL    HW234580   1.591   4.613   1.784 -0.4033  0.1461 -0.8183
 8702SOL    HW334581   1.606   4.760   1.753  1.3142 -0.0318 -0.9051
 8702SOL    MW434582   1.630   4.689   1.799 -0.2337 -0.0640 -0.0992
 8703SOL     OW34583   4.854   1.870   4.713 -0.2630 -0.2880 -0.7444
 8703SOL    HW234584   4.855   1.912   4.627  1.0467 -0.0110 -0.6167
 8703SOL    HW334585   4.809   1.933   4.770  1.1467  0.7134 -0.6856
 8703SOL    MW434586   4.848   1.884   4.709  0.0958 -0.1193 -0.7198
 8704SOL     OW34587   4.729   2.673   1.150  0.1022  0.0634 -0.0613
 8704SOL    HW234588   4.644   2.679   1.105  0.8000  1.6855 -1.2421
 8704SOL    HW334589   4.706   2.678   1.243 -1.0917  0.9744 -0.3653
 8704SOL    MW434590   4.715   2.675   1.156  0.0367  0.3976 -0.2572
 8705SOL     OW34591   5.199   1.175   4.900 -0.4055 -0.2380  0.4657
 8705SOL    HW234592   5.110   1.199   4.922 -0.2081 -0.4026  1.5337
 8705SOL    HW334593   5.254   1.225   4.961  0.5243  2.7126 -2.5112
 8705SOL    MW434594   5.195   1.184   4.911 -0.2568  0.1296  0.2138
 8706SOL     OW34595   1.278   3.949   1.207 -0.1404  0.1349  0.3249
 8706SOL    HW234596   1.303   3.866   1.246  0.7423  0.2230 -0.0410
 8706SOL    HW334597   1.344   3.966   1.140 -1.3903  0.1775 -0.9508
 8706SOL    MW434598   1.290   3.941   1.203 -0.1888  0.1522  0.1083
 8707SOL     OW34599   0.423   3.722   0.816 -0.4502 -0.1431  0.4335
 8707SOL    HW234600   0.458   3.810   0.819 -0.3727 -0.1449 -0.2316
 8707SOL    HW334601   0.479   3.675   0.754  1.9661 -1.7842  3.5660
 8707SOL    MW434602   0.435   3.727   0.808 -0.1212 -0.3598  0.7591
 8708SOL     OW34603   6.369   2.385   4.233  0.6276  0.2818  0.1238
 8708SOL    HW234604   6.421   2.323   4.285  0.2755 -1.5608 -1.5671
 8708SOL    HW334605   6.323   2.329   4.169  0.6325  2.3526 -1.8020
 8708SOL    MW434606   6.369   2.369   4.231  0.5818  0.3119 -0.3534
 8709SOL     OW34607   0.633   2.911   2.096  0.1078 -0.3215 -0.0100
 8709SOL    HW234608   0.671   2.863   2.169 -0.3004  0.7888  0.9717
 8709SOL    HW334609   0.687   2.989   2.088 -0.0555 -0.2725 -0.6798
 8709SOL    MW434610   0.645   2.915   2.105  0.0324 -0.1685  0.0311
 8710SOL     OW34611   1.362   5.453   3.100  0.0900 -0.0656 -0.0320
 8710SOL    HW234612   1.319   5.493   3.176  0.5553 -0.8167  0.6424
 8710SOL    HW334613   1.453   5.444   3.127  0.0277 -1.4347 -0.2074
 8710SOL    MW434614   1.368   5.457   3.114  0.1432 -0.3453  0.0339
 8711SOL     OW34615   1.185   4.706   4.915  0.5495 -0.4472  0.3670
 8711SOL    HW234616   1.157   4.722   5.005  2.2071 -0.9400  0.9961
 8711SOL    HW334617   1.223   4.618   4.917 -0.2010 -0.8342 -1.0261
 8711SOL    MW434618   1.186   4.696   4.927  0.6692 -0.5632  0.2662
 8712SOL     OW34619   3.422   4.382   2.126 -0.0873 -0.0730 -0.0661
 8712SOL    HW234620   3.437   4.386   2.032 -0.7133  2.2320 -0.1230
 8712SOL    HW334621   3.469   4.457   2.162  0.1587 -0.9239  1.4743
 8712SOL    MW434622   3.430   4.392   2.119 -0.1374  0.1189  0.1297
 8713SOL     OW34623   4.973   2.592   0.877  0.4288  0.6584 -0.3247
 8713SOL    HW234624   4.988   2.513   0.928  1.3703  1.2523  0.3551
 8713SOL    HW334625   5.056   2.608   0.832  1.0541  2.4811  1.3242
 8713SOL    MW434626   4.986   2.584   0.878  0.6355  0.9773 -0.0175
 8714SOL     OW34627   3.810   0.014   0.754  0.6330 -0.2773 -0.1878
 8714SOL    HW234628   3.872   0.084   0.732  0.3624  0.8620  2.3021
 8714SOL    HW334629   3.725   0.057   0.755  0.1151 -1.2531 -1.0566
 8714SOL    MW434630   3.807   0.029   0.751  0.5289 -0.2557  0.0261
 8715SOL     OW34631   3.469   6.380   0.498  0.2316 -0.4132 -0.2463
 8715SOL    HW234632   3.379   6.396   0.471  0.1310 -0.6736 -0.0658
 8715SOL    HW334633   3.477   6.421   0.584 -0.2232 -1.8774  0.5266
 8715SOL    MW434634   3.458   6.387   0.506  0.1583 -0.6408 -0.1205
 8716SOL     OW34635   2.619   0.249   3.419  0.0453 -0.0968  0.0015
 8716SOL    HW234636   2.607   0.185   3.489 -0.4113 -0.6773 -0.5932
 8716SOL    HW334637   2.532   0.258   3.380  0.2498  0.3833 -0.3551
 8716SOL    MW434638   2.606   0.242   3.423  0.0121 -0.1100 -0.1240
 8717SOL     OW34639   0.425   2.579   1.456  0.1196  0.3400 -0.5447
 8717SOL    HW234640   0.496   2.523   1.425  0.4807  0.4582  0.0576
 8717SOL    HW334641   0.379   2.525   1.521  1.4396  1.2586  1.2507
 8717SOL    MW434642   0.428   2.564   1.461  0.3414  0.4768 -0.2283
 8718SOL     OW34643   3.935   6.029   5.022 -0.3591  1.0036 -0.0994
 8718SOL    HW234644   3.937   6.036   5.117 -2.2251  1.5294 -0.0717
 8718SOL    HW334645   3.969   5.941   5.004 -0.1644  0.8297  1.0490
 8718SOL    MW434646   3.940   6.018   5.032 -0.5796  1.0500  0.0558
 8719SOL     OW34647   4.073   4.954   1.186  0.5906 -0.3824 -0.5130
 8719SOL    HW234648   4.097   4.862   1.172  1.7333 -0.5247  1.8971
 8719SOL    HW334649   4.014   4.952   1.262  0.6195  0.8622 -0.4376
 8719SOL    MW434650   4.068   4.941   1.194  0.7452 -0.2369 -0.1851
 8720SOL     OW34651   4.441   2.649   1.114  0.1319  0.3589  0.1586
 8720SOL    HW234652   4.449   2.572   1.170  2.5122  1.8913  2.1449
 8720SOL    HW334653   4.388   2.710   1.164  0.9695  1.1755  0.0827
 8720SOL    MW434654   4.435   2.647   1.128  0.5565  0.6688  0.4106
 8721SOL     OW34655   3.858   1.381   2.400  0.1020  0.4214 -0.1278
 8721SOL    HW234656   3.866   1.367   2.305  1.5429  0.7823 -0.0802
 8721SOL    HW334657   3.850   1.292   2.436  1.8206  0.1074 -0.4293
 8721SOL    MW434658   3.858   1.367   2.392  0.5189  0.4276 -0.1613
 8722SOL     OW34659   3.020   2.377   2.477 -0.3519 -0.3235 -0.7336
 8722SOL    HW234660   2.934   2.397   2.439 -1.6831 -0.1156  2.1168
 8722SOL    HW334661   3.005   2.378   2.571  2.8637 -0.0914 -0.1176
 8722SOL    MW434662   3.007   2.380   2.484 -0.1033 -0.2655 -0.2763
 8723SOL     OW34663   0.126   1.911   3.521 -0.8180 -0.0458  0.1428
 8723SOL    HW234664   0.080   1.828   3.529  2.0045 -1.9697 -1.8260
 8723SOL    HW334665   0.074   1.962   3.459 -1.8807 -0.8930  0.3149
 8723SOL    MW434666   0.113   1.907   3.514 -0.5858 -0.4114 -0.0942
 8724SOL     OW34667   1.991   2.195   5.381 -0.4331  0.2776  0.0209
 8724SOL    HW234668   2.011   2.221   5.291  1.6149 -0.1883  0.2878
 8724SOL    HW334669   1.963   2.104   5.374  0.5784 -0.0379 -0.0826
 8724SOL    MW434670   1.990   2.187   5.368 -0.0294  0.1745  0.0425
 8725SOL     OW34671   5.417   3.123   0.242  0.0420  0.0938 -0.1094
 8725SOL    HW234672   5.386   3.037   0.270 -1.2690  0.5753 -0.0323
 8725SOL    HW334673   5.365   3.185   0.293 -1.0620  0.9653 -2.1750
 8725SOL    MW434674   5.406   3.120   0.252 -0.2767  0.2723 -0.3717
 8726SOL     OW34675   6.267   2.826   3.286 -0.2020 -0.1770 -0.0133
 8726SOL    HW234676   6.179   2.831   3.325  0.0474  1.3137  0.4210
 8726SOL    HW334677   6.271   2.899   3.225  0.9104  0.0947  0.3527
 8726SOL    MW434678   6.256   2.836   3.283 -0.0223  0.0555  0.0923
 8727SOL     OW34679   4.999   4.821   2.566 -0.1009 -0.3346  0.5654
 8727SOL    HW234680   4.961   4.740   2.599  0.2078 -1.0020 -0.6753
 8727SOL    HW334681   5.032   4.799   2.479 -1.0421  1.3951 -0.2871
 8727SOL    MW434682   4.998   4.808   2.559 -0.1843 -0.1945  0.2892
 8728SOL     OW34683   0.476   2.761   5.926  0.1110 -0.3463  0.1692
 8728SOL    HW234684   0.544   2.810   5.972  0.6287  0.6212 -1.5271
 8728SOL    HW334685   0.406   2.750   5.990  0.9264  0.6533  1.2640
 8728SOL    MW434686   0.476   2.766   5.940  0.2869 -0.0868  0.0898
 8729SOL     OW34687   1.001   0.124   3.923  0.0114  0.2397  0.0289
 8729SOL    HW234688   0.969   0.199   3.873 -1.3060 -0.5145 -0.3245
 8729SOL    HW334689   1.095   0.138   3.932  0.2140  0.6689 -2.2029
 8729SOL    MW434690   1.009   0.136   3.918 -0.1357  0.1968 -0.3122
 8730SOL     OW34691   4.894   1.658   2.364  0.6873 -0.2891 -0.5323
 8730SOL    HW234692   4.803   1.630   2.373  0.7663  0.0795  1.9721
 8730SOL    HW334693   4.945   1.578   2.379  0.7945  0.0415  1.0369
 8730SOL    MW434694   4.889   1.644   2.367  0.7118 -0.1968  0.0052
 8731SOL     OW34695   1.238   2.389   5.960 -0.1739 -0.2698 -0.5841
 8731SOL    HW234696   1.318   2.395   6.013  0.1267  1.1194 -1.1395
 8731SOL    HW334697   1.170   2.365   6.023  0.0100  2.1535  0.6585
 8731SOL    MW434698   1.240   2.387   5.976 -0.1100  0.2332 -0.4934
 8732SOL     OW34699   5.093   2.065   2.219 -0.2403  0.6618  0.2957
 8732SOL    HW234700   5.055   2.149   2.195  1.5006  1.6198  0.7113
 8732SOL    HW334701   5.182   2.067   2.184 -0.1304 -0.9928  0.3661
 8732SOL    MW434702   5.100   2.076   2.212  0.0039  0.5699  0.3598
 8733SOL     OW34703   3.058   5.450   5.036 -0.0103 -0.1821 -0.6504
 8733SOL    HW234704   3.136   5.424   5.086 -0.6075  1.2012  1.1092
 8733SOL    HW334705   3.077   5.539   5.007 -0.6430 -0.1147 -0.8603
 8733SOL    MW434706   3.071   5.459   5.039 -0.1726  0.0093 -0.4460
 8734SOL     OW34707   3.378   1.218   4.958  0.0881 -0.3854  0.2783
 8734SOL    HW234708   3.434   1.255   4.890  1.3631 -0.6129  1.1696
 8734SOL    HW334709   3.409   1.259   5.039 -0.7751 -0.8233  0.8413
 8734SOL    MW434710   3.389   1.228   4.960  0.1425 -0.4732  0.4702
 8735SOL     OW34711   6.193   6.226   0.116  0.0141  0.1390  0.2793
 8735SOL    HW234712   6.133   6.294   0.147  1.5174  0.7561  1.9253
 8735SOL    HW334713   6.168   6.147   0.165 -0.1419  0.1140  0.1622
 8735SOL    MW434714   6.182   6.224   0.126  0.1919  0.2171  0.4810
 8736SOL     OW34715   5.453   3.557   0.117  0.0338  0.3532 -0.2542
 8736SOL    HW234716   5.359   3.571   0.120  0.2806  3.0260 -1.3184
 8736SOL    HW334717   5.469   3.516   0.032 -0.1413  0.1013 -0.1657
 8736SOL    MW434718   5.443   3.554   0.106  0.0433  0.6726 -0.3829
 8737SOL     OW34719   0.285   2.717   6.151 -0.8132  0.3399  0.5337
 8737SOL    HW234720   0.310   2.629   6.179 -1.1639 -0.3516 -1.1760
 8737SOL    HW334721   0.306   2.774   6.225 -0.2416 -1.1326  1.5274
 8737SOL    MW434722   0.291   2.713   6.164 -0.7840  0.0543  0.4392
 8738SOL     OW34723   6.287   3.980   1.897  0.1884  1.0190  0.1103
 8738SOL    HW234724   6.289   3.965   1.992  0.1215  0.9079  0.0945
 8738SOL    HW334725   6.335   4.063   1.885  3.0353 -0.5389 -0.0843
 8738SOL    MW434726   6.294   3.989   1.908  0.5552  0.7988  0.0825
 8739SOL     OW34727   2.433   0.135   0.994 -0.0394 -0.0084  0.0688
 8739SOL    HW234728   2.463   0.201   1.056  1.9185 -0.5721 -0.2242
 8739SOL    HW334729   2.495   0.063   1.003 -1.2154 -1.1692 -0.7382
 8739SOL    MW434730   2.445   0.135   1.003  0.0638 -0.2359 -0.0763
 8740SOL     OW34731   4.823   4.599   4.932  0.5104 -0.5067  0.1539
 8740SOL    HW234732   4.833   4.543   4.856  1.7472 -1.2223  0.8035
 8740SOL    HW334733   4.786   4.542   5.000  2.0639 -0.6801  0.9102
 8740SOL    MW434734   4.819   4.584   4.931  0.8786 -0.6240  0.3394
 8741SOL     OW34735   0.290   1.529   1.140 -0.4473  0.2294  0.4560
 8741SOL    HW234736   0.297   1.501   1.049  0.5151  0.2411  0.5144
 8741SOL    HW334737   0.268   1.449   1.188  0.7255 -0.1257  0.4217
 8741SOL    MW434738   0.288   1.515   1.134 -0.1656  0.1841  0.4592
 8742SOL     OW34739   0.139   3.809   4.127  0.1162 -0.0607  0.3431
 8742SOL    HW234740   0.130   3.903   4.136  1.2282  0.1212 -0.2468
 8742SOL    HW334741   0.094   3.773   4.204 -0.1742  0.9466  0.6593
 8742SOL    MW434742   0.132   3.816   4.139  0.2246  0.0962  0.3070
 8743SOL     OW34743   5.049   1.842   1.617  0.2243 -0.1594 -1.2075
 8743SOL    HW234744   5.005   1.763   1.587  0.1322 -0.0075 -1.4785
 8743SOL    HW334745   4.982   1.910   1.613  0.2887 -0.0775 -0.9277
 8743SOL    MW434746   5.035   1.841   1.612  0.2207 -0.1285 -1.2063
 8744SOL     OW34747   5.170   4.003   3.960  0.1452  0.0734 -0.3296
 8744SOL    HW234748   5.180   4.091   3.922  0.2260  0.0766 -0.3015
 8744SOL    HW334749   5.221   4.006   4.041 -0.5209  0.2562  0.0939
 8744SOL    MW434750   5.178   4.015   3.965  0.0680  0.0980 -0.2700
 8745SOL     OW34751   4.484   3.158   3.246 -0.3442  0.5681  0.3071
 8745SOL    HW234752   4.512   3.232   3.192  0.3793  1.5984  2.0311
 8745SOL    HW334753   4.534   3.167   3.327 -0.1007 -1.9229  0.5055
 8745SOL    MW434754   4.495   3.169   3.249 -0.2166  0.3754  0.5607
 8746SOL     OW34755   1.049   3.477   5.529 -0.4421  0.2159  0.2358
 8746SOL    HW234756   0.955   3.495   5.529 -0.9457 -2.0218 -1.3010
 8746SOL    HW334757   1.075   3.483   5.437  0.2659 -2.0732  0.2400
 8746SOL    MW434758   1.040   3.480   5.517 -0.4151 -0.3813  0.0336
 8747SOL     OW34759   0.689   6.288   5.234  0.3101 -0.5814  0.3536
 8747SOL    HW234760   0.679   6.234   5.155  1.0609  0.6829 -0.6460
 8747SOL    HW334761   0.645   6.370   5.213 -0.3109 -0.5666  1.6338
 8747SOL    MW434762   0.682   6.291   5.221  0.3273 -0.4127  0.3906
 8748SOL     OW34763   3.697   3.293   2.204  0.0663  0.2427 -0.5047
 8748SOL    HW234764   3.676   3.201   2.188 -1.6916  0.8404 -1.9773
 8748SOL    HW334765   3.733   3.324   2.121  1.4830  0.7054  0.2481
 8748SOL    MW434766   3.699   3.285   2.191  0.0213  0.3826 -0.5996
 8749SOL     OW34767   1.580   0.584   5.048 -0.1026 -0.0750 -0.0346
 8749SOL    HW234768   1.640   0.599   4.975 -0.4319  0.1485 -0.2590
 8749SOL    HW334769   1.520   0.516   5.017  0.2557 -0.5751  0.3257
 8749SOL    MW434770   1.580   0.577   5.034 -0.0988 -0.1115 -0.0167
 8750SOL     OW34771   1.014   4.007   6.347 -0.3712 -0.2600  0.2953
 8750SOL    HW234772   0.975   4.033   6.264 -0.0959  1.4592  0.6815
 8750SOL    HW334773   1.035   4.089   6.391 -0.8020 -1.1184  2.2133
 8750SOL    MW434774   1.011   4.021   6.342 -0.3917 -0.1465  0.5993
 8751SOL     OW34775   0.219   4.381   4.456 -0.7916 -0.3125 -0.2033
 8751SOL    HW234776   0.313   4.368   4.444 -0.9838 -0.9859 -1.0499
 8751SOL    HW334777   0.213   4.458   4.514  0.3427 -1.8443  2.1373
 8751SOL    MW434778   0.231   4.389   4.462 -0.6673 -0.6035 -0.0062
 8752SOL     OW34779   2.379   6.074   3.362  0.2358  0.0712  0.3489
 8752SOL    HW234780   2.402   6.131   3.436  1.0273 -0.4094  0.4847
 8752SOL    HW334781   2.435   5.997   3.373  0.8011  0.2473 -1.0818
 8752SOL    MW434782   2.390   6.072   3.374  0.4148  0.0310  0.1781
 8753SOL     OW34783   3.048   3.433   1.894  0.4444 -0.0423 -0.3670
 8753SOL    HW234784   3.057   3.436   1.798 -0.0080 -0.8903 -0.4430
 8753SOL    HW334785   2.969   3.485   1.912  0.9829  0.7932 -0.3768
 8753SOL    MW434786   3.039   3.440   1.883  0.4558 -0.0439 -0.3783
 8754SOL     OW34787   2.580   1.461   3.299 -0.3020 -0.1703 -0.2893
 8754SOL    HW234788   2.494   1.492   3.329 -0.3254 -0.8681  0.3812
 8754SOL    HW334789   2.633   1.456   3.378  0.8597  1.7338 -0.8785
 8754SOL    MW434790   2.576   1.464   3.313 -0.1518 -0.0112 -0.2786
 8755SOL     OW34791   1.963   5.591   3.889 -0.6128 -0.0363 -0.6429
 8755SOL    HW234792   2.023   5.519   3.908 -1.3911 -0.4343  0.3978
 8755SOL    HW334793   1.980   5.655   3.957  0.0972  0.8119 -1.5842
 8755SOL    MW434794   1.973   5.590   3.900 -0.6219  0.0231 -0.6298
 8756SOL     OW34795   1.757   0.083   0.837  0.4389  0.0204  0.1473
 8756SOL    HW234796   1.800   0.009   0.793  0.8869  0.8091 -0.7504
 8756SOL    HW334797   1.755   0.057   0.930 -1.0377 -1.9098 -0.3615
 8756SOL    MW434798   1.763   0.069   0.844  0.3032 -0.1302 -0.0383
 8757SOL     OW34799   1.624   6.383   4.175 -0.3713 -0.1274  0.3975
 8757SOL    HW234800   1.645   6.476   4.167 -1.2455 -0.0478 -2.2337
 8757SOL    HW334801   1.706   6.337   4.156  0.5585 -0.0218  3.5689
 8757SOL    MW434802   1.637   6.389   4.171 -0.3639 -0.1029  0.4688
 8758SOL     OW34803   0.788   2.397   4.159 -0.7595 -0.0431 -0.3337
 8758SOL    HW234804   0.861   2.351   4.199 -1.6895 -2.5893 -1.4102
 8758SOL    HW334805   0.734   2.426   4.233 -0.2409 -0.8357  0.3605
 8758SOL    MW434806   0.790   2.395   4.174 -0.8137 -0.4836 -0.3842
 8759SOL     OW34807   2.342   0.339   5.038 -0.0505  0.1975 -0.5177
 8759SOL    HW234808   2.251   0.325   5.062 -0.4075  0.6894 -1.5559
 8759SOL    HW334809   2.377   0.394   5.108  0.0426 -1.6771  0.9998
 8759SOL    MW434810   2.335   0.344   5.051 -0.0853  0.0151 -0.4545
 8760SOL     OW34811   6.010   3.884   3.459  0.2362  0.2672 -0.4407
 8760SOL    HW234812   5.915   3.895   3.463 -0.3735 -3.6309 -0.8270
 8760SOL    HW334813   6.038   3.944   3.390 -1.5337  3.0536  1.0847
 8760SOL    MW434814   6.001   3.894   3.450 -0.0777  0.1205 -0.2904
 8761SOL     OW34815   0.789   5.207   0.728  0.3817 -0.0661  0.7178
 8761SOL    HW234816   0.732   5.245   0.795  1.2788  0.3716  1.2632
 8761SOL    HW334817   0.862   5.170   0.778  1.7374  1.4395 -0.0526
 8761SOL    MW434818   0.791   5.207   0.744  0.6789  0.1903  0.6881
 8762SOL     OW34819   4.151   4.586   4.096 -0.2128 -0.2777  0.7112
 8762SOL    HW234820   4.196   4.668   4.077  0.6592 -0.7453  0.6830
 8762SOL    HW334821   4.071   4.589   4.044 -1.1780  1.4046  2.2023
 8762SOL    MW434822   4.146   4.597   4.087 -0.2251 -0.1174  0.9042
 8763SOL     OW34823   1.735   5.956   5.795 -0.7228 -0.6126 -0.0530
 8763SOL    HW234824   1.679   5.990   5.864  0.2942  3.6722 -1.0633
 8763SOL    HW334825   1.821   5.946   5.837 -0.1883  1.6609 -0.4631
 8763SOL    MW434826   1.739   5.959   5.810 -0.5181  0.2527 -0.2404
 8764SOL     OW34827   3.068   3.202   0.148 -0.4668 -0.1224  0.0713
 8764SOL    HW234828   2.980   3.165   0.155 -1.1391  1.1694 -1.0430
 8764SOL    HW334829   3.083   3.245   0.232 -0.8595 -0.4425  0.3031
 8764SOL    MW434830   3.059   3.203   0.160 -0.6073  0.0058 -0.0451
 8765SOL     OW34831   4.791   5.088   1.917 -0.8541 -0.2449 -0.1727
 8765SOL    HW234832   4.817   5.001   1.948 -0.6765 -0.0812  0.1414
 8765SOL    HW334833   4.862   5.115   1.858 -0.3929  0.1206  0.5359
 8765SOL    MW434834   4.804   5.080   1.913 -0.7698 -0.1751 -0.0378
 8766SOL     OW34835   6.027   1.400   2.737  0.5715 -0.6424 -0.6621
 8766SOL    HW234836   6.060   1.489   2.727  0.1151 -0.3750  0.1286
 8766SOL    HW334837   6.084   1.361   2.804  0.7546 -0.9463 -0.9879
 8766SOL    MW434838   6.039   1.407   2.745  0.5354 -0.6472 -0.6007
 8767SOL     OW34839   2.866   4.119   5.443  0.1513  0.6308  0.1822
 8767SOL    HW234840   2.910   4.192   5.486 -1.5035  2.5253 -1.1188
 8767SOL    HW334841   2.859   4.146   5.352 -2.1290 -0.3083  0.0084
 8767SOL    MW434842   2.871   4.132   5.437 -0.3679  0.7568 -0.0124
 8768SOL     OW34843   2.564   4.067   3.178  0.1460 -0.4590  0.7671
 8768SOL    HW234844   2.605   4.152   3.164 -0.2597 -0.1615  1.3423
 8768SOL    HW334845   2.591   4.014   3.103 -0.0744  0.3525  0.1109
 8768SOL    MW434846   2.573   4.071   3.166  0.0634 -0.3127  0.7564
 8769SOL     OW34847   1.996   0.701   2.841 -0.0325 -1.0874 -0.5720
 8769SOL    HW234848   1.916   0.653   2.865 -0.4225 -0.0269  0.3372
 8769SOL    HW334849   1.967   0.765   2.776  0.3981 -1.7145 -1.4158
 8769SOL    MW434850   1.982   0.703   2.835 -0.0272 -1.0303 -0.5634
 8770SOL     OW34851   1.249   5.413   2.790  0.3057  0.0019  0.0372
 8770SOL    HW234852   1.199   5.374   2.862  1.3845 -1.1276  0.2287
 8770SOL    HW334853   1.317   5.348   2.771  1.3283  1.2086 -0.6036
 8770SOL    MW434854   1.252   5.399   2.797  0.5829  0.0121 -0.0221
 8771SOL     OW34855   3.224   2.779   0.655 -0.2104 -0.3636 -0.2202
 8771SOL    HW234856   3.210   2.700   0.708 -0.5231 -0.3967 -0.3498
 8771SOL    HW334857   3.235   2.746   0.566 -0.2322 -0.2691 -0.2575
 8771SOL    MW434858   3.223   2.764   0.650 -0.2545 -0.3555 -0.2422
 8772SOL     OW34859   1.424   5.372   2.447 -0.2040  0.4417 -0.0281
 8772SOL    HW234860   1.352   5.425   2.415 -0.4080 -0.1206 -0.5135
 8772SOL    HW334861   1.483   5.364   2.372  1.1858  2.2342  0.8019
 8772SOL    MW434862   1.422   5.378   2.433 -0.0475  0.6040  0.0174
 8773SOL     OW34863   4.960   1.225   5.031  0.2814  0.1958  0.3723
 8773SOL    HW234864   4.925   1.281   4.962 -0.6542  1.0355  1.4816
 8773SOL    HW334865   4.906   1.146   5.028  1.3715 -0.5345 -0.9624
 8773SOL    MW434866   4.949   1.222   5.022  0.3018  0.2103  0.3426
 8774SOL     OW34867   4.960   1.985   5.057 -0.2617  0.1082  0.0680
 8774SOL    HW234868   4.983   1.900   5.020  2.4857  0.9854 -0.4229
 8774SOL    HW334869   4.975   1.975   5.151  4.5085  1.1270 -0.3465
 8774SOL    MW434870   4.965   1.972   5.065  0.7302  0.3584 -0.0515
 8775SOL     OW34871   0.391   1.664   3.210 -0.2920  0.1619  0.5809
 8775SOL    HW234872   0.478   1.691   3.238 -0.6371  0.5521  1.3254
 8775SOL    HW334873   0.364   1.731   3.147 -0.4764  0.6503  1.1647
 8775SOL    MW434874   0.399   1.677   3.206 -0.3619  0.2778  0.7561
 8776SOL     OW34875   2.294   5.288   3.214 -0.1133  0.3204 -0.1506
 8776SOL    HW234876   2.280   5.238   3.294  0.4713 -1.1033 -0.9096
 8776SOL    HW334877   2.215   5.274   3.162 -0.1425  0.5670 -0.1764
 8776SOL    MW434878   2.282   5.280   3.218 -0.0400  0.1651 -0.2542
 8777SOL     OW34879   4.881   0.405   5.821  0.2448  0.0796 -0.3827
 8777SOL    HW234880   4.830   0.327   5.841 -1.2079  1.2228  0.5582
 8777SOL    HW334881   4.847   0.435   5.736 -1.1380  1.1758  0.5213
 8777SOL    MW434882   4.870   0.399   5.812 -0.1293  0.3751 -0.1393
 8778SOL     OW34883   1.655   2.804   2.628 -0.1422 -0.3438  0.5010
 8778SOL    HW234884   1.640   2.721   2.672 -0.1436 -0.7753 -0.2805
 8778SOL    HW334885   1.567   2.836   2.607 -0.1271 -0.4010  0.3483
 8778SOL    MW434886   1.642   2.797   2.631 -0.1404 -0.4083  0.3777
 8779SOL     OW34887   3.969   0.583   5.027  0.0772  0.4555 -0.1449
 8779SOL    HW234888   3.920   0.630   5.094  0.4576  1.4605 -0.5454
 8779SOL    HW334889   3.977   0.494   5.060 -1.9237  0.2827 -0.0308
 8779SOL    MW434890   3.964   0.578   5.040 -0.1366  0.5653 -0.1827
 8780SOL     OW34891   5.665   4.662   4.952 -0.0945  0.0616  0.5649
 8780SOL    HW234892   5.729   4.678   5.022  0.5954 -1.0330  0.2011
 8780SOL    HW334893   5.715   4.669   4.871 -0.7147  0.4624  0.2063
 8780SOL    MW434894   5.680   4.665   4.951 -0.0853 -0.0300  0.4696
 8781SOL     OW34895   3.521   4.183   5.685 -0.2698 -0.0436  0.3139
 8781SOL    HW234896   3.494   4.172   5.776 -2.8038 -0.7846 -0.4323
 8781SOL    HW334897   3.439   4.202   5.638  1.1955  2.3008 -1.5513
 8781SOL    MW434898   3.507   4.184   5.691 -0.4108  0.1679 -0.0306
 8782SOL     OW34899   5.323   4.636   5.423  0.5404 -0.3468 -0.2334
 8782SOL    HW234900   5.406   4.609   5.382  0.1591 -2.1111  0.0417
 8782SOL    HW334901   5.256   4.613   5.359  0.1545 -0.4116  0.1852
 8782SOL    MW434902   5.325   4.629   5.409  0.4392 -0.5881 -0.1419
 8783SOL     OW34903   3.396   1.508   2.670 -0.1161 -0.3121 -0.0565
 8783SOL    HW234904   3.389   1.565   2.747 -1.6969 -0.7388  0.1492
 8783SOL    HW334905   3.416   1.422   2.706 -0.3328 -0.4102 -0.1723
 8783SOL    MW434906   3.398   1.504   2.685 -0.3533 -0.3814 -0.0446
 8784SOL     OW34907   4.609   4.181   4.836 -0.4759  0.5977  0.2804
 8784SOL    HW234908   4.520   4.217   4.832 -0.5386  0.3453 -0.7903
 8784SOL    HW334909   4.628   4.175   4.929 -1.4037  1.0985  0.5138
 8784SOL    MW434910   4.600   4.185   4.848 -0.6066  0.6305  0.1699
 8785SOL     OW34911   4.328   5.093   1.560  0.9639  0.5813 -0.6430
 8785SOL    HW234912   4.300   5.165   1.616 -0.6139  1.2525 -2.2033
 8785SOL    HW334913   4.423   5.102   1.555  1.1046  0.7556  1.5138
 8785SOL    MW434914   4.337   5.104   1.566  0.7743  0.6929 -0.5643
 8786SOL     OW34915   4.402   0.647   0.941  0.3719 -0.6116 -0.3863
 8786SOL    HW234916   4.338   0.608   0.880 -0.4878  1.1281 -0.6793
 8786SOL    HW334917   4.381   0.608   1.026  1.2270 -2.6648 -1.0475
 8786SOL    MW434918   4.391   0.637   0.944  0.3713 -0.6530 -0.5122
 8787SOL     OW34919   3.580   5.390   3.082 -0.3778  0.0691  0.2025
 8787SOL    HW234920   3.497   5.346   3.099 -0.4729 -0.0939 -0.6283
 8787SOL    HW334921   3.637   5.320   3.049 -1.2299  0.9156 -3.4274
 8787SOL    MW434922   3.577   5.375   3.080 -0.5028  0.1593 -0.3860
 8788SOL     OW34923   0.199   0.565   0.423  0.1566  0.1287  0.5985
 8788SOL    HW234924   0.107   0.587   0.404  0.1461 -0.1745  0.2808
 8788SOL    HW334925   0.194   0.480   0.467  0.3588 -0.5336 -0.6110
 8788SOL    MW434926   0.186   0.557   0.426  0.1819  0.0013  0.3970
 8789SOL     OW34927   3.404   1.631   3.384  0.0610  0.2247  0.6208
 8789SOL    HW234928   3.413   1.650   3.477 -0.5367  2.2513  0.3047
 8789SOL    HW334929   3.324   1.676   3.357 -0.4277 -1.3030 -0.6504
 8789SOL    MW434930   3.395   1.639   3.393 -0.0823  0.2905  0.4114
 8790SOL     OW34931   4.081   2.724   0.867  0.1795  0.5343 -0.1595
 8790SOL    HW234932   4.092   2.803   0.816  0.8321  1.3296  1.1563
 8790SOL    HW334933   4.107   2.653   0.808 -1.6465  1.1229 -1.7921
 8790SOL    MW434934   4.086   2.725   0.853  0.0246  0.7169 -0.2013
 8791SOL     OW34935   1.904   3.551   3.916  0.9903  0.3367 -0.3459
 8791SOL    HW234936   1.958   3.540   3.838 -0.4365  1.8622 -1.6231
 8791SOL    HW334937   1.856   3.469   3.924  0.6298  0.4175 -1.5223
 8791SOL    MW434938   1.904   3.539   3.907  0.7545  0.5486 -0.6696
 8792SOL     OW34939   0.613   5.642   0.464 -0.5792 -0.5067  0.0852
 8792SOL    HW234940   0.674   5.688   0.406 -0.1492  0.5452  1.3077
 8792SOL    HW334941   0.649   5.554   0.473  0.5507 -0.0304  0.4450
 8792SOL    MW434942   0.626   5.637   0.458 -0.3734 -0.3051  0.2940
 8793SOL     OW34943   1.532   3.011   5.594  0.3410 -0.0143 -0.1518
 8793SOL    HW234944   1.563   3.100   5.612 -0.3349  0.4211 -1.0547
 8793SOL    HW334945   1.452   3.023   5.542 -0.9353 -1.1049  1.4141
 8793SOL    MW434946   1.525   3.024   5.590  0.0834 -0.1007 -0.0643
 8794SOL     OW34947   5.590   5.414   1.395 -0.0801 -0.0358 -0.1909
 8794SOL    HW234948   5.684   5.433   1.401 -0.0224 -0.1550 -0.6724
 8794SOL    HW334949   5.585   5.320   1.378 -0.3512 -0.3539  1.5177
 8794SOL    MW434950   5.602   5.404   1.393 -0.1082 -0.0935 -0.0290
 8795SOL     OW34951   5.385   3.088   6.060 -0.7993  0.7471 -0.9608
 8795SOL    HW234952   5.296   3.065   6.087 -0.5721 -1.2699 -1.7652
 8795SOL    HW334953   5.441   3.043   6.123 -0.3342  0.8522 -1.2927
 8795SOL    MW434954   5.381   3.079   6.072 -0.7079  0.4949 -1.1107
 8796SOL     OW34955   0.435   2.384   5.050  0.1344 -0.8312  0.0693
 8796SOL    HW234956   0.486   2.434   5.113  2.7771 -3.0355 -0.1641
 8796SOL    HW334957   0.469   2.411   4.965 -1.0406 -0.3685 -0.2753
 8796SOL    MW434958   0.446   2.394   5.047  0.3280 -1.0610 -0.0069
 8797SOL     OW34959   0.547   4.230   5.854 -0.1451 -0.1028 -0.2213
 8797SOL    HW234960   0.505   4.218   5.939  1.0510 -0.6737  0.3174
 8797SOL    HW334961   0.548   4.325   5.842 -0.8554 -0.0443  0.1164
 8797SOL    MW434962   0.542   4.241   5.864 -0.0810 -0.1704 -0.1057
 8798SOL     OW34963   2.533   4.488   3.612 -0.3731  0.3279  0.4594
 8798SOL    HW234964   2.509   4.576   3.584 -0.8336  0.4100  1.0988
 8798SOL    HW334965   2.598   4.459   3.548 -2.0665  0.1375 -1.2548
 8798SOL    MW434966   2.539   4.496   3.600 -0.6573  0.3136  0.3176
 8799SOL     OW34967   1.379   6.085   1.802  0.3010 -0.0983  0.3505
 8799SOL    HW234968   1.290   6.076   1.838 -0.8155  1.7826 -1.6767
 8799SOL    HW334969   1.373   6.046   1.714  1.3849  0.3882  0.0483
 8799SOL    MW434970   1.366   6.079   1.795  0.2967  0.2141  0.0432
 8800SOL     OW34971   5.977   4.467   2.704 -0.0475  0.2190  0.4787
 8800SOL    HW234972   5.952   4.519   2.780 -0.5111  1.4450 -0.4743
 8800SOL    HW334973   5.894   4.446   2.661  0.1988 -0.5342  0.3517
 8800SOL    MW434974   5.963   4.471   2.708 -0.0762  0.2814  0.3362
 8801SOL     OW34975   0.288   0.480   4.104  0.8504  0.5152 -0.1789
 8801SOL    HW234976   0.317   0.553   4.157  0.4698  0.0139  0.7465
 8801SOL    HW334977   0.320   0.499   4.016  1.2207  1.5118  0.1657
 8801SOL    MW434978   0.296   0.492   4.099  0.8490  0.5806 -0.0113
 8802SOL     OW34979   0.149   4.446   3.071  0.2156 -0.1735 -0.2201
 8802SOL    HW234980   0.179   4.355   3.079  1.9873  0.3457 -0.5123
 8802SOL    HW334981   0.114   4.452   2.983  1.2401 -0.2710 -0.6413
 8802SOL    MW434982   0.148   4.435   3.061  0.5845 -0.1179 -0.3142
 8803SOL     OW34983   5.516   0.901   0.648 -0.1698  0.4208  0.0086
 8803SOL    HW234984   5.506   0.989   0.613  0.0306  0.4645  0.0629
 8803SOL    HW334985   5.599   0.903   0.696 -1.3059  0.8744  2.0595
 8803SOL    MW434986   5.526   0.913   0.650 -0.2933  0.4864  0.2863
 8804SOL     OW34987   6.100   4.387   2.277  0.1726  0.2773  0.7578
 8804SOL    HW234988   6.182   4.336   2.276  1.2332  1.8704  1.9726
 8804SOL    HW334989   6.037   4.329   2.318  1.5641  0.1781  2.9058
 8804SOL    MW434990   6.103   4.373   2.282  0.4961  0.4744  1.2015
 8805SOL     OW34991   5.037   5.868   6.095 -0.0960 -0.3114 -0.3663
 8805SOL    HW234992   5.100   5.883   6.024  1.4023  2.1659  1.3381
 8805SOL    HW334993   5.085   5.887   6.175 -1.7061 -3.0689  1.4231
 8805SOL    MW434994   5.051   5.872   6.096 -0.1107 -0.3484  0.0946
 8806SOL     OW34995   5.286   0.500   6.181  0.7875  0.8202  0.5216
 8806SOL    HW234996   5.264   0.493   6.274 -0.6783  1.2631  0.2301
 8806SOL    HW334997   5.231   0.434   6.139  0.8152  1.2031 -0.1178
 8806SOL    MW434998   5.276   0.491   6.188  0.5977  0.9291  0.3988
 8807SOL     OW34999   5.191   3.735   3.857 -0.1113  0.1489 -0.0988
 8807SOL    HW235000   5.175   3.829   3.857  2.0706  0.6060 -1.3579
 8807SOL    HW335001   5.287   3.728   3.861 -0.1253 -1.9528 -1.9900
 8807SOL    MW435002   5.202   3.747   3.858  0.1747 -0.0681 -0.5145
 8808SOL     OW35003   3.671   1.162   3.812  0.4030  0.5753  0.1354
 8808SOL    HW235004   3.689   1.250   3.845  2.2504  0.7510 -1.1709
 8808SOL    HW335005   3.622   1.176   3.731  1.5505  0.4700 -0.5902
 8808SOL    MW435006   3.667   1.176   3.805  0.7982  0.5846 -0.1326
 8809SOL     OW35007   0.475   6.032   2.964  0.1033  0.1141 -0.0947
 8809SOL    HW235008   0.400   5.977   2.939 -1.0351  1.2700  0.6310
 8809SOL    HW335009   0.532   6.032   2.887 -1.4281  0.4827 -1.2817
 8809SOL    MW435010   0.472   6.025   2.951 -0.2489  0.3152 -0.1555
 8810SOL     OW35011   2.635   3.630   2.960  0.4156 -0.0942 -0.0159
 8810SOL    HW235012   2.636   3.725   2.967  2.6961 -0.1301  1.3267
 8810SOL    HW335013   2.600   3.600   3.043 -1.3888 -0.4960 -0.8588
 8810SOL    MW435014   2.631   3.639   2.972  0.4784 -0.1519  0.0501
 8811SOL     OW35015   1.313   5.067   6.388  0.4192  0.0228  0.1727
 8811SOL    HW235016   1.287   5.067   6.296 -0.3436 -2.7423  0.2872
 8811SOL    HW335017   1.275   5.147   6.424 -0.2368  0.5781 -1.6536
 8811SOL    MW435018   1.305   5.078   6.381  0.2320 -0.2688 -0.0532
 8812SOL     OW35019   1.406   4.867   4.880 -0.3598 -0.0156  0.5606
 8812SOL    HW235020   1.403   4.940   4.941  0.0976  0.7384 -0.3027
 8812SOL    HW335021   1.334   4.810   4.907 -0.2554  0.3696  1.7077
 8812SOL    MW435022   1.396   4.869   4.892 -0.2857  0.1347  0.5981
 8813SOL     OW35023   4.915   3.025   2.874 -0.0274 -0.0780  0.2395
 8813SOL    HW235024   4.899   2.931   2.863 -1.9228  0.0785  1.1877
 8813SOL    HW335025   5.002   3.030   2.914 -0.2285 -1.4937  0.9405
 8813SOL    MW435026   4.924   3.013   2.878 -0.3040 -0.2442  0.4571
 8814SOL     OW35027   2.103   2.452   3.558  0.4798 -0.2269 -0.8032
 8814SOL    HW235028   2.045   2.396   3.609  0.9262  0.3498  0.3828
 8814SOL    HW335029   2.081   2.434   3.467 -1.4726 -0.1179 -0.3867
 8814SOL    MW435030   2.093   2.443   3.553  0.2811 -0.1364 -0.5917
 8815SOL     OW35031   0.091   4.067   4.123 -0.2078 -0.6698  1.0068
 8815SOL    HW235032   0.150   4.118   4.067 -0.1392 -1.8172 -0.0213
 8815SOL    HW335033   0.125   4.078   4.211  0.6992 -0.1676  0.6043
 8815SOL    MW435034   0.103   4.075   4.127 -0.0791 -0.7549  0.8180
 8816SOL     OW35035   0.548   5.450   6.333  0.0788 -0.4996 -0.5015
 8816SOL    HW235036   0.471   5.500   6.308  0.5959  0.7785  0.3965
 8816SOL    HW335037   0.516   5.384   6.395 -0.2799  0.0779 -0.0670
 8816SOL    MW435038   0.534   5.448   6.338  0.0997 -0.2548 -0.3257
 8817SOL     OW35039   1.919   3.154   1.267  0.4303 -0.0159  0.5432
 8817SOL    HW235040   1.910   3.161   1.362  1.3463  1.6595  0.5397
 8817SOL    HW335041   2.014   3.145   1.252  0.5265  1.8623 -0.2787
 8817SOL    MW435042   1.931   3.154   1.277  0.5638  0.4529  0.4343
 8818SOL     OW35043   3.500   3.629   6.266  0.1643 -0.5563 -0.1023
 8818SOL    HW235044   3.455   3.666   6.190 -0.4786 -0.3727  0.3550
 8818SOL    HW335045   3.591   3.656   6.256 -0.0130 -0.1079 -0.5405
 8818SOL    MW435046   3.506   3.637   6.254  0.0561 -0.4729 -0.0998
 8819SOL     OW35047   3.881   4.246   6.222  0.3117 -0.2680 -0.3718
 8819SOL    HW235048   3.817   4.304   6.181  1.3588  1.2809  0.1385
 8819SOL    HW335049   3.896   4.283   6.309  1.4574 -0.9516 -0.2633
 8819SOL    MW435050   3.875   4.258   6.228  0.6010 -0.1539 -0.2902
 8820SOL     OW35051   1.890   4.786   4.637 -0.2130 -0.1077 -0.3513
 8820SOL    HW235052   1.914   4.847   4.708  0.5226 -0.2336 -0.4793
 8820SOL    HW335053   1.801   4.759   4.657 -0.4431  0.7907 -0.1280
 8820SOL    MW435054   1.882   4.791   4.649 -0.1463 -0.0058 -0.3387
 8821SOL     OW35055   0.412   4.187   2.866  0.2393 -0.1748 -0.0310
 8821SOL    HW235056   0.339   4.175   2.927 -0.0032 -0.1164 -0.3043
 8821SOL    HW335057   0.380   4.252   2.803  0.1226 -0.9470 -0.7911
 8821SOL    MW435058   0.398   4.194   2.866  0.1919 -0.2690 -0.1673
 8822SOL     OW35059   5.444   2.434   6.159  0.2169  0.6408 -0.1372
 8822SOL    HW235060   5.416   2.375   6.229  0.8978  0.0098 -0.3780
 8822SOL    HW335061   5.522   2.391   6.122 -0.7871  0.3640 -2.0374
 8822SOL    MW435062   5.451   2.420   6.163  0.1742  0.5211 -0.4197
 8823SOL     OW35063   2.550   3.285   2.575 -0.8752  0.5779 -0.5513
 8823SOL    HW235064   2.584   3.310   2.489  0.7515  1.7647  0.3606
 8823SOL    HW335065   2.573   3.193   2.584 -0.2847  0.6688 -1.0562
 8823SOL    MW435066   2.558   3.276   2.565 -0.5827  0.7465 -0.4976
 8824SOL     OW35067   5.731   4.816   6.421 -0.4686 -0.3823 -0.2303
 8824SOL    HW235068   5.655   4.845   6.370 -0.3388  2.8328  1.1625
 8824SOL    HW335069   5.806   4.851   6.374 -0.0132 -1.3581 -0.2433
 8824SOL    MW435070   5.731   4.825   6.408 -0.3914 -0.0869 -0.0483
 8825SOL     OW35071   2.654   4.378   4.015 -0.0514 -0.0848 -0.2873
 8825SOL    HW235072   2.685   4.399   4.103  0.6498  0.8255 -0.7303
 8825SOL    HW335073   2.723   4.322   3.978 -0.9741 -1.5849  0.1861
 8825SOL    MW435074   2.667   4.373   4.021 -0.0807 -0.1626 -0.2833
 8826SOL     OW35075   3.128   1.687   6.337  0.5883 -0.3031  0.3208
 8826SOL    HW235076   3.188   1.717   6.269  0.2435 -1.6433 -0.6014
 8826SOL    HW335077   3.184   1.643   6.401  1.0143  1.6283  1.3508
 8826SOL    MW435078   3.143   1.685   6.337  0.5990 -0.2251  0.3351
 8827SOL     OW35079   2.846   1.493   5.631  0.0991 -0.3326 -0.0724
 8827SOL    HW235080   2.794   1.415   5.650  0.6718 -0.7329 -0.1292
 8827SOL    HW335081   2.789   1.547   5.577 -0.9419  0.0780  1.3955
 8827SOL    MW435082   2.832   1.490   5.626  0.0373 -0.3313  0.1138
 8828SOL     OW35083   4.699   2.002   0.528 -0.0652  0.2777  0.0707
 8828SOL    HW235084   4.629   1.938   0.516  0.6186 -0.9764  2.3099
 8828SOL    HW335085   4.772   1.968   0.476 -0.3314  0.3089 -0.3286
 8828SOL    MW435086   4.700   1.989   0.519 -0.0101  0.1163  0.3134
 8829SOL     OW35087   2.953   6.296   4.372  0.5634 -0.4216 -0.0824
 8829SOL    HW235088   2.972   6.226   4.435  0.2788 -0.5027 -0.0864
 8829SOL    HW335089   2.858   6.292   4.360  0.5224  0.0997  0.0697
 8829SOL    MW435090   2.943   6.286   4.378  0.5205 -0.3636 -0.0629
 8830SOL     OW35091   2.006   5.182   1.630  0.0072 -0.8683 -0.1176
 8830SOL    HW235092   1.917   5.191   1.595 -0.5656  0.5397  1.5720
 8830SOL    HW335093   2.039   5.271   1.633  0.9785 -1.2417  0.5228
 8830SOL    MW435094   1.998   5.195   1.626  0.0598 -0.7318  0.1898
 8831SOL     OW35095   5.643   4.529   4.319 -0.1497 -1.0047 -0.3533
 8831SOL    HW235096   5.568   4.586   4.335 -0.0970 -0.2493 -2.5606
 8831SOL    HW335097   5.605   4.442   4.308 -0.2484 -1.4910  2.7909
 8831SOL    MW435098   5.628   4.525   4.320 -0.1558 -0.9692 -0.2297
 8832SOL     OW35099   0.738   2.818   3.659  0.0013  0.1284 -0.5976
 8832SOL    HW235100   0.677   2.794   3.590 -2.2341  0.8196  1.0385
 8832SOL    HW335101   0.739   2.742   3.717  1.5080 -0.2598 -1.0793
 8832SOL    MW435102   0.730   2.805   3.657 -0.0948  0.1684 -0.4453
 8833SOL     OW35103   6.177   3.797   1.414 -0.3365  0.0957  0.0082
 8833SOL    HW235104   6.186   3.825   1.324 -0.7432  0.0753 -0.0442
 8833SOL    HW335105   6.146   3.874   1.461 -0.2384  0.0757  0.1066
 8833SOL    MW435106   6.174   3.811   1.409 -0.3772  0.0904  0.0143
 8834SOL     OW35107   5.233   2.476   1.450 -0.5849 -0.0889 -0.0841
 8834SOL    HW235108   5.259   2.556   1.495  1.0231 -0.9289  0.5482
 8834SOL    HW335109   5.147   2.497   1.412 -0.5150  1.6883  0.6369
 8834SOL    MW435110   5.225   2.490   1.451 -0.3635  0.0347  0.0945
 8835SOL     OW35111   3.007   6.369   2.779  0.2523 -0.5029 -0.0164
 8835SOL    HW235112   3.019   6.277   2.756 -0.0994 -0.5762  0.0943
 8835SOL    HW335113   3.083   6.390   2.834  1.0520 -0.3479 -1.1473
 8835SOL    MW435114   3.019   6.360   2.783  0.3114 -0.4921 -0.1510
 8836SOL     OW35115   2.397   6.421   4.021  0.6286 -0.1174 -0.3283
 8836SOL    HW235116   2.362   6.466   4.098 -0.3188  1.6835 -1.7455
 8836SOL    HW335117   2.453   6.486   3.979 -0.3035 -0.4231 -2.1272
 8836SOL    MW435118   2.400   6.435   4.026  0.3806  0.0799 -0.7526
 8837SOL     OW35119   1.772   4.247   2.957 -0.5508 -0.0253  0.0682
 8837SOL    HW235120   1.679   4.225   2.947 -0.7401  1.0518 -0.7123
 8837SOL    HW335121   1.797   4.285   2.873  0.2109  1.0330  0.7358
 8837SOL    MW435122   1.763   4.249   2.945 -0.4752  0.2564  0.0533
 8838SOL     OW35123   3.425   1.786   3.652  0.3402 -0.1411  0.3613
 8838SOL    HW235124   3.453   1.856   3.593  0.6631 -0.3960  0.2040
 8838SOL    HW335125   3.333   1.772   3.632  0.3029  0.1657  0.3186
 8838SOL    MW435126   3.417   1.793   3.642  0.3779 -0.1342  0.3349
 8839SOL     OW35127   4.225   4.824   3.142 -0.5231  0.8540  0.8019
 8839SOL    HW235128   4.174   4.744   3.130 -0.6912  0.7453  2.1163
 8839SOL    HW335129   4.171   4.878   3.199 -0.4736  1.9810 -0.1861
 8839SOL    MW435130   4.211   4.820   3.148 -0.5387  0.9884  0.8450
 8840SOL     OW35131   1.721   6.039   2.768 -0.5844 -0.1567  0.3049
 8840SOL    HW235132   1.632   6.015   2.795 -0.5532 -0.6883 -0.0555
 8840SOL    HW335133   1.758   6.083   2.844 -1.2159  0.2291  0.4030
 8840SOL    MW435134   1.714   6.042   2.782 -0.6636 -0.1760  0.2703
 8841SOL     OW35135   3.965   2.983   4.169 -0.3176 -0.0575  0.4219
 8841SOL    HW235136   4.009   3.011   4.250  0.5088 -0.4120  0.1050
 8841SOL    HW335137   3.979   2.889   4.165  1.1356  0.1804 -0.9883
 8841SOL    MW435138   3.972   2.974   4.180 -0.0168 -0.0729  0.1940
 8842SOL     OW35139   3.435   5.256   2.285  0.3617  0.2494  0.0789
 8842SOL    HW235140   3.431   5.271   2.191 -0.7645  2.8521  0.4566
 8842SOL    HW335141   3.461   5.164   2.294  0.5349 -0.0488 -2.7380
 8842SOL    MW435142   3.438   5.246   2.274  0.2360  0.5535 -0.2429
 8843SOL     OW35143   4.818   4.355   4.735 -0.0263 -0.1387  0.4300
 8843SOL    HW235144   4.740   4.316   4.773 -0.6346  1.3311  0.7783
 8843SOL    HW335145   4.800   4.359   4.641  0.3602 -1.3395  0.2896
 8843SOL    MW435146   4.805   4.351   4.727 -0.0556 -0.1032  0.4575
 8844SOL     OW35147   1.697   5.545   6.422 -0.1627  0.2212 -0.0329
 8844SOL    HW235148   1.621   5.486   6.427  1.2377 -1.6744 -0.0696
 8844SOL    HW335149   1.769   5.495   6.460  0.8381  2.4544  1.1713
 8844SOL    MW435150   1.696   5.531   6.427  0.1541  0.2658  0.1211
 8845SOL     OW35151   3.629   1.814   4.964 -0.2333  0.2538 -0.0205
 8845SOL    HW235152   3.660   1.864   5.039  1.9304 -0.2846 -0.4932
 8845SOL    HW335153   3.649   1.723   4.985  0.8512  0.1352 -1.4118
 8845SOL    MW435154   3.636   1.809   4.976  0.1953  0.1672 -0.2665
 8846SOL     OW35155   2.833   1.188   4.240  0.2765  0.2196  0.2141
 8846SOL    HW235156   2.890   1.160   4.168 -1.6055  0.3287 -1.4108
 8846SOL    HW335157   2.809   1.278   4.218 -2.8139 -0.7183 -0.8341
 8846SOL    MW435158   2.837   1.196   4.228 -0.3796  0.1102 -0.1386
 8847SOL     OW35159   4.651   6.319   1.092 -0.7546 -0.0430 -0.0392
 8847SOL    HW235160   4.587   6.250   1.112 -1.4585  0.3606 -0.8280
 8847SOL    HW335161   4.732   6.289   1.132 -2.1904  1.1435  4.4356
 8847SOL    MW435162   4.653   6.306   1.100 -1.0369  0.1668  0.4471
 8848SOL     OW35163   2.628   6.074   3.117 -0.1800 -0.2798 -0.3282
 8848SOL    HW235164   2.545   6.116   3.095  0.5956  1.8646  0.5025
 8848SOL    HW335165   2.610   6.025   3.197 -0.5257  0.7022  0.2157
 8848SOL    MW435166   2.615   6.073   3.125 -0.1233  0.1327 -0.1468
 8849SOL     OW35167   0.945   2.911   4.952  0.2853  0.4331 -0.2278
 8849SOL    HW235168   0.899   2.871   4.879 -0.6214  0.7019  0.1908
 8849SOL    HW335169   0.954   2.841   5.017 -0.7304  0.7248  0.2396
 8849SOL    MW435170   0.940   2.897   4.951  0.0317  0.5071 -0.1109
 8850SOL     OW35171   0.657   1.685   4.028 -0.0395 -0.5365  0.1468
 8850SOL    HW235172   0.746   1.679   3.993  0.2139  0.4627  0.5906
 8850SOL    HW335173   0.601   1.695   3.951  0.4791  1.3114 -0.0314
 8850SOL    MW435174   0.662   1.685   4.014  0.0623 -0.1608  0.1819
 8851SOL     OW35175   0.095   1.844   5.519  0.2142 -0.1494  1.0366
 8851SOL    HW235176   0.182   1.864   5.553  0.7215 -1.1540  0.3776
 8851SOL    HW335177   0.110   1.821   5.427 -0.9354  1.0559  0.5271
 8851SOL    MW435178   0.108   1.843   5.512  0.1295 -0.1229  0.8824
 8852SOL     OW35179   2.434   0.517   4.848 -0.6267  0.3903 -0.6380
 8852SOL    HW235180   2.409   0.459   4.919 -0.8308 -1.0440 -1.8233
 8852SOL    HW335181   2.526   0.539   4.866 -0.9030  0.6919  0.4597
 8852SOL    MW435182   2.443   0.512   4.860 -0.6901  0.2408 -0.6496
 8853SOL     OW35183   3.625   1.226   3.393  0.2685  0.3810  0.1881
 8853SOL    HW235184   3.576   1.161   3.343  0.4542 -0.0490  0.5627
 8853SOL    HW335185   3.577   1.236   3.475  1.8051 -1.4776  1.4000
 8853SOL    MW435186   3.612   1.219   3.397  0.4957  0.0791  0.3974
 8854SOL     OW35187   0.317   5.203   3.574 -0.1957  0.0425 -0.2077
 8854SOL    HW235188   0.238   5.257   3.571  0.6518  1.3649  0.4760
 8854SOL    HW335189   0.289   5.121   3.615 -0.5390  1.7874  3.3839
 8854SOL    MW435190   0.303   5.199   3.579 -0.1291  0.4472  0.3564
 8855SOL     OW35191   5.103   2.521   2.077  0.0977 -0.1386  0.2304
 8855SOL    HW235192   5.172   2.531   2.011 -1.6877 -0.6315 -1.8364
 8855SOL    HW335193   5.087   2.609   2.110  1.0912  0.1013  0.0803
 8855SOL    MW435194   5.110   2.534   2.073 -0.0068 -0.1720 -0.0621
 8856SOL     OW35195   6.006   0.727   3.856 -0.2324 -0.3312  0.0782
 8856SOL    HW235196   6.098   0.732   3.831 -0.5996  1.8335 -1.1389
 8856SOL    HW335197   6.002   0.656   3.920  2.2506 -0.5454  0.0942
 8856SOL    MW435198   6.017   0.718   3.861  0.0468 -0.0739 -0.0803
 8857SOL     OW35199   2.493   1.821   1.583 -0.4086 -0.3448 -0.3376
 8857SOL    HW235200   2.522   1.885   1.517 -0.0689  0.0275  0.1696
 8857SOL    HW335201   2.568   1.812   1.642 -1.1707  0.3489  0.7744
 8857SOL    MW435202   2.507   1.828   1.582 -0.4643 -0.2041 -0.1240
 8858SOL     OW35203   5.635   6.187   4.321  0.1384 -0.2674  0.3666
 8858SOL    HW235204   5.591   6.106   4.345  1.6812 -1.1013  0.5395
 8858SOL    HW335205   5.604   6.252   4.384  0.7451 -1.3376  1.8240
 8858SOL    MW435206   5.625   6.185   4.332  0.4220 -0.5186  0.5817
 8859SOL     OW35207   3.514   5.268   2.703 -0.1345 -0.4812  0.3504
 8859SOL    HW235208   3.534   5.175   2.711 -5.0202 -1.9023 -0.3285
 8859SOL    HW335209   3.463   5.288   2.782  0.3257  1.4886  0.1948
 8859SOL    MW435210   3.510   5.258   2.715 -0.7184 -0.4088  0.2403
 8860SOL     OW35211   1.461   4.848   0.153  0.6095 -0.0467 -0.5396
 8860SOL    HW235212   1.509   4.929   0.170  0.5647  0.3165 -2.0416
 8860SOL    HW335213   1.467   4.799   0.235 -0.5165  2.0385  0.8536
 8860SOL    MW435214   1.468   4.852   0.166  0.4550  0.2763 -0.5540
 8861SOL     OW35215   0.840   2.484   5.724 -0.1204  0.1128  0.3712
 8861SOL    HW235216   0.796   2.569   5.721  1.0796  0.7196 -0.4881
 8861SOL    HW335217   0.928   2.500   5.690  1.0631 -0.9107  2.6894
 8861SOL    MW435218   0.846   2.497   5.719  0.1941  0.0578  0.5637
 8862SOL     OW35219   4.929   1.032   3.289 -0.1926  0.1243 -0.5627
 8862SOL    HW235220   4.909   0.990   3.373 -0.2045 -1.1783 -1.1875
 8862SOL    HW335221   5.021   1.058   3.296  0.4430 -1.9029 -0.8940
 8862SOL    MW435222   4.938   1.030   3.301 -0.1103 -0.3150 -0.6888
 8863SOL     OW35223   4.214   5.877   6.151  0.3958  0.2535  0.9171
 8863SOL    HW235224   4.239   5.865   6.243  2.6211 -0.0818  0.3280
 8863SOL    HW335225   4.268   5.814   6.103 -1.7940 -0.6196 -0.5252
 8863SOL    MW435226   4.224   5.868   6.157  0.4005  0.0940  0.6491
 8864SOL     OW35227   1.351   0.387   2.648 -0.2860  0.2360 -0.1559
 8864SOL    HW235228   1.399   0.454   2.696  1.2394 -0.2920 -0.8621
 8864SOL    HW335229   1.356   0.416   2.556 -0.7162 -0.1926 -0.3157
 8864SOL    MW435230   1.358   0.400   2.642 -0.1415  0.1098 -0.2702
 8865SOL     OW35231   2.741   4.498   2.811  0.0272  0.5563  0.3037
 8865SOL    HW235232   2.805   4.494   2.883  0.5356  2.7111  0.0225
 8865SOL    HW335233   2.692   4.416   2.819  0.8490  0.1976  2.3622
 8865SOL    MW435234   2.743   4.486   2.821  0.2027  0.7933  0.5382
 8866SOL     OW35235   4.325   6.430   3.564  0.1984 -0.0572  0.0481
 8866SOL    HW235236   4.299   6.476   3.484  2.1818  0.5459 -0.2910
 8866SOL    HW335237   4.378   6.494   3.612  0.5517 -1.0195  0.9784
 8866SOL    MW435238   4.328   6.445   3.560  0.5067 -0.1046  0.1261
 8867SOL     OW35239   1.873   4.490   3.101  0.4070  0.0100  0.7571
 8867SOL    HW235240   1.836   4.412   3.059  0.7483 -0.9160  2.1062
 8867SOL    HW335241   1.898   4.460   3.189  0.1028  1.7767  1.4743
 8867SOL    MW435242   1.871   4.476   3.107  0.4119  0.1209  1.0297
 8868SOL     OW35243   2.478   4.549   3.174 -0.4492  0.8708 -0.0998
 8868SOL    HW235244   2.454   4.507   3.092 -0.3445 -0.5216  0.5633
 8868SOL    HW335245   2.565   4.586   3.157 -0.0337 -0.1836 -0.3583
 8868SOL    MW435246   2.486   4.549   3.161 -0.3806  0.5480 -0.0464
 8869SOL     OW35247   1.278   4.874   3.873 -0.3041 -0.1453 -0.1344
 8869SOL    HW235248   1.271   4.784   3.840  1.2007 -0.3676  0.0973
 8869SOL    HW335249   1.319   4.922   3.801  0.1305  0.0618  0.2537
 8869SOL    MW435250   1.282   4.868   3.859 -0.0482 -0.1473 -0.0526
 8870SOL     OW35251   0.476   6.318   4.079 -0.1332 -0.1517 -0.0710
 8870SOL    HW235252   0.487   6.362   4.164  1.0597  1.1302 -0.8296
 8870SOL    HW335253   0.504   6.228   4.095  2.5334  0.6524  0.4128
 8870SOL    MW435254   0.481   6.312   4.092  0.3760  0.1235 -0.1073
 8871SOL     OW35255   4.187   4.345   6.106 -0.1240 -0.9500 -0.5313
 8871SOL    HW235256   4.158   4.258   6.076 -0.1663 -0.5197 -1.8023
 8871SOL    HW335257   4.110   4.381   6.150 -0.2081 -1.4290 -0.2765
 8871SOL    MW435258   4.173   4.338   6.107 -0.1407 -0.9565 -0.6654
 8872SOL     OW35259   1.751   3.936   4.106 -0.0553  0.1289  0.1084
 8872SOL    HW235260   1.760   3.877   4.032 -1.6179 -0.6374  0.4827
 8872SOL    HW335261   1.718   3.881   4.177 -1.5374  1.4086  0.4762
 8872SOL    MW435262   1.748   3.921   4.106 -0.4570  0.1967  0.2063
 8873SOL     OW35263   4.385   1.034   3.776  0.4560 -0.1049 -0.4115
 8873SOL    HW235264   4.317   1.069   3.719  0.7833 -0.8652 -1.2735
 8873SOL    HW335265   4.453   1.003   3.717  1.2054 -0.0808  0.4189
 8873SOL    MW435266   4.385   1.034   3.761  0.5981 -0.2020 -0.4157
 8874SOL     OW35267   0.912   2.792   3.143  0.2542  0.0875  0.1962
 8874SOL    HW235268   0.846   2.840   3.094  1.1223 -0.3314 -1.4757
 8874SOL    HW335269   0.910   2.830   3.231 -0.4671  1.7946 -0.5114
 8874SOL    MW435270   0.903   2.803   3.148  0.2736  0.2575 -0.1177
 8875SOL     OW35271   2.783   0.828   3.482  0.3171  0.1890 -0.0939
 8875SOL    HW235272   2.783   0.917   3.448 -0.4712 -0.0345 -0.7185
 8875SOL    HW335273   2.876   0.807   3.494  0.4853  1.6952  1.7498
 8875SOL    MW435274   2.796   0.837   3.479  0.2353  0.3582  0.0669
 8876SOL     OW35275   3.044   3.239   0.411  0.2155 -0.3096  0.2499
 8876SOL    HW235276   3.131   3.251   0.449  0.3754  0.4268 -0.3222
 8876SOL    HW335277   2.990   3.305   0.454  0.4049  0.5504 -0.7907
 8876SOL    MW435278   3.049   3.249   0.422  0.2615 -0.0990  0.0371
 8877SOL     OW35279   2.848   1.176   6.075  0.1954 -0.5739  0.0185
 8877SOL    HW235280   2.776   1.175   6.138 -0.3058 -0.7259 -0.5518
 8877SOL    HW335281   2.914   1.233   6.115 -0.2215 -0.4659  0.5617
 8877SOL    MW435282   2.847   1.184   6.088  0.0743 -0.5797  0.0149
 8878SOL     OW35283   6.382   0.373   1.899 -0.0940 -0.0930 -0.6211
 8878SOL    HW235284   6.392   0.439   1.830  1.7908 -1.9654 -2.3073
 8878SOL    HW335285   6.307   0.321   1.870 -1.7591  1.3499  0.8532
 8878SOL    MW435286   6.373   0.375   1.886 -0.0650 -0.1497 -0.6491
 8879SOL     OW35287   2.603   5.317   0.117  0.0524 -0.2642  0.4763
 8879SOL    HW235288   2.666   5.385   0.098 -0.3815 -0.8135 -4.0739
 8879SOL    HW335289   2.655   5.237   0.127  0.2605 -0.3960 -1.3912
 8879SOL    MW435290   2.618   5.315   0.116  0.0226 -0.3540 -0.3705
 8880SOL     OW35291   1.058   4.933   4.600 -0.0378 -0.2358 -0.3079
 8880SOL    HW235292   1.052   5.027   4.585 -2.4372 -0.4517 -1.2622
 8880SOL    HW335293   1.152   4.915   4.608  0.4157  2.5626  2.5645
 8880SOL    MW435294   1.070   4.943   4.599 -0.2946  0.1050 -0.0548
 8881NA      NA35295   0.514   5.139   0.251 -0.0108 -0.0473  0.1054
 8882NA      NA35296   1.484   2.334   4.727 -0.3418 -0.1561  0.0184
 8883NA      NA35297   0.442   3.200   2.965  0.0138 -0.3274 -0.0775
 8884NA      NA35298   3.514   3.878   0.498 -0.1915  0.0480 -0.4164
 8885NA      NA35299   4.777   2.624   6.098 -0.3504  0.0897  0.8445
 8886NA      NA35300   0.701   2.743   1.701 -0.4843 -0.0428  0.3448
 8887NA      NA35301   0.625   4.111   2.801 -0.0223  0.6062  0.1810
   6.42842   6.42842   6.42842
